# vtk DataFile Version 2.0
Unstructured Grid by M++
ASCII
DATASET UNSTRUCTURED_GRID
POINTS 1089 float
  1.000000   0.968750 0
  0.968750   0.968750 0
  0.468750   0.718750 0
  0.968750   1.000000 0
  0.468750   0.750000 0
  1.000000   1.000000 0
  0.500000   0.750000 0
  0.468750   0.093750 0
  0.468750   0.125000 0
  0.968750   0.375000 0
  0.468750   0.156250 0
  0.968750   0.406250 0
  0.500000   0.156250 0
  1.000000   0.406250 0
  0.062500   0.218750 0
  0.562500   0.468750 0
  0.031250   0.187500 0
  0.531250   0.437500 0
  0.000000   0.187500 0
  0.500000   0.437500 0
  0.031250   0.250000 0
  0.031250   0.218750 0
  0.000000   0.218750 0
  0.000000   0.250000 0
  0.843750   0.906250 0
  0.343750   0.656250 0
  0.062500   0.187500 0
  0.562500   0.437500 0
  0.000000   0.437500 0
  0.500000   0.687500 0
  0.031250   0.437500 0
  0.531250   0.687500 0
  0.000000   0.406250 0
  0.500000   0.656250 0
  0.031250   0.406250 0
  0.531250   0.656250 0
  0.031250   0.375000 0
  0.531250   0.625000 0
  0.968750   0.593750 0
  0.968750   0.562500 0
  0.968750   0.531250 0
  0.468750   0.281250 0
  0.000000   0.375000 0
  1.000000   0.875000 0
  0.500000   0.625000 0
  0.062500   0.125000 0
  0.562500   0.375000 0
  0.062500   0.093750 0
  0.562500   0.343750 0
  0.062500   0.062500 0
  0.562500   0.312500 0
  0.031250   0.062500 0
  0.531250   0.312500 0
  0.000000   0.062500 0
  1.000000   0.562500 0
  0.500000   0.312500 0
  0.031250   0.125000 0
  0.531250   0.375000 0
  0.031250   0.093750 0
  0.531250   0.343750 0
  0.000000   0.093750 0
  0.500000   0.343750 0
  0.000000   0.125000 0
  0.500000   0.375000 0
  0.500000   0.406250 0
  0.000000   0.156250 0
  0.531250   0.406250 0
  0.031250   0.156250 0
  0.531250   0.468750 0
  0.500000   0.468750 0
  1.000000   0.718750 0
  0.968750   0.937500 0
  1.000000   0.937500 0
  0.968750   0.906250 0
  1.000000   0.906250 0
  1.000000   0.593750 0
  0.937500   0.843750 0
  1.000000   0.843750 0
  0.500000   0.593750 0
  0.000000   0.343750 0
  0.968750   0.843750 0
  0.468750   0.593750 0
  0.968750   0.875000 0
  0.843750   0.281250 0
  0.343750   0.031250 0
  0.531250   0.500000 0
  0.593750   0.250000 0
  0.593750   0.281250 0
  0.281250   0.093750 0
  0.781250   0.343750 0
  0.093750   0.843750 0
  0.906250   0.531250 0
  0.968750   0.281250 0
  0.937500   0.531250 0
  1.000000   0.281250 0
  0.906250   0.062500 0
  0.718750   0.812500 0
  0.218750   0.562500 0
  0.843750   0.312500 0
  0.343750   0.062500 0
  0.906250   0.093750 0
  0.718750   0.843750 0
  0.218750   0.593750 0
  0.843750   0.343750 0
  0.343750   0.093750 0
  0.656250   0.062500 0
  0.468750   0.812500 0
  0.593750   0.312500 0
  0.656250   0.093750 0
  0.468750   0.843750 0
  0.593750   0.343750 0
  0.093750   0.093750 0
  0.687500   0.843750 0
  0.187500   0.593750 0
  0.875000   0.093750 0
  0.812500   0.343750 0
  0.312500   0.093750 0
  0.656250   0.843750 0
  0.156250   0.593750 0
  0.843750   0.093750 0
  0.718750   0.656250 0
  0.656250   0.906250 0
  0.843750   0.156250 0
  0.781250   0.406250 0
  0.718750   0.625000 0
  0.218750   0.375000 0
  0.656250   0.875000 0
  0.156250   0.625000 0
  0.843750   0.125000 0
  0.781250   0.375000 0
  0.281250   0.125000 0
  0.906250   0.437500 0
  0.406250   0.187500 0
  0.968750   0.187500 0
  0.781250   0.937500 0
  0.281250   0.687500 0
  0.906250   0.500000 0
  0.968750   0.250000 0
  0.781250   1.000000 0
  1.000000   0.812500 0
  0.500000   0.562500 0
  0.000000   0.312500 0
  0.968750   0.812500 0
  0.468750   0.562500 0
  1.000000   0.531250 0
  0.500000   0.281250 0
  0.000000   0.031250 0
  0.937500   0.781250 0
  0.437500   0.531250 0
  0.125000   0.843750 0
  0.250000   0.343750 0
  0.750000   0.593750 0
  0.937500   0.812500 0
  0.437500   0.562500 0
  0.937500   1.000000 0
  0.437500   0.750000 0
  1.000000   0.750000 0
  0.500000   0.500000 0
  0.375000   0.062500 0
  0.875000   0.312500 0
  0.187500   0.812500 0
  0.250000   0.562500 0
  0.750000   0.812500 0
  0.312500   0.312500 0
  0.812500   0.562500 0
  0.906250   1.000000 0
  0.406250   0.750000 0
  0.968750   0.750000 0
  0.468750   0.500000 0
  0.156250   0.812500 0
  0.281250   0.312500 0
  0.781250   0.562500 0
  0.968750   0.781250 0
  0.468750   0.531250 0
  0.156250   0.843750 0
  0.281250   0.343750 0
  0.781250   0.593750 0
  0.406250   0.031250 0
  0.218750   0.781250 0
  0.343750   0.281250 0
  0.406250   0.093750 0
  0.906250   0.343750 0
  0.218750   0.843750 0
  0.343750   0.343750 0
  0.843750   0.593750 0
  1.000000   0.781250 0
  0.500000   0.531250 0
  0.375000   0.093750 0
  0.875000   0.343750 0
  0.187500   0.843750 0
  0.250000   0.593750 0
  0.750000   0.843750 0
  0.312500   0.343750 0
  0.812500   0.593750 0
  0.406250   0.062500 0
  0.906250   0.312500 0
  0.218750   0.812500 0
  0.343750   0.312500 0
  0.843750   0.562500 0
  0.531250   0.250000 0
  0.531250   0.281250 0
  0.031250   0.031250 0
  0.406250   0.781250 0
  0.437500   0.781250 0
  0.562500   0.281250 0
  0.562500   0.250000 0
  0.625000   0.062500 0
  0.437500   0.812500 0
  0.593750   0.062500 0
  0.406250   0.812500 0
  0.625000   0.093750 0
  0.437500   0.843750 0
  0.937500   0.437500 0
  0.437500   0.187500 0
  1.000000   0.187500 0
  0.812500   0.937500 0
  0.312500   0.687500 0
  0.031250   0.625000 0
  0.218750   0.000000 0
  0.718750   0.250000 0
  0.093750   0.500000 0
  0.593750   0.750000 0
  0.031250   0.750000 0
  0.531250   1.000000 0
  0.218750   0.125000 0
  0.156250   0.375000 0
  0.031250   0.875000 0
  0.093750   0.625000 0
  0.156250   0.406250 0
  0.093750   0.656250 0
  0.156250   0.468750 0
  0.656250   0.718750 0
  0.093750   0.718750 0
  0.593750   0.968750 0
  0.156250   0.437500 0
  0.093750   0.687500 0
  0.187500   0.125000 0
  0.125000   0.375000 0
  0.000000   0.875000 0
  0.062500   0.625000 0
  0.125000   0.406250 0
  0.062500   0.656250 0
  0.250000   0.000000 0
  0.750000   0.250000 0
  0.125000   0.500000 0
  0.625000   0.750000 0
  0.062500   0.750000 0
  0.562500   1.000000 0
  0.531250   0.031250 0
  0.343750   0.781250 0
  0.406250   0.531250 0
  0.906250   0.781250 0
  0.562500   0.031250 0
  0.375000   0.781250 0
  0.562500   0.062500 0
  0.375000   0.812500 0
  0.531250   0.062500 0
  0.343750   0.812500 0
  0.406250   0.562500 0
  0.468750   0.312500 0
  0.562500   0.093750 0
  0.375000   0.843750 0
  0.437500   0.593750 0
  0.437500   0.437500 0
  0.937500   0.687500 0
  0.625000   0.625000 0
  0.562500   0.875000 0
  0.750000   0.125000 0
  0.687500   0.375000 0
  0.125000   0.875000 0
  0.718750   0.125000 0
  0.593750   0.625000 0
  0.531250   0.875000 0
  0.656250   0.375000 0
  0.937500   0.875000 0
  1.000000   0.625000 0
  0.937500   0.218750 0
  0.750000   0.968750 0
  0.812500   0.718750 0
  0.875000   0.468750 0
  0.937500   0.156250 0
  0.937500   0.125000 0
  0.218750   0.906250 0
  0.343750   0.406250 0
  0.843750   0.656250 0
  0.406250   0.156250 0
  0.906250   0.406250 0
  0.281250   0.656250 0
  0.781250   0.906250 0
  0.968750   0.156250 0
  0.812500   0.093750 0
  0.093750   0.875000 0
  0.906250   0.875000 0
  0.968750   0.625000 0
  0.093750   0.906250 0
  0.156250   0.656250 0
  0.218750   0.406250 0
  0.281250   0.156250 0
  0.906250   0.906250 0
  0.968750   0.656250 0
  0.062500   0.906250 0
  0.187500   0.406250 0
  0.125000   0.656250 0
  0.250000   0.156250 0
  0.875000   0.906250 0
  0.375000   0.656250 0
  0.312500   0.906250 0
  0.937500   0.656250 0
  0.437500   0.406250 0
  0.062500   0.875000 0
  0.187500   0.375000 0
  0.250000   0.125000 0
  0.125000   0.625000 0
  0.875000   0.875000 0
  1.000000   0.375000 0
  0.937500   0.625000 0
  0.156250   0.687500 0
  0.218750   0.437500 0
  0.093750   0.937500 0
  0.281250   0.187500 0
  0.906250   0.937500 0
  0.406250   0.687500 0
  0.968750   0.687500 0
  0.468750   0.437500 0
  0.531250   0.187500 0
  0.343750   0.937500 0
  0.093750   1.000000 0
  0.187500   0.437500 0
  0.062500   0.937500 0
  0.250000   0.187500 0
  0.125000   0.687500 0
  0.437500   0.875000 0
  0.625000   0.125000 0
  0.750000   0.156250 0
  0.562500   0.906250 0
  0.625000   0.656250 0
  0.687500   0.406250 0
  0.718750   0.156250 0
  0.937500   0.906250 0
  1.000000   0.656250 0
  0.750000   0.187500 0
  0.718750   0.187500 0
  0.687500   0.187500 0
  0.625000   0.437500 0
  0.125000   0.187500 0
  0.562500   0.687500 0
  0.062500   0.437500 0
  0.500000   0.937500 0
  0.000000   0.687500 0
  0.687500   0.156250 0
  0.687500   0.125000 0
  0.750000   0.750000 0
  0.687500   1.000000 0
  0.875000   0.250000 0
  0.812500   0.500000 0
  0.937500   0.000000 0
  0.906250   0.250000 0
  0.843750   0.500000 0
  0.781250   0.750000 0
  0.718750   1.000000 0
  0.968750   0.000000 0
  0.906250   0.281250 0
  0.968750   0.031250 0
  0.843750   0.531250 0
  0.781250   0.781250 0
  0.937500   0.187500 0
  0.750000   1.000000 0
  0.875000   0.500000 0
  0.937500   0.250000 0
  0.812500   0.750000 0
  1.000000   0.000000 0
  0.875000   0.531250 0
  0.937500   0.281250 0
  1.000000   0.031250 0
  0.812500   0.781250 0
  0.875000   0.562500 0
  0.937500   0.312500 0
  1.000000   0.062500 0
  0.812500   0.812500 0
  0.937500   0.062500 0
  0.000000   0.468750 0
  0.500000   0.718750 0
  0.625000   0.218750 0
  0.437500   0.968750 0
  0.500000   0.781250 0
  0.625000   0.281250 0
  0.562500   0.531250 0
  0.687500   0.031250 0
  0.656250   0.218750 0
  0.468750   0.968750 0
  0.531250   0.781250 0
  0.656250   0.281250 0
  0.718750   0.031250 0
  0.593750   0.531250 0
  0.531250   0.812500 0
  0.656250   0.312500 0
  0.718750   0.062500 0
  0.593750   0.562500 0
  0.156250   0.000000 0
  0.656250   0.250000 0
  0.718750   0.000000 0
  0.093750   0.250000 0
  0.593750   0.500000 0
  0.468750   1.000000 0
  0.031250   0.500000 0
  0.531250   0.750000 0
  0.750000   0.031250 0
  0.625000   0.593750 0
  0.750000   0.093750 0
  0.687500   0.343750 0
  0.562500   0.843750 0
  0.687500   0.062500 0
[...]
CELL_DATA 1024
VECTORS vector_value float
3.79637e-10 -1 0
4.72211e-10 -1 0
4.90632e-10 -1 0
3.80427e-10 -1 0
4.25321e-10 -1 0
4.60401e-10 -1 0
3.51507e-10 -1 0
3.15008e-10 -1 0
6.10248e-10 -1 0
5.53148e-10 -1 0
5.10805e-10 -1 0
5.77421e-10 -1 0
4.54509e-10 -1 0
3.81285e-10 -1 0
4.40369e-10 -1 0
5.16257e-10 -1 0
-2.43964e-10 -1 0
-2.70741e-10 -1 0
-2.97297e-10 -1 0
-2.5197e-10 -1 0
-3.36597e-10 -1 0
0 -1 0
0 -1 0
0 -1 0
0 -1 0
0 -1 0
-1.06611e-10 -1 0
0 -1 0
0 -1 0
-1.35606e-10 -1 0
0 -1 0
0 -1 0
-1.41331e-10 -1 0
-1.25499e-10 -1 0
0 -1 0
0 -1 0
0 -1 0
0 -1 0
3.57479e-10 -1 0
3.67382e-10 -1 0
3.24058e-10 -1 0
3.075e-10 -1 0
3.94546e-10 -1 0
0 -1 0
-1.87544e-10 -1 0
0 -1 0
0 -1 0
0 -1 0
0 -1 0
0 -1 0
-1.77312e-10 -1 0
0 -1 0
0 -1 0
-1.74334e-10 -1 0
3.39174e-10 -1 0
-3.10034e-10 -1 0
3.78606e-10 -1 0
-3.63428e-10 -1 0
3.81261e-10 -1 0
-3.75741e-10 -1 0
3.47798e-10 -1 0
0 -1 0
0 -1 0
1.29765e-10 -1 0
1.51267e-10 -1 0
0 -1 0
0 -1 0
0 -1 0
0 -1 0
0 -1 0
0 -1 0
0 -1 0
0 -1 0
0 -1 0
0 -1 0
0 -1 0
0 -1 0
0 -1 0
0 -1 0
1.26619e-10 -1 0
0 -1 0
0 -1 0
0 -1 0
0 -1 0
0 -1 0
0 -1 0
0 -1 0
0 -1 0
0 -1 0
0 -1 0
0 -1 0
0 -1 0
0 -1 0
0 -1 0
0 -1 0
0 -1 0
0 -1 0
0 -1 0
0 -1 0
-1.28529e-10 -1 0
-1.45318e-10 -1 0
-1.83957e-10 -1 0
2.88112e-10 -1 0
2.37288e-10 -1 0
1.93135e-10 -1 0
2.3283e-10 -1 0
4.10542e-10 -1 0
-1.66112e-10 -1 0
3.98254e-10 -1 0
-2.20102e-10 -1 0
-2.06411e-10 -1 0
4.13537e-10 -1 0
-1.44227e-10 -1 0
-1.77753e-10 -1 0
-1.37705e-10 -1 0
0 -1 0
-1.1037e-10 -1 0
2.9952e-10 -1 0
2.7628e-10 -1 0
3.27552e-10 -1 0
-1.30382e-10 -1 0
3.83494e-10 -1 0
0 -1 0
3.42319e-10 -1 0
0 -1 0
3.22406e-10 -1 0
-1.76521e-10 -1 0
3.72131e-10 -1 0
1.95701e-10 -1 0
4.42361e-10 -1 0
4.12422e-10 -1 0
4.9458e-10 -1 0
1.93372e-10 -1 0
-2.59089e-10 -1 0
4.01635e-10 -1 0
2.21491e-10 -1 0
-3.18115e-10 -1 0
3.98511e-10 -1 0
0 -1 0
1.10783e-10 -1 0
5.82054e-10 -1 0
0 -1 0
1.31393e-10 -1 0
5.77033e-10 -1 0
0 -1 0
0 -1 0
6.4997e-10 -1 0
-5.47827e-10 -1 0
0 -1 0
2.49258e-10 -1 0
0 -1 0
0 -1 0
0 -1 0
6.26925e-10 -1 0
-5.47377e-10 -1 0
0 -1 0
2.38534e-10 -1 0
0 -1 0
2.86085e-10 -1 0
-2.4341e-10 -1 0
3.96818e-10 -1 0
0 -1 0
0 -1 0
0 -1 0
0 -1 0
-3.72105e-10 -1 0
3.88485e-10 -1 0
-3.5931e-10 -1 0
2.3963e-10 -1 0
-2.19902e-10 -1 0
-2.68426e-10 -1 0
3.7824e-10 -1 0
2.54558e-10 -1 0
-2.01252e-10 -1 0
4.0346e-10 -1 0
-1.10327e-10 -1 0
0 -1 0
0 -1 0
0 -1 0
-4.25362e-10 -1 0
4.05834e-10 -1 0
-3.34852e-10 -1 0
1.65983e-10 -1 0
-1.49847e-10 -1 0
-3.14111e-10 -1 0
3.14763e-10 -1 0
0 -1 0
0 -1 0
0 -1 0
1.3336e-10 -1 0
1.57007e-10 -1 0
0 -1 0
0 -1 0
0 -1 0
0 -1 0
0 -1 0
0 -1 0
0 -1 0
0 -1 0
0 -1 0
-4.01259e-10 -1 0
2.32712e-10 -1 0
0 -1 0
1.22139e-10 -1 0
0 -1 0
0 -1 0
-3.80283e-10 -1 0
2.48488e-10 -1 0
3.96224e-10 -1 0
1.46679e-10 -1 0
4.07675e-10 -1 0
1.19119e-10 -1 0
4.26948e-10 -1 0
2.03949e-10 -1 0
4.16542e-10 -1 0
2.31032e-10 -1 0
2.98848e-10 -1 0
0 -1 0
-2.16246e-10 -1 0
0 -1 0
3.71098e-10 -1 0
-2.05098e-10 -1 0
0 -1 0
1.28354e-10 -1 0
2.88713e-10 -1 0
1.9101e-10 -1 0
1.83837e-10 -1 0
3.114e-10 -1 0
0 -1 0
0 -1 0
-3.54551e-10 -1 0
0 -1 0
0 -1 0
0 -1 0
0 -1 0
0 -1 0
0 -1 0
0 -1 0
0 -1 0
0 -1 0
0 -1 0
0 -1 0
0 -1 0
0 -1 0
0 -1 0
-2.16727e-10 -1 0
-2.80062e-10 -1 0
0 -1 0
-4.2106e-10 -1 0
2.06903e-10 -1 0
0 -1 0
-1.44929e-10 -1 0
1.24978e-10 -1 0
0 -1 0
-3.91895e-10 -1 0
0 -1 0
-4.77723e-10 -1 0
2.00522e-10 -1 0
-1.38695e-10 -1 0
0 -1 0
-1.67033e-10 -1 0
-3.2747e-10 -1 0
0 -1 0
-4.44029e-10 -1 0
1.66925e-10 -1 0
4.29493e-10 -1 0
-1.57743e-10 -1 0
1.13041e-10 -1 0
1.72668e-10 -1 0
0 -1 0
1.34846e-10 -1 0
0 -1 0
0 -1 0
0 -1 0
1.91879e-10 -1 0
0 -1 0
0 -1 0
-1.67023e-10 -1 0
1.63988e-10 -1 0
-1.41651e-10 -1 0
1.35262e-10 -1 0
0 -1 0
1.06293e-10 -1 0
-5.05726e-10 -1 0
1.82093e-10 -1 0
0 -1 0
-4.75836e-10 -1 0
-3.31874e-10 -1 0
-1.43222e-10 -1 0
2.49522e-10 -1 0
-4.53972e-10 -1 0
3.78175e-10 -1 0
1.03487e-10 -1 0
0 -1 0
0 -1 0
-1.08959e-10 -1 0
0 -1 0
0 -1 0
-2.67845e-10 -1 0
-1.97226e-10 -1 0
2.81924e-10 -1 0
-4.20304e-10 -1 0
3.39424e-10 -1 0
-2.51525e-10 -1 0
3.8029e-10 -1 0
3.41891e-10 -1 0
-1.80927e-10 -1 0
-1.1054e-10 -1 0
-1.07571e-10 -1 0
0 -1 0
0 -1 0
-3.84327e-10 -1 0
-3.43895e-10 -1 0
2.64977e-10 -1 0
1.89436e-10 -1 0
-1.85683e-10 -1 0
-2.57268e-10 -1 0
2.98751e-10 -1 0
-3.97707e-10 -1 0
2.91223e-10 -1 0
3.08453e-10 -1 0
-1.87488e-10 -1 0
0 -1 0
-5.70827e-10 -1 0
2.90442e-10 -1 0
0 -1 0
0 -1 0
2.12614e-10 -1 0
-4.57075e-10 -1 0
0 -1 0
-2.40499e-10 -1 0
3.68665e-10 -1 0
0 -1 0
-4.66517e-10 -1 0
-2.87819e-10 -1 0
3.31976e-10 -1 0
1.00896e-10 -1 0
0 -1 0
-2.20042e-10 -1 0
-4.30644e-10 -1 0
1.1927e-10 -1 0
0 -1 0
0 -1 0
-2.02484e-10 -1 0
-3.78881e-10 -1 0
0 -1 0
0 -1 0
-2.27528e-10 -1 0
-3.63546e-10 -1 0
0 -1 0
-2.27856e-10 -1 0
1.96896e-10 -1 0
0 -1 0
-4.85505e-10 -1 0
-4.90442e-10 -1 0
1.6362e-10 -1 0
0 -1 0
0 -1 0
1.5291e-10 -1 0
0 -1 0
-3.78459e-10 -1 0
-4.61446e-10 -1 0
2.85398e-10 -1 0
0 -1 0
2.51718e-10 -1 0
-5.2121e-10 -1 0
1.76371e-10 -1 0
0 -1 0
-1.28608e-10 -1 0
2.11881e-10 -1 0
0 -1 0
-4.02558e-10 -1 0
-4.55928e-10 -1 0
3.11926e-10 -1 0
0 -1 0
2.73354e-10 -1 0
-5.5309e-10 -1 0
0 -1 0
0 -1 0
-1.83626e-10 -1 0
2.30555e-10 -1 0
0 -1 0
-4.69474e-10 -1 0
-4.61009e-10 -1 0
2.55542e-10 -1 0
0 -1 0
2.20328e-10 -1 0
-5.25874e-10 -1 0
0 -1 0
0 -1 0
-1.53571e-10 -1 0
1.74127e-10 -1 0
0 -1 0
-4.413e-10 -1 0
-4.80203e-10 -1 0
2.31913e-10 -1 0
3.47031e-10 -1 0
-1.78423e-10 -1 0
0 -1 0
-3.19356e-10 -1 0
2.85969e-10 -1 0
0 -1 0
0 -1 0
-2.83396e-10 -1 0
1.85688e-10 -1 0
0 -1 0
0 -1 0
-2.87569e-10 -1 0
2.40299e-10 -1 0
-1.92676e-10 -1 0
0 -1 0
-3.39514e-10 -1 0
0 -1 0
1.28311e-10 -1 0
1.4158e-10 -1 0
0 -1 0
2.14641e-10 -1 0
0 -1 0
-2.23711e-10 -1 0
0 -1 0
2.09958e-10 -1 0
2.16795e-10 -1 0
2.69111e-10 -1 0
2.55054e-10 -1 0
-3.01981e-10 -1 0
0 -1 0
0 -1 0
0 -1 0
6.5659e-10 -1 0
0 -1 0
-2.89037e-10 -1 0
-2.87245e-10 -1 0
0 -1 0
0 -1 0
-1.09132e-10 -1 0
6.70288e-10 -1 0
0 -1 0
-2.89959e-10 -1 0
0 -1 0
2.04155e-10 -1 0
0 -1 0
1.4559e-10 -1 0
1.14794e-10 -1 0
1.43119e-10 -1 0
0 -1 0
1.62524e-10 -1 0
1.97207e-10 -1 0
-1.57823e-10 -1 0
4.04324e-10 -1 0
3.45635e-10 -1 0
0 -1 0
0 -1 0
-1.542e-10 -1 0
-1.00023e-10 -1 0
0 -1 0
0 -1 0
-2.19416e-10 -1 0
-1.97982e-10 -1 0
0 -1 0
0 -1 0
-2.16648e-10 -1 0
-2.13034e-10 -1 0
0 -1 0
-1.97902e-10 -1 0
4.16476e-10 -1 0
3.79932e-10 -1 0
0 -1 0
0 -1 0
-1.62442e-10 -1 0
-1.21867e-10 -1 0
0 -1 0
3.00246e-10 -1 0
0 -1 0
0 -1 0
-3.17231e-10 -1 0
3.1975e-10 -1 0
3.01878e-10 -1 0
-3.70477e-10 -1 0
-5.89982e-10 -1 0
2.39428e-10 -1 0
-4.27459e-10 -1 0
2.42797e-10 -1 0
1.39864e-10 -1 0
-2.97596e-10 -1 0
-1.49512e-10 -1 0
0 -1 0
0 -1 0
0 -1 0
2.65129e-10 -1 0
-1.8964e-10 -1 0
0 -1 0
0 -1 0
2.16087e-10 -1 0
-1.82457e-10 -1 0
2.47897e-10 -1 0
0 -1 0
-2.69258e-10 -1 0
-1.18901e-10 -1 0
0 -1 0
-1.03515e-10 -1 0
0 -1 0
-2.84411e-10 -1 0
6.42235e-10 -1 0
-2.43673e-10 -1 0
-1.98314e-10 -1 0
0 -1 0
0 -1 0
0 -1 0
-2.85888e-10 -1 0
6.00136e-10 -1 0
0 -1 0
0 -1 0
-5.57264e-10 -1 0
0 -1 0
0 -1 0
0 -1 0
0 -1 0
0 -1 0
-1.28443e-10 -1 0
-1.70165e-10 -1 0
0 -1 0
0 -1 0
0 -1 0
-1.1838e-10 -1 0
3.92296e-10 -1 0
-3.60317e-10 -1 0
4.20483e-10 -1 0
-2.39639e-10 -1 0
4.19436e-10 -1 0
-2.7227e-10 -1 0
3.87034e-10 -1 0
-3.07815e-10 -1 0
0 -1 0
0 -1 0
1.37973e-10 -1 0
0 -1 0
1.7644e-10 -1 0
-1.52355e-10 -1 0
2.08403e-10 -1 0
1.27402e-10 -1 0
0 -1 0
-1.10943e-10 -1 0
-3.16791e-10 -1 0
0 -1 0
1.94072e-10 -1 0
-4.39881e-10 -1 0
3.54062e-10 -1 0
0 -1 0
-2.39184e-10 -1 0
-4.45485e-10 -1 0
0 -1 0
0 -1 0
-1.14601e-10 -1 0
0 -1 0
-3.04561e-10 -1 0
0 -1 0
-5.50787e-10 -1 0
1.81619e-10 -1 0
-1.19385e-10 -1 0
-2.28518e-10 -1 0
1.48974e-10 -1 0
-2.00338e-10 -1 0
1.30814e-10 -1 0
6.69719e-10 -1 0
-3.48999e-10 -1 0
0 -1 0
0 -1 0
3.5663e-10 -1 0
0 -1 0
2.64223e-10 -1 0
-4.61827e-10 -1 0
2.89945e-10 -1 0
0 -1 0
-4.25078e-10 -1 0
3.64802e-10 -1 0
-1.10373e-10 -1 0
-3.14667e-10 -1 0
-1.34508e-10 -1 0
2.60123e-10 -1 0
0 -1 0
-2.15097e-10 -1 0
-3.3286e-10 -1 0
0 -1 0
0 -1 0
-3.3114e-10 -1 0
0 -1 0
-5.31784e-10 -1 0
1.45627e-10 -1 0
0 -1 0
-2.62573e-10 -1 0
0 -1 0
0 -1 0
-2.0094e-10 -1 0
-3.4831e-10 -1 0
0 -1 0
6.39194e-10 -1 0
0 -1 0
-3.66612e-10 -1 0
0 -1 0
3.42743e-10 -1 0
0 -1 0
-3.78873e-10 -1 0
3.90985e-10 -1 0
-1.61672e-10 -1 0
-2.20891e-10 -1 0
0 -1 0
2.42964e-10 -1 0
0 -1 0
-3.73439e-10 -1 0
0 -1 0
-1.86527e-10 -1 0
-3.36352e-10 -1 0
0 -1 0
6.24412e-10 -1 0
0 -1 0
0 -1 0
2.60266e-10 -1 0
0 -1 0
-1.53211e-10 -1 0
-3.08884e-10 -1 0
-1.60651e-10 -1 0
0 -1 0
-3.78348e-10 -1 0
5.9195e-10 -1 0
0 -1 0
3.1861e-10 -1 0
-3.6369e-10 -1 0
3.36253e-10 -1 0
0 -1 0
-3.13758e-10 -1 0
3.83191e-10 -1 0
-1.82013e-10 -1 0
-2.04677e-10 -1 0
0 -1 0
3.08633e-10 -1 0
0 -1 0
-5.18511e-10 -1 0
1.83954e-10 -1 0
0 -1 0
-4.34959e-10 -1 0
3.25125e-10 -1 0
0 -1 0
-3.98011e-10 -1 0
-1.85237e-10 -1 0
2.75355e-10 -1 0
1.28485e-10 -1 0
-3.11861e-10 -1 0
4.97688e-10 -1 0
-4.38245e-10 -1 0
0 -1 0
0 -1 0
0 -1 0
0 -1 0
2.74937e-10 -1 0
0 -1 0
2.56181e-10 -1 0
-4.28724e-10 -1 0
3.46361e-10 -1 0
0 -1 0
-3.63463e-10 -1 0
3.56231e-10 -1 0
-1.05179e-10 -1 0
-2.91422e-10 -1 0
-1.40803e-10 -1 0
3.25187e-10 -1 0
0 -1 0
0 -1 0
0 -1 0
-1.77934e-10 -1 0
-2.26114e-10 -1 0
0 -1 0
1.76826e-10 -1 0
-4.03005e-10 -1 0
3.75376e-10 -1 0
0 -1 0
-1.33e-10 -1 0
-3.02451e-10 -1 0
0 -1 0
1.34172e-10 -1 0
-4.29647e-10 -1 0
3.24928e-10 -1 0
0 -1 0
0 -1 0
1.44047e-10 -1 0
2.15475e-10 -1 0
-3.34462e-10 -1 0
5.37119e-10 -1 0
-4.00708e-10 -1 0
1.45153e-10 -1 0
-4.85488e-10 -1 0
4.54041e-10 -1 0
0 -1 0
0 -1 0
0 -1 0
-2.8113e-10 -1 0
1.78993e-10 -1 0
-2.81833e-10 -1 0
5.86155e-10 -1 0
-3.90666e-10 -1 0
1.22564e-10 -1 0
-4.46813e-10 -1 0
5.35388e-10 -1 0
0 -1 0
-2.68696e-10 -1 0
6.01811e-10 -1 0
-4.1812e-10 -1 0
0 -1 0
-1.87721e-10 -1 0
0 -1 0
0 -1 0
-2.58529e-10 -1 0
0 -1 0
0 -1 0
0 -1 0
1.61477e-10 -1 0
-3.62558e-10 -1 0
4.72766e-10 -1 0
0 -1 0
0 -1 0
-2.23354e-10 -1 0
-2.72741e-10 -1 0
-3.42265e-10 -1 0
3.08327e-10 -1 0
0 -1 0
-3.53804e-10 -1 0
0 -1 0
-2.04772e-10 -1 0
-2.13016e-10 -1 0
0 -1 0
1.17331e-10 -1 0
-4.05553e-10 -1 0
3.42442e-10 -1 0
0 -1 0
-2.48685e-10 -1 0
1.70159e-10 -1 0
-1.47629e-10 -1 0
2.71468e-10 -1 0
1.71076e-10 -1 0
0 -1 0
-1.25542e-10 -1 0
1.34283e-10 -1 0
-4.39036e-10 -1 0
1.25236e-10 -1 0
-1.22168e-10 -1 0
-2.17831e-10 -1 0
0 -1 0
-4.42335e-10 -1 0
5.74866e-10 -1 0
-3.51949e-10 -1 0
0 -1 0
-1.19745e-10 -1 0
-2.16072e-10 -1 0
1.59999e-10 -1 0
0 -1 0
0 -1 0
-4.75219e-10 -1 0
4.79614e-10 -1 0
-3.99927e-10 -1 0
1.23139e-10 -1 0
1.64518e-10 -1 0
1.71804e-10 -1 0
2.15555e-10 -1 0
0 -1 0
0 -1 0
1.33543e-10 -1 0
-3.74698e-10 -1 0
5.40043e-10 -1 0
0 -1 0
-1.12472e-10 -1 0
-2.66275e-10 -1 0
-2.2193e-10 -1 0
1.18002e-10 -1 0
-2.79116e-10 -1 0
4.73343e-10 -1 0
0 -1 0
0 -1 0
-1.73754e-10 -1 0
-3.02355e-10 -1 0
-2.79964e-10 -1 0
2.82235e-10 -1 0
0 -1 0
-3.62807e-10 -1 0
0 -1 0
-2.78723e-10 -1 0
5.47602e-10 -1 0
0 -1 0
0 -1 0
-2.14951e-10 -1 0
-2.54644e-10 -1 0
-2.78362e-10 -1 0
3.85182e-10 -1 0
0 -1 0
-3.30632e-10 -1 0
-1.8384e-10 -1 0
-1.43999e-10 -1 0
3.51313e-10 -1 0
-2.30002e-10 -1 0
3.65453e-10 -1 0
0 -1 0
-1.08168e-10 -1 0
-1.40462e-10 -1 0
0 -1 0
0 -1 0
-1.81903e-10 -1 0
-2.95641e-10 -1 0
0 -1 0
1.29091e-10 -1 0
-1.78927e-10 -1 0
0 -1 0
-2.65752e-10 -1 0
-4.3414e-10 -1 0
0 -1 0
0 -1 0
-2.41478e-10 -1 0
0 -1 0
-1.60914e-10 -1 0
-3.15004e-10 -1 0
0 -1 0
0 -1 0
-1.93924e-10 -1 0
1.8267e-10 -1 0
-3.55302e-10 -1 0
3.96885e-10 -1 0
0 -1 0
0 -1 0
-1.69254e-10 -1 0
-3.15849e-10 -1 0
1.35759e-10 -1 0
-3.64603e-10 -1 0
1.28381e-10 -1 0
-5.73264e-10 -1 0
2.33413e-10 -1 0
-1.11691e-10 -1 0
-2.67699e-10 -1 0
1.65803e-10 -1 0
0 -1 0
-3.98054e-10 -1 0
0 -1 0
-5.79491e-10 -1 0
1.84167e-10 -1 0
1.81216e-10 -1 0
-2.73424e-10 -1 0
1.69864e-10 -1 0
0 -1 0
1.95922e-10 -1 0
0 -1 0
-4.88512e-10 -1 0
1.39451e-10 -1 0
-4.26483e-10 -1 0
-1.95727e-10 -1 0
1.06171e-10 -1 0
0 -1 0
0 -1 0
-3.68183e-10 -1 0
1.45689e-10 -1 0
0 -1 0
-4.343e-10 -1 0
-2.43788e-10 -1 0
1.25034e-10 -1 0
0 -1 0
0 -1 0
-3.97885e-10 -1 0
1.87253e-10 -1 0
0 -1 0
-4.78752e-10 -1 0
-2.16708e-10 -1 0
1.47658e-10 -1 0
0 -1 0
0 -1 0
-4.35443e-10 -1 0
0 -1 0
0 -1 0
0 -1 0
0 -1 0
0 -1 0
0 -1 0
0 -1 0
0 -1 0
0 -1 0
0 -1 0
0 -1 0
0 -1 0
0 -1 0
0 -1 0
1.68242e-10 -1 0
2.38262e-10 -1 0
3.7387e-10 -1 0
1.95538e-10 -1 0
2.32586e-10 -1 0
1.08924e-10 -1 0
3.57594e-10 -1 0
2.51807e-10 -1 0
1.15069e-10 -1 0
3.92532e-10 -1 0
2.03253e-10 -1 0
2.4907e-10 -1 0
0 -1 0
2.60267e-10 -1 0
0 -1 0
3.13036e-10 -1 0
2.24986e-10 -1 0
2.97749e-10 -1 0
2.68706e-10 -1 0
0 -1 0
2.75604e-10 -1 0
0 -1 0
3.5532e-10 -1 0
0 -1 0
3.45331e-10 -1 0
0 -1 0
1.55409e-10 -1 0
0 -1 0
-1.35792e-10 -1 0
0 -1 0
1.69538e-10 -1 0
0 -1 0
-1.4505e-10 -1 0
0 -1 0
0 -1 0
0 -1 0
0 -1 0
0 -1 0
-2.16819e-10 -1 0
0 -1 0
0 -1 0
0 -1 0
0 -1 0
0 -1 0
0 -1 0
0 -1 0
0 -1 0
0 -1 0
0 -1 0
-1.53734e-10 -1 0
3.82536e-10 -1 0
0 -1 0
0 -1 0
-1.34107e-10 -1 0
4.1079e-10 -1 0
-1.11794e-10 -1 0
0 -1 0
-1.63443e-10 -1 0
3.98533e-10 -1 0
-1.21146e-10 -1 0
0 -1 0
-1.49837e-10 -1 0
3.60859e-10 -1 0
0 -1 0
-3.24169e-10 -1 0
0 -1 0
0 -1 0
2.79175e-10 -1 0
0 -1 0
0 -1 0
0 -1 0
0 -1 0
-1.36211e-10 -1 0
-2.05221e-10 -1 0
0 -1 0
0 -1 0
-1.43715e-10 -1 0
-1.58186e-10 -1 0
0 -1 0
0 -1 0
-2.11377e-10 -1 0
-1.48191e-10 -1 0
0 -1 0
0 -1 0
-1.8863e-10 -1 0
-2.11235e-10 -1 0
0 -1 0
-2.46058e-10 -1 0
0 -1 0
0 -1 0
-1.63157e-10 -1 0
-2.62836e-10 -1 0
0 -1 0
-2.97976e-10 -1 0
0 -1 0
-2.6602e-10 -1 0
-1.04583e-10 -1 0
0 -1 0
0 -1 0
0 -1 0
0 -1 0
0 -1 0
0 -1 0
2.46777e-10 -1 0
0 -1 0
3.26654e-10 -1 0
0 -1 0
3.01143e-10 -1 0
0 -1 0
2.23415e-10 -1 0
0 -1 0
2.37317e-10 -1 0
2.11036e-10 -1 0
2.89258e-10 -1 0
3.21223e-10 -1 0
1.55619e-10 -1 0
2.13541e-10 -1 0
2.5273e-10 -1 0
1.81583e-10 -1 0
3.39087e-10 -1 0
-1.07411e-10 -1 0
-1.44943e-10 -1 0
0 -1 0
-1.17717e-10 -1 0
0 -1 0
-2.05146e-10 -1 0
-1.12485e-10 -1 0
-1.83918e-10 -1 0
-4.63317e-10 -1 0
0 -1 0
0 -1 0
0 -1 0
0 -1 0
4.21576e-10 -1 0
0 -1 0
3.96661e-10 -1 0
0 -1 0
4.08201e-10 -1 0
0 -1 0
0 -1 0
