# vtk DataFile Version 2.0
Unstructured Grid by M++
ASCII
DATASET UNSTRUCTURED_GRID
POINTS 289 float
  0.562500   1.000000 0
  0.562500   0.937500 0
  0.625000   0.625000 0
  0.562500   0.875000 0
  0.625000   1.000000 0
  0.562500   0.625000 0
  0.625000   0.937500 0
  0.562500   0.562500 0
  0.562500   0.812500 0
  0.562500   0.750000 0
  0.562500   0.687500 0
  0.625000   0.687500 0
  0.625000   0.750000 0
  0.625000   0.875000 0
  0.625000   0.812500 0
  0.687500   0.125000 0
  0.875000   0.062500 0
  0.750000   0.437500 0
  0.687500   0.062500 0
  0.875000   0.000000 0
  0.937500   0.375000 0
  0.687500   0.000000 0
  0.937500   0.312500 0
  0.625000   0.125000 0
  0.625000   0.062500 0
  0.812500   0.000000 0
  0.875000   0.375000 0
  0.687500   0.375000 0
  0.625000   0.000000 0
  0.875000   0.312500 0
  0.937500   0.000000 0
  1.000000   0.187500 0
  0.750000   0.187500 0
  1.000000   0.687500 0
  0.312500   0.187500 0
  0.750000   0.687500 0
  0.750000   0.625000 0
  0.062500   0.187500 0
  0.812500   0.687500 0
  0.812500   0.750000 0
  0.125000   0.250000 0
  0.375000   0.250000 0
  0.500000   0.187500 0
  0.500000   0.125000 0
  0.687500   0.625000 0
  0.687500   0.562500 0
  0.000000   0.125000 0
  0.937500   0.625000 0
  0.250000   0.125000 0
  0.375000   0.437500 0
  0.812500   0.875000 0
  0.125000   0.375000 0
  0.125000   0.437500 0
  0.625000   0.437500 0
  0.750000   0.500000 0
  0.062500   0.000000 0
  0.062500   0.062500 0
  0.562500   0.062500 0
  0.437500   0.500000 0
  0.375000   0.125000 0
  0.875000   0.187500 0
  0.875000   0.125000 0
  0.500000   0.000000 0
  0.687500   0.437500 0
  0.000000   0.000000 0
  0.937500   0.437500 0
  0.250000   0.000000 0
  0.750000   0.062500 0
  0.750000   0.000000 0
  0.750000   0.750000 0
  0.062500   0.250000 0
  0.687500   0.687500 0
  0.000000   0.187500 0
  0.875000   0.875000 0
  0.187500   0.375000 0
  0.937500   0.937500 0
  0.250000   0.437500 0
  0.687500   0.937500 0
  0.687500   0.875000 0
  0.000000   0.437500 0
  0.875000   0.562500 0
  0.187500   0.062500 0
  0.750000   1.000000 0
  0.750000   0.937500 0
  0.062500   0.500000 0
  1.000000   1.000000 0
  0.312500   0.500000 0
  0.500000   0.812500 0
  0.437500   0.375000 0
  0.437500   0.437500 0
  0.375000   0.000000 0
  0.375000   0.062500 0
  0.437500   0.750000 0
  0.625000   0.375000 0
  0.562500   0.000000 0
  0.875000   0.937500 0
  0.187500   0.500000 0
  0.187500   0.437500 0
  0.812500   0.562500 0
  0.125000   0.125000 0
  0.125000   0.062500 0
  0.687500   1.000000 0
  0.000000   0.500000 0
  0.375000   0.375000 0
  0.375000   0.312500 0
  0.812500   0.812500 0
  0.125000   0.312500 0
  0.937500   0.750000 0
  0.250000   0.312500 0
  0.500000   0.312500 0
  0.687500   0.750000 0
  0.000000   0.250000 0
  0.000000   0.312500 0
  0.750000   0.375000 0
  0.750000   0.312500 0
  1.000000   0.812500 0
  0.312500   0.375000 0
  0.812500   0.437500 0
  0.812500   0.375000 0
  0.562500   0.375000 0
  0.437500   0.250000 0
  0.875000   0.687500 0
  0.187500   0.250000 0
  0.375000   1.000000 0
  0.500000   0.562500 0
  0.937500   1.000000 0
  0.250000   0.500000 0
  0.250000   0.562500 0
  0.937500   0.687500 0
  0.250000   0.187500 0
  0.250000   0.250000 0
  0.500000   0.250000 0
  0.750000   0.250000 0
  0.437500   0.187500 0
  0.687500   0.187500 0
  1.000000   0.000000 0
  0.750000   0.812500 0
  0.062500   0.375000 0
  0.062500   0.312500 0
  0.875000   0.625000 0
  0.187500   0.187500 0
  0.187500   0.125000 0
  0.437500   0.062500 0
  0.437500   0.125000 0
  0.937500   0.125000 0
  0.500000   0.437500 0
  0.500000   0.500000 0
  0.312500   0.062500 0
  1.000000   0.500000 0
  1.000000   0.750000 0
  0.312500   0.250000 0
  0.312500   0.312500 0
  0.812500   0.312500 0
  0.562500   0.312500 0
  0.375000   0.187500 0
  0.812500   0.625000 0
  0.125000   0.187500 0
  0.500000   0.062500 0
  0.937500   0.562500 0
  0.937500   0.500000 0
  0.250000   0.062500 0
  0.687500   0.500000 0
  0.000000   0.062500 0
  0.375000   0.500000 0
  0.812500   0.937500 0
  0.125000   0.500000 0
  0.625000   0.562500 0
  0.625000   0.500000 0
  1.000000   0.562500 0
  1.000000   0.625000 0
  0.312500   0.125000 0
  0.750000   0.562500 0
  0.062500   0.125000 0
  0.562500   0.125000 0
  0.687500   0.812500 0
  0.000000   0.375000 0
  0.500000   0.375000 0
  0.937500   0.812500 0
  0.937500   0.875000 0
  0.250000   0.375000 0
  0.875000   0.750000 0
  0.875000   0.812500 0
  0.187500   0.312500 0
  0.437500   0.312500 0
  1.000000   0.875000 0
  1.000000   0.937500 0
  0.312500   0.437500 0
  0.750000   0.875000 0
  0.062500   0.437500 0
  0.562500   0.500000 0
  0.562500   0.437500 0
  0.437500   0.000000 0
  0.500000   0.875000 0
  0.375000   0.687500 0
  0.375000   0.625000 0
  0.125000   0.625000 0
  0.000000   0.750000 0
  0.250000   0.750000 0
  0.187500   0.687500 0
  0.500000   0.750000 0
  0.500000   0.687500 0
  0.250000   0.687500 0
  0.000000   0.687500 0
  0.312500   0.750000 0
  0.062500   0.750000 0
  0.125000   0.812500 0
  0.375000   0.812500 0
  0.375000   0.750000 0
  0.125000   0.687500 0
  0.125000   0.750000 0
  0.437500   0.812500 0
  0.000000   0.812500 0
  0.250000   0.875000 0
  0.250000   0.812500 0
  0.187500   0.812500 0
  0.187500   0.750000 0
  0.937500   0.187500 0
  0.937500   0.250000 0
  0.500000   0.937500 0
  0.000000   0.875000 0
  0.000000   0.937500 0
  0.250000   0.937500 0
  0.437500   0.562500 0
  0.875000   1.000000 0
  0.187500   0.562500 0
  0.312500   1.000000 0
  0.062500   0.937500 0
  0.062500   1.000000 0
  0.250000   0.625000 0
  0.500000   0.625000 0
  0.000000   0.562500 0
  0.000000   0.625000 0
  0.312500   0.687500 0
  0.312500   0.937500 0
  0.312500   0.875000 0
  0.062500   0.875000 0
  0.062500   0.562500 0
  0.312500   0.625000 0
  0.312500   0.562500 0
  0.125000   0.937500 0
  0.062500   0.812500 0
  0.312500   0.812500 0
  0.062500   0.687500 0
  0.062500   0.625000 0
  0.125000   1.000000 0
  1.000000   0.250000 0
  1.000000   0.312500 0
  0.125000   0.875000 0
  0.375000   0.937500 0
  0.375000   0.875000 0
  0.500000   1.000000 0
  0.000000   1.000000 0
  0.250000   1.000000 0
  0.437500   0.687500 0
  0.437500   0.625000 0
  0.187500   0.625000 0
  0.187500   0.875000 0
  0.437500   0.875000 0
  0.812500   1.000000 0
  0.125000   0.562500 0
  0.375000   0.562500 0
  0.187500   0.937500 0
  0.437500   1.000000 0
  0.437500   0.937500 0
  0.187500   1.000000 0
  0.812500   0.250000 0
  0.562500   0.187500 0
  0.562500   0.250000 0
  0.625000   0.312500 0
  0.312500   0.000000 0
  1.000000   0.437500 0
  0.937500   0.062500 0
  0.125000   0.000000 0
  0.812500   0.500000 0
  0.750000   0.125000 0
  1.000000   0.125000 0
  0.875000   0.250000 0
  0.625000   0.187500 0
  0.625000   0.250000 0
  0.687500   0.250000 0
  0.687500   0.312500 0
  1.000000   0.062500 0
  0.875000   0.437500 0
  0.187500   0.000000 0
  0.875000   0.500000 0
  0.812500   0.062500 0
  0.812500   0.125000 0
  0.812500   0.187500 0
  1.000000   0.375000 0
CELLS 478 1912
3 162 55 56
3 42 131 120
3 51 52 188
3 140 156 141
3 122 140 129
3 108 150 151
3 147 90 91
3 89 145 58
3 116 151 104
3 91 142 59
3 111 70 112
3 55 272 56
3 111 37 70
3 145 146 58
3 116 104 103
3 142 143 59
3 112 70 138
3 56 272 100
3 97 76 96
3 129 34 130
3 52 74 97
3 140 48 129
3 176 145 89
3 137 138 106
3 100 81 99
3 151 41 104
3 91 191 142
3 182 74 51
3 141 160 48
3 106 122 182
3 81 66 160
3 175 137 79
3 48 170 129
3 74 179 97
3 46 56 172
3 160 269 147
3 62 57 157
3 76 116 186
3 59 154 34
3 186 86 126
3 154 41 150
3 52 165 84
3 40 140 122
3 104 183 103
3 72 172 37
3 170 91 59
3 179 151 116
3 172 56 100
3 112 138 175
3 66 269 160
3 182 108 74
3 160 147 48
3 122 129 130
3 131 109 183
3 109 176 88
3 59 143 154
3 116 103 186
3 79 188 102
3 70 37 156
3 70 40 138
3 272 283 100
3 154 133 41
3 186 49 86
3 133 42 120
3 191 62 142
3 41 120 104
3 143 43 133
3 103 88 49
3 172 100 99
3 175 138 137
3 269 90 147
3 130 150 108
3 64 55 162
3 156 99 141
3 137 51 188
3 154 143 133
3 103 49 186
3 170 147 91
3 108 151 179
3 170 59 34
3 179 116 76
3 120 131 183
3 62 157 142
3 104 120 183
3 162 56 46
3 46 172 72
3 40 156 140
3 188 52 84
3 79 137 188
3 133 120 41
3 49 163 86
3 40 122 106
3 283 66 81
3 48 147 170
3 108 179 74
3 129 170 34
3 179 76 97
3 183 109 88
3 76 186 126
3 34 154 150
3 70 156 40
3 188 84 102
3 72 37 111
3 106 182 51
3 141 81 160
3 137 106 51
3 99 81 141
3 51 74 52
3 140 141 48
3 34 150 130
3 76 126 96
3 88 176 89
3 100 283 81
3 138 40 106
3 183 88 103
3 90 191 91
3 150 41 151
3 49 88 89
3 43 42 133
3 263 218 250
3 254 229 200
3 263 257 218
3 257 210 192
3 249 257 263
3 194 254 253
3 254 260 222
3 84 165 259
3 241 249 234
3 102 84 236
3 236 259 195
3 205 209 214
3 256 214 212
3 241 203 206
3 240 204 205
3 232 228 237
3 231 243 242
3 222 124 229
3 224 127 228
3 239 264 244
3 248 262 123
3 210 92 87
3 214 215 213
3 208 215 209
3 207 193 92
3 231 242 202
3 233 234 248
3 226 235 239
3 127 126 238
3 102 236 230
3 211 235 219
3 213 234 212
3 247 205 256
3 249 206 257
3 253 254 200
3 247 256 261
3 198 255 201
3 230 236 243
3 233 248 123
3 226 239 244
3 58 146 124
3 96 126 127
3 222 58 124
3 209 215 214
3 242 208 209
3 207 232 193
3 230 243 231
3 224 96 127
3 219 226 220
3 212 233 221
3 163 58 222
3 165 96 224
3 248 263 262
3 239 261 264
3 126 86 238
3 234 249 248
3 194 260 254
3 195 259 255
3 263 250 262
3 261 252 264
3 247 261 239
3 249 263 248
3 92 253 199
3 198 197 215
3 235 247 239
3 195 198 208
3 193 194 253
3 203 201 232
3 202 242 204
3 255 228 201
3 255 259 224
3 197 201 203
3 202 204 196
3 261 221 252
3 236 84 259
3 238 86 260
3 196 204 240
3 195 255 198
3 236 195 243
3 237 238 194
3 211 240 235
3 92 193 253
3 208 198 215
3 243 195 208
3 193 237 194
3 212 234 233
3 219 235 226
3 210 87 192
3 214 213 212
3 193 232 237
3 242 243 208
3 226 244 227
3 233 123 225
3 242 209 204
3 254 222 229
3 257 206 210
3 256 205 214
3 255 224 228
3 221 225 252
3 204 209 205
3 203 207 206
3 259 165 224
3 260 163 222
3 253 200 199
3 198 201 197
3 92 199 87
3 215 197 213
3 257 192 218
3 201 228 232
3 196 240 211
3 197 241 213
3 197 203 241
3 213 241 234
3 221 233 225
3 220 226 227
3 203 232 207
3 220 227 251
3 86 163 260
3 238 260 194
3 241 206 249
3 65 270 148
3 216 31 245
3 65 20 270
3 20 22 288
3 282 65 159
3 61 144 216
3 144 16 271
3 18 21 67
3 57 24 23
3 53 161 167
3 67 68 285
3 93 268 27
3 62 94 57
3 173 23 277
3 268 278 280
3 145 189 146
3 24 28 18
3 63 27 17
3 152 26 118
3 153 93 119
3 20 288 270
3 27 113 17
3 265 32 287
3 42 266 267
3 144 275 31
3 15 274 32
3 113 117 17
3 176 190 145
3 27 280 113
3 144 271 275
3 20 29 22
3 27 268 280
3 15 18 274
3 217 216 245
3 53 63 161
3 134 132 279
3 132 152 114
3 131 153 109
3 117 118 282
3 190 119 53
3 216 144 31
3 26 20 65
3 134 15 32
3 93 27 63
3 153 268 93
3 61 16 144
3 152 29 26
3 42 267 131
3 117 282 284
3 190 53 167
3 286 67 285
3 157 57 173
3 30 135 281
3 21 68 67
3 271 30 281
3 276 217 22
3 278 279 280
3 276 287 60
3 271 281 275
3 18 67 274
3 28 21 18
3 19 30 271
3 119 93 53
3 60 61 216
3 23 134 277
3 114 118 113
3 109 119 176
3 22 217 246
3 280 279 114
3 277 279 278
3 276 60 217
3 134 32 132
3 23 15 134
3 57 23 173
3 286 285 61
3 109 153 119
3 217 60 216
3 277 134 279
3 113 118 117
3 176 119 190
3 22 246 288
3 280 114 113
3 153 267 268
3 266 173 277
3 157 173 43
3 274 67 286
3 190 167 189
3 117 284 273
3 63 54 161
3 57 94 24
3 132 265 152
3 131 267 153
3 285 25 16
3 93 63 53
3 26 65 282
3 217 245 246
3 279 132 114
3 94 28 24
3 25 19 16
3 43 266 42
3 32 274 287
3 63 17 54
3 132 32 265
3 17 273 54
3 267 278 268
3 265 276 29
3 16 19 271
3 68 25 285
3 118 26 282
3 43 173 266
3 287 274 286
3 114 152 118
3 145 190 189
3 17 117 273
3 265 287 276
3 152 265 29
3 285 16 61
3 29 276 22
3 26 29 20
3 149 115 177
3 75 185 125
3 128 33 107
3 47 169 128
3 65 148 159
3 128 107 180
3 159 148 158
3 161 54 45
3 75 125 223
3 77 101 4
3 95 178 75
3 6 78 77
3 174 78 13
3 181 107 177
3 14 110 174
3 121 180 39
3 6 77 4
3 5 7 166
3 6 4 0
3 229 7 5
3 73 95 164
3 13 6 1
3 171 273 98
3 124 189 7
3 50 181 73
3 3 14 13
3 105 180 181
3 8 12 14
3 10 2 11
3 11 2 44
3 87 8 192
3 12 71 110
3 218 3 1
3 38 121 39
3 178 184 75
3 78 187 77
3 192 3 218
3 177 115 178
3 174 136 78
3 12 110 14
3 180 107 181
3 14 174 13
3 146 189 124
3 3 13 1
3 1 0 250
3 158 168 47
3 44 45 171
3 218 1 250
3 83 164 82
3 39 180 105
3 9 12 8
3 13 78 6
3 200 5 10
3 71 44 36
3 35 38 69
3 200 10 199
3 3 8 14
3 38 39 69
3 199 10 9
3 169 33 128
3 71 36 35
3 282 159 284
3 158 47 139
3 2 45 44
3 185 85 125
3 83 82 101
3 7 167 166
3 98 284 80
3 136 39 105
3 87 9 8
3 33 149 107
3 110 35 69
3 80 158 139
3 166 45 2
3 77 83 101
3 189 167 7
3 273 284 98
3 69 39 136
3 199 9 87
3 110 71 35
3 121 47 128
3 71 11 44
3 5 166 2
3 155 80 139
3 187 105 50
3 192 8 3
3 69 136 174
3 155 139 38
3 5 2 10
3 124 7 229
3 171 98 36
3 1 6 0
3 164 95 258
3 107 149 177
3 110 69 174
3 12 11 71
3 121 128 180
3 148 168 158
3 45 54 171
3 168 169 47
3 44 171 36
3 164 258 82
3 115 184 178
3 136 187 78
3 184 185 75
3 187 83 77
3 54 273 171
3 50 73 164
3 229 5 200
3 36 155 35
3 136 105 187
3 36 98 155
3 95 223 258
3 35 155 38
3 155 98 80
3 95 75 223
3 50 105 181
3 139 121 38
3 139 47 121
3 73 178 95
CELL_TYPES 478
5
5
5
5
5
5
5
5
5
5
5
5
5
5
5
5
5
5
5
5
5
5
5
5
5
5
5
5
5
5
5
5
5
5
5
5
5
5
5
5
5
5
5
5
5
5
5
5
5
5
5
5
5
5
5
5
5
5
5
5
5
5
5
5
5
5
5
5
5
5
5
5
5
5
5
5
5
5
5
5
5
5
5
5
5
5
5
5
5
5
5
5
5
5
5
5
5
5
5
5
5
5
5
5
5
5
5
5
5
5
5
5
5
5
5
5
5
5
5
5
5
5
5
5
5
5
5
5
5
5
5
5
5
5
5
5
5
5
5
5
5
5
5
5
5
5
5
5
5
5
5
5
5
5
5
5
5
5
5
5
5
5
5
5
5
5
5
5
5
5
5
5
5
5
5
5
5
5
5
5
5
5
5
5
5
5
5
5
5
5
5
5
5
5
5
5
5
5
5
5
5
5
5
5
5
5
5
5
5
5
5
5
5
5
5
5
5
5
5
5
5
5
5
5
5
5
5
5
5
5
5
5
5
5
5
5
5
5
5
5
5
5
5
5
5
5
5
5
5
5
5
5
5
5
5
5
5
5
5
5
5
5
5
5
5
5
5
5
5
5
5
5
5
5
5
5
5
5
5
5
5
5
5
5
5
5
5
5
5
5
5
5
5
5
5
5
5
5
5
5
5
5
5
5
5
5
5
5
5
5
5
5
5
5
5
5
5
5
5
5
5
5
5
5
5
5
5
5
5
5
5
5
5
5
5
5
5
5
5
5
5
5
5
5
5
5
5
5
5
5
5
5
5
5
5
5
5
5
5
5
5
5
5
5
5
5
5
5
5
5
5
5
5
5
5
5
5
5
5
5
5
5
5
5
5
5
5
5
5
5
5
5
5
5
5
5
5
5
5
5
5
5
5
5
5
5
5
5
5
5
5
5
5
5
5
5
5
5
5
5
5
5
5
5
5
5
5
5
5
5
5
5
5
5
5
5
5
5
5
5
5
5
5
5
5
5
5
5
5
5
5
5
5
5
5
5
5
5
5
5
5
5
5
5
5
5
5
5
5
5
5
5
5
5
5
5
5
5
CELL_DATA 478
SCALARS scalar_value float 1
LOOKUP_TABLE default
-0.0412171
-0.272689
-0.47188
-0.184903
-0.223098
-0.333295
-0.0467311
-0.521054
-0.378786
-0.0949409
-0.318661
-0.0199631
-0.274787
-0.54967
-0.399697
-0.123841
-0.341218
-0.0395363
-0.521665
-0.227286
-0.457679
-0.180765
-0.470327
-0.385239
-0.082125
-0.332246
-0.0420941
-0.409083
-0.112856
-0.338
-0.0447268
-0.455822
-0.160763
-0.449958
-0.105832
-0.0461957
-0.041304
-0.472586
-0.192081
-0.542572
-0.262258
-0.555446
-0.256863
-0.377094
-0.193226
-0.119481
-0.405675
-0.0771502
-0.386413
-0.0228429
-0.401404
-0.0918317
-0.237056
-0.339994
-0.404403
-0.174629
-0.44554
-0.528718
-0.262663
-0.318886
-0.0205636
-0.243634
-0.517655
-0.249879
-0.0164814
-0.311253
-0.19447
-0.436401
-0.0909267
-0.408893
-0.0233101
-0.305079
-0.0208063
-0.157839
-0.452312
-0.202424
-0.464306
-0.0943216
-0.386964
-0.166044
-0.451448
-0.315907
-0.0292333
-0.334703
-0.0853537
-0.163095
-0.241194
-0.526758
-0.479056
-0.268153
-0.54605
-0.312321
-0.0219342
-0.115988
-0.414797
-0.185289
-0.472987
-0.380986
-0.520218
-0.236537
-0.275961
-0.553555
-0.248343
-0.386141
-0.0888492
-0.406783
-0.107716
-0.444116
-0.158223
-0.25444
-0.548008
-0.443697
-0.0422534
-0.339882
-0.398379
-0.022264
-0.308131
-0.451057
-0.209244
-1.09777
-0.737777
-1.05657
-0.994021
-1.03775
-0.739626
-0.674424
-0.6104
-0.986994
-0.603239
-0.67648
-0.892979
-0.957809
-0.912147
-0.879828
-0.765954
-0.74028
-0.670444
-0.67395
-1.14309
-1.12201
-0.916089
-0.899449
-0.829697
-0.815561
-0.762058
-1.05807
-1.07679
-0.601917
-0.626426
-0.986655
-0.97419
-0.978305
-0.998648
-0.760893
-1.0396
-0.771571
-0.67332
-1.10287
-1.11868
-0.601364
-0.596183
-0.628535
-0.874177
-0.80609
-0.808782
-0.695492
-0.626905
-1.06801
-1.06012
-0.619014
-0.62206
-1.10007
-1.12422
-0.585974
-1.03565
-0.696463
-0.700245
-1.11945
-1.15133
-1.07278
-1.05848
-0.829546
-0.835207
-1.06089
-0.765941
-0.762027
-0.818035
-0.805596
-0.753389
-0.678683
-0.839143
-0.827837
-1.13472
-0.630199
-0.6174
-0.870751
-0.745525
-0.697389
-0.698235
-0.955073
-0.80054
-0.810349
-0.742077
-0.746248
-1.03119
-1.04651
-0.968178
-0.942407
-0.772317
-0.76296
-1.13836
-1.12667
-0.826082
-0.694026
-0.984724
-0.94512
-0.701802
-1.13899
-0.865017
-0.884543
-0.638229
-0.633172
-0.808608
-0.815827
-0.887541
-0.879694
-1.03437
-0.780412
-0.898175
-0.905623
-0.884331
-0.955223
-1.11094
-1.11447
-0.834937
-1.13514
-0.600878
-0.671469
-0.968177
-0.511979
-0.243641
-0.466986
-0.402776
-0.504888
-0.166968
-0.0906131
-0.0416808
-0.0927186
-0.523127
-0.0447839
-0.411571
-0.0215224
-0.169918
-0.351931
-0.546786
-0.0287937
-0.472644
-0.406741
-0.41237
-0.445711
-0.451842
-0.257488
-0.24879
-0.168705
-0.178283
-0.473708
-0.474514
-0.409682
-0.118019
-0.382311
-0.390414
-0.124348
-0.268648
-0.50895
-0.277068
-0.343985
-0.345207
-0.471084
-0.474483
-0.194096
-0.445665
-0.2063
-0.451428
-0.393127
-0.110671
-0.384814
-0.275648
-0.511932
-0.51488
-0.088529
-0.0936068
-0.0232877
-0.0218224
-0.0463399
-0.317539
-0.327249
-0.269436
-0.0942656
-0.0944985
-0.0163143
-0.0224903
-0.452947
-0.196578
-0.204738
-0.408462
-0.408591
-0.33731
-0.345486
-0.279768
-0.276708
-0.253076
-0.19286
-0.11995
-0.097029
-0.389513
-0.249157
-0.25345
-0.451237
-0.452947
-0.380848
-0.387894
-0.356151
-0.182401
-0.122379
-0.117175
-0.541299
-0.539157
-0.536942
-0.0430493
-0.322626
-0.32775
-0.0421433
-0.471446
-0.466593
-0.314229
-0.322474
-0.0191948
-0.021255
-0.201441
-0.202288
-0.517291
-0.277912
-0.543232
-0.343224
-0.322596
-0.0439779
-0.0218869
-0.448316
-0.172057
-0.17151
-0.386581
-0.521525
-0.518956
-0.284713
-0.34363
-0.0817506
-0.340586
-0.404289
-0.897295
-1.11197
-0.806454
-0.7436
-0.532973
-0.82571
-0.590347
-0.592012
-1.13566
-1.12192
-1.07423
-1.05271
-0.981367
-0.878502
-0.913033
-0.827341
-1.09795
-0.669371
-1.11775
-0.689848
-1.06983
-1.05253
-0.619495
-0.619681
-0.975476
-0.986612
-0.890482
-0.925653
-0.74399
-0.737991
-0.965866
-0.839565
-1.05338
-0.806993
-1.04432
-1.02656
-1.03236
-0.953595
-0.951782
-0.894909
-0.863513
-0.961079
-0.596583
-1.03089
-1.11733
-0.67812
-0.676063
-1.09656
-1.1308
-0.871281
-0.91144
-1.02939
-0.755468
-0.742392
-0.809208
-0.809642
-0.966293
-0.830472
-0.839788
-0.764448
-0.764874
-0.519857
-0.70664
-0.702744
-1.13265
-1.13464
-0.619838
-0.621209
-0.896161
-0.921465
-0.828229
-0.834298
-0.692088
-0.687843
-1.10636
-0.592069
-0.591751
-0.876088
-0.893551
-0.811933
-0.765043
-0.762575
-0.693916
-0.700766
-0.954595
-0.988056
-0.903072
-0.742244
-0.729099
-0.667786
-0.67036
-1.09602
-1.121
-0.870116
-0.88305
-0.812171
-0.805685
-0.620701
-0.621029
-0.698911
-0.696467
-1.14765
-0.984945
-0.970408
-1.06574
-1.05565
-0.593797
-1.03662
-0.735376
-0.741288
-0.939116
-0.694789
-1.14
-0.763838
-0.673936
-1.11589
-0.942237
-0.764327
-0.744933
-1.05824
