# vtk DataFile Version 2.0
Unstructured Grid by M++
ASCII
DATASET UNSTRUCTURED_GRID
POINTS 1089 float
  0.843750   0.812500 0
  0.843750   0.781250 0
  0.843750   0.750000 0
  0.812500   0.781250 0
  0.812500   0.750000 0
  0.812500   0.718750 0
  0.781250   0.750000 0
  0.781250   0.718750 0
  0.781250   0.687500 0
  0.750000   0.968750 0
  0.750000   0.718750 0
  0.750000   0.687500 0
  0.718750   1.000000 0
  0.718750   0.968750 0
  0.718750   0.937500 0
  0.718750   0.718750 0
  0.718750   0.687500 0
  0.718750   0.656250 0
  0.687500   1.000000 0
  0.687500   0.968750 0
  0.687500   0.937500 0
  0.687500   0.687500 0
  0.687500   0.656250 0
  0.687500   0.625000 0
  0.656250   0.968750 0
  0.656250   0.937500 0
  0.656250   0.906250 0
  0.562500   0.875000 0
  0.625000   0.656250 0
  0.968750   0.906250 0
  0.562500   0.843750 0
  0.625000   0.625000 0
  0.968750   0.875000 0
  0.562500   0.812500 0
  0.625000   0.593750 0
  0.812500   0.812500 0
  0.750000   1.000000 0
  0.781250   1.000000 0
  0.625000   0.562500 0
  0.906250   0.906250 0
  0.906250   0.875000 0
  0.562500   0.593750 0
  0.906250   0.843750 0
  0.562500   0.562500 0
  0.906250   0.812500 0
  0.625000   0.937500 0
  0.562500   0.531250 0
  0.750000   0.750000 0
  0.625000   0.906250 0
  0.625000   0.875000 0
  0.531250   0.875000 0
  0.937500   0.906250 0
  0.875000   0.875000 0
  0.531250   0.562500 0
  0.875000   0.812500 0
  0.593750   0.937500 0
  1.000000   0.968750 0
  0.843750   0.843750 0
  0.531250   0.531250 0
  0.875000   0.781250 0
  0.593750   0.906250 0
  0.656250   0.687500 0
  1.000000   0.937500 0
  0.875000   0.843750 0
  0.593750   0.875000 0
  0.656250   0.656250 0
  1.000000   0.906250 0
  0.593750   0.843750 0
  0.656250   0.625000 0
  0.656250   0.593750 0
  0.562500   0.906250 0
  0.968750   0.937500 0
  0.531250   0.812500 0
  0.593750   0.593750 0
  0.937500   0.843750 0
  0.531250   0.781250 0
  0.593750   0.562500 0
  0.531250   0.843750 0
  0.593750   0.625000 0
  0.937500   0.875000 0
  0.781250   0.781250 0
  0.843750   0.531250 0
  0.593750   0.531250 0
  0.875000   0.531250 0
  0.875000   0.562500 0
  0.906250   0.531250 0
  0.906250   0.562500 0
  0.906250   0.593750 0
  0.937500   0.562500 0
  0.937500   0.531250 0
  0.937500   0.593750 0
  0.937500   0.625000 0
  0.968750   0.562500 0
  0.968750   0.593750 0
  0.968750   0.625000 0
  0.968750   0.656250 0
  1.000000   0.593750 0
  1.000000   0.625000 0
  1.000000   0.656250 0
  1.000000   0.687500 0
  0.843750   0.187500 0
  0.843750   0.125000 0
  0.812500   0.468750 0
  0.812500   0.437500 0
  0.812500   0.187500 0
  0.781250   0.437500 0
  0.781250   0.406250 0
  0.093750   0.906250 0
  0.156250   0.656250 0
  0.281250   0.156250 0
  0.218750   0.406250 0
  0.156250   0.687500 0
  0.093750   0.937500 0
  0.218750   0.437500 0
  0.281250   0.187500 0
  0.656250   1.000000 0
  0.156250   0.750000 0
  0.093750   1.000000 0
  0.718750   0.750000 0
  0.218750   0.500000 0
  0.687500   0.187500 0
  0.031250   0.562500 0
  0.093750   0.312500 0
  0.156250   0.062500 0
  0.375000   0.812500 0
  0.937500   0.812500 0
  0.437500   0.562500 0
  0.562500   0.062500 0
  0.156250   0.718750 0
  0.093750   0.968750 0
  0.218750   0.468750 0
  0.281250   0.218750 0
  0.156250   0.781250 0
  0.781250   0.531250 0
  0.281250   0.281250 0
  0.718750   0.781250 0
  0.218750   0.531250 0
  0.687500   0.218750 0
  0.781250   0.906250 0
  0.281250   0.656250 0
  0.843750   0.656250 0
  0.343750   0.406250 0
  0.218750   0.906250 0
  0.531250   0.906250 0
  0.031250   0.656250 0
  0.593750   0.656250 0
  0.093750   0.406250 0
  0.031250   0.593750 0
  0.156250   0.093750 0
  0.093750   0.343750 0
  0.375000   0.843750 0
  0.437500   0.593750 0
  0.562500   0.093750 0
  0.156250   0.812500 0
  0.781250   0.562500 0
  0.281250   0.312500 0
  0.718750   0.812500 0
  0.218750   0.562500 0
  0.750000   0.000000 0
  0.093750   0.875000 0
  0.656250   0.875000 0
  0.156250   0.625000 0
  0.718750   0.625000 0
  0.218750   0.375000 0
  0.781250   0.375000 0
  0.281250   0.125000 0
  0.687500   0.156250 0
  0.031250   0.812500 0
  0.593750   0.812500 0
  0.093750   0.562500 0
  0.656250   0.562500 0
  0.156250   0.312500 0
  0.093750   0.593750 0
  0.031250   0.843750 0
  0.156250   0.343750 0
  0.218750   0.093750 0
  0.437500   0.843750 0
  0.625000   0.093750 0
  0.750000   0.875000 0
  0.250000   0.625000 0
  0.812500   0.625000 0
  0.312500   0.375000 0
  0.187500   0.875000 0
  0.562500   0.625000 0
  0.062500   0.375000 0
  0.000000   0.562500 0
  0.125000   0.062500 0
  0.062500   0.312500 0
  0.343750   0.812500 0
  0.468750   0.312500 0
  0.406250   0.562500 0
  0.531250   0.062500 0
  0.312500   1.000000 0
  0.937500   0.750000 0
  0.437500   0.500000 0
  0.875000   1.000000 0
  0.375000   0.750000 0
  0.562500   0.000000 0
  0.062500   1.000000 0
  0.625000   1.000000 0
  0.125000   0.750000 0
  0.687500   0.750000 0
  0.187500   0.500000 0
  0.062500   0.937500 0
  0.125000   0.687500 0
  0.187500   0.437500 0
  0.250000   0.187500 0
  0.125000   0.781250 0
  0.750000   0.531250 0
  0.250000   0.281250 0
  0.687500   0.781250 0
  0.187500   0.531250 0
  0.468750   0.968750 0
  0.656250   0.218750 0
  0.062500   0.906250 0
  0.250000   0.156250 0
  0.187500   0.406250 0
  0.125000   0.656250 0
  0.062500   0.968750 0
  0.687500   0.718750 0
  0.187500   0.468750 0
  0.625000   0.968750 0
  0.125000   0.718750 0
  0.468750   0.937500 0
  0.656250   0.187500 0
  0.281250   0.937500 0
  0.906250   0.687500 0
  0.406250   0.437500 0
  0.843750   0.937500 0
  0.343750   0.687500 0
  0.093750   0.625000 0
  0.218750   0.125000 0
  0.156250   0.375000 0
  0.031250   0.875000 0
  0.437500   0.875000 0
  0.625000   0.125000 0
  0.750000   0.843750 0
  0.250000   0.593750 0
  0.812500   0.593750 0
  0.312500   0.343750 0
  0.187500   0.843750 0
  0.750000   0.906250 0
  0.250000   0.656250 0
  0.812500   0.656250 0
  0.312500   0.406250 0
  0.187500   0.906250 0
  0.500000   0.906250 0
  0.000000   0.656250 0
  0.562500   0.656250 0
  0.062500   0.406250 0
  0.625000   0.406250 0
  0.125000   0.156250 0
  0.000000   0.593750 0
  0.062500   0.343750 0
  0.125000   0.093750 0
  0.343750   0.843750 0
  0.406250   0.593750 0
  0.468750   0.343750 0
  0.531250   0.093750 0
  0.125000   0.812500 0
  0.750000   0.562500 0
  0.250000   0.312500 0
  0.687500   0.812500 0
  0.187500   0.562500 0
  0.468750   1.000000 0
  0.718750   0.000000 0
  0.750000   0.937500 0
  0.250000   0.687500 0
  0.812500   0.687500 0
  0.312500   0.437500 0
  0.187500   0.937500 0
  0.500000   0.937500 0
  0.000000   0.687500 0
  0.562500   0.687500 0
  0.062500   0.437500 0
  0.625000   0.437500 0
  0.125000   0.187500 0
  0.343750   0.875000 0
  0.406250   0.625000 0
  0.468750   0.375000 0
  0.531250   0.125000 0
  0.343750   0.937500 0
  0.906250   0.937500 0
  0.406250   0.687500 0
  0.968750   0.687500 0
  0.468750   0.437500 0
  0.531250   0.187500 0
  0.125000   0.843750 0
  0.750000   0.593750 0
  0.250000   0.343750 0
  0.687500   0.843750 0
  0.187500   0.593750 0
  0.781250   0.875000 0
  0.281250   0.625000 0
  0.843750   0.625000 0
  0.343750   0.375000 0
  0.218750   0.875000 0
  0.781250   0.937500 0
  0.281250   0.687500 0
  0.843750   0.687500 0
  0.343750   0.437500 0
  0.218750   0.937500 0
  0.531250   0.937500 0
  0.031250   0.687500 0
  0.593750   0.687500 0
  0.093750   0.437500 0
  0.031250   0.625000 0
  0.156250   0.125000 0
  0.093750   0.375000 0
  0.375000   0.875000 0
  0.437500   0.625000 0
  0.562500   0.125000 0
  0.375000   0.937500 0
  0.937500   0.937500 0
  0.437500   0.687500 0
  0.156250   0.843750 0
  0.781250   0.593750 0
  0.281250   0.343750 0
  0.718750   0.843750 0
  0.218750   0.593750 0
  0.781250   0.968750 0
  0.281250   0.718750 0
  0.843750   0.718750 0
  0.343750   0.468750 0
  0.218750   0.968750 0
  0.531250   0.968750 0
  0.031250   0.718750 0
  0.593750   0.718750 0
  0.093750   0.468750 0
  0.375000   0.906250 0
  0.437500   0.656250 0
  0.562500   0.156250 0
  0.375000   0.968750 0
  0.937500   0.968750 0
  0.437500   0.718750 0
  1.000000   0.718750 0
  0.500000   0.468750 0
  0.562500   0.218750 0
  0.281250   0.750000 0
  0.343750   0.500000 0
  0.406250   0.250000 0
  0.468750   0.000000 0
  0.218750   1.000000 0
  0.531250   1.000000 0
  0.031250   0.750000 0
  0.593750   0.750000 0
  0.093750   0.500000 0
  0.375000   1.000000 0
  0.937500   1.000000 0
  0.437500   0.750000 0
  1.000000   0.750000 0
  0.500000   0.500000 0
  0.625000   0.000000 0
  0.562500   0.250000 0
  0.593750   0.781250 0
  0.093750   0.531250 0
  0.031250   0.781250 0
  0.656250   0.531250 0
  0.156250   0.281250 0
  0.437500   0.781250 0
  1.000000   0.781250 0
  0.500000   0.531250 0
  0.625000   0.031250 0
  0.562500   0.281250 0
  0.281250   0.781250 0
  0.343750   0.531250 0
  0.468750   0.031250 0
  0.406250   0.281250 0
  0.437500   0.812500 0
  0.625000   0.062500 0
  0.312500   0.968750 0
  0.937500   0.718750 0
  0.437500   0.468750 0
  0.875000   0.968750 0
  0.375000   0.718750 0
  0.093750   0.812500 0
  0.718750   0.562500 0
  0.218750   0.312500 0
  0.656250   0.812500 0
  0.156250   0.562500 0
  0.656250   0.843750 0
  0.156250   0.593750 0
  0.093750   0.843750 0
  0.718750   0.593750 0
  0.218750   0.343750 0
  0.500000   0.843750 0
  0.625000   0.343750 0
  0.687500   0.093750 0
  0.000000   0.625000 0
  0.500000   0.875000 0
  0.125000   0.125000 0
  0.625000   0.375000 0
  0.687500   0.125000 0
  0.468750   0.093750 0
  0.406250   0.343750 0
  0.343750   0.593750 0
  0.281250   0.843750 0
  0.906250   0.656250 0
  0.406250   0.406250 0
  0.843750   0.906250 0
  0.343750   0.656250 0
  0.281250   0.906250 0
  0.375000   0.625000 0
  0.500000   0.125000 0
  0.437500   0.375000 0
  0.312500   0.875000 0
  0.875000   0.937500 0
  0.375000   0.687500 0
  0.937500   0.687500 0
  0.437500   0.437500 0
  0.312500   0.937500 0
  0.531250   0.687500 0
[...]
CELL_DATA 1024
SCALARS scalar_value float 1
LOOKUP_TABLE default
1.07742
1.09709
1.07074
1.05185
1.09707
1.25425
1.25457
1.22826
1.22902
1.28119
0.206241
0.210279
0.212236
0.208552
0.225901
0.345797
0.696752
1.12317
1.1567
1.1328
1.1099
0.210791
0.210093
0.208244
1.13426
1.11803
1.09848
1.11532
1.08376
1.07328
1.09008
1.1007
1.16851
1.17595
1.19994
1.19434
1.14299
1.17381
0.680529
0.587496
0.648061
0.715027
1.18594
0.211339
1.67814
1.05447
1.15777
0.210879
1.62968
1.02052
0.948229
0.947786
0.922458
1.19107
0.924365
1.10793
0.191193
0.203463
0.918831
1.30366
0.947162
1.40026
0.913953
1.41911
1.27961
1.30383
1.30679
1.30544
0.9472
0.211638
1.22094
0.211066
1.53903
1.06328
1.1514
1.42888
1.02166
1.55257
0.999574
1.03868
1.3486
1.05314
1.29398
1.06308
1.33378
0.987098
1.46476
0.976044
1.30657
1.00396
1.30418
1.01079
1.36539
0.97995
1.3827
0.901199
0.867041
0.733228
0.859954
0.718912
0.866572
0.845556
0.873043
0.421747
0.73901
0.219227
0.772782
0.219377
0.211152
0.211734
0.215138
0.212564
1.56743
1.09966
1.48945
1.03835
0.21059
0.80596
0.200453
0.833699
0.177824
0.225502
0.211712
0.999997
1.24784
1.39765
1.40498
1.44283
0.833687
0.233658
1.11329
1.25289
1.02454
1.37577
1.37184
1.42969
0.840151
0.206467
1.21061
1.02201
0.564207
0.854154
1.11326
0.86921
1.22052
1.21856
1.04392
1.29953
1.02989
0.968228
1.77528
1.11663
1.25497
1.04691
0.998186
1.1983
0.974063
1.23799
0.995034
1.85153
1.50053
1.28866
0.920633
1.15491
1.5405
0.907194
1.48755
1.25506
1.08318
1.25538
1.06657
1.29716
0.892667
1.04355
0.903002
0.973246
1.17963
1.35255
0.206376
1.40746
1.65413
1.38353
1.61619
1.49697
0.882426
1.19221
0.870633
0.95648
0.885492
0.58275
0.85516
1.02421
0.88061
1.22355
1.0633
1.22657
1.07979
1.28427
1.33873
1.32174
1.37866
1.31274
1.36035
1.12944
0.899555
1.44114
1.49375
1.3972
0.954773
0.908808
0.905339
0.948952
1.13345
1.12337
1.12007
1.13026
0.448264
0.266737
0.580087
1.3255
1.1377
1.32985
1.12829
1.34878
1.14644
1.34318
1.15511
1.47508
1.20496
1.18289
1.18064
1.20335
0.791625
0.745557
0.767357
0.806494
0.824073
0.834909
0.854621
0.846178
1.14683
1.14382
1.16067
1.16339
1.36155
1.35554
1.36211
1.36868
1.09312
1.09655
1.10659
1.10318
1.114
1.12381
1.11345
1.10347
0.463039
0.214556
0.208449
0.209763
0.211144
0.211495
0.211542
0.5997
0.193705
0.434983
0.205342
0.212255
0.211605
0.211658
0.211832
0.741854
0.352199
0.755153
0.227681
0.213645
0.21122
0.211688
0.212736
0.869802
1.56777
1.09916
1.34707
1.09251
1.39638
1.11765
1.44077
0.987379
1.14548
1.04677
1.00265
1.05872
0.672645
1.4069
0.219345
0.994342
0.955054
1.20884
1.12392
1.01139
1.43237
1.07909
0.974965
0.934186
1.29775
1.23923
1.2065
1.13183
1.20476
1.02973
0.890326
1.3443
1.10319
0.912333
1.32325
1.26927
1.31834
0.98572
1.14018
1.40932
1.16561
1.24891
1.04901
0.870874
1.35952
1.552
1.49208
1.08705
1.23132
1.29696
1.06977
0.860403
1.36783
1.66334
1.15612
1.03062
1.50839
0.937573
1.29424
1.33841
1.11187
1.31532
1.49089
1.04126
0.746389
1.39592
0.21965
1.17903
1.07124
1.02589
0.806802
1.37564
1.15046
1.03842
1.01185
0.200743
0.591449
0.855607
1.34803
1.12346
0.895711
1.24425
1.31543
1.09818
1.67898
1.49372
0.979797
1.00357
0.929688
1.20919
1.28017
1.0311
1.07453
1.63205
1.47495
0.959653
1.17607
1.00611
1.0106
1.05228
1.55622
1.06525
1.16204
0.765408
1.3828
0.233746
1.04586
1.1794
1.11047
0.804416
1.37352
1.02823
0.206831
1.23104
1.15124
0.84441
1.35646
1.01175
0.567232
1.51582
1.12444
0.880601
1.33297
1.14936
0.912436
1.24142
1.3048
0.610273
0.272748
1.44251
0.215275
1.01135
1.06395
1.03131
1.07535
1.54001
0.990415
0.940632
1.2092
1.27373
0.711343
1.42867
0.21215
1.05283
1.0104
1.00875
0.966249
1.17808
1.01675
0.78528
1.40313
0.20705
1.14868
0.991985
0.841717
1.36897
1.12133
0.981347
0.886572
1.32961
1.09607
0.923764
1.20808
1.28816
0.945777
1.36065
1.07275
1.77961
0.956091
1.17227
1.24707
0.93531
1.35277
1.01097
1.05106
1.85293
1.62245
1.43054
1.36697
1.30538
1.24831
1.19768
1.11917
1.1546
1.09065
1.06791
1.0497
1.03488
1.02243
1.01151
1.46932
1.38784
1.31195
1.24331
1.1846
1.13717
1.07314
1.10059
1.05278
1.0377
1.02638
1.01764
1.01053
1.07426
1.03307
1.04953
1.02236
1.01557
1.01899
1.00363
1.00844
1.00246
1.31711
0.97916
0.987404
0.981885
0.994528
0.179186
1.21649
0.946361
1.31849
1.26699
0.971187
1.23805
0.958151
0.984729
1.20855
0.998594
0.209853
0.714177
0.22769
0.924648
1.16339
1.14683
1.13345
1.12337
1.11663
1.11326
1.20335
1.16067
1.14382
1.13026
1.12007
1.11329
1.1099
1.19994
1.15511
1.1377
1.12381
1.11345
1.10659
1.10318
0.973246
0.206376
0.948952
0.225502
0.947162
0.696752
0.9472
1.36868
0.901199
0.948229
1.18594
0.564207
1.25457
0.899555
1.08318
1.39765
0.580087
1.1983
1.22052
1.22826
1.18064
0.903002
1.07979
1.40746
1.37866
0.767357
0.648061
1.1567
1.29716
1.04355
0.215138
1.32174
0.834909
1.49697
1.35255
0.806494
0.715027
1.12317
1.12944
0.995034
0.211734
1.28866
0.854621
1.07742
1.05314
0.968228
0.206241
1.25538
0.867041
1.06308
1.04691
0.212564
1.05185
0.58275
1.09707
0.954773
0.208552
1.22355
0.873043
1.04392
1.36155
1.02421
0.920633
0.211152
1.29398
0.846178
1.19221
1.33378
0.824073
0.745557
1.07074
0.211066
1.01079
0.206467
1.28119
0.892667
1.09008
0.421747
1.24784
0.233658
1.30679
0.882426
0.191193
1.30418
1.32985
0.86921
0.203463
1.34878
0.833687
0.854154
0.210791
0.999997
0.947786
1.56743
1.36211
0.845556
0.840151
0.211638
0.21059
0.177824
1.1328
1.22657
1.17595
0.885492
1.0633
0.200453
0.448264
1.17963
1.25506
0.88061
1.06657
0.219377
0.266737
1.23799
1.28427
0.870633
0.219227
1.07328
1.09848
0.211712
1.31274
0.85516
1.33873
0.833699
1.22902
1.18289
0.924365
1.09312
1.62968
1.17381
0.210879
0.208244
0.974063
1.36035
0.73901
0.80596
1.25425
1.20496
0.922458
1.09655
1.67814
1.21061
0.211339
0.210093
0.976044
1.37577
0.718912
0.772782
1.27961
0.918831
1.10347
1.38353
0.733228
1.25289
1.30383
0.913953
1.114
0.345797
1.29953
1.3255
0.908808
0.225901
1.3486
1.34318
0.905339
1.19434
1.14644
1.21856
0.866572
0.212236
1.35554
0.95648
0.907194
1.25497
0.859954
1.03868
1.02454
0.210279
1.02201
1.02989
0.97995
0.987098
0.999574
1.02052
1.05447
1.10793
1.30366
1.19107
1.41911
1.5405
1.65413
1.48755
1.15491
1.00396
0.998186
1.02166
1.03835
1.06328
1.09966
1.1514
1.22094
1.40026
1.30544
1.50053
1.61619
1.77528
1.85153
1.30657
1.46476
1.3827
1.55257
1.09709
1.36539
1.48945
1.42888
1.53903
1.08376
1.11803
1.14299
1.3972
1.47508
1.44114
1.49375
1.1007
1.13426
1.11532
1.15777
0.791625
0.680529
1.37184
1.42969
1.40498
0.587496
1.44283
1.12829
1.16851
1.20855
1.23805
1.26699
1.29424
1.31849
1.35277
1.33841
1.36065
1.23923
1.26927
1.29775
1.32325
1.35952
1.3443
1.36783
1.27373
1.3048
1.33297
1.35646
1.37352
1.3828
1.37564
1.51582
0.567232
0.912333
0.870874
1.20884
0.21215
1.42867
0.987404
0.97916
1.44251
1.02973
0.434983
0.981885
0.994528
1.40313
1.11917
1.06395
0.974965
1.11765
1.17607
0.211605
1.49089
0.93531
1.24142
0.212736
1.49372
1.14936
0.955054
1.14548
1.20919
0.211658
1.54001
0.945777
0.990415
1.01185
1.08705
0.209763
1.46932
1.04586
0.214556
1.31711
0.890326
0.934186
0.208449
1.06525
1.56777
1.15612
1.0104
0.979797
0.966249
1.02589
1.55622
0.233746
1.0106
0.869802
0.959653
1.02243
1.23104
0.206831
0.860403
0.987379
1.01151
1.01675
0.994342
1.09251
0.212255
1.43054
0.991985
1.06977
0.205342
0.981347
1.04901
0.193705
1.17903
0.20705
0.215275
1.01139
0.746389
0.5997
1.00265
1.09818
1.15046
0.209853
1.36897
1.09065
0.806802
0.672645
1.07453
1.12346
0.22769
1.32961
0.855607
1.06791
1.05228
0.714177
1.28816
0.895711
1.0497
1.0311
0.924648
0.929688
1.03488
0.937573
0.958151
0.946361
0.971187
1.02823
0.272748
0.610273
1.13717
1.2092
0.211688
1.47495
0.984729
1.01175
0.463039
0.711343
1.10059
1.12133
1.17808
0.21122
1.44077
0.998594
0.78528
1.07314
1.09607
1.14868
0.213645
1.39638
0.841717
1.05278
1.07275
0.227681
1.34707
0.886572
1.0377
1.05106
0.352199
0.923764
1.03062
0.755153
1.1794
0.200743
0.219345
0.956091
1.01764
1.01097
0.741854
1.34803
1.10319
1.15124
0.179186
0.21965
0.98572
0.84441
0.765408
1.07535
1.12444
0.591449
1.31543
1.07909
0.880601
0.804416
1.05283
1.09916
1.21649
1.28017
1.67898
0.912436
1.05872
1.03131
1.04677
0.211832
1.24425
1.63205
0.940632
1.04126
1.49208
1.43237
1.66334
1.552
1.31834
1.2065
1.12392
1.07124
1.03842
1.01899
1.4069
1.39592
1.00844
1.00246
1.00363
1.00357
1.00611
1.85293
1.77961
1.62245
1.50839
1.31532
1.40932
1.23132
1.16204
1.11047
1.07426
1.04953
1.03307
1.02236
1.01135
1.01557
1.00875
1.38784
1.24331
1.31195
1.1846
1.02638
1.01053
1.36697
1.24831
1.30538
1.19768
1.1546
1.29696
1.20476
1.24891
1.16561
1.13183
1.24707
0.211542
1.17227
1.20808
0.211495
1.14018
0.211144
1.11187
