# vtk DataFile Version 2.0
Unstructured Grid by M++
ASCII
DATASET UNSTRUCTURED_GRID
POINTS 569 float
  2.500000   2.250000 0
  2.500000   2.375000 0
  2.625000   2.375000 0
  2.500000   2.625000 0
  2.625000   2.625000 0
  2.625000   2.500000 0
  2.750000   1.625000 0
  2.375000   2.500000 0
  2.500000   2.500000 0
  2.625000   1.875000 0
  2.625000   1.750000 0
  2.500000   2.750000 0
  2.625000   2.750000 0
  2.625000   2.125000 0
  2.500000   3.000000 0
  2.625000   3.000000 0
  2.750000   2.125000 0
  3.000000   2.875000 0
  3.000000   2.000000 0
  2.375000   3.000000 0
  2.875000   2.625000 0
  3.000000   2.250000 0
  3.000000   3.000000 0
  3.000000   2.125000 0
  2.875000   3.000000 0
  2.250000   2.625000 0
  2.875000   2.250000 0
  2.250000   2.750000 0
  2.875000   2.375000 0
  2.375000   1.875000 0
  2.250000   2.875000 0
  3.000000   1.625000 0
  2.750000   2.250000 0
  3.000000   2.625000 0
  2.750000   2.500000 0
  2.875000   1.625000 0
  2.750000   2.625000 0
  2.875000   1.750000 0
  2.250000   3.000000 0
  2.375000   2.125000 0
  3.000000   1.750000 0
  2.875000   2.750000 0
  3.000000   1.875000 0
  2.750000   2.875000 0
  2.750000   3.000000 0
  2.875000   2.000000 0
  2.750000   2.000000 0
  2.750000   1.875000 0
  2.625000   2.875000 0
  2.750000   2.750000 0
  3.000000   2.750000 0
  2.250000   2.375000 0
  2.875000   2.875000 0
  2.375000   2.750000 0
  3.000000   2.375000 0
  2.375000   2.875000 0
  2.500000   2.000000 0
  3.000000   2.500000 0
  2.500000   2.875000 0
  2.375000   2.250000 0
  2.250000   2.125000 0
  2.125000   3.000000 0
  2.250000   2.000000 0
  2.125000   2.875000 0
  1.625000   2.125000 0
  1.750000   2.000000 0
  1.625000   3.000000 0
  1.625000   1.875000 0
  1.625000   2.750000 0
  1.625000   2.875000 0
  1.750000   1.875000 0
  1.750000   2.750000 0
  1.750000   2.875000 0
  1.875000   2.000000 0
  1.750000   3.000000 0
  1.875000   2.125000 0
  2.125000   2.625000 0
  1.625000   2.500000 0
  1.750000   2.500000 0
  1.750000   2.625000 0
  1.625000   2.375000 0
  1.750000   2.250000 0
  2.000000   2.500000 0
  2.125000   2.500000 0
  2.000000   2.750000 0
  2.000000   1.875000 0
  1.875000   2.750000 0
  2.000000   2.375000 0
  2.000000   2.250000 0
  2.125000   2.250000 0
  2.000000   2.125000 0
  1.875000   3.000000 0
  1.875000   2.375000 0
  1.875000   2.625000 0
  2.000000   3.000000 0
  1.875000   2.875000 0
  2.125000   1.875000 0
  2.000000   2.875000 0
  2.125000   2.000000 0
  2.250000   1.875000 0
  2.375000   0.875000 0
  2.125000   2.750000 0
  2.250000   1.750000 0
  2.375000   2.375000 0
  2.500000   1.375000 0
  2.625000   0.750000 0
  2.375000   1.625000 0
  2.625000   0.000000 0
  2.500000   0.875000 0
  2.500000   0.750000 0
  2.375000   1.750000 0
  2.500000   1.875000 0
  2.625000   0.875000 0
  2.500000   1.750000 0
  2.500000   0.000000 0
  2.500000   0.250000 0
  2.500000   1.125000 0
  2.500000   2.125000 0
  2.625000   1.125000 0
  2.625000   0.125000 0
  2.750000   0.000000 0
  2.625000   1.000000 0
  2.750000   0.125000 0
  2.375000   1.125000 0
  2.500000   0.125000 0
  2.375000   1.000000 0
  2.375000   2.000000 0
  2.500000   1.000000 0
  2.875000   0.625000 0
  2.625000   0.375000 0
  2.625000   0.250000 0
  2.500000   1.250000 0
  2.625000   1.250000 0
  2.500000   0.375000 0
  2.625000   0.625000 0
  2.625000   0.500000 0
  2.500000   1.500000 0
  2.625000   1.500000 0
  2.625000   1.625000 0
  2.750000   0.625000 0
  3.000000   1.375000 0
  3.000000   0.500000 0
  3.000000   0.750000 0
  2.875000   2.500000 0
  3.000000   1.500000 0
  3.000000   0.625000 0
  2.875000   1.500000 0
  2.125000   2.125000 0
  2.250000   1.125000 0
  2.750000   1.750000 0
  2.875000   0.750000 0
  2.250000   1.250000 0
  2.375000   0.375000 0
  2.875000   0.000000 0
  2.750000   0.875000 0
  2.875000   0.875000 0
  3.000000   0.000000 0
  2.875000   1.000000 0
  3.000000   0.125000 0
  2.750000   0.750000 0
  2.125000   2.375000 0
  2.250000   1.375000 0
  2.625000   2.000000 0
  2.750000   1.000000 0
  2.750000   0.250000 0
  2.875000   0.125000 0
  2.750000   1.125000 0
  2.875000   0.250000 0
  2.250000   2.500000 0
  2.375000   1.500000 0
  2.875000   1.125000 0
  2.875000   2.125000 0
  3.000000   1.125000 0
  3.000000   0.375000 0
  3.000000   0.250000 0
  2.875000   1.250000 0
  3.000000   1.250000 0
  2.375000   0.125000 0
  2.250000   0.875000 0
  2.125000   1.750000 0
  2.250000   1.000000 0
  2.375000   0.000000 0
  2.750000   2.375000 0
  2.875000   1.375000 0
  2.750000   1.500000 0
  2.875000   0.500000 0
  2.750000   1.375000 0
  2.250000   1.500000 0
  2.250000   0.750000 0
  2.875000   0.375000 0
  2.750000   0.500000 0
  2.750000   0.375000 0
  2.625000   1.375000 0
  2.625000   2.250000 0
  2.750000   1.250000 0
  2.250000   2.250000 0
  2.375000   1.250000 0
  2.875000   1.875000 0
  3.000000   0.875000 0
  2.375000   1.375000 0
  2.500000   0.500000 0
  3.000000   1.000000 0
  2.500000   0.625000 0
  2.375000   0.750000 0
  2.375000   0.625000 0
  2.250000   1.625000 0
  1.875000   2.500000 0
  2.000000   1.500000 0
  2.000000   1.625000 0
  2.000000   0.750000 0
  1.875000   1.500000 0
  1.875000   1.625000 0
  2.000000   0.625000 0
  2.125000   0.750000 0
  2.000000   1.750000 0
  2.250000   0.000000 0
  2.125000   0.875000 0
  1.875000   1.750000 0
  1.875000   1.875000 0
  2.000000   0.875000 0
  1.750000   1.750000 0
  1.625000   2.625000 0
  1.750000   1.625000 0
  1.750000   1.500000 0
  0.375000   2.500000 0
  2.000000   2.000000 0
  2.125000   1.000000 0
  0.500000   2.625000 0
  0.625000   2.375000 0
  0.000000   0.250000 0
  0.625000   0.375000 0
  0.875000   0.375000 0
  0.500000   1.250000 0
  0.625000   0.250000 0
  0.875000   0.750000 0
  1.500000   2.875000 0
  0.125000   0.625000 0
  0.750000   0.250000 0
  1.500000   1.000000 0
  2.375000   0.250000 0
  0.875000   0.000000 0
  0.000000   0.750000 0
  0.750000   0.875000 0
  2.250000   0.125000 0
  0.625000   0.750000 0
  1.000000   1.750000 0
  2.000000   0.000000 0
  1.875000   1.000000 0
  1.000000   0.750000 0
  0.125000   1.500000 0
  1.000000   1.625000 0
  0.125000   2.375000 0
  0.000000   1.375000 0
  0.875000   0.625000 0
  0.000000   1.500000 0
  0.125000   0.500000 0
  0.625000   1.000000 0
  0.625000   1.125000 0
  0.750000   0.125000 0
  0.000000   0.500000 0
  1.500000   1.125000 0
  0.625000   1.875000 0
  0.000000   1.250000 0
  0.000000   0.375000 0
  0.125000   2.500000 0
  0.250000   1.500000 0
  0.250000   0.625000 0
  0.875000   1.250000 0
  0.000000   2.000000 0
  1.000000   0.375000 0
  0.125000   1.125000 0
  0.250000   0.750000 0
  1.250000   1.625000 0
  0.500000   1.500000 0
  0.500000   1.625000 0
  0.625000   0.625000 0
  0.500000   0.625000 0
  2.125000   0.000000 0
  0.375000   2.250000 0
  0.375000   2.375000 0
  0.500000   1.375000 0
  0.375000   1.500000 0
  0.500000   0.500000 0
  0.375000   1.375000 0
  0.375000   0.500000 0
  0.375000   0.625000 0
  1.000000   2.750000 0
  0.625000   0.125000 0
  0.500000   0.875000 0
  0.500000   1.000000 0
  0.625000   0.000000 0
  0.500000   0.750000 0
  0.375000   1.750000 0
  1.250000   1.000000 0
  2.125000   0.250000 0
  0.250000   0.500000 0
  0.875000   2.625000 0
  0.125000   2.250000 0
  0.250000   1.250000 0
  0.250000   1.375000 0
  0.375000   0.375000 0
  0.000000   2.500000 0
  1.625000   2.000000 0
  1.750000   1.000000 0
  0.250000   0.375000 0
  0.250000   0.250000 0
  0.125000   1.250000 0
  1.000000   0.500000 0
  0.375000   0.750000 0
  0.250000   1.625000 0
  2.000000   0.125000 0
  1.000000   1.375000 0
  0.125000   2.125000 0
  0.375000   0.875000 0
  1.000000   3.000000 0
  0.500000   0.000000 0
  0.875000   1.500000 0
  0.000000   2.250000 0
  0.875000   1.625000 0
  1.000000   0.625000 0
  0.000000   2.375000 0
  0.125000   1.375000 0
  0.250000   0.125000 0
  1.000000   0.250000 0
  2.375000   2.625000 0
  2.500000   1.625000 0
  0.250000   1.000000 0
  0.000000   2.125000 0
  0.500000   0.125000 0
  0.250000   3.000000 0
  1.125000   2.250000 0
  1.125000   1.500000 0
  0.875000   0.125000 0
  0.000000   0.875000 0
  0.625000   3.000000 0
  1.500000   2.250000 0
  0.375000   0.000000 0
  0.125000   2.875000 0
  1.000000   2.125000 0
  1.750000   2.375000 0
  1.875000   1.375000 0
  1.375000   1.125000 0
  0.625000   0.875000 0
  0.500000   1.875000 0
  2.250000   0.375000 0
  0.750000   0.625000 0
  1.375000   2.750000 0
  0.625000   2.250000 0
  1.500000   1.500000 0
  0.750000   1.375000 0
  0.125000   1.750000 0
  1.000000   1.000000 0
  1.500000   1.250000 0
  2.375000   0.500000 0
  0.375000   0.250000 0
  0.375000   0.125000 0
  0.250000   1.125000 0
  0.625000   0.500000 0
  1.250000   2.625000 0
  0.125000   0.000000 0
  0.750000   0.500000 0
  0.125000   1.000000 0
  0.250000   0.000000 0
  0.125000   0.875000 0
  1.000000   0.125000 0
  1.125000   1.125000 0
  0.250000   1.875000 0
  2.000000   0.375000 0
  1.125000   1.250000 0
  0.375000   1.000000 0
  0.250000   2.000000 0
  2.000000   0.500000 0
  1.000000   1.125000 0
  0.250000   0.875000 0
  0.125000   1.875000 0
  1.250000   1.250000 0
  0.375000   2.000000 0
  2.125000   0.500000 0
  0.000000   0.125000 0
  0.500000   2.375000 0
  1.375000   1.625000 0
  1.250000   1.375000 0
  0.500000   1.125000 0
  0.375000   2.125000 0
  2.125000   0.625000 0
  1.000000   0.875000 0
  0.250000   2.125000 0
  0.625000   1.500000 0
  0.500000   2.500000 0
  1.375000   1.750000 0
  0.625000   1.625000 0
  0.625000   1.750000 0
  0.750000   0.750000 0
  0.125000   0.250000 0
  0.625000   2.500000 0
  1.500000   1.750000 0
  1.375000   1.375000 0
  0.500000   2.125000 0
  2.250000   0.625000 0
  0.750000   0.000000 0
  0.500000   2.875000 0
  1.375000   2.125000 0
  0.125000   0.375000 0
  0.750000   2.500000 0
  1.375000   1.500000 0
  0.500000   0.375000 0
  0.000000   1.875000 0
  0.375000   1.125000 0
  0.500000   0.250000 0
  0.250000   2.250000 0
  0.375000   1.250000 0
  0.000000   0.000000 0
[...]
CELL_DATA 512
VECTORS vector_value float
0.0128392 -0.437917 0
0.489389 -0.52301 0
0.49592 -0.412879 0
0.385988 -0.426352 0
0.397868 -0.517674 0
0.345536 -0.320345 0
0.482478 -0.272012 0
0.466033 -0.0959296 0
0.238325 -0.131778 0
0.770881 -0.467159 0
0.625984 -0.424241 0
0.593606 -0.548391 0
0.706122 -0.600421 0
0.00135842 -0.441595 0
0.00321764 -0.439236 0
0.00247362 -0.431088 0
0.00552999 -0.423084 0
0.00228268 -0.440798 0
0.00372856 -0.436322 0
0.17306 -0.43136 0
0.253858 -0.384869 0
0.140334 -0.383767 0
0.655525 -0.0935629 0
0.646514 -0.271009 0
0.822963 -0.299045 0
0.852327 -0.103239 0
0.000234689 -0.44143 0
0.0556006 -0.642993 0
0.000758389 -0.440916 0
0.00641495 -0.433885 0
0.218118 -0.641913 0
0.000253585 -0.442957 0
0.216705 -0.595271 0
0.000140273 -0.442564 0
0.00137939 -0.434941 0
0.267298 -0.591603 0
0.000613642 -0.441986 0
0.0486303 -0.467226 0
0.000581069 -0.444586 0
0.139279 -0.456809 0
0.000657639 -0.440378 0
0.266654 -0.644088 0
0.0167608 -0.501143 0
0.000730767 -0.442709 0
0.00111819 -0.442237 0
0.0502083 -0.500017 0
0.320291 -0.650144 0
0.325753 -0.590537 0
0.000740167 -0.44148 0
0.080449 -0.465314 0
0.00122639 -0.440152 0
0.147741 -0.485607 0
0.00354539 -0.440756 0
0.12729 -0.563602 0
0.00264255 -0.44336 0
0.0033084 -0.442192 0
0.0900018 -0.567281 0
0.000158503 -0.439722 0
0.00815348 -0.437849 0
0.173791 -0.64163 0
0.00509624 -0.438518 0
0.171936 -0.599175 0
0.00804474 -0.441328 0
0.132567 -0.642048 0
0.0162633 -0.468119 0
0.000403128 -0.442363 0
0.00114837 -0.443287 0
0.00177218 -0.44267 0
0.0520083 -0.534066 0
0.000140364 -0.440126 0
0.00698419 -0.448272 0
0.321505 -0.524851 0
0.000195215 -0.44187 0
0.00425842 -0.449724 0
0.00082216 -0.437142 0
0.25981 -0.537138 0
0.00524459 -0.446003 0
0.301354 -0.455176 0
0.00692577 -0.44404 0
0.0934361 -0.642581 0
0.205621 -0.445767 0
0.000298448 -0.439265 0
0.00486189 -0.442869 0
0.0923143 -0.604513 0
0.000396773 -0.443608 0
0.017323 -0.535227 0
0.0115909 -0.442617 0
0.000207018 -0.440484 0
0.0182491 -0.606498 0
0.00238943 -0.445462 0
0.177765 -0.472203 0
0.000839029 -0.439583 0
0.00378947 -0.444421 0
0.0549504 -0.605862 0
0.0178499 -0.570399 0
0.00169182 -0.444172 0
0.0536906 -0.569419 0
0.162281 -0.447974 0
0.000447134 -0.439955 0
0.000814729 -0.445981 0
0.00012856 -0.442201 0
0.00142971 -0.450426 0
0.00227101 -0.437919 0
0.209547 -0.548879 0
0.00109991 -0.447896 0
4.47921e-05 -0.442379 0
0.0184607 -0.643208 0
0.00325131 -0.447273 0
0.195679 -0.506382 0
0.00139987 -0.438943 0
0.166488 -0.557739 0
0.00202315 -0.439781 0
0.157817 -0.519314 0
0.000501101 -0.438466 0
0.240642 -0.484408 0
0.00217888 -0.441809 0
0.0868282 -0.531503 0
0.0121191 -0.431358 0
4.96816e-05 -0.43993 0
0.121955 -0.526965 0
0.11108 -0.462066 0
0.00140321 -0.440864 0
0.116069 -0.49314 0
0.0834035 -0.497537 0
0.00949622 -0.445965 0
0.000239577 -0.440943 0
0.00539419 -0.440848 0
0.130978 -0.602321 0
0.179348 -0.872717 0
0.18654 -0.840596 0
0.153125 -0.834062 0
0.147823 -0.866881 0
0.139577 -0.928154 0
0.260691 -0.692995 0
0.168385 -0.931738 0
0.173204 -0.902962 0
0.143223 -0.898141 0
0.15878 -0.799426 0
0.194379 -0.806218 0
0.202314 -0.769263 0
0.215273 -0.686959 0
0.169173 -0.724129 0
0.107784 -0.955608 0
0.164327 -0.762796 0
0.106843 -0.985256 0
0.0806207 -0.892083 0
0.1726 -0.683585 0
0.10962 -0.925483 0
0.112262 -0.894578 0
0.119318 -0.829372 0
0.0853102 -0.826168 0
0.0828277 -0.859665 0
0.115564 -0.862619 0
0.0902539 -0.755602 0
0.0878683 -0.791485 0
0.123247 -0.794668 0
0.0769594 -0.98486 0
0.126994 -0.758431 0
0.0788413 -0.923599 0
0.132151 -0.681766 0
0.0775979 -0.954438 0
0.130126 -0.720719 0
0.0175359 -0.788624 0
0.0526468 -0.789542 0
0.0179575 -0.75313 0
0.0550044 -0.717431 0
0.0184667 -0.680136 0
0.0182851 -0.716888 0
0.0498001 -0.857813 0
0.0512098 -0.824181 0
0.209601 -0.729515 0
0.137058 -0.957259 0
0.307758 -0.89411 0
0.360226 -0.719847 0
0.280593 -0.875723 0
0.469709 -0.612667 0
0.265408 -0.902821 0
0.2437 -0.949338 0
0.413017 -0.744967 0
0.274462 -0.93902 0
0.253056 -0.927112 0
0.442803 -0.685625 0
0.135773 -0.985815 0
0.383212 -0.793379 0
0.237428 -0.970151 0
0.355139 -0.833165 0
0.234283 -0.99014 0
0.638134 -0.7008 0
0.324997 -0.95712 0
0.294929 -0.750246 0
0.191457 -0.962298 0
0.305372 -0.969047 0
0.514501 -0.829384 0
0.290937 -0.979103 0
0.229819 -0.815623 0
0.0485371 -0.890506 0
0.281449 -0.987928 0
0.219256 -0.849402 0
0.0933323 -0.680812 0
0.0475134 -0.922402 0
0.276746 -0.996052 0
0.209787 -0.880436 0
0.0921779 -0.718627 0
0.0467954 -0.953692 0
0.263366 -0.957867 0
0.465463 -0.780882 0
0.279319 -0.967809 0
0.0162056 -0.889744 0
0.255981 -0.975274 0
0.425281 -0.826984 0
0.462974 -0.870014 0
0.270839 -0.981213 0
0.0555955 -0.680334 0
0.0158718 -0.921821 0
0.418663 -0.900678 0
0.266621 -0.993824 0
0.289271 -0.918041 0
0.55271 -0.645952 0
0.309433 -0.936156 0
0.251558 -0.737813 0
0.16508 -0.959463 0
0.017073 -0.823232 0
0.508695 -0.721886 0
0.57322 -0.774815 0
0.292145 -0.95302 0
0.240871 -0.778581 0
0.1634 -0.986558 0
0.0166163 -0.856922 0
0.381209 -0.924183 0
0.201828 -0.909254 0
0.046426 -0.984607 0
0.350142 -0.942519 0
0.309101 -0.703283 0
0.195657 -0.936374 0
0.331316 -0.916367 0
0.357913 -0.892582 0
0.0539662 -0.753916 0
0.0155164 -0.984484 0
0.252294 -0.991849 0
0.389275 -0.863402 0
0.0156372 -0.95333 0
0.329805 -0.866229 0
0.298326 -0.84496 0
0.31812 -0.809526 0
0.213122 -0.988699 0
0.339179 -0.76826 0
0.215739 -0.965839 0
0.379278 -0.662874 0
0.228631 -0.917238 0
0.220937 -0.9422 0
0.393324 -0.595923 0
0.238672 -0.890368 0
0.250818 -0.860955 0
0.189331 -0.987511 0
0.279686 -0.791664 0
0.264686 -0.828304 0
0.0277554 -2.59114 0
0.59964 -1.37331 0
0.784108 -1.32746 0
1.02815 -2.53461 0
0.00870669 -2.58693 0
0.734375 -2.82157 0
0.65957 -1.27141 0
0.338964 -2.86654 0
0.419915 -3.61054 0
0.179849 -2.76456 0
0.0383744 -2.73543 0
1.5422 -1.7492 0
0.0362729 -2.62496 0
2.28257 -2.95754 0
0.0191006 -2.60925 0
0.00596347 -2.60206 0
0.00212229 -2.61042 0
0.484417 -1.62657 0
0.0584025 -2.56969 0
1.16435 -2.11067 0
0.0521502 -2.59997 0
0.92402 -0.816313 0
1.09222 -0.686673 0
0.927878 -0.548449 0
0.820552 -0.686615 0
1.02343 -0.359101 0
1.26284 -0.472267 0
1.37714 -0.170374 0
1.08117 -0.125601 0
0.0871275 -2.61399 0
0.990074 -1.75703 0
0.0617943 -2.65215 0
1.18206 -1.53301 0
0.103726 -2.69607 0
0.949634 -1.40583 0
0.833067 -1.57566 0
0.141263 -2.63293 0
0.703976 -1.45733 0
0.229809 -2.65194 0
0.138936 -2.42244 0
0.181072 -2.35941 0
0.429207 -1.5209 0
0.254226 -2.41443 0
0.0130187 -2.63919 0
1.69979 -1.2476 0
0.00959877 -2.54769 0
0.0224215 -2.67463 0
1.27 -1.21826 0
0.321732 -2.32586 0
0.00787673 -2.5298 0
0.0246617 -2.52492 0
0.187905 -2.47352 0
0.00681522 -2.61936 0
2.7206 -0.634893 0
0.100949 -2.4666 0
0.400022 -1.79241 0
0.277441 -2.0548 0
0.0445438 -2.51425 0
0.410494 -2.07137 0
0.069171 -2.84297 0
0.826459 -1.17812 0
0.377606 -2.20851 0
1.00733 -1.19979 0
0.0694946 -2.49585 0
0.416574 -1.92839 0
0.139243 -3.05139 0
0.693195 -1.15819 0
0.0430879 -2.23239 0
0.0952444 -2.57004 0
0.769077 -1.8768 0
0.674897 -0.937206 0
0.256272 -2.17205 0
0.0160058 -2.51 0
0.0286577 -2.49613 0
0.222338 -2.27543 0
0.00513339 -2.51652 0
0.630942 -0.84656 0
0.0489521 -2.14035 0
0.0359381 -2.31142 0
0.793868 -2.11464 0
0.785935 -0.891345 0
0.0533667 -1.82405 0
0.00994251 -2.56774 0
0.56111 -2.55018 0
0.0284118 -2.37577 0
0.0315042 -2.56852 0
0.726803 -2.36253 0
0.00177842 -2.50947 0
0.130606 -2.24603 0
0.108136 -2.32672 0
0.719228 -0.78176 0
0.084701 -2.39085 0
0.149049 -2.15045 0
0.005533 -2.50216 0
0.686338 -1.69045 0
0.160915 -2.04395 0
0.00986178 -2.48677 0
0.0527787 -2.03862 0
0.0150688 -2.46184 0
0.0542105 -1.93163 0
0.378241 -2.6392 0
0.276141 -1.81083 0
0.0628686 -2.43901 0
0.0212958 -2.42547 0
0.161935 -1.82014 0
0.283571 -1.93173 0
0.0440925 -2.47324 0
0.165045 -1.93197 0
0.131631 -2.50901 0
0.537343 -1.75731 0
0.148166 -2.56611 0
0.0879606 -2.52891 0
0.573477 -1.91556 0
0.69762 -1.04348 0
0.0302231 -2.54529 0
0.52491 -2.26685 0
0.994702 -0.991797 0
0.0552544 -2.53968 0
0.574101 -2.09308 0
0.825519 -1.02703 0
0.433562 -2.40864 0
1.22613 -0.916838 0
0.520178 -1.45719 0
0.323872 -2.50154 0
1.55817 -0.702001 0
1.81661 -0.269097 0
0.599271 -1.55734 0
0.224389 -2.54858 0
0.256532 -1.02811 0
0.446746 -1.25749 0
0.37651 -1.13494 0
0.346358 -1.1769 0
0.251192 -1.00932 0
0.391216 -1.21424 0
0.425332 -1.16187 0
0.486382 -1.19238 0
0.27266 -1.01989 0
0.283143 -1.01152 0
0.26713 -1.00661 0
0.311726 -1.02643 0
0.562864 -1.22801 0
0.283895 -1.03332 0
0.301203 -1.04701 0
0.356651 -1.07549 0
0.367042 -1.03985 0
0.335667 -1.03342 0
0.32517 -1.06103 0
0.407002 -1.0454 0
0.396863 -1.09048 0
0.277596 -1.00385 0
0.447517 -1.10609 0
0.282217 -1.11397 0
0.310457 -1.14385 0
0.337687 -1.11061 0
0.30727 -1.0882 0
0.398129 -0.960776 0
0.40715 -1.0016 0
0.454631 -0.995044 0
0.441171 -0.944854 0
0.294403 -1.01908 0
0.591104 -1.13973 0
0.511062 -1.12245 0
0.556085 -0.891298 0
0.493353 -0.922631 0
0.515216 -1.30914 0
0.267386 -1.04732 0
0.260662 -1.08644 0
0.28411 -1.06724 0
0.338839 -1.00635 0
0.368996 -1.00505 0
0.151912 -1.29327 0
0.136883 -1.23776 0
0.187659 -1.22151 0
0.170787 -1.17475 0
0.259089 -1.6979 0
0.236912 -1.59588 0
0.208615 -1.27348 0
0.169825 -1.35545 0
0.138855 -1.01805 0
0.108232 -1.09906 0
0.213248 -1.50539 0
0.148169 -1.09225 0
0.157714 -1.13201 0
0.19046 -1.42568 0
0.141934 -1.05455 0
0.26351 -1.39895 0
0.0254739 -1.20071 0
0.234952 -1.03592 0
0.39441 -1.31466 0
0.115189 -1.14176 0
0.141397 -1.61383 0
0.33507 -0.98068 0
0.128153 -1.52372 0
0.313435 -0.98689 0
0.124687 -1.18764 0
0.153321 -1.7131 0
0.363067 -0.972285 0
0.023547 -1.15169 0
0.0279333 -1.25412 0
0.217362 -1.07276 0
0.245076 -1.0606 0
0.451937 -1.37863 0
0.0207401 -1.02074 0
0.250561 -1.13745 0
0.519823 -1.05162 0
0.28797 -1.00325 0
0.030937 -1.31299 0
0.231316 -1.10398 0
0.457164 -1.04957 0
0.282571 -1.00112 0
0.0507392 -1.71995 0
0.0758864 -1.19634 0
0.0832473 -1.24866 0
0.0922657 -1.30643 0
0.282194 -0.998501 0
0.0701313 -1.14836 0
0.0469856 -1.62222 0
0.229969 -1.0119 0
0.346608 -1.26096 0
0.0659051 -1.10368 0
0.0427314 -1.5325 0
0.0221301 -1.10601 0
0.307383 -1.21472 0
0.315712 -1.00619 0
0.0384561 -1.45132 0
0.0212003 -1.06268 0
0.275671 -1.17401 0
0.598312 -1.05031 0
0.298916 -1.00504 0
0.101426 -1.01938 0
0.10292 -1.3708 0
0.0344687 -1.37839 0
0.0617634 -1.02028 0
0.51326 -0.9839 0
0.287302 -0.995324 0
0.103677 -1.05857 0
0.115033 -1.44291 0
0.0631342 -1.0613 0
0.585537 -0.965875 0
0.297637 -0.991596 0
0.233884 -1.33207 0
0.173231 -1.01633 0
0.203813 -1.01426 0
0.293462 -1.30051 0
0.177059 -1.04933 0
0.208285 -1.04306 0
0.332335 -1.36203 0
0.333414 -1.56601 0
0.196728 -1.11931 0
0.297106 -1.47614 0
0.184821 -1.08341 0
0.377762 -1.43431 0
0.369568 -1.67097 0
0.213097 -1.15789 0
0.234341 -1.20012 0
0.260953 -1.24717 0
