# vtk DataFile Version 2.0
Unstructured Grid by M++
ASCII
DATASET UNSTRUCTURED_GRID
POINTS 4072 float
  0.656250   0.890625 0
  0.703125   0.640625 0
  0.640625   0.890625 0
  0.703125   0.625000 0
  0.640625   0.875000 0
  0.703125   0.671875 0
  0.640625   0.921875 0
  0.718750   0.656250 0
  0.656250   0.906250 0
  0.703125   0.656250 0
  0.640625   0.906250 0
  0.546875   0.718750 0
  0.531250   0.734375 0
  0.578125   0.765625 0
  0.562500   0.765625 0
  0.812500   0.796875 0
  0.718750   0.625000 0
  0.656250   0.875000 0
  0.734375   0.609375 0
  0.671875   0.859375 0
  0.718750   0.609375 0
  0.656250   0.859375 0
  0.734375   0.593750 0
  0.671875   0.843750 0
  0.578125   0.984375 0
  0.640625   0.734375 0
  0.515625   0.734375 0
  0.531250   0.718750 0
  1.000000   0.984375 0
  0.515625   0.718750 0
  0.859375   0.921875 0
  0.921875   0.671875 0
  0.843750   0.921875 0
  0.906250   0.671875 0
  0.843750   0.937500 0
  0.906250   0.687500 0
  0.546875   0.656250 0
  0.546875   0.578125 0
  0.671875   0.625000 0
  0.609375   0.875000 0
  0.546875   0.593750 0
  0.593750   0.984375 0
  0.656250   0.734375 0
  0.578125   0.609375 0
  0.515625   0.859375 0
  0.578125   0.593750 0
  0.515625   0.843750 0
  0.937500   0.640625 0
  0.875000   0.890625 0
  0.953125   0.625000 0
  0.890625   0.875000 0
  0.781250   0.578125 0
  0.718750   0.828125 0
  0.734375   0.812500 0
  0.578125   0.578125 0
  0.515625   0.828125 0
  0.562500   0.578125 0
  0.578125   0.562500 0
  0.515625   0.812500 0
  1.000000   1.000000 0
  0.859375   0.734375 0
  0.796875   0.984375 0
  0.984375   0.734375 0
  0.921875   0.984375 0
  0.968750   0.734375 0
  0.906250   0.984375 0
  0.984375   0.718750 0
  0.921875   0.968750 0
  0.859375   0.718750 0
  0.796875   0.968750 0
  0.921875   0.796875 0
  0.984375   0.546875 0
  0.562500   0.812500 0
  0.906250   0.796875 0
  0.921875   0.781250 0
  0.671875   0.687500 0
  0.609375   0.937500 0
  0.671875   0.671875 0
  0.609375   0.921875 0
  0.687500   0.671875 0
  0.625000   0.921875 0
  0.671875   0.734375 0
  0.609375   0.984375 0
  0.687500   0.734375 0
  0.625000   0.984375 0
  0.765625   0.578125 0
  0.703125   0.828125 0
  0.781250   0.562500 0
  0.718750   0.812500 0
  0.750000   0.578125 0
  0.687500   0.828125 0
  0.765625   0.562500 0
  0.703125   0.812500 0
  0.625000   0.968750 0
  0.687500   0.718750 0
  0.625000   0.953125 0
  0.687500   0.703125 0
  0.625000   0.937500 0
  0.687500   0.687500 0
  0.609375   0.968750 0
  0.671875   0.718750 0
  0.609375   0.953125 0
  0.671875   0.703125 0
  0.609375   0.890625 0
  0.671875   0.640625 0
  0.625000   0.890625 0
  0.687500   0.640625 0
  0.609375   0.906250 0
  0.671875   0.656250 0
  0.625000   0.906250 0
  0.687500   0.656250 0
  0.593750   0.765625 0
  0.937500   0.953125 0
  0.546875   0.750000 0
  0.546875   0.734375 0
  0.531250   0.750000 0
  0.937500   0.671875 0
  0.515625   0.937500 0
  0.953125   0.671875 0
  0.890625   0.921875 0
  0.875000   0.921875 0
  0.531250   0.671875 0
  0.515625   0.687500 0
  0.921875   0.703125 0
  0.859375   0.953125 0
  0.828125   0.656250 0
  0.953125   0.656250 0
  0.531250   0.921875 0
  0.890625   0.906250 0
  0.953125   0.640625 0
  0.890625   0.890625 0
  0.937500   0.656250 0
  0.875000   0.906250 0
  0.671875   0.593750 0
  0.609375   0.843750 0
  0.656250   0.593750 0
  0.593750   0.843750 0
  0.671875   0.609375 0
  0.609375   0.859375 0
  0.656250   0.609375 0
  0.593750   0.859375 0
  0.578125   0.750000 0
  0.515625   1.000000 0
  0.921875   0.578125 0
  0.859375   0.828125 0
  0.937500   0.796875 0
  0.953125   0.781250 0
  0.953125   0.734375 0
  0.890625   0.984375 0
  0.937500   0.734375 0
  0.875000   0.984375 0
  0.953125   0.796875 0
  0.968750   0.796875 0
  0.984375   0.796875 0
  1.000000   0.796875 0
  0.562500   0.796875 0
  0.578125   0.781250 0
  0.562500   0.781250 0
  0.578125   0.640625 0
  0.515625   0.890625 0
  0.562500   0.640625 0
  0.578125   0.625000 0
  0.515625   0.875000 0
  0.875000   0.703125 0
  0.812500   0.953125 0
  0.562500   0.609375 0
  0.562500   0.593750 0
  0.546875   0.609375 0
  0.562500   0.562500 0
  0.562500   0.546875 0
  0.546875   0.562500 0
  0.750000   0.609375 0
  0.687500   0.859375 0
  0.765625   0.593750 0
  0.703125   0.843750 0
  0.750000   0.593750 0
  0.687500   0.843750 0
  0.968750   0.656250 0
  0.906250   0.906250 0
  0.984375   0.640625 0
  0.921875   0.890625 0
  0.968750   0.640625 0
  0.906250   0.890625 0
  0.984375   0.625000 0
  0.921875   0.875000 0
  0.968750   0.625000 0
  0.906250   0.875000 0
  0.531250   0.984375 0
  0.796875   0.953125 0
  0.859375   0.703125 0
  0.781250   0.953125 0
  0.843750   0.703125 0
  1.000000   0.531250 0
  0.937500   0.781250 0
  0.953125   0.765625 0
  0.937500   0.765625 0
  0.953125   0.750000 0
  0.937500   0.703125 0
  0.875000   0.953125 0
  0.953125   0.687500 0
  0.890625   0.937500 0
  0.937500   0.687500 0
  0.875000   0.937500 0
  0.828125   0.640625 0
  0.828125   0.625000 0
  0.546875   0.687500 0
  0.546875   0.671875 0
  0.531250   0.687500 0
  0.953125   0.718750 0
  0.890625   0.968750 0
  0.953125   0.703125 0
  0.890625   0.953125 0
  0.984375   1.000000 0
  0.953125   0.515625 0
  0.531250   0.781250 0
  0.890625   0.765625 0
  0.890625   0.796875 0
  0.890625   0.781250 0
  0.562500   0.671875 0
  0.921875   0.656250 0
  0.578125   0.656250 0
  0.515625   0.906250 0
  0.562500   0.656250 0
  0.890625   0.750000 0
  0.828125   1.000000 0
  0.875000   0.734375 0
  0.812500   0.984375 0
  0.953125   1.000000 0
  0.750000   0.984375 0
  0.812500   0.734375 0
  0.984375   0.781250 0
  1.000000   0.781250 0
  1.000000   0.765625 0
  0.937500   0.718750 0
  0.875000   0.968750 0
  0.921875   0.718750 0
  0.859375   0.968750 0
  0.968750   0.531250 0
  0.546875   0.796875 0
  0.906250   0.781250 0
  0.984375   0.515625 0
  0.921875   0.765625 0
  0.906250   0.765625 0
  0.968750   0.781250 0
  0.984375   0.765625 0
  0.968750   0.765625 0
  0.984375   0.750000 0
  0.906250   1.000000 0
  0.968750   0.750000 0
  0.968750   0.718750 0
  0.906250   0.968750 0
  0.984375   0.703125 0
  0.921875   0.953125 0
  0.968750   0.703125 0
  0.906250   0.953125 0
  0.984375   0.687500 0
  0.562500   0.953125 0
  0.921875   0.937500 0
  0.968750   0.687500 0
  0.906250   0.937500 0
  1.000000   0.859375 0
  0.734375   0.531250 0
  0.671875   0.781250 0
  0.734375   0.546875 0
  0.671875   0.796875 0
  0.718750   0.546875 0
  0.656250   0.796875 0
  0.687500   0.921875 0
  0.750000   0.671875 0
  0.828125   0.812500 0
  0.828125   0.796875 0
  0.578125   0.812500 0
  0.578125   0.796875 0
  0.937500   0.859375 0
  0.703125   0.796875 0
  0.765625   0.546875 0
  0.718750   0.781250 0
  0.781250   0.531250 0
  0.687500   0.796875 0
  0.750000   0.546875 0
  0.703125   0.781250 0
  0.765625   0.531250 0
  0.609375   0.765625 0
  0.984375   0.828125 0
  1.000000   0.812500 0
  0.984375   0.812500 0
  1.000000   0.750000 0
  0.937500   1.000000 0
  0.953125   0.984375 0
  0.937500   0.984375 0
  0.609375   0.781250 0
  0.593750   0.781250 0
  0.593750   0.796875 0
  0.531250   0.609375 0
  0.515625   0.609375 0
  0.515625   0.562500 0
  0.875000   0.796875 0
  0.859375   0.812500 0
  0.609375   0.812500 0
  0.609375   0.796875 0
  0.593750   0.812500 0
  0.578125   0.671875 0
  0.515625   0.921875 0
  0.859375   1.000000 0
  0.921875   0.750000 0
  0.875000   1.000000 0
  0.937500   0.750000 0
  0.921875   0.734375 0
  0.859375   0.984375 0
  0.937500   0.921875 0
  0.593750   0.671875 0
  0.625000   0.609375 0
  0.562500   0.859375 0
  0.609375   0.609375 0
  0.546875   0.859375 0
  0.609375   0.671875 0
  0.546875   0.921875 0
  0.640625   0.671875 0
  0.578125   0.921875 0
  0.625000   0.671875 0
  0.562500   0.921875 0
  0.640625   0.625000 0
  0.578125   0.875000 0
  0.500000   0.906250 0
  0.078125   0.125000 0
  0.500000   0.796875 0
  0.078125   0.015625 0
  0.484375   0.843750 0
  0.468750   0.828125 0
  0.750000   0.234375 0
  0.062500   0.828125 0
  0.484375   0.562500 0
  0.296875   0.546875 0
  0.234375   0.796875 0
  0.281250   0.531250 0
  0.218750   0.781250 0
  0.296875   0.562500 0
  0.234375   0.812500 0
  0.281250   0.546875 0
  0.218750   0.796875 0
  0.265625   0.625000 0
  0.953125   0.046875 0
  0.281250   0.640625 0
  0.031250   0.546875 0
  0.500000   0.984375 0
  0.078125   0.203125 0
  0.484375   0.984375 0
  0.062500   0.203125 0
  0.718750   0.125000 0
  0.031250   0.687500 0
  0.703125   0.109375 0
  0.328125   0.625000 0
  0.343750   0.812500 0
  0.406250   0.562500 0
  0.687500   0.031250 0
  0.500000   0.859375 0
  0.468750   0.906250 0
  0.046875   0.125000 0
  0.468750   0.937500 0
  0.046875   0.156250 0
  0.062500   1.000000 0
  0.015625   0.546875 0
  0.812500   0.109375 0
  0.375000   0.812500 0
  0.437500   0.562500 0
  0.359375   0.796875 0
  0.421875   0.546875 0
  0.343750   0.781250 0
  0.406250   0.531250 0
  0.328125   0.687500 0
  0.500000   0.968750 0
  0.078125   0.187500 0
  0.031250   0.609375 0
  0.718750   0.031250 0
  0.031250   0.593750 0
  0.718750   0.015625 0
  0.703125   0.015625 0
  0.031250   0.515625 0
  0.046875   0.531250 0
  0.359375   0.687500 0
  0.375000   0.703125 0
  0.484375   0.750000 0
  0.046875   0.984375 0
  0.328125   0.656250 0
  0.343750   0.593750 0
  0.328125   0.578125 0
  0.265625   0.828125 0
  0.000000   0.515625 0
  0.500000   0.765625 0
  0.015625   0.531250 0
  0.468750   0.984375 0
  0.046875   0.203125 0
  0.375000   0.625000 0
  0.343750   0.703125 0
  0.468750   0.968750 0
  0.046875   0.187500 0
  0.359375   0.625000 0
  0.296875   0.875000 0
  0.734375   0.390625 0
  0.359375   0.718750 0
  0.015625   0.593750 0
  0.812500   0.156250 0
  0.750000   0.406250 0
  0.375000   0.734375 0
  0.453125   0.750000 0
  0.468750   0.875000 0
  0.046875   0.093750 0
  0.296875   0.812500 0
  0.484375   0.968750 0
  0.062500   0.187500 0
  0.296875   0.781250 0
  0.031250   0.968750 0
[...]
POINT_DATA 4072
SCALARS scalar_value float 1
LOOKUP_TABLE default
1.0793e-07
-3.44096e-05
-1.27924e-07
0.00015378
1.86552e-07
-2.89526e-06
-3.71643e-08
-1.83745e-05
-7.3573e-08
-2.44658e-06
7.52014e-08
-0.000659372
0.000735031
-4.29505e-05
-8.11957e-05
6.85704e-10
-8.82214e-05
-1.27975e-07
0.000199529
-4.05716e-08
-4.61427e-05
1.69374e-07
-0.000662056
1.41332e-07
-5.08516e-08
0.000209153
-0.00072397
0.000176564
0
0.00160429
0
4.66197e-08
0
-1.4668e-07
-1.70538e-10
1.22506e-07
0.00616728
0.00507612
-0.000771888
7.40529e-07
-0.000251314
3.70889e-08
-3.94173e-05
0.0584535
-1.02883e-05
0.0909346
0.000111827
4.42139e-08
-1.9851e-10
2.70016e-08
0
-3.11648e-05
8.73966e-09
-1.91751e-07
0.121125
-2.02402e-05
0.0464575
0.143743
8.24866e-05
0
-3.33764e-08
-2.62092e-10
7.69255e-10
0
-2.71651e-09
0
-1.29452e-09
0
5.18219e-09
2.12149e-10
-3.51913e-10
-7.4651e-09
-6.88629e-05
1.94545e-10
3.98767e-10
8.35251e-05
4.42088e-08
-0.000110427
-9.14281e-08
3.18773e-05
8.77142e-08
4.99283e-06
-8.62067e-09
6.53912e-06
1.41901e-08
0.000204805
5.03271e-08
-0.000138239
1.45266e-07
-0.00057011
2.33084e-07
0.00010596
-2.98238e-07
-1.54462e-08
-3.01388e-05
2.92294e-08
4.84825e-05
-4.89386e-08
-4.62196e-05
1.17459e-08
4.04239e-05
-1.92799e-08
-7.51555e-05
-3.54162e-07
3.1518e-05
2.79855e-07
-3.42272e-05
1.6912e-07
2.93797e-05
-1.5843e-07
9.36071e-06
6.20963e-05
0
-0.000277708
0.00110552
-0.000950134
-1.25698e-08
-2.64352e-06
3.29051e-09
0
0
-0.00102053
0.00208168
3.99511e-08
0
-5.22726e-06
7.16555e-09
5.55886e-06
0
-1.89919e-08
0
-1.14902e-08
1.41892e-10
-0.00796309
1.65174e-06
-0.0128327
-9.72737e-06
0.00277621
-1.35073e-06
0.00773431
3.28741e-06
0.00157192
0
-9.20368e-08
-2.82757e-10
-2.5837e-10
2.56774e-10
4.16476e-09
0
-6.11832e-09
0
-2.36112e-10
-2.96151e-10
0
-1.82531e-10
8.8225e-05
-1.29264e-05
-6.01021e-05
0.0280392
2.1886e-05
-0.00586208
0.0498246
2.9017e-05
-1.2791e-07
-1.0927e-10
0.0105946
0.0232034
0.00215264
0.0691305
0.0954403
0.0103639
-0.000202844
1.0815e-07
-0.000233742
2.5144e-08
0.000440073
-1.66564e-07
-4.87994e-09
0
-2.81078e-09
0
9.09777e-09
0
4.05115e-09
0
-1.14057e-08
0
1.15473e-06
-1.63097e-09
1.18454e-07
-6.96605e-10
-8.12961e-08
7.01803e-09
0
4.59399e-10
-5.8219e-10
-1.70138e-09
-1.91392e-08
0
-8.80078e-09
0
2.15542e-08
0
9.52132e-06
-1.27652e-05
0.00434461
0.00244558
-0.000272468
-7.05615e-09
0
9.42693e-09
0
0
-9.41263e-09
-0.000145359
-3.66432e-09
1.93458e-10
2.5164e-09
-0.00583078
4.99574e-09
0.0204012
-3.58239e-06
-0.00325769
5.52657e-09
0
9.95922e-09
0
0
6.07303e-10
1.47997e-07
0
3.72186e-10
-6.82619e-10
1.23221e-08
0
-2.10866e-08
0
2.76229e-08
-0.000105196
-4.73463e-10
-2.68082e-08
-2.8031e-10
2.42897e-09
5.70954e-10
0
-1.07375e-09
-3.51978e-10
0
1.79561e-09
3.54485e-09
0
1.61346e-09
0
-3.68697e-09
0
-1.48085e-09
-6.2791e-08
0
2.46002e-09
0
0
0.00414184
-4.36512e-06
-0.000291663
6.54572e-07
-0.00124956
9.48041e-07
1.77426e-08
7.96982e-06
3.10094e-10
-7.384e-09
-3.42217e-05
3.46701e-05
-2.22062e-10
9.93577e-07
-0.000547393
7.47572e-07
-0.000378277
-9.14536e-07
0.000902547
-2.01538e-06
0.00105228
0.000522723
0
0
0
1.06166e-09
0
0
0
-9.56584e-05
-0.000161568
9.42631e-05
0.00179804
-0.000116743
-0.00272287
1.74967e-09
9.46275e-10
-9.16871e-06
3.34261e-05
-5.09062e-05
0.0166738
1.62666e-05
0
-1.87873e-09
0
2.17196e-09
8.58982e-09
0
0
0.0472941
0.00910501
2.12842e-05
0.0272131
1.76167e-05
0.00422137
2.04768e-06
0.000603043
-3.78244e-07
0.00427264
7.57731e-07
-0.00299467
-1.836e-06
1.64289e-05
-2.50512e-08
0.000527781
7.86979e-10
1.44988e-05
0.000163491
0.131382
-7.99714e-10
0.00577366
0.0446544
-2.69623e-07
0.124645
-9.19728e-08
0.0760914
1.96057e-07
0.112782
1.00611e-07
0.0186638
4.21082e-08
0.0014147
-2.12021e-07
9.67112e-06
6.73249e-07
6.72455e-06
1.93982e-08
0.00451529
7.41477e-09
-0.000817859
0.000167284
-2.47692e-05
0.11177
-1.33617e-05
8.55955e-05
9.79321e-06
-3.89764e-08
-1.48675e-06
-1.5194e-07
0
-6.87065e-08
8.07982e-05
0.000252971
0.070733
5.79653e-05
0.193395
-8.60661e-05
0.209706
-0.000264242
-6.48191e-07
-7.40384e-08
7.71035e-08
3.65012e-06
-7.65973e-08
5.53706e-06
-4.83697e-06
2.32894e-08
-2.15671e-07
0.000585722
0.000273426
-0.000216478
0
0.000800538
-0.000443184
0.00663803
-4.90963e-07
-1.5178e-07
0.000308389
2.14919e-07
7.02386e-06
-5.11745e-08
0.0035652
9.50009e-05
-1.71762e-06
-1.5068e-07
-0.000453791
1.18994e-08
0.195853
0.000101727
1.55236e-08
0.000191163
0.0749171
0.000745403
0.000553063
4.13442e-05
2.58385e-08
2.90587e-06
2.51653e-06
-2.22573e-07
5.16425e-06
0
3.58369e-05
-3.68521e-06
0.0259645
-0.000107554
-2.87349e-05
0.000107749
1.93953e-10
1.21126e-05
-1.92744e-07
-1.31626e-06
1.25578e-06
-3.34985e-08
0.00445183
0.00482983
-3.83074e-07
8.22301e-06
1.87662e-05
1.22589e-08
-4.9031e-06
0.0254723
1.45747e-05
0.00829904
-1.57566e-06
6.41768e-06
-2.03019e-07
-0.00274263
0.000551588
-1.56432e-06
-1.34962e-05
-2.26291e-09
-4.32596e-07
1.0506e-05
-2.81932e-07
-1.69288e-05
0.108844
0.000627261
-6.0862e-07
-7.52693e-05
0.0187843
-6.78891e-07
-0.000810594
2.17341e-05
2.86781e-08
7.59474e-05
-0.00039446
3.92507e-06
-0.000305391
5.52418e-09
-1.33112e-09
-4.26484e-06
8.84854e-07
-5.51017e-06
-1.54723e-07
2.38783e-06
-5.98188e-06
-5.86656e-07
5.72825e-05
6.44021e-08
0.113553
0.000705394
-6.54144e-05
5.7599e-08
-9.80075e-06
-5.22836e-05
2.59768e-06
-1.67661e-06
3.30564e-06
0
4.7727e-08
-0.000605829
0
-1.93882e-06
0.000218061
-4.70879e-09
8.71041e-05
1.17752
-0.000257974
-8.18484e-06
4.95678e-06
0
0.00174179
4.52588e-05
0.446329
-0.000752828
-0.00049455
-5.22936e-06
1.70583e-08
8.06923e-06
-6.61083e-08
-8.85954e-07
-3.94855e-06
2.71491e-08
1.11552e-06
0.000234737
-3.41343e-09
0.000222712
-4.91731e-10
-5.19626e-10
0.000126176
-2.82087e-09
0.391386
0.174777
0.000495816
0.00410902
0.000414036
-1.27616e-07
-1.57909e-07
-0.000204335
-5.02202e-05
0.0662837
0.000285182
0.178359
0.100586
-8.41104e-10
0.00194823
0.0121009
-0.000268842
0.000488726
0.000458756
1.37787e-06
0.00299065
-0.00207619
0.0465345
0.0161579
5.61653e-07
1.75265e-06
-2.7394e-07
-7.13351e-06
0.0108792
1.05628e-07
0.00102936
0.00071983
-0.00259948
0.00366935
0.0086087
1.85993e-07
-1.19129e-07
-4.71071e-06
1.6496e-07
1.55791e-06
-2.38794e-06
-1.46064e-05
-2.65407e-07
5.43712e-06
-2.4509e-07
2.25096e-05
2.45319e-08
2.40847e-05
3.66377e-08
4.3894e-08
6.3136e-06
-2.6225e-07
1.55642e-06
2.36396e-06
-1.76444e-06
3.33988e-07
0.310651
2.83206e-06
-8.96579e-08
3.36149e-08
-6.965e-07
-5.19855e-06
-2.21265e-06
-3.80312e-06
2.68371e-06
4.31824e-07
-1.49911e-05
8.13865e-07
-9.54971e-07
7.79926e-06
1.2123e-07
0.0151125
2.00967e-06
-4.84039e-07
0.00023178
-4.74519e-08
0.000177287
0.00490671
0.0103704
-0.000579489
0.0119866
2.87385e-10
2.56704e-06
3.75393e-10
-6.84921e-10
-5.11911e-10
1.30577e-09
0
5.68304e-05
-4.16297e-05
-1.63358e-09
1.11693
0.109394
-1.29649e-10
0
0.105563
0.000210477
-0.000257565
-1.85449e-09
0
2.65467e-08
0.000392927
0.0336548
-2.0975e-05
0.000709779
4.14925e-08
9.42975e-08
0.00862307
0.00492744
1.91963e-06
-1.75352e-06
0.169777
3.12628e-09
-1.12987e-05
-6.35357e-07
-1.36637e-05
-3.89897e-06
-2.43304e-10
-4.86421e-08
-5.96012e-06
2.80557e-06
-2.11678e-05
1.98243e-07
0
0.531295
0.000118225
0
-0.000990373
-0.000862001
0.00245242
0.000218129
1.18123
0.000132223
0.000541418
-0.00296957
-1.44689e-07
-2.77597e-05
-2.08548e-06
8.09553e-09
1.15938e-05
2.99659e-08
-0.000280141
1.99789e-08
-4.27251e-05
6.63555e-08
5.17486e-05
3.32019e-08
0.0226779
0.0311823
-2.63244e-07
-6.90096e-07
-4.94544e-07
0.0736964
0
-6.87891e-08
-3.42684e-06
-2.45324e-05
-4.83306e-07
6.43031e-10
0.0002991
2.34916e-07
0.00107128
0
3.39278e-08
1.02199e-05
0
0.0018361
0.0114502
0.00577252
-0.000110483
0.267103
-4.48742e-10
-5.51452e-06
1.2825e-06
0.00343206
-6.46065e-09
-0.00278203
0.0165344
0
0.0192214
-1.10171e-10
0.00447616
0.0236553
0.648606
0.733031
-9.65089e-07
1.93607e-07
2.51747e-05
0.572481
-0.000579582
-3.71405e-08
0.500181
1.4318e-08
2.8466e-08
-2.60446e-07
-0.000265044
-3.59419e-07
0.911547
4.62563e-08
0.000541196
0.434598
0.135649
-9.21131e-05
-3.5657e-08
0.376625
3.91886e-08
-2.08241e-05
1.59389
0.0801268
0
0.650203
0.114072
-2.63608e-06
-2.96889e-08
0.887573
0
0.0525843
0
0.990248
0.00413432
0.0122609
0
2.01215e-05
2.52891e-09
1.06151
-2.50253e-05
-5.96873e-07
5.07519e-09
1.5649e-05
1.5724e-08
1.2481e-05
5.70928e-09
-3.8908e-06
0.41798
1.93556e-07
-3.34869e-09
-4.88165e-07
-0.000104544
1.24589e-07
2.48771e-05
2.76342e-07
1.02853
2.08134e-08
8.15361e-05
4.07706e-08
6.41836e-08
1.50578e-05
4.48592e-08
-1.89334e-08
-8.81471e-09
1.32455e-07
0.152078
0.100582
2.83449e-08
2.46679e-07
-2.95298e-06
4.17161e-10
0.901949
-3.29529e-05
-0.000170067
-1.47883e-09
1.05732
2.99477e-05
0.716595
0.391395
0.0263674
-1.44791e-10
7.61969e-07
0.194779
0.000957119
0.0162639
0
0.2924
-0.00106478
0.790047
-0.00273366
-3.8443e-09
0.982543
7.07418e-09
1.07151e-08
3.92445e-07
-0.00141308
-3.14007e-09
-1.6966e-08
0.0146094
-0.00216537
-0.000552799
3.85676e-08
0.0329532
8.10543e-05
1.5787e-08
0.0166379
1.62756e-08
-3.18399e-10
-4.59826e-10
-0.00020662
-0.000292818
-7.0842e-09
0.00145263
0.000226715
0.000790172
7.93002e-09
0.000234
-0.0027542
-5.85945e-09
4.23835e-09
-6.28589e-06
-0.00138979
2.93204e-10
1.51331
1.07402
-9.16023e-06
9.65278e-09
0.000493984
3.95718e-07
-2.79809e-06
-1.27015e-05
4.0411e-07
-4.78949e-09
1.53e-06
-0.000308168
-1.56952e-06
-2.84777e-07
-1.18775e-09
8.56658e-09
-0.00188816
-7.33386e-07
-1.79294e-08
8.67922e-05
-6.17888e-07
-9.43398e-06
0.512552
0
0.0177223
2.6552e-10
0.6796
0.0120064
-5.02621e-10
4.51166e-06
0.426583
0.00269576
-0.00554237
-3.14194e-09
0.596808
2.60478e-09
-0.00462849
-2.85923e-09
1.14578
-0.000589974
-3.49785e-09
1.25582
5.31453e-09
1.63307e-08
8.17884e-08
-0.000178341
0.0104136
-0.000134702
8.52603e-07
-1.90576e-06
-2.0447e-07
-0.00147165
-0.000420024
-5.45446e-05
0.00255042
6.85174e-09
0
-0.00126224
-1.39935e-08
0.013335
-5.57762e-10
0
-0.000884657
1.22839
1.26852
0.000135943
-1.21002e-10
1.96852
6.61332e-05
-1.06258e-07
-5.16183e-05
-0.000159829
3.99142e-05
1.93542e-07
2.15841e-05
5.95521e-06
-4.69345e-10
1.28795e-05
3.30423e-05
5.86603e-08
0.022042
0.000101702
-3.7004e-08
-1.92629e-05
0.00242168
-6.03695e-06
-9.37347e-09
2.16991e-05
9.50326e-05
1.18736e-09
-2.04638e-06
0.00011075
-3.10552e-08
1.86873
1.86619
1.36645e-09
1.65607
-2.36492e-06
1.63195
5.67156e-10
0.497221
1.02408
0.485121
4.13096e-07
0
0
0.00146932
-0.000572133
-2.55989e-08
0.000741917
-0.000410983
-0.00104774
1.45356e-08
-1.86604e-09
-0.000159796
-3.2335e-09
3.04816e-05
7.49228e-07
-3.93339e-09
1.59126e-05
1.55061
0.000900103
1.43974
0.000953223
0
-4.50845e-06
-7.52725e-09
-1.52554e-05
0.259016
-5.80875e-08
-4.07289e-08
-2.24327e-06
0.000795592
5.51358e-09
4.05143e-06
-3.11668e-06
6.66609e-06
0.429618
0.341866
2.53226e-07
-8.30545e-05
-1.46983e-09
1.78597e-05
-5.67289e-09
1.79569e-07
-4.36308e-05
1.04088e-08
0.000262258
-1.55742e-08
1.73428e-07
-4.52614e-09
0.000243079
3.30568e-08
0.648549
-6.82371e-09
2.28991e-07
-0.000171585
-2.72861e-09
0.902049
-5.05529e-05
7.41144e-10
2.30976e-05
-7.4712e-10
0.562314
1.60587e-05
-4.77891e-10
0.714765
-7.64519e-06
-8.02207e-10
-4.2684e-09
-0.000595859
0.00023259
-7.54327e-09
-7.54581e-09
2.50129e-05
3.20008e-06
0.00353134
-3.71046e-05
-0.00110476
-5.96108e-05
-2.84376e-07
-2.75855e-05
-3.04715e-09
0.915024
0.915055
0.718824
0.654829
5.58181e-07
0.0378822
0.000469222
0.296908
0
-2.02011e-08
0.370702
0.000369581
0.434309
0.874939
0.514292
0.11201
0.198423
-3.21422e-08
1.15688e-07
-1.12198e-08
-0.00697261
-2.50132e-08
-3.28801e-09
0.000101309
-2.67637e-08
6.68112e-06
-0.00061246
0
-0.00122374
1.37188
1.02401
1.05922
0.946575
0.734385
0
1.02482
-4.03623e-06
0.758743
0.734117
0
-0.000382177
-9.63599e-06
-7.19666e-06
3.61442e-07
0.0700028
-1.06488e-05
4.52118e-10
1.84423e-08
0.000156299
0.000134929
7.83095e-05
-0.000157205
0.158302
0.125057
0.590045
0.208262
0
5.90846e-06
1.4774e-08
0.639336
0.0014464
0.132812
0
0.308768
0.0446978
0
-1.07768e-08
-3.76466e-08
0.00352644
-8.60766e-09
0.0103166
-1.30447e-07
-8.21478e-09
-1.86056e-05
0.00563458
0.435259
0.153309
0.333764
8.16311e-05
7.9636e-05
0
0.123779
-0.000379776
0.730767
-0.000202228
0
0.0305432
4.22413e-05
-8.89734e-08
0.0797811
0.00126806
0.301158
0
-1.86097e-06
-7.12305e-06
0.0810772
-5.70748e-09
-1.49322e-07
0.380419
5.59014e-05
1.91876e-05
0.222924
0.325045
0
-0.00904965
5.72891e-05
1.41581
1.36911
1.67935e-08
1.49483e-05
0.00227651
-1.46337e-07
-1.37789e-08
-4.67976e-06
0.0221131
-1.07124e-08
0.237041
0.267234
-9.09053e-10
0.148263
0.0595983
-2.1342e-06
-4.59218e-07
-8.96396e-05
0.00134572
0.0819779
5.91115e-09
0.206444
0.0155519
1.21188e-05
-9.98911e-09
0.000140736
-5.75907e-06
6.27648e-07
-2.34901e-08
-0.000115848
0.476653
0.0472335
0.0311073
0.308595
5.56239e-05
1.81322e-05
0.00875149
2.74247e-05
-1.24792e-07
0.00127103
-0.000106801
0.0803302
-4.57878e-06
0.436908
0.00633582
-6.78666e-09
2.73523e-08
-3.48212e-08
1.96867e-08
6.17881e-08
-7.16204e-09
2.04708e-06
-2.26027e-06
-0.00114441
5.52104e-06
0.00263306
-2.1201e-06
-5.77857e-06
-4.32294e-07
1.18746e-07
1.20999
1.29453e-07
-1.2746e-05
-8.84673e-06
-0.000557439
2.94213e-10
1.78894
2.77826e-06
0.940743
0.825999
2.85297e-05
-1.98036e-05
1.16038
4.47001e-08
3.68252e-08
-4.36557e-08
1.26408e-05
2.14141e-08
6.58769e-05
3.63073e-09
-5.5086e-10
-1.92763e-05
2.69282e-08
1.19534
-1.18188e-06
-0.000175783
-5.97098e-07
0
-5.53445e-08
-0.00195876
2.89105e-08
-7.19175e-08
2.76074e-05
-1.279e-09
0.00136069
-2.85243e-08
0.392509
0.225801
0.951845
-2.18008e-09
5.25167e-09
-4.71092e-07
-0.0021771
-2.76734e-09
-0.000993704
-3.70015e-08
0.642443
5.22721e-08
0.326177
0.0637498
0.984824
-0.00110687
-2.50598e-09
-3.69781e-06
0.583958
-0.00155481
-0.00283628
0.131141
0.169328
0.00918218
-3.56567e-10
0.223103
0.000130755
3.19876e-09
0.0807079
-9.55318e-05
0.160314
0.108957
-0.000197124
-5.18938e-09
-2.53722e-05
0.196807
0.247217
-0.000269014
-1.90984e-08
-7.6737e-08
2.51751e-08
-5.77409e-07
0.165878
0.46228
-0.00198646
1.50201
1.69887e-08
1.09902e-05
6.5491e-07
0.05547
1.05775
0.159359
0.0110443
1.13052e-06
1.30329e-08
-0.0027545
-9.3376e-09
-0.00191928
1.02329e-06
-3.73556e-05
1.43922
0.0429921
1.40164e-08
3.25043e-06
-2.8378e-07
-0.000866243
7.91336e-07
-0.00260528
0.0134393
2.33181e-06
-1.75054e-08
-0.000854868
-1.28851e-06
9.8065e-09
-0.00218763
5.21903e-06
3.36279e-07
0.163182
1.21125e-09
0.178364
-0.000117965
3.5866e-10
1.35585
1.64042
-0.00012258
-0.000296541
-3.3123e-10
1.76218
1.79638
-9.82787e-06
1.96598e-10
1.89738
3.75639e-05
-3.89569e-09
1.55103e-08
0.00469336
-1.94687e-09
1.84825e-09
0.000519511
3.42753e-08
1.67004e-08
-0.00142401
-1.81122e-09
9.14904e-05
-9.20257e-05
0.00593222
0
6.59844e-06
0.00080882
0.0474151
0.726113
-2.29076e-08
1.34805e-07
0.020057
0
2.99582e-09
5.34654e-05
1.86782e-07
-1.48355e-07
-3.3161e-05
1.73802e-06
0
8.94577e-07
-8.66605e-07
-7.26479e-08
0.941811
3.00311e-06
1.81878e-06
0.211708
2.19027e-06
-9.4398e-07
1.23531e-06
6.6844e-10
-6.21749e-07
1.65352e-06
-5.06914e-06
-8.95293e-08
-1.5529e-05
-4.11722e-07
4.76743e-08
-1.46499e-05
0.8348
0.022354
0.000471261
3.3844e-08
0.000482529
-5.30984e-05
-1.83811e-08
4.18726e-07
0.0172759
0.037014
0.00102147
-1.60758e-08
5.61521e-07
0.0519267
-9.2345e-07
0.038615
0.100406
0.120365
0.404981
5.75422e-07
-7.12578e-09
-5.02355e-07
0.0037127
-1.69404e-06
-1.50782e-05
0.0958742
0.570108
0
1.93663
0.0096688
0.0727869
-1.41005e-09
-1.83858e-08
0.0818736
6.01493e-07
0.184688
0.0584293
0.00326111
-5.75366e-09
0.207376
0
5.4842e-07
0.0918351
-1.47583e-05
0
4.62904e-08
-7.2212e-06
-1.34024e-07
-0.000976169
7.67876e-08
2.71582e-07
0.075406
0.121516
-0.000885613
8.98805e-10
0.0269951
2.7714e-06
-0.000817668
-3.13413e-07
-3.39796e-06
-2.06478e-07
2.23257e-06
-0.000444851
0.580242
0.222735
2.68041e-07
5.85961e-07
-2.89889e-08
3.3556e-10
6.80376e-10
-0.000119694
0.000584558
0.0308904
0
-5.89407e-08
1.42988e-05
1.07959e-07
8.45518e-05
1.18087e-07
1.22459e-08
-0.000206419
1.36781e-09
0.739393
1.25017e-06
-4.34316e-06
0.000901796
1.49814e-09
0.130748
3.32529e-05
-0.00322424
0.279531
-1.69525e-06
-2.01198e-08
-9.36576e-06
0.0122801
-9.77861e-07
2.4143e-05
0.420423
0.0386151
0.246922
0.418794
-1.11626e-09
0.010686
0.0133157
3.58334e-07
3.36736e-06
4.45378e-07
-0.00167192
3.46982e-08
8.7818e-07
1.07585e-07
0.00313804
1.52075e-09
0.0927624
0.00590286
0.021565
-2.87073e-09
-1.56616e-06
-1.13336e-07
0.00303745
0.324964
1.09743e-06
2.85338e-06
2.61687e-07
0
1.34249e-07
0.446709
1.58256e-10
-2.39706e-07
-0.000118507
0.223842
0
0.0488172
0.135293
-9.97059e-08
-2.42845e-05
4.6619e-08
0.000115151
6.92096e-06
-4.38973e-09
0.0185647
0.361747
-6.69694e-08
-3.91341e-07
1.37809e-08
-1.94453e-07
2.30005e-07
2.04078e-06
-1.55876e-06
0
0
-2.69762e-08
1.85901e-07
1.23029e-06
0
-0.00188852
1.43783
-6.37572e-08
-0.000196074
-0.0022408
4.68019e-09
1.32391
0.00724284
0.00153247
-1.70434e-08
3.18911e-08
0.0550797
-9.02717e-06
0.0388312
-4.43897e-09
0.0303101
1.15019e-09
-0.00449287
0.733823
0.0719133
-1.08139e-06
-1.72581e-06
0
0.000191264
1.31587
3.56755e-06
0.471477
-6.96691e-07
3.583e-06
-7.13946e-06
0.567116
1.21463
0.863916
-0.00355756
7.87497e-05
-3.40683e-07
8.06406e-06
1.20432e-08
1.04483e-05
4.13532e-10
0.529445
4.08473e-06
0
-2.84891e-08
4.40825e-07
-3.15671e-06
-9.10747e-07
0.105397
4.92743e-08
3.619e-05
0
-4.62127e-09
0
1.50665
0.906953
3.77316e-07
1.59482e-07
0.321756
-1.76098e-05
-1.71471e-08
-5.03073e-09
-0.0011879
1.03101e-05
-5.09416e-08
0.207068
-4.47777e-05
5.97287e-08
4.74625e-05
0.044625
-5.64809e-07
-6.40734e-08
0.064511
0.0580536
0.0041184
1.08528e-08
-4.10988e-07
-7.94286e-05
-4.14323e-10
-1.67498e-05
0.629118
0.871596
6.73594e-09
0.0246088
0.892897
0.229474
0.0473363
1.78303e-09
0.419893
5.54538e-06
-3.50999e-06
1.69935e-07
0.304528
3.96915e-08
7.91322e-07
1.87126e-07
-4.50024e-07
0.124855
0.0537531
0.556458
0.0168953
0.165052
-2.98781e-08
1.99149e-07
0
-6.36179e-06
0
1.19152e-06
-0.00452181
3.34935e-07
5.85784e-07
-3.32995e-07
1.95325e-08
-3.2836e-05
3.68808e-09
0.13232
0.00580032
-1.95932e-05
0.0332348
6.13936e-08
-9.93858e-06
0.113273
-0.000138777
-6.45885e-06
-4.96065e-08
0.0251824
-2.08199e-09
0.000124167
-4.78072e-05
8.99504e-07
-8.75917e-06
1.01638e-09
-8.48841e-08
-0.000157962
0.011496
4.39471e-09
-4.37325e-09
-2.00336e-05
2.99921e-08
4.51847e-10
-1.28012e-07
1.20381e-07
2.34326e-07
-2.52323e-05
1.56933
0.000155608
0.00203163
0
0.00898384
-9.82677e-06
1.01097e-10
5.19541e-08
-7.53469e-08
-3.3968e-06
2.58994e-08
1.14204
0.0140062
-1.80518e-05
-0.00593154
1.37508
0.00559084
1.39588
4.64209e-05
0.872895
8.42258e-09
-0.00252778
1.34081
-9.73329e-07
4.20717e-07
2.51918e-06
0.0481268
2.01545e-05
-1.0457e-07
1.27175
6.72207e-09
0.00774316
1.33858
0
1.00171e-05
-1.18531e-07
-3.33127e-08
9.37907e-07
3.27318e-08
1.02099
-0.00253929
0.479932
9.12892e-07
-4.95864e-07
0
0.111367
0.0186954
1.7321e-09
1.20967e-06
0
2.20819e-07
0.855359
1.20023e-07
2.88238e-05
5.29811e-07
-3.34502e-09
8.59567e-06
1.3682
1.98594
0.000118511
-0.00255825
0
1.2156
-1.67693e-05
-0.00021555
1.66954e-07
-7.70252e-07
6.2471e-06
0.0611879
0.12612
0
1.35419e-07
0.108925
0.0205844
0.00815677
-1.02304e-08
-6.25866e-09
8.77861e-08
-0.00038443
7.92657e-08
-6.95608e-09
0.0185856
0.00050804
0.0679749
5.03299e-09
-9.90278e-07
-1.30062e-07
1.75131
0.00010215
-1.06143e-06
0.0161768
0.442709
0.354685
-3.84687e-07
-1.56658e-05
1.29703
7.51167e-09
-0.0027495
0.00292489
0.613008
0
-6.99464e-09
0.211782
2.02967e-05
-2.81369e-07
-1.10714e-05
0.60468
-6.37016e-07
2.54527e-05
-3.16812e-06
1.25957
0.146731
0.982473
0.740148
-3.52256e-07
1.21026e-07
-1.65459e-07
1.96524e-05
-3.49114e-08
0.924843
0.0570472
0.167735
0.508554
0
0.464319
0.0448854
-6.02477e-09
0.000109007
-1.73832e-06
0
1.13745e-10
0.00781523
0.000107191
-0.000598626
0.00471655
-1.81711e-05
4.30129e-09
1.20738
0.682389
1.09757e-09
-0.000149923
4.0202e-05
-1.34753e-07
-1.04714e-05
7.17443e-09
0.000314252
0.687542
0.0242397
-0.00117922
-2.85554e-08
0.684931
-4.53552e-08
4.77098e-06
9.38583e-07
-4.87533e-06
-2.84768e-07
-1.65063e-06
7.53407e-08
-1.4506e-05
-1.17598e-08
0.0886669
0.973013
0.113186
-9.29006e-08
-4.5932e-07
-3.02621e-08
1.56176e-05
1.26013
0.201718
0
0.0423605
1.48068
-4.23215e-05