# vtk DataFile Version 2.0
Unstructured Grid by M++
ASCII
DATASET UNSTRUCTURED_GRID
POINTS 4072 float
  0.656250   0.890625 0
  0.703125   0.640625 0
  0.640625   0.890625 0
  0.703125   0.625000 0
  0.640625   0.875000 0
  0.703125   0.671875 0
  0.640625   0.921875 0
  0.718750   0.656250 0
  0.656250   0.906250 0
  0.703125   0.656250 0
  0.640625   0.906250 0
  0.546875   0.718750 0
  0.531250   0.734375 0
  0.578125   0.765625 0
  0.562500   0.765625 0
  0.812500   0.796875 0
  0.718750   0.625000 0
  0.656250   0.875000 0
  0.734375   0.609375 0
  0.671875   0.859375 0
  0.718750   0.609375 0
  0.656250   0.859375 0
  0.734375   0.593750 0
  0.671875   0.843750 0
  0.578125   0.984375 0
  0.640625   0.734375 0
  0.515625   0.734375 0
  0.531250   0.718750 0
  1.000000   0.984375 0
  0.515625   0.718750 0
  0.859375   0.921875 0
  0.921875   0.671875 0
  0.843750   0.921875 0
  0.906250   0.671875 0
  0.843750   0.937500 0
  0.906250   0.687500 0
  0.546875   0.656250 0
  0.546875   0.578125 0
  0.671875   0.625000 0
  0.609375   0.875000 0
  0.546875   0.593750 0
  0.593750   0.984375 0
  0.656250   0.734375 0
  0.578125   0.609375 0
  0.515625   0.859375 0
  0.578125   0.593750 0
  0.515625   0.843750 0
  0.937500   0.640625 0
  0.875000   0.890625 0
  0.953125   0.625000 0
  0.890625   0.875000 0
  0.781250   0.578125 0
  0.718750   0.828125 0
  0.734375   0.812500 0
  0.578125   0.578125 0
  0.515625   0.828125 0
  0.562500   0.578125 0
  0.578125   0.562500 0
  0.515625   0.812500 0
  1.000000   1.000000 0
  0.859375   0.734375 0
  0.796875   0.984375 0
  0.984375   0.734375 0
  0.921875   0.984375 0
  0.968750   0.734375 0
  0.906250   0.984375 0
  0.984375   0.718750 0
  0.921875   0.968750 0
  0.859375   0.718750 0
  0.796875   0.968750 0
  0.921875   0.796875 0
  0.984375   0.546875 0
  0.562500   0.812500 0
  0.906250   0.796875 0
  0.921875   0.781250 0
  0.671875   0.687500 0
  0.609375   0.937500 0
  0.671875   0.671875 0
  0.609375   0.921875 0
  0.687500   0.671875 0
  0.625000   0.921875 0
  0.671875   0.734375 0
  0.609375   0.984375 0
  0.687500   0.734375 0
  0.625000   0.984375 0
  0.765625   0.578125 0
  0.703125   0.828125 0
  0.781250   0.562500 0
  0.718750   0.812500 0
  0.750000   0.578125 0
  0.687500   0.828125 0
  0.765625   0.562500 0
  0.703125   0.812500 0
  0.625000   0.968750 0
  0.687500   0.718750 0
  0.625000   0.953125 0
  0.687500   0.703125 0
  0.625000   0.937500 0
  0.687500   0.687500 0
  0.609375   0.968750 0
  0.671875   0.718750 0
  0.609375   0.953125 0
  0.671875   0.703125 0
  0.609375   0.890625 0
  0.671875   0.640625 0
  0.625000   0.890625 0
  0.687500   0.640625 0
  0.609375   0.906250 0
  0.671875   0.656250 0
  0.625000   0.906250 0
  0.687500   0.656250 0
  0.593750   0.765625 0
  0.937500   0.953125 0
  0.546875   0.750000 0
  0.546875   0.734375 0
  0.531250   0.750000 0
  0.937500   0.671875 0
  0.515625   0.937500 0
  0.953125   0.671875 0
  0.890625   0.921875 0
  0.875000   0.921875 0
  0.531250   0.671875 0
  0.515625   0.687500 0
  0.921875   0.703125 0
  0.859375   0.953125 0
  0.828125   0.656250 0
  0.953125   0.656250 0
  0.531250   0.921875 0
  0.890625   0.906250 0
  0.953125   0.640625 0
  0.890625   0.890625 0
  0.937500   0.656250 0
  0.875000   0.906250 0
  0.671875   0.593750 0
  0.609375   0.843750 0
  0.656250   0.593750 0
  0.593750   0.843750 0
  0.671875   0.609375 0
  0.609375   0.859375 0
  0.656250   0.609375 0
  0.593750   0.859375 0
  0.578125   0.750000 0
  0.515625   1.000000 0
  0.921875   0.578125 0
  0.859375   0.828125 0
  0.937500   0.796875 0
  0.953125   0.781250 0
  0.953125   0.734375 0
  0.890625   0.984375 0
  0.937500   0.734375 0
  0.875000   0.984375 0
  0.953125   0.796875 0
  0.968750   0.796875 0
  0.984375   0.796875 0
  1.000000   0.796875 0
  0.562500   0.796875 0
  0.578125   0.781250 0
  0.562500   0.781250 0
  0.578125   0.640625 0
  0.515625   0.890625 0
  0.562500   0.640625 0
  0.578125   0.625000 0
  0.515625   0.875000 0
  0.875000   0.703125 0
  0.812500   0.953125 0
  0.562500   0.609375 0
  0.562500   0.593750 0
  0.546875   0.609375 0
  0.562500   0.562500 0
  0.562500   0.546875 0
  0.546875   0.562500 0
  0.750000   0.609375 0
  0.687500   0.859375 0
  0.765625   0.593750 0
  0.703125   0.843750 0
  0.750000   0.593750 0
  0.687500   0.843750 0
  0.968750   0.656250 0
  0.906250   0.906250 0
  0.984375   0.640625 0
  0.921875   0.890625 0
  0.968750   0.640625 0
  0.906250   0.890625 0
  0.984375   0.625000 0
  0.921875   0.875000 0
  0.968750   0.625000 0
  0.906250   0.875000 0
  0.531250   0.984375 0
  0.796875   0.953125 0
  0.859375   0.703125 0
  0.781250   0.953125 0
  0.843750   0.703125 0
  1.000000   0.531250 0
  0.937500   0.781250 0
  0.953125   0.765625 0
  0.937500   0.765625 0
  0.953125   0.750000 0
  0.937500   0.703125 0
  0.875000   0.953125 0
  0.953125   0.687500 0
  0.890625   0.937500 0
  0.937500   0.687500 0
  0.875000   0.937500 0
  0.828125   0.640625 0
  0.828125   0.625000 0
  0.546875   0.687500 0
  0.546875   0.671875 0
  0.531250   0.687500 0
  0.953125   0.718750 0
  0.890625   0.968750 0
  0.953125   0.703125 0
  0.890625   0.953125 0
  0.984375   1.000000 0
  0.953125   0.515625 0
  0.531250   0.781250 0
  0.890625   0.765625 0
  0.890625   0.796875 0
  0.890625   0.781250 0
  0.562500   0.671875 0
  0.921875   0.656250 0
  0.578125   0.656250 0
  0.515625   0.906250 0
  0.562500   0.656250 0
  0.890625   0.750000 0
  0.828125   1.000000 0
  0.875000   0.734375 0
  0.812500   0.984375 0
  0.953125   1.000000 0
  0.750000   0.984375 0
  0.812500   0.734375 0
  0.984375   0.781250 0
  1.000000   0.781250 0
  1.000000   0.765625 0
  0.937500   0.718750 0
  0.875000   0.968750 0
  0.921875   0.718750 0
  0.859375   0.968750 0
  0.968750   0.531250 0
  0.546875   0.796875 0
  0.906250   0.781250 0
  0.984375   0.515625 0
  0.921875   0.765625 0
  0.906250   0.765625 0
  0.968750   0.781250 0
  0.984375   0.765625 0
  0.968750   0.765625 0
  0.984375   0.750000 0
  0.906250   1.000000 0
  0.968750   0.750000 0
  0.968750   0.718750 0
  0.906250   0.968750 0
  0.984375   0.703125 0
  0.921875   0.953125 0
  0.968750   0.703125 0
  0.906250   0.953125 0
  0.984375   0.687500 0
  0.562500   0.953125 0
  0.921875   0.937500 0
  0.968750   0.687500 0
  0.906250   0.937500 0
  1.000000   0.859375 0
  0.734375   0.531250 0
  0.671875   0.781250 0
  0.734375   0.546875 0
  0.671875   0.796875 0
  0.718750   0.546875 0
  0.656250   0.796875 0
  0.687500   0.921875 0
  0.750000   0.671875 0
  0.828125   0.812500 0
  0.828125   0.796875 0
  0.578125   0.812500 0
  0.578125   0.796875 0
  0.937500   0.859375 0
  0.703125   0.796875 0
  0.765625   0.546875 0
  0.718750   0.781250 0
  0.781250   0.531250 0
  0.687500   0.796875 0
  0.750000   0.546875 0
  0.703125   0.781250 0
  0.765625   0.531250 0
  0.609375   0.765625 0
  0.984375   0.828125 0
  1.000000   0.812500 0
  0.984375   0.812500 0
  1.000000   0.750000 0
  0.937500   1.000000 0
  0.953125   0.984375 0
  0.937500   0.984375 0
  0.609375   0.781250 0
  0.593750   0.781250 0
  0.593750   0.796875 0
  0.531250   0.609375 0
  0.515625   0.609375 0
  0.515625   0.562500 0
  0.875000   0.796875 0
  0.859375   0.812500 0
  0.609375   0.812500 0
  0.609375   0.796875 0
  0.593750   0.812500 0
  0.578125   0.671875 0
  0.515625   0.921875 0
  0.859375   1.000000 0
  0.921875   0.750000 0
  0.875000   1.000000 0
  0.937500   0.750000 0
  0.921875   0.734375 0
  0.859375   0.984375 0
  0.937500   0.921875 0
  0.593750   0.671875 0
  0.625000   0.609375 0
  0.562500   0.859375 0
  0.609375   0.609375 0
  0.546875   0.859375 0
  0.609375   0.671875 0
  0.546875   0.921875 0
  0.640625   0.671875 0
  0.578125   0.921875 0
  0.625000   0.671875 0
  0.562500   0.921875 0
  0.640625   0.625000 0
  0.578125   0.875000 0
  0.500000   0.906250 0
  0.078125   0.125000 0
  0.500000   0.796875 0
  0.078125   0.015625 0
  0.484375   0.843750 0
  0.468750   0.828125 0
  0.750000   0.234375 0
  0.062500   0.828125 0
  0.484375   0.562500 0
  0.296875   0.546875 0
  0.234375   0.796875 0
  0.281250   0.531250 0
  0.218750   0.781250 0
  0.296875   0.562500 0
  0.234375   0.812500 0
  0.281250   0.546875 0
  0.218750   0.796875 0
  0.265625   0.625000 0
  0.953125   0.046875 0
  0.281250   0.640625 0
  0.031250   0.546875 0
  0.500000   0.984375 0
  0.078125   0.203125 0
  0.484375   0.984375 0
  0.062500   0.203125 0
  0.718750   0.125000 0
  0.031250   0.687500 0
  0.703125   0.109375 0
  0.328125   0.625000 0
  0.343750   0.812500 0
  0.406250   0.562500 0
  0.687500   0.031250 0
  0.500000   0.859375 0
  0.468750   0.906250 0
  0.046875   0.125000 0
  0.468750   0.937500 0
  0.046875   0.156250 0
  0.062500   1.000000 0
  0.015625   0.546875 0
  0.812500   0.109375 0
  0.375000   0.812500 0
  0.437500   0.562500 0
  0.359375   0.796875 0
  0.421875   0.546875 0
  0.343750   0.781250 0
  0.406250   0.531250 0
  0.328125   0.687500 0
  0.500000   0.968750 0
  0.078125   0.187500 0
  0.031250   0.609375 0
  0.718750   0.031250 0
  0.031250   0.593750 0
  0.718750   0.015625 0
  0.703125   0.015625 0
  0.031250   0.515625 0
  0.046875   0.531250 0
  0.359375   0.687500 0
  0.375000   0.703125 0
  0.484375   0.750000 0
  0.046875   0.984375 0
  0.328125   0.656250 0
  0.343750   0.593750 0
  0.328125   0.578125 0
  0.265625   0.828125 0
  0.000000   0.515625 0
  0.500000   0.765625 0
  0.015625   0.531250 0
  0.468750   0.984375 0
  0.046875   0.203125 0
  0.375000   0.625000 0
  0.343750   0.703125 0
  0.468750   0.968750 0
  0.046875   0.187500 0
  0.359375   0.625000 0
  0.296875   0.875000 0
  0.734375   0.390625 0
  0.359375   0.718750 0
  0.015625   0.593750 0
  0.812500   0.156250 0
  0.750000   0.406250 0
  0.375000   0.734375 0
  0.453125   0.750000 0
  0.468750   0.875000 0
  0.046875   0.093750 0
  0.296875   0.812500 0
  0.484375   0.968750 0
  0.062500   0.187500 0
  0.296875   0.781250 0
  0.031250   0.968750 0
[...]
POINT_DATA 4072
SCALARS scalar_value float 1
LOOKUP_TABLE default
-1.88673e-08
2.43731e-05
-8.78862e-08
-3.29154e-05
1.47414e-07
9.01075e-06
-1.65137e-08
-8.83361e-06
1.40531e-09
-1.61963e-05
4.48797e-08
-8.51874e-06
6.97156e-05
-6.68901e-06
1.34042e-05
-9.91003e-10
-3.30034e-05
5.48683e-08
3.66768e-05
-8.11771e-08
4.59596e-05
-1.07824e-07
-7.23642e-05
1.67635e-07
-1.87999e-08
3.34422e-06
-8.2625e-05
-4.4711e-05
0
0.000127626
0
4.30445e-08
0
5.01128e-08
0
-2.73617e-08
0.000195602
0.000204165
-7.37429e-05
2.06567e-08
-0.00013368
-8.87011e-09
6.10609e-06
0.00189461
-5.00195e-07
0.00288308
2.76803e-06
1.08922e-07
0
-1.97708e-07
0
1.18836e-05
2.84852e-08
-3.03552e-08
0.00386274
-5.66339e-07
0.00136415
0.0047363
2.79283e-06
0
2.54613e-10
0
1.05389e-09
0
1.34318e-10
0
-1.65591e-09
0
-1.9236e-08
0
-5.14167e-10
-2.59664e-06
-5.07066e-06
-5.28389e-10
1.19285e-09
-7.94963e-06
3.43571e-08
1.34425e-05
-4.7981e-08
1.39022e-05
-2.99908e-08
1.08509e-06
-1.67066e-09
1.0998e-06
2.3407e-09
1.89851e-05
-1.89244e-08
-4.49304e-05
-2.28824e-08
3.98759e-05
-1.30467e-07
-1.43591e-05
1.07295e-07
4.76244e-10
-3.10413e-06
-3.53105e-09
6.00781e-06
1.59041e-08
-9.57227e-06
8.28634e-09
-2.43075e-06
-1.7006e-08
4.47323e-06
-5.20321e-08
3.89594e-05
-5.35481e-08
2.92161e-05
6.2924e-08
-2.4125e-05
5.0744e-08
-1.94867e-05
1.02724e-06
0
-6.75552e-06
1.49614e-05
-6.85053e-05
9.4189e-08
-1.03036e-07
7.43495e-08
0
0
3.167e-05
0.000176529
4.08642e-08
0
-6.14862e-07
-1.34978e-07
2.85483e-07
0
1.80538e-07
0
-1.09253e-07
0
-0.000254184
-2.20025e-07
-0.000302575
-1.38091e-06
0.000137694
7.1908e-08
0.000197977
7.71109e-07
2.37373e-05
0
3.09334e-06
8.1597e-10
1.66922e-10
-4.73163e-10
-3.41297e-09
0
-3.32988e-10
0
2.16544e-10
-1.02043e-10
0
0
8.62487e-06
6.35446e-06
-1.2065e-05
0.000872243
3.01085e-07
-0.000218762
0.00150453
8.5307e-07
1.17302e-08
0
0.00021874
0.000787415
7.21535e-05
0.00228349
0.00313486
0.000169723
5.73906e-06
3.48016e-09
-1.37399e-05
-7.94552e-09
-1.41893e-05
3.88229e-08
-7.89862e-08
0
4.75098e-08
0
1.85136e-07
0
-2.12749e-07
0
-2.82025e-07
0
8.32218e-08
0
6.33324e-08
0
4.76976e-08
-6.89608e-07
3.36923e-10
2.40271e-10
-1.58232e-09
1.05578e-09
3.10624e-08
0
-2.66605e-08
0
-6.30327e-08
0
1.61688e-06
-2.07082e-06
0.000146535
3.75116e-05
-6.77593e-05
4.4757e-09
0
2.28426e-09
0
0
9.56421e-06
-3.55138e-05
7.29135e-09
1.04312e-09
-3.76101e-09
-0.000191742
-3.98564e-08
0.000628467
-2.17346e-08
-0.000160088
-1.05335e-08
0
2.24207e-09
0
0
0
-2.21247e-08
1.27855e-10
0
0
-9.45466e-09
0
-2.60349e-08
0
-7.99634e-06
-1.03841e-05
-1.14564e-09
2.15434e-06
-6.05616e-10
3.87106e-09
0
-1.30668e-10
4.6784e-10
-2.24368e-10
0
-8.07973e-10
2.80242e-09
0
-2.8386e-10
0
-7.45096e-09
0
7.81475e-09
2.59367e-08
0
7.08746e-09
0
0
0.000107646
4.17854e-07
4.25601e-05
-4.68642e-07
0.000191188
3.94855e-08
2.81551e-09
-5.00213e-06
3.11306e-09
-3.81297e-09
2.13768e-06
-4.26649e-06
0
-2.95629e-07
8.89969e-06
1.79524e-07
-0.000127056
-4.84969e-07
0.000230598
6.2052e-07
-3.65407e-05
8.73752e-06
0
0
0
2.87142e-10
0
0
0
-2.88275e-06
-4.4404e-06
4.12009e-06
-4.51923e-05
0.000233095
-0.000340866
1.87049e-09
-1.21461e-09
-9.07884e-07
1.61706e-06
-3.23922e-06
0.000491859
3.65276e-07
0
-3.04045e-09
0
2.43158e-09
1.18784e-08
0
0
0.00137826
0.000134088
1.00621e-06
0.000671659
-5.00285e-09
4.11301e-05
2.22936e-07
1.53085e-05
4.16007e-08
0.00011185
1.65486e-07
-9.55241e-05
-3.45266e-07
3.1491e-07
-9.38936e-06
4.09917e-05
-4.99618e-07
3.2658e-06
6.68652e-06
0.0969164
0
0.00158619
0.00108808
-1.66005e-07
0.00431419
2.15396e-07
0.00236677
1.29218e-07
0.00363979
-1.55891e-07
0.000407301
-2.45874e-06
2.94057e-05
-4.30022e-06
2.81394e-07
7.31108e-06
9.01652e-08
2.39803e-07
1.34353
2.04013e-09
1.52466
-4.95656e-06
-5.83345e-07
0.00181633
0.820798
4.13551e-06
2.08005e-07
-1.63e-06
2.30678e-09
-1.94874e-07
0
-1.00747e-06
0.0195493
3.48377e-06
0.00111005
1.08045e-06
0.00693584
-1.74689e-06
0.00255478
-5.45375e-06
-4.30404e-08
1.29572e-05
1.42729e-07
0.951523
-1.20898e-07
0.74391
0.706104
-1.44073e-05
1.40248e-05
9.07657e-06
4.25469e-06
-5.94999e-05
0
2.04505e-05
2.07587e-05
0.000115622
-8.35616e-08
-3.26389e-06
6.00384e-05
4.07868e-06
1.62211e-07
-1.54421e-06
5.96755e-05
1.33363e-06
-3.55131e-08
-6.29145e-07
4.04517e-06
2.92251e-08
0.000175773
1.14831e-06
-1.32572e-07
0.00467126
-0.000113436
1.47056e-05
4.81967e-06
3.40859e-07
-8.70443e-07
7.30042e-08
7.59361e-08
4.26601e-06
1.14204e-07
0
1.27701e-06
-8.15695e-08
-0.00092071
1.07073
0.922916
-1.16546e-05
3.24163e-07
2.94221e-07
-8.7077e-07
-4.6689e-08
7.03136e-07
-9.63316e-08
0.000319434
1.9241e-05
1.01972e-07
1.78642e-07
4.23793e-07
4.46754e-08
-1.04433e-07
0.00226605
1.94862e-06
-0.000231826
-5.38634e-10
-9.77898e-07
1.72733e-07
-0.000154124
-0.00133198
-2.7784e-08
-4.8847e-07
1.22032e-08
1.43529e-05
1.84056e-07
2.72921e-06
-3.54409e-07
0.00100801
-2.70938e-05
2.89846e-08
-1.55008e-06
0.000727831
-2.79887e-08
-1.85076e-05
3.1571e-07
1.84481e-07
2.47951e-06
-8.72319e-06
4.84885e-08
-8.04989e-06
-9.05451e-06
1.19245e-10
1.9506e-08
2.77104e-08
1.38903e-07
4.51058e-07
5.8199e-06
-2.19303e-06
-1.60771e-08
1.00883e-06
-5.22319e-07
0.00652181
1.57782e-05
-1.45196e-06
0.577263
1.10881
-4.71875e-06
2.19509e-05
-3.32517e-08
6.558e-08
0
-6.18679e-08
-0.000208756
0
-4.26802e-08
0.00217331
-2.51116e-08
1.08117
0.109121
0.714363
-6.66435e-07
5.03574e-07
0
0.000299834
7.05157e-07
0.000861645
0.118671
0.15443
-9.76925e-08
3.02109e-08
1.70785e-07
-3.67636e-07
0.531613
0.0245978
1.01974e-08
0.404555
1.68063e-05
-1.21603e-06
9.61411e-06
1.63102e-07
0
5.15459e-06
3.92683e-07
0.000298618
0.000334995
8.14895e-06
0.000834652
6.32475e-06
-9.7591e-08
0.805347
0.735306
0.658377
0.00170694
4.10951e-06
0.00494493
0.00487293
0
5.5509e-05
0.000283344
-1.76212e-05
2.33346e-05
1.09424e-05
2.84259e-08
-0.000232608
-0.000362162
0.000168169
0.00151003
-1.12364e-06
1.26043e-06
-8.33973e-06
-0.00262633
0.000125876
-3.72864e-08
2.26124e-05
1.4837e-05
1.38157
1.63677
0.000177597
6.94438e-07
2.24044e-06
0.462449
-9.17e-07
-2.15915e-05
-0.00168334
5.98424e-07
4.61254e-08
1.17354e-06
5.83648e-07
-2.62045e-08
-4.7472e-07
7.27407e-07
-3.2319e-07
9.97953e-07
5.38259e-08
-2.04952e-06
0.502723
-0.000327824
1.80698e-05
4.48927e-06
0.940094
-1.20986e-05
8.02753e-06
-4.52186e-06
1.96459e-07
-1.43655e-07
-1.32396e-09
-5.10235e-07
-9.40181e-06
-2.024e-08
-3.74228e-07
1.43789e-05
-8.35962e-08
1.89878e-06
4.8979e-07
0.000372289
2.61287e-08
1.01674e-07
-0.000210839
3.0594e-08
0.000247508
9.96318e-05
0.000221358
-1.32508e-05
0.000918697
0
0.000116294
-2.09286e-10
0
4.63264e-10
0
0
1.25508e-06
-8.75011e-07
0
0.0789751
1.26238
0
0
0.329221
4.87982e-06
-5.86862e-06
-4.81178e-10
0
-2.83466e-09
0.564889
0.557992
5.42241e-05
-3.48413e-05
4.80399e-09
2.89303e-09
0.783072
0.392593
-7.31674e-05
-1.44966e-06
0.226171
2.93852e-07
-1.34565e-06
-2.36705e-06
0.353479
0.208324
0
-1.07087e-07
3.44778e-06
-1.01298e-05
-5.65987e-05
-2.12762e-06
0
0.0113838
2.3985e-05
0
0.151619
-1.96627e-05
4.51761e-05
3.96003e-06
0.0941919
1.69705e-06
8.49203e-06
0.0584806
5.95585e-06
2.03385e-06
-1.29171e-06
-1.91203e-06
5.64113e-06
-3.85265e-08
0.0177446
-7.9165e-07
2.88963e-05
-1.02337e-06
1.22792e-05
-7.99693e-10
0.000573808
0.0012072
-1.9512e-07
3.65467e-06
-9.5737e-06
0.00196719
0
6.68602e-07
-6.82116e-08
-1.04231e-06
-8.63104e-07
0
6.73059e-06
6.55916e-08
-3.60645e-06
0
1.17033e-07
1.36934e-07
0
1.74393
0.000275503
0.00014341
-1.07497e-05
0.693511
0
-0.000546012
-1.41854e-05
7.95093e-05
-2.30787e-09
0.00465899
0.000391763
0
0.000295018
0
-0.000267414
3.97088e-05
0.0376393
0.0456404
-1.19066e-05
-2.77188e-05
-2.10137e-06
0.0947672
1.64365
3.95833e-10
0.123089
-9.10654e-10
4.51048e-08
5.3992e-06
1.43077
-3.08272e-06
0.200739
8.72115e-06
9.87369e-06
0.149454
0.00481325
1.21467
9.54126e-10
0.188844
-2.83741e-08
0.957683
0.235307
1.99984
0
0.0580729
1.84602
-3.50877e-08
-7.87951e-08
0.0307946
0
2.13965
0
0.0416145
0.000322298
2.39431
0
5.71346e-07
-2.78218e-09
0.0603707
-6.21197e-05
1.15396e-06
6.93077e-08
3.15413e-07
-1.7272e-08
2.75458e-07
-2.20176e-08
-7.4354e-08
0.00229889
9.83183e-08
1.73016e-09
6.50781e-06
-1.14508e-06
-8.99991e-06
5.65848e-06
1.56029e-06
0.333995
1.42345e-05
-6.82346e-06
-3.35889e-06
1.38197e-05
3.69403e-06
-4.29951e-07
2.70159e-06
1.40682e-09
7.11299e-07
0.00257207
0.00149175
-2.16103e-07
7.2108e-09
1.16261
3.46112e-10
0.932644
1.52635
-2.22561e-05
-6.55505e-07
0.807089
0.367836
1.09664
0.00428158
2.14586
0
2.34169e-08
0.00277385
0.000172156
2.00701
0
0.00289287
2.1317
0.0122035
2.10488
-4.08312e-10
0.0171677
1.04916e-09
7.5753e-09
1.09054e-05
2.01908
3.25002e-10
3.43835e-08
0.000606788
-6.19902e-05
0.588319
1.25618e-08
0.00133175
0.963059
-4.63181e-09
0.000647175
-2.03596e-05
0
0
0.000588139
0.588432
2.48171e-09
0.000173517
6.33576e-06
0.409617
-4.40858e-10
0.000245803
0.251182
-5.64503e-10
1.28447e-07
-6.38871e-07
2.08494
0
0.290174
0.777546
-1.97145e-07
1.06543e-08
2.2805
3.75231e-05
-0.00015829
-6.90081e-07
1.95183e-05
-7.37779e-10
-3.94936e-05
-4.75272e-06
-0.000159035
3.0042e-05
-1.30064e-10
-7.82346e-10
-9.99871e-05
2.5736e-05
-1.15999e-08
1.92794e-06
-6.58195e-05
-1.92024e-07
0.00832073
0
2.13792
0
0.0129484
2.21186
-1.40317e-10
1.22274e-07
0.00468277
0.000341637
2.15179
0
0.00587402
6.4931e-10
2.12906
0
0.0304746
1.90487
-1.97835e-10
0.044229
-9.74219e-09
6.37638e-08
-1.50754e-06
1.72544
0.00402344
0.550435
-2.29806e-08
1.0558e-06
-2.3448e-07
0.020902
-5.80776e-05
0.504973
0.000233099
2.06063e-05
0
0.302518
2.31797e-09
-0.000361381
-1.56602e-06
0
0.575561
0.0120292
0.0316105
2.02974
0
0.0649964
0.00164464
2.60093e-08
0.00014964
-3.24923e-06
0.00106205
-1.07746e-08
-0.000175519
-1.80323e-06
-1.65535e-07
-1.48963e-06
1.48152
1.17581e-08
0.00140988
1.28084
-1.7233e-08
0.427936
0.000332619
0.35577
2.88758e-07
-7.50294e-05
0.000918661
0
-4.30495e-08
0.00180972
1.33132e-08
0.10574
0.102361
-9.31023e-09
0.173796
1.50124e-05
0.175749
-1.36282e-08
0.873572
0.0696387
0.865609
2.26322e-06
0
0
-0.000390007
0.139969
-4.99518e-09
-0.000164486
-9.3511e-06
0.133318
2.34418e-09
-2.54646e-10
0.000204144
1.80322e-08
1.32007e-06
4.43315e-06
-1.42586e-08
-7.3853e-09
0.118182
2.14877
0.0554178
2.00807
4.50753e-10
-3.59195e-05
-0.000253304
3.53647e-05
0.0311391
-0.000343754
-1.37786e-07
2.87985e-05
-0.00010436
-0.000145001
-5.20269e-05
-0.000177807
3.88639e-07
1.106
1.34344
6.08672e-06
-8.04228e-06
1.2361e-05
1.89699e-05
-3.09318e-09
6.82403e-08
1.75489e-05
2.07442e-05
1.48204e-05
-1.13365e-08
-4.73093e-08
6.94633e-07
2.32347e-06
5.14427e-07
0.609218
1.09244e-05
-5.06783e-07
-5.34663e-06
1.50017e-07
0.91493
1.21052
0
6.0054e-06
3.98249e-07
1.23639
0.296732
-7.61693e-10
1.07643
0.939926
-9.11292e-10
3.98033e-08
0.000169668
0.0379455
1.2953e-09
1.04724e-09
0.000128461
1.14396
-0.000666348
0.7605
0.0221326
0.869617
-9.55895e-09
1.02864
1.21025e-09
0.796791
0.653018
0.9414
0.865698
-2.38695e-05
-0.00449933
4.66531e-05
1.52517
0
1.6829e-07
0.0220418
-5.94834e-05
1.34509
0.0589677
1.14531
0.00502552
1.654
2.13105e-07
1.85095e-07
2.09477e-06
-0.000451472
3.49467e-07
2.42788e-07
-4.38013e-07
-3.5635e-08
1.26887e-07
0.0108209
0
0.0095206
0.270794
0.433056
0.418385
0.0637884
0.619396
0
0.487919
2.80964e-05
0.615126
0.694737
0
2.19192
1.30543
1.06572
4.01345e-08
0.00390178
0.999198
0
-3.34194e-06
-8.92035e-05
2.98898e-06
0.0100438
0.00927354
0.0033448
1.80471
0.0372337
1.65945
0
1.28847e-07
5.55121e-08
0.055109
0.000203598
1.83644
0
0.00298255
2.0158
0
1.08882e-07
2.96285e-07
0.000416623
-6.26561e-08
0.000324842
-0.000533438
1.30783e-07
-9.87645e-05
2.01915
0.0424508
1.3609
0.0148226
-0.000213946
0.00371541
0
0.00344528
-1.42363e-05
0.76429
0.000259072
0
-0.00049605
0.00566164
-3.27997e-09
0.0006662
5.93048e-05
1.37674
0
-0.000529384
5.97346e-05
1.60047
0
-2.94134e-09
0.0197043
-0.000260466
0.00137083
0.00634612
1.19826
0
-0.00149695
1.22227
0.168622
0.432447
-1.46898e-06
6.16596e-07
3.54733e-05
-0.000359668
-2.52176e-08
4.64655e-05
1.78831
-1.14626e-09
0.0202597
0.904804
0
0.00700777
-0.00116656
0.00292046
2.64731e-08
0.000447353
0.000141746
1.76938
3.84736e-09
0.0032367
0.000335497
0.003016
1.01318e-08
-0.00047879
0.000928346
8.54826e-08
3.86791e-08
-6.99206e-05
1.18519
0.000112867
1.92885
0.00493353
0.00225429
0.091852
0.000160098
0.106867
6.50791e-08
-0.00109532
0.000213959
-0.00119249
0.000205681
0.00947244
2.0354
-1.41486e-10
7.76093e-09
-1.96469e-07
4.14776e-07
-1.19593e-08
-3.99682e-08
4.94218e-08
0.398981
0.0582899
-8.45706e-05
0.0415336
0.862926
0.806529
-2.85235e-08
6.96762e-06
0.162971
1.21149e-05
-1.3191e-06
-2.17861e-07
2.45326
0
0.164815
1.03692
0.786331
0.0579387
5.61936e-07
1.44226
0.643575
9.8695e-07
-2.04208e-07
-2.41301e-07
1.32607e-06
-3.05077e-07
3.2202e-07
1.09364e-07
-1.43291e-06
-5.69491e-06
4.58598e-07
0.692573
-2.95042e-08
1.85992
2.59287e-06
0
-2.5603e-06
-3.37302e-05
3.74354e-06
2.53219e-07
5.27442e-07
7.4849e-10
2.02913
1.05168e-09
0.0511547
0.00412044
0.0444066
-2.26308e-09
-3.78103e-09
-1.98302e-05
1.83002
1.71248e-09
1.80343
-6.77844e-09
0.0777531
-9.65956e-09
0.00463165
0.00180941
0.0631245
1.6576
-3.30775e-09
-5.41082e-08
0.0129266
-0.000364486
2.05553
0.0012777
1.6068
1.9105
1.80135e-10
0.0276767
1.84596
5.30037e-09
0.0308395
1.41767
0.105695
0.00186359
1.63155
-6.69339e-09
-4.13883e-07
0.087427
0.0731369
1.83065
5.48293e-09
-6.4687e-06
-6.50855e-08
-1.11484e-08
0.0014532
0.0179978
2.26
0.214708
1.90416e-07
7.6879e-07
3.48264e-06
0.000867359
0.343791
0.0057128
0.000557753
0.660629
2.92717e-09
0.0169847
5.38242e-10
0.00119336
0.0785034
1.61874
0.375999
0.00382261
0.201002
6.36462e-07
-4.46469e-10
0.00485926
6.02016e-08
0.0126673
0.000340697
0.113422
4.20355e-10
0.000408094
0.270578
1.80459e-07
0.0138528
0.157623
4.03408e-07
1.13603
1.81372e-10
0.00892762
1.88096
1.42555e-10
0.52794
0.284266
2.02791
2.29655
1.6666e-10
0.217353
0.160292
2.01442
0
0.112906
2.3008
7.18776e-06
6.04145e-06
0.337354
6.83906e-10
-9.60859e-08
-0.000142429
-3.82694e-06
-3.19854e-06
0.171011
-1.02581e-09
-0.000253982
-1.96546e-06
0.0805378
0
0.244402
0.0127631
2.08785
0.0564856
4.33915e-06
2.11185e-06
0.190467
0
3.79098e-09
-5.34974e-05
1.38254e-05
1.03751e-05
-7.92331e-07
4.0115e-05
0
-1.96818e-05
-1.17185e-08
8.98363e-08
0.0826574
-8.35132e-05
-0.000172667
0.00293982
3.12495e-05
-1.25582e-07
2.19685e-05
1.06467e-10
4.88341e-05
1.86731e-07
-1.24817e-06
-6.96264e-08
-3.78514e-05
2.18476e-07
7.40583e-07
0.0522023
0.0572831
0.0148901
1.34435
8.1401e-09
-1.9745e-05
0.926633
1.02756e-08
3.52755e-08
0.00724404
0.000133203
1.71342
-4.03696e-09
2.19738e-08
0.0139773
-0.00023504
1.36738
0.0068545
0.00471227
0.689242
0.0150399
-4.80341e-06
6.16278e-05
9.33748e-05
-0.000356473
-1.43961e-07
0.00394663
0.514827
0
0.039782
0.000209653
1.16979
-2.20663e-10
-1.33927e-08
0.00372428
2.23829e-08
0.0307026
0.00213382
1.96924
2.09967e-09
0.0120482
0
0.000153918
1.37927
0.000191947
0
-5.73692e-05
4.58956e-05
-9.04339e-08
1.98263e-05
0.0210239
2.09948e-07
0.00125335
1.74817
-0.000625709
0
0.00126667
0.0252941
0.00102515
0.00493772
8.7955e-07
0.00162843
-1.83487e-06
0.00189058
1.20845
0.00433761
0.492394
0.0996382
1.18278e-05
0
0
-0.000446416
0.944102
0.00172543
0
3.88571e-05
-3.96303e-05
2.63502e-08
0.000292505
1.0363e-07
-2.39882e-06
-4.21544e-05
-3.95267e-07
1.06008
0.765835
-0.000101
1.93825
-1.42368e-09
0.0358642
7.37567e-07
0.0668815
0.00818228
0.643316
2.93816e-08
-0.000107585
0.000290552
-0.000657156
2.24988e-06
0.024937
1.79663
0.0094661
0.877233
0
0.0228075
-6.47362e-05
0.020887
-5.99608e-07
-7.63484e-08
0.00523547
-2.11533e-05
5.69779e-06
1.20283e-05
1.73119
2.24913e-09
0.0138487
0.000238366
0.607814
-7.49878e-10
0.753539
6.81506e-09
0.000220893
0.238561
2.78246e-07
-5.27283e-05
8.82726e-08
0
-2.94955e-05
0.0139488
0
1.3867e-05
-2.76176e-05
1.58269
0
0.000403892
0.00453133
-0.00150682
-3.14786e-06
-2.69171e-07
-5.54702e-05
0.420956
-3.51401e-09
-0.00143576
1.4157
-0.000837104
-2.56604e-05
-8.56965e-05
-4.42904e-06
6.82171e-07
3.39917e-05
7.2112e-08
0
0
2.16337e-06
-5.1471e-07
-2.68003e-05
0
2.09054
0.314306
-2.93329e-06
-4.32615e-06
0.11758
-7.31241e-10
0.339203
0.000275084
1.36996
-1.72211e-09
-9.08977e-09
0.00632521
4.4924e-05
0.955171
-2.23097e-10
0.000193902
0
2.0333
0.0216281
0.00295921
-0.0014694
2.45502e-05
-1.31553e-08
3.36672e-06
0.533968
-4.00648e-06
0.00568552
-0.0011626
-3.3094e-05
-9.59578e-05
0.0295132
0.00547117
0.0299409
1.946
-0.000369642
-0.00146397
2.15064e-06
-5.2628e-07
-4.00161e-06
1.16303e-07
1.23281
0.630548
0
1.48475e-07
-7.18912e-07
-4.93592e-05
-5.84325e-08
0.00248031
-2.81768e-07
-0.000133298
0
-3.66016e-06
0
0.427546
0.0415013
2.49757e-05
-1.60459e-05
0.0648933
1.95595
-6.24532e-09
-4.29236e-08
0.000847447
0.0317018
-1.16423e-05
0.00793378
1.4648
-8.61503e-09
1.05148e-06
0.0472025
-1.71028e-05
2.8363e-07
-0.000286658
0.00469479
1.3235
0
-1.439e-05
1.03078
1.99509e-10
-5.85936e-05
0.00279572
0.0557317
-9.56028e-10
2.33703
0.05639
0.0164832
1.59953
9.79858e-10
1.37008
0.194467
-0.000408665
-8.84956e-09
0.00990071
-1.00206e-06
4.78375e-07
-1.34407e-05
6.54447e-09
0.00190655
1.91814
0.0226605
1.94913
0.0038688
-1.24916e-07
-2.42933e-06
0
-0.00012518
0
3.0574e-08
0.028021
2.11105e-05
-2.61417e-08
-0.00038598
1.11596e-05
1.14524
-1.11623e-08
0.130727
0.0335986
1.19631
0.0626076
6.60667e-08
0.923675
0.169738
4.74638e-05
0.97263
-8.64229e-08
0.0808991
7.75946e-08
1.55789e-05
-9.71495e-07
1.30662e-05
-3.11371e-07
1.13131e-10
1.69225e-05
-3.21767e-06
0.261024
0
-1.52252e-09
-3.82287e-07
1.32424e-05
0
-8.57533e-06
1.37747e-05
1.00095e-05
-6.04749e-07
0.0986143
3.52756e-06
0.126159
0
0.0263198
-1.78778e-06
0
3.90683e-06
-1.68898e-07
4.81101e-08
2.26545e-07
0.0660142
2.46355
0.651657
2.26308
0.343871
2.56473
0.513354
0.514005
0.972022
7.37317e-09
2.22596
0.57808
0.00260822
1.81143e-05
2.17049e-05
2.17854
4.1026e-07
-1.05119e-06
0.208583
-7.64295e-09
2.56252
0.268534
0
0.0298515
-7.98284e-06
1.35195e-07
-1.08081e-06
-3.75601e-07
0.854351
0.0871636
0.951917
6.77398e-06
-8.51428e-07
0
0.00824205
1.54311
1.38707e-09
-3.79283e-07
0
2.12185e-05
0.0406457
-0.000133959
0.0993011
1.40725e-05
-5.30751e-08
1.7139e-07
0.0780267
0.0568275
2.62029e-06
0.105531
0
0.647094
-3.44773e-07
0.0432155
-2.52367e-05
-2.51716e-05
2.91003e-07
0.00262754
0.959423
1.18795e-10
1.33777e-08
0.0128971
0.000292474
1.66414
-2.83119e-09
1.86721e-08
-1.2324e-05
-2.98711e-05
-7.29606e-05
1.35904e-08
0.000457206
3.7313e-07
0.793697
5.92404e-10
-2.19854e-05
-5.23282e-05
0.0573798
-5.52751e-05
-0.00149985
1.94688
0.0319486
0.00597743
-0.000717168
6.83709e-05
0.102455
8.30734e-09
2.39035
7.44821e-05
0.663053
0
-7.77275e-09
0.00823965
0.00137086
-3.42223e-08
0.000148356
0.0106697
-0.000373646
-6.17337e-07
-5.57587e-05
0.657403
1.51278
0.0786394
0.0412471
3.75187e-08
-9.17475e-07
1.43832e-06
0.556137
-3.5758e-09
0.265384
0.00204327
0.00502502
0.95554
0
0.0174809
1.82928
-1.4558e-10
9.25093e-05
-0.00128988
0
0
0.000456733
0.0361996
0.000205289
0.000415016
1.01628
-1.39223e-09
0.431619
0.0435378
-6.3924e-10
1.99654
-8.47416e-05
-0.00116777
0.732702
-5.87818e-10
1.1206e-05
0.98091
9.44571e-05
1.93354
2.23485e-09
0.0570892
-0.000839705
0.000169775
-0.000249847
2.08459e-05
-1.36314e-09
-4.34775e-07
7.47588e-07
0.749255
3.15414e-09
0.002578
0.57167
0.00310395
-3.1635e-08
6.46534e-07
-8.05567e-07
0.899124
0.249929
0.764898
0
0.00143573
0.15732
1.66518
-2.05348e-09
0.0367378
2.46812
0
0.0944581
0.340968
2.28585
-1.00641e-05
2.14904e-07
1.24828e-06
0.427076
1.67143
-1.13605e-07
-3.34938e-06
-1.81277e-07
1.85772e-06
0.486723
-7.51933e-06
0.00745263
0
9.9949e-05
0.0374786
-4.52139e-05
-0.000292549
0
0.140242
1.64142
-2.05757e-09
0.0177149
2.11724
4.09484e-07
0.175221
6.22254e-09
0.396944
0.121839
1.61396
0.00010081
0.000579545
1.1095e-05
0.0395498
3.54968e-09
-0.000176665
1.21451
0.0877497
2.01241
0.0321223
1.42703
0.00936228
-0.00156633
0.000182249
1.16605
0.0790892
-3.20356e-05
2.47271
0
0.119467
-3.79906e-05
0.317868
-1.1107e-09
-2.09388e-08
-0.000329908
0.779784
-3.7564e-09
0.198833
-9.7851e-06
0.138455
4.7931e-09
-4.57481e-09
0.000295326
0
1.95204
0.0816647
6.33338e-06
-3.67446e-06
0.126442
-3.78831e-05
1.92578
0
0.00288488
0.268699
-0.000225788
0.374845
1.30246
0.49839