# vtk DataFile Version 2.0
Unstructured Grid by M++
ASCII
DATASET UNSTRUCTURED_GRID
POINTS 4072 float
  0.656250   0.890625 0
  0.703125   0.640625 0
  0.640625   0.890625 0
  0.703125   0.625000 0
  0.640625   0.875000 0
  0.703125   0.671875 0
  0.640625   0.921875 0
  0.718750   0.656250 0
  0.656250   0.906250 0
  0.703125   0.656250 0
  0.640625   0.906250 0
  0.546875   0.718750 0
  0.531250   0.734375 0
  0.578125   0.765625 0
  0.562500   0.765625 0
  0.812500   0.796875 0
  0.718750   0.625000 0
  0.656250   0.875000 0
  0.734375   0.609375 0
  0.671875   0.859375 0
  0.718750   0.609375 0
  0.656250   0.859375 0
  0.734375   0.593750 0
  0.671875   0.843750 0
  0.578125   0.984375 0
  0.640625   0.734375 0
  0.515625   0.734375 0
  0.531250   0.718750 0
  1.000000   0.984375 0
  0.515625   0.718750 0
  0.859375   0.921875 0
  0.921875   0.671875 0
  0.843750   0.921875 0
  0.906250   0.671875 0
  0.843750   0.937500 0
  0.906250   0.687500 0
  0.546875   0.656250 0
  0.546875   0.578125 0
  0.671875   0.625000 0
  0.609375   0.875000 0
  0.546875   0.593750 0
  0.593750   0.984375 0
  0.656250   0.734375 0
  0.578125   0.609375 0
  0.515625   0.859375 0
  0.578125   0.593750 0
  0.515625   0.843750 0
  0.937500   0.640625 0
  0.875000   0.890625 0
  0.953125   0.625000 0
  0.890625   0.875000 0
  0.781250   0.578125 0
  0.718750   0.828125 0
  0.734375   0.812500 0
  0.578125   0.578125 0
  0.515625   0.828125 0
  0.562500   0.578125 0
  0.578125   0.562500 0
  0.515625   0.812500 0
  1.000000   1.000000 0
  0.859375   0.734375 0
  0.796875   0.984375 0
  0.984375   0.734375 0
  0.921875   0.984375 0
  0.968750   0.734375 0
  0.906250   0.984375 0
  0.984375   0.718750 0
  0.921875   0.968750 0
  0.859375   0.718750 0
  0.796875   0.968750 0
  0.921875   0.796875 0
  0.984375   0.546875 0
  0.562500   0.812500 0
  0.906250   0.796875 0
  0.921875   0.781250 0
  0.671875   0.687500 0
  0.609375   0.937500 0
  0.671875   0.671875 0
  0.609375   0.921875 0
  0.687500   0.671875 0
  0.625000   0.921875 0
  0.671875   0.734375 0
  0.609375   0.984375 0
  0.687500   0.734375 0
  0.625000   0.984375 0
  0.765625   0.578125 0
  0.703125   0.828125 0
  0.781250   0.562500 0
  0.718750   0.812500 0
  0.750000   0.578125 0
  0.687500   0.828125 0
  0.765625   0.562500 0
  0.703125   0.812500 0
  0.625000   0.968750 0
  0.687500   0.718750 0
  0.625000   0.953125 0
  0.687500   0.703125 0
  0.625000   0.937500 0
  0.687500   0.687500 0
  0.609375   0.968750 0
  0.671875   0.718750 0
  0.609375   0.953125 0
  0.671875   0.703125 0
  0.609375   0.890625 0
  0.671875   0.640625 0
  0.625000   0.890625 0
  0.687500   0.640625 0
  0.609375   0.906250 0
  0.671875   0.656250 0
  0.625000   0.906250 0
  0.687500   0.656250 0
  0.593750   0.765625 0
  0.937500   0.953125 0
  0.546875   0.750000 0
  0.546875   0.734375 0
  0.531250   0.750000 0
  0.937500   0.671875 0
  0.515625   0.937500 0
  0.953125   0.671875 0
  0.890625   0.921875 0
  0.875000   0.921875 0
  0.531250   0.671875 0
  0.515625   0.687500 0
  0.921875   0.703125 0
  0.859375   0.953125 0
  0.828125   0.656250 0
  0.953125   0.656250 0
  0.531250   0.921875 0
  0.890625   0.906250 0
  0.953125   0.640625 0
  0.890625   0.890625 0
  0.937500   0.656250 0
  0.875000   0.906250 0
  0.671875   0.593750 0
  0.609375   0.843750 0
  0.656250   0.593750 0
  0.593750   0.843750 0
  0.671875   0.609375 0
  0.609375   0.859375 0
  0.656250   0.609375 0
  0.593750   0.859375 0
  0.578125   0.750000 0
  0.515625   1.000000 0
  0.921875   0.578125 0
  0.859375   0.828125 0
  0.937500   0.796875 0
  0.953125   0.781250 0
  0.953125   0.734375 0
  0.890625   0.984375 0
  0.937500   0.734375 0
  0.875000   0.984375 0
  0.953125   0.796875 0
  0.968750   0.796875 0
  0.984375   0.796875 0
  1.000000   0.796875 0
  0.562500   0.796875 0
  0.578125   0.781250 0
  0.562500   0.781250 0
  0.578125   0.640625 0
  0.515625   0.890625 0
  0.562500   0.640625 0
  0.578125   0.625000 0
  0.515625   0.875000 0
  0.875000   0.703125 0
  0.812500   0.953125 0
  0.562500   0.609375 0
  0.562500   0.593750 0
  0.546875   0.609375 0
  0.562500   0.562500 0
  0.562500   0.546875 0
  0.546875   0.562500 0
  0.750000   0.609375 0
  0.687500   0.859375 0
  0.765625   0.593750 0
  0.703125   0.843750 0
  0.750000   0.593750 0
  0.687500   0.843750 0
  0.968750   0.656250 0
  0.906250   0.906250 0
  0.984375   0.640625 0
  0.921875   0.890625 0
  0.968750   0.640625 0
  0.906250   0.890625 0
  0.984375   0.625000 0
  0.921875   0.875000 0
  0.968750   0.625000 0
  0.906250   0.875000 0
  0.531250   0.984375 0
  0.796875   0.953125 0
  0.859375   0.703125 0
  0.781250   0.953125 0
  0.843750   0.703125 0
  1.000000   0.531250 0
  0.937500   0.781250 0
  0.953125   0.765625 0
  0.937500   0.765625 0
  0.953125   0.750000 0
  0.937500   0.703125 0
  0.875000   0.953125 0
  0.953125   0.687500 0
  0.890625   0.937500 0
  0.937500   0.687500 0
  0.875000   0.937500 0
  0.828125   0.640625 0
  0.828125   0.625000 0
  0.546875   0.687500 0
  0.546875   0.671875 0
  0.531250   0.687500 0
  0.953125   0.718750 0
  0.890625   0.968750 0
  0.953125   0.703125 0
  0.890625   0.953125 0
  0.984375   1.000000 0
  0.953125   0.515625 0
  0.531250   0.781250 0
  0.890625   0.765625 0
  0.890625   0.796875 0
  0.890625   0.781250 0
  0.562500   0.671875 0
  0.921875   0.656250 0
  0.578125   0.656250 0
  0.515625   0.906250 0
  0.562500   0.656250 0
  0.890625   0.750000 0
  0.828125   1.000000 0
  0.875000   0.734375 0
  0.812500   0.984375 0
  0.953125   1.000000 0
  0.750000   0.984375 0
  0.812500   0.734375 0
  0.984375   0.781250 0
  1.000000   0.781250 0
  1.000000   0.765625 0
  0.937500   0.718750 0
  0.875000   0.968750 0
  0.921875   0.718750 0
  0.859375   0.968750 0
  0.968750   0.531250 0
  0.546875   0.796875 0
  0.906250   0.781250 0
  0.984375   0.515625 0
  0.921875   0.765625 0
  0.906250   0.765625 0
  0.968750   0.781250 0
  0.984375   0.765625 0
  0.968750   0.765625 0
  0.984375   0.750000 0
  0.906250   1.000000 0
  0.968750   0.750000 0
  0.968750   0.718750 0
  0.906250   0.968750 0
  0.984375   0.703125 0
  0.921875   0.953125 0
  0.968750   0.703125 0
  0.906250   0.953125 0
  0.984375   0.687500 0
  0.562500   0.953125 0
  0.921875   0.937500 0
  0.968750   0.687500 0
  0.906250   0.937500 0
  1.000000   0.859375 0
  0.734375   0.531250 0
  0.671875   0.781250 0
  0.734375   0.546875 0
  0.671875   0.796875 0
  0.718750   0.546875 0
  0.656250   0.796875 0
  0.687500   0.921875 0
  0.750000   0.671875 0
  0.828125   0.812500 0
  0.828125   0.796875 0
  0.578125   0.812500 0
  0.578125   0.796875 0
  0.937500   0.859375 0
  0.703125   0.796875 0
  0.765625   0.546875 0
  0.718750   0.781250 0
  0.781250   0.531250 0
  0.687500   0.796875 0
  0.750000   0.546875 0
  0.703125   0.781250 0
  0.765625   0.531250 0
  0.609375   0.765625 0
  0.984375   0.828125 0
  1.000000   0.812500 0
  0.984375   0.812500 0
  1.000000   0.750000 0
  0.937500   1.000000 0
  0.953125   0.984375 0
  0.937500   0.984375 0
  0.609375   0.781250 0
  0.593750   0.781250 0
  0.593750   0.796875 0
  0.531250   0.609375 0
  0.515625   0.609375 0
  0.515625   0.562500 0
  0.875000   0.796875 0
  0.859375   0.812500 0
  0.609375   0.812500 0
  0.609375   0.796875 0
  0.593750   0.812500 0
  0.578125   0.671875 0
  0.515625   0.921875 0
  0.859375   1.000000 0
  0.921875   0.750000 0
  0.875000   1.000000 0
  0.937500   0.750000 0
  0.921875   0.734375 0
  0.859375   0.984375 0
  0.937500   0.921875 0
  0.593750   0.671875 0
  0.625000   0.609375 0
  0.562500   0.859375 0
  0.609375   0.609375 0
  0.546875   0.859375 0
  0.609375   0.671875 0
  0.546875   0.921875 0
  0.640625   0.671875 0
  0.578125   0.921875 0
  0.625000   0.671875 0
  0.562500   0.921875 0
  0.640625   0.625000 0
  0.578125   0.875000 0
  0.500000   0.906250 0
  0.078125   0.125000 0
  0.500000   0.796875 0
  0.078125   0.015625 0
  0.484375   0.843750 0
  0.468750   0.828125 0
  0.750000   0.234375 0
  0.062500   0.828125 0
  0.484375   0.562500 0
  0.296875   0.546875 0
  0.234375   0.796875 0
  0.281250   0.531250 0
  0.218750   0.781250 0
  0.296875   0.562500 0
  0.234375   0.812500 0
  0.281250   0.546875 0
  0.218750   0.796875 0
  0.265625   0.625000 0
  0.953125   0.046875 0
  0.281250   0.640625 0
  0.031250   0.546875 0
  0.500000   0.984375 0
  0.078125   0.203125 0
  0.484375   0.984375 0
  0.062500   0.203125 0
  0.718750   0.125000 0
  0.031250   0.687500 0
  0.703125   0.109375 0
  0.328125   0.625000 0
  0.343750   0.812500 0
  0.406250   0.562500 0
  0.687500   0.031250 0
  0.500000   0.859375 0
  0.468750   0.906250 0
  0.046875   0.125000 0
  0.468750   0.937500 0
  0.046875   0.156250 0
  0.062500   1.000000 0
  0.015625   0.546875 0
  0.812500   0.109375 0
  0.375000   0.812500 0
  0.437500   0.562500 0
  0.359375   0.796875 0
  0.421875   0.546875 0
  0.343750   0.781250 0
  0.406250   0.531250 0
  0.328125   0.687500 0
  0.500000   0.968750 0
  0.078125   0.187500 0
  0.031250   0.609375 0
  0.718750   0.031250 0
  0.031250   0.593750 0
  0.718750   0.015625 0
  0.703125   0.015625 0
  0.031250   0.515625 0
  0.046875   0.531250 0
  0.359375   0.687500 0
  0.375000   0.703125 0
  0.484375   0.750000 0
  0.046875   0.984375 0
  0.328125   0.656250 0
  0.343750   0.593750 0
  0.328125   0.578125 0
  0.265625   0.828125 0
  0.000000   0.515625 0
  0.500000   0.765625 0
  0.015625   0.531250 0
  0.468750   0.984375 0
  0.046875   0.203125 0
  0.375000   0.625000 0
  0.343750   0.703125 0
  0.468750   0.968750 0
  0.046875   0.187500 0
  0.359375   0.625000 0
  0.296875   0.875000 0
  0.734375   0.390625 0
  0.359375   0.718750 0
  0.015625   0.593750 0
  0.812500   0.156250 0
  0.750000   0.406250 0
  0.375000   0.734375 0
  0.453125   0.750000 0
  0.468750   0.875000 0
  0.046875   0.093750 0
  0.296875   0.812500 0
  0.484375   0.968750 0
  0.062500   0.187500 0
  0.296875   0.781250 0
  0.031250   0.968750 0
[...]
POINT_DATA 4072
SCALARS scalar_value float 1
LOOKUP_TABLE default
2.99661e-08
-3.2347e-06
-5.11712e-08
5.59887e-05
8.04661e-08
1.27162e-05
-6.44453e-09
-1.79215e-05
-2.16341e-08
-1.36186e-05
2.55102e-08
-5.88454e-05
0.000196063
-1.53314e-05
2.32819e-05
-1.76797e-08
-3.24234e-05
-3.39695e-08
6.15958e-05
-3.21491e-08
-8.70547e-06
4.42684e-08
-0.000129203
6.58874e-08
-3.38635e-09
2.32278e-05
-0.000219788
-9.1023e-05
0
0.000377876
0
-1.15963e-07
-1.36322e-10
-1.59094e-07
0
1.06463e-07
0.000794624
0.000735757
1.03018e-05
1.04277e-08
-0.000356709
5.49802e-09
-7.27309e-06
0.00754418
-1.69036e-06
0.0115927
1.19155e-05
-1.80558e-07
-2.03234e-10
2.22324e-07
0
5.16275e-05
3.16498e-08
-5.24997e-08
0.0154764
-4.76396e-07
0.00558006
0.0188088
7.12483e-06
0
-5.68006e-08
0
-2.64676e-10
0
3.73113e-10
0
2.53853e-10
0
7.24332e-08
0
4.03999e-10
6.00577e-07
-1.32339e-05
0
-5.4533e-10
1.27703e-05
1.18278e-08
-3.01401e-05
-5.42942e-09
6.09395e-06
1.13641e-08
8.09144e-06
2.28386e-09
1.35197e-06
5.0445e-09
8.03048e-05
6.46247e-09
-0.000131918
-1.42725e-08
-4.76408e-05
2.85187e-08
-1.23447e-05
-1.173e-08
-2.90299e-09
-6.02709e-06
7.2023e-09
1.12601e-05
-3.78404e-09
-1.27444e-05
3.83652e-09
-4.68483e-06
-1.83891e-09
-2.31069e-06
1.12477e-08
-6.53048e-05
8.53608e-08
-5.30906e-05
4.92621e-09
4.59938e-05
-2.53968e-08
1.59346e-05
7.59211e-06
0
-3.44245e-05
9.52845e-05
-0.000202483
-5.41285e-08
-1.09028e-07
-4.57419e-08
0
0
3.27646e-05
0.000542803
-2.6567e-08
0
-1.17427e-06
8.38041e-08
4.3916e-07
0
-1.33408e-07
0
9.25211e-08
1.52398e-10
-0.000715089
2.54402e-07
-0.00130594
-2.01829e-06
0.000195043
-8.60639e-08
0.000717967
1.00465e-06
0.000122185
0
-1.48893e-06
-1.09728e-09
0
0
2.35767e-09
0
-1.74803e-09
0
-1.09115e-10
0
0
0
2.19819e-05
1.19263e-05
-2.78121e-05
0.00350842
1.40049e-06
-0.000852898
0.00615032
3.782e-06
-1.25552e-07
0
0.00101191
0.00306843
0.00027531
0.00899561
0.0123722
0.000844237
1.1732e-06
3.37731e-08
-7.83709e-05
-5.35333e-09
2.80654e-05
-3.4512e-08
3.76793e-08
0
-3.41355e-08
0
-8.56176e-08
0
1.12778e-07
0
1.34292e-07
0
1.40765e-07
-1.67793e-10
-6.49877e-08
0
-7.7165e-08
1.05015e-06
-4.15964e-10
3.84785e-10
7.47875e-10
-1.2939e-09
-1.80551e-08
0
1.84526e-08
0
3.31549e-08
0
2.24579e-06
-2.71686e-06
0.000573902
0.000204761
-0.000178705
-1.93718e-09
0
-3.45679e-09
0
0
-2.1476e-06
-8.3754e-05
-7.58241e-09
-1.92388e-09
3.77534e-09
-0.000776597
2.30194e-07
0.0025451
1.46065e-07
-0.000571562
1.44797e-08
0
-3.89608e-08
0
0
1.82589e-10
-2.51112e-08
0
0
0
7.5409e-09
0
1.25889e-08
0
5.1714e-06
-2.62724e-05
4.96104e-10
-2.26429e-06
1.21099e-10
-2.61587e-09
1.22131e-10
0
-2.77988e-10
0
0
2.66032e-10
-2.08176e-09
0
8.79362e-10
0
4.29042e-09
0
-3.94452e-09
4.26262e-08
0
-3.51263e-09
0
0
0.00132827
-1.10393e-06
-0.000431266
1.72636e-07
-0.000644096
1.06488e-06
5.84149e-09
1.28643e-06
7.72877e-09
-1.29715e-08
4.0654e-06
-7.81611e-06
0
7.23847e-08
-0.000136345
2.19484e-07
-0.000240753
-1.39506e-07
0.000185778
-2.4034e-07
0.000301099
3.35442e-05
0
0
0
0
0
0
0
-5.20673e-06
-1.45729e-05
1.01613e-05
3.28909e-06
0.00063344
-0.000921477
-2.28344e-09
2.25893e-09
8.38145e-08
1.31672e-06
-6.62219e-06
0.00201106
1.18293e-06
0
1.52303e-09
0
-4.78795e-10
-5.27875e-09
0
0
0.00567556
0.000715813
2.06319e-06
0.00291052
2.32708e-07
0.000220956
1.84146e-07
-4.78131e-06
3.88677e-08
0.000388285
1.90347e-07
-0.000323933
-1.23038e-07
1.67951e-06
2.32924e-06
0.000115499
4.05819e-08
8.87984e-06
2.52561e-05
0.356016
-1.37094e-10
0.00446533
0.00488837
1.10637e-07
0.0169876
-1.68748e-07
0.00937578
-7.8575e-08
0.0150843
1.0789e-07
0.001835
8.88537e-07
0.000134197
3.36081e-07
8.3942e-07
-3.25639e-06
6.38684e-07
-1.51778e-06
0.842055
-4.21724e-10
0.551618
-8.24538e-06
-2.60947e-06
0.0100593
0.0612319
1.42134e-05
1.09452e-06
3.93798e-07
2.00903e-08
-2.69813e-07
0
2.29375e-07
0.000700955
1.83822e-05
0.00611516
5.09509e-06
0.0271745
-8.04146e-06
0.0164196
-2.51549e-05
-8.10089e-09
-5.60472e-06
3.53277e-09
0.122743
-3.9036e-08
0.0635575
0.0500279
-6.25469e-07
3.54257e-07
4.8324e-05
2.00546e-05
-0.000126407
0
8.84596e-05
-1.72437e-05
0.000616757
4.58089e-08
5.2398e-07
0.000135451
-4.08518e-07
6.44532e-07
4.19702e-07
0.000298336
7.2171e-06
-1.10132e-07
-1.98111e-07
-4.86073e-05
-4.12163e-08
0.00501559
6.64492e-06
2.62474e-08
-0.00213958
-0.000941651
6.80995e-05
4.14564e-05
3.07663e-06
3.64706e-07
2.32714e-07
2.15343e-07
-3.33925e-06
4.7746e-07
0
4.80282e-06
-3.91581e-07
-0.000195762
0.167478
0.101657
-1.18253e-05
-5.16559e-08
1.37935e-06
-7.15337e-07
-6.69449e-08
-7.28372e-07
-3.28884e-07
0.00084458
9.64396e-05
-1.55486e-07
8.24727e-07
2.14513e-06
-7.09146e-09
-4.20304e-07
0.00583849
5.83022e-06
3.55848e-05
-2.49776e-07
1.69694e-06
6.30793e-07
-0.000522751
-0.00268496
-2.2202e-07
-1.63594e-06
-8.82863e-09
2.89129e-05
1.03843e-06
-2.55421e-06
-1.64046e-06
0.00883327
-1.1623e-05
-2.67323e-07
-7.61549e-06
0.00216341
6.99985e-08
-8.2001e-05
1.87e-06
3.35527e-08
1.10444e-05
-3.90044e-05
5.02434e-07
-3.70993e-05
3.59039e-06
0
-2.81102e-07
7.58091e-08
2.99147e-07
2.31133e-07
1.05235e-06
1.76864e-06
-1.98205e-08
6.50186e-06
1.76519e-07
0.0196179
7.02051e-05
-6.5775e-06
0.0256157
0.202713
-1.7129e-05
2.62249e-05
-1.48108e-07
3.40192e-07
0
4.08101e-08
-0.000463677
0
-2.05558e-07
0.000121489
6.96016e-09
0.366059
0.328832
0.31021
1.36198e-07
1.31128e-06
0
0.000696677
4.26953e-06
0.0129836
0.0590257
0.0621816
-4.5501e-07
-6.95017e-10
8.02198e-07
1.03255e-07
0.0237693
0.00673963
-1.62805e-08
0.00906045
5.03757e-05
1.754e-07
3.53655e-05
-4.32615e-08
0
2.10972e-05
-9.69442e-08
0.0172354
0.00339672
4.0094e-05
0.00234574
3.1852e-05
3.98458e-08
0.105169
0.241966
0.113373
0.00759433
2.12818e-05
0.0210927
0.0171887
0
0.000191962
0.00131443
-6.72166e-05
8.61684e-05
3.96202e-05
1.20155e-07
-0.000284348
-0.000951001
0.00208687
0.00460618
-2.96602e-06
-3.10414e-07
6.52242e-08
-0.000446901
0.00103202
6.64494e-08
0.000139418
6.86703e-05
0.198907
0.980608
0.000800101
-1.29568e-07
-2.97682e-07
0.0356338
2.09003e-07
-5.72702e-07
-0.000107354
-2.86472e-06
-2.90155e-06
-1.2271e-06
3.96751e-07
3.9444e-06
-6.29388e-08
1.64518e-06
1.30543e-07
8.74196e-08
1.10483e-06
2.36273e-07
0.0294411
0.000170149
-9.20017e-07
-2.59937e-07
1.41608
0.000451274
-2.3833e-07
3.1429e-07
-5.05364e-07
-9.25495e-07
2.88769e-08
-5.19122e-06
1.95008e-05
-7.99664e-08
2.13223e-08
-4.2014e-06
4.58188e-08
-3.12823e-07
-2.21927e-06
0.00168527
2.92496e-07
-2.31619e-07
-0.000877034
-8.77248e-09
-0.000239424
0.000496047
0.000969505
-6.03868e-05
0.00292839
0
-3.3039e-05
2.44147e-10
-2.43159e-10
-5.25455e-10
2.86454e-10
0
5.75241e-06
-4.18708e-06
-1.82552e-10
0.26028
1.43842
0
0
0.736398
2.15177e-05
-2.59932e-05
0
0
3.69357e-09
0.411675
0.790684
0.000100528
-2.16177e-05
1.1258e-09
1.67587e-08
0.728059
0.45486
3.56767e-05
6.65837e-06
0.679821
-3.18445e-07
-0.000512728
1.76782e-07
0.0327541
0.0192649
0
2.97435e-07
-4.1715e-06
3.04859e-05
2.59586e-05
3.63907e-07
0
0.055428
5.79762e-06
0
0.207709
-9.39981e-05
0.000216798
1.80498e-05
0.301197
9.11253e-06
4.27597e-05
0.0762325
-2.45776e-06
2.86747e-06
7.69145e-06
4.92008e-07
1.35042e-06
1.01102e-08
0.00917006
3.33943e-07
-6.6398e-06
6.45505e-07
9.07584e-06
3.27613e-08
0.00246826
0.00419328
2.18099e-07
-1.39807e-06
2.76361e-05
0.00835456
0
-2.02474e-07
-2.93043e-07
-4.69949e-06
-2.57018e-06
1.83766e-10
2.98803e-05
-4.04138e-08
-1.60112e-05
0
3.06762e-08
9.74691e-07
0
1.05529
0.00121403
0.000620245
-3.70015e-05
1.25208
0
-6.12301e-06
2.35288e-06
0.000346732
-7.57871e-10
0.0149748
0.0017232
0
0.000271133
0
-8.58929e-05
0.00109317
0.1294
0.153987
-1.72062e-07
1.34039e-05
-2.85636e-06
0.317562
0.323219
1.79307e-09
0.377957
3.59377e-09
-1.61913e-08
2.90859e-06
0.2079
-2.39267e-07
0.656842
2.22029e-06
4.70573e-05
0.439932
0.0189242
0.124066
8.21158e-09
0.518011
2.65939e-08
0.0650336
1.07433
1.70917
0
0.157193
2.00343
-2.06752e-07
7.25879e-08
0.151235
0
1.92443
0
0.18121
0.00106826
1.2804
2.21634e-10
2.30427e-06
3.50977e-09
0.191948
3.45349e-05
-2.77047e-07
4.23076e-08
1.5013e-06
1.36128e-08
1.21395e-06
1.61533e-08
-3.71695e-07
0.00847484
-1.69672e-08
0
7.99653e-07
-2.53221e-05
7.60388e-06
1.24287e-05
4.77489e-07
0.819002
-1.35147e-06
-8.60698e-06
-1.60633e-07
-7.00647e-07
7.87573e-06
-2.48771e-07
-8.66861e-07
-6.01332e-09
2.21284e-07
0.00954839
0.00314063
6.92098e-08
3.98659e-08
0.0696393
-1.22314e-10
1.5705
0.128642
-5.59111e-05
5.04922e-08
1.44291
-0.0148363
1.68352
0.0299214
1.42872
0
8.37398e-08
0.010566
0.000395572
1.45856
0
0.0149597
1.31379
0.0634408
0.723485
2.5122e-10
0.0985196
8.46273e-10
-3.54833e-09
5.06295e-07
0.567341
-1.40513e-09
-4.23224e-08
0.00249413
-0.000270433
0.199126
1.83156e-08
0.0114738
0.330373
-3.58204e-10
0.00667404
6.63413e-06
0
0
-0.000111115
0.149167
-3.57484e-09
0.000104727
2.67242e-05
0.36952
1.12324e-09
7.09844e-05
0.174694
-6.17835e-10
-5.41054e-09
-1.5151e-06
0.42451
1.81311e-10
0.713631
1.34565
-8.25294e-07
8.35222e-09
0.588134
4.28879e-06
1.36532e-05
-1.21074e-06
6.4969e-06
-3.49914e-10
-4.35128e-06
-2.2546e-05
2.57903e-05
-1.54564e-05
-1.11503e-10
8.2652e-10
0.003355
2.18765e-06
-1.03029e-07
1.19007e-05
2.21199e-05
-1.04061e-07
0.0415555
0
1.2107
0
0.0585819
1.14895
1.00302e-10
4.87196e-07
0.0238879
0.000894048
1.07212
-2.80228e-10
0.0375133
1.78717e-10
0.879248
-4.90815e-10
0.155129
0.431301
9.61293e-10
0.225896
9.85863e-09
-2.3914e-08
2.84699e-06
0.303542
0.015916
0.103223
1.74754e-07
-9.20914e-07
-2.08003e-06
0.0334157
-0.00014334
0.0684184
0.000105007
-8.60368e-06
0
0.124937
-5.32401e-10
0.000851263
1.40412e-07
0
0.253215
0.0768206
0.137497
0.395715
0
0.499211
-0.000504118
-2.3145e-08
3.20989e-05
-1.64639e-05
-0.000559343
7.12654e-08
-7.43472e-05
5.25874e-06
7.03153e-08
-2.52851e-06
0.29929
1.48864e-08
0.0040142
0.309481
-2.22521e-08
0.0405004
0.000621697
0.023109
1.6679e-08
1.242e-05
-0.000474038
1.22297e-10
-1.97203e-07
-0.00017947
-7.80895e-10
0.726277
0.732039
8.47108e-09
1.00929
-5.22243e-06
1.02787
9.77151e-09
2.21572
0.235169
2.20755
-1.16566e-06
0
0
-0.000191753
0.0455785
-7.97748e-09
9.76046e-05
-4.14542e-05
0.0576094
4.37786e-09
0
7.61748e-06
-1.72413e-08
4.78148e-06
-2.31749e-07
-1.53384e-08
7.20959e-07
0.415855
0.593697
0.261548
0.496495
-6.06121e-10
8.47809e-06
4.20471e-05
2.77149e-06
0.222363
4.54776e-05
4.81029e-08
1.3658e-05
-0.0001246
2.72543e-05
-9.11656e-06
-5.15599e-05
9.47105e-08
2.15031
2.04442
-9.06981e-07
-1.90462e-05
-1.48274e-06
4.0192e-05
-4.07757e-10
9.585e-08
-2.73647e-05
-8.73737e-07
4.33443e-05
5.99299e-09
5.73516e-07
-2.72088e-07
2.58028e-05
-1.8646e-07
1.18171
-1.42856e-06
3.84377e-07
-2.03818e-05
-5.62101e-08
1.48
0.109089
0
1.27846e-05
-8.35198e-08
1.76642
-0.0120421
2.38928e-10
1.6111
0.0589374
1.14944e-09
-2.15557e-08
2.25905e-05
0.0019023
2.77615e-09
-9.46844e-10
5.59398e-05
0.206106
-0.00107187
0.1087
0.0347439
0.169463
-5.78252e-09
0.0788534
-5.40127e-09
1.4223
1.74683
1.80508
2.0055
-2.71235e-06
-0.00722045
0.000120045
1.84424
0
-1.13603e-07
0.0696246
-9.22612e-05
1.82976
0.197051
1.97942
0.0145045
1.81257
-5.23604e-08
-3.9213e-08
-6.1683e-07
-0.00153573
-6.39895e-08
-4.54521e-08
4.71118e-06
2.61959e-09
6.87162e-07
0.00647539
0
0.00955758
1.32466
1.67036
1.65549
0.212548
1.96386
0
1.68568
-5.41843e-07
1.96461
1.98365
0
0.39161
0.194732
0.113624
1.1087e-07
0.0118994
0.132756
1.3078e-10
8.58196e-07
-1.17926e-05
1.36361e-05
0.0010534
0.00329298
0.0140346
1.78261
0.121408
1.85235
0
5.64482e-07
-2.32488e-08
0.156216
0.000544352
1.83826
0
0.0240973
1.55822
0
1.55476e-08
-8.09662e-08
0.00075294
1.56003e-08
0.0011177
6.15178e-05
-5.60268e-08
-4.81637e-06
1.10139
0.145489
1.80808
0.0577113
-2.79325e-05
-0.000693449
0
0.0142308
-5.63028e-05
1.55724
-4.10888e-05
0
0.000160284
-0.00206133
9.08515e-09
0.00395318
0.000192106
1.7328
0
-8.29476e-05
1.70326e-05
1.7195
-3.4161e-10
-4.72014e-09
0.0734298
-0.000164586
-0.000859576
0.0265396
1.79729
0
-0.00432715
0.119082
0.693269
0.895178
4.85236e-07
2.24295e-06
0.000144445
5.31984e-05
1.07673e-08
1.00749e-05
1.36568
-2.71261e-09
0.0733019
1.65066
-2.13707e-10
0.0261338
0.00234311
-0.0013388
-2.07632e-07
0.000307031
0.00034994
1.60037
1.1272e-08
0.0136636
0.00151631
-0.00185068
-8.20904e-09
-0.000265842
-0.000849487
4.35106e-07
-1.9782e-08
-6.589e-05
1.68885
0.00185916
1.45439
0.0227843
0.00711969
0.000877964
0.000760955
0.00368694
-7.23136e-08
0.00177248
-0.000194043
0.0106597
-0.00048021
0.038217
1.24198
-6.481e-10
4.59293e-09
1.62958e-08
-7.31724e-08
7.50618e-09
-4.17724e-08
1.9863e-07
0.0202026
0.021929
-1.25503e-05
0.0667936
0.0675866
0.0763188
-5.81586e-08
3.66124e-07
0.477771
6.54724e-07
-2.921e-06
-9.40695e-07
0.675984
0
0.590692
0.0452137
1.63961
0.188067
2.63753e-06
0.110861
1.43452
1.69567e-07
2.50738e-07
-3.99934e-08
-1.05162e-06
2.30148e-07
4.6816e-06
5.75068e-08
3.1768e-07
-1.34296e-05
8.93907e-08
1.3125
-1.53016e-07
0.192171
-2.00253e-06
0
-2.99227e-09
-0.000171589
2.99542e-07
-4.66792e-07
2.54066e-06
-2.62973e-10
0.864677
0
0.174192
0.0143104
0.187905
1.33865e-09
4.08057e-09
-2.42926e-07
0.434189
3.41372e-09
0.470196
-1.16614e-08
0.264785
8.89505e-09
0.0176105
0.00579883
0.256037
0.300587
-5.06277e-09
-3.25291e-07
0.0581876
-0.000863639
1.00366
0.00719153
1.72627
1.15029
8.14334e-10
0.0901254
0.505353
4.30958e-09
0.0879529
0.192695
0.27075
0.00984538
0.305654
-8.4496e-09
-2.0467e-06
0.239306
0.216182
0.458302
5.3929e-09
-4.99699e-08
4.40648e-08
-6.44906e-08
0.00344776
0.0735893
0.549387
0.566748
1.3936e-08
2.55931e-06
-5.03568e-07
0.00153727
1.12226
0.0224555
0.00141048
0.0293661
1.97994e-08
0.0192624
-4.96413e-10
0.00397086
-0.000431625
0.159485
1.2225
0.00964174
0.00507163
4.29318e-07
2.99415e-08
0.00570844
-6.48792e-08
0.0194473
0.00145428
0.000734047
-2.54566e-09
0.000942741
0.0113997
-5.23518e-08
0.0217786
0.00324909
8.85002e-08
1.69489
4.08408e-10
0.0339807
0.233204
-2.12336e-10
1.24177
0.978057
0.301369
0.483288
0
0.766939
0.805442
0.314288
0
0.585501
0.500125
-2.33291e-06
4.09076e-07
0.372795
2.0837e-10
4.62699e-08
-4.31567e-05
1.2338e-06
4.77342e-08
0.189839
-4.50888e-10
-0.000116039
-8.95445e-06
0.130812
0
0.017495
0.0239116
1.60108
0.155803
-1.2503e-06
1.10793e-07
0.298225
0
2.1026e-08
-2.8242e-05
-5.71847e-06
9.02966e-07
-3.67766e-06
7.46496e-06
0
3.78941e-06
-8.83037e-08
4.45071e-08
0.245634
-2.63035e-05
-0.000129353
0.0053615
4.81936e-06
-1.22407e-07
-3.36089e-06
0
8.89971e-06
5.99786e-07
1.78687e-05
-8.33157e-08
2.11932e-05
-1.11667e-07
-2.98755e-08
0.0125176
0.188512
0.0359263
0.430937
1.2786e-08
-2.16985e-05
0.242093
4.81204e-09
-1.46206e-08
0.022579
0.00255778
0.610771
-6.27324e-09
5.79155e-08
0.0428723
5.72312e-05
1.30908
0.0231572
0.0192495
1.52874
-0.00103875
5.61955e-07
6.17965e-06
0.000389427
9.15062e-06
2.96116e-07
0.0147472
1.35485
0
0.325501
0.000976439
1.39338
-4.37072e-10
2.22763e-08
0.0152938
9.03594e-08
0.100306
0.00771329
0.921679
1.5581e-09
0.0450242
0
-4.06223e-05
1.65801
7.18309e-05
0
1.37358e-05
6.56178e-06
4.45948e-08
0.000714521
-0.00130799
-8.78348e-09
0.00414241
1.73125
-0.000261424
1.02855e-10
0.00332901
-0.0014633
0.00195435
-0.000395688
8.20108e-07
-0.000196481
-1.16857e-06
0.00164425
1.78023
0.0228364
0.0090208
-0.00708148
-6.20171e-06
0
0
0.000131365
0.422481
0.0061644
0
-6.05652e-06
1.32785e-05
-2.83747e-07
-0.000130301
-2.42723e-08
6.25867e-07
-9.37401e-05
4.81076e-08
1.67387
0.0279755
2.75904e-05
0.700689
-9.37e-10
0.104102
3.35535e-06
0.0780244
0.0342133
0.0442346
-1.57082e-08
-4.92501e-06
0.00129187
1.4429e-05
3.84735e-06
0.0921695
1.55398
0.037804
1.727
-2.29094e-10
0.0444685
0.000169568
-0.000849039
-1.38769e-06
2.50542e-07
0.00796186
8.72116e-06
-1.50724e-06
8.33333e-07
0.80069
2.88373e-09
0.0462821
7.44035e-05
0.673488
-9.64263e-10
0.033689
1.08881e-08
0.000396856
0.60857
-4.89512e-07
1.44321e-05
7.14887e-08
0
-1.99044e-06
0.0513684
0
-1.52747e-06
-5.52905e-05
1.76278
0
0.00257956
0.0184998
8.66037e-05
-2.96073e-06
2.32967e-07
-0.000323158
0.0081247
6.21908e-09
-0.00205205
1.76775
3.38541e-05
-3.1857e-06
-1.96001e-05
9.18967e-07
-2.71238e-07
5.04872e-06
-1.22989e-07
0
0
-5.74456e-07
3.05614e-07
-4.58663e-06
0
0.255627
0.757669
1.16087e-05
-1.94157e-05
0.081435
6.20057e-10
1.37423
0.000936605
0.571198
-4.56318e-09
5.76233e-08
0.0244029
-8.64245e-05
1.02232
-1.14598e-09
0.00251656
3.838e-10
0.78883
0.0902587
0.0313439
-4.27234e-06
-0.000179341
7.51488e-09
1.53212e-05
1.04446
2.66968e-06
0.0231541
9.93765e-06
-4.14727e-06
-4.65837e-06
0.105562
0.0539688
0.130502
0.594593
-0.000294881
6.66062e-05
1.93367e-06
2.20879e-07
-5.26998e-06
-1.98952e-08
1.69588
0.0248011
0
9.90089e-07
6.95584e-07
-3.8513e-06
-1.11817e-07
0.00858327
3.92693e-07
-0.000255864
0
1.14648e-06
0
1.054
0.152307
2.14716e-06
-1.0605e-06
0.200441
0.64604
-8.34504e-09
3.40405e-08
0.000695022
-0.00131773
8.87844e-07
0.030425
0.220965
8.41136e-09
4.74341e-06
0.109297
1.20601e-05
-8.71377e-08
0.00111726
0.016168
0.713836
2.22058e-09
2.61554e-06
0.0938109
-1.593e-10
1.31138e-05
0.0149793
0.164608
2.65386e-09
1.57683
0.191264
0.0581531
1.54223
1.7537e-09
1.80819
-0.00849245
-0.000118564
2.58054e-08
0.0382029
-1.02098e-06
-4.43037e-07
5.14974e-05
-1.55683e-08
0.00670962
1.63003
0.0897976
1.32521
0.0172155
3.8235e-08
-1.92205e-07
0
-0.000270684
0
1.76495e-07
0.0421034
-3.27376e-06
4.90847e-08
-0.000112966
-1.4134e-06
0.108811
4.73254e-09
0.312374
0.0582431
0.128291
0.132689
-3.69393e-08
0.0627211
0.371694
2.64509e-05
0.0762889
-1.72235e-08
0.156396
-4.0731e-08
2.51753e-05
-4.61724e-06
4.75083e-06
-6.6364e-07
0
1.59631e-06
-1.48811e-05
0.349245
7.91485e-10
2.58803e-10
-3.63147e-06
-3.79459e-06
0
-5.28247e-08
4.45588e-07
2.67363e-06
-2.17796e-06
0.346883
1.56484e-05
0.171682
0
0.0485314
4.67446e-07
0
3.11326e-07
1.09328e-07
1.43985e-08
2.72796e-08
0.242362
1.52201
0.0676721
0.330334
0.752868
1.49947
1.07183
-0.0147695
1.59356
-5.04028e-09
0.445676
1.16435
-0.000578343
7.55868e-07
1.41798e-05
2.00986
1.87752e-06
3.47864e-08
0.5089
1.46317e-08
1.51879
0.621231
0
-0.00139313
-8.25165e-07
-5.03346e-08
-3.24988e-06
4.67245e-07
1.48691
0.0877599
2.19744
-2.75776e-06
2.42881e-07
0
0.0312007
1.16985
1.80438e-09
-2.38965e-06
0
-1.7254e-06
0.283869
3.13228e-05
0.00687892
-9.12835e-07
1.24192e-08
8.02288e-07
0.269764
0.489912
1.18089e-05
0.0886506
0
1.19363
-1.6668e-06
0.0111745
-2.49514e-06
1.84299e-05
2.13659e-07
0.00962784
1.41088
1.33542e-10
-1.35633e-08
0.0414422
0.00179888
0.993117
-4.23507e-09
-1.03061e-08
-3.39e-06
-5.38032e-05
1.85821e-05
-1.83316e-08
0.00106124
1.55527e-05
1.04155
1.49782e-09
-4.48387e-07
2.15648e-05
0.286081
-0.000106684
2.30016e-05
1.33984
0.116911
0.103481
6.26042e-05
7.5718e-06
0.328231
-6.5956e-09
0.776521
0.000319035
1.56193
0
1.75424e-08
0.0315523
-0.000553463
-1.31669e-07
6.4721e-05
0.109658
4.2405e-05
-1.53796e-06
8.96936e-07
1.26816
2.4015
0.245609
0.145366
-1.09788e-07
4.8847e-07
1.44177e-06
0.00797589
1.93788e-08
0.943532
0.0078257
0.0198505
1.69731
0
0.0671522
1.54182
-6.0395e-10
-7.92001e-05
-0.000150337
0
0
0.000367429
-0.000266936
0.000287839
0.00122345
0.0858449
-9.51939e-09
1.13311
0.161999
7.96157e-10
0.85969
-9.97978e-05
9.90111e-05
0.0390043
1.09307e-08
4.1407e-05
1.58466
0.0007401
0.650918
6.80435e-10
0.210507
7.81442e-05
-3.45062e-05
7.1908e-05
-8.14953e-06
-8.17361e-08
4.41692e-07
4.06717e-07
0.045566
1.60018e-08
0.0102064
1.35252
0.0126452
4.37354e-08
-4.98049e-07
-6.83427e-07
0.0583391
0.900836
1.3617
0
0.00575868
0.471638
0.341947
-7.70549e-09
0.0946034
1.88031
0
0.304206
0.881129
0.451931
-5.44624e-07
9.16749e-07
-1.71599e-06
0.939031
2.27153
2.81939e-06
1.02323e-06
7.19299e-07
2.30186e-07
1.03566
-3.37693e-05
-0.000848487
4.59298e-10
7.43351e-05
-0.000559938
-0.000233302
1.66011e-05
0
0.0241435
0.442418
-8.29135e-10
0.0329821
2.21506
1.60474e-06
0.498407
-8.02675e-09
0.896291
0.389754
2.34616
-7.53857e-06
-0.000671701
4.93856e-05
0.00097404
3.36526e-10
-5.95762e-05
2.38465
0.311591
1.09138
0.122552
1.78673
0.0364582
9.90883e-05
-8.83467e-05
2.36742
0.256481
4.51671e-06
0.904927
0
0.375358
-0.000173414
0.0977968
2.86171e-09
1.53653e-08
0.000439024
0.0269777
-1.70786e-08
0.659449
-4.48514e-05
0.0337279
1.51219e-08
1.64877e-09
0.000227587
0
2.33516
0.260522
-1.89007e-06
-1.6812e-07
0.226345
-4.74991e-05
1.66837
0
0.019286
0.726452