# vtk DataFile Version 2.0
Unstructured Grid by M++
ASCII
DATASET UNSTRUCTURED_GRID
POINTS 25 float
  0.750000   0.750000 0
  0.250000   0.250000 0
  0.000000   0.250000 0
  1.000000   0.750000 0
  0.500000   0.500000 0
  0.000000   0.500000 0
  0.750000   1.000000 0
  0.000000   0.000000 0
  0.500000   0.000000 0
  0.000000   0.750000 0
  0.250000   0.500000 0
  1.000000   1.000000 0
  0.250000   0.000000 0
  1.000000   0.000000 0
  0.500000   0.750000 0
  0.500000   0.250000 0
  0.000000   1.000000 0
  0.500000   1.000000 0
  1.000000   0.250000 0
  1.000000   0.500000 0
  0.750000   0.500000 0
  0.250000   0.750000 0
  0.750000   0.000000 0
  0.250000   1.000000 0
  0.750000   0.250000 0
CELLS 16 80
4 5 2 10 1
4 8 15 12 1
4 4 10 15 1
4 7 12 2 1
4 4 14 10 21
4 5 10 9 21
4 17 23 14 21
4 16 9 23 21
4 13 18 22 24
4 8 22 15 24
4 19 20 18 24
4 4 15 20 24
4 19 3 20 0
4 4 20 14 0
4 11 6 3 0
4 17 14 6 0
CELL_TYPES 16
8
8
8
8
8
8
8
8
8
8
8
8
8
8
8
8
CELL_DATA 16
SCALARS scalar_value float 1
LOOKUP_TABLE default
0
0
0
0
1
1
1
1
2
2
2
2
3
3
3
3
