# vtk DataFile Version 2.0
Unstructured Grid by M++
ASCII
DATASET UNSTRUCTURED_GRID
POINTS 4072 float
  0.812500   0.625000 0
  0.953125   0.609375 0
  0.968750   0.609375 0
  0.875000   0.687500 0
  0.812500   0.937500 0
  0.859375   0.687500 0
  0.796875   0.937500 0
  0.968750   1.000000 0
  0.984375   0.984375 0
  0.968750   0.984375 0
  0.843750   0.656250 0
  0.875000   0.656250 0
  0.812500   0.906250 0
  0.859375   0.640625 0
  0.781250   0.984375 0
  0.843750   0.734375 0
  0.781250   0.968750 0
  0.843750   0.718750 0
  0.765625   0.968750 0
  0.828125   0.718750 0
  0.921875   0.593750 0
  0.859375   0.843750 0
  0.765625   1.000000 0
  0.828125   0.750000 0
  0.875000   0.796875 0
  0.890625   0.781250 0
  0.875000   0.781250 0
  0.921875   0.609375 0
  0.859375   0.859375 0
  0.984375   0.968750 0
  1.000000   0.968750 0
  1.000000   0.953125 0
  0.859375   0.734375 0
  0.796875   0.984375 0
  0.875000   0.734375 0
  0.812500   0.984375 0
  0.906250   0.953125 0
  0.968750   0.703125 0
  0.796875   0.750000 0
  0.812500   0.812500 0
  0.828125   0.796875 0
  0.781250   0.843750 0
  0.843750   0.593750 0
  0.953125   0.937500 0
  0.890625   0.625000 0
  0.828125   0.875000 0
  0.906250   0.625000 0
  0.843750   0.875000 0
  0.890625   0.609375 0
  0.828125   0.859375 0
  0.906250   0.609375 0
  0.843750   0.859375 0
  0.906250   0.593750 0
  0.843750   0.843750 0
  0.843750   0.765625 0
  0.859375   0.750000 0
  0.796875   1.000000 0
  0.937500   0.609375 0
  0.875000   0.859375 0
  0.765625   0.515625 0
  0.843750   0.640625 0
  0.843750   0.578125 0
  0.781250   0.828125 0
  0.843750   0.515625 0
  0.781250   0.765625 0
  1.000000   0.687500 0
  0.937500   0.937500 0
  0.828125   0.593750 0
  0.765625   0.843750 0
  0.828125   0.531250 0
  0.765625   0.781250 0
  0.765625   0.984375 0
  0.828125   0.734375 0
  0.812500   0.734375 0
  0.765625   0.765625 0
  0.781250   0.750000 0
  1.000000   0.656250 0
  0.937500   0.906250 0
  0.765625   0.750000 0
  0.968750   0.578125 0
  0.953125   0.593750 0
  0.953125   0.578125 0
  0.937500   0.593750 0
  0.875000   0.843750 0
  0.812500   0.796875 0
  0.875000   0.546875 0
  0.984375   0.953125 0
  0.984375   0.937500 0
  0.765625   0.562500 0
  0.937500   0.656250 0
  0.875000   0.906250 0
  0.765625   0.531250 0
  0.937500   0.625000 0
  0.875000   0.875000 0
  0.937500   0.859375 0
  1.000000   0.609375 0
  0.828125   0.687500 0
  0.765625   0.937500 0
  1.000000   0.781250 0
  0.812500   0.671875 0
  0.984375   0.765625 0
  0.828125   0.656250 0
  1.000000   0.750000 0
  0.937500   1.000000 0
  0.781250   0.515625 0
  0.953125   0.671875 0
  0.890625   0.921875 0
  0.781250   0.578125 0
  0.953125   0.984375 0
  0.984375   0.640625 0
  0.921875   0.890625 0
  0.968750   0.625000 0
  0.906250   0.875000 0
  0.812500   0.765625 0
  0.984375   0.859375 0
  1.000000   0.843750 0
  0.968750   0.859375 0
  0.843750   0.703125 0
  0.781250   0.953125 0
  0.843750   0.750000 0
  0.781250   1.000000 0
  0.843750   0.687500 0
  0.781250   0.937500 0
  0.828125   0.765625 0
  1.000000   0.859375 0
  0.828125   0.703125 0
  0.765625   0.953125 0
  0.968750   0.968750 0
  0.968750   0.953125 0
  0.796875   0.781250 0
  0.859375   0.531250 0
  0.968750   0.937500 0
  0.953125   0.968750 0
  0.781250   0.796875 0
  0.843750   0.546875 0
  0.953125   0.953125 0
  0.781250   0.812500 0
  0.953125   0.906250 0
  0.859375   0.781250 0
  0.859375   0.703125 0
  0.796875   0.953125 0
  0.859375   0.765625 0
  1.000000   0.734375 0
  0.937500   0.984375 0
  0.828125   0.578125 0
  0.765625   0.828125 0
  1.000000   0.796875 0
  0.828125   0.640625 0
  0.984375   0.734375 0
  0.921875   0.984375 0
  0.812500   0.640625 0
  0.890625   0.953125 0
  0.953125   0.703125 0
  0.796875   0.687500 0
  0.968750   0.781250 0
  0.968750   0.750000 0
  0.906250   1.000000 0
  0.953125   0.765625 0
  0.812500   0.718750 0
  0.843750   0.984375 0
  0.906250   0.734375 0
  0.921875   0.625000 0
  0.859375   0.875000 0
  0.921875   0.687500 0
  0.859375   0.937500 0
  0.968750   0.796875 0
  0.796875   0.703125 0
  0.937500   0.671875 0
  0.984375   0.796875 0
  0.812500   0.703125 0
  0.765625   0.687500 0
  0.937500   0.843750 0
  1.000000   0.593750 0
  0.937500   0.781250 0
  1.000000   0.531250 0
  0.812500   0.781250 0
  0.984375   0.875000 0
  0.843750   1.000000 0
  0.906250   0.750000 0
  0.968750   0.500000 0
  0.968750   0.718750 0
  0.906250   0.968750 0
  0.796875   0.625000 0
  0.859375   1.000000 0
  0.921875   0.750000 0
  0.968750   0.765625 0
  0.796875   0.609375 0
  0.859375   0.984375 0
  0.921875   0.734375 0
  1.000000   0.625000 0
  0.937500   0.875000 0
  1.000000   0.562500 0
  0.937500   0.812500 0
  0.875000   0.984375 0
  0.937500   0.734375 0
  0.906250   0.703125 0
  0.843750   0.953125 0
  0.906250   0.687500 0
  0.843750   0.937500 0
  0.937500   0.765625 0
  0.890625   0.718750 0
  0.828125   0.968750 0
  0.890625   0.703125 0
  0.828125   0.953125 0
  0.921875   0.781250 0
  0.906250   0.796875 0
  0.921875   0.718750 0
  0.859375   0.968750 0
  0.921875   0.703125 0
  0.859375   0.953125 0
  0.765625   0.546875 0
  0.937500   0.640625 0
  0.875000   0.890625 0
  0.937500   0.703125 0
  0.875000   0.953125 0
  0.765625   0.593750 0
  0.937500   0.687500 0
  0.875000   0.937500 0
  0.890625   0.937500 0
  0.953125   0.687500 0
  0.906250   0.718750 0
  0.843750   0.968750 0
  0.937500   0.796875 0
  0.828125   0.921875 0
  0.890625   0.671875 0
  0.984375   0.750000 0
  0.921875   1.000000 0
  0.812500   0.593750 0
  0.875000   0.968750 0
  0.937500   0.718750 0
  0.890625   1.000000 0
  0.953125   0.750000 0
  0.968750   0.671875 0
  0.906250   0.921875 0
  0.968750   0.734375 0
  0.906250   0.984375 0
  0.796875   0.578125 0
  0.984375   0.671875 0
  0.921875   0.921875 0
  0.812500   0.515625 0
  0.812500   0.578125 0
  0.765625   0.578125 0
  0.843750   0.906250 0
  0.906250   0.656250 0
  0.890625   0.750000 0
  0.828125   1.000000 0
  0.781250   0.593750 0
  0.984375   0.546875 0
  0.921875   0.796875 0
  0.921875   0.812500 0
  0.859375   0.656250 0
  0.859375   0.593750 0
  0.796875   0.843750 0
  0.859375   0.578125 0
  0.796875   0.828125 0
  0.921875   0.953125 0
  0.984375   0.703125 0
  0.984375   0.625000 0
  0.921875   0.875000 0
  0.875000   0.640625 0
  0.812500   0.890625 0
  0.875000   0.578125 0
  0.812500   0.828125 0
  0.765625   0.859375 0
  0.828125   0.609375 0
  0.937500   0.953125 0
  1.000000   0.703125 0
  0.921875   0.906250 0
  0.984375   0.656250 0
  0.921875   0.968750 0
  0.984375   0.718750 0
  1.000000   0.765625 0
  0.890625   0.984375 0
  0.953125   0.734375 0
  0.953125   0.656250 0
  0.890625   0.906250 0
  0.953125   0.718750 0
  0.890625   0.968750 0
  0.781250   0.562500 0
  0.796875   0.796875 0
  0.968750   0.640625 0
  0.906250   0.890625 0
  0.953125   0.796875 0
  0.953125   0.859375 0
  0.781250   0.703125 0
  0.984375   0.781250 0
  0.875000   1.000000 0
  0.937500   0.750000 0
  0.906250   0.937500 0
  0.968750   0.687500 0
  0.843750   0.625000 0
  0.781250   0.875000 0
  0.765625   0.796875 0
  0.937500   0.890625 0
  1.000000   0.640625 0
  0.781250   0.781250 0
  0.906250   0.906250 0
  0.968750   0.656250 0
  0.796875   0.765625 0
  1.000000   0.718750 0
  0.937500   0.968750 0
  0.828125   0.562500 0
  0.765625   0.812500 0
  0.828125   0.625000 0
  0.484375   0.750000 0
  0.421875   1.000000 0
  0.000000   0.218750 0
  0.453125   0.640625 0
  0.281250   0.546875 0
  0.312500   0.640625 0
  0.406250   0.984375 0
  0.468750   0.734375 0
  0.328125   0.656250 0
  0.390625   0.828125 0
  0.453125   0.578125 0
  0.437500   0.875000 0
  0.015625   0.093750 0
  0.312500   0.531250 0
  0.406250   0.937500 0
  0.343750   0.562500 0
  0.281250   0.812500 0
  0.453125   0.984375 0
  0.359375   0.625000 0
  0.296875   0.875000 0
  0.468750   0.796875 0
  0.046875   0.015625 0
  0.437500   0.656250 0
  0.312500   0.578125 0
  0.421875   0.921875 0
  0.000000   0.140625 0
  0.484375   0.671875 0
  0.265625   0.734375 0
  0.468750   0.984375 0
  0.046875   0.203125 0
  0.406250   0.625000 0
  0.390625   0.609375 0
  0.375000   0.625000 0
  0.265625   0.562500 0
  0.484375   0.812500 0
  0.062500   0.031250 0
  0.484375   0.984375 0
  0.062500   0.203125 0
  0.312500   0.890625 0
  0.375000   0.640625 0
  0.375000   0.671875 0
  0.390625   0.687500 0
  0.484375   0.843750 0
  0.390625   0.500000 0
  0.328125   0.687500 0
  0.328125   0.765625 0
  0.390625   0.515625 0
  0.437500   0.796875 0
  0.484375   0.531250 0
  0.468750   0.968750 0
  0.046875   0.187500 0
  0.453125   0.843750 0
  0.453125   0.812500 0
  0.281250   0.718750 0
  0.468750   0.859375 0
  0.265625   0.984375 0
  0.375000   0.765625 0
  0.296875   0.562500 0
  0.484375   0.781250 0
  0.062500   0.000000 0
  0.453125   1.000000 0
  0.031250   0.218750 0
  0.453125   0.546875 0
  0.312500   0.703125 0
  0.328125   0.718750 0
  0.296875   0.656250 0
  0.281250   0.640625 0
  0.265625   0.656250 0
  0.281250   0.671875 0
  0.484375   0.890625 0
  0.062500   0.109375 0
  0.296875   0.687500 0
  0.296875   0.625000 0
  0.265625   0.703125 0
  0.265625   0.687500 0
  0.265625   0.625000 0
  0.953125   0.046875 0
  0.484375   0.875000 0
  0.484375   0.921875 0
  0.062500   0.140625 0
  0.453125   0.921875 0
  0.031250   0.140625 0
  0.968750   0.234375 0
  0.171875   0.671875 0
  0.500000   0.796875 0
  0.078125   0.015625 0
  0.218750   0.718750 0
  0.062500   0.828125 0
  0.734375   0.250000 0
  0.906250   0.140625 0
  0.109375   0.578125 0
  0.781250   0.015625 0
  0.718750   0.187500 0
  0.031250   0.828125 0
  0.718750   0.234375 0
  0.890625   0.125000 0
  0.093750   0.562500 0
  0.734375   0.359375 0
  0.859375   0.546875 0
  0.062500   0.984375 0
  0.750000   0.406250 0
  0.718750   0.343750 0
  0.250000   0.750000 0
  0.234375   0.734375 0
  0.046875   0.578125 0
  0.734375   0.000000 0
  0.828125   0.125000 0
  0.031250   0.562500 0
[...]
POINT_DATA 4072
SCALARS scalar_value float 1
LOOKUP_TABLE default
0.00265322
-0.00713821
-0.0035847
0.000360577
0.00999732
-0.0205864
-0.00429436
0
0.0555343
0.0138129
0.0059698
-0.0120035
0.0348831
-0.00990487
0.013105
0.0102082
0.00700172
0.0145857
-0.0166415
-0.0106785
-0.0135961
0.0153825
0
-0.00835985
0.0214065
0.0185924
-0.0118698
0.00325025
-0.0193561
0.0248656
-0.0569426
0.0343786
0.00151864
0.0573443
-0.014381
-0.0212001
-0.0201319
0.0106818
0.002114
-0.0175006
-0.0202406
-0.00121739
0.000754803
0.020424
0.0257363
-0.00238542
-3.64613e-05
-0.01637
0.0235113
-0.019406
-0.00442776
0.0156875
0.00689185
-0.0242312
0.0171651
-0.00712932
0
0.00867656
0.0191894
0.0137366
0.0191271
0.00360917
0.00535728
0.00701747
-0.00730534
-0.0298481
-0.0321884
0.000591402
-0.0202005
-0.00591117
0.0317371
0.0215436
-0.0169014
0.021886
0.00975583
-0.016008
-0.0205845
-0.0234471
0.00267811
-0.00513302
-0.0137019
-0.00200397
0.0145589
-0.0301624
0.0284414
0.0158602
0.0103145
0.058998
0.0033463
-0.00485666
0.00256251
-0.00625342
0.00912158
-0.0519752
-0.00606651
-0.0240206
-0.0285153
-0.0128437
0.00802852
-8.67117e-05
0.0317228
-0.0226107
-0.0157216
0
0.00309118
-0.0265252
-0.0292519
0.00206859
0.00747478
0.0066503
0.00518176
-0.00248207
0.0357786
0.0148964
0.0253758
-0.0239295
-0.0174737
-0.0109748
0.00406349
-0.00354714
0
0.0258281
0.0405879
-0.0144161
-0.00230272
0.00452748
-0.0202175
0.0094449
0.0181813
0.0232762
-0.00250435
-0.010171
0.0118542
0.0158924
0.00423314
-0.00572767
-0.0394167
0.0148286
-0.00949683
0.0149754
0.071439
-0.0148327
-0.0205117
-0.0226632
-0.00224548
0.00580768
-0.0465106
0.00215799
0.0188361
0.0154709
0.0052058
-0.0161621
-0.0293256
-0.0227776
0.0165798
0.018875
0
-0.00624626
0.00981517
-0.0265492
-0.0115518
-0.00747474
0.00481011
-0.00122687
0.0139258
-0.0113609
0.00230983
0.0112312
0.0239018
0.0135664
0.00960242
0.0244372
-0.0260608
0.0051552
-0.0230683
0.00976638
0.0141239
0
0.0169495
-0.0161047
0.00911416
0.0330435
-0.0127239
0
-0.0133522
-0.00281657
-0.0106756
0.0133343
0.0173016
-0.0222207
0.033519
-0.0260074
0.0042101
0.0112068
-0.0219851
-0.000906479
-0.0122561
0.000793917
-0.0179542
-0.0171909
-0.00628073
0.0091786
0.0355065
0.00177275
0.00347052
0.0137763
-0.0136276
0.0244226
0.0072932
-0.0100641
0.0109856
0.00927996
0.000809818
-0.00235005
0.00659655
0.00746308
-0.00877887
0.0170574
-0.0473436
-0.0157957
0.0173318
-0.0123697
0.0145995
0.012429
0.0200136
0.00352321
0
-0.00409225
-0.0172294
0.00524669
0
-0.0390569
0.00479078
0.0258143
0.00544501
0.00366146
-0.00942022
0.00259893
-0.0304549
0.00760957
0.0105982
0.00188629
-0.0156231
-0.00735879
0.00242621
0
-0.0185152
0.00256749
-0.00720563
-0.00846451
-0.00376373
-0.0173552
0.0243705
-0.00278191
0.00641453
-0.00176566
0.00296503
-3.73143e-06
-0.0218931
-8.14362e-05
0.0260415
0.0194365
0.0395186
0.0142227
-0.00946023
-0.00458044
-0.0175005
0.0458412
0.00420398
-0.00641943
0.012183
-0.0430643
-0.0559096
-0.01505
-0.0234481
0.00103976
-0.0235423
-0.022815
-0.015805
-0.00240508
-0.00257505
0.0313675
-0.0158079
-0.0149818
-0.00255829
0.0129091
0
0.0150301
0.00719492
0.00295037
-0.00807974
0.0434929
-0.0186072
-0.0171712
-0.0321648
-0.0307158
-0.0395437
0.00306078
0.0100749
-0.0357209
-0.0118432
-0.00560896
0.0305665
-0.00286098
0.0228305
0
0.004241
0.00034733
0.00307237
-0.00163851
0.0191167
-0.00401718
0.00206987
0.0245135
-0.0184737
0.0702917
-0.00597788
0.087418
0.00683718
-0.0212948
0.00713923
-0.0554065
0.00104048
-0.0184936
-0.000558304
0.00176374
-0.00424029
0.00139259
0.000262863
0.00435795
-0.00181541
0.0262298
0.0415454
-0.0071682
-0.00484838
0.0155592
-0.0207258
0.00630592
-0.0183698
-0.00321818
0.00293818
1.27146e-05
-0.00904766
0.0033927
-0.00143065
0.0134685
-0.000706954
0.40177
0.00233582
-0.0139018
0.0254514
-0.00099405
0.0185505
-0.0183479
-0.00636821
-0.0371767
0.0170905
0.00086239
-0.0104118
0.0277778
-0.0181781
0.399291
0.00563873
-0.00245207
0
0.00721167
0.012113
0.0191134
-0.0107554
-0.00842134
0.0131322
0.0306012
-0.000972975
0.0200017
-0.000596117
-0.00475534
0.000588246
0.0281964
0.0335603
-0.0331352
0.000190696
0.00170024
-0.00174009
0.0165855
-0.025699
0.00505137
-0.00234064
0.0140183
0.0012705
9.08018e-05
-0.0133714
-0.0126319
0.00810139
-0.000916044
-0.0298361
0.00126893
0.115624
-0.0197444
0.112255
0.00102353
-0.0116233
0.00648401
-0.00185637
-0.00511987
-0.00603914
0.0444591
-0.0133104
-0.00992636
-0.0199362
0.0176309
-0.000921174
-0.0155114
0.0182946
0.0213361
0.0301767
-0.0149078
0.00103949
-0.023761
-0.00695054
0.0284756
-0.0237616
-0.00571614
-0.00063298
-0.00216825
0.0564743
-0.00504323
-0.00609458
0.197416
-0.0022867
-0.000534801
0.033052
0.00125303
0.00162121
0.00840648
0.000837543
-0.0163865
-0.0310799
0.014193
0.00062053
-0.00908723
0.00280862
8.58502e-05
0.000322909
-0.0110532
-0.000466141
-0.00111662
0.0508416
0.000309202
0.0373913
0.00142984
-0.00899245
-0.000729025
0.00748175
0.194177
0.0146867
-0.0353154
0.00225488
0.0185081
-0.0422655
0.0525627
0.00554433
0.0193331
-8.05192e-05
0.0869425
0
0.0318765
0.0167817
-0.00543348
-0.0141939
-0.0210458
-0.00274286
0.128119
-0.000938931
-0.000837792
0.00567897
0.000884898
-0.00517601
0.0592264
-0.00537575
-0.00305949
0.000108979
0
-0.0147377
0.00152772
0.0503275
0.0100543
0.00131367
-3.1597e-05
0.0143484
0.0362238
-0.0130599
0.0010457
-0.0142269
0.00119344
0.000622069
0.0230129
0.00696943
0.000983112
-0.0107583
-0.00609932
-0.000796706
0.000264022
0.0309397
0.000516675
-0.000408073
-0.0221194
0.00190876
-0.00519462
0.00133347
0.000390283
0.0353475
-0.00532057
0.00136839
0.0124915
-3.64646e-05
0.0333952
0.0519248
0.00405949
-0.00595652
-0.0017426
0.00564184
0.0195972
-0.000791514
0.0364414
-0.00100158
-0.00287097
0.0127051
0.00445945
0.00460037
-0.000179597
0.00131347
-0.010752
-0.0246292
0.0113143
0.141104
0.0243417
0.0123882
0.179963
-0.00956371
0.000449704
-0.0079079
0.0222534
0.00477042
-0.0060009
0.166617
-0.00465477
-0.00991148
0.0111595
0.00445143
0.00635308
-0.0147919
-0.0227531
-0.00072941
-0.0260038
0.00448661
-0.00347531
0.000979604
-0.00441807
-0.011024
-0.00108363
-0.0237437
-0.00755467
-0.0032787
0.00141462
-0.00830007
-0.00772881
-0.00885751
-0.0227298
-0.0320117
0.000999837
0.030986
0.00165287
0.00605776
-0.00208263
-0.0298836
-0.00818044
0.122298
-0.00190207
0.0107743
0.170078
0.0223575
-0.000698246
0.0235044
-0.0195106
-0.00289042
0.00058624
0.00810104
-0.000210492
-0.00399461
0.190582
0.000964091
0.0516409
0.00564702
-0.0172377
0.00369242
0.00931985
0.0163897
0.000765861
-0.0104647
0.146224
-0.0225699
-0.0011826
0.0105766
0.0178419
-0.0130097
-0.00526665
0.00943495
0.00127994
-0.00428645
0.00892831
-0.0196405
0.0332289
-0.00491805
-0.0128471
0.00187656
-0.00139765
-0.0301728
-0.00908188
-0.0186055
0.000239138
-0.0150671
-2.67493e-05
0.000736385
-0.0118853
-0.00791772
0.00291532
0.0125486
0.00043733
-0.00624469
0.0070417
0.18133
0.212706
-0.00341557
0.19621
-0.00205389
-0.0201606
0.197236
0
0.0235281
0.195014
0.0323584
0.00573689
0.0291915
0.0552436
0.00996606
-0.00703694
-0.034629
0.130256
0.0160121
0.00474694
-0.0122114
-0.0029267
-0.00965484
0.182387
-0.0350486
0.166795
0.00390466
0.0201451
0.18565
-0.00806226
-0.0125098
0.0569548
0.00401054
-0.000600067
0.0134002
0
0.00654343
0.0830017
-0.0182435
-0.0079969
-0.00426572
-0.000755546
-0.0312897
0.00410094
0.000738362
-0.00350953
-0.0107942
-0.0114149
0.000881858
-0.00285421
-0.00958887
0.0294458
0.00265834
-0.00858842
-0.000698869
-0.0197534
-0.000629279
0.0031599
-0.0112797
-0.00202566
-0.0116949
-0.00284085
0.0243871
0
0
-0.00250979
0.170108
-0.0288336
0.0321979
-0.0188708
0.0112206
0.0424389
-0.0452104
-0.00471181
0.0219926
0.146614
0.00680393
0.000492477
-0.000456767
0.0156145
0.133056
0.00170196
-0.00261971
0.18192
0.140766
0.191378
-3.86965e-05
9.14481e-05
0.0320401
0.138201
0.294872
0.0768227
0.0349483
0.128825
0.0167536
0.0873209
-0.000998178
-0.0173809
0.0456253
0.222193
0.0576102
-0.004272
0.216011
0.00136155
-0.0558364
0.0315657
0.153192
0.0696026
0.163397
0.0321816
0.180485
0.0532036
0.223996
-0.00939318
0.228494
0.0937093
0.096214
0.226774
0.0295586
-0.00220885
0.024147
-0.0183481
0.00477917
0.222099
-0.0800058
-0.0339862
0.226404
-0.0556763
0.143048
0.21637
-0.0167935
0.22537
0.017124
0.194903
0.0235577
0.22886
0.00537994
0.208441
0.00254184
0.202717
0.0534958
-0.0374668
0.200673
-0.0168797
0.0170234
0.215282
0.0777667
0.163841
0.018081
0.110976
0.128811
0.141119
0.0566181
0.148468
0.0100833
0.000187283
0.157977
-0.00750824
0.185449
0.118222
0.302061
0.0555508
0.266875
0.0416227
0.157964
0.0132406
-0.0231021
0.00460895
-0.0124919
0.0617018
0.214836
0.146433
-0.0125959
-0.00580894
0.00180955
0.161035
0.0240513
0.236252
0.191304
0.027198
0.0623751
0.0371033
-0.0217274
0.132259
0.100816
0.0355453
0.0295781
0.181535
0.01746
0.00391409
0.0172742
0.171649
-0.0228783
-0.0177622
0.188645
0.00961484
0.0353494
0.00165897
0.168946
0.0169983
-0.0744331
0.0303003
-0.00283707
0.282224
0.153475
0.0481497
0.175682
0.183329
0.0960331
0.146415
0.00783543
3.80351e-05
0.136536
0.171161
0.117781
0.155307
0.162225
0.136884
0.0150923
0.183364
0.0226067
-0.015929
0.213433
-0.00274329
0.0100902
0.0710168
0.0545146
0.178952
0
0.0107931
0.18368
0.0389441
0.0497377
0.192291
-0.00928585
0.0919176
-0.0440622
0.111036
0.169807
-0.00704945
-0.00272945
0.169249
0.0444579
0.154661
0.0988152
0.156756
-0.0557127
0.13374
0.197608
0.125265
0.0563533
0.0988182
0.00744856
0.023109
-0.00707457
-0.0266133
0.00442826
-0.012703
0.0055707
0.0865257
-0.0135241
0.0243399
0.117351
0.25633
0.116073
-0.0109719
-0.00428843
-0.00571676
0.256827
0.100198
0.19108
0.0332592
-0.00928212
-0.0215815
0.0020825
0.210796
0.0141524
0.0365937
0.188197
0.0588049
-0.0101648
0.00848964
4.25803e-05
0.195296
-0.0380306
-0.000495288
0.026704
-0.00184162
0.207231
0.0413122
0.144581
0.175063
0.0449749
0.0873101
-0.0150122
0.113715
0.0423362
0.00953525
0.0392978
0
0.00446756
0.220139
-0.0471188
0.221367
-0.0269327
-0.0113286
0.102533
0.22481
0.00721257
0.0477028
0.21543
0.0100945
-0.0913435
0.2241
0.0731518
0.133107
0.17981
0.123518
-0.00809973
0.0024109
0.205984
0.026324
0.196877
-0.000749018
0.0861627
0.0638095
0.00635747
0.00162076
0.266455
-0.000848005
-0.00591096
0.154975
-0.0187796
0.141703
0.0226677
0.00961856
0.205249
0.0029755
-0.0190771
0.00906677
0.01394
0.00518683
0.0752186
0.23715
0.00730549
0.125154
0.00395894
0.181974
-0.00751508
0.0397303
0.148284
0.00261992
0.159687
0.035687
0.0152692
0.180399
0.0292431
-0.0415134
0.165305
0.127613
-0.0244312
0.00442146
0.180549
-0.00252346
-0.0157156
0.00306745
0
-0.00967716
-0.0243472
0.280148
0.178024
0.261288
0.150598
0.0275634
-0.00366737
0.00731571
0.00413678
0.0156563
0.0145891
0.123213
0.14144
0.0497192
-0.017014
0.122022
0.081613
0.1349
0.0640269
0.028086
0.184968
-0.0117703
0.0145971
0.00913292
0.00519827
0.109732
0.000916634
0.0164303
-0.00410029
0.00570207
-0.0185974
0.00957267
0.0053779
0.0987964
0.00626498
-0.00365943
-0.00617586
0.0107458
0.0133857
0.00553311
-0.0461284
0.00552697
0.0048871
-0.00594947
0.00925473
-0.0376479
0.0106934
-0.000346994
-0.0062639
0.0222994
0.0168698
0.0217214
0.000176118
-0.00171356
-0.00793719
-0.00707269
-0.000172293
0.00177035
0.0164719
-0.0181633
-8.18596e-05
-0.00204852
0.00203184
0.012607
-0.0141347
0.00193706
-0.00488036
0.0243447
0.0208639
-0.00536695
-0.099486
-0.00236457
0.0275923
0.00200402
0.0042238
-0.0117425
-0.00251617
-0.0192847
-0.00300618
0.00784195
0.00551852
-0.00434038
-0.0126933
0.00386521
0.0055649
-0.0027443
0.0114165
0.0314626
0.0892996
-0.0282604
0.0549725
0.000142309
0.00182367
0.047999
0.0192628
-0.014015
-0.0142936
-0.000148132
0.00797823
-0.0056551
-0.0414714
-0.0024858
0.0241046
0.00170245
0.019258
-0.00545858
0.0243364
-0.00516636
-0.0028532
-0.000323325
0.00400859
-0.00298413
-0.00165883
-0.00530698
0.00618128
0.00409128
0.00670436
-0.00246733
-0.0460169
-0.00901419
0.0181561
0.0115688
0.00472827
-0.014407
0.00443647
0.00290509
-0.00931221
0.00352481
0.0169589
0.0014919
-0.0456957
-0.0013209
0.0387932
-0.00338904
0.010701
-0.000119435
-0.014979
0.0428388
-0.00271998
0.0095828
0.017316
0.0018444
0.004552
-0.00460581
0.00471298
0.0125447
-0.000723076
0.00267667
0.000507371
0.00307615
-0.03364
-0.0300515
-0.0191585
-0.0109684
0.0313085
0.000435712
0.00465627
-0.121433
-0.0170534
0.0812254
-0.00125967
-0.0275101
0.0190254
0.0301611
-0.00163719
-0.00444329
-0.000981287
-0.00887469
0.00441855
-0.0065452
-0.00282053
-0.000669599
-0.00807395
0.00211117
0.033439
-0.00564736
-0.002235
0.00947126
0.0266956
0.00226009
0.0037775
-0.0478262
0.00318156
-0.00419405
-0.0100697
0.00300527
-0.00430762
0.0130015
-0.00315942
0.0339591
-0.00780206
-0.00251135
-0.0121466
-0.00175775
0.00813328
-0.00277371
0.00679784
-0.00555062
0.0107493
0.0132197
0.00376122
0.00372689
0.00348753
-0.0225384
0.000734843
-0.00398326
-0.00298563
0.00364188
0.0088512
0.0298398
-0.154777
0.00391031
0.0345054
0.0188232
0.00497256
0.00462049
0.00802034
-0.00521226
0.0203071
-0.0233584
0.00477257
0.0414061
-0.0183344
0.000102171
0.00302367
-0.00296057
0.00084564
0.00536881
0.0510825
0.000996149
-0.00979224
0.0382567
4.44571e-05
0.0347301
0.0384847
0.00222605
0.0151054
-9.55054e-05
-0.00271265
-0.0102707
-0.00506329
0.00371988
-0.0451701
0.00422823
0.00019748
0.0027714
-0.0302746
-0.00109479
-0.0199869
-0.0348154
0.0014784
0
0.00712245
-0.000208937
-0.03898
-0.023185
-0.00144287
-0.00985739
-0.00181202
-0.040551
0.00556153
0.00817837
-0.0241194
0.103388
0.00970462
-0.0014443
0.00667785
-0.041276
0.0112359
0.032035
0.00437264
0.15664
-0.0636889
0.003618
0.00932129
0.0201968
0.0154708
-0.00386415
0.00934388
0.00893477
0.0186654
-0.00282497
-0.00629321
0.0151503
-0.00691042
-0.00223428
0.0179536
-0.0247204
0.00490964
-0.00536647
0.00212905
0.00582113
-0.000807479
-0.00335102
-0.0110119
0.00905237
-0.00454557
0.032995
-0.0180202
0.00440014
0.0320579
-0.0188039
0.0151002
-0.0206926
-0.00298254
0.00399248
-0.0076224
-0.00550749
-0.000625529
-0.037353
-0.00834674
-0.000505016
-0.0292783
0.0197413
-0.0393147
0.00919422
0.00408371
0.00173238
0.00493885
-0.0327473
0.0177992
0.00459202
0.00604936
0.000801011
-0.017584
0.000544547
-0.000669143
0.0271642
-0.00525082
-0.0186171
-0.00399826
0.0333221
-0.0196949
0.0040979
0.0123419
0.00369501
0.000725146
0.0382079
-0.00184925
-0.0114197
-0.0327509
0.00626622
0.000134835
-0.00455095
-0.00324127
0.00148419
0.0210698
-0.00428833
0.0285006
0.0195993
-0.0219352
0.00290218
-0.0010444
-0.0956085
0.101261
0.0514993
0.0618849
0.00205491
0.00399548
0.031182
0.116983
0.00609474
-0.00885011
-0.000488334
-0.0175065
-0.108702
0.129541
0
0.0374533
-0.00204781
0.0354035
0.022223
-0.0157304
-0.000788616
0.00116475
0.0140685
0.000525833
-0.00511782
-0.0271406
0
0.0237601
0.000693458
-0.0109028
0.0123113
-0.03455
0.00654631
0.00417548
0.0288104
0.22414
-0.00127126
0.0013451
-0.00474454
-0.0151597
0.0342361
0.00297012
0.00439566
-0.0100179
0
-0.000449406
-0.0147638
-0.0219747
0.0425497
-0.00495207
-0.0405787
-0.0351276
-0.00806981
0.0403348
0.00333794
0.00337126
-0.00281892
-0.000218445
-0.00896109
0.0003959
0.012274
0.00317392
-0.00536168
-0.0141291
0.000682504
0.0147854
0.0144911
-0.00642233
-0.0240442
0.00177566
-0.00148541
0.00356069
0.00255127
-0.0131992
0.0104005
0.00526939
-0.00711064
-0.0212007
0.00108699
0.0112179
-0.00472764
-0.0087844
0.00547484
0.0115915
0.0102803
0.00359262
0.181087
0.00318812
0.0272064
-0.00353287
0.00157497
0
-0.0248228
-0.01135
-0.0199826
0.00232646
-0.0636144
0.00962704
0.00555931
0.00100912
0.000833014
0.00818115
0
-0.0213768
-0.00324536
0
-0.00523423
5.06996e-05
-0.000271476
0.00387246
0.00577026
0
-0.0155353
0.00168038
0.118009
-0.0366826
0.000314992
0.0131433
0.00157769
-0.0365429
-0.00489059
0
0.0213513
0.0070565
-0.0178369
-0.00330956
0.125278
0.00110125
-0.00412627
0.00481891
-0.0166905
0.0211377
-0.00528514
0.00981084
0.00295411
-0.00141986
0.00913162
0.0219988
0.00858762
0.00110565
-0.0404036
-0.00723179
0.000501155
-0.00615514
0.0226203
-0.0170901
0.00374402
-0.0275056
0.106934
0.00140359
-0.00405891
0.000687973
-0.0070942
-0.00498089
0.00165802
-0.00427978
-0.0180715
-0.0427902
0.113716
0.000347622
-0.00884534
0.0214434
0.00436163
-0.0128287
-0.00740677
0.0319451
-0.00141596
-0.00584234
-0.0677132
-0.0340699
-0.00594119
0.139258
0.0220134
-0.000217123
0.0226359
0.00372735
-0.00223824
0.141924
0.0056816
0.0404706
0.0739472
0.00104789
0.0108611
0.122384
0.0794602
-0.0034546
0.00270589
0.145102
-0.0430794
-0.00732178
0.00116081
-0.0350423
0.0348593
0.0281988
0.000397857
-0.00348323
-0.014945
0.0419295
0.0441866
0.174305
-0.00421505
0.0262017
0.00245869
0.0230277
0.0231689
-0.00481691
-0.0457695
0.000739787
0.0196899
0.0268254
-0.00576319
0.00272433
-0.0106647
-0.000927486
-0.0311329
-0.0140432
0.00896716
0.0165145
0.0162541
0.0298939
0.0190852
0.00196465
0.00638183
0.0223667
0.00332972
0.00616527
-0.0043972
0.00664398
0.00634302
-0.0058336
0.00432004
0
-0.000105624
0.0423552
0.0212552
-0.00390005
-0.00778739
-0.00843811
-0.0281427
-0.0126869
0.00258683
0.00158789
-0.00454844
0.00161473
0.0937329
0.000460041
0.0411066
-0.00943745
-0.00563119
0.0281086
-0.00554004
0.0119476
0.000127602
0.0108882
-0.000224038
-0.0133106
0.00172811
0.0186765
0.00297735
-0.00172698
0.00873695
0.00550856
0.0315135
-0.0156252
0.00728662
-0.000392809
-0.00593101
0.0111086
0.0191972
-0.0282132
0.00852825
0.0137351
0.014682
-0.00502465
0.025526
-0.0170797
-0.00400574
0.00720122
0.0110309
0.0118234
0
-0.0177858
-0.0117903
0.00183269
0.0155018
0.0162849
0.190169
-0.0224579
-0.0365278
0.000747788
0.0241598
-0.0151832
0.0256479
0.00858438
-0.108365
0.0032998
0.158826
0.00920763
-0.0200408
0.016795
-0.0121006
-0.0349522
0.0199388
-0.0157449
0.013799
0.00624794
-0.0454557
0.0227654
0.00290986
0.016464
0.000211843
0.00252196
-0.0631322
0.000714519
-0.00219655
0.0264074
0.0657138
0.135405
0.0127903
0.0061982
0.00544527
-0.0391833
0.00150619
0.11167
0.138703
-0.0319576
0.0680983
0.00249657
0
0.00307137
0.114315
-0.0127188
0.00501634
-0.0447304
-0.00492928
0.0496394
-0.0533502
0.0128758
-0.0139275
-0.105873
0.000772941
0.175984
0.00402662
-0.0212604
0.00375085
0.155721
-0.00334648
0.0203959
-0.00174704
-0.0284428
0.0124605
-0.0748596
-0.150232
-0.00168442
0.00850374
0.0265197
-0.0173242
-0.00167336
0.00177446
0.0046854
-0.00701245
0.0122613
0.00271709
0.160795
0.00588156
-0.0422254
-0.0101326
0.0118134
1.65515e-05
0.189936
0.091583
0.194564
-0.00301525
0.134812
0.0541738
0.00606912
0
0.0155804
0.000496987
-0.00421122
0.00597867
0.0911208
-0.00275686
0.104061
0.00693348
-0.0486646
0.138356
-0.00676951
0.0185212
0.232891
0.00178991
0.0603302
-0.003234
-0.00576597
-0.00896852
0.017799
-0.00850022
0.171644
0.0313948
-0.0288559
0.197591
-0.00522192
-0.0126457
0.197336
0.0403492
0.0253085
0.0126246
-0.0443871
-0.00377823
-0.00570225
0.0148776
0.011285
0.0252454
0.00595279
-0.00369067
0
0.00571684
-0.0190472
-0.00815417
0.00441379
0.0109946
-7.03407e-05
-0.0147399
-0.000863775
-0.00458386
-0.00808472
0.0096175
-0.00216475
-0.0683504
0.00405708
0
-0.000383289
0.0535041
-0.0129955
-0.000240079
-0.0320424
0.00135972
0.0293091
-0.00160101
0.00277904
0.0359501
-0.00566356
0.00320245
-0.00666348
-0.00672049
0.00175237
0.00988594
0.00378673
0.184854
-0.00428304
0.00399997
0.000894155
-0.00161622
-0.00112457
0.159586
-0.0359242
0.00303415
-0.00106776
0.00240027
0.0243067
-0.0146516
-0.0177439
0.0256267
0.0275636
-0.0367881
-0.0425662
-0.00819907
0.0119495
-0.0149537
-0.00374479
0.0226693
-0.0123761
-0.017555
0.0171212
0.00377757
0.0251758
-0.022079
0.0443882
-0.00571342
0.0631325
0.0238285
0.00617309
0.000636729
0.00644534
3.28325e-05
0.00410232
-0.0112989
-0.00368763
-0.000413459
-0.00467031
0.00874479
-0.00896011
-0.000410089
0.00549142
0.000898276
-0.0027224
-0.000301434
-0.00170141
-0.00741361
0.00487954
0.00415712
0.0489209
-0.0181617
0.0223937
-0.00311154
0.0147511
0.0127827
-0.000349938
0.00528571
-0.0198907
0.00379615
-0.0185454
0.01128
-0.00650498
0.00658215
0.00193395
-0.0172026
0.00747077
0.00461941
0.0290851
0.000753979
-0.00461334
0.0205505
-0.00697118
0
-0.00107128
0.012245
0.00584396
-0.00139292
0.0130625
-0.0341426
-0.0147087
0.0193844
-0.00146294