# vtk DataFile Version 2.0
Unstructured Grid by M++
ASCII
DATASET UNSTRUCTURED_GRID
POINTS 15808 float
  0.804688   0.710938 0
  0.804688   0.742188 0
  0.882812   0.984375 0
  0.812500   0.937500 0
  0.796875   0.984375 0
  0.875000   0.726562 0
  0.804688   0.656250 0
  0.945312   0.625000 0
  0.867188   0.828125 0
  0.773438   0.984375 0
  0.953125   0.546875 0
  0.781250   0.984375 0
  0.781250   0.976562 0
  0.976562   0.882812 0
  0.906250   0.945312 0
  0.953125   0.632812 0
  0.828125   0.734375 0
  0.937500   0.562500 0
  0.757812   1.000000 0
  1.000000   0.539062 0
  0.820312   0.976562 0
  0.953125   0.773438 0
  0.773438   0.937500 0
  0.828125   0.929688 0
  0.789062   0.937500 0
  0.835938   0.937500 0
  0.898438   0.750000 0
  0.921875   0.773438 0
  0.984375   0.523438 0
  0.804688   0.960938 0
  0.859375   0.960938 0
  0.765625   0.617188 0
  0.820312   0.945312 0
  0.804688   0.992188 0
  0.914062   0.921875 0
  0.835938   0.546875 0
  0.929688   0.945312 0
  0.953125   0.992188 0
  0.828125   0.507812 0
  0.859375   0.625000 0
  0.796875   0.734375 0
  0.789062   0.726562 0
  0.789062   0.781250 0
  0.953125   0.929688 0
  0.851562   0.531250 0
  0.757812   0.750000 0
  0.867188   0.578125 0
  0.812500   0.976562 0
  0.929688   1.000000 0
  0.773438   0.710938 0
  0.953125   0.804688 0
  0.867188   0.546875 0
  0.898438   1.000000 0
  0.906250   0.992188 0
  0.937500   0.953125 0
  0.929688   0.953125 0
  0.773438   0.796875 0
  0.937500   0.945312 0
  0.929688   0.937500 0
  0.765625   0.789062 0
  0.757812   0.945312 0
  0.968750   0.648438 0
  0.773438   0.851562 0
  0.937500   1.000000 0
  0.851562   0.703125 0
  0.789062   0.945312 0
  0.968750   0.507812 0
  0.804688   0.984375 0
  0.765625   0.953125 0
  0.859375   0.539062 0
  0.914062   0.593750 0
  0.851562   0.835938 0
  0.789062   0.812500 0
  0.953125   0.960938 0
  0.851562   0.562500 0
  0.781250   0.804688 0
  0.945312   0.953125 0
  0.765625   1.000000 0
  0.757812   0.992188 0
  0.765625   0.992188 0
  0.812500   0.750000 0
  1.000000   0.929688 0
  0.835938   0.687500 0
  0.812500   1.000000 0
  0.914062   0.960938 0
  0.921875   0.960938 0
  0.921875   0.953125 0
  0.781250   0.859375 0
  1.000000   0.765625 0
  0.890625   0.742188 0
  0.992188   0.812500 0
  0.898438   0.953125 0
  0.796875   0.953125 0
  0.976562   0.515625 0
  0.906250   1.000000 0
  0.914062   1.000000 0
  0.914062   0.992188 0
  0.984375   0.804688 0
  0.984375   0.664062 0
  0.812500   0.523438 0
  0.859375   0.929688 0
  0.867188   0.921875 0
  0.898438   0.664062 0
  0.867188   1.000000 0
  0.875000   1.000000 0
  0.867188   0.992188 0
  0.875000   0.992188 0
  1.000000   0.953125 0
  0.835938   0.804688 0
  0.937500   0.789062 0
  0.906250   0.671875 0
  0.914062   0.679688 0
  0.945312   0.937500 0
  0.851562   0.921875 0
  0.945312   0.539062 0
  0.765625   0.976562 0
  0.937500   0.531250 0
  0.757812   0.968750 0
  0.828125   0.679688 0
  0.820312   0.968750 0
  0.812500   0.968750 0
  0.992188   0.531250 0
  0.921875   0.976562 0
  0.773438   0.976562 0
  0.773438   0.625000 0
  0.843750   0.945312 0
  0.929688   0.781250 0
  0.914062   0.984375 0
  0.828125   0.953125 0
  0.890625   0.710938 0
  0.835938   0.968750 0
  0.835938   0.960938 0
  0.828125   0.968750 0
  0.898438   0.718750 0
  0.929688   0.976562 0
  0.875000   0.976562 0
  0.757812   0.937500 0
  0.929688   0.500000 0
  0.929688   0.960938 0
  0.773438   0.765625 0
  0.835938   0.515625 0
  0.968750   0.984375 0
  0.960938   0.781250 0
  0.906250   0.960938 0
  0.906250   0.953125 0
  0.898438   0.968750 0
  0.898438   0.960938 0
  0.968750   0.703125 0
  0.796875   0.562500 0
  0.851562   0.976562 0
  0.851562   0.968750 0
  0.781250   0.687500 0
  0.890625   0.992188 0
  0.796875   0.593750 0
  0.890625   0.796875 0
  0.789062   0.976562 0
  0.968750   0.476562 0
  0.960938   0.468750 0
  0.890625   0.968750 0
  0.890625   0.960938 0
  0.953125   0.718750 0
  0.898438   0.804688 0
  1.000000   0.820312 0
  0.968750   0.562500 0
  0.789062   1.000000 0
  0.960938   0.554688 0
  0.781250   0.992188 0
  0.867188   0.937500 0
  0.929688   0.695312 0
  0.914062   0.765625 0
  0.906250   0.726562 0
  0.859375   0.921875 0
  0.867188   0.914062 0
  0.843750   0.960938 0
  0.851562   0.953125 0
  0.843750   0.953125 0
  0.921875   0.742188 0
  0.882812   0.484375 0
  0.914062   0.734375 0
  0.882812   0.476562 0
  0.960938   0.992188 0
  0.960938   0.984375 0
  0.859375   0.984375 0
  0.867188   0.968750 0
  0.937500   0.757812 0
  0.898438   0.500000 0
  0.929688   0.750000 0
  0.890625   0.492188 0
  0.898438   0.492188 0
  0.890625   0.484375 0
  0.875000   0.945312 0
  0.828125   0.539062 0
  1.000000   0.679688 0
  0.960938   0.695312 0
  0.992188   0.953125 0
  0.953125   0.687500 0
  0.898438   0.937500 0
  0.414062   0.523438 0
  0.406250   0.515625 0
  0.468750   0.523438 0
  0.398438   0.679688 0
  0.429688   0.562500 0
  0.257812   0.906250 0
  0.859375   0.835938 0
  0.250000   0.898438 0
  0.851562   0.828125 0
  0.906250   0.781250 0
  0.281250   0.867188 0
  0.882812   0.757812 0
  0.257812   0.843750 0
  0.492188   0.687500 0
  0.906250   0.750000 0
  0.281250   0.835938 0
  0.390625   0.843750 0
  0.398438   0.851562 0
  0.906250   0.703125 0
  0.281250   0.789062 0
  0.593750   0.132812 0
  0.898438   0.695312 0
  0.273438   0.781250 0
  0.585938   0.125000 0
  0.445312   0.726562 0
  0.406250   0.523438 0
  0.445312   0.781250 0
  0.398438   0.523438 0
  1.000000   0.453125 0
  0.437500   0.781250 0
  0.468750   0.726562 0
  0.960938   0.640625 0
  0.882812   0.679688 0
  0.257812   0.765625 0
  0.570312   0.109375 0
  0.890625   0.687500 0
  0.265625   0.773438 0
  0.578125   0.117188 0
  0.382812   0.664062 0
  0.390625   0.671875 0
  0.921875   0.718750 0
  0.296875   0.804688 0
  0.609375   0.148438 0
  0.429688   0.500000 0
  0.421875   0.500000 0
  0.367188   0.757812 0
  0.406250   0.859375 0
  0.429688   0.656250 0
  0.492188   0.546875 0
  0.484375   0.539062 0
  0.484375   0.546875 0
  0.882812   0.687500 0
  0.257812   0.773438 0
  0.500000   0.851562 0
  0.453125   0.734375 0
  0.492188   0.539062 0
  0.421875   0.593750 0
  0.429688   0.601562 0
  0.437500   0.609375 0
  0.906250   0.789062 0
  0.281250   0.875000 0
  0.414062   0.570312 0
  0.460938   0.828125 0
  0.421875   0.570312 0
  0.429688   0.570312 0
  0.437500   0.578125 0
  0.257812   0.789062 0
  0.890625   0.718750 0
  0.265625   0.804688 0
  0.265625   0.796875 0
  0.882812   0.718750 0
  0.257812   0.804688 0
  1.000000   0.515625 0
  0.375000   0.601562 0
  0.382812   0.609375 0
  0.406250   0.570312 0
  0.398438   0.570312 0
  0.406250   0.578125 0
  0.390625   0.812500 0
  0.460938   0.632812 0
  0.453125   0.625000 0
  0.390625   0.875000 0
  0.953125   0.460938 0
  0.257812   0.796875 0
  0.882812   0.710938 0
  0.265625   0.906250 0
  0.867188   0.835938 0
  0.953125   0.492188 0
  0.960938   0.500000 0
  0.281250   0.953125 0
  0.460938   0.515625 0
  0.273438   0.945312 0
  0.453125   0.507812 0
  0.265625   0.937500 0
  0.398438   0.625000 0
  1.000000   0.640625 0
  0.375000   0.726562 0
  0.976562   0.656250 0
  1.000000   0.648438 0
  0.375000   0.734375 0
  0.476562   0.531250 0
  0.453125   0.789062 0
  0.414062   0.531250 0
  0.914062   0.453125 0
  0.421875   0.531250 0
  0.437500   0.562500 0
  0.437500   0.554688 0
  1.000000   0.710938 0
  0.375000   0.796875 0
  0.429688   0.554688 0
  0.468750   0.804688 0
  0.429688   0.546875 0
  0.929688   0.468750 0
  0.859375   0.453125 0
  0.867188   0.632812 0
  0.437500   0.859375 0
  0.875000   0.640625 0
  0.906250   0.679688 0
  0.281250   0.765625 0
  0.414062   0.750000 0
  0.726562   0.093750 0
  0.406250   0.750000 0
  0.406250   0.664062 0
  0.890625   0.679688 0
  0.265625   0.765625 0
  0.500000   0.671875 0
  0.898438   0.687500 0
  0.273438   0.773438 0
  0.484375   0.515625 0
  0.421875   0.679688 0
  0.882812   0.703125 0
  0.945312   0.453125 0
  0.476562   0.507812 0
  0.414062   0.671875 0
  0.281250   0.843750 0
  0.421875   0.562500 0
  0.960938   0.484375 0
  0.335938   0.570312 0
  1.000000   0.742188 0
  0.375000   0.828125 0
  0.476562   0.875000 0
  0.468750   0.867188 0
  0.484375   0.859375 0
  0.484375   0.867188 0
  0.460938   0.796875 0
  0.421875   0.539062 0
  0.921875   0.460938 0
  0.453125   0.796875 0
  0.414062   0.539062 0
  0.500000   0.562500 0
  0.500000   0.507812 0
  0.414062   0.867188 0
  0.437500   0.687500 0
  0.859375   0.679688 0
  0.257812   0.875000 0
  0.859375   0.804688 0
  0.453125   0.820312 0
  0.414062   0.562500 0
  0.460938   0.687500 0
  0.398438   0.820312 0
  0.882812   0.468750 0
  0.257812   0.554688 0
  0.859375   0.484375 0
  0.484375   0.656250 0
  0.437500   0.531250 0
  0.445312   0.671875 0
  0.437500   0.804688 0
  0.398438   0.546875 0
  0.445312   0.812500 0
  0.406250   0.554688 0
  0.281250   0.898438 0
  0.382812   0.835938 0
  0.414062   0.835938 0
  0.867188   0.460938 0
  0.890625   0.789062 0
  0.265625   0.875000 0
  0.867188   0.804688 0
  0.265625   0.882812 0
  0.867188   0.812500 0
  0.492188   0.718750 0
  0.468750   0.640625 0
  0.406250   0.828125 0
  0.492188   0.515625 0
  0.500000   0.859375 0
  0.437500   0.718750 0
  0.437500   0.570312 0
  0.484375   0.679688 0
  0.445312   0.507812 0
  0.390625   0.562500 0
  0.445312   0.789062 0
  0.406250   0.531250 0
  0.476562   0.570312 0
  0.437500   0.507812 0
  0.929688   0.726562 0
  0.304688   0.812500 0
  0.617188   0.156250 0
  0.273438   0.890625 0
  0.265625   0.828125 0
  0.437500   0.539062 0
  0.445312   0.867188 0
  0.273438   0.835938 0
  0.468750   0.718750 0
  0.437500   0.664062 0
  0.453125   0.679688 0
  0.382812   0.718750 0
  0.695312   0.062500 0
  0.468750   0.562500 0
  0.882812   0.648438 0
  0.406250   0.546875 0
  0.484375   0.570312 0
  0.484375   0.625000 0
  0.398438   0.539062 0
  0.898438   0.781250 0
  0.273438   0.867188 0
  0.406250   0.562500 0
[...]
POINT_DATA 15808
SCALARS scalar_value float 1
LOOKUP_TABLE default
-0.00626859
0.00505319
-0.000985265
0.00440719
0.00518005
-0.0282468
-0.0040917
0.00211192
0.00539926
0.00757548
0.00632867
-0.000851829
0.00408877
-0.00820601
0.0114403
0.00282681
0.00762049
-0.00190783
0
0.00817321
0.00432872
0.00495626
0.015354
0.00803123
0.0106447
0.00544987
-0.0469033
-0.0231692
0.00458208
0.00410852
0.00122748
0.00204277
-0.00021727
-0.00499385
0.00345464
0.0416078
-0.0103072
-0.0034981
0.0140558
-0.00557688
0.0061569
0.00394835
0.0272176
0.0022518
0.0157414
0.00282583
0.00502555
0.00219999
0
-0.00407117
-0.0108868
0.00542043
0
-0.00124697
-0.00236279
-0.00856791
0.00816881
-0.0123597
-0.000117919
0.00850624
-0.00201009
-0.000452977
-0.000295213
0
-0.0013799
-0.00180664
0.00260597
-0.0102686
0.0013442
0.00556176
0.00164139
0.00427358
0.0203244
-0.0035854
0.0070019
0.0145547
-0.00168143
0
-0.00302524
0.00200269
0.00686527
-1.38005e-05
0.0150182
0
-0.0028581
-0.00949877
0.00429624
0.00798157
-0.00141779
-0.0368115
5.79111e-05
0.00254319
0.00735308
0.00386191
0
0
-0.00507531
0.00158333
0.00134013
0.0107493
0.0040875
-0.00123864
-0.0135206
0
0
0.00187632
-0.000870325
-0.00331126
-0.00453905
-0.0124739
-0.0146794
-0.00905941
-0.000310873
0.00109718
0.00570348
0.000848318
0.0101957
0.00294135
0.0166379
0.00230649
-0.00242204
0.00303968
-0.00325702
0.00506854
0.00499357
0.00247854
-0.0159282
-0.0153231
0.00221741
0.0061037
0.00423922
0.00384399
-0.00338343
-0.000535872
0.00250258
-0.00433964
0.00846402
0.0204242
-0.00164184
0.00259809
0.0269074
0.00473871
0.00649988
0.00821349
0.00673635
0.00612289
0.00823013
-0.00407567
0.00434141
0.00108041
0.00348085
-0.0185594
-0.000882276
-0.0253659
-0.00131288
-0.00530518
0.0010204
-0.00506968
0.000811965
-0.00222439
-0.00682315
-0.0102776
-0.0139713
0.00285293
0
0.00392446
-0.00171536
0.00104402
-0.00793276
-0.0330012
3.08238e-05
0.00303722
0.00672356
0.0055663
0.000873164
0.00634579
0.00893927
0.0308558
0.00557596
-0.0169389
0.00071345
0.00445605
0.000999728
0.000261795
0.00578221
0.0726138
0.00765498
-0.0104667
-0.0193875
0.0029832
-0.00294249
-0.00408626
0.00118302
-0.0031386
-0.00149493
-0.000875603
0.00495479
1.96717
0.207104
-0.040093
0.087138
-0.247229
0.00276652
0.00636368
-0.00813983
0.0052031
-0.00389682
0.00242905
-0.0153558
0.00757398
-0.151389
-0.0287551
0.00556211
-0.0157259
0.0867959
-0.000651976
0.00213211
5.44328
-0.00677552
0.00535728
1.29626
-0.00891482
0.59907
0.00387668
-0.240951
-0.000741107
-0.0281447
-0.0327347
0.00406569
-0.0106286
0.0015832
6.2503
-0.00229912
0.00955694
5.15204
0.057781
0.103836
0.00532226
-0.00742415
5.92853
3.61969
2.77137
0.0243664
-0.0323319
0.0268838
-0.0611424
0.000510234
-0.0396629
-0.00305268
0.00179446
-0.0147086
0.0180948
-0.0346275
0.192156
0.126392
0.0434397
-0.00455682
-0.00098354
0.826046
-0.0316913
-0.0612825
-0.0360461
-0.175526
0.00886481
0.0135079
0.00384796
0.00420483
0.00893572
0.0101175
-0.000720703
0.0790185
0.136715
0.122517
0.0264153
-0.0493739
0.0302433
-0.0391739
-0.0822668
-0.0161535
-0.00332596
0.00778805
0.000278402
0.00895025
0.0104613
0.00691628
0.00609174
-0.0154426
0.0473605
0.0152664
0.108185
0.0210161
0.0861006
-0.00159392
0.0476685
0.00201926
-9.98361e-05
0.0535993
0.00137482
0.0108972
1.34754
0.0107485
0.354
-0.0579628
-0.0219948
-0.00355669
0.0416734
-0.29602
0.0765493
-0.0336461
-0.0190794
-0.0186791
-0.00132546
-0.0338191
-0.00088655
-0.0145311
0.0189758
0.164268
1.41446
0.43923
0.331828
-0.00681923
0.00752144
-0.123826
-0.0126692
0.010992
-0.0343389
-0.00338922
-0.0021391
-0.00229981
-0.0143856
-0.0458897
0.00119256
-0.100253
-0.000681603
0.129623
-0.0120095
-0.0339437
0.0108227
0.00405494
-0.000853101
-0.0026941
0.0711331
-0.0734919
-0.00482954
-0.00170409
1.1597
-0.0245113
-0.0145999
-0.0880811
0.016014
0.00249041
0.00669956
0.00348666
0.0400256
0.849933
0.0375612
0.101076
-0.0514094
-0.0421395
0.00500439
-0.208847
0.0619534
0.0139072
0.0339813
0.327231
0.0808536
0.122817
0.00693844
0.0321097
0.0279945
0.0293932
0.00541458
0.00116129
0.00396385
-0.00167085
0.00673349
-0.0604623
0.0304532
0.0107882
-0.00547427
-0.0195338
0.00694474
-0.234322
-0.204792
-0.0437838
0.132311
0.0351132
0.635366
-0.108388
0.360473
0.00458638
-0.0065176
5.92014
0.0184789
0.0014345
0.124146
-0.0321626
0.00921529
-0.0248837
-0.0173443
0.123116
0.0494951
5.37173
0.0326266
-0.0138303
0.131303
-0.170231
-0.0483128
0.306581
-0.00662325
0.012226
0.196276
0.00757681
0.00796429
0.36139
0.0579335
-0.00126673
-0.0799021
0.109957
0.0433872
-0.243974
-0.0664965
0.552394
-0.0059102
0.0584854
-0.0504989
0.312596
0.0696585
-0.0137225
0.052924
-0.00751754
0.0103108
0.309389
0.36118
0.0750283
-0.00368696
0.093581
0.00294673
0.0299875
0.281907
1.13628
0.0107885
-0.209906
-0.000765075
-0.128232
0.0165563
0.0191411
0.000157449
0.0105951
0.0105981
1.00886
0.0262654
0.141662
-0.011136
0.518194
-0.00143564
0.000693942
0.0606934
0.0238
-0.0692963
0.0148539
-0.012105
-0.0435323
0.157072
0.0911613
-0.0371525
0.00746178
0.357773
0.190693
-0.000561393
-0.0525306
-0.0611246
0.410172
-0.00868333
0.00962853
0.0962885
-0.0994827
0.0413825
-0.140049
0.0993826
0.0124742
-0.00181035
-0.223419
-0.0112686
0.00305334
0.00279977
-0.320494
0.0825554
0.0298788
0.0642033
0.0633693
0.0355002
-0.000286881
0.0674964
0.0130651
0.279989
0.00561991
0.0136332
-0.010542
0.0172547
-0.00204243
-0.0234561
-0.00426593
-0.0263225
0.0022762
-0.00599135
0.0108288
0.0106662
0.0429441
0.0115392
-0.00507544
0.0330208
-0.00540207
0.00748462
0.00688207
0.00939703
0.0188071
0.00445885
0.460066
5.35497
0.0640401
5.57346
-0.0517533
0.0486054
0.973792
0.185426
0.089706
0.00354184
0.0485191
0.00100729
0.0294916
0.0599762
0.00472293
0.00252344
0.00496629
0.114865
0.00221729
-0.165334
-0.00572658
0.003082
0.0339233
0.0324084
0.0268515
-0.0160338
-0.0102842
0.0134831
-0.0394938
0.0619113
5.63166
0.128017
0.0602395
-0.0165361
0.0476566
-0.00442739
0.0155951
-0.0643015
0.140519
0.0375093
-0.0197853
0.186791
0.0717535
0.0148043
-0.0174035
-0.0141186
0.0982656
-0.0288133
0.0881222
0.0129024
0.0021531
-0.000276771
0.342174
0.348782
0.084076
-0.0426667
-0.00344409
-0.00375411
0.0914471
-0.00096262
-0.00674298
0.0359926
0.0126955
0.0149616
-0.0565606
-0.0662104
0.0678312
0.0529743
0.365128
-0.047724
0.075651
0.313677
0.122326
0.0293706
0.0691517
-0.0396597
0.0605124
-0.0366002
-0.0327544
0.0452009
-0.000944654
0.00924112
-0.0410295
0.046768
-0.0123069
0.0129636
0.146322
-0.0288372
-0.132615
0.0509962
-0.165378
-0.0382625
0.016241
0.00568404
0.0110915
0.0705061
-0.00521692
-0.00940319
-0.111757
-0.0899787
0.002708
0.00149784
-0.293449
-0.271254
-0.000503294
0.00294359
-0.0883318
0.00424063
-0.0447014
-0.076623
-0.0227034
0.0352514
0.0480472
-0.0218639
-0.0418034
-0.0568992
0.013536
0.0038544
-0.00878334
-0.061762
-0.0571409
-0.000559314
-0.00428427
0.00624485
0.0298265
0.0121303
3.70615
5.30194
0.000709052
0.00360867
0.00588804
0.00979215
0.0307638
-0.000760859
-0.058913
0.133087
-0.00235341
-0.0254216
0.00810833
0.0114877
0.00425614
0.00417046
0.0167529
0.00200711
4.34992
-0.00250882
-0.000924944
-0.00102337
0.00118124
-0.00227247
0.00754279
0.0107768
0.0165461
0.00215588
4.62183
0.0122349
0.036429
0.00116026
0.00851792
0.00883904
0.00643702
0.00338723
-0.0089652
0.0371752
-0.00419373
0.00838027
0.21714
0.000887351
0.00396876
0.00198114
0.00597488
0.00701702
0.00125046
0.00240228
-0.000772856
-0.0651156
0.00516821
0.00742777
0.0158304
0.0141229
0.000887233
-0.00143491
-0.00278115
0.00201035
0.0387909
-0.00855467
0.0522673
-0.0798343
-0.00354986
-0.00230548
0.118603
0.00174595
-0.0187632
-0.0126909
0.000552072
0.00141677
0.000270267
0.00495991
0.00520794
-0.00151601
0.0151547
0.00339453
0.0187854
0.00989564
-0.00247366
-0.00491673
0.0126063
0.00300172
0.437089
0.352184
0.00271158
0.00189799
0.00303195
5.29855
0.132108
-0.00314149
0.00663677
0.00128414
5.30573
5.31961
0.183711
-0.00148142
-0.00111616
-0.0017693
0.0132739
0.00892825
3.33581
3.49009
0.0519188
0.00974332
0.000953819
0.0196228
-0.00224944
0.0652746
0.0247714
-0.00398034
-0.0302909
-0.00238869
-0.0135619
0.001086
0.00367253
0.00013077
-0.0677591
-0.000846062
0.201179
0.305182
-0.000743749
-0.00144269
-0.0490556
0.0164781
0.0063429
0.0272133
-0.00871881
0.244071
-0.00224514
0.00182611
0.0011542
0.129277
-0.00905825
0.182928
0.0016706
-0.000360109
-0.00857047
0.00220093
0.00116864
-0.0256573
0.000718044
0.000363159
-0.00876707
1.35686e-05
-0.00210795
0.00919462
0.0480216
-0.000340466
-0.00300575
0.00278455
0.00188249
0.000814863
0.00587866
0.021378
-0.018165
0.0210297
0.00836862
0.016534
0.00183967
0.028657
-0.0190771
0.00300871
5.28861
0.0185056
0.0469834
0.0387677
0.0253137
0.0114359
-0.00581757
0.0447718
-0.00995261
0.000521654
0.00303097
0.0291444
0.00374859
5.00572
0.0158785
0.00332044
0.00411217
-0.000780684
-0.00550894
0.00306111
-0.00285582
6.89509e-05
-0.0399942
4.17947
0.0528561
0.0968705
-0.00171652
0.00147271
0.0399135
3.7976
0.0338952
0.027303
0.082601
0.0563067
-0.0461149
-0.0146801
-0.00765865
0.059274
-0.00360228
0.0442576
-0.0022401
0.040697
-0.000404668
0.00315618
0.00324131
0.00801395
-0.000875667
0.00211288
0.0245065
0.000651374
0.00762837
0.0294966
-0.00506954
0.0057434
0.000231972
0.148222
-0.0151956
0.000464067
0.144957
0.0061588
0.000513758
0.00911153
0.000898086
-7.70045e-05
-0.0161162
-0.012129
-0.00172027
-0.0202953
1.85791
0.00388498
-0.005786
-0.0128012
1.71139
0.240476
0.00518352
-0.00684754
1.37535
0.00145273
0.0144687
-0.00921175
0.00211896
-0.000594815
0.00774855
-0.00245351
0.0364528
0.000382433
0.00478111
-0.00223367
0.0190074
0.00806762
-0.00250113
0.137076
-0.00775868
0.00680574
0.0653751
-0.00490167
0.0129941
5.283
-0.00304427
0.000278911
-0.000822978
0.0129442
-0.00146931
0.00859411
-0.000125547
0.00595319
1.79439
-0.00127771
0.00260191
0.299161
0.00984429
0.0214301
0.00311249
0.0333145
0.0034576
-0.000926162
0.00892151
0.00024165
-0.00212244
0.00616682
-0.00515247
0.00175208
0.00984276
0.000741981
0.0232193
0.0255761
0.00572681
0.00357315
0.145103
-0.000122966
0.0108536
-0.00525883
-0.00369725
0.0016764
0.00194719
0.00105124
-0.00725269
-0.00796886
-0.000123969
0.000336514
0.00478915
-0.000316322
0.0015552
0.00429085
0.00174936
-0.00362071
0.0223795
-0.0136113
5.56875
0.0342226
0.0911253
5.10566
0.00204175
0.001534
0.00177453
5.55652
-0.00124603
-0.00206013
0.0011956
5.10105
0.00664502
0.00239023
4.72732
0.157994
3.47844
-0.00262579
0.013332
5.09551
-0.000935468
-0.00458167
0.000682345
-0.00871794
0.00683949
0.0010862
-0.00459638
0.0012029
0.00214394
-0.00902076
-0.0334932
0.00166005
0.00113896
-0.00628296
-0.000829527
0.019772
-0.000733977
-0.0167302
0.0136357
0.0133602
0.0182398
0.0229461
-0.0149146
0.0103675
-0.00110637
-0.0131949
0.00434715
-0.000558277
0.00475212
0.00109662
0.00265234
0.00499837
-0.00314201
0.00854221
2.2335
0.0115066
-0.00082312
0.00258114
-0.03926
0.00324639
0.00387707
0.00318671
0.00744972
0.000730876
0.0161914
0.00115397
-0.000826891
0.000377317
-0.00586036
0.0019503
0.0587038
-0.00334642
0.053068
0.00112121
0.00980666
0.00121562
0.000197978
0.00630001
0.0126883
0.00141251
-0.0111605
0.000650641
0.0062667
0.0831178
0.0255813
0.175981
0.00349166
-0.0247054
0.310358
0.0224314
-0.00191403
-0.0266754
0.00516077
0.00400937
-0.00596165
-0.000845463
0.216721
0.00130169
-0.000182684
-0.00377633
0.00227857
0.00175334
0.00323041
-0.00155961
0.00158396
-0.00247406
0.000527615
-0.00902257
-7.36255e-05
0.00123273
0.0642825
0.00234881
0.0246185
0.0182044
0.000428122
-0.000492428
0.00293993
-0.00529736
-0.00397577
0.0130681
0.000797803
0
-0.0138967
0.00471114
0.00475181
-0.00434082
-0.00171775
-0.042215
-0.010615
0.00187891
0.000140145
-0.000985624
0.000173121
-0.00678215
3.90078
-0.00185109
0.0130839
-0.00658118
-0.000471617
0.00137282
0.00332541
0.0011448
-0.00248196
0.000934394
-0.00586346
0.00115341
-0.00832058
-0.0839269
0.00212478
0.0117525
1.93224
-0.0159303
2.08704
0.0133172
0.00887647
0.00898805
2.0213
0.000409133
-0.0102421
-0.000762418
0.00057954
0.0114077
0.00232318
-0.000754338
0.00418383
0.0189084
-0.000420148
-0.00755328
-0.000596152
0.00261969
0.000470553
-0.00109171
0.00199641
0.00176636
0.00268214
0.00148074
0.134206
0.00860773
0.0142565
0.000717529
0.0237762
-0.012007
0.0118861
4.53115e-05
-0.000417629
0.044594
0.00135709
-0.00695929
-0.012926
0.0115061
0.000153346
3.68966
0.000744694
0.00162249
0.0701448
0.00616614
0.00219968
-0.0127729
0.203306
0.00465183
0.000555248
0
-0.00511174
0.165353
0.00140657
-0.0073753
0.00258426
0.0489465
0.0120624
0.00259621
-0.0211612
0.00236988
0.0100994
0.00228937
0.154836
0.127227
0.00567799
0.00125061
0.00847425
0.00172182
0.00504515
0.00471512
0.0434655
-0.00208952
0.0142563
0.00861205
0.00565687
-0.000644458
0.00362149
0.0212298
0.317719
0.00566293
-3.0509e-05
0.00291959
-0.00194425
-0.00292779
0.00578823
-0.00746893
0.00266974
-0.00922525
0.00181912
-0.00381362
0.00022748
-0.000636085
0.00910576
0.0226623
0.0094786
-0.00405668
0.00160895
0.277426
0.00251671
0.00274776
0.0191516
-0.0468327
0.0306589
0.000320416
-0.00670024
0.256316
-0.000856931
-0.0123787
0.0146446
0.00951815
0.00662833
0.0102131
0.000124672
0.00715201
0.000937438
0.00114358
0.00045212
0.00267408
-0.00359521
0.00312533
-0.0112231
0.00414451
0.00408837
0.00207157
-0.00173912
5.6962
0.00212776
0.0237391
-0.000163949
0.0262839
0.00282831
0.000286145
0.000839169
0.0190905
5.16146e-05
0.00283602
0.0276007
-0.00204985
0.00287862
0.0376052
0.00120279
-0.00151174
-0.00167669
0.0308966
0.00152032
0.00374522
-0.00051034
0.128629
-0.0124974
0.00314572
4.87195
-9.84762e-05
-0.205032
-0.00130111
1.90916
-0.000406464
0.113839
0.0234189
-0.00144303
0.00476453
-0.0702038
-0.000562916
-0.232061
0.00133263
0.00832523
2.24299e-05
-0.000716464
-0.0361467
0.0116022
-0.00164512
0.0014564
-0.0050811
-1.3496e-05
0.00163194
0.0140064
0.201201
-0.000494899
-0.14346
-0.00238959
-0.0018438
0.00567624
0.0452881
-0.000246836
-0.106266
-0.0668805
-0.000562147
0.00272951
0.00014967
0.0242016
0.0281543
0.0251045
0.00884327
0
0.00107691
0.00726034
-0.000125227
-0.0013086
-0.0182803
0
-0.00388367
0.0154682
0.000638575
-0.00167233
0.0231009
-0.00284386
4.81329
-0.000196697
0.094659
-0.00802937
0.00922548
0.000564703
0.000578282
-0.000904174
-0.000769254
-0.00446355
0.00429625
0.00145421
0.0200371
0.00544456
0.000341264
0.0576767
0.00280394
0.00471388
-0.000787567
-0.000180803
0.0285682
0.00168717
-0.00348571
0
-0.00245901
-0.0138555
0.00739106
-0.00293653
0.0309797
0.00110243
-0.00182325
0.000106203
0.0995689
0.0166418
-0.000743745
-0.0420606
0.00155747
0.0565246
0.00544493
0.00167992
0.000684354
0.0168534
-0.00486053
0.0112
-0.00474322
0.00309612
0.000895005
0.00531685
0.00932515
0.00166038
-0.00405439
0.00296389
-0.00178887
0.00742622
0.0169781
0.00367832
0.0224356
-0.00436866
-0.00824186
0.00512989
6.1407
0.00258865
0.00379718
0.00209695
0.0569945
-0.00282405
-0.038289
0.00343663
0.016427
-0.00265375
0.00433434
0.000447422
0.0439523
-0.00450603
0.0117412
-0.000680266
-0.00946468
0.00168881
0.0250221
0.00218254
0.000410604
0.0193594
0.00134206
-0.00220104
-0.00083356
0.0104158
-0.00248735
0.0229724
-0.000875109
0.000480978
-0.0967085
0.00113267
-0.0130934
0.0159234
-0.00130801
0.00658466
-0.0740116
0.00383421
0.0157369
0.00322137
0.00121791
-0.00111676
0.00131317
0.00174471
-0.0105233
-0.00906045
5.94134e-05
0.000213506
0.00191168
0.104277
0.0228378
0.00186968
0.0101503
0.000141782
0.00452703
0
-0.00163708
-0.00191419
0.0176144
0.00461868
-0.00750335
-0.000639774
0.00144979
-0.000942376
-0.00703626
0.00395467
-0.00223634
-0.000899369
0.0128582
0.00563686
0.0140959
0.00589297
0.00820915
0.0270201
0.00213228
0.0238287
0.00149317
-0.0013771
0.373096
0.000732561
0.00188691
0.00548856
0.00461362
-0.000588622
0.00487979
-0.000959785
0.000685998
0.849267
0.000198469
0.00101773
-0.00693211
-0.0136181
0.00371704
0.00176048
0.0264988
0.00140382
-0.0144748
0
0.908646
0.00249796
0.00065774
-0.00173802
0.00234156
0.0369685
0.180301
-0.000723246
-0.171833
0.00141899
-0.0774259
0.0151677
0.000508667
-0.000178169
0.00750361
0.0751323
0.00108896
0.019685
0.000660462
0.154931
-0.0125374
-0.000403773
0.0010021
0.00566391
0.0344195
0.0103897
-0.000863075
0.0109886
0.00178142
0
0.00132918
0.0251
0.0213968
0.0265465
-0.000295189
-0.0107694
-6.43592e-05
0.00129298
-0.00342786
-0.00182908
0
0.00118373
0.0080408
0.00538572
0.0278271
0.000324896
-0.000623963
0.00569232
0.0063681
2.72833
0.00032926
0.00891618
-0.00356671
-1.5894e-05
-0.0699067
0.0124707
0.000224766
-0.00102382
-0.00210003
0.00188895
0.0162955
5.09057e-05
0.000567507
0.0654886
-0.0397534
-0.0131208
0.0444301
0.012244
0.000878409
-0.0140944
-0.00191408
0.00452775
0.000685548
-0.123127
0.0134894
0.000234362
0.310262
0
0.000103526
-0.000432426
0
-0.0520967
-0.000266098
0.15763
0.00904082
-0.000993781
0.0138516
0.00125415
-0.00325859
-0.000189084
-7.80133e-05
0.000293871
0.00687581
0.221911
-0.00317066
-0.000142413
-0.000319809
0.0142378
-0.00910365
0.00212332
0.050504
-0.00484625
0.000276754
-0.024222
-2.11561e-05
0.000887197
0.00842354
0.0211788
0.00162269
-0.0040955
0.00793299
-0.0293079
-0.000329283
0.0619017
0.000920122
-0.0461641
-0.00267653
0.198096
0.000581213
-0.00525888
0.00754726
0.00794945
0.00716002
0.00703011
-0.00388632
0.0306978
0.000661968
0.0059903
0.00107224
0.00165631
-0.000905671
-0.0126839
0.00084832
-0.00495213
-0.000239002
-0.00424993
0.00560399
0.0103803
0.000680267
-0.00161741
0.00303009
-0.000486518
-0.00775767
0.00222367
-0.0110124
0.00946303
0.00797473
-0.0436743
-0.00819015
-0.0182765
-0.0059799
0.00407926
-0.0010371
0.0368615
0.00394521
0.000796761
0.00408806
-0.002961
0.00193875
0.000750469
0.0219297
0.00908862
-0.000197234
0.000709631
-0.000148006
-0.00633858
0.000180065
0.000810417
-0.00944658
0.00670968
-0.0133293
-0.000858903
0.0092322
-0.0106572
0.0301077
-0.0062501
7.10382e-05
3.23742
0.00273615
0.00126156
0.000983465
0.0062241
-0.0102755
-0.000847829
0.00340514
0.000249977
-0.0020089
-0.00167026
0.00487979
0.00201694
0.201058
-0.00592009
3.65007e-05
0.064582
-0.00042684
-0.000207496
0.0050565
-0.00657694
0.219064
-0.00149708
0.000247738
0.0102368
-0.00642643
0.00213062
0.0302841
-0.00737913
-0.00064522
0.00941033
0.00817066
0.0128783
0.00714244
-0.000742294
-0.0053023
0.00210355
0.00166169
0.00833581
-0.00863333
-0.0266995
0.000637292
-0.0190648
-0.00824596
0.00103497
-0.00459539
-0.000383009
-0.00969903
0.00189946
-0.00563074
-0.000414847
-0.168378
0.0190398
-0.061938
-0.00181171
0.000315164
-0.00135355
0.00323968
-0.0140377
0.00201133
-0.116114
-0.00280062
-0.0103014
-0.00011265
0.0201949
0.000820809
-0.0205064
0.0164421
0.000484304
0.000293639
-0.00121869
-0.0527542
0.0304477
0.000757392
0.00927549
-0.00461837
-0.00143236
0.00730747
-0.0260307
0.00300031
0.000355171
0.0307211
-0.0492105
-0.0032385
-0.0464941
0.00583182
0.0057762
0.0112051
0.314435
-0.0521004
0.00465927
-5.66342e-05
0.00588874
-0.000366646
-0.0107769
0.0526167
0.0362734
0.0335143
0.795155
3.52659
0.443781
0.00207219
0.000177204
0.0127832
0.0333992
-0.0508292
-0.00349761
0.000891
-0.0457085
0.00227295
0.000808417
0.0199111
-0.00281262
0.0191559
0.194466
-0.0023259
0.0012726
0.00344242
0.00765326
-0.000813313
0.0311738
0.0344668
-0.0104487
0.0722527
0.171668
-0.000553835
0.00972884
0.000854977
-0.00359613
0.00579977
0.0206243
-0.0195256
-0.00288379
0.00660595
0.00705228
-0.00372839
0.112169
-0.00650468
0.00359739
0.00275147
0.00835254
-0.00675382
0.00106632
-0.00483728
0.0451738
0.00181186
-0.00461388
-0.194457
-0.0479347
-0.0015103
0.000815335
0.0017575
0
0.00716693
0.0152934
-0.000451919
-0.00127151
0
-0.00394474
0.00110542
0.000776619
0.00309441
0.00474265
-0.00367222
-0.000275231
0.00136262
0.000256312
0.00210646
0.00151994
0.00111116
0.00134957
-0.00174531
0.00205988
0.00186387
2.66006
-0.00209314
-8.93985e-05
-0.0955999
0.00353246
-0.00208924
0.186236
0.00840861
0.00124406
-0.0267888
0.0055986
-0.0205209
-0.00435982
-0.00119443
0.00462841
0.00123742
0.0048595
0.0192045
-0.00184633
-0.00137383
5.64568
0.0137101
0.000429847
-0.0668911
-0.00144333
-0.00527385
-0.000365316
0.00502646
0.0200901
0
0.00556502
-0.000520406
0.0061803
-0.0100576
0.00105513
0.00549181