# vtk DataFile Version 2.0
Unstructured Grid by M++
ASCII
DATASET UNSTRUCTURED_GRID
POINTS 4072 float
  0.812500   0.625000 0
  0.953125   0.609375 0
  0.968750   0.609375 0
  0.875000   0.687500 0
  0.812500   0.937500 0
  0.859375   0.687500 0
  0.796875   0.937500 0
  0.968750   1.000000 0
  0.984375   0.984375 0
  0.968750   0.984375 0
  0.843750   0.656250 0
  0.875000   0.656250 0
  0.812500   0.906250 0
  0.859375   0.640625 0
  0.781250   0.984375 0
  0.843750   0.734375 0
  0.781250   0.968750 0
  0.843750   0.718750 0
  0.765625   0.968750 0
  0.828125   0.718750 0
  0.921875   0.593750 0
  0.859375   0.843750 0
  0.765625   1.000000 0
  0.828125   0.750000 0
  0.875000   0.796875 0
  0.890625   0.781250 0
  0.875000   0.781250 0
  0.921875   0.609375 0
  0.859375   0.859375 0
  0.984375   0.968750 0
  1.000000   0.968750 0
  1.000000   0.953125 0
  0.859375   0.734375 0
  0.796875   0.984375 0
  0.875000   0.734375 0
  0.812500   0.984375 0
  0.906250   0.953125 0
  0.968750   0.703125 0
  0.796875   0.750000 0
  0.812500   0.812500 0
  0.828125   0.796875 0
  0.781250   0.843750 0
  0.843750   0.593750 0
  0.953125   0.937500 0
  0.890625   0.625000 0
  0.828125   0.875000 0
  0.906250   0.625000 0
  0.843750   0.875000 0
  0.890625   0.609375 0
  0.828125   0.859375 0
  0.906250   0.609375 0
  0.843750   0.859375 0
  0.906250   0.593750 0
  0.843750   0.843750 0
  0.843750   0.765625 0
  0.859375   0.750000 0
  0.796875   1.000000 0
  0.937500   0.609375 0
  0.875000   0.859375 0
  0.765625   0.515625 0
  0.843750   0.640625 0
  0.843750   0.578125 0
  0.781250   0.828125 0
  0.843750   0.515625 0
  0.781250   0.765625 0
  1.000000   0.687500 0
  0.937500   0.937500 0
  0.828125   0.593750 0
  0.765625   0.843750 0
  0.828125   0.531250 0
  0.765625   0.781250 0
  0.765625   0.984375 0
  0.828125   0.734375 0
  0.812500   0.734375 0
  0.765625   0.765625 0
  0.781250   0.750000 0
  1.000000   0.656250 0
  0.937500   0.906250 0
  0.765625   0.750000 0
  0.968750   0.578125 0
  0.953125   0.593750 0
  0.953125   0.578125 0
  0.937500   0.593750 0
  0.875000   0.843750 0
  0.812500   0.796875 0
  0.875000   0.546875 0
  0.984375   0.953125 0
  0.984375   0.937500 0
  0.765625   0.562500 0
  0.937500   0.656250 0
  0.875000   0.906250 0
  0.765625   0.531250 0
  0.937500   0.625000 0
  0.875000   0.875000 0
  0.937500   0.859375 0
  1.000000   0.609375 0
  0.828125   0.687500 0
  0.765625   0.937500 0
  1.000000   0.781250 0
  0.812500   0.671875 0
  0.984375   0.765625 0
  0.828125   0.656250 0
  1.000000   0.750000 0
  0.937500   1.000000 0
  0.781250   0.515625 0
  0.953125   0.671875 0
  0.890625   0.921875 0
  0.781250   0.578125 0
  0.953125   0.984375 0
  0.984375   0.640625 0
  0.921875   0.890625 0
  0.968750   0.625000 0
  0.906250   0.875000 0
  0.812500   0.765625 0
  0.984375   0.859375 0
  1.000000   0.843750 0
  0.968750   0.859375 0
  0.843750   0.703125 0
  0.781250   0.953125 0
  0.843750   0.750000 0
  0.781250   1.000000 0
  0.843750   0.687500 0
  0.781250   0.937500 0
  0.828125   0.765625 0
  1.000000   0.859375 0
  0.828125   0.703125 0
  0.765625   0.953125 0
  0.968750   0.968750 0
  0.968750   0.953125 0
  0.796875   0.781250 0
  0.859375   0.531250 0
  0.968750   0.937500 0
  0.953125   0.968750 0
  0.781250   0.796875 0
  0.843750   0.546875 0
  0.953125   0.953125 0
  0.781250   0.812500 0
  0.953125   0.906250 0
  0.859375   0.781250 0
  0.859375   0.703125 0
  0.796875   0.953125 0
  0.859375   0.765625 0
  1.000000   0.734375 0
  0.937500   0.984375 0
  0.828125   0.578125 0
  0.765625   0.828125 0
  1.000000   0.796875 0
  0.828125   0.640625 0
  0.984375   0.734375 0
  0.921875   0.984375 0
  0.812500   0.640625 0
  0.890625   0.953125 0
  0.953125   0.703125 0
  0.796875   0.687500 0
  0.968750   0.781250 0
  0.968750   0.750000 0
  0.906250   1.000000 0
  0.953125   0.765625 0
  0.812500   0.718750 0
  0.843750   0.984375 0
  0.906250   0.734375 0
  0.921875   0.625000 0
  0.859375   0.875000 0
  0.921875   0.687500 0
  0.859375   0.937500 0
  0.968750   0.796875 0
  0.796875   0.703125 0
  0.937500   0.671875 0
  0.984375   0.796875 0
  0.812500   0.703125 0
  0.765625   0.687500 0
  0.937500   0.843750 0
  1.000000   0.593750 0
  0.937500   0.781250 0
  1.000000   0.531250 0
  0.812500   0.781250 0
  0.984375   0.875000 0
  0.843750   1.000000 0
  0.906250   0.750000 0
  0.968750   0.500000 0
  0.968750   0.718750 0
  0.906250   0.968750 0
  0.796875   0.625000 0
  0.859375   1.000000 0
  0.921875   0.750000 0
  0.968750   0.765625 0
  0.796875   0.609375 0
  0.859375   0.984375 0
  0.921875   0.734375 0
  1.000000   0.625000 0
  0.937500   0.875000 0
  1.000000   0.562500 0
  0.937500   0.812500 0
  0.875000   0.984375 0
  0.937500   0.734375 0
  0.906250   0.703125 0
  0.843750   0.953125 0
  0.906250   0.687500 0
  0.843750   0.937500 0
  0.937500   0.765625 0
  0.890625   0.718750 0
  0.828125   0.968750 0
  0.890625   0.703125 0
  0.828125   0.953125 0
  0.921875   0.781250 0
  0.906250   0.796875 0
  0.921875   0.718750 0
  0.859375   0.968750 0
  0.921875   0.703125 0
  0.859375   0.953125 0
  0.765625   0.546875 0
  0.937500   0.640625 0
  0.875000   0.890625 0
  0.937500   0.703125 0
  0.875000   0.953125 0
  0.765625   0.593750 0
  0.937500   0.687500 0
  0.875000   0.937500 0
  0.890625   0.937500 0
  0.953125   0.687500 0
  0.906250   0.718750 0
  0.843750   0.968750 0
  0.937500   0.796875 0
  0.828125   0.921875 0
  0.890625   0.671875 0
  0.984375   0.750000 0
  0.921875   1.000000 0
  0.812500   0.593750 0
  0.875000   0.968750 0
  0.937500   0.718750 0
  0.890625   1.000000 0
  0.953125   0.750000 0
  0.968750   0.671875 0
  0.906250   0.921875 0
  0.968750   0.734375 0
  0.906250   0.984375 0
  0.796875   0.578125 0
  0.984375   0.671875 0
  0.921875   0.921875 0
  0.812500   0.515625 0
  0.812500   0.578125 0
  0.765625   0.578125 0
  0.843750   0.906250 0
  0.906250   0.656250 0
  0.890625   0.750000 0
  0.828125   1.000000 0
  0.781250   0.593750 0
  0.984375   0.546875 0
  0.921875   0.796875 0
  0.921875   0.812500 0
  0.859375   0.656250 0
  0.859375   0.593750 0
  0.796875   0.843750 0
  0.859375   0.578125 0
  0.796875   0.828125 0
  0.921875   0.953125 0
  0.984375   0.703125 0
  0.984375   0.625000 0
  0.921875   0.875000 0
  0.875000   0.640625 0
  0.812500   0.890625 0
  0.875000   0.578125 0
  0.812500   0.828125 0
  0.765625   0.859375 0
  0.828125   0.609375 0
  0.937500   0.953125 0
  1.000000   0.703125 0
  0.921875   0.906250 0
  0.984375   0.656250 0
  0.921875   0.968750 0
  0.984375   0.718750 0
  1.000000   0.765625 0
  0.890625   0.984375 0
  0.953125   0.734375 0
  0.953125   0.656250 0
  0.890625   0.906250 0
  0.953125   0.718750 0
  0.890625   0.968750 0
  0.781250   0.562500 0
  0.796875   0.796875 0
  0.968750   0.640625 0
  0.906250   0.890625 0
  0.953125   0.796875 0
  0.953125   0.859375 0
  0.781250   0.703125 0
  0.984375   0.781250 0
  0.875000   1.000000 0
  0.937500   0.750000 0
  0.906250   0.937500 0
  0.968750   0.687500 0
  0.843750   0.625000 0
  0.781250   0.875000 0
  0.765625   0.796875 0
  0.937500   0.890625 0
  1.000000   0.640625 0
  0.781250   0.781250 0
  0.906250   0.906250 0
  0.968750   0.656250 0
  0.796875   0.765625 0
  1.000000   0.718750 0
  0.937500   0.968750 0
  0.828125   0.562500 0
  0.765625   0.812500 0
  0.828125   0.625000 0
  0.484375   0.750000 0
  0.421875   1.000000 0
  0.000000   0.218750 0
  0.453125   0.640625 0
  0.281250   0.546875 0
  0.312500   0.640625 0
  0.406250   0.984375 0
  0.468750   0.734375 0
  0.328125   0.656250 0
  0.390625   0.828125 0
  0.453125   0.578125 0
  0.437500   0.875000 0
  0.015625   0.093750 0
  0.312500   0.531250 0
  0.406250   0.937500 0
  0.343750   0.562500 0
  0.281250   0.812500 0
  0.453125   0.984375 0
  0.359375   0.625000 0
  0.296875   0.875000 0
  0.468750   0.796875 0
  0.046875   0.015625 0
  0.437500   0.656250 0
  0.312500   0.578125 0
  0.421875   0.921875 0
  0.000000   0.140625 0
  0.484375   0.671875 0
  0.265625   0.734375 0
  0.468750   0.984375 0
  0.046875   0.203125 0
  0.406250   0.625000 0
  0.390625   0.609375 0
  0.375000   0.625000 0
  0.265625   0.562500 0
  0.484375   0.812500 0
  0.062500   0.031250 0
  0.484375   0.984375 0
  0.062500   0.203125 0
  0.312500   0.890625 0
  0.375000   0.640625 0
  0.375000   0.671875 0
  0.390625   0.687500 0
  0.484375   0.843750 0
  0.390625   0.500000 0
  0.328125   0.687500 0
  0.328125   0.765625 0
  0.390625   0.515625 0
  0.437500   0.796875 0
  0.484375   0.531250 0
  0.468750   0.968750 0
  0.046875   0.187500 0
  0.453125   0.843750 0
  0.453125   0.812500 0
  0.281250   0.718750 0
  0.468750   0.859375 0
  0.265625   0.984375 0
  0.375000   0.765625 0
  0.296875   0.562500 0
  0.484375   0.781250 0
  0.062500   0.000000 0
  0.453125   1.000000 0
  0.031250   0.218750 0
  0.453125   0.546875 0
  0.312500   0.703125 0
  0.328125   0.718750 0
  0.296875   0.656250 0
  0.281250   0.640625 0
  0.265625   0.656250 0
  0.281250   0.671875 0
  0.484375   0.890625 0
  0.062500   0.109375 0
  0.296875   0.687500 0
  0.296875   0.625000 0
  0.265625   0.703125 0
  0.265625   0.687500 0
  0.265625   0.625000 0
  0.953125   0.046875 0
  0.484375   0.875000 0
  0.484375   0.921875 0
  0.062500   0.140625 0
  0.453125   0.921875 0
  0.031250   0.140625 0
  0.968750   0.234375 0
  0.171875   0.671875 0
  0.500000   0.796875 0
  0.078125   0.015625 0
  0.218750   0.718750 0
  0.062500   0.828125 0
  0.734375   0.250000 0
  0.906250   0.140625 0
  0.109375   0.578125 0
  0.781250   0.015625 0
  0.718750   0.187500 0
  0.031250   0.828125 0
  0.718750   0.234375 0
  0.890625   0.125000 0
  0.093750   0.562500 0
  0.734375   0.359375 0
  0.859375   0.546875 0
  0.062500   0.984375 0
  0.750000   0.406250 0
  0.718750   0.343750 0
  0.250000   0.750000 0
  0.234375   0.734375 0
  0.046875   0.578125 0
  0.734375   0.000000 0
  0.828125   0.125000 0
  0.031250   0.562500 0
[...]
POINT_DATA 4072
SCALARS scalar_value float 1
LOOKUP_TABLE default
-0.00401737
-0.000347163
0.000568597
-0.00294533
-0.0163997
0.00336797
-0.00289263
0
-0.00440203
0.0424007
-0.00311626
-0.00188012
0.0151676
-0.00261668
0.0328829
0.00077342
0.00061223
-0.00504755
0.0708459
0.00836738
-0.000465929
0.0125615
0
0.00101002
-0.0123049
-0.010397
0.0123117
-0.000250603
-0.0144361
0.00578319
-0.00334035
0.039824
-0.00626075
0.0143575
0.00583736
0.035943
0.0140051
0.00264834
-0.00731881
-0.0238365
0.0163949
-0.0203359
-0.00114033
0.0137595
0.000684071
0.0203354
0.000163931
-0.0255661
-0.000290437
-0.0175155
-6.44008e-05
0.0202248
0.000771954
-0.0236636
-0.011584
-0.00454459
0
0.000133717
0.034265
0.00282453
0.00223151
-0.00077747
0.0771407
-0.00068635
-0.00303882
0.00139115
-0.0212307
0.00297055
0.0030379
0.000273443
-0.0257061
-0.00262864
0.00823453
-0.0128064
-0.0131434
0.0115127
0.00175671
-0.0052115
-0.0238456
0.000507476
-0.000480003
-0.000514294
0.000667124
-0.0187877
-0.0084671
-0.000754541
-0.00468406
0.00146506
0.00547309
-0.000303362
-0.00331156
0.00224245
0.000525497
-0.0351927
0.00435371
0.000974508
0.0101644
-0.0201181
-0.00043353
0.00374642
-0.0029657
0.00572391
0.000197484
0
-0.00249556
-0.00134585
-0.0395488
0.00123345
-0.00360017
-0.00098964
-0.0073924
0.000838112
0.0533371
-0.019424
0.000792489
0.00570692
0.00459539
0.00696255
-0.00945259
0.00358606
0
-0.0057654
0.0237949
0.0201628
0.00418717
-0.00299834
-0.00622481
-0.00973434
0.0327665
-0.00442378
0.00031903
0.000152584
0.018943
0.0248719
-0.00116567
-0.0189787
-0.0165213
0.00133244
-0.0125731
-0.00789853
-0.027149
0.00390177
0.00566009
0.00649045
0.000271746
-0.106753
0.00792371
-0.00100604
-0.00289064
0.00236376
0.00049335
-0.0103623
-0.00240753
0.0100533
-0.000786249
-0.000620534
0
-0.00379828
-0.0069211
0.01423
0.00512707
-0.000251417
0.00546091
0.0016894
-0.000633319
0.00549999
-0.000266548
0.00163496
-0.00180493
0.000481211
0.000586815
-0.00152547
0.000658738
-0.00109186
0.000408859
-0.00368483
-8.1867e-06
0
-0.00351866
0.000180764
3.42853e-06
0.00443482
0.00405533
0
0.00372229
0.00583664
-0.00106394
-0.0355177
-0.0040619
0.00130833
-0.00413669
0.000436398
0.00238789
0.0408123
0.00330996
0.0033711
0.0102185
-0.00200481
-0.00469079
0.00368749
0.00417478
-0.000805738
-0.00423749
-0.0186709
-9.44597e-05
-0.00751855
0.00264251
0.00674747
-0.00273877
-0.0279374
0.000334725
0.000548686
0.0312991
0.00245171
0.0136268
0.00404509
-0.00132262
0.0197297
0.00286247
0.000641802
-0.00338491
-0.000989134
0.00173552
0.0237025
-0.00279232
-0.00124586
0
-0.00345018
0.0118058
-0.00200277
0
0.00162249
0.00153225
0.0311941
0.00414667
0.0041706
-0.00111317
-0.00179327
-0.0188879
-0.00126739
0.000254558
2.53688e-05
-0.0319533
-0.00126706
0.00217809
0
-0.00372317
-0.000382617
0.00385196
-0.00843999
0.00172366
0.000563197
0.0408776
8.45348e-05
-0.046179
-0.0180848
-0.0025657
-0.00111068
-0.00531655
0.00218381
0.00809939
-0.000482349
0.0145505
0.0386586
-0.00115669
0.0221704
0.00382653
0.0115572
-0.00115162
0.00970732
-0.0010906
0.00722768
-0.022699
-0.00330392
-0.000251497
0.0267223
0.00133107
-0.0170018
-0.00371215
-0.00916143
0.000820763
0.00729132
-0.00200839
-0.00121586
-0.00143261
-0.00100923
0
-0.00285561
-0.0237631
0.000452521
-0.00250534
0.0013699
-0.0555333
0.00981792
0.00110319
0.00972022
-0.0167205
0.000796163
0.0101593
0.000708454
-0.0160136
0.000814366
0.00808937
0.00416818
0.917508
0
-2.49183e-05
0.595382
0.00849011
0.235611
-0.0242363
0.986473
0.632871
0.678065
0.266373
-0.0461259
1.17246e-05
0.154234
-0.123462
0.0930456
0.0919857
0.0201253
0.428489
-0.0266862
0.704888
-4.49511e-07
0.66271
-0.193367
-0.0898319
-1.39667e-05
0.782323
0.0488679
-0.0588742
1.08861e-05
-0.149375
0.486178
0.405853
-0.00836012
0.534716
1.2202e-06
0.0358206
-3.4981e-05
0.0442739
0.496596
0.703389
0.76609
0.273991
-0.0213083
0.773361
0.791801
0.00434078
1.16535
0.13993
-0.035217
1.40199e-05
0.40573
0.584604
0.187516
0.15718
-0.153217
0.891911
-0.219211
0.771193
5.85367e-07
0
-2.47053e-05
0.160504
0.914353
0.848644
0.206043
0.0309505
0.0409227
0.0978579
-0.135807
5.04707e-06
0.434222
-0.0527602
0.020363
0.0341255
0.0231921
-1.77189e-06
0.139457
-0.059413
-7.93886e-06
-0.0122677
-1.45994e-05
9.31501e-06
-0.00125964
0.6838
2.84889e-08
0.00167623
0.00219443
-0.00156236
2.40738e-06
0.00104059
5.8484e-05
0.000633544
0.0100311
0.00098074
-5.24374e-06
0.00218384
-0.00551052
0.000535624
-0.00981041
0.00742532
0.00167823
-0.0773948
0.0419244
0.0018755
-0.000207851
3.4751e-05
0.000185836
0.0103851
0.0170272
0.000215831
-0.00971778
-2.16502e-06
-0.00090496
-0.000270665
0.00366824
-0.0865298
-0.00311826
3.03134e-06
0.000338191
0.00383159
0.0562614
0.000797347
0.000409221
0.00103229
0.00149673
0.00183712
0.000193983
-6.06123e-06
-0.00287929
6.97593e-05
0.00405156
0.0200245
0.000161208
-1.71617e-06
-0.000197524
0.0060169
0.000286225
-0.00930378
-0.00673175
-0.0072148
1.75568e-06
-0.000427642
2.35882e-06
-0.0113308
0.000292604
-8.36322e-05
-2.46306e-05
0.00884732
-0.000117129
-0.00245815
0.00548657
-0.0136764
-5.18192e-06
-0.00100304
0.00153533
1.85703e-05
0.0022586
0.000305134
0.00207502
0
0.0194027
0.00365052
-0.000368953
0.00175022
-0.000257286
-0.000628623
0.000833555
-0.000262315
0.00478894
-0.00782561
0.000101497
0.0017562
0.0108285
0.00109248
2.69635e-05
-0.00779471
0
0.000362748
-1.95563e-05
0.00884713
0.00146112
-0.000166616
4.12055e-06
0.00104975
0.0149729
0.00435172
-0.0311523
0.845215
0.00586403
-2.89012e-06
0.00317675
0.000321958
0.000120183
-0.0707342
0.0041918
2.68609e-06
-2.36356e-06
-0.00392341
0.000398117
0.0813241
-0.00122074
-1.50127e-06
0.000401125
0.00016842
-3.01822e-06
-0.00115819
0.000586859
-3.71503e-06
0.000753687
3.07859e-06
-0.0029812
-0.0012591
-0.000642453
0.000541387
0.00116321
-0.00918693
0.0143397
2.2998e-06
-0.00519478
-0.000929456
-0.0140813
0.00527386
-0.00153861
0.000811636
-1.36263e-06
-1.56038e-06
-0.00545911
0.00713229
0.00158843
0.000483579
-0.0010003
-0.00376971
0.000433165
0.00581879
3.80652e-06
0.000844843
-0.000716272
0.100915
0.00554722
0.000734138
-9.04606e-06
0.000868831
-2.53311e-05
0.00106179
-2.47017e-05
0.14907
0.0113638
2.58216e-06
0.00139145
-0.00122171
-0.0225802
4.97542e-05
0.00805375
-0.00371333
9.14036e-07
0.00615924
0.000180094
0.0182752
-0.0425989
-0.00950604
3.7051e-05
-0.00634168
0.0182828
0.00324706
-2.46569e-06
-0.0011533
0.000277201
0.00649171
8.24418e-06
0.00182122
-0.000123491
-0.000182677
-2.77887e-05
-0.0018656
-0.000340034
0.00844747
1.25563e-06
-0.00195971
0.0195211
0.000207455
-1.58466e-06
-0.026307
1.57337e-06
-2.59517e-05
0.000470331
-0.0176484
-0.000372104
-0.000764318
-0.0701532
-0.000276791
0.0312975
-0.00455493
-3.78062e-07
0.00108374
-0.00023127
0.00116286
0.000224545
0.0040223
-0.000827089
4.66533e-05
0.00587791
-0.0183845
-1.69042e-05
-0.00722615
-0.000975649
0.0141052
-0.000518408
0.16359
0.00131451
-3.53087e-06
1.39985e-05
-0.000129643
-0.000160086
0.0062461
-2.28779e-05
0.000184578
-0.000282724
1.25817e-06
-0.000221465
0.00101761
-0.0010828
-0.00535791
2.16608e-06
0.000331688
-0.000373691
0.000540544
-0.000179441
0.0048848
-0.000412028
0.000165379
0.00299421
-0.000294757
0
4.9486e-05
0.000365593
-0.0176954
-0.00036809
0.00368879
0.000219645
5.62359e-05
0.00239771
0.000866495
0.000164634
0.00324206
-8.467e-05
0.000316558
0.000377218
0.00257802
-0.000300746
-0.00453301
0.000298192
-0.000905235
-0.00095475
0.000364945
0.00031277
0.00512866
-0.000384778
0.0786254
0.00031987
0.000357972
0
-0.00358946
0.000136689
-0.0875893
-0.000243684
-0.000518991
1.7113e-06
-0.0131533
0.000215739
-3.96285e-06
-0.00522056
-0.0534696
-0.0712268
-0.000147913
0.000155015
0.000174944
0.1665
-0.00396168
0.0407144
2.87961e-06
-0.000536659
3.10171e-06
-0.00591726
0.00476599
0.00043334
0.000584529
0.00567257
0.0610161
0
0
0.0830387
-8.68216e-07
0.00184923
-0.00029607
2.86255e-05
0.00102595
-0.0003434
-0.000132631
0.000827057
-0.00219146
0.000220956
0.448063
2.47899e-07
-0.000148298
-0.00119536
-5.59265e-05
0.000106307
-0.000448497
4.33778e-06
-8.51287e-05
-2.46899e-05
0.255685
-0.000195334
-0.00239405
-0.000111568
-0.00147731
0.000263036
-0.0192741
0.0101453
0.19628
-9.51554e-05
-0.0509506
0.800337
0.000902673
-0.000337386
-0.00719106
0.560861
-0.000455311
0.0245481
-0.00999906
-0.00486969
0.000338122
-9.196e-05
-0.00105873
0.00704283
-1.02957e-05
-0.0153478
0.000998899
-0.00296393
0.00106352
-0.00102252
0.00324016
0.00103575
0.0505492
0.00506119
-0.126927
-0.0252006
-0.000131861
0.0009805
0.0911613
-0.000312421
-0.00148343
0.0581225
-0.0465083
-0.00471608
-0.000428999
-0.00132662
-0.0417989
0.00139477
0.00993791
0.00106974
0.00277707
0.000642099
-0.00919484
-0.00184491
-0.0234648
0.00508787
-0.000559153
0.0328366
-0.0092745
0.000908392
0.00640217
0.000768279
-0.0439336
-0.000333406
0.00102563
-0.000414302
0.00681284
-0.000118264
0.561942
2.18718e-07
0.000113168
0.016502
0.00014254
0.00477546
-2.06246e-05
0.0276055
0.000136683
0.0075125
-0.000304143
0.00117052
0.157862
-7.79667e-06
0.00705301
4.66987e-06
-0.000904054
-8.44898e-05
0.00941844
0.598746
-7.06243e-07
0.000936393
-6.37526e-06
6.00884e-05
-0.00171404
-0.0636772
0.00601145
-0.0121705
0.00448567
-0.00021291
0.000156535
0.0298195
0.858394
-0.000225084
0.0899303
-1.4298e-05
0.0172964
0.000127307
-0.0245268
-0.00950524
2.79156e-05
-0.0116354
0.000249867
0.00405408
-1.18637e-06
-6.15297e-06
0.00950852
0.671932
9.53406e-07
-0.00154881
-5.57661e-05
0.00112563
0.000143593
0.000210692
0.00455273
-3.19839e-05
0.802101
3.65035e-08
0.0013102
0.000176085
0.00304504
0.000126234
0.00184641
-0.000944642
0.000922502
0.000638211
-0.0231281
-0.0707509
-0.00185042
0.0637641
-0.0122037
0.00366495
-0.0131915
-0.00145206
0
0.0061391
0.000119947
-0.00330369
0.00228095
4.32335e-08
-0.00841772
-0.00187886
0.0183868
-0.000968117
-0.000259468
-0.00232766
0.00295168
0.000589209
0.00449875
0.0176574
0.00018675
0.000625161
0.0335773
-0.0535358
-0.00597369
-4.5345e-05
-0.00127893
-0.0508846
0.0828738
0.0725728
0.0273525
0.0127903
-0.0398537
0.000533427
-1.21761e-05
0.000235302
0.0571376
0.0376905
0.00258987
9.40398e-05
0.00439319
0.0330303
-0.0012861
5.09173e-05
0.000102672
-0.00146105
2.67806e-05
-0.010112
0.063283
-0.00816671
0.000104007
-0.000523445
0.00782582
-0.00455499
-0.000458762
-0.0150703
0.00501014
0.0623257
0.00376593
0.000752509
-0.00232331
0.0204166
0.0561586
-0.00189302
-0.000922801
-0.0423039
-0.0466293
-0.00453496
0.0683126
1.52108e-05
0.355035
-7.43728e-05
-0.016487
0.206621
0.000343616
0
4.91893e-05
-0.00176947
0.00320736
-0.00118061
0.0911625
-0.00315271
-0.0130324
-0.00163841
0.0534722
0.00157133
-0.00104389
-0.126385
-0.00419547
-0.00352847
0.0102133
-0.00303372
-0.000318159
-0.000925902
0.0194433
0.00404723
0.000829092
-0.00642918
-0.000536433
0.0189889
0.00537605
0.000259078
0.0489231
0.354008
0.000104393
0.214713
1.01367e-05
0.00439999
0.0522535
-0.000263437
0.00381008
-0.00904222
-0.000557017
0.0389254
0.045678
0.0647154
0.0717752
0.0388269
0.0157653
2.06018e-05
-0.000305738
0.00496613
0.706268
0.00197518
0.00630128
0.0093411
-4.21128e-05
-0.0175166
3.52854e-05
-0.00845213
0.106243
1.9886e-05
0.000503859
0.0198453
-0.000193133
-1.69263e-05
0.0222406
-1.88202e-05
-0.0076416
0.325737
9.61543e-05
0.0999283
0
0.00530365
0.979419
-0.00032943
-0.00226451
-0.00290181
0.00920116
9.0717e-05
-0.0471004
0.0283417
-2.00973e-05
0.0497067
0.948865
2.7924e-05
2.73617e-05
0.00583527
-0.00338909
3.28332e-05
0.0281596
-1.54479e-05
-0.00323065
-0.000666103
4.77553e-06
-0.00790923
-0.0563018
0.0144852
-7.2263e-05
0.000117925
-0.000290136
-0.128536
2.49341e-06
6.51461e-06
0.0690278
0.000669194
-3.70221e-05
-0.0144741
-9.65325e-06
0.403235
0.455536
-8.77101e-05
-6.89603e-06
0.0471384
-6.08273e-05
0.958529
1.89961e-06
0.0775995
0.00683804
0.0111093
-6.8025e-05
0.00602137
1.03386e-05
-0.148967
-3.95007e-06
-0.0722259
-6.97468e-06
-0.000103068
-4.29334e-05
-0.000112309
4.57875e-06
0.00206236
-6.67422e-06
0.0509856
9.89443e-07
4.73077e-05
4.11174e-06
0.728297
-0.0874542
-8.41915e-05
1.66352e-05
0.00342296
0.0535954
6.86679e-06
0.110078
-1.57247e-05
0.562473
-0.000330227
-0.0103983
3.34572e-05
-4.76408e-05
0.00496573
-0.00149161
-0.000355912
6.82503e-06
0.0546553
-0.000542496
-5.30818e-05
6.75391e-06
0.110812
-0.00551365
0.000176301
-0.00333022
-9.58087e-05
0.000813494
4.85357e-07
0.407347
-0.00224085
0.0160056
-7.0739e-05
-0.0049016
2.76064e-07
0.485283
4.88592e-05
-0.000914943
-6.10157e-05
-0.0068781
-6.32126e-06
0.00593588
1.40483e-05
-0.141218
1.853e-05
4.44465e-06
0.00164041
2.48303e-05
-2.14066e-05
0.447792
-0.000903285
0.0179532
-1.75258e-05
0.0247407
-0.000109481
1.50064e-05
-0.000379618
-0.00654565
-0.000158007
5.87661e-06
-0.0959576
-0.00011332
4.11171e-06
0.608215
4.93723e-06
0.336279
-0.000165231
0.114059
2.11669e-05
0.0518852
-2.44042e-06
0.0887587
-1.80095e-05
0.018142
-0.0169011
6.84137e-05
6.1679e-07
-0.0710643
-2.29805e-06
0.740827
-0.162871
5.41628e-06
0.187212
-0.0475723
-0.000215863
6.58346e-07
0.000188202
-3.51008e-05
0.146809
0.00550002
-4.11128e-06
-0.141335
-4.70308e-07
-0.000145969
-0.000165602
0.0114908
0.00278556
8.59544e-08
0.251911
9.22675e-05
0.00763615
-8.79696e-07
0.000115482
1.24508e-08
0.519717
8.14022e-05
8.94684e-07
-0.000121892
4.35152e-06
-0.00277723
-3.70758e-07
0.141928
-8.15612e-05
-2.8571e-06
-1.10254e-06
0.408601
3.58488e-05
-7.65748e-05
-0.0040811
0.000768447
3.1473e-07
-0.019202
3.21716e-05
6.48228e-07
0.450609
-3.79337e-05
0.0766149
-1.72076e-05
-0.00992905
0.000125171
-7.66403e-05
-5.93197e-05
-2.96882e-05
0.361388
2.29628e-05
-0.00137766
3.88867e-06
5.58251e-06
-0.000201721
-6.81761e-06
-0.00814113
0.000841738
-1.19701e-06
0.118663
3.63431e-05
0.0117421
6.00771e-05
0.00449512
1.56236e-06
0.837049
0.000186875
6.34768e-06
0.0855888
0.00246315
2.76193e-05
0.000145148
0.0197168
2.73952e-06
0.054951
0.0108291
4.14369e-07
0.000234337
-0.0573528
1.1705e-05
0.0333738
0.000186056
4.21855e-06
0.0848846
0.000321171
8.38976e-06
0.000144671
0.0163368
4.15554e-06
0.0817732
-0.000183683
-8.06464e-06
-0.0357369
-0.00886949
-2.78956e-05
-0.000187902
-0.010894
-4.2536e-06
-0.0966702
-0.000162448
-4.14221e-06
-0.0543662
-0.000247634
-0.000126788
0
-0.0116815
-5.76988e-06
-0.000133715
-0.00990624
-3.47562e-06
-0.027837
-0.412647
-0.000416615
-7.0694e-06
-0.0951081
0.311716
0.00114874
0.102931
-1.08342e-05
0.0827703
0.00712483
0.000322752
0.000877282
-7.25914e-06
0.000417584
-0.000346563
0.316061
2.61361e-06
-0.0784078
-0.0172833
3.76734e-05
4.19352e-07
0.0120303
-5.48413e-06
-8.33121e-06
0.0624723
0.000139531
0.00458408
-5.55527e-06
0.0518254
-0.000187771
-3.44678e-06
-0.080182
-2.75005e-06
-0.00846978
0.00101356
-3.67611e-06
0.0943345
7.26728e-05
0.00545486
8.24222e-05
-0.00240424
2.3657e-06
0.510801
-9.81551e-05
-0.000586109
0.0195249
-0.00307274
-2.69698e-06
-0.0569958
7.22942e-06
-0.0184755
-0.000104217
-0.0223508
-1.96943e-06
0.212117
0.000353184
0.0284407
1.78382e-06
-0.0483471
-2.84823e-05
-1.3132e-05
-0.000109711
0.0190236
-2.7761e-06
-0.101262
0.0262917
-5.8842e-05
-2.55546e-06
0.187805
-0.00128892
6.08669e-06
1.12168
0.0203906
0.000103378
0.0236605
3.41096e-06
0.233717
4.01985e-06
0.0691273
0.000170756
-1.70514e-06
-3.2752e-05
-9.03054e-05
-0.0034199
-1.45224e-06
0.334116
0.000252572
1.26004e-07
0.539198
0.0142149
8.62239e-05
-0.00660064
-7.31876e-05
-2.94748e-06
-0.0274123
0.00058689
0.0035386
0.000204966
0.00160184
3.08583e-07
0.311972
9.89439e-05
-0.00989146
-6.93249e-06
-0.0017347
-2.29465e-06
-5.79634e-05
-0.00195059
0.00325398
0
-0.0156648
-2.50329e-06
0.000222498
-0.0582338
0.0038184
2.00021e-06
5.30933e-06
0.0698316
-1.19421e-06
-0.000174309
-5.63864e-05
0
-0.0151997
-1.11787e-06
0.494292
-0.011333
-7.71785e-05
0.00246108
1.91117e-06
6.42827e-05
-0.0277532
-1.99159e-06
0.460655
0.00676571
-4.46949e-05
8.92773e-05
0.00365373
2.89554e-06
0.339901
0
-1.30004e-05
0.000132201
-0.00710868
6.93901e-05
5.01218e-06
7.82912e-05
0.0167046
-0.000151301
0.000122813
0.00496014
3.97871e-06
0.144539
4.67097e-06
-0.0114964
6.30405e-07
0.166396
-0.000129222
-0.0113715
-8.44255e-05
-0.000281406
-0.00726066
0.00776499
-2.1472e-06
-0.000156503
-1.1373e-06
-4.48911e-08
0.212846
-1.34611e-05
0.00492689
-0.000626375
0.000101081
9.12242e-05
3.16966e-06
0.675691
-0.00010143
4.30766e-06
1.11904
0.635447
3.45133e-06
0.00183377
1.26665e-06
0.0002668
0.000255517
5.31212e-05
0.866608
-0.000338495
0
0.0046348
-4.96805e-05
3.28512e-05
0.253477
-0.000289698
-0.00106703
-4.02909e-06
-0.068095
-0.000393742
-4.91065e-05
0
-0.0802118
6.07335e-06
0
-0.0605263
5.83026e-07
0.000280646
0.988473
1.65648e-05
0
0.00588598
0.0875408
-0.000222803
0.106986
0.871527
0.00027617
-7.63679e-08
0.848368
-0.000233007
0
-0.00694678
7.27661e-05
0.000597433
0.00016196
-0.000254608
0.141158
-1.69516e-06
-5.80785e-06
0.0103011
-0.00669691
-8.84669e-05
-2.50998e-07
0.0637777
1.61583e-05
-1.53349e-06
0.683245
-0.00237005
-9.06112e-07
-8.11549e-05
-0.0152515
5.11906e-07
0.000170929
4.05589e-05
0.0405433
-0.00368865
-5.54421e-05
-0.00961954
-7.31278e-07
0.70637
-1.19287e-06
-0.000214798
-0.00236046
-2.81365e-06
0.0278626
-7.23759e-05
-0.000533039
0.00340773
0.00137774
0.00684326
0.00307687
4.98732e-06
-0.00363766
-3.91947e-06
-0.105621
-0.00395285
-0.000154564
-0.00789899
0.0125514
-5.02061e-05
-0.000418071
-0.0874494
1.25614e-05
-0.000853935
-5.5626e-06
0.118367
-0.00665933
-4.91703e-06
8.9043e-05
0.0015013
1.17687e-07
0.600485
-0.00277656
-0.00232692
0.0557244
-0.00185115
0.00300791
0.0104269
-9.17897e-05
4.39214e-05
0.00576321
0.0016703
0.00234774
9.90434e-07
0.118143
-0.000111174
-0.00750301
-0.00345519
-0.000374749
-1.97591e-05
-0.00286531
-3.22913e-06
0.444656
-0.0207775
-4.48185e-05
-0.000448206
-8.60685e-08
0.829618
-0.00192692
0.00483729
-0.000169007
0.000143573
0.0680592
-0.000134039
-0.0399057
9.45551e-07
-0.0825912
-7.41611e-06
-0.066161
-7.88165e-05
4.76646e-07
0.0181441
-0.00158772
2.37538e-05
0.000818762
9.65549e-07
0.0466918
-3.10131e-05
0.828677
-0.000281908
0
-2.19101e-06
0.00766336
0.0249132
-1.49188e-05
0.00455408
-0.000217476
-0.00349669
0.000132241
0.0821102
8.17586e-06
1.10901e-06
0.75271
0.00129312
1.30623e-07
7.02619e-05
0.000153751
1.41644e-05
-0.00366201
-1.23559e-05
0.0951255
-4.30582e-07
0.000141336
1.40277e-06
0.000162864
-2.12627e-06
0.82386
-4.09267e-06
1.27666e-05
0.00194028
-1.33691e-05
-0.00878156
2.60918e-06
0.0028402
-5.21221e-09
-0.000184083
1.6354e-05
-0.115269
0.00575505
0.00104874
0.0172673
-0.000381915
2.15865e-05
-0.0165708
-9.83268e-05
4.98976e-06
-2.4929e-05
0.0109236
3.44082e-05
0
-0.00489283
-0.0132252
0.000112202
0.000899431
0.000773
0.000734881
0.0256117
0.00960966
1.32235e-07
0.867203
0.015181
6.78436e-05
-0.0480956
-0.00137607
0.810572
0.00268139
-0.0776949
0.00572255
0.000472686
-0.0233482
0.00501072
0.000318797
0.0155421
-0.00151943
-8.29027e-06
0.716196
0.00344556
-6.6614e-08
0.0107577
-0.00718624
-0.000107814
0.00120481
-0.00469572
5.01592e-06
0.00011519
-0.00369169
-0.000599638
0.0163071
0.00373108
-1.08434e-05
-0.00208853
0.000125732
-0.00259067
-0.000495769
0.0569643
-0.00340127
-0.000332498
0
5.78593e-05
-0.0011726
0.0249661
-1.5973e-05
0.032561
1.4348e-05
0.0647392
0.00521038
0.000706616
0.0193987
0.00981258
-0.000110946
-0.000278767
0.10859
0.00359525
-2.47921e-06
0.000517508
0.00232545
0.000118215
-2.43246e-07
0.0854988
-0.00131741
-0.000390556
-0.00162203
0.0103307
6.14973e-05
7.37556e-05
-0.00536753
4.49695e-05
-3.62109e-06
-0.000680866
1.35928e-05
-0.130681
-0.000302645
-0.0102097
-5.7299e-06
0.000457578
0.000376289
0.0999454
-2.53707e-05
0.00166319
0.00248256
0.000850516
0.110101
-0.00487686
-0.00316303
7.7252e-06
0
1.9953e-05
1.24734e-06
0.000211677
0.0210678
-0.00285904
0.79501
-0.00148809
-0.00615008
0.00713135
-0.000362732
0.022358
-0.00841796
-0.000423699
-0.0437634
0.0393393
-0.000683328
-0.00415796
0.000142311
0.0237616
-0.00107068
0.00232277
-0.015299
0.000854081
0.0011749
-0.0262286
0.00334881
0.000996843
-0.0653667
9.4711e-05
-0.0232397
-0.00145809
3.98578e-06
0.0616271
0.612894
1.01781e-05
-0.0949405
0.186619
-1.07124e-05
0
-1.3636e-05
0.0445209
9.97639e-05
0.000146034
0.00813463
0.00199235
0.0115892
-0.000125057
-0.00153678
-0.000245299
-7.8111e-07