# vtk DataFile Version 2.0
Unstructured Grid by M++
ASCII
DATASET UNSTRUCTURED_GRID
POINTS 16641 float
  0.968750   0.625000 0
  0.984375   0.640625 0
  1.000000   0.625000 0
  0.453125   1.000000 0
  0.453125   0.984375 0
  0.453125   0.968750 0
  0.453125   0.953125 0
  0.531250   0.328125 0
  0.515625   0.312500 0
  0.515625   0.343750 0
  0.515625   0.375000 0
  0.546875   0.343750 0
  0.531250   0.359375 0
  0.546875   0.375000 0
  1.000000   0.656250 0
  0.234375   0.406250 0
  0.078125   0.453125 0
  0.875000   0.015625 0
  0.562500   0.703125 0
  0.625000   0.453125 0
  0.859375   0.031250 0
  0.875000   0.046875 0
  0.859375   0.062500 0
  0.578125   0.718750 0
  0.578125   0.750000 0
  0.562500   0.734375 0
  0.640625   0.468750 0
  0.640625   0.500000 0
  0.625000   0.484375 0
  0.406250   0.828125 0
  0.593750   0.078125 0
  0.609375   0.093750 0
  0.421875   0.843750 0
  0.421875   0.859375 0
  0.500000   0.359375 0
  0.046875   0.421875 0
  0.546875   0.687500 0
  0.609375   0.437500 0
  0.640625   0.609375 0
  0.968750   0.421875 0
  0.296875   0.359375 0
  0.218750   0.046875 0
  0.671875   0.609375 0
  0.359375   0.390625 0
  0.296875   0.640625 0
  0.234375   0.890625 0
  0.765625   0.453125 0
  0.703125   0.703125 0
  0.343750   0.515625 0
  0.375000   0.515625 0
  0.468750   0.015625 0
  0.406250   0.265625 0
  0.437500   0.265625 0
  0.859375   0.656250 0
  0.531250   0.671875 0
  0.515625   0.687500 0
  0.593750   0.421875 0
  0.578125   0.437500 0
  0.562500   0.421875 0
  0.015625   0.390625 0
  0.515625   0.656250 0
  0.578125   0.406250 0
  0.562500   0.390625 0
  0.203125   0.031250 0
  0.187500   0.015625 0
  0.656250   0.593750 0
  0.640625   0.578125 0
  0.171875   0.828125 0
  0.296875   0.328125 0
  0.796875   0.593750 0
  0.984375   0.750000 0
  1.000000   0.765625 0
  0.484375   0.515625 0
  0.843750   0.640625 0
  1.000000   0.453125 0
  0.359375   0.109375 0
  0.781250   0.890625 0
  0.203125   0.484375 0
  0.265625   0.234375 0
  0.078125   0.984375 0
  0.234375   0.265625 0
  0.171875   0.515625 0
  0.031250   0.406250 0
  0.046875   0.390625 0
  0.531250   0.640625 0
  0.546875   0.656250 0
  0.593750   0.390625 0
  0.609375   0.406250 0
  0.234375   0.578125 0
  0.093750   1.000000 0
  0.781250   0.015625 0
  0.796875   0.031250 0
  0.234375   0.062500 0
  0.250000   0.078125 0
  0.671875   0.640625 0
  0.421875   0.953125 0
  0.437500   0.953125 0
  0.546875   0.515625 0
  0.671875   0.015625 0
  0.609375   0.265625 0
  0.484375   0.765625 0
  0.796875   0.703125 0
  0.859375   0.453125 0
  0.062500   0.890625 0
  0.796875   0.625000 0
  0.812500   0.640625 0
  0.421875   0.250000 0
  0.921875   0.406250 0
  0.234375   0.984375 0
  0.234375   1.000000 0
  0.140625   0.734375 0
  0.359375   0.531250 0
  0.484375   0.031250 0
  0.421875   0.281250 0
  0.468750   0.359375 0
  0.453125   0.343750 0
  0.390625   0.671875 0
  0.515625   0.171875 0
  0.234375   0.609375 0
  0.921875   0.437500 0
  0.281250   0.703125 0
  0.296875   0.718750 0
  0.218750   0.953125 0
  0.234375   0.968750 0
  0.546875   0.203125 0
  0.296875   0.609375 0
  0.359375   0.359375 0
  0.859375   0.625000 0
  0.421875   0.109375 0
  0.234375   0.937500 0
  0.234375   0.953125 0
  0.921875   0.375000 0
  0.125000   0.812500 0
  0.281250   0.625000 0
  0.265625   0.609375 0
  0.781250   0.875000 0
  0.359375   0.078125 0
  0.781250   0.859375 0
  0.343750   0.375000 0
  0.328125   0.359375 0
  0.312500   0.375000 0
  0.843750   0.609375 0
  0.828125   0.625000 0
  0.812500   0.609375 0
  0.796875   0.890625 0
  0.796875   0.906250 0
  0.375000   0.125000 0
  1.000000   0.515625 0
  0.890625   0.375000 0
  0.796875   0.734375 0
  0.859375   0.484375 0
  0.718750   0.921875 0
  0.921875   0.093750 0
  0.781250   0.953125 0
  0.218750   0.421875 0
  0.203125   0.406250 0
  0.953125   0.687500 0
  0.453125   0.421875 0
  0.250000   0.593750 0
  0.265625   0.578125 0
  0.312500   0.343750 0
  0.328125   0.328125 0
  0.828125   0.593750 0
  0.812500   0.578125 0
  0.796875   0.875000 0
  0.375000   0.093750 0
  0.796875   0.859375 0
  0.390625   0.078125 0
  0.546875   0.031250 0
  0.359375   0.781250 0
  0.796875   0.484375 0
  0.734375   0.734375 0
  0.531250   0.046875 0
  0.515625   0.062500 0
  0.500000   0.046875 0
  0.343750   0.796875 0
  0.468750   0.296875 0
  0.453125   0.281250 0
  0.453125   0.312500 0
  0.437500   0.296875 0
  0.781250   0.468750 0
  0.796875   0.453125 0
  0.718750   0.718750 0
  0.734375   0.703125 0
  0.515625   0.031250 0
  0.531250   0.015625 0
  0.500000   0.015625 0
  0.328125   0.781250 0
  0.343750   0.765625 0
  0.234375   0.437500 0
  0.906250   0.531250 0
  0.796875   0.937500 0
  0.843750   0.671875 0
  0.828125   0.656250 0
  0.781250   0.921875 0
  0.906250   0.359375 0
  0.109375   0.796875 0
  0.203125   0.937500 0
  0.890625   0.343750 0
  0.093750   0.781250 0
  1.000000   0.484375 0
  0.515625   0.234375 0
  1.000000   0.031250 0
  0.890625   0.515625 0
  0.734375   0.531250 0
  0.734375   0.562500 0
  0.234375   0.296875 0
  0.171875   0.546875 0
  0.968750   0.109375 0
  0.406250   0.687500 0
  0.531250   0.187500 0
  0.546875   0.234375 0
  0.343750   0.546875 0
  0.328125   0.531250 0
  0.406250   0.296875 0
  0.390625   0.281250 0
  0.468750   0.046875 0
  0.390625   0.359375 0
  0.593750   0.109375 0
  0.578125   0.093750 0
  0.562500   0.109375 0
  0.406250   0.859375 0
  0.406250   0.843750 0
  0.390625   0.843750 0
  0.390625   0.859375 0
  0.312500   0.515625 0
  0.375000   0.265625 0
  0.281250   0.562500 0
  0.281250   0.593750 0
  0.296875   0.578125 0
  0.812500   0.843750 0
  0.343750   0.343750 0
  0.359375   0.328125 0
  0.406250   0.062500 0
  0.406250   0.093750 0
  0.421875   0.078125 0
  0.656250   0.484375 0
  0.671875   0.500000 0
  0.171875   0.234375 0
  0.546875   0.984375 0
  0.546875   1.000000 0
  0.046875   0.734375 0
  0.843750   0.296875 0
  0.593750   0.734375 0
  0.609375   0.750000 0
  0.890625   0.062500 0
  0.109375   0.484375 0
  0.906250   0.046875 0
  0.531250   0.078125 0
  0.546875   0.062500 0
  0.562500   0.078125 0
  0.468750   0.328125 0
  0.484375   0.343750 0
  0.484375   0.312500 0
  0.500000   0.328125 0
  0.406250   0.234375 0
  0.390625   0.218750 0
  0.390625   0.250000 0
  0.281250   0.734375 0
  0.265625   0.718750 0
  0.906250   0.421875 0
  0.218750   1.000000 0
  0.218750   0.984375 0
  0.906250   0.390625 0
  0.218750   0.968750 0
  0.203125   0.968750 0
  0.203125   1.000000 0
  0.890625   0.406250 0
  0.203125   0.984375 0
  0.093750   0.468750 0
  0.890625   0.031250 0
  0.109375   0.453125 0
  0.593750   0.703125 0
  0.609375   0.718750 0
  0.656250   0.453125 0
  0.671875   0.468750 0
  0.234375   0.515625 0
  0.296875   0.265625 0
  0.359375   0.015625 0
  0.515625   0.953125 0
  0.015625   0.703125 0
  0.812500   0.265625 0
  0.250000   0.531250 0
  0.234375   0.546875 0
  0.250000   0.562500 0
  0.296875   0.296875 0
  0.796875   0.562500 0
  0.375000   0.031250 0
  0.359375   0.046875 0
  0.781250   0.843750 0
  0.375000   0.062500 0
  0.531250   1.000000 0
  0.531250   0.984375 0
  0.515625   0.968750 0
  0.515625   1.000000 0
  0.515625   0.984375 0
  0.796875   0.281250 0
  0.812500   0.296875 0
  0.203125   0.546875 0
  0.296875   0.015625 0
  0.718750   0.796875 0
  0.265625   0.296875 0
  0.781250   0.546875 0
  0.750000   0.546875 0
  0.750000   0.828125 0
  0.328125   0.046875 0
  0.187500   0.531250 0
  0.218750   0.531250 0
  0.218750   0.500000 0
  0.203125   0.515625 0
  1.000000   0.062500 0
  0.687500   0.765625 0
  0.250000   0.281250 0
  0.281250   0.281250 0
  0.281250   0.250000 0
  0.265625   0.265625 0
  0.765625   0.531250 0
  0.750000   0.515625 0
  0.734375   0.812500 0
  0.312500   0.031250 0
  0.343750   0.031250 0
  0.328125   0.015625 0
  0.718750   0.546875 0
  0.656250   0.796875 0
  0.937500   0.109375 0
  0.703125   0.781250 0
  0.687500   0.796875 0
  0.265625   0.015625 0
  0.671875   0.781250 0
  0.703125   0.531250 0
  0.718750   0.515625 0
  0.687500   0.515625 0
  0.218750   0.281250 0
  0.203125   0.265625 0
  0.640625   0.781250 0
  0.656250   0.765625 0
  0.625000   0.765625 0
  0.156250   0.531250 0
  0.953125   0.093750 0
  0.140625   0.515625 0
  0.937500   0.078125 0
  0.531250   0.250000 0
  0.546875   0.265625 0
  0.421875   0.765625 0
  0.609375   0.015625 0
  0.828125   0.765625 0
  0.812500   0.781250 0
  0.828125   0.796875 0
  0.453125   0.562500 0
  0.437500   0.546875 0
  0.390625   0.812500 0
  0.375000   0.796875 0
  0.578125   0.062500 0
  0.562500   0.046875 0
  0.468750   0.500000 0
  0.968750   0.765625 0
  0.953125   0.750000 0
  0.406250   0.750000 0
  1.000000   0.796875 0
  0.984375   0.781250 0
  0.515625   0.515625 0
  0.640625   0.015625 0
  0.578125   0.265625 0
  0.453125   0.765625 0
  0.750000   0.890625 0
  0.828125   0.281250 0
  0.031250   0.718750 0
  0.937500   0.421875 0
  0.781250   0.609375 0
  0.156250   0.843750 0
  0.953125   0.406250 0
  0.140625   0.828125 0
  0.937500   0.390625 0
  0.734375   0.875000 0
  0.765625   0.875000 0
  0.343750   0.093750 0
  0.765625   0.859375 0
  0.765625   0.843750 0
  0.343750   0.062500 0
  0.750000   0.859375 0
  0.328125   0.078125 0
  0.750000   0.843750 0
  0.734375   0.843750 0
  0.312500   0.062500 0
  0.281250   0.343750 0
  0.281250   0.312500 0
  0.265625   0.328125 0
  0.250000   0.312500 0
  0.765625   0.593750 0
  0.781250   0.578125 0
  0.750000   0.578125 0
  0.765625   0.562500 0
  0.015625   0.359375 0
  0.515625   0.625000 0
  0.500000   0.609375 0
  0.015625   0.328125 0
  0.015625   0.250000 0
  0.031250   0.343750 0
  0.031250   0.375000 0
  0.046875   0.359375 0
  0.062500   0.296875 0
  0.031250   0.265625 0
  0.046875   0.281250 0
  0.046875   0.250000 0
  0.062500   0.265625 0
  0.109375   0.765625 0
  0.484375   0.203125 0
  0.937500   0.703125 0
  0.421875   0.453125 0
  0.984375   0.015625 0
  0.671875   0.984375 0
  0.984375   0.468750 0
[...]
CELL_DATA 16384
VECTORS vector_value float
-6.26796 -4.69712 0
-5.41646 -4.95553 0
-5.21516 -4.22081 0
-5.88427 -3.91123 0
-5.42711 -6.93619 0
-5.51593 -5.85822 0
-6.59311 -5.7231 0
-6.75563 -7.05083 0
-0.84336 -1.51594 0
-0.812532 -1.49406 0
-0.833634 -1.46237 0
-0.866111 -1.48434 0
-3.87605 -5.64581 0
-4.61259 -5.80363 0
-4.39892 -6.65719 0
-3.60972 -6.31799 0
-0.770743 -1.55274 0
-0.791538 -1.52417 0
-0.820762 -1.54587 0
-0.798416 -1.57418 0
-4.58699 -4.38794 0
-4.65567 -5.04219 0
-4.00088 -5.01591 0
-4.02127 -4.44966 0
-0.732522 -1.48527 0
-0.76211 -1.50399 0
-0.742782 -1.53279 0
-0.71458 -1.51425 0
-11.8786 -4.24237 0
-10.0603 -3.07106 0
-10.6706 -1.33838 0
-12.9085 -1.80722 0
-7.80376 -5.28093 0
-9.02736 -4.41351 0
-10.2178 -5.93601 0
-8.39578 -6.80402 0
-7.15842 -2.74407 0
-8.01021 -3.42086 0
-7.16223 -4.20199 0
-6.55275 -3.42513 0
-9.07914 -1.05931 0
-8.69015 -2.35083 0
-7.62675 -1.87936 0
-7.88843 -0.88012 0
-0.103668 -2.02085 0
-0.0746807 -2.02465 0
-0.0717344 -1.99587 0
-0.0996891 -1.99275 0
-0.692185 -1.94034 0
-0.685117 -1.91689 0
-0.708713 -1.90866 0
-0.716818 -1.93343 0
-0.0826176 -2.08605 0
-0.0782629 -2.05462 0
-0.108494 -2.05001 0
-0.11434 -2.08045 0
-0.641693 -1.9304 0
-0.662784 -1.92411 0
-0.668895 -1.94628 0
-0.646921 -1.9513 0
-0.0158115 -2.05942 0
-0.0472737 -2.0578 0
-0.049962 -2.08991 0
-0.0167206 -2.09189 0
-0.646897 -1.88258 0
-0.655428 -1.90287 0
-0.635243 -1.91036 0
-0.627634 -1.89121 0
-0.0432564 -1.99802 0
-0.0450677 -2.02726 0
-0.0150664 -2.02859 0
-0.0144553 -1.99911 0
-0.699329 -1.88497 0
-0.676786 -1.89443 0
-0.667267 -1.873 0
-0.68875 -1.86238 0
-0.185818 -0.995788 0
-0.150458 -1.02812 0
-6.20602 -14.6166 0
-10.2399 -17.966 0
-4.67911 -22.1675 0
-2.58251 -16.5456 0
-0.991627 -1.52795 0
-1.02031 -1.49266 0
-1.05672 -1.52252 0
-1.02576 -1.55775 0
-11.492 -8.37297 0
-12.402 -12.5912 0
-8.18242 -11.7379 0
-8.71823 -8.96277 0
-0.947719 -1.43951 0
-0.98396 -1.46505 0
-0.9574 -1.50032 0
-0.923142 -1.47472 0
-21.969 -4.74562 0
-17.7746 -10.369 0
-14.3661 -6.34047 0
-16.2865 -2.65936 0
-7.85524 -33.3358 0
-22.237 -22.364 0
-33.2045 -7.91247 0
-69.7718 -69.8248 0
-1.0877 -1.48489 0
-1.04894 -1.45514 0
-1.07734 -1.41533 0
-1.11851 -1.44479 0
-0.820023 -5.65434 0
-0.957896 -6.09802 0
-0.457722 -6.20695 0
-0.40178 -5.73923 0
-0.775323 -1.73926 0
-0.800165 -1.71893 0
-0.820854 -1.74497 0
-0.794472 -1.76445 0
-1.81998 -5.63978 0
-1.4182 -5.90347 0
-1.20976 -5.50258 0
-1.5571 -5.29493 0
-0.756523 -1.67147 0
-0.778694 -1.69445 0
-0.75534 -1.71555 0
-0.734604 -1.69325 0
-2.04519 -6.93398 0
-1.68793 -6.37479 0
-2.15521 -6.03352 0
-2.59061 -6.4826 0
-0.827426 -1.64767 0
-0.802743 -1.67185 0
-0.779064 -1.64824 0
-0.802162 -1.6235 0
-0.530027 -6.77301 0
-1.13772 -6.6298 0
-1.37865 -7.27716 0
-0.626166 -7.47102 0
-0.848109 -1.72388 0
-0.825787 -1.69704 0
-0.852126 -1.67351 0
-0.876177 -1.70108 0
-0.967358 -0.832993 0
-1.01865 -0.83997 0
-1.01041 -0.891644 0
-0.960025 -0.883048 0
-0.849733 -1.5692 0
-0.878388 -1.59426 0
-0.852669 -1.62183 0
-0.825746 -1.59718 0
-3.94962 -7.55517 0
-3.21526 -8.40879 0
-2.53149 -7.60313 0
-3.16773 -6.99109 0
-0.576386 -1.91192 0
-0.581566 -1.92776 0
-0.565897 -1.93205 0
-0.561435 -1.91727 0
-0.0209214 -2.20331 0
-0.0623276 -2.19957 0
-0.0686682 -2.24239 0
-0.0230893 -2.24715 0
-0.428473 -1.93443 0
-0.421795 -1.9382 0
-0.418112 -1.931 0
-0.425224 -1.92784 0
-1.02984 -0.734086 0
-1.02516 -0.787404 0
-0.973089 -0.782142 0
-0.977132 -0.730625 0
-0.930866 -1.53357 0
-0.904489 -1.56486 0
-0.874031 -1.53951 0
-0.898539 -1.50803 0
-5.7418 -10.5173 0
-4.21413 -9.37763 0
-5.03262 -8.14938 0
-6.55846 -8.692 0
-0.616218 -1.91697 0
-0.598332 -1.92276 0
-0.592393 -1.90583 0
-0.60947 -1.89894 0
-0.0532496 -2.12394 0
-0.0572966 -2.16032 0
-0.0192082 -2.16331 0
-0.0178342 -2.12637 0
-0.431084 -1.95137 0
-0.426109 -1.94499 0
-0.43236 -1.94056 0
-0.436915 -1.94626 0
-1.13496 -0.800291 0
-1.07907 -0.793421 0
-1.08447 -0.73815 0
-1.14118 -0.742899 0
-0.964488 -1.62135 0
-0.934668 -1.5921 0
-0.963032 -1.56107 0
-0.994964 -1.59066 0
-1.23948 -11.0378 0
-2.92162 -10.4177 0
-4.10093 -12.1842 0
-1.71948 -13.2234 0
-0.606801 -1.9589 0
-0.603151 -1.94046 0
-0.621824 -1.93583 0
-0.626234 -1.95549 0
-0.130076 -2.14615 0
-0.094432 -2.15449 0
-0.0879258 -2.11922 0
-0.121433 -2.11241 0
-0.411629 -1.95503 0
-0.419196 -1.94982 0
-0.424559 -1.95688 0
-0.417346 -1.96275 0
-1.06243 -0.901266 0
-1.07169 -0.847844 0
-1.1266 -0.856725 0
-1.11621 -0.912034 0
-0.879111 -1.64823 0
-0.906658 -1.62112 0
-0.934458 -1.64991 0
-0.904989 -1.67646 0
-1.71214 -8.07975 0
-2.19272 -9.09652 0
-0.949116 -9.49565 0
-0.758552 -8.35177 0
-0.569286 -1.94751 0
-0.585648 -1.94433 0
-0.588588 -1.9616 0
-0.571562 -1.96363 0
-0.4104 -1.93458 0
-0.414487 -1.94239 0
-0.406558 -1.94696 0
-0.402098 -1.93855 0
-0.109012 -1.22129 0
-0.186164 -1.67046 0
-0.257226 -1.50011 0
-0.224814 -0.893431 0
-0.261403 -0.859345 0
-0.298317 -1.42268 0
-0.332074 -1.39964 0
-2.20539 -1.6475 0
-2.11478 -1.5674 0
-2.18828 -1.47385 0
-2.28843 -1.55029 0
-0.22181 -0.963131 0
-0.2584 -0.930054 0
-0.288468 -1.47779 0
-0.320838 -1.45575 0
-1.95961 -1.72806 0
-2.03818 -1.65208 0
-2.11939 -1.73457 0
-2.03174 -1.81179 0
-0.188675 -0.927035 0
-0.153035 -0.960261 0
-0.26573 -1.44587 0
-0.234238 -1.46926 0
-1.88176 -1.51231 0
-1.9589 -1.57833 0
-1.8884 -1.65275 0
-1.81843 -1.58495 0
-0.190776 -0.857287 0
-0.15504 -0.891318 0
-0.274626 -1.38945 0
-0.241897 -1.41376 0
-2.09241 -1.40635 0
-2.02723 -1.49622 0
-1.9428 -1.43286 0
-2.00072 -1.3466 0
-0.785696 -1.30261 0
-0.749461 -1.28717 0
-0.764054 -1.25049 0
-0.801588 -1.26553 0
-0.604256 -1.78111 0
-0.588987 -1.76573 0
-0.604262 -1.74958 0
-0.620525 -1.76574 0
-0.465884 -1.93103 0
-0.465677 -1.92669 0
-0.470129 -1.92578 0
-0.470922 -1.93093 0
-0.735802 -0.585627 0
-0.691507 -0.587997 0
-0.688584 -0.54434 0
-0.732778 -0.540762 0
-0.719314 -1.35678 0
-0.734517 -1.3226 0
-1.22572 -1.38785 0
-1.27339 -1.42159 0
-1.23786 -1.46809 0
-0.0131239 -1.5619 0
-1.19314 -1.43372 0
-0.779255 -1.945 0
-0.144911 -1.93322 0
-0.786797 -1.97497 0
-0.757016 -1.98112 0
-0.122927 -1.96225 0
-0.750661 -1.95271 0
-0.948117 -2.52235 0
-0.380407 -1.81617 0
-0.969003 -2.46498 0
-0.363718 -1.81392 0
-1.02854 -2.48321 0
-0.366068 -1.79661 0
-0.424361 -1.26081 0
-0.166482 -2.01414 0
-0.185902 -2.0219 0
-0.462352 -1.9544 0
-0.356367 -2.25428 0
-0.470764 -1.95636 0
-3.00645 -1.993 0
-0.391843 -2.2608 0
-0.459511 -1.96291 0
-2.99539 -1.70252 0
-2.29891 -1.73781 0
-0.486566 -2.0073 0
-0.354421 -1.43395 0
-2.39294 -1.63705 0
-0.140203 -1.61788 0
-0.152189 -1.95221 0
-0.246968 -2.22021 0
-1.43514 -0.921183 0
-0.271932 -2.25456 0
-1.41659 -0.988459 0
-0.234424 -2.28136 0
-1.35176 -0.969542 0
-0.210832 -2.24197 0
-1.36827 -0.905044 0
-0.0373015 -1.78916 0
-0.0125086 -1.81419 0
-0.863233 -2.42697 0
-0.173698 -1.99446 0
-2.10432 -1.90495 0
-0.518123 -2.00912 0
-0.264006 -2.3226 0
-1.3327 -1.03202 0
-0.302331 -2.28942 0
-1.39529 -1.05346 0
-0.339295 -2.32384 0
-0.301365 -2.36498 0
-1.31133 -1.09231 0
-0.0377902 -1.83905 0
-0.0127605 -1.86465 0
-0.396343 -1.38343 0
-0.167252 -1.59446 0
-0.145877 -1.97438 0
-2.60426 -1.61795 0
-0.367078 -1.37671 0
-2.48262 -1.52444 0
-0.458349 -2.00001 0
-0.37283 -1.76044 0
-0.391131 -1.76475 0
-1.1445 -2.5899 0
-0.386866 -1.78245 0
-1.07349 -2.56808 0
-0.369117 -1.77879 0
-1.09299 -2.50055 0
-0.443261 -1.9545 0
-3.22136 -1.35122 0
-0.447943 -1.94769 0
-0.454734 -1.9515 0
-3.29754 -1.66052 0
-0.385639 -2.29832 0
-0.298392 -0.824666 0
-2.20221 -1.82696 0
-0.501977 -2.00893 0
-0.137481 -1.66761 0
-0.136034 -1.92086 0
-0.375468 -1.46806 0
-0.16195 -1.6689 0
-0.119398 -1.92967 0
-2.17674 -2.00866 0
-0.517269 -1.99335 0
-0.368744 -1.49491 0
-0.91402 -2.44616 0
-0.362106 -1.83073 0
-0.378281 -1.83222 0
-0.841978 -2.47575 0
-0.376935 -1.84774 0
-0.363185 -2.2207 0
-0.479108 -1.96738 0
-2.73114 -1.97707 0
-0.479925 -1.95733 0
-2.85055 -2.12461 0
-0.489784 -1.95727 0
-2.69279 -2.23445 0
-0.490041 -1.96801 0
-2.59293 -2.08602 0
-0.0778408 -1.22002 0
-0.291168 -2.14087 0
-0.433368 -1.36126 0
-2.84339 -1.58622 0
-0.454785 -1.39902 0
-2.86632 -1.84946 0
-0.408787 -1.76964 0
-1.12004 -2.66436 0
-0.420312 -1.79148 0
-1.01704 -2.70493 0
-0.457688 -1.94473 0
-0.451768 -1.94175 0
-3.64561 -1.5899 0
-0.377479 -2.33838 0
-0.454772 -1.93665 0
-0.154115 -0.925908 0
-0.351504 -2.35382 0
-0.45985 -1.93884 0
-3.70626 -1.98436 0
-0.337275 -2.32784 0
-0.395163 -1.50189 0
-0.429528 -1.48308 0
-0.421389 -1.50958 0
-0.393674 -1.83424 0
-0.408281 -1.83681 0
-0.405819 -1.85073 0
-0.488884 -1.94759 0
-2.79127 -2.40305 0
-0.480041 -1.9483 0
-2.97159 -2.29408 0
-0.479489 -1.94025 0
-3.09235 -2.48909 0
-0.448865 -1.29984 0
-0.471884 -1.33907 0
-0.223652 -1.54874 0
-0.135538 -2.01362 0
-3.11495 -1.5362 0
-0.431929 -1.75817 0
-1.16787 -2.77396 0
-0.414302 -1.75201 0
-1.19844 -2.69168 0
-0.438731 -1.74053 0
-1.25463 -2.80807 0
-0.45048 -1.93364 0
-4.04705 -1.47637 0
-0.366971 -2.38109 0
-0.446665 -1.93793 0
-0.446997 -1.92985 0
-0.155802 -0.856525 0
-0.383803 -2.40975 0
-0.148982 -1.06156 0
-0.300919 -2.25682 0
-0.410143 -1.44782 0
-0.188014 -1.64623 0
-0.113611 -1.9555 0
-0.417825 -1.41971 0
-0.190126 -1.62166 0
-0.12368 -1.96956 0
-0.446269 -1.42781 0
-0.411535 -1.8223 0
-0.396349 -1.81895 0
-0.39978 -1.8031 0
-0.415555 -1.8072 0
-0.472245 -1.94067 0
-3.30137 -2.35403 0
-0.471862 -1.94804 0
-3.15189 -2.15972 0
-0.464398 -1.94684 0
-3.32785 -1.99808 0
-0.465686 -1.94019 0
-3.5081 -2.18646 0
-0.41046 -1.32352 0
-0.379829 -1.31683 0
-2.64165 -1.26421 0
-0.434091 -1.98793 0
-0.396042 -1.74648 0
-0.401565 -1.72761 0
-1.3057 -2.62936 0
-0.37717 -1.74154 0
-1.23828 -2.53103 0
-0.442009 -1.94302 0
-3.53153 -1.23777 0
-0.43695 -1.93753 0
-3.61573 -0.997444 0
-0.436474 -1.94894 0
-3.31099 -1.14913 0
-0.299812 -0.752203 0
-0.29555 -0.89645 0
-0.0479126 -1.15609 0
-0.327614 -2.1657 0
-0.497544 -4.43977 0
-0.26789 -4.47713 0
-0.1487 -1.95835 0
-0.351476 -1.07782 0
-0.381349 -1.11648 0
-0.52976 -1.93454 0
-2.12574 -2.63706 0
-0.273905 -2.14928 0
-0.711916 -5.27922 0
-0.751313 -1.75812 0
-0.390353 -1.04717 0
-0.405778 -1.56037 0
-0.380956 -1.55317 0
-0.387944 -1.52787 0
-0.413459 -1.53534 0
-0.508347 -1.94314 0
-2.44337 -2.55499 0
-0.495844 -1.93662 0
-2.68628 -2.67423 0
-0.403376 -1.8768 0
-0.390493 -1.87672 0
-0.390715 -1.86312 0
-0.404175 -1.86406 0
-0.913634 -4.86087 0
-0.710926 -1.75355 0
-0.514337 -1.92915 0
-2.31579 -2.77001 0
-0.263854 -2.17547 0
-1.17798 -4.72579 0
-0.448819 -1.86372 0
-0.69284 -1.73277 0
-0.71336 -1.71367 0
-0.119651 -1.93638 0
-0.500282 -1.95615 0
-2.5362 -2.32421 0
-0.513856 -1.96586 0
-2.31745 -2.25275 0
-1.03902 -4.49013 0
-0.71783 -4.37341 0
-0.313568 -1.10795 0
-0.349784 -1.57153 0
-0.343986 -1.59583 0
-0.522928 -1.95063 0
-2.23543 -2.45156 0
-0.539749 -1.95897 0
-2.05532 -2.36149 0
-0.363812 -1.89307 0
-0.377943 -1.89114 0
-0.380079 -1.90453 0
-0.366484 -1.90741 0
-0.371353 -0.827189 0
-0.134981 -1.78823 0
-1.00041 -1.9072 0
-0.135444 -1.81208 0
-0.960603 -1.92295 0
-0.333217 -0.862204 0
-0.111394 -1.81271 0
-0.945085 -1.88497 0
-0.110955 -1.78851 0
-0.982799 -1.86766 0
-0.313474 -1.89396 0
-1.46036 -1.07738 0
-0.0428195 -1.39824 0
-1.4339 -1.14233 0
-0.369489 -2.28445 0
-0.323779 -1.87762 0
-1.37152 -1.11601 0
-0.0144883 -1.36905 0
-0.137634 -1.85995 0
-0.112175 -1.83699 0
-0.908863 -1.90031 0
-0.136313 -1.83597 0
-0.922472 -1.93669 0
-0.886031 -1.94859 0
-0.113338 -1.86142 0
-0.874161 -1.91383 0
-0.307441 -1.86661 0
-1.40512 -1.20436 0
-0.410712 -2.30983 0
-1.37436 -1.26335 0
-0.457743 -2.33088 0
-1.31772 -1.23316 0
-0.436454 -2.38414 0
-0.25055 -1.74465 0
-0.249348 -1.7665 0
-1.11243 -2.13163 0
-1.1687 -2.12238 0
-0.272305 -1.74627 0
-1.17774 -2.18157 0
-1.11883 -2.18762 0
-0.444213 -2.11951 0
-0.431216 -2.13405 0
-0.417287 -2.12062 0
-1.24006 -2.1727 0
-0.252242 -1.72248 0
-1.22799 -2.11028 0
-0.254386 -1.69998 0
-1.2903 -2.09491 0
-0.276858 -1.70253 0
-1.30585 -2.16059 0
-0.0869874 -0.716263 0
-0.231499 -1.69779 0
-1.27174 -2.03292 0
-0.229692 -1.72071 0
-1.21288 -2.05109 0
-0.206721 -1.71925 0
-1.19512 -1.99513 0
-0.208229 -1.69594 0
-1.25061 -1.97454 0
-0.052146 -0.751104 0
-0.482229 -2.1003 0
-0.0173754 -0.716323 0
-0.205601 -1.74229 0
-1.14191 -2.01255 0
-0.228304 -1.74333 0
-1.15664 -2.06604 0
-1.10305 -2.07812 0
-0.204905 -1.7651 0
-1.09102 -2.02713 0
-0.0173529 -0.785815 0
-0.45611 -2.10483 0
-0.452681 -2.07984 0
-0.673006 -1.45183 0
-0.686175 -1.49703 0
-0.45348 -1.92565 0
-0.45703 -1.92581 0
-0.719538 -1.4375 0
-0.688477 -1.42138 0
-0.703939 -1.3897 0
-0.736278 -1.40578 0
-0.509829 -1.79938 0
-0.457094 -1.92359 0
-0.457955 -1.92357 0
-6.44507 -2.26528 0
-0.487372 -1.93891 0
-2.88606 -2.59465 0
-0.607564 -0.758675 0
-0.317219 -1.07405 0
-0.181559 -2.29672 0
-0.274342 -1.72459 0
-0.608624 -0.717314 0
-0.320632 -1.03969 0
-0.186748 -2.32267 0
-0.671687 -1.37486 0
-0.657422 -1.40649 0
-0.626389 -1.39275 0
-0.639531 -1.36119 0
-0.491203 -1.82538 0
-0.613211 -1.42323 0
-0.628892 -1.4663 0
-0.600065 -1.45264 0
-0.441914 -2.09351 0
-2.06824 -2.07502 0
-0.532579 -1.9915 0
-0.355866 -1.54663 0
-1.96181 -2.13063 0
-0.548351 -1.98826 0
-2.00652 -1.97243 0
-0.534886 -2.00781 0
-0.376731 -1.87721 0
-0.751967 -2.42977 0
-0.77296 -2.38825 0
-0.361246 -1.86288 0
-0.816315 -2.40762 0
-0.165269 -1.6196 0
-0.137597 -1.96044 0
-0.463339 -1.36944 0
-0.350712 -2.09094 0
-1.84936 -0.950065 0
-0.553106 -2.09136 0
-0.351348 -2.05683 0
-1.97024 -0.880653 0
-0.565625 -2.11967 0
-0.260225 -2.07675 0
-0.0735187 -1.34117 0
-0.30382 -1.91102 0
-1.55473 -1.03344 0
-0.0746113 -1.31154 0
-1.57819 -0.959912 0
-0.306524 -2.17432 0
-0.251576 -2.0992 0
-0.10446 -1.31286 0
-0.294758 -1.92877 0
-1.65491 -0.983094 0
-0.10292 -1.34248 0
-1.62849 -1.06014 0
-0.354809 -2.17367 0
-0.409905 -0.791268 0
-0.158616 -1.76448 0
-1.06015 -1.93272 0
-0.158966 -1.74086 0
-1.10575 -1.91402 0
-0.182476 -1.74148 0
-1.12484 -1.96189 0
-0.181972 -1.76471 0
-1.07662 -1.97867 0
-0.480373 -1.3079 0
-0.318588 -2.05349 0
-1.89187 -0.762267 0
-0.312586 -1.93722 0
-0.266025 -2.13204 0
-0.107517 -1.25226 0
-0.304715 -1.95517 0
-0.411139 -0.715825 0
-0.159659 -1.71709 0
-0.284982 -2.0463 0
-1.80863 -0.655796 0
-0.417458 -1.29252 0
-2.86475 -1.18312 0
-0.431129 -1.97079 0
-0.275998 -2.08205 0
-1.7096 -0.735405 0
-0.136439 -1.69207 0
-0.336545 -0.715794 0
-0.111356 -1.71573 0
-0.320939 -1.92002 0
-0.329858 -1.90357 0
-0.441145 -1.33092 0
-2.9455 -1.43084 0
-0.446286 -1.96778 0
-0.313762 -2.0888 0
-1.78208 -0.837702 0
-0.403408 -1.35383 0
-2.70048 -1.48627 0
-0.451247 -1.98293 0
-0.309751 -2.12872 0
-1.67748 -0.90305 0
-0.373328 -0.753041 0
-0.135114 -1.7404 0
-0.335721 -0.789275 0
-0.110822 -1.76431 0
-0.514085 -1.84389 0
-0.379149 -1.96266 0
-1.382 -0.838738 0
-0.191845 -2.20461 0
-0.51272 -1.82245 0
-1.31632 -0.827194 0
-0.153787 -2.22037 0
-1.3257 -0.762278 0
-0.140673 -2.18202 0
-0.535761 -1.82115 0
-1.39274 -0.77086 0
-0.176428 -2.16925 0
-1.31995 -2.5432 0
-0.375038 -1.97892 0
-0.381812 -1.98919 0
-0.437711 -1.19533 0
-0.177533 -2.04126 0
-0.463959 -1.23545 0
-0.168319 -2.06013 0
-0.238024 -1.44177 0
-0.154192 -2.06426 0
-0.505007 -1.2097 0
-0.150257 -2.05059 0
-0.157914 -2.07865 0
-0.478278 -1.16816 0
-0.245835 -1.38521 0
-0.161534 -2.09376 0
-0.520226 -1.14042 0
-0.403937 -1.78667 0
-1.04829 -2.63638 0
-0.335044 -1.95703 0
-0.32993 -1.94494 0
-1.00818 -2.54545 0
-0.38328 -1.79958 0
-0.341927 -1.94016 0
-0.42558 -1.39086 0
-2.73217 -1.72545 0
-0.466265 -1.97601 0
-0.541028 -2.06587 0
-0.351758 -2.12956 0
-1.73549 -1.0093 0
-2.50173 -1.73576 0
-0.475199 -1.9908 0
-0.389306 -1.41234 0
-0.529489 -2.04297 0
-0.360236 -2.00364 0
-0.35043 -2.20173 0
-0.0490364 -1.09141 0
-1.28415 -2.71786 0
-0.353161 -1.9922 0
-0.364382 -1.98548 0
-0.371326 -1.99634 0
-1.53665 -0.792152 0
-0.239611 -2.13878 0
-0.0454163 -1.28061 0
-1.52261 -0.866783 0
-0.257482 -2.16784 0
-0.535443 -1.84414 0
-1.45067 -0.851862 0
-0.22642 -2.18683 0
-1.46295 -0.780756 0
-0.209444 -2.15463 0
-0.624235 -2.08806 0
-3.03558 -1.26009 0
-0.437674 -1.96219 0
-0.298332 -2.06767 0
-1.79804 -0.747788 0
-0.601215 -2.08304 0
-0.605679 -2.06101 0
-0.262601 -2.05866 0
-1.71852 -0.648665 0
-0.628257 -2.06449 0
-0.337489 -1.92825 0
-0.325236 -1.93261 0
-0.89285 -2.49904 0
-0.333472 -1.91606 0
-0.487918 -2.12764 0
-0.513633 -2.03761 0
-0.459418 -2.13203 0
-0.492579 -2.04622 0
-2.39505 -1.83982 0
-0.488482 -1.99295 0
-0.382335 -1.44054 0
-0.163494 -1.6444 0
-0.128692 -1.94564 0
-0.382296 -2.19448 0
-1.59862 -1.13389 0
-0.50754 -2.05301 0
-0.400582 -2.16621 0
-1.6722 -1.16725 0
-0.402576 -1.47522 0
-0.42933 -2.18185 0
-1.63547 -1.24038 0
-2.28615 -1.93055 0
-0.502536 -1.99382 0
-0.498927 -2.03195 0
-0.413329 -2.21336 0
-1.56574 -1.20413 0
-0.0149216 -1.31024 0
-1.50503 -0.939381 0
-0.278752 -2.19739 0
-0.0441129 -1.3403 0
-1.48417 -1.00966 0
-0.304056 -2.22712 0
-0.308025 -1.92426 0
-0.462425 -2.1616 0
-0.500283 -2.06863 0
-0.47657 -2.07535 0
-0.446233 -2.14771 0
-0.485129 -2.06071 0
-0.44246 -2.15288 0
-1.70793 -1.28079 0
-0.437836 -1.45583 0
-0.415916 -2.13988 0
-1.74899 -1.20462 0
-0.317517 -1.94995 0
-0.322837 -1.96246 0
-0.516616 -2.07639 0
-0.391778 -2.12495 0
-1.78662 -1.12392 0
-0.0434627 -1.36949 0
-0.268172 -2.05493 0
-0.329128 -2.00598 0
-0.3414 -1.99905 0
-0.348565 -2.01103 0
-0.331339 -2.21365 0
-0.0817628 -1.09213 0
-0.336342 -2.01848 0
-0.105996 -1.28278 0
-1.5981 -0.883749 0
-0.285176 -2.14829 0
-0.0767797 -1.25097 0
-1.61415 -0.805267 0
-0.266959 -2.12224 0
-1.69582 -0.820351 0
-0.291616 -2.10546 0
-0.336916 -2.03973 0
-0.587652 -2.12813 0
-0.595221 -2.10544 0
-0.305502 -2.03404 0
-1.90441 -0.664452 0
-0.618599 -2.11206 0
-0.611296 -2.13639 0
-0.42578 -1.77515 0
-1.08892 -2.73944 0
-0.328572 -1.97479 0
-0.322394 -1.99343 0
-0.256496 -0.965009 0
-0.25659 -2.36285 0
-0.526537 -0.63665 0
-0.266589 -2.3919 0
-0.884363 -2.90554 0
-0.952162 -2.96115 0
-0.891378 -3.03099 0
-0.8267 -2.96818 0
-3.69655 -2.40988 0
-0.466249 -1.93441 0
-3.45273 -2.58117 0
-0.471943 -1.9342 0
-0.315382 -1.48289 0
-0.111766 -2.0589 0
-0.597345 -1.27137 0
-0.112974 -2.07188 0
-0.245497 -2.43304 0
-0.260042 -0.89482 0
-0.277491 -2.42257 0
-0.522488 -0.557027 0
-0.289392 -2.45498 0
-0.29714 -0.860666 0
-0.255522 -2.46643 0
-0.963755 -3.09747 0
-1.0277 -3.01939 0
-1.11205 -3.08019 0
-1.04498 -3.1677 0
-3.93382 -2.19636 0
-0.461253 -1.93379 0
-3.88855 -1.74718 0
-4.15526 -1.93889 0
-0.456989 -1.93235 0
-0.0995899 -2.08647 0
-0.326413 -1.42801 0
-0.114083 -2.08589 0
-0.618193 -1.2019 0
-0.115151 -2.10087 0
-0.36072 -1.40566 0
-0.0996976 -2.10146 0
-0.664894 -1.17593 0
-0.303375 -1.39425 0
-0.130598 -2.09935 0
-0.591731 -1.15651 0
-0.128611 -2.08435 0
-0.270143 -1.41794 0
-0.143214 -2.0819 0
-0.547574 -1.18344 0
-0.146057 -2.09696 0
-0.223425 -0.928413 0
-0.295953 -2.38069 0
-0.48548 -0.598757 0
-0.187335 -0.961554 0
-0.311373 -2.34085 0
-1.00526 -2.88865 0
-0.310219 -1.96806 0
-0.979444 -2.77312 0
-0.526045 -2.10228 0
-0.385991 -2.0886 0
-1.9096 -1.07258 0
-0.140268 -2.06767 0
-0.293338 -1.45052 0
-0.126541 -2.07024 0
-0.573332 -1.22711 0
-0.124301 -2.05709 0
-0.261415 -1.47326 0
-0.137112 -2.05427 0
-0.530217 -1.25175 0
-3.15684 -1.83845 0
-0.493319 -1.37841 0
-0.245678 -1.5776 0
-0.118523 -2.00947 0
-0.141843 -1.59256 0
-0.159815 -1.96671 0
-0.523302 -1.38822 0
-0.270659 -1.58139 0
-0.109966 -2.0158 0
-0.513074 -1.41776 0
-0.483952 -1.40797 0
-1.05077 -2.81446 0
-0.44209 -1.78129 0
-0.4577 -1.7881 0
-0.935266 -2.84024 0
-0.450918 -1.80301 0
-0.435978 -1.79692 0
-0.324295 -2.36796 0
-0.458444 -1.92885 0
-4.44812 -2.17481 0
-0.284443 -2.35256 0
-0.461923 -1.92955 0
-4.17678 -2.45321 0
-0.553771 -1.29423 0
-0.283735 -1.5045 0
-0.121765 -2.04495 0
-3.77561 -1.34515 0
-0.324261 -2.02206 0
-2.00648 -0.674894 0
-0.521183 -1.28467 0
-0.468913 -1.96566 0
-0.487865 -0.676996 0
-0.219986 -0.997551 0
-0.273861 -2.32583 0
-0.184605 -1.69439 0
-0.449072 -0.677482 0
-0.491783 -1.72131 0
-1.37207 -3.09612 0
-0.464522 -1.7303 0
-1.31272 -2.94176 0
-0.447749 -1.91897 0
-4.67699 -0.535574 0
-0.452137 -1.91864 0
-0.452529 -1.92227 0
-5.03337 -1.02585 0
-0.337086 -2.47472 0