# vtk DataFile Version 2.0
Unstructured Grid by M++
ASCII
DATASET UNSTRUCTURED_GRID
POINTS 16641 float
  0.968750   0.625000 0
  0.984375   0.640625 0
  1.000000   0.625000 0
  0.453125   1.000000 0
  0.453125   0.984375 0
  0.453125   0.968750 0
  0.453125   0.953125 0
  0.531250   0.328125 0
  0.515625   0.312500 0
  0.515625   0.343750 0
  0.515625   0.375000 0
  0.546875   0.343750 0
  0.531250   0.359375 0
  0.546875   0.375000 0
  1.000000   0.656250 0
  0.234375   0.406250 0
  0.078125   0.453125 0
  0.875000   0.015625 0
  0.562500   0.703125 0
  0.625000   0.453125 0
  0.859375   0.031250 0
  0.875000   0.046875 0
  0.859375   0.062500 0
  0.578125   0.718750 0
  0.578125   0.750000 0
  0.562500   0.734375 0
  0.640625   0.468750 0
  0.640625   0.500000 0
  0.625000   0.484375 0
  0.406250   0.828125 0
  0.593750   0.078125 0
  0.609375   0.093750 0
  0.421875   0.843750 0
  0.421875   0.859375 0
  0.500000   0.359375 0
  0.046875   0.421875 0
  0.546875   0.687500 0
  0.609375   0.437500 0
  0.640625   0.609375 0
  0.968750   0.421875 0
  0.296875   0.359375 0
  0.218750   0.046875 0
  0.671875   0.609375 0
  0.359375   0.390625 0
  0.296875   0.640625 0
  0.234375   0.890625 0
  0.765625   0.453125 0
  0.703125   0.703125 0
  0.343750   0.515625 0
  0.375000   0.515625 0
  0.468750   0.015625 0
  0.406250   0.265625 0
  0.437500   0.265625 0
  0.859375   0.656250 0
  0.531250   0.671875 0
  0.515625   0.687500 0
  0.593750   0.421875 0
  0.578125   0.437500 0
  0.562500   0.421875 0
  0.015625   0.390625 0
  0.515625   0.656250 0
  0.578125   0.406250 0
  0.562500   0.390625 0
  0.203125   0.031250 0
  0.187500   0.015625 0
  0.656250   0.593750 0
  0.640625   0.578125 0
  0.171875   0.828125 0
  0.296875   0.328125 0
  0.796875   0.593750 0
  0.984375   0.750000 0
  1.000000   0.765625 0
  0.484375   0.515625 0
  0.843750   0.640625 0
  1.000000   0.453125 0
  0.359375   0.109375 0
  0.781250   0.890625 0
  0.203125   0.484375 0
  0.265625   0.234375 0
  0.078125   0.984375 0
  0.234375   0.265625 0
  0.171875   0.515625 0
  0.031250   0.406250 0
  0.046875   0.390625 0
  0.531250   0.640625 0
  0.546875   0.656250 0
  0.593750   0.390625 0
  0.609375   0.406250 0
  0.234375   0.578125 0
  0.093750   1.000000 0
  0.781250   0.015625 0
  0.796875   0.031250 0
  0.234375   0.062500 0
  0.250000   0.078125 0
  0.671875   0.640625 0
  0.421875   0.953125 0
  0.437500   0.953125 0
  0.546875   0.515625 0
  0.671875   0.015625 0
  0.609375   0.265625 0
  0.484375   0.765625 0
  0.796875   0.703125 0
  0.859375   0.453125 0
  0.062500   0.890625 0
  0.796875   0.625000 0
  0.812500   0.640625 0
  0.421875   0.250000 0
  0.921875   0.406250 0
  0.234375   0.984375 0
  0.234375   1.000000 0
  0.140625   0.734375 0
  0.359375   0.531250 0
  0.484375   0.031250 0
  0.421875   0.281250 0
  0.468750   0.359375 0
  0.453125   0.343750 0
  0.390625   0.671875 0
  0.515625   0.171875 0
  0.234375   0.609375 0
  0.921875   0.437500 0
  0.281250   0.703125 0
  0.296875   0.718750 0
  0.218750   0.953125 0
  0.234375   0.968750 0
  0.546875   0.203125 0
  0.296875   0.609375 0
  0.359375   0.359375 0
  0.859375   0.625000 0
  0.421875   0.109375 0
  0.234375   0.937500 0
  0.234375   0.953125 0
  0.921875   0.375000 0
  0.125000   0.812500 0
  0.281250   0.625000 0
  0.265625   0.609375 0
  0.781250   0.875000 0
  0.359375   0.078125 0
  0.781250   0.859375 0
  0.343750   0.375000 0
  0.328125   0.359375 0
  0.312500   0.375000 0
  0.843750   0.609375 0
  0.828125   0.625000 0
  0.812500   0.609375 0
  0.796875   0.890625 0
  0.796875   0.906250 0
  0.375000   0.125000 0
  1.000000   0.515625 0
  0.890625   0.375000 0
  0.796875   0.734375 0
  0.859375   0.484375 0
  0.718750   0.921875 0
  0.921875   0.093750 0
  0.781250   0.953125 0
  0.218750   0.421875 0
  0.203125   0.406250 0
  0.953125   0.687500 0
  0.453125   0.421875 0
  0.250000   0.593750 0
  0.265625   0.578125 0
  0.312500   0.343750 0
  0.328125   0.328125 0
  0.828125   0.593750 0
  0.812500   0.578125 0
  0.796875   0.875000 0
  0.375000   0.093750 0
  0.796875   0.859375 0
  0.390625   0.078125 0
  0.546875   0.031250 0
  0.359375   0.781250 0
  0.796875   0.484375 0
  0.734375   0.734375 0
  0.531250   0.046875 0
  0.515625   0.062500 0
  0.500000   0.046875 0
  0.343750   0.796875 0
  0.468750   0.296875 0
  0.453125   0.281250 0
  0.453125   0.312500 0
  0.437500   0.296875 0
  0.781250   0.468750 0
  0.796875   0.453125 0
  0.718750   0.718750 0
  0.734375   0.703125 0
  0.515625   0.031250 0
  0.531250   0.015625 0
  0.500000   0.015625 0
  0.328125   0.781250 0
  0.343750   0.765625 0
  0.234375   0.437500 0
  0.906250   0.531250 0
  0.796875   0.937500 0
  0.843750   0.671875 0
  0.828125   0.656250 0
  0.781250   0.921875 0
  0.906250   0.359375 0
  0.109375   0.796875 0
  0.203125   0.937500 0
  0.890625   0.343750 0
  0.093750   0.781250 0
  1.000000   0.484375 0
  0.515625   0.234375 0
  1.000000   0.031250 0
  0.890625   0.515625 0
  0.734375   0.531250 0
  0.734375   0.562500 0
  0.234375   0.296875 0
  0.171875   0.546875 0
  0.968750   0.109375 0
  0.406250   0.687500 0
  0.531250   0.187500 0
  0.546875   0.234375 0
  0.343750   0.546875 0
  0.328125   0.531250 0
  0.406250   0.296875 0
  0.390625   0.281250 0
  0.468750   0.046875 0
  0.390625   0.359375 0
  0.593750   0.109375 0
  0.578125   0.093750 0
  0.562500   0.109375 0
  0.406250   0.859375 0
  0.406250   0.843750 0
  0.390625   0.843750 0
  0.390625   0.859375 0
  0.312500   0.515625 0
  0.375000   0.265625 0
  0.281250   0.562500 0
  0.281250   0.593750 0
  0.296875   0.578125 0
  0.812500   0.843750 0
  0.343750   0.343750 0
  0.359375   0.328125 0
  0.406250   0.062500 0
  0.406250   0.093750 0
  0.421875   0.078125 0
  0.656250   0.484375 0
  0.671875   0.500000 0
  0.171875   0.234375 0
  0.546875   0.984375 0
  0.546875   1.000000 0
  0.046875   0.734375 0
  0.843750   0.296875 0
  0.593750   0.734375 0
  0.609375   0.750000 0
  0.890625   0.062500 0
  0.109375   0.484375 0
  0.906250   0.046875 0
  0.531250   0.078125 0
  0.546875   0.062500 0
  0.562500   0.078125 0
  0.468750   0.328125 0
  0.484375   0.343750 0
  0.484375   0.312500 0
  0.500000   0.328125 0
  0.406250   0.234375 0
  0.390625   0.218750 0
  0.390625   0.250000 0
  0.281250   0.734375 0
  0.265625   0.718750 0
  0.906250   0.421875 0
  0.218750   1.000000 0
  0.218750   0.984375 0
  0.906250   0.390625 0
  0.218750   0.968750 0
  0.203125   0.968750 0
  0.203125   1.000000 0
  0.890625   0.406250 0
  0.203125   0.984375 0
  0.093750   0.468750 0
  0.890625   0.031250 0
  0.109375   0.453125 0
  0.593750   0.703125 0
  0.609375   0.718750 0
  0.656250   0.453125 0
  0.671875   0.468750 0
  0.234375   0.515625 0
  0.296875   0.265625 0
  0.359375   0.015625 0
  0.515625   0.953125 0
  0.015625   0.703125 0
  0.812500   0.265625 0
  0.250000   0.531250 0
  0.234375   0.546875 0
  0.250000   0.562500 0
  0.296875   0.296875 0
  0.796875   0.562500 0
  0.375000   0.031250 0
  0.359375   0.046875 0
  0.781250   0.843750 0
  0.375000   0.062500 0
  0.531250   1.000000 0
  0.531250   0.984375 0
  0.515625   0.968750 0
  0.515625   1.000000 0
  0.515625   0.984375 0
  0.796875   0.281250 0
  0.812500   0.296875 0
  0.203125   0.546875 0
  0.296875   0.015625 0
  0.718750   0.796875 0
  0.265625   0.296875 0
  0.781250   0.546875 0
  0.750000   0.546875 0
  0.750000   0.828125 0
  0.328125   0.046875 0
  0.187500   0.531250 0
  0.218750   0.531250 0
  0.218750   0.500000 0
  0.203125   0.515625 0
  1.000000   0.062500 0
  0.687500   0.765625 0
  0.250000   0.281250 0
  0.281250   0.281250 0
  0.281250   0.250000 0
  0.265625   0.265625 0
  0.765625   0.531250 0
  0.750000   0.515625 0
  0.734375   0.812500 0
  0.312500   0.031250 0
  0.343750   0.031250 0
  0.328125   0.015625 0
  0.718750   0.546875 0
  0.656250   0.796875 0
  0.937500   0.109375 0
  0.703125   0.781250 0
  0.687500   0.796875 0
  0.265625   0.015625 0
  0.671875   0.781250 0
  0.703125   0.531250 0
  0.718750   0.515625 0
  0.687500   0.515625 0
  0.218750   0.281250 0
  0.203125   0.265625 0
  0.640625   0.781250 0
  0.656250   0.765625 0
  0.625000   0.765625 0
  0.156250   0.531250 0
  0.953125   0.093750 0
  0.140625   0.515625 0
  0.937500   0.078125 0
  0.531250   0.250000 0
  0.546875   0.265625 0
  0.421875   0.765625 0
  0.609375   0.015625 0
  0.828125   0.765625 0
  0.812500   0.781250 0
  0.828125   0.796875 0
  0.453125   0.562500 0
  0.437500   0.546875 0
  0.390625   0.812500 0
  0.375000   0.796875 0
  0.578125   0.062500 0
  0.562500   0.046875 0
  0.468750   0.500000 0
  0.968750   0.765625 0
  0.953125   0.750000 0
  0.406250   0.750000 0
  1.000000   0.796875 0
  0.984375   0.781250 0
  0.515625   0.515625 0
  0.640625   0.015625 0
  0.578125   0.265625 0
  0.453125   0.765625 0
  0.750000   0.890625 0
  0.828125   0.281250 0
  0.031250   0.718750 0
  0.937500   0.421875 0
  0.781250   0.609375 0
  0.156250   0.843750 0
  0.953125   0.406250 0
  0.140625   0.828125 0
  0.937500   0.390625 0
  0.734375   0.875000 0
  0.765625   0.875000 0
  0.343750   0.093750 0
  0.765625   0.859375 0
  0.765625   0.843750 0
  0.343750   0.062500 0
  0.750000   0.859375 0
  0.328125   0.078125 0
  0.750000   0.843750 0
  0.734375   0.843750 0
  0.312500   0.062500 0
  0.281250   0.343750 0
  0.281250   0.312500 0
  0.265625   0.328125 0
  0.250000   0.312500 0
  0.765625   0.593750 0
  0.781250   0.578125 0
  0.750000   0.578125 0
  0.765625   0.562500 0
  0.015625   0.359375 0
  0.515625   0.625000 0
  0.500000   0.609375 0
  0.015625   0.328125 0
  0.015625   0.250000 0
  0.031250   0.343750 0
  0.031250   0.375000 0
  0.046875   0.359375 0
  0.062500   0.296875 0
  0.031250   0.265625 0
  0.046875   0.281250 0
  0.046875   0.250000 0
  0.062500   0.265625 0
  0.109375   0.765625 0
  0.484375   0.203125 0
  0.937500   0.703125 0
  0.421875   0.453125 0
  0.984375   0.015625 0
  0.671875   0.984375 0
  0.984375   0.468750 0
[...]
POINT_DATA 16641
SCALARS scalar_value float 1
LOOKUP_TABLE default
0.00241233
0.00231925
0.0024108
-0.000124441
-2.66074e-05
7.33303e-05
0.000175363
0.00496021
0.00514186
0.00491958
0.00468834
0.00478576
0.0047406
0.00456872
0.0022263
0.00553428
0.00507551
0.00477411
0.00206182
0.00380052
0.0047927
0.00475254
0.0047641
0.00194278
0.00171404
0.00182863
0.0036624
0.00345345
0.00358938
0.00100331
0.00577112
0.00564323
0.000905032
0.00078655
0.00487136
0.00560835
0.00218428
0.00394334
0.00269758
0.0035137
0.00587562
0.0106525
0.00266851
0.005215
0.00260155
3.93433e-05
0.00353202
0.00201539
0.00391657
0.00385938
0.00685293
0.00615847
0.00593969
0.00225153
0.00231049
0.00219221
0.00409119
0.00402571
0.00418189
0.00616974
0.00244077
0.00424444
0.00440348
0.0111492
0.0116674
0.00279066
0.00291619
0.00033907
0.00626185
0.00266591
0.00165945
0.00156339
0.00364207
0.002353
0.00335587
0.00779237
0.000785905
0.00452167
0.0077146
-0.00168606
0.00757549
0.00410953
0.00588585
0.00618745
0.00255604
0.00242468
0.0043012
0.00415126
0.00329068
-0.00164727
0.00499326
0.00493802
0.0101804
0.00973372
0.00245529
0.000121939
0.000149758
0.00351797
0.00542059
0.00498505
0.00157205
0.00198131
0.00341957
-0.000960005
0.00247289
0.00236743
0.00617312
0.00360755
-0.000655268
-0.000754485
0.00123627
0.00372552
0.00668653
0.00591802
0.00500997
0.00521364
0.0023274
0.00597925
0.00291524
0.00345457
0.00193238
0.00179878
-0.000514486
-0.000551195
0.00562442
0.0029379
0.00554715
0.00244118
0.007076
-0.000328706
-0.000442314
0.00375326
0.000280468
0.00276274
0.00293111
0.000885182
0.00795345
0.000984717
0.00545654
0.00571078
0.00560757
0.00254262
0.00245576
0.00256
0.000786988
0.000688266
0.0075104
0.00302888
0.00377703
0.00178246
0.0032524
0.000578187
0.00463409
0.000391825
0.00536484
0.00563878
0.00204157
0.00454056
0.00310698
0.00329089
0.00597881
0.006067
0.00264544
0.00274983
0.000885952
0.00768007
0.000985134
0.00755782
0.0061683
0.00131811
0.00331395
0.00179824
0.00626553
0.00636053
0.00652222
0.00115622
0.00550426
0.00571699
0.00547048
0.00568896
0.0034218
0.00348842
0.00190583
0.00200354
0.00641409
0.00630419
0.00656441
0.00126424
0.00143097
0.00510389
0.00296507
0.000491627
0.00216101
0.00226353
0.000588222
0.00383452
0.000377692
-0.000475697
0.00391674
0.000483075
0.00319521
0.00564597
0.00466176
0.0030597
0.00311044
0.00291451
0.00711098
0.00367808
0.00457684
0.00218987
0.00579871
0.00546216
0.00358342
0.00377204
0.00588497
0.00613155
0.00680655
0.00538682
0.0056966
0.0058345
0.00589485
0.000761504
0.000881306
0.000855377
0.000734198
0.00396927
0.00639111
0.00346674
0.00311055
0.00328229
0.00108437
0.00580021
0.00587591
0.00742777
0.00731289
0.0072011
0.00352862
0.00339889
0.00869904
9.02581e-05
-7.23273e-06
0.000848064
0.00417075
0.00182687
0.0017138
0.00471271
0.0045753
0.00470742
0.00620189
0.00611919
0.00597543
0.00526182
0.00506232
0.00530086
0.00510616
0.00641804
0.00667534
0.00641122
0.00161711
0.00174563
0.00354148
-0.000828158
-0.000728772
0.0036918
-0.000624195
-0.000702338
-0.000907057
0.00362936
-0.000807481
0.00482118
0.00474066
0.00507372
0.00205381
0.00193687
0.00373106
0.00359976
0.00407153
0.00702757
0.0081398
0.000258191
0.0011298
0.00434769
0.00386095
0.00367611
0.0034793
0.00664693
0.00285598
0.00789798
0.00807051
0.00108448
0.00781052
-2.25886e-05
7.49533e-05
0.000157349
-3.94687e-05
5.81266e-05
0.00431802
0.00422354
0.00368276
0.00913668
0.0013891
0.00687876
0.0029641
0.00299573
0.00118473
0.00852884
0.00389168
0.00388169
0.00429163
0.00409637
0.00463479
0.0015993
0.0072161
0.00696311
0.00736019
0.00729919
0.00307441
0.00318713
0.00128628
0.00882939
0.00833695
0.00860862
0.00303097
0.0013889
0.00459529
0.00149337
0.00138978
0.00973581
0.00149502
0.00315034
0.00322794
0.00327289
0.00746897
0.00785096
0.00149507
0.00160212
0.00160328
0.00388947
0.00460916
0.00410942
0.00464167
0.00546179
0.00528463
0.00152743
0.00576082
0.00157811
0.00148128
0.00138053
0.00328679
0.0034505
0.00110467
0.00120947
0.00590143
0.00603392
0.00380995
0.00156393
0.0016607
0.0016442
0.00137082
0.00146733
0.00357938
0.00558113
0.00512829
0.00155283
0.000782844
0.00425837
0.000985323
0.00352412
0.00258012
0.0001094
0.00359301
0.000191173
0.00367281
0.000881136
0.000884152
0.00808663
0.000984068
0.00108426
0.00823655
0.000983144
0.00839335
0.00108379
0.00108303
0.00871242
0.00615854
0.0065613
0.00645768
0.00677457
0.00268932
0.00277369
0.0028007
0.00288355
0.00679406
0.00269184
0.00283242
0.00745729
0.00934813
0.00712354
0.00648725
0.00679772
0.00810086
0.00891888
0.00850247
0.00928053
0.00883063
0.000741783
0.00603684
0.0019486
0.00435809
0.00467206
0.00016927
0.00327704
0.00311338
0.00583752
0.00185519
0.00175775
0.00166316
0.00416742
0.00319805
0.00595066
0.00617626
0.00176127
0.00398488
0.000596678
0.00400008
0.00328302
0.00335902
0.00336848
0.00185996
0.00195315
0.0126074
0.00551793
0.000849392
0.000830372
0.000809464
0.00445667
0.00461806
0.012507
0.0134116
0.000926679
0.00094637
0.000866643
0.00534675
0.000964222
0.000980351
0.00463883
0.00614023
0.00671457
0.00641932
0.00634877
0.00277839
0.00287136
0.00098028
0.00444254
0.000789694
0.00231692
0.00465223
0.00445366
0.00204569
0.00620904
0.00601169
0.0034347
0.00108044
0.00904335
0.00118398
0.00938511
0.00128617
0.00309394
0.00348251
0.00328049
0.00451259
0.00340292
0.00565037
0.00542686
0.000887113
0.00662771
0.00645248
0.00247046
0.00261943
0.000789253
0.0049439
0.000497663
0.00616621
0.000692266
0.00635975
0.00059515
0.00157361
0.00205968
0.00195938
0.00147405
0.00147749
0.00128064
0.00717302
0.0013777
0.00698854
0.00127861
0.00438242
0.00417914
0.00405231
0.00167396
0.00187765
0.00177525
0.00167971
0.0293829
0.00574681
0.0249263
-0.12516
0.0332645
-0.12649
0.00645889
-0.293957
-0.035075
0.0139111
0.0131448
-0.164143
0.0181738
-0.305173
-0.303896
-0.277037
-0.123749
-0.120689
0.030342
0.00648103
-0.122259
0.0312745
0.0147729
0.0157038
0.0118072
0.0039123
-0.212632
-0.0196801
-0.133554
-0.258313
-0.506144
-0.0224285
0.0239414
-0.0239139
-0.0355178
0.0230891
-0.0305848
0.0240718
-0.0372805
0.0236216
-0.156233
-0.136784
0.0720956
-0.0273172
0.0230073
-0.0337289
0.0700714
0.0225807
-0.0319165
0.0220961
-0.14634
0.0719013
-0.202642
-0.464308
-0.15588
0.0717041
-0.16595
-0.175652
-0.0261321
-0.143803
-0.00334825
-0.224585
-0.0341365
-0.144987
-0.303261
0.00185542
0.00125369
-0.599225
-0.164477
-0.0331548
-0.154114
0.00114817
-0.612584
-0.0316067
-0.163187
0.00104585
-0.62594
0.00791082
0.0219895
0.00662661
0.00260275
-0.34596
-0.190993
0.0254533
-0.18301
0.0276522
-0.181294
0.0267169
0.00474013
-0.03431
-0.464741
-0.179472
0.025832
-0.189104
0.0246012
0.00450168
-0.0430268
-0.187104
0.0237956
-0.177546
0.0249937
-0.0338335
0.00873175
0.0323867
0.0191407
0.0189814
0.00539533
0.00543036
0.0288407
0.00556186
-0.359516
0.0249765
0.00560256
-0.0457873
-0.21333
0.0335603
-0.000433894
0.0374969
0.019306
-0.000388035
0.0427914
0.0194792
-0.200036
0.0317844
-0.190015
-0.023378
0.00520212
-0.188823
0.0319807
-0.0389506
0.00973419
0.00256203
-0.386192
0.00470176
-0.0218121
0.011485
0.00098536
-0.0303624
-0.169177
0.0346069
0.00265448
-0.368767
0.00531826
0.00277464
-0.361818
0.00595933
0.00656065
-0.0196019
-0.170281
0.0107344
-0.0297556
-0.15545
0.0191078
0.00476205
-0.0970988
-0.347052
-0.167136
0.00455429
-0.0562551
-0.18509
0.072141
-0.106483
-0.37119
0.0039834
-0.128994
-0.410581
-0.146914
0.00273915
-0.290263
0.00284352
-0.286702
0.0234458
0.0105133
0.00292389
-0.269626
0.019356
0.00724041
0.0238644
0.0247592
0.0144026
0.0199998
0.0258977
0.00716311
0.0269615
0.00684726
0.0228792
0.00403286
-0.11748
-0.397023
-0.394741
0.00395674
-0.119123
-0.408598
0.00272038
-0.27543
0.0231725
0.0142099
0.0207173
0.00691939
0.0225006
0.0158002
0.00668523
0.00697785
0.0120051
0.0191758
0.0187802
0.00351804
-0.14702
0.00359937
-0.146722
0.00358847
-0.133776
-0.357191
-0.0625963
-0.18568
-0.127068
-0.290305
-0.0164954
0.00214023
-0.304689
-0.0064981
-0.277308
-0.136789
0.0276005
-0.127873
0.0285436
0.00617424
0.010549
0.00846595
0.0111003
-0.126059
0.0277062
-0.13489
0.0267832
0.0058778
0.0020938
-0.124163
0.0269049
0.0109775
-0.132904
0.0260023
0.0014035
0.0104676
0.0434736
0.00544826
-0.0130877
-0.1595
-0.292181
0.0107307
-0.22877
0.00348777
-0.289481
-0.0271449
-0.134846
0.0111987
-0.0862635
0.0117658
-0.0962676
0.00467322
0.00729952
-0.203516
0.0678048
0.0170472
0.0740055
0.0122542
-0.0491337
-0.0349241
-0.0167614
-0.000655389
-0.0475802
-0.0569848
0.000589806
-0.0657629
-0.064979
-0.0765971
0.0185497
0.0117134
0.011174
-0.0189726
0.00467442
0.0142347
0.0431946
0.0620856
0.0619716
-0.141731
0.00559196
-0.00628937
-0.15065
0.0240934
-0.00547543
0.00989534
-0.152818
0.00533842
-0.0153013
-0.143808
0.0258239
-0.145793
0.00561248
-0.00686186
-0.154889
0.0255994
-0.158327
0.0196396
0.00971346
-0.0139757
0.00981532
-0.00704834
0.0103859
-0.0419667
-0.284432
0.0551739
0.0605068
-0.283738
-0.162148
0.0270021
0.0726911
0.0263575
0.0729602
0.0272014
0.0265457
0.0424139
0.0260669
0.0362965
0.0257383
0.0304091
0.0429095
0.025311
0.00376415
-0.144698
-0.448631
-0.154409
0.00384792
-0.143018
-0.436408
-0.160628
-0.462919
-0.175798
-0.45035
-0.18122
0.00244814
-0.315391
0.00255096
-0.311914
-0.308347
-0.243686
-0.0477202
-0.0143627
-0.268436
-0.0243098
-0.281151
-0.113348
0.0321737
-0.111854
0.0312259
0.0330329
-0.103094
0.0320713
0.0563311
0.00565553
-0.0180783
-0.142281
-0.275174
-0.266496
-0.253799
0.0689945
0.0231091
0.073746
0.00108451
-0.0223281
0.00289803
-0.354701
0.0066073
0.00280705
-0.37126
0.00600914
0.00667756
-0.0676126
-0.0882457
-0.251926
0.00289336
0.00460989
-0.318269
-0.253166
-0.0429791
-0.00030559
0.0421226
0.0193113
-0.226424
0.00492511
-0.00665048
-0.104042
-0.245932
0.00295986
0.00502943
-0.259333
0.00270808
0.00156316
-0.560117
0.00494236
-0.117375
-0.116108
-0.114766
0.0331617
-0.105858
0.0340337
-0.108336
0.00710652
-0.282861
-0.207496
-0.0147202
-0.108103
-0.257709
-0.271905
-0.0313058
-0.108242
-0.270239
-0.259463
-0.0214286
-0.0988261
0.0223663
0.0135289
0.0301066
-0.420138
-0.405945
-0.292203
-0.2793
-0.0133083
-0.0619198
-0.217648
-0.117659
-0.417103
-0.294727
0.00202285
-0.0345705
-0.135815
-0.232963
0.00340412
0.00232759
-0.282666
-0.43164
0.00366617
-0.133769
-0.446218
-0.126031
0.00252208
-0.279809
-0.202182
0.0344946
0.0188255
-0.201163
0.0414955
0.00525138
-0.191102
0.0345686
-0.192086
0.0508677
0.00533561
0.000784539
-0.0494709
-0.0482561
-0.0395728
-0.0309314
0.010385
0.0026829
-0.378801
0.0053511
0.0101585
0.00954967
0.00466962
-0.160561
-0.149916
-0.00481059
0.0513859
-0.235832
0.00320654
-0.183133
0.00176605
-0.383373
0.00167134
-0.406196
0.0336979
0.00990404
-0.120547
0.0179397
-0.123746
0.00501538
-0.131576
0.00915267
-0.0137594
-0.151861
0.00453061
-0.0509476
-0.192285
-0.249001
-0.182775
-0.238813
0.00315171
-0.00735088
-0.0955751
0.00177194
-0.401543
0.00177877
-0.418322
0.00167676
-0.42381
0.0405619
0.0103913
0.0329734
0.0105673
0.040042
0.0111371
0.0723755
-0.0754135
-0.379396
-0.0996626
-0.382293
-0.00748574
-0.196005
-0.0193788
-0.198801
-0.258432
0.0705787
0.0332771
-0.300755
-0.302392
-0.0835915
-0.368664
-0.0684921
-0.355087
-0.0907969
-0.357881
-0.0760134
-0.34462
-0.0121723
-0.187527
-0.00561898
-0.176352
0.00524687
-0.0162055
-0.17895
-0.00967007
-0.167976
0.0368367
-0.245175
-0.16972
-0.166378
0.00805212
-0.154502
0.016798
0.00930093
-0.157825
0.0172341
0.00876146
-0.149382
0.0181185
0.00948755
0.0172863
0.00641393
0.0231254
0.0210831
0.0186155
0.020585
0.00203924
-0.260188
-0.492342
-0.116959
-0.29238
0.00343388
-0.132197
-0.29265
-0.0344761
-0.126605
-0.286074
0.00219608
0.00204028
-0.283874
0.00204338
-0.305858
-0.118907
-0.281381
-0.270375
-0.0275299
-0.11678
-0.272897
0.00213565
-0.283898
0.00223138
-0.283491
-0.106208
-0.270119
-0.103988
-0.280854
-0.146509
0.00128272
-0.490536
0.00222757
-0.262368
0.00213335
-0.261533
-0.197457
0.029408
-0.208887
-0.219086
0.0699867
0.0274827
0.00466816
0.00468493
-0.0807447
0.0691583
0.0231156
-0.175513
-0.0305172
-0.255821
-0.0985631
-0.0437215
0.00527797
0.0590161
-0.262575
-0.037518
0.000692399
-0.0497978
-0.2622
0.0687345
0.0609545
-0.265161
-0.053395
0.0226802
0.00698075
-0.164082
-0.11968
-0.0918734
-0.393352
-0.0529699
0.0303509
-0.451721
-0.00235753
-0.0830322
-0.404365
0.0385225
-0.0730414
-0.415327
-0.065635
0.0276085
0.0623929
-0.0661845
-0.390073
-0.0558147
-0.400691
-0.0562902
0.0274878
-0.0486845
0.0210589
-0.337664
-0.121815
0.0232507
0.0195819
0.0209166
-0.386695
-0.156342
-0.129427
-0.10962
0.0255136
-0.111659
0.00633165
-0.138925
-0.103271
0.0270337
-0.101335
0.00654663
-0.0906522
0.068343
0.0207477
0.0124767
0.0321883
-0.0912197
0.00674518
0.0372815
0.0129152
-0.281447
-0.0012945
0.020165
0.0197464
0.0613682
-0.073732
0.0313295
0.00741662
-0.0949549
0.00688091
-0.116912
0.0270458
0.0376584
-0.0849738
0.00709028
0.0455555
0.0285373
-0.244358
0.00308528
-0.303712
-0.0824032
-0.373811
0.0207727
-0.0551589
-0.224536
-0.0972492
0.00641823
0.0291131
0.0123375
-0.106505
-0.0993273
0.0255863
-0.107506
0.0062288
-0.0946362
-0.105316
0.024161
-0.144052
-0.117982
-0.153721
-0.120124
0.0254044
0.0114892
-0.118552
-0.106088
-0.121677
0.0225852
-0.120221
-0.374962
0.0294535
-0.150677
-0.362823
-0.132965
-0.127361
0.0211807
0.0457651
-0.0813208
0.0263142
0.00692557
-0.144002
0.0194859
0.035561
-0.16149
-0.138375
0.0208995
0.0118135
-0.0128022
-0.348037
-0.221524
0.0581213
0.00465485
-0.100441
-0.206466
-0.0820877
0.0198566
-0.216652
-0.0813732
-0.000337002
0.048203
0.0196621
-0.216818
-0.000427129
0.0486355
0.0198958
-0.0267269
-0.243316
-0.0194017
-0.0890453
-0.034628
-0.18462
-0.000920846
0.00485687
-0.22711
-0.000475815
0.0432974
0.0196771
-0.00207181
0.0184248
0.00535429
-0.250397
-0.0277257
-0.0895412
-0.227338
-0.000668396
0.0439342
0.0201622
-0.0555228
-0.234146
0.000894043
-0.110526
-0.216873
0.048969
-0.374334
-0.0750999
-0.362515
-0.105485
-0.0917424
-0.206519
-0.00037135
0.0540845
0.0201276
-0.0476155
-0.325925
-0.0655435
-0.108614
0.00581389
-0.0810816
-0.111075
0.0227717
-0.177213
-0.387333
0.000691407
-0.0537735
-0.162778
-0.362746
0.000887208
-0.0368362
-0.361591
-0.0343589
-0.159909
-0.374726
0.000789469
-0.0444283
0.000692069
-0.0518793
-0.154333
0.0312202
-0.520303
-0.143506
0.0312741
0.00165929
-0.306825
-0.548982
-0.162206
0.029094
-0.0165142
-0.171699
0.0279304
-0.173351
0.0288947
-0.0255565
-0.163794
0.0701058
0.0300838
-0.132812
0.0312913
-0.302256
-0.0976111
-0.372213
-0.000736287
0.0338842
0.0196185
-0.248371
-0.277218
-0.064537
-0.328622
-0.107686
-0.264417
0.0442382
-0.161924
0.0237964
-0.173375
0.0234448
-0.166138
0.0253244
-0.169947
0.0270161
-0.0251957
-0.158741
0.0272596
-0.147686
0.0274529
0.0195193
-0.151194
0.0292449
-0.0728607
0.00498309
0.00582162
-0.418707
0.0182985
0.0101408
-0.341569
-0.274831
-0.0480612
0.0716828
-0.198092
-0.477225
-0.0709023
-0.0629761
-0.166088
-0.337892
-0.0698396
-0.0687218
-0.17045
-0.4119
-0.0772231
0.0621737
-0.192725
-0.490128
-0.0784151
-0.189632
-0.425166
-0.0857828
0.0336499
-0.18581
-0.437764
-0.361674
-0.0358868
-0.0724029
-0.186078
0.0711118
-0.321194
-0.255426
-0.0580028
-0.0882533
-0.430015
0.0116038
0.00962923
0.0714014
-0.424163
-0.165951
0.00390639
0.0199552
-0.0806216
-0.433092
-0.0982294
-0.444749
-0.129603
0.0294189
-0.0904701
0.00779728
-0.140324
0.029352
-0.0632532
-0.399946
-0.0546491
-0.0801056
-0.226824
-0.310917
-0.380926
0.00285749
-0.179575
-0.37504
-0.300589
-0.370007
0.019446
-0.0375819
0.0102359
-0.0697871
-0.215988
-0.367161
-0.0360501
0.0101343
-0.0677811
-0.225909
-0.377701
0.0191446
-0.0452828
0.00974977
-0.0782598
-0.236974
-0.391796
-0.0619165
-0.245635
-0.156277
-0.328118
-0.062312
-0.0528501
-0.0613192
-0.174186
-0.399622
-0.315466
0.0733786
-0.130554
-0.30392
0.073118
0.00531471
0.0127608
-0.1283
-0.315183
-0.114388
-0.303366
-0.1254
-0.326433
0.0728522
0.0725806
-0.0194098
-0.338553
-0.353452
0.019363
-0.25887
-0.0284299
0.0106724
-0.327013
-0.0206779
0.0112343
-0.0486883
0.00893496
-0.356563
-0.288313
-0.0555986
0.0320278
0.00848133
-0.0580357
0.00868076
0.000594925
-0.0591805
-0.15203
-0.398648
-0.0508616
0.00913841
-0.0651665
-0.235794
-0.38818
-0.0602752
-0.0435302
0.00962274
0.000789668
-0.042589
-0.0579107
-0.214881
-0.363667
0.0723028
-0.351657
-0.0456321
-0.176083
-0.0269575
-0.350081
-0.0253424
-0.1175
-0.348871
0.000887014
-0.0334548
-0.0416054
0.00941947
-0.373078
0.0228638
-0.0882511
0.0224628
0.0219168
0.0191649
-0.149624
0.0205732
-0.194246
-0.143571
0.0220876
-0.0732982
0.0237433
-0.181864
-0.132512
0.0223582
-0.128671
0.0691456
0.0245425
-0.0419309
-0.136461
-0.299363
-0.00782673
-0.0164707
0.0285469
-0.335816
-0.134953
0.0687676
0.0229889
-0.145832
-0.308318
0.00173359
-0.139563
0.0243408
-0.312755
-0.0187411
-0.105135
0.00665413
-0.146027
0.0227249
-0.322018
-0.00921359
-0.14102
0.0683703
0.0214796
-0.334098
-0.0826316
-0.0883764
0.00723257
-0.218851
0.00360902
-0.00295453
-0.0773765
-0.122185
0.0695066
0.0261382
0.0102319
-0.146863
0.0200166
-0.53419
-0.0461957
0.0690302
0.0198796
-0.324472
0.00649138
-0.210051
0.0674147
0.0154336
0.00504881
-0.229449
0.0050449
-0.0500094
-0.187337
-0.242718
0.0379866
0.0176418
0.00583968
-0.222845
-0.107825
-0.25937
0.045999
-0.248614
0.0329114
0.0376156
-0.292583
-0.00128349
0.0162157
0.0193605
0.0595472
0.0545916
0.0135792
-0.163766
0.0207844
-0.113621
0.0269875
-0.171132
0.0191161
-0.269348
-0.365495
-0.0600037
-0.101134
-0.291568
-0.216382
0.0670061
0.0138916
-0.0967211
0.0285878
-0.147209
-0.46083
-0.257346
0.00281369
0.0293355
-0.345913
-0.00824193
0.0282373
-0.335214
-0.154846
0.00505222
-0.0228096
0.00128105
-0.331182
-0.137303
0.0236492
-0.00560506
0.070813
0.032879
-0.371614
-0.0250534
-0.0720743
-0.196065
-0.3034
-0.027347
-0.0604063
0.0709267
0.0295563
-0.386118
-0.0398302
0.00813621
-0.196786
0.0681776
0.0187321
-0.26791
-0.0211735
-0.115901
-0.0578721
0.0705983
0.0282133
0.0289523
-0.316582
-0.13083
0.0252559
0.00264306
-0.226483
-0.0928849
0.023632
0.00627414
-0.0630458
-0.175891
-0.347584
-0.156863
0.00533804
-0.0175725
0.0292787
-0.152285
0.0211571
-0.0121623
0.0093734
-0.148387
0.00531678
-0.014593
-0.23093
-0.0957471
0.0338529
-0.206437
-0.451379
0.00217269
-0.366397
-0.0112169
0.0304659
-0.254707
-0.000987447
-0.128911
-0.0516995
-0.196773
0.00426885
-0.0712101
-0.206038
0.00227753
-0.361617
-0.0186482
0.00889407
0.0735687
-0.0102475
0.029697
0.0311553
-0.168782
0.0220478
-0.241221
0.00320201
-0.0372606
0.0314678
-0.216458
0.00376799
0.0207071
-0.00607402
-0.0697528
-0.160522
-0.0196963
0.0308213
-0.157306
0.0224126
-0.249351
0.00300504
-0.0438105
0.0301174
-0.251643
-0.0980373
-0.0434608
-0.192773
0.00443786
-0.196272
-0.37584
-0.0504765
-0.189869
0.0685348
0.0204872
0.0623645
0.0145243
-0.0758093
-0.247095
-0.402614
-0.331413
-0.199408
0.00158449
-0.0594086
-0.00925528
0.0717872
0.0289542
-0.00253713
0.0102589
0.0218479
0.0244925
-0.000172208
0.0469461
0.0192863
-0.0236681
-0.159666
-0.213115
0.000997248
-0.0760999
-0.322434
-0.0456136
-0.270311
-0.0522326
-0.325271
-0.107228
-0.236637
0.00328354
-0.0348545
0.0298605
-0.168093
-0.0517709
-0.23414
-0.0512712
-0.281183
0.00454316
-0.0292187
0.0255392
0.00138597
-0.552878
-0.33618
-0.102558
-8.7743e-05
0.0386864
0.0189897
0.00780861
0.0205064
0.0227231
-0.206856
0.00482048
-0.074594
0.0133464
0.0210735
-2.66964e-05
0.0449211
0.0190347
-0.0689791
-0.267224
-0.0471696
0.0273408
-0.0727257
-0.257181
-0.206354
0.000994596
-0.0677953
-0.0153445
0.071483
0.0278413
0.00579203
0.0212136
-0.412558
-0.19274
0.0236988
-0.000228224
0.041252
0.0191737
-0.194043
0.00435075
-0.0582962
-0.0546617
-0.0774256
0.0249753
0.0198845
-0.188195
0.00733416
0.0117166
-0.0794029
0.025631
0.0189085
0.00127961
-0.00341704
-0.464142
0.0204003
-0.0872201
0.0249571
0.00659076
0.0127981
-0.0180113
-0.200552
0.00427338
-0.0664937
0.00628218
0.0122935
0.0270258
-0.172791
0.00457279
-0.0401533
-0.238995
-0.0098866
-0.465001
-0.19118
0.0734847
0.0228594
-0.303989
0.0112966
0.0193918
-0.0879666
-0.0892524
0.0256247
-0.179049
0.00433651
-0.246923
-0.00347876
-0.120718
-0.241655
0.00336802
-0.118566
-0.04242
-0.184995
0.0230331
-0.0616057