# vtk DataFile Version 2.0
Unstructured Grid by M++
ASCII
DATASET UNSTRUCTURED_GRID
POINTS 1072 float
  0.593750   1.000000 0
  0.718750   0.656250 0
  0.625000   0.968750 0
  0.625000   1.000000 0
  0.843750   0.562500 0
  0.875000   0.562500 0
  0.875000   0.531250 0
  0.562500   0.531250 0
  0.687500   1.000000 0
  0.875000   0.593750 0
  0.562500   0.593750 0
  0.625000   0.531250 0
  0.593750   0.562500 0
  0.593750   0.531250 0
  0.562500   0.562500 0
  0.593750   0.625000 0
  0.593750   0.593750 0
  0.562500   0.625000 0
  0.593750   0.687500 0
  0.562500   0.687500 0
  0.906250   0.500000 0
  0.656250   0.750000 0
  0.625000   0.937500 0
  0.593750   0.968750 0
  0.812500   0.531250 0
  0.625000   0.906250 0
  0.906250   0.625000 0
  0.656250   0.593750 0
  0.531250   0.937500 0
  0.593750   0.656250 0
  0.687500   0.562500 0
  0.625000   0.593750 0
  0.656250   0.562500 0
  0.625000   0.562500 0
  0.718750   1.000000 0
  0.687500   0.625000 0
  0.562500   0.968750 0
  0.656250   0.625000 0
  0.531250   0.968750 0
  0.625000   0.625000 0
  0.656250   0.656250 0
  0.531250   1.000000 0
  0.625000   0.656250 0
  0.625000   0.687500 0
  0.937500   0.562500 0
  0.937500   0.656250 0
  0.968750   0.625000 0
  0.937500   0.625000 0
  0.968750   0.593750 0
  0.937500   0.593750 0
  0.843750   0.531250 0
  0.812500   0.562500 0
  0.625000   0.875000 0
  0.812500   0.687500 0
  1.000000   0.625000 0
  0.750000   0.968750 0
  0.843750   0.843750 0
  1.000000   0.937500 0
  1.000000   0.906250 0
  0.937500   0.687500 0
  0.843750   0.781250 0
  0.750000   1.000000 0
  0.968750   0.562500 0
  0.968750   0.937500 0
  0.968750   0.906250 0
  0.968750   0.875000 0
  0.656250   0.781250 0
  1.000000   0.593750 0
  0.562500   0.937500 0
  0.656250   0.843750 0
  1.000000   0.656250 0
  0.656250   0.812500 0
  0.656250   0.875000 0
  0.781250   0.531250 0
  1.000000   0.687500 0
  0.906250   0.906250 0
  0.843750   0.687500 0
  0.843750   0.656250 0
  0.656250   0.906250 0
  0.937500   0.843750 0
  0.937500   0.906250 0
  0.937500   0.937500 0
  0.937500   0.875000 0
  0.625000   0.750000 0
  0.625000   0.812500 0
  0.625000   0.781250 0
  0.906250   1.000000 0
  0.625000   0.843750 0
  0.968750   0.656250 0
  0.968750   0.500000 0
  0.937500   0.531250 0
  0.875000   0.875000 0
  0.875000   0.812500 0
  0.718750   0.968750 0
  0.906250   0.812500 0
  0.843750   0.812500 0
  0.812500   0.812500 0
  0.718750   0.937500 0
  0.687500   0.937500 0
  0.906250   0.593750 0
  0.968750   0.531250 0
  0.875000   0.625000 0
  0.906250   0.875000 0
  0.781250   1.000000 0
  0.968750   0.687500 0
  0.875000   0.781250 0
  0.875000   0.687500 0
  0.812500   0.781250 0
  0.906250   0.687500 0
  0.875000   0.656250 0
  1.000000   0.562500 0
  0.812500   0.750000 0
  0.906250   0.656250 0
  0.843750   0.750000 0
  0.562500   1.000000 0
  0.687500   0.656250 0
  0.562500   0.656250 0
  0.593750   0.906250 0
  0.593750   0.937500 0
  0.562500   0.875000 0
  0.593750   0.843750 0
  0.593750   0.875000 0
  0.750000   0.687500 0
  0.781250   0.687500 0
  0.750000   0.718750 0
  0.781250   0.718750 0
  0.750000   0.750000 0
  0.562500   0.812500 0
  0.593750   0.781250 0
  0.593750   0.812500 0
  0.750000   0.625000 0
  0.781250   0.625000 0
  0.750000   0.656250 0
  0.812500   0.625000 0
  0.781250   0.656250 0
  0.562500   0.906250 0
  0.562500   0.843750 0
  0.562500   0.750000 0
  0.593750   0.750000 0
  0.562500   0.781250 0
  0.656250   0.937500 0
  0.531250   0.531250 0
  0.531250   0.562500 0
  0.531250   0.593750 0
  0.531250   0.625000 0
  0.531250   0.656250 0
  0.531250   0.687500 0
  0.812500   0.593750 0
  0.843750   0.593750 0
  0.781250   0.750000 0
  0.781250   0.781250 0
  0.531250   0.812500 0
  0.531250   0.843750 0
  0.531250   0.750000 0
  0.531250   0.718750 0
  0.531250   0.906250 0
  0.875000   0.843750 0
  0.531250   0.875000 0
  0.718750   0.718750 0
  0.687500   0.687500 0
  0.718750   0.687500 0
  0.718750   0.625000 0
  0.562500   0.718750 0
  0.687500   0.593750 0
  0.718750   0.593750 0
  0.718750   0.562500 0
  0.750000   0.562500 0
  0.656250   0.968750 0
  0.656250   0.687500 0
  1.000000   0.968750 0
  0.625000   0.718750 0
  0.656250   0.718750 0
  0.843750   0.625000 0
  0.812500   0.656250 0
  0.812500   0.718750 0
  0.687500   0.968750 0
  0.656250   1.000000 0
  0.687500   0.531250 0
  0.718750   0.531250 0
  0.906250   0.562500 0
  1.000000   0.531250 0
  0.750000   0.531250 0
  0.750000   0.593750 0
  0.781250   0.875000 0
  0.781250   0.562500 0
  0.781250   0.593750 0
  0.593750   0.281250 0
  0.593750   0.250000 0
  0.562500   0.250000 0
  0.562500   0.031250 0
  0.593750   0.375000 0
  0.718750   0.031250 0
  0.593750   0.343750 0
  0.687500   0.250000 0
  0.656250   0.437500 0
  0.781250   0.093750 0
  0.625000   0.406250 0
  0.750000   0.062500 0
  0.687500   0.500000 0
  0.812500   0.156250 0
  0.593750   0.031250 0
  0.562500   0.000000 0
  0.625000   0.125000 0
  0.625000   0.093750 0
  0.593750   0.093750 0
  0.593750   0.062500 0
  0.687500   0.437500 0
  0.781250   0.343750 0
  0.906250   0.000000 0
  0.781250   0.312500 0
  0.656250   0.406250 0
  0.750000   0.312500 0
  0.687500   0.468750 0
  0.812500   0.125000 0
  0.906250   0.031250 0
  0.656250   0.312500 0
  0.625000   0.281250 0
  0.687500   0.375000 0
  0.656250   0.343750 0
  0.625000   0.312500 0
  0.656250   0.375000 0
  0.625000   0.343750 0
  0.625000   0.375000 0
  0.750000   0.125000 0
  0.625000   0.468750 0
  0.687500   0.062500 0
  0.562500   0.406250 0
  0.656250   0.031250 0
  0.531250   0.375000 0
  0.625000   0.000000 0
  0.656250   0.062500 0
  0.531250   0.406250 0
  0.625000   0.031250 0
  0.625000   0.062500 0
  0.750000   0.406250 0
  0.843750   0.312500 0
  0.812500   0.343750 0
  0.937500   0.000000 0
  0.843750   0.343750 0
  0.968750   0.000000 0
  0.812500   0.312500 0
  0.968750   0.093750 0
  0.937500   0.062500 0
  0.750000   0.187500 0
  0.656250   0.281250 0
  0.843750   0.093750 0
  0.750000   0.156250 0
  0.625000   0.500000 0
  0.843750   0.062500 0
  0.625000   0.250000 0
  0.812500   0.062500 0
  0.968750   0.062500 0
  0.843750   0.375000 0
  0.968750   0.031250 0
  0.812500   0.375000 0
  0.937500   0.031250 0
  0.906250   0.062500 0
  0.781250   0.125000 0
  0.656250   0.468750 0
  0.875000   0.031250 0
  0.937500   0.218750 0
  0.937500   0.250000 0
  0.937500   0.312500 0
  0.937500   0.343750 0
  0.937500   0.375000 0
  0.937500   0.406250 0
  1.000000   0.000000 0
  0.875000   0.343750 0
  0.937500   0.437500 0
  0.562500   0.312500 0
  0.656250   0.218750 0
  1.000000   0.031250 0
  0.875000   0.375000 0
  0.625000   0.437500 0
  0.750000   0.093750 0
  0.968750   0.250000 0
  0.968750   0.343750 0
  0.968750   0.375000 0
  0.968750   0.406250 0
  0.968750   0.468750 0
  0.968750   0.437500 0
  0.937500   0.156250 0
  1.000000   0.406250 0
  1.000000   0.375000 0
  0.875000   0.406250 0
  1.000000   0.062500 0
  0.593750   0.000000 0
  1.000000   0.500000 0
  0.531250   0.000000 0
  1.000000   0.468750 0
  1.000000   0.437500 0
  0.750000   0.375000 0
  0.843750   0.281250 0
  0.156250   0.531250 0
  1.000000   0.312500 0
  0.031250   0.875000 0
  0.000000   0.750000 0
  0.031250   0.750000 0
  0.031250   0.781250 0
  0.031250   0.812500 0
  0.031250   0.843750 0
  0.156250   0.500000 0
  1.000000   0.281250 0
  0.125000   0.968750 0
  0.250000   0.625000 0
  0.187500   1.000000 0
  1.000000   0.718750 0
  0.312500   0.000000 0
  0.312500   0.656250 0
  0.156250   1.000000 0
  0.968750   0.718750 0
  0.281250   0.000000 0
  0.281250   0.656250 0
  0.125000   0.843750 0
  0.156250   0.843750 0
  0.000000   0.718750 0
  0.843750   0.500000 0
  0.281250   0.687500 0
  0.437500   0.781250 0
  0.312500   1.000000 0
  0.281250   1.000000 0
  0.375000   0.781250 0
  0.312500   0.500000 0
  0.437500   0.156250 0
  0.343750   0.500000 0
  0.468750   0.156250 0
  0.250000   0.156250 0
  0.343750   0.125000 0
  0.218750   0.468750 0
  0.375000   0.375000 0
  0.437500   0.312500 0
  0.406250   0.312500 0
  0.062500   0.375000 0
  0.093750   0.281250 0
  0.093750   0.343750 0
  0.937500   0.125000 0
  0.906250   0.718750 0
  0.218750   0.000000 0
  0.250000   0.968750 0
  0.531250   0.062500 0
  0.156250   0.062500 0
  0.312500   0.187500 0
  1.000000   0.875000 0
  0.312500   0.156250 0
  0.281250   0.187500 0
  0.906250   0.781250 0
  0.218750   0.062500 0
  0.718750   0.781250 0
  0.031250   0.062500 0
  0.375000   0.000000 0
  0.718750   0.750000 0
  0.031250   0.031250 0
  0.687500   0.781250 0
  0.000000   0.062500 0
  0.250000   0.500000 0
  0.375000   0.156250 0
  0.281250   0.468750 0
  0.406250   0.125000 0
  0.406250   0.343750 0
  0.062500   0.406250 0
  0.312500   0.437500 0
  0.437500   0.093750 0
  0.781250   0.031250 0
  0.250000   0.468750 0
  0.375000   0.125000 0
  0.281250   0.437500 0
  0.406250   0.093750 0
  0.406250   0.437500 0
  0.406250   0.406250 0
  0.375000   0.437500 0
  0.031250   1.000000 0
  0.187500   0.437500 0
  1.000000   0.812500 0
  0.312500   0.093750 0
  0.218750   0.437500 0
  0.343750   0.093750 0
  0.250000   0.437500 0
  0.375000   0.093750 0
  0.218750   0.406250 0
  0.343750   0.062500 0
  0.250000   0.406250 0
  0.375000   0.062500 0
  0.281250   0.218750 0
  0.187500   0.312500 0
  0.250000   0.218750 0
  0.156250   0.312500 0
  1.000000   0.093750 0
  0.125000   0.312500 0
  0.406250   0.000000 0
  0.750000   0.781250 0
  0.062500   0.062500 0
  0.375000   0.500000 0
  0.500000   0.156250 0
  0.312500   0.968750 0
  0.125000   0.468750 0
  0.500000   0.375000 0
  0.437500   0.406250 0
  0.375000   0.468750 0
  0.468750   0.375000 0
  0.125000   0.437500 0
  0.343750   0.468750 0
  0.468750   0.125000 0
  0.437500   0.375000 0
  0.093750   0.437500 0
  0.125000   0.093750 0
  0.500000   0.937500 0
  0.718750   0.906250 0
  0.031250   0.187500 0
  0.687500   0.906250 0
  0.000000   0.187500 0
  0.937500   0.781250 0
  0.250000   0.062500 0
[...]
POINT_DATA 1072
SCALARS scalar_value float 1
LOOKUP_TABLE default
0
-0.00140781
0.000657343
0
-0.00240074
0.000539432
0.00419008
0.00717268
0
3.42512e-05
0.00511274
0.0158412
-0.00139789
0.0175129
0.0108222
0.00412936
0.0100453
0.00668979
0.00565607
0.0059117
-0.0357347
0.000757757
-0.000385544
0.00137233
0.00119024
0.00106519
-0.00309988
0.00108394
0.00124294
0.00409094
0.0048598
-0.00768753
0.0208013
0.00976832
0
0.00764793
0.0012998
0.00102656
0.000661358
0.00377091
-0.000969365
0
-0.00614486
0.00259709
-0.0116048
0.00291247
-0.00211702
-0.003879
0.00111287
0.0061651
0.00255998
-0.00374683
-0.000475489
0.000769801
-0.00220661
-0.000256298
0.000242019
2.92769e-05
-3.205e-05
-0.00187488
0.00171316
0
0.00145783
0.000107089
-9.32289e-05
-7.16412e-05
0.000455746
0.00503496
0.000621355
0.00167409
0.000539989
-0.000760164
-0.000903685
-0.00948247
0.000254218
-0.000240865
-0.00148
0.000375415
0.001069
-0.00031189
-1.53088e-05
-6.63083e-05
-5.35168e-05
0.00345852
0.00111641
-0.00202371
0
0.000290556
0.00172142
-0.00349735
0.0133439
-0.000225202
-0.000549762
6.25969e-05
-0.000966489
-0.00149521
-0.000973088
-0.000565726
-0.000219605
0.00223692
0.000129846
-0.00107772
-0.00014751
0
-0.000788581
0.000859968
-0.00258944
0.00195125
-0.00267593
0.00197163
-0.00713477
-0.000417801
0.00334598
-0.00239143
0
-0.00705075
-0.0038545
0.00113017
-0.000497057
0.00170403
-0.000315765
0.000132472
-0.00176931
-0.00162866
0.000954447
0.00106525
-0.000312492
0.000718731
-0.000354215
0.00111361
0.00129545
-0.0034975
0.00102098
-0.00157754
0.00334653
5.47808e-05
-0.000652952
0.00124571
-0.00143122
0.000148099
-0.000129435
0.00495229
-0.00366549
0.00801006
-0.00978944
0.00678844
-0.0016361
0.0038723
0.000428616
-0.000448191
0.00105106
2.45261e-05
0.00199241
0.00227791
-0.000716544
0.000857516
0.000116698
0.000609861
0.00283292
0.00465482
-0.00181037
0.00433488
-0.00297922
-0.00799124
-0.00726692
0.00609491
0.00810031
0.000678276
0.00212374
0.000164111
-0.00516605
-0.000891894
0.000299024
0.000326285
0.000508903
0.000398589
0
0.00328423
-0.0063979
0.00245697
0.00690444
-0.00924904
-0.00571804
-0.00371723
0.00323164
0.00150346
0.717474
1.93285
1.17069
1.89229
0.118478
1.14159
0.215551
0.54592
0.157164
0.206374
0.111095
0.669768
-0.00209745
0.0287295
1.7043
1.82663
1.7735
1.73642
1.98376
1.83877
-0.00932469
0.0174989
-0.00121924
-0.00534527
0.229531
0.00254876
-0.00711514
0.0166116
-0.00102277
0.62982
0.729105
0.092854
0.37721
0.497803
0.294199
0.332686
0.179417
0.356267
0.0176381
1.58417
0.0579908
0.903896
0.0507738
1.25397
0.989521
0.0183455
1.60254
1.82989
-0.00789456
-0.0149684
0.016023
-0.000386651
0.013366
0.000558883
-0.0141768
0.000590614
-0.00107447
0.164482
0.686996
-0.00821907
0.272617
0.0017014
-0.0097192
1.44527
0.12534
0.000635496
-0.017449
0.000609069
-0.0131416
-0.000759601
-0.000727782
0.11751
0.145878
-0.00777788
-1.88057e-05
-0.0015794
-0.00286868
-0.000133036
-0.00675691
0.00356126
-0.000298212
0.0144848
-0.0123539
0.260136
1.24759
-0.00026692
-0.00961342
0.0411169
0.549097
-0.000382576
0.00058397
-0.000499201
0.00253312
0.00470025
-0.00260396
-0.00116943
0.0022508
-0.000256492
0.0188862
-0.000223618
1.53416
-0.00807733
2.01968
0.00571563
-0.00275128
0.0017477
0.0131704
0.00244317
-0.00018675
2.36327e-05
-8.82397e-06
-5.74756e-05
4.59861e-06
3.15289e-05
2.39136e-05
-0.0031336
0.00125656
4.20981e-05
0.00158934
0
-0.000161522
1.48617
0.000398343
0
0.000108004
1.03008
-0.00207602
0.0001532
2.9069e-05
-1.27341e-06
-0.000147274
0.000667297
-0.000873979
0
0
-0.000430394
0.00970993
1.20902
0.005554
1.19234
0.312595
1.29892
-0.00545537
0.0745963
0.396194
0.847307
-0.000256958
0.00190411
0.00024897
-0.00129493
0.00230792
0.114645
-7.8408e-05
1.72121
0.000979018
0.527065
0.000229341
0.731442
0.361217
0.00123949
0.135616
0.00159004
-0.000123683
1.92024
-0.00265305
-3.78732e-05
0.00129634
0.00032316
0.00148779
1.62683
0.0162168
1.80836
0.720793
0.000444313
-0.00228945
1.82428
0.361704
-0.00782091
1.83417
0.0250483
1.93107
0.532512
0.513692
0.0863247
0
0.00273519
0.000105379
1.16911
0.00800506
1.51684
0.016302
1.96689
-0.00531528
1.66234
-0.00535342
2.02438
0.238877
0.0308521
0.147496
-0.000622109
-0.00018108
-0.000542553
1.96978
-8.5721e-05
-0.000361529
0.0424444
0.93027
-0.000173068
0.000588756
0.0101103
0.0908592
0.0628499
0.094606
-0.000248246
-0.00700297
2.32686
0.183313
0.000563081
-0.0015602
0.000370302
0.000552856
-0.000287894
0.000134443
0.000106397
-0.000131254
0.498519
-0.0014447
0.000179462
2.41696e-05
0.0056717
1.69827
9.67918e-05
0.00670294
0.126863
4.95821e-05
0.000744672
-0.00833248
-0.000212021
0.00635269
0.0278441
2.01198
0.142942
0.000911219
0.779067
0.348261
-0.000252809
0.382523
0.109703
-4.46414e-05
4.70864e-05
-0.00733184
0.101098
0.000400058
0.00115915
0.00676987
1.42939
0.0013884
0.126834
0.000119959
0.668141
-0.000288
0.0098685
0.00305014
0.0122696
0.0484738
0.00822683
0.000129097
0.0555878
0.046546
0
0.153406
0.233385
-0.000323099
-0.000357738
0.0911419
0.116698
0.0926856
0.316188
-0.000145461
-0.000142907
0.95438
2.06716
-0.00038874
-6.02068e-05
8.3366e-05
0.0994196
1.43257
0.0576489
0.000101352
0.407798
0.667324
-0.000612938
-0.00121985
1.94182
1.67791
0.00506923
0.510714
0.000143133
0.0335826
-0.000960323
0.000711621
0
0.108211
1.36015
1.80214
-0.000437252
-1.97543e-06
-0.000811783
0.765215
0.0623449
-0.0105619
0.491618
0.000499652
0.000109985
-0.00129334
0.0010358
0.0172316
0.0285934
0.259807
0.000373768
0.952269
0.00565189
0.00839993
0.0031851
-2.47596e-05
-2.31284e-05
0.000388373
-3.00782e-05
-0.000904612
0.000225518
0.00221958
0.466202
1.38895
0.148602
0.000288387
0.452797
-0.000701088
-0.00396313
1.70964
-0.000638727
-0.000237238
0.00987057
0.000356058
-0.000381544
-0.000563361
0.00085628
0.0346748
0.532933
-0.00785006
-7.2041e-06
7.39253e-06
0.0158436
0.000845357
0.000262529
-0.0140903
-9.36531e-05
9.65944e-05
-0.000818569
0.0201966
-0.00209203
0.000270432
0.288804
5.61782e-06
0.253703
0.0573828
0.368481
0.0485849
-3.80195e-05
-0.000266392
-0.00834162
-0.000103033
0.154233
1.71967
1.95001
0.00214494
-0.00438569
0
0.00177477
0.000352646
-0.000123635
0.824397
0.000227456
0.00672058
1.26122
0.875837
-0.000647295
-0.00614343
-0.000135033
4.21395e-05
0.0098051
0.000182837
0.00280242
3.42954e-05
1.86407
-0.00049278
3.00325e-05
9.51681e-05
0.000128795
0.000303969
0
-0.000105182
0.000253363
0.0162558
-0.00132169
0.000292267
0.00920454
0.000123946
0.00027579
0.000917552
0.000141945
0.000201066
0.643216
0.0262014
0.164845
-0.000786569
0.000468791
-0.000269977
0.122129
1.46371
0.000599868
-0.0064695
0.00684591
0.034987
0.0180099
-0.000359385
0.000242772
0
0
0.00632904
0
0.0322381
0.736848
0.000361575
0.00595528
0.00588705
0.0130118
0.00171104
-0.00299933
1.8761
-0.00211843
0.00526054
-0.000509705
0.611375
0.131816
1.02944
-3.81075e-06
0.000572209
2.53863e-05
0.0480148
0
-0.00261662
0.0110308
1.72996
0
-0.000364588
-1.89581e-05
0.0966636
0.944394
0.000248156
0.480433
0.0299153
0.0479152
-0.000263403
-0.000289076
0
0
0.0454618
0.0929843
0.210137
0.00039564
-0.000382379
-0.000810298
0.000434732
0.000264503
1.93337
0.0005842
-0.000118338
0.00200149
-0.000129375
-0.00111711
-0.000708438
1.90261
0.00215359
-0.0024821
1.84406e-05
1.04199
1.21413
0.00407714
1.69814
-0.000515664
0.015586
-0.000106167
0.00798852
-0.00106054
0.00821642
4.30284e-06
-0.00193273
0.00264793
0.000402397
0.00105876
0.00017298
1.04885
0.00035544
-0.00400003
-2.24129e-05
-0.00136592
0.133134
0.000627684
0.000464249
0.00104792
0.496981
0
-0.00038799
0.000836079
-0.000363834
-0.00133232
0.0139553
2.03375
0.800348
-0.00133837
0.102777
0.000184621
-0.000569037
-0.0069105
0.167284
0.000378207
-6.84722e-05
0.00230574
1.73989
0.000168014
-0.012261
-0.000816783
0.000310023
-0.000264798
0.517846
0.00162824
8.57599e-06
-0.000206605
-0.000229989
5.76383e-05
1.33834
0.00408342
5.29152e-06
0.000229815
7.20194e-06
0.000133289
1.45625
2.13818
0.000752507
0.495232
0.000457516
-0.010702
0.0760956
-7.39674e-06
-0.000215897
0.00271355
6.14881e-05
8.10255e-05
1.02178
1.50799e-05
0.000144417
-0.000219279
0.000183159
-0.000125604
0.942638
0.323851
0.194159
0.0904539
0.000145316
2.11265
-0.000726041
-0.000488235
1.66547
0.00348022
1.55193
-4.28279e-05
-0.000309832
-6.17303e-05
0.00628112
-8.66464e-05
0.00215845
-4.19152e-06
-6.09778e-05
0.000105401
1.01583e-05
-0.00516811
-8.10627e-05
-0.000416519
0.0189376
-7.86027e-05
0.0030901
-0.000256423
0.000121894
1.46909e-05
0.0023561
4.63587e-05
0
-0.000470744
8.01766e-06
0.000248336
0.0162475
5.39533e-05
9.30742e-05
-0.00248746
1.78792e-05
0.000466511
-0.00014606
-8.97396e-05
4.63318e-05
-0.00600977
0.000838843
-0.0012718
-0.000417524
0.00025623
-6.40614e-06
-0.00679639
-0.000242683
0.00063213
4.24709e-06
0.0192665
-0.0117752
-0.00747655
1.02126e-05
0.0056868
0.0202011
6.6914e-05
0.0011669
2.49571e-05
-0.00485666
0
0.0183242
3.30376e-05
-0.000964854
2.63381e-05
4.35302e-05
0.000696386
-3.02972e-05
5.66738e-05
-0.000135709
0.0137667
8.38343e-05
-0.00145665
-0.00163828
0.00049807
-0.000147211
-0.0118603
-0.000283253
0
-0.00365714
0.00154502
0.000785024
-0.00264641
0.000305226
0.000467723
-0.000621295
-0.000700966
1.96825
-0.000100105
0.000119366
-8.82527e-05
1.46628e-05
-3.04009e-05
0.0194109
0.0064781
-0.00105759
-0.000788452
-0.000275846
0.0109525
0.999264
2.96912e-05
-3.84502e-05
-0.0137125
-0.00145219
-0.00458296
0.00193682
0.00813577
-0.000890647
0.000130679
0.0914895
-0.000119764
-0.00305746
-0.00024014
0.00460667
-0.000452775
0.00708569
0.000356372
0.00350734
-0.00125532
-0.00323026
1.44266
1.5344e-05
0.00698026
-7.79693e-05
0.00179253
0.00269935
-0.000106785
0.0232582
5.16456e-05
0.000106485
0.00456879
-0.000320169
2.15515e-05
-2.44561e-05
0
-0.000214032
0.00826656
-0.000916724
1.64765
0.000105958
6.65854e-05
-0.000321144
0.016902
4.8066e-05
0
0.00098477
-3.64038e-05
0.00790292
0.000278345
-0.000327997
-0.000170966
-0.00043085
0.0114007
-0.000107464
1.42769e-05
-0.0011514
0.00288438
-0.0175958
0.0188289
-0.000282547
8.9307e-05
-1.25913e-05
0.000291112
0.000120427
0.000642325
-0.00431646
-9.718e-05
0.000159889
-0.00015021
8.75486e-05
-0.000124015
0.000162475
5.28033e-05
-0.000132403
0.000146127
0.761319
0.00443299
4.05023e-05
-3.53777e-05
0.000144245
0.189833
-0.000137825
0.292043
0.00226165
-4.1916e-05
-0.000336559
-0.000268778
-7.70583e-05
6.05113e-06
0.000278358
-0.000241032
0.000328521
2.65128e-05
0.00116532
-0.000568873
-0.000123915
0.000564535
-8.55588e-05
0.000471422
1.01629e-05
0.000304206
0.000438637
2.28283e-05
-0.000747515
0.00156748
6.55716e-05
-0.000399752
0.000113216
0.00716074
-1.18589e-06
-1.38302e-05
-0.000414033
4.38727e-05
2.3843e-05
-2.31157e-05
-0.000169716
-1.26395e-05
-0.000374779
1.15807
-0.00805542
0.033222
-1.61873e-05
-2.45337e-05
-0.000132251
-0.00169341
-1.61573e-05
0.0127753
0.137292
0.385292
0.0145906
0.0740486
0.0241912
0.00323081
0.0012889
-0.0124864
-0.0177644
0.00258609
0.00611617
0.00181829
0.13727
0.293854
0.394501
1.25356
1.59267
1.60931
-0.00165459
-0.000267467
-0.00734555
0.756728
0.934905
1.44266
0.132104
0.731209
0.0824449
0.138916
1.55063
-0.0015386
0.0206799
0.0775458
1.22901
0.00258613
0.000181152
0.684361
0.00267857
0.00820094
0.950732
7.99394e-05
-0.0316501
0.0203869
0.00410021
0.350598
0.437778
1.05701
0.0425125
0.610494
1.62203
0.85013
1.60508
0.0371149
1.76636
0.150399
1.09616
0.0818745
0.387431
0.481136
0.0500611
0.0392664
0.0476246
1.7729
2.03098
1.95325
1.62183
0.0207947
-0.0129394
0.0675804
-0.000142319
0.000113643
-0.00722484
0.00211004
0.000303472
0.00550985
0.00212721
-0.00235821
0.249218
-0.0015394
-0.00182058
0.0238857
0.107794
0.111888
0.179301
-0.0118186
1.51248
0.0782281
0
0.0145201
-0.00335607
-0.00127828
