# vtk DataFile Version 2.0
Unstructured Grid by M++
ASCII
DATASET UNSTRUCTURED_GRID
POINTS 1072 float
  0.593750   1.000000 0
  0.718750   0.656250 0
  0.625000   0.968750 0
  0.625000   1.000000 0
  0.843750   0.562500 0
  0.875000   0.562500 0
  0.875000   0.531250 0
  0.562500   0.531250 0
  0.687500   1.000000 0
  0.875000   0.593750 0
  0.562500   0.593750 0
  0.625000   0.531250 0
  0.593750   0.562500 0
  0.593750   0.531250 0
  0.562500   0.562500 0
  0.593750   0.625000 0
  0.593750   0.593750 0
  0.562500   0.625000 0
  0.593750   0.687500 0
  0.562500   0.687500 0
  0.906250   0.500000 0
  0.656250   0.750000 0
  0.625000   0.937500 0
  0.593750   0.968750 0
  0.812500   0.531250 0
  0.625000   0.906250 0
  0.906250   0.625000 0
  0.656250   0.593750 0
  0.531250   0.937500 0
  0.593750   0.656250 0
  0.687500   0.562500 0
  0.625000   0.593750 0
  0.656250   0.562500 0
  0.625000   0.562500 0
  0.718750   1.000000 0
  0.687500   0.625000 0
  0.562500   0.968750 0
  0.656250   0.625000 0
  0.531250   0.968750 0
  0.625000   0.625000 0
  0.656250   0.656250 0
  0.531250   1.000000 0
  0.625000   0.656250 0
  0.625000   0.687500 0
  0.937500   0.562500 0
  0.937500   0.656250 0
  0.968750   0.625000 0
  0.937500   0.625000 0
  0.968750   0.593750 0
  0.937500   0.593750 0
  0.843750   0.531250 0
  0.812500   0.562500 0
  0.625000   0.875000 0
  0.812500   0.687500 0
  1.000000   0.625000 0
  0.750000   0.968750 0
  0.843750   0.843750 0
  1.000000   0.937500 0
  1.000000   0.906250 0
  0.937500   0.687500 0
  0.843750   0.781250 0
  0.750000   1.000000 0
  0.968750   0.562500 0
  0.968750   0.937500 0
  0.968750   0.906250 0
  0.968750   0.875000 0
  0.656250   0.781250 0
  1.000000   0.593750 0
  0.562500   0.937500 0
  0.656250   0.843750 0
  1.000000   0.656250 0
  0.656250   0.812500 0
  0.656250   0.875000 0
  0.781250   0.531250 0
  1.000000   0.687500 0
  0.906250   0.906250 0
  0.843750   0.687500 0
  0.843750   0.656250 0
  0.656250   0.906250 0
  0.937500   0.843750 0
  0.937500   0.906250 0
  0.937500   0.937500 0
  0.937500   0.875000 0
  0.625000   0.750000 0
  0.625000   0.812500 0
  0.625000   0.781250 0
  0.906250   1.000000 0
  0.625000   0.843750 0
  0.968750   0.656250 0
  0.968750   0.500000 0
  0.937500   0.531250 0
  0.875000   0.875000 0
  0.875000   0.812500 0
  0.718750   0.968750 0
  0.906250   0.812500 0
  0.843750   0.812500 0
  0.812500   0.812500 0
  0.718750   0.937500 0
  0.687500   0.937500 0
  0.906250   0.593750 0
  0.968750   0.531250 0
  0.875000   0.625000 0
  0.906250   0.875000 0
  0.781250   1.000000 0
  0.968750   0.687500 0
  0.875000   0.781250 0
  0.875000   0.687500 0
  0.812500   0.781250 0
  0.906250   0.687500 0
  0.875000   0.656250 0
  1.000000   0.562500 0
  0.812500   0.750000 0
  0.906250   0.656250 0
  0.843750   0.750000 0
  0.562500   1.000000 0
  0.687500   0.656250 0
  0.562500   0.656250 0
  0.593750   0.906250 0
  0.593750   0.937500 0
  0.562500   0.875000 0
  0.593750   0.843750 0
  0.593750   0.875000 0
  0.750000   0.687500 0
  0.781250   0.687500 0
  0.750000   0.718750 0
  0.781250   0.718750 0
  0.750000   0.750000 0
  0.562500   0.812500 0
  0.593750   0.781250 0
  0.593750   0.812500 0
  0.750000   0.625000 0
  0.781250   0.625000 0
  0.750000   0.656250 0
  0.812500   0.625000 0
  0.781250   0.656250 0
  0.562500   0.906250 0
  0.562500   0.843750 0
  0.562500   0.750000 0
  0.593750   0.750000 0
  0.562500   0.781250 0
  0.656250   0.937500 0
  0.531250   0.531250 0
  0.531250   0.562500 0
  0.531250   0.593750 0
  0.531250   0.625000 0
  0.531250   0.656250 0
  0.531250   0.687500 0
  0.812500   0.593750 0
  0.843750   0.593750 0
  0.781250   0.750000 0
  0.781250   0.781250 0
  0.531250   0.812500 0
  0.531250   0.843750 0
  0.531250   0.750000 0
  0.531250   0.718750 0
  0.531250   0.906250 0
  0.875000   0.843750 0
  0.531250   0.875000 0
  0.718750   0.718750 0
  0.687500   0.687500 0
  0.718750   0.687500 0
  0.718750   0.625000 0
  0.562500   0.718750 0
  0.687500   0.593750 0
  0.718750   0.593750 0
  0.718750   0.562500 0
  0.750000   0.562500 0
  0.656250   0.968750 0
  0.656250   0.687500 0
  1.000000   0.968750 0
  0.625000   0.718750 0
  0.656250   0.718750 0
  0.843750   0.625000 0
  0.812500   0.656250 0
  0.812500   0.718750 0
  0.687500   0.968750 0
  0.656250   1.000000 0
  0.687500   0.531250 0
  0.718750   0.531250 0
  0.906250   0.562500 0
  1.000000   0.531250 0
  0.750000   0.531250 0
  0.750000   0.593750 0
  0.781250   0.875000 0
  0.781250   0.562500 0
  0.781250   0.593750 0
  0.593750   0.281250 0
  0.593750   0.250000 0
  0.562500   0.250000 0
  0.562500   0.031250 0
  0.593750   0.375000 0
  0.718750   0.031250 0
  0.593750   0.343750 0
  0.687500   0.250000 0
  0.656250   0.437500 0
  0.781250   0.093750 0
  0.625000   0.406250 0
  0.750000   0.062500 0
  0.687500   0.500000 0
  0.812500   0.156250 0
  0.593750   0.031250 0
  0.562500   0.000000 0
  0.625000   0.125000 0
  0.625000   0.093750 0
  0.593750   0.093750 0
  0.593750   0.062500 0
  0.687500   0.437500 0
  0.781250   0.343750 0
  0.906250   0.000000 0
  0.781250   0.312500 0
  0.656250   0.406250 0
  0.750000   0.312500 0
  0.687500   0.468750 0
  0.812500   0.125000 0
  0.906250   0.031250 0
  0.656250   0.312500 0
  0.625000   0.281250 0
  0.687500   0.375000 0
  0.656250   0.343750 0
  0.625000   0.312500 0
  0.656250   0.375000 0
  0.625000   0.343750 0
  0.625000   0.375000 0
  0.750000   0.125000 0
  0.625000   0.468750 0
  0.687500   0.062500 0
  0.562500   0.406250 0
  0.656250   0.031250 0
  0.531250   0.375000 0
  0.625000   0.000000 0
  0.656250   0.062500 0
  0.531250   0.406250 0
  0.625000   0.031250 0
  0.625000   0.062500 0
  0.750000   0.406250 0
  0.843750   0.312500 0
  0.812500   0.343750 0
  0.937500   0.000000 0
  0.843750   0.343750 0
  0.968750   0.000000 0
  0.812500   0.312500 0
  0.968750   0.093750 0
  0.937500   0.062500 0
  0.750000   0.187500 0
  0.656250   0.281250 0
  0.843750   0.093750 0
  0.750000   0.156250 0
  0.625000   0.500000 0
  0.843750   0.062500 0
  0.625000   0.250000 0
  0.812500   0.062500 0
  0.968750   0.062500 0
  0.843750   0.375000 0
  0.968750   0.031250 0
  0.812500   0.375000 0
  0.937500   0.031250 0
  0.906250   0.062500 0
  0.781250   0.125000 0
  0.656250   0.468750 0
  0.875000   0.031250 0
  0.937500   0.218750 0
  0.937500   0.250000 0
  0.937500   0.312500 0
  0.937500   0.343750 0
  0.937500   0.375000 0
  0.937500   0.406250 0
  1.000000   0.000000 0
  0.875000   0.343750 0
  0.937500   0.437500 0
  0.562500   0.312500 0
  0.656250   0.218750 0
  1.000000   0.031250 0
  0.875000   0.375000 0
  0.625000   0.437500 0
  0.750000   0.093750 0
  0.968750   0.250000 0
  0.968750   0.343750 0
  0.968750   0.375000 0
  0.968750   0.406250 0
  0.968750   0.468750 0
  0.968750   0.437500 0
  0.937500   0.156250 0
  1.000000   0.406250 0
  1.000000   0.375000 0
  0.875000   0.406250 0
  1.000000   0.062500 0
  0.593750   0.000000 0
  1.000000   0.500000 0
  0.531250   0.000000 0
  1.000000   0.468750 0
  1.000000   0.437500 0
  0.750000   0.375000 0
  0.843750   0.281250 0
  0.156250   0.531250 0
  1.000000   0.312500 0
  0.031250   0.875000 0
  0.000000   0.750000 0
  0.031250   0.750000 0
  0.031250   0.781250 0
  0.031250   0.812500 0
  0.031250   0.843750 0
  0.156250   0.500000 0
  1.000000   0.281250 0
  0.125000   0.968750 0
  0.250000   0.625000 0
  0.187500   1.000000 0
  1.000000   0.718750 0
  0.312500   0.000000 0
  0.312500   0.656250 0
  0.156250   1.000000 0
  0.968750   0.718750 0
  0.281250   0.000000 0
  0.281250   0.656250 0
  0.125000   0.843750 0
  0.156250   0.843750 0
  0.000000   0.718750 0
  0.843750   0.500000 0
  0.281250   0.687500 0
  0.437500   0.781250 0
  0.312500   1.000000 0
  0.281250   1.000000 0
  0.375000   0.781250 0
  0.312500   0.500000 0
  0.437500   0.156250 0
  0.343750   0.500000 0
  0.468750   0.156250 0
  0.250000   0.156250 0
  0.343750   0.125000 0
  0.218750   0.468750 0
  0.375000   0.375000 0
  0.437500   0.312500 0
  0.406250   0.312500 0
  0.062500   0.375000 0
  0.093750   0.281250 0
  0.093750   0.343750 0
  0.937500   0.125000 0
  0.906250   0.718750 0
  0.218750   0.000000 0
  0.250000   0.968750 0
  0.531250   0.062500 0
  0.156250   0.062500 0
  0.312500   0.187500 0
  1.000000   0.875000 0
  0.312500   0.156250 0
  0.281250   0.187500 0
  0.906250   0.781250 0
  0.218750   0.062500 0
  0.718750   0.781250 0
  0.031250   0.062500 0
  0.375000   0.000000 0
  0.718750   0.750000 0
  0.031250   0.031250 0
  0.687500   0.781250 0
  0.000000   0.062500 0
  0.250000   0.500000 0
  0.375000   0.156250 0
  0.281250   0.468750 0
  0.406250   0.125000 0
  0.406250   0.343750 0
  0.062500   0.406250 0
  0.312500   0.437500 0
  0.437500   0.093750 0
  0.781250   0.031250 0
  0.250000   0.468750 0
  0.375000   0.125000 0
  0.281250   0.437500 0
  0.406250   0.093750 0
  0.406250   0.437500 0
  0.406250   0.406250 0
  0.375000   0.437500 0
  0.031250   1.000000 0
  0.187500   0.437500 0
  1.000000   0.812500 0
  0.312500   0.093750 0
  0.218750   0.437500 0
  0.343750   0.093750 0
  0.250000   0.437500 0
  0.375000   0.093750 0
  0.218750   0.406250 0
  0.343750   0.062500 0
  0.250000   0.406250 0
  0.375000   0.062500 0
  0.281250   0.218750 0
  0.187500   0.312500 0
  0.250000   0.218750 0
  0.156250   0.312500 0
  1.000000   0.093750 0
  0.125000   0.312500 0
  0.406250   0.000000 0
  0.750000   0.781250 0
  0.062500   0.062500 0
  0.375000   0.500000 0
  0.500000   0.156250 0
  0.312500   0.968750 0
  0.125000   0.468750 0
  0.500000   0.375000 0
  0.437500   0.406250 0
  0.375000   0.468750 0
  0.468750   0.375000 0
  0.125000   0.437500 0
  0.343750   0.468750 0
  0.468750   0.125000 0
  0.437500   0.375000 0
  0.093750   0.437500 0
  0.125000   0.093750 0
  0.500000   0.937500 0
  0.718750   0.906250 0
  0.031250   0.187500 0
  0.687500   0.906250 0
  0.000000   0.187500 0
  0.937500   0.781250 0
  0.250000   0.062500 0
[...]
POINT_DATA 1072
SCALARS scalar_value float 1
LOOKUP_TABLE default
0
-0.00378318
-0.000559351
0
0.00364304
-0.000445231
-0.00538548
0.000311711
0
0.000514908
0.00220123
0.0017362
-0.00127729
0.00191415
0.000617284
0.00231921
0.00119158
0.000683625
0.00685815
0.00177975
0.0478692
0.00135024
0.00047674
-0.0010872
-0.00466771
-0.00128406
0.00281286
0.00061228
-0.000116273
0.00174542
0.00676986
-0.00181416
0.00544404
0.0013514
0
0.00398968
-0.00195145
0.00313875
-0.00269517
0.000390749
-0.00111852
0
-0.00225932
0.00291865
0.0109593
-0.00248979
0.00255325
0.00277922
-0.000817959
-0.004677
-0.00362783
0.00466208
0.00172888
0.000305475
0.0022999
4.72568e-06
-0.000245161
-2.8339e-05
3.02846e-05
0.00197313
-0.00122615
0
-0.00266983
-0.000104591
4.24763e-05
0.000108856
-0.00145547
-0.00549858
0.000758557
-0.00132373
-0.000154761
0.00184558
0.000606675
-0.00502911
-0.00046877
0.000169241
0.000589908
0.000516076
-0.000538383
0.000160303
-0.000149576
0.000106317
-8.7608e-06
0.0056496
0.00313654
-0.00302995
0
-0.00224901
-0.00208996
0.00331677
-0.0148401
0.000202724
0.00059382
-5.53823e-05
0.000650114
0.00110796
0.00106319
0.000373284
0.000253297
-0.00256651
0.00163638
0.000616417
-6.61912e-05
0
0.000884591
-0.00117019
0.002495
-0.0018539
0.00190132
-0.00195022
0.00773387
0.00069763
-0.00275811
0.00164393
0
-0.0036306
0.000431336
-0.00167678
0.00073447
0.00111755
-0.00160976
0.00154995
0.00267132
0.00105942
-0.00176811
-0.000419955
0.0013982
0.0005783
7.2041e-05
0.00160253
0.00495979
0.00270344
-0.0036532
0.00295112
-0.00209784
-0.00246316
-0.00176266
0.00122835
0.000645677
5.17737e-05
-6.53479e-05
0.000849475
0.00137754
0.00123039
-0.000505451
0.00128721
-0.000237876
-0.00404363
-0.00116336
-8.49085e-05
-0.000169058
-0.00163575
-0.000914304
-0.000137877
-0.000154878
-0.0023328
-0.000451412
-0.00119855
-0.00192214
0.0042011
0.0032922
0.00415684
0.000226567
-0.00338883
-0.00253503
0.000761777
0.00625046
-0.000502238
0.00281757
-0.000182585
-0.00286179
-0.00102611
-0.000239069
-0.00127639
-0.000704045
-0.000603368
0
-0.00378726
-0.00075058
-0.00269716
-0.00646981
-0.00476894
-0.00602431
0.00302515
0.00407405
-0.0031851
0.0160483
0.297932
0.0646622
0.548139
0.00766869
0.275069
-0.00941975
0.0525782
0.00988114
0.00286397
-0.00589975
0.0144608
0.00503964
-0.00977669
1.09622
0.774931
0.354761
0.614674
0.70124
0.908512
0.00495639
-0.0194857
0.00193437
0.0339727
-0.000270166
0.0132463
-0.00278373
0.000316747
0.00176605
0.0295975
0.029499
0.00847654
0.0121176
0.0141851
0.0109527
0.00245157
0.012693
0.00957888
0.00116408
0.64525
0.00501366
1.92767
0.000440832
1.5718
1.91444
-0.000224217
1.08564
0.648412
-0.00979809
0.0170575
-0.0321568
-0.000173214
-0.0205084
-0.000575312
0.0331744
-0.000631778
0.000182948
0.0322367
0.0152537
0.0088812
0.0110389
-0.00245182
0.0136734
0.132809
0.0067143
-0.00062145
0.0301616
-0.000617637
0.0226227
-6.99929e-06
0.00219163
0.00991966
-0.0030754
0.00353967
-0.000374342
0.000460246
0.00144791
0.0013736
0.00394247
-0.000709902
0.000252851
-0.0127157
0.0113674
0.0186694
0.0329633
0.00019051
0.012213
0.00297492
-0.0147663
-7.48069e-05
-0.00031013
-0.000497753
-0.00163928
-0.00510039
0.000858827
0.000217074
-0.000464962
-0.000521395
-0.0270567
0.000110625
1.31542
0.00595999
0.406157
-0.00231781
0.000762261
0.00925768
-0.00315411
0.00439949
-0.000143298
-2.29376e-05
0.000182712
0.000117379
-3.11281e-05
-2.40078e-06
-2.83265e-05
-0.0102582
-0.00119551
-8.10351e-05
0.00390834
0
0.000282258
0.3292
0.000352663
0
7.77029e-05
0.196101
-0.00135064
-6.05649e-05
-9.44207e-05
-0.00034063
0.0012919
0.000730065
-8.46832e-06
0
0
0.000183136
0.00288477
0.0965917
-6.15252e-05
0.0738882
0.0187216
0.161897
0.000404968
0.00632968
0.0229486
0.0692234
-5.02505e-05
-6.07771e-05
-6.75592e-05
0.000399128
-0.00189859
0.109989
-9.12415e-05
0.174935
0.0019332
0.00327097
-0.000179788
0.0210003
0.00251342
-0.00114735
0.0570265
-0.00031523
-0.000150782
0.889361
0.000902612
-4.50565e-05
-0.00269707
-0.000141391
0.00266368
0.23179
0.00101163
0.28304
0.0448944
0.000271092
0.0022357
0.337259
0.00987952
-0.0171016
0.312877
0.00667627
0.355484
0.0306983
0.0328522
0.00419294
0
0.00233578
9.46532e-05
0.0869483
0.0138575
0.2466
0.00892252
0.417307
-0.00271723
0.341481
-0.0196721
0.532927
0.0038892
0.00714228
0.00632015
-0.00213925
-4.49259e-06
0.000511024
0.880376
-0.000855499
0.00170045
0.000675654
-0.0127501
-0.000165829
0.000646082
0.00220759
0.00116957
0.000858721
0.0038076
0.00172266
-0.00270919
0.455124
0.000903774
5.11426e-05
-0.0013772
-0.000512741
-0.00043043
2.15035e-05
-0.00043826
-4.48392e-05
1.03225e-05
0.0688878
0.000551107
-0.000431039
-3.83397e-05
8.81471e-05
0.188821
9.51896e-05
-0.0025362
0.0394249
6.77576e-05
-0.000780154
-0.000231263
0.000155607
0.0005778
0.0105757
0.687434
-0.023583
-0.000165417
0.0862961
0.0335639
0.000215303
0.0275451
0.0285864
-0.000384054
-0.000153835
-0.00023922
0.021827
-0.000284938
0.000132903
-0.000437052
0.60969
0.00168541
0.0122402
-0.000202669
0.018374
0.000252839
-0.000274463
-0.000508862
0.00924596
-0.0166101
-0.00110199
-6.99464e-05
0.0110416
0.00249791
0
-0.0176474
0.00819583
0.000361403
0.00067957
0.00734603
0.00170889
0.0160209
0.023273
-4.67351e-05
5.55997e-05
0.0429705
0.635725
0.00087926
0.00157445
-0.000154231
0.0169345
0.0373207
-0.0073913
6.40728e-05
0.00504838
0.0497006
-0.0010762
-0.00167751
0.263161
0.293857
-0.003079
0.0113491
-0.000214332
0.00462394
-0.000623793
-0.00137237
0
-0.00841348
0.190664
0.958378
-0.000539438
4.27345e-05
0.000767911
0.0433547
0.0144531
-0.0210529
0.0308576
7.87256e-05
-0.000196351
6.19456e-05
2.22697e-05
-0.00329247
0.00207345
0.0101611
-0.000450287
0.0676283
0.00269846
0.00805129
-0.00161744
8.13079e-05
0.000735132
-0.000307874
0.000235555
0.00077142
0.000235112
-0.00211924
0.0137726
0.134119
0.0215257
-0.000389228
0.0441185
-0.000161832
0.000644542
1.19092
2.68324e-05
-0.0002062
0.00154132
-0.000201488
-2.60972e-05
-0.001503
-0.000533175
0.00117834
0.0194734
-0.000506021
0.000340732
9.00869e-06
5.90886e-05
-0.000896329
4.7585e-05
0.0192603
-2.04419e-05
-5.55821e-05
0.000101061
8.20216e-05
-0.00374147
-0.000268617
-0.00732961
-0.000120007
0.00922716
0.0209824
0.00146213
-0.0193816
0.000272727
0.000389609
-0.00115501
0.000117378
-0.000219869
0.268978
0.851723
-0.00197077
0.00035134
0
0.00739655
-0.000582282
7.41385e-05
0.0407104
-0.000355994
-0.00114761
0.0309313
0.0661701
0.000751024
-0.000508785
-0.000183088
-0.000139553
0.0103874
-0.000113397
0.000897274
4.44599e-05
0.389464
-0.00055586
-5.92e-05
0.000331212
0.00394745
-0.000234176
0
-0.000255871
-0.000258977
0.00135012
0.00162809
1.44674e-05
-0.0186584
-0.000127426
-0.000156869
0.000538255
-4.85264e-05
-0.00160269
0.0392574
-0.0037605
-0.000502133
0.000747006
0.00113762
0.000182054
0.00941737
1.53464
6.26942e-05
0.00221975
0.00843822
0.000401007
-0.00443516
0.000309774
-0.000106607
0
0
-0.000686866
0
0.00685429
0.0499014
-5.97176e-05
0.000338047
0.00308633
-0.011485
-0.00106434
0.000339304
0.503086
0.00202736
0.0279204
3.0197e-05
0.0418338
0.00910944
0.101504
1.13096e-05
-0.000294507
-0.000112124
0.000562546
0
0.000306886
0.00761214
0.622184
0
-7.25108e-05
-1.26032e-05
0.00699175
0.0583698
6.76191e-05
0.00356307
-0.0031373
-0.00129037
0.000177926
3.53985e-05
0
0
0.00794449
0.000991439
0.00670596
-0.000175378
-7.77862e-05
0.00328449
-0.000592934
0.00180699
0.110174
-0.000141513
0.00167347
-0.00215376
0.0413604
0.00049422
-0.000273373
0.675847
-0.00120289
0.00704585
-3.9651e-05
0.0834136
0.110888
0.000541253
0.231347
-0.000109484
-0.00201999
7.12777e-06
-0.000606383
-9.58865e-05
0.0173889
-0.000523575
-0.00243316
-0.000413921
-0.000402871
0.00134508
-0.00182615
0.0766186
0.000207401
0.00328386
-0.000780489
0.000978241
0.0792827
0.00152773
-0.000465531
-0.00135005
0.156515
0
0.00153981
0.000317189
0.0014109
0.000111509
-0.0123369
0.455001
0.0905826
-5.37906e-05
0.00324197
0.000118712
-0.000397938
0.00520216
0.00442691
-0.00192547
-8.81347e-05
0.00982547
0.468402
-0.000105531
0.0225741
0.00167627
-0.000575948
0.00042704
0.104049
-0.000535908
-1.86695e-05
0.000169667
-0.00663229
-0.000231964
0.140502
-0.000764888
6.67852e-06
0.000106609
-0.00272578
6.6484e-05
0.222395
0.358852
-0.000161746
-0.0063171
0.000422812
0.0169293
0.00123124
1.63937e-05
-0.000316135
0.00121742
-0.000357709
-0.000341782
0.121608
-9.0536e-06
0.00029187
0.000694964
-0.000163567
0.000214652
0.0717206
0.0203452
0.00815441
-0.00720311
0.000127905
0.126237
1.83739e-05
0.00186209
0.182596
0.00354968
0.0743235
0.000193614
-0.00162391
-0.000205787
0.000654007
0.000581372
0.00121821
4.48756e-05
0.000116278
-4.70646e-05
5.6717e-06
0.00813316
-1.18515e-05
0.00159617
-0.0268291
0.000485586
-0.00325428
0.000558581
-0.000326108
4.8284e-05
0.00197151
-1.11189e-05
0
0.000151226
0.000239777
-0.000211618
0.00295563
-6.07795e-05
0.000497006
-0.00279543
-5.34498e-05
0.000288512
-0.000560879
0.000127952
0.000203493
0.00118761
0.00087664
-0.000935014
-4.03755e-06
-0.000521837
-0.000459086
0.00374539
-0.00010281
0.000246422
-0.0006203
0.0019739
0.0163616
-0.00636478
-1.96722e-05
0.00680315
0.000268293
-4.78482e-05
0.00123489
-7.07775e-05
-0.00390583
0
-1.76031e-05
4.89691e-06
-0.00378715
4.11697e-05
-0.000485872
-0.00222833
5.15798e-05
0.000732117
-0.000824365
-0.000694085
-2.63346e-05
-0.00107051
0.000499902
-0.000303109
-9.37206e-05
0.0110202
-7.18491e-05
0
0.0109208
-0.00185829
0.00158102
6.52476e-05
-0.000140313
-1.98973e-05
-0.000211915
-0.000254354
0.572863
-6.43541e-05
1.54475e-05
0.000506636
-3.87052e-05
-9.85242e-07
-0.000165437
0.000969845
-0.00152929
0.000131502
8.91936e-05
0.000702423
0.0911871
0.00044227
-5.16302e-05
-0.000542857
0.000471531
-0.000277596
-0.00183765
0.000882814
0.000422416
-2.2287e-05
-1.00158e-05
0.0014825
-0.00175606
-0.000470333
-0.000503406
-0.000269299
0.000100805
-0.000217244
0.000449494
0.000594858
-0.000671289
0.0447908
0.000115823
0.0112441
-8.74752e-05
0.00113164
0.000656598
5.48406e-05
-0.00897411
3.75723e-05
0.000378203
0.000418831
4.5322e-05
-4.19133e-05
-0.00202954
0
-0.000343493
-0.00715802
-0.00052201
0.227961
-9.11844e-06
0.000155664
0.00106981
-0.000420566
-0.000199865
0
0.00118689
3.87318e-05
0.000772854
-0.000481632
1.18805e-05
-0.000248259
-0.00021904
-0.0139704
-0.000137539
-2.33122e-05
0.000868551
-0.000558081
-0.00145338
0.00113756
-0.000428946
5.04275e-05
-1.51071e-05
0.000224487
-3.24722e-05
0.00272751
-0.00248063
0.000255634
0.000132761
-0.000230062
2.26823e-06
5.28254e-05
-3.58513e-05
3.97789e-05
-3.4051e-05
6.94599e-05
0.0442523
0.0249646
-9.64621e-06
-0.000271718
-6.83218e-05
0.00485907
2.17733e-05
0.00552052
-0.00123176
7.21487e-05
-0.000446633
-0.000529501
0.000440294
5.97181e-05
0.00127865
-0.00117624
0.000625962
0.000176996
0.000901567
-0.000604593
0.000170726
0.000378153
-0.000191701
0.00193349
1.04475e-05
-0.000505549
0.00137922
-2.93901e-05
-0.00289561
-0.000795354
-9.66261e-05
0.000900892
0.000314075
-0.00457264
-0.000410097
0.000795195
-0.00144225
6.6267e-05
-6.80276e-05
5.86336e-05
-0.000676023
-0.000549226
-0.00071512
0.355314
-0.0140332
0.00228096
-6.84474e-05
1.69096e-05
-0.000303774
-0.00164063
0.00049804
-0.0133566
0.0114824
0.0302448
0.0044625
-0.0153685
0.0384507
0.00819312
-0.00672218
-0.00605601
-0.00540163
0.00215222
0.00358032
-0.00258594
-0.0603369
-0.0188471
0.104112
0.0340251
0.310828
1.24446
0.00061175
0.000794282
0.0150603
0.0423649
0.0624466
0.186894
0.0238246
2.14873
0.00803841
-0.00555915
0.07516
-0.0140845
0.0113384
-0.00505727
0.127281
0.00149734
0.000224093
-0.0138074
0.00126368
-0.000311243
0.0360287
0.0015394
-0.00806854
0.0036023
-0.000437163
0.00979876
0.0272871
0.11019
-0.00262586
-0.0351819
0.547478
0.0181059
0.65918
-0.00239662
0.279465
0.0228316
0.242218
0.00114431
0.0230537
-0.0140427
-0.0293266
-0.0434996
0.0454955
0.0410443
0.719992
0.66025
0.169591
0.00800405
0.0109596
-0.00575532
-0.000664502
-2.35368e-05
0.00716208
-7.52013e-05
-0.000674777
-0.0067874
0.00776492
0.00828499
0.0295422
-0.000660259
0.000968713
-0.0244276
-0.00421405
0.00513739
0.00324496
0.0142821
0.458881
-0.00251411
0
-0.0216446
-0.00128294
0.000760079
