# vtk DataFile Version 2.0
Unstructured Grid by M++
ASCII
DATASET UNSTRUCTURED_GRID
POINTS 1072 float
  0.593750   1.000000 0
  0.718750   0.656250 0
  0.625000   0.968750 0
  0.625000   1.000000 0
  0.843750   0.562500 0
  0.875000   0.562500 0
  0.875000   0.531250 0
  0.562500   0.531250 0
  0.687500   1.000000 0
  0.875000   0.593750 0
  0.562500   0.593750 0
  0.625000   0.531250 0
  0.593750   0.562500 0
  0.593750   0.531250 0
  0.562500   0.562500 0
  0.593750   0.625000 0
  0.593750   0.593750 0
  0.562500   0.625000 0
  0.593750   0.687500 0
  0.562500   0.687500 0
  0.906250   0.500000 0
  0.656250   0.750000 0
  0.625000   0.937500 0
  0.593750   0.968750 0
  0.812500   0.531250 0
  0.625000   0.906250 0
  0.906250   0.625000 0
  0.656250   0.593750 0
  0.531250   0.937500 0
  0.593750   0.656250 0
  0.687500   0.562500 0
  0.625000   0.593750 0
  0.656250   0.562500 0
  0.625000   0.562500 0
  0.718750   1.000000 0
  0.687500   0.625000 0
  0.562500   0.968750 0
  0.656250   0.625000 0
  0.531250   0.968750 0
  0.625000   0.625000 0
  0.656250   0.656250 0
  0.531250   1.000000 0
  0.625000   0.656250 0
  0.625000   0.687500 0
  0.937500   0.562500 0
  0.937500   0.656250 0
  0.968750   0.625000 0
  0.937500   0.625000 0
  0.968750   0.593750 0
  0.937500   0.593750 0
  0.843750   0.531250 0
  0.812500   0.562500 0
  0.625000   0.875000 0
  0.812500   0.687500 0
  1.000000   0.625000 0
  0.750000   0.968750 0
  0.843750   0.843750 0
  1.000000   0.937500 0
  1.000000   0.906250 0
  0.937500   0.687500 0
  0.843750   0.781250 0
  0.750000   1.000000 0
  0.968750   0.562500 0
  0.968750   0.937500 0
  0.968750   0.906250 0
  0.968750   0.875000 0
  0.656250   0.781250 0
  1.000000   0.593750 0
  0.562500   0.937500 0
  0.656250   0.843750 0
  1.000000   0.656250 0
  0.656250   0.812500 0
  0.656250   0.875000 0
  0.781250   0.531250 0
  1.000000   0.687500 0
  0.906250   0.906250 0
  0.843750   0.687500 0
  0.843750   0.656250 0
  0.656250   0.906250 0
  0.937500   0.843750 0
  0.937500   0.906250 0
  0.937500   0.937500 0
  0.937500   0.875000 0
  0.625000   0.750000 0
  0.625000   0.812500 0
  0.625000   0.781250 0
  0.906250   1.000000 0
  0.625000   0.843750 0
  0.968750   0.656250 0
  0.968750   0.500000 0
  0.937500   0.531250 0
  0.875000   0.875000 0
  0.875000   0.812500 0
  0.718750   0.968750 0
  0.906250   0.812500 0
  0.843750   0.812500 0
  0.812500   0.812500 0
  0.718750   0.937500 0
  0.687500   0.937500 0
  0.906250   0.593750 0
  0.968750   0.531250 0
  0.875000   0.625000 0
  0.906250   0.875000 0
  0.781250   1.000000 0
  0.968750   0.687500 0
  0.875000   0.781250 0
  0.875000   0.687500 0
  0.812500   0.781250 0
  0.906250   0.687500 0
  0.875000   0.656250 0
  1.000000   0.562500 0
  0.812500   0.750000 0
  0.906250   0.656250 0
  0.843750   0.750000 0
  0.562500   1.000000 0
  0.687500   0.656250 0
  0.562500   0.656250 0
  0.593750   0.906250 0
  0.593750   0.937500 0
  0.562500   0.875000 0
  0.593750   0.843750 0
  0.593750   0.875000 0
  0.750000   0.687500 0
  0.781250   0.687500 0
  0.750000   0.718750 0
  0.781250   0.718750 0
  0.750000   0.750000 0
  0.562500   0.812500 0
  0.593750   0.781250 0
  0.593750   0.812500 0
  0.750000   0.625000 0
  0.781250   0.625000 0
  0.750000   0.656250 0
  0.812500   0.625000 0
  0.781250   0.656250 0
  0.562500   0.906250 0
  0.562500   0.843750 0
  0.562500   0.750000 0
  0.593750   0.750000 0
  0.562500   0.781250 0
  0.656250   0.937500 0
  0.531250   0.531250 0
  0.531250   0.562500 0
  0.531250   0.593750 0
  0.531250   0.625000 0
  0.531250   0.656250 0
  0.531250   0.687500 0
  0.812500   0.593750 0
  0.843750   0.593750 0
  0.781250   0.750000 0
  0.781250   0.781250 0
  0.531250   0.812500 0
  0.531250   0.843750 0
  0.531250   0.750000 0
  0.531250   0.718750 0
  0.531250   0.906250 0
  0.875000   0.843750 0
  0.531250   0.875000 0
  0.718750   0.718750 0
  0.687500   0.687500 0
  0.718750   0.687500 0
  0.718750   0.625000 0
  0.562500   0.718750 0
  0.687500   0.593750 0
  0.718750   0.593750 0
  0.718750   0.562500 0
  0.750000   0.562500 0
  0.656250   0.968750 0
  0.656250   0.687500 0
  1.000000   0.968750 0
  0.625000   0.718750 0
  0.656250   0.718750 0
  0.843750   0.625000 0
  0.812500   0.656250 0
  0.812500   0.718750 0
  0.687500   0.968750 0
  0.656250   1.000000 0
  0.687500   0.531250 0
  0.718750   0.531250 0
  0.906250   0.562500 0
  1.000000   0.531250 0
  0.750000   0.531250 0
  0.750000   0.593750 0
  0.781250   0.875000 0
  0.781250   0.562500 0
  0.781250   0.593750 0
  0.593750   0.281250 0
  0.593750   0.250000 0
  0.562500   0.250000 0
  0.562500   0.031250 0
  0.593750   0.375000 0
  0.718750   0.031250 0
  0.593750   0.343750 0
  0.687500   0.250000 0
  0.656250   0.437500 0
  0.781250   0.093750 0
  0.625000   0.406250 0
  0.750000   0.062500 0
  0.687500   0.500000 0
  0.812500   0.156250 0
  0.593750   0.031250 0
  0.562500   0.000000 0
  0.625000   0.125000 0
  0.625000   0.093750 0
  0.593750   0.093750 0
  0.593750   0.062500 0
  0.687500   0.437500 0
  0.781250   0.343750 0
  0.906250   0.000000 0
  0.781250   0.312500 0
  0.656250   0.406250 0
  0.750000   0.312500 0
  0.687500   0.468750 0
  0.812500   0.125000 0
  0.906250   0.031250 0
  0.656250   0.312500 0
  0.625000   0.281250 0
  0.687500   0.375000 0
  0.656250   0.343750 0
  0.625000   0.312500 0
  0.656250   0.375000 0
  0.625000   0.343750 0
  0.625000   0.375000 0
  0.750000   0.125000 0
  0.625000   0.468750 0
  0.687500   0.062500 0
  0.562500   0.406250 0
  0.656250   0.031250 0
  0.531250   0.375000 0
  0.625000   0.000000 0
  0.656250   0.062500 0
  0.531250   0.406250 0
  0.625000   0.031250 0
  0.625000   0.062500 0
  0.750000   0.406250 0
  0.843750   0.312500 0
  0.812500   0.343750 0
  0.937500   0.000000 0
  0.843750   0.343750 0
  0.968750   0.000000 0
  0.812500   0.312500 0
  0.968750   0.093750 0
  0.937500   0.062500 0
  0.750000   0.187500 0
  0.656250   0.281250 0
  0.843750   0.093750 0
  0.750000   0.156250 0
  0.625000   0.500000 0
  0.843750   0.062500 0
  0.625000   0.250000 0
  0.812500   0.062500 0
  0.968750   0.062500 0
  0.843750   0.375000 0
  0.968750   0.031250 0
  0.812500   0.375000 0
  0.937500   0.031250 0
  0.906250   0.062500 0
  0.781250   0.125000 0
  0.656250   0.468750 0
  0.875000   0.031250 0
  0.937500   0.218750 0
  0.937500   0.250000 0
  0.937500   0.312500 0
  0.937500   0.343750 0
  0.937500   0.375000 0
  0.937500   0.406250 0
  1.000000   0.000000 0
  0.875000   0.343750 0
  0.937500   0.437500 0
  0.562500   0.312500 0
  0.656250   0.218750 0
  1.000000   0.031250 0
  0.875000   0.375000 0
  0.625000   0.437500 0
  0.750000   0.093750 0
  0.968750   0.250000 0
  0.968750   0.343750 0
  0.968750   0.375000 0
  0.968750   0.406250 0
  0.968750   0.468750 0
  0.968750   0.437500 0
  0.937500   0.156250 0
  1.000000   0.406250 0
  1.000000   0.375000 0
  0.875000   0.406250 0
  1.000000   0.062500 0
  0.593750   0.000000 0
  1.000000   0.500000 0
  0.531250   0.000000 0
  1.000000   0.468750 0
  1.000000   0.437500 0
  0.750000   0.375000 0
  0.843750   0.281250 0
  0.156250   0.531250 0
  1.000000   0.312500 0
  0.031250   0.875000 0
  0.000000   0.750000 0
  0.031250   0.750000 0
  0.031250   0.781250 0
  0.031250   0.812500 0
  0.031250   0.843750 0
  0.156250   0.500000 0
  1.000000   0.281250 0
  0.125000   0.968750 0
  0.250000   0.625000 0
  0.187500   1.000000 0
  1.000000   0.718750 0
  0.312500   0.000000 0
  0.312500   0.656250 0
  0.156250   1.000000 0
  0.968750   0.718750 0
  0.281250   0.000000 0
  0.281250   0.656250 0
  0.125000   0.843750 0
  0.156250   0.843750 0
  0.000000   0.718750 0
  0.843750   0.500000 0
  0.281250   0.687500 0
  0.437500   0.781250 0
  0.312500   1.000000 0
  0.281250   1.000000 0
  0.375000   0.781250 0
  0.312500   0.500000 0
  0.437500   0.156250 0
  0.343750   0.500000 0
  0.468750   0.156250 0
  0.250000   0.156250 0
  0.343750   0.125000 0
  0.218750   0.468750 0
  0.375000   0.375000 0
  0.437500   0.312500 0
  0.406250   0.312500 0
  0.062500   0.375000 0
  0.093750   0.281250 0
  0.093750   0.343750 0
  0.937500   0.125000 0
  0.906250   0.718750 0
  0.218750   0.000000 0
  0.250000   0.968750 0
  0.531250   0.062500 0
  0.156250   0.062500 0
  0.312500   0.187500 0
  1.000000   0.875000 0
  0.312500   0.156250 0
  0.281250   0.187500 0
  0.906250   0.781250 0
  0.218750   0.062500 0
  0.718750   0.781250 0
  0.031250   0.062500 0
  0.375000   0.000000 0
  0.718750   0.750000 0
  0.031250   0.031250 0
  0.687500   0.781250 0
  0.000000   0.062500 0
  0.250000   0.500000 0
  0.375000   0.156250 0
  0.281250   0.468750 0
  0.406250   0.125000 0
  0.406250   0.343750 0
  0.062500   0.406250 0
  0.312500   0.437500 0
  0.437500   0.093750 0
  0.781250   0.031250 0
  0.250000   0.468750 0
  0.375000   0.125000 0
  0.281250   0.437500 0
  0.406250   0.093750 0
  0.406250   0.437500 0
  0.406250   0.406250 0
  0.375000   0.437500 0
  0.031250   1.000000 0
  0.187500   0.437500 0
  1.000000   0.812500 0
  0.312500   0.093750 0
  0.218750   0.437500 0
  0.343750   0.093750 0
  0.250000   0.437500 0
  0.375000   0.093750 0
  0.218750   0.406250 0
  0.343750   0.062500 0
  0.250000   0.406250 0
  0.375000   0.062500 0
  0.281250   0.218750 0
  0.187500   0.312500 0
  0.250000   0.218750 0
  0.156250   0.312500 0
  1.000000   0.093750 0
  0.125000   0.312500 0
  0.406250   0.000000 0
  0.750000   0.781250 0
  0.062500   0.062500 0
  0.375000   0.500000 0
  0.500000   0.156250 0
  0.312500   0.968750 0
  0.125000   0.468750 0
  0.500000   0.375000 0
  0.437500   0.406250 0
  0.375000   0.468750 0
  0.468750   0.375000 0
  0.125000   0.437500 0
  0.343750   0.468750 0
  0.468750   0.125000 0
  0.437500   0.375000 0
  0.093750   0.437500 0
  0.125000   0.093750 0
  0.500000   0.937500 0
  0.718750   0.906250 0
  0.031250   0.187500 0
  0.687500   0.906250 0
  0.000000   0.187500 0
  0.937500   0.781250 0
  0.250000   0.062500 0
[...]
POINT_DATA 1072
SCALARS scalar_value float 1
LOOKUP_TABLE default
0
-0.00520826
0.000241749
0
0.00201921
0.000624163
-0.00366544
-0.000532459
0
0.000162588
0.00282668
0.0039366
-0.00445799
0.00490079
0.000909068
0.000589371
0.00174285
-2.09284e-05
0.0112921
0.00183918
0.0263875
0.000616727
0.000308409
0.00024216
-0.00378982
-4.72762e-05
0.000616182
0.000454007
0.00135879
0.000251616
0.014033
-0.00425274
0.00645196
0.00211543
0
0.011348
-0.000509659
0.00678388
-0.0023861
0.000486053
-0.0047365
0
-0.00766613
0.00612134
0.0040669
-0.000321567
0.00129931
-0.00018477
0.000120604
-0.000141808
-0.00130192
0.00249452
0.00153571
0.00124703
0.00101238
-0.000138094
4.45243e-05
7.4087e-06
4.46704e-05
0.000876799
0.00029673
0
-0.00255578
-9.45976e-06
-2.44467e-05
0.000103783
-0.00047534
-0.00275988
0.00175735
0.000160391
0.000250762
0.00104378
9.77034e-05
-0.0107705
-0.000443883
3.29823e-05
-0.000624109
0.000999253
0.000467365
-4.37356e-05
-0.000179077
9.12411e-05
-1.10127e-05
0.0109724
0.00440831
-0.00580277
0
-0.0018047
-0.00123567
0.00159704
-0.00866629
0.000143176
0.000310536
2.04592e-06
-0.000250994
-0.000255747
0.000698634
-9.30891e-05
0.000124551
-0.00101504
0.00262833
-8.30293e-06
-0.000268476
0
0.000377758
-0.000518873
0.000440736
-4.72535e-05
-0.000262358
-0.00105513
0.00367617
0.000687482
5.96081e-05
-0.000203519
0
-0.00958389
-0.000387821
-0.000358673
0.000746635
0.00360236
-0.00171146
0.00239171
0.00101845
0.000198267
-0.00122456
1.41411e-05
0.00155686
0.00264521
-0.000610608
0.00327653
0.00595638
-0.000294754
-0.00250435
0.00296243
0.000220917
-0.0018146
-0.00180153
0.000939815
-0.00208763
0.000345328
-3.67733e-06
0.000613284
0.00118397
0.00237053
-0.00219097
0.0038298
-0.000408356
-0.00201893
-0.00103051
-0.000737867
0.000738149
-0.000566782
0.00107346
0.00153112
0.00125564
-0.00190363
-0.000431055
0.000495739
0.000551708
0.00778048
0.00214445
0.00824397
-0.00201623
-0.0116679
-0.00839263
0.00522798
0.0145661
0.000164924
0.00580683
-4.4053e-05
-0.0100109
-0.0019109
-0.000439139
-0.00123417
0.00015398
-6.69362e-05
0
-0.00989346
-0.00567692
-0.00215546
-0.00201909
-0.0142948
-0.011089
-0.000994428
0.00516362
-0.000650508
0.143657
1.02229
0.391444
1.50638
0.0289626
0.743477
0.0071626
0.182292
0.0407895
0.050221
0.00618903
0.203615
0.00444067
0.0130164
2.20996
1.8069
1.11184
1.42527
1.87707
2.05696
0.00886245
-0.0140973
0.00138564
0.0367026
0.0352309
0.00251756
-0.00851333
0.00778039
0.00252196
0.185002
0.162919
0.0421344
0.074253
0.109741
0.0742656
0.0535379
0.0488528
0.0473645
0.00557673
1.37935
0.0171958
2.12175
0.00702388
2.40626
2.3034
-0.00138119
2.18948
1.73231
-0.0165479
0.00752689
-0.0353097
-0.00139501
-0.022421
-0.000175411
0.0344635
-0.000218343
-0.00177859
0.0454112
0.147657
0.0252336
0.0575014
-0.00628257
0.029128
0.58276
0.0582052
-0.000349751
0.0268502
-0.000268481
0.0193663
-0.00136975
0.00438399
0.0239857
0.0166049
-0.00454825
-0.00127099
-0.000750358
-0.00121876
0.000860057
-0.00225019
0.00198772
0.000667833
-0.000556853
0.00446555
0.0677003
0.369868
0.000719259
0.014582
0.0102096
0.119305
-0.000505985
-0.000187086
-0.0017569
0.000388663
-0.00318031
-0.00176868
-0.00178169
0.00179059
0.00017466
-0.0187389
0.000781296
2.42413
0.000180447
1.42578
0.00303127
-0.00196504
0.00639936
0.0029746
0.00847425
0.00144567
4.48588e-07
0.000325746
0.000167998
-9.25313e-06
4.70997e-05
-8.88739e-07
-0.0178054
-0.000154142
-9.37543e-05
0.00773386
0
0.000214881
1.07849
0.000751605
0
0.000186756
0.775953
-0.0029355
3.79856e-05
-9.58027e-05
-0.000548198
5.08109e-05
0.0013965
-0.000259645
0
0
-0.000386951
0.00960336
0.429686
0.00300612
0.360139
0.11028
0.575969
-0.00231726
0.0249935
0.116795
0.292831
-0.000742773
0.00120839
0.000802141
-0.00122104
-4.01637e-06
0.22845
-0.000141255
0.758963
0.00480961
0.0913379
2.4037e-05
0.176718
0.0722805
-0.000204634
0.15814
0.00151931
-0.000577952
2.02132
-0.00160344
-0.000467517
-0.00224278
1.79938e-05
0.00851308
0.803038
-0.00294547
0.959649
0.212451
0.00116659
0.00351884
1.12395
0.154478
-0.0315425
1.0226
0.0136039
1.14336
0.160693
0.144939
0.0254546
0
0.00637743
0.000264299
0.443691
0.0269994
0.811011
0.0248462
1.26137
-0.00754244
1.03237
-0.0355904
1.48202
0.0524559
0.00859612
0.0374613
-0.00404039
0.000814455
-0.000703282
2.06539
-0.00143342
0.0016348
0.00709744
0.106465
-0.000231583
0.00155232
0.0023999
0.00966755
0.0104694
0.0242457
0.00164738
-0.00906157
1.49512
0.034529
-0.000330564
-0.00243773
-3.35107e-05
6.98347e-05
-0.000255249
-7.92167e-05
-0.000243081
-4.13354e-05
0.302375
0.000860511
-0.000156536
2.15103e-05
0.00454527
0.713599
-7.99273e-05
0.00656531
0.123045
0.00027568
-0.000268377
-0.00434422
3.79038e-05
0.00427253
0.0302119
1.75172
-0.0384471
0.000320673
0.314538
0.113133
0.000364217
0.152202
0.0913981
-0.00080242
-0.000127023
-0.00441167
0.0781777
2.89189e-05
0.000819636
0.002141
1.3429
0.0034896
0.0418916
-0.000121708
0.193702
8.36653e-05
-0.00255947
0.00217695
0.0114457
-0.0302726
-0.0013486
0.000135904
0.0300791
0.0101258
0
-0.0139575
0.0607526
-0.00161789
0.000883327
0.0342826
0.0211614
0.0577913
0.0990166
-0.000433712
-5.49407e-05
0.278605
1.73544
0.000907164
0.00232579
-0.000110306
0.0640975
0.404071
-0.0135289
-5.01575e-05
0.111287
0.221001
-0.00107221
-0.0018021
1.06351
0.964913
-0.00571493
0.131572
-7.93702e-05
0.00676385
-0.000595077
-0.00110321
0
0.0045585
0.646446
2.00331
-0.000864467
0.000125508
0.00177138
0.212257
0.0391241
-0.0400896
0.1393
0.000553864
-0.00111436
-0.00217208
0.000995409
0.00630112
0.0101442
0.0535161
5.5139e-05
0.308262
0.0077487
0.0181665
-0.00276731
0.000142879
0.00133368
-0.000535938
-0.000106125
-0.00123213
-0.000316385
0.00249336
0.0833468
0.540831
0.0638979
-0.000164386
0.225312
-0.000506581
-0.000353753
2.34777
-0.0006767
-0.00068786
0.00373239
0.000277492
-0.000541996
-0.00109652
0.000302641
0.00732257
0.128531
-0.00337291
0.000636779
1.35445e-05
0.00406997
-0.000103009
0.000183327
0.0124785
-5.12807e-06
-0.00142869
-0.000419692
0.00320348
-0.00578903
5.8267e-05
0.0310058
-0.000187638
0.0535642
0.0266727
0.0589616
-0.0310747
0.000301242
0.000200663
-0.00526957
5.7221e-05
0.0273504
0.887261
1.99497
-6.15333e-05
-0.000758612
0
0.011995
0.000148303
-5.41853e-06
0.307297
-0.000172235
-0.00427387
0.314971
0.291847
0.000325866
-0.00478096
-0.00113768
-0.000140727
0.0235485
-0.000361242
0.00226207
8.96034e-05
1.20804
-0.000591672
-0.000416513
-0.000112089
0.00483238
1.82513e-05
0
-0.000765309
-4.17946e-05
0.0114312
0.0010496
0.000112695
-0.0202721
-0.000359054
-0.00130072
0.000853934
0.000642308
0.00200196
0.168491
-0.00632843
0.0307027
8.668e-05
0.00241733
-5.00109e-05
0.0473728
2.60468
0.000421424
-0.000756172
0.0172087
0.00417194
-0.00923121
0.000172645
3.56697e-05
0
0
0.000165052
0
0.0152359
0.217772
0.000216682
0.00355016
0.00785058
-0.0160748
0.000138422
-0.00260818
1.42451
0.00019452
0.0416151
0.000217533
0.194285
0.0209116
0.388498
1.09653e-05
-0.00114835
-0.000100994
0.0018434
0
0.000649144
0.0100352
1.54138
0
-0.000828686
0.00257612
0.0215616
0.272172
0.000332034
0.0768086
-0.0056137
0.00341683
-1.98917e-05
-4.54713e-05
0
0
0.0152247
0.016074
0.0332251
0.000166372
-5.39372e-05
0.0035906
-0.0002832
0.00279503
0.735713
0.000785728
0.00521995
-0.00076333
0.0498842
-0.00108296
-0.00226606
1.6716
0.000482408
0.00446534
-5.04439e-05
0.358748
0.460249
-0.00735331
0.823255
-0.00110456
0.000316797
0.000251895
0.00443589
-0.000764816
0.0332651
-0.000903825
-0.00490922
0.00130038
3.51468e-05
0.00309145
-0.00359076
0.362539
0.00110617
-0.00824135
-0.00145037
5.88289e-05
0.193244
0.00193708
-0.000130616
-0.000732644
0.498572
0
0.000998694
0.00041625
0.000633866
-0.000346011
-0.0270401
1.38758
0.444679
-0.00061749
0.0213683
0.000402258
-0.0010127
-0.00559562
0.0372548
-0.00179091
0.000625419
0.0155693
1.29321
0.000275855
0.0320402
0.000417568
-0.000683899
0.000370216
0.399084
-0.00203153
-2.21452e-05
0.000164506
-0.0113981
-0.000252384
0.620203
-0.00183787
2.29815e-05
-0.000108177
-0.0045258
0.000218052
0.850693
1.4363
0.000352869
0.0545882
0.000892236
0.0283846
0.0149666
2.52442e-05
-0.000738986
0.000213474
0.000611572
-0.000415501
0.601129
-4.53757e-06
0.000530408
0.000528983
0.0011115
0.000186297
0.431845
0.0884906
0.0458296
0.0138071
0.000205366
0.956293
-0.000415315
0.00387377
0.727715
0.000809318
0.511268
0.000280827
-0.00396546
-0.000399455
-0.000124541
0.000908117
0.00392748
0.000187056
-5.12611e-06
1.43883e-05
4.2896e-05
0.0057975
-3.68748e-05
0.00396237
-0.0172703
0.000748154
-3.18266e-05
0.000711233
-0.000381837
0.000173137
0.00472103
2.39305e-05
0
-9.84605e-05
0.000435064
-0.000118268
0.00643968
-6.57091e-05
0.000490488
-0.00620605
-6.55906e-05
0.00064421
-0.00101562
0.00018617
0.000578374
-0.000668019
0.00185797
-0.00217928
-0.000100712
-0.00103259
-0.00054861
-0.000746175
-9.03601e-05
0.000365948
-0.000921451
0.00526331
0.0104809
-0.0149113
4.01724e-06
0.0149901
0.00282948
-1.43491e-05
0.00256283
-4.70251e-05
-0.00929581
0
0.000561168
8.70411e-05
-0.00697578
0.000150739
-0.000708646
-0.00453247
0.000162051
0.00134889
-0.00178244
0.000919108
8.17428e-06
-0.00254466
-7.42436e-05
0.000855942
-0.00010977
0.00162832
-9.55088e-05
0
0.0299301
-0.00276511
0.00183236
0.000149055
7.3178e-05
-0.000338128
-0.000989485
-0.000714747
1.54231
-8.14334e-05
4.68891e-05
0.000357049
2.14638e-05
-2.16621e-05
0.00342184
0.00490975
-0.00363792
0.000519689
0.000167579
0.00433159
0.335427
0.000864012
-9.04349e-05
-0.00332592
0.000465661
-0.00125366
-0.00306334
0.00299885
0.000149785
2.50101e-05
0.0307221
0.00242102
-0.00224473
-0.00168804
-0.000874163
5.24267e-05
0.000665201
-0.000519787
0.00268335
0.000317195
-0.00326047
0.449452
0.000206559
0.00033011
-4.51174e-05
0.00247182
0.00209235
8.41914e-05
0.00208188
6.46825e-05
0.000581306
0.00153933
-2.74264e-05
-5.28333e-05
-0.00255908
0
-0.000809776
-0.00228891
5.8345e-05
0.815772
-1.99641e-05
2.9626e-05
0.00134566
0.00234537
-0.000326325
0
0.00173182
0.000320284
0.00191716
-0.000593752
-0.000484147
-0.000810569
-0.000645076
-0.00816671
-0.000306155
-0.000950792
0.000625789
-0.000701329
-0.00579109
0.00430011
-0.000865709
-0.000102473
1.66504e-05
0.000453416
1.2467e-05
0.00467113
-0.00752592
0.000540381
0.000451469
-0.000625876
-1.71504e-05
0.000112654
7.52534e-05
9.8492e-05
-0.000286482
0.000111715
0.316266
0.0391797
2.33185e-05
-0.000489075
-6.00746e-05
0.0413636
0.000105586
0.0907522
-0.0014902
9.40836e-05
-0.000878731
-0.00112129
0.00092926
0.000115193
0.00186055
-0.0025842
0.00165874
0.000426951
0.00203628
-0.00132397
0.00016889
0.00058833
-0.000380041
0.00369045
4.21067e-05
-0.00102094
0.00201328
-2.31088e-05
-0.00537094
0.000444474
-8.95769e-05
0.00136696
0.000281889
0.00312851
-0.0013934
0.00163275
-0.00226408
0.000672851
-9.56424e-05
9.56328e-05
-0.00121805
-0.00092988
-0.00118802
0.892835
-0.0270252
0.00860361
-3.55129e-05
3.32926e-05
-0.000122985
-0.00163447
0.000778891
-0.00894061
0.0869486
0.233963
0.0152084
-0.00669734
0.049984
0.0108513
-0.0049397
-0.0144255
-0.0180089
0.00576141
0.0116976
-0.00943458
-0.0676186
0.0295968
0.21472
0.418867
0.963807
2.20382
-0.000997727
0.00119781
0.0193184
0.252196
0.315046
0.665306
0.122447
2.108
0.0235025
-0.000517953
0.534321
-0.0189433
0.0246549
-0.00355051
0.467226
0.00329087
0.00161448
0.091475
0.00276041
0.00784123
0.256566
0.00712021
-0.027868
0.0172388
-0.00958653
0.0797921
0.0927836
0.478257
-0.000835653
0.0796665
1.27304
0.24686
1.39429
0.0183971
0.951528
0.044544
0.631999
0.014047
0.102041
0.0308669
-0.0287998
-0.0486849
0.0499014
0.639026
1.8503
1.69449
0.730156
0.0214942
-0.00918229
-0.00127353
0.00136551
0.00206093
0.00107063
0.00173408
-0.00129414
-0.00160063
0.00870926
-0.0029386
0.0951635
-0.0022359
0.00241611
-0.0225863
0.0229041
0.0213301
0.0334029
0.00879187
1.19072
0.000592008
0
-0.0240956
-0.00344039
0.000351817
