# vtk DataFile Version 2.0
Unstructured Grid by M++
ASCII
DATASET UNSTRUCTURED_GRID
POINTS 1072 float
  0.593750   1.000000 0
  0.718750   0.656250 0
  0.625000   0.968750 0
  0.625000   1.000000 0
  0.843750   0.562500 0
  0.875000   0.562500 0
  0.875000   0.531250 0
  0.562500   0.531250 0
  0.687500   1.000000 0
  0.875000   0.593750 0
  0.562500   0.593750 0
  0.625000   0.531250 0
  0.593750   0.562500 0
  0.593750   0.531250 0
  0.562500   0.562500 0
  0.593750   0.625000 0
  0.593750   0.593750 0
  0.562500   0.625000 0
  0.593750   0.687500 0
  0.562500   0.687500 0
  0.906250   0.500000 0
  0.656250   0.750000 0
  0.625000   0.937500 0
  0.593750   0.968750 0
  0.812500   0.531250 0
  0.625000   0.906250 0
  0.906250   0.625000 0
  0.656250   0.593750 0
  0.531250   0.937500 0
  0.593750   0.656250 0
  0.687500   0.562500 0
  0.625000   0.593750 0
  0.656250   0.562500 0
  0.625000   0.562500 0
  0.718750   1.000000 0
  0.687500   0.625000 0
  0.562500   0.968750 0
  0.656250   0.625000 0
  0.531250   0.968750 0
  0.625000   0.625000 0
  0.656250   0.656250 0
  0.531250   1.000000 0
  0.625000   0.656250 0
  0.625000   0.687500 0
  0.937500   0.562500 0
  0.937500   0.656250 0
  0.968750   0.625000 0
  0.937500   0.625000 0
  0.968750   0.593750 0
  0.937500   0.593750 0
  0.843750   0.531250 0
  0.812500   0.562500 0
  0.625000   0.875000 0
  0.812500   0.687500 0
  1.000000   0.625000 0
  0.750000   0.968750 0
  0.843750   0.843750 0
  1.000000   0.937500 0
  1.000000   0.906250 0
  0.937500   0.687500 0
  0.843750   0.781250 0
  0.750000   1.000000 0
  0.968750   0.562500 0
  0.968750   0.937500 0
  0.968750   0.906250 0
  0.968750   0.875000 0
  0.656250   0.781250 0
  1.000000   0.593750 0
  0.562500   0.937500 0
  0.656250   0.843750 0
  1.000000   0.656250 0
  0.656250   0.812500 0
  0.656250   0.875000 0
  0.781250   0.531250 0
  1.000000   0.687500 0
  0.906250   0.906250 0
  0.843750   0.687500 0
  0.843750   0.656250 0
  0.656250   0.906250 0
  0.937500   0.843750 0
  0.937500   0.906250 0
  0.937500   0.937500 0
  0.937500   0.875000 0
  0.625000   0.750000 0
  0.625000   0.812500 0
  0.625000   0.781250 0
  0.906250   1.000000 0
  0.625000   0.843750 0
  0.968750   0.656250 0
  0.968750   0.500000 0
  0.937500   0.531250 0
  0.875000   0.875000 0
  0.875000   0.812500 0
  0.718750   0.968750 0
  0.906250   0.812500 0
  0.843750   0.812500 0
  0.812500   0.812500 0
  0.718750   0.937500 0
  0.687500   0.937500 0
  0.906250   0.593750 0
  0.968750   0.531250 0
  0.875000   0.625000 0
  0.906250   0.875000 0
  0.781250   1.000000 0
  0.968750   0.687500 0
  0.875000   0.781250 0
  0.875000   0.687500 0
  0.812500   0.781250 0
  0.906250   0.687500 0
  0.875000   0.656250 0
  1.000000   0.562500 0
  0.812500   0.750000 0
  0.906250   0.656250 0
  0.843750   0.750000 0
  0.562500   1.000000 0
  0.687500   0.656250 0
  0.562500   0.656250 0
  0.593750   0.906250 0
  0.593750   0.937500 0
  0.562500   0.875000 0
  0.593750   0.843750 0
  0.593750   0.875000 0
  0.750000   0.687500 0
  0.781250   0.687500 0
  0.750000   0.718750 0
  0.781250   0.718750 0
  0.750000   0.750000 0
  0.562500   0.812500 0
  0.593750   0.781250 0
  0.593750   0.812500 0
  0.750000   0.625000 0
  0.781250   0.625000 0
  0.750000   0.656250 0
  0.812500   0.625000 0
  0.781250   0.656250 0
  0.562500   0.906250 0
  0.562500   0.843750 0
  0.562500   0.750000 0
  0.593750   0.750000 0
  0.562500   0.781250 0
  0.656250   0.937500 0
  0.531250   0.531250 0
  0.531250   0.562500 0
  0.531250   0.593750 0
  0.531250   0.625000 0
  0.531250   0.656250 0
  0.531250   0.687500 0
  0.812500   0.593750 0
  0.843750   0.593750 0
  0.781250   0.750000 0
  0.781250   0.781250 0
  0.531250   0.812500 0
  0.531250   0.843750 0
  0.531250   0.750000 0
  0.531250   0.718750 0
  0.531250   0.906250 0
  0.875000   0.843750 0
  0.531250   0.875000 0
  0.718750   0.718750 0
  0.687500   0.687500 0
  0.718750   0.687500 0
  0.718750   0.625000 0
  0.562500   0.718750 0
  0.687500   0.593750 0
  0.718750   0.593750 0
  0.718750   0.562500 0
  0.750000   0.562500 0
  0.656250   0.968750 0
  0.656250   0.687500 0
  1.000000   0.968750 0
  0.625000   0.718750 0
  0.656250   0.718750 0
  0.843750   0.625000 0
  0.812500   0.656250 0
  0.812500   0.718750 0
  0.687500   0.968750 0
  0.656250   1.000000 0
  0.687500   0.531250 0
  0.718750   0.531250 0
  0.906250   0.562500 0
  1.000000   0.531250 0
  0.750000   0.531250 0
  0.750000   0.593750 0
  0.781250   0.875000 0
  0.781250   0.562500 0
  0.781250   0.593750 0
  0.593750   0.281250 0
  0.593750   0.250000 0
  0.562500   0.250000 0
  0.562500   0.031250 0
  0.593750   0.375000 0
  0.718750   0.031250 0
  0.593750   0.343750 0
  0.687500   0.250000 0
  0.656250   0.437500 0
  0.781250   0.093750 0
  0.625000   0.406250 0
  0.750000   0.062500 0
  0.687500   0.500000 0
  0.812500   0.156250 0
  0.593750   0.031250 0
  0.562500   0.000000 0
  0.625000   0.125000 0
  0.625000   0.093750 0
  0.593750   0.093750 0
  0.593750   0.062500 0
  0.687500   0.437500 0
  0.781250   0.343750 0
  0.906250   0.000000 0
  0.781250   0.312500 0
  0.656250   0.406250 0
  0.750000   0.312500 0
  0.687500   0.468750 0
  0.812500   0.125000 0
  0.906250   0.031250 0
  0.656250   0.312500 0
  0.625000   0.281250 0
  0.687500   0.375000 0
  0.656250   0.343750 0
  0.625000   0.312500 0
  0.656250   0.375000 0
  0.625000   0.343750 0
  0.625000   0.375000 0
  0.750000   0.125000 0
  0.625000   0.468750 0
  0.687500   0.062500 0
  0.562500   0.406250 0
  0.656250   0.031250 0
  0.531250   0.375000 0
  0.625000   0.000000 0
  0.656250   0.062500 0
  0.531250   0.406250 0
  0.625000   0.031250 0
  0.625000   0.062500 0
  0.750000   0.406250 0
  0.843750   0.312500 0
  0.812500   0.343750 0
  0.937500   0.000000 0
  0.843750   0.343750 0
  0.968750   0.000000 0
  0.812500   0.312500 0
  0.968750   0.093750 0
  0.937500   0.062500 0
  0.750000   0.187500 0
  0.656250   0.281250 0
  0.843750   0.093750 0
  0.750000   0.156250 0
  0.625000   0.500000 0
  0.843750   0.062500 0
  0.625000   0.250000 0
  0.812500   0.062500 0
  0.968750   0.062500 0
  0.843750   0.375000 0
  0.968750   0.031250 0
  0.812500   0.375000 0
  0.937500   0.031250 0
  0.906250   0.062500 0
  0.781250   0.125000 0
  0.656250   0.468750 0
  0.875000   0.031250 0
  0.937500   0.218750 0
  0.937500   0.250000 0
  0.937500   0.312500 0
  0.937500   0.343750 0
  0.937500   0.375000 0
  0.937500   0.406250 0
  1.000000   0.000000 0
  0.875000   0.343750 0
  0.937500   0.437500 0
  0.562500   0.312500 0
  0.656250   0.218750 0
  1.000000   0.031250 0
  0.875000   0.375000 0
  0.625000   0.437500 0
  0.750000   0.093750 0
  0.968750   0.250000 0
  0.968750   0.343750 0
  0.968750   0.375000 0
  0.968750   0.406250 0
  0.968750   0.468750 0
  0.968750   0.437500 0
  0.937500   0.156250 0
  1.000000   0.406250 0
  1.000000   0.375000 0
  0.875000   0.406250 0
  1.000000   0.062500 0
  0.593750   0.000000 0
  1.000000   0.500000 0
  0.531250   0.000000 0
  1.000000   0.468750 0
  1.000000   0.437500 0
  0.750000   0.375000 0
  0.843750   0.281250 0
  0.156250   0.531250 0
  1.000000   0.312500 0
  0.031250   0.875000 0
  0.000000   0.750000 0
  0.031250   0.750000 0
  0.031250   0.781250 0
  0.031250   0.812500 0
  0.031250   0.843750 0
  0.156250   0.500000 0
  1.000000   0.281250 0
  0.125000   0.968750 0
  0.250000   0.625000 0
  0.187500   1.000000 0
  1.000000   0.718750 0
  0.312500   0.000000 0
  0.312500   0.656250 0
  0.156250   1.000000 0
  0.968750   0.718750 0
  0.281250   0.000000 0
  0.281250   0.656250 0
  0.125000   0.843750 0
  0.156250   0.843750 0
  0.000000   0.718750 0
  0.843750   0.500000 0
  0.281250   0.687500 0
  0.437500   0.781250 0
  0.312500   1.000000 0
  0.281250   1.000000 0
  0.375000   0.781250 0
  0.312500   0.500000 0
  0.437500   0.156250 0
  0.343750   0.500000 0
  0.468750   0.156250 0
  0.250000   0.156250 0
  0.343750   0.125000 0
  0.218750   0.468750 0
  0.375000   0.375000 0
  0.437500   0.312500 0
  0.406250   0.312500 0
  0.062500   0.375000 0
  0.093750   0.281250 0
  0.093750   0.343750 0
  0.937500   0.125000 0
  0.906250   0.718750 0
  0.218750   0.000000 0
  0.250000   0.968750 0
  0.531250   0.062500 0
  0.156250   0.062500 0
  0.312500   0.187500 0
  1.000000   0.875000 0
  0.312500   0.156250 0
  0.281250   0.187500 0
  0.906250   0.781250 0
  0.218750   0.062500 0
  0.718750   0.781250 0
  0.031250   0.062500 0
  0.375000   0.000000 0
  0.718750   0.750000 0
  0.031250   0.031250 0
  0.687500   0.781250 0
  0.000000   0.062500 0
  0.250000   0.500000 0
  0.375000   0.156250 0
  0.281250   0.468750 0
  0.406250   0.125000 0
  0.406250   0.343750 0
  0.062500   0.406250 0
  0.312500   0.437500 0
  0.437500   0.093750 0
  0.781250   0.031250 0
  0.250000   0.468750 0
  0.375000   0.125000 0
  0.281250   0.437500 0
  0.406250   0.093750 0
  0.406250   0.437500 0
  0.406250   0.406250 0
  0.375000   0.437500 0
  0.031250   1.000000 0
  0.187500   0.437500 0
  1.000000   0.812500 0
  0.312500   0.093750 0
  0.218750   0.437500 0
  0.343750   0.093750 0
  0.250000   0.437500 0
  0.375000   0.093750 0
  0.218750   0.406250 0
  0.343750   0.062500 0
  0.250000   0.406250 0
  0.375000   0.062500 0
  0.281250   0.218750 0
  0.187500   0.312500 0
  0.250000   0.218750 0
  0.156250   0.312500 0
  1.000000   0.093750 0
  0.125000   0.312500 0
  0.406250   0.000000 0
  0.750000   0.781250 0
  0.062500   0.062500 0
  0.375000   0.500000 0
  0.500000   0.156250 0
  0.312500   0.968750 0
  0.125000   0.468750 0
  0.500000   0.375000 0
  0.437500   0.406250 0
  0.375000   0.468750 0
  0.468750   0.375000 0
  0.125000   0.437500 0
  0.343750   0.468750 0
  0.468750   0.125000 0
  0.437500   0.375000 0
  0.093750   0.437500 0
  0.125000   0.093750 0
  0.500000   0.937500 0
  0.718750   0.906250 0
  0.031250   0.187500 0
  0.687500   0.906250 0
  0.000000   0.187500 0
  0.937500   0.781250 0
  0.250000   0.062500 0
[...]
POINT_DATA 1072
SCALARS scalar_value float 1
LOOKUP_TABLE default
0
-0.00396504
-0.000529968
0
0.00371819
-0.000413765
-0.00554647
0.000177981
0
0.000507555
0.00226678
0.00181541
-0.00161033
0.00195733
0.000527278
0.00222522
0.00111218
0.000640727
0.00732097
0.00183571
0.0486239
0.00137082
0.000503764
-0.00105349
-0.00476982
-0.00125379
0.00280862
0.000588132
-3.3089e-05
0.00166276
0.00742436
-0.00204089
0.00564075
0.00138233
0
0.00444563
-0.00193192
0.00342272
-0.00275994
0.000353832
-0.00134666
0
-0.00263173
0.0031744
0.0110407
-0.00245971
0.00258676
0.00272603
-0.000796678
-0.00460089
-0.00367891
0.00476833
0.00181507
0.000390132
0.00232061
-5.30985e-06
-0.000238334
-2.64595e-05
3.32611e-05
0.00199623
-0.00118445
0
-0.00277928
-0.000102499
4.02927e-05
0.00011366
-0.00142794
-0.00557634
0.000854023
-0.00127181
-0.00013752
0.00189767
0.000623432
-0.0054108
-0.000485548
0.000165672
0.000552406
0.000581429
-0.000488272
0.000152398
-0.000159604
0.000109588
-1.047e-05
0.00611603
0.00333819
-0.00321446
0
-0.00227335
-0.0021289
0.00336814
-0.0151243
0.000205088
0.000601021
-5.57397e-05
0.000619538
0.00107096
0.00109351
0.000357248
0.000255121
-0.00258488
0.00176853
0.000595486
-8.23972e-05
0
0.00089247
-0.00117603
0.00247403
-0.00180616
0.00185294
-0.00199478
0.0078222
0.000736484
-0.00270154
0.0016114
0
-0.0040164
0.000434137
-0.00163189
0.000776578
0.00133723
-0.00159324
0.0016709
0.00269631
0.00106243
-0.00181635
-0.000427903
0.00146658
0.000796053
0.000109473
0.00177937
0.00517152
0.0026611
-0.00373761
0.0031229
-0.00208034
-0.00247234
-0.0017657
0.00127731
0.000486534
0.000148163
-5.64721e-05
0.000854072
0.00146175
0.00137215
-0.000508604
0.00153297
-0.000166111
-0.00411009
-0.0012139
-0.000137578
-0.000139131
-0.00159704
-0.000775261
3.26609e-05
3.88816e-06
-0.00235819
-0.000466623
-0.00112911
-0.0018669
0.00449898
0.00335599
0.00445677
0.000132414
-0.00391946
-0.00284943
0.000925138
0.00684367
-0.000472127
0.00304504
-0.000181307
-0.00328052
-0.00107921
-0.000265144
-0.00130659
-0.000656186
-0.000592614
0
-0.00431753
-0.000988835
-0.00278892
-0.0064892
-0.00536459
-0.00647225
0.00287815
0.00422958
-0.0031514
0.019592
0.334018
0.0764937
0.608668
0.0086661
0.302996
-0.00983227
0.0583044
0.011098
0.00390281
-0.00606371
0.0196484
0.00526691
-0.00925751
1.19099
0.850009
0.395992
0.668933
0.779413
0.995711
0.00537346
-0.0201356
0.00195491
0.0355708
0.000317256
0.0133363
-0.00320915
0.000350614
0.00187565
0.0352082
0.0338794
0.00983695
0.0139632
0.017301
0.0131123
0.00371281
0.0143527
0.00981673
0.0012507
0.698168
0.0055511
1.99919
0.000483654
1.67868
2.00092
-0.000387787
1.18405
0.721545
-0.0103977
0.0172057
-0.0337809
-0.000285073
-0.0215219
-0.000581539
0.0346029
-0.000653005
6.66947e-05
0.0334865
0.0191818
0.0103071
0.0127521
-0.00281947
0.0154222
0.151853
0.00827652
-0.000646275
0.0312856
-0.000631436
0.0234628
-0.00011058
0.00244453
0.0101078
-0.00301051
0.00352503
-0.000448202
0.000394504
0.00129054
0.00135081
0.00369691
-0.000607939
0.000347889
-0.0124165
0.0114579
0.0209394
0.0437363
0.000294283
0.0130076
0.00329148
-0.0119768
-0.000130589
-0.000320327
-0.000615759
-0.00158999
-0.00522645
0.000740684
0.000159365
-0.000335976
-0.000502408
-0.0276875
0.000225673
1.42405
0.00587215
0.460417
-0.00209079
0.000607383
0.00944973
-0.00303077
0.00478663
-1.12101e-05
-2.27207e-05
0.000199611
0.000127857
-3.0167e-05
6.23421e-07
-2.78361e-05
-0.0110928
-0.0011699
-8.64552e-05
0.00427221
0
0.000292126
0.370286
0.000406747
0
8.93475e-05
0.226537
-0.00148408
-5.65349e-05
-9.94323e-05
-0.000366418
0.00125351
0.000803253
-4.54004e-05
0
0
0.000148327
0.00339202
0.110354
5.88546e-05
0.0845732
0.0222072
0.181336
0.000360737
0.00743045
0.0267095
0.07891
-9.94643e-05
-8.74256e-06
-1.90409e-05
0.000356235
-0.00185878
0.121177
-9.84939e-05
0.199957
0.00223602
0.00516835
-0.000172252
0.0256143
0.0042659
-0.00113755
0.0638485
-0.00023343
-0.000180085
0.973229
0.000833663
-7.84509e-05
-0.00275369
-0.00014799
0.0030763
0.259996
0.000624442
0.317517
0.0512215
0.000334944
0.00252192
0.378668
0.0142612
-0.0186251
0.349907
0.00709813
0.397404
0.0358427
0.037287
0.0050989
0
0.00263509
0.000112615
0.10055
0.0151236
0.27539
0.00998359
0.464498
-0.00298934
0.379354
-0.021334
0.589896
0.00542541
0.00717098
0.00752278
-0.00235978
0.000116496
0.000439059
0.966604
-0.000910592
0.00178315
0.000881505
-0.0123407
-0.000171776
0.000720603
0.00227845
0.00139244
0.0011641
0.00450837
0.00178279
-0.00312316
0.510317
0.00174534
8.45256e-06
-0.00149349
-0.000508279
-0.000411405
2.05859e-05
-0.00042989
-5.33431e-05
7.66567e-06
0.0799075
0.000624423
-0.000468888
-3.56672e-05
0.000264232
0.212235
8.43392e-05
-0.00190776
0.0444562
8.8608e-05
-0.000780371
-0.000381481
0.000156866
0.00070011
0.0118945
0.757372
-0.0256929
-0.000159668
0.0971362
0.0374658
0.000237025
0.0324117
0.0320692
-0.000425847
-0.000157256
-0.000448615
0.0246796
-0.000274369
0.000161937
-0.000446013
0.660022
0.00184339
0.0137869
-0.000205665
0.0236632
0.000253053
-0.000626723
-0.000431143
0.00980743
-0.0182118
-0.00121246
-5.18959e-05
0.0121762
0.00281848
0
-0.0188791
0.00991795
0.000251511
0.000716311
0.0086326
0.00225147
0.0178616
0.0266649
-7.90165e-05
5.24474e-05
0.0506152
0.704875
0.000913561
0.00170683
-0.000159269
0.0190231
0.047614
-0.00819683
5.60404e-05
0.00843455
0.0569773
-0.00111895
-0.00173994
0.299886
0.32905
-0.00346399
0.0149639
-0.000216313
0.00443358
-0.000624518
-0.00139644
0
-0.00854762
0.213524
1.04267
-0.000578522
5.07275e-05
0.00104678
0.0500536
0.0158766
-0.0229125
0.0351477
0.000103416
-0.000268856
-5.98321e-05
6.81822e-05
-0.00355508
0.00254917
0.0115594
-0.000437299
0.0772617
0.00306712
0.00893022
-0.00172897
8.91483e-05
0.000798057
-0.000366326
0.000219297
0.000648108
0.000194381
-0.00179925
0.0156182
0.151952
0.0238308
-0.000392117
0.051861
-0.000184331
0.000758252
1.29284
3.62316e-06
-0.000236474
0.00165908
-0.000177493
-4.52426e-05
-0.00153607
-0.000494132
0.00156472
0.022762
-0.000649548
0.00037835
1.00802e-05
7.72012e-05
-0.000879822
5.88199e-05
0.0197628
-7.92554e-06
-0.000170109
7.53016e-05
0.000132849
-0.00394806
-0.00027506
-0.00702976
-0.000128668
0.0107865
0.0215385
0.00271108
-0.0210819
0.000283262
0.00039538
-0.00136458
0.000118492
0.000535588
0.299735
0.933479
-0.00192646
0.000365195
0
0.00796129
-0.000515693
7.32034e-05
0.04998
-0.00035962
-0.00152546
0.038408
0.0752838
0.000759635
-0.000704273
-0.000265099
-0.000144616
0.0114459
-0.000140607
0.00113115
4.78219e-05
0.434876
-0.000571568
-9.775e-05
0.000311814
0.00414456
-0.000241247
0
-0.000300385
-0.000257235
0.00176283
0.00168292
1.56408e-05
-0.0195922
-0.000143092
-0.000281401
0.000567666
1.25825e-06
-0.00128311
0.0447883
-0.00416694
0.000225844
0.000738124
0.00127547
0.000173935
0.0105525
1.6511
8.21548e-05
0.00238538
0.00923899
0.000374758
-0.005032
0.00032636
-0.000100295
0
0
-0.000757065
0
0.00743551
0.0565716
-4.13346e-05
0.000476393
0.00339122
-0.0121586
-0.00105576
0.000251222
0.558811
0.00199772
0.0302102
4.42934e-05
0.0481181
0.00972677
0.114186
1.20746e-05
-0.000340293
-0.00011717
0.000469492
0
0.000342961
0.00811136
0.683724
0
-0.000129886
0.000398718
0.00769396
0.066309
9.0931e-05
0.00507382
-0.00351503
-0.00143321
0.000169914
4.6002e-05
0
0
0.00815536
0.00128932
0.00740475
-0.00015496
-6.54888e-05
0.00353931
-0.000587439
0.0019655
0.131831
-9.56041e-05
0.00208049
-0.00216431
0.0442069
0.000405104
-0.00039695
0.743347
-0.00114601
0.00733936
-4.24629e-05
0.0947219
0.12608
4.65291e-05
0.260195
-0.000184849
-0.00220808
2.21013e-05
-0.000593643
-0.000137243
0.0191344
-0.00056871
-0.00272047
-0.000361461
-0.000390689
0.00151219
-0.00205641
0.0881395
0.000270733
0.00263631
-0.000864117
0.000966789
0.0881398
0.00160313
-0.000486789
-0.00136827
0.177978
0
0.00157004
0.000330635
0.00140452
0.000100812
-0.0138066
0.507612
0.105475
-6.40634e-05
0.0038818
0.000146789
-0.000437375
0.00508757
0.00549389
-0.0019859
1.79269e-05
0.0106316
0.517886
-8.31063e-05
0.0247544
0.0016574
-0.00063847
0.000444341
0.119843
-0.00067094
-1.98759e-05
0.000182454
-0.00716135
-0.000241138
0.16084
-0.000908188
7.89065e-06
0.000102013
-0.00291016
8.23416e-05
0.252576
0.412087
-0.000138401
-0.00601543
0.000470107
0.0187752
0.00159681
1.78028e-05
-0.000352818
0.00115945
-0.000254607
-0.000359654
0.14314
-9.37719e-06
0.000322724
0.00074641
-3.31302e-05
0.000223676
0.0857493
0.0234084
0.0093862
-0.00676304
0.000136922
0.156541
2.09995e-06
0.00213442
0.207137
0.00359151
0.0895852
0.000209114
-0.00183426
-0.000224306
0.00058509
0.000628773
0.0014517
6.04439e-05
0.000106429
-4.31092e-05
9.04619e-06
0.00839168
-9.76914e-06
0.00184444
-0.0274644
0.000524179
-0.00324538
0.000599588
-0.000343716
5.93745e-05
0.00217444
-1.00387e-05
0
0.0001531
0.000265168
-0.000219687
0.00314358
-6.46131e-05
0.000518255
-0.00307691
-5.68495e-05
0.000306108
-0.000613112
0.000143725
0.000240643
0.0013351
0.00096664
-0.00103037
2.32016e-06
-0.000577038
-0.000475121
0.00353684
-9.65485e-05
0.000253263
-0.000660476
0.00204674
0.0165604
-0.0070234
-1.92938e-05
0.00747517
0.000188453
-4.86263e-05
0.00134684
-7.28783e-05
-0.00431907
0
-0.000128973
1.34769e-05
-0.00412427
5.00994e-05
-0.000518858
-0.00250351
6.87443e-05
0.000804075
-0.000921595
-0.000683985
-2.67252e-05
-0.00120169
0.00046875
-0.000183612
-9.43998e-05
0.011058
-6.9628e-05
0
0.0123147
-0.00205302
0.00167878
0.000162525
-0.000160679
-2.53379e-05
-0.000302903
-0.000276636
0.633238
-5.97817e-05
1.34957e-05
0.000496993
-3.3324e-05
-4.96163e-06
-7.23635e-05
0.00120837
-0.0016898
0.000159216
0.000100017
0.000883398
0.102269
0.000487434
-5.77636e-05
-0.000605213
0.000501167
-0.000323534
-0.00206371
0.00105439
0.000433137
-2.074e-05
0.000606731
0.00164238
-0.00181984
-0.000586163
-0.000565589
-0.000267073
9.9721e-05
-0.000259351
0.000618613
0.000618041
-0.00083542
0.0574771
0.000127744
0.0112202
-8.2231e-05
0.00125331
0.000767534
6.01456e-05
-0.00886794
3.64289e-05
0.000400171
0.000461672
4.3959e-05
-4.46882e-05
-0.00211598
0
-0.000384515
-0.00717172
-0.000437167
0.25652
-1.46216e-05
0.000152949
0.00111426
-0.000389899
-0.000219999
0
0.00126702
6.47369e-05
0.000858356
-0.000500488
-2.12157e-05
-0.000294392
-0.000244006
-0.0143158
-0.000154164
-9.96026e-05
0.000900103
-0.000558527
-0.00167996
0.0012667
-0.000474514
4.48326e-05
-1.3039e-05
0.000241318
-3.05305e-05
0.0030311
-0.00284707
0.000288064
0.000154078
-0.000277683
-4.23174e-06
6.26833e-05
-2.97816e-05
4.39441e-05
-5.35282e-05
6.58212e-05
0.0536957
0.0269631
-8.66036e-06
-0.000296013
-7.22174e-05
0.00605674
3.31393e-05
0.0076442
-0.00132121
7.81962e-05
-0.000490556
-0.000579515
0.000490054
6.63201e-05
0.00135524
-0.00130835
0.000717538
0.000201517
0.000986122
-0.000656426
0.000182158
0.000393596
-0.000208379
0.00211593
1.25696e-05
-0.000560185
0.00146186
-3.056e-05
-0.00315276
-0.00074897
-0.000101208
0.00096826
0.000317376
-0.00435729
-0.000497423
0.000887296
-0.00153565
0.000109843
-7.27605e-05
6.39019e-05
-0.000733664
-0.000628904
-0.00075713
0.389432
-0.0153232
0.00245021
-6.82895e-05
1.91593e-05
-0.000292114
-0.00168201
0.000533911
-0.0138521
0.0143468
0.0381922
0.00506119
-0.0158921
0.0405005
0.00859192
-0.00685149
-0.00658155
-0.00609601
0.00241912
0.00407308
-0.0030466
-0.0635881
-0.0184547
0.112374
0.0469671
0.346823
1.33507
0.000550769
0.000852944
0.0160362
0.0504412
0.0722125
0.209765
0.028669
2.21119
0.00881272
-0.00606372
0.090986
-0.01478
0.012241
-0.00547557
0.142674
0.0016531
0.000489473
-0.0127745
0.00141151
-0.000140774
0.0429172
0.00186014
-0.00912067
0.00425691
-0.000953984
0.0118589
0.030037
0.126999
-0.00288096
-0.0339201
0.596454
0.0252996
0.713627
-0.00157319
0.313048
0.0244429
0.264986
0.00140981
0.0262654
-0.0145687
-0.030657
-0.0457699
0.0475845
0.0604615
0.794902
0.727824
0.194832
0.00881658
0.0100475
-0.00621068
-0.000478729
0.00015737
0.00717367
7.70824e-05
-0.000784583
-0.00679501
0.0080573
0.00784336
0.0325569
-0.000809406
0.00137151
-0.0254711
-0.0036301
0.0057091
0.00400511
0.0145858
0.503851
-0.00274872
0
-0.0229626
-0.00145337
0.000824402
