# vtk DataFile Version 2.0
Unstructured Grid by M++
ASCII
DATASET UNSTRUCTURED_GRID
POINTS 1072 float
  0.593750   1.000000 0
  0.718750   0.656250 0
  0.625000   0.968750 0
  0.625000   1.000000 0
  0.843750   0.562500 0
  0.875000   0.562500 0
  0.875000   0.531250 0
  0.562500   0.531250 0
  0.687500   1.000000 0
  0.875000   0.593750 0
  0.562500   0.593750 0
  0.625000   0.531250 0
  0.593750   0.562500 0
  0.593750   0.531250 0
  0.562500   0.562500 0
  0.593750   0.625000 0
  0.593750   0.593750 0
  0.562500   0.625000 0
  0.593750   0.687500 0
  0.562500   0.687500 0
  0.906250   0.500000 0
  0.656250   0.750000 0
  0.625000   0.937500 0
  0.593750   0.968750 0
  0.812500   0.531250 0
  0.625000   0.906250 0
  0.906250   0.625000 0
  0.656250   0.593750 0
  0.531250   0.937500 0
  0.593750   0.656250 0
  0.687500   0.562500 0
  0.625000   0.593750 0
  0.656250   0.562500 0
  0.625000   0.562500 0
  0.718750   1.000000 0
  0.687500   0.625000 0
  0.562500   0.968750 0
  0.656250   0.625000 0
  0.531250   0.968750 0
  0.625000   0.625000 0
  0.656250   0.656250 0
  0.531250   1.000000 0
  0.625000   0.656250 0
  0.625000   0.687500 0
  0.937500   0.562500 0
  0.937500   0.656250 0
  0.968750   0.625000 0
  0.937500   0.625000 0
  0.968750   0.593750 0
  0.937500   0.593750 0
  0.843750   0.531250 0
  0.812500   0.562500 0
  0.625000   0.875000 0
  0.812500   0.687500 0
  1.000000   0.625000 0
  0.750000   0.968750 0
  0.843750   0.843750 0
  1.000000   0.937500 0
  1.000000   0.906250 0
  0.937500   0.687500 0
  0.843750   0.781250 0
  0.750000   1.000000 0
  0.968750   0.562500 0
  0.968750   0.937500 0
  0.968750   0.906250 0
  0.968750   0.875000 0
  0.656250   0.781250 0
  1.000000   0.593750 0
  0.562500   0.937500 0
  0.656250   0.843750 0
  1.000000   0.656250 0
  0.656250   0.812500 0
  0.656250   0.875000 0
  0.781250   0.531250 0
  1.000000   0.687500 0
  0.906250   0.906250 0
  0.843750   0.687500 0
  0.843750   0.656250 0
  0.656250   0.906250 0
  0.937500   0.843750 0
  0.937500   0.906250 0
  0.937500   0.937500 0
  0.937500   0.875000 0
  0.625000   0.750000 0
  0.625000   0.812500 0
  0.625000   0.781250 0
  0.906250   1.000000 0
  0.625000   0.843750 0
  0.968750   0.656250 0
  0.968750   0.500000 0
  0.937500   0.531250 0
  0.875000   0.875000 0
  0.875000   0.812500 0
  0.718750   0.968750 0
  0.906250   0.812500 0
  0.843750   0.812500 0
  0.812500   0.812500 0
  0.718750   0.937500 0
  0.687500   0.937500 0
  0.906250   0.593750 0
  0.968750   0.531250 0
  0.875000   0.625000 0
  0.906250   0.875000 0
  0.781250   1.000000 0
  0.968750   0.687500 0
  0.875000   0.781250 0
  0.875000   0.687500 0
  0.812500   0.781250 0
  0.906250   0.687500 0
  0.875000   0.656250 0
  1.000000   0.562500 0
  0.812500   0.750000 0
  0.906250   0.656250 0
  0.843750   0.750000 0
  0.562500   1.000000 0
  0.687500   0.656250 0
  0.562500   0.656250 0
  0.593750   0.906250 0
  0.593750   0.937500 0
  0.562500   0.875000 0
  0.593750   0.843750 0
  0.593750   0.875000 0
  0.750000   0.687500 0
  0.781250   0.687500 0
  0.750000   0.718750 0
  0.781250   0.718750 0
  0.750000   0.750000 0
  0.562500   0.812500 0
  0.593750   0.781250 0
  0.593750   0.812500 0
  0.750000   0.625000 0
  0.781250   0.625000 0
  0.750000   0.656250 0
  0.812500   0.625000 0
  0.781250   0.656250 0
  0.562500   0.906250 0
  0.562500   0.843750 0
  0.562500   0.750000 0
  0.593750   0.750000 0
  0.562500   0.781250 0
  0.656250   0.937500 0
  0.531250   0.531250 0
  0.531250   0.562500 0
  0.531250   0.593750 0
  0.531250   0.625000 0
  0.531250   0.656250 0
  0.531250   0.687500 0
  0.812500   0.593750 0
  0.843750   0.593750 0
  0.781250   0.750000 0
  0.781250   0.781250 0
  0.531250   0.812500 0
  0.531250   0.843750 0
  0.531250   0.750000 0
  0.531250   0.718750 0
  0.531250   0.906250 0
  0.875000   0.843750 0
  0.531250   0.875000 0
  0.718750   0.718750 0
  0.687500   0.687500 0
  0.718750   0.687500 0
  0.718750   0.625000 0
  0.562500   0.718750 0
  0.687500   0.593750 0
  0.718750   0.593750 0
  0.718750   0.562500 0
  0.750000   0.562500 0
  0.656250   0.968750 0
  0.656250   0.687500 0
  1.000000   0.968750 0
  0.625000   0.718750 0
  0.656250   0.718750 0
  0.843750   0.625000 0
  0.812500   0.656250 0
  0.812500   0.718750 0
  0.687500   0.968750 0
  0.656250   1.000000 0
  0.687500   0.531250 0
  0.718750   0.531250 0
  0.906250   0.562500 0
  1.000000   0.531250 0
  0.750000   0.531250 0
  0.750000   0.593750 0
  0.781250   0.875000 0
  0.781250   0.562500 0
  0.781250   0.593750 0
  0.593750   0.281250 0
  0.593750   0.250000 0
  0.562500   0.250000 0
  0.562500   0.031250 0
  0.593750   0.375000 0
  0.718750   0.031250 0
  0.593750   0.343750 0
  0.687500   0.250000 0
  0.656250   0.437500 0
  0.781250   0.093750 0
  0.625000   0.406250 0
  0.750000   0.062500 0
  0.687500   0.500000 0
  0.812500   0.156250 0
  0.593750   0.031250 0
  0.562500   0.000000 0
  0.625000   0.125000 0
  0.625000   0.093750 0
  0.593750   0.093750 0
  0.593750   0.062500 0
  0.687500   0.437500 0
  0.781250   0.343750 0
  0.906250   0.000000 0
  0.781250   0.312500 0
  0.656250   0.406250 0
  0.750000   0.312500 0
  0.687500   0.468750 0
  0.812500   0.125000 0
  0.906250   0.031250 0
  0.656250   0.312500 0
  0.625000   0.281250 0
  0.687500   0.375000 0
  0.656250   0.343750 0
  0.625000   0.312500 0
  0.656250   0.375000 0
  0.625000   0.343750 0
  0.625000   0.375000 0
  0.750000   0.125000 0
  0.625000   0.468750 0
  0.687500   0.062500 0
  0.562500   0.406250 0
  0.656250   0.031250 0
  0.531250   0.375000 0
  0.625000   0.000000 0
  0.656250   0.062500 0
  0.531250   0.406250 0
  0.625000   0.031250 0
  0.625000   0.062500 0
  0.750000   0.406250 0
  0.843750   0.312500 0
  0.812500   0.343750 0
  0.937500   0.000000 0
  0.843750   0.343750 0
  0.968750   0.000000 0
  0.812500   0.312500 0
  0.968750   0.093750 0
  0.937500   0.062500 0
  0.750000   0.187500 0
  0.656250   0.281250 0
  0.843750   0.093750 0
  0.750000   0.156250 0
  0.625000   0.500000 0
  0.843750   0.062500 0
  0.625000   0.250000 0
  0.812500   0.062500 0
  0.968750   0.062500 0
  0.843750   0.375000 0
  0.968750   0.031250 0
  0.812500   0.375000 0
  0.937500   0.031250 0
  0.906250   0.062500 0
  0.781250   0.125000 0
  0.656250   0.468750 0
  0.875000   0.031250 0
  0.937500   0.218750 0
  0.937500   0.250000 0
  0.937500   0.312500 0
  0.937500   0.343750 0
  0.937500   0.375000 0
  0.937500   0.406250 0
  1.000000   0.000000 0
  0.875000   0.343750 0
  0.937500   0.437500 0
  0.562500   0.312500 0
  0.656250   0.218750 0
  1.000000   0.031250 0
  0.875000   0.375000 0
  0.625000   0.437500 0
  0.750000   0.093750 0
  0.968750   0.250000 0
  0.968750   0.343750 0
  0.968750   0.375000 0
  0.968750   0.406250 0
  0.968750   0.468750 0
  0.968750   0.437500 0
  0.937500   0.156250 0
  1.000000   0.406250 0
  1.000000   0.375000 0
  0.875000   0.406250 0
  1.000000   0.062500 0
  0.593750   0.000000 0
  1.000000   0.500000 0
  0.531250   0.000000 0
  1.000000   0.468750 0
  1.000000   0.437500 0
  0.750000   0.375000 0
  0.843750   0.281250 0
  0.156250   0.531250 0
  1.000000   0.312500 0
  0.031250   0.875000 0
  0.000000   0.750000 0
  0.031250   0.750000 0
  0.031250   0.781250 0
  0.031250   0.812500 0
  0.031250   0.843750 0
  0.156250   0.500000 0
  1.000000   0.281250 0
  0.125000   0.968750 0
  0.250000   0.625000 0
  0.187500   1.000000 0
  1.000000   0.718750 0
  0.312500   0.000000 0
  0.312500   0.656250 0
  0.156250   1.000000 0
  0.968750   0.718750 0
  0.281250   0.000000 0
  0.281250   0.656250 0
  0.125000   0.843750 0
  0.156250   0.843750 0
  0.000000   0.718750 0
  0.843750   0.500000 0
  0.281250   0.687500 0
  0.437500   0.781250 0
  0.312500   1.000000 0
  0.281250   1.000000 0
  0.375000   0.781250 0
  0.312500   0.500000 0
  0.437500   0.156250 0
  0.343750   0.500000 0
  0.468750   0.156250 0
  0.250000   0.156250 0
  0.343750   0.125000 0
  0.218750   0.468750 0
  0.375000   0.375000 0
  0.437500   0.312500 0
  0.406250   0.312500 0
  0.062500   0.375000 0
  0.093750   0.281250 0
  0.093750   0.343750 0
  0.937500   0.125000 0
  0.906250   0.718750 0
  0.218750   0.000000 0
  0.250000   0.968750 0
  0.531250   0.062500 0
  0.156250   0.062500 0
  0.312500   0.187500 0
  1.000000   0.875000 0
  0.312500   0.156250 0
  0.281250   0.187500 0
  0.906250   0.781250 0
  0.218750   0.062500 0
  0.718750   0.781250 0
  0.031250   0.062500 0
  0.375000   0.000000 0
  0.718750   0.750000 0
  0.031250   0.031250 0
  0.687500   0.781250 0
  0.000000   0.062500 0
  0.250000   0.500000 0
  0.375000   0.156250 0
  0.281250   0.468750 0
  0.406250   0.125000 0
  0.406250   0.343750 0
  0.062500   0.406250 0
  0.312500   0.437500 0
  0.437500   0.093750 0
  0.781250   0.031250 0
  0.250000   0.468750 0
  0.375000   0.125000 0
  0.281250   0.437500 0
  0.406250   0.093750 0
  0.406250   0.437500 0
  0.406250   0.406250 0
  0.375000   0.437500 0
  0.031250   1.000000 0
  0.187500   0.437500 0
  1.000000   0.812500 0
  0.312500   0.093750 0
  0.218750   0.437500 0
  0.343750   0.093750 0
  0.250000   0.437500 0
  0.375000   0.093750 0
  0.218750   0.406250 0
  0.343750   0.062500 0
  0.250000   0.406250 0
  0.375000   0.062500 0
  0.281250   0.218750 0
  0.187500   0.312500 0
  0.250000   0.218750 0
  0.156250   0.312500 0
  1.000000   0.093750 0
  0.125000   0.312500 0
  0.406250   0.000000 0
  0.750000   0.781250 0
  0.062500   0.062500 0
  0.375000   0.500000 0
  0.500000   0.156250 0
  0.312500   0.968750 0
  0.125000   0.468750 0
  0.500000   0.375000 0
  0.437500   0.406250 0
  0.375000   0.468750 0
  0.468750   0.375000 0
  0.125000   0.437500 0
  0.343750   0.468750 0
  0.468750   0.125000 0
  0.437500   0.375000 0
  0.093750   0.437500 0
  0.125000   0.093750 0
  0.500000   0.937500 0
  0.718750   0.906250 0
  0.031250   0.187500 0
  0.687500   0.906250 0
  0.000000   0.187500 0
  0.937500   0.781250 0
  0.250000   0.062500 0
[...]
POINT_DATA 1072
SCALARS scalar_value float 1
LOOKUP_TABLE default
0
0.00555338
-4.52943e-05
0
-0.00163223
-0.00119131
0.00542628
0.0390012
0
0.000764515
0.0203092
0.0595236
0.00660193
0.0556904
0.0366905
0.0214753
0.0288575
0.0244895
0.0159931
0.0199613
-0.0374763
0.00097616
0.000154914
0.000938664
0.00569442
0.000245721
-0.00208089
-8.81983e-05
-0.00137369
0.0158027
0.0127832
-0.021563
0.0886926
0.0357952
0
-0.00621664
0.000740543
-0.00344784
0.00226793
0.00927526
0.00871374
0
-0.00870559
-0.00292218
-0.0101546
0.00201647
-0.00222754
-0.00227692
0.000551112
0.00411648
0.000656791
-0.00476822
-0.000606957
0.000813069
-0.00215721
-0.000363456
-9.76684e-06
3.47442e-05
-8.27242e-05
-0.00150023
0.000887508
0
0.00272021
0.000118156
-8.36995e-05
-7.26907e-05
-0.00039121
0.00510806
-0.000542732
0.000879604
0.000129862
-0.000211674
-0.00037732
0.00255405
0.000600678
-0.000305677
-0.0015213
0.00077077
0.00087072
-0.000321442
-3.44041e-05
-5.39975e-05
4.57812e-05
-0.0114417
-0.00338193
0.00624605
0
0.00173476
0.00196414
-0.00339773
0.0150328
-0.000379998
-0.000549628
0.000115208
-0.000440842
-0.000592714
-0.00107368
-0.000434815
-0.000232612
0.00176358
-0.00178615
-0.000856597
0.000175878
0
-0.000851744
0.000706581
-0.0010873
0.00140447
-0.00187484
0.0013083
-0.00716782
-0.000330877
0.00217903
-0.00151272
0
0.00466521
-0.0105362
0.00199898
-0.000966593
-0.00106894
0.0027652
-0.00212233
-0.000507172
-0.00245711
0.000665634
0.00124487
-0.00138734
-0.00238511
0.00127786
-0.00206826
-0.00127464
-0.00378953
-0.000145616
-0.00161083
0.0032879
0.00083864
0.00137726
0.00297834
0.00369447
0.00224964
-0.000150622
0.0168661
-0.0105169
0.0234327
-0.0281631
0.0158369
-0.00315811
0.00313205
0.000509808
1.70226e-05
4.19648e-05
-0.000352494
0.00282954
0.00671169
-0.00636802
0.00329183
0.000419906
-0.00303116
0.00112128
-0.00353206
-0.0040171
-0.010085
-0.00412042
8.82781e-05
0.0116512
-0.00993365
-0.00918535
0.000867777
-0.00856847
0.000136562
0.0106493
0.00241298
-0.000291584
-0.000288946
-0.00020311
3.24776e-06
0
0.0141014
-0.000840676
0.00363887
0.00582521
0.0141974
0.0034408
-0.00135401
-0.0022866
0.00242628
1.40631
1.62995
1.57296
1.09034
0.405753
0.835042
0.681448
0.962336
0.423831
0.217688
0.375049
0.666151
0.0103592
-0.00963245
0.489698
0.855839
1.25547
0.994778
0.794004
0.628148
-0.0314009
0.0382516
-0.00132451
0.0111906
0.573858
0.108359
-0.0253474
-0.0132906
-0.00217316
1.11534
1.4122
0.143255
0.894562
1.09893
0.681274
0.854293
0.539534
0.594006
0.0761929
0.878867
0.190035
0.157384
0.174276
0.262723
0.149487
0.093308
0.479632
0.800119
0.0243562
-0.0144984
0.0465024
0.000951206
0.0314986
-5.58108e-05
-0.0246997
4.54229e-05
0.00124553
0.393422
1.35096
-0.0282289
0.5
0.0331048
-0.0232846
1.61806
0.0574033
7.44898e-05
-0.031109
7.99659e-06
-0.0164464
0.00103997
-0.00359911
0.151644
0.391226
0.00286293
0.000257682
0.000400132
-0.0011293
-0.000411397
-0.00270643
0.00141901
-0.000156966
0.0110398
-0.0114848
0.725462
1.65802
-0.000204831
-0.0190951
0.185172
0.66779
9.16058e-05
0.000614135
0.000238528
0.00154303
0.00526297
-0.00066621
0.000984161
0.000319893
-3.14676e-05
0.0267479
-0.000252572
0.327713
-0.00546836
1.15033
0.00205189
-0.000888204
0.0224671
0.0114413
-0.0053404
-8.63429e-05
7.20924e-06
-0.000310924
-0.000177956
-2.57833e-06
-3.06287e-05
-6.55452e-06
0.0137801
0.000511104
8.81698e-05
-0.00542479
0
-0.000440892
0.858023
0.00183039
0
0.000102317
0.501731
-0.00139559
0.000105143
3.57794e-05
0.000483367
-0.000258288
0.000999557
-0.00349743
0
0
0.00137714
0.0206084
1.58772
0.00395801
1.68416
0.342218
1.42975
-0.000142434
0.281046
0.814638
1.4164
-5.5593e-05
0.000853097
0.000867864
0.00103712
0.00189886
-0.000979879
-0.000152038
1.59498
-0.00300253
1.01885
0.000259965
1.15785
0.6246
0.00102118
0.0194985
-0.000966423
0.000349755
0.778832
-6.36512e-05
0.00026389
0.00311512
-8.30522e-05
-0.00987198
1.60283
0.0643116
1.60392
1.2927
-4.25312e-05
0.0356918
1.32697
0.228331
0.0187216
1.54244
0.0781239
1.47624
1.02558
1.03002
0.241203
0
-0.00422321
0.000124101
1.23559
-0.0150516
1.37013
-0.00248161
1.39722
0.00678822
1.26278
0.0485471
1.22696
0.474595
0.06365
0.251231
0.00435137
-0.000262217
-0.00414271
0.788709
0.00143614
-0.000711096
0.151899
1.75358
-0.000263534
-3.01688e-05
0.0845474
0.334682
0.209394
0.242387
-0.00125459
0.0202051
1.394
0.468525
0.00144826
0.00025899
-0.000543126
0.000489264
0.000120999
-7.32832e-05
0.000247311
-0.000258702
0.287763
-0.0031055
-4.45363e-05
2.71051e-05
-0.00261583
1.71793
0.000227588
-0.000593269
0.0266878
0.000175404
0.000693683
-0.000789432
-0.000154585
-0.00322502
0.0326941
1.00018
0.616353
0.000310752
1.19966
0.787928
-0.0001876
0.348868
0.0301647
0.000524317
0.000110102
-0.00499339
0.0295378
0.000320552
0.0002124
0.00913896
0.661613
-0.00203421
0.393269
0.000152683
0.790183
-0.000290428
0.0311503
-0.0022706
0.0215733
0.272485
0.0553498
0.000458126
0.15689
0.151468
0
0.513894
0.325143
0.000956154
-0.00129053
0.219222
0.352875
0.0406518
0.716477
5.11398e-05
-0.000173844
1.24611
1.04612
-0.00123214
-0.00104481
0.000117033
0.042028
1.77242
0.287658
0.000386149
0.756181
1.18033
-1.07939e-05
-0.00349079
1.40281
1.39064
0.0226247
0.725419
3.9626e-06
0.0572185
-0.000109116
0.00123198
0
0.297379
1.54243
0.787665
0.000346819
7.72586e-05
-0.0037305
1.44259
0.142789
0.0271903
0.982009
-3.46788e-05
0.0013422
0.00134413
4.6694e-05
-0.00540907
0.0927334
0.643223
0.000732356
1.46258
-0.00178573
-0.00130844
0.0193485
-0.000158539
-0.00146859
-0.000106615
7.65138e-05
2.56369e-05
0.000548674
0.000610273
1.1639
1.77137
0.36321
0.000415526
0.325011
-0.000139255
0.00132005
0.491979
0.000552907
0.000410625
0.0277691
-0.000232469
0.000325461
-0.000132574
0.00165761
0.172218
1.03418
-0.00662474
-0.000297576
1.64984e-05
0.0119161
0.000753674
-5.69566e-05
-0.0145694
0.000260093
0.000698427
-0.000462396
0.0590174
0.00307135
-0.000112115
0.870173
0.00016248
0.636237
0.094667
0.828919
0.240789
-0.000230046
-0.000185094
-0.00193538
-0.000115787
0.349455
1.51745
0.776242
0.0014601
-0.000855558
0
-0.00896705
0.000122569
-6.93488e-05
0.780727
0.000222546
0.019176
1.73026
1.36209
-0.000497283
0.00124876
9.85743e-06
0.000134624
-0.0137636
2.42e-05
-0.00121867
-6.03628e-06
1.30308
-0.000407499
0.000209677
0.00105976
-0.00418537
-9.67194e-05
0
0.000221241
0.000130511
-0.000780345
-0.00199481
-8.03057e-05
0.0217646
0.000993204
0.000525298
0.00128812
-0.000434223
-0.00157534
1.37641
0.164621
0.465801
-0.000572081
-0.000999007
-0.000271943
0.0803389
0.287099
3.36093e-05
0.00158792
-0.00571385
0.128116
0.097462
-0.000360406
5.13612e-05
0
0
0.0127806
0
0.0460424
1.24998
0.000568554
0.0010867
0.00186743
0.0692478
0.000779759
0.0018667
1.15465
-0.000964415
-0.00720887
-0.00244216
1.12667
0.566584
1.38064
5.55606e-06
0.00844572
-1.44708e-05
0.104099
0
-0.00631255
0.037477
0.907466
0
-0.000149731
-0.00258062
0.325197
1.52514
0.000231749
1.05905
0.187411
0.137734
-0.000147895
1.56801e-05
0
0
0.067872
0.34366
0.660688
0.000341362
-0.000235694
-0.00286182
0.000945689
-0.00113117
1.72717
-0.000112655
-0.00576604
0.000997032
-0.00786116
0.000358014
0.00123215
1.02917
0.00179902
-0.00267778
2.77525e-05
1.58085
1.68646
0.0330427
1.72475
5.83917e-05
0.0114649
-6.77471e-05
-0.00457263
-0.000124015
-0.00714176
0.000750087
-0.00349372
-0.00115237
0.000321456
-0.00128653
0.0041244
1.499
-1.46258e-05
0.00850162
0.0006655
-0.00130275
0.0126304
-0.00138241
3.40323e-05
0.000893596
0.166016
0
-0.000434262
0.00169829
-0.00028477
-0.00360402
0.126791
1.30525
0.487623
-0.000290047
0.306791
-5.55133e-05
0.000417385
0.0034573
0.424058
-0.000507838
-0.000170991
-1.79242e-05
1.08847
-3.5882e-05
-0.0136107
-0.000697178
0.000129269
-8.40491e-05
0.231493
0.0223534
2.53092e-05
-0.000790919
0.0141616
1.4021e-05
1.16716
0.0391766
-2.55062e-05
0.00122073
0.00568624
0.000234791
1.02169
1.17535
0.000319822
1.21198
-0.000231371
-0.0162929
0.201252
-3.25064e-05
0.000247754
0.00470232
-0.000140106
0.00024937
0.625648
8.54676e-06
0.000119766
0.00286141
-0.000154275
-0.000129167
0.730095
0.870503
0.490553
0.329093
9.14036e-05
1.54196
-0.000167115
-0.00466137
1.73791
0.0455242
1.79746
-0.000317909
0.00727153
0.000348289
0.0291526
-0.000655692
-0.000103536
0.000145514
-9.88616e-05
0.000116874
-6.07541e-05
-0.0054377
6.19297e-05
-0.00385645
0.0218452
-0.000679847
0.000207853
-0.000664517
0.000358286
-0.000205319
-0.00360284
1.46266e-05
0
-0.000428435
-0.000428179
-0.000565429
0.0499737
9.45968e-05
0.000173305
0.00371519
6.71062e-05
-0.00059432
0.000492448
0.000121886
-7.49459e-05
-0.00331753
-0.000308502
0.000346705
-9.57085e-05
0.00119754
0.000800974
-0.00566959
6.25545e-05
0.000672336
0.000880281
0.0640965
-0.0175629
0.00913083
-1.27654e-05
-0.00994924
0.0743674
6.87517e-05
-0.00102253
3.04099e-05
0.00545087
0
0.0843878
-6.45981e-05
0.00472692
-0.000143131
0.000537928
0.0128983
0.000288403
-0.000840993
0.00125494
0.0601966
5.82648e-05
0.0015821
-0.00238436
0.00177441
-0.000104842
0.00463645
-0.000344405
0
-0.0463047
0.0017605
0.00903336
-0.00670283
-0.00185813
0.00402824
-0.000627208
-0.000327888
1.10536
0.000253178
-1.46995e-05
-0.000874009
0.000144559
-7.34053e-05
0.0537275
0.00755401
0.0151755
-0.0040311
-0.000298019
0.0252246
1.55668
-0.000688766
-0.000145078
-0.0348739
-0.000584519
-0.0118555
0.00784168
0.0203973
-0.00228698
0.000192855
0.0509258
0.00339457
-0.00646202
0.00217662
0.0291504
-0.00408364
0.0251894
0.00213184
0.00622667
-0.00224442
0.00332288
1.72697
-0.000175038
0.18185
6.69072e-05
0.000982572
0.00317733
-0.000331496
0.0640089
-0.000145184
-0.00065471
0.0117718
0.000723925
6.02592e-05
0.00229428
0
0.000481293
0.00738023
-0.00414642
1.55524
6.71666e-05
0.000778449
-0.00198352
0.0518679
-2.11669e-05
0
0.00127884
-0.000270554
0.0225875
0.00125701
-0.000442879
0.000708251
-0.000222769
0.0114419
-0.000269207
0.00285622
-6.77993e-05
0.0201737
-0.0314302
0.0538756
0.000167462
0.000797107
-0.000155516
-0.000443877
0.000206499
0.0129412
0.00862727
-0.000661486
-0.000932851
-0.000293293
8.32058e-05
-0.0002624
0.000137014
-5.15031e-05
-1.90062e-05
-0.000154367
0.590567
-0.00304481
1.08729e-06
8.57357e-05
0.0001748
0.51567
-3.71001e-05
0.247816
0.0056337
-0.000105138
-0.000219575
0.000986272
-0.00106663
-0.000111223
-0.00138415
0.0022182
-0.00113134
-0.000382076
-0.00133042
0.00124487
-0.000112786
-0.000139607
0.000125496
-0.00259517
-3.96248e-05
0.00147242
-0.0014375
3.12684e-05
0.00380003
-9.93172e-05
0.000110011
-0.00135957
-0.000295017
0.00218075
0.0012576
-0.00127001
0.00166649
-0.000705875
0.00010382
-0.000118176
0.00110171
0.000421071
0.000992628
0.691316
0.0118154
0.116963
-5.89749e-05
-6.3952e-05
-3.29778e-05
-0.000603204
-0.000837696
0.0145754
0.0456324
0.177191
-0.0053054
0.166331
0.0654178
-0.00882024
0.00555767
0.00832212
0.00522301
0.00943482
-0.0145981
0.0330966
0.444013
0.70572
0.710638
1.43497
1.31329
0.354578
0.00665128
-0.00150426
-0.0198979
1.135
1.28025
1.5427
0.0253871
0.0691115
0.296262
0.53801
1.69614
0.109183
0.0294645
0.303073
1.63626
0.00281529
-0.00226658
1.39407
0.0118184
-0.00910201
1.5037
-0.00649132
0.0286942
0.011029
0.0574259
0.832319
1.11028
1.07054
0.181645
1.04922
1.06843
1.10185
0.965238
0.0326854
1.4729
0.490092
0.97444
0.27268
0.917856
1.20893
0.215696
0.136791
0.225055
1.68221
0.850819
0.936518
1.59983
-0.00565531
-0.00884897
0.128864
-0.0044504
-0.000823708
-0.00202316
0.00269376
0.000749961
0.00609805
-0.00711085
0.0267878
0.478703
0.00042179
-0.0021182
0.0616617
0.136988
0.367746
0.501165
-0.0141355
0.837383
0.316303
0
0.0265402
-0.00299036
-0.000711863
