# vtk DataFile Version 2.0
Unstructured Grid by M++
ASCII
DATASET UNSTRUCTURED_GRID
POINTS 1072 float
  0.593750   1.000000 0
  0.718750   0.656250 0
  0.625000   0.968750 0
  0.625000   1.000000 0
  0.843750   0.562500 0
  0.875000   0.562500 0
  0.875000   0.531250 0
  0.562500   0.531250 0
  0.687500   1.000000 0
  0.875000   0.593750 0
  0.562500   0.593750 0
  0.625000   0.531250 0
  0.593750   0.562500 0
  0.593750   0.531250 0
  0.562500   0.562500 0
  0.593750   0.625000 0
  0.593750   0.593750 0
  0.562500   0.625000 0
  0.593750   0.687500 0
  0.562500   0.687500 0
  0.906250   0.500000 0
  0.656250   0.750000 0
  0.625000   0.937500 0
  0.593750   0.968750 0
  0.812500   0.531250 0
  0.625000   0.906250 0
  0.906250   0.625000 0
  0.656250   0.593750 0
  0.531250   0.937500 0
  0.593750   0.656250 0
  0.687500   0.562500 0
  0.625000   0.593750 0
  0.656250   0.562500 0
  0.625000   0.562500 0
  0.718750   1.000000 0
  0.687500   0.625000 0
  0.562500   0.968750 0
  0.656250   0.625000 0
  0.531250   0.968750 0
  0.625000   0.625000 0
  0.656250   0.656250 0
  0.531250   1.000000 0
  0.625000   0.656250 0
  0.625000   0.687500 0
  0.937500   0.562500 0
  0.937500   0.656250 0
  0.968750   0.625000 0
  0.937500   0.625000 0
  0.968750   0.593750 0
  0.937500   0.593750 0
  0.843750   0.531250 0
  0.812500   0.562500 0
  0.625000   0.875000 0
  0.812500   0.687500 0
  1.000000   0.625000 0
  0.750000   0.968750 0
  0.843750   0.843750 0
  1.000000   0.937500 0
  1.000000   0.906250 0
  0.937500   0.687500 0
  0.843750   0.781250 0
  0.750000   1.000000 0
  0.968750   0.562500 0
  0.968750   0.937500 0
  0.968750   0.906250 0
  0.968750   0.875000 0
  0.656250   0.781250 0
  1.000000   0.593750 0
  0.562500   0.937500 0
  0.656250   0.843750 0
  1.000000   0.656250 0
  0.656250   0.812500 0
  0.656250   0.875000 0
  0.781250   0.531250 0
  1.000000   0.687500 0
  0.906250   0.906250 0
  0.843750   0.687500 0
  0.843750   0.656250 0
  0.656250   0.906250 0
  0.937500   0.843750 0
  0.937500   0.906250 0
  0.937500   0.937500 0
  0.937500   0.875000 0
  0.625000   0.750000 0
  0.625000   0.812500 0
  0.625000   0.781250 0
  0.906250   1.000000 0
  0.625000   0.843750 0
  0.968750   0.656250 0
  0.968750   0.500000 0
  0.937500   0.531250 0
  0.875000   0.875000 0
  0.875000   0.812500 0
  0.718750   0.968750 0
  0.906250   0.812500 0
  0.843750   0.812500 0
  0.812500   0.812500 0
  0.718750   0.937500 0
  0.687500   0.937500 0
  0.906250   0.593750 0
  0.968750   0.531250 0
  0.875000   0.625000 0
  0.906250   0.875000 0
  0.781250   1.000000 0
  0.968750   0.687500 0
  0.875000   0.781250 0
  0.875000   0.687500 0
  0.812500   0.781250 0
  0.906250   0.687500 0
  0.875000   0.656250 0
  1.000000   0.562500 0
  0.812500   0.750000 0
  0.906250   0.656250 0
  0.843750   0.750000 0
  0.562500   1.000000 0
  0.687500   0.656250 0
  0.562500   0.656250 0
  0.593750   0.906250 0
  0.593750   0.937500 0
  0.562500   0.875000 0
  0.593750   0.843750 0
  0.593750   0.875000 0
  0.750000   0.687500 0
  0.781250   0.687500 0
  0.750000   0.718750 0
  0.781250   0.718750 0
  0.750000   0.750000 0
  0.562500   0.812500 0
  0.593750   0.781250 0
  0.593750   0.812500 0
  0.750000   0.625000 0
  0.781250   0.625000 0
  0.750000   0.656250 0
  0.812500   0.625000 0
  0.781250   0.656250 0
  0.562500   0.906250 0
  0.562500   0.843750 0
  0.562500   0.750000 0
  0.593750   0.750000 0
  0.562500   0.781250 0
  0.656250   0.937500 0
  0.531250   0.531250 0
  0.531250   0.562500 0
  0.531250   0.593750 0
  0.531250   0.625000 0
  0.531250   0.656250 0
  0.531250   0.687500 0
  0.812500   0.593750 0
  0.843750   0.593750 0
  0.781250   0.750000 0
  0.781250   0.781250 0
  0.531250   0.812500 0
  0.531250   0.843750 0
  0.531250   0.750000 0
  0.531250   0.718750 0
  0.531250   0.906250 0
  0.875000   0.843750 0
  0.531250   0.875000 0
  0.718750   0.718750 0
  0.687500   0.687500 0
  0.718750   0.687500 0
  0.718750   0.625000 0
  0.562500   0.718750 0
  0.687500   0.593750 0
  0.718750   0.593750 0
  0.718750   0.562500 0
  0.750000   0.562500 0
  0.656250   0.968750 0
  0.656250   0.687500 0
  1.000000   0.968750 0
  0.625000   0.718750 0
  0.656250   0.718750 0
  0.843750   0.625000 0
  0.812500   0.656250 0
  0.812500   0.718750 0
  0.687500   0.968750 0
  0.656250   1.000000 0
  0.687500   0.531250 0
  0.718750   0.531250 0
  0.906250   0.562500 0
  1.000000   0.531250 0
  0.750000   0.531250 0
  0.750000   0.593750 0
  0.781250   0.875000 0
  0.781250   0.562500 0
  0.781250   0.593750 0
  0.593750   0.281250 0
  0.593750   0.250000 0
  0.562500   0.250000 0
  0.562500   0.031250 0
  0.593750   0.375000 0
  0.718750   0.031250 0
  0.593750   0.343750 0
  0.687500   0.250000 0
  0.656250   0.437500 0
  0.781250   0.093750 0
  0.625000   0.406250 0
  0.750000   0.062500 0
  0.687500   0.500000 0
  0.812500   0.156250 0
  0.593750   0.031250 0
  0.562500   0.000000 0
  0.625000   0.125000 0
  0.625000   0.093750 0
  0.593750   0.093750 0
  0.593750   0.062500 0
  0.687500   0.437500 0
  0.781250   0.343750 0
  0.906250   0.000000 0
  0.781250   0.312500 0
  0.656250   0.406250 0
  0.750000   0.312500 0
  0.687500   0.468750 0
  0.812500   0.125000 0
  0.906250   0.031250 0
  0.656250   0.312500 0
  0.625000   0.281250 0
  0.687500   0.375000 0
  0.656250   0.343750 0
  0.625000   0.312500 0
  0.656250   0.375000 0
  0.625000   0.343750 0
  0.625000   0.375000 0
  0.750000   0.125000 0
  0.625000   0.468750 0
  0.687500   0.062500 0
  0.562500   0.406250 0
  0.656250   0.031250 0
  0.531250   0.375000 0
  0.625000   0.000000 0
  0.656250   0.062500 0
  0.531250   0.406250 0
  0.625000   0.031250 0
  0.625000   0.062500 0
  0.750000   0.406250 0
  0.843750   0.312500 0
  0.812500   0.343750 0
  0.937500   0.000000 0
  0.843750   0.343750 0
  0.968750   0.000000 0
  0.812500   0.312500 0
  0.968750   0.093750 0
  0.937500   0.062500 0
  0.750000   0.187500 0
  0.656250   0.281250 0
  0.843750   0.093750 0
  0.750000   0.156250 0
  0.625000   0.500000 0
  0.843750   0.062500 0
  0.625000   0.250000 0
  0.812500   0.062500 0
  0.968750   0.062500 0
  0.843750   0.375000 0
  0.968750   0.031250 0
  0.812500   0.375000 0
  0.937500   0.031250 0
  0.906250   0.062500 0
  0.781250   0.125000 0
  0.656250   0.468750 0
  0.875000   0.031250 0
  0.937500   0.218750 0
  0.937500   0.250000 0
  0.937500   0.312500 0
  0.937500   0.343750 0
  0.937500   0.375000 0
  0.937500   0.406250 0
  1.000000   0.000000 0
  0.875000   0.343750 0
  0.937500   0.437500 0
  0.562500   0.312500 0
  0.656250   0.218750 0
  1.000000   0.031250 0
  0.875000   0.375000 0
  0.625000   0.437500 0
  0.750000   0.093750 0
  0.968750   0.250000 0
  0.968750   0.343750 0
  0.968750   0.375000 0
  0.968750   0.406250 0
  0.968750   0.468750 0
  0.968750   0.437500 0
  0.937500   0.156250 0
  1.000000   0.406250 0
  1.000000   0.375000 0
  0.875000   0.406250 0
  1.000000   0.062500 0
  0.593750   0.000000 0
  1.000000   0.500000 0
  0.531250   0.000000 0
  1.000000   0.468750 0
  1.000000   0.437500 0
  0.750000   0.375000 0
  0.843750   0.281250 0
  0.156250   0.531250 0
  1.000000   0.312500 0
  0.031250   0.875000 0
  0.000000   0.750000 0
  0.031250   0.750000 0
  0.031250   0.781250 0
  0.031250   0.812500 0
  0.031250   0.843750 0
  0.156250   0.500000 0
  1.000000   0.281250 0
  0.125000   0.968750 0
  0.250000   0.625000 0
  0.187500   1.000000 0
  1.000000   0.718750 0
  0.312500   0.000000 0
  0.312500   0.656250 0
  0.156250   1.000000 0
  0.968750   0.718750 0
  0.281250   0.000000 0
  0.281250   0.656250 0
  0.125000   0.843750 0
  0.156250   0.843750 0
  0.000000   0.718750 0
  0.843750   0.500000 0
  0.281250   0.687500 0
  0.437500   0.781250 0
  0.312500   1.000000 0
  0.281250   1.000000 0
  0.375000   0.781250 0
  0.312500   0.500000 0
  0.437500   0.156250 0
  0.343750   0.500000 0
  0.468750   0.156250 0
  0.250000   0.156250 0
  0.343750   0.125000 0
  0.218750   0.468750 0
  0.375000   0.375000 0
  0.437500   0.312500 0
  0.406250   0.312500 0
  0.062500   0.375000 0
  0.093750   0.281250 0
  0.093750   0.343750 0
  0.937500   0.125000 0
  0.906250   0.718750 0
  0.218750   0.000000 0
  0.250000   0.968750 0
  0.531250   0.062500 0
  0.156250   0.062500 0
  0.312500   0.187500 0
  1.000000   0.875000 0
  0.312500   0.156250 0
  0.281250   0.187500 0
  0.906250   0.781250 0
  0.218750   0.062500 0
  0.718750   0.781250 0
  0.031250   0.062500 0
  0.375000   0.000000 0
  0.718750   0.750000 0
  0.031250   0.031250 0
  0.687500   0.781250 0
  0.000000   0.062500 0
  0.250000   0.500000 0
  0.375000   0.156250 0
  0.281250   0.468750 0
  0.406250   0.125000 0
  0.406250   0.343750 0
  0.062500   0.406250 0
  0.312500   0.437500 0
  0.437500   0.093750 0
  0.781250   0.031250 0
  0.250000   0.468750 0
  0.375000   0.125000 0
  0.281250   0.437500 0
  0.406250   0.093750 0
  0.406250   0.437500 0
  0.406250   0.406250 0
  0.375000   0.437500 0
  0.031250   1.000000 0
  0.187500   0.437500 0
  1.000000   0.812500 0
  0.312500   0.093750 0
  0.218750   0.437500 0
  0.343750   0.093750 0
  0.250000   0.437500 0
  0.375000   0.093750 0
  0.218750   0.406250 0
  0.343750   0.062500 0
  0.250000   0.406250 0
  0.375000   0.062500 0
  0.281250   0.218750 0
  0.187500   0.312500 0
  0.250000   0.218750 0
  0.156250   0.312500 0
  1.000000   0.093750 0
  0.125000   0.312500 0
  0.406250   0.000000 0
  0.750000   0.781250 0
  0.062500   0.062500 0
  0.375000   0.500000 0
  0.500000   0.156250 0
  0.312500   0.968750 0
  0.125000   0.468750 0
  0.500000   0.375000 0
  0.437500   0.406250 0
  0.375000   0.468750 0
  0.468750   0.375000 0
  0.125000   0.437500 0
  0.343750   0.468750 0
  0.468750   0.125000 0
  0.437500   0.375000 0
  0.093750   0.437500 0
  0.125000   0.093750 0
  0.500000   0.937500 0
  0.718750   0.906250 0
  0.031250   0.187500 0
  0.687500   0.906250 0
  0.000000   0.187500 0
  0.937500   0.781250 0
  0.250000   0.062500 0
[...]
POINT_DATA 1072
SCALARS scalar_value float 1
LOOKUP_TABLE default
0
-0.00123699
-0.000340661
0
0.00099554
-0.000145826
-0.00140576
8.44642e-05
0
0.000259504
-0.000282752
0.000911699
0.000897212
0.00136316
-0.000128452
0.00114726
0.000871391
-0.000876849
0.00121361
-0.000582393
0.0165552
-4.02653e-05
7.01858e-06
-0.000499686
-0.00180047
-0.00066696
0.00107083
0.000117919
-0.000353523
0.00057146
0.000899993
-0.000295057
0.00224721
0.000602645
0
0.0001239
-0.000840789
0.00015688
-0.000923052
-0.000246171
-0.000404069
0
-0.000658549
-0.000397146
0.0039541
-0.00113735
0.000871261
0.0012358
-0.000425363
-0.00217789
-0.0011273
0.00107147
0.00019612
-0.000252337
0.000812235
4.06714e-05
-0.000111351
-2.09318e-05
-3.19783e-06
0.000705249
-0.000629771
0
-0.000747243
-5.14172e-05
2.52775e-05
2.8274e-05
-0.00102443
-0.00196158
-2.8686e-05
-0.000841537
-0.000170531
0.000236445
2.28373e-05
-0.00114105
-0.000164602
9.94872e-05
0.000251493
-0.00014431
-0.000445382
0.00012683
-1.41154e-05
3.64797e-05
3.27854e-05
0.000175164
0.000296751
-0.00136178
0
-0.00106993
-0.000725177
0.00106336
-0.00498186
0.000114759
0.000254952
-4.58294e-06
0.000436703
0.000584036
0.000274838
0.000224638
0.000109939
-0.00094342
0.000156822
0.000377325
7.57241e-05
0
0.000306337
-0.000440183
0.00108961
-0.000978177
0.000917489
-0.000585514
0.00275137
9.59959e-05
-0.00127945
0.000715263
0
-0.000862542
-0.00118554
-0.000907865
9.54772e-05
-0.000456177
-0.00113471
9.21254e-05
0.000813822
0.000420965
-0.00054011
-1.80536e-05
0.000268377
-0.00108879
-0.000965654
-0.000316861
0.00131513
0.00107028
-0.00117112
0.000308252
-0.000673551
-0.00114548
-0.00118133
-0.000738756
-0.000188043
-0.001185
-0.000107318
-0.00120451
-0.00129848
-0.0016149
-0.00173509
-0.00159158
-0.00154724
-0.00150002
-0.000346399
0.0002388
-5.50882e-05
-0.00130807
-0.00125389
-0.00155683
-0.00173424
-0.0010664
-0.000111595
-0.000914412
-0.00101506
0.000499601
0.000854867
0.000685975
-0.000732239
-0.000280736
-0.000456455
-0.000155743
0.000950939
-0.000347847
-2.48832e-05
-7.99787e-05
-0.000961957
-0.000885165
-0.00014386
-0.000570999
-0.000555062
-0.000292199
0
1.49717e-05
0.000114453
-0.000837291
-0.00249859
-0.000380099
-0.00123157
0.00184003
0.00116968
-0.00127901
0.000363521
0.0304568
0.00177519
0.0561141
0.00227436
0.0327623
-3.46072e-05
0.00823828
0.00223906
2.87109e-05
0.000449656
-0.00269688
0.00125872
-0.0029839
0.162798
0.0991029
0.0372403
0.101304
0.0676576
0.11666
0.000845934
-0.00528456
-0.00129124
0.00809678
0.000555139
0.00429493
-1.26364e-05
0.00262896
-0.00169512
0.00116703
0.00315926
0.000869383
0.00238988
0.00070079
0.00119949
0.000433569
0.00283453
0.00401431
0.00148944
0.111727
0.00129918
0.563148
0.000367885
0.278065
0.501156
-4.8485e-05
0.133312
0.056844
-0.00224365
0.00595174
-0.00742603
-4.49121e-05
-0.0049424
-0.000167529
0.008481
0.000188937
-0.000117199
0.00902276
-0.000510661
0.00152862
4.86518e-05
0.000678337
0.00163891
0.0094343
0.00185164
6.93589e-05
0.0079219
-7.36492e-05
0.00575163
-0.000139425
-0.00200101
0.00505847
0.000458885
-0.00168311
0.000890498
0.00171963
0.00233952
0.0011355
0.00292742
-0.000540277
-0.000757404
-0.00618711
0.00415492
0.00304551
-0.00718127
-0.000714297
0.00210071
0.00184132
-0.0102364
0.00062561
-0.000168307
0.000255631
-0.000813885
-0.00150972
0.000608572
-7.24859e-05
-0.000909578
0.000157583
-0.00854191
-0.000658099
0.190982
0.00262433
0.0317563
-0.0017649
0.0011164
0.00291667
-0.00171448
0.000598881
-0.000381682
-7.54364e-06
1.93541e-05
5.79331e-06
-1.70011e-05
-8.60161e-06
-9.60513e-06
-0.00151182
-0.000705482
-9.99414e-06
0.00045892
0
4.01015e-05
0.0313403
-7.28743e-05
0
-2.26901e-05
0.00595146
-0.000174662
-3.94664e-05
-1.52585e-05
-6.10169e-05
0.00052471
3.77086e-05
0.000164397
0
0
0.000193863
-0.000395298
0.00744654
-0.000204911
0.00621763
-0.000580576
0.0167926
0.000126252
-0.00086336
0.000426749
0.00387239
0.000100844
-6.99067e-05
-7.61481e-05
-0.000205162
-0.000882756
0.0115008
-1.37129e-05
0.0135227
0.000565277
-0.000611106
-0.000109769
9.2863e-05
-0.000874848
-0.000454932
0.00668306
-0.000371076
-6.7958e-05
0.119801
0.000312491
-2.95931e-05
-0.00109958
-7.99423e-05
-2.43531e-05
0.022521
0.00154914
0.0276481
0.00341732
-6.72555e-05
-0.000164803
0.0321106
-0.00236768
-0.00203584
0.0319132
0.00166368
0.0364788
0.000267605
0.00244145
-0.000632326
0
0.000173279
-4.05811e-05
0.00557585
0.00176689
0.0264218
0.000915718
0.0453084
-0.00046441
0.0395898
-0.0024747
0.0627233
-0.000291411
0.00270571
-0.000531223
-0.000237234
-0.00063906
0.00043285
0.111471
-0.000240985
8.86019e-05
-4.46568e-05
-0.000280514
-6.93772e-05
3.96729e-05
0.000428742
3.85819e-05
-0.000273935
0.000151943
0.000508711
0.000152047
0.0440845
-0.000831364
0.000194419
9.62419e-06
-0.000213875
-0.000262064
5.14058e-06
-0.00021445
3.93001e-05
2.71014e-05
0.00105176
-6.21409e-05
0.000679357
-2.35065e-05
-0.000151104
0.0200541
5.79162e-05
-0.00402834
0.00519915
-6.18283e-05
-0.000336955
0.000469542
4.57662e-05
0.000148518
0.00117914
0.0854879
-0.0030658
-5.95758e-07
0.0072278
0.00337456
7.59458e-05
-0.000323365
0.00507984
-5.48106e-05
-6.51118e-05
0.000638255
0.00414481
-0.000170155
7.74858e-05
0.00152173
0.118757
0.000199241
0.000855549
-7.13246e-05
-0.00223976
0.000104783
0.00194441
3.1208e-05
0.00122052
-0.00121159
5.29223e-05
-0.000127969
0.00169826
0.000241597
0
-0.00152938
-0.00078832
0.000225168
0.000177275
0.00107111
-0.000125908
0.00400525
0.000559401
9.24656e-05
2.26908e-05
0.00200544
0.0711496
0.000224688
-3.94549e-05
-3.48533e-05
0.00333169
-0.000726749
-0.000556382
6.3147e-05
-0.00366494
0.00273299
-0.000219525
-0.000613834
0.0231683
0.0293874
5.7746e-05
-0.00152817
-7.38705e-05
0.00313391
-3.41769e-05
-0.000606439
0
-0.00108748
0.0185183
0.136441
5.63394e-05
-3.92166e-05
-0.00187843
0.00248751
0.00285342
-0.00283338
0.00185806
-1.21989e-05
0.000184113
-0.000152081
-9.37451e-05
0.00455841
-0.000559072
0.00121359
-0.000234313
0.00444471
-0.000274084
0.00284655
-0.00057975
7.5652e-06
8.30884e-05
0.000274337
0.00012407
0.00147656
0.000220033
-0.00143722
0.00342343
0.0111373
0.00367125
-0.000115271
-0.000414506
7.9429e-05
-0.00201344
0.175918
4.55574e-06
-4.67777e-05
-0.000407758
-0.000163674
-1.13087e-05
-0.000260032
-0.000428852
-0.000780586
0.00172357
-0.000658754
-1.19434e-05
-3.79985e-06
0.000155485
-0.000451581
-4.31416e-05
0.00549929
-0.000102737
0.000188524
0.000155979
4.61638e-05
-0.00128596
-0.000106334
-0.00140404
-2.17351e-05
0.00162803
0.0063772
-0.00016348
-0.00125221
4.89666e-05
0.00012193
0.000383719
4.36586e-05
-0.000377487
0.0320089
0.117136
-0.00100571
0.000154307
0
0.0012444
-0.000691273
3.63249e-05
-0.00218074
-0.000124446
0.00175407
0.00177876
0.0058176
0.000238104
0.000371204
0.000150691
-3.92712e-05
0.00121955
5.36736e-06
-0.00234954
1.29721e-05
0.0418056
-0.000219596
1.1345e-05
0.0001367
0.000666137
-0.000115424
0
-6.76808e-06
-0.000105135
-0.000244809
0.000281362
-4.14036e-05
-0.00431126
-3.98243e-05
0.000252218
0.000123995
-0.000224268
-0.00133054
0.00291617
-0.000336678
-0.000993795
0.000300951
-0.000110386
0.000105331
0.00166045
0.249649
1.64308e-05
-0.00216203
0.000942794
0.000662624
0.000171841
1.63871e-05
-2.90232e-05
0
0
3.18828e-05
0
0.000570545
0.00415834
-0.000140444
-0.000221088
0.00230888
-0.00220903
-0.000355138
0.000278653
0.0549222
0.000951648
0.00534587
-3.39359e-05
0.0014208
0.00240291
0.00960463
2.43887e-06
-9.27798e-05
-2.34849e-05
2.67446e-05
0
0.000193347
0.00108332
0.0825229
0
0.000138172
-0.00282738
0.00100504
0.0065478
-6.74557e-05
-0.000919731
-6.56657e-05
0.000240733
0.000115857
-4.42481e-05
0
0
0.00267641
0.000544297
0.00181238
-0.000195811
-3.56016e-05
0.000908829
-0.000327654
-3.56553e-05
0.00248589
-0.000139943
-0.00247136
-0.000795981
0.0072067
0.000584347
8.36683e-05
0.0840174
-0.000722554
0.00152741
-4.12102e-06
0.0067765
0.00806145
0.00137858
0.0215501
0.000177861
-0.00013337
-2.05577e-05
0.000424617
0.000144228
0.00393882
-8.47065e-05
4.33249e-05
0.000261893
-0.000243376
-0.000116297
4.12746e-05
0.00498325
-8.45737e-05
0.00352358
-3.6434e-05
0.000460245
0.00837544
0.000431891
0.000362611
-0.000486128
0.00604568
0
0.000215032
5.95135e-05
0.00034003
-1.96981e-05
-0.00012528
0.0476051
0.0034491
3.74464e-05
4.44541e-05
-1.50114e-06
2.48569e-05
-0.00112384
-0.000341774
-0.000793235
-0.000566423
0.00139611
0.0578002
-1.88259e-05
0.00183573
0.000801509
0.000568884
0.000127968
0.00227071
-0.000379251
-3.31316e-06
-3.73248e-05
-0.00107699
-8.52169e-05
0.0106272
-0.000262893
3.01964e-07
-1.21492e-05
-0.000704399
-5.30284e-05
0.0186536
0.0216606
-9.53153e-05
-0.000174414
5.95036e-05
0.00161434
-0.000147335
1.97719e-06
-5.75334e-05
0.000605914
-0.000611945
-8.24771e-05
0.000597632
-1.1658e-06
-1.58639e-05
-2.48832e-05
-0.000658022
5.37067e-05
-0.000988938
0.000813919
0.000410295
-0.00268807
2.23975e-05
-0.00798151
7.27651e-05
-0.00214554
0.0152095
0.000843114
-0.000899134
5.93463e-06
0.0002249
-5.30025e-05
-0.00065623
6.24301e-05
-0.000199765
-3.96547e-05
0.000104594
-3.72244e-05
-1.5832e-05
0.00218813
-2.75225e-05
1.88692e-05
-0.0082209
6.04934e-05
-0.00115333
5.66277e-05
-6.93123e-05
-1.29823e-05
0.000215245
-5.262e-06
0
1.34112e-05
-1.3479e-07
-7.8573e-05
-0.000101127
-9.71785e-06
9.105e-05
-0.000345335
-9.86979e-06
6.00621e-05
-7.55553e-05
-2.58595e-05
-7.34252e-05
-0.00059231
6.88896e-05
-0.000120741
-5.67033e-05
-4.55474e-05
-0.00018124
0.00345886
-8.45334e-05
9.73306e-05
-0.000152592
0.000432682
0.006755
-0.000770742
-7.434e-06
0.00079188
0.00141693
-1.00238e-05
0.000156197
-1.59834e-05
-0.000433281
0
0.000314226
-3.79737e-05
-0.000513751
-7.79888e-06
-0.000103153
0.000491912
-5.24069e-05
1.69394e-05
-6.90187e-05
9.47715e-05
-4.11866e-06
-8.7711e-05
0.000444433
-0.00118604
-4.07962e-05
0.00361385
-6.24594e-05
0
0.00412696
0.000133373
0.000525231
-0.00123277
9.14017e-05
-0.000246058
0.00026627
-0.000244738
0.0700969
-6.93245e-05
2.49122e-05
0.000234986
-3.85214e-05
2.349e-05
0.000185193
-4.7749e-05
0.000354943
-1.58228e-05
-1.82623e-05
0.00026221
0.00991838
1.86968e-05
3.7493e-07
-0.00114101
0.000179541
-0.000190381
0.000433229
-0.0011878
6.1132e-05
-1.1058e-05
0.00113016
5.77007e-05
-0.00082092
0.000243509
0.000317123
-2.39212e-05
0.000350449
0.000101865
-0.000553114
0.000133334
0.000412677
-0.00527872
-3.3888e-05
0.00431664
-6.93741e-05
6.18663e-05
-0.000221234
-5.61811e-06
-0.00325976
3.52261e-05
7.51495e-05
0.000326571
2.90752e-05
-6.99698e-06
-0.000643022
0
-6.5313e-05
-0.00298677
-0.00131618
0.0213042
1.84726e-05
7.72843e-05
0.000349378
0.00022223
-8.23284e-06
0
-0.000753781
-9.22239e-05
-0.00106996
-0.000177922
1.87459e-05
3.52754e-05
-6.06302e-05
-0.00429238
-1.4856e-05
0.000292483
0.000312352
1.26594e-05
4.84937e-05
-0.000103209
-4.66313e-05
-3.37612e-05
-2.092e-05
2.72762e-06
-2.24162e-05
-6.79606e-05
0.0001586
-3.00732e-05
-2.73028e-05
1.47498e-05
3.67914e-05
-2.05046e-05
-3.83849e-05
5.65687e-06
4.70813e-05
6.99476e-05
-0.0014681
0.00317166
-3.708e-06
-2.75849e-05
-1.07496e-05
-0.000748748
-3.79631e-05
-0.00026829
-0.000237364
4.70085e-06
-3.23249e-05
-7.81746e-05
1.25937e-05
-1.50211e-06
0.000270918
-9.51427e-05
-6.92454e-05
-6.4217e-06
0.000112121
-0.000148282
-1.34206e-05
0.000109536
-6.10179e-05
0.000180209
-9.12624e-07
-6.72241e-05
0.000280545
-6.67311e-06
-0.000418905
-0.000777747
-1.89975e-05
0.000128166
9.37284e-05
-0.00112714
8.99906e-05
-3.77203e-05
-0.000363243
-0.000154609
-1.22899e-05
7.38742e-06
-0.000131831
0.000423439
-0.000222123
0.0480088
-0.00166038
0.00167661
-2.8248e-05
1.85587e-06
-0.000231503
0.000710757
5.24229e-05
-0.0022309
0.00105036
-0.00210579
0.000272683
-0.00359467
0.00894497
0.00183271
-0.00250045
-0.00118795
-0.000514052
0.000193553
0.000230755
0.000284421
-0.0136606
-0.00601947
0.0185034
-0.0115042
0.0331027
0.229756
-0.00095175
0.00013369
0.00269127
0.000142956
0.0040024
0.0193935
0.000914782
0.695028
0.00163791
0.000285253
-0.000111474
-0.00322026
0.00247988
-0.000160906
0.013939
0.0002413
-0.00282821
-0.00340669
0.000407021
0.000356557
0.00267351
-0.000336963
-0.000525705
0.000167342
0.00121554
0.00131305
0.00487393
0.00409356
0.00116512
-0.013136
0.0858884
-0.00633864
0.110481
-0.00228646
0.0312246
0.00478862
0.0360978
0.00175269
0.00326363
-0.00119274
-0.00703617
-0.00982467
0.0111413
-0.0197471
0.0856182
0.0835116
0.0089621
0.00123062
0.00876778
-4.82066e-05
-0.00164684
-0.000702613
0.00221869
-0.000965906
0.00068181
-0.00249344
0.00208864
0.00506063
0.00546749
0.000334002
-0.00294976
-0.00582842
-0.00189404
0.00195716
0.00134717
0.00452802
0.0689145
0.000773011
0
-0.00311508
-1.80101e-05
0.000371795
