# vtk DataFile Version 2.0
Unstructured Grid by M++
ASCII
DATASET UNSTRUCTURED_GRID
POINTS 289 float
  0.875000   0.812500 0
  0.187500   0.312500 0
  0.875000   0.750000 0
  0.812500   0.750000 0
  0.125000   0.250000 0
  0.812500   0.687500 0
  0.437500   0.625000 0
  0.437500   0.687500 0
  0.812500   0.562500 0
  0.125000   0.062500 0
  0.125000   0.125000 0
  0.375000   0.562500 0
  0.312500   0.562500 0
  0.312500   0.625000 0
  0.687500   0.250000 0
  0.687500   0.312500 0
  0.187500   0.250000 0
  0.875000   0.687500 0
  0.562500   0.875000 0
  0.750000   0.812500 0
  0.062500   0.375000 0
  0.062500   0.312500 0
  0.500000   0.812500 0
  0.812500   0.812500 0
  0.125000   0.312500 0
  0.562500   0.812500 0
  0.562500   0.750000 0
  0.812500   0.500000 0
  0.125000   0.000000 0
  0.812500   0.437500 0
  0.812500   0.375000 0
  0.750000   0.437500 0
  0.375000   0.625000 0
  0.375000   0.687500 0
  0.687500   0.562500 0
  0.687500   0.625000 0
  0.000000   0.125000 0
  0.562500   0.312500 0
  0.937500   0.187500 0
  0.937500   0.250000 0
  0.312500   0.500000 0
  1.000000   1.000000 0
  0.312500   0.437500 0
  1.000000   0.937500 0
  1.000000   0.875000 0
  0.625000   0.312500 0
  0.875000   0.312500 0
  0.625000   0.375000 0
  0.375000   0.375000 0
  0.375000   0.312500 0
  0.875000   0.375000 0
  0.687500   0.375000 0
  0.937500   0.375000 0
  0.750000   0.375000 0
  0.750000   0.312500 0
  1.000000   0.375000 0
  0.937500   0.312500 0
  0.625000   0.250000 0
  0.625000   0.187500 0
  0.875000   0.250000 0
  0.812500   0.125000 0
  0.812500   0.062500 0
  1.000000   0.125000 0
  0.750000   0.125000 0
  0.562500   0.250000 0
  0.562500   0.187500 0
  0.812500   0.250000 0
  0.812500   0.187500 0
  0.500000   0.187500 0
  0.500000   0.125000 0
  1.000000   0.187500 0
  0.750000   0.187500 0
  0.250000   0.250000 0
  0.937500   0.687500 0
  0.250000   0.187500 0
  0.500000   0.250000 0
  1.000000   0.250000 0
  1.000000   0.312500 0
  0.750000   0.250000 0
  0.937500   0.875000 0
  0.250000   0.375000 0
  0.937500   0.812500 0
  0.625000   0.875000 0
  0.625000   0.812500 0
  0.875000   0.875000 0
  0.187500   0.375000 0
  0.875000   0.937500 0
  0.187500   0.437500 0
  0.187500   0.500000 0
  0.000000   0.875000 0
  0.000000   0.937500 0
  0.250000   0.937500 0
  0.500000   0.937500 0
  0.687500   0.000000 0
  0.937500   0.000000 0
  0.625000   0.000000 0
  0.875000   0.000000 0
  0.875000   0.562500 0
  0.187500   0.062500 0
  0.750000   0.937500 0
  0.750000   1.000000 0
  0.062500   0.500000 0
  0.937500   0.125000 0
  0.437500   0.062500 0
  0.437500   0.125000 0
  0.687500   0.125000 0
  0.687500   1.000000 0
  0.000000   0.500000 0
  0.937500   0.625000 0
  0.250000   0.125000 0
  0.187500   0.937500 0
  0.437500   1.000000 0
  0.437500   0.937500 0
  0.000000   1.000000 0
  0.500000   1.000000 0
  0.250000   1.000000 0
  0.500000   0.312500 0
  0.125000   0.562500 0
  0.812500   1.000000 0
  0.562500   1.000000 0
  0.312500   1.000000 0
  0.062500   1.000000 0
  0.062500   0.937500 0
  0.125000   1.000000 0
  0.750000   0.750000 0
  0.062500   0.250000 0
  0.187500   0.687500 0
  0.437500   0.312500 0
  0.625000   0.062500 0
  0.875000   0.062500 0
  0.500000   0.437500 0
  0.500000   0.500000 0
  0.812500   0.000000 0
  0.562500   0.000000 0
  0.125000   0.937500 0
  0.062500   0.562500 0
  0.375000   0.250000 0
  0.187500   1.000000 0
  0.125000   0.625000 0
  0.812500   0.312500 0
  1.000000   0.750000 0
  0.312500   0.250000 0
  0.312500   0.312500 0
  0.437500   0.375000 0
  0.437500   0.437500 0
  0.437500   0.250000 0
  0.000000   0.687500 0
  0.500000   0.750000 0
  0.500000   0.687500 0
  0.250000   0.687500 0
  0.187500   0.625000 0
  0.375000   0.125000 0
  0.625000   0.125000 0
  0.875000   0.187500 0
  0.875000   0.125000 0
  0.687500   0.437500 0
  0.000000   0.000000 0
  0.937500   0.437500 0
  0.250000   0.000000 0
  0.500000   0.000000 0
  0.437500   0.500000 0
  0.625000   0.437500 0
  0.375000   0.437500 0
  0.562500   0.062500 0
  1.000000   0.500000 0
  0.312500   0.062500 0
  1.000000   0.062500 0
  0.750000   0.000000 0
  0.750000   0.062500 0
  0.437500   0.812500 0
  0.062500   0.437500 0
  0.750000   0.875000 0
  0.500000   0.875000 0
  0.562500   0.937500 0
  0.437500   0.187500 0
  0.687500   0.187500 0
  0.375000   1.000000 0
  0.625000   1.000000 0
  0.500000   0.562500 0
  0.937500   1.000000 0
  0.250000   0.500000 0
  0.250000   0.562500 0
  0.687500   0.062500 0
  0.937500   0.062500 0
  0.562500   0.437500 0
  0.562500   0.500000 0
  0.250000   0.437500 0
  0.937500   0.937500 0
  0.312500   0.000000 0
  1.000000   0.437500 0
  0.500000   0.062500 0
  0.687500   0.500000 0
  0.000000   0.062500 0
  0.000000   0.562500 0
  0.000000   0.625000 0
  0.500000   0.625000 0
  0.250000   0.625000 0
  0.437500   0.875000 0
  0.000000   0.437500 0
  0.687500   0.937500 0
  0.687500   0.875000 0
  0.187500   0.875000 0
  0.625000   0.937500 0
  0.562500   0.562500 0
  1.000000   0.000000 0
  0.375000   0.187500 0
  0.062500   0.625000 0
  0.062500   0.687500 0
  0.562500   0.687500 0
  0.312500   0.687500 0
  0.437500   0.562500 0
  0.875000   1.000000 0
  0.187500   0.562500 0
  1.000000   0.812500 0
  0.312500   0.375000 0
  0.562500   0.375000 0
  0.125000   0.687500 0
  0.125000   0.750000 0
  0.375000   0.750000 0
  0.625000   0.750000 0
  0.000000   0.187500 0
  0.687500   0.687500 0
  0.187500   0.187500 0
  0.187500   0.125000 0
  0.875000   0.625000 0
  0.625000   0.625000 0
  0.750000   0.625000 0
  0.062500   0.187500 0
  0.750000   0.687500 0
  0.312500   0.187500 0
  1.000000   0.687500 0
  0.625000   0.687500 0
  0.750000   0.562500 0
  0.062500   0.125000 0
  0.562500   0.125000 0
  1.000000   0.562500 0
  0.312500   0.125000 0
  1.000000   0.625000 0
  0.000000   0.312500 0
  0.000000   0.250000 0
  0.687500   0.750000 0
  0.250000   0.312500 0
  0.937500   0.750000 0
  0.437500   0.750000 0
  0.937500   0.500000 0
  0.250000   0.062500 0
  0.937500   0.562500 0
  0.562500   0.625000 0
  0.125000   0.187500 0
  0.812500   0.625000 0
  0.125000   0.437500 0
  0.812500   0.875000 0
  0.125000   0.375000 0
  0.000000   0.812500 0
  0.250000   0.875000 0
  0.250000   0.812500 0
  0.750000   0.500000 0
  0.062500   0.062500 0
  0.062500   0.000000 0
  0.187500   0.812500 0
  0.187500   0.750000 0
  0.062500   0.875000 0
  0.312500   0.937500 0
  0.312500   0.875000 0
  0.375000   0.812500 0
  0.125000   0.812500 0
  0.437500   0.000000 0
  0.875000   0.437500 0
  0.187500   0.000000 0
  0.875000   0.500000 0
  0.812500   0.937500 0
  0.125000   0.500000 0
  0.375000   0.500000 0
  0.625000   0.562500 0
  0.625000   0.500000 0
  0.312500   0.750000 0
  0.062500   0.750000 0
  0.312500   0.812500 0
  0.062500   0.812500 0
  0.375000   0.062500 0
  0.375000   0.000000 0
  0.125000   0.875000 0
  0.375000   0.937500 0
  0.375000   0.875000 0
  0.687500   0.812500 0
  0.000000   0.375000 0
  0.500000   0.375000 0
  0.000000   0.750000 0
  0.250000   0.750000 0
CELLS 256 1280
4 177 119 202 173
4 82 202 18 173
4 172 18 92 173
4 114 92 119 173
4 151 104 205 174
4 136 205 145 174
4 75 145 68 174
4 96 129 132 61
4 63 168 60 61
4 167 132 168 61
4 196 149 150 126
4 138 150 216 126
4 288 260 149 126
4 136 145 49 127
4 286 143 116 127
4 75 116 145 127
4 217 276 216 207
4 138 216 206 207
4 287 146 276 207
4 272 160 11 210
4 32 11 6 210
4 195 6 178 210
4 131 178 160 210
4 140 213 242 81
4 80 241 214 142
4 48 214 49 142
4 136 49 141 142
4 63 71 105 175
4 152 105 58 175
4 78 14 71 175
4 271 101 250 170
4 171 251 99 270
4 194 206 146 207
4 194 193 206 135
4 138 206 117 135
4 100 99 118 270
4 271 117 101 135
4 107 101 193 135
4 136 141 205 229
4 151 205 236 229
4 172 92 197 112
4 269 27 267 29
4 50 267 30 29
4 48 162 214 42
4 47 161 215 184
4 256 31 27 29
4 225 231 247 208
4 109 236 74 229
4 237 230 108 73
4 59 39 46 56
4 57 58 14 175
4 57 14 45 15
4 72 141 241 142
4 72 74 141 229
4 140 242 230 73
4 50 46 52 56
4 47 45 51 15
4 55 52 77 56
4 123 121 134 122
4 63 60 71 67
4 196 13 149 209
4 195 247 148 208
4 225 273 35 34
4 274 191 273 34
4 211 118 86 270
4 271 88 117 212
4 286 116 215 37
4 53 30 31 29
4 53 54 30 139
4 288 149 275 209
4 217 265 276 278
4 218 264 275 277
4 287 276 253 278
4 288 275 255 277
4 154 60 129 61
4 154 153 60 67
4 89 253 261 278
4 281 134 261 122
4 59 66 153 67
4 147 148 26 208
4 147 26 22 25
4 225 35 231 221
4 47 215 45 37
4 50 30 46 139
4 76 77 39 56
4 76 39 70 38
4 219 231 240 221
4 84 79 86 187
4 80 186 85 87
4 281 261 265 278
4 283 263 264 277
4 57 45 64 37
4 59 46 66 139
4 62 70 102 38
4 78 71 66 67
4 180 181 88 212
4 180 88 186 87
4 211 86 179 187
4 177 202 106 199
4 218 275 33 209
4 219 26 231 208
4 196 150 181 212
4 159 133 190 163
4 217 216 260 126
4 217 260 265 259
4 218 243 264 169
4 219 240 83 284
4 75 64 116 37
4 78 66 54 139
4 59 153 39 38
4 154 102 153 38
4 44 79 213 81
4 44 43 79 187
4 80 214 186 42
4 131 130 185 184
4 286 215 130 184
4 159 190 266 103
4 256 232 191 34
4 36 192 233 257
4 164 235 244 246
4 237 108 235 246
4 109 245 236 165
4 69 190 234 163
4 281 265 201 259
4 283 264 197 169
4 82 200 202 199
4 82 83 200 284
4 151 236 279 165
4 152 234 128 163
4 288 255 260 259
4 254 201 255 259
4 172 197 22 169
4 285 20 198 170
4 171 200 19 284
4 84 86 251 270
4 252 85 250 87
4 271 250 88 87
4 272 162 160 144
4 274 161 191 155
4 269 244 97 246
4 158 245 268 98
4 269 267 244 157
4 280 266 279 103
4 151 279 104 103
4 152 128 105 182
4 154 129 102 183
4 123 134 137 110
4 124 240 228 221
4 239 220 125 227
4 69 68 104 174
4 69 104 190 103
4 224 97 108 246
4 109 223 245 98
4 115 137 91 110
4 114 111 92 112
4 41 179 43 187
4 180 186 40 42
4 226 228 35 221
4 226 35 232 34
4 36 233 220 227
4 75 68 64 65
4 69 234 68 65
4 281 201 134 110
4 176 282 111 112
4 283 197 282 112
4 272 40 162 42
4 89 261 90 122
4 113 90 121 122
4 115 91 120 262
4 57 64 58 65
4 152 58 234 65
4 254 91 201 110
4 107 198 101 170
4 100 106 99 199
4 171 99 200 199
4 124 3 19 23
4 4 24 125 21
4 219 83 26 25
4 82 18 83 25
4 172 22 18 25
4 252 250 20 170
4 252 20 24 21
4 171 19 251 23
4 2 17 242 73
4 72 241 16 1
4 53 51 54 15
4 78 54 14 15
4 2 242 0 81
4 84 0 79 81
4 80 85 241 1
4 84 251 0 23
4 252 24 85 1
4 272 11 40 12
4 32 33 13 209
4 32 13 11 12
4 180 40 181 12
4 196 181 13 12
4 10 248 233 227
4 226 232 249 8
4 195 178 247 203
4 28 9 258 257
4 10 233 9 257
4 256 27 232 8
4 131 185 178 203
4 28 268 9 98
4 269 97 27 8
4 274 185 161 184
4 274 273 185 203
4 10 9 223 98
4 10 223 248 222
4 224 249 97 8
4 225 247 273 203
4 218 33 243 7
4 32 6 33 7
4 147 243 148 7
4 195 148 6 7
4 2 3 17 5
4 4 16 24 1
4 2 0 3 23
4 167 168 93 182
4 204 166 94 183
4 63 105 168 182
4 62 102 166 183
4 95 93 128 182
4 96 94 129 183
4 286 130 143 144
4 131 160 130 144
4 156 258 192 257
4 256 191 31 155
4 158 188 245 165
4 164 244 189 157
4 48 49 143 127
4 48 143 162 144
4 47 51 161 155
4 50 52 267 157
4 53 31 51 155
4 55 189 52 157
4 226 249 228 5
4 4 125 248 227
4 124 228 3 5
4 147 22 243 169
4 285 238 20 21
4 239 125 238 21
4 124 19 240 284
4 280 279 188 165
4 95 128 133 163
4 224 17 249 5
4 4 248 16 222
4 224 108 17 73
4 72 16 74 222
4 109 74 223 222
4 254 255 263 277
4 254 263 91 262
4 283 282 263 262
4 176 120 282 262
4 138 117 150 212
CELL_TYPES 256
8
8
8
8
8
8
8
8
8
8
8
8
8
8
8
8
8
8
8
8
8
8
8
8
8
8
8
8
8
8
8
8
8
8
8
8
8
8
8
8
8
8
8
8
8
8
8
8
8
8
8
8
8
8
8
8
8
8
8
8
8
8
8
8
8
8
8
8
8
8
8
8
8
8
8
8
8
8
8
8
8
8
8
8
8
8
8
8
8
8
8
8
8
8
8
8
8
8
8
8
8
8
8
8
8
8
8
8
8
8
8
8
8
8
8
8
8
8
8
8
8
8
8
8
8
8
8
8
8
8
8
8
8
8
8
8
8
8
8
8
8
8
8
8
8
8
8
8
8
8
8
8
8
8
8
8
8
8
8
8
8
8
8
8
8
8
8
8
8
8
8
8
8
8
8
8
8
8
8
8
8
8
8
8
8
8
8
8
8
8
8
8
8
8
8
8
8
8
8
8
8
8
8
8
8
8
8
8
8
8
8
8
8
8
8
8
8
8
8
8
8
8
8
8
8
8
8
8
8
8
8
8
8
8
8
8
8
8
8
8
8
8
8
8
8
8
8
8
8
8
8
8
8
8
8
8
CELL_DATA 256
VECTORS vector_value float
0 -1 0
0 -1 0
0 -1 0
0 -1 0
0 -1 0
0 -1 0
0 -1 0
0 -1 0
0 -1 0
0 -1 0
0 -1 0
0 -1 0
0 -1 0
0 -1 0
0 -1 0
0 -1 0
0 -1 0
0 -1 0
0 -1 0
0 -1 0
0 -1 0
1.07203e-10 -1 0
1.10301e-10 -1 0
0 -1 0
0 -1 0
0 -1 0
0 -1 0
0 -1 0
0 -1 0
0 -1 0
0 -1 0
0 -1 0
0 -1 0
0 -1 0
0 -1 0
0 -1 0
0 -1 0
0 -1 0
0 -1 0
0 -1 0
0 -1 0
0 -1 0
0 -1 0
0 -1 0
0 -1 0
0 -1 0
0 -1 0
0 -1 0
0 -1 0
0 -1 0
0 -1 0
0 -1 0
0 -1 0
0 -1 0
0 -1 0
0 -1 0
0 -1 0
0 -1 0
0 -1 0
0 -1 0
0 -1 0
0 -1 0
0 -1 0
0 -1 0
-1.16099e-10 -1 0
0 -1 0
0 -1 0
0 -1 0
0 -1 0
0 -1 0
0 -1 0
0 -1 0
0 -1 0
0 -1 0
0 -1 0
0 -1 0
0 -1 0
0 -1 0
0 -1 0
0 -1 0
0 -1 0
0 -1 0
0 -1 0
0 -1 0
0 -1 0
0 -1 0
0 -1 0
0 -1 0
0 -1 0
0 -1 0
0 -1 0
0 -1 0
0 -1 0
0 -1 0
0 -1 0
0 -1 0
0 -1 0
0 -1 0
0 -1 0
0 -1 0
0 -1 0
0 -1 0
0 -1 0
0 -1 0
0 -1 0
0 -1 0
0 -1 0
0 -1 0
0 -1 0
0 -1 0
0 -1 0
0 -1 0
0 -1 0
0 -1 0
1.20359e-10 -1 0
0 -1 0
0 -1 0
0 -1 0
0 -1 0
0 -1 0
0 -1 0
0 -1 0
0 -1 0
0 -1 0
0 -1 0
0 -1 0
0 -1 0
0 -1 0
0 -1 0
0 -1 0
0 -1 0
0 -1 0
0 -1 0
0 -1 0
0 -1 0
0 -1 0
0 -1 0
0 -1 0
0 -1 0
0 -1 0
0 -1 0
0 -1 0
0 -1 0
0 -1 0
0 -1 0
0 -1 0
0 -1 0
0 -1 0
0 -1 0
0 -1 0
0 -1 0
0 -1 0
0 -1 0
0 -1 0
0 -1 0
0 -1 0
0 -1 0
0 -1 0
0 -1 0
0 -1 0
0 -1 0
0 -1 0
0 -1 0
0 -1 0
0 -1 0
0 -1 0
0 -1 0
0 -1 0
0 -1 0
0 -1 0
0 -1 0
0 -1 0
0 -1 0
0 -1 0
0 -1 0
0 -1 0
0 -1 0
0 -1 0
0 -1 0
0 -1 0
0 -1 0
0 -1 0
0 -1 0
0 -1 0
0 -1 0
0 -1 0
0 -1 0
0 -1 0
0 -1 0
0 -1 0
0 -1 0
0 -1 0
0 -1 0
0 -1 0
0 -1 0
0 -1 0
0 -1 0
0 -1 0
0 -1 0
0 -1 0
0 -1 0
0 -1 0
0 -1 0
1.01962e-10 -1 0
0 -1 0
0 -1 0
0 -1 0
0 -1 0
0 -1 0
0 -1 0
0 -1 0
0 -1 0
0 -1 0
0 -1 0
0 -1 0
0 -1 0
0 -1 0
0 -1 0
0 -1 0
0 -1 0
0 -1 0
0 -1 0
0 -1 0
0 -1 0
0 -1 0
0 -1 0
0 -1 0
0 -1 0
0 -1 0
0 -1 0
0 -1 0
0 -1 0
0 -1 0
0 -1 0
0 -1 0
0 -1 0
0 -1 0
0 -1 0
0 -1 0
0 -1 0
0 -1 0
0 -1 0
0 -1 0
0 -1 0
0 -1 0
0 -1 0
0 -1 0
0 -1 0
0 -1 0
0 -1 0
0 -1 0
0 -1 0
0 -1 0
0 -1 0
0 -1 0
0 -1 0
