# vtk DataFile Version 2.0
Unstructured Grid by M++
ASCII
DATASET UNSTRUCTURED_GRID
POINTS 1072 float
  0.843750   0.812500 0
  0.843750   0.781250 0
  0.843750   0.750000 0
  0.812500   0.781250 0
  0.812500   0.750000 0
  0.812500   0.718750 0
  0.781250   0.750000 0
  0.781250   0.718750 0
  0.781250   0.687500 0
  0.750000   0.968750 0
  0.750000   0.718750 0
  0.750000   0.687500 0
  0.718750   1.000000 0
  0.718750   0.968750 0
  0.718750   0.937500 0
  0.718750   0.718750 0
  0.718750   0.687500 0
  0.718750   0.656250 0
  0.718750   0.531250 0
  0.687500   1.000000 0
  0.687500   0.968750 0
  0.687500   0.937500 0
  0.687500   0.687500 0
  0.687500   0.656250 0
  0.687500   0.625000 0
  0.656250   0.968750 0
  0.562500   0.875000 0
  0.625000   0.656250 0
  0.968750   0.906250 0
  0.562500   0.843750 0
  0.625000   0.625000 0
  0.968750   0.875000 0
  0.562500   0.812500 0
  0.625000   0.593750 0
  0.812500   0.812500 0
  0.750000   1.000000 0
  0.781250   1.000000 0
  0.625000   0.562500 0
  0.906250   0.906250 0
  0.906250   0.875000 0
  0.562500   0.593750 0
  0.562500   0.562500 0
  0.906250   0.812500 0
  0.625000   0.937500 0
  0.562500   0.531250 0
  0.906250   0.718750 0
  0.750000   0.750000 0
  0.625000   0.906250 0
  0.625000   0.875000 0
  0.531250   0.875000 0
  0.937500   0.906250 0
  0.875000   0.875000 0
  0.531250   0.562500 0
  0.875000   0.812500 0
  0.593750   0.937500 0
  0.656250   0.718750 0
  1.000000   0.968750 0
  0.875000   0.843750 0
  0.843750   0.843750 0
  0.531250   0.531250 0
  0.875000   0.781250 0
  0.593750   0.906250 0
  0.656250   0.687500 0
  1.000000   0.937500 0
  0.593750   0.875000 0
  0.656250   0.656250 0
  1.000000   0.906250 0
  0.593750   0.843750 0
  0.656250   0.625000 0
  0.562500   0.906250 0
  0.968750   0.937500 0
  0.531250   0.812500 0
  0.593750   0.593750 0
  0.937500   0.843750 0
  0.531250   0.781250 0
  0.593750   0.562500 0
  0.781250   0.843750 0
  0.531250   0.843750 0
  0.593750   0.625000 0
  0.937500   0.875000 0
  0.656250   0.906250 0
  0.781250   0.781250 0
  0.656250   0.937500 0
  0.843750   0.531250 0
  0.593750   0.531250 0
  0.656250   0.593750 0
  0.875000   0.531250 0
  0.875000   0.562500 0
  0.906250   0.562500 0
  0.906250   0.593750 0
  0.937500   0.562500 0
  0.937500   0.593750 0
  0.937500   0.625000 0
  0.937500   0.531250 0
  0.968750   0.562500 0
  0.968750   0.593750 0
  0.968750   0.625000 0
  0.968750   0.656250 0
  1.000000   0.593750 0
  1.000000   0.625000 0
  1.000000   0.656250 0
  1.000000   0.687500 0
  0.437500   0.937500 0
  0.625000   0.187500 0
  0.437500   1.000000 0
  1.000000   1.000000 0
  0.500000   0.750000 0
  0.562500   0.500000 0
  0.687500   0.000000 0
  0.625000   0.250000 0
  0.281250   0.968750 0
  0.843750   0.968750 0
  0.343750   0.718750 0
  0.656250   0.781250 0
  0.156250   0.531250 0
  0.093750   0.781250 0
  0.437500   0.968750 0
  0.625000   0.218750 0
  0.500000   0.781250 0
  0.625000   0.281250 0
  0.687500   0.031250 0
  0.031250   0.875000 0
  0.093750   0.625000 0
  0.156250   0.375000 0
  0.218750   0.125000 0
  0.031250   0.937500 0
  0.093750   0.656250 0
  0.156250   0.406250 0
  0.218750   0.156250 0
  0.031250   0.906250 0
  0.593750   0.968750 0
  0.093750   0.718750 0
  0.031250   0.968750 0
  0.437500   0.906250 0
  0.625000   0.156250 0
  0.250000   0.718750 0
  0.375000   0.218750 0
  0.312500   0.468750 0
  0.187500   0.968750 0
  0.125000   0.875000 0
  0.750000   0.625000 0
  0.250000   0.375000 0
  0.687500   0.875000 0
  0.187500   0.625000 0
  0.281250   0.531250 0
  0.406250   0.031250 0
  0.343750   0.281250 0
  0.218750   0.781250 0
  0.093750   0.906250 0
  0.218750   0.406250 0
  0.281250   0.156250 0
  0.156250   0.656250 0
  0.156250   0.687500 0
  0.093750   0.937500 0
  0.218750   0.437500 0
  0.281250   0.187500 0
  0.656250   1.000000 0
  0.156250   0.750000 0
  0.093750   1.000000 0
  0.718750   0.750000 0
  0.218750   0.500000 0
  0.687500   0.187500 0
  0.281250   0.656250 0
  0.843750   0.656250 0
  0.343750   0.406250 0
  0.531250   0.906250 0
  0.031250   0.656250 0
  0.593750   0.656250 0
  0.093750   0.406250 0
  0.031250   0.593750 0
  0.093750   0.343750 0
  0.156250   0.093750 0
  0.375000   0.843750 0
  0.437500   0.593750 0
  0.562500   0.093750 0
  0.156250   0.812500 0
  0.781250   0.562500 0
  0.281250   0.312500 0
  0.718750   0.812500 0
  0.218750   0.562500 0
  0.750000   0.000000 0
  0.031250   0.562500 0
  0.093750   0.312500 0
  0.156250   0.062500 0
  0.375000   0.812500 0
  0.937500   0.812500 0
  0.437500   0.562500 0
  0.562500   0.062500 0
  0.156250   0.718750 0
  0.093750   0.968750 0
  0.218750   0.468750 0
  0.281250   0.218750 0
  0.156250   0.781250 0
  0.718750   0.781250 0
  0.218750   0.531250 0
  0.781250   0.531250 0
  0.281250   0.281250 0
  0.687500   0.218750 0
  0.031250   0.812500 0
  0.593750   0.812500 0
  0.093750   0.562500 0
  0.656250   0.562500 0
  0.156250   0.312500 0
  0.093750   0.593750 0
  0.031250   0.843750 0
  0.156250   0.343750 0
  0.218750   0.093750 0
  0.437500   0.843750 0
  0.625000   0.093750 0
  0.750000   0.875000 0
  0.250000   0.625000 0
  0.812500   0.625000 0
  0.312500   0.375000 0
  0.187500   0.875000 0
  0.562500   0.625000 0
  0.062500   0.375000 0
  0.000000   0.562500 0
  0.062500   0.312500 0
  0.125000   0.062500 0
  0.343750   0.812500 0
  0.531250   0.062500 0
  0.406250   0.562500 0
  0.468750   0.312500 0
  0.312500   1.000000 0
  0.937500   0.750000 0
  0.437500   0.500000 0
  0.875000   1.000000 0
  0.375000   0.750000 0
  0.562500   0.000000 0
  0.062500   1.000000 0
  0.687500   0.750000 0
  0.187500   0.500000 0
  0.625000   1.000000 0
  0.125000   0.750000 0
  0.062500   0.937500 0
  0.187500   0.437500 0
  0.250000   0.187500 0
  0.125000   0.687500 0
  0.125000   0.781250 0
  0.750000   0.531250 0
  0.250000   0.281250 0
  0.687500   0.781250 0
  0.187500   0.531250 0
  0.468750   0.968750 0
  0.656250   0.218750 0
  0.281250   0.937500 0
  0.906250   0.687500 0
  0.406250   0.437500 0
  0.843750   0.937500 0
  0.343750   0.687500 0
  0.437500   0.875000 0
  0.625000   0.125000 0
  0.750000   0.906250 0
  0.250000   0.656250 0
  0.812500   0.656250 0
  0.312500   0.406250 0
  0.187500   0.906250 0
  0.125000   0.812500 0
  0.750000   0.562500 0
  0.250000   0.312500 0
  0.687500   0.812500 0
  0.187500   0.562500 0
  0.468750   1.000000 0
  0.718750   0.000000 0
  0.750000   0.843750 0
  0.250000   0.593750 0
  0.812500   0.593750 0
  0.312500   0.343750 0
  0.187500   0.843750 0
  0.781250   0.875000 0
  0.281250   0.625000 0
  0.843750   0.625000 0
  0.343750   0.375000 0
  0.218750   0.875000 0
  0.781250   0.937500 0
  0.281250   0.687500 0
  0.843750   0.687500 0
  0.343750   0.437500 0
  0.218750   0.937500 0
  0.531250   0.937500 0
  0.031250   0.687500 0
  0.593750   0.687500 0
  0.093750   0.437500 0
  0.031250   0.625000 0
  0.156250   0.125000 0
  0.093750   0.375000 0
  0.375000   0.875000 0
  0.437500   0.625000 0
  0.562500   0.125000 0
  0.375000   0.937500 0
  0.937500   0.937500 0
  0.437500   0.687500 0
  0.156250   0.843750 0
  0.781250   0.593750 0
  0.281250   0.343750 0
  0.718750   0.843750 0
  0.218750   0.593750 0
  0.750000   0.937500 0
  0.250000   0.687500 0
  0.812500   0.687500 0
  0.312500   0.437500 0
  0.187500   0.937500 0
  0.125000   0.843750 0
  0.750000   0.593750 0
  0.250000   0.343750 0
  0.687500   0.843750 0
  0.187500   0.593750 0
  0.781250   0.968750 0
  0.281250   0.718750 0
  0.843750   0.718750 0
  0.343750   0.468750 0
  0.218750   0.968750 0
  0.531250   0.968750 0
  0.031250   0.718750 0
  0.093750   0.468750 0
  0.375000   0.906250 0
  0.437500   0.656250 0
  0.562500   0.156250 0
  0.375000   0.968750 0
  0.937500   0.968750 0
  0.437500   0.718750 0
  0.562500   0.218750 0
  0.156250   0.875000 0
  0.781250   0.625000 0
  0.281250   0.375000 0
  0.718750   0.875000 0
  0.218750   0.625000 0
  0.281250   0.750000 0
  0.468750   0.000000 0
  0.406250   0.250000 0
  0.343750   0.500000 0
  0.218750   1.000000 0
  0.531250   1.000000 0
  0.031250   0.750000 0
  0.593750   0.750000 0
  0.093750   0.500000 0
  0.375000   1.000000 0
  0.937500   1.000000 0
  0.437500   0.750000 0
  0.625000   0.000000 0
  0.562500   0.250000 0
  0.593750   0.781250 0
  0.093750   0.531250 0
  0.031250   0.781250 0
  0.156250   0.281250 0
  0.437500   0.781250 0
  1.000000   0.781250 0
  0.500000   0.531250 0
  0.625000   0.031250 0
  0.562500   0.281250 0
  0.156250   0.906250 0
  0.781250   0.656250 0
  0.281250   0.406250 0
  0.718750   0.906250 0
  0.218750   0.656250 0
  0.281250   0.781250 0
  0.468750   0.031250 0
  0.406250   0.281250 0
  0.343750   0.531250 0
  0.437500   0.812500 0
  0.625000   0.062500 0
  0.312500   0.968750 0
  0.875000   0.968750 0
  0.375000   0.718750 0
  0.937500   0.718750 0
  0.437500   0.468750 0
  0.093750   0.812500 0
  0.718750   0.562500 0
  0.218750   0.312500 0
  0.656250   0.812500 0
  0.156250   0.562500 0
  0.656250   0.843750 0
  0.156250   0.593750 0
  0.718750   0.593750 0
  0.218750   0.343750 0
  0.500000   0.843750 0
  0.687500   0.093750 0
  0.625000   0.343750 0
  0.656250   0.875000 0
  0.156250   0.625000 0
  0.718750   0.625000 0
  0.218750   0.375000 0
  0.093750   0.875000 0
  0.000000   0.625000 0
  0.500000   0.875000 0
  0.125000   0.125000 0
  0.625000   0.375000 0
  0.687500   0.125000 0
  0.562500   0.781250 0
  0.062500   0.531250 0
  0.625000   0.531250 0
  0.125000   0.281250 0
  0.000000   0.781250 0
  0.531250   0.718750 0
  0.031250   0.468750 0
  0.593750   0.468750 0
  0.093750   0.218750 0
  0.375000   0.625000 0
  0.500000   0.125000 0
  0.437500   0.375000 0
  0.312500   0.875000 0
  0.875000   0.937500 0
  0.375000   0.687500 0
  0.937500   0.687500 0
  0.437500   0.437500 0
  0.312500   0.937500 0
  0.531250   0.687500 0
  0.031250   0.437500 0
  0.531250   0.750000 0
  0.031250   0.500000 0
  0.593750   0.500000 0
  0.093750   0.250000 0
[...]
CELL_DATA 1912
SCALARS scalar_value float 1
LOOKUP_TABLE default
-0.333075
-0.323823
-0.335787
-0.299781
-0.632759
-0.623567
-0.609279
-0.626673
-0.462403
-0.431145
-0.419775
-0.412099
-0.067077
-0.0330908
-0.0156458
-0.0164787
-0.571572
-0.561665
-0.575923
-0.53759
-0.453465
-0.422357
-0.052902
-0.643258
-0.623798
-0.619315
-0.606747
-0.763031
-0.742335
-0.757837
-0.70849
-0.357608
-0.349905
-0.371417
-0.321337
-0.579389
-0.504764
-0.515018
-0.47205
-0.34326
-0.779298
-0.294977
-0.720185
-0.355728
-0.775935
-0.241737
-0.188818
-0.238965
-0.658426
-0.20124
-0.597251
-0.5475
-0.104052
-0.513407
-0.145396
-0.549867
-0.740062
-0.361625
-0.322041
-0.312835
-0.0839686
-0.154493
-0.56688
-0.548416
-0.544495
-0.0308858
-0.0156198
-0.423279
-0.015103
-0.420961
-0.461821
-0.00977198
-0.698323
-0.121236
-0.51112
-0.12441
-0.0776905
-0.660103
-0.535691
-0.273347
-0.114491
-0.0269027
-0.167084
-0.30141
-0.691166
-0.589958
-0.193228
-0.59371
-0.556129
-0.594012
-0.492932
-0.079926
-0.486871
-0.0810086
-0.770313
-0.35619
-0.322998
-0.572493
-0.190501
-0.578407
-0.105669
-0.43796
-0.0126422
-0.569215
-0.521936
-0.685243
-0.290118
-0.479604
-0.295398
-0.596384
-0.64564
-0.24456
-0.206849
-0.643602
-0.642982
-0.616506
-0.522696
-0.708879
-0.693121
-0.558082
-0.532036
-0.5007
-0.57133
-0.451033
-0.773032
-0.717514
-0.767988
-0.791392
-0.178702
-0.559
-0.381536
-0.754247
-0.381177
-0.39063
-0.342751
-0.709962
-0.294068
-0.662675
-0.24351
-0.6171
-0.249423
-0.283275
-0.662331
-0.552614
-0.516676
-0.33189
-0.107595
-0.157154
-0.479989
-0.0318782
-0.0773754
-0.147799
-0.1266
-0.390877
-0.652562
-0.563388
-0.497424
-0.612308
-0.571736
-0.631192
-0.246791
-0.611066
-0.47315
-0.218477
-0.602496
-0.601012
-0.469912
-0.535227
-0.110769
-0.591072
-0.5854
-0.556069
-0.0589335
-0.459041
-0.0717595
-0.570324
-0.120629
-0.331987
-0.0117691
-0.400997
-0.417576
-0.374538
-0.04679
-0.393195
-0.0116139
-0.574493
-0.177557
-0.18324
-0.557126
-0.64194
-0.622882
-0.0845074
-0.562042
-0.146775
-0.285644
-0.282651
-0.417922
-0.0130022
-0.407968
-0.511343
-0.609456
-0.03337
-0.424205
-0.0234779
-0.411161
-0.0122369
-0.0297871
-0.393396
-0.707991
-0.568848
-0.074788
-0.638029
-0.308635
-0.162787
-0.564708
-0.0469841
-0.741248
-0.123279
-0.510429
-0.273704
-0.403647
-0.183438
-0.484234
-0.0580332
-0.458027
-0.0327195
-0.0666284
-0.476759
-0.0907742
-0.222826
-0.663292
-0.504963
-0.261299
-0.0897814
-0.661434
-0.254547
-0.513198
-0.661151
-0.0468422
-0.541105
-0.170477
-0.558008
-0.380033
-0.123761
-0.400089
-0.300951
-0.332267
-0.320424
-0.783749
-0.0562402
-0.455048
-0.557005
-0.718501
-0.334165
-0.695106
-0.299408
-0.0828175
-0.608011
-0.463333
-0.207503
-0.285398
-0.654863
-0.138038
-0.42645
-0.472893
-0.150188
-0.604789
-0.058814
-0.346109
-0.0798144
-0.126536
-0.474664
-0.295261
-0.0821345
-0.605805
-0.51436
-0.364603
-0.101869
-0.368113
-0.439791
-0.526738
-0.817614
-0.136794
-0.371535
-0.740463
-0.51759
-0.257057
-0.66675
-0.526938
-0.817999
-0.141381
-0.545082
-0.769818
-0.528798
-0.680327
-0.210989
-0.186465
-0.199503
-0.214359
-0.0859976
-0.0238536
-0.446257
-0.213202
-0.0678684
-0.615785
-0.241917
-0.487659
-0.72602
-0.407193
-0.655742
-0.637147
-0.257829
-0.422116
-0.0138109
-0.404476
-0.093817
-0.479978
-0.0839997
-0.0304593
-0.467249
-0.0637241
-0.539056
-0.647422
-0.693974
-0.64666
-0.263611
-0.496297
-0.0542246
-0.264059
-0.602439
-0.401321
-0.0145138
-0.268265
-0.529468
-0.545902
-0.504635
-0.590181
-0.467346
-0.5999
-0.585275
-0.233556
-0.617501
-0.256502
-0.615755
-0.290829
-0.277774
-0.212686
-0.693756
-0.699566
-0.308318
-0.75294
-0.368732
-0.34172
-0.350944
-0.344754
-0.318551
-0.363632
-0.0164404
-0.763707
-0.0795867
-0.705663
-0.435628
-0.662865
-0.0970346
-0.0251726
-0.0493392
-0.353569
-0.712548
-0.357116
-0.744744
-0.373656
-0.307476
-0.143856
-0.0650573
-0.312362
-0.452239
-0.17167
-0.16446
-0.577791
-0.11801
-0.547513
-0.561567
-0.597061
-0.408305
-0.4536
-0.0236062
-0.0468077
-0.013104
-0.0468942
-0.427506
-0.445174
-0.302124
-0.595926
-0.626837
-0.497306
-0.148831
-0.354713
-0.114149
-0.0233692
-0.0160833
-0.0327675
-0.416124
-0.255637
-0.0631713
-0.756494
-0.139839
-0.292988
-0.444221
-0.258543
-0.621231
-0.0112638
-0.0220533
-0.0444446
-0.240999
-0.196733
-0.0592466
-0.0580421
-0.202682
-0.457561
-0.610897
-0.18108
-0.207191
-0.306625
-0.321074
-0.132446
-0.517989
-0.530587
-0.318782
-0.233718
-0.603064
-0.750134
-0.0263396
-0.754752
-0.159171
-0.110999
-0.0997635
-0.0433327
-0.489556
-0.453054
-0.0978885
-0.199609
-0.235704
-0.109904
-0.319835
-0.553867
-0.723378
-0.702655
-0.703987
-0.762313
-0.364431
-0.408741
-0.399664
-0.751717
-0.028487
-0.599531
-0.128303
-0.177035
-0.225482
-0.715403
-0.601479
-0.728353
-0.38134
-0.342989
-0.368359
-0.378073
-0.758348
-0.305781
-0.314819
-0.345272
-0.0630584
-0.210028
-0.116429
-0.623289
-0.646658
-0.642592
-0.69631
-0.110703
-0.0611609
-1.48236
-1.44027
-1.39807
-1.35552
-1.3115
-1.26379
-1.21145
-1.15696
-0.837796
-0.795941
-1.49878
-1.45692
-1.41491
-1.3729
-1.33023
-1.28441
-1.23157
-1.17631
-0.855105
-0.813401
-1.49026
-1.44831
-1.4067
-1.36565
-1.3244
-1.2771
-1.21866
-1.15942
-0.848915
-0.804838
-1.50668
-1.46481
-1.42308
-1.38218
-1.34251
-1.30286
-1.24136
-1.18208
-0.865559
-0.828213
-1.10276
-1.49811
-1.05274
-1.45596
-1.00602
-1.41446
-0.96239
-1.37486
-0.920411
-1.33964
-1.0734
-0.966204
-1.04917
-0.920188
-0.974086
-0.928328
-1.3436
-0.982403
-0.924566
-0.888231
-1.32145
-1.01343
-1.43021
-0.910471
-1.2901
-1.06536
-1.47185
-0.962178
-1.35501
-0.858745
-1.2333
-1.02791
-1.40941
-1.48901
-1.01408
-1.07832
-1.60498
-1.1591
-0.968457
-1.04687
-0.924032
-1.16028
-1.60297
-1.01803
-1.45647
-1.117
-1.56043
-1.02846
-1.46357
-0.971097
-1.3941
-1.51396
-1.07653
-1.11995
-1.16583
-1.07405
-1.02728
-0.979064
-0.984025
-0.928801
-0.938774
-0.875544
-1.05847
-1.50909
-1.11356
-1.56861
-1.0131
-1.47814
-1.38568
-0.969571
-1.44003
-1.03178
-1.55961
-1.11713
-1.11732
-1.56401
-1.02848
-1.49103
-1.0734
-1.52374
-1.27545
-0.89215
-1.4117
-0.985462
-1.13029
-1.07083
-1.48008
-1.0852
-1.02816
-1.43653
-0.805011
-1.18918
-0.970651
-1.34011
-1.03911
-0.903866
-1.3215
-0.985856
-1.39389
-0.942524
-0.836426
-1.51386
-1.05917
-1.57124
-1.1169
-0.891071
-1.04664
-0.991674
-0.944184
-1.35415
-1.0682
-1.01235
-1.42049
-1.13759
-1.30893
-1.1133
-1.05606
-1.46318
-1.06376
-1.50916
-1.1843
-1.06354
-0.939679
-1.35401
-0.838191
-1.23415
-1.13943
-1.58361
-1.60525
-1.16068
-1.02186
-0.969764
-1.3796
-0.878908
-1.21985
-1.09161
-1.2739
-1.07022
-1.47244
-0.860353
-1.18936
-1.31843
-0.844821
-1.22089
-1.04742
-1.44734
-1.12937
-1.56058
-1.26656
-0.873763
-1.31539
-0.930348
-1.51509
-1.08832
-1.52702
-1.08001
-0.936971
-1.35261
-1.02349
-1.43034
-1.12398
-1.5729
-1.20072
-0.832568
-1.24979
-0.863007
-1.12036
-1.51463
-0.861382
-1.20359
-1.03295
-1.43798
-1.11013
-1.54073
-0.849767
-1.18687
-1.30924
-1.04513
-0.921126
-1.30268
-0.878167
-1.24553
-1.15735
-1.10202
-1.50615
-1.10809
-1.55619
-1.60011
-1.1505
-1.28734
-0.884636
-1.21964
-1.17494
-1.11608
-1.52307
-1.21344
-0.822132
-1.24752
-0.881594
-1.47064
-1.05579
-1.14612
-1.59089
-0.987774
-1.41754
-0.890059
-1.29066
-1.47639
-1.03455
-0.895773
-1.3244
-0.979321
-1.38966
-1.03149
-1.47515
-0.938856
-1.34381
-1.16582
-1.61592
-1.07648
-1.52381
-1.10333
-1.55217
-1.12004
-1.56848
-1.45943
-1.01559
-1.50409
-1.07495
-1.60254
-1.15995
-0.839571
-1.33211
-0.95596
-1.47911
-1.06201
-1.51452
-1.09024
-1.02959
-1.49
-1.14655
-1.59335
-1.16136
-1.61105
-0.895784
-1.54518
-1.10315
-1.56179
-1.13549
-1.07441
-1.52545
-1.19798
-0.862134
-1.43094
-1.02282
-0.947937
-1.58922
-1.14543
-1.1182
-1.56634
-1.22103
-0.894259
-1.47955
-1.05957
-1.32941
-0.923063
-1.38425
-0.980095
-0.879128
-1.31434
-1.28461
-0.997443
-1.16089
-1.60783
-0.936582
-0.872755
-1.20288
-0.835219
-1.42546
-1.01687
-1.06084
-1.50851
-1.10492
-1.55305
-1.14732
-1.59599
-1.54929
-1.10262
-1.60004
-1.15609
-1.31727
-0.923497
-1.36515
-0.977729
-0.896159
-1.23163
-1.07195
-1.4916
-1.49238
-1.05905
-1.53947
-1.10467
-1.54432
-1.10259
-1.58219
-1.14903
-1.58872
-1.14579
-1.27316
-1.30607
-1.10315
-1.56898
-1.09779
-1.54532
-1.14404
-1.59282
-1.20417
-0.811419
-1.18951
-0.78975
-1.34747
-0.961439
-1.23379
-0.835187
-1.40317
-1.00922
-1.28127
-0.898315
-1.41093
-1.01915
-1.45939
-1.05078
-1.2035
-0.795501
-1.24643
-0.823765
-1.18903
-0.781948
-1.34936
-0.95509
-1.23203
-0.813406
-1.3993
-0.998377
-1.06801
-1.49932
-1.07309
-1.20322
-0.794945
-1.24581
-0.818409
-1.18876
-0.785495
-1.24916
-0.873139
-1.35095
-0.949958
-1.23223
-0.819377
-1.39637
-0.991448
-1.03935
-1.55554
-1.09826
-1.53287
-1.08908
-1.20327
-0.807415
-1.24813
-0.851495
-1.29297
-0.915799
-1.18806
-0.796531
-1.23352
-0.840785
-1.27938
-0.894828
-1.32663
-0.949652
-1.38576
-1.00353
-1.50987
-1.08676
-1.08735
-1.52611
-1.2021
-0.820344
-1.24965
-0.863598
-1.29774
-0.912339
-1.18539
-0.81112
-1.23364
-0.852316
-1.28257
-0.896587
-1.33166
-0.943443
-1.38391
-0.990097
-1.19856
-0.840469
-1.30052
-0.911712
-1.24981
-0.871638
-1.4498
-1.03842
-1.17951
-0.84153
-1.23201
-0.862538
-1.28522
-0.898085
-1.33385
-0.939239
-1.38206
-0.981836
-1.19187
-0.846175
-1.30524
-0.909526
-1.44256
-1.03154
-1.48857
-1.06704
-1.16991
-0.837587
-1.22724
-0.861462
-1.29238
-0.895598
-1.33722
-0.934672
-1.38076
-0.975785
-0.71827
-0.662601
-0.612919
-0.56588
-0.519953
-0.474328
-0.428422
-0.381684
-0.68192
-0.631046
-0.583493
-0.537389
-0.491815
-0.446173
-0.399905
-0.352441
-0.716501
-0.665326
-0.617884
-0.571877
-0.526517
-0.481363
-0.435989
-0.38983
-0.68096
-0.634368
-0.588734
-0.543576
-0.498653
-0.453683
-0.408215
-0.361477
-0.333641
-0.698579
-0.284201
-0.662842
-0.234042
-0.620754
-0.184502
-0.576904
-0.136878
-0.532659
-0.0919466
-0.48839
-0.0499184
-0.444062
-0.583054
-0.359349
-0.660386
-0.232961
-0.190341
-0.581869
-0.177861
-0.141679
-0.538522
-0.389568
-0.710952
-0.341713
-0.684832
-0.398602
-0.757883
-0.293596
-0.650908
-0.178615
-0.576311
-0.365646
-0.709377
-0.240887
-0.614079
-0.116787
-0.538439
-0.663246
-0.514513
-0.0343106
-0.623117
-0.240017
-0.407315
-0.71982
-0.312313
-0.663511
-0.224444
-0.626168
-0.696063
-0.410357
-0.358486
-0.30589
-0.251623
-0.187594
-0.124651
-0.0162412
-0.347048
-0.691709
-0.396655
-0.753588
-0.304008
-0.65481
-0.350882
-0.707629
-0.275483
-0.617505
-0.544587
-0.292441
-0.664024
-0.58037
-0.0414072
-0.512465
-0.230249
-0.621306
-0.414299
-0.753624
-0.316414
-0.669014
-0.364054
-0.707854
-0.283923
-0.63115
-0.659796
-0.298415
-0.702512
-0.349891
-0.620948
-0.274745
-0.66313
-0.296894
-0.593644
-0.08368
-0.199877
-0.0681682
-0.468679
-0.368705
-0.31243
-0.677817
-0.058887
-0.500074
-0.618692
-0.309748
-0.158547
-0.55479
-0.260838
-0.639658
-0.699923
-0.348004
-0.742918
-0.397847
-0.141467
-0.0328386
-0.026803
-0.426598
-0.0143041
-0.456188
-0.129004
-0.574977
-0.256411
-0.111837
-0.511556
-0.208852
-0.597834
-0.726535
-0.329426
-0.281187
-0.241169
-0.624383
-0.378944
-0.191955
-0.586257
-0.107382
-0.545978
-0.0116447
-0.466256
-0.753638
-0.00976785
-0.494465
-0.181446
-0.582511
-0.546784
-0.12065
-0.0128372
-0.409593
-0.0961721
-0.495147
-0.108331
-0.50528
-0.239418
-0.640445
-0.135665
-0.559434
-0.614916
-0.154353
-0.549242
-0.253158
-0.635641
-0.34553
-0.292394
-0.664023
-0.259801
-0.66762
-0.0158688
-0.428505
-0.693479
-0.0248692
-0.417387
-0.270102
-0.682739
-0.403502
-0.342144
-0.695028
-0.710523
-0.0657412
-0.0534517
-0.452131
-0.0309688
-0.475713
-0.26859
-0.649387
-0.382427
-0.739524
-0.518597
-0.0806468
-0.599683
-0.190975
-0.336754
-0.0651372
-0.461368
-0.42531
-0.602838
-0.46086
-0.0143552
-0.516274
-0.071922
-0.673635
-0.302523
-0.769245
-0.507548
-0.0491953
-0.546985
-0.133565
-0.0190478
-0.493991
-0.643512
-0.50476
-0.0612399
-0.55284
-0.14048
-0.7185
-0.352726
-0.0262482
-0.478453
-0.647378
-0.387701
-0.741838
-0.545736
-0.115229
-0.590119
-0.202705
-0.0110197
-0.399238
-0.0721066
-0.519656
-0.365171
-0.693438
-0.558883
-0.129398
-0.63814
-0.242227
-0.0648838
-0.267394
-0.67931
-0.188633
-0.598161
-0.721893
-0.402393
-0.743323
-0.765251
-0.498035
-0.0200587
-0.637697
-0.257179
-0.585834
-0.171409
-0.627422
-0.267323
-0.0115189
-0.489276
-0.167296
-0.578835
-0.281906
-0.479581
-0.0278244
-0.630616
-0.248529
-0.705947
-0.749299
-0.729507
-0.395545
-0.0417959
-0.523541
-0.356802
-0.690482
-0.584578
-0.166044
-0.624804
-0.250706
-0.558791
-0.382925
-0.74074
-0.623881
-0.233834
-0.661778
-0.303852
-0.714757
-0.401716
-0.596279
-0.305749
-0.674776
-0.664208
-0.269721
-0.694543
-0.353814
-0.271297
-0.634965
-0.368813
-0.716442
-0.423261
-0.761237
-0.0397547
-0.523739
-0.317454
-0.683969
-0.557219
-0.366676
-0.735109
-0.275997
-0.649878
-0.381598
-0.732519
-0.463523
-0.0303423
-0.506734
-0.0779016
-0.444305
-0.0149604
-0.570681
-0.122792
-0.489564
-0.0615614
-0.531484
-0.113132
-0.571786
-0.169234
-0.649671
-0.283531
-0.708052
-0.367516
-0.611257
-0.227661
-0.685675
-0.335742
-0.758685
-0.396387
-0.715336
-0.384509
-0.45435
-0.0299102
-0.498851
-0.0760644
-0.541258
-0.126353
-0.436673
-0.0145261
-0.479625
-0.0678318
-0.565802
-0.153192
-0.48197
-0.0593688
-0.609854
-0.220204
-0.525345
-0.106541
-0.655139
-0.280642
-0.567436
-0.158333
-0.703168
-0.344449
-0.608845
-0.217116
-0.690729
-0.33256
-0.385605
-0.448008
-0.028338
-0.492717
-0.071174
-0.536146
-0.115663
-0.431129
-0.0138003
-0.474868
-0.0689963
-0.560403
-0.159456
-0.476212
-0.055682
-0.5173
-0.112359
-0.603819
-0.213936
-0.520112
-0.0973608
-0.647568
-0.269677
-0.563272
-0.140034
-0.692974
-0.324479
-0.606193
-0.20584
-0.372569
-0.202985
-0.593002
-0.303409
-0.674209
-0.598528
-0.44341
-0.0269613
-0.487787
-0.0663922
-0.531502
-0.102464
-0.4273
-0.013352
-0.471685
-0.0531074
-0.515478
-0.0900847
-0.559058
-0.118938
-0.440263
-0.0267342
-0.527029
-0.100734
-0.483614
-0.0656246
-0.425163
-0.0133787
-0.467957
-0.0532613
-0.511088
-0.091159
-0.554554
-0.123208
-0.437912
-0.027246
-0.522404
-0.108855
-0.423757
-0.0135563
-0.464261
-0.054608
-0.506519
-0.0961329
-0.549606
-0.140251
-0.59326
-0.197215
-0.433917
-0.0274336
-0.418949
-0.0134667
-0.459178
-0.0548774
-0.501274
-0.097715
-0.544211
-0.143526
-0.587449
-0.194563
-1.61295
-1.56999
-1.52427
-1.47393
-1.41555
-1.35258
-1.28982
-1.23397
-1.00007
-0.946504
-1.59714
-1.55331
-1.50649
-1.45415
-1.3923
-1.32819
-1.26596
-1.21352
-0.981308
-0.925392
-0.740278
-1.60802
-1.56551
-1.52099
-1.47262
-1.40971
-1.34243
-1.27466
-1.22071
-0.996993
-0.945959
-1.59292
-1.55007
-1.50571
-1.45696
-1.38392
-1.31611
-1.24493
-1.20073
-0.981345
-0.929865
-0.730869
-1.18489
-1.60465
-1.13911
-1.5632
-1.09412
-1.52242
-0.780943
-1.46002
-1.00881
-1.00839
-1.38712
-0.963432
-1.34038
-1.29509
-0.917714
-1.13515
-1.50804
-1.25101
-0.860753
-1.08578
-1.46306
-1.20618
-0.802411
-1.03758
-1.41677
-1.19361
-1.04936
-1.42799
-1.15106
-1.51625
-1.23109
-0.845814
-1.32512
-0.949677
-1.00409
-1.38287
-1.09957
-1.47279
-1.18405
-0.792284
-1.27745
-0.899063
-0.964699
-1.33837
-1.25572
-1.22302
-1.05423
-1.29548
-0.932953
-1.13324
-1.49943
-1.08063
-1.45571
-1.03045
-1.41122
-1.24549
-1.22303
-0.993478
-1.40118
-1.35813
-0.968525
-1.31495
-0.936029
-1.15822
-1.58738
-1.27154
-0.895634
-1.11536
-1.54583
-1.15172
-1.52589
-1.05496
-1.4345
-1.22719
-0.844437
-1.0054
-1.11655
-1.0718
-1.50571
-0.698516
-1.17679
-0.79126
-0.963352
-1.05878
-1.02736
-1.47482
-0.950735
-1.33091
-1.23799
-0.838527
-1.00315
-1.41711
-0.922458
-0.88034
-1.49674
-1.32322
-0.953983
-1.22623
-1.4548
-1.28187
-0.933127
-1.00466
-0.918744
-1.41227
-0.994668
-1.37035
-0.992249
-1.28123
-0.902897
-1.36941
-0.974491
-0.904318
-1.28076
-1.1277
-1.02106
-1.01449
-1.40609
-1.1838
-0.808283
-0.813991
-1.20321
-1.48131
-1.44404
-0.979706
-1.3627
-0.892054
-0.807648
-1.20097
-0.793521
-0.778193
-1.18583
-1.09357
-1.46591
-0.995069
-1.37854
-1.18614
-0.788299
-1.27922
-0.898525
-0.876942
-1.07214
-1.44951
-1.32482
-0.949108
-1.50223
-1.2343
-0.856712
-1.32596
-0.941881
-0.883306
-1.23087
-1.43909
-0.858025
-1.21884
-1.05306
-0.960837
-1.12876
-1.49244
-0.839491
-1.21375
-1.26343
-0.885474
-1.10545
-0.706111
-1.16061
-0.79244
-1.54053
-1.11005
-0.787034
-1.18905
-0.927149
-1.30966
-1.03069
-1.48599
-1.07288
-0.963806
-1.35364
-1.39657
-0.993756
-1.07693
-1.51077
-0.84975
-0.933969
-1.24515
-1.21577
-1.12184
-1.54898
-0.836916
-0.85013
-1.21835
-1.15049
-1.50859
-0.976194
-1.48651
-0.807862
-0.805136
-1.19703
-0.852417
-0.937466
-0.877851
-1.21977
-1.36676
-0.988506
-0.896138
-0.977143
-1.04343
-1.48779
-1.01889
-1.08811
-1.52043
-1.08102
-1.13192
-1.56062
-1.14002
-1.17554
-1.60184
-0.811545
-1.20399
-0.947857
-1.32558
-0.864264
-1.24615
-0.917574
-1.28819
-0.980626
-1.37397
-0.79394
-1.18706
-0.835098
-1.2308
-1.24231
-1.16673
-1.59011
-0.927455
-1.27903
-0.949418
-1.31998
-1.10317
-1.48126
-1.25543
-0.93608
-1.29358
-0.961252
-1.3353
-1.03824
-1.42231
-1.23351
-0.843238
-1.05944
-1.37376
-0.994893
-1.42318
-1.04178
-1.47232
-1.08917
-1.51919
-1.13663
-0.794038
-1.18348
-0.848507
-1.22926
-0.95399
-1.32093
-0.902547
-1.27439
-1.00266
-1.37946
-1.20118
-0.807743
-1.24798
-0.862215
-1.29415
-0.91522
-1.34162
-0.96426
-1.39155
-1.01163
-1.44244
-1.0587
-1.49234
-1.10581
-1.53855
-1.15261
-1.3769
-0.998136
-1.43099
-1.04541
-1.48484
-1.09208
-1.53418
-1.13821
-0.794256
-1.18356
-0.852282
-1.22763
-0.909182
-1.26921
-0.961197
-1.304
-1.19942
-0.810692
-1.24586
-0.864443
-1.29227
-0.917144
-1.34106
-0.967283
-1.39637
-1.01535
-1.45263
-1.06221
-1.50799
-1.10837
-1.55543
-1.15385
-1.28704
-0.964883
-1.35159
-0.988737
-1.44084
-1.04946
-1.50359
-1.09519
-1.55452
-1.14019
-0.793497
-1.18449
-0.858687
-1.22787
-0.921705
-1.26899
-0.972461
-1.30182
-0.756197
-1.19862
-0.812459
-1.24358
-0.867935
-1.28788
-0.922001
-1.33447
-0.972543
-1.40305
-1.02017
-1.46545
-1.06616
-1.53348
-1.11122
-1.57635
-1.15563
-1.54995
-1.09868
-1.57813
-1.14254
-1.18615
-1.23042
-0.959521
-1.2777
-0.986417
-1.32838
-0.747706
-1.19842
-0.813988
-1.28003
-0.93092
-1.24134
-0.873673
-1.30456
-0.980504
-1.02623
-1.07061
-1.56328
-1.11438
-1.5948
-1.15774
-1.20118
-1.29921
-1.24662
-1.01639
-1.56405
-1.10233
-1.58796
-1.14485
-1.19945
-0.818374
-1.28335
-0.948599
-1.24252
-0.88308
-1.31437
-0.990951
-1.03281
-1.07519
-1.56656
-1.11759
-1.60034
-1.15949
-1.40728
-1.02346
-1.54098
-1.10596
-1.47533
-1.06424
-1.58493
-1.14706
-0.969472
-1.43638
-1.03808
-1.36153
-0.999456
-1.50025
-1.07938
-1.55552
-1.12094
-1.59842
-1.1611
-1.42669
-1.02657
-1.48875
-1.06804
-1.58487
-1.15105
-1.3122
-0.964067
-1.46008
-1.0409
-1.3808
-0.999678
-1.51037
-1.08337
-1.55673
-1.12552
-1.59925
-1.16619
-1.04833
-1.48711
