# vtk DataFile Version 2.0
Unstructured Grid by M++
ASCII
DATASET UNSTRUCTURED_GRID
POINTS 289 float
  1.000000   0.687500 0
  1.000000   0.625000 0
  1.000000   0.562500 0
  0.812500   0.750000 0
  0.937500   0.812500 0
  0.750000   1.000000 0
  0.937500   0.687500 0
  0.937500   0.625000 0
  0.937500   0.562500 0
  0.750000   0.687500 0
  0.875000   0.750000 0
  0.687500   0.937500 0
  0.875000   0.687500 0
  0.875000   0.625000 0
  0.875000   0.562500 0
  0.812500   1.000000 0
  0.812500   0.687500 0
  0.625000   0.875000 0
  0.812500   0.625000 0
  0.812500   0.562500 0
  0.750000   0.937500 0
  0.750000   0.875000 0
  0.750000   0.812500 0
  0.750000   0.750000 0
  0.750000   0.625000 0
  0.562500   0.812500 0
  0.750000   0.562500 0
  0.562500   0.937500 0
  0.562500   0.875000 0
  0.812500   0.937500 0
  0.812500   0.812500 0
  0.812500   0.875000 0
  0.562500   1.000000 0
  0.875000   1.000000 0
  0.562500   0.750000 0
  0.875000   0.937500 0
  0.562500   0.687500 0
  0.875000   0.812500 0
  0.562500   0.562500 0
  0.875000   0.875000 0
  0.562500   0.625000 0
  0.625000   0.937500 0
  0.625000   1.000000 0
  0.687500   0.562500 0
  0.937500   0.750000 0
  0.687500   0.625000 0
  0.687500   0.687500 0
  0.687500   0.750000 0
  0.687500   0.812500 0
  0.687500   0.875000 0
  0.625000   0.562500 0
  0.937500   0.875000 0
  0.625000   0.625000 0
  0.937500   0.937500 0
  0.625000   0.687500 0
  0.625000   0.750000 0
  0.625000   0.812500 0
  0.687500   1.000000 0
  1.000000   0.750000 0
  1.000000   0.812500 0
  1.000000   0.937500 0
  1.000000   1.000000 0
  0.812500   0.437500 0
  0.937500   0.500000 0
  0.750000   0.375000 0
  0.687500   0.312500 0
  0.812500   0.000000 0
  0.812500   0.187500 0
  0.812500   0.125000 0
  0.812500   0.062500 0
  0.625000   0.250000 0
  0.750000   0.000000 0
  0.750000   0.500000 0
  0.750000   0.437500 0
  0.750000   0.312500 0
  0.562500   0.500000 0
  0.750000   0.250000 0
  0.750000   0.187500 0
  0.750000   0.125000 0
  0.750000   0.062500 0
  0.812500   0.500000 0
  0.562500   0.437500 0
  0.562500   0.375000 0
  0.562500   0.312500 0
  0.875000   0.500000 0
  0.562500   0.250000 0
  0.812500   0.312500 0
  0.812500   0.250000 0
  0.812500   0.375000 0
  0.875000   0.312500 0
  0.562500   0.062500 0
  0.875000   0.375000 0
  0.562500   0.125000 0
  0.875000   0.437500 0
  0.562500   0.187500 0
  0.562500   0.000000 0
  0.625000   0.312500 0
  0.625000   0.375000 0
  0.625000   0.437500 0
  0.625000   0.500000 0
  0.937500   0.312500 0
  0.625000   0.062500 0
  0.937500   0.375000 0
  0.625000   0.125000 0
  0.937500   0.437500 0
  0.625000   0.187500 0
  0.625000   0.000000 0
  0.062500   0.437500 0
  0.000000   0.437500 0
  0.000000   0.375000 0
  0.250000   0.312500 0
  0.375000   0.312500 0
  0.187500   0.500000 0
  0.250000   0.437500 0
  0.000000   0.500000 0
  0.250000   0.000000 0
  1.000000   0.125000 0
  0.125000   0.875000 0
  1.000000   0.312500 0
  0.062500   0.375000 0
  0.250000   0.187500 0
  1.000000   0.500000 0
  0.250000   0.125000 0
  1.000000   0.250000 0
  0.125000   1.000000 0
  1.000000   0.437500 0
  0.062500   0.500000 0
  0.937500   1.000000 0
  0.000000   0.000000 0
  0.500000   0.437500 0
  0.312500   0.625000 0
  0.312500   0.375000 0
  0.000000   0.125000 0
  0.500000   0.062500 0
  0.500000   0.000000 0
  0.375000   0.875000 0
  0.062500   0.000000 0
  0.375000   0.250000 0
  0.125000   0.250000 0
  0.437500   0.500000 0
  0.125000   0.187500 0
  0.437500   0.437500 0
  0.125000   0.125000 0
  0.875000   0.250000 0
  0.000000   1.000000 0
  0.125000   0.375000 0
  0.125000   0.062500 0
  0.437500   0.312500 0
  0.125000   0.000000 0
  0.875000   0.125000 0
  0.000000   0.875000 0
  0.437500   0.250000 0
  0.187500   0.437500 0
  0.000000   0.625000 0
  0.187500   0.250000 0
  0.500000   0.500000 0
  0.187500   0.375000 0
  0.437500   0.000000 0
  0.312500   0.875000 0
  0.062500   0.125000 0
  0.375000   0.375000 0
  0.062500   0.062500 0
  0.125000   0.500000 0
  0.312500   0.250000 0
  0.125000   0.437500 0
  0.375000   0.000000 0
  0.187500   0.187500 0
  0.437500   0.125000 0
  0.312500   1.000000 0
  0.437500   0.187500 0
  0.437500   0.375000 0
  0.250000   0.562500 0
  0.375000   0.062500 0
  0.250000   0.937500 0
  0.375000   0.187500 0
  0.375000   0.125000 0
  0.250000   1.000000 0
  0.250000   0.250000 0
  0.437500   0.062500 0
  0.250000   0.500000 0
  0.062500   0.687500 0
  0.250000   0.375000 0
  0.187500   0.312500 0
  0.000000   0.062500 0
  0.312500   0.312500 0
  0.500000   0.125000 0
  0.250000   0.062500 0
  1.000000   0.187500 0
  0.125000   0.937500 0
  1.000000   0.375000 0
  0.312500   0.000000 0
  0.187500   0.875000 0
  0.312500   0.062500 0
  0.187500   0.937500 0
  0.312500   0.187500 0
  0.312500   0.125000 0
  0.187500   1.000000 0
  0.375000   0.500000 0
  0.500000   0.187500 0
  0.187500   0.125000 0
  0.000000   0.312500 0
  0.500000   0.375000 0
  0.187500   0.000000 0
  0.937500   0.125000 0
  0.062500   0.875000 0
  0.500000   0.250000 0
  0.187500   0.062500 0
  0.937500   0.187500 0
  0.062500   0.937500 0
  0.500000   0.312500 0
  0.312500   0.500000 0
  0.000000   0.250000 0
  0.312500   0.437500 0
  0.000000   0.187500 0
  0.375000   0.437500 0
  0.062500   0.187500 0
  0.062500   0.312500 0
  0.125000   0.312500 0
  0.062500   0.250000 0
  0.500000   1.000000 0
  0.500000   0.937500 0
  0.500000   0.750000 0
  0.187500   0.687500 0
  0.187500   0.625000 0
  0.500000   0.875000 0
  0.187500   0.562500 0
  0.500000   0.812500 0
  0.437500   0.750000 0
  0.125000   0.687500 0
  0.437500   0.937500 0
  0.125000   0.625000 0
  0.437500   0.875000 0
  0.125000   0.562500 0
  0.437500   0.812500 0
  1.000000   0.062500 0
  0.125000   0.812500 0
  0.437500   1.000000 0
  0.375000   0.750000 0
  0.062500   0.625000 0
  0.062500   0.562500 0
  0.375000   0.812500 0
  1.000000   0.875000 0
  0.375000   0.937500 0
  0.312500   0.750000 0
  0.000000   0.562500 0
  0.312500   0.812500 0
  0.937500   0.000000 0
  0.062500   0.750000 0
  0.375000   1.000000 0
  0.937500   0.062500 0
  0.062500   0.812500 0
  0.187500   0.750000 0
  0.875000   0.187500 0
  0.000000   0.937500 0
  0.000000   0.687500 0
  0.312500   0.937500 0
  0.875000   0.000000 0
  0.000000   0.750000 0
  0.875000   0.062500 0
  0.000000   0.812500 0
  0.250000   0.625000 0
  0.250000   0.687500 0
  0.250000   0.750000 0
  0.937500   0.250000 0
  0.062500   1.000000 0
  0.250000   0.812500 0
  0.250000   0.875000 0
  1.000000   0.000000 0
  0.125000   0.750000 0
  0.312500   0.562500 0
  0.312500   0.687500 0
  0.375000   0.562500 0
  0.187500   0.812500 0
  0.375000   0.625000 0
  0.375000   0.687500 0
  0.437500   0.562500 0
  0.437500   0.625000 0
  0.437500   0.687500 0
  0.500000   0.562500 0
  0.500000   0.625000 0
  0.500000   0.687500 0
  0.687500   0.000000 0
  0.687500   0.250000 0
  0.687500   0.187500 0
  0.687500   0.125000 0
  0.687500   0.062500 0
  0.687500   0.500000 0
  0.687500   0.437500 0
  0.687500   0.375000 0
CELLS 512 2048
3 182 110 156
3 177 110 182
3 199 186 122
3 199 206 186
3 142 206 199
3 181 113 152
3 107 126 114
3 202 115 206
3 198 205 151
3 108 107 114
3 108 119 107
3 166 140 199
3 141 129 139
3 160 170 214
3 185 198 169
3 178 167 175
3 131 184 111
3 110 184 181
3 195 172 175
3 110 163 184
3 163 137 184
3 177 163 110
3 192 165 172
3 119 145 107
3 111 151 147
3 151 205 147
3 137 151 111
3 138 166 154
3 181 184 131
3 113 212 179
3 131 160 212
3 181 131 113
3 215 142 140
3 217 182 145
3 178 133 167
3 174 169 137
3 195 175 194
3 111 147 160
3 175 167 174
3 146 202 206
3 167 185 169
3 154 177 182
3 183 161 132
3 183 136 161
3 128 136 183
3 132 161 159
3 154 166 120
3 166 122 120
3 145 156 164
3 166 199 122
3 146 206 142
3 148 202 146
3 205 209 147
3 182 156 145
3 212 210 179
3 147 209 170
3 134 133 178
3 140 142 199
3 170 201 141
3 174 167 169
3 133 185 167
3 138 140 166
3 129 155 139
3 195 192 172
3 201 129 141
3 156 181 152
3 120 195 194
3 164 162 126
3 136 148 161
3 159 146 142
3 174 137 163
3 200 216 109
3 161 148 146
3 211 218 200
3 159 161 146
3 169 198 151
3 184 137 111
3 109 119 108
3 212 214 210
3 213 215 211
3 172 157 178
3 159 142 215
3 214 141 197
3 164 152 162
3 209 201 170
3 122 195 120
3 157 134 178
3 120 194 177
3 132 159 213
3 169 151 137
3 214 197 210
3 109 216 119
3 214 170 141
3 119 216 217
3 211 215 218
3 131 111 160
3 218 215 140
3 218 140 138
3 107 164 126
3 147 170 160
3 122 192 195
3 216 138 217
3 186 190 192
3 206 115 186
3 110 181 156
3 138 154 217
3 217 154 182
3 113 179 112
3 152 113 112
3 194 163 177
3 154 120 177
3 218 138 216
3 200 218 216
3 145 164 107
3 119 217 145
3 164 156 152
3 113 131 212
3 186 192 122
3 213 159 215
3 141 139 197
3 160 214 212
3 165 157 172
3 115 190 186
3 190 165 192
3 172 178 175
3 175 174 194
3 194 174 163
3 152 112 162
3 229 220 219
3 277 280 221
3 276 279 280
3 139 155 278
3 219 236 229
3 229 231 220
3 231 233 224
3 227 277 221
3 231 224 220
3 277 276 280
3 233 226 224
3 276 275 279
3 227 221 226
3 275 139 278
3 229 236 242
3 135 231 229
3 227 274 277
3 273 276 277
3 276 271 275
3 229 242 135
3 135 240 231
3 240 237 233
3 274 273 277
3 231 240 233
3 273 271 276
3 237 227 233
3 271 197 275
3 135 242 158
3 245 240 135
3 237 270 274
3 274 130 273
3 269 271 273
3 236 248 242
3 210 197 271
3 158 242 255
3 135 158 245
3 245 243 240
3 242 248 255
3 243 270 237
3 130 269 273
3 251 268 228
3 245 158 265
3 275 278 279
3 262 243 245
3 230 223 222
3 223 232 225
3 239 232 230
3 126 162 232
3 117 204 250
3 239 126 232
3 268 235 247
3 255 173 266
3 228 268 180
3 158 266 265
3 230 228 238
3 245 265 262
3 268 247 180
3 117 188 204
3 238 228 180
3 262 265 251
3 235 117 250
3 230 238 239
3 197 139 275
3 222 261 262
3 114 126 239
3 124 264 208
3 204 188 208
3 180 247 254
3 272 266 191
3 238 180 153
3 251 265 272
3 180 254 153
3 232 162 225
3 251 272 268
3 247 250 257
3 239 244 114
3 222 251 228
3 238 153 244
3 250 204 259
3 250 259 257
3 239 238 244
3 204 150 259
3 243 237 240
3 269 210 271
3 193 196 188
3 208 253 150
3 264 144 253
3 204 208 150
3 268 272 235
3 274 270 130
3 235 191 117
3 222 228 230
3 191 193 117
3 193 188 117
3 196 124 188
3 162 112 225
3 230 232 223
3 235 272 191
3 247 257 254
3 208 264 253
3 225 112 171
3 265 266 272
3 223 225 260
3 223 260 261
3 237 274 227
3 191 173 193
3 262 251 222
3 173 176 193
3 176 196 193
3 112 179 171
3 225 171 260
3 222 223 261
3 266 173 191
3 188 124 208
3 171 179 269
3 247 235 250
3 260 171 130
3 158 255 266
3 261 260 270
3 243 261 270
3 255 168 173
3 262 261 243
3 233 227 226
3 168 176 173
3 248 168 255
3 179 210 269
3 130 171 269
3 270 260 130
3 104 125 121
3 207 187 123
3 249 234 116
3 246 267 234
3 121 63 104
3 104 102 125
3 102 100 189
3 263 207 123
3 102 189 125
3 207 203 187
3 100 118 189
3 203 249 116
3 263 123 118
3 249 246 234
3 104 63 93
3 263 252 207
3 149 203 207
3 256 246 249
3 63 84 93
3 104 93 91
3 91 89 102
3 89 143 100
3 143 252 263
3 91 102 104
3 252 149 207
3 102 89 100
3 149 258 203
3 143 263 100
3 258 256 249
3 91 93 88
3 143 67 252
3 252 68 149
3 69 258 149
3 88 93 62
3 91 88 86
3 86 87 89
3 93 84 62
3 87 67 143
3 252 67 68
3 86 89 91
3 68 69 149
3 87 143 89
3 69 66 258
3 88 62 64
3 101 106 285
3 67 78 68
3 203 116 187
3 86 88 74
3 103 284 283
3 90 101 103
3 95 106 101
3 77 78 67
3 97 82 83
3 90 95 101
3 70 96 85
3 62 73 64
3 105 70 94
3 88 64 74
3 103 105 92
3 86 74 76
3 85 96 83
3 70 85 94
3 74 64 65
3 97 98 82
3 92 105 94
3 203 258 249
3 76 74 282
3 96 97 83
3 103 92 90
3 134 95 90
3 99 75 81
3 82 98 81
3 288 73 287
3 94 85 198
3 65 64 288
3 85 205 198
3 103 101 284
3 96 65 288
3 90 92 133
3 94 198 185
3 282 65 70
3 85 83 205
3 90 133 134
3 66 256 258
3 283 282 105
3 92 185 133
3 83 82 209
3 92 94 185
3 282 74 65
3 82 201 209
3 81 129 201
3 75 155 129
3 70 65 96
3 96 288 97
3 287 98 97
3 282 70 105
3 287 286 98
3 286 99 98
3 106 281 285
3 284 101 285
3 283 105 103
3 288 287 97
3 81 75 129
3 285 281 79
3 83 209 205
3 284 285 78
3 64 73 288
3 283 284 77
3 82 81 201
3 283 77 76
3 72 286 287
3 281 71 79
3 285 79 78
3 284 78 77
3 76 282 283
3 73 72 287
3 78 79 68
3 62 80 73
3 76 77 87
3 98 99 81
3 79 71 69
3 76 87 86
3 100 263 118
3 80 72 73
3 84 80 62
3 71 66 69
3 68 79 69
3 87 77 67
3 241 60 53
3 59 241 51
3 58 59 4
3 1 0 6
3 2 1 7
3 51 241 53
3 4 59 51
3 44 58 4
3 8 2 7
3 121 8 63
3 4 51 39
3 37 44 4
3 6 44 10
3 8 7 13
3 35 53 33
3 39 51 35
3 37 4 39
3 10 44 37
3 12 6 10
3 13 7 12
3 63 14 84
3 30 10 37
3 12 10 3
3 13 12 16
3 84 14 19
3 29 35 15
3 31 39 29
3 31 30 37
3 3 10 30
3 16 12 3
3 13 16 18
3 19 14 18
3 0 58 44
3 20 31 29
3 52 45 54
3 43 52 50
3 29 15 5
3 286 50 99
3 60 61 127
3 84 19 80
3 54 46 55
3 54 55 34
3 52 54 36
3 50 52 40
3 99 50 38
3 38 50 40
3 20 5 57
3 99 38 75
3 21 20 11
3 27 219 220
3 41 42 32
3 35 51 53
3 52 36 40
3 17 41 27
3 56 17 28
3 16 23 9
3 55 56 25
3 18 9 24
3 17 27 28
3 25 56 28
3 55 25 34
3 53 127 33
3 36 54 34
3 41 49 11
3 75 38 278
3 7 1 6
3 38 40 279
3 6 0 44
3 40 36 280
3 23 3 22
3 27 41 32
3 25 224 226
3 34 226 221
3 27 32 219
3 39 35 29
3 40 280 279
3 36 221 280
3 53 60 127
3 28 27 220
3 31 37 39
3 38 279 278
3 25 28 224
3 28 220 224
3 46 9 47
3 34 25 226
3 45 24 46
3 36 34 221
3 43 26 45
3 47 56 55
3 48 17 56
3 17 49 41
3 63 8 14
3 41 11 42
3 286 43 50
3 43 45 52
3 54 45 46
3 46 47 55
3 14 13 18
3 47 48 56
3 48 49 17
3 75 278 155
3 11 57 42
3 35 33 15
3 72 43 286
3 8 13 14
3 23 48 47
3 48 22 49
3 49 21 11
3 121 2 8
3 11 20 57
3 72 26 43
3 26 24 45
3 24 9 46
3 9 23 47
3 23 22 48
3 12 7 6
3 22 21 49
3 80 26 72
3 21 30 31
3 19 24 26
3 22 30 21
3 21 31 20
3 20 29 5
3 80 19 26
3 19 18 24
3 18 16 9
3 16 3 23
3 22 3 30
CELL_TYPES 512
5
5
5
5
5
5
5
5
5
5
5
5
5
5
5
5
5
5
5
5
5
5
5
5
5
5
5
5
5
5
5
5
5
5
5
5
5
5
5
5
5
5
5
5
5
5
5
5
5
5
5
5
5
5
5
5
5
5
5
5
5
5
5
5
5
5
5
5
5
5
5
5
5
5
5
5
5
5
5
5
5
5
5
5
5
5
5
5
5
5
5
5
5
5
5
5
5
5
5
5
5
5
5
5
5
5
5
5
5
5
5
5
5
5
5
5
5
5
5
5
5
5
5
5
5
5
5
5
5
5
5
5
5
5
5
5
5
5
5
5
5
5
5
5
5
5
5
5
5
5
5
5
5
5
5
5
5
5
5
5
5
5
5
5
5
5
5
5
5
5
5
5
5
5
5
5
5
5
5
5
5
5
5
5
5
5
5
5
5
5
5
5
5
5
5
5
5
5
5
5
5
5
5
5
5
5
5
5
5
5
5
5
5
5
5
5
5
5
5
5
5
5
5
5
5
5
5
5
5
5
5
5
5
5
5
5
5
5
5
5
5
5
5
5
5
5
5
5
5
5
5
5
5
5
5
5
5
5
5
5
5
5
5
5
5
5
5
5
5
5
5
5
5
5
5
5
5
5
5
5
5
5
5
5
5
5
5
5
5
5
5
5
5
5
5
5
5
5
5
5
5
5
5
5
5
5
5
5
5
5
5
5
5
5
5
5
5
5
5
5
5
5
5
5
5
5
5
5
5
5
5
5
5
5
5
5
5
5
5
5
5
5
5
5
5
5
5
5
5
5
5
5
5
5
5
5
5
5
5
5
5
5
5
5
5
5
5
5
5
5
5
5
5
5
5
5
5
5
5
5
5
5
5
5
5
5
5
5
5
5
5
5
5
5
5
5
5
5
5
5
5
5
5
5
5
5
5
5
5
5
5
5
5
5
5
5
5
5
5
5
5
5
5
5
5
5
5
5
5
5
5
5
5
5
5
5
5
5
5
5
5
5
5
5
5
5
5
5
5
5
5
5
5
5
5
5
5
5
5
5
5
5
5
5
5
5
5
5
5
5
5
5
5
5
5
5
5
5
5
5
5
5
5
5
5
5
5
5
5
5
5
5
5
5
5
5
5
5
5
5
5
5
5
5
5
5
5
5
5
5
5
5
CELL_DATA 512
VECTORS vector_value float
-0.247656 -0.719936 0
-0.247656 -0.878917 0
-0.0793371 -0.988989 0
-0.0373342 -0.946986 0
-0.0586196 -0.946986 0
-0.13205 -0.482188 0
0.000967274 -0.666155 0
0 -0.955996 0
-0.0356024 -1.22084 0
-0.0115044 -0.678626 0
-0.0115044 -0.692543 0
-0.0915708 -0.926269 0
-0.0224656 -1.71279 0
-0.0329193 -1.65052 0
-0.0291972 -1.16244 0
-0.0552454 -1.11531 0
-0.604517 -0.818382 0
-0.401717 -0.724856 0
-0.08506 -1.0856 0
-0.401717 -1.02118 0
-0.286609 -1.02118 0
-0.259451 -0.878917 0
-0.0380683 -1.07307 0
-0.067617 -0.692543 0
-0.0934105 -1.30566 0
-0.0356024 -1.30566 0
-0.126837 -1.33909 0
-0.124242 -0.887743 0
-0.495243 -0.818382 0
-0.205789 -0.408449 0
-0.461076 -1.92733 0
-0.495243 -0.482188 0
-0.0533249 -0.893318 0
-0.145969 -0.730554 0
-0.00883888 -1.11531 0
-0.0917271 -1.17932 0
-0.08506 -1.04485 0
-0.934105 -2.59973 0
-0.0552454 -1.11542 0
-0.0283246 -0.955996 0
-0.0186563 -1.1519 0
-0.190361 -0.821623 0
-0.00580775 -0.892904 0
-0.00580775 -0.910327 0
0 -0.904519 0
-0.0116942 -0.89879 0
-0.130097 -0.887743 0
-0.130097 -0.977029 0
-0.135351 -0.66282 0
-0.0793371 -0.926269 0
-0.0283246 -0.916691 0
0 -0.927671 0
-0.0219779 -1.29204 0
-0.135351 -0.719936 0
0.00601221 -0.196647 0
-0.219779 -1.69854 0
-0.00883888 -1.10745 0
-0.0586196 -0.893318 0
-0.0550328 -1.67643 0
-0.0917271 -1.1519 0
-0.0186563 -1.12513 0
-0.0915708 -0.855072 0
0.00153117 -1.68879 0
-0.0380683 -1.03861 0
-0.0224656 -1.64386 0
-0.252575 -0.602713 0
-0.159119 -1.04485 0
0.00279316 -0.625468 0
0 -0.910327 0
-0.0352458 -0.916691 0
-0.286609 -1.17932 0
-0.0238584 -0.742827 0
-0.0173445 -0.927671 0
-0.0220683 -0.790544 0
-0.0173445 -0.89879 0
-0.0291972 -1.21443 0
-0.604517 -1.33909 0
-0.020596 -0.701635 0
-0.184264 -1.96647 0
-0.0174175 -0.83468 0
-0.0255381 -1.09861 0
-0.0352458 -0.875239 0
-0.0588261 -1.77596 0
-0.0752446 -0.625468 0
-0.0550328 -1.5338 0
-0.0912977 -0.977029 0
0 -1.09861 0
-0.159119 -0.948007 0
-0.0116942 -0.869515 0
-0.126837 -1.21443 0
0.0062453 -1.77596 0
-0.020596 -0.739565 0
-0.0588261 -1.67643 0
-0.0766275 -0.739565 0
-0.0220683 -0.839331 0
-0.0461076 -0.259973 0
-0.0533249 -0.839331 0
-0.0690656 -0.855072 0
-0.0378932 -0.666155 0
-0.0329193 -1.69854 0
-0.0912977 -1.03861 0
-0.0766275 -0.799896 0
-0.041675 -1.03501 0
-0.0373342 -0.99333 0
-0.252575 -0.724856 0
-0.124242 -0.799896 0
-0.145969 -0.821623 0
0.00540824 -0.408449 0
-0.13205 -0.545907 0
-0.259451 -1.04834 0
-0.190361 -0.948007 0
-0.0690656 -0.792334 0
-0.0238584 -0.792334 0
-0.0378932 -0.66282 0
-0.067617 -0.730554 0
-0.0752446 -0.602713 0
-0.205789 -0.192733 0
-0.041675 -0.988989 0
-0.0174175 -0.875239 0
0.00434472 -1.71279 0
-0.184264 -1.65052 0
0 -1.07307 0
0 -0.99333 0
0 -1.03501 0
-0.0255381 -1.0856 0
-0.155629 -1.11542 0
-0.155629 -1.04834 0
0.00431661 -0.545907 0
0.0228283 -1.02113 0
0.0224329 -1.26957 0
0.0589238 -1.51633 0
0.00153117 -1.68573 0
0.0211338 -1.01944 0
0.0228283 -1.06181 0
0.0278079 -1.11528 0
0.0386437 -1.28578 0
0.0278079 -1.06679 0
0.224329 -1.68174 0
0.0349376 -1.12241 0
0.0589238 -1.66733 0
0.0386437 -1.19228 0
0.0257767 -1.70998 0
0.0651996 -1.01944 0
0.0812736 -1.06181 0
0.0944249 -1.28578 0
0.0445134 -1.68174 0
0.0684285 -1.66733 0
0.0651996 -1.04574 0
0.0812736 -1.08831 0
0.108237 -1.16096 0
0.944249 -2.58147 0
0.108237 -1.11528 0
0.0445134 -1.64341 0
0.135848 -1.18858 0
0.0684285 -1.77406 0
0.12385 -1.04574 0
0.180887 -1.08831 0
0.611944 -1.3272 0
0.0487481 -0.258147 0
0.199079 -1.64341 0
0.0600127 -1.01425 0
0.0062453 -1.77406 0
0.0966839 -1.01857 0
0.12385 -1.03128 0
0.180887 -1.03977 0
0.0966839 -1.01425 0
0.302086 -1.01734 0
0.487481 -1.93181 0
0.142095 -0.812504 0
0.189376 -1.03128 0
0.0257767 -1.63418 0
0.279666 -1.03977 0
0.145786 -0.725582 0
0.0843096 -0.606043 0
0.043782 -0.667519 0
0.00279316 -0.626992 0
0.0596095 -0.909801 0
0.043782 -0.66798 0
0.0809889 -0.87361 0
0.109168 -0.991181 0
0.0853539 -0.812504 0
0.136557 -0.978458 0
0.0744775 -0.738827 0
0.189376 -0.949475 0
0.0809889 -0.808139 0
0.0596095 -0.956489 0
0.0853539 -0.749704 0
0.211261 -0.949475 0
0.0702584 -0.92045 0
0.0744775 -0.698215 0
0.00434472 -1.70998 0
0.262889 -0.881069 0
0.000967274 -0.66798 0
0.0498272 -0.983656 0
0.0523553 -0.949235 0
0.0269183 -0.808139 0
0.123834 -0.9419 0
0.0229887 -0.749704 0
0.160392 -0.898606 0
0.0269183 -0.753633 0
0.0843096 -0.626992 0
0.142095 -0.898606 0
0.0262488 -0.86288 0
0.0135476 -0.680561 0
0.159031 -0.829441 0
0.0229887 -0.707656 0
0.0233366 -0.909801 0
0.0233366 -0.859967 0
0.0135476 -0.698215 0
0.020176 -0.906641 0
0.302086 -1.16096 0
0.199079 -1.96689 0
0.0820506 -0.990776 0
0.0179341 -0.946993 0
0.0171391 -0.982861 0
0.020176 -0.949235 0
0.117098 -0.87361 0
0.611944 -0.821343 0
0.0956482 -0.92045 0
0.159031 -0.738827 0
0.0956482 -0.970086 0
0.0820506 -0.956489 0
0.0774589 -0.986184 0
0.00431661 -0.546999 0
0.145786 -0.667519 0
0.117098 -0.9419 0
0.0262488 -0.80747 0
0.0179341 -0.983656 0
0.143354 -0.546999 0
0.160392 -0.978458 0
0.265324 -0.606043 0
0.265324 -0.728017 0
0.135848 -1.3272 0
0.10274 -0.970086 0
0.211261 -0.829441 0
0.10274 -0.997609 0
0.0959072 -0.990776 0
0.00540824 -0.409053 0
0.143354 -0.484074 0
0.262889 -0.725582 0
0.123834 -0.991181 0
0.0523553 -0.986184 0
0.218375 -0.409053 0
0.0702584 -0.86288 0
0.509268 -0.484074 0
0.136557 -1.01857 0
0.415942 -0.728017 0
0.415942 -1.01734 0
0.109168 -1.00609 0
0.279666 -0.881069 0
0.0349376 -1.18858 0
0.10069 -0.997609 0
0.0885176 -1.00609 0
0.00601221 -0.196689 0
0.218375 -0.193181 0
0.509268 -0.821343 0
0.0115044 -0.678626 0
0.0174175 -0.83468 0
0.00580775 -0.892904 0
0 -0.904519 0
-0.000967274 -0.666155 0
0.0115044 -0.692543 0
0.020596 -0.739565 0
0.0220683 -0.839331 0
0.020596 -0.701635 0
0.0174175 -0.875239 0
0.0238584 -0.742827 0
0.0116942 -0.89879 0
0.0220683 -0.790544 0
0.00580775 -0.910327 0
0.0378932 -0.666155 0
0.0533249 -0.839331 0
0.0352458 -0.875239 0
0 -0.910327 0
-0.00279316 -0.625468 0
0.0378932 -0.66282 0
0.067617 -0.730554 0
0.0766275 -0.799896 0
0.0690656 -0.855072 0
0.067617 -0.692543 0
0.0533249 -0.893318 0
0.0766275 -0.739565 0
0.0352458 -0.916691 0
0.0690656 -0.792334 0
0.0173445 -0.927671 0
0.135351 -0.66282 0
0.0915708 -0.855072 0
0.0586196 -0.893318 0
0.0283246 -0.916691 0
0.0752446 -0.602713 0
0.135351 -0.719936 0
0.145969 -0.821623 0
0.0752446 -0.625468 0
0.124242 -0.887743 0
0.0915708 -0.926269 0
0.145969 -0.730554 0
0.0586196 -0.946986 0
0.124242 -0.799896 0
0.0283246 -0.955996 0
0.252575 -0.602713 0
0.0380683 -1.07307 0
0.0793371 -0.926269 0
0.0116942 -0.869515 0
0.247656 -0.719936 0
0.08506 -1.04485 0
0.0255381 -1.0856 0
0 -1.07307 0
0.130097 -0.977029 0
0.0329193 -1.69854 0
0.0255381 -1.09861 0
0.126837 -1.33909 0
0.13205 -0.482188 0
0.0917271 -1.17932 0
0.252575 -0.724856 0
0.0552454 -1.11542 0
0.247656 -0.878917 0
0.0934105 -1.30566 0
0.126837 -1.21443 0
0.401717 -0.724856 0
0.0329193 -1.65052 0
0.0917271 -1.1519 0
0.0173445 -0.89879 0
0.259451 -0.878917 0
0.934105 -2.59973 0
0.0552454 -1.11531 0
0 -1.09861 0
-0.00434472 -1.71279 0
0.0588261 -1.67643 0
0.205789 -0.192733 0
0.0291972 -1.21443 0
0.495243 -0.818382 0
0.0356024 -1.22084 0
0.08506 -1.0856 0
0.604517 -0.818382 0
0.00883888 -1.11531 0
0.0291972 -1.16244 0
0.286609 -1.02118 0
0.0356024 -1.30566 0
0.00883888 -1.10745 0
0 -0.927671 0
0.155629 -1.04834 0
0.0186563 -1.12513 0
0.219779 -1.69854 0
0.0186563 -1.1519 0
0.401717 -1.02118 0
0.0550328 -1.5338 0
0.0224656 -1.64386 0
-0.00153117 -1.68879 0
0.604517 -1.33909 0
0.0461076 -0.259973 0
0.184264 -1.65052 0
0.286609 -1.17932 0
0.184264 -1.96647 0
-0.0062453 -1.77596 0
0 -1.03501 0
0.0380683 -1.03861 0
0.155629 -1.11542 0
0.461076 -1.92733 0
0.0224656 -1.71279 0
0.041675 -1.03501 0
0.0219779 -1.29204 0
0.0912977 -1.03861 0
0.495243 -0.482188 0
0.159119 -1.04485 0
0.0550328 -1.67643 0
0.159119 -0.948007 0
-0.00601221 -0.196647 0
0 -0.99333 0
0.041675 -0.988989 0
0.0912977 -0.977029 0
0.259451 -1.04834 0
0.205789 -0.408449 0
0.0793371 -0.988989 0
0.13205 -0.545907 0
0.190361 -0.948007 0
0.0588261 -1.77596 0
0.0373342 -0.99333 0
0.190361 -0.821623 0
0.0238584 -0.792334 0
-0.00540824 -0.408449 0
-0.00431661 -0.545907 0
0 -0.955996 0
0.0373342 -0.946986 0
0.130097 -0.887743 0
-0.0179341 -0.946993 0
-0.020176 -0.906641 0
-0.0233366 -0.859967 0
-0.0269183 -0.753633 0
-0.0229887 -0.707656 0
-0.020176 -0.949235 0
-0.0233366 -0.909801 0
-0.0262488 -0.86288 0
-0.0135476 -0.698215 0
-0.000967274 -0.66798 0
-0.0596095 -0.909801 0
-0.0702584 -0.86288 0
-0.0809889 -0.808139 0
-0.0744775 -0.698215 0
-0.0523553 -0.986184 0
-0.0596095 -0.956489 0
-0.0702584 -0.92045 0
-0.0809889 -0.87361 0
-0.0853539 -0.812504 0
-0.0744775 -0.738827 0
-0.00279316 -0.626992 0
-0.117098 -0.87361 0
-0.142095 -0.812504 0
-0.159031 -0.738827 0
-0.0843096 -0.626992 0
-0.0820506 -0.990776 0
-0.0956482 -0.970086 0
-0.117098 -0.9419 0
-0.142095 -0.898606 0
-0.159031 -0.829441 0
-0.145786 -0.725582 0
-0.0843096 -0.606043 0
-0.0262488 -0.80747 0
-0.10274 -0.970086 0
-0.0487481 -0.258147 0
-0.199079 -1.64341 0
-0.0959072 -0.990776 0
-0.0062453 -1.77406 0
-0.0171391 -0.982861 0
-0.00431661 -0.546999 0
-0.611944 -1.3272 0
-0.135848 -1.3272 0
-0.944249 -2.58147 0
-0.0445134 -1.64341 0
-0.0684285 -1.77406 0
-0.0684285 -1.66733 0
-0.10069 -0.997609 0
-0.00434472 -1.70998 0
-0.109168 -0.991181 0
-0.0228283 -1.02113 0
-0.0600127 -1.01425 0
-0.0523553 -0.949235 0
-0.0445134 -1.68174 0
-0.0651996 -1.04574 0
-0.0812736 -1.08831 0
-0.262889 -0.881069 0
-0.108237 -1.16096 0
-0.265324 -0.728017 0
-0.0812736 -1.06181 0
-0.108237 -1.11528 0
-0.135848 -1.18858 0
-0.0498272 -0.983656 0
-0.0944249 -1.28578 0
-0.0966839 -1.01857 0
-0.0257767 -1.70998 0
-0.0229887 -0.749704 0
-0.0589238 -1.66733 0
-0.0269183 -0.808139 0
-0.224329 -1.68174 0
-0.211261 -0.949475 0
-0.0651996 -1.01944 0
-0.0349376 -1.12241 0
-0.0386437 -1.19228 0
-0.0211338 -1.01944 0
-0.0820506 -0.956489 0
-0.0589238 -1.51633 0
-0.0224329 -1.26957 0
-0.0179341 -0.983656 0
-0.0228283 -1.06181 0
-0.0956482 -0.92045 0
-0.0257767 -1.63418 0
-0.0278079 -1.11528 0
-0.0278079 -1.06679 0
-0.415942 -1.01734 0
-0.0349376 -1.18858 0
-0.509268 -0.821343 0
-0.0386437 -1.28578 0
-0.218375 -0.193181 0
-0.302086 -1.16096 0
-0.180887 -1.08831 0
-0.12385 -1.04574 0
-0.043782 -0.66798 0
-0.0966839 -1.01425 0
-0.199079 -1.96689 0
-0.487481 -1.93181 0
-0.611944 -0.821343 0
-0.302086 -1.01734 0
-0.145786 -0.667519 0
-0.180887 -1.03977 0
-0.12385 -1.03128 0
-0.00153117 -1.68573 0
-0.0885176 -1.00609 0
-0.0774589 -0.986184 0
-0.00601221 -0.196689 0
-0.043782 -0.667519 0
-0.279666 -1.03977 0
-0.189376 -1.03128 0
-0.136557 -1.01857 0
-0.0135476 -0.680561 0
-0.109168 -1.00609 0
-0.218375 -0.409053 0
-0.509268 -0.484074 0
-0.415942 -0.728017 0
-0.279666 -0.881069 0
-0.189376 -0.949475 0
-0.0853539 -0.749704 0
-0.136557 -0.978458 0
-0.00540824 -0.409053 0
-0.123834 -0.9419 0
-0.143354 -0.484074 0
-0.160392 -0.978458 0
-0.123834 -0.991181 0
-0.10274 -0.997609 0
-0.143354 -0.546999 0
-0.265324 -0.606043 0
-0.262889 -0.725582 0
-0.211261 -0.829441 0
-0.160392 -0.898606 0
