# vtk DataFile Version 2.0
Unstructured Grid by M++
ASCII
DATASET UNSTRUCTURED_GRID
POINTS 4072 float
  0.562500   0.968750 0
  0.906250   0.500000 0
  0.750000   0.781250 0
  0.953125   0.531250 0
  0.984375   0.875000 0
  0.828125   0.828125 0
  0.828125   0.859375 0
  0.562500   0.765625 0
  0.937500   0.687500 0
  0.968750   0.578125 0
  0.968750   0.781250 0
  0.734375   0.843750 0
  0.968750   0.718750 0
  0.734375   0.796875 0
  0.984375   0.718750 0
  0.984375   0.703125 0
  1.000000   0.750000 0
  0.984375   0.734375 0
  1.000000   0.718750 0
  0.953125   0.859375 0
  0.953125   0.843750 0
  0.937500   0.843750 0
  0.921875   0.640625 0
  0.937500   0.625000 0
  0.671875   0.906250 0
  0.687500   0.890625 0
  1.000000   0.687500 0
  0.828125   0.796875 0
  0.828125   0.750000 0
  0.515625   0.750000 0
  0.828125   0.937500 0
  0.968750   0.625000 0
  0.984375   0.593750 0
  0.984375   0.796875 0
  0.750000   0.859375 0
  0.859375   0.937500 0
  0.828125   0.953125 0
  0.859375   0.781250 0
  0.593750   0.515625 0
  0.984375   0.750000 0
  0.734375   0.828125 0
  1.000000   0.734375 0
  0.750000   0.812500 0
  0.953125   0.562500 0
  0.968750   0.750000 0
  0.734375   0.812500 0
  0.968750   0.546875 0
  0.843750   0.906250 0
  0.875000   0.875000 0
  0.578125   0.640625 0
  0.750000   0.968750 0
  0.984375   0.906250 0
  0.625000   0.515625 0
  0.937500   0.593750 0
  0.781250   0.578125 0
  0.640625   0.968750 0
  0.937500   0.531250 0
  0.937500   0.515625 0
  0.953125   0.500000 0
  0.703125   0.796875 0
  0.859375   0.718750 0
  0.703125   0.765625 0
  0.921875   0.703125 0
  0.687500   0.765625 0
  0.921875   0.500000 0
  0.718750   0.781250 0
  0.734375   0.765625 0
  0.968750   0.687500 0
  0.968750   0.890625 0
  0.734375   0.953125 0
  0.859375   0.828125 0
  0.890625   0.484375 0
  0.843750   0.843750 0
  0.828125   0.765625 0
  0.968750   0.906250 0
  0.796875   0.578125 0
  0.765625   0.828125 0
  0.609375   0.968750 0
  0.734375   0.656250 0
  0.671875   0.875000 0
  0.531250   0.906250 0
  0.546875   0.921875 0
  0.765625   0.656250 0
  0.531250   0.937500 0
  0.531250   0.734375 0
  0.765625   0.671875 0
  0.843750   0.734375 0
  0.843750   0.937500 0
  0.609375   1.000000 0
  0.593750   0.796875 0
  0.828125   0.734375 0
  0.578125   0.812500 0
  0.671875   0.562500 0
  0.781250   0.562500 0
  0.656250   1.000000 0
  0.765625   0.796875 0
  0.656250   0.593750 0
  0.796875   0.562500 0
  0.625000   0.828125 0
  0.625000   0.625000 0
  0.859375   0.562500 0
  0.796875   1.000000 0
  0.890625   0.781250 0
  0.875000   0.781250 0
  0.625000   0.859375 0
  0.843750   0.781250 0
  0.859375   0.765625 0
  0.843750   0.765625 0
  0.859375   0.750000 0
  0.843750   0.750000 0
  0.765625   1.000000 0
  0.781250   0.984375 0
  0.875000   0.625000 0
  0.875000   0.812500 0
  0.640625   0.875000 0
  0.562500   0.906250 0
  0.796875   0.843750 0
  0.796875   0.828125 0
  0.656250   0.906250 0
  0.890625   0.640625 0
  0.875000   0.843750 0
  0.859375   0.843750 0
  0.625000   0.906250 0
  0.812500   0.875000 0
  0.859375   0.515625 0
  0.812500   0.843750 0
  0.796875   0.875000 0
  0.796875   0.859375 0
  0.593750   0.968750 0
  0.859375   0.875000 0
  0.625000   0.937500 0
  0.843750   0.875000 0
  0.593750   0.953125 0
  0.859375   0.859375 0
  0.828125   0.671875 0
  0.890625   0.765625 0
  0.656250   0.828125 0
  0.656250   0.625000 0
  0.890625   0.562500 0
  0.640625   0.843750 0
  0.640625   0.640625 0
  0.875000   0.578125 0
  0.890625   0.750000 0
  0.875000   0.765625 0
  0.562500   0.625000 0
  0.968750   0.500000 0
  0.734375   0.562500 0
  0.937500   0.578125 0
  0.703125   0.640625 0
  0.656250   0.984375 0
  0.640625   1.000000 0
  0.953125   0.578125 0
  0.671875   0.984375 0
  0.906250   0.921875 0
  0.921875   0.687500 0
  0.671875   0.765625 0
  0.687500   0.750000 0
  0.906250   0.484375 0
  0.984375   0.921875 0
  0.734375   1.000000 0
  1.000000   0.906250 0
  0.750000   0.984375 0
  0.828125   0.843750 0
  0.593750   0.906250 0
  0.828125   0.640625 0
  0.843750   0.828125 0
  0.609375   0.890625 0
  0.609375   0.687500 0
  0.843750   0.625000 0
  0.734375   0.875000 0
  0.968750   0.812500 0
  0.859375   0.812500 0
  0.625000   0.875000 0
  0.859375   0.609375 0
  0.843750   0.812500 0
  0.859375   0.796875 0
  0.828125   0.812500 0
  0.593750   0.875000 0
  0.828125   0.609375 0
  0.781250   0.843750 0
  0.515625   0.921875 0
  1.000000   0.781250 0
  0.765625   0.843750 0
  1.000000   0.578125 0
  0.765625   0.968750 0
  0.890625   0.703125 0
  0.656250   0.765625 0
  0.890625   0.500000 0
  0.875000   0.703125 0
  0.937500   0.937500 0
  0.984375   0.578125 0
  0.578125   0.531250 0
  0.875000   0.609375 0
  0.640625   0.671875 0
  0.796875   0.625000 0
  0.859375   0.593750 0
  0.625000   0.656250 0
  0.609375   0.671875 0
  0.593750   0.687500 0
  1.000000   0.562500 0
  0.765625   0.625000 0
  0.656250   0.578125 0
  0.625000   0.546875 0
  0.671875   0.812500 0
  0.906250   0.750000 0
  0.796875   0.546875 0
  0.828125   0.718750 0
  0.578125   0.781250 0
  0.875000   0.656250 0
  0.640625   0.718750 0
  0.734375   0.984375 0
  0.968750   0.921875 0
  0.609375   0.531250 0
  0.953125   0.921875 0
  0.968750   0.937500 0
  0.593750   0.546875 0
  0.765625   0.609375 0
  0.531250   0.671875 0
  0.781250   0.593750 0
  0.546875   0.656250 0
  0.656250   0.656250 0
  0.890625   0.593750 0
  0.656250   0.859375 0
  0.921875   0.671875 0
  0.968750   0.734375 0
  0.718750   0.812500 0
  0.812500   0.984375 0
  0.562500   0.796875 0
  0.750000   0.640625 0
  0.765625   0.687500 0
  0.531250   0.953125 0
  0.687500   0.656250 0
  0.921875   0.593750 0
  1.000000   0.593750 0
  0.750000   0.671875 0
  0.671875   0.750000 0
  0.906250   0.687500 0
  1.000000   0.656250 0
  0.812500   0.562500 0
  0.687500   0.796875 0
  0.921875   0.734375 0
  0.828125   0.546875 0
  1.000000   0.625000 0
  0.953125   0.968750 0
  0.750000   0.906250 0
  0.515625   0.968750 0
  0.812500   0.531250 0
  1.000000   0.796875 0
  0.515625   0.937500 0
  0.750000   0.875000 0
  0.812500   0.703125 0
  0.796875   0.703125 0
  0.812500   0.593750 0
  0.937500   0.562500 0
  0.656250   0.968750 0
  0.890625   0.906250 0
  0.703125   0.625000 0
  0.953125   0.546875 0
  0.671875   0.953125 0
  0.906250   0.890625 0
  0.984375   0.781250 0
  0.796875   0.687500 0
  0.562500   0.953125 0
  0.968750   0.875000 0
  0.718750   0.953125 0
  0.562500   0.937500 0
  0.781250   0.781250 0
  0.953125   0.875000 0
  0.718750   0.937500 0
  0.953125   0.671875 0
  0.796875   0.656250 0
  0.828125   1.000000 0
  0.953125   0.890625 0
  0.703125   0.968750 0
  0.828125   0.625000 0
  0.781250   0.968750 0
  0.781250   0.671875 0
  0.781250   0.875000 0
  0.546875   0.937500 0
  0.906250   0.640625 0
  0.671875   0.703125 0
  0.640625   0.609375 0
  0.875000   0.546875 0
  0.906250   0.625000 0
  0.656250   0.703125 0
  0.656250   0.718750 0
  0.968750   0.531250 0
  0.734375   0.593750 0
  0.984375   0.531250 0
  0.781250   0.546875 0
  0.718750   0.609375 0
  0.906250   0.703125 0
  0.968750   0.593750 0
  0.687500   1.000000 0
  0.921875   0.937500 0
  0.906250   0.765625 0
  0.906250   0.562500 0
  0.718750   0.750000 0
  0.718750   0.546875 0
  0.953125   0.484375 0
  0.796875   0.593750 0
  0.515625   1.000000 0
  0.750000   0.937500 0
  0.906250   0.593750 0
  0.546875   1.000000 0
  0.781250   0.937500 0
  0.828125   0.593750 0
  0.984375   0.609375 0
  0.937500   0.953125 0
  0.796875   0.515625 0
  0.968750   0.609375 0
  0.734375   0.671875 0
  0.906250   0.781250 0
  0.671875   0.843750 0
  0.515625   0.890625 0
  0.687500   0.625000 0
  0.921875   0.562500 0
  0.843750   0.531250 0
  1.000000   0.765625 0
  0.750000   0.843750 0
  0.812500   0.671875 0
  0.687500   0.921875 0
  0.765625   0.515625 0
  0.953125   0.609375 0
  0.921875   0.625000 0
  0.687500   0.687500 0
  0.812500   0.656250 0
  0.812500   0.859375 0
  0.578125   0.921875 0
  0.796875   0.765625 0
  0.890625   0.687500 0
  0.578125   0.750000 0
  0.812500   0.687500 0
  0.578125   0.953125 0
  0.796875   0.796875 0
  0.984375   0.890625 0
  0.734375   0.968750 0
  0.718750   0.640625 0
  0.968750   0.562500 0
  0.687500   0.968750 0
  0.921875   0.906250 0
  0.765625   0.953125 0
  0.812500   0.609375 0
  0.812500   0.734375 0
  0.875000   0.562500 0
  0.968750   0.656250 0
  0.796875   0.734375 0
  0.812500   0.828125 0
  0.578125   0.890625 0
  0.781250   0.687500 0
  0.984375   0.671875 0
  0.578125   0.828125 0
  0.812500   0.765625 0
  0.875000   0.593750 0
  1.000000   0.875000 0
  0.765625   0.937500 0
  0.843750   0.656250 0
  0.843750   0.859375 0
  0.609375   0.921875 0
  0.828125   0.687500 0
  0.937500   0.656250 0
  0.937500   0.859375 0
  0.703125   0.921875 0
  0.984375   0.640625 0
  0.890625   0.468750 0
  0.656250   0.734375 0
  0.890625   0.671875 0
  0.890625   0.875000 0
  0.656250   0.937500 0
  0.578125   0.859375 0
  0.812500   0.796875 0
  0.843750   0.890625 0
  0.609375   0.953125 0
  0.937500   0.875000 0
  0.687500   0.953125 0
  0.843750   0.953125 0
  0.828125   0.703125 0
  0.593750   0.765625 0
  0.937500   0.546875 0
  0.781250   0.531250 0
  0.781250   0.734375 0
  0.546875   0.796875 0
  0.796875   0.718750 0
  0.562500   0.984375 0
  0.984375   0.812500 0
  0.562500   0.812500 0
  0.796875   0.750000 0
  0.562500   0.875000 0
  0.796875   0.812500 0
  0.640625   0.750000 0
  0.875000   0.687500 0
  0.703125   0.671875 0
  0.937500   0.609375 0
  0.562500   0.843750 0
  0.796875   0.781250 0
[...]
POINT_DATA 4072
SCALARS scalar_value float 1
LOOKUP_TABLE default
5.21757e-05
0.201346
0.000308341
0.00146411
1.63498e-05
-1.93236e-05
-3.63931e-05
-0.000230592
6.93411e-05
-0.00212168
-6.66124e-05
-0.000176889
-0.000270001
-0.000159913
9.50756e-05
5.80082e-05
-0.000234831
-0.000121104
-6.12495e-05
2.90089e-06
2.58146e-05
-0.000104563
-0.000668603
0.000383993
-1.3137e-05
1.5041e-05
-1.92499e-05
-0.000159471
0.000400049
-0.000110122
1.27127e-06
0.000299396
0.000815134
6.59875e-05
0.000187517
-1.23197e-05
-1.9615e-05
0.000263911
0.00249407
0.000120332
-0.000274955
0.000157439
3.02141e-05
-0.000521659
-0.000217736
1.02209e-05
-0.00357901
1.4438e-05
3.16888e-05
0.00857357
2.477e-06
-1.01595e-05
0.0198061
0.000707339
-0.00517976
5.73065e-06
0.00652271
-0.00984176
-0.000160019
-0.000286791
0.000800448
-0.000270392
-0.000888772
-0.000582434
0.0390708
0.000242932
0.000399463
-0.000156237
1.33652e-06
1.6643e-05
1.12964e-05
-0.0788403
0.000105805
-0.000456472
-3.17462e-06
-0.00325942
-0.000136005
-1.02475e-05
0.00165247
-6.87217e-06
-0.000166557
-0.000309373
0.00160969
-4.32369e-05
-0.00128857
-6.4278e-05
-0.000955787
2.25381e-05
0
0.000108063
0.000159928
2.33932e-05
-0.118585
0.00713606
0
0.000207433
-0.0164111
0.00256029
-0.000476115
-0.0113824
-0.00128827
0
-0.000188513
0.000232225
-0.000226299
0.000163379
-3.53027e-05
-0.000494834
0.000255096
0.0006029
0
-1.87703e-06
-0.000478679
-8.09978e-05
0.000118238
0.00020421
5.3642e-05
-0.000476517
9.00357e-06
-0.00111863
2.75476e-05
-7.1765e-05
9.26141e-05
-4.78857e-05
-0.00640697
0.000167201
3.45943e-05
-0.000442641
3.45233e-05
3.77755e-06
1.11502e-06
-1.33059e-05
-9.88661e-06
4.34891e-05
-0.00108775
-0.000181943
-0.000343451
0.0011265
0.00432601
0.000293073
0.00275961
-0.0018192
-3.29891e-05
-0.000374595
-0.00302277
0.0129837
-0.000108711
-0.00231458
0.000717891
1.36795e-05
0
-0.00042956
-7.46962e-06
-1.18767e-06
0.000879172
-0.00087845
0.00126476
0.0844918
8.25885e-06
0
-1.16086e-05
-5.33258e-07
4.58928e-05
0.000260066
-0.00158372
-0.000168604
-0.000148965
-0.0028669
0.000227443
-9.49271e-05
-1.16279e-05
0.00012754
0.000178591
-0.000357168
0.000177601
-4.9039e-05
-7.78265e-06
0.000443979
0.000376778
0.000291386
-0.000296797
-0.000111827
3.50978e-05
-0.00183957
2.93614e-06
-0.00118921
-0.000514987
0.0218409
-0.000254567
1.6091e-05
-0.000643919
0.0195483
-8.1939e-05
-0.00343649
0.00304139
0.00090843
-0.00592803
0.00974455
-0.00864524
0.00309846
0.00625692
0.0258904
0.0261409
0.000118042
0.000325389
-0.00527122
-0.000338437
8.21319e-05
-0.000225451
-0.00166062
1.68088e-05
8.82473e-07
0.00699438
3.69833e-06
-7.45768e-06
-0.00974364
-0.00741927
-0.00183023
0.00225944
0.00269247
0.00313521
-0.00116748
-2.82242e-05
-0.000768528
0.000166531
9.84938e-05
-6.13961e-06
-0.000242798
-0.00199708
-6.82413e-05
-0.000249343
-0.000625881
0.00288914
0.000778884
-0.00226237
0.000483253
0.000183537
-0.000326898
0.00543013
-5.97698e-05
-0.000163215
-0.00454605
-0.000331348
-6.05077e-06
1.38847e-05
-4.8068e-05
0.00704825
2.35702e-05
-0.000215189
5.89204e-05
-0.000401012
-0.000218644
0.00269267
0.00405132
1.26241e-05
-1.28878e-05
-0.00154589
-0.000325585
-5.42545e-06
-9.67321e-06
-4.72646e-05
-0.00064275
-0.000148101
-1.21461e-05
-1.34648e-05
0.000158064
0.000144015
2.74135e-05
2.32785e-05
9.21022e-05
0.00077282
0
-1.87952e-06
1.8008e-05
0.000894387
-2.16593e-05
-0.000298497
0.000876491
7.75569e-05
-0.0013532
5.98805e-05
0.0148727
0.00183115
0.00197723
-0.000853584
0.00141024
0.00581726
0.00821292
-0.0013555
-0.00659045
0.00438908
0.000277788
0.00143163
0
-8.44291e-07
0.00012931
0.0054134
0.000962968
-0.0103803
-0.0338538
0.00255322
0
-3.31163e-05
-0.00111371
0
-4.76924e-05
-0.000229539
-0.000625117
6.79487e-06
-0.00551756
-0.000908904
-0.00111631
0.000138712
-4.29495e-05
-0.000411866
0.00147498
-0.00821523
0.00580993
0.000198715
0.000136041
0.000457051
-5.96344e-06
0.00349904
-0.00149969
0.00134625
0.00113752
-0.00141392
4.4746e-07
-0.000210843
-0.000109675
0.00100411
0.000746006
0.000345015
-0.00011035
-0.000204882
-8.01882e-06
-1.83396e-05
-0.0026641
0.00290181
4.56293e-06
-2.02725e-05
5.76968e-06
-0.000117441
0.000140216
0.00124575
-0.000148095
-0.000384002
-0.000104013
-0.000275829
0.000461032
0.000146976
-6.32793e-05
-6.15081e-05
0.000735769
-2.53179e-05
-2.94904e-05
-0.00130323
-1.19637e-05
-6.49218e-05
0.000397846
0.000889398
6.13806e-06
2.75096e-05
-0.000137807
-0.0385473
-0.00121436
-0.00196674
-3.00438e-05
3.32603e-05
-0.000152497
-0.000395771
2.43025e-05
-1.9373e-05
-4.82083e-05
-9.94393e-07
1.66365e-05
0.000519909
-0.00023583
-0.00749194
0.0035631
-0.000108051
-0.000407019
-0.000376726
-4.39829e-05
-5.94984e-05
-6.52108e-05
-0.000358843
7.28202e-05
-3.08536e-05
0.00041592
0.000386321
-0.00200811
-0.000534986
-9.5987e-05
-0.000405125
8.71103e-05
0.000158311
1.0968e-05
0.00025829
0.00138555
0.00281786
0
-1.77496e-05
-0.000809733
0.000547928
0.000565352
2.27072e-05
0.000210508
-0.000100155
0
0.00297624
2.16972e-05
-0.000311538
0.00123389
-2.27226e-05
-7.67876e-05
3.95424e-05
-0.000175307
-0.00015971
0.00498961
0.00718029
0.000107877
0.0001551
-5.73792e-06
-0.009404
0.0016597
0.00138774
-0.000103094
0
-3.47066e-05
0.000497825
0.00169752
1.09701e-05
-0.0003992
0.000339335
0.00131164
0.00102249
0.00268637
-0.000227142
-0.000750545
1.35028e-06
-0.000244389
-0.000508566
-0.00124195
0.000321403
0.000607479
-0.00169677
0.00113937
-0.00152161
0
0.000430401
0.0017921
0.001314
-0.0213412
-4.18467e-06
0
0.000285992
-0.000105215
-2.39158e-06
0.000747655
-0.00071507
-0.000553174
-0.000533114
-9.21034e-06
0.000429594
0.00530587
8.08637e-06
1.25977e-05
6.8463e-05
0.00063264
-2.66237e-06
0
0.00107789
-4.41488e-06
6.03049e-06
-1.00792e-05
1.41454e-05
0
0
8.68204e-06
0.00211006
2.1209e-05
1.51973e-05
0.000853425
3.07276e-06
2.09872e-06
0
-0.00166323
-2.28495e-05
-2.14482e-05
0
0
0.00206677
3.89646e-05
0.00476518
-0.000348038
0.000310423
0.000322126
1.20781e-05
0.000842073
5.42347e-05
-0.00379601
-0.000639128
0.000609033
-0.000165699
9.20608e-06
-2.18324e-06
0
-0.00560392
0.0104957
0
0.000306435
4.97561e-07
-0.000502159
0.00470879
4.03567e-06
0.00268816
0.00101401
-4.15064e-06
-0.0061187
1.98768e-06
6.9955e-06
0.0226908
-3.80352e-06
1.54929e-05
1.65623e-05
-0.00500086
1.23192e-05
-1.36483e-05
-0.000322037
1.63772e-06
0.00567574
0.00188485
-3.37126e-06
-0.00743302
-0.0040282
-0.00681779
-7.25516e-07
-6.04375e-05
0.000155875
-0.000927556
1.50662e-05
-9.10615e-06
-0.000338956
0.000481962
-1.02823e-05
-0.000683476
-0.000276456
0
0.000137916
4.16291e-05
0.000589026
0.000465951
-1.89074e-05
0.000123148
-2.81067e-05
0.000328566
0.000475248
-0.00699263
0.00507121
-0.00136855
-0.00782513
0.0109375
-0.00429395
-0.00218659
-0.00415943
-0.00417487
-0.00542737
0.0117371
-0.000205215
0
0
0.000138398
0.000687294
0.000141206
-0.000747243
0.000201941
-2.05164e-05
0.000229676
9.62706e-07
-6.1061e-06
-1.22292e-05
3.74604e-06
-3.65006e-06
3.44193e-05
-1.13711e-05
-9.56243e-06
-4.4288e-05
3.12943e-05
1.18235e-05
1.6004e-05
1.26497e-05
1.00364e-06
-2.99176e-05
2.92185e-06
1.36721e-05
-2.67664e-06
-1.63213e-06
0
0
5.90873e-05
2.61775e-05
1.97964e-05
2.36003e-06
0
-8.96346e-06
0.00010994
5.02627e-05
-0.00031139
-6.87137e-05
-2.5087e-06
-3.7736e-05
1.12121e-05
7.49826e-06
-0.00246576
-0.000104511
-6.50809e-06
0.000158324
6.0337e-05
1.16135e-05
2.31787e-05
9.18266e-06
-9.26819e-05
5.9543e-06
-4.19606e-07
3.235e-05
3.34855e-05
2.02917e-05
-3.05272e-06
2.0128e-05
0.000164108
1.63154e-05
-5.62103e-07
1.09025e-05
3.31536e-05
2.16667e-05
0.00015531
-0.000892158
1.3021e-05
1.81358e-05
7.14514e-06
3.18995e-07
-2.00859e-05
2.34335e-05
0.000122396
-4.6661e-05
3.91915e-05
-6.4508e-05
1.18084e-05
-0.000120516
-0.000226472
0.000214014
-5.65989e-05
-0.000214032
-8.54765e-05
0.00119621
1.70881e-05
7.71502e-07
8.22169e-06
8.23729e-05
-0.0005215
0
1.9895e-05
-1.97213e-06
-0.000196876
-0.000614473
1.98916e-05
0.00015149
0.000156538
-0.000132876
-6.8558e-08
0
0.00135251
-0.0041303
-0.00390043
0.000295106
-4.20761e-05
-3.42087e-05
0.000293555
-1.59279e-05
-0.000180986
-0.000372948
-0.000245534
-0.000109951
-3.91988e-05
-4.26453e-05
0.00018354
-0.000123589
-8.49502e-05
-8.90793e-06
-1.25585e-06
0.000411695
0.00201929
-0.00118045
0
3.41752
-0.000133257
0.000124754
0.000112946
-6.92581e-05
-1.33374e-05
3.99087
0
-0.840762
-0.000549861
-5.0173e-05
5.10684e-06
20.4408
-9.73934e-05
-1.47303e-05
1.15215
-0.00604911
-0.00420668
-0.000291357
0.00178566
0.000101404
-3.1079e-05
-0.00463553
-0.000625674
3.8232e-05
-0.000305429
-0.00278234
1.29208
-0.0489077
-0.000330591
-0.004019
-0.000103047
-0.000303186
-4.61707e-06
0.20557
-7.13677e-05
0.000180607
-0.000303955
6.92889e-06
5.8293
6.96832e-05
0.00710954
0.000278457
0.0131037
0.0014603
-0.0137665
-0.00663694
6.01758e-05
0.0189869
8.40912
0.0426683
-1.51942
-0.00558557
-0.00691085
0.0105683
3.68804e-05
-0.000572807
-2.95366e-05
0.000675563
7.89667e-05
6.73683
-0.034273
0.000322449
0.000156843
-0.000241617
-0.01193
-6.08136e-05
-5.04162e-07
3.11803
-0.0350855
1.74108
0.0239341
-0.00169771
-0.00844031
8.60611e-06
-0.000101131
-0.000220604
7.46885e-06
6.8218
0.00125301
0.00710684
-0.00117198
-0.000111482
0.0502444
-5.83914e-05
-0.000237354
0.00024304
5.33545e-06
-3.70262e-05
0.000242459
-0.000564994
-0.000229053
-0.000220885
0.00227937
-6.94575e-05
-0.000204001
-0.000374277
7.35979e-06
-0.000156293
0.000191485
-3.91968e-05
-6.31702e-05
-8.48374e-05
-0.000136526
2.58031e-05
-4.28757e-06
-9.48871e-06
3.31668e-06
-0.000148594
0.0265611
-0.00106357
-8.86359e-06
-8.53438e-06
-0.00043035
-0.00938276
0.00826082
-0.0173012
-4.49999e-05
-1.16222e-05
-0.00329817
-9.19819e-05
-2.75721e-06
-0.00818588
0.00536717
0
-0.00856839
-0.004311
0.000127104
-0.00168768
-0.000137142
0.000271305
-3.65741e-06
-5.40799e-05
-0.000421364
6.79582e-05
0.0110738
0.000839938
-0.00651568
-0.00109106
-0.000297496
-7.62591e-05
0.000308003
-0.000134951
-0.00212459
0.00112443
0.00027794
0.000357068
-0.0020538
-0.00184557
-0.00154061
-0.00104005
0.00115907
-0.0435463
-0.000362855
-1.42081e-05
-0.000106774
3.46798e-05
0.00566265
-0.000117381
6.37936e-05
-0.000271286
-4.53595e-05
-0.000272407
-2.02163e-05
-0.00805404
0.000122393
-4.974e-05
4.39598e-05
8.67691e-05
-9.91728e-05
-0.415493
0
0.144237
3.57734e-05
-0.000118278
0.000108511
4.00827e-05
-0.000241876
9.47545e-07
5.14671e-05
-0.000481745
-0.000178042
-2.32562e-05
-0.000290414
7.91745e-05
1.40754e-05
0.00507255
4.315e-07
0.000685934
-0.000191522
-0.000393846
-0.000113711
0.0121995
-7.3495e-05
-1.93133e-05
-0.000544497
-8.56727e-05
0.0129138
5.05711e-05
1.30555
-0.0102013
-0.00734688
0.000559395
-0.000112194
-0.000120087
-3.17893e-05
0.000650015
0.000285582
0.000515507
-0.000413526
-2.7749e-05
3.66326e-05
-0.00393189
-0.00103363
0.000658082
-0.00156458
-0.00132543
0.000202121
-7.72632e-05
-7.94642e-05
8.72661e-05
-0.00104213
-0.00539697
-0.000433974
-0.000109867
-5.98235e-05
0.000891244
0.00365649
-0.00882818
0.00211151
-8.62037e-05
4.27102e-05
-3.97525e-05
-1.40154
-0.00010289
-0.0800404
5.58808e-05
-0.000591245
1.00938e-05
2.02308e-05
-0.00026952
-0.000143875
-7.2173e-05
0.000138322
-0.000385025
-4.22274e-05
0.00171542
0.00012205
4.66862e-06
7.95625e-05
-0.0172368
0.0441
-0.00145448
-0.000214721
2.77169
-1.32487e-06
-0.00675889
2.29809e-05
2.39948
-2.1462e-05
0
-0.108438
0.00120295
0.0852562
0.00249472
0.0194945
0.00104875
0.0326403
-0.0585391
-0.0326239
-0.0727104
-0.000685682
0.000362632
0.0046062
0.0140608
0.00306924
-0.0109702
1.84539e-07
0.00874287
0.000317663
-0.00370934
-0.00749622
1.58055
6.05158e-06
0.0999168
0.104957
-0.149493
-0.012686
0.0441716
-0.218174
3.96475e-05
-0.796979
0.00351026
0.00362558
-0.000766293
7.80763e-05
6.58621e-05
-0.00253963
-0.173639
-0.00111823
0.00210269
0.000456941
0.00525589
-0.0240691
4.64517e-05
0.000939491
-0.0357259
0.0788337
0.386038
0.0393069
0.018703
0.103467
-0.00160034
0.0964886
-0.00817561
0.0275866
0.0171414
-0.000309644
0.000973738
1.11221
0.000798653
-0.00186343
-0.00420343
-0.0466685
0.0598728
0.000490462
-0.713635
-2.2234e-06
0.0257704
0.0017621
0.0513484
0.0234194
0.000325286
5.49902
0.000779759
1.88077
0
-0.0216705
0.144317
0.000677233
-9.18624e-07
-0.000861563
0.055298
3.67744e-05
7.37913
0
0.0293778
-0.00278703
-0.00241544
-0.00582866
0.00777432
-0.0891273
-0.0105615
-0.0261026
-0.0322991
0.0931866
0.0977688
-0.00176356
-0.00743748
0.0369885
0.0689286
-0.0718412
-4.89402e-05
-0.0758783
0.00282828
0.0861004
0.0817531
0.0147147
0.000339259
9.86293e-05
0.000242579
0.00105381
-0.0234599
-0.000862204
0.00209715
0.00844082
0.000388316
0.0796903
0.0822361
0.0458842
0.0730894
-0.00635896
0.0152412
-0.032312
0.028621
-0.0425259
-0.00846304
0.214186
0.000651833
0.0124606
-0.00168959
0.000185017
-0.00143229
-0.0152546
-0.000439792
0.00637779
-0.00077674
0.148038
0.0170684
-0.000116872
-0.166986
0.182246
-0.0661341
0.000615026
-0.00808635
0.0452383
-0.00130373
-3.32925e-05
-0.000628982
-0.00207462
0.0176933
0.00703544
0.0240077
-0.0347017
-0.0790508
0.0076505
-0.0189609
0.0362658
-0.00159235
-0.00253058
-0.00385271
0.00047631
-1.74351e-05
9.3639e-05
0.0568496
-0.107469
0.00100641
0.00254086
-0.0295448
0.000272898
0.881624
0.029032
-0.141312
0.063031
0.17204
-0.120421
8.27219e-05
-0.00744415
0.0375009
-0.000670734
-0.000583262
-0.00148844
0.0013688
0.0173736
-0.000923475
0.000993071
0.00176135
-0.0145174
0.0393779
1.99928e-06
-0.0822579
0.0399153
3.93234e-06
0.4158
-0.000255135
8.17536
-7.0239e-07
-0.149468
-0.000125323
4.42991
7.42592e-07
0.128953
0.0959414
-0.0970329
-0.0330179
-0.142355
0.151952
0.0715608
0.00519394
0.000266827
0.0984004
0.000544017
-2.61244e-05
4.79829e-07
0.000598956
-0.0109499
-1.08383
-0.00821821
-0.0212607
0.00268089
0.0517451
1.79403e-06
0.491806
-8.22937e-07
-1.32053
0
0.00591236
-8.10654e-05
-0.000160512
0.0129784
0.0117723
-0.00807156
-0.258661
0.0401211
0.0410891
0.000272253
0.0197042
-0.117221
-0.0718469
0.000133136
1.20165
0.0992546
0.000107208
1.22403e-06
9.54063
-0.00170042
0.107598
-0.0714371
0.0600479
-7.51171e-05
3.59538e-06
1.33271
-0.00450519
0.0244183
0.0692902
0.00365738
0.143652
0.00509053
-0.013547
-0.0717115
-0.0617386
0.0173623
-0.730918
-3.53909e-07
9.68172
1.85835
0.00203022
-0.00101505
-0.00469261
-0.0331829
-0.124041
0.892157
0.116212
0.840884
0.017076
0.0871904
0.380609
0.00680623
0.0104259
-0.812623
0.00607974
-0.1079
-0.0792297
-0.00012159
-0.290711
0.0401893
0.23402
2.03331
-0.0728278
0.210312
-0.0744872
-0.101031
-0.00541451
0.0019027
-0.0138979
0.0654315
-0.0701629
-1.20087
0.0570924
-0.00119636
-0.021591
0.0190229
0.0155108
0.0437058
-0.0298799
1.10863e-06
0.0780769
-0.00139855
0.0128018
-0.0690021
0.191969
-0.0189677
0.00171313
0.142709
-0.00367731
-0.0137045
0.0853602
-0.233666
2.71582e-05
6.05104e-05
-0.00354426
0.0122561
-0.0155062
-0.00110794
-0.0558335
0.00685909
0.00170065
0.0173808
-0.0783371
-0.0428795
0.00331971
0.0551993
-0.0839327
0.188353
0.000355397
-4.82729e-05
-0.00128393
0.0732422
0.015098
-0.0990159
-0.030218
-0.113867
-0.0440055
8.01592e-05
0.984502
0.000131915
0.892801
0.0310788
-0.00926391
0.00213942
-0.0498044
-0.000637946
0.0011019
2.49436e-05
-5.72332e-05
-9.09244e-06
0.000626314
-2.17044e-07
-0.0988703
-0.00109847
-0.0169555
0.000805134
0.00440827
0.148051
0.000243333
3.72394
-8.18153e-07
-0.189323
0.0373203
-0.0349215
-0.00767521
-0.000718331
0.00266215
0.0409349
0.0365295
-0.0761253
0.153336
0.0113807
-0.00973495
0.000147968
0.110018
0.500045
0.01375
0.0346256
0.0259095
0.102859
0.0102985
0.0303778
1.80257
0.0253852
0.0558007
0.03039
2.13278
-0.00645239
-0.251536
0.0250504
-0.0214165
0.577259
0.012684
0.0962192
0.0518428
3.72777e-05
0.00740177
0.0316542
-0.00441941
-0.000174201
-0.00293262
-0.00313081
0.0483334
0.00120505
6.47308
0
0.106409
3.20267e-05
1.46273
0.00304349
-0.000873572
-2.07208
0.379465
0.00161238
0.0212538
0.390624
0.0153844
-0.0345127
-0.0429219
-0.00114732
-0.000256399
-0.0123168
0.0225049
0.0766766
0.0324575
-6.50349e-05
-0.0900863
-0.0175327
0.046441
0.0611518
-0.0735365
0.00876744
-6.92987e-06
-0.0013571
1.01027
-0.00700972
0.0361621
-0.0131658
0.0197969
-0.0767407
0.0136534
-6.27258e-06
0.0149636
3.78183e-06
0
0.0244271
-3.32111e-05
-0.00160706
0.00988183
0.0255667
0.000411343
-0.000323511
-0.00139573
-0.000950448
0.0102357
0.0122446
0.000729998
-0.103211
-0.00625004
0.0353767
-0.0126114
-0.0995939
11.2477
0.0177705
0.0163927
0.0270306
-0.00599588
-0.000450628
0.000374192
-0.0102225
-0.0109588
0.02303
0.652517
3.88916e-06
0.00121188
-0.000491315
0.0187501
0.00486049
-0.0176556
0.0360074
-0.0178099
0.0228712
0.0201226
0.00604938
-0.0102836
0.114604
-0.0780294
0.455167
0.00412857
0.0152963
0.0069388
-0.0160448
0.0874253
-0.00764373
-0.109339
-0.0682744
-0.00942096
-0.0911542
0.00320362
0.00303723
-0.0102807
0.00132579
0.0161049
-0.840425
-3.4947e-05
-2.03208e-06
-0.0516628
0.000248652
0.000272485
0.00577899
0.00386526
0.00351142
0.056079
0.00287543
-0.00309762
0.0456838
-0.00426821
-0.00081462
-0.0775629
0.0953126
0.0273362
0.000111899
1.55644
-0.101961
3.88617
0.00549588
-0.0224256
0.00460958
0.161769
0.00513117
0.0373219
1.26515
0.0541636
-0.0466035
-0.165626
-0.141812
-0.000359162
-0.000164387
0.0371992
-0.00171259
-0.000111917
-0.0714427
0.0162235
0.717475
6.56656e-06
-0.00652401
-0.000208123
-0.0608651
0.00174559
0.0070887
-0.0187582
0.82222
-0.00162173
0.0138144
5.48649
-0.0818693
0.0487188
-0.0318479
0.00956616
-0.0211152
0.155634
9.96425
0.0242063
0.0890311
0.0888126
0.120576
-0.00825506
0.00612494
-0.000117441
-0.919898
-0.0803989
0.141914
-5.267e-05
-0.00167342
0.505146
-0.00110775
0.00925895
-0.0973726
0.0106831
0.00760321
0.0175313
0.282407
-0.0165584
-0.0737182
-2.62319e-06
-0.00609261
0.0320442
0.000160048
0.192997
0.00881742
6.56214
0.00294986
0.0739599
2.28377e-06
1.98473e-06
0.0491074
-0.0159892
-0.0204097
-0.046339
0.102479
0.000462669
0.0318999
-0.000303484
-0.0010548
-0.00202996
-8.2269e-06
-0.00012302
-0.00807879
-0.0464192
0.0897173
-0.0142382
4.43617e-05
0.130138
0.0249303
-0.00122548
0.0552387
-0.0359377
-0.0453239
-0.00817687
0.00265507
0.569053
-3.82473e-06
0.0736953
-0.000134045
-0.126634
0.055344
0.137203
-0.013789
-0.0107287
-4.08504e-06
0.000163541
-0.00158815
-0.480873
-0.011181
-0.00501518
-0.000278135
-0.265066
-0.0935097
-0.0396019
0.00249691
-0.00065374
-0.00260583
0.110692
0.01832
1.16233
0.0521496
0.0308169
-0.000272721
-0.000740294
0.242125
0.100602
-0.0750423
0.00367085
3.28695e-05
0.000616506
0.00115938
7.30845e-05
11.807
-6.55134e-07
-0.0147043
0.140762
-0.00336921
0.497069
0.110974
0.883357
-0.0247514
0.00373111