# vtk DataFile Version 2.0
Unstructured Grid by M++
ASCII
DATASET UNSTRUCTURED_GRID
POINTS 4072 float
  0.562500   0.968750 0
  0.906250   0.500000 0
  0.750000   0.781250 0
  0.953125   0.531250 0
  0.984375   0.875000 0
  0.828125   0.828125 0
  0.828125   0.859375 0
  0.562500   0.765625 0
  0.937500   0.687500 0
  0.968750   0.578125 0
  0.968750   0.781250 0
  0.734375   0.843750 0
  0.968750   0.718750 0
  0.734375   0.796875 0
  0.984375   0.718750 0
  0.984375   0.703125 0
  1.000000   0.750000 0
  0.984375   0.734375 0
  1.000000   0.718750 0
  0.953125   0.859375 0
  0.953125   0.843750 0
  0.937500   0.843750 0
  0.921875   0.640625 0
  0.937500   0.625000 0
  0.671875   0.906250 0
  0.687500   0.890625 0
  1.000000   0.687500 0
  0.828125   0.796875 0
  0.828125   0.750000 0
  0.515625   0.750000 0
  0.828125   0.937500 0
  0.968750   0.625000 0
  0.984375   0.593750 0
  0.984375   0.796875 0
  0.750000   0.859375 0
  0.859375   0.937500 0
  0.828125   0.953125 0
  0.859375   0.781250 0
  0.593750   0.515625 0
  0.984375   0.750000 0
  0.734375   0.828125 0
  1.000000   0.734375 0
  0.750000   0.812500 0
  0.953125   0.562500 0
  0.968750   0.750000 0
  0.734375   0.812500 0
  0.968750   0.546875 0
  0.843750   0.906250 0
  0.875000   0.875000 0
  0.578125   0.640625 0
  0.750000   0.968750 0
  0.984375   0.906250 0
  0.625000   0.515625 0
  0.937500   0.593750 0
  0.781250   0.578125 0
  0.640625   0.968750 0
  0.937500   0.531250 0
  0.937500   0.515625 0
  0.953125   0.500000 0
  0.703125   0.796875 0
  0.859375   0.718750 0
  0.703125   0.765625 0
  0.921875   0.703125 0
  0.687500   0.765625 0
  0.921875   0.500000 0
  0.718750   0.781250 0
  0.734375   0.765625 0
  0.968750   0.687500 0
  0.968750   0.890625 0
  0.734375   0.953125 0
  0.859375   0.828125 0
  0.890625   0.484375 0
  0.843750   0.843750 0
  0.828125   0.765625 0
  0.968750   0.906250 0
  0.796875   0.578125 0
  0.765625   0.828125 0
  0.609375   0.968750 0
  0.734375   0.656250 0
  0.671875   0.875000 0
  0.531250   0.906250 0
  0.546875   0.921875 0
  0.765625   0.656250 0
  0.531250   0.937500 0
  0.531250   0.734375 0
  0.765625   0.671875 0
  0.843750   0.734375 0
  0.843750   0.937500 0
  0.609375   1.000000 0
  0.593750   0.796875 0
  0.828125   0.734375 0
  0.578125   0.812500 0
  0.671875   0.562500 0
  0.781250   0.562500 0
  0.656250   1.000000 0
  0.765625   0.796875 0
  0.656250   0.593750 0
  0.796875   0.562500 0
  0.625000   0.828125 0
  0.625000   0.625000 0
  0.859375   0.562500 0
  0.796875   1.000000 0
  0.890625   0.781250 0
  0.875000   0.781250 0
  0.625000   0.859375 0
  0.843750   0.781250 0
  0.859375   0.765625 0
  0.843750   0.765625 0
  0.859375   0.750000 0
  0.843750   0.750000 0
  0.765625   1.000000 0
  0.781250   0.984375 0
  0.875000   0.625000 0
  0.875000   0.812500 0
  0.640625   0.875000 0
  0.562500   0.906250 0
  0.796875   0.843750 0
  0.796875   0.828125 0
  0.656250   0.906250 0
  0.890625   0.640625 0
  0.875000   0.843750 0
  0.859375   0.843750 0
  0.625000   0.906250 0
  0.812500   0.875000 0
  0.859375   0.515625 0
  0.812500   0.843750 0
  0.796875   0.875000 0
  0.796875   0.859375 0
  0.593750   0.968750 0
  0.859375   0.875000 0
  0.625000   0.937500 0
  0.843750   0.875000 0
  0.593750   0.953125 0
  0.859375   0.859375 0
  0.828125   0.671875 0
  0.890625   0.765625 0
  0.656250   0.828125 0
  0.656250   0.625000 0
  0.890625   0.562500 0
  0.640625   0.843750 0
  0.640625   0.640625 0
  0.875000   0.578125 0
  0.890625   0.750000 0
  0.875000   0.765625 0
  0.562500   0.625000 0
  0.968750   0.500000 0
  0.734375   0.562500 0
  0.937500   0.578125 0
  0.703125   0.640625 0
  0.656250   0.984375 0
  0.640625   1.000000 0
  0.953125   0.578125 0
  0.671875   0.984375 0
  0.906250   0.921875 0
  0.921875   0.687500 0
  0.671875   0.765625 0
  0.687500   0.750000 0
  0.906250   0.484375 0
  0.984375   0.921875 0
  0.734375   1.000000 0
  1.000000   0.906250 0
  0.750000   0.984375 0
  0.828125   0.843750 0
  0.593750   0.906250 0
  0.828125   0.640625 0
  0.843750   0.828125 0
  0.609375   0.890625 0
  0.609375   0.687500 0
  0.843750   0.625000 0
  0.734375   0.875000 0
  0.968750   0.812500 0
  0.859375   0.812500 0
  0.625000   0.875000 0
  0.859375   0.609375 0
  0.843750   0.812500 0
  0.859375   0.796875 0
  0.828125   0.812500 0
  0.593750   0.875000 0
  0.828125   0.609375 0
  0.781250   0.843750 0
  0.515625   0.921875 0
  1.000000   0.781250 0
  0.765625   0.843750 0
  1.000000   0.578125 0
  0.765625   0.968750 0
  0.890625   0.703125 0
  0.656250   0.765625 0
  0.890625   0.500000 0
  0.875000   0.703125 0
  0.937500   0.937500 0
  0.984375   0.578125 0
  0.578125   0.531250 0
  0.875000   0.609375 0
  0.640625   0.671875 0
  0.796875   0.625000 0
  0.859375   0.593750 0
  0.625000   0.656250 0
  0.609375   0.671875 0
  0.593750   0.687500 0
  1.000000   0.562500 0
  0.765625   0.625000 0
  0.656250   0.578125 0
  0.625000   0.546875 0
  0.671875   0.812500 0
  0.906250   0.750000 0
  0.796875   0.546875 0
  0.828125   0.718750 0
  0.578125   0.781250 0
  0.875000   0.656250 0
  0.640625   0.718750 0
  0.734375   0.984375 0
  0.968750   0.921875 0
  0.609375   0.531250 0
  0.953125   0.921875 0
  0.968750   0.937500 0
  0.593750   0.546875 0
  0.765625   0.609375 0
  0.531250   0.671875 0
  0.781250   0.593750 0
  0.546875   0.656250 0
  0.656250   0.656250 0
  0.890625   0.593750 0
  0.656250   0.859375 0
  0.921875   0.671875 0
  0.968750   0.734375 0
  0.718750   0.812500 0
  0.812500   0.984375 0
  0.562500   0.796875 0
  0.750000   0.640625 0
  0.765625   0.687500 0
  0.531250   0.953125 0
  0.687500   0.656250 0
  0.921875   0.593750 0
  1.000000   0.593750 0
  0.750000   0.671875 0
  0.671875   0.750000 0
  0.906250   0.687500 0
  1.000000   0.656250 0
  0.812500   0.562500 0
  0.687500   0.796875 0
  0.921875   0.734375 0
  0.828125   0.546875 0
  1.000000   0.625000 0
  0.953125   0.968750 0
  0.750000   0.906250 0
  0.515625   0.968750 0
  0.812500   0.531250 0
  1.000000   0.796875 0
  0.515625   0.937500 0
  0.750000   0.875000 0
  0.812500   0.703125 0
  0.796875   0.703125 0
  0.812500   0.593750 0
  0.937500   0.562500 0
  0.656250   0.968750 0
  0.890625   0.906250 0
  0.703125   0.625000 0
  0.953125   0.546875 0
  0.671875   0.953125 0
  0.906250   0.890625 0
  0.984375   0.781250 0
  0.796875   0.687500 0
  0.562500   0.953125 0
  0.968750   0.875000 0
  0.718750   0.953125 0
  0.562500   0.937500 0
  0.781250   0.781250 0
  0.953125   0.875000 0
  0.718750   0.937500 0
  0.953125   0.671875 0
  0.796875   0.656250 0
  0.828125   1.000000 0
  0.953125   0.890625 0
  0.703125   0.968750 0
  0.828125   0.625000 0
  0.781250   0.968750 0
  0.781250   0.671875 0
  0.781250   0.875000 0
  0.546875   0.937500 0
  0.906250   0.640625 0
  0.671875   0.703125 0
  0.640625   0.609375 0
  0.875000   0.546875 0
  0.906250   0.625000 0
  0.656250   0.703125 0
  0.656250   0.718750 0
  0.968750   0.531250 0
  0.734375   0.593750 0
  0.984375   0.531250 0
  0.781250   0.546875 0
  0.718750   0.609375 0
  0.906250   0.703125 0
  0.968750   0.593750 0
  0.687500   1.000000 0
  0.921875   0.937500 0
  0.906250   0.765625 0
  0.906250   0.562500 0
  0.718750   0.750000 0
  0.718750   0.546875 0
  0.953125   0.484375 0
  0.796875   0.593750 0
  0.515625   1.000000 0
  0.750000   0.937500 0
  0.906250   0.593750 0
  0.546875   1.000000 0
  0.781250   0.937500 0
  0.828125   0.593750 0
  0.984375   0.609375 0
  0.937500   0.953125 0
  0.796875   0.515625 0
  0.968750   0.609375 0
  0.734375   0.671875 0
  0.906250   0.781250 0
  0.671875   0.843750 0
  0.515625   0.890625 0
  0.687500   0.625000 0
  0.921875   0.562500 0
  0.843750   0.531250 0
  1.000000   0.765625 0
  0.750000   0.843750 0
  0.812500   0.671875 0
  0.687500   0.921875 0
  0.765625   0.515625 0
  0.953125   0.609375 0
  0.921875   0.625000 0
  0.687500   0.687500 0
  0.812500   0.656250 0
  0.812500   0.859375 0
  0.578125   0.921875 0
  0.796875   0.765625 0
  0.890625   0.687500 0
  0.578125   0.750000 0
  0.812500   0.687500 0
  0.578125   0.953125 0
  0.796875   0.796875 0
  0.984375   0.890625 0
  0.734375   0.968750 0
  0.718750   0.640625 0
  0.968750   0.562500 0
  0.687500   0.968750 0
  0.921875   0.906250 0
  0.765625   0.953125 0
  0.812500   0.609375 0
  0.812500   0.734375 0
  0.875000   0.562500 0
  0.968750   0.656250 0
  0.796875   0.734375 0
  0.812500   0.828125 0
  0.578125   0.890625 0
  0.781250   0.687500 0
  0.984375   0.671875 0
  0.578125   0.828125 0
  0.812500   0.765625 0
  0.875000   0.593750 0
  1.000000   0.875000 0
  0.765625   0.937500 0
  0.843750   0.656250 0
  0.843750   0.859375 0
  0.609375   0.921875 0
  0.828125   0.687500 0
  0.937500   0.656250 0
  0.937500   0.859375 0
  0.703125   0.921875 0
  0.984375   0.640625 0
  0.890625   0.468750 0
  0.656250   0.734375 0
  0.890625   0.671875 0
  0.890625   0.875000 0
  0.656250   0.937500 0
  0.578125   0.859375 0
  0.812500   0.796875 0
  0.843750   0.890625 0
  0.609375   0.953125 0
  0.937500   0.875000 0
  0.687500   0.953125 0
  0.843750   0.953125 0
  0.828125   0.703125 0
  0.593750   0.765625 0
  0.937500   0.546875 0
  0.781250   0.531250 0
  0.781250   0.734375 0
  0.546875   0.796875 0
  0.796875   0.718750 0
  0.562500   0.984375 0
  0.984375   0.812500 0
  0.562500   0.812500 0
  0.796875   0.750000 0
  0.562500   0.875000 0
  0.796875   0.812500 0
  0.640625   0.750000 0
  0.875000   0.687500 0
  0.703125   0.671875 0
  0.937500   0.609375 0
  0.562500   0.843750 0
  0.796875   0.781250 0
[...]
POINT_DATA 4072
SCALARS scalar_value float 1
LOOKUP_TABLE default
-0.00194585
0.000966407
-0.000873903
0.000160638
-0.000135321
0.000140269
0.000767486
0.00827369
0.00214857
0.000134817
0.0005041
-0.00283921
0.00141444
0.0150452
-0.00050324
0.000936754
0.00163364
0.00089276
0.00148044
0.000100718
0.000162438
0.000305576
0.00120274
2.45786e-05
0.000579857
-0.00197866
0.000694047
-0.00190555
-0.000267729
0.0083718
0.000249766
-9.22709e-05
0.000302423
-0.00028802
0.00452608
-0.000103025
0.000213611
0.00220851
2.32499
-0.000223885
0.00843164
-0.00186269
0.00997087
0.000156254
0.00123102
-0.0144659
-8.44772e-05
0.000993862
0.00101085
0.315451
-4.79671e-05
-5.82583e-05
2.76185
-0.000184491
-0.0103024
-0.00016956
-0.00043956
-0.00048135
0.000142684
0.0191013
0.000339074
0.00758462
0.00378671
-0.0148469
-9.73301e-05
0.0138527
0.00335401
0.000776714
-0.000157654
-1.84037e-05
0.000543295
0.000432673
0.00240552
-0.00391921
-7.77884e-05
0.00565859
0.0151441
0.00105899
0.016257
6.35371e-05
-0.00296457
0.00483574
-0.0124944
-0.00957282
0.00703929
0.00370203
0.0010688
0.000144386
0
-0.015353
-0.00532145
0.0239324
2.45212
0.00415389
0
0.011975
0.994168
-0.00293222
-0.00116504
0.55072
-0.000505364
0
0.00151866
-0.0023654
-0.00407044
-0.000246832
-0.000245442
0.00125221
0.00390712
-0.00317323
0
-0.000167412
0.00201319
0.000840048
-0.000920736
-0.00361409
-0.00489208
0.0084317
4.82472e-05
0.00192448
0.00148092
-0.000800266
-0.00131738
0.00279896
-7.22722e-05
0.00606106
-0.00787644
0.00447645
-0.00141515
-0.000128976
0.000205962
0.0013074
-0.000130079
0.000549453
0.0113774
-0.00216399
0.00790787
0.227755
0.000832821
0.00164383
0.0725847
-0.000731353
-0.000249169
0.00136643
0.314334
-9.80952e-05
0.124813
0.000434091
0.107643
0.000191689
0
-0.000267181
0.00105763
-0.000411704
-0.00332412
0.0303311
0.00351593
4.68627e-05
-3.37369e-05
0
-3.15361e-05
0.000421657
-0.00461764
-0.000546902
0.0142228
-0.000248899
0.00116668
0.466906
0.00723025
0.00321558
0.000186898
-0.00107751
-0.00121692
0.00292796
0.00216401
0.000996383
-0.00399306
-0.00214461
0.00573455
0.00251566
-0.00464291
0.000798633
-0.00499465
5.231e-05
-0.000523924
0.00430557
-0.0444372
-0.000676414
-0.00554604
0.000208778
4.41805e-05
2.26396
-0.00148502
0.0209859
-0.0286286
-0.000303426
0.187776
0.256433
0.967007
-4.4941e-05
-0.0468508
0.572847
2.32809
-0.00135946
0.000694293
0.0025192
-0.000337764
0.0435385
0.00651513
0.00254074
9.07716e-05
-0.000205037
0.487995
0.00012935
1.09899e-05
2.05528
0.0510108
0.0975835
0.0241703
0.0221608
0.100969
-0.000503159
-0.00139239
0.00282526
-0.00208797
0.0163432
-0.000407307
-0.0226525
-0.0310199
0.00792726
-0.000957298
0.068357
0.000449556
-0.000258578
-0.00129735
-0.00694016
0.00499144
0.000136971
0.00222599
-0.0205471
0.00221264
0.000634446
-0.000159692
-0.000131477
-0.00150337
-0.000480454
0.00135946
-0.000387765
0.00862574
-0.00470078
0.00393505
-0.00347428
0.0078894
-0.000410656
0.000617163
-0.000490835
0.132182
0.000184353
0.000634717
-6.01426e-06
0.000251072
-0.00203125
-0.000927047
1.55266e-05
0.000541304
-0.00221295
-0.00265894
-4.65397e-05
-0.000496426
0.00137479
-0.0209608
0
9.98724e-05
-0.000577189
-0.0136389
-3.28041e-06
-0.00515741
-0.000283128
0.00411303
-0.00146918
0.0081063
0.028609
1.97131e-05
0.000977569
0.0455628
-0.00605698
-0.000146596
-0.0216512
5.02047e-05
-0.00180748
0.057044
-0.00433594
-0.000193619
0
-0.000320146
0.00133828
-0.000389345
-0.00454425
0.628214
-0.000420525
-0.0133971
0
0.000290667
-2.21613e-05
0
-0.000457503
-0.00491055
0.000190976
-0.000241843
0.0028664
-2.62144e-05
0.00523341
-0.000998578
0.00806254
-0.00394728
0.24165
-0.00150695
0.000680386
-0.00141924
0.00521112
-0.0100698
-0.000742251
-0.00184815
5.87727e-05
-0.000172937
0.0237892
0.0219522
-0.000382315
0.00107255
-8.04253e-05
-0.00723232
0.0219487
0.00800553
0.000488242
0.00385755
2.78956e-05
0.000654881
0.0453175
-0.000205951
-0.000547037
-0.000170638
0.000187549
-0.0115887
0.00635727
0.000708926
0.000122635
-0.00284576
-0.0025186
0.00378855
-0.000860939
0.000597347
-0.00126523
0.00362648
-0.000128873
-3.89587e-05
-0.000641917
0.0119209
-0.00132852
0.00194029
-0.00930086
0.000834442
-0.000458062
0.000383927
0.000386727
0.000912785
0.0286135
0.00476206
-0.00010609
7.26308e-05
0.00693466
0.000623531
-0.00117091
0.000237222
0.00010796
0.000244333
-9.15814e-05
-0.000245243
-0.0986847
-0.000424509
0.00305803
0.00195731
0.00700331
0.00377295
-0.00103503
0.000231425
0.017213
0.00198967
-0.00459107
-0.0024284
-0.0583466
0.00757439
0.0282893
-0.000169622
0.0072315
0.00118384
-0.00301556
-0.034069
-0.000893812
-5.70389e-05
0.000111367
0.0279861
0
0.000341976
-0.00399631
0.00410624
0.00223322
-0.000527712
-0.00908587
-0.000232785
0
-0.00225237
0.00738095
-0.00486899
0.00297537
0.000870682
-0.0257881
0.00106771
-0.0143749
0.00514212
-2.58872e-05
-0.0422283
0.00237391
-0.0115215
-0.000210594
-0.000157808
1.24954e-05
0.00307991
-0.00041452
0
0.000155222
0.000217529
-0.0682205
-0.000292021
-0.00449991
0.0296244
0.000261876
-0.0341199
0.0174903
-0.00340623
0.00865395
-0.000328569
0.00603919
-0.00116097
0.0147774
0.00390766
-0.0339852
-0.000236679
-0.00664796
0.00044723
0
-0.00800695
-0.0562021
0.278175
-0.000198162
-0.000163383
0
-0.0168429
0.00224799
0.000435616
-0.00461912
0.286462
0.000286727
-0.0122173
0.000275778
-0.00321961
0.245143
-2.77547e-05
-4.26105e-05
0.00236653
0.000364555
9.12149e-08
0
-0.00521479
-4.82237e-05
-6.20857e-05
0.000282376
-0.000224844
0
0
-0.00011012
-0.0198453
-0.000151127
3.56383e-05
1.06767
-4.80835e-05
0.000279082
0
1.19495
0.000568905
5.86115e-05
0
0
-0.0181525
-0.00157374
-0.0149691
-0.000285729
-0.00450324
-0.0293094
-0.00375215
0.029361
0.00856669
0.367759
0.0116968
0.21025
-0.00920824
4.8126e-05
-0.000252093
0
-0.00115868
1.0081
0
0.914707
-8.93573e-05
0.000905614
0.401112
2.05631e-05
-0.000847016
1.03091
1.74059e-05
0.62491
-0.000322697
-5.30768e-05
1.71724
-0.000293093
0.000296465
-0.000101001
1.26697
5.30418e-05
0.000472108
-0.0132392
4.58571e-05
-0.00134603
2.22441
5.89295e-05
0.000743438
0.165592
0.282494
2.45212e-05
-0.00516992
-0.0578766
0.00687456
-0.000237317
-0.000334588
0.00602716
-0.00142124
-0.000184059
0.00648828
0.000757937
0
-0.000538281
0.00236855
-0.0268505
0.00272745
-0.000301209
-0.00373375
-0.0122765
0.012128
-0.00182076
0.000280599
-0.00302776
0.443517
-0.000210225
1.82334
0.0219081
0.29099
-0.00216181
0.335801
1.87949
-0.237852
0.00243103
0
0
-0.000304698
0.00170045
0.00141407
-0.000740787
0.000212823
0.000230429
-0.012516
0.00017399
7.65751e-05
0.000309656
-0.000185078
1.40933e-05
0.00139029
-0.000225454
-5.71143e-05
-9.97487e-05
-0.000410778
-0.00046575
-0.000171487
-7.78323e-05
-0.00123894
2.20676e-05
0.000117083
-0.000107928
-3.76013e-05
0.000142086
0
0
-0.00147254
-0.000239565
-4.76493e-05
-0.000240671
0
-6.14758e-05
-0.00172302
-0.0014342
0.000728648
-0.00093112
0.000782406
2.35756e-05
-3.33071e-06
0.0001666
0.000412138
0.00337405
-0.000571512
-0.00445542
0.000921033
0.000776229
-0.000248387
-0.000432568
-0.00086312
0.000103003
0.000233066
-0.000178119
-0.000285075
-0.000159188
0.000227679
-0.000305033
0.000513078
-0.000819018
0.000289292
0.000670261
-0.00128756
-0.00120643
0.0362569
-0.00198674
-0.000497773
-0.000156933
-0.000108175
2.85569e-05
-0.00952608
0.00631561
-0.000119748
0.000486883
0.00111268
-0.00038155
0.000287587
-0.00720934
-0.00787844
-0.000656941
-0.0149925
0.00106366
0.00127053
-0.0131085
-0.000345049
-0.000194805
-7.53802e-05
-0.0218416
0.00251022
0
-0.000273386
0.000596983
-0.00244735
0.000534588
0.00350699
-0.000944318
0.00224422
-0.000551595
-0.000167676
0
0.00127703
-0.0148333
0.000321881
0.00400057
-1.29562e-05
-0.00127133
0.00431268
0.0022089
0.00392591
-0.0081172
-0.00120223
0.00795699
-0.00512559
0.00302434
-0.000308645
0.00078865
-0.000772792
0.000528479
-0.000563683
-0.00153853
0.00123548
1.15694
0
-0.109406
0.00487184
-0.0128918
-0.00120757
0.00139992
-0.000735609
0.00521377
0
0.500644
0.0198986
-0.00529419
0.000836863
-0.0518873
-0.00185598
0.00297306
0.222728
0.00184438
6.02521e-05
0.10775
-5.27686e-05
0.00240769
-0.000118365
0.186933
0.183774
-0.000223513
0.00537744
-0.0105804
0.106269
-0.000150379
-3.36137e-05
2.71645
0.0217486
0.00152877
-0.000888757
-0.0318444
0.00319338
0.0126971
0.0170571
0.000340908
-0.0224719
-0.00257322
0.368229
0.049359
0.00111482
0.000982654
-0.000762938
3.93467e-05
-0.000183734
-0.00151803
0.0479841
0.00230557
0.299453
-5.36591e-05
-0.00411214
-0.00170508
-0.00637281
0.0107622
-0.000163081
-0.0165556
-0.00206707
-0.285687
0.00133219
0.00491158
0.0130636
-0.00159895
-0.0344467
-0.000421295
-4.08487e-05
0.342472
0.00824016
0.0383915
4.15937e-05
0.00641269
0.000837374
0.00918247
0.180117
-0.0116333
-0.000466427
0.166919
0.000680482
3.11457
1.05197
0.000938786
8.57174e-06
0.00134159
0.331894
0.000544179
-0.000799424
-0.00436741
0.00507658
0.00149271
-0.0044632
-0.0041443
1.49262
-0.0510659
0.000618928
0.0304141
0.0493827
-0.0225505
-0.00491881
-0.00333632
-0.000116422
-0.00417514
-0.0240664
-0.00739865
-0.00478032
0.00111598
-0.000361876
-0.00174373
1.08329
0.664167
0.000192281
0.00645173
0.413799
0.00114384
0.401855
-0.000686433
0.00118236
0.00113478
0.510523
0.119399
-0.00283299
-0.00291589
0.0188056
0
0.000851905
-0.0513629
-0.0164371
0.0179722
-0.000445926
-0.000872128
0.000129304
0.0017688
-0.000954298
0.00127733
0.745566
0.329881
0.132649
0.102654
-0.00943243
0.104583
0.00102593
0.000754428
0.514737
0.0539288
0.126681
-0.0156698
0.0430341
0.0503014
0.322699
0.133766
0.000375436
1.85908
0.269255
0.00227768
-0.0036529
0.00466972
0.779729
0.40141
0.000312101
-0.0034908
0.00294421
0.00418481
-0.00278943
1.21698
0.235337
0.000828452
-0.00108611
-0.000867826
-0.00341446
-0.0423378
0
-0.0494623
0.000955655
-0.00358009
0.907502
-0.000222003
-0.0057681
-0.00363646
-0.000306668
-0.00298631
0.00508014
-7.59984e-05
-0.00330138
0.00156961
0.000254962
0.222495
-0.00626765
-0.0114651
-0.00159422
-0.00516863
0.000481594
5.15805e-05
-0.0173674
-0.00198699
0.0595169
-0.00452694
0.0232555
-0.000128937
0.173681
0.000643874
0.00132916
-0.00620229
0.00267527
-0.00533313
-0.00734857
-0.0867135
0.00174689
0.066102
-0.00348843
2.756e-05
-0.00144356
0.281706
0.0184842
0.010975
1.76492
0.429391
-0.00016419
-0.000307855
-0.00318927
8.33165e-05
0.00300683
0.274768
-0.0186022
-0.00274084
-0.003984
4.11864e-05
-0.0280034
-0.0031848
0.000252474
-0.011979
-0.000358222
-0.002904
0.198352
-0.000163342
0.000352041
-0.00902939
0.00958121
-0.000133695
0.0016902
-0.0109331
-8.547e-05
-0.00842568
0.000204091
-0.0136054
0.00289131
1.77402
-0.124339
0.000264201
0.00063101
0.000247426
-0.0156609
1.01047
0.000474456
0.394641
-2.55432e-05
1.51282
0.000231522
0.449975
-0.000422889
0
-0.00483621
1.47967
0.427066
0.0111597
2.17999
8.68633e-05
2.22105
2.07572
1.73474
-0.00143557
0.264146
-0.0293513
2.29997
0.0122577
6.62782e-05
-0.00181538
-8.30926e-06
1.1513
0.873687
0.0249736
0.255024
0.0672176
-5.07893e-06
-0.165904
0.396569
0.227775
0.000199103
0.000853058
1.46745
-0.00501933
0.467163
0.248409
0.522001
0.000153167
0.000690386
0.00204774
0.26657
0.99281
-0.000272649
0.000704219
-0.0118915
-0.000307062
1.89647
-0.00145324
0.276088
0.569458
-0.00270557
-0.0631723
0.00879667
2.51427
1.3581
1.4878
0.80213
-0.0108037
-0.00330328
0.000140078
1.63772
-0.00212069
-0.102633
1.02744e-05
-1.21758e-06
0.000549865
2.69385
0.00824771
-0.000288426
0.352413
-8.65919e-05
0.0252312
0.487298
2.38685
0.0268193
0.00280747
-0.272949
0.000849372
0.45792
0
-1.17644e-05
0.000318674
0.00127492
5.46676e-05
-0.000480103
-0.0691611
-0.000167918
0.0389308
0
2.37648
6.20853e-05
-0.000365343
-0.00031959
-0.028419
1.42056
-0.000271132
-0.000354652
-0.000269311
0.0121454
2.34675
-0.00042068
1.9602
-0.000437555
0.0133787
1.14081
0.00405456
0.00103119
-0.0103475
2.42816
2.19285
0.00947614
0.000169103
6.37036e-05
-0.0086438
0.104573
-0.000206167
-0.0277308
2.21423
1.80892
9.75551e-05
0.133752
-0.00172771
-0.00361604
0.000437347
-0.00648927
1.97698
2.16918
-0.00560464
-0.0803501
6.31496e-05
0.290253
9.4429e-06
-0.000103272
1.25436
0.00882224
0.0195964
0.000224912
2.82164e-05
-2.72666e-05
1.80862
-0.0382229
-0.00929574
0.762657
0.0253853
0.000175628
0.00375815
0.541579
1.19547e-06
0.00426107
-0.000638237
-0.00588003
0.0176074
0.963832
0.00965409
0.000261681
-0.00030746
0.841224
-0.00728858
-2.20064e-05
0.0174981
2.45521
-5.15032e-06
1.01154e-05
0.00289103
1.2328e-05
0.000423618
0.00573438
0.0611218
-0.000356969
-0.0241601
1.18573
1.18473
0.291457
0.0573467
0.00705309
2.2587
0.226548
-3.82279e-05
-0.00121036
-0.00171306
-3.57448e-05
0.0150512
-7.69673e-05
-0.00622972
0.0839659
0.000143248
0.0155571
-2.81449e-05
-0.00802739
0.281124
-5.36145e-05
0.00923414
-0.000103378
0.530816
2.10897
-0.000261764
-0.375625
0.000812285
-0.285854
-3.98934e-05
-0.000795361
-5.48553e-05
0.268105
8.85057e-06
-0.00132264
0.000484034
2.40907
1.73201
-0.0011625
2.2499
0.980579
5.39891e-05
-0.00167965
0.284161
0.392031
0.00111053
-2.11694e-05
-0.00684958
-0.00520321
0.388654
-6.1403e-05
-0.0564737
2.31754
-0.000207302
7.66775e-06
0.447559
-4.16706e-05
0.343173
0
0.00490439
-0.00626562
-0.00664959
-6.74543e-05
0.0181759
0.000132929
2.00565
0.00213287
0.000130644
1.89322e-05
2.21065
0.381712
0.00151693
0.00164884
0.185294
-0.000527626
-0.0022657
9.14414e-05
-0.0377583
8.47528e-05
2.46431
1.71498
-0.0128551
0.0012857
-0.00014334
0.0255328
0.000254154
0.000572449
1.72803
0.0110068
0.941235
-4.2755e-05
-0.00127178
1.92847
2.24089
0.00141399
1.74309
8.19159e-06
0.0491554
0.576156
1.94769
1.00616
-0.0319669
0.00219017
-1.18868e-05
-0.480955
0.00874136
0.180386
-0.0111243
2.01418
-0.48242
-0.00725355
-0.0128586
0.367578
-0.00614228
1.83977
1.54241
0.00105375
1.73042
0.000787109
0.0012913
0.511204
-0.000253509
1.75582
0.000324114
0.284012
1.61061
1.29853
0.00920665
-0.00157484
-0.00071262
-0.468675
-0.00231643
0.847985
0.283017
-0.00427583
-0.00462967
0.000457102
0.00441468
-0.000109189
1.808
1.17701
-0.00143698
0.00117388
7.22306e-05
1.92984
2.24495
0.000263209
-0.0087145
-0.000105888
1.07797
1.11594
0.208028
-0.00445885
2.43927
-0.0415947
-0.000335835
-0.000304702
-0.000110428
-9.38695e-05
0.0135042
1.93732
-0.000147431
-0.0375493
2.07424
0.000710746
-0.00106603
0.000232067
0.131484
0.0273523
2.16943
-0.147289
0.00010873
-0.00012154
0.000428517
-8.32398e-05
-0.0717694
0.00129176
0.536516
0.000254784
1.05782
0.0168055
2.62853
2.29198
0.00241855
3.82094e-05
0.111796
4.03812e-05
-0.00139665
-0.000128832
0.0317358
0.000241786
1.10587
-0.00227008
0.00819896
0.0549775
0.127457
0.000435419
-0.00293811
0.300075
-5.70437e-06
1.2704
0.0030768
0.00114749
1.84589
-0.0579937
-1.37215e-05
0.00261175
-0.000248115
2.23058
0.868831
-7.9947e-05
2.57998
0.0107059
0.00689276
1.48446
0.000780149
-0.00330575
2.17902
0.00646512
0.00148791
-0.000397624
-0.278147
0.0179135
0.00884208
-0.00582658
-0.418882
0.000905327
0.658678
-0.00929955
2.01775
-0.00156365
-0.000114176
1.43428
-0.0220519
0.00030168
0.000112385
0.00547016
2.34985
0.000950291
1.13822
0.00129591
1.82485
0.0159493
-0.0340331
0
0.00897895
-0.00070746
-0.317588
-0.0157082
0.0137702
-0.014247
0.424309
0.0102914
0.0143738
0.338003
2.7474
0.00127946
0.000812099
0.0190083
-0.00257259
0.610951
0.00694517
2.41239
0.0479116
0.00187101
0.000291408
-0.00943632
-0.000626705
0.0182771
1.52999
-0.00590693
2.52116e-05
-0.0238913
-0.442345
0.953322
0.000293955
-0.0079879
0.0106897
0.000337334
-0.000166435
-6.65997e-05
-0.158377
0.000364645
0
-0.000237036
0.000348877
2.01371
0.873332
-0.000376781
0.000217289
1.94194
0.00623714
-0.000728978
2.57649
1.64517
-0.0019854
0.865882
0.0204796
0.000723828
1.82473
-0.00113321
0.0415512
-0.00252179
1.03356
2.0966
0.00181908
0.166118
0.00608869
2.29059
2.07546
-0.00748586
0.120098
2.00066e-06
0.663233
0.140615
-0.0252188
2.3621
0.000243205
1.81929
0.00128468
0.0144709
-0.00112367
0.0011281
2.30166
0.00754147
1.89945
0.772791
-2.54725e-05
-0.00584193
-0.0169503
2.33631
0.00788693
5.91663e-05
2.06084
-5.6907e-05
6.36366e-05
1.92607
2.21304
-0.00220386
0.0143793
2.63226
-2.7557e-05
0.257365
0.0031014
-0.000177412
-7.10394e-05
-0.078216
-0.000155498
1.66758
-0.00705985
-1.98707e-05
2.85804
1.50162
2.64261
-0.0406068
-0.000123348
-0.000277205
1.74862
0.00980739
0.0150541
0.000813231
0.0029835
0.000347094
0.105135
1.86694
-0.00832812
-3.09851e-05
1.47652
-4.53223e-05
0.0308709
0.25963
0.000119408
-0.000134023
2.28264
1.00723
0.0402127
0.0237555
-0.16447
0.000960522
-0.000551295
2.62533
0.0505369
0.572165
-0.000246661
0.000336961
-0.00322745
0.00787796
0.000138535
0.00722856
1.55602
-0.0399637
-0.0257274
0.00627013
0.223498
0.000851229
0.0119858
2.42153
2.13349
0.000234698
-0.000498248
-0.269013
0.0128696
0.177968
-0.00235394
-0.329658
-0.000702681
-0.0244541
0.000795552
1.52042
-0.000713993
1.43106
-0.00395058
0.000184491
-0.690361
-0.00040421
0.339582
1.76556
0.0106585
1.73658e-05
2.59512
-0.195393
-0.000101219
0.113026
-0.000277626
-4.8208e-05
-0.0903965
-0.00795777
-9.78207e-05
1.56688
-0.281992
-1.37419e-05
0.00852347
-0.000306643
-4.47885e-05
2.12978
-0.000440285
0.74857
2.02223
0.00933731
-0.000432833
0.0279304
-0.000176528
0.118802
1.77779
0.000326146
0.00242674
0.000200701
0.0187555
0.00215657
-0.000302358
-0.0005916
-0.123341
0.00056359
2.3251
0.0335248
1.31856
-0.000813544
0.00025266
-0.0014669
0.154391
2.55119e-05
0.00527075
-0.00250311
0.435071
0.0091959
2.10372
1.69213
0.00017309
-0.000326826
-0.000134949
2.20251
-0.00217087
2.46612
-0.00167904
0.000585961
0.852048
-0.000475576
0.0457935
2.39918
0.000291494
1.30244
-0.0471484
-0.00981926
0.821399
0.0164626
-0.000607501
-0.0069853
-0.00188677
0.868918
0.0188536
1.3703
-0.0268453
-0.000832859
0.00562881
4.3276e-06
0.000921291
-0.247841
-5.44204e-05
-0.000565976
0.000212216
0.000326277
-0.143097
0.00935587
0.0457708
-7.24524e-05
1.90892
-0.00500253
0.00534071
0.161736
0
0.267548
-0.0104473
2.46343
2.10768
0.603285
-0.00629378
2.05486
1.02069
-2.96828e-05
0.255318
-4.90287e-05
-0.000805662
-0.00175092
-0.00130431
0.376463
0.0705805
-0.0147852
0.00730184
2.34738
0.14065
-0.00845273
0.00841561
0.765976
0.010038
1.76702
0.000517755
2.44986
0.000669982
-0.000125407
-0.000180431
0.0142832
-0.0711432
1.91186
0.546022
0.12895
1.48311
0.000865789
-0.000127852
0.571422
0.0798079
-0.0426243
2.45252
-0.00199634
0.902625
1.69083
-0.00226751
-0.038458
0.000137231
-0.000301724
1.7729
2.19018
-0.261608
-0.00400121
1.5021
0.00203007
-3.81012e-05
1.08146
2.16215
-0.0392034
-0.0122617