# vtk DataFile Version 2.0
Unstructured Grid by M++
ASCII
DATASET UNSTRUCTURED_GRID
POINTS 4072 float
  0.562500   0.968750 0
  0.906250   0.500000 0
  0.750000   0.781250 0
  0.953125   0.531250 0
  0.984375   0.875000 0
  0.828125   0.828125 0
  0.828125   0.859375 0
  0.562500   0.765625 0
  0.937500   0.687500 0
  0.968750   0.578125 0
  0.968750   0.781250 0
  0.734375   0.843750 0
  0.968750   0.718750 0
  0.734375   0.796875 0
  0.984375   0.718750 0
  0.984375   0.703125 0
  1.000000   0.750000 0
  0.984375   0.734375 0
  1.000000   0.718750 0
  0.953125   0.859375 0
  0.953125   0.843750 0
  0.937500   0.843750 0
  0.921875   0.640625 0
  0.937500   0.625000 0
  0.671875   0.906250 0
  0.687500   0.890625 0
  1.000000   0.687500 0
  0.828125   0.796875 0
  0.828125   0.750000 0
  0.515625   0.750000 0
  0.828125   0.937500 0
  0.968750   0.625000 0
  0.984375   0.593750 0
  0.984375   0.796875 0
  0.750000   0.859375 0
  0.859375   0.937500 0
  0.828125   0.953125 0
  0.859375   0.781250 0
  0.593750   0.515625 0
  0.984375   0.750000 0
  0.734375   0.828125 0
  1.000000   0.734375 0
  0.750000   0.812500 0
  0.953125   0.562500 0
  0.968750   0.750000 0
  0.734375   0.812500 0
  0.968750   0.546875 0
  0.843750   0.906250 0
  0.875000   0.875000 0
  0.578125   0.640625 0
  0.750000   0.968750 0
  0.984375   0.906250 0
  0.625000   0.515625 0
  0.937500   0.593750 0
  0.781250   0.578125 0
  0.640625   0.968750 0
  0.937500   0.531250 0
  0.937500   0.515625 0
  0.953125   0.500000 0
  0.703125   0.796875 0
  0.859375   0.718750 0
  0.703125   0.765625 0
  0.921875   0.703125 0
  0.687500   0.765625 0
  0.921875   0.500000 0
  0.718750   0.781250 0
  0.734375   0.765625 0
  0.968750   0.687500 0
  0.968750   0.890625 0
  0.734375   0.953125 0
  0.859375   0.828125 0
  0.890625   0.484375 0
  0.843750   0.843750 0
  0.828125   0.765625 0
  0.968750   0.906250 0
  0.796875   0.578125 0
  0.765625   0.828125 0
  0.609375   0.968750 0
  0.734375   0.656250 0
  0.671875   0.875000 0
  0.531250   0.906250 0
  0.546875   0.921875 0
  0.765625   0.656250 0
  0.531250   0.937500 0
  0.531250   0.734375 0
  0.765625   0.671875 0
  0.843750   0.734375 0
  0.843750   0.937500 0
  0.609375   1.000000 0
  0.593750   0.796875 0
  0.828125   0.734375 0
  0.578125   0.812500 0
  0.671875   0.562500 0
  0.781250   0.562500 0
  0.656250   1.000000 0
  0.765625   0.796875 0
  0.656250   0.593750 0
  0.796875   0.562500 0
  0.625000   0.828125 0
  0.625000   0.625000 0
  0.859375   0.562500 0
  0.796875   1.000000 0
  0.890625   0.781250 0
  0.875000   0.781250 0
  0.625000   0.859375 0
  0.843750   0.781250 0
  0.859375   0.765625 0
  0.843750   0.765625 0
  0.859375   0.750000 0
  0.843750   0.750000 0
  0.765625   1.000000 0
  0.781250   0.984375 0
  0.875000   0.625000 0
  0.875000   0.812500 0
  0.640625   0.875000 0
  0.562500   0.906250 0
  0.796875   0.843750 0
  0.796875   0.828125 0
  0.656250   0.906250 0
  0.890625   0.640625 0
  0.875000   0.843750 0
  0.859375   0.843750 0
  0.625000   0.906250 0
  0.812500   0.875000 0
  0.859375   0.515625 0
  0.812500   0.843750 0
  0.796875   0.875000 0
  0.796875   0.859375 0
  0.593750   0.968750 0
  0.859375   0.875000 0
  0.625000   0.937500 0
  0.843750   0.875000 0
  0.593750   0.953125 0
  0.859375   0.859375 0
  0.828125   0.671875 0
  0.890625   0.765625 0
  0.656250   0.828125 0
  0.656250   0.625000 0
  0.890625   0.562500 0
  0.640625   0.843750 0
  0.640625   0.640625 0
  0.875000   0.578125 0
  0.890625   0.750000 0
  0.875000   0.765625 0
  0.562500   0.625000 0
  0.968750   0.500000 0
  0.734375   0.562500 0
  0.937500   0.578125 0
  0.703125   0.640625 0
  0.656250   0.984375 0
  0.640625   1.000000 0
  0.953125   0.578125 0
  0.671875   0.984375 0
  0.906250   0.921875 0
  0.921875   0.687500 0
  0.671875   0.765625 0
  0.687500   0.750000 0
  0.906250   0.484375 0
  0.984375   0.921875 0
  0.734375   1.000000 0
  1.000000   0.906250 0
  0.750000   0.984375 0
  0.828125   0.843750 0
  0.593750   0.906250 0
  0.828125   0.640625 0
  0.843750   0.828125 0
  0.609375   0.890625 0
  0.609375   0.687500 0
  0.843750   0.625000 0
  0.734375   0.875000 0
  0.968750   0.812500 0
  0.859375   0.812500 0
  0.625000   0.875000 0
  0.859375   0.609375 0
  0.843750   0.812500 0
  0.859375   0.796875 0
  0.828125   0.812500 0
  0.593750   0.875000 0
  0.828125   0.609375 0
  0.781250   0.843750 0
  0.515625   0.921875 0
  1.000000   0.781250 0
  0.765625   0.843750 0
  1.000000   0.578125 0
  0.765625   0.968750 0
  0.890625   0.703125 0
  0.656250   0.765625 0
  0.890625   0.500000 0
  0.875000   0.703125 0
  0.937500   0.937500 0
  0.984375   0.578125 0
  0.578125   0.531250 0
  0.875000   0.609375 0
  0.640625   0.671875 0
  0.796875   0.625000 0
  0.859375   0.593750 0
  0.625000   0.656250 0
  0.609375   0.671875 0
  0.593750   0.687500 0
  1.000000   0.562500 0
  0.765625   0.625000 0
  0.656250   0.578125 0
  0.625000   0.546875 0
  0.671875   0.812500 0
  0.906250   0.750000 0
  0.796875   0.546875 0
  0.828125   0.718750 0
  0.578125   0.781250 0
  0.875000   0.656250 0
  0.640625   0.718750 0
  0.734375   0.984375 0
  0.968750   0.921875 0
  0.609375   0.531250 0
  0.953125   0.921875 0
  0.968750   0.937500 0
  0.593750   0.546875 0
  0.765625   0.609375 0
  0.531250   0.671875 0
  0.781250   0.593750 0
  0.546875   0.656250 0
  0.656250   0.656250 0
  0.890625   0.593750 0
  0.656250   0.859375 0
  0.921875   0.671875 0
  0.968750   0.734375 0
  0.718750   0.812500 0
  0.812500   0.984375 0
  0.562500   0.796875 0
  0.750000   0.640625 0
  0.765625   0.687500 0
  0.531250   0.953125 0
  0.687500   0.656250 0
  0.921875   0.593750 0
  1.000000   0.593750 0
  0.750000   0.671875 0
  0.671875   0.750000 0
  0.906250   0.687500 0
  1.000000   0.656250 0
  0.812500   0.562500 0
  0.687500   0.796875 0
  0.921875   0.734375 0
  0.828125   0.546875 0
  1.000000   0.625000 0
  0.953125   0.968750 0
  0.750000   0.906250 0
  0.515625   0.968750 0
  0.812500   0.531250 0
  1.000000   0.796875 0
  0.515625   0.937500 0
  0.750000   0.875000 0
  0.812500   0.703125 0
  0.796875   0.703125 0
  0.812500   0.593750 0
  0.937500   0.562500 0
  0.656250   0.968750 0
  0.890625   0.906250 0
  0.703125   0.625000 0
  0.953125   0.546875 0
  0.671875   0.953125 0
  0.906250   0.890625 0
  0.984375   0.781250 0
  0.796875   0.687500 0
  0.562500   0.953125 0
  0.968750   0.875000 0
  0.718750   0.953125 0
  0.562500   0.937500 0
  0.781250   0.781250 0
  0.953125   0.875000 0
  0.718750   0.937500 0
  0.953125   0.671875 0
  0.796875   0.656250 0
  0.828125   1.000000 0
  0.953125   0.890625 0
  0.703125   0.968750 0
  0.828125   0.625000 0
  0.781250   0.968750 0
  0.781250   0.671875 0
  0.781250   0.875000 0
  0.546875   0.937500 0
  0.906250   0.640625 0
  0.671875   0.703125 0
  0.640625   0.609375 0
  0.875000   0.546875 0
  0.906250   0.625000 0
  0.656250   0.703125 0
  0.656250   0.718750 0
  0.968750   0.531250 0
  0.734375   0.593750 0
  0.984375   0.531250 0
  0.781250   0.546875 0
  0.718750   0.609375 0
  0.906250   0.703125 0
  0.968750   0.593750 0
  0.687500   1.000000 0
  0.921875   0.937500 0
  0.906250   0.765625 0
  0.906250   0.562500 0
  0.718750   0.750000 0
  0.718750   0.546875 0
  0.953125   0.484375 0
  0.796875   0.593750 0
  0.515625   1.000000 0
  0.750000   0.937500 0
  0.906250   0.593750 0
  0.546875   1.000000 0
  0.781250   0.937500 0
  0.828125   0.593750 0
  0.984375   0.609375 0
  0.937500   0.953125 0
  0.796875   0.515625 0
  0.968750   0.609375 0
  0.734375   0.671875 0
  0.906250   0.781250 0
  0.671875   0.843750 0
  0.515625   0.890625 0
  0.687500   0.625000 0
  0.921875   0.562500 0
  0.843750   0.531250 0
  1.000000   0.765625 0
  0.750000   0.843750 0
  0.812500   0.671875 0
  0.687500   0.921875 0
  0.765625   0.515625 0
  0.953125   0.609375 0
  0.921875   0.625000 0
  0.687500   0.687500 0
  0.812500   0.656250 0
  0.812500   0.859375 0
  0.578125   0.921875 0
  0.796875   0.765625 0
  0.890625   0.687500 0
  0.578125   0.750000 0
  0.812500   0.687500 0
  0.578125   0.953125 0
  0.796875   0.796875 0
  0.984375   0.890625 0
  0.734375   0.968750 0
  0.718750   0.640625 0
  0.968750   0.562500 0
  0.687500   0.968750 0
  0.921875   0.906250 0
  0.765625   0.953125 0
  0.812500   0.609375 0
  0.812500   0.734375 0
  0.875000   0.562500 0
  0.968750   0.656250 0
  0.796875   0.734375 0
  0.812500   0.828125 0
  0.578125   0.890625 0
  0.781250   0.687500 0
  0.984375   0.671875 0
  0.578125   0.828125 0
  0.812500   0.765625 0
  0.875000   0.593750 0
  1.000000   0.875000 0
  0.765625   0.937500 0
  0.843750   0.656250 0
  0.843750   0.859375 0
  0.609375   0.921875 0
  0.828125   0.687500 0
  0.937500   0.656250 0
  0.937500   0.859375 0
  0.703125   0.921875 0
  0.984375   0.640625 0
  0.890625   0.468750 0
  0.656250   0.734375 0
  0.890625   0.671875 0
  0.890625   0.875000 0
  0.656250   0.937500 0
  0.578125   0.859375 0
  0.812500   0.796875 0
  0.843750   0.890625 0
  0.609375   0.953125 0
  0.937500   0.875000 0
  0.687500   0.953125 0
  0.843750   0.953125 0
  0.828125   0.703125 0
  0.593750   0.765625 0
  0.937500   0.546875 0
  0.781250   0.531250 0
  0.781250   0.734375 0
  0.546875   0.796875 0
  0.796875   0.718750 0
  0.562500   0.984375 0
  0.984375   0.812500 0
  0.562500   0.812500 0
  0.796875   0.750000 0
  0.562500   0.875000 0
  0.796875   0.812500 0
  0.640625   0.750000 0
  0.875000   0.687500 0
  0.703125   0.671875 0
  0.937500   0.609375 0
  0.562500   0.843750 0
  0.796875   0.781250 0
[...]
POINT_DATA 4072
SCALARS scalar_value float 1
LOOKUP_TABLE default
7.0195e-06
0.00960322
0.000108088
-5.26659e-05
4.91122e-07
-3.16896e-05
-5.32654e-06
2.0032e-05
0.000101067
-0.000328708
-6.71672e-06
-8.53808e-05
-1.22551e-05
-0.000121695
2.25965e-05
-5.58811e-06
-1.51624e-05
-2.2517e-05
1.22682e-05
2.10888e-06
3.34235e-06
-8.56796e-06
-9.80218e-05
8.61363e-05
5.97319e-06
1.17621e-06
5.71357e-05
-7.55181e-05
9.24433e-05
-0.00025112
-3.07002e-06
7.47841e-05
0.000304227
1.77561e-06
5.32846e-05
-1.06095e-06
-4.3488e-06
5.38663e-05
-0.00142276
6.62919e-06
-7.90521e-05
1.05392e-05
0.000115273
-0.000122313
4.2936e-06
-9.4449e-05
-0.00104861
-4.26676e-07
1.63938e-06
0.00140806
-2.03397e-06
-9.60292e-07
-0.00464419
2.00186e-05
-0.000829621
3.76826e-06
0.00197492
-0.00335242
0.00120192
-9.91378e-05
0.000202833
-0.00015727
-0.000114423
4.03663e-05
-0.0156127
0.000145511
-0.000153839
-6.56043e-05
3.5209e-08
4.74923e-07
-2.22803e-05
0.000415117
1.89523e-05
-9.73301e-05
-5.37229e-07
-0.000439091
-9.79058e-05
1.5859e-06
0.000282636
1.9112e-05
-5.1172e-05
-4.01803e-05
2.66006e-05
-1.75467e-05
-0.000278566
-0.000198682
-0.000146128
3.68954e-06
0
-1.42682e-06
-7.58804e-07
-1.40973e-05
0.0109804
0.00123523
0
-0.0001015
0.00103504
0.00020723
-7.81457e-05
-0.00019593
-0.000136304
0
4.53247e-05
3.16489e-05
-3.13698e-05
5.30915e-05
-3.01505e-05
-0.000105275
0.000107988
0.000113425
0
3.01804e-07
-7.12094e-05
2.74807e-05
1.89507e-05
1.91532e-05
-3.87992e-05
-0.000161846
1.44001e-05
-5.96867e-05
-7.56209e-06
9.38961e-06
1.08606e-05
-8.33661e-06
-0.000661514
5.45799e-05
3.5905e-05
-0.000117787
1.66882e-06
-3.80509e-06
3.69637e-06
4.30853e-06
-1.09885e-05
3.16343e-06
-3.85072e-05
-1.14204e-05
-3.63992e-05
0.000630699
0.00160536
4.00422e-05
-0.000929506
-0.000317987
0.000106941
-8.36845e-05
-0.000629646
0.00206162
-0.00103056
-0.00019433
-0.000150584
2.41833e-06
0
-0.000235162
2.27737e-06
3.05965e-08
0.000153084
-0.000181743
0.000160152
0.00458609
2.42743e-07
0
-1.062e-06
2.35459e-06
1.32202e-05
1.89734e-05
-1.60098e-05
-1.58597e-05
-2.21865e-05
-0.0019024
0.000142183
-2.82995e-06
-1.15707e-06
2.39964e-05
1.65798e-05
-5.69178e-05
3.0512e-05
-3.33567e-05
2.25563e-05
5.21758e-05
5.00375e-05
0.000242351
-4.51213e-05
-5.72252e-06
-9.86762e-05
-0.000627698
-9.00104e-07
-7.86301e-05
-4.07247e-05
-0.00307525
-0.000190416
2.27046e-06
-9.03124e-05
-0.000545152
-0.000140046
-0.00024954
2.72645e-05
0.000160758
0.000927845
-0.000187812
0.00318201
0.000893799
0.000262045
0.000815428
-0.00232592
-3.22139e-05
-1.48502e-05
-0.00115807
1.3955e-05
-3.42925e-05
-1.60088e-07
-0.000237439
5.69347e-06
-8.06937e-07
0.0031647
1.0577e-06
-3.67167e-07
-0.00237144
-0.000622057
-0.000675719
0.000680062
0.000304133
7.76281e-06
1.30157e-05
1.27988e-06
-8.13088e-05
-1.41119e-05
0.000130376
5.95944e-07
-4.1105e-05
-0.000225033
1.69144e-05
-4.11601e-05
-0.00011855
0.000744958
0.000229387
2.32011e-05
0.000103772
4.56445e-05
-8.27407e-05
0.000514424
1.55206e-05
1.90741e-05
-0.0001708
-0.000255649
-5.60441e-07
5.97864e-06
-1.70175e-05
0.0012169
2.08424e-06
-5.04837e-05
-1.38888e-05
-2.61966e-05
-0.00013701
0.000417306
0.000553884
1.58715e-06
-2.13289e-06
-0.000549137
0.000366799
1.66952e-06
1.33136e-09
-5.32878e-06
-5.86084e-05
-2.4706e-05
-1.54655e-06
2.73388e-06
2.35567e-05
0.000140293
4.88799e-06
1.07694e-06
1.01294e-05
-5.29948e-06
0
9.87298e-07
-2.16566e-06
8.90121e-05
-2.53897e-06
4.98811e-05
0.000232886
8.46e-06
-0.000391329
-0.000149898
-0.000863137
0.000878648
0.000344081
0.000179336
4.8187e-05
0.00136781
-0.000203687
-0.000274715
-0.000860258
0.000494876
-0.000102437
0.000110072
0
-2.50225e-07
-1.13923e-05
0.0013768
0.00015926
0.000182826
-0.00302265
-0.000137364
0
-1.71818e-07
-0.000379002
0
-6.47365e-06
0.000161361
-0.000342388
8.38599e-07
-0.000955407
-9.1807e-05
-0.000359569
-9.89388e-05
9.71622e-07
-8.5952e-05
-0.00050939
-0.00180418
0.000374546
1.25246e-05
0.000124807
-3.60285e-05
-2.35918e-06
0.00142017
-0.000351258
0.000318809
0.000260347
1.07317e-05
-1.04377e-05
-4.05738e-05
-8.09715e-05
0.000211704
-0.000278345
5.03687e-05
-1.6362e-05
-0.000135553
-1.76498e-06
9.42655e-07
2.83875e-05
0.000746888
-1.74872e-06
-1.8904e-06
4.4523e-06
-0.00027789
3.86223e-05
0.000475783
-1.0847e-05
-0.000106036
3.56174e-06
-5.42129e-05
0.000209935
9.43009e-05
-9.62171e-06
2.55783e-06
0.000187363
-1.05504e-06
-2.38297e-06
-4.06703e-06
-1.11856e-05
-1.40741e-05
7.75137e-05
0.000222176
1.65787e-06
1.65662e-06
-5.41645e-06
-0.00419163
-7.58803e-06
-0.000216942
-6.03369e-07
7.43759e-06
-1.75387e-05
-2.85837e-05
3.85636e-06
-1.11566e-05
-4.32563e-06
5.40685e-08
2.301e-06
6.07441e-05
-0.000133216
-0.00203238
0.000355922
0.000119135
-5.63703e-05
-4.84088e-05
-6.93985e-06
-4.44385e-06
-2.16721e-05
-8.88211e-05
-1.48721e-05
-2.70005e-05
4.51503e-05
0.000159817
-0.000378378
-5.20669e-05
-2.67405e-05
-7.92281e-05
0.000170322
-0.000117248
5.85199e-06
1.40753e-05
0.000451866
0.000452837
0
-3.12888e-06
-0.000190005
0.000115434
0.000115356
3.4942e-06
0.000141219
-4.82865e-05
0
0.00057303
-7.1727e-05
-0.000183205
0.000242455
1.25916e-06
-3.49683e-05
2.86493e-05
0.000105191
-2.43533e-05
0.000654198
0.000530247
0.000158816
-0.000156026
8.80578e-07
-0.00164237
0.000348654
0.000399851
-2.45602e-05
0
-2.73623e-06
0.000365786
-0.000365297
6.2422e-06
-0.000226746
9.95126e-05
-0.000173405
-5.78169e-05
-0.000557604
4.35748e-05
-0.000200746
2.3255e-06
-0.000156049
4.14429e-05
-0.000329674
5.36533e-05
1.97544e-05
-0.000579692
0.00012066
-0.000374169
0
-2.50294e-05
0.000193616
2.37464e-05
-0.000224317
-5.49883e-07
0
8.57114e-05
1.33078e-05
-3.23743e-06
2.97258e-05
0.0011987
-4.41733e-05
-8.90227e-05
-3.51408e-06
0.000102831
0.000488408
8.97584e-07
5.59983e-06
8.51842e-05
0.000244405
2.91361e-07
0
0.000262293
-4.65962e-07
7.28926e-07
-2.37436e-06
2.54912e-06
0
0
1.66511e-06
-4.59986e-05
3.94141e-06
1.89135e-06
-0.000580339
1.41818e-06
-7.32936e-07
0
-0.002039
9.17894e-07
1.74997e-06
0
0
0.000177473
-0.000101168
0.000265134
-9.42108e-05
0.00011178
-8.52224e-05
-0.000152214
9.51172e-05
8.90876e-05
0.000173435
5.64991e-05
0.000480446
0.000177647
-0.000101335
-2.90053e-07
0
-0.00066367
0.000189183
0
-0.00120744
-3.52506e-07
-0.000230702
0.0017462
7.96605e-07
0.00069452
-0.00263771
-7.13262e-07
-0.000259857
-1.37118e-07
7.93021e-07
0.00010815
-7.57383e-07
5.31457e-06
2.04821e-06
-0.00110898
2.95481e-06
2.47545e-06
-0.000222886
3.09469e-08
0.000533328
-0.00231199
-3.13964e-07
-0.000512158
0.0019433
0.00140852
-6.24549e-08
-1.79055e-05
3.69758e-06
-0.000123629
1.11378e-06
1.5249e-06
-0.000162485
5.23444e-05
-6.42798e-06
-0.000132744
-0.000104974
0
-1.63913e-05
-0.000112905
1.10354e-05
8.19785e-05
-6.1508e-07
0.000171042
-8.0193e-05
2.82102e-05
2.99e-05
-0.000906454
0.000626076
-0.000292198
-0.00140334
-0.00108046
-0.000348861
-0.000374148
-0.000366135
-0.00109072
-0.00323261
0.00196389
-2.49508e-05
0
0
6.88774e-05
-0.000220324
2.98174e-06
1.24205e-05
-0.00027246
-1.03117e-06
9.05169e-05
-4.05087e-07
-8.63065e-07
6.76265e-08
4.01755e-07
2.97414e-07
-2.849e-06
5.5575e-06
-1.4555e-06
-9.41059e-06
-9.21312e-06
3.9761e-06
1.92987e-06
1.10492e-07
-2.69842e-06
-2.40058e-06
7.14972e-07
1.27045e-06
6.19444e-07
-1.45007e-06
0
0
-2.75765e-06
2.04301e-06
2.87818e-06
4.02217e-07
0
-1.44679e-06
1.08209e-06
1.12705e-05
0.000810361
-1.11283e-05
-5.47475e-06
-1.89149e-06
-1.38103e-06
6.93193e-07
-0.000509242
-3.04478e-05
2.46632e-05
5.09216e-05
-1.65383e-05
1.25951e-05
3.08494e-06
2.67224e-06
-3.40315e-06
9.3309e-07
9.99764e-07
2.65251e-06
8.31228e-06
2.11099e-08
-9.3467e-08
4.86266e-06
-0.000142167
3.57339e-05
2.55674e-06
-5.98173e-07
-4.48437e-05
-6.02638e-06
-0.000276589
-8.92025e-05
2.88164e-06
8.78733e-07
2.61702e-07
-3.73042e-07
0.000127026
2.42463e-05
9.27357e-06
-2.26433e-06
3.96502e-06
1.83019e-06
1.29739e-06
-4.17049e-05
0.000147877
2.53782e-05
-5.59597e-05
-3.97189e-05
-0.000120281
2.62348e-05
1.42026e-06
5.18502e-07
-1.01728e-06
-5.3692e-05
-6.60398e-05
0
1.57121e-06
-5.5618e-08
-3.08965e-05
-0.0001731
-5.35523e-06
-1.30087e-05
1.14192e-05
-1.41619e-05
-1.19507e-06
0
0.000434174
0.00307402
-0.000599928
9.34134e-06
-0.000391154
-4.08004e-05
-0.000106693
-7.71329e-05
-6.72648e-05
-8.27112e-05
0.000134748
-5.32602e-05
-8.49376e-05
-1.77156e-05
6.22167e-05
-1.67723e-05
5.3784e-06
-3.54627e-06
-1.19197e-06
7.81897e-05
0.000265568
5.2786e-05
0
-0.0472109
4.7595e-05
1.9264e-05
3.35057e-05
-2.15063e-05
-3.6966e-06
0.521583
0
-0.0803817
-4.8352e-05
-8.21936e-06
-1.48171e-06
0.929486
-1.84346e-05
-6.70379e-06
0.121638
-0.000777094
-0.00541576
-1.51484e-07
0.000489563
1.21345e-06
-5.86541e-06
0.000488796
-0.000504365
-4.76632e-07
0.000115215
-6.47819e-05
0.0838472
0.028997
-4.39105e-05
-0.000662604
7.36155e-05
-0.000135682
-1.52869e-06
0.0102574
-3.71889e-05
2.16856e-05
-5.47296e-05
5.25817e-07
0.505128
-3.84047e-06
0.000291988
4.39076e-05
0.085819
0.000349449
0.0622964
-0.00774726
-5.52818e-05
0.0358923
0.495493
0.0124425
-0.180472
0.00372012
-0.000553488
0.00319429
1.00849e-05
-0.000155818
-8.2513e-06
-5.2475e-05
3.552e-05
0.314168
-0.00548496
-0.000199499
-7.92556e-06
-4.10757e-05
0.0024223
-7.41854e-06
-4.43899e-07
0.249823
-0.00172334
0.143364
0.000866727
-0.000819203
-0.00297948
2.42361e-06
-0.000274705
-1.48629e-05
-9.42437e-08
1.02135
0.000374134
0.000714093
-0.000296523
-3.29314e-05
0.0118534
-4.7364e-05
-7.17442e-05
2.66377e-05
1.88203e-06
1.91772e-05
1.79367e-05
-5.52592e-05
-5.73908e-05
-6.89914e-05
-0.00321457
-1.5771e-05
-3.07046e-05
-0.000140936
-0.000172024
-8.24302e-05
2.68067e-05
-8.03291e-06
-2.15078e-05
-4.13522e-06
-5.00812e-05
8.15105e-06
-4.76531e-05
9.10851e-06
4.99518e-07
-3.5761e-05
0.00121885
-0.000111811
-2.51346e-06
-2.67386e-05
0.000304231
-0.00118237
-9.14108e-05
0.06569
-1.6885e-06
3.48499e-06
-0.000493306
0.000136426
-4.78872e-06
-0.00757309
-1.79748e-05
0
-0.0109264
0.000286224
7.35355e-06
-4.08681e-05
-6.14825e-05
0.000144955
-2.39847e-06
-1.63701e-05
-7.97811e-05
1.5944e-05
0.000772404
0.000174983
-0.000266978
-0.000546536
-8.86922e-05
-0.000136546
3.49169e-05
-2.40399e-05
-0.000235679
-0.000257614
0.000209566
-2.78028e-05
-0.000530746
-0.000467235
0.000358272
-2.19093e-06
0.00014128
0.00139413
0.000153302
9.11128e-06
-1.29718e-05
-1.10146e-05
-3.29446e-05
-7.11162e-05
2.70039e-05
-5.26412e-05
-1.94405e-05
-2.86494e-05
-1.81664e-05
-0.00118126
0.000197341
-5.45369e-06
-1.29004e-08
2.2752e-05
-2.52782e-05
-0.0445851
0
0.00983684
1.75345e-05
-2.369e-05
-0.000280514
2.88486e-05
-6.32759e-05
-3.76781e-05
1.92431e-05
-0.000241258
-6.78542e-05
-6.81705e-06
0.000111844
3.92175e-05
1.18637e-05
-0.000123202
-0.000246177
0.000103583
-3.88151e-05
-4.58003e-05
-3.84604e-05
-0.00732198
-3.6041e-05
-4.03123e-05
-0.000196961
-2.32376e-05
-0.0030017
1.83261e-05
0.143359
-0.00800106
0.00867743
0.000108255
-3.5285e-05
-6.34062e-06
7.93069e-06
0.000297398
9.0052e-06
-0.000244121
-8.15623e-06
-3.91208e-07
-5.04676e-06
0.000442059
-0.000382179
0.000262178
-0.000408628
-0.000521755
0.00010566
-2.54714e-05
-2.07477e-05
2.85094e-05
-0.000282597
-0.001002
-4.60551e-05
-3.06758e-05
-1.38547e-05
0.000133566
0.000239655
-0.00793084
0.000254451
-2.12935e-05
-9.07565e-06
-6.00695e-06
-0.161344
-8.16356e-06
-0.0306827
1.80284e-05
-0.000181546
2.14156e-06
3.95588e-06
-3.74132e-05
-2.7503e-05
-1.78757e-05
3.51534e-05
-9.77229e-05
-1.39933e-05
-0.00233048
9.14204e-05
3.81527e-06
3.54287e-06
-0.0280342
-0.000882476
0.0002493
-6.993e-05
0.198297
-1.03942e-07
-0.000998891
3.23864e-05
0.152897
-2.14109e-06
0
-0.0230367
0.000301763
0.0111686
-0.00695095
-0.00281081
0.000449367
-0.000416743
-0.0072983
0.00150396
0.00033515
-0.000268964
-3.87613e-05
-0.00166512
-0.00354076
0.00238494
-0.00373183
-1.81861e-07
0.00768173
-0.000910418
0.00160627
0.0011907
0.135715
2.24515e-06
0.0257878
-0.023058
-0.0383762
-0.0333089
0.0147726
-0.0131842
2.69506e-06
-0.0507745
2.85034e-06
0.000330763
-0.0001142
3.22208e-05
2.72995e-05
0.000770638
-0.00629862
-0.000386361
0.000900902
-0.000109591
0.000911419
-0.00667224
3.3246e-06
-5.91442e-06
0.00859165
0.0256993
0.0557497
-0.0126589
0.00310562
-0.0121007
-0.000260678
-0.0318056
-0.00322362
0.0456955
0.00715602
-0.000206595
0.000225974
0.0159571
0.00075709
-0.00125942
-0.00105976
-0.00331547
0.0315956
5.19653e-05
-0.0519493
-7.25923e-07
-0.00117606
-0.000501783
0.000585013
0.0111176
3.40478e-05
0.236211
0.000201884
0.0961517
0
-0.00586249
0.118271
0.0436894
4.98381e-07
-0.000160583
0.0208286
9.56762e-05
0.400708
0
1.80597e-05
-0.00144029
0.0278273
0.0357017
0.0158331
-0.0114576
0.0425115
0.00799901
0.00544231
0.0228286
0.0156852
8.94807e-06
0.000501196
0.0218004
0.0117095
-0.0404554
1.52851e-05
-0.0062879
-0.0136417
0.0156405
0.00468077
0.00339818
0.000223899
8.22079e-05
0.00012242
0.000294741
-0.00951366
-0.0110678
-0.00253161
0.00119433
0.00015595
0.0109178
0.0108987
0.0160159
0.0137617
-0.00127464
0.00111646
-0.00288981
0.00933731
0.000908513
-0.00571617
0.00369702
0.00113494
0.0103707
-7.45133e-05
-4.45058e-06
-0.000538321
-0.030084
-8.38366e-05
0.00276292
0.0315294
0.0478292
0.0162778
-0.0267263
-0.0533431
0.112895
-0.0221675
-0.000131826
-0.00615568
0.0372743
-0.000733247
-1.49844e-05
-0.000146987
-0.000244716
-0.0111296
0.00173941
0.00878905
-0.00460762
-0.0294758
0.00502671
-0.00221836
0.00268225
-0.0011127
-0.00161483
-0.00117008
0.000617969
1.13289e-06
3.28751e-06
0.00918807
-0.0451295
-0.00235495
0.000286584
-0.000432321
-4.70418e-05
0.0682094
0.0228791
-0.00902971
0.0493744
0.0991822
-0.0762529
2.61568e-05
-0.00271694
0.0290491
-0.00028624
-0.000201879
-0.000173579
-0.00241349
0.00116329
-0.000428115
0.000273277
0.000256851
-0.0111428
0.0313705
6.25128e-07
-0.0716564
-0.0013241
-2.64607e-07
0.0131265
-0.000142417
0.411994
-1.15387e-07
-0.0778286
-2.22019e-05
0.253434
2.68043e-07
0.0643197
0.0730234
-0.00387446
0.0047695
-0.0819151
0.0140432
0.0418821
0.0258781
-3.53164e-05
0.0379395
-0.000287807
-9.33405e-06
-2.38092e-07
1.46736e-06
0.00726962
-0.124237
0.00218342
-0.00261584
-8.15056e-05
0.0174657
5.99835e-07
0.0387088
2.16001e-07
-0.152609
0
-0.000907118
-3.58131e-05
-3.01376e-05
0.00271032
0.00231715
-0.000622603
-0.0169561
0.0129833
0.0423194
0.000398615
-0.00300784
0.00802283
-0.0235616
3.1299e-05
0.0698251
0.0124139
3.39789e-05
4.7245e-07
0.553503
0.00327869
0.00452221
-0.0111059
0.0192707
-3.30368e-05
1.29764e-07
0.178273
-0.00800784
0.00204776
0.00845667
2.56697e-05
0.000299119
0.00342866
-0.00285882
-0.0188091
-0.00491963
0.00299079
-0.048325
1.88443e-07
0.62481
0.070134
-0.00400613
-0.00155671
-0.00195701
-0.0109851
-0.0582866
0.181032
0.0539904
0.0138239
0.0119632
0.0530184
0.100935
0.024048
0.00806296
-0.0659701
0.0217474
-0.0106258
-0.00393863
-5.30257e-05
-0.0182935
0.012776
0.129355
0.114446
-0.0247366
0.0156027
-0.0250761
0.0129886
0.000961068
0.000285824
-0.00222322
0.0222567
-0.0609055
-0.0179241
0.0195472
-0.00149128
-0.00506041
0.0227636
0.0193256
0.0154868
0.0192728
4.98061e-08
0.00623145
-0.000838099
0.0016884
-0.0238609
0.139361
-0.00292094
0.000729222
0.128403
-0.00228587
-0.000356781
0.0164807
-0.0175991
0.000340846
2.56176e-05
-0.000575676
-0.00815258
-0.00533238
-0.000250554
-0.0135267
0.00582229
-0.00297367
0.00335958
-0.0234117
-0.00385553
-0.000187457
0.0210341
-0.0631431
0.126035
-0.000115902
-2.35924e-05
0.000128656
0.0304485
0.00506981
-0.0378548
-0.00844187
-0.0487018
-0.0174856
1.99427e-05
0.0380196
6.58655e-05
0.0305566
0.0185371
-0.00285629
0.00469389
-0.00505272
-0.000267603
0.000227998
-2.77521e-06
3.00651e-06
-7.17212e-06
0.000120137
-9.13806e-06
-0.013832
-6.17311e-05
-0.00567234
0.000106029
0.000628091
0.100991
4.15472e-06
0.3356
2.49107e-07
-0.0142699
0.0133898
-0.00142739
-0.00117071
-0.000130773
0.000391915
0.0214689
0.00364352
-0.00326327
0.00590785
0.0119787
-0.000329453
-0.000571409
0.106918
0.0194089
0.00413074
0.000992987
0.000311755
0.119134
0.00348644
-6.1852e-05
0.0498115
0.0147436
0.0249557
0.00889942
0.0594561
-0.00127235
-0.0217574
0.0206963
0.00113204
0.0434861
0.0100144
0.00476812
0.00492237
2.85244e-05
0.00329358
0.0224484
-9.47211e-05
-0.000141956
-0.000601502
-0.0010187
0.00889126
0.000427024
0.31741
0
0.0382529
1.19308e-05
0.0655347
0.00161132
-0.000180632
-0.350705
0.033636
-4.69914e-05
0.0107172
-0.0128419
-0.00142605
-0.00145272
-0.00379938
-0.000259584
-5.06308e-05
-0.0114533
0.00626235
0.0110102
-0.0328962
-1.37573e-05
-0.00892455
-0.00236886
0.0152614
0.00452155
-0.0346694
0.000760763
-6.03693e-07
-0.00262587
0.0412325
0.00110933
0.00249248
0.0566424
0.00848028
-0.010892
0.00453484
-1.47108e-06
0.0070137
2.37173e-06
0
0.00848658
-4.0455e-06
0.000457977
0.00253326
0.00989548
6.55286e-05
-0.00067137
-0.00033314
-0.000182149
0.00144437
0.00105612
1.29677e-05
-0.00856724
-0.0101784
-0.000647777
0.00498581
-0.06897
0.795336
0.00518548
0.00184532
0.00104642
-0.00143388
3.6712e-05
0.000135921
-0.00225441
-0.00101997
0.0215985
-0.0396013
9.28212e-07
0.000198547
0.000272995
0.00376916
0.00152493
-0.0120302
0.00339372
0.00136722
0.0134817
6.32291e-05
0.00107194
-0.00207284
-0.0079028
-0.00312039
-0.0359911
0.00302223
0.0158703
0.00171172
-0.00203815
-0.0105121
-0.00513785
-0.00559618
0.00250957
-0.00713156
-0.0117498
-0.00352989
0.00031585
-0.00231109
-0.000766465
0.0116982
-0.087446
-3.01245e-05
-9.31871e-07
-0.0150116
3.9905e-05
6.83292e-05
-0.000149318
0.0527787
0.00251154
0.000550099
-0.000818059
0.000681358
-0.00322612
-0.00370828
-4.74374e-05
-0.0290283
0.0266664
0.0160696
2.12644e-05
0.0682976
-0.0422801
0.158541
-0.00113492
0.0618004
0.00311709
0.0068139
0.00341712
-0.00125408
0.0923903
0.0284167
-0.00360793
-0.0120332
0.00596532
-7.1462e-05
-8.46819e-05
0.0169463
-9.90731e-05
-3.85004e-05
-0.00633225
0.00636003
0.0677057
4.01381e-07
-0.00193707
-1.9884e-05
-0.0090784
0.000510878
0.00339727
-0.0099009
0.0198722
-0.00461333
0.0193943
0.336816
-0.0152913
0.0298202
-0.00360461
-0.00141485
-0.0218579
0.0834461
0.553669
0.0146845
-0.0474139
0.0404366
0.0198409
0.0183295
0.00236205
-6.85585e-06
-0.0605627
-0.028271
0.012094
-9.19124e-06
-0.000631167
0.123184
0.0191115
0.0181962
-0.0110026
-0.00753057
0.00594966
0.000431736
0.00717091
-0.00132339
-0.00814576
-8.48172e-07
0.00683726
0.00564907
0.000947979
0.153702
0.0017162
0.728144
0.00199974
-0.0115743
-3.46989e-07
3.47708e-08
-7.10007e-05
-0.00816013
0.012897
-0.0035633
0.0329021
6.15322e-05
0.00122743
-4.77058e-05
-0.00110475
-0.000529347
-9.30361e-06
-2.02766e-05
0.0206346
-0.000321505
0.0311199
-0.00271168
2.26974e-05
0.0447325
0.00697767
-5.58168e-06
0.0198838
-0.00218421
-0.0163447
-0.00309752
0.000658924
-0.0281905