# vtk DataFile Version 2.0
Unstructured Grid by M++
ASCII
DATASET UNSTRUCTURED_GRID
POINTS 4072 float
  0.562500   0.968750 0
  0.906250   0.500000 0
  0.750000   0.781250 0
  0.953125   0.531250 0
  0.984375   0.875000 0
  0.828125   0.828125 0
  0.828125   0.859375 0
  0.562500   0.765625 0
  0.937500   0.687500 0
  0.968750   0.578125 0
  0.968750   0.781250 0
  0.734375   0.843750 0
  0.968750   0.718750 0
  0.734375   0.796875 0
  0.984375   0.718750 0
  0.984375   0.703125 0
  1.000000   0.750000 0
  0.984375   0.734375 0
  1.000000   0.718750 0
  0.953125   0.859375 0
  0.953125   0.843750 0
  0.937500   0.843750 0
  0.921875   0.640625 0
  0.937500   0.625000 0
  0.671875   0.906250 0
  0.687500   0.890625 0
  1.000000   0.687500 0
  0.828125   0.796875 0
  0.828125   0.750000 0
  0.515625   0.750000 0
  0.828125   0.937500 0
  0.968750   0.625000 0
  0.984375   0.593750 0
  0.984375   0.796875 0
  0.750000   0.859375 0
  0.859375   0.937500 0
  0.828125   0.953125 0
  0.859375   0.781250 0
  0.593750   0.515625 0
  0.984375   0.750000 0
  0.734375   0.828125 0
  1.000000   0.734375 0
  0.750000   0.812500 0
  0.953125   0.562500 0
  0.968750   0.750000 0
  0.734375   0.812500 0
  0.968750   0.546875 0
  0.843750   0.906250 0
  0.875000   0.875000 0
  0.578125   0.640625 0
  0.750000   0.968750 0
  0.984375   0.906250 0
  0.625000   0.515625 0
  0.937500   0.593750 0
  0.781250   0.578125 0
  0.640625   0.968750 0
  0.937500   0.531250 0
  0.937500   0.515625 0
  0.953125   0.500000 0
  0.703125   0.796875 0
  0.859375   0.718750 0
  0.703125   0.765625 0
  0.921875   0.703125 0
  0.687500   0.765625 0
  0.921875   0.500000 0
  0.718750   0.781250 0
  0.734375   0.765625 0
  0.968750   0.687500 0
  0.968750   0.890625 0
  0.734375   0.953125 0
  0.859375   0.828125 0
  0.890625   0.484375 0
  0.843750   0.843750 0
  0.828125   0.765625 0
  0.968750   0.906250 0
  0.796875   0.578125 0
  0.765625   0.828125 0
  0.609375   0.968750 0
  0.734375   0.656250 0
  0.671875   0.875000 0
  0.531250   0.906250 0
  0.546875   0.921875 0
  0.765625   0.656250 0
  0.531250   0.937500 0
  0.531250   0.734375 0
  0.765625   0.671875 0
  0.843750   0.734375 0
  0.843750   0.937500 0
  0.609375   1.000000 0
  0.593750   0.796875 0
  0.828125   0.734375 0
  0.578125   0.812500 0
  0.671875   0.562500 0
  0.781250   0.562500 0
  0.656250   1.000000 0
  0.765625   0.796875 0
  0.656250   0.593750 0
  0.796875   0.562500 0
  0.625000   0.828125 0
  0.625000   0.625000 0
  0.859375   0.562500 0
  0.796875   1.000000 0
  0.890625   0.781250 0
  0.875000   0.781250 0
  0.625000   0.859375 0
  0.843750   0.781250 0
  0.859375   0.765625 0
  0.843750   0.765625 0
  0.859375   0.750000 0
  0.843750   0.750000 0
  0.765625   1.000000 0
  0.781250   0.984375 0
  0.875000   0.625000 0
  0.875000   0.812500 0
  0.640625   0.875000 0
  0.562500   0.906250 0
  0.796875   0.843750 0
  0.796875   0.828125 0
  0.656250   0.906250 0
  0.890625   0.640625 0
  0.875000   0.843750 0
  0.859375   0.843750 0
  0.625000   0.906250 0
  0.812500   0.875000 0
  0.859375   0.515625 0
  0.812500   0.843750 0
  0.796875   0.875000 0
  0.796875   0.859375 0
  0.593750   0.968750 0
  0.859375   0.875000 0
  0.625000   0.937500 0
  0.843750   0.875000 0
  0.593750   0.953125 0
  0.859375   0.859375 0
  0.828125   0.671875 0
  0.890625   0.765625 0
  0.656250   0.828125 0
  0.656250   0.625000 0
  0.890625   0.562500 0
  0.640625   0.843750 0
  0.640625   0.640625 0
  0.875000   0.578125 0
  0.890625   0.750000 0
  0.875000   0.765625 0
  0.562500   0.625000 0
  0.968750   0.500000 0
  0.734375   0.562500 0
  0.937500   0.578125 0
  0.703125   0.640625 0
  0.656250   0.984375 0
  0.640625   1.000000 0
  0.953125   0.578125 0
  0.671875   0.984375 0
  0.906250   0.921875 0
  0.921875   0.687500 0
  0.671875   0.765625 0
  0.687500   0.750000 0
  0.906250   0.484375 0
  0.984375   0.921875 0
  0.734375   1.000000 0
  1.000000   0.906250 0
  0.750000   0.984375 0
  0.828125   0.843750 0
  0.593750   0.906250 0
  0.828125   0.640625 0
  0.843750   0.828125 0
  0.609375   0.890625 0
  0.609375   0.687500 0
  0.843750   0.625000 0
  0.734375   0.875000 0
  0.968750   0.812500 0
  0.859375   0.812500 0
  0.625000   0.875000 0
  0.859375   0.609375 0
  0.843750   0.812500 0
  0.859375   0.796875 0
  0.828125   0.812500 0
  0.593750   0.875000 0
  0.828125   0.609375 0
  0.781250   0.843750 0
  0.515625   0.921875 0
  1.000000   0.781250 0
  0.765625   0.843750 0
  1.000000   0.578125 0
  0.765625   0.968750 0
  0.890625   0.703125 0
  0.656250   0.765625 0
  0.890625   0.500000 0
  0.875000   0.703125 0
  0.937500   0.937500 0
  0.984375   0.578125 0
  0.578125   0.531250 0
  0.875000   0.609375 0
  0.640625   0.671875 0
  0.796875   0.625000 0
  0.859375   0.593750 0
  0.625000   0.656250 0
  0.609375   0.671875 0
  0.593750   0.687500 0
  1.000000   0.562500 0
  0.765625   0.625000 0
  0.656250   0.578125 0
  0.625000   0.546875 0
  0.671875   0.812500 0
  0.906250   0.750000 0
  0.796875   0.546875 0
  0.828125   0.718750 0
  0.578125   0.781250 0
  0.875000   0.656250 0
  0.640625   0.718750 0
  0.734375   0.984375 0
  0.968750   0.921875 0
  0.609375   0.531250 0
  0.953125   0.921875 0
  0.968750   0.937500 0
  0.593750   0.546875 0
  0.765625   0.609375 0
  0.531250   0.671875 0
  0.781250   0.593750 0
  0.546875   0.656250 0
  0.656250   0.656250 0
  0.890625   0.593750 0
  0.656250   0.859375 0
  0.921875   0.671875 0
  0.968750   0.734375 0
  0.718750   0.812500 0
  0.812500   0.984375 0
  0.562500   0.796875 0
  0.750000   0.640625 0
  0.765625   0.687500 0
  0.531250   0.953125 0
  0.687500   0.656250 0
  0.921875   0.593750 0
  1.000000   0.593750 0
  0.750000   0.671875 0
  0.671875   0.750000 0
  0.906250   0.687500 0
  1.000000   0.656250 0
  0.812500   0.562500 0
  0.687500   0.796875 0
  0.921875   0.734375 0
  0.828125   0.546875 0
  1.000000   0.625000 0
  0.953125   0.968750 0
  0.750000   0.906250 0
  0.515625   0.968750 0
  0.812500   0.531250 0
  1.000000   0.796875 0
  0.515625   0.937500 0
  0.750000   0.875000 0
  0.812500   0.703125 0
  0.796875   0.703125 0
  0.812500   0.593750 0
  0.937500   0.562500 0
  0.656250   0.968750 0
  0.890625   0.906250 0
  0.703125   0.625000 0
  0.953125   0.546875 0
  0.671875   0.953125 0
  0.906250   0.890625 0
  0.984375   0.781250 0
  0.796875   0.687500 0
  0.562500   0.953125 0
  0.968750   0.875000 0
  0.718750   0.953125 0
  0.562500   0.937500 0
  0.781250   0.781250 0
  0.953125   0.875000 0
  0.718750   0.937500 0
  0.953125   0.671875 0
  0.796875   0.656250 0
  0.828125   1.000000 0
  0.953125   0.890625 0
  0.703125   0.968750 0
  0.828125   0.625000 0
  0.781250   0.968750 0
  0.781250   0.671875 0
  0.781250   0.875000 0
  0.546875   0.937500 0
  0.906250   0.640625 0
  0.671875   0.703125 0
  0.640625   0.609375 0
  0.875000   0.546875 0
  0.906250   0.625000 0
  0.656250   0.703125 0
  0.656250   0.718750 0
  0.968750   0.531250 0
  0.734375   0.593750 0
  0.984375   0.531250 0
  0.781250   0.546875 0
  0.718750   0.609375 0
  0.906250   0.703125 0
  0.968750   0.593750 0
  0.687500   1.000000 0
  0.921875   0.937500 0
  0.906250   0.765625 0
  0.906250   0.562500 0
  0.718750   0.750000 0
  0.718750   0.546875 0
  0.953125   0.484375 0
  0.796875   0.593750 0
  0.515625   1.000000 0
  0.750000   0.937500 0
  0.906250   0.593750 0
  0.546875   1.000000 0
  0.781250   0.937500 0
  0.828125   0.593750 0
  0.984375   0.609375 0
  0.937500   0.953125 0
  0.796875   0.515625 0
  0.968750   0.609375 0
  0.734375   0.671875 0
  0.906250   0.781250 0
  0.671875   0.843750 0
  0.515625   0.890625 0
  0.687500   0.625000 0
  0.921875   0.562500 0
  0.843750   0.531250 0
  1.000000   0.765625 0
  0.750000   0.843750 0
  0.812500   0.671875 0
  0.687500   0.921875 0
  0.765625   0.515625 0
  0.953125   0.609375 0
  0.921875   0.625000 0
  0.687500   0.687500 0
  0.812500   0.656250 0
  0.812500   0.859375 0
  0.578125   0.921875 0
  0.796875   0.765625 0
  0.890625   0.687500 0
  0.578125   0.750000 0
  0.812500   0.687500 0
  0.578125   0.953125 0
  0.796875   0.796875 0
  0.984375   0.890625 0
  0.734375   0.968750 0
  0.718750   0.640625 0
  0.968750   0.562500 0
  0.687500   0.968750 0
  0.921875   0.906250 0
  0.765625   0.953125 0
  0.812500   0.609375 0
  0.812500   0.734375 0
  0.875000   0.562500 0
  0.968750   0.656250 0
  0.796875   0.734375 0
  0.812500   0.828125 0
  0.578125   0.890625 0
  0.781250   0.687500 0
  0.984375   0.671875 0
  0.578125   0.828125 0
  0.812500   0.765625 0
  0.875000   0.593750 0
  1.000000   0.875000 0
  0.765625   0.937500 0
  0.843750   0.656250 0
  0.843750   0.859375 0
  0.609375   0.921875 0
  0.828125   0.687500 0
  0.937500   0.656250 0
  0.937500   0.859375 0
  0.703125   0.921875 0
  0.984375   0.640625 0
  0.890625   0.468750 0
  0.656250   0.734375 0
  0.890625   0.671875 0
  0.890625   0.875000 0
  0.656250   0.937500 0
  0.578125   0.859375 0
  0.812500   0.796875 0
  0.843750   0.890625 0
  0.609375   0.953125 0
  0.937500   0.875000 0
  0.687500   0.953125 0
  0.843750   0.953125 0
  0.828125   0.703125 0
  0.593750   0.765625 0
  0.937500   0.546875 0
  0.781250   0.531250 0
  0.781250   0.734375 0
  0.546875   0.796875 0
  0.796875   0.718750 0
  0.562500   0.984375 0
  0.984375   0.812500 0
  0.562500   0.812500 0
  0.796875   0.750000 0
  0.562500   0.875000 0
  0.796875   0.812500 0
  0.640625   0.750000 0
  0.875000   0.687500 0
  0.703125   0.671875 0
  0.937500   0.609375 0
  0.562500   0.843750 0
  0.796875   0.781250 0
[...]
POINT_DATA 4072
SCALARS scalar_value float 1
LOOKUP_TABLE default
6.17383e-05
0.25679
0.000387779
0.00173588
1.99661e-05
2.87778e-05
-4.24208e-05
-0.000449933
1.93964e-05
-0.00241704
-6.59441e-05
-8.15922e-05
-0.000302455
-1.18517e-05
8.83575e-05
8.2113e-05
-0.000267089
-0.000129665
-7.14912e-05
1.54421e-06
2.60827e-05
-0.000119255
-0.000764632
0.000484727
-2.13149e-05
2.45423e-05
-7.26319e-05
-8.51622e-05
0.00040522
0.000160527
2.79254e-06
0.000337622
0.000741649
8.05729e-05
0.000238391
-1.73461e-05
-2.28518e-05
0.000279554
0.00710121
0.000143876
-0.000330251
0.000174384
-8.64984e-05
-0.000535777
-0.00026074
0.000146422
-0.00350817
2.12677e-05
4.22225e-05
0.00893017
5.27965e-06
-1.10282e-05
0.0338447
0.000931931
-0.0065373
3.25497e-07
0.00642823
-0.00948221
-0.00160273
-0.000315969
0.000813892
-7.67467e-05
-0.000994801
-0.000992286
0.0738531
0.000267836
0.000867954
-0.000102666
1.51493e-06
2.10001e-05
4.15749e-05
-0.104392
0.000134385
-0.000447816
-2.97359e-06
-0.00454524
-6.05781e-05
-1.38504e-05
0.00213926
-2.78509e-05
-0.000104943
-0.000415128
0.00224224
2.1367e-05
-0.00139568
-3.69576e-05
-0.00108962
2.86725e-05
0
8.52719e-05
0.000232811
8.89205e-05
-0.186291
0.00889924
0
0.000458661
-0.024004
0.0039649
-0.000584244
-0.0139982
-0.00157553
0
-0.000320375
0.00028467
-0.000276364
0.000176589
3.05478e-06
-0.000558665
0.00021771
0.000655762
0
-4.31426e-06
-0.000521468
-0.000104524
0.000156759
0.000289318
0.00010716
-0.000434051
-9.20403e-06
-0.00130944
6.04708e-05
-0.00010288
0.000115128
-6.12897e-05
-0.00854612
0.000172708
1.79367e-05
-0.000485536
4.09487e-05
1.08485e-05
3.69124e-07
-1.56019e-05
-4.70217e-06
4.94845e-05
-0.00133358
-0.000218065
-0.000404626
0.00147119
0.00397743
0.000377072
0.00475325
-0.00188474
-0.000149357
-0.000421441
-0.00324374
0.0145976
0.00258917
-0.002716
0.000506332
1.48902e-05
0
-0.000314121
-1.36844e-05
-2.70398e-06
0.000966152
-0.000938254
0.00185962
0.0911666
9.44033e-06
0
-1.42849e-05
-3.53143e-06
3.61183e-05
0.000333624
-0.00186856
-0.000224672
-0.000202361
0.000403999
0.000155338
-0.000140166
-9.87957e-06
0.000125091
0.000223211
-0.000432025
0.000224506
7.79879e-06
-6.44584e-05
0.000537524
0.000546004
0.000108326
-0.00037772
-0.000130597
0.000237809
-0.00169508
5.21869e-06
-0.00141566
-0.00077826
0.0348256
-0.000146024
1.81846e-05
-0.000793333
0.0262386
2.30025e-05
-0.00502304
0.00398481
0.000927412
-0.00895249
0.0119102
-0.0124946
0.00308641
0.00811634
0.0346073
0.0389212
0.000305681
0.000391188
-0.00695028
-0.000435522
0.000192007
-0.000252992
-0.0019497
1.57487e-05
1.23021e-06
0.00322974
3.3351e-06
-8.27836e-06
-0.00807128
-0.00937155
-0.00134397
0.00304404
0.00263121
0.00550343
-0.0013652
-3.88814e-05
-0.000913592
0.000224326
-6.43511e-05
-5.43471e-06
-0.000273327
-0.00266709
-0.000119859
-0.000306971
3.48138e-05
0.00284938
0.000736806
-0.00316903
0.000395661
0.000180712
-0.000316737
0.00718053
-5.05612e-05
-0.000210321
-0.00653209
-0.000145671
-6.77067e-06
2.11007e-05
-1.64416e-05
0.00907283
2.47053e-05
-0.000192814
0.000114118
-0.00052583
-9.69679e-05
0.00340759
0.00454131
1.85847e-05
-1.57572e-05
-0.000558085
-0.000733558
-1.22568e-05
-1.39983e-05
-5.27037e-05
-0.000791656
-0.000176886
-1.235e-05
-2.20389e-05
0.000182995
0.000212319
2.94227e-05
3.17595e-05
9.94988e-05
0.000967916
0
-5.15276e-06
2.87185e-05
0.000942367
-3.01485e-05
-0.000333895
0.000964308
0.00013044
-0.00137929
0.000190174
0.0214682
0.00191332
0.00209437
-0.00204184
0.00241882
0.00607841
0.0116019
-0.00154128
-0.00870529
0.00431556
0.000356663
0.00178878
0
-8.60203e-07
0.000151225
0.00512946
0.00134158
-0.0173816
-0.0403028
0.00386933
0
-4.63909e-05
-0.00101048
0
-5.12614e-05
-0.000303658
-0.000437127
6.08978e-06
-0.00823892
-0.00109343
-0.00126461
0.000270219
-3.25053e-05
-0.000455127
0.00451079
-0.00799444
0.00799065
0.000230739
-2.54688e-05
0.000626646
-6.30613e-06
-0.000104844
-0.00161177
0.00136392
0.00158046
-0.00186143
1.62508e-05
-0.000249012
-2.36195e-05
0.00105629
0.00194732
0.000389478
-0.000142017
-6.75338e-05
-9.46194e-06
-2.61942e-05
-0.00408607
0.00297013
7.52601e-06
-2.46287e-05
-1.7876e-06
-0.000107765
0.000105647
0.00122493
-0.000163136
-0.000374372
-0.000161325
-0.000343296
0.00048488
8.39191e-05
-0.000193696
-0.000112094
0.000799549
-2.91089e-05
-3.09023e-05
-0.00158383
-1.72499e-05
-7.79675e-05
0.00046861
0.000971288
4.63285e-06
3.18059e-05
-0.000165296
-0.039691
-0.00211434
-0.00221335
-3.98228e-05
3.66841e-05
-0.00030511
-0.000523084
2.46183e-05
-1.73144e-05
-5.69067e-05
-2.07588e-06
1.96265e-05
0.000605955
9.66326e-05
-0.00733804
0.00580147
-0.000178071
-0.000624359
-0.000429736
-6.02726e-05
-6.9869e-05
-0.000130749
-0.000384742
0.000193915
-8.00678e-05
0.000427882
0.000344447
-0.00264722
-0.00061571
-9.82375e-05
-0.000514363
8.86377e-05
-0.000191364
9.30832e-06
0.000344027
0.00131483
0.00376461
0
-2.85916e-05
-0.000755559
0.000634969
0.000653077
2.75282e-05
0.000198921
-8.27316e-05
0
0.00149652
1.73064e-05
-0.000170511
0.0012643
-3.58314e-05
-2.14655e-05
4.47212e-05
-0.00030288
-0.000233105
0.00592801
0.00919805
6.95316e-05
0.000286578
-1.39741e-05
-0.0103829
0.00176997
0.00163666
-0.000125426
0
-3.9796e-05
0.000226633
0.00185613
1.14934e-05
-0.000212357
0.000420497
0.00205477
0.000169394
0.00672131
-0.000365797
-0.000851082
1.95889e-06
-1.04278e-05
-0.000773165
-0.00133178
0.000333316
0.000879641
-0.00163079
0.00131477
-0.00139333
0
0.000545242
0.00198455
0.00245273
-0.0278703
-4.44435e-06
0
0.000293808
-0.000157617
-2.79853e-06
0.000875439
-0.00771145
-0.00067401
-0.00055068
-7.35311e-06
0.000451653
0.00708069
1.00203e-05
1.11668e-05
-7.50077e-06
0.000617503
-2.83124e-06
0
0.0011225
-6.8888e-06
8.11207e-06
-1.25956e-05
1.62183e-05
0
0
8.41182e-06
0.00273125
2.66558e-05
1.74472e-05
0.000955993
2.72739e-06
4.22997e-06
0
-0.00147547
-3.1806e-05
-3.28271e-05
0
0
0.00243696
0.000105477
0.00653094
-0.000365093
0.000300062
0.000711501
7.06813e-05
0.0013999
-2.12026e-05
-0.00683003
-0.000845586
-0.000862582
-0.000344958
0.000113158
-2.63944e-06
0
-0.0074704
0.0136861
0
0.00345931
4.25313e-07
-0.000706842
0.00125351
4.39543e-06
0.00347698
0.00836407
-4.61113e-06
-0.00908229
1.7305e-06
7.25896e-06
0.0281136
-4.81767e-06
1.26978e-05
1.83591e-05
-0.00618343
1.20497e-05
-2.34787e-05
-2.36683e-05
2.36395e-06
0.00801429
0.0073325
-3.84067e-06
-0.0103885
-0.00912206
-0.0120849
-5.90007e-07
-7.36501e-05
0.000137728
-0.00104549
1.89117e-05
-1.58047e-05
3.5858e-05
0.000554634
-8.50114e-06
-0.000784311
-0.000233998
0
0.000190101
0.000208192
0.000998086
0.000513946
-3.01105e-05
9.51513e-05
6.85895e-05
0.000518637
0.000594309
-0.00952299
0.00725804
-0.00201453
-0.0102323
0.0163297
-0.00547003
-0.00187171
-0.00552289
-0.00374352
0.000757632
0.0119152
-0.000253008
0
0
0.000147501
0.00106491
0.000135829
-0.000887593
0.000609899
-2.82235e-05
0.000214175
1.95779e-06
-8.22226e-06
-1.6669e-05
3.05929e-06
-4.81454e-06
5.61049e-05
-1.4068e-05
-7.66227e-06
-5.9447e-05
5.31702e-05
1.26861e-05
2.04029e-05
1.22925e-05
9.5175e-06
-3.42694e-05
2.93459e-06
1.49251e-05
-5.59529e-06
-1.00576e-06
0
0
7.53465e-05
2.93528e-05
2.26796e-05
2.49191e-06
0
-1.02841e-05
0.000147265
6.25657e-05
-0.00107712
-8.27543e-05
-4.42978e-06
-4.79912e-05
1.40878e-05
8.86491e-06
-0.00259906
-8.85669e-05
-1.37255e-05
0.000228351
8.10036e-05
-6.20355e-06
2.85891e-05
8.36992e-06
-0.000122119
7.83495e-06
-2.40798e-06
4.09596e-05
3.65256e-05
2.17212e-05
-4.31592e-06
2.39678e-05
0.000419809
-3.77761e-06
-4.59979e-06
1.51933e-05
5.03789e-05
4.87435e-05
0.00140998
-0.000940967
1.00445e-05
1.96306e-05
8.88992e-06
5.75013e-07
-0.000100386
1.88409e-05
0.000137121
-5.72276e-05
4.53966e-05
-6.92926e-05
1.41763e-05
-0.000108059
-0.00046255
0.000226446
4.45434e-05
-0.000205432
9.68979e-05
0.00144296
2.22708e-05
-1.92917e-06
1.08734e-05
0.000124203
-0.000564275
0
2.41156e-05
-2.87288e-06
-0.000254643
-0.000636206
4.22485e-05
0.000200983
0.000149275
-0.000147158
3.95026e-07
0
0.00151186
-0.0130842
-0.00504451
0.000525792
0.000233556
-1.01982e-05
0.000578833
0.000108421
-0.000251428
-0.000436269
-0.000448317
-5.16018e-05
3.65929e-05
1.43047e-05
0.000166266
-0.00014674
-0.000103839
-8.15198e-06
-1.92268e-06
0.000470764
0.00280825
-0.00166994
0
5.60885
-0.000474077
0.000140811
0.000133688
1.02069e-05
-1.62377e-05
5.4805
0
-0.769171
-0.000796401
-8.37557e-05
1.10446e-05
26.0044
-0.00012905
-1.79242e-05
1.38622
-0.00780251
0.000756636
-0.00037179
0.0021981
0.000159212
-3.82095e-05
-0.00749356
-9.23719e-05
3.88281e-05
-0.00037854
-0.00378281
2.17976
-0.0526528
-0.000425976
-0.00557671
-0.000301053
-0.00033156
-6.30269e-06
0.287503
-0.000221392
0.000186375
-0.000329003
8.44656e-06
8.05911
0.000108472
0.008937
0.000308239
-0.0132171
0.00184624
-0.0188128
-0.00708357
-2.68906e-05
0.00629459
11.3405
0.0425152
-1.74366
-0.0102827
-0.00883795
0.0127068
5.47982e-05
-0.000525459
-3.78858e-05
0.000840244
8.54113e-05
9.68907
-0.0366075
0.000536853
0.000264337
-0.000325573
-0.0152235
-9.51993e-05
-2.84203e-07
3.91756
-0.0394711
2.46429
0.0263581
-0.00310532
-0.00945744
7.48289e-06
9.66398e-05
-0.000299444
1.02445e-05
8.11511
0.00169535
0.00767891
-0.00161582
-0.000132994
0.0450163
-2.91163e-06
-0.000258722
0.000329769
5.44641e-06
-3.63935e-05
0.000295491
-0.00087944
-0.000275459
-0.000268451
0.0114529
-4.11309e-05
-0.000347319
-1.21372e-05
0.000172425
-0.00015905
0.000242783
-4.60856e-05
-6.09539e-05
-0.000153932
-0.000143597
2.07501e-05
0.000131003
2.60523e-06
4.08872e-06
-0.000167386
0.0319762
-0.00111444
-9.50219e-06
2.71067e-05
-0.00120756
-0.00858834
0.0145703
-0.0206253
-7.25214e-05
-1.96288e-05
-0.000388088
-0.000597168
-3.00883e-05
-0.00811589
0.00917081
0
-0.000759719
-0.00811931
0.000179284
-0.00254233
-0.000224999
0.000478101
-2.8666e-06
-6.56086e-05
-0.000421254
8.43497e-05
0.0166738
0.000989723
-0.0089134
-0.000561847
-0.000323731
-1.66649e-05
0.000398268
-0.000163073
-0.00269519
0.00161664
0.000928543
0.000581811
-0.00257558
-0.00180554
-0.00408122
-0.00140484
0.00152651
-0.0596433
-0.000968446
-2.60516e-05
-0.000129167
5.96535e-05
0.00591798
0.000412075
6.41394e-05
-0.000330427
-4.53462e-05
-0.000356694
-4.15615e-05
-0.00886616
-2.77446e-05
-7.76353e-05
3.07564e-05
0.000155331
-0.000126471
-0.393346
0
0.195423
4.20622e-05
-0.000159201
0.000936291
5.80465e-05
-0.000368046
9.01406e-05
1.93572e-05
-0.000439106
-0.000191393
-2.88355e-05
-0.000681613
4.67661e-05
8.46693e-06
0.00813907
0.000464044
0.000833239
-0.000216593
-0.000531507
-0.000147762
0.0185666
-5.53568e-05
1.47764e-06
-0.000570778
-0.000117101
0.0231433
5.63476e-05
1.58172
-0.00410909
-0.0104621
0.000600909
-0.00010852
-0.000204802
-9.63581e-05
-0.000137668
0.000389352
0.000647279
-0.000560075
-3.06357e-05
5.94876e-05
-0.00751468
-0.000816355
0.000775113
-0.00186987
-0.00168487
0.000231406
-5.27467e-05
-9.53558e-05
0.000109205
-0.00128832
-0.0056584
-0.000528806
-0.000137938
-6.52414e-05
0.00114077
0.00489704
-0.00744066
0.00261911
-0.000107153
-5.1669e-05
-5.86327e-05
-1.29424
-0.000137317
-0.0642044
6.5437e-05
-0.000471468
1.68563e-05
2.7456e-05
-0.000328726
-0.000197361
-0.000101606
0.000177249
-0.000392927
-5.46293e-05
0.00806354
4.22858e-05
4.07989e-06
0.000109196
-0.00707072
0.0674505
-0.00382378
-0.000228183
3.53863
-1.87993e-06
-0.00857378
2.28278e-05
3.11832
-2.50199e-05
0
-0.11284
0.00102493
0.0960107
-0.00521399
0.0206775
0.00115851
0.0508911
-0.0926726
-0.0484109
-0.0978752
0.000114158
0.000532521
0.0116853
0.00669503
0.00267919
-0.00925935
5.43598e-07
-0.000510401
0.00063759
-0.0130617
-0.0180006
2.22016
5.88874e-06
0.117169
0.17718
-0.176561
-0.000193252
0.0496388
-0.316604
4.46254e-05
-1.1569
0.00523436
0.00416839
-0.00101303
7.18991e-05
6.88325e-05
-0.00667212
-0.268114
-0.00150533
0.00269307
0.00190304
0.00582271
-0.0310913
6.24145e-05
0.00108494
-0.0679543
0.0927566
0.647986
0.0429866
0.0285792
0.173111
-0.00256389
0.206705
-0.0100559
0.00496236
0.0177974
-0.00106376
0.00111332
1.88827
0.000477682
-0.00170274
-0.00531363
-0.0708199
0.0570022
0.000678737
-0.874697
-2.63576e-06
0.035457
0.00283081
0.0666346
0.0259725
0.000451829
8.06921
0.000948961
2.66707
0
-0.0243814
0.119304
-0.012324
-2.115e-06
-0.00088705
0.0651049
1.03056e-05
10.1357
0
0.0377701
-0.00119189
-0.0202949
-0.0257886
0.00454889
-0.114447
-0.0319113
-0.0339997
-0.0384807
0.0911853
0.106865
-0.00243532
-0.0102574
0.0266605
0.0695406
-0.0531368
-5.67226e-05
-0.0770547
0.0115513
0.087778
0.125754
0.0182385
0.000437057
0.000168598
0.000258803
0.000942344
-0.0246696
0.0065179
0.000199883
0.00908367
0.000577486
0.102545
0.081269
0.0456945
0.0747567
-0.00709661
0.0239092
-0.0527664
0.0334855
-0.0675599
-0.00699344
0.341873
0.00141543
0.00912339
0.00318487
0.000188577
-0.00163635
-0.00396734
0.000665099
0.00705549
-0.0125637
0.172221
0.00596071
0.0560857
-0.197031
0.156487
-0.0776961
0.00182542
-0.00693332
0.0398518
-0.00135004
-5.96623e-05
-0.000723364
-0.00283532
0.0145112
0.00866705
0.0260402
-0.0498622
-0.0849881
0.00704242
-0.0215614
0.0568288
-0.00152278
-0.00230454
-0.00385005
0.000211043
-2.69572e-05
0.000134719
0.0741397
-0.111075
-0.000735718
0.00361139
-0.0385195
0.000628504
1.35608
0.0208146
-0.199888
-0.0591147
0.152925
-0.111753
7.69397e-05
-0.00763906
0.0410369
-0.000711786
-0.000674054
-0.00152111
0.00286544
0.0117341
-0.000883953
0.00122142
0.00187372
-0.0124867
0.0395535
2.81079e-06
-0.0174549
0.0659606
5.60531e-06
0.701042
-0.000239567
11.5354
-6.71951e-07
-0.145514
-0.000122809
6.09995
1.00805e-06
0.120912
0.081414
-0.141046
-0.0422611
-0.1352
0.205971
0.0449327
-0.00573072
0.000346939
0.132244
0.00119856
-2.79072e-05
1.08404e-06
0.000782331
-0.0103344
-1.30741
-0.0124962
-0.0240375
0.00463255
0.0593196
2.42899e-06
0.762325
-1.07541e-06
-1.55758
0
0.0148217
-0.000105035
-0.000196396
0.0147165
0.00668751
-0.010066
-0.367847
0.0454131
0.0278199
9.76347e-05
0.0298664
-0.181359
-0.0830768
0.000155445
1.77711
0.104064
0.000123304
7.95937e-07
13.3624
0.0022796
0.160676
-0.0722716
0.0702179
-8.2705e-05
4.38e-06
1.98727
-0.00404967
0.0321418
0.0891637
0.00647295
0.224076
0.00405263
-0.0163447
-0.0916608
-0.0842027
0.0208678
-1.05703
-8.00302e-07
12.8037
2.77214
0.0181372
-0.000769689
-0.000362402
-0.0391436
-0.114769
1.34433
0.0972202
1.37018
0.00884585
0.0830551
0.443016
-0.00595378
0.00199175
-1.00522
-0.00602114
-0.131481
-0.119168
-0.000109397
-0.418224
0.0455697
0.222871
2.69325
-0.0840459
0.294993
-0.085809
-0.145537
-0.0225536
0.0022365
-0.0193752
0.0760347
-0.0594982
-1.55386
0.066738
-0.000860646
0.0325132
0.00982384
0.00802579
0.0495177
-0.0531243
1.00139e-06
0.118825
-0.00134803
0.0172964
-0.0801058
0.152237
-0.0136905
0.00249078
0.113896
0.00319031
-0.0169036
0.104617
-0.319871
-0.00078243
0.000109426
-0.00420834
0.0350225
-0.0165991
-0.0019732
-0.0550456
0.00516598
-0.00595455
0.0273294
-0.0811897
-0.0560926
0.00506064
0.061045
-0.0749052
0.155935
0.00101651
-8.56453e-05
-0.00119265
0.117244
0.0160095
-0.0978864
-0.0350489
-0.108941
-0.0483285
6.50813e-05
1.57334
9.78514e-05
1.34507
0.0392423
-0.0139556
0.0118323
-0.0644231
-0.000710175
0.00155817
3.34609e-05
-8.70314e-05
-7.56333e-06
0.000299244
1.23164e-05
-0.130804
-0.00173973
-0.0196607
0.00100762
0.00431022
0.13037
0.000315978
4.59249
-1.27069e-06
-0.263837
0.040045
-0.0501923
-0.00886624
-0.000849474
0.00332171
0.0521276
0.041776
-0.111386
0.243224
0.00732544
-0.0184477
0.00484651
0.0636435
0.751668
0.0178875
0.0480508
0.0308882
0.0510747
0.0139283
0.043193
2.94068
0.0277597
0.0578054
0.0356356
3.44317
-0.00827359
-0.352591
0.0173523
-0.0304725
0.829696
0.00969698
0.137609
0.0682993
-1.11032e-05
0.00777557
0.0418658
-0.00133181
-0.000358688
-0.00350333
-0.00394726
0.0515793
0.00135208
9.53336
0
0.0948416
3.01152e-05
2.33198
-0.00256502
-0.00114092
-1.45612
0.620397
0.00252418
0.021508
0.770438
0.024378
-0.0464716
-0.0430054
-0.00140131
-0.000269203
0.0117561
0.0301439
0.0853245
0.0279662
-6.95865e-05
-0.0937124
-0.0240992
0.0383573
0.0632001
-0.0518691
0.0117818
-9.95425e-06
-0.00280194
1.65267
-0.0119515
0.0471561
-0.0583663
0.0256802
-0.0792173
0.0147101
-6.2638e-06
0.0367073
3.7794e-06
0
0.0278719
-4.30002e-05
-0.00337607
0.00336112
0.027447
0.000501688
0.000719326
-0.00166185
-0.0010412
0.0139619
0.0187073
0.000815437
-0.13442
-0.0115307
0.0416571
-0.034821
-0.0903732
14.5926
0.0225144
0.0221957
0.0314979
-0.00702542
-0.00129174
0.000481403
-0.0305792
-0.0181835
0.0115931
1.30131
4.59723e-06
0.00173347
-0.000978179
0.0160988
0.0105591
-0.014913
0.0505655
-0.0278874
0.0243502
0.0292787
0.00864142
-0.00954099
0.127726
-0.124856
0.732444
0.00322022
0.0083879
0.00328191
-0.0199806
0.097581
-0.00644589
-0.158694
-0.08964
-0.0072907
-0.113077
0.0123525
0.00429925
-0.00816327
-0.00129507
0.0139887
-0.875428
-2.32413e-05
-1.49766e-06
-0.0496012
0.000420796
0.000309317
0.0106912
-0.0330139
0.00280001
0.0737653
0.00571163
-0.00442984
0.0899218
-0.00358554
-0.00112503
-0.0675441
0.0892461
0.0286206
0.000132399
2.46872
-0.105218
5.69682
0.0135508
-0.0740243
0.00368403
0.241983
0.00408744
0.0465418
1.78518
0.0497151
-0.0536418
-0.232414
-0.263871
-0.000265095
-0.000156168
0.0662363
-0.00330518
-0.000121258
-0.104702
0.0180112
1.07864
1.00466e-05
-0.00761071
-0.00031132
-0.0731488
0.00199299
0.00581148
0.023755
1.40579
-0.00427682
0.0024377
7.43879
-0.0881738
0.0518153
-0.0530055
0.0421762
-0.0145448
0.142547
13.7477
0.0250954
0.174133
0.0848522
0.159571
-0.0208669
0.00250301
-0.000142116
-1.34356
-0.0916347
0.192357
-6.45952e-05
-0.00226964
0.578183
-0.0161548
-0.0120147
-0.170466
0.00352503
0.00634503
0.0351692
0.477002
-0.0179343
-0.0886729
-2.51883e-06
-0.0117294
0.0398903
0.000621155
0.145946
0.0207752
9.64474
0.00230762
0.0850571
2.61129e-06
2.65206e-06
0.0845779
-0.0228215
-0.0553431
-0.07965
0.093272
0.00066477
0.0427574
-0.0003599
0.00591216
-0.00322014
-6.94493e-06
-0.000134255
-0.0125541
-0.0676043
0.102645
-0.0178025
0.000127644
0.195485
0.0278654
-0.00107881
0.0647232
-0.0533953
-0.0488893
-0.00908931
0.00332162
1.10155
-4.81102e-06
0.0844996
-0.000163233
-0.191181
0.0604899
0.194562
-0.00999742
-0.0114132
-7.60461e-06
0.000244045
-0.00154984
-0.426808
-0.0145536
5.37866e-05
-0.000331247
-0.40759
-0.0972144
-0.0539072
0.00382544
-0.000941372
-0.00471166
0.133997
0.0219859
1.78759
0.0638733
0.0358284
-1.9775e-05
-0.00073853
0.3575
0.0997859
-0.0525779
0.00315374
4.28791e-05
-0.0135037
0.000827289
0.000119297
15.9724
-7.31649e-07
-0.0150989
0.108409
-0.00226306
0.602967
0.0947107
1.35443
-0.0264504
0.0179273
0.00236807
0.000958634
1.60952