# vtk DataFile Version 2.0
Unstructured Grid by M++
ASCII
DATASET UNSTRUCTURED_GRID
POINTS 1072 float
  0.781250   1.000000 0
  0.906250   0.625000 0
  0.906250   0.593750 0
  0.781250   0.781250 0
  0.781250   0.750000 0
  0.781250   0.718750 0
  0.781250   0.687500 0
  0.656250   0.843750 0
  0.750000   1.000000 0
  0.750000   0.968750 0
  0.875000   0.593750 0
  0.750000   0.750000 0
  0.750000   0.718750 0
  0.750000   0.687500 0
  0.718750   1.000000 0
  0.718750   0.968750 0
  0.718750   0.937500 0
  0.718750   0.718750 0
  0.718750   0.687500 0
  0.718750   0.656250 0
  0.593750   1.000000 0
  0.687500   1.000000 0
  0.781250   0.875000 0
  0.687500   0.968750 0
  0.687500   0.937500 0
  0.781250   0.625000 0
  0.781250   0.593750 0
  0.687500   0.687500 0
  0.781250   0.562500 0
  0.687500   0.656250 0
  0.562500   1.000000 0
  0.781250   0.531250 0
  0.656250   0.875000 0
  0.687500   0.625000 0
  0.562500   0.968750 0
  0.875000   0.562500 0
  0.656250   1.000000 0
  0.875000   0.531250 0
  0.656250   0.968750 0
  0.656250   0.937500 0
  0.656250   0.906250 0
  0.750000   0.593750 0
  0.656250   0.687500 0
  0.750000   0.562500 0
  0.656250   0.656250 0
  0.531250   1.000000 0
  0.750000   0.531250 0
  0.656250   0.625000 0
  0.531250   0.968750 0
  0.625000   0.843750 0
  0.656250   0.593750 0
  0.531250   0.937500 0
  0.843750   0.562500 0
  0.625000   1.000000 0
  0.843750   0.531250 0
  0.625000   0.968750 0
  0.625000   0.937500 0
  0.625000   0.906250 0
  0.562500   0.531250 0
  0.625000   0.593750 0
  0.593750   0.593750 0
  0.593750   0.562500 0
  0.593750   0.531250 0
  0.718750   0.625000 0
  0.625000   0.718750 0
  0.531250   0.812500 0
  0.718750   0.593750 0
  0.625000   0.687500 0
  0.625000   0.656250 0
  0.562500   0.593750 0
  0.625000   0.625000 0
  0.562500   0.562500 0
  0.531250   0.750000 0
  0.531250   0.562500 0
  0.531250   0.531250 0
  0.531250   0.593750 0
  0.625000   0.531250 0
  0.531250   0.625000 0
  0.531250   0.656250 0
  0.531250   0.687500 0
  0.531250   0.718750 0
  0.562500   0.625000 0
  0.656250   0.562500 0
  0.562500   0.656250 0
  0.562500   0.687500 0
  0.562500   0.718750 0
  0.562500   0.750000 0
  0.562500   0.781250 0
  0.750000   0.625000 0
  0.656250   0.718750 0
  0.562500   0.812500 0
  0.750000   0.656250 0
  0.656250   0.750000 0
  0.562500   0.843750 0
  0.656250   0.781250 0
  0.562500   0.875000 0
  0.656250   0.812500 0
  0.562500   0.906250 0
  0.562500   0.937500 0
  0.625000   0.562500 0
  0.687500   0.531250 0
  0.593750   0.625000 0
  0.687500   0.562500 0
  0.593750   0.656250 0
  0.593750   0.750000 0
  0.593750   0.781250 0
  0.593750   0.812500 0
  0.781250   0.656250 0
  0.593750   0.843750 0
  0.593750   0.875000 0
  0.593750   0.906250 0
  0.593750   0.937500 0
  0.812500   0.531250 0
  0.593750   0.968750 0
  0.687500   0.593750 0
  0.593750   0.687500 0
  0.812500   0.562500 0
  0.718750   0.531250 0
  0.718750   0.562500 0
  0.531250   0.843750 0
  0.625000   0.750000 0
  0.531250   0.875000 0
  0.625000   0.781250 0
  0.531250   0.906250 0
  0.625000   0.812500 0
  0.625000   0.875000 0
  0.812500   0.593750 0
  0.812500   0.625000 0
  0.812500   0.656250 0
  0.812500   0.687500 0
  0.812500   0.718750 0
  0.812500   0.750000 0
  0.812500   0.781250 0
  0.812500   0.812500 0
  0.937500   0.593750 0
  0.937500   0.625000 0
  0.937500   0.531250 0
  0.937500   0.656250 0
  0.843750   0.593750 0
  0.843750   0.625000 0
  0.843750   0.656250 0
  0.843750   0.687500 0
  0.843750   0.750000 0
  0.843750   0.781250 0
  0.843750   0.812500 0
  0.843750   0.843750 0
  0.937500   0.562500 0
  0.968750   0.562500 0
  0.968750   0.593750 0
  0.968750   0.625000 0
  0.968750   0.656250 0
  0.875000   0.625000 0
  0.875000   0.656250 0
  0.875000   0.687500 0
  0.875000   0.781250 0
  0.875000   0.812500 0
  0.875000   0.843750 0
  0.875000   0.875000 0
  1.000000   0.593750 0
  1.000000   0.625000 0
  1.000000   0.656250 0
  0.906250   0.562500 0
  0.906250   0.656250 0
  0.906250   0.687500 0
  0.906250   0.875000 0
  0.906250   0.906250 0
  0.906250   0.812500 0
  0.906250   1.000000 0
  0.937500   0.687500 0
  0.937500   0.875000 0
  0.937500   0.906250 0
  0.937500   0.937500 0
  0.968750   0.531250 0
  0.968750   0.687500 0
  0.937500   0.843750 0
  0.968750   0.875000 0
  0.968750   0.906250 0
  0.968750   0.937500 0
  1.000000   0.531250 0
  1.000000   0.562500 0
  1.000000   0.687500 0
  1.000000   0.906250 0
  1.000000   0.937500 0
  1.000000   0.968750 0
  0.781250   0.468750 0
  0.781250   0.437500 0
  0.781250   0.406250 0
  0.781250   0.187500 0
  0.781250   0.156250 0
  0.656250   0.500000 0
  0.781250   0.125000 0
  0.656250   0.468750 0
  0.781250   0.093750 0
  0.656250   0.437500 0
  0.750000   0.000000 0
  0.750000   0.500000 0
  0.750000   0.468750 0
  0.750000   0.437500 0
  0.750000   0.406250 0
  0.750000   0.375000 0
  0.750000   0.156250 0
  0.625000   0.500000 0
  0.750000   0.125000 0
  0.625000   0.468750 0
  0.750000   0.093750 0
  0.625000   0.437500 0
  0.750000   0.062500 0
  0.625000   0.406250 0
  0.718750   0.500000 0
  0.718750   0.468750 0
  0.718750   0.437500 0
  0.718750   0.406250 0
  0.718750   0.375000 0
  0.718750   0.343750 0
  0.718750   0.125000 0
  0.593750   0.468750 0
  0.718750   0.093750 0
  0.593750   0.437500 0
  0.687500   0.093750 0
  0.562500   0.437500 0
  0.718750   0.062500 0
  0.593750   0.406250 0
  0.718750   0.031250 0
  0.593750   0.375000 0
  0.781250   0.031250 0
  0.687500   0.125000 0
  0.687500   0.000000 0
  0.562500   0.343750 0
  0.687500   0.500000 0
  0.812500   0.156250 0
  0.906250   0.031250 0
  0.687500   0.468750 0
  0.812500   0.125000 0
  0.781250   0.343750 0
  0.906250   0.000000 0
  0.687500   0.437500 0
  0.781250   0.312500 0
  0.687500   0.406250 0
  0.781250   0.281250 0
  0.687500   0.375000 0
  0.781250   0.250000 0
  0.687500   0.343750 0
  0.781250   0.218750 0
  0.687500   0.312500 0
  0.687500   0.062500 0
  0.562500   0.406250 0
  0.687500   0.031250 0
  0.562500   0.375000 0
  0.656250   0.000000 0
  0.531250   0.343750 0
  0.875000   0.000000 0
  0.750000   0.281250 0
  0.656250   0.375000 0
  0.750000   0.250000 0
  0.656250   0.343750 0
  0.750000   0.218750 0
  0.656250   0.312500 0
  0.750000   0.187500 0
  0.656250   0.281250 0
  0.656250   0.062500 0
  0.531250   0.406250 0
  0.656250   0.031250 0
  0.531250   0.375000 0
  0.718750   0.156250 0
  0.593750   0.500000 0
  0.625000   0.250000 0
  0.625000   0.000000 0
  0.562500   0.062500 0
  0.562500   0.031250 0
  0.625000   0.093750 0
  0.750000   0.312500 0
  0.656250   0.406250 0
  0.562500   0.500000 0
  0.968750   0.500000 0
  0.531250   0.000000 0
  1.000000   0.500000 0
  0.625000   0.062500 0
  0.562500   0.000000 0
  0.625000   0.031250 0
  0.593750   0.125000 0
  0.593750   0.156250 0
  0.593750   0.031250 0
  0.593750   0.000000 0
  0.625000   0.125000 0
  0.531250   0.218750 0
  0.625000   0.156250 0
  0.531250   0.250000 0
  0.531250   0.312500 0
  0.562500   0.093750 0
  0.562500   0.125000 0
  0.562500   0.156250 0
  0.406250   0.843750 0
  0.031250   0.000000 0
  0.406250   0.875000 0
  0.718750   0.843750 0
  0.031250   0.125000 0
  0.406250   1.000000 0
  0.718750   0.875000 0
  0.031250   0.156250 0
  0.406250   0.812500 0
  0.437500   0.562500 0
  0.437500   0.593750 0
  0.437500   0.625000 0
  0.437500   0.656250 0
  0.437500   0.750000 0
  0.437500   0.843750 0
  0.062500   0.000000 0
  0.437500   0.875000 0
  0.062500   0.031250 0
  0.437500   0.906250 0
  0.437500   0.812500 0
  0.468750   0.750000 0
  0.437500   0.781250 0
  0.468750   0.781250 0
  0.500000   0.781250 0
  0.500000   0.812500 0
  0.500000   0.968750 0
  0.031250   0.468750 0
  0.875000   0.250000 0
  0.062500   0.437500 0
  0.906250   0.218750 0
  0.500000   0.937500 0
  0.125000   0.093750 0
  0.031250   0.437500 0
  0.875000   0.218750 0
  0.468750   0.312500 0
  0.500000   0.312500 0
  0.468750   0.281250 0
  0.500000   0.281250 0
  0.750000   0.937500 0
  0.062500   0.218750 0
  0.156250   0.031250 0
  0.843750   0.718750 0
  0.156250   0.000000 0
  0.406250   0.281250 0
  0.406250   0.250000 0
  0.406250   0.187500 0
  0.843750   0.968750 0
  0.156250   0.250000 0
  1.000000   0.031250 0
  0.468750   0.937500 0
  0.000000   0.437500 0
  0.843750   0.218750 0
  0.468750   0.906250 0
  0.093750   0.062500 0
  0.000000   0.406250 0
  0.843750   0.187500 0
  0.468750   0.875000 0
  0.093750   0.031250 0
  0.000000   0.375000 0
  0.375000   0.281250 0
  0.031250   0.343750 0
  0.437500   0.156250 0
  0.312500   0.500000 0
  0.375000   0.468750 0
  0.968750   0.843750 0
  0.281250   0.125000 0
  0.968750   1.000000 0
  0.281250   0.281250 0
  0.968750   0.968750 0
  0.281250   0.250000 0
  0.625000   0.187500 0
  0.500000   0.906250 0
  0.125000   0.062500 0
  0.031250   0.406250 0
  0.875000   0.187500 0
  0.406250   0.343750 0
  0.062500   0.406250 0
  0.437500   0.312500 0
  0.375000   0.343750 0
  0.718750   0.281250 0
  0.062500   0.375000 0
  0.406250   0.312500 0
  0.093750   0.281250 0
  0.937500   0.062500 0
  0.812500   0.968750 0
  0.125000   0.250000 0
  0.968750   0.031250 0
  0.062500   0.281250 0
  0.906250   0.062500 0
  0.781250   0.968750 0
  0.093750   0.250000 0
  0.937500   0.031250 0
  0.062500   0.312500 0
  0.906250   0.093750 0
  0.937500   0.968750 0
  0.250000   0.250000 0
  0.281250   0.218750 0
  1.000000   0.875000 0
  0.312500   0.156250 0
  0.500000   0.062500 0
  0.500000   0.031250 0
  0.531250   0.031250 0
  0.500000   0.000000 0
  0.375000   0.375000 0
[...]
CELL_DATA 1912
VECTORS vector_value float
0.258464 -0.695636 0
-0.324906 -1.1587 0
-0.324906 -1.19852 0
-0.280379 -1.19852 0
-0.27566 -1.14928 0
-0.00137075 -1.17488 0
0.296291 -1.24625 0
0.067256 -1.17762 0
-0.0633855 -1.34686 0
-0.288273 -1.57175 0
-0.288273 -1.37548 0
-0.804363 -1.57175 0
0.016893 -0.758425 0
-0.14578 -1.65003 0
-0.00137075 -1.24625 0
-0.14578 -1.55731 0
0.408261 -1.55731 0
-0.183198 -1.59472 0
-0.523712 -1.11222 0
-0.33433 -1.11222 0
-0.380813 -1.1587 0
-0.33433 -1.14928 0
-0.309257 -0.540052 0
-0.40675 -0.602227 0
-0.295152 -0.588122 0
-0.0821864 -0.911552 0
-0.0495535 -0.85736 0
-0.309257 -0.602227 0
0.0413594 -0.937119 0
0.0413594 -1.04311 0
-0.316896 -1.34686 0
-0.316896 -1.42771 0
0.0429527 -0.937119 0
-0.252949 -1.42771 0
0.0180873 -0.960391 0
-0.264667 -1.37548 0
-0.0757842 -1.08822 0
-0.0380472 -1.05048 0
-0.0380472 -1.08579 0
-0.0812194 -1.05048 0
0.0802552 -0.950734 0
0.167666 -0.950734 0
0.302573 -0.815826 0
-0.20472 -0.623393 0
-0.20472 -0.84646 0
-0.262525 -0.84646 0
0.0104284 -0.631311 0
-0.0206887 -1.23225 0
-0.0555003 -1.176 0
-0.111751 -1.17843 0
-0.0109618 -0.807814 0
-0.0233521 -0.820204 0
-0.0233521 -0.829371 0
-0.00355149 -0.820204 0
-0.286379 -0.560316 0
-0.196802 -0.560316 0
-0.25988 -0.623393 0
-0.196802 -0.631311 0
-0.163816 -1.17843 0
-0.114181 -1.12879 0
-0.114181 -1.176 0
-0.152459 -1.12879 0
-0.0210321 -1.16297 0
-0.0210321 -1.17374 0
0.00612451 -0.905843 0
-0.00273147 -1.24489 0
-0.00273147 -1.54527 0
0.016893 -0.809155 0
-0.0479371 -0.758425 0
-0.0217288 -0.797047 0
0.00612451 -0.924217 0
-0.193853 -1.34518 0
-0.193853 -1.30748 0
0 -0.905843 0
0.0425905 -1.30748 0
0 -0.911968 0
-0.162717 -1.27634 0
-0.0301037 -1.05103 0
-0.170461 -1.20452 0
-0.0210813 -1.20452 0
-0.355429 -1.53887 0
-0.0210813 -1.49671 0
0.564753 -0.566102 0
-0.56745 -0.995119 0
-0.138432 -0.983043 0
-0.764206 -0.9499 0
-0.330817 -0.516511 0
-0.330817 -0.980477 0
0.268816 -0.516511 0
-0.364257 -1.3129 0
-0.262691 -1.3129 0
-0.294972 -1.34518 0
-0.262691 -1.27634 0
-0.162247 -1.29209 0
-0.162247 -1.25512 0
-0.380813 -1.25512 0
-0.523712 -1.61658 0
-0.138562 -0.916069 0
-0.00277688 -0.816957 0
-0.0428321 -0.963091 0
0 -0.963091 0
0.133991 -0.98469 0
0 -0.920259 0
0.0523903 -1.11868 0
-0.314662 -1.11438 0
-0.276173 -0.586814 0
0.343496 -0.990777 0
-0.0438681 -0.962055 0
0.0729029 -1.20028 0
-0.0918565 -1.01004 0
-0.47784 -1.24523 0
-0.364257 -1.2686 0
-0.279181 -1.2441 0
-0.314662 -1.2441 0
-0.361393 -0.9499 0
0.041353 -0.847748 0
-0.158057 -0.995413 0
-0.19534 -1.03727 0
-0.138054 -1.05455 0
0.156361 -0.511331 0
0.000664019 -0.818338 0
-0.0109618 -0.812794 0
-0.00355149 -0.81701 0
0.000664019 -0.812794 0
-0.454466 -1.12298 0
-0.425221 -1.12298 0
-0.0334922 -1.33467 0
-0.0300622 -0.844237 0
-0.007988 -0.847907 0
0.0586903 -2.21886 0
-0.121862 -0.262074 0
-0.19534 -1.11744 0
-0.152459 -1.07456 0
-0.25988 -0.586814 0
-0.0449453 -1.85932 0
-0.214128 -1.09865 0
-0.47784 -1.38218 0
-0.454466 -1.2686 0
0.041353 -0.844314 0
-0.054082 -0.905909 0
-0.102825 -1.24118 0
-0.633855 -2.02749 0
-0.0835857 -1.33363 0
0 -0.844612 0
-0.117728 -2.21886 0
-0.0410406 -0.848847 0
-0.0410406 -0.844314 0
-0.0496041 -0.852878 0
-0.386224 -1.19122 0
-0.0428321 -0.905442 0
-0.254813 -1.18425 0
-0.0525505 -1.17305 0
-0.361393 -1.08516 0
-0.0713782 -1.03212 0
-0.126356 -0.983043 0
-0.136241 -0.481371 0
-0.0247732 -0.916069 0
-0.592666 -1.86371 0
-0.0300622 -0.794463 0
-0.192802 -0.856925 0
-0.192802 -0.969644 0
-0.0624875 -0.839994 0
-0.18693 -1.88058 0
0.135744 -0.815826 0
-0.270208 -1.15473 0
-0.214128 -1.16775 0
-0.256715 -1.09865 0
0.167666 -0.847748 0
0.0125352 -0.893308 0
-0.0853362 -1.4354 0
0.470199 -0.481371 0
-0.322375 -1.24052 0
0 -1.15271 0
-0.162717 -1.10217 0
-0.244794 -0.669453 0
0.25015 -1.05103 0
0.138007 -0.319744 0
0.107266 -0.913661 0
-0.0812194 -1.02068 0
-0.116453 -1.04712 0
-0.121862 -0.319744 0
-0.0279944 -0.913661 0
0.187409 -0.910863 0
-0.170461 -1.04712 0
-0.0685294 -1.13035 0
-0.0301037 -0.911552 0
-0.142893 -1.02068 0
0.0586903 -2.96005 0
0.187922 -1.13072 0
-0.0479371 -0.747567 0
-0.174481 -1.60487 0
-0.387507 -1.40166 0
-0.0850032 -0.827544 0
-0.355429 -1.01955 0
-0.280379 -1.23932 0
-0.484637 -1.28435 0
0.00106369 -0.881836 0
-0.259475 -1.26942 0
0.121454 -0.858618 0
-0.0234912 -0.62056 0
-0.0234912 -0.582526 0
-0.236532 -0.582526 0
-0.565111 -2.84267 0
-0.0101061 -0.912415 0
-0.00798287 -0.800083 0
0.0425905 -1.2475 0
0.0729029 -1.31439 0
-0.262525 -1.08399 0
0.187922 -1.10217 0
-0.0798359 -0.912415 0
-0.0144356 -0.878355 0
0.0128915 -2.26945 0
-0.256715 -0.980477 0
-0.276173 -0.571872 0
0 -1.08579 0
-0.0206887 -1.22079 0
0.00266737 -1.17107 0
0.472653 -1.96531 0
-0.0555003 -1.19744 0
-0.0918565 -0.969644 0
-0.294972 -1.38218 0
-0.0535799 -0.511331 0
-0.307126 -1.26846 0
0.146621 -1.8322 0
-0.007988 -0.822163 0
0.127818 -1.60451 0
-0.484637 -1.94921 0
-0.576711 -0.971492 0
0.105212 -0.842376 0
-0.174497 -1.24118 0
-0.129325 -1.46465 0
0.00266737 -1.19744 0
0.0180873 -0.912254 0
-0.306101 -0.6018 0
0.302573 -1.17305 0
-0.0279944 -0.85736 0
-0.118235 -0.67727 0
-0.297952 -1.11941 0
-0.264667 -1.41599 0
0.00224934 -0.783078 0
0.10462 -1.74499 0
0.105212 -0.77314 0
-0.576711 -1.24523 0
-0.322375 -1.20105 0
-0.16498 -0.747567 0
-0.377089 -1.25577 0
-0.297952 -1.17226 0
-0.201085 -1.72179 0
-0.199918 -0.849577 0
-0.274405 -1.28435 0
-0.377089 -1.19122 0
-0.0994454 -0.876288 0
0.0421343 -1.88105 0
-0.163816 -1.11744 0
0.93995 -0.927411 0
-0.274405 -1.23932 0
-0.0535799 -0.388025 0
0.00208648 -0.822511 0
0.00224934 -0.849577 0
-0.475423 -0.971492 0
0.343496 -1.47087 0
0.00106369 -0.892244 0
-0.173439 -0.876288 0
-0.26955 -0.927411 0
-0.0217288 -0.784634 0
0.0429527 -0.881836 0
0.140078 -0.844612 0
0 -1.00696 0
0.12508 -0.905909 0
-0.166194 -0.827544 0
-0.696322 -1.87109 0
0.107266 -0.908148 0
0.0104284 -1.11941 0
-0.0243576 -1.67873 0
0.10462 -2.02749 0
0.0802552 -1.04025 0
0.408261 -3.11139 0
-0.425221 -0.921289 0
-0.098915 -1.04025 0
-0.142893 -1.01955 0
0 -0.892244 0
-0.0850032 -0.784634 0
0 -1.12141 0
-0.0279432 -0.695636 0
0.0523903 -1.22079 0
-0.308578 -1.00769 0
-0.098915 -1.05455 0
-0.0279432 -0.536968 0
0.135744 -0.753357 0
0.133991 -1.20028 0
0.0125452 -0.827374 0
-0.804363 -1.01757 0
-0.0247732 -0.888692 0
-0.592666 -2.875 0
0.0128915 -2.90079 0
-0.0144356 -0.859821 0
-0.367258 -1.17226 0
0.296291 -0.842376 0
-0.387507 -0.82633 0
-0.0702912 -0.905442 0
-0.252949 -1.58361 0
-0.386224 -1.08399 0
0 -0.893308 0
-0.0702912 -0.77314 0
-0.270208 -1.08516 0
-0.0525505 -1.08661 0
-0.0312956 -1.12574 0
-0.286379 -0.59702 0
-0.0116582 -0.844237 0
-0.0853362 -1.41599 0
0.0125352 -0.912254 0
0.25015 -0.783078 0
-0.121131 -1.73208 0
-0.247813 -0.388025 0
-0.0469428 -1.00769 0
-0.30169 -1.73208 0
-0.199918 -1.03727 0
-0.0469428 -0.938239 0
-0.30169 -1.57273 0
-0.130971 -1.08661 0
-0.244301 -1.26942 0
0.0197344 -0.858618 0
-0.112628 -1.13035 0
-0.116453 -1.05591 0
-0.475423 -0.78322 0
-0.102825 -1.31439 0
-0.0757842 -1.05591 0
-0.201085 -1.59472 0
0 -1.11868 0
-0.244794 -1.18425 0
-0.261187 -0.588122 0
-0.199438 -0.540052 0
-0.261187 -0.6018 0
-0.16498 -0.82633 0
-0.26955 -1.60487 0
-0.914872 -1.57273 0
-0.00277688 -0.827374 0
-0.202522 -0.536968 0
-0.0183198 -1.04829 0
0.12508 -0.908148 0
-0.0624875 -0.878355 0
-0.18693 -2.26945 0
0.067256 -1.01721 0
-0.254813 -1.26846 0
-0.696322 -1.04829 0
0.121454 -1.01721 0
-0.11073 -1.06164 0
-0.0449453 -1.50951 0
0.00478511 -0.797047 0
-0.516324 -0.673646 0
-0.195275 -1.33363 0
-0.259475 -1.50951 0
-0.0355255 -2.02962 0
-0.689721 -1.11438 0
0.649186 -0.669453 0
-0.00745964 -0.824113 0
-0.337354 -0.921289 0
-0.337354 -0.713825 0
-0.111751 -1.23225 0
-0.40675 -0.78322 0
-0.0495535 -0.829371 0
0.27252 -1.60451 0
0.589628 -1.59968 0
0.0332185 -0.774751 0
0.27252 -1.91678 0
0.0773047 -1.91678 0
-0.295152 -0.713825 0
-0.0731405 -1.12574 0
0.0503222 -0.384187 0
-0.0243576 -1.98992 0
-0.279181 -1.24052 0
-0.307126 -1.25577 0
-0.290487 -0.700823 0
-0.0438681 -1.00696 0
-0.0496041 -0.753357 0
-0.136241 -0.839994 0
-0.367258 -1.20105 0
-0.492543 -0.837673 0
-0.0356208 -1.12141 0
-0.0356208 -1.08822 0
-0.478168 -0.673646 0
-0.138432 -0.566102 0
0.140078 -0.990777 0
-0.0280149 -0.920259 0
-0.0101061 -1.10838 0
-0.226282 -1.12859 0
0.268293 -1.60874 0
-0.0355255 -1.60874 0
-0.622793 -1.01757 0
-0.0334922 -1.04764 0
-0.718052 -0.72931 0
0.0197344 -0.863166 0
-0.0407837 -1.04774 0
-0.130971 -1.06164 0
-0.11073 -1.09086 0
-0.138054 -1.08896 0
-0.174497 -1.16775 0
-0.166194 -1.04764 0
-0.290487 -0.72931 0
-0.0103946 -0.839032 0
-0.0300776 -0.836097 0
-0.00745964 -0.836097 0
0.453101 -0.494488 0
-0.173439 -0.494488 0
-0.535876 -0.856925 0
0 -1.17107 0
-0.0370103 -0.852878 0
0.0375004 -2.04501 0
-0.0300776 -0.848847 0
0.245808 -2.08575 0
-0.251026 -0.354992 0
-0.236532 -0.646867 0
-0.118235 -0.700823 0
0.0773047 -2.62074 0
0.589628 -2.42911 0
0.268934 -2.42911 0
0.0512974 -0.847907 0
0.268934 -1.8322 0
-0.0994454 -0.962055 0
-0.202522 -0.433316 0
0 -0.98469 0
-0.0731405 -1.09086 0
-0.112628 -1.08896 0
-0.478168 -0.433316 0
-0.247813 -0.202962 0
0.00478511 -0.816915 0
-0.0280149 -0.863166 0
-0.516324 -0.824122 0
-0.0835857 -1.47087 0
0.268293 -1.74499 0
-0.054082 -0.995413 0
-0.158057 -1.07456 0
-0.227146 -1.15473 0
-0.37293 -0.384187 0
-0.37293 -0.646867 0
-0.0713782 -1.24489 0
-0.174481 -1.67873 0
0.619624 -2.29405 0
-0.0103946 -0.85578 0
-0.138562 -0.837673 0
-0.17006 -1.78101 0
-0.17006 -1.86371 0
0.00208648 -0.816915 0
0.0125452 -0.809155 0
-0.308578 -1.55073 0
-0.121131 -1.7755 0
-0.00798287 -0.822163 0
-0.306101 -0.999448 0
-0.199438 -0.708463 0
-0.015116 -0.708463 0
-0.015116 -0.969216 0
-0.0407837 -1.01004 0
-0.0821864 -0.824727 0
-0.0449094 -0.824727 0
-0.0449094 -0.807814 0
-0.338321 -0.995119 0
0.242077 -0.354992 0
-0.251026 -0.59702 0
-0.467906 -0.571872 0
-0.244301 -1.20324 0
-0.27566 -1.20324 0
0.0332185 -0.67727 0
0.187409 -0.62056 0
0.0512974 -0.774751 0
0 -1.17374 0
-0.622793 -0.824122 0
-0.129325 -1.65003 0
0.127818 -1.72179 0
-0.0116582 -0.910863 0
-0.0312956 -1.15271 0
-0.0685294 -1.16297 0
-0.195275 -1.2204 0
-0.227146 -1.2204 0
0.267685 -1.46465 0
0.267685 -1.59968 0
0.0375004 -2.29405 0
-0.0370103 -0.85578 0
0 -1.04774 0
0.0365635 -1.01798 0
0.0425295 -1.05492 0
0.0549983 -1.09601 0
0.0769304 -1.14841 0
0.106524 -1.22717 0
-0.127169 -2.19448 0
-0.0126095 -1.84235 0
0.0281336 -1.78764 0
0.0884653 -1.82564 0
0.181608 -1.89727 0
0.0348288 -1.01624 0
0.0365635 -1.04896 0
0.0425295 -1.08354 0
-0.679933 -1.64172 0
-0.127169 -1.72779 0
0.0692771 -1.01624 0
0.0771117 -1.04896 0
0.0979328 -1.08354 0
0.148032 -1.12647 0
0.25955 -1.19758 0
0.475536 -1.3506 0
0.00649603 -1.72779 0
0.046548 -1.7469 0
0.127279 -1.76531 0
0.297722 -1.80412 0
0.619624 -1.92024 0
0.0673178 -1.01429 0
0.0692771 -1.04112 0
0.0771117 -1.06272 0
-0.0410944 -1.6802 0
0.00649603 -1.70684 0
0.0961156 -1.01429 0
0.11159 -1.06272 0
0.157713 -1.07638 0
0.308107 -1.08606 0
0.834901 -1.13462 0
0.0331401 -1.6802 0
0.0242832 -1.70684 0
0.0763808 -1.68458 0
0.262378 -1.63368 0
0.943358 -1.59834 0
0.0958881 -1.01406 0
0.0987073 -1.04984 0
0.11159 -1.03025 0
0.115585 -1.76265 0
0.0331401 -1.7157 0
0.0242832 -1.63248 0
0.12059 -1.01406 0
0.0631243 -1.03025 0
-0.0197341 -0.935664 0
-0.380744 -0.607822 0
-0.058936 -1.7157 0
-0.108417 -1.63248 0
-0.267948 -1.44768 0
-0.891356 -0.917357 0
0.124003 -1.01747 0
0.0920058 -1.05913 0
0.0631243 -1.01852 0
-0.0138041 -1.76083 0
-0.058936 -1.68196 0
-0.108417 -1.60721 0
0.152228 -1.01747 0
0.106524 -1.3506 0
-0.0694237 -1.01852 0
0.113957 -1.71218 0
-0.260451 -0.968833 0
-0.0336721 -1.78051 0
0.12674 -1.79751 0
-0.035587 -1.54752 0
0.709078 -2.05099 0
0.616284 -1.04939 0
0.671329 -1.16367 0
0.0884653 -1.80412 0
-0.183167 -1.68196 0
0.181608 -1.92024 0
-0.334396 -1.60721 0
-0.565111 -1.54077 0
0.158945 -1.02419 0
0.0832967 -1.11992 0
0.0225122 -1.11046 0
-0.0694237 -1.15986 0
0.110012 -1.03853 0
-0.00566659 -1.00128 0
0.0920058 -1.04984 0
-0.0513742 -1.04666 0
0.0113277 -1.8669 0
0.117427 -0.802549 0
-0.0138041 -1.76265 0
0.123204 -0.769649 0
0.128746 -1.04911 0
-0.00311051 -1.00416 0
0.0549983 -1.12647 0
0.0832967 -1.06784 0
-0.00598841 -1.02421 0
0.0769304 -1.19758 0
0.0225122 -1.05913 0
0.0164616 -1.07054 0
-0.268579 -1.16078 0
0.441845 -1.46865 0
-0.0126095 -1.7469 0
-0.0407481 -1.78778 0
0.0903034 -0.775579 0
0.118159 -1.18348 0
0.546444 -1.20142 0
0.0281336 -1.76531 0
-0.137805 -1.76083 0
0.0843728 -0.752842 0
-0.00532394 -1.00532 0
-0.159289 -1.52352 0
0.639407 -1.07653 0
0.0627831 -1.02421 0
0.236779 -1.07054 0
0.034657 -2.08375 0
0.185072 -1.41032 0
-0.226282 -0.625698 0
0.0961156 -1.03853 0
0.273529 -1.03088 0
-0.299344 -0.720578 0
0.326786 -1.21187 0
0.140859 -1.27844 0
0.433195 -1.09682 0
0.458967 -1.8669 0
0.536818 -0.983567 0
-0.0161773 -0.9755 0
-0.0799652 -0.89654 0
-0.00707525 -0.800991 0
0.116379 -0.732193 0
0.0763968 -0.792088 0
-0.0244421 -0.800083 0
-0.00798113 -1.00267 0
0.0718607 -0.74033 0
-0.00798113 -1.02129 0
-0.0180403 -1.01123 0
0.0575252 -0.714153 0
-0.0180403 -1.05737 0
-0.331298 -0.484368 0
-0.0159436 -0.799722 0
-0.0159436 -0.732193 0
0.0554219 -1.14983 0
0.0564844 -0.804622 0
0.0564844 -0.792088 0
0.181697 -1.21525 0
-0.0798359 -0.765969 0
0.0716295 -0.807233 0
0.046548 -1.68458 0
0.0616357 -0.766971 0
-0.268371 -1.85789 0
0.0277632 -0.791638 0
0.127279 -1.63368 0
0.0475071 -0.749656 0
-0.152049 -1.72732 0
0.0172371 -0.780082 0
-0.329758 -0.350995 0
0.0143489 -0.835417 0
0.0263393 -0.735009 0
0.0143489 -0.814633 0
0.00955858 -0.809843 0
-0.011367 -0.731299 0
-0.0860111 -0.765969 0
0.346792 -1.01314 0
0.0056808 -0.784155 0
0.0132104 -1.34046 0
0.363342 -1.06361 0
-0.0404115 -1.13819 0
0.00377285 -0.913063 0
0.0292804 -0.656655 0
-0.00295129 -0.776378 0
0.189658 -0.936604 0
-0.0550543 -0.625698 0
-0.00707525 -0.782717 0
0.26908 -1.02643 0
0.0222633 -0.843331 0
0.037134 -0.887858 0
0.0626555 -0.962126 0
0.150163 -0.880717 0
0.0864858 -1.08744 0
0.309522 -0.574968 0
-0.117728 -1.77148 0
0.236779 -0.579796 0
0.00160829 -0.780082 0
0.0575252 -0.697302 0
0.0703285 -0.784272 0
0.861635 -0.955507 0
0.0399228 -0.815506 0
0.0056808 -0.791638 0
0.0718607 -0.728488 0
0.0716295 -0.796855 0
0.743295 -0.984866 0
0.0598335 -0.835417 0
0.0598335 -0.83207 0
0.100751 -0.872987 0
0.0626555 -1.06361 0
-0.0208426 -0.804622 0
0.475536 -2.15306 0
-0.0099948 -1.15986 0
-0.0208426 -0.969396 0
0.0864858 -1.34046 0
-0.190516 -0.799722 0
0.25955 -1.13462 0
-0.0200219 -1.11046 0
0.346792 -0.628562 0
-0.011367 -0.697302 0
0.128746 -1.11329 0
0.805936 -0.987659 0
-0.190516 -1.23426 0
0.00643116 -1.34724 0
0.124932 -1.54971 0
0.148032 -1.08606 0
0.0627831 -0.89654 0
0.0130515 -1.11992 0
0.152228 -1.07259 0
0.371123 -0.982453 0
0.10262 -0.718735 0
-0.0675404 -1.11106 0
0.54664 -1.79958 0
-0.0550543 -0.57232 0
0.302627 -0.492977 0
0.0979328 -1.07638 0
0.0140695 -0.9755 0
0.0899229 -1.11329 0
0.772655 -1.02645 0
0.0833083 -0.795554 0
0.0222633 -0.872987 0
-0.0165414 -0.996783 0
0.0980379 -0.724676 0
-0.0404115 -1.035 0
0.22869 -1.07862 0
0.245808 -1.98444 0
0.0292804 -0.669058 0
0.629351 -0.538687 0
0.00520136 -0.995288 0
0.169447 -1.07259 0
0.731071 -1.13627 0
0.0538732 -0.807233 0
0.037134 -0.936604 0
-0.0106574 -1.00267 0
0.637437 -0.889922 0
-0.0197341 -0.968833 0
-0.116477 -1.11106 0
-0.0500747 -1.11704 0
-0.041809 -0.985959 0
-0.219638 -1.28276 0
0.698723 -0.720578 0
0.0692161 -0.879337 0
0.189658 -0.889922 0
0.0538732 -0.879337 0
-0.0513414 -0.794463 0
-0.0150765 -0.767564 0
0.0763808 -1.44768 0
0.0301926 -0.768157 0
0.0113277 -1.78778 0
0.394626 -0.718312 0
-0.00928949 -0.761777 0
0.126018 -0.57232 0
0.0443343 -0.781112 0
0.840893 -1.02645 0
0.375185 -0.879945 0
0.00531193 -0.768157 0
0.10262 -0.669058 0
1.1232 -0.837167 0
0.0577456 -0.797683 0
0.698723 -1.13627 0
0.322732 -0.990408 0
0.0172371 -0.781112 0
0.0980379 -0.714153 0
1.14181 -1.16367 0
0.250408 -1.06679 0
0.0277632 -0.797683 0
0.113691 -0.74033 0
0.116379 -0.83207 0
0.159509 -1.08897 0
0.166271 -0.350995 0
-0.0244421 -0.767564 0
0.207322 -1.03088 0
0.231882 -0.847697 0
-0.303722 -1.34724 0
0.0637056 -1.08069 0
0.363342 -1.6906 0
0.0743501 -0.969396 0
0.308107 -0.607822 0
-0.0137205 -1.14353 0
-0.0799652 -0.923816 0
0.110012 -1.06784 0
0.497076 -1.11882 0
0.0132104 -1.66417 0
0.268537 -1.23426 0
0.12059 -1.04911 0
0.365917 -1.02643 0
-0.303722 -0.923816 0
0.565346 -1.37787 0
0.186234 -0.328357 0
-0.116477 -0.960328 0
0.11488 -1.39657 0
0.126018 -0.692455 0
0.205423 -0.211964 0
0.840893 -1.27844 0
0.0965427 -0.836668 0
0.100751 -0.847697 0
0.258487 -1.10378 0
-0.00422305 -0.996783 0
0.372232 -0.556956 0
0.166271 -0.612573 0
0.0692161 -0.964262 0
0.0743501 -1.04008 0
0.268537 -1.08106 0
0.146621 -1.56785 0
-0.0513414 -0.731299 0
0.221888 -0.556956 0
-0.0165414 -1.01123 0
0.0673833 -1.35741 0
-0.0150765 -0.735009 0
0.2059 -0.612573 0
0.0116918 -0.749656 0
0.128901 -0.692455 0
0.0301926 -0.766971 0
0.103979 -0.718735 0
0.0443343 -0.784272 0
0.149151 -0.724676 0
0.0577456 -0.796855 0
0.171393 -0.760136 0
0.115585 -1.52352 0
0.166653 -0.808326 0
0.0458967 -1.18348 0
0.145654 -0.857552 0
0.140859 -1.16078 0
0.231882 -0.484368 0
0.126814 -0.906664 0
0.150163 -0.964262 0
0.309522 -1.04008 0
-0.423985 -0.579796 0
0.815613 -1.08106 0
-0.321357 -1.56785 0
-0.00571806 -0.995288 0
0.0257961 -0.8784 0
0.103979 -0.679504 0
0.861635 -1.07426 0
0.0987073 -1.04112 0
0.0831926 -0.95557 0
0.258464 -0.593533 0
0.221888 -0.628562 0
0.2059 -0.769454 0
-0.0860111 -0.656655 0
0.256917 -0.593533 0
-0.00571806 -0.985959 0
0.0938965 -1.19282 0
0.0263393 -0.728488 0
0.103104 -0.769454 0
0.0475071 -0.752842 0
0.0398256 -0.743657 0
0.0616357 -0.775579 0
0.207542 -0.679504 0
0.0703285 -0.795554 0
0.246565 -0.737894 0
-0.0410944 -1.64172 0
0.232139 -0.813066 0
-0.0159289 -1.04939 0
0.192606 -0.878551 0
0.118159 -1.54752 0
0.142224 -0.925504 0
-0.268579 -1.78051 0
0.0899664 -0.940913 0
0.034657 -1.71218 0
0.00377285 -0.880717 0
0.735607 -1.07862 0
-0.334322 -0.574968 0
-0.334396 -1.77148 0
0.0140695 -1.00416 0
0.371123 -0.552847 0
0.0398256 -0.511788 0
-0.0407481 -1.85789 0
0.286845 -0.898174 0
0.207542 -0.698871 0
0.772655 -0.955507 0
-0.00295129 -0.786841 0
0.156361 -0.492977 0
0.00160829 -0.780938 0
0.256917 -0.538687 0
0.00955858 -0.795516 0
0.103104 -0.806935 0
0.0843728 -0.769649 0
0.394626 -0.511788 0
0.0903034 -0.802549 0
0.375185 -0.698871 0
0.0833083 -0.836668 0
0.322732 -0.827491 0
-0.679933 -3.65115 0
0.250408 -0.918084 0
0.616284 -2.19939 0
0.159509 -0.975886 0
-0.035587 -1.77859 0
0.0637056 -0.993171 0
-0.0336721 -1.56455 0
0.124932 -1.37787 0
-0.0500747 -0.96691 0
0.113957 -1.35804 0
0.54664 -1.39657 0
-0.254057 -0.913063 0
0.22869 -1.28276 0
0.0673833 -1.65233 0
0.0164616 -1.04666 0
0.497076 -1.7871 0
-0.00598841 -1.00128 0
0.365917 -0.987659 0
0.32194 -0.982453 0
-0.00928949 -0.782717 0
0.138007 -0.328357 0
-0.267948 -1.54077 0
0.00531193 -0.776378 0
0.302627 -0.211964 0
0.0399228 -0.809843 0
0.296291 -0.413453 0
-0.041809 -1.035 0
-0.254057 -1.33089 0
0.113691 -0.760136 0
0.699484 -0.413453 0
0.123204 -0.808326 0
0.536818 -0.718312 0
0.117427 -0.857552 0
0.433195 -0.879945 0
0.0965427 -0.906664 0
0.326786 -0.990408 0
0.181697 -1.06679 0