# vtk DataFile Version 2.0
Unstructured Grid by M++
ASCII
DATASET UNSTRUCTURED_GRID
POINTS 1089 float
  0.843750   0.812500 0
  0.843750   0.781250 0
  0.843750   0.750000 0
  0.812500   0.781250 0
  0.812500   0.750000 0
  0.812500   0.718750 0
  0.781250   0.750000 0
  0.781250   0.718750 0
  0.781250   0.687500 0
  0.750000   0.968750 0
  0.750000   0.718750 0
  0.750000   0.687500 0
  0.718750   1.000000 0
  0.718750   0.968750 0
  0.718750   0.937500 0
  0.718750   0.718750 0
  0.718750   0.687500 0
  0.718750   0.656250 0
  0.687500   1.000000 0
  0.687500   0.968750 0
  0.687500   0.937500 0
  0.687500   0.687500 0
  0.687500   0.656250 0
  0.687500   0.625000 0
  0.656250   0.968750 0
  0.656250   0.937500 0
  0.656250   0.906250 0
  0.562500   0.875000 0
  0.625000   0.656250 0
  0.968750   0.906250 0
  0.562500   0.843750 0
  0.625000   0.625000 0
  0.968750   0.875000 0
  0.562500   0.812500 0
  0.625000   0.593750 0
  0.812500   0.812500 0
  0.750000   1.000000 0
  0.781250   1.000000 0
  0.625000   0.562500 0
  0.906250   0.906250 0
  0.906250   0.875000 0
  0.562500   0.593750 0
  0.906250   0.843750 0
  0.562500   0.562500 0
  0.906250   0.812500 0
  0.625000   0.937500 0
  0.562500   0.531250 0
  0.750000   0.750000 0
  0.625000   0.906250 0
  0.625000   0.875000 0
  0.531250   0.875000 0
  0.937500   0.906250 0
  0.875000   0.875000 0
  0.531250   0.562500 0
  0.875000   0.812500 0
  0.593750   0.937500 0
  1.000000   0.968750 0
  0.843750   0.843750 0
  0.531250   0.531250 0
  0.875000   0.781250 0
  0.593750   0.906250 0
  0.656250   0.687500 0
  1.000000   0.937500 0
  0.875000   0.843750 0
  0.593750   0.875000 0
  0.656250   0.656250 0
  1.000000   0.906250 0
  0.593750   0.843750 0
  0.656250   0.625000 0
  0.656250   0.593750 0
  0.562500   0.906250 0
  0.968750   0.937500 0
  0.531250   0.812500 0
  0.593750   0.593750 0
  0.937500   0.843750 0
  0.531250   0.781250 0
  0.593750   0.562500 0
  0.531250   0.843750 0
  0.593750   0.625000 0
  0.937500   0.875000 0
  0.781250   0.781250 0
  0.843750   0.531250 0
  0.593750   0.531250 0
  0.875000   0.531250 0
  0.875000   0.562500 0
  0.906250   0.531250 0
  0.906250   0.562500 0
  0.906250   0.593750 0
  0.937500   0.562500 0
  0.937500   0.531250 0
  0.937500   0.593750 0
  0.937500   0.625000 0
  0.968750   0.562500 0
  0.968750   0.593750 0
  0.968750   0.625000 0
  0.968750   0.656250 0
  1.000000   0.593750 0
  1.000000   0.625000 0
  1.000000   0.656250 0
  1.000000   0.687500 0
  0.843750   0.187500 0
  0.843750   0.125000 0
  0.812500   0.468750 0
  0.812500   0.437500 0
  0.812500   0.187500 0
  0.781250   0.437500 0
  0.781250   0.406250 0
  0.093750   0.906250 0
  0.156250   0.656250 0
  0.281250   0.156250 0
  0.218750   0.406250 0
  0.156250   0.687500 0
  0.093750   0.937500 0
  0.218750   0.437500 0
  0.281250   0.187500 0
  0.656250   1.000000 0
  0.156250   0.750000 0
  0.093750   1.000000 0
  0.718750   0.750000 0
  0.218750   0.500000 0
  0.687500   0.187500 0
  0.031250   0.562500 0
  0.093750   0.312500 0
  0.156250   0.062500 0
  0.375000   0.812500 0
  0.937500   0.812500 0
  0.437500   0.562500 0
  0.562500   0.062500 0
  0.156250   0.718750 0
  0.093750   0.968750 0
  0.218750   0.468750 0
  0.281250   0.218750 0
  0.156250   0.781250 0
  0.781250   0.531250 0
  0.281250   0.281250 0
  0.718750   0.781250 0
  0.218750   0.531250 0
  0.687500   0.218750 0
  0.781250   0.906250 0
  0.281250   0.656250 0
  0.843750   0.656250 0
  0.343750   0.406250 0
  0.218750   0.906250 0
  0.531250   0.906250 0
  0.031250   0.656250 0
  0.593750   0.656250 0
  0.093750   0.406250 0
  0.031250   0.593750 0
  0.156250   0.093750 0
  0.093750   0.343750 0
  0.375000   0.843750 0
  0.437500   0.593750 0
  0.562500   0.093750 0
  0.156250   0.812500 0
  0.781250   0.562500 0
  0.281250   0.312500 0
  0.718750   0.812500 0
  0.218750   0.562500 0
  0.750000   0.000000 0
  0.093750   0.875000 0
  0.656250   0.875000 0
  0.156250   0.625000 0
  0.718750   0.625000 0
  0.218750   0.375000 0
  0.781250   0.375000 0
  0.281250   0.125000 0
  0.687500   0.156250 0
  0.031250   0.812500 0
  0.593750   0.812500 0
  0.093750   0.562500 0
  0.656250   0.562500 0
  0.156250   0.312500 0
  0.093750   0.593750 0
  0.031250   0.843750 0
  0.156250   0.343750 0
  0.218750   0.093750 0
  0.437500   0.843750 0
  0.625000   0.093750 0
  0.750000   0.875000 0
  0.250000   0.625000 0
  0.812500   0.625000 0
  0.312500   0.375000 0
  0.187500   0.875000 0
  0.562500   0.625000 0
  0.062500   0.375000 0
  0.000000   0.562500 0
  0.125000   0.062500 0
  0.062500   0.312500 0
  0.343750   0.812500 0
  0.468750   0.312500 0
  0.406250   0.562500 0
  0.531250   0.062500 0
  0.312500   1.000000 0
  0.937500   0.750000 0
  0.437500   0.500000 0
  0.875000   1.000000 0
  0.375000   0.750000 0
  0.562500   0.000000 0
  0.062500   1.000000 0
  0.625000   1.000000 0
  0.125000   0.750000 0
  0.687500   0.750000 0
  0.187500   0.500000 0
  0.062500   0.937500 0
  0.125000   0.687500 0
  0.187500   0.437500 0
  0.250000   0.187500 0
  0.125000   0.781250 0
  0.750000   0.531250 0
  0.250000   0.281250 0
  0.687500   0.781250 0
  0.187500   0.531250 0
  0.468750   0.968750 0
  0.656250   0.218750 0
  0.062500   0.906250 0
  0.250000   0.156250 0
  0.187500   0.406250 0
  0.125000   0.656250 0
  0.062500   0.968750 0
  0.687500   0.718750 0
  0.187500   0.468750 0
  0.625000   0.968750 0
  0.125000   0.718750 0
  0.468750   0.937500 0
  0.656250   0.187500 0
  0.281250   0.937500 0
  0.906250   0.687500 0
  0.406250   0.437500 0
  0.843750   0.937500 0
  0.343750   0.687500 0
  0.093750   0.625000 0
  0.218750   0.125000 0
  0.156250   0.375000 0
  0.031250   0.875000 0
  0.437500   0.875000 0
  0.625000   0.125000 0
  0.750000   0.843750 0
  0.250000   0.593750 0
  0.812500   0.593750 0
  0.312500   0.343750 0
  0.187500   0.843750 0
  0.750000   0.906250 0
  0.250000   0.656250 0
  0.812500   0.656250 0
  0.312500   0.406250 0
  0.187500   0.906250 0
  0.500000   0.906250 0
  0.000000   0.656250 0
  0.562500   0.656250 0
  0.062500   0.406250 0
  0.625000   0.406250 0
  0.125000   0.156250 0
  0.000000   0.593750 0
  0.062500   0.343750 0
  0.125000   0.093750 0
  0.343750   0.843750 0
  0.406250   0.593750 0
  0.468750   0.343750 0
  0.531250   0.093750 0
  0.125000   0.812500 0
  0.750000   0.562500 0
  0.250000   0.312500 0
  0.687500   0.812500 0
  0.187500   0.562500 0
  0.468750   1.000000 0
  0.718750   0.000000 0
  0.750000   0.937500 0
  0.250000   0.687500 0
  0.812500   0.687500 0
  0.312500   0.437500 0
  0.187500   0.937500 0
  0.500000   0.937500 0
  0.000000   0.687500 0
  0.562500   0.687500 0
  0.062500   0.437500 0
  0.625000   0.437500 0
  0.125000   0.187500 0
  0.343750   0.875000 0
  0.406250   0.625000 0
  0.468750   0.375000 0
  0.531250   0.125000 0
  0.343750   0.937500 0
  0.906250   0.937500 0
  0.406250   0.687500 0
  0.968750   0.687500 0
  0.468750   0.437500 0
  0.531250   0.187500 0
  0.125000   0.843750 0
  0.750000   0.593750 0
  0.250000   0.343750 0
  0.687500   0.843750 0
  0.187500   0.593750 0
  0.781250   0.875000 0
  0.281250   0.625000 0
  0.843750   0.625000 0
  0.343750   0.375000 0
  0.218750   0.875000 0
  0.781250   0.937500 0
  0.281250   0.687500 0
  0.843750   0.687500 0
  0.343750   0.437500 0
  0.218750   0.937500 0
  0.531250   0.937500 0
  0.031250   0.687500 0
  0.593750   0.687500 0
  0.093750   0.437500 0
  0.031250   0.625000 0
  0.156250   0.125000 0
  0.093750   0.375000 0
  0.375000   0.875000 0
  0.437500   0.625000 0
  0.562500   0.125000 0
  0.375000   0.937500 0
  0.937500   0.937500 0
  0.437500   0.687500 0
  0.156250   0.843750 0
  0.781250   0.593750 0
  0.281250   0.343750 0
  0.718750   0.843750 0
  0.218750   0.593750 0
  0.781250   0.968750 0
  0.281250   0.718750 0
  0.843750   0.718750 0
  0.343750   0.468750 0
  0.218750   0.968750 0
  0.531250   0.968750 0
  0.031250   0.718750 0
  0.593750   0.718750 0
  0.093750   0.468750 0
  0.375000   0.906250 0
  0.437500   0.656250 0
  0.562500   0.156250 0
  0.375000   0.968750 0
  0.937500   0.968750 0
  0.437500   0.718750 0
  1.000000   0.718750 0
  0.500000   0.468750 0
  0.562500   0.218750 0
  0.281250   0.750000 0
  0.343750   0.500000 0
  0.406250   0.250000 0
  0.468750   0.000000 0
  0.218750   1.000000 0
  0.531250   1.000000 0
  0.031250   0.750000 0
  0.593750   0.750000 0
  0.093750   0.500000 0
  0.375000   1.000000 0
  0.937500   1.000000 0
  0.437500   0.750000 0
  1.000000   0.750000 0
  0.500000   0.500000 0
  0.625000   0.000000 0
  0.562500   0.250000 0
  0.593750   0.781250 0
  0.093750   0.531250 0
  0.031250   0.781250 0
  0.656250   0.531250 0
  0.156250   0.281250 0
  0.437500   0.781250 0
  1.000000   0.781250 0
  0.500000   0.531250 0
  0.625000   0.031250 0
  0.562500   0.281250 0
  0.281250   0.781250 0
  0.343750   0.531250 0
  0.468750   0.031250 0
  0.406250   0.281250 0
  0.437500   0.812500 0
  0.625000   0.062500 0
  0.312500   0.968750 0
  0.937500   0.718750 0
  0.437500   0.468750 0
  0.875000   0.968750 0
  0.375000   0.718750 0
  0.093750   0.812500 0
  0.718750   0.562500 0
  0.218750   0.312500 0
  0.656250   0.812500 0
  0.156250   0.562500 0
  0.656250   0.843750 0
  0.156250   0.593750 0
  0.093750   0.843750 0
  0.718750   0.593750 0
  0.218750   0.343750 0
  0.500000   0.843750 0
  0.625000   0.343750 0
  0.687500   0.093750 0
  0.000000   0.625000 0
  0.500000   0.875000 0
  0.125000   0.125000 0
  0.625000   0.375000 0
  0.687500   0.125000 0
  0.468750   0.093750 0
  0.406250   0.343750 0
  0.343750   0.593750 0
  0.281250   0.843750 0
  0.906250   0.656250 0
  0.406250   0.406250 0
  0.843750   0.906250 0
  0.343750   0.656250 0
  0.281250   0.906250 0
  0.375000   0.625000 0
  0.500000   0.125000 0
  0.437500   0.375000 0
  0.312500   0.875000 0
  0.875000   0.937500 0
  0.375000   0.687500 0
  0.937500   0.687500 0
  0.437500   0.437500 0
  0.312500   0.937500 0
  0.531250   0.687500 0
[...]
CELL_DATA 1024
VECTORS vector_value float
0.0999123 -1.07277 0
0.12523 -1.08992 0
0.144373 -1.06097 0
0.113652 -1.04569 0
0.177471 -1.08262 0
0.0126962 -1.25418 0
0.0386753 -1.25397 0
0.0375369 -1.22769 0
0.0123577 -1.22896 0
0.0380537 -1.28062 0
-0.00200175 -0.206232 0
-0.00127152 -0.210275 0
0.000142707 -0.212236 0
0.00435654 -0.208507 0
-0.0218168 -0.224845 0
0.0942918 -0.332693 0
0.455999 -0.52681 0
0.151387 -1.11293 0
0.177334 -1.14302 0
0.212073 -1.11277 0
0.00252399 -1.1099 0
-0.00378835 -0.210757 0
-0.000653847 -0.210092 0
-0.0010822 -0.208241 0
0.0847898 -1.13108 0
0.105043 -1.11308 0
0.0847739 -1.0952 0
0.0690771 -1.11318 0
0.0649512 -1.08181 0
0.0457681 -1.0723 0
0.0377845 -1.08943 0
0.0533234 -1.09941 0
0.0759301 -1.16604 0
0.0531747 -1.17475 0
0.0594653 -1.19847 0
0.0855409 -1.19128 0
0.125227 -1.13611 0
0.144346 -1.16491 0
0.0394656 -0.679384 0
0.0592808 -0.584498 0
0.162561 -0.627342 0
0.11285 -0.706066 0
0.113735 -1.18047 0
-0.000166012 -0.211339 0
0.0632246 -1.67695 0
0.27772 -1.01725 0
0.0999493 -1.15345 0
-0.000292047 -0.210879 0
0.17928 -1.61979 0
0.220908 -0.996326 0
0.0123816 -0.948148 0
0.0378181 -0.947031 0
0.0351323 -0.921789 0
0.415227 -1.11635 0
0.0114727 -0.924294 0
0.344124 -1.05314 0
0.01147 -0.190849 0
-0.00474467 -0.203407 0
0.0610085 -0.916803 0
0.471099 -1.21556 0
0.0964501 -0.942238 0
0.394406 -1.34357 0
0.0908347 -0.909428 0
0.503384 -1.32683 0
0.0124548 -1.27955 0
0.0115396 -1.30378 0
0.0353646 -1.30631 0
0.375128 -1.25038 0
0.0653246 -0.944944 0
-0.000532145 -0.211637 0
0.33984 -1.17269 0
-0.00088947 -0.211064 0
0.119197 -1.53441 0
0.201624 -1.04399 0
0.294695 -1.11305 0
0.215728 -1.4125 0
0.124792 -1.01401 0
0.257231 -1.53111 0
0.172698 -0.984542 0
0.0854103 -1.03516 0
0.173842 -1.33735 0
0.0531059 -1.0518 0
0.133954 -1.28703 0
0.0758644 -1.06037 0
0.128281 -1.3276 0
0.131808 -0.978258 0
0.295252 -1.43469 0
0.0661069 -0.973802 0
0.296702 -1.27244 0
0.0638937 -1.00192 0
0.231768 -1.28342 0
0.0927207 -1.00652 0
0.231681 -1.34559 0
0.0967619 -0.975161 0
0.304635 -1.34873 0
0.529819 -0.729007 0
0.0148207 -0.866915 0
0.4958 -0.540189 0
0.00507451 -0.859939 0
0.33356 -0.636845 0
0.00164675 -0.86657 0
0.389674 -0.750412 0
0.00481292 -0.87303 0
0.231103 -0.352792 0
0.240237 -0.698872 0
-0.00300033 -0.219206 0
0.170817 -0.753667 0
-0.0120076 -0.219048 0
-0.00181974 -0.211144 0
-0.00496532 -0.211676 0
-0.0025173 -0.215123 0
-0.00117363 -0.212561 0
0.0398486 -1.56692 0
0.246829 -1.0716 0
0.179088 -1.47865 0
0.160916 -1.0258 0
-0.00120681 -0.210586 0
0.12296 -0.796525 0
-0.0159307 -0.199819 0
0.0882422 -0.829016 0
0.0154817 -0.177148 0
0.031615 -0.223275 0
0.00779906 -0.211568 0
0.0374024 -0.999297 0
0.220435 -1.22822 0
0.0390077 -1.3971 0
0.0898011 -1.40211 0
0.017542 -1.44273 0
0.284752 -0.78355 0
-0.0128429 -0.233305 0
0.0075736 -1.11326 0
0.172967 -1.2409 0
0.0349221 -1.02395 0
0.0253899 -1.37554 0
0.113804 -1.36711 0
0.0569117 -1.42856 0
0.209565 -0.813594 0
-0.00528614 -0.2064 0
0.160916 -1.19986 0
0.0115256 -1.02195 0
0.139365 -0.546724 0
0.153834 -0.840187 0
0.000841511 -1.11326 0
0.111933 -0.861973 0
0.441748 -1.13777 0
0.124997 -1.21213 0
0.0103903 -1.04386 0
0.178152 -1.28726 0
0.0593407 -1.02818 0
0.231414 -0.940166 0
0.290062 -1.75142 0
0.00252414 -1.11663 0
0.132289 -1.24798 0
0.0314063 -1.04644 0
0.0123121 -0.99811 0
0.201227 -1.18128 0
0.0384841 -0.973302 0
0.275727 -1.2069 0
0.298943 -0.949065 0
0.102759 -1.84867 0
0.396417 -1.44722 0
0.0971466 -1.285 0
0.303526 -0.869159 0
0.135756 -1.1469 0
0.512628 -1.45271 0
0.228839 -0.877857 0
0.40059 -1.4326 0
0.0664327 -1.2533 0
0.0225251 -1.08295 0
0.0972075 -1.25162 0
0.0271844 -1.06623 0
0.617194 -1.14091 0
0.052876 -0.891099 0
0.38322 -0.970636 0
0.00987299 -0.902948 0
0.0126338 -0.973164 0
0.24602 -1.15369 0
0.0802344 -1.35017 0
0.000326333 -0.206376 0
0.0116041 -1.40741 0
0.520978 -1.56995 0
0.00732856 -1.38351 0
0.382826 -1.57019 0
0.627092 -1.35929 0
0.0793289 -0.878853 0
0.811587 -0.873329 0
0.0410291 -0.869665 0
0.401795 -0.867995 0
0.00761615 -0.885459 0
0.276082 -0.513202 0
0.0619498 -0.852913 0
0.527906 -0.877681 0
0.0234211 -0.880298 0
0.0929714 -1.22002 0
0.00901286 -1.06327 0
0.0641047 -1.2249 0
0.00748176 -1.07976 0
0.0657656 -1.28258 0
0.0532609 -1.33767 0
0.0917433 -1.31856 0
0.0624326 -1.37725 0
0.0615009 -1.3113 0
0.0410517 -1.35973 0
0.496519 -1.01445 0
0.0303036 -0.899045 0
0.126728 -1.43556 0
0.0262566 -1.49352 0
0.157369 -1.38831 0
0.177123 -0.9382 0
0.126758 -0.899925 0
0.171558 -0.888936 0
0.132999 -0.939586 0
0.00586558 -1.13343 0
0.00420281 -1.12336 0
0.0126197 -1.12 0
0.017632 -1.13012 0
0.0861615 -0.439906 0
0.0605171 -0.259782 0
0.258116 -0.519497 0
0.00990269 -1.32546 0
0.0378007 -1.13707 0
0.0304384 -1.3295 0
0.053335 -1.12703 0
0.0233212 -1.34858 0
0.0649825 -1.1446 0
0.00756532 -1.34316 0
0.0458036 -1.15421 0
0.0819217 -1.47281 0
0.0115556 -1.20491 0
0.0104083 -1.18285 0
0.0314562 -1.18022 0
0.0350074 -1.20284 0
0.019548 -0.791383 0
0.0276984 -0.745043 0
0.0797797 -0.763198 0
0.0566563 -0.804502 0
0.0135766 -0.823961 0
0.0394959 -0.833974 0
0.026037 -0.854225 0
0.00892818 -0.84613 0
0.00748689 -1.14681 0
0.0225385 -1.1436 0
0.0272115 -1.16036 0
0.00902291 -1.16335 0
0.00129238 -1.36155 0
0.00463271 -1.35553 0
0.0143283 -1.36203 0
0.00404482 -1.36867 0
0.00586329 -1.09311 0
0.0176264 -1.09641 0
0.0126181 -1.10652 0
0.00420201 -1.10317 0
0.0414177 -1.11323 0
0.029485 -1.12342 0
0.0210565 -1.11326 0
0.0294796 -1.10308 0
-0.0905779 -0.454093 0
-0.00835377 -0.214394 0
-0.000637411 -0.208448 0
0.000829495 -0.209761 0
0.000429262 -0.211144 0
8.03907e-05 -0.211495 0
-3.81953e-05 -0.211542 0
-0.27069 -0.535133 0
-0.012667 -0.19329 0
-0.241741 -0.361624 0
0.00386297 -0.205305 0
0.00306735 -0.212233 0
0.000535129 -0.211605 0
0.00026088 -0.211657 0
-7.2492e-05 -0.211832 0
-0.350943 -0.653595 0
-0.0997672 -0.337773 0
-0.514407 -0.552848 0
0.0207 -0.226738 0
-0.00134486 -0.213641 0
0.000164162 -0.21122 0
0.000794347 -0.211686 0
0.000194433 -0.212736 0
-0.410885 -0.766634 0
-0.0473425 -1.56706 0
-0.0122638 -1.09909 0
-0.186461 -1.33411 0
-0.0847563 -1.08922 0
-0.16797 -1.38624 0
-0.0912186 -1.11392 0
-0.135772 -1.43436 0
-0.0427368 -0.986453 0
-0.0978341 -1.14129 0
-0.549738 -0.8908 0
-0.119103 -0.995548 0
-0.118605 -1.05206 0
-0.174151 -0.64971 0
-0.0173402 -1.40679 0
0.00142088 -0.21934 0
-0.090359 -0.990228 0
-0.105757 -0.949181 0
-0.0444684 -1.20802 0
-0.370165 -1.06122 0
-0.0696036 -1.009 0
-0.51808 -1.33539 0
-0.129457 -1.07129 0
-0.0953341 -0.970293 0
-0.122654 -0.926099 0
-0.0395079 -1.29715 0
-0.0444845 -1.23843 0
-0.437457 -1.1244 0
-0.156278 -1.12099 0
-0.182568 -1.19085 0
-0.0712363 -1.02727 0
-0.183926 -0.871121 0
-0.0264482 -1.34404 0
-0.142274 -1.09398 0
-0.147783 -0.900284 0
-0.0339981 -1.32282 0
-0.0429415 -1.26854 0
-0.489579 -1.22407 0
-0.0145309 -0.985613 0
-0.126872 -1.1331 0
-0.4091 -1.34864 0
-0.170268 -1.15311 0
-0.191052 -1.23421 0
-0.0744291 -1.04637 0
-0.235384 -0.83846 0
-0.0171684 -1.35941 0
-0.523664 -1.46099 0
-0.40486 -1.43611 0
-0.107761 -1.0817 0
-0.361703 -1.177 0
-0.193253 -1.28248 0
-0.0790245 -1.06685 0
-0.307628 -0.803528 0
-0.0067417 -1.36781 0
-0.5284 -1.57718 0
-0.138428 -1.1478 0
-0.0519394 -1.02931 0
-0.40795 -1.45218 0
-0.207581 -0.914305 0
-0.0129386 -1.29418 0
-0.00862385 -1.33838 0
-0.117056 -1.10569 0
-0.393263 -1.25516 0
-0.1886 -1.47892 0
-0.11019 -1.03541 0
-0.125252 -0.735805 0
-0.0450781 -1.39519 0
0.0104025 -0.219404 0
-0.0432941 -1.17824 0
-0.308241 -1.02594 0
-0.104474 -1.02055 0
-0.0939339 -0.801315 0
-0.0691687 -1.3739 0
-0.0413709 -1.14971 0
-0.256971 -1.00612 0
-0.101589 -1.00674 0
0.0139965 -0.200254 0
-0.283481 -0.519086 0
-0.0733957 -0.852454 0
-0.087965 -1.34515 0
-0.0390746 -1.12278 0
-0.0596989 -0.893719 0
-0.110001 -1.23937 0
-0.100801 -1.31156 0
-0.0367246 -1.09757 0
-0.0700652 -1.67752 0
-0.0336831 -1.49334 0
-0.42555 -0.882558 0
-0.13067 -0.995028 0
-0.0507372 -0.928303 0
-0.108259 -1.20434 0
-0.107881 -1.27562 0
-0.0315727 -1.03062 0
-0.0345747 -1.07397 0
-0.187042 -1.6213 0
-0.0898958 -1.47221 0
-0.0453046 -0.958583 0
-0.103834 -1.17147 0
-0.12524 -0.998282 0
-0.030933 -1.01013 0
-0.0328137 -1.05176 0
-0.266671 -1.5332 0
-0.0996934 -1.06057 0
-0.320712 -1.11691 0
-0.258181 -0.720549 0
-0.0116644 -1.38275 0
0.0109828 -0.233488 0
-0.0933249 -1.04168 0
-0.0143482 -1.17932 0
-0.277692 -1.07519 0
-0.190516 -0.78153 0
-0.029964 -1.3732 0
-0.0889459 -1.02438 0
0.00354647 -0.206801 0
-0.449381 -1.14609 0
-0.0137488 -1.15116 0
-0.145673 -0.83175 0
-0.0461023 -1.35567 0
-0.0867202 -1.00802 0
-0.14304 -0.5489 0
-0.64133 -1.37346 0
-0.0130189 -1.12436 0
-0.115196 -0.873034 0
-0.0590277 -1.33166 0
-0.518922 -1.02555 0
-0.0945032 -0.907528 0
-0.0758943 -1.2391 0
-0.06823 -1.30301 0
-0.0633436 -0.606976 0
-0.0635378 -0.265244 0
-0.0243427 -1.4423 0
0.00121297 -0.215272 0
-0.130975 -1.00283 0
-0.408531 -0.98239 0
-0.010591 -1.03125 0
-0.0115681 -1.07529 0
-0.127384 -1.53474 0
-0.0684668 -0.988045 0
-0.0808034 -0.937155 0
-0.0754014 -1.20685 0
-0.0737177 -1.2716 0
-0.043704 -0.709999 0
-0.064147 -1.42722 0
0.00358284 -0.21212 0
-0.0109957 -1.05278 0
-0.0103821 -1.01035 0
-0.126032 -1.00085 0
-0.0724374 -0.96353 0
-0.0729759 -1.17581 0
-0.328059 -0.962367 0
-0.032509 -0.784607 0
-0.0978958 -1.39971 0
0.000476857 -0.20705 0
-0.0693454 -1.14658 0
-0.265446 -0.95581 0
-0.0252254 -0.841339 0
-0.12317 -1.36342 0
-0.065161 -1.11943 0
-0.217468 -0.956948 0
-0.0204258 -0.886337 0
-0.139325 -1.32229 0
-0.0609634 -1.09437 0
-0.0173045 -0.923602 0
-0.143772 -1.19949 0
-0.147095 -1.27974 0
-0.330117 -0.886294 0
-0.00220725 -1.36064 0
-0.0571727 -1.07122 0
-0.296643 -1.75471 0
-0.0154198 -0.955967 0
-0.13621 -1.16433 0
-0.147985 -1.23826 0
-0.259451 -0.898604 0
-0.00559537 -1.35276 0
-0.0508317 -1.00969 0
-0.0540954 -1.04967 0
-0.107943 -1.84978 0
-0.391689 -1.57446 0
-0.227112 -1.41239 0
-0.245425 -1.34476 0
-0.24834 -1.28153 0
-0.240341 -1.22495 0
-0.225065 -1.17634 0
-0.185525 -1.10368 0
-0.20585 -1.1361 0
-0.166164 -1.07792 0
-0.149084 -1.05745 0
-0.135014 -1.04098 0
-0.124318 -1.02738 0
-0.117148 -1.0157 0
-0.113557 -1.00512 0
-0.30695 -1.4369 0
-0.31905 -1.35067 0
-0.314262 -1.27376 0
-0.296875 -1.20735 0
-0.271312 -1.15311 0
-0.242255 -1.11106 0
-0.187582 -1.05662 0
-0.213532 -1.07968 0
-0.165584 -1.03968 0
-0.147988 -1.02709 0
-0.134889 -1.01748 0
-0.126233 -1.00978 0
-0.121933 -1.00315 0
-0.238349 -1.04748 0
-0.17758 -1.01769 0
-0.204838 -1.02935 0
-0.156423 -1.01032 0
-0.141011 -1.00573 0
-0.21568 -0.995904 0
-0.15912 -0.990935 0
-0.183424 -0.991619 0
-0.141791 -0.99238 0
-0.636779 -1.15295 0
-0.181365 -0.962216 0
-0.136448 -0.97793 0
-0.154918 -0.969587 0
-0.124763 -0.986672 0
-0.0177214 -0.178307 0
-0.833579 -0.885997 0
-0.169824 -0.930999 0
-0.011106 -1.31845 0
-0.0141038 -1.26691 0
-0.124467 -0.963178 0
-0.0146549 -1.23796 0
-0.142902 -0.947434 0
-0.112957 -0.978229 0
-0.0146941 -1.20847 0
-0.107425 -0.992799 0
-0.00605925 -0.209766 0
-0.471747 -0.536193 0
-0.0335061 -0.225211 0
-0.550516 -0.742904 0
-0.00902291 -1.16335 0
-0.00748689 -1.14681 0
-0.00586558 -1.13343 0
-0.00420281 -1.12336 0
-0.00252414 -1.11663 0
-0.000841511 -1.11326 0
-0.0350074 -1.20284 0
-0.0272115 -1.16036 0
-0.0225385 -1.1436 0
-0.017632 -1.13012 0
-0.0126197 -1.12 0
-0.0075736 -1.11326 0
-0.00252399 -1.1099 0
-0.0594653 -1.19847 0
-0.0458036 -1.15421 0
-0.0378007 -1.13707 0
-0.029485 -1.12342 0
-0.0210565 -1.11326 0
-0.0126181 -1.10652 0
-0.00420201 -1.10317 0
-0.0126338 -0.973164 0
-0.000326333 -0.206376 0
-0.132999 -0.939586 0
-0.031615 -0.223275 0
-0.0964501 -0.942238 0
-0.455999 -0.52681 0
-0.0653246 -0.944944 0
-0.00404482 -1.36867 0
-0.529819 -0.729007 0
-0.0123816 -0.948148 0
-0.113735 -1.18047 0
-0.139365 -0.546724 0
-0.0386753 -1.25397 0
-0.0303036 -0.899045 0
-0.0225251 -1.08295 0
-0.0390077 -1.3971 0
-0.258116 -0.519497 0
-0.201227 -1.18128 0
-0.441748 -1.13777 0
-0.0375369 -1.22769 0
-0.0314562 -1.18022 0
-0.00987299 -0.902948 0
-0.00748176 -1.07976 0
-0.0116041 -1.40741 0
-0.0624326 -1.37725 0
-0.0797797 -0.763198 0
-0.162561 -0.627342 0
-0.177334 -1.14302 0
-0.617194 -1.14091 0
-0.38322 -0.970636 0
0.0025173 -0.215123 0
-0.0917433 -1.31856 0
-0.0394959 -0.833974 0
-0.627092 -1.35929 0
-0.0802344 -1.35017 0
-0.0566563 -0.804502 0
-0.11285 -0.706066 0
-0.151387 -1.11293 0
-0.496519 -1.01445 0
-0.298943 -0.949065 0
0.00496532 -0.211676 0
-0.0971466 -1.285 0
-0.026037 -0.854225 0
-0.0999123 -1.07277 0
-0.0531059 -1.0518 0
-0.231414 -0.940166 0
0.00200175 -0.206232 0
-0.0972075 -1.25162 0
-0.0148207 -0.866915 0
-0.0758644 -1.06037 0
-0.0314063 -1.04644 0
0.00117363 -0.212561 0
-0.113652 -1.04569 0
-0.276082 -0.513202 0
-0.177471 -1.08262 0
-0.177123 -0.9382 0
-0.00435654 -0.208507 0
-0.0929714 -1.22002 0
-0.00481292 -0.87303 0
-0.0103903 -1.04386 0
-0.00129238 -1.36155 0
-0.527906 -0.877681 0
-0.303526 -0.869159 0
0.00181974 -0.211144 0
-0.133954 -1.28703 0
-0.00892818 -0.84613 0
-0.811587 -0.873329 0
-0.128281 -1.3276 0
-0.0135766 -0.823961 0
-0.0276984 -0.745043 0
-0.144373 -1.06097 0
0.00088947 -0.211064 0
-0.0927207 -1.00652 0
0.00528614 -0.2064 0
-0.0380537 -1.28062 0
-0.052876 -0.891099 0
-0.0377845 -1.08943 0
-0.231103 -0.352792 0
-0.220435 -1.22822 0
0.0128429 -0.233305 0
-0.0353646 -1.30631 0
-0.0793289 -0.878853 0
-0.01147 -0.190849 0
-0.231768 -1.28342 0
-0.0304384 -1.3295 0
-0.111933 -0.861973 0
0.00474467 -0.203407 0
-0.0233212 -1.34858 0
-0.284752 -0.78355 0
-0.153834 -0.840187 0
0.00378835 -0.210757 0
-0.0374024 -0.999297 0
-0.0378181 -0.947031 0
-0.0398486 -1.56692 0
-0.0143283 -1.36203 0
-0.389674 -0.750412 0
-0.209565 -0.813594 0
0.000532145 -0.211637 0
0.00120681 -0.210586 0
-0.0154817 -0.177148 0
-0.212073 -1.11277 0
-0.0641047 -1.2249 0
-0.0531747 -1.17475 0
-0.00761615 -0.885459 0
-0.00901286 -1.06327 0
0.0159307 -0.199819 0
-0.0861615 -0.439906 0
-0.24602 -1.15369 0
-0.0664327 -1.2533 0
-0.0234211 -0.880298 0
-0.0271844 -1.06623 0
0.0120076 -0.219048 0
-0.0605171 -0.259782 0
-0.275727 -1.2069 0
-0.0657656 -1.28258 0
-0.0410291 -0.869665 0
0.00300033 -0.219206 0
-0.0457681 -1.0723 0
-0.0847739 -1.0952 0
-0.00779906 -0.211568 0
-0.0615009 -1.3113 0
-0.0619498 -0.852913 0
-0.0532609 -1.33767 0
-0.0882422 -0.829016 0
-0.0123577 -1.22896 0
-0.0104083 -1.18285 0
-0.0114727 -0.924294 0
-0.00586329 -1.09311 0
-0.17928 -1.61979 0
-0.144346 -1.16491 0
0.000292047 -0.210879 0
0.0010822 -0.208241 0
-0.0384841 -0.973302 0
-0.0410517 -1.35973 0
-0.240237 -0.698872 0
-0.12296 -0.796525 0
-0.0126962 -1.25418 0
-0.0115556 -1.20491 0
-0.0351323 -0.921789 0
-0.0176264 -1.09641 0
-0.0632246 -1.67695 0
-0.160916 -1.19986 0
0.000166012 -0.211339 0
0.000653847 -0.210092 0
-0.0661069 -0.973802 0
-0.0253899 -1.37554 0
-0.33356 -0.636845 0
-0.170817 -0.753667 0
-0.0124548 -1.27955 0
-0.0610085 -0.916803 0
-0.0294796 -1.10308 0
-0.00732856 -1.38351 0
-0.4958 -0.540189 0
-0.172967 -1.2409 0
-0.0115396 -1.30378 0
-0.0908347 -0.909428 0
-0.0414177 -1.11323 0
-0.0942918 -0.332693 0
-0.178152 -1.28726 0
-0.00990269 -1.32546 0
-0.126758 -0.899925 0
0.0218168 -0.224845 0
-0.173842 -1.33735 0
-0.00756532 -1.34316 0
-0.171558 -0.888936 0
-0.0855409 -1.19128 0
-0.0649825 -1.1446 0
-0.124997 -1.21213 0
-0.00164675 -0.86657 0
-0.000142707 -0.212236 0
-0.00463271 -1.35553 0
-0.401795 -0.867995 0
-0.228839 -0.877857 0
-0.132289 -1.24798 0
-0.00507451 -0.859939 0
-0.0854103 -1.03516 0
-0.0349221 -1.02395 0
0.00127152 -0.210275 0
-0.0115256 -1.02195 0
-0.0593407 -1.02818 0
-0.0967619 -0.975161 0
-0.131808 -0.978258 0
-0.172698 -0.984542 0
-0.220908 -0.996326 0
-0.27772 -1.01725 0
-0.344124 -1.05314 0
-0.471099 -1.21556 0
-0.415227 -1.11635 0
-0.503384 -1.32683 0
-0.512628 -1.45271 0
-0.520978 -1.56995 0
-0.40059 -1.4326 0
-0.135756 -1.1469 0
-0.0638937 -1.00192 0
-0.0123121 -0.99811 0
-0.124792 -1.01401 0
-0.160916 -1.0258 0
-0.201624 -1.04399 0
-0.246829 -1.0716 0
-0.294695 -1.11305 0
-0.33984 -1.17269 0
-0.394406 -1.34357 0
-0.375128 -1.25038 0
-0.396417 -1.44722 0
-0.382826 -1.57019 0
-0.290062 -1.75142 0
-0.102759 -1.84867 0
-0.296702 -1.27244 0
-0.295252 -1.43469 0
-0.304635 -1.34873 0
-0.257231 -1.53111 0
-0.12523 -1.08992 0
-0.231681 -1.34559 0
-0.179088 -1.47865 0
-0.215728 -1.4125 0
-0.119197 -1.53441 0
-0.0649512 -1.08181 0
-0.105043 -1.11308 0
-0.125227 -1.13611 0
-0.157369 -1.38831 0
-0.0819217 -1.47281 0
-0.126728 -1.43556 0
-0.0262566 -1.49352 0
-0.0533234 -1.09941 0
-0.0847898 -1.13108 0
-0.0690771 -1.11318 0
-0.0999493 -1.15345 0
-0.019548 -0.791383 0
-0.0394656 -0.679384 0
-0.113804 -1.36711 0
-0.0569117 -1.42856 0
-0.0898011 -1.40211 0
-0.0592808 -0.584498 0
-0.017542 -1.44273 0
-0.053335 -1.12703 0
-0.0759301 -1.16604 0
0.0146941 -1.20847 0
0.0146549 -1.23796 0
0.0141038 -1.26691 0
0.0129386 -1.29418 0
0.011106 -1.31845 0
0.00559537 -1.35276 0
0.00862385 -1.33838 0
0.00220725 -1.36064 0
0.0444845 -1.23843 0
0.0429415 -1.26854 0
0.0395079 -1.29715 0
0.0339981 -1.32282 0
0.0171684 -1.35941 0
0.0264482 -1.34404 0
0.0067417 -1.36781 0
0.0737177 -1.2716 0
0.06823 -1.30301 0
0.0590277 -1.33166 0
0.0461023 -1.35567 0
0.029964 -1.3732 0
0.0116644 -1.38275 0
0.0691687 -1.3739 0
0.64133 -1.37346 0
0.14304 -0.5489 0
0.147783 -0.900284 0
0.235384 -0.83846 0
0.0444684 -1.20802 0
-0.00358284 -0.21212 0
0.064147 -1.42722 0
0.136448 -0.97793 0
0.181365 -0.962216 0
0.0243427 -1.4423 0
0.0712363 -1.02727 0
0.241741 -0.361624 0
0.154918 -0.969587 0
0.124763 -0.986672 0
0.0978958 -1.39971 0
0.185525 -1.10368 0
0.408531 -0.98239 0
0.0953341 -0.970293 0
0.0912186 -1.11392 0
0.103834 -1.17147 0
-0.000535129 -0.211605 0
0.1886 -1.47892 0
0.259451 -0.898604 0
0.0758943 -1.2391 0
-0.000194433 -0.212736 0
0.0336831 -1.49334 0
0.518922 -1.02555 0
0.105757 -0.949181 0
0.0978341 -1.14129 0
0.108259 -1.20434 0
-0.00026088 -0.211657 0
0.127384 -1.53474 0
0.330117 -0.886294 0
0.0684668 -0.988045 0
0.101589 -1.00674 0
0.107761 -1.0817 0
-0.000829495 -0.209761 0
0.30695 -1.4369 0
0.0933249 -1.04168 0
0.00835377 -0.214394 0
0.636779 -1.15295 0
0.183926 -0.871121 0
0.122654 -0.926099 0
0.000637411 -0.208448 0
0.0996934 -1.06057 0
0.0473425 -1.56706 0
0.138428 -1.1478 0
0.0103821 -1.01035 0
0.42555 -0.882558 0
0.0724374 -0.96353 0
0.104474 -1.02055 0
0.266671 -1.5332 0
-0.0109828 -0.233488 0
0.030933 -1.01013 0
0.410885 -0.766634 0
0.0453046 -0.958583 0
0.117148 -1.0157 0
0.449381 -1.14609 0
-0.00354647 -0.206801 0
0.307628 -0.803528 0
0.0427368 -0.986453 0
0.113557 -1.00512 0
0.328059 -0.962367 0
0.090359 -0.990228 0
0.0847563 -1.08922 0
-0.00306735 -0.212233 0
0.227112 -1.41239 0
0.265446 -0.95581 0
0.0790245 -1.06685 0
-0.00386297 -0.205305 0
0.217468 -0.956948 0
0.0744291 -1.04637 0
0.012667 -0.19329 0
0.0432941 -1.17824 0
-0.000476857 -0.20705 0
-0.00121297 -0.215272 0
0.0696036 -1.009 0
0.125252 -0.735805 0
0.27069 -0.535133 0
0.119103 -0.995548 0
0.0367246 -1.09757 0
0.0413709 -1.14971 0
0.00605925 -0.209766 0
0.12317 -1.36342 0
0.166164 -1.07792 0
0.0939339 -0.801315 0
0.174151 -0.64971 0
0.0345747 -1.07397 0
0.0390746 -1.12278 0
0.0335061 -0.225211 0
0.139325 -1.32229 0
0.0733957 -0.852454 0
0.149084 -1.05745 0
0.0328137 -1.05176 0
0.471747 -0.536193 0
0.147095 -1.27974 0
0.0596989 -0.893719 0
0.135014 -1.04098 0
0.0315727 -1.03062 0
0.550516 -0.742904 0
0.0507372 -0.928303 0
0.124318 -1.02738 0
0.207581 -0.914305 0
0.142902 -0.947434 0
0.169824 -0.930999 0
0.124467 -0.963178 0
0.0889459 -1.02438 0
0.0635378 -0.265244 0
0.0633436 -0.606976 0
0.242255 -1.11106 0
0.0754014 -1.20685 0
-0.000794347 -0.211686 0
0.0898958 -1.47221 0
0.112957 -0.978229 0
0.0867202 -1.00802 0
0.0905779 -0.454093 0
0.043704 -0.709999 0
0.213532 -1.07968 0
0.065161 -1.11943 0
0.0729759 -1.17581 0
-0.000164162 -0.21122 0
0.135772 -1.43436 0
0.107425 -0.992799 0
0.032509 -0.784607 0
0.187582 -1.05662 0
0.0609634 -1.09437 0
0.0693454 -1.14658 0
0.00134486 -0.213641 0
0.16797 -1.38624 0
0.0252254 -0.841339 0
0.165584 -1.03968 0
0.0571727 -1.07122 0
-0.0207 -0.226738 0
0.186461 -1.33411 0
0.0204258 -0.886337 0
0.147988 -1.02709 0
0.0540954 -1.04967 0
0.0997672 -0.337773 0
0.0173045 -0.923602 0
0.0519394 -1.02931 0