# vtk DataFile Version 2.0
Unstructured Grid by M++
ASCII
DATASET UNSTRUCTURED_GRID
POINTS 4072 float
  0.562500   0.968750 0
  0.906250   0.500000 0
  0.750000   0.781250 0
  0.953125   0.531250 0
  0.984375   0.875000 0
  0.828125   0.828125 0
  0.828125   0.859375 0
  0.562500   0.765625 0
  0.937500   0.687500 0
  0.968750   0.578125 0
  0.968750   0.781250 0
  0.734375   0.843750 0
  0.968750   0.718750 0
  0.734375   0.796875 0
  0.984375   0.718750 0
  0.984375   0.703125 0
  1.000000   0.750000 0
  0.984375   0.734375 0
  1.000000   0.718750 0
  0.953125   0.859375 0
  0.953125   0.843750 0
  0.937500   0.843750 0
  0.921875   0.640625 0
  0.937500   0.625000 0
  0.671875   0.906250 0
  0.687500   0.890625 0
  1.000000   0.687500 0
  0.828125   0.796875 0
  0.828125   0.750000 0
  0.515625   0.750000 0
  0.828125   0.937500 0
  0.968750   0.625000 0
  0.984375   0.593750 0
  0.984375   0.796875 0
  0.750000   0.859375 0
  0.859375   0.937500 0
  0.828125   0.953125 0
  0.859375   0.781250 0
  0.593750   0.515625 0
  0.984375   0.750000 0
  0.734375   0.828125 0
  1.000000   0.734375 0
  0.750000   0.812500 0
  0.953125   0.562500 0
  0.968750   0.750000 0
  0.734375   0.812500 0
  0.968750   0.546875 0
  0.843750   0.906250 0
  0.875000   0.875000 0
  0.578125   0.640625 0
  0.750000   0.968750 0
  0.984375   0.906250 0
  0.625000   0.515625 0
  0.937500   0.593750 0
  0.781250   0.578125 0
  0.640625   0.968750 0
  0.937500   0.531250 0
  0.937500   0.515625 0
  0.953125   0.500000 0
  0.703125   0.796875 0
  0.859375   0.718750 0
  0.703125   0.765625 0
  0.921875   0.703125 0
  0.687500   0.765625 0
  0.921875   0.500000 0
  0.718750   0.781250 0
  0.734375   0.765625 0
  0.968750   0.687500 0
  0.968750   0.890625 0
  0.734375   0.953125 0
  0.859375   0.828125 0
  0.890625   0.484375 0
  0.843750   0.843750 0
  0.828125   0.765625 0
  0.968750   0.906250 0
  0.796875   0.578125 0
  0.765625   0.828125 0
  0.609375   0.968750 0
  0.734375   0.656250 0
  0.671875   0.875000 0
  0.531250   0.906250 0
  0.546875   0.921875 0
  0.765625   0.656250 0
  0.531250   0.937500 0
  0.531250   0.734375 0
  0.765625   0.671875 0
  0.843750   0.734375 0
  0.843750   0.937500 0
  0.609375   1.000000 0
  0.593750   0.796875 0
  0.828125   0.734375 0
  0.578125   0.812500 0
  0.671875   0.562500 0
  0.781250   0.562500 0
  0.656250   1.000000 0
  0.765625   0.796875 0
  0.656250   0.593750 0
  0.796875   0.562500 0
  0.625000   0.828125 0
  0.625000   0.625000 0
  0.859375   0.562500 0
  0.796875   1.000000 0
  0.890625   0.781250 0
  0.875000   0.781250 0
  0.625000   0.859375 0
  0.843750   0.781250 0
  0.859375   0.765625 0
  0.843750   0.765625 0
  0.859375   0.750000 0
  0.843750   0.750000 0
  0.765625   1.000000 0
  0.781250   0.984375 0
  0.875000   0.625000 0
  0.875000   0.812500 0
  0.640625   0.875000 0
  0.562500   0.906250 0
  0.796875   0.843750 0
  0.796875   0.828125 0
  0.656250   0.906250 0
  0.890625   0.640625 0
  0.875000   0.843750 0
  0.859375   0.843750 0
  0.625000   0.906250 0
  0.812500   0.875000 0
  0.859375   0.515625 0
  0.812500   0.843750 0
  0.796875   0.875000 0
  0.796875   0.859375 0
  0.593750   0.968750 0
  0.859375   0.875000 0
  0.625000   0.937500 0
  0.843750   0.875000 0
  0.593750   0.953125 0
  0.859375   0.859375 0
  0.828125   0.671875 0
  0.890625   0.765625 0
  0.656250   0.828125 0
  0.656250   0.625000 0
  0.890625   0.562500 0
  0.640625   0.843750 0
  0.640625   0.640625 0
  0.875000   0.578125 0
  0.890625   0.750000 0
  0.875000   0.765625 0
  0.562500   0.625000 0
  0.968750   0.500000 0
  0.734375   0.562500 0
  0.937500   0.578125 0
  0.703125   0.640625 0
  0.656250   0.984375 0
  0.640625   1.000000 0
  0.953125   0.578125 0
  0.671875   0.984375 0
  0.906250   0.921875 0
  0.921875   0.687500 0
  0.671875   0.765625 0
  0.687500   0.750000 0
  0.906250   0.484375 0
  0.984375   0.921875 0
  0.734375   1.000000 0
  1.000000   0.906250 0
  0.750000   0.984375 0
  0.828125   0.843750 0
  0.593750   0.906250 0
  0.828125   0.640625 0
  0.843750   0.828125 0
  0.609375   0.890625 0
  0.609375   0.687500 0
  0.843750   0.625000 0
  0.734375   0.875000 0
  0.968750   0.812500 0
  0.859375   0.812500 0
  0.625000   0.875000 0
  0.859375   0.609375 0
  0.843750   0.812500 0
  0.859375   0.796875 0
  0.828125   0.812500 0
  0.593750   0.875000 0
  0.828125   0.609375 0
  0.781250   0.843750 0
  0.515625   0.921875 0
  1.000000   0.781250 0
  0.765625   0.843750 0
  1.000000   0.578125 0
  0.765625   0.968750 0
  0.890625   0.703125 0
  0.656250   0.765625 0
  0.890625   0.500000 0
  0.875000   0.703125 0
  0.937500   0.937500 0
  0.984375   0.578125 0
  0.578125   0.531250 0
  0.875000   0.609375 0
  0.640625   0.671875 0
  0.796875   0.625000 0
  0.859375   0.593750 0
  0.625000   0.656250 0
  0.609375   0.671875 0
  0.593750   0.687500 0
  1.000000   0.562500 0
  0.765625   0.625000 0
  0.656250   0.578125 0
  0.625000   0.546875 0
  0.671875   0.812500 0
  0.906250   0.750000 0
  0.796875   0.546875 0
  0.828125   0.718750 0
  0.578125   0.781250 0
  0.875000   0.656250 0
  0.640625   0.718750 0
  0.734375   0.984375 0
  0.968750   0.921875 0
  0.609375   0.531250 0
  0.953125   0.921875 0
  0.968750   0.937500 0
  0.593750   0.546875 0
  0.765625   0.609375 0
  0.531250   0.671875 0
  0.781250   0.593750 0
  0.546875   0.656250 0
  0.656250   0.656250 0
  0.890625   0.593750 0
  0.656250   0.859375 0
  0.921875   0.671875 0
  0.968750   0.734375 0
  0.718750   0.812500 0
  0.812500   0.984375 0
  0.562500   0.796875 0
  0.750000   0.640625 0
  0.765625   0.687500 0
  0.531250   0.953125 0
  0.687500   0.656250 0
  0.921875   0.593750 0
  1.000000   0.593750 0
  0.750000   0.671875 0
  0.671875   0.750000 0
  0.906250   0.687500 0
  1.000000   0.656250 0
  0.812500   0.562500 0
  0.687500   0.796875 0
  0.921875   0.734375 0
  0.828125   0.546875 0
  1.000000   0.625000 0
  0.953125   0.968750 0
  0.750000   0.906250 0
  0.515625   0.968750 0
  0.812500   0.531250 0
  1.000000   0.796875 0
  0.515625   0.937500 0
  0.750000   0.875000 0
  0.812500   0.703125 0
  0.796875   0.703125 0
  0.812500   0.593750 0
  0.937500   0.562500 0
  0.656250   0.968750 0
  0.890625   0.906250 0
  0.703125   0.625000 0
  0.953125   0.546875 0
  0.671875   0.953125 0
  0.906250   0.890625 0
  0.984375   0.781250 0
  0.796875   0.687500 0
  0.562500   0.953125 0
  0.968750   0.875000 0
  0.718750   0.953125 0
  0.562500   0.937500 0
  0.781250   0.781250 0
  0.953125   0.875000 0
  0.718750   0.937500 0
  0.953125   0.671875 0
  0.796875   0.656250 0
  0.828125   1.000000 0
  0.953125   0.890625 0
  0.703125   0.968750 0
  0.828125   0.625000 0
  0.781250   0.968750 0
  0.781250   0.671875 0
  0.781250   0.875000 0
  0.546875   0.937500 0
  0.906250   0.640625 0
  0.671875   0.703125 0
  0.640625   0.609375 0
  0.875000   0.546875 0
  0.906250   0.625000 0
  0.656250   0.703125 0
  0.656250   0.718750 0
  0.968750   0.531250 0
  0.734375   0.593750 0
  0.984375   0.531250 0
  0.781250   0.546875 0
  0.718750   0.609375 0
  0.906250   0.703125 0
  0.968750   0.593750 0
  0.687500   1.000000 0
  0.921875   0.937500 0
  0.906250   0.765625 0
  0.906250   0.562500 0
  0.718750   0.750000 0
  0.718750   0.546875 0
  0.953125   0.484375 0
  0.796875   0.593750 0
  0.515625   1.000000 0
  0.750000   0.937500 0
  0.906250   0.593750 0
  0.546875   1.000000 0
  0.781250   0.937500 0
  0.828125   0.593750 0
  0.984375   0.609375 0
  0.937500   0.953125 0
  0.796875   0.515625 0
  0.968750   0.609375 0
  0.734375   0.671875 0
  0.906250   0.781250 0
  0.671875   0.843750 0
  0.515625   0.890625 0
  0.687500   0.625000 0
  0.921875   0.562500 0
  0.843750   0.531250 0
  1.000000   0.765625 0
  0.750000   0.843750 0
  0.812500   0.671875 0
  0.687500   0.921875 0
  0.765625   0.515625 0
  0.953125   0.609375 0
  0.921875   0.625000 0
  0.687500   0.687500 0
  0.812500   0.656250 0
  0.812500   0.859375 0
  0.578125   0.921875 0
  0.796875   0.765625 0
  0.890625   0.687500 0
  0.578125   0.750000 0
  0.812500   0.687500 0
  0.578125   0.953125 0
  0.796875   0.796875 0
  0.984375   0.890625 0
  0.734375   0.968750 0
  0.718750   0.640625 0
  0.968750   0.562500 0
  0.687500   0.968750 0
  0.921875   0.906250 0
  0.765625   0.953125 0
  0.812500   0.609375 0
  0.812500   0.734375 0
  0.875000   0.562500 0
  0.968750   0.656250 0
  0.796875   0.734375 0
  0.812500   0.828125 0
  0.578125   0.890625 0
  0.781250   0.687500 0
  0.984375   0.671875 0
  0.578125   0.828125 0
  0.812500   0.765625 0
  0.875000   0.593750 0
  1.000000   0.875000 0
  0.765625   0.937500 0
  0.843750   0.656250 0
  0.843750   0.859375 0
  0.609375   0.921875 0
  0.828125   0.687500 0
  0.937500   0.656250 0
  0.937500   0.859375 0
  0.703125   0.921875 0
  0.984375   0.640625 0
  0.890625   0.468750 0
  0.656250   0.734375 0
  0.890625   0.671875 0
  0.890625   0.875000 0
  0.656250   0.937500 0
  0.578125   0.859375 0
  0.812500   0.796875 0
  0.843750   0.890625 0
  0.609375   0.953125 0
  0.937500   0.875000 0
  0.687500   0.953125 0
  0.843750   0.953125 0
  0.828125   0.703125 0
  0.593750   0.765625 0
  0.937500   0.546875 0
  0.781250   0.531250 0
  0.781250   0.734375 0
  0.546875   0.796875 0
  0.796875   0.718750 0
  0.562500   0.984375 0
  0.984375   0.812500 0
  0.562500   0.812500 0
  0.796875   0.750000 0
  0.562500   0.875000 0
  0.796875   0.812500 0
  0.640625   0.750000 0
  0.875000   0.687500 0
  0.703125   0.671875 0
  0.937500   0.609375 0
  0.562500   0.843750 0
  0.796875   0.781250 0
  0.781250   0.750000 0
  0.781250   0.609375 0
  0.812500   0.953125 0
  0.812500   0.718750 0
  0.953125   0.593750 0
  0.718750   0.656250 0
  0.671875   1.000000 0
  0.796875   0.953125 0
  0.843750   0.609375 0
  0.812500   0.812500 0
  0.812500   0.781250 0
  0.750000   0.953125 0
  0.750000   0.750000 0
  0.984375   0.687500 0
  0.781250   1.000000 0
  0.765625   0.546875 0
  0.765625   0.750000 0
[...]
CELL_DATA 7648
VECTORS vector_value float
-0.0847947 -0.896392 0
-0.0847947 -0.965477 0
-0.125141 -0.925131 0
-0.101517 -0.965477 0
-0.00595302 -1.09487 0
0.0373676 -1.07446 0
-0.00381972 -1.05368 0
-0.067439 -0.990944 0
-0.067439 -1.01832 0
-0.090507 -0.99525 0
-0.0865104 -1.01832 0
0.0182044 -1.01374 0
0.0925595 -1.03117 0
-0.229131 -0.696924 0
0.003498 -0.61588 0
0.0159204 -0.383251 0
-0.074427 -0.895871 0
-0.0422864 -0.928012 0
-0.0441015 -0.928012 0
-0.0422864 -0.866162 0
-0.0235154 -0.947259 0
-0.0132366 -0.957537 0
-0.00740465 -0.957537 0
-0.0132366 -0.93564 0
0 -1.50284 0
0.0767073 -1.34625 0
0 -1.42613 0
0.405142 -1.35641 0
0.405142 -1.08323 0
0.947374 -1.62546 0
0.429119 -1.08323 0
0 -1.4293 0
-0.107125 -1.28556 0
0 -1.53642 0
-0.00929549 -1.20981 0
-0.141019 -1.01332 0
0.0897468 -1.10723 0
0.0660112 -1.0929 0
0.0524836 -1.11663 0
-0.123045 -1.02873 0
0.217004 -1.19852 0
0.314932 -0.978354 0
0.206638 -1.09023 0
0.144372 -1.03264 0
-0.0653799 -1.1706 0
-0.0191952 -1.21679 0
0.0232909 -1.21679 0
-0.0191952 -1.12241 0
0.0138282 -1.1827 0
0.100735 -1.01195 0
0.100735 -1.03293 0
-0.159221 -0.771326 0
-0.143308 -0.612677 0
-0.222286 -0.692349 0
-0.021959 -1.08247 0
-0.00545125 -1.09898 0
-0.040867 -1.09898 0
-0.00545125 -1.10589 0
-0.22298 -0.380333 0
0.0344371 -1.143 0
0.0487418 -1.11606 0
0.0310437 -1.1253 0
-0.398811 -0.516517 0
-0.359164 0 0
-0.875682 0 0
-0.0594152 -1.1108 0
-0.0522376 -1.11797 0
-0.0772411 -1.11797 0
-0.0522376 -1.13399 0
-0.091681 -0.992914 0
-0.0724055 -1.04177 0
-0.0428294 -0.974384 0
-0.0623473 -0.71229 0
-0.0623473 -0.927193 0
-0.169168 -0.820372 0
-0.0705113 -0.927193 0
0.000152034 -1.41054 0
0.000152034 -1.30546 0
0.0232909 -1.3286 0
-0.0653799 -1.30546 0
-0.104128 -1.19037 0
-0.104128 -1.15461 0
-0.0957506 -1.16299 0
-0.112376 -1.15461 0
0.0216121 -0.993685 0
-0.000275736 -1.06071 0
0.0886402 -1.05299 0
-0.156983 -1.03803 0
-0.156983 -1.10021 0
-0.0646581 -1.10021 0
0.0677368 -1.0379 0
0.0867951 -1.06401 0
0.112758 -1.04495 0
0.0722562 -1.13412 0
0.104085 -1.08745 0
0.0291343 -1.1031 0
-0.115367 -1.41566 0
-0.0335933 -1.48516 0
-0.0342765 -1.41497 0
-0.0566602 -1.11235 0
0.917389 -1.60418 0
0.395949 -1.05581 0
0.369019 -1.35293 0
-0.0373271 -1.12998 0
0.00416882 -0.592042 0
0.0014322 -0.696795 0
0.108922 -0.70672 0
-0.0411756 -1.11233 0
0.175683 -0.926987 0
0.050828 -0.898335 0
0.147031 -1.04708 0
0.0558117 -1.13593 0
0.0558117 -1.16437 0
-0.021959 -1.08007 0
-0.053045 -1.08007 0
-0.053045 -1.07798 0
-0.040867 -1.09225 0
-0.0625399 -1.05453 0
-0.0444554 -1.04327 0
-0.0737992 -1.02979 0
0 -1.17647 0
-0.033704 -1.2452 0
-0.0271913 0 0
0.382402 -0.409593 0
-0.0257685 -0.409593 0
0.382402 0 0
-0.0505615 -1.02003 0
-0.4224 -0.59048 0
-0.103287 -1.19392 0
-0.0609326 -1.29078 0
-0.0391682 -1.21569 0
-0.0850013 -1.22524 0
0.0141587 -1.28417 0
-0.4224 0 0
0.114547 -1.28417 0
-0.476696 -0.59048 0
0.0141587 -1.21569 0
0.0416252 -1.0618 0
0.0147569 -1.21629 0
-1.01288 0 0
0.0820416 -1.21629 0
0.0820416 -1.25166 0
0.0608982 -1.19514 0
-0.114835 -1.11692 0
-0.0772216 -0.885653 0
-0.187803 -0.885653 0
-0.187803 -0.868874 0
-0.118088 -0.955368 0
-0.274297 -0.993388 0
0 -1.14775 0
0.015064 -1.13041 0
0 -1.13268 0
0.147408 -1.67974 0
0.0444349 -1.42386 0
0.0419159 -1.27875 0
0.100676 -1.30717 0
-0.226726 -0.750124 0
-0.226726 -0.404151 0
0.0191396 -0.650017 0
0.0259139 -0.404151 0
-0.0299743 -1.11861 0
-0.0209557 -1.11616 0
-0.0324207 -1.10985 0
0.00750992 -1.09949 0
-0.0957506 -1.13798 0
-0.109278 -1.13798 0
-0.109278 -1.12223 0
-0.112376 -1.13489 0
-0.0800764 -1.33457 0
0.0886402 -1.06071 0
-0.115367 -1.29928 0
-1.00964 0 0
-0.438207 -0.571435 0
-0.476187 -0.571435 0
-0.438207 0 0
-0.0642545 -1.07428 0
-0.0608894 -1.09449 0
-0.0440488 -1.07844 0
-0.334972 0 0
-0.334972 -0.603973 0
-0.938945 0 0
-0.386829 -0.603973 0
-0.136685 -1.51875 0
-0.0428294 -1.04177 0
0 -1.65543 0
-0.267527 -0.961598 0
-0.182986 -0.961598 0
-0.182986 -1.01332 0
-0.0232865 -1.10703 0
-0.0123495 -1.11383 0
-0.0139932 -1.11219 0
-0.00407449 -1.11219 0
-0.0139932 -1.10454 0
-0.274297 -0.955368 0
-0.0123495 -1.12046 0
-0.00335847 -1.12046 0
-0.875682 -0.993388 0
-0.00335847 -1.12646 0
0.0150817 -1.09441 0
0.0157217 -1.08219 0
0.0100047 -1.08869 0
0.104458 -0.43943 0
-0.170429 -0.43943 0
-0.170429 -0.820372 0
0.102431 -0.71229 0
-0.476696 -1.0125 0
-1.01288 -1.12666 0
-0.362535 -1.1137 0
-0.219421 -0.750124 0
-0.126619 -0.842927 0
-0.124941 -0.842927 0
-0.126619 -0.650017 0
-0.933899 0 0
-0.378237 -0.555662 0
-0.421189 -0.555662 0
-0.378237 0 0
-0.165884 -0.913593 0
-0.135715 -0.883423 0
0.175683 -0.773481 0
0.0322364 -0.773481 0
-0.128014 -1.06896 0
-0.148802 -1.06896 0
-0.148802 -1.02335 0
-0.151354 -1.06641 0
0.138563 -1.19514 0
0.138563 -1.17094 0
0.219288 -1.25166 0
0.218901 -1.17094 0
0.219288 -1.17055 0
0.317817 -1.17055 0
0.317817 -0.971925 0
0.218901 -1.07164 0
-0.159997 -0.911965 0
-0.0609326 -1.19392 0
-0.268078 -0.803884 0
0.218107 -1.07164 0
0.218107 -0.965771 0
0.224261 -0.971925 0
0.127477 -0.965771 0
0.00336323 -1.20951 0
0.0112535 -1.09512 0
0.0228742 -1.08071 0
0.0275304 -1.06909 0
-0.0911825 -1.06895 0
0.0246906 -1.07556 0
0.021234 -1.07695 0
0.0285352 -1.0804 0
-0.0752356 -1.07535 0
-0.0890657 -1.07535 0
-0.0890657 -1.07105 0
-0.0857865 -1.07863 0
0.0446444 -1.06992 0
0.0391315 -1.08322 0
0.0529841 -1.08873 0
0.182665 -1.10787 0
0.149234 -1.07444 0
0.144418 -1.07444 0
0.149234 -1.11447 0
-0.12896 -1.24327 0
0.0524836 -1.12645 0
-0.12896 -1.32424 0
-0.156403 -1.2968 0
-0.0685429 -1.32424 0
0 -1.71869 0
-0.0939895 -1.1064 0
-0.110839 -1.1064 0
-0.110839 -1.09141 0
-0.109546 -1.1077 0
0.000751056 -1.06598 0
0.0419159 -1.33739 0
0.000751056 -1.0839 0
0.0444349 -1.33991 0
-0.0031365 -1.08001 0
0.130899 -1.33739 0
0.0044298 -1.0839 0
-0.165361 -1.40314 0
0.0970879 -1.15895 0
-0.165361 -1.5233 0
0 -1.68866 0
0 -1.5233 0
-0.124075 -1.11074 0
-0.14556 -1.11074 0
-0.14556 -1.0981 0
-0.137696 -1.11861 0
-0.015024 -1.07826 0
-0.0383541 -1.03796 0
0.0172639 -1.39772 0
0.123871 -1.10723 0
0.0172639 -1.4864 0
0 -1.46914 0
0 -1.4864 0
0.010194 -1.05531 0
-0.398811 -0.868874 0
-0.0103745 -1.12748 0
-0.0972793 -1.07799 0
0.0245136 -1.06963 0
-0.00757736 -1.13028 0
-0.106947 -1.07799 0
-0.11077 -1.07417 0
0.41995 -1.14619 0
-0.161687 -1.05167 0
0.136088 -1.62546 0
-0.0985355 -1.05068 0
0.947374 -0.564972 0
0.412342 -1.10111 0
-0.101118 -1.02231 0
0 -1.51517 0
-0.0436485 -1.10547 0
-0.0793524 -1.1838 0
-0.0942971 -1.14326 0
-0.0164568 -0.747509 0
-0.391877 -1.61039 0
-0.0125399 -1.40026 0
-0.117645 -1.08489 0
0.0202099 -1.20823 0
0.127477 -0.933262 0
-0.0293547 -1.01596 0
-0.0428468 -1.19943 0
-0.156675 -1.07299 0
-0.160834 -1.26605 0
0.142904 -1.03117 0
0.0848106 -1.17498 0
-0.0156724 -1.09444 0
-0.0248548 -0.91058 0
0.123871 -1.08911 0
0.00020524 -0.93564 0
0.0021323 -0.91058 0
-0.00466449 -1.10286 0
-0.0418965 -1.24714 0
-0.0535994 -1.10607 0
0.183752 -1.03264 0
0.0860213 -1.1045 0
0.144418 -1.03293 0
-0.0293188 -0.967845 0
0.0860213 -1.17377 0
0.0365401 -1.60329 0
0.0954913 -1.09068 0
-0.0192182 -1.07105 0
-0.0160164 -1.12241 0
-0.36327 0 0
-0.0962314 -1.08817 0
0.0699931 0 0
0.0021323 -0.86989 0
0.0447492 -0.912507 0
0.00020524 -0.912507 0
0.225642 -0.886651 0
0.225642 -0.833892 0
0.214363 -1.26254 0
0.0554531 -0.716463 0
-0.0645065 -1.06969 0
-0.146104 -1.12395 0
0.0194316 -1.2794 0
-0.156428 -1.10541 0
-0.0915336 -1.38417 0
0.0124231 -1.24442 0
-0.149262 -1.3922 0
-0.0199637 -1.22294 0
-0.357983 -1.08794 0
-0.0430532 -1.12981 0
-0.0114463 -1.25143 0
-0.267527 -0.769833 0
-0.170992 -0.866368 0
-0.0330215 -1.0756 0
-0.172297 -0.866368 0
-0.209795 -0.373396 0
-0.17428 -0.911965 0
-0.148427 -1.14878 0
-0.277789 -0.769833 0
-0.0488571 -1.12998 0
-0.148086 -0.61588 0
0.0473362 -1.14901 0
0.0326388 -1.14901 0
0.17052 -1.02602 0
0.0326388 -1.12645 0
0.0135902 -1.12996 0
0.116635 -1.13412 0
-0.05416 -1.46914 0
-0.121549 -1.09082 0
0.0897468 -1.11663 0
-0.0685429 -1.39772 0
-0.13654 -0.834391 0
0.0322364 -0.7276 0
0.0383884 -1.11015 0
0.0659142 -1.12635 0
-0.107125 -1.4293 0
-0.08952 -1.15083 0
0.092627 -1.14697 0
0.0307043 -1.02026 0
0.0338705 -1.02026 0
0.0307043 -1.06307 0
-0.277789 -0.411016 0
0.0200139 -1.10808 0
0.0195472 -0.968204 0
-0.0257685 -0.663036 0
-0.0525364 -1.07136 0
-0.00955096 -1.07851 0
0.0214402 -0.970097 0
-0.170992 -0.663036 0
0.00806574 0 0
0.00591506 -0.970097 0
-0.22298 -0.692349 0
-0.00757736 -1.13271 0
0.0214402 -0.988768 0
0.0338705 -0.988768 0
0.0735134 -0.965393 0
0.0391942 -0.965393 0
-0.0645706 -1.08615 0
-0.0271913 -0.411016 0
-0.0566602 -1.12089 0
0.003498 -0.395673 0
-0.0835601 -0.993926 0
-0.196736 -1.16288 0
-0.0546366 -0.991107 0
-0.086379 -0.946385 0
0.0310437 -1.14639 0
-0.06347 -1.10752 0
-0.0464441 -1.30728 0
-0.126774 -1.07576 0
-0.105462 -1.08489 0
-0.117645 -1.03508 0
0.261641 -0.834125 0
0.261641 -0.881711 0
-0.0932532 -1.12196 0
0.0973254 -0.717396 0
0.0875772 -0.881711 0
0.189446 -1.17899 0
-0.102532 -1.12612 0
-0.08952 -1.13166 0
-0.0969966 -1.11193 0
0.0890613 -1.19426 0
0.559278 -1.40913 0
-0.0969966 -1.13166 0
0.140085 -1.49975 0
0.559278 -1.16043 0
-0.127122 -1.0923 0
1.15492 -1.75607 0
0.603493 -1.16043 0
0.0848106 -1.2214 0
-0.0393529 -1.01903 0
0.0574909 -1.16269 0
-0.0900856 -1.11884 0
0.0297821 -1.18739 0
-0.0937966 -1.09655 0
0.0179633 -1.08247 0
0.0256614 -1.08071 0
0.00139341 -1.15178 0
-0.0232351 -1.14306 0
-0.118108 -0.812439 0
-0.118108 -0.746125 0
-0.161687 -1.05068 0
0.0686067 -1.13593 0
-0.0985355 -1.05453 0
0.0487418 -1.143 0
-0.119426 -1.02979 0
0 -1.20353 0
0.00935033 -1.19865 0
0 -1.19418 0
-0.450881 -1.21501 0
0.0452979 -1.13635 0
-0.148086 -0.773679 0
-0.30471 -1.06837 0
0.020769 -1.37795 0
-0.011581 -0.956385 0
-0.0196613 -1.1495 0
-0.229131 -0.383251 0
-0.0583953 -1.13043 0
-0.0673481 -1.19256 0
-0.182814 -1.24703 0
-0.107999 -0.859967 0
-0.15273 -1.2593 0
0.0138282 -1.19418 0
-0.933899 -1.06837 0
0.0285724 -1.33383 0
0.00806574 -0.373396 0
0.413304 0 0
0.0344726 -1.1827 0
-0.30471 -1.05167 0
0.119989 -1.39386 0
0.0417922 -1.01195 0
-0.209795 -0.699307 0
0 -1.49475 0
-0.0542664 -1.16083 0
-0.100189 -0.589701 0
0.00729235 -1.21344 0
-0.0138202 -1.37204 0
-0.00930307 -1.0985 0
0.0334299 -1.38789 0
-0.158327 -1.01059 0
-0.00525473 -1.10227 0
-0.158327 -1.07576 0
-0.141956 -0.972287 0
-0.0439936 -1.35627 0
0.0417922 -1.01383 0
-0.0650318 -1.19419 0
-0.0636603 -1.19556 0
0.065626 -1.00585 0
0.121092 -0.980202 0
0.0191396 -0.410925 0
-0.17428 -1.02335 0
-0.268078 -1.00576 0
0.00694765 -0.99707 0
-0.00316724 -1.32534 0
0.369019 -1.05581 0
0.125404 -1.0802 0
0.133944 -1.08874 0
-0.00022193 -0.948292 0
0.267127 -0.926987 0
0.123059 -1.08874 0
0.173788 -1.1577 0
0.133944 -1.06453 0
0.0409134 -0.886651 0
0.105895 -1.19226 0
0.243659 -0.635835 0
-0.182489 -1.20229 0
-0.14151 -1.24327 0
0.121853 -0.774144 0
-0.0625515 -1.15499 0
0.0646934 -1.06868 0
0.134566 -1.06459 0
-0.071864 -1.12832 0
0.0340559 -1.44367 0
-0.105462 -1.11193 0
0.135394 -1.20254 0
-0.0942971 -1.10588 0
-0.0793524 -1.12832 0
0.0124948 -1.06785 0
0.0304134 -1.03613 0
0.0157217 -1.09441 0
-0.00995269 -1.01415 0
0.0434024 -1.05405 0
-0.0452643 -1.16967 0
0.0710217 -1.04106 0
0.148293 -0.774896 0
0 -1.25956 0
-0.0862654 -1.0498 0
-0.0415173 -1.17342 0
0.0830926 -1.25956 0
-0.0981857 -1.0498 0
0.0830926 -1.15979 0
-0.0981857 -1.06204 0
-0.0366767 -1.1532 0
-0.0290487 -1.1108 0
0.00169693 -1.13519 0
0.087768 -1.07123 0
0.0747603 -0.978985 0
-0.234502 -1.18886 0
-0.0625515 -1.17342 0
-0.153372 -1.08794 0
-0.107367 -1.14982 0
-0.236538 -1.11196 0
0.024306 -1.02303 0
-0.359164 -0.516517 0
-0.00234336 -1.13115 0
-0.224011 -1.01059 0
0.0731856 -1.02303 0
-0.0464922 -1.13973 0
0.0377184 -1.4161 0
-0.130046 -1.13778 0
0.14223 -1.66397 0
-0.0170322 -1.14926 0
0.0246647 -1.48937 0
-0.129632 -1.13778 0
-0.0542664 -1.2262 0
0.0581446 -1.04816 0
0.0422519 -1.26396 0
0.109547 -1.04816 0
1.04255 -0.599163 0
-0.133844 -1.03508 0
0.0875772 -0.966658 0
-0.0732453 -1.14048 0
-0.00711783 -0.871963 0
-0.091681 -1.06104 0
0.0973254 -0.871963 0
-0.00711783 -0.990586 0
-0.0767442 -1.16299 0
-0.0103745 -1.12244 0
0.00958199 -1.16777 0
0.121407 -0.916127 0
-0.204934 -0.951893 0
0.0660112 -1.1031 0
-0.0690494 -1.32373 0
-0.0182127 -1.12518 0
0.0804956 -1.25845 0
0.0159887 -1.08219 0
-0.0209557 -1.12244 0
0.100676 -1.27863 0
0.0092228 -1.07543 0
-0.0232351 -1.13811 0
-0.0271873 -1.13416 0
-0.0143332 -1.13416 0
-0.0271873 -1.12797 0
0.135394 -1.13765 0
-0.0956735 -1.14467 0
-0.05416 -1.4121 0
-0.159221 -0.811711 0
0.159222 -1.04639 0
-0.118323 -1.17165 0
-0.0535994 -1.10547 0
0.216981 -0.978354 0
0.216981 -0.852769 0
-0.0196613 -1.24024 0
-0.104438 -1.18553 0
-0.00721052 -1.16176 0
0.0259139 0 0
-0.118215 -1.14853 0
-0.0724055 -1.08243 0
-0.104438 -1.15787 0
-0.108871 -1.13833 0
-0.0937966 -1.06104 0
0.296456 -1.14371 0
0.0269556 -1.09396 0
0.296456 -1.17615 0
-0.122811 -1.04297 0
0.0722562 -1.1364 0
-0.156403 -1.4121 0
-0.200838 -1.15554 0
0.373126 -1.25282 0
0.41995 -1.17615 0
0.083004 -1.29685 0
-0.119062 -1.13401 0
0.114547 -1.35641 0
0.0632008 -0.868986 0
0.0632008 -0.899099 0
-0.0352462 -1.10703 0
-0.0111668 -0.91486 0
-0.113534 -0.80891 0
-0.113534 -0.925131 0
-0.0299743 -1.12518 0
-0.13654 -0.826335 0
-0.0260525 -0.896392 0
-0.0231512 -1.05519 0
-0.119426 -1.00842 0
0.104085 -1.0929 0
0.00544136 -1.38589 0
0.00936522 -0.612677 0
-0.00325841 -1.13519 0
0.0402506 -1.07123 0
0 -1.40026 0
-0.0218015 -1.16967 0
-0.0464922 -1.16284 0
-0.148427 -1.28142 0
-0.143308 -0.771326 0
-0.0143332 -1.13703 0
0.0233038 -1.07084 0
-0.0452643 -1.15613 0
-0.0353433 -1.19556 0
0.249132 -0.556307 0
-0.0447439 -1.08339 0
-0.0793686 -1.07136 0
0.0901235 -1.12196 0
-0.0756965 -1.137 0
0.496732 -1.05367 0
-0.00696456 -1.16014 0
0.0541098 -0.862546 0
-0.142003 -1.05097 0
0.0677368 -1.04495 0
0.00650988 -0.589701 0
-0.0201505 -1.07033 0
-0.047367 -1.14208 0
0.00363226 -1.14208 0
0.173788 -1.26396 0
-0.0986484 -1.37204 0
0.127655 -0.967272 0
0 -1.64828 0
-0.0430917 -0.826335 0
-0.41437 -1.64828 0
-0.00830758 -1.14306 0
0.0280225 -1.07556 0
-0.365331 0 0
-0.0138202 -1.47049 0
-0.0360856 -0.772351 0
-0.159997 -0.70059 0
-0.0702941 -1.28142 0
-0.00325841 -1.13703 0
0.0112394 -1.12258 0
0.0402506 -1.07084 0
0.156507 -1.17498 0
-0.104782 -1.26605 0
-0.0343877 -1.14926 0
0.0313501 -1.07374 0
-0.0474647 -0.883423 0
-0.00986007 -0.631903 0
-0.0428468 -1.16648 0
0.0168102 -1.03053 0
-0.00407449 -1.11975 0
-0.353898 -1.07299 0
-0.0966426 -1.07863 0
-0.0388083 -1.06322 0
-0.0296214 -1.15403 0
0.0177241 -1.0379 0
-0.100189 -0.765003 0
-0.00593682 -1.08071 0
-0.0673817 -1.07105 0
0.0371816 -1.19537 0
0.0303622 -1.09382 0
0.0908319 -1.09063 0
0.00363226 -1.13326 0
0.249132 -0.631903 0
-0.0257214 -1.22525 0
-0.0257764 -1.10454 0
-0.0506515 -0.966004 0
-0.427133 -0.587747 0
0.108922 -0.696795 0
0.0630765 -1.08773 0
0.121407 -0.956394 0
-0.222876 -1.11507 0
-0.136192 -1.13396 0
0.0581751 -0.979358 0
-0.135625 -1.16083 0
0.024306 -1.05531 0
-0.00234336 -1.12748 0
-0.00625444 -1.16284 0
-0.208787 -0.806094 0
-0.130046 -1.14011 0
0.969611 -1.63695 0
0.0224252 -1.08771 0
-0.105829 -1.22617 0
-0.140506 -1.28286 0
-0.0826267 -1.08224 0
0.0854974 -1.10584 0
-0.135715 -1.02862 0
0.0541098 -0.848829 0
0.0256614 -1.1095 0
0.220617 -1.0695 0
0.0164204 -1.14639 0
0.071278 -0.93331 0
-0.0290487 -1.12258 0
0.147684 -0.985978 0
0.415309 -1.36384 0
0.00162816 -1.09742 0
0.206318 -1.37323 0
0.0825772 -1.12196 0
-0.0841777 -1.137 0
0.00586116 -0.794112 0
0.0649328 -0.706983 0
-0.136192 -1.13387 0
0.00841748 -1.1532 0
0.0285724 -1.28854 0
-0.133504 -1.27961 0
-0.0826513 -1.06793 0
-0.159637 -1.18886 0
-0.129632 -1.14441 0
0.189446 -1.23762 0
-0.0900856 -1.09655 0
0.224049 -1.25986 0
-0.00910259 -1.18939 0
0.025932 -1.11173 0
0.13557 -1.15979 0
-0.105189 -1.06204 0
-0.0964401 -1.07079 0
-0.0894907 -1.06209 0
-0.0876887 -1.06029 0
0 -1.41054 0
0.0159887 -1.06963 0
-0.151354 -1.0923 0
-0.140086 -1.15331 0
-0.386829 -1.03803 0
-0.0583953 -1.11916 0
0.325373 -1.17258 0
-0.204934 -1.00842 0
0.0344371 -1.16441 0
-0.0399954 -1.39434 0
-0.231972 -1.20129 0
-0.357983 -1.53642 0
-0.0756965 -1.15499 0
0.0901235 -1.07501 0
-0.0732453 -1.16648 0
0 -1.46132 0
-0.0826513 -1.06893 0
0.214551 -1.36019 0
-0.0803817 -1.04838 0
-0.017639 -1.13399 0
0.0563776 -1.05511 0
-0.0911825 -1.06893 0
-0.0388083 -1.06583 0
0.0446996 -1.15289 0
0.00139341 -1.14432 0
0.130588 -0.772351 0
-0.123963 -1.59473 0
-0.130391 -1.03608 0
-0.119891 -1.24044 0
0.267127 -1.1577 0
0.0447492 -0.906781 0
-0.122558 -1.17194 0
-0.106829 -1.16973 0
-0.169168 -1.02585 0
-0.121917 -0.811711 0
0.0304134 -1.04106 0
-0.0330215 -1.0832 0
0.0431815 -1.13093 0
0.220617 -0.956394 0
-0.0717235 -1.05122 0
-0.0393336 -1.12797 0
-0.121917 -0.747509 0
0.0383884 -1.10589 0
-0.0876887 -1.05122 0
0 -1.01377 0
0.0807835 -1.20254 0
-0.111191 -1.12612 0
0.373126 -1.22297 0
0.0854974 -1.11015 0
-0.0717235 -1.04025 0
-0.159263 -1.27961 0
0.0177482 -1.24024 0
-0.165884 -0.699307 0
0.0334299 -1.49475 0
0.496732 -1.22297 0
0.0434024 -1.06868 0
-0.0382911 -1.07033 0
0.0664123 -1.17647 0
-0.0964401 -1.06029 0
0.130588 -0.750447 0
-0.0918283 -1.08615 0
0.116829 -1.15621 0
0.155833 -1.10787 0
0.0520886 -1.10691 0
0.228971 -0.964748 0
-0.0476664 -1.09954 0
-0.41437 -1.20129 0
0.0520886 -1.08307 0
0.0546744 -1.16287 0
0.0735134 -1.01319 0
0.110365 -1.03567 0
-0.0382911 -1.06135 0
0.0211682 0 0
-0.0855405 -1.16663 0
-0.231972 -1.14601 0
-0.154937 -1.19739 0
0.110628 -1.10691 0
0.0630765 -1.08546 0
-0.250737 -1.14373 0
-0.00773414 -1.06636 0
0.0228742 -1.07374 0
-0.0373271 -1.13811 0
-0.159949 -0.773679 0
-0.0862654 -1.03668 0
-0.0734816 -1.01679 0
-0.0156724 -1.10286 0
0.00305576 -1.00394 0
-0.0861394 -1.02128 0
-0.108871 -1.15787 0
0.0177482 -1.34625 0
0.0767073 -1.50284 0
-0.114742 -1.13833 0
0 -1.56675 0
-0.0962314 -1.07079 0
-0.0768132 -1.06209 0
-0.146967 -1.38088 0
-0.0632534 -1.27583 0
-0.0505058 -1.10856 0
-0.0308157 -0.992135 0
-0.104782 -1.41039 0
-0.0474647 -0.765003 0
0.0146971 -1.12419 0
0.443272 -0.750447 0
-0.0651894 -1.06793 0
0.113692 -1.23819 0
-0.894263 0 0
-0.0975632 -1.06769 0
-0.0680149 -1.11461 0
0.0211682 -0.380333 0
-0.000780968 -1.13271 0
0.183752 -1.10805 0
-0.0719845 -1.12481 0
-0.0556636 -1.05631 0
-0.0932786 -1.07105 0
0.0344726 -1.16437 0
0.0816397 -0.86989 0
0.222296 -1.17433 0
-0.183041 -1.0981 0
-0.142438 -1.14011 0
-0.0258645 -1.34298 0
0.138527 -1.20382 0
0.0092228 -1.08869 0
-0.159637 -1.11692 0
0.00897221 -0.431372 0
-0.0415173 -1.18939 0
-0.0396824 -1.00644 0
-0.234777 -1.38088 0
-0.129176 -0.978245 0
0.145874 -1.14371 0
-0.00986007 -0.746125 0
-0.00830758 -1.14208 0
0.0116393 -0.948557 0
0.0378296 -1.18275 0
0.0686067 -1.10044 0
-0.0556636 -1.04898 0
0.0890613 -1.15621 0
-0.0719962 -0.895871 0
0.0101722 -1.11989 0
-0.0441015 -0.967845 0
-0.0067643 -1.06733 0
-0.121457 -1.14553 0
-0.0651894 -1.06583 0
-0.0546366 -1.01596 0
0.0303622 -1.11173 0
-0.0488571 -1.12089 0
0.0844469 -1.07326 0
0.023947 -0.93331 0
-0.194506 -1.11574 0
0.180042 -1.08405 0
0.103679 -1.26032 0
0.11403 -1.13437 0
-0.122558 -1.22617 0
-0.0768132 -1.05631 0
0.116829 -1.09525 0
-0.0645706 -1.08339 0
0.110365 -1.09525 0
-0.053609 -0.958337 0
0.182665 -1.03619 0
0.443272 -1.08265 0
-0.138713 -1.14441 0
0.109547 -1.06453 0
-0.086379 -0.991107 0
0.025932 -1.13041 0
-0.36327 -0.587747 0
-0.12924 -1.15331 0
0.0183334 -1.4128 0
-0.106561 -1.00626 0
0.10585 -1.42795 0
-0.11226 -1.02776 0
-0.234777 -1.20409 0
0.0546744 -1.1095 0
0.0146971 -1.14432 0
0.0112535 -1.06909 0
-0.0067643 -1.07989 0
-0.0248548 -0.947259 0
-0.00773414 -1.05191 0
0.00694765 -0.978985 0
0.118276 -1.0802 0
-0.000403499 -0.936249 0
-0.0835601 -1.02003 0
0.039505 -1.1253 0
0.0446444 -1.08873 0
-0.0444554 -1.05519 0
0.0432285 -0.860464 0
-0.115944 -1.01838 0
0.0420046 -0.996902 0
-0.0479354 -1.08626 0
-0.0289006 -1.08732 0
0.0747603 -0.985978 0
-0.365331 -0.528932 0
-0.00682685 -1.20981 0
0.0732456 -1.38342 0
-0.121457 -1.17194 0
0.0233038 -1.07695 0
0.0612744 -1.13303 0
-0.951018 -1.11163 0
-0.123018 -1.14553 0
-0.00929549 -1.19441 0
0 -1.54373 0
-0.0648978 -1.03166 0
0.0246906 -1.0804 0