# vtk DataFile Version 2.0
Unstructured Grid by M++
ASCII
DATASET UNSTRUCTURED_GRID
POINTS 81 float
  1.000000   0.625000 0
  0.750000   0.375000 0
  1.000000   0.000000 0
  0.875000   0.875000 0
  0.750000   0.125000 0
  1.000000   1.000000 0
  0.875000   0.250000 0
  0.625000   0.875000 0
  1.000000   0.750000 0
  0.875000   0.000000 0
  1.000000   0.250000 0
  0.625000   0.375000 0
  0.875000   0.500000 0
  0.625000   0.625000 0
  1.000000   0.500000 0
  0.750000   0.500000 0
  0.750000   1.000000 0
  1.000000   0.125000 0
  0.625000   0.250000 0
  0.750000   0.750000 0
  0.625000   0.000000 0
  0.125000   0.375000 0
  0.000000   0.500000 0
  0.125000   0.625000 0
  0.625000   1.000000 0
  1.000000   0.875000 0
  0.875000   0.125000 0
  0.500000   0.250000 0
  0.625000   0.500000 0
  0.250000   0.625000 0
  0.000000   0.625000 0
  0.375000   0.500000 0
  0.375000   0.000000 0
  0.000000   0.125000 0
  0.125000   0.875000 0
  0.875000   1.000000 0
  0.750000   0.250000 0
  0.375000   0.375000 0
  0.250000   0.375000 0
  0.625000   0.750000 0
  0.125000   0.125000 0
  0.500000   0.000000 0
  0.250000   0.875000 0
  0.125000   0.500000 0
  0.500000   0.375000 0
  0.125000   0.000000 0
  0.250000   0.750000 0
  0.250000   0.500000 0
  0.000000   0.875000 0
  0.875000   0.625000 0
  0.500000   0.750000 0
  0.750000   0.625000 0
  0.250000   0.000000 0
  0.375000   0.750000 0
  0.750000   0.875000 0
  0.625000   0.125000 0
  0.250000   0.250000 0
  0.375000   1.000000 0
  0.375000   0.250000 0
  0.000000   0.375000 0
  0.500000   1.000000 0
  0.875000   0.750000 0
  0.750000   0.000000 0
  0.375000   0.125000 0
  0.500000   0.875000 0
  0.000000   0.000000 0
  0.125000   0.750000 0
  0.500000   0.625000 0
  0.125000   0.250000 0
  0.500000   0.125000 0
  0.250000   1.000000 0
  0.250000   0.125000 0
  0.000000   1.000000 0
  0.375000   0.875000 0
  0.000000   0.750000 0
  0.375000   0.625000 0
  0.000000   0.250000 0
  0.125000   1.000000 0
  1.000000   0.375000 0
  0.500000   0.500000 0
  0.875000   0.375000 0
CELLS 64 320
4 56 71 58 63
4 27 58 69 63
4 41 69 32 63
4 76 33 68 40
4 27 44 58 37
4 79 31 44 37
4 56 38 68 21
4 56 58 38 37
4 52 32 71 63
4 47 38 31 37
4 76 68 59 21
4 22 59 43 21
4 65 45 33 40
4 47 43 38 21
4 52 71 45 40
4 56 68 71 40
4 74 30 66 23
4 46 66 29 23
4 22 43 30 23
4 72 48 77 34
4 46 53 42 73
4 50 64 53 73
4 70 42 57 73
4 74 66 48 34
4 46 42 66 34
4 47 29 43 23
4 70 77 42 34
4 60 57 64 73
4 79 67 31 75
4 47 31 29 75
4 50 53 67 75
4 46 29 53 75
4 10 78 6 80
4 36 6 1 80
4 15 1 12 80
4 36 4 6 26
4 14 12 78 80
4 2 17 9 26
4 36 18 4 55
4 15 28 1 11
4 62 4 20 55
4 10 6 17 26
4 27 18 44 11
4 62 9 4 26
4 27 69 18 55
4 36 1 18 11
4 41 20 69 55
4 79 44 28 11
4 16 24 54 7
4 19 54 39 7
4 50 39 64 7
4 8 25 61 3
4 60 64 24 7
4 79 28 67 13
4 19 51 61 49
4 8 61 0 49
4 15 51 28 13
4 19 39 51 13
4 50 67 39 13
4 19 61 54 3
4 14 0 12 49
4 5 35 25 3
4 15 12 51 49
4 16 54 35 3
CELL_TYPES 64
8
8
8
8
8
8
8
8
8
8
8
8
8
8
8
8
8
8
8
8
8
8
8
8
8
8
8
8
8
8
8
8
8
8
8
8
8
8
8
8
8
8
8
8
8
8
8
8
8
8
8
8
8
8
8
8
8
8
8
8
8
8
8
8
CELL_DATA 64
VECTORS vector_value float
0.0309979 -1.45207 0
-0.188992 -0.716215 0
-0.112229 -0.768411 0
0.00275237 -0.060444 0
-0.297275 -0.422191 0
0.0525854 -0.295252 0
0.729649 -1.60914 0
0.292181 -0.810275 0
-0.0904895 -1.56471 0
-0.00641766 -0.349504 0
0.0617535 -0.109438 0
0.284085 -0.87666 0
-0.00321932 -0.0665708 0
0.0382192 -1.21562 0
-0.0288768 -1.16287 0
0.0301332 -1.11727 0
-0.013676 -0.297594 0
-0.155191 -0.608088 0
-0.216033 -0.606686 0
0.299395 -0.627661 0
0.655995 -1.52981 0
0.423527 -1.5678 0
0.203531 -1.09186 0
0.0511206 -0.319203 0
0.315044 -0.693106 0
-0.667978 -1.32024 0
0.586179 -1.2341 0
-0.0793388 -1.26413 0
0.0477956 -0.309616 0
-0.106361 -0.595963 0
0.456865 -1.05706 0
-0.506317 -1.53856 0
0.176597 -0.875821 0
0.851579 -1.66601 0
-0.524976 -2.49695 0
0.58977 -1.29302 0
0.061092 -0.578414 0
0.0181153 -2.53736 0
0.0171873 -0.564657 0
-0.586305 -1.94862 0
0.00154634 -0.309604 0
0.701104 -2.21487 0
-0.617974 -0.404062 0
0.0604535 -1.10482 0
-0.23059 -0.581448 0
0.00892844 -2.10306 0
-0.0716579 -0.485653 0
0.0218684 -0.238987 0
0.686651 -0.941537 0
0.357044 -0.637375 0
0.292523 -0.135307 0
0.0414719 -1.22298 0
0.187253 -0.327472 0
0.261972 -0.291844 0
0.0292464 -2.36593 0
-0.0864726 -1.00865 0
0.250073 -1.03198 0
0.562115 -0.955017 0
0.839273 -0.169095 0
0.323485 -1.89442 0
-0.164879 -0.849573 0
0.0246687 -1.00445 0
-0.118577 -2.9941 0
0.388863 -1.50879 0
