# vtk DataFile Version 2.0
Unstructured Grid by M++
ASCII
DATASET UNSTRUCTURED_GRID
POINTS 81 float
  1.000000   0.625000 0
  0.750000   0.375000 0
  1.000000   0.000000 0
  0.875000   0.875000 0
  0.750000   0.125000 0
  1.000000   1.000000 0
  0.875000   0.250000 0
  0.625000   0.875000 0
  1.000000   0.750000 0
  0.875000   0.000000 0
  1.000000   0.250000 0
  0.625000   0.375000 0
  0.875000   0.500000 0
  0.625000   0.625000 0
  1.000000   0.500000 0
  0.750000   0.500000 0
  0.750000   1.000000 0
  1.000000   0.125000 0
  0.625000   0.250000 0
  0.750000   0.750000 0
  0.625000   0.000000 0
  0.125000   0.375000 0
  0.000000   0.500000 0
  0.125000   0.625000 0
  0.625000   1.000000 0
  1.000000   0.875000 0
  0.875000   0.125000 0
  0.500000   0.250000 0
  0.625000   0.500000 0
  0.250000   0.625000 0
  0.000000   0.625000 0
  0.375000   0.500000 0
  0.375000   0.000000 0
  0.000000   0.125000 0
  0.125000   0.875000 0
  0.875000   1.000000 0
  0.750000   0.250000 0
  0.375000   0.375000 0
  0.250000   0.375000 0
  0.625000   0.750000 0
  0.125000   0.125000 0
  0.500000   0.000000 0
  0.250000   0.875000 0
  0.125000   0.500000 0
  0.500000   0.375000 0
  0.125000   0.000000 0
  0.250000   0.750000 0
  0.250000   0.500000 0
  0.000000   0.875000 0
  0.875000   0.625000 0
  0.500000   0.750000 0
  0.750000   0.625000 0
  0.250000   0.000000 0
  0.375000   0.750000 0
  0.750000   0.875000 0
  0.625000   0.125000 0
  0.250000   0.250000 0
  0.375000   1.000000 0
  0.375000   0.250000 0
  0.000000   0.375000 0
  0.500000   1.000000 0
  0.875000   0.750000 0
  0.750000   0.000000 0
  0.375000   0.125000 0
  0.500000   0.875000 0
  0.000000   0.000000 0
  0.125000   0.750000 0
  0.500000   0.625000 0
  0.125000   0.250000 0
  0.500000   0.125000 0
  0.250000   1.000000 0
  0.250000   0.125000 0
  0.000000   1.000000 0
  0.375000   0.875000 0
  0.000000   0.750000 0
  0.375000   0.625000 0
  0.000000   0.250000 0
  0.125000   1.000000 0
  1.000000   0.375000 0
  0.500000   0.500000 0
  0.875000   0.375000 0
CELLS 64 320
4 56 71 58 63
4 27 58 69 63
4 41 69 32 63
4 76 33 68 40
4 27 44 58 37
4 79 31 44 37
4 56 38 68 21
4 56 58 38 37
4 52 32 71 63
4 47 38 31 37
4 76 68 59 21
4 22 59 43 21
4 65 45 33 40
4 47 43 38 21
4 52 71 45 40
4 56 68 71 40
4 74 30 66 23
4 46 66 29 23
4 22 43 30 23
4 72 48 77 34
4 46 53 42 73
4 50 64 53 73
4 70 42 57 73
4 74 66 48 34
4 46 42 66 34
4 47 29 43 23
4 70 77 42 34
4 60 57 64 73
4 79 67 31 75
4 47 31 29 75
4 50 53 67 75
4 46 29 53 75
4 10 78 6 80
4 36 6 1 80
4 15 1 12 80
4 36 4 6 26
4 14 12 78 80
4 2 17 9 26
4 36 18 4 55
4 15 28 1 11
4 62 4 20 55
4 10 6 17 26
4 27 18 44 11
4 62 9 4 26
4 27 69 18 55
4 36 1 18 11
4 41 20 69 55
4 79 44 28 11
4 16 24 54 7
4 19 54 39 7
4 50 39 64 7
4 8 25 61 3
4 60 64 24 7
4 79 28 67 13
4 19 51 61 49
4 8 61 0 49
4 15 51 28 13
4 19 39 51 13
4 50 67 39 13
4 19 61 54 3
4 14 0 12 49
4 5 35 25 3
4 15 12 51 49
4 16 54 35 3
CELL_TYPES 64
8
8
8
8
8
8
8
8
8
8
8
8
8
8
8
8
8
8
8
8
8
8
8
8
8
8
8
8
8
8
8
8
8
8
8
8
8
8
8
8
8
8
8
8
8
8
8
8
8
8
8
8
8
8
8
8
8
8
8
8
8
8
8
8
CELL_DATA 64
VECTORS vector_value float
-0.589103 -0.963902 0
0.105586 -0.237564 0
0.0589942 -0.200208 0
-1.23424 -2.99754 0
-0.10811 -0.477708 0
-0.789804 -1.09366 0
-1.56702 -2.69061 0
-0.924083 -2.09529 0
-0.00898091 -0.153228 0
-1.12205 -2.87438 0
-0.253611 -0.761811 0
-0.0370387 -0.356352 0
0.000940681 -3.38773 0
-0.255911 -1.34942 0
-0.0610109 -2.02085 0
-1.52321 -1.72577 0
0.627149 -1.55497 0
0.281687 -0.576196 0
0.0971858 -0.361066 0
-0.0941473 -0.918548 0
0.209478 -0.592236 0
-0.17108 -1.55922 0
-0.573942 -0.807745 0
-0.299946 -2.04634 0
0.419409 -0.651056 0
0.71497 -1.62624 0
-0.91724 -1.72089 0
-0.383864 -0.686744 0
-0.967672 -2.03743 0
-0.255341 -1.22005 0
0.103866 -1.5745 0
0.277324 -1.02426 0
0.0369921 -0.188649 0
0.118495 -1.46521 0
0.129864 -1.07936 0
-0.0924412 -1.25621 0
0.00545149 -0.113485 0
-0.0193644 -0.108224 0
-0.0609826 -0.474166 0
0.330371 -0.467426 0
0.00148839 -0.521273 0
-0.0311903 -0.193938 0
0.0401564 -0.144926 0
-0.0345398 -1.31013 0
0.0969615 -0.150908 0
0.0289537 -0.175794 0
0.0659863 -0.29835 0
-0.158007 -0.665914 0
-0.251314 -1.05983 0
-0.100098 -0.660076 0
-0.301879 -0.622622 0
0.0318134 -0.742272 0
-0.413458 -0.894482 0
-0.526773 -1.01969 0
-0.459289 -1.30092 0
-0.231404 -0.425116 0
-0.364738 -0.539709 0
-0.404439 -0.403447 0
-0.203186 -1.14058 0
0.00415015 -1.12618 0
-0.053211 -0.168438 0
-0.188203 -0.617502 0
-0.19268 -1.02737 0
-0.216026 -1.29426 0
