# vtk DataFile Version 2.0
Unstructured Grid by M++
ASCII
DATASET UNSTRUCTURED_GRID
POINTS 81 float
  1.000000   0.625000 0
  0.750000   0.375000 0
  1.000000   0.000000 0
  0.875000   0.875000 0
  0.750000   0.125000 0
  1.000000   1.000000 0
  0.875000   0.250000 0
  0.625000   0.875000 0
  1.000000   0.750000 0
  0.875000   0.000000 0
  1.000000   0.250000 0
  0.625000   0.375000 0
  0.875000   0.500000 0
  0.625000   0.625000 0
  1.000000   0.500000 0
  0.750000   0.500000 0
  0.750000   1.000000 0
  1.000000   0.125000 0
  0.625000   0.250000 0
  0.750000   0.750000 0
  0.625000   0.000000 0
  0.125000   0.375000 0
  0.000000   0.500000 0
  0.125000   0.625000 0
  0.625000   1.000000 0
  1.000000   0.875000 0
  0.875000   0.125000 0
  0.500000   0.250000 0
  0.625000   0.500000 0
  0.250000   0.625000 0
  0.000000   0.625000 0
  0.375000   0.500000 0
  0.375000   0.000000 0
  0.000000   0.125000 0
  0.125000   0.875000 0
  0.875000   1.000000 0
  0.750000   0.250000 0
  0.375000   0.375000 0
  0.250000   0.375000 0
  0.625000   0.750000 0
  0.125000   0.125000 0
  0.500000   0.000000 0
  0.250000   0.875000 0
  0.125000   0.500000 0
  0.500000   0.375000 0
  0.125000   0.000000 0
  0.250000   0.750000 0
  0.250000   0.500000 0
  0.000000   0.875000 0
  0.875000   0.625000 0
  0.500000   0.750000 0
  0.750000   0.625000 0
  0.250000   0.000000 0
  0.375000   0.750000 0
  0.750000   0.875000 0
  0.625000   0.125000 0
  0.250000   0.250000 0
  0.375000   1.000000 0
  0.375000   0.250000 0
  0.000000   0.375000 0
  0.500000   1.000000 0
  0.875000   0.750000 0
  0.750000   0.000000 0
  0.375000   0.125000 0
  0.500000   0.875000 0
  0.000000   0.000000 0
  0.125000   0.750000 0
  0.500000   0.625000 0
  0.125000   0.250000 0
  0.500000   0.125000 0
  0.250000   1.000000 0
  0.250000   0.125000 0
  0.000000   1.000000 0
  0.375000   0.875000 0
  0.000000   0.750000 0
  0.375000   0.625000 0
  0.000000   0.250000 0
  0.125000   1.000000 0
  1.000000   0.375000 0
  0.500000   0.500000 0
  0.875000   0.375000 0
CELLS 64 320
4 56 71 58 63
4 27 58 69 63
4 41 69 32 63
4 76 33 68 40
4 27 44 58 37
4 79 31 44 37
4 56 38 68 21
4 56 58 38 37
4 52 32 71 63
4 47 38 31 37
4 76 68 59 21
4 22 59 43 21
4 65 45 33 40
4 47 43 38 21
4 52 71 45 40
4 56 68 71 40
4 74 30 66 23
4 46 66 29 23
4 22 43 30 23
4 72 48 77 34
4 46 53 42 73
4 50 64 53 73
4 70 42 57 73
4 74 66 48 34
4 46 42 66 34
4 47 29 43 23
4 70 77 42 34
4 60 57 64 73
4 79 67 31 75
4 47 31 29 75
4 50 53 67 75
4 46 29 53 75
4 10 78 6 80
4 36 6 1 80
4 15 1 12 80
4 36 4 6 26
4 14 12 78 80
4 2 17 9 26
4 36 18 4 55
4 15 28 1 11
4 62 4 20 55
4 10 6 17 26
4 27 18 44 11
4 62 9 4 26
4 27 69 18 55
4 36 1 18 11
4 41 20 69 55
4 79 44 28 11
4 16 24 54 7
4 19 54 39 7
4 50 39 64 7
4 8 25 61 3
4 60 64 24 7
4 79 28 67 13
4 19 51 61 49
4 8 61 0 49
4 15 51 28 13
4 19 39 51 13
4 50 67 39 13
4 19 61 54 3
4 14 0 12 49
4 5 35 25 3
4 15 12 51 49
4 16 54 35 3
CELL_TYPES 64
8
8
8
8
8
8
8
8
8
8
8
8
8
8
8
8
8
8
8
8
8
8
8
8
8
8
8
8
8
8
8
8
8
8
8
8
8
8
8
8
8
8
8
8
8
8
8
8
8
8
8
8
8
8
8
8
8
8
8
8
8
8
8
8
CELL_DATA 64
VECTORS vector_value float
-0.156602 -2.98904 0
-0.257086 -1.68181 0
-0.230419 -1.27527 0
-0.0411007 -0.556717 0
-0.0692346 -1.66932 0
-0.239967 -1.3179 0
-0.0466387 -1.39791 0
0.0359461 -2.62453 0
-0.655997 -2.63601 0
0.212778 -2.68628 0
-0.132948 -0.415229 0
0.00331536 -0.19254 0
-0.00522749 -0.579793 0
0.100323 -1.66164 0
-0.510358 -1.91424 0
-0.00570863 -1.05697 0
-0.00416872 -0.566904 0
-0.181938 -1.4184 0
0.132114 -0.298272 0
0.272616 -0.61273 0
-0.492258 -2.03008 0
-0.306041 -1.594 0
0.140802 -1.44216 0
-0.0153676 -0.432854 0
-0.182614 -1.03505 0
0.142982 -1.88093 0
0.561979 -0.919879 0
-0.683454 -1.44554 0
-0.372628 -0.88705 0
-0.315838 -2.3083 0
-0.147249 -1.12107 0
-0.190202 -1.99549 0
-0.0693403 -0.477432 0
-0.244388 -0.754491 0
-0.726949 -0.719826 0
-0.259 -0.492234 0
-0.380843 -1.04752 0
-0.0272437 -0.21424 0
-0.411442 -0.621603 0
-0.219925 -0.100334 0
-0.0967972 -0.308874 0
-0.0692103 -0.29564 0
-0.185483 -0.243263 0
-0.032959 -0.497474 0
-0.22233 -0.305984 0
-0.349567 -0.417827 0
-0.210227 -0.574103 0
-0.332732 -0.273957 0
-0.333441 -0.456594 0
-0.0187244 -0.12356 0
-0.00597974 -0.68493 0
0.087824 -1.51512 0
-0.913828 -1.09382 0
-0.291869 -0.511277 0
0.011715 -0.215824 0
0.0808385 -1.8007 0
-0.178609 -0.152077 0
-0.0414766 -0.2336 0
-0.0649503 -0.648008 0
0.10547 -0.584401 0
-0.263537 -1.72091 0
0.244091 -1.43486 0
-0.184485 -0.241184 0
0.288078 -0.594421 0
