# vtk DataFile Version 2.0
Unstructured Grid by M++
ASCII
DATASET UNSTRUCTURED_GRID
POINTS 16641 float
  0.703125   0.781250 0
  0.632812   0.828125 0
  0.640625   0.835938 0
  0.640625   0.804688 0
  0.648438   0.812500 0
  0.625000   0.820312 0
  0.789062   0.929688 0
  0.796875   0.937500 0
  0.664062   0.945312 0
  0.664062   0.953125 0
  0.664062   0.968750 0
  0.671875   0.960938 0
  0.679688   0.960938 0
  0.679688   0.968750 0
  0.671875   0.953125 0
  0.914062   0.945312 0
  0.914062   0.968750 0
  0.914062   0.960938 0
  0.921875   0.968750 0
  0.929688   0.960938 0
  0.921875   0.945312 0
  0.921875   0.953125 0
  0.929688   0.953125 0
  0.820312   0.898438 0
  0.750000   0.945312 0
  0.570312   0.898438 0
  0.578125   0.898438 0
  0.585938   0.898438 0
  0.523438   0.953125 0
  0.585938   0.890625 0
  0.585938   0.882812 0
  0.515625   0.945312 0
  0.523438   0.945312 0
  0.515625   0.937500 0
  0.570312   0.890625 0
  0.578125   0.890625 0
  0.578125   0.882812 0
  0.570312   0.882812 0
  0.507812   0.937500 0
  0.507812   0.929688 0
  0.976562   0.882812 0
  0.992188   0.898438 0
  0.984375   0.890625 0
  0.968750   0.820312 0
  0.976562   0.828125 0
  0.992188   0.812500 0
  1.000000   0.820312 0
  0.656250   0.960938 0
  0.648438   0.953125 0
  0.640625   0.945312 0
  0.882812   0.968750 0
  0.882812   0.960938 0
  0.890625   0.968750 0
  0.906250   0.960938 0
  0.898438   0.953125 0
  0.906250   0.953125 0
  0.898438   0.945312 0
  0.906250   0.945312 0
  0.882812   0.953125 0
  0.890625   0.953125 0
  0.890625   0.945312 0
  0.882812   0.945312 0
  0.539062   0.695312 0
  0.539062   0.718750 0
  0.531250   0.710938 0
  0.554688   0.710938 0
  0.546875   0.703125 0
  0.570312   0.585938 0
  0.578125   0.585938 0
  0.585938   0.578125 0
  0.585938   0.570312 0
  0.570312   0.578125 0
  0.578125   0.570312 0
  0.757812   0.835938 0
  0.929688   0.968750 0
  0.960938   0.929688 0
  0.960938   0.921875 0
  0.953125   0.914062 0
  0.953125   0.921875 0
  0.601562   0.679688 0
  0.835938   0.976562 0
  0.898438   0.718750 0
  0.835938   0.968750 0
  0.593750   0.906250 0
  0.664062   0.914062 0
  0.601562   0.914062 0
  0.609375   0.921875 0
  0.679688   0.929688 0
  0.679688   0.937500 0
  0.796875   0.968750 0
  0.726562   0.945312 0
  0.742188   0.945312 0
  0.726562   0.890625 0
  0.734375   0.898438 0
  0.742188   0.960938 0
  0.734375   0.960938 0
  0.734375   0.953125 0
  0.726562   0.953125 0
  0.523438   0.820312 0
  0.523438   0.828125 0
  0.640625   0.953125 0
  0.984375   0.664062 0
  0.632812   0.953125 0
  0.921875   0.914062 0
  0.914062   0.906250 0
  0.671875   0.929688 0
  0.671875   0.921875 0
  0.664062   0.921875 0
  0.554688   0.945312 0
  0.914062   0.937500 0
  0.718750   0.882812 0
  0.507812   0.867188 0
  0.570312   0.617188 0
  0.742188   0.968750 0
  0.726562   0.976562 0
  0.726562   0.984375 0
  0.562500   0.898438 0
  0.734375   0.984375 0
  0.734375   0.992188 0
  0.742188   0.992188 0
  0.742188   1.000000 0
  0.742188   0.937500 0
  0.734375   0.937500 0
  0.734375   0.929688 0
  0.726562   0.921875 0
  0.726562   0.929688 0
  0.679688   0.843750 0
  0.921875   0.960938 0
  0.914062   0.953125 0
  0.687500   0.851562 0
  0.562500   0.984375 0
  0.554688   0.984375 0
  0.632812   0.937500 0
  0.625000   0.929688 0
  0.554688   0.921875 0
  0.585938   0.984375 0
  0.648438   0.929688 0
  0.656250   0.937500 0
  0.578125   0.914062 0
  0.585938   0.921875 0
  0.578125   0.921875 0
  0.906250   0.929688 0
  0.898438   0.929688 0
  0.898438   0.937500 0
  0.906250   0.937500 0
  0.554688   0.679688 0
  0.554688   0.687500 0
  0.554688   0.976562 0
  0.570312   0.914062 0
  0.570312   0.906250 0
  0.562500   0.906250 0
  0.531250   0.664062 0
  0.539062   0.664062 0
  0.804688   0.976562 0
  0.890625   0.937500 0
  0.890625   0.929688 0
  0.882812   0.921875 0
  0.875000   0.921875 0
  0.882812   0.937500 0
  0.882812   0.929688 0
  0.875000   0.929688 0
  0.546875   0.679688 0
  0.539062   0.671875 0
  0.531250   0.687500 0
  0.539062   0.617188 0
  0.546875   0.671875 0
  0.554688   0.601562 0
  0.742188   0.906250 0
  0.570312   0.968750 0
  0.578125   0.976562 0
  0.585938   0.976562 0
  0.578125   0.968750 0
  0.640625   0.921875 0
  0.828125   0.968750 0
  0.539062   0.929688 0
  0.890625   0.921875 0
  0.898438   0.921875 0
  0.906250   0.921875 0
  0.945312   1.000000 0
  0.945312   0.992188 0
  0.937500   0.992188 0
  0.953125   0.992188 0
  0.953125   1.000000 0
  0.960938   0.992188 0
  0.960938   1.000000 0
  0.710938   0.992188 0
  0.710938   1.000000 0
  0.718750   1.000000 0
  0.960938   0.984375 0
  0.960938   0.976562 0
  0.539062   0.703125 0
  0.718750   0.976562 0
  0.539062   0.875000 0
  0.695312   0.859375 0
  0.703125   0.867188 0
  0.937500   0.984375 0
  0.945312   0.984375 0
  0.953125   0.984375 0
  0.953125   0.976562 0
  0.937500   0.976562 0
  0.945312   0.976562 0
  0.687500   0.976562 0
  0.695312   0.976562 0
  0.882812   0.562500 0
  0.703125   1.000000 0
  0.703125   0.992188 0
  0.703125   0.984375 0
  0.695312   0.984375 0
  0.523438   0.835938 0
  0.867188   0.546875 0
  0.687500   0.984375 0
  0.695312   1.000000 0
  0.687500   0.992188 0
  0.687500   1.000000 0
  0.585938   0.648438 0
  0.523438   0.898438 0
  0.554688   0.898438 0
  0.835938   0.914062 0
  0.539062   0.882812 0
  0.882812   0.593750 0
  0.750000   0.921875 0
  0.820312   0.937500 0
  0.820312   0.929688 0
  0.914062   0.921875 0
  0.750000   0.773438 0
  0.914062   0.929688 0
  0.632812   0.960938 0
  0.843750   0.976562 0
  0.812500   0.523438 0
  0.843750   0.984375 0
  0.523438   0.632812 0
  0.703125   0.812500 0
  0.648438   0.960938 0
  0.992188   0.671875 0
  0.640625   0.960938 0
  0.929688   0.921875 0
  0.921875   0.921875 0
  0.757812   0.781250 0
  0.921875   0.929688 0
  0.921875   0.937500 0
  0.937500   0.929688 0
  0.929688   0.929688 0
  0.765625   0.757812 0
  0.695312   0.804688 0
  0.812500   0.953125 0
  0.648438   0.898438 0
  0.656250   0.906250 0
  0.820312   1.000000 0
  0.820312   0.992188 0
  0.820312   0.960938 0
  0.906250   0.898438 0
  0.554688   0.648438 0
  0.554688   0.656250 0
  0.578125   0.945312 0
  0.882812   0.734375 0
  0.820312   0.984375 0
  0.960938   0.640625 0
  0.828125   0.937500 0
  0.898438   0.890625 0
  0.554688   0.640625 0
  0.554688   0.632812 0
  0.570312   0.937500 0
  0.562500   0.929688 0
  0.632812   0.882812 0
  0.867188   0.718750 0
  0.875000   0.726562 0
  0.804688   0.968750 0
  0.812500   0.976562 0
  0.562500   0.875000 0
  0.804688   0.945312 0
  0.812500   0.945312 0
  0.953125   0.632812 0
  0.945312   0.625000 0
  0.890625   0.882812 0
  0.882812   0.875000 0
  0.546875   0.632812 0
  0.531250   0.632812 0
  0.539062   0.632812 0
  0.539062   0.625000 0
  0.546875   0.656250 0
  0.546875   0.648438 0
  0.546875   0.640625 0
  0.539062   0.640625 0
  0.531250   0.640625 0
  0.539062   0.656250 0
  0.539062   0.648438 0
  0.531250   0.648438 0
  0.531250   0.656250 0
  0.843750   0.921875 0
  0.835938   0.921875 0
  0.843750   0.929688 0
  0.609375   0.890625 0
  0.851562   0.992188 0
  0.726562   0.835938 0
  0.585938   0.656250 0
  0.585938   0.664062 0
  0.523438   0.906250 0
  0.796875   0.960938 0
  0.789062   0.960938 0
  0.609375   0.648438 0
  0.601562   0.640625 0
  0.601562   0.648438 0
  0.593750   0.648438 0
  0.546875   0.898438 0
  0.539062   0.890625 0
  0.750000   0.914062 0
  0.539062   0.898438 0
  0.531250   0.898438 0
  0.828125   0.976562 0
  0.664062   0.828125 0
  0.726562   0.578125 0
  0.601562   0.882812 0
  0.593750   0.875000 0
  0.734375   0.585938 0
  0.890625   0.742188 0
  0.742188   0.593750 0
  0.671875   0.835938 0
  0.835938   0.984375 0
  0.828125   0.984375 0
  0.828125   0.992188 0
  0.828125   1.000000 0
  0.843750   0.992188 0
  0.835938   0.992188 0
  0.835938   1.000000 0
  0.843750   1.000000 0
  0.570312   0.742188 0
  0.562500   0.742188 0
  0.507812   1.000000 0
  0.546875   0.664062 0
  0.898438   0.804688 0
  0.554688   0.671875 0
  0.890625   0.960938 0
  0.554688   0.664062 0
  0.757812   0.960938 0
  0.507812   0.960938 0
  0.578125   0.648438 0
  0.570312   0.648438 0
  0.562500   0.648438 0
  0.515625   0.898438 0
  0.507812   0.898438 0
  0.523438   0.765625 0
  0.585938   0.515625 0
  0.875000   0.960938 0
  0.898438   0.960938 0
  0.734375   0.812500 0
  0.898438   0.968750 0
  0.750000   0.828125 0
  0.906250   0.968750 0
  0.742188   0.820312 0
  0.507812   0.992188 0
  0.851562   0.703125 0
  0.789062   0.953125 0
  0.867188   0.773438 0
  0.710938   0.593750 0
  0.812500   0.984375 0
  0.812500   0.992188 0
  0.804688   1.000000 0
  0.570312   0.960938 0
  0.562500   0.960938 0
  0.562500   0.953125 0
  0.554688   0.953125 0
  0.640625   0.890625 0
  0.617188   0.742188 0
  0.796875   1.000000 0
  0.796875   0.992188 0
  0.789062   0.992188 0
  0.609375   0.742188 0
  0.687500   0.570312 0
  0.789062   0.984375 0
  0.601562   0.734375 0
  0.593750   0.726562 0
  0.601562   0.726562 0
  0.539062   0.976562 0
  0.867188   0.804688 0
  0.750000   0.953125 0
  0.757812   0.953125 0
  0.570312   0.703125 0
  0.562500   0.695312 0
  0.570312   0.695312 0
  0.687500   0.945312 0
  0.695312   0.945312 0
  0.773438   0.945312 0
  0.781250   0.945312 0
  0.695312   0.921875 0
  0.703125   0.921875 0
  0.585938   0.640625 0
  0.593750   0.640625 0
  0.585938   0.632812 0
  0.593750   0.632812 0
  0.523438   0.890625 0
  0.531250   0.890625 0
  0.523438   0.882812 0
  0.531250   0.882812 0
  0.781250   0.953125 0
  0.765625   0.960938 0
  0.578125   0.703125 0
  0.578125   0.710938 0
  0.585938   0.710938 0
  0.585938   0.718750 0
  0.851562   0.789062 0
  0.710938   0.960938 0
  0.710938   0.968750 0
  0.718750   0.968750 0
  0.562500   0.734375 0
  0.570312   0.734375 0
  0.570312   0.726562 0
  0.562500   0.718750 0
  0.843750   0.695312 0
  0.507812   0.984375 0
  0.578125   0.734375 0
  0.578125   0.742188 0
  0.585938   0.742188 0
[...]
CELL_DATA 16384
VECTORS vector_value float
0.0589565 -2.70045 0
0.0190339 -2.39799 0
0.0225421 -2.42921 0
0.0274641 -2.74296 0
-0.157161 -2.29057 0
-0.0361658 -2.26231 0
-0.0120367 -2.76563 0
-0.110076 -2.69861 0
-0.136324 -1.62282 0
-0.0965658 -1.93339 0
-0.153285 -1.85867 0
-0.173262 -1.61358 0
-0.0349569 -0.286235 0
-0.0341072 -0.271918 0
-0.0346875 -0.262085 0
-0.0384332 -0.287305 0
-0.0368386 -0.264899 0
-0.0349932 -0.266115 0
-0.0320346 -0.28907 0
-0.0391969 -0.282977 0
-0.031357 -0.240984 0
-0.0350216 -0.234495 0
-0.0320518 -0.242132 0
-0.0270266 -0.246495 0
-0.0399647 -0.251248 0
-0.0365371 -0.236006 0
-0.0399303 -0.238622 0
-0.045518 -0.235901 0
-0.018842 -0.275716 0
-0.0263822 -0.278268 0
-0.0316403 -0.271601 0
-0.0318202 -0.288649 0
-0.00348213 -0.248169 0
-0.0148828 -0.267463 0
-0.00514476 -0.266812 0
0.0042326 -0.268345 0
-0.0267631 -0.244897 0
-0.0253727 -0.247239 0
-0.0110149 -0.244928 0
-0.0174548 -0.243623 0
-0.0334674 -0.262534 0
-0.0304907 -0.253571 0
-0.0329736 -0.241271 0
-0.0377881 -0.240854 0
-0.0386233 -0.290808 0
-0.0377905 -0.294871 0
-0.0231955 -0.285205 0
-0.0319254 -0.291761 0
-0.0433993 -0.294431 0
-0.0428242 -0.284421 0
-0.0296734 -0.29295 0
-0.0379635 -0.304896 0
-0.0399381 -0.310245 0
-0.0383973 -0.29622 0
-0.0160492 -0.279799 0
-0.0279337 -0.289095 0
-0.0177886 -0.287186 0
-0.0117296 -0.279786 0
-0.0414664 -0.274444 0
-0.0438786 -0.296223 0
-0.0476469 -0.297081 0
-0.0431771 -0.284015 0
-0.0283298 -0.295739 0
-0.0368306 -0.290467 0
-0.0403093 -0.28391 0
-0.0339298 -0.286252 0
-0.0315677 -0.319836 0
-0.0347403 -0.314201 0
-0.0255689 -0.322563 0
-0.0227616 -0.313238 0
-0.0452682 -0.310116 0
-0.04491 -0.312346 0
-0.0390179 -0.307168 0
-0.0411194 -0.301815 0
-0.0323761 -0.251926 0
-0.0371714 -0.261725 0
-0.033985 -0.240795 0
-0.029049 -0.243608 0
-0.0406564 -0.290074 0
-0.0405185 -0.275407 0
-0.0407949 -0.268999 0
-0.0463541 -0.295034 0
-0.0364161 -0.271427 0
-0.0401382 -0.278809 0
-0.0380096 -0.288533 0
-0.0346464 -0.286753 0
-0.0377539 -0.246337 0
-0.0385681 -0.258297 0
-0.0382229 -0.267729 0
-0.0375614 -0.241615 0
-0.123536 -1.66824 0
-0.145243 -1.66048 0
-0.1575 -1.41469 0
0.117944 -0.783599 0
0.136701 -0.74508 0
0.130496 -0.723701 0
0.104243 -0.755829 0
-0.0626291 -1.59278 0
-0.058255 -1.37771 0
-0.0257036 -1.34129 0
0.125549 -0.777472 0
0.126296 -0.752345 0
0.107049 -0.804439 0
0.0897501 -0.834427 0
-0.142647 -2.02523 0
-0.134036 -1.86996 0
-0.157827 -2.03325 0
0.224383 -0.728913 0
0.164459 -0.731422 0
0.179671 -0.794836 0
0.23365 -0.778385 0
-0.124025 -1.89165 0
0.157559 -0.666245 0
0.15438 -0.678951 0
0.202666 -0.667619 0
0.178279 -0.60782 0
-0.0527134 -0.26769 0
-0.0565734 -0.253266 0
-0.0605027 -0.263993 0
-0.0419483 -0.276095 0
-0.0434245 -0.279129 0
-0.0417823 -0.28229 0
-0.0403925 -0.268901 0
-0.0432994 -0.276926 0
-0.0420626 -0.28247 0
-0.0368761 -0.280329 0
-0.0463981 -0.257388 0
-0.0463831 -0.256585 0
-0.0491195 -0.239527 0
-0.0490342 -0.326211 0
-0.0696083 -0.373123 0
-0.0638344 -0.387073 0
-0.0490707 -0.349507 0
-0.0368823 -0.327418 0
-0.0630011 -0.359684 0
-0.0360501 -0.290825 0
-0.0204883 -0.27742 0
-0.0930852 -0.413807 0
-0.0813892 -0.394904 0
-0.0600811 -0.377932 0
-0.081167 -0.419383 0
-0.0806857 -0.403241 0
-0.0935939 -0.428291 0
-0.0960538 -0.4393 0
-0.0104479 -0.359116 0
-0.0216015 -0.38358 0
-0.00426463 -0.388425 0
-0.0230148 -0.39748 0
-0.0255602 -0.372039 0
-0.0271696 -0.34846 0
-0.0387123 -0.349126 0
-0.00917242 -0.449352 0
-0.0175657 -0.420391 0
-0.0100895 -0.419569 0
-0.0144256 -0.444509 0
-0.0132053 -0.4086 0
-0.0215572 -0.398663 0
-0.012119 -0.435287 0
-0.18718 -0.989334 0
0.256676 -1.01381 0
0.324902 -1.04178 0
0.342986 -1.07255 0
-0.106404 -1.03127 0
-0.146071 -1.01324 0
-0.144092 -1.00908 0
0.160623 -0.957713 0
0.230698 -1.05659 0
0.185966 -1.03183 0
-0.0920548 -1.07417 0
0.179925 -0.891065 0
0.190385 -0.96657 0
0.136673 -0.901329 0
-0.173167 -0.967686 0
-0.116307 -1.02654 0
-0.137702 -0.981043 0
0.239466 -0.968607 0
-0.00955511 -2.45443 0
-0.0468548 -2.59558 0
-0.00950474 -2.63482 0
0.00521266 -2.46131 0
-0.0749547 -2.53525 0
-0.0745302 -2.52874 0
-0.0500855 -2.43271 0
-0.0868497 -2.42154 0
-0.034266 -2.92153 0
-0.0787761 -2.75394 0
-0.0722754 -2.76888 0
-0.0287797 -2.98083 0
-0.0370979 -2.79472 0
-0.0872929 -2.73296 0
-0.0503852 -2.84087 0
-0.0260438 -2.73725 0
0.230395 -0.772386 0
0.174306 -0.773614 0
0.0470869 -0.342612 0
0.0450528 -0.34048 0
0.0435399 -0.33714 0
0.0461804 -0.340873 0
0.263632 -0.858501 0
0.245701 -0.857201 0
0.245968 -0.972234 0
0.0412339 -0.392325 0
0.0402493 -0.350593 0
0.0479227 -0.349125 0
0.0585748 -0.400093 0
0.310331 -0.97875 0
0.0170151 -0.371791 0
0.027218 -0.368971 0
0.0201554 -0.378188 0
0.243073 -0.710191 0
0.271504 -0.755447 0
0.290434 -0.699016 0
-0.0288653 -2.09981 0
-0.068032 -2.09519 0
-0.0252482 -2.17339 0
0.034974 -0.336394 0
0.0344278 -0.340861 0
0.0203703 -0.34774 0
0.0230174 -0.332647 0
0.304621 -0.605437 0
0.291491 -0.584615 0
0.272016 -0.587453 0
-0.0348264 -0.373831 0
-0.0258757 -0.357194 0
0.345339 -0.7056 0
-0.0503118 -0.43445 0
-0.0438316 -0.430472 0
-0.0479845 -0.426698 0
0.279691 -0.584652 0
0.345628 -0.743325 0
0.320431 -0.705352 0
-0.0511487 -0.438013 0
-0.0502414 -0.460238 0
0.25009 -0.57196 0
-0.0414489 -0.382579 0
-0.0475963 -0.390604 0
-0.0528615 -0.411672 0
-0.0432177 -0.383021 0
0.170541 -0.675781 0
0.186531 -0.684832 0
0.190276 -0.662437 0
0.158016 -0.697009 0
0.127574 -0.679816 0
0.173522 -0.741253 0
0.147579 -0.752567 0
0.149829 -0.727733 0
0.255525 -0.686554 0
0.182957 -0.497355 0
0.207694 -0.512743 0
0.146514 -0.457417 0
0.227393 -0.516462 0
0.214591 -0.522472 0
0.237431 -0.513042 0
0.251535 -0.53699 0
0.266637 -0.576636 0
0.190541 -0.509565 0
0.22147 -0.543426 0
0.204333 -0.523363 0
-0.0318764 -0.710603 0
-0.00729708 -0.700216 0
-0.0474705 -0.726139 0
-0.101005 -0.790826 0
-0.0891938 -0.80397 0
-0.102743 -0.807525 0
-0.0266734 -0.626595 0
-0.0350734 -0.678514 0
-0.0666735 -0.62181 0
-0.000242083 -0.672294 0
0.00272006 -2.31262 0
-0.0527504 -2.35497 0
-0.00852337 -2.15667 0
-0.0021573 -2.14839 0
-0.0363698 -2.7877 0
-0.0620057 -2.68481 0
0.00617499 -2.71597 0
-0.0288145 -2.74229 0
-0.0752512 -2.56513 0
-0.0733114 -2.61707 0
-0.0267942 -2.76185 0
-0.0815832 -2.74362 0
-0.0277419 -2.18543 0
-0.0817459 -2.43544 0
-0.0698839 -2.45708 0
-0.0331861 -2.26116 0
0.397122 -0.606758 0
0.438086 -0.61597 0
0.391689 -0.587256 0
-0.102116 -2.13942 0
-0.0356382 -0.333587 0
-0.0347292 -0.32212 0
0.161859 -1.05978 0
-0.0452468 -0.339128 0
0.500582 -1.28579 0
0.000208611 -0.214203 0
0.420517 -1.19478 0
0.0115954 -0.2237 0
-0.0399192 -0.332121 0
0.220217 -1.03366 0
-0.0221999 -0.295294 0
0.20385 -1.08757 0
-0.0303289 -0.31257 0
0.254644 -1.08883 0
-0.278579 -0.965297 0
-0.0370321 -0.701313 0
-0.0284419 -0.69372 0
-0.0262804 -0.687086 0
-0.15202 -1.00528 0
0.0252543 -2.3457 0
0.453115 -0.862851 0
0.0362555 -0.284298 0
0.438368 -0.879188 0
0.0348428 -0.292727 0
0.46902 -0.876136 0
-0.0816228 -0.399036 0
0.0260267 -0.999611 0
0.485949 -0.884996 0
0.0306933 -0.291023 0
0.241282 -0.774357 0
0.0365225 -0.319962 0
0.285306 -0.749328 0
0.0506572 -0.316611 0
0.191752 -0.737489 0
0.0406214 -0.33947 0
-0.059486 -1.13122 0
0.139391 -0.840713 0
0.0234851 -0.323584 0
-0.0566685 -1.10155 0
-0.0559504 -1.12714 0
-0.066137 -1.10842 0
-0.270303 -0.69053 0
-0.0516477 -0.805371 0
0.0659805 -0.345241 0
0.0142475 -1.16827 0
-0.131294 -2.4928 0
0.0105805 -1.10855 0
-0.0510736 -0.242654 0
-0.129117 -2.6719 0
0.0834612 -0.801047 0
0.0302551 -0.338237 0
-0.0443609 -1.08469 0
-0.112229 -2.61825 0
-0.284154 -0.714626 0
-0.26103 -0.682186 0
-0.278175 -0.709673 0
-0.0372178 -1.11394 0
-0.259646 -0.757929 0
-0.0330321 -1.15739 0
-0.0212267 -0.727294 0
0.0892268 -0.401647 0
-0.259942 -0.778394 0
-0.00426169 -0.487442 0
0.282016 -0.513258 0
-0.0188682 -0.50036 0
0.31815 -0.55031 0
0.0241717 -0.973284 0
-0.200539 -2.22865 0
-0.282504 -0.715342 0
0.277468 -0.655674 0
0.346046 -0.787442 0
-0.0107339 -0.326402 0
-0.0183569 -0.448839 0
0.351112 -0.529944 0
-0.57309 -2.00232 0
-0.0347179 -0.485304 0
0.363649 -0.575049 0
-0.0393423 -0.474875 0
-0.0436155 -0.452933 0
0.410627 -0.587522 0
-0.0415742 -1.85982 0
0.301919 -0.806818 0
-0.0624672 -2.07786 0
-0.00021754 -2.10043 0
0.164522 -0.455709 0
0.345563 -0.574425 0
-0.0285147 -0.471755 0
0.139013 -0.70546 0
-0.039144 -0.473404 0
0.00985344 -0.336756 0
-0.0122421 -0.307068 0
-0.0380502 -0.475374 0
0.067066 -0.974466 0
-0.180867 -2.00626 0
-0.28725 -0.698756 0
0.242261 -0.597619 0
0.177783 -0.41223 0
0.159855 -0.521294 0
0.181411 -0.425535 0
0.20347 -0.550416 0
0.166372 -0.432975 0
-0.131993 -1.9983 0
-0.0942511 -1.85752 0
0.160797 -0.483354 0
0.189672 -0.779195 0
-0.120302 -1.79274 0
0.162069 -0.39481 0
0.321933 -0.72883 0
0.121528 -0.554807 0
0.237551 -0.390682 0
0.225263 -0.669935 0
0.20053 -0.378129 0
0.0333663 -0.628947 0
0.130325 -0.492183 0
0.0584184 -0.603599 0
0.116543 -0.443887 0
0.576515 -0.715019 0
0.154512 -2.26586 0
0.61623 -0.792965 0
0.54215 -0.745394 0
-0.0209484 -0.391222 0
0.501705 -0.681291 0
-0.0848229 -2.04132 0
0.298262 -0.522777 0
0.298329 -0.570587 0
0.294235 -0.534908 0
0.0579637 -0.363323 0
0.571877 -0.799651 0
-0.0159139 -0.354769 0
0.612822 -0.784023 0
0.622367 -0.848146 0
-0.0145763 -0.342559 0
0.617057 -0.785583 0
0.647918 -0.794811 0
0.163165 -2.12306 0
0.629366 -0.753451 0
0.612155 -0.791938 0
0.0402926 -2.01667 0
-0.313837 -0.974643 0
-0.194658 -1.51369 0
-0.116672 -2.00293 0
0.321033 -0.513512 0
0.358139 -0.528817 0
0.211347 -0.553731 0
-0.0926023 -1.28102 0
-0.0768598 -1.38842 0
0.140545 -0.472996 0
0.145563 -0.540558 0
0.106538 -0.409799 0
0.118947 -0.488479 0
0.16439 -0.473783 0
0.111755 -0.663455 0
0.0585474 -0.344593 0
0.221938 -0.609344 0
0.058286 -0.329128 0
0.268666 -0.600761 0
0.281718 -0.735819 0
0.052687 -0.311087 0
0.518062 -1.1023 0
0.40841 -0.825254 0
0.506324 -1.02481 0
-0.0331345 -0.231725 0
-0.0311318 -0.225759 0
0.639668 -1.15069 0
-0.0291953 -0.224905 0
0.594686 -1.13581 0
-0.0302105 -0.230909 0
0.598799 -1.12341 0
0.100856 -0.498844 0
-0.0654256 -1.13537 0
0.075018 -0.48238 0
-0.0512145 -1.08908 0
0.0405627 -0.818484 0
-0.0144565 -0.250006 0
0.760616 -1.1711 0
-0.583638 -1.89388 0
-0.01313 -0.239344 0
-0.0310469 -0.233897 0
-0.0299499 -0.235315 0
0.641052 -1.19928 0
-0.0309381 -0.25279 0
0.634356 -1.11566 0
-0.0289899 -0.23206 0
0.668432 -1.15282 0
-0.0304765 -0.238246 0
0.015092 -0.289889 0
-0.0543884 -1.11312 0
-0.0169045 -2.14134 0
0.166919 -0.614087 0
-0.11137 -1.32288 0
0.171872 -0.637849 0
-0.0449096 -1.12686 0
0.188555 -0.638758 0
-0.0925489 -1.40852 0
-0.0475118 -0.415737 0
0.155945 -0.626339 0
0.153442 -0.617801 0
0.142067 -0.62037 0
-0.0792685 -1.15404 0
-0.00573522 -0.272764 0
0.709882 -1.10424 0
0.183391 -0.559682 0
0.014905 -2.04777 0
0.473101 -1.04552 0
0.0010367 -2.0861 0
0.458391 -1.02115 0
-0.393257 -1.72127 0
-0.000956322 -2.19805 0
0.586041 -0.780163 0
0.606654 -0.838269 0
-0.0383399 -0.402096 0
0.630491 -0.88152 0
-0.0331056 -0.372546 0
0.0811911 -1.48163 0
0.0547851 -1.83664 0
0.0441252 -1.8798 0
0.197923 -1.08151 0
-0.154217 -1.99833 0
0.0535831 -1.50462 0
0.600243 -0.981422 0
-0.0447495 -0.307258 0
0.634393 -0.941938 0
-0.0407906 -0.341706 0
0.598243 -0.939658 0
-0.0430525 -0.334198 0
0.167053 -1.37141 0
0.470701 -0.872389 0
0.0233791 -0.28824 0
0.463173 -0.84048 0
0.029793 -0.289271 0
0.595306 -0.876573 0
-0.0425894 -1.93741 0
0.574916 -0.938479 0
-0.0570457 -1.95471 0
0.588976 -0.912072 0
-0.0209647 -1.65451 0
0.492485 -0.808206 0
0.0072871 -0.316233 0
0.46815 -0.746606 0
0.00642135 -0.354897 0
0.194851 -1.94664 0
0.0447956 -2.84399 0
-0.310336 -0.941581 0
-0.0395946 -1.01798 0
0.0296415 -0.688643 0
0.351399 -0.782431 0
0.182067 -0.483732 0
0.462853 -0.950125 0
0.135212 -0.480657 0
0.0329577 -2.3202 0
0.0696952 -2.18311 0
0.0412977 -2.17592 0
0.116583 -2.2689 0
0.12692 -2.21368 0
-0.283895 -0.917101 0
0.0598241 -0.651276 0
-0.282051 -1.03593 0
0.251195 -0.607263 0
0.178892 -0.53103 0
0.0508039 -1.21281 0
-0.0737024 -2.56398 0
0.357738 -0.541962 0
0.0602729 -3.09257 0
0.297782 -0.911003 0
-0.0842885 -1.4914 0
0.132352 -0.452697 0
-0.0647105 -1.56411 0
0.143184 -0.46705 0
-0.0451402 -1.53574 0
-0.0471474 -1.45312 0
0.118411 -0.434459 0
0.387085 -0.547593 0
-0.0209122 -0.4134 0
0.0113259 -1.47052 0
0.382659 -0.567921 0
0.101297 -2.57382 0
0.40149 -0.573271 0
0.229379 -0.457174 0
0.0993231 -0.440584 0
-0.277022 -0.972121 0
0.0263103 -1.07097 0
0.0443324 -0.678761 0
-0.248471 -0.912867 0
0.0703309 -1.15185 0
-0.30737 -1.07222 0
-0.323697 -1.04688 0
-0.373224 -1.18216 0
-0.122761 -1.23115 0
0.10604 -0.696325 0
-0.322418 -0.884578 0
-0.347444 -1.00588 0
0.154089 -0.971173 0
0.542388 -1.07018 0
-0.0514768 -0.913824 0
-0.0153817 -0.857387 0
-0.0123638 -0.634308 0
-0.0242617 -0.697456 0
0.148817 -0.480935 0
-0.0811954 -0.283596 0
0.0473382 -1.04987 0
0.160491 -0.775645 0
0.065339 -1.16492 0
0.166633 -0.865514 0
0.209743 -1.00932 0
-0.0307105 -0.416421 0
0.209131 -1.0213 0
0.0801658 -1.01517 0
0.0437819 -0.924408 0
-0.0696441 -0.260897 0
-0.0206745 -0.953305 0
0.136505 -0.65411 0
-0.0668384 -0.782748 0
-0.060522 -0.270692 0
0.252802 -1.0059 0
0.249004 -1.03767 0
0.281831 -0.990951 0
-0.0476581 -0.885534 0
0.147967 -0.628991 0
0.0179703 -0.756079 0
0.0562211 -0.359251 0
-0.0653739 -0.294224 0
0.301317 -1.07145 0
-0.0547476 -0.438021 0
0.188029 -0.845105 0
-0.0891084 -1.59067 0
0.148029 -0.480184 0
0.235172 -0.904926 0
-0.0694099 -1.4543 0
-0.0751829 -1.42441 0
0.363417 -0.519431 0
-0.00577511 -0.407169 0
-0.113255 -1.82147 0
0.361791 -0.51874 0
0.068683 -2.33597 0
-0.418728 -1.20976 0
-0.1863 -1.17838 0
0.0919117 -0.722564 0
0.546495 -1.01565 0
0.00366462 -0.296966 0
0.476651 -0.954933 0
0.391811 -0.793192 0
0.674094 -1.1773 0
0.114375 -0.599792 0
-0.183992 -0.685513 0
0.345061 -0.506031 0
-0.00560152 -0.429526 0
-0.181313 -0.705019 0
0.165205 -1.16669 0
-0.167422 -0.683045 0
0.118896 -0.408191 0
-0.0159634 -1.95423 0
-0.0929937 -0.57718 0
-0.0998126 -0.634289 0
0.639013 -1.09206 0
0.0925642 -0.698433 0
0.692939 -1.19701 0
0.636372 -1.1266 0
-0.0336577 -0.241617 0
0.609017 -1.07934 0
-0.213202 -0.857212 0
-0.156989 -2.5556 0
0.291382 -0.497418 0
0.5803 -0.996852 0
0.0971983 -0.663351 0
0.614872 -1.02882 0
0.0101672 -0.248977 0
0.549296 -0.944453 0
0.0215229 -0.278263 0
-0.134442 -0.577592 0
0.226671 -1.00126 0
-0.261273 -2.03467 0
-0.154029 -0.633999 0
0.688971 -1.23442 0
0.109708 -0.490657 0
0.672919 -1.2016 0
-0.0375985 -0.232786 0
0.637327 -1.15672 0
0.138756 -0.451892 0
0.675606 -1.19123 0
0.129474 -0.452463 0
-0.0663023 -0.570693 0
-0.0414749 -0.59122 0
0.0512237 -0.327275 0
0.621674 -1.13822 0
0.645999 -1.16494 0
0.614795 -1.14097 0
0.146888 -0.563324 0
0.611049 -1.1184 0
0.323939 -0.53593 0
-0.291884 -0.745959 0
-0.256327 -2.21034 0
0.733616 -1.14383 0
0.000671443 -0.22975 0
0.790442 -1.21381 0
0.103942 -0.504931 0
0.770168 -1.24112 0
0.000775112 -0.226287 0
-0.265216 -0.789217 0
-0.244938 -2.31488 0
-0.247343 -0.828226 0
-0.250565 -2.32808 0
-0.0341986 -2.27291 0
0.313272 -1.10628 0
-0.227679 -0.841938 0
-0.194234 -2.42748 0
-0.261585 -0.925128 0
0.000438834 -1.02248 0
0.0992809 -0.573509 0
0.70954 -1.10125 0
0.102473 -0.579944 0
0.11264 -0.666325 0
0.325764 -0.511552 0
-0.00697583 -0.479191 0
-0.317268 -0.821083 0
-0.275265 -1.92642 0
-0.292297 -0.862798 0
0.0598088 -0.538421 0
0.0170937 -1.01621 0
-0.174724 -1.797 0
0.0209793 -0.247355 0
-0.00114485 -0.273786 0
0.236494 -1.1075 0
0.00876631 -0.255254 0
-0.198397 -2.37984 0
0.00968125 -2.8005 0
-0.269219 -2.31584 0
-0.237824 -0.853243 0
-0.169125 -2.516 0
-0.186565 -0.840119 0
0.0233877 -0.583305 0
0.0360357 -0.542393 0
0.262288 -0.452352 0
0.0710837 -0.568565 0
0.23849 -0.436756 0
0.626424 -0.874854 0
0.0787311 -1.53053 0
-0.284699 -1.01028 0
0.624367 -0.939523 0
0.0762435 -1.17893 0
0.516479 -1.0129 0
0.14567 -0.391172 0
0.450834 -0.878046 0
0.503703 -0.942289 0
-0.00581354 -0.276755 0
0.573417 -1.08375 0
-0.0113216 -0.277822 0
0.0824273 -0.493589 0
0.269669 -0.422442 0
0.0518416 -0.431724 0
0.301597 -0.467236 0
0.00884684 -0.227219 0
0.663936 -1.13538 0
0.642743 -1.01518 0
0.0875221 -1.01935 0
0.61487 -0.980897 0
0.0744997 -1.02372 0
-0.167729 -1.20754 0
0.251901 -0.619301 0
0.302551 -0.654841 0
0.27193 -0.613877 0
0.160431 -0.419542 0
0.246956 -0.594939 0
-0.107253 -1.0789 0
0.655918 -0.952346 0
0.0574936 -1.20878 0
-0.214203 -1.12218 0
-0.17504 -0.98292 0
0.644043 -0.920588 0
-0.0360065 -0.373884 0
0.386358 -0.810277 0
0.13964 -0.384346 0
0.468017 -0.946993 0
0.146289 -0.375942 0
0.394943 -0.862104 0
-0.370274 -1.29935 0
0.631785 -1.03955 0
-0.0204516 -0.298525 0
-0.333304 -1.26438 0
0.415757 -0.860055 0
0.106217 -0.439469 0
0.367701 -0.750027 0
-0.177048 -1.11643 0
-0.0188501 -0.48747 0
0.119849 -0.74601 0
0.164296 -1.03292 0
-0.283638 -0.755411 0
-0.408605 -1.15982 0
0.137504 -0.743962 0
0.13079 -0.413171 0
0.11402 -0.432761 0
0.558988 -1.04031 0
0.525879 -0.880641 0
-0.0617482 -0.433711 0
0.550161 -0.833047 0
-0.0890643 -2.3208 0
0.513249 -0.842283 0
-0.053255 -0.428775 0
0.472035 -0.881459 0
0.549399 -0.828971 0
-0.110675 -2.51309 0
0.558244 -0.790607 0
-0.0338755 -2.25731 0
0.601972 -0.801928 0
0.589023 -0.808877 0
-0.0518684 -2.4033 0
0.0716165 -2.18328 0
0.42182 -0.631803 0
0.00563538 -0.346943 0
0.386874 -0.621997 0
0.36494 -0.537828 0
0.466795 -0.701934 0
-0.0104413 -0.384874 0
0.125108 -2.02705 0
0.417407 -0.613938 0
-0.0155921 -0.378693 0
0.423305 -0.632886 0
-0.0235825 -0.386737 0
0.0698922 -1.75301 0
0.448621 -0.730244 0
0.0158687 -0.343812 0
0.165583 -1.55906 0
0.0981656 -1.51962 0
-0.463306 -1.70408 0
0.0898325 -0.476878 0
0.0619098 -0.542503 0
0.325357 -0.709825 0
0.110208 -0.463283 0
0.288198 -0.676091 0
0.13698 -0.457174 0
0.118989 -0.50669 0
0.223604 -0.582927 0
0.118649 -0.4267 0
0.130268 -0.746148 0
0.0395534 -0.349827 0
-0.227415 -0.895893 0
0.168931 -0.467464 0
-0.213998 -1.05562 0
0.283445 -0.95714 0
0.0207823 -0.294051 0
0.0202064 -0.322091 0
0.0850023 -0.839622 0
0.0270966 -0.320861 0
-0.0334295 -0.260529 0
0.615581 -1.044 0
-0.169374 -1.07075 0
-0.0381909 -0.273653 0
-0.0436821 -0.305495 0
0.566744 -0.988885 0
-0.00686886 -0.778289 0
0.195752 -0.79505 0
0.0307645 -0.322472 0
-0.0434563 -0.370897 0
-0.0535896 -0.383053 0
0.0172834 -0.284346 0
0.534994 -0.951556 0
0.0209914 -0.290067 0
0.501551 -0.925193 0
-0.00237585 -0.328024 0
0.514434 -0.794841 0
0.30985 -1.03997 0
-0.00828214 -0.32477 0
-0.206825 -0.635346 0
0.305811 -0.606298 0
0.0223785 -1.22436 0
0.0639346 -0.579074 0
0.230962 -0.593087 0
0.0362527 -0.588965 0
0.180792 -0.541594 0
0.0477827 -0.584404 0
0.261224 -0.649182 0
0.05105 -0.567932 0
0.161541 -0.500829 0
0.109436 -0.556831 0
-0.0743871 -1.30528 0
-0.161613 -0.913077 0
0.281525 -1.05783 0
-0.185793 -0.932001 0
0.123393 -0.57402 0
0.235604 -1.03099 0
-0.159299 -0.954118 0
0.421114 -0.897083 0
0.0284646 -0.296266 0
0.412862 -1.00323 0
0.0234365 -0.277663 0
-0.239405 -0.70223 0
0.297594 -0.834884 0
0.364903 -0.900152 0
0.0224311 -0.299799 0
-0.23432 -0.917516 0
0.473281 -1.04769 0
0.0135622 -0.253413 0
0.566744 -1.11902 0
0.114056 -2.59756 0
0.00615004 -0.240323 0
0.173495 -1.57257 0
-0.410912 -1.10772 0
0.581546 -1.07982 0
0.599592 -1.13536 0
0.00725035 -0.26942 0
-0.0491897 -0.623829 0
0.544235 -1.06642 0
0.0250017 -0.459684 0
0.573802 -1.15338 0
0.01299 -0.272278 0
-0.438289 -1.27625 0
-0.156888 -1.16625 0
0.078099 -0.751489 0
-0.0448999 -0.577843 0
0.566412 -1.0776 0
0.0169972 -0.507755 0
0.592077 -1.05876 0
0.0413629 -0.481875 0
-0.403704 -1.10745 0
0.155658 -0.819717 0
0.600373 -1.12361 0
0.612372 -1.07197 0
0.0895041 -0.422631 0
0.600606 -1.07462 0
-0.00450919 -0.267855 0
0.578542 -1.04924 0
-0.0404354 -0.282905 0
0.620919 -1.09799 0
-0.046134 -0.287843 0
0.617236 -1.13408 0
-0.0429463 -0.257522 0
0.612923 -1.15169 0
0.129797 -0.797276 0
0.60009 -1.15569 0
-0.0473945 -0.267402 0
0.576201 -1.10981 0
0.0768752 -1.00679 0
0.527643 -1.13673 0
0.0641785 -1.02105 0
0.53897 -1.16301 0
0.0742655 -0.792128 0
0.120134 -1.02755 0
0.110452 -0.980914 0
-0.327625 -1.13635 0
0.059098 -1.00101 0
0.189664 -0.498195 0
-0.408066 -1.2563 0