# vtk DataFile Version 2.0
Unstructured Grid by M++
ASCII
DATASET UNSTRUCTURED_GRID
POINTS 1089 float
  0.718750   0.687500 0
  0.750000   0.687500 0
  0.718750   0.656250 0
  0.750000   0.718750 0
  0.625000   0.562500 0
  0.625000   0.593750 0
  0.656250   0.593750 0
  0.750000   0.750000 0
  0.687500   0.656250 0
  0.687500   0.625000 0
  0.656250   0.625000 0
  0.906250   0.593750 0
  1.000000   0.968750 0
  0.750000   0.968750 0
  0.718750   0.968750 0
  0.718750   1.000000 0
  0.750000   1.000000 0
  0.906250   0.906250 0
  0.843750   0.531250 0
  0.656250   0.937500 0
  0.656250   0.906250 0
  0.562500   0.812500 0
  0.562500   0.843750 0
  0.593750   0.875000 0
  0.593750   0.843750 0
  0.812500   0.718750 0
  0.625000   0.625000 0
  0.968750   0.875000 0
  0.531250   0.875000 0
  0.625000   0.937500 0
  0.562500   0.562500 0
  0.906250   0.812500 0
  0.531250   0.781250 0
  0.562500   0.593750 0
  0.906250   0.843750 0
  0.625000   0.656250 0
  0.968750   0.906250 0
  0.687500   0.968750 0
  0.812500   0.812500 0
  0.687500   1.000000 0
  0.687500   0.687500 0
  0.937500   0.843750 0
  0.593750   0.593750 0
  1.000000   0.625000 0
  0.968750   0.593750 0
  0.906250   0.875000 0
  0.968750   0.625000 0
  0.625000   0.875000 0
  0.875000   0.875000 0
  0.625000   0.906250 0
  0.875000   0.843750 0
  0.531250   0.812500 0
  0.968750   0.562500 0
  0.593750   0.625000 0
  0.937500   0.875000 0
  0.656250   0.687500 0
  1.000000   0.937500 0
  0.875000   0.562500 0
  0.687500   0.937500 0
  0.937500   0.625000 0
  0.812500   0.781250 0
  0.937500   0.562500 0
  0.875000   0.781250 0
  0.531250   0.531250 0
  0.718750   0.937500 0
  0.968750   0.937500 0
  0.906250   0.562500 0
  0.843750   0.781250 0
  0.593750   0.562500 0
  1.000000   0.906250 0
  0.656250   0.656250 0
  0.937500   0.906250 0
  0.875000   0.531250 0
  0.812500   0.750000 0
  0.656250   0.968750 0
  0.937500   0.531250 0
  0.843750   0.812500 0
  0.906250   0.531250 0
  0.843750   0.750000 0
  0.937500   0.593750 0
  0.875000   0.812500 0
  0.531250   0.562500 0
  1.000000   0.593750 0
  0.562500   0.906250 0
  0.562500   0.531250 0
  0.593750   0.906250 0
  0.593750   0.937500 0
  0.562500   0.875000 0
  0.781250   0.750000 0
  0.781250   0.781250 0
  0.593750   0.531250 0
  1.000000   0.687500 0
  0.531250   0.843750 0
  0.718750   0.718750 0
  0.781250   0.718750 0
  0.781250   0.687500 0
  1.000000   0.656250 0
  0.968750   0.656250 0
  0.843750   0.843750 0
  0.781250   1.000000 0
  0.656250   0.312500 0
  0.531250   0.250000 0
  0.875000   0.500000 0
  0.531250   0.218750 0
  0.875000   0.468750 0
  0.531250   0.156250 0
  0.593750   0.812500 0
  0.093750   0.562500 0
  0.656250   0.562500 0
  0.156250   0.312500 0
  0.031250   0.812500 0
  0.125000   1.000000 0
  0.312500   0.250000 0
  0.250000   0.500000 0
  0.375000   0.000000 0
  0.187500   0.750000 0
  0.812500   0.906250 0
  0.312500   0.656250 0
  0.250000   0.906250 0
  0.875000   0.656250 0
  0.375000   0.406250 0
  0.750000   0.843750 0
  0.250000   0.593750 0
  0.187500   0.843750 0
  0.812500   0.593750 0
  0.312500   0.343750 0
  0.625000   0.968750 0
  0.125000   0.718750 0
  0.687500   0.718750 0
  0.187500   0.468750 0
  0.062500   0.968750 0
  0.125000   0.656250 0
  0.187500   0.406250 0
  0.250000   0.156250 0
  0.062500   0.906250 0
  0.468750   0.906250 0
  0.656250   0.156250 0
  0.468750   0.812500 0
  0.593750   0.312500 0
  0.656250   0.062500 0
  0.625000   0.812500 0
  0.125000   0.562500 0
  0.687500   0.562500 0
  0.187500   0.312500 0
  0.062500   0.812500 0
  0.562500   0.937500 0
  0.062500   0.687500 0
  0.625000   0.687500 0
  0.125000   0.437500 0
  0.000000   0.937500 0
  0.062500   0.625000 0
  0.187500   0.125000 0
  0.125000   0.375000 0
  0.000000   0.875000 0
  0.406250   0.875000 0
  0.468750   0.625000 0
  0.593750   0.125000 0
  0.812500   0.937500 0
  0.312500   0.687500 0
  0.250000   0.937500 0
  0.875000   0.687500 0
  0.375000   0.437500 0
  0.750000   0.875000 0
  0.250000   0.625000 0
  0.187500   0.875000 0
  0.812500   0.625000 0
  0.312500   0.375000 0
  0.468750   0.781250 0
  0.593750   0.281250 0
  0.656250   0.031250 0
  0.625000   0.781250 0
  0.125000   0.531250 0
  0.062500   0.781250 0
  0.687500   0.531250 0
  0.187500   0.281250 0
  0.500000   0.812500 0
  0.687500   0.062500 0
  0.625000   0.312500 0
  0.656250   0.812500 0
  0.156250   0.562500 0
  0.718750   0.562500 0
  0.218750   0.312500 0
  0.093750   0.812500 0
  0.437500   0.968750 0
  0.625000   0.218750 0
  0.500000   0.781250 0
  0.687500   0.031250 0
  0.625000   0.281250 0
  0.656250   0.781250 0
  0.156250   0.531250 0
  0.718750   0.531250 0
  0.218750   0.281250 0
  0.093750   0.781250 0
  0.062500   0.562500 0
  0.125000   0.312500 0
  0.187500   0.062500 0
  0.000000   0.812500 0
  0.406250   0.812500 0
  0.968750   0.812500 0
  0.468750   0.562500 0
  0.593750   0.062500 0
  0.218750   0.687500 0
  0.156250   0.937500 0
  0.281250   0.437500 0
  0.062500   0.843750 0
  0.687500   0.593750 0
  0.187500   0.343750 0
  0.625000   0.843750 0
  0.125000   0.593750 0
  0.312500   0.843750 0
  0.437500   0.343750 0
  0.500000   0.093750 0
  0.375000   0.593750 0
  0.312500   0.906250 0
  0.937500   0.656250 0
  0.437500   0.406250 0
  0.875000   0.906250 0
  0.375000   0.656250 0
  0.062500   0.875000 0
  0.187500   0.375000 0
  0.250000   0.125000 0
  0.125000   0.625000 0
  0.093750   0.656250 0
  0.031250   0.906250 0
  0.218750   0.156250 0
  0.156250   0.406250 0
  0.593750   0.968750 0
  0.093750   0.718750 0
  0.031250   0.968750 0
  0.656250   0.718750 0
  0.156250   0.468750 0
  0.437500   0.906250 0
  0.625000   0.156250 0
  0.718750   0.812500 0
  0.218750   0.562500 0
  0.781250   0.562500 0
  0.281250   0.312500 0
  0.156250   0.812500 0
  0.062500   0.656250 0
  0.000000   0.906250 0
  0.187500   0.156250 0
  0.125000   0.406250 0
  0.562500   0.968750 0
  0.062500   0.718750 0
  0.000000   0.968750 0
  0.625000   0.718750 0
  0.125000   0.468750 0
  0.406250   0.968750 0
  0.968750   0.968750 0
  0.468750   0.718750 0
  0.531250   0.468750 0
  0.593750   0.218750 0
  0.406250   0.906250 0
  0.468750   0.656250 0
  0.593750   0.156250 0
  0.687500   0.781250 0
  0.187500   0.531250 0
  0.750000   0.531250 0
  0.250000   0.281250 0
  0.125000   0.781250 0
  0.781250   0.906250 0
  0.281250   0.656250 0
  0.218750   0.906250 0
  0.843750   0.656250 0
  0.343750   0.406250 0
  0.750000   0.906250 0
  0.250000   0.656250 0
  0.187500   0.906250 0
  0.812500   0.656250 0
  0.312500   0.406250 0
  0.875000   0.406250 0
  0.375000   0.156250 0
  0.812500   0.968750 0
  0.312500   0.718750 0
  0.250000   0.968750 0
  0.875000   0.718750 0
  0.375000   0.468750 0
  0.781250   0.937500 0
  0.281250   0.687500 0
  0.218750   0.937500 0
  0.843750   0.687500 0
  0.343750   0.437500 0
  0.718750   0.875000 0
  0.218750   0.625000 0
  0.156250   0.875000 0
  0.781250   0.625000 0
  0.281250   0.375000 0
  0.750000   0.937500 0
  0.250000   0.687500 0
  0.187500   0.937500 0
  0.875000   0.437500 0
  0.375000   0.187500 0
  0.812500   0.687500 0
  0.312500   0.437500 0
  0.687500   0.875000 0
  0.187500   0.625000 0
  0.750000   0.625000 0
  0.250000   0.375000 0
  0.125000   0.875000 0
  0.812500   1.000000 0
  0.312500   0.750000 0
  0.250000   1.000000 0
  0.875000   0.750000 0
  0.375000   0.500000 0
  0.562500   1.000000 0
  0.062500   0.750000 0
  0.000000   1.000000 0
  0.625000   0.750000 0
  0.125000   0.500000 0
  0.406250   1.000000 0
  0.968750   1.000000 0
  0.468750   0.750000 0
  0.656250   0.000000 0
  0.531250   0.500000 0
  0.593750   0.250000 0
  0.406250   0.937500 0
  0.468750   0.687500 0
  0.593750   0.187500 0
  0.687500   0.812500 0
  0.187500   0.562500 0
  0.750000   0.562500 0
  0.250000   0.312500 0
  0.125000   0.812500 0
  0.437500   0.843750 0
  0.625000   0.093750 0
  0.093750   0.593750 0
  0.156250   0.343750 0
  0.218750   0.093750 0
  0.031250   0.843750 0
  0.281250   0.937500 0
  0.843750   0.937500 0
  0.343750   0.687500 0
  0.906250   0.687500 0
  0.406250   0.437500 0
  0.156250   0.968750 0
  0.218750   0.718750 0
  0.281250   0.468750 0
  0.343750   0.218750 0
  0.156250   1.000000 0
  0.406250   0.000000 0
  0.281250   0.500000 0
  0.343750   0.250000 0
  0.218750   0.750000 0
  0.187500   0.968750 0
  0.250000   0.718750 0
  0.375000   0.218750 0
  0.312500   0.468750 0
  0.187500   1.000000 0
  0.312500   0.500000 0
  0.375000   0.250000 0
  0.437500   0.000000 0
  0.250000   0.750000 0
  0.031250   0.781250 0
  0.656250   0.531250 0
  0.156250   0.281250 0
  0.593750   0.781250 0
  0.093750   0.531250 0
  0.000000   0.781250 0
  0.625000   0.531250 0
  0.125000   0.281250 0
  0.562500   0.781250 0
  0.062500   0.531250 0
  0.781250   0.968750 0
  0.281250   0.718750 0
  0.218750   0.968750 0
  0.843750   0.718750 0
  0.343750   0.468750 0
  0.281250   0.968750 0
  0.843750   0.968750 0
  0.343750   0.718750 0
  0.906250   0.718750 0
  0.406250   0.468750 0
  0.281250   1.000000 0
  0.906250   0.750000 0
  0.406250   0.500000 0
  0.843750   1.000000 0
  0.343750   0.750000 0
  0.531250   0.000000 0
  0.718750   0.843750 0
  0.218750   0.593750 0
  0.156250   0.843750 0
  0.781250   0.593750 0
  0.281250   0.343750 0
  0.687500   0.843750 0
  0.187500   0.593750 0
  0.750000   0.593750 0
  0.250000   0.343750 0
  0.125000   0.843750 0
  0.218750   0.875000 0
  0.843750   0.625000 0
  0.343750   0.375000 0
  0.781250   0.875000 0
  0.281250   0.625000 0
  0.156250   0.906250 0
  0.781250   0.656250 0
  0.281250   0.406250 0
  0.718750   0.906250 0
  0.218750   0.656250 0
  0.031250   1.000000 0
  0.656250   0.750000 0
  0.156250   0.500000 0
  0.593750   1.000000 0
  0.093750   0.750000 0
  0.218750   1.000000 0
  0.343750   0.500000 0
  0.468750   0.000000 0
  0.406250   0.250000 0
  0.281250   0.750000 0
  0.593750   0.406250 0
  0.093750   0.156250 0
  0.531250   0.656250 0
  0.031250   0.406250 0
[...]
CELL_DATA 1024
VECTORS vector_value float
0.391236 -0.501559 0
0.340755 -0.442141 0
0.317444 -0.449927 0
-0.487947 -1.21667 0
-0.53451 -1.258 0
-0.486913 -1.22875 0
0.141235 -1.07981 0
0.24345 -1.60171 0
0.0888065 -1.64696 0
0.244757 -0.902388 0
0.283527 -0.763088 0
-0.0779307 -1.59575 0
0.0470604 -1.59582 0
-0.115323 -2.06726 0
0.0510121 -2.11187 0
0.120227 -2.05286 0
0.00790689 -1.66855 0
-0.000106898 -1.51506 0
-0.00229846 -1.89536 0
-0.345728 -1.86273 0
-0.109547 -1.72295 0
-0.533977 -2.18249 0
-0.0426798 -1.29603 0
-0.360501 -1.73783 0
0.217151 -0.383753 0
0.180603 -0.442936 0
0.252223 -0.404217 0
0.248546 -0.342771 0
-0.466856 -1.25763 0
0.0152347 -0.902857 0
-0.0959171 -3.86865 0
-0.278304 -3.33225 0
-0.572158 -3.49047 0
-0.174521 -3.41199 0
-0.10438 -1.06345 0
-0.385463 -1.65304 0
-0.0104088 -1.92685 0
-0.390236 -1.95028 0
-0.145281 -1.36201 0
-0.343294 -1.06065 0
0.232341 -0.387938 0
0.256504 -0.48234 0
-0.945384 -2.06509 0
0.0999145 -0.617059 0
0.149951 -0.309702 0
-0.0556976 -0.863571 0
-0.666796 -1.1756 0
0.144872 -0.222759 0
-0.2145 -1.12841 0
-0.843716 -1.30805 0
0.140698 -0.575513 0
0.13322 -0.433611 0
-0.639814 -1.68931 0
-0.51035 -1.11608 0
-0.51118 -1.42238 0
-0.445067 -1.23086 0
-0.628385 -1.24615 0
-0.0446529 -0.88544 0
0.198544 -0.485588 0
0.512713 -0.60404 0
0.290231 -0.608888 0
0.298683 -0.594713 0
0.0179671 -0.648731 0
-0.215886 -1.20625 0
0.232648 -0.616677 0
0.467192 -0.518769 0
0.459353 -0.442987 0
0.1808 -0.801656 0
0.287326 -0.357825 0
-0.0474097 -0.935823 0
-0.77479 -0.927189 0
-0.258928 -0.497192 0
0.265569 -0.526198 0
0.436059 -1.68257 0
-0.056463 -0.720238 0
-0.353813 -1.05845 0
0.159109 -1.30564 0
-0.0105517 -1.28213 0
-0.388321 -1.35843 0
-0.222598 -2.83737 0
0.408702 -0.395871 0
0.35948 -0.366429 0
0.300792 -0.76902 0
0.439085 -1.02686 0
-0.109793 -0.945557 0
-0.180671 -1.35988 0
0.426833 -0.538339 0
0.466242 -0.524499 0
0.236572 -0.34851 0
-0.896764 -1.18715 0
-0.404879 -0.596918 0
0.244379 -0.382776 0
0.490914 -1.03611 0
-0.0775969 -1.55592 0
0.334259 -0.479148 0
0.499143 -0.622506 0
-0.654051 -3.29819 0
-0.228062 -1.96936 0
0.380669 -0.536056 0
0.445799 -0.569155 0
-0.410177 -1.33278 0
0.0437133 -0.538615 0
0.232554 -0.590422 0
0.196993 -2.33952 0
-0.210333 -1.17374 0
-0.374067 -1.13147 0
0.269797 -1.05354 0
-0.65656 -1.00698 0
-0.504618 -0.664033 0
0.431149 -0.559348 0
0.319487 -1.53133 0
0.100409 -0.619109 0
0.147269 -1.51735 0
0.166288 -1.08664 0
0.352073 -0.730729 0
-0.0205143 -1.24309 0
-0.288145 -1.04784 0
0.363004 -1.75402 0
0.301122 -0.320915 0
0.135185 -0.508046 0
-0.118685 -0.471467 0
-0.938376 -1.80964 0
-0.0127256 -1.56774 0
0.186354 -0.33582 0
0.436841 -0.494436 0
0.341015 -0.424762 0
-0.249683 -2.05483 0
0.268404 -0.405352 0
0.0625345 -2.04078 0
-0.11239 -0.957893 0
-0.319491 -1.21398 0
0.248316 -1.01792 0
0.268381 -0.311557 0
0.0336635 -0.410415 0
-0.0198799 -0.550036 0
-0.428233 -2.20076 0
-0.00826433 -1.6987 0
0.377843 -0.513367 0
-0.20317 -0.789613 0
-0.325257 -1.05604 0
0.013397 -1.21154 0
0.303626 -0.902245 0
-0.644249 -1.93119 0
0.203361 -0.23048 0
0.310433 -0.429353 0
-0.266291 -1.51543 0
0.406065 -0.490125 0
0.1567 -2.27895 0
0.0328556 -0.454264 0
-0.0368188 -0.472861 0
0.384808 -0.478297 0
0.263373 -0.448176 0
-0.143783 -2.02349 0
0.272222 -0.391669 0
-0.120498 -1.53297 0
-0.852668 -1.82609 0
0.0206106 -1.55653 0
0.21475 -0.322981 0
0.254374 -0.359696 0
0.120116 -0.374018 0
-0.861318 -0.955134 0
-0.107556 -0.487394 0
-0.0457263 -0.603021 0
-0.343985 -0.980925 0
0.0590972 -1.30886 0
0.50002 -1.04213 0
-0.535177 -1.36292 0
0.157273 -0.245053 0
0.26585 -0.397787 0
0.29786 -0.355215 0
-0.52567 -1.08036 0
0.380333 -0.854443 0
0.247222 -0.608825 0
0.215998 -1.44424 0
0.0374685 -0.780833 0
0.0485202 -1.12147 0
0.116007 -0.552697 0
0.232336 -0.467482 0
0.393238 -0.407357 0
-0.916082 -2.23257 0
-0.0864566 -1.82051 0
-0.196818 -1.24099 0
0.0603351 -0.435834 0
-0.745076 -1.15263 0
-0.0203995 -0.738419 0
0.0618057 -0.443223 0
-1.09024 -1.34931 0
-0.180169 -0.845129 0
0.157491 -0.387444 0
-0.432001 -2.09606 0
-0.0791764 -1.36311 0
0.39479 -0.780927 0
-0.360515 -1.61616 0
0.279861 -0.42317 0
0.216308 -0.235091 0
-0.232927 -1.35437 0
-0.283435 -1.91742 0
0.364166 -0.459738 0
-0.34482 -2.0476 0
0.306522 -0.411104 0
0.40311 -0.772693 0
-0.26464 -1.6211 0
-0.282435 -1.35088 0
0.429861 -0.454982 0
0.441781 -0.410772 0
0.096353 -1.72878 0
0.250501 -0.477535 0
-0.131734 -1.20711 0
-0.862949 -1.86749 0
0.0814734 -1.56462 0
0.170774 -0.458944 0
0.116093 -1.05571 0
-0.647117 -1.59615 0
0.273331 -1.31891 0
0.0882682 -0.715087 0
0.302482 -1.55604 0
0.279401 -0.655823 0
0.0726937 -0.727834 0
-0.463588 -1.49834 0
-0.385612 -2.59203 0
-0.204914 -1.00691 0
-0.403714 -1.44717 0
0.149483 -0.572427 0
0.369956 -0.640736 0
0.117037 -2.72774 0
0.343337 -0.556877 0
-0.012512 -0.860727 0
0.112745 -1.11489 0
-0.342496 -1.04589 0
0.402332 -0.537602 0
0.203212 -0.788161 0
0.0148739 -0.719884 0
-0.466823 -1.27036 0
0.360714 -0.546905 0
0.105998 -0.802576 0
0.294429 -0.925982 0
-0.375847 -1.08049 0
0.363895 -0.631453 0
-0.153971 -1.6871 0
0.183734 -0.460656 0
-0.391014 -1.10159 0
0.162323 -1.18875 0
-0.249642 -0.930869 0
0.28585 -0.612259 0
-0.293358 -1.5523 0
0.255945 -0.637094 0
0.0388952 -1.40721 0
0.0926507 -0.433614 0
0.0399026 -1.4868 0
0.170231 -0.308069 0
0.22014 -0.247232 0
0.199011 -0.314311 0
-0.00376752 -1.15251 0
-0.00939959 -2.33931 0
0.00106654 -2.48721 0
0.0788104 -0.954887 0
-0.372986 -2.33756 0
-0.45685 -2.44557 0
-0.177534 -0.505667 0
-0.333807 -0.586604 0
-0.716112 -0.706349 0
-0.362335 -0.847324 0
0.137299 -0.291694 0
0.224331 -0.5767 0
0.238266 -0.438875 0
-0.0680696 -0.477796 0
-0.167694 -0.52443 0
-0.0923888 -0.351289 0
-0.0380699 -0.318168 0
-0.612461 -2.4019 0
-0.564153 -2.0323 0
-0.384751 -1.43223 0
-0.229925 -0.839716 0
-0.0838177 -0.849501 0
-0.10016 -1.16669 0
-0.0164423 -0.507234 0
0.0440284 -0.851822 0
0.251745 -1.048 0
0.410341 -1.39844 0
0.170213 -1.31731 0
-0.269385 -0.719278 0
-0.079753 -0.620518 0
0.287999 -1.24154 0
1.03503 -1.08814 0
0.246228 -0.825069 0
-0.250297 -0.667701 0
0.258155 -0.801175 0
-0.472163 -1.02639 0
0.195993 -1.40751 0
-0.397303 -0.863242 0
0.314971 -0.666101 0
-0.192586 -0.687184 0
0.257838 -0.731477 0
-0.0588669 -0.46849 0
-0.157031 -1.27082 0
-0.349936 -0.881874 0
-0.226617 -1.05259 0
-0.356608 -0.646408 0
0.0338058 -1.51871 0
0.0482573 -1.12088 0
0.193412 -1.26269 0
-0.00701244 -0.369153 0
0.168084 -1.14472 0
0.302509 -1.31484 0
0.00667337 -0.306151 0
0.0630219 -0.967298 0
-0.193305 -1.38484 0
0.155073 -1.43473 0
-0.368943 -0.832857 0
-0.0332593 -0.74605 0
-0.263003 -1.68015 0
-0.0822501 -0.419586 0
0.0304655 -1.14234 0
-0.463557 -1.57005 0
-0.115277 -0.927407 0
-0.124878 -0.543555 0
-0.194149 -0.650237 0
0.0155269 -0.343516 0
-0.512521 -1.43241 0
0.0728908 -0.259006 0
-0.0801585 -0.445149 0
0.270963 -1.66534 0
-0.0483533 -1.3713 0
-0.0514189 -0.608192 0
-0.192309 -0.738177 0
-0.0427078 -0.703177 0
0.0151646 -0.334655 0
-0.228275 -0.559447 0
-0.0558773 -1.12103 0
0.00364367 -0.974628 0
0.340845 -0.954329 0
-0.453749 -1.48111 0
-0.0281111 -0.795795 0
-0.0909673 -1.18633 0
0.261166 -1.38977 0
-0.360902 -0.925463 0
0.477983 -1.5882 0
0.470487 -1.31564 0
-0.267586 -0.811846 0
-0.189221 -1.24269 0
-0.461386 -0.888594 0
0.131032 -1.7746 0
0.612599 -1.3889 0
-0.465859 -1.02274 0
-0.423806 -1.16003 0
-0.394644 -0.843547 0
-0.399653 -0.826689 0
-0.159261 -0.674576 0
-0.247878 -0.891073 0
-0.763484 -1.42972 0
-0.294357 -1.343 0
0.396508 -1.17633 0
-0.130005 -0.494882 0
0.215632 -1.04799 0
-0.0265919 -0.802251 0
0.327265 -1.60796 0
-0.0184409 -0.969264 0
-0.22883 -1.35409 0
-0.223404 -0.744683 0
0.0567369 -0.86188 0
1.20092 -1.06083 0
-0.883743 -2.13912 0
-0.278398 -1.22871 0
-0.0231432 -1.56554 0
-0.466676 -0.971865 0
-0.374218 -0.830598 0
-0.653115 -2.1724 0
0.204084 -1.99001 0
-0.856487 -1.22186 0
0.00625429 -0.243427 0
0.00354498 -0.300741 0
-0.545685 -1.1658 0
-0.445416 -1.1099 0
-0.0256773 -1.56219 0
0.374462 -0.925438 0
0.0503086 -1.05563 0
-0.0850767 -1.09066 0
-0.410014 -1.35363 0
0.957444 -0.817197 0
-0.423404 -1.52809 0
0.0537815 -0.989168 0
0.343885 -1.81979 0
0.606167 -1.4679 0
0.36283 -0.807658 0
0.205624 -0.628703 0
0.0774172 -0.741939 0
0.0433352 -0.685331 0
0.372474 -0.84506 0
-0.0118707 -0.405488 0
0.281474 -0.576029 0
0.312268 -0.932642 0
-0.0109747 -1.24962 0
-0.205324 -1.15058 0
-0.203071 -0.92323 0
-0.439778 -0.965117 0
-0.429913 -0.880018 0
0.308021 -1.81469 0
0.338905 -0.802983 0
0.0800801 -0.581611 0
0.268901 -1.39312 0
-0.463885 -1.03985 0
-0.372396 -0.85418 0
0.0200353 -1.04322 0
-0.0585684 -0.464872 0
0.153723 -0.564051 0
0.265641 -0.89837 0
-0.487768 -1.5042 0
-0.402448 -0.874874 0
-0.439146 -0.751914 0
-0.103055 -0.615064 0
-0.0346181 -0.601892 0
0.00407779 -0.488933 0
-0.29421 -0.940456 0
-0.287569 -1.43641 0
-0.0500953 -1.32672 0
-0.205371 -1.35849 0
-0.387093 -1.07903 0
-0.0344959 -1.05628 0
-0.411386 -1.45109 0
-0.3383 -1.1279 0
0.161981 -0.966269 0
0.528777 -1.37376 0
-0.623981 -1.12702 0
0.271333 -1.18509 0
0.628246 -1.28794 0
-0.141709 -1.42878 0
-0.361304 -0.914527 0
0.0740536 -0.704265 0
0.113044 -0.377301 0
-0.0346201 -0.69828 0
-0.570508 -1.4623 0
-0.220795 -0.749978 0
0.0791785 -0.553605 0
-0.000539873 -1.50666 0
-0.252008 -0.769869 0
-0.126098 -0.816968 0
0.182332 -0.61124 0
-0.458532 -1.06997 0
0.0284058 -0.954439 0
-0.256976 -2.06087 0
-0.417864 -1.0613 0
0.109434 -0.775427 0
-0.130311 -1.90832 0
-0.492355 -1.18929 0
-0.159953 -0.881179 0
0.0106354 -0.32978 0
0.112275 -0.450232 0
-0.186688 -1.774 0
0.419168 -2.01153 0
0.0334773 -0.389185 0
0.00227552 -0.308972 0
-0.167482 -1.14806 0
0.359965 -2.12623 0
0.00410773 -0.445307 0
-0.235441 -0.958603 0
0.204849 -1.69002 0
0.41664 -1.13465 0
0.0757541 -0.483817 0
-0.331106 -2.01794 0
0.377051 -2.07074 0
0.00731226 -0.273957 0
-0.018657 -0.29521 0
0.0233484 -0.367664 0
-0.0107012 -0.355267 0
0.00252866 -0.359891 0
0.0252313 -0.363287 0
-0.0235392 -0.34099 0
-0.462873 -1.00901 0
0.111589 -1.53133 0
-0.107266 -0.587593 0
-0.0266127 -0.558705 0
-0.0313207 -0.545271 0
0.0648102 -0.574488 0
0.169305 -0.791168 0
-0.0266865 -0.453138 0
0.0809014 -0.461431 0
0.157121 -0.765323 0
-0.307341 -1.07242 0
0.160279 -0.686999 0
0.184643 -0.678241 0
0.309943 -1.31382 0
0.0352402 -1.39725 0
0.145437 -1.94865 0
0.541047 -1.10148 0
-0.103103 -1.40113 0
0.479828 -1.13422 0
0.375373 -1.18363 0
0.348257 -1.64828 0
0.378797 -0.913802 0
0.354004 -0.565191 0
0.372882 -0.625373 0
0.32143 -0.605501 0
0.277601 -0.623349 0
-0.0646404 -1.72785 0
0.251586 -1.67705 0
0.512715 -1.17191 0
0.0824663 -1.44655 0
0.0880031 -1.60864 0
0.428376 -0.986948 0
0.252678 -1.01986 0
0.213496 -2.16448 0
0.347902 -0.945094 0
0.06401 -1.06377 0
0.389604 -2.28856 0
0.152042 -1.07102 0
0.479618 -1.4147 0
0.19058 -0.584031 0
0.0322074 -0.510109 0
0.0511215 -0.723691 0
0.0166718 -0.438857 0
0.162467 -0.438889 0
0.521801 -0.662667 0
-0.0321008 -1.12181 0
-0.238728 -0.882389 0
-0.184655 -0.78646 0
-0.0489989 -0.7307 0
0.00578375 -0.833549 0
0.339517 -0.945638 0
0.477831 -0.902021 0
0.385652 -1.14844 0
-0.123336 -2.00514 0
0.134511 -1.62628 0
0.222848 -1.37693 0
0.298696 -0.678227 0
0.122854 -1.2335 0
-0.00776708 -1.51038 0
-0.0674195 -1.49493 0
-0.159816 -1.54512 0
-0.196629 -1.68208 0
-0.158061 -1.57236 0
-0.1228 -0.613678 0
-0.160402 -0.661542 0
-0.120464 -0.682314 0
0.0154683 -1.14076 0
0.0689951 -1.15084 0
-0.000108769 -1.12489 0
0.00435187 -1.18983 0
0.350783 -0.900553 0
0.475455 -0.86591 0
0.271451 -0.775118 0
0.239582 -0.848643 0
0.0803636 -0.932054 0
0.126181 -1.24942 0
0.040809 -1.17555 0
0.201316 -1.38301 0
0.303466 -0.894332 0
-0.11247 -0.797718 0
0.0726114 -0.620076 0
0.397203 -0.606621 0
-0.0696323 -0.920738 0
0.045122 -0.776156 0
0.342918 -0.6202 0
0.211596 -0.646478 0
0.434808 -0.710663 0
0.135852 -0.533885 0
0.398914 -0.69543 0
-0.280743 -0.918129 0
-0.180511 -1.11994 0
-0.325611 -0.817532 0
0.000854545 -0.79875 0
-0.0599056 -0.706277 0
-0.0792323 -1.12281 0
-0.14892 -0.885677 0
0.327668 -0.996689 0
0.0534456 -0.956783 0
-0.0271917 -0.755487 0
0.164419 -0.938213 0
-0.0386305 -0.551378 0
-0.0636261 -1.01484 0
-0.294338 -0.715161 0
-0.321035 -0.842644 0
0.00462377 -0.377494 0
-0.0446667 -1.26881 0
-0.0156404 -0.663601 0
-0.392708 -0.853262 0
-0.194276 -0.860787 0
0.0148096 -0.360277 0
-0.110084 -1.38665 0
-0.038195 -0.934204 0
0.2006 -0.961759 0
-0.293425 -1.01357 0
-0.281212 -0.754616 0
0.0744723 -0.981838 0
0.155809 -1.07678 0
0.0212735 -0.402331 0
-0.152923 -1.94218 0
-0.0497671 -0.915922 0
0.152369 -1.08353 0
0.191822 -1.09611 0
0.0259496 -0.371021 0
-0.345715 -2.1878 0
-0.268708 -2.11939 0
-0.102557 -0.855698 0
0.116313 -1.6421 0
0.0375429 -0.581981 0
-0.222602 -0.700158 0
0.124402 -0.584158 0
-0.280226 -0.6845 0
0.0566424 -1.20593 0
0.169638 -1.06309 0
0.0433502 -0.834223 0
-0.109622 -0.994001 0
-0.188987 -0.758275 0
-0.0303193 -1.24256 0
-0.0726043 -0.715811 0
0.195653 -0.498909 0
0.0287227 -0.403992 0
-0.0288217 -2.38404 0
-0.429983 -2.12554 0
-0.0950823 -0.844003 0
0.100919 -1.28989 0
0.00614628 -1.41007 0
-0.0207181 -0.49747 0
-0.227066 -0.55397 0
-0.0696049 -0.627954 0
0.173426 -0.675284 0
-0.293589 -0.72574 0
-0.00685478 -0.791483 0
0.145325 -0.683856 0
-0.334904 -0.69802 0
0.321786 -0.711258 0
0.00599358 -0.395005 0
-0.0590721 -1.04766 0
-0.0226438 -0.813595 0
-0.12192 -0.549992 0
0.000872505 -0.296601 0
0.151852 -1.45116 0
0.298369 -1.24706 0
-0.0827032 -1.46686 0
0.0393064 -0.652138 0
-0.564073 -1.12542 0
-0.314332 -0.584154 0
-0.0677868 -0.63679 0
-0.0702481 -0.718535 0
-0.0757523 -0.788387 0
-0.0799012 -0.738474 0
0.258426 -0.561546 0
0.15917 -0.638678 0
0.358691 -0.616378 0
-0.0970363 -0.985478 0
0.224327 -0.822288 0
-0.0151252 -0.469146 0
-0.0552441 -0.45213 0
-0.186477 -0.612675 0
0.020463 -0.927253 0
0.0176318 -0.321795 0
0.0237554 -2.34205 0
-0.245529 -1.71236 0
0.296783 -0.637306 0
0.193535 -0.800532 0
-0.166557 -0.717776 0
-0.11579 -0.610078 0
-0.0134188 -0.740577 0
0.0509597 -1.17248 0
-0.0471609 -0.542852 0
-0.0788714 -0.679755 0
0.107204 -0.993922 0
0.126825 -1.05039 0
-0.0535131 -0.472922 0
-0.093949 -0.549251 0
0.18717 -1.25024 0
0.0989497 -1.32266 0
0.03503 -1.74716 0
-0.196416 -1.30498 0
0.0700021 -1.32458 0
0.0738445 -0.868886 0
-0.213004 -0.921582 0
0.0746462 -0.941166 0
-0.29921 -0.835323 0
0.144739 -0.802201 0
-0.307058 -0.696594 0
0.0567844 -0.788663 0
-0.216685 -0.747741 0
0.0458881 -1.00479 0
-0.116966 -0.63492 0
0.370498 -0.83361 0
0.474318 -0.766424 0
0.272564 -0.889157 0
-0.234048 -1.57843 0
0.139376 -1.17932 0
-0.237511 -1.57387 0
0.245577 -1.08918 0
-0.0920337 -1.43131 0
0.113336 -1.15685 0
-0.173037 -1.57684 0
0.181174 -0.73882 0
0.278501 -0.931429 0
-0.247247 -1.40699 0
-0.120163 -1.24618 0
0.14488 -0.717861 0
0.207065 -0.800243 0
-0.487333 -0.781358 0
-0.442991 -1.20494 0
-0.100632 -1.35588 0
0.189145 -0.698462 0
-0.357917 -0.678711 0
-0.318563 -0.969755 0
-0.0668574 -0.809644 0
0.281808 -0.699032 0
0.181283 -0.645777 0
-0.323783 -0.685765 0
-0.0918548 -1.06806 0
-0.114878 -0.897941 0
0.113516 -0.482843 0
-0.149849 -0.707325 0
0.0357486 -0.56923 0
0.112078 -0.492091 0
0.158973 -0.607765 0
0.088911 -0.561458 0
-0.164527 -0.70704 0
0.187055 -0.792887 0
-0.00831761 -0.524274 0
-0.235502 -0.847582 0
0.0501055 -0.631611 0
-0.0618603 -1.04823 0
-0.00101512 -0.975331 0
0.0224326 -0.527795 0
-0.00531985 -0.549117 0
0.044549 -1.54098 0
-0.0178527 -0.32079 0
-0.040035 -1.64143 0
-0.0485049 -0.385019 0
-0.10934 -1.27478 0
-0.058532 -1.18978 0
-0.0531864 -0.398258 0
-0.229535 -1.357 0
-0.13999 -0.888266 0
-0.214963 -1.11486 0
-0.286505 -1.28096 0
-0.0171369 -0.698506 0
-0.00720667 -0.965343 0
-0.102657 -0.748103 0
-0.171887 -0.517519 0
-0.270469 -0.791436 0
-0.0102564 -0.576245 0
-0.151072 -0.864257 0
-0.27044 -0.640326 0
0.00727423 -0.613643 0
-0.0559134 -0.930899 0
-0.101181 -0.549806 0
-0.0835205 -0.652824 0
0.0107831 -0.968339 0
-0.204621 -1.23125 0
0.192057 -0.969785 0
-0.072901 -1.19593 0
0.200833 -1.04017 0
0.0371635 -1.26706 0
0.26578 -0.916662 0
0.0567179 -1.17706 0
-0.0328731 -0.818539 0
-0.312268 -0.73816 0
0.0368445 -0.883479 0
-0.333323 -0.880615 0
0.0695329 -0.779227 0
-0.0137983 -0.666064 0
-0.331415 -0.760264 0
0.149205 -0.849849 0
-0.342089 -0.806257 0
0.0936665 -0.881985 0
-0.011479 -0.91285 0
0.0112693 -0.4981 0
0.0209005 -0.554189 0
-0.00225015 -0.931727 0
0.16012 -0.757566 0
0.25837 -0.937419 0
0.073805 -1.19025 0
0.170309 -0.931352 0
0.135902 -0.96075 0
0.089944 -0.406189 0
-0.130793 -1.03956 0
0.0835704 -1.00366 0
-0.00975424 -1.14685 0
-0.207005 -1.24928 0
-0.218276 -1.12118 0
-0.429667 -1.06195 0
-0.146065 -0.962626 0
-0.233572 -1.16573 0
-0.172834 -1.34741 0
-0.143346 -1.12582 0
0.00604986 -0.92905 0
-0.685864 -0.940055 0
-0.226929 -0.799717 0
-0.250991 -0.988112 0
-0.765801 -0.975102 0
0.073545 -0.8229 0
-0.107742 -0.844723 0
-0.0272996 -0.845935 0
0.0819259 -0.798721 0
-0.465274 -0.94735 0
-0.0503338 -0.966828 0
0.0904634 -1.04345 0
-0.128731 -0.752005 0
0.138765 -2.08748 0
-0.076658 -0.860735 0
0.214873 -1.2316 0
-0.00825692 -0.788368 0
0.134436 -0.958289 0
-0.19533 -1.01967 0
-0.177099 -0.825801 0
0.0561313 -2.14485 0
-0.108672 -0.84159 0
-0.607938 -0.997095 0
-0.167894 -0.970774 0
0.161624 -1.12269 0
-0.218339 -1.16614 0
0.0871279 -1.06708 0
0.133428 -1.74778 0
-0.0968579 -0.822667 0
0.130024 -0.944555 0
-0.377903 -1.10268 0
-0.100565 -1.19697 0
0.230604 -1.59259 0
-0.143804 -0.787544 0
0.196593 -0.876901 0
-0.1719 -0.903257 0
-0.560449 -1.01041 0
-0.475453 -0.878619 0
-0.365329 -0.839172 0
-0.58769 -0.988103 0
-0.507675 -1.06091 0
-0.406755 -1.06451 0
-0.0708826 -0.494166 0
0.0705282 -1.48556 0
-0.13825 -1.05382 0
-0.192713 -0.891285 0
0.0513022 -0.541628 0
-0.0815221 -1.62345 0
-0.120751 -0.861767 0
-0.270858 -1.14502 0
-0.0649998 -0.872594 0
0.0863723 -0.578584 0
-0.0318789 -0.990615 0
-0.121405 -0.658776 0
-0.241124 -1.02036 0
-0.463045 -0.944119 0
0.203586 -0.712239 0
-0.00468811 -0.964126 0
0.120349 -0.460625 0
0.0624184 -0.371659 0
-0.0395559 -1.08189 0
-0.167887 -1.15779 0
-0.302789 -0.855069 0
0.177463 -0.535578 0
-0.429904 -0.794826 0
-0.0628061 -0.877123 0
0.0436567 -0.494265 0
0.0234639 -0.345047 0
-0.0717315 -1.21281 0
-0.204972 -0.663734 0
-0.255542 -0.565036 0
-0.00606576 -0.859937 0
-0.00185613 -1.15948 0
-0.367165 -0.838845 0
-0.4556 -0.817036 0
0.0883553 -1.13428 0
-0.176214 -0.948217 0
0.090099 -1.90663 0
0.0132844 -1.19203 0
-0.492468 -0.841272 0
-0.0441165 -1.13855 0
-0.217511 -1.02206 0
0.0102051 -0.874172 0
-0.0682022 -0.453421 0
0.154405 -0.671826 0
-0.0900174 -0.725679 0
0.12952 -0.514326 0
0.0338813 -0.404722 0
0.0255172 -0.296403 0
-0.135688 -1.18581 0
0.151812 -1.58208 0
-0.175217 -0.814747 0
0.231877 -0.979148 0
-0.126078 -0.803032 0
0.14047 -0.675704 0
0.062203 -0.338388 0
-0.100493 -1.03333 0
0.095995 -1.03175 0
-0.140874 -1.17823 0
-0.146942 -0.999096 0
0.0832691 -1.40411 0
-0.0213482 -1.98416 0
-0.201982 -0.870629 0
-0.0566579 -0.908827 0
-0.0679727 -0.291195 0
-0.0619275 -0.544355 0
0.188536 -0.89617 0
-0.072657 -0.888452 0
0.0668064 -0.937523 0
0.0276519 -1.95751 0
-0.160019 -0.835834 0
-0.468593 -1.11614 0
-0.0646933 -0.911817 0
0.021422 -0.551558 0
0.131291 -0.762979 0
-0.210162 -1.11734 0
-0.399409 -1.08696 0
0.201359 -2.38318 0
0.0886278 -1.17266 0
-0.0986007 -0.668996 0
-0.0313773 -0.814167 0
-0.149102 -1.84772 0
-0.351943 -0.939133 0
0.09279 -1.00656 0
0.0893528 -0.570358 0
-0.0436891 -0.708072 0
0.113794 -0.963293 0
-0.0451682 -1.28097 0
-0.0862441 -0.576684 0
-0.101254 -1.2551 0
0.145382 -2.20796 0
-0.283242 -1.07705 0
0.236528 -0.966093 0
-0.197582 -0.687241 0
-0.148824 -0.890943 0
-0.4119 -1.08412 0
-0.332186 -0.968112 0
-0.294408 -1.11265 0
-0.332964 -0.949582 0
0.206493 -0.958714 0
-0.250436 -1.391 0
-0.0792157 -1.3677 0
0.0941948 -1.93854 0
-0.00125385 -1.72538 0
-0.083258 -0.967916 0
-0.115508 -0.648637 0
0.114559 -1.69914 0
0.0599699 -1.16754 0
0.2037 -0.96116 0
-0.325556 -1.28664 0
0.0291654 -2.03991 0
0.0562952 -0.707494 0
0.0867884 -0.542697 0
-0.0768655 -0.803986 0
-0.139301 -1.06524 0
0.0465822 -0.668849 0
0.0568256 -0.513053 0
-0.122599 -0.805101 0
0.141528 -1.30025 0