# vtk DataFile Version 2.0
Unstructured Grid by M++
ASCII
DATASET UNSTRUCTURED_GRID
POINTS 81 float
  1.000000   0.625000 0
  0.750000   0.375000 0
  1.000000   0.000000 0
  0.875000   0.875000 0
  0.750000   0.125000 0
  1.000000   1.000000 0
  0.875000   0.250000 0
  0.625000   0.875000 0
  1.000000   0.750000 0
  0.875000   0.000000 0
  1.000000   0.250000 0
  0.625000   0.375000 0
  0.875000   0.500000 0
  0.625000   0.625000 0
  1.000000   0.500000 0
  0.750000   0.500000 0
  0.750000   1.000000 0
  1.000000   0.125000 0
  0.625000   0.250000 0
  0.750000   0.750000 0
  0.625000   0.000000 0
  0.125000   0.375000 0
  0.000000   0.500000 0
  0.125000   0.625000 0
  0.625000   1.000000 0
  1.000000   0.875000 0
  0.875000   0.125000 0
  0.500000   0.250000 0
  0.625000   0.500000 0
  0.250000   0.625000 0
  0.000000   0.625000 0
  0.375000   0.500000 0
  0.375000   0.000000 0
  0.000000   0.125000 0
  0.125000   0.875000 0
  0.875000   1.000000 0
  0.750000   0.250000 0
  0.375000   0.375000 0
  0.250000   0.375000 0
  0.625000   0.750000 0
  0.125000   0.125000 0
  0.500000   0.000000 0
  0.250000   0.875000 0
  0.125000   0.500000 0
  0.500000   0.375000 0
  0.125000   0.000000 0
  0.250000   0.750000 0
  0.250000   0.500000 0
  0.000000   0.875000 0
  0.875000   0.625000 0
  0.500000   0.750000 0
  0.750000   0.625000 0
  0.250000   0.000000 0
  0.375000   0.750000 0
  0.750000   0.875000 0
  0.625000   0.125000 0
  0.250000   0.250000 0
  0.375000   1.000000 0
  0.375000   0.250000 0
  0.000000   0.375000 0
  0.500000   1.000000 0
  0.875000   0.750000 0
  0.750000   0.000000 0
  0.375000   0.125000 0
  0.500000   0.875000 0
  0.000000   0.000000 0
  0.125000   0.750000 0
  0.500000   0.625000 0
  0.125000   0.250000 0
  0.500000   0.125000 0
  0.250000   1.000000 0
  0.250000   0.125000 0
  0.000000   1.000000 0
  0.375000   0.875000 0
  0.000000   0.750000 0
  0.375000   0.625000 0
  0.000000   0.250000 0
  0.125000   1.000000 0
  1.000000   0.375000 0
  0.500000   0.500000 0
  0.875000   0.375000 0
CELLS 64 320
4 56 71 58 63
4 27 58 69 63
4 41 69 32 63
4 76 33 68 40
4 27 44 58 37
4 79 31 44 37
4 56 38 68 21
4 56 58 38 37
4 52 32 71 63
4 47 38 31 37
4 76 68 59 21
4 22 59 43 21
4 65 45 33 40
4 47 43 38 21
4 52 71 45 40
4 56 68 71 40
4 74 30 66 23
4 46 66 29 23
4 22 43 30 23
4 72 48 77 34
4 46 53 42 73
4 50 64 53 73
4 70 42 57 73
4 74 66 48 34
4 46 42 66 34
4 47 29 43 23
4 70 77 42 34
4 60 57 64 73
4 79 67 31 75
4 47 31 29 75
4 50 53 67 75
4 46 29 53 75
4 10 78 6 80
4 36 6 1 80
4 15 1 12 80
4 36 4 6 26
4 14 12 78 80
4 2 17 9 26
4 36 18 4 55
4 15 28 1 11
4 62 4 20 55
4 10 6 17 26
4 27 18 44 11
4 62 9 4 26
4 27 69 18 55
4 36 1 18 11
4 41 20 69 55
4 79 44 28 11
4 16 24 54 7
4 19 54 39 7
4 50 39 64 7
4 8 25 61 3
4 60 64 24 7
4 79 28 67 13
4 19 51 61 49
4 8 61 0 49
4 15 51 28 13
4 19 39 51 13
4 50 67 39 13
4 19 61 54 3
4 14 0 12 49
4 5 35 25 3
4 15 12 51 49
4 16 54 35 3
CELL_TYPES 64
8
8
8
8
8
8
8
8
8
8
8
8
8
8
8
8
8
8
8
8
8
8
8
8
8
8
8
8
8
8
8
8
8
8
8
8
8
8
8
8
8
8
8
8
8
8
8
8
8
8
8
8
8
8
8
8
8
8
8
8
8
8
8
8
CELL_DATA 64
VECTORS vector_value float
-0.179833 -0.536049 0
0.119667 -0.422731 0
0.103187 -0.352063 0
-0.00848537 -0.576587 0
-0.0128042 -0.743264 0
0.454424 -2.35533 0
-0.0168572 -0.144187 0
-0.134618 -0.548493 0
-0.000752624 -0.11318 0
-0.0875856 -0.289784 0
0.122825 -0.865221 0
-0.0339047 -0.870826 0
-0.133927 -0.88513 0
-0.0142075 -0.0662749 0
-0.112647 -0.572996 0
-0.145541 -0.6309 0
-0.0376859 -0.391412 0
0.579802 -1.32316 0
-0.124158 -0.70987 0
-0.0741036 -1.13328 0
-0.234729 -1.31589 0
-0.0305099 -0.085576 0
-0.142045 -1.45935 0
0.324554 -0.940018 0
0.0252036 -1.24681 0
-0.00505839 -0.370622 0
-0.00109745 -0.72671 0
-0.020752 -0.345717 0
1.14258 -2.40181 0
0.197741 -0.213747 0
0.0140675 -0.107113 0
1.56698 -1.78152 0
-0.186601 -0.557032 0
-1.30178 -2.39986 0
-0.686135 -2.3626 0
-0.360596 -0.534262 0
-0.456558 -1.44584 0
-0.00094188 -0.320171 0
-1.69587 -4.20078 0
-0.0500598 -0.215323 0
-0.0778733 -2.02974 0
-0.0358338 -0.335454 0
0.869769 -1.38182 0
0.00475472 -0.471206 0
-0.0955844 -0.763238 0
-0.311032 -1.36012 0
-0.932627 -3.25552 0
0.275934 -0.394026 0
1.47164 -1.1495 0
0.118354 -0.112028 0
0.0624661 -0.319073 0
0.339507 -0.899919 0
0.694765 -0.646652 0
-0.0659802 -0.222617 0
0.565134 -1.84402 0
0.807983 -2.24235 0
-0.163524 -0.21418 0
0.00163777 -0.0181854 0
-0.0153081 -0.292231 0
0.988089 -3.08069 0
-0.521473 -2.65591 0
-0.286153 -0.498788 0
-0.418018 -1.21124 0
0.265118 -2.04001 0
