# vtk DataFile Version 2.0
Unstructured Grid by M++
ASCII
DATASET UNSTRUCTURED_GRID
POINTS 289 float
  0.562500   1.000000 0
  0.562500   0.625000 0
  0.625000   1.000000 0
  0.562500   0.937500 0
  0.562500   0.562500 0
  0.625000   0.937500 0
  0.562500   0.875000 0
  0.625000   0.750000 0
  0.625000   0.625000 0
  0.562500   0.812500 0
  0.562500   0.750000 0
  0.562500   0.687500 0
  0.625000   0.875000 0
  0.625000   0.812500 0
  0.625000   0.687500 0
  0.687500   0.125000 0
  0.875000   0.062500 0
  0.625000   0.125000 0
  0.625000   0.187500 0
  0.625000   0.250000 0
  0.812500   0.187500 0
  1.000000   0.125000 0
  0.687500   0.187500 0
  0.750000   0.125000 0
  0.937500   0.062500 0
  0.937500   0.125000 0
  0.750000   0.187500 0
  0.812500   0.062500 0
  0.812500   0.125000 0
  0.875000   0.687500 0
  0.187500   0.250000 0
  0.437500   0.250000 0
  0.375000   0.187500 0
  0.812500   0.625000 0
  0.125000   0.187500 0
  0.937500   0.750000 0
  0.250000   0.312500 0
  0.500000   0.312500 0
  0.625000   0.062500 0
  0.437500   0.500000 0
  0.375000   0.125000 0
  0.437500   0.187500 0
  0.437500   0.437500 0
  0.437500   0.375000 0
  0.875000   0.875000 0
  0.187500   0.375000 0
  0.687500   0.562500 0
  0.687500   0.625000 0
  0.000000   0.125000 0
  0.937500   0.625000 0
  0.250000   0.125000 0
  0.375000   0.062500 0
  0.375000   0.000000 0
  0.812500   0.500000 0
  0.125000   0.000000 0
  0.937500   0.937500 0
  0.250000   0.437500 0
  0.687500   0.875000 0
  0.687500   0.937500 0
  0.000000   0.437500 0
  0.500000   0.500000 0
  0.500000   0.437500 0
  0.750000   0.937500 0
  0.750000   1.000000 0
  0.062500   0.500000 0
  1.000000   1.000000 0
  0.312500   0.500000 0
  0.875000   0.562500 0
  0.187500   0.062500 0
  0.437500   0.125000 0
  0.437500   0.062500 0
  0.500000   0.375000 0
  0.937500   0.812500 0
  0.937500   0.875000 0
  0.250000   0.375000 0
  0.687500   0.812500 0
  0.000000   0.375000 0
  0.750000   0.562500 0
  0.062500   0.125000 0
  1.000000   0.562500 0
  1.000000   0.625000 0
  0.312500   0.125000 0
  0.562500   0.125000 0
  0.437500   0.000000 0
  0.875000   0.437500 0
  0.875000   0.500000 0
  0.187500   0.000000 0
  0.937500   0.562500 0
  0.937500   0.500000 0
  0.250000   0.062500 0
  0.687500   0.500000 0
  0.000000   0.062500 0
  0.500000   0.062500 0
  1.000000   0.875000 0
  1.000000   0.937500 0
  0.312500   0.437500 0
  0.750000   0.875000 0
  0.062500   0.437500 0
  0.812500   0.937500 0
  0.125000   0.500000 0
  0.375000   0.500000 0
  0.625000   0.562500 0
  0.625000   0.500000 0
  0.437500   0.312500 0
  0.875000   0.812500 0
  0.875000   0.750000 0
  0.187500   0.312500 0
  0.812500   0.687500 0
  0.812500   0.750000 0
  0.125000   0.250000 0
  0.375000   0.250000 0
  1.000000   0.687500 0
  0.312500   0.187500 0
  0.750000   0.687500 0
  0.750000   0.625000 0
  0.062500   0.187500 0
  0.562500   0.250000 0
  0.562500   0.187500 0
  0.375000   1.000000 0
  0.500000   0.562500 0
  0.500000   0.250000 0
  0.750000   0.250000 0
  0.500000   0.125000 0
  0.500000   0.187500 0
  1.000000   0.187500 0
  0.625000   0.375000 0
  0.875000   0.375000 0
  1.000000   0.437500 0
  0.312500   0.000000 0
  0.562500   0.000000 0
  0.812500   0.000000 0
  0.250000   0.687500 0
  0.000000   0.687500 0
  0.500000   1.000000 0
  0.250000   1.000000 0
  0.000000   1.000000 0
  0.437500   0.687500 0
  0.437500   0.625000 0
  0.187500   0.625000 0
  0.687500   0.750000 0
  0.000000   0.312500 0
  0.000000   0.250000 0
  0.375000   0.375000 0
  0.375000   0.312500 0
  0.812500   0.812500 0
  0.125000   0.312500 0
  0.875000   0.625000 0
  0.187500   0.187500 0
  0.187500   0.125000 0
  0.937500   1.000000 0
  0.250000   0.562500 0
  0.250000   0.500000 0
  0.687500   1.000000 0
  0.000000   0.500000 0
  0.687500   0.687500 0
  0.000000   0.187500 0
  0.937500   0.687500 0
  0.250000   0.250000 0
  0.250000   0.187500 0
  0.187500   0.687500 0
  0.000000   0.750000 0
  0.250000   0.750000 0
  0.125000   0.625000 0
  0.750000   0.750000 0
  0.062500   0.250000 0
  0.875000   0.937500 0
  0.187500   0.500000 0
  0.187500   0.437500 0
  0.812500   0.562500 0
  0.125000   0.125000 0
  0.125000   0.062500 0
  0.375000   0.625000 0
  0.375000   0.687500 0
  1.000000   0.750000 0
  0.312500   0.250000 0
  0.312500   0.312500 0
  0.812500   0.312500 0
  0.562500   0.312500 0
  0.375000   0.750000 0
  0.500000   0.625000 0
  0.250000   0.625000 0
  0.312500   0.687500 0
  0.750000   0.812500 0
  0.062500   0.312500 0
  0.062500   0.375000 0
  1.000000   0.812500 0
  0.312500   0.375000 0
  0.562500   0.375000 0
  0.687500   0.437500 0
  0.000000   0.000000 0
  0.500000   0.000000 0
  0.937500   0.437500 0
  0.250000   0.000000 0
  0.375000   0.437500 0
  0.812500   0.875000 0
  0.125000   0.375000 0
  0.125000   0.437500 0
  0.625000   0.437500 0
  1.000000   0.500000 0
  0.312500   0.062500 0
  0.750000   0.500000 0
  0.062500   0.000000 0
  0.062500   0.062500 0
  0.562500   0.062500 0
  0.062500   0.750000 0
  0.312500   0.750000 0
  0.312500   0.625000 0
  0.312500   0.562500 0
  0.062500   0.562500 0
  0.187500   1.000000 0
  0.437500   0.562500 0
  0.875000   1.000000 0
  0.187500   0.562500 0
  0.500000   0.937500 0
  0.250000   0.937500 0
  0.312500   1.000000 0
  0.125000   0.750000 0
  0.125000   0.687500 0
  1.000000   0.000000 0
  0.000000   0.937500 0
  0.000000   0.875000 0
  0.875000   0.125000 0
  0.875000   0.187500 0
  0.062500   0.812500 0
  0.312500   0.812500 0
  0.000000   0.812500 0
  0.000000   0.625000 0
  0.000000   0.562500 0
  0.062500   1.000000 0
  0.062500   0.937500 0
  0.937500   0.187500 0
  0.937500   0.250000 0
  0.062500   0.687500 0
  0.062500   0.625000 0
  0.125000   1.000000 0
  1.000000   0.250000 0
  1.000000   0.312500 0
  0.062500   0.875000 0
  0.125000   0.812500 0
  0.375000   0.812500 0
  0.125000   0.875000 0
  0.375000   0.937500 0
  0.375000   0.875000 0
  0.187500   0.750000 0
  0.187500   0.812500 0
  0.437500   0.812500 0
  0.187500   0.875000 0
  0.437500   0.875000 0
  0.375000   0.562500 0
  0.812500   1.000000 0
  0.125000   0.562500 0
  0.437500   1.000000 0
  0.437500   0.937500 0
  0.187500   0.937500 0
  0.125000   0.937500 0
  0.500000   0.687500 0
  0.500000   0.750000 0
  0.500000   0.812500 0
  0.250000   0.812500 0
  0.250000   0.875000 0
  0.500000   0.875000 0
  0.437500   0.750000 0
  0.312500   0.875000 0
  0.312500   0.937500 0
  0.687500   0.250000 0
  0.687500   0.312500 0
  0.937500   0.312500 0
  0.875000   0.250000 0
  0.625000   0.000000 0
  0.875000   0.000000 0
  0.687500   0.375000 0
  0.937500   0.375000 0
  0.875000   0.312500 0
  0.625000   0.312500 0
  0.687500   0.000000 0
  0.937500   0.000000 0
  0.750000   0.312500 0
  0.750000   0.375000 0
  1.000000   0.375000 0
  0.812500   0.250000 0
  0.562500   0.437500 0
  0.562500   0.500000 0
  0.687500   0.062500 0
  0.750000   0.437500 0
  0.750000   0.000000 0
  0.750000   0.062500 0
  1.000000   0.062500 0
  0.812500   0.375000 0
  0.812500   0.437500 0
CELLS 256 1280
4 169 170 148 68
4 151 166 56 167
4 195 45 196 167
4 54 170 201 202
4 109 34 30 147
4 40 32 81 112
4 192 89 86 68
4 48 91 78 202
4 99 64 196 97
4 71 43 37 103
4 74 186 56 95
4 109 164 34 115
4 50 81 158 112
4 122 69 92 70
4 195 145 45 106
4 110 143 174 175
4 157 30 158 147
4 40 69 32 41
4 50 158 148 147
4 141 155 164 115
4 122 123 69 41
4 142 186 143 175
4 60 39 61 42
4 40 51 69 70
4 120 31 123 41
4 157 174 36 175
4 50 148 89 68
4 48 78 155 115
4 52 83 51 70
4 151 56 66 95
4 71 61 43 42
4 169 148 34 147
4 100 193 39 42
4 40 81 51 199
4 110 174 32 112
4 109 30 145 106
4 100 66 193 95
4 169 34 78 115
4 190 92 83 70
4 50 89 81 199
4 54 86 170 68
4 74 56 45 167
4 142 143 43 103
4 153 59 64 97
4 99 196 166 167
4 169 78 170 202
4 142 193 186 95
4 192 128 89 199
4 74 45 36 106
4 110 31 143 103
4 76 184 59 97
4 142 43 193 42
4 52 51 128 199
4 189 201 91 202
4 120 37 31 103
4 74 36 186 175
4 195 196 184 97
4 141 164 140 183
4 157 158 174 112
4 109 145 164 183
4 195 184 145 183
4 110 32 31 41
4 157 36 30 106
4 76 140 184 183
4 171 172 206 181
4 178 172 261 136
4 256 261 255 136
4 256 257 261 245
4 180 150 206 207
4 60 119 39 210
4 118 215 241 263
4 178 205 172 181
4 216 243 238 244
4 162 217 233 232
4 180 206 131 181
4 179 137 119 210
4 216 204 217 232
4 220 237 219 229
4 216 217 243 159
4 259 258 262 224
4 240 254 237 229
4 153 64 227 208
4 161 205 258 224
4 240 237 238 223
4 226 227 233 208
4 234 228 254 229
4 171 248 137 210
4 160 132 204 232
4 180 131 138 159
4 133 251 213 252
4 171 206 248 207
4 162 138 217 159
4 161 258 243 244
4 220 225 237 223
4 151 150 166 212
4 260 247 257 245
4 259 262 214 263
4 151 66 150 207
4 234 254 209 253
4 162 233 250 208
4 242 241 262 263
4 171 137 172 136
4 161 243 131 159
4 160 204 225 223
4 161 131 205 181
4 179 255 137 136
4 216 238 204 223
4 100 39 248 210
4 260 213 247 252
4 226 233 132 232
4 134 214 215 263
4 180 138 150 212
4 178 261 239 245
4 259 246 258 244
4 178 239 205 224
4 240 238 246 244
4 242 262 239 224
4 99 250 64 208
4 240 246 254 253
4 242 239 247 245
4 135 219 228 229
4 99 166 250 212
4 259 214 246 253
4 118 241 251 252
4 100 248 66 207
4 134 209 214 253
4 162 250 138 212
4 242 247 241 252
4 71 187 61 280
4 102 281 197 280
4 122 92 82 203
4 17 18 82 117
4 122 82 123 117
4 19 264 273 265
4 267 279 222 20
4 125 273 270 265
4 267 272 279 176
4 19 116 18 117
4 21 25 286 24
4 23 28 26 20
4 23 285 28 27
4 218 286 275 24
4 85 53 84 288
4 235 236 231 266
4 221 222 28 20
4 267 222 231 230
4 268 38 129 203
4 125 270 197 188
4 126 287 272 176
4 277 270 276 265
4 267 231 272 266
4 125 197 187 280
4 190 129 92 203
4 277 276 287 176
4 19 18 264 22
4 17 82 38 203
4 102 197 90 188
4 126 84 287 288
4 284 130 285 27
4 121 276 264 265
4 71 37 187 177
4 120 123 116 117
4 198 88 127 191
4 221 16 25 24
4 23 26 15 22
4 121 279 276 176
4 235 231 124 230
4 125 187 273 177
4 278 271 236 266
4 277 287 283 288
4 284 285 274 282
4 278 127 271 191
4 269 275 16 24
4 200 283 53 288
4 23 15 285 282
4 121 26 279 20
4 21 124 25 230
4 19 273 116 177
4 200 90 283 188
4 126 271 84 191
4 269 16 130 27
4 17 38 15 282
4 221 25 222 230
4 121 264 26 22
4 120 116 37 177
4 60 61 281 280
4 277 283 270 188
4 126 272 271 266
4 268 274 38 282
4 85 84 88 191
4 17 15 18 22
4 221 28 16 27
4 93 94 73 55
4 85 88 67 87
4 80 49 79 87
4 44 104 73 72
4 146 33 67 168
4 211 165 149 55
4 8 47 14 154
4 105 104 108 144
4 105 108 29 107
4 7 139 13 75
4 44 165 194 98
4 200 53 77 168
4 8 1 101 4
4 2 5 152 58
4 260 6 213 3
4 105 35 104 72
4 96 57 182 75
4 7 14 139 154
4 146 29 33 107
4 7 13 10 9
4 12 13 57 75
4 85 67 53 168
4 44 73 165 55
4 63 152 62 58
4 8 101 47 46
4 96 182 194 144
4 60 281 119 4
4 12 5 6 3
4 173 185 35 72
4 65 149 94 55
4 146 67 49 87
4 114 113 47 154
4 163 108 182 144
4 12 6 13 9
4 173 35 111 156
4 163 182 139 75
4 260 257 6 9
4 105 29 35 156
4 163 139 113 154
4 256 10 257 9
4 146 49 29 156
4 163 113 108 107
4 80 111 49 156
4 102 101 281 4
4 12 57 5 58
4 44 194 104 144
4 96 194 62 98
4 2 0 5 3
4 93 73 185 72
4 179 119 1 4
4 200 77 90 46
4 114 33 113 107
4 7 10 14 11
4 96 62 57 58
4 133 213 0 3
4 102 90 101 46
4 256 255 10 11
4 63 62 249 98
4 114 47 77 46
4 179 1 255 11
4 211 249 165 98
4 114 77 33 168
4 198 79 88 87
4 8 14 1 11
CELL_TYPES 256
8
8
8
8
8
8
8
8
8
8
8
8
8
8
8
8
8
8
8
8
8
8
8
8
8
8
8
8
8
8
8
8
8
8
8
8
8
8
8
8
8
8
8
8
8
8
8
8
8
8
8
8
8
8
8
8
8
8
8
8
8
8
8
8
8
8
8
8
8
8
8
8
8
8
8
8
8
8
8
8
8
8
8
8
8
8
8
8
8
8
8
8
8
8
8
8
8
8
8
8
8
8
8
8
8
8
8
8
8
8
8
8
8
8
8
8
8
8
8
8
8
8
8
8
8
8
8
8
8
8
8
8
8
8
8
8
8
8
8
8
8
8
8
8
8
8
8
8
8
8
8
8
8
8
8
8
8
8
8
8
8
8
8
8
8
8
8
8
8
8
8
8
8
8
8
8
8
8
8
8
8
8
8
8
8
8
8
8
8
8
8
8
8
8
8
8
8
8
8
8
8
8
8
8
8
8
8
8
8
8
8
8
8
8
8
8
8
8
8
8
8
8
8
8
8
8
8
8
8
8
8
8
8
8
8
8
8
8
8
8
8
8
8
8
8
8
8
8
8
8
8
8
8
8
8
8
CELL_DATA 256
VECTORS vector_value float
0.192975 -0.813179 0
-0.20519 -3.4554 0
-0.217725 -0.695384 0
-0.0493719 -0.439653 0
-0.23784 -1.05133 0
-0.12555 -1.30035 0
0.28997 -1.18511 0
-0.0513506 -0.759086 0
-0.0552498 -0.271012 0
0.139499 -0.445216 0
-0.00606068 -5.64085 0
-0.229414 -0.663172 0
0.251333 -2.2241 0
-0.0773652 -1.81476 0
-0.431431 -1.35846 0
1.43031 -2.59497 0
0.282683 -3.59453 0
-0.0744308 -1.64269 0
0.591304 -2.39589 0
-0.151555 -0.388899 0
0.212914 -2.43301 0
0.950144 -2.02684 0
0.0301347 -0.25945 0
-0.306789 -1.43996 0
0.393615 -1.2293 0
0.335259 -2.20013 0
0.603402 -1.30171 0
-0.092932 -0.595995 0
-0.222115 -1.48448 0
-0.74684 -4.97795 0
0.0537603 -0.26633 0
0.0615071 -1.07624 0
-0.0188843 -0.551579 0
-0.353163 -1.47883 0
0.634176 -1.95855 0
-0.153054 -1.36809 0
-0.603575 -2.23442 0
-0.109635 -0.666454 0
-0.119108 -1.49779 0
0.570985 -3.95931 0
0.0679127 -0.347709 0
-0.275059 -3.25406 0
0.32438 -0.657547 0
0.00800276 -0.105052 0
-0.0660091 -0.559083 0
-0.0515632 -0.453374 0
0.0587253 -1.31326 0
0.170236 -4.40307 0
-0.548737 -2.71347 0
0.904399 -1.08843 0
-0.00073232 -0.105946 0
0.153868 -0.739536 0
-0.0395184 -1.82168 0
-0.0268243 -0.841295 0
0.381403 -0.913417 0
0.366681 -4.61995 0
-0.0444933 -0.382035 0
-0.0470353 -0.129691 0
0.450467 -1.20177 0
-0.254801 -0.66144 0
-0.0658838 -0.44432 0
1.24809 -2.01965 0
-0.382182 -3.41225 0
-0.00282784 -0.104969 0
-0.31436 -3.47514 0
-0.607573 -1.86627 0
-0.857448 -1.23208 0
-0.500218 -1.22176 0
-0.833143 -2.91252 0
0.00439387 -0.243839 0
-0.150729 -1.70861 0
0.0854344 -2.4536 0
0.330075 -0.446952 0
0.0292858 -0.229426 0
-0.181916 -3.24145 0
-0.19781 -0.410031 0
0.0393601 -0.28712 0
0.231397 -0.728709 0
0.0931273 -0.645388 0
-0.863237 -2.72792 0
0.246402 -0.668064 0
0.0174341 -0.137303 0
0.282022 -3.64191 0
0.408365 -0.861438 0
0.00768348 -0.176009 0
0.282769 -0.563028 0
-0.576667 -1.58455 0
-0.00350427 -0.16216 0
-0.101732 -1.42768 0
-1.6966 -0.925398 0
-1.42414 -4.36929 0
0.0975116 -0.658613 0
0.407863 -1.96689 0
0.158678 -0.297806 0
-0.340061 -2.64451 0
-0.53946 -0.75086 0
0.0588506 -1.12592 0
-1.2195 -4.40887 0
0.37137 -1.38254 0
0.0315183 -0.140267 0
-0.818977 -2.81685 0
-0.937829 -2.4966 0
0.142921 -1.42882 0
0.0114192 -0.137926 0
0.512682 -3.74573 0
-0.341719 -0.493331 0
0.23793 -0.629993 0
-0.303638 -1.10646 0
-0.677726 -0.619388 0
-0.0054857 -0.158321 0
0.365252 -0.993137 0
-0.330757 -2.25384 0
-0.318252 -1.77962 0
0.508637 -1.47615 0
-0.0541736 -1.41677 0
0.552364 -0.548197 0
-1.00335 -2.27112 0
0.0154318 -0.128025 0
0.411681 -1.0465 0
-0.321771 -1.71281 0
0.0225144 -1.00687 0
-0.0389254 -0.826704 0
0.418583 -1.02235 0
-1.0942 -1.6271 0
-0.905513 -2.9529 0
0.265473 -0.777531 0
0.0229746 -0.577165 0
-1.16635 -1.98027 0
-0.0407484 -0.279838 0
-0.102039 -0.186195 0
0.0443581 -1.46171 0
-0.10993 -0.356542 0
-0.041458 -0.990541 0
-0.18864 -0.232135 0
0.0633362 -0.119919 0
-0.234153 -0.32647 0
0.0866971 -0.136434 0
-0.280337 -0.54143 0
0.0233239 -1.74508 0
0.00883493 -0.0306252 0
0.00221713 -0.0184727 0
0.0523924 -1.8696 0
0.00382298 -0.927108 0
0.134324 -1.57454 0
0.0170843 -0.0716877 0
0.0505305 -0.298787 0
-0.0119757 -0.229515 0
-0.222867 -0.307419 0
0.21748 -0.310608 0
-0.15215 -0.260902 0
0.213484 -0.398157 0
-0.119253 -0.198462 0
-0.0179742 -1.4893 0
0.000264375 -0.290591 0
-0.126855 -0.11643 0
-0.0386175 -0.243182 0
-0.120869 -0.21427 0
0.260619 -0.63655 0
-0.000810165 -0.0157076 0
-0.0918394 -0.162139 0
-0.0525352 -0.424418 0
-0.149459 -0.946255 0
0.158201 -0.414925 0
0.0398934 -0.377916 0
-0.00642332 -0.0215654 0
0.0120934 -0.136102 0
0.0232745 -1.74306 0
-0.178114 -0.300123 0
0.190346 -1.26252 0
-0.0702298 -0.617277 0
0.000453071 -0.0169571 0
0.234516 -0.915393 0
0.0450308 -0.269522 0
-0.0831399 -0.689876 0
-0.000150762 -0.011737 0
0.0122449 -0.0603992 0
-0.00237455 -1.73377 0
-0.161455 -0.475541 0
-0.0716689 -0.376009 0
0.26153 -0.333244 0
0.00432811 -0.0620322 0
-0.00765388 -0.0441662 0
0.0142135 -0.380349 0
-0.0462514 -0.0665282 0
0.00371645 -0.516539 0
-0.0201539 -0.16966 0
-0.241403 -0.314419 0
0.426045 -0.453576 0
-0.00295398 -0.0265836 0
0.357953 -0.60801 0
-0.0384927 -0.0801856 0
0.0100253 -0.0775221 0
-0.0271184 -1.63141 0
-0.114839 -0.669928 0
-0.11874 -0.415496 0
-0.413917 -1.04978 0
-0.26538 -0.862562 0
0.652645 -0.989906 0
-0.176136 -0.211562 0
-0.410581 -0.794941 0
-0.209731 -0.685511 0
-0.525133 -0.217787 0
0.11988 -0.879245 0
-0.0282137 -0.384039 0
-0.0527684 -0.0999437 0
-0.316876 -0.51439 0
-0.672928 -0.513621 0
-0.236043 -0.724483 0
-0.353077 -0.21978 0
-0.415527 -0.209551 0
-0.15849 -0.690294 0
-0.565509 -0.224589 0
-0.338696 -0.239226 0
-0.040392 -1.22865 0
0.032972 -1.40861 0
0.177324 -0.773705 0
-0.0537809 -0.176005 0
-0.61369 -0.620584 0
-0.00624175 -0.0880574 0
-0.566945 -0.35328 0
-0.0287152 -1.33502 0
0.298336 -1.46557 0
-0.296274 -0.746627 0
-0.141971 -0.358753 0
-0.582848 -0.824451 0
-0.35466 -0.234091 0
-0.222862 -1.23132 0
-0.571046 -0.361497 0
-0.516504 -0.397816 0
-0.198551 -0.485504 0
-0.416442 -0.42651 0
-0.665198 -0.275411 0
-0.322805 -0.795803 0
-0.307763 -0.7332 0
-0.140848 -0.730394 0
-0.0387506 -0.128675 0
-0.398681 -0.350695 0
-0.827974 -1.12919 0
0.064081 -0.563696 0
-0.864979 -0.698907 0
-0.0868414 -1.46325 0
-0.0448729 -0.0965834 0
-0.106072 -0.627157 0
-0.136282 -0.688968 0
-0.489387 -0.177601 0
-0.141447 -0.291381 0
-1.31037 -0.738633 0
-0.0860663 -0.177094 0
-0.484604 -0.229628 0
0.598952 -0.717702 0
-0.112418 -0.44499 0
-0.293456 -0.225286 0
0.800137 -1.11696 0
-0.166838 -0.734117 0
-0.0436822 -0.247794 0
-0.192113 -0.118378 0
