# vtk DataFile Version 2.0
Unstructured Grid by M++
ASCII
DATASET UNSTRUCTURED_GRID
POINTS 81 float
  1.000000   0.625000 0
  0.750000   0.375000 0
  1.000000   0.000000 0
  0.875000   0.875000 0
  0.750000   0.125000 0
  1.000000   1.000000 0
  0.875000   0.250000 0
  0.625000   0.875000 0
  1.000000   0.750000 0
  0.875000   0.000000 0
  1.000000   0.250000 0
  0.625000   0.375000 0
  0.875000   0.500000 0
  0.625000   0.625000 0
  1.000000   0.500000 0
  0.750000   0.500000 0
  0.750000   1.000000 0
  1.000000   0.125000 0
  0.625000   0.250000 0
  0.750000   0.750000 0
  0.625000   0.000000 0
  0.125000   0.375000 0
  0.000000   0.500000 0
  0.125000   0.625000 0
  0.625000   1.000000 0
  1.000000   0.875000 0
  0.875000   0.125000 0
  0.500000   0.250000 0
  0.625000   0.500000 0
  0.250000   0.625000 0
  0.000000   0.625000 0
  0.375000   0.500000 0
  0.375000   0.000000 0
  0.000000   0.125000 0
  0.125000   0.875000 0
  0.875000   1.000000 0
  0.750000   0.250000 0
  0.375000   0.375000 0
  0.250000   0.375000 0
  0.625000   0.750000 0
  0.125000   0.125000 0
  0.500000   0.000000 0
  0.250000   0.875000 0
  0.125000   0.500000 0
  0.500000   0.375000 0
  0.125000   0.000000 0
  0.250000   0.750000 0
  0.250000   0.500000 0
  0.000000   0.875000 0
  0.875000   0.625000 0
  0.500000   0.750000 0
  0.750000   0.625000 0
  0.250000   0.000000 0
  0.375000   0.750000 0
  0.750000   0.875000 0
  0.625000   0.125000 0
  0.250000   0.250000 0
  0.375000   1.000000 0
  0.375000   0.250000 0
  0.000000   0.375000 0
  0.500000   1.000000 0
  0.875000   0.750000 0
  0.750000   0.000000 0
  0.375000   0.125000 0
  0.500000   0.875000 0
  0.000000   0.000000 0
  0.125000   0.750000 0
  0.500000   0.625000 0
  0.125000   0.250000 0
  0.500000   0.125000 0
  0.250000   1.000000 0
  0.250000   0.125000 0
  0.000000   1.000000 0
  0.375000   0.875000 0
  0.000000   0.750000 0
  0.375000   0.625000 0
  0.000000   0.250000 0
  0.125000   1.000000 0
  1.000000   0.375000 0
  0.500000   0.500000 0
  0.875000   0.375000 0
CELLS 64 320
4 56 71 58 63
4 27 58 69 63
4 41 69 32 63
4 76 33 68 40
4 27 44 58 37
4 79 31 44 37
4 56 38 68 21
4 56 58 38 37
4 52 32 71 63
4 47 38 31 37
4 76 68 59 21
4 22 59 43 21
4 65 45 33 40
4 47 43 38 21
4 52 71 45 40
4 56 68 71 40
4 74 30 66 23
4 46 66 29 23
4 22 43 30 23
4 72 48 77 34
4 46 53 42 73
4 50 64 53 73
4 70 42 57 73
4 74 66 48 34
4 46 42 66 34
4 47 29 43 23
4 70 77 42 34
4 60 57 64 73
4 79 67 31 75
4 47 31 29 75
4 50 53 67 75
4 46 29 53 75
4 10 78 6 80
4 36 6 1 80
4 15 1 12 80
4 36 4 6 26
4 14 12 78 80
4 2 17 9 26
4 36 18 4 55
4 15 28 1 11
4 62 4 20 55
4 10 6 17 26
4 27 18 44 11
4 62 9 4 26
4 27 69 18 55
4 36 1 18 11
4 41 20 69 55
4 79 44 28 11
4 16 24 54 7
4 19 54 39 7
4 50 39 64 7
4 8 25 61 3
4 60 64 24 7
4 79 28 67 13
4 19 51 61 49
4 8 61 0 49
4 15 51 28 13
4 19 39 51 13
4 50 67 39 13
4 19 61 54 3
4 14 0 12 49
4 5 35 25 3
4 15 12 51 49
4 16 54 35 3
CELL_TYPES 64
8
8
8
8
8
8
8
8
8
8
8
8
8
8
8
8
8
8
8
8
8
8
8
8
8
8
8
8
8
8
8
8
8
8
8
8
8
8
8
8
8
8
8
8
8
8
8
8
8
8
8
8
8
8
8
8
8
8
8
8
8
8
8
8
CELL_DATA 64
VECTORS vector_value float
-0.0537769 -0.312512 0
-0.031794 -0.19236 0
-0.0481401 -0.165109 0
-0.476464 -3.66151 0
0.159671 -0.79866 0
-1.12995 -1.58946 0
-1.96417 -2.05933 0
-1.08176 -1.50277 0
-0.0408245 -0.39317 0
-1.08556 -2.40891 0
-0.723817 -2.04787 0
-0.0536359 -1.11952 0
0.0839732 -3.54776 0
-0.26472 -1.3705 0
0.0999178 -1.88093 0
-0.427525 -1.75452 0
-0.0828517 -1.25256 0
-0.315038 -1.1506 0
0.0684831 -1.47228 0
-0.11651 -1.25045 0
-0.312555 -0.482927 0
-0.2286 -1.32573 0
0.421561 -0.806469 0
0.0409395 -1.14448 0
-0.116006 -0.777542 0
0.00143341 -1.09441 0
0.014546 -0.455315 0
0.474457 -1.17378 0
-0.540167 -1.65725 0
-0.788211 -1.3279 0
-1.06791 -1.93188 0
-0.190946 -0.191387 0
-0.0142493 -0.0493968 0
-0.0375135 -0.151654 0
-0.0300955 -0.0702263 0
0.00627351 -0.178364 0
-0.0399673 -0.135551 0
-0.000234625 -0.0458409 0
0.254472 -0.626569 0
-0.0860433 -0.318927 0
0.0728941 -1.01234 0
0.000668353 -0.0472089 0
0.271287 -1.0776 0
-0.00434201 -0.157748 0
0.34811 -1.22696 0
0.0438838 -0.312724 0
0.0311239 -0.797113 0
-0.432696 -0.986898 0
-0.574516 -1.44065 0
-0.685664 -1.71386 0
-0.577502 -1.71518 0
-0.0422974 -0.103803 0
0.0841713 -1.218 0
-0.350989 -1.77917 0
0.0424444 -0.186692 0
0.00847718 -0.0560104 0
-0.0611482 -0.393095 0
-0.741973 -1.34124 0
-1.25384 -1.88962 0
-0.451195 -0.736482 0
0.0408225 -0.148036 0
-0.430338 -0.549758 0
-0.0106463 -0.127855 0
-0.890935 -1.10558 0
