# vtk DataFile Version 2.0
Unstructured Grid by M++
ASCII
DATASET UNSTRUCTURED_GRID
POINTS 289 float
  0.562500   1.000000 0
  0.562500   0.625000 0
  0.625000   1.000000 0
  0.562500   0.937500 0
  0.562500   0.562500 0
  0.625000   0.937500 0
  0.562500   0.875000 0
  0.625000   0.750000 0
  0.625000   0.625000 0
  0.562500   0.812500 0
  0.562500   0.750000 0
  0.562500   0.687500 0
  0.625000   0.875000 0
  0.625000   0.812500 0
  0.625000   0.687500 0
  0.687500   0.125000 0
  0.875000   0.062500 0
  0.625000   0.125000 0
  0.625000   0.187500 0
  0.625000   0.250000 0
  0.812500   0.187500 0
  1.000000   0.125000 0
  0.687500   0.187500 0
  0.750000   0.125000 0
  0.937500   0.062500 0
  0.937500   0.125000 0
  0.750000   0.187500 0
  0.812500   0.062500 0
  0.812500   0.125000 0
  0.875000   0.687500 0
  0.187500   0.250000 0
  0.437500   0.250000 0
  0.375000   0.187500 0
  0.812500   0.625000 0
  0.125000   0.187500 0
  0.937500   0.750000 0
  0.250000   0.312500 0
  0.500000   0.312500 0
  0.625000   0.062500 0
  0.437500   0.500000 0
  0.375000   0.125000 0
  0.437500   0.187500 0
  0.437500   0.437500 0
  0.437500   0.375000 0
  0.875000   0.875000 0
  0.187500   0.375000 0
  0.687500   0.562500 0
  0.687500   0.625000 0
  0.000000   0.125000 0
  0.937500   0.625000 0
  0.250000   0.125000 0
  0.375000   0.062500 0
  0.375000   0.000000 0
  0.812500   0.500000 0
  0.125000   0.000000 0
  0.937500   0.937500 0
  0.250000   0.437500 0
  0.687500   0.875000 0
  0.687500   0.937500 0
  0.000000   0.437500 0
  0.500000   0.500000 0
  0.500000   0.437500 0
  0.750000   0.937500 0
  0.750000   1.000000 0
  0.062500   0.500000 0
  1.000000   1.000000 0
  0.312500   0.500000 0
  0.875000   0.562500 0
  0.187500   0.062500 0
  0.437500   0.125000 0
  0.437500   0.062500 0
  0.500000   0.375000 0
  0.937500   0.812500 0
  0.937500   0.875000 0
  0.250000   0.375000 0
  0.687500   0.812500 0
  0.000000   0.375000 0
  0.750000   0.562500 0
  0.062500   0.125000 0
  1.000000   0.562500 0
  1.000000   0.625000 0
  0.312500   0.125000 0
  0.562500   0.125000 0
  0.437500   0.000000 0
  0.875000   0.437500 0
  0.875000   0.500000 0
  0.187500   0.000000 0
  0.937500   0.562500 0
  0.937500   0.500000 0
  0.250000   0.062500 0
  0.687500   0.500000 0
  0.000000   0.062500 0
  0.500000   0.062500 0
  1.000000   0.875000 0
  1.000000   0.937500 0
  0.312500   0.437500 0
  0.750000   0.875000 0
  0.062500   0.437500 0
  0.812500   0.937500 0
  0.125000   0.500000 0
  0.375000   0.500000 0
  0.625000   0.562500 0
  0.625000   0.500000 0
  0.437500   0.312500 0
  0.875000   0.812500 0
  0.875000   0.750000 0
  0.187500   0.312500 0
  0.812500   0.687500 0
  0.812500   0.750000 0
  0.125000   0.250000 0
  0.375000   0.250000 0
  1.000000   0.687500 0
  0.312500   0.187500 0
  0.750000   0.687500 0
  0.750000   0.625000 0
  0.062500   0.187500 0
  0.562500   0.250000 0
  0.562500   0.187500 0
  0.375000   1.000000 0
  0.500000   0.562500 0
  0.500000   0.250000 0
  0.750000   0.250000 0
  0.500000   0.125000 0
  0.500000   0.187500 0
  1.000000   0.187500 0
  0.625000   0.375000 0
  0.875000   0.375000 0
  1.000000   0.437500 0
  0.312500   0.000000 0
  0.562500   0.000000 0
  0.812500   0.000000 0
  0.250000   0.687500 0
  0.000000   0.687500 0
  0.500000   1.000000 0
  0.250000   1.000000 0
  0.000000   1.000000 0
  0.437500   0.687500 0
  0.437500   0.625000 0
  0.187500   0.625000 0
  0.687500   0.750000 0
  0.000000   0.312500 0
  0.000000   0.250000 0
  0.375000   0.375000 0
  0.375000   0.312500 0
  0.812500   0.812500 0
  0.125000   0.312500 0
  0.875000   0.625000 0
  0.187500   0.187500 0
  0.187500   0.125000 0
  0.937500   1.000000 0
  0.250000   0.562500 0
  0.250000   0.500000 0
  0.687500   1.000000 0
  0.000000   0.500000 0
  0.687500   0.687500 0
  0.000000   0.187500 0
  0.937500   0.687500 0
  0.250000   0.250000 0
  0.250000   0.187500 0
  0.187500   0.687500 0
  0.000000   0.750000 0
  0.250000   0.750000 0
  0.125000   0.625000 0
  0.750000   0.750000 0
  0.062500   0.250000 0
  0.875000   0.937500 0
  0.187500   0.500000 0
  0.187500   0.437500 0
  0.812500   0.562500 0
  0.125000   0.125000 0
  0.125000   0.062500 0
  0.375000   0.625000 0
  0.375000   0.687500 0
  1.000000   0.750000 0
  0.312500   0.250000 0
  0.312500   0.312500 0
  0.812500   0.312500 0
  0.562500   0.312500 0
  0.375000   0.750000 0
  0.500000   0.625000 0
  0.250000   0.625000 0
  0.312500   0.687500 0
  0.750000   0.812500 0
  0.062500   0.312500 0
  0.062500   0.375000 0
  1.000000   0.812500 0
  0.312500   0.375000 0
  0.562500   0.375000 0
  0.687500   0.437500 0
  0.000000   0.000000 0
  0.500000   0.000000 0
  0.937500   0.437500 0
  0.250000   0.000000 0
  0.375000   0.437500 0
  0.812500   0.875000 0
  0.125000   0.375000 0
  0.125000   0.437500 0
  0.625000   0.437500 0
  1.000000   0.500000 0
  0.312500   0.062500 0
  0.750000   0.500000 0
  0.062500   0.000000 0
  0.062500   0.062500 0
  0.562500   0.062500 0
  0.062500   0.750000 0
  0.312500   0.750000 0
  0.312500   0.625000 0
  0.312500   0.562500 0
  0.062500   0.562500 0
  0.187500   1.000000 0
  0.437500   0.562500 0
  0.875000   1.000000 0
  0.187500   0.562500 0
  0.500000   0.937500 0
  0.250000   0.937500 0
  0.312500   1.000000 0
  0.125000   0.750000 0
  0.125000   0.687500 0
  1.000000   0.000000 0
  0.000000   0.937500 0
  0.000000   0.875000 0
  0.875000   0.125000 0
  0.875000   0.187500 0
  0.062500   0.812500 0
  0.312500   0.812500 0
  0.000000   0.812500 0
  0.000000   0.625000 0
  0.000000   0.562500 0
  0.062500   1.000000 0
  0.062500   0.937500 0
  0.937500   0.187500 0
  0.937500   0.250000 0
  0.062500   0.687500 0
  0.062500   0.625000 0
  0.125000   1.000000 0
  1.000000   0.250000 0
  1.000000   0.312500 0
  0.062500   0.875000 0
  0.125000   0.812500 0
  0.375000   0.812500 0
  0.125000   0.875000 0
  0.375000   0.937500 0
  0.375000   0.875000 0
  0.187500   0.750000 0
  0.187500   0.812500 0
  0.437500   0.812500 0
  0.187500   0.875000 0
  0.437500   0.875000 0
  0.375000   0.562500 0
  0.812500   1.000000 0
  0.125000   0.562500 0
  0.437500   1.000000 0
  0.437500   0.937500 0
  0.187500   0.937500 0
  0.125000   0.937500 0
  0.500000   0.687500 0
  0.500000   0.750000 0
  0.500000   0.812500 0
  0.250000   0.812500 0
  0.250000   0.875000 0
  0.500000   0.875000 0
  0.437500   0.750000 0
  0.312500   0.875000 0
  0.312500   0.937500 0
  0.687500   0.250000 0
  0.687500   0.312500 0
  0.937500   0.312500 0
  0.875000   0.250000 0
  0.625000   0.000000 0
  0.875000   0.000000 0
  0.687500   0.375000 0
  0.937500   0.375000 0
  0.875000   0.312500 0
  0.625000   0.312500 0
  0.687500   0.000000 0
  0.937500   0.000000 0
  0.750000   0.312500 0
  0.750000   0.375000 0
  1.000000   0.375000 0
  0.812500   0.250000 0
  0.562500   0.437500 0
  0.562500   0.500000 0
  0.687500   0.062500 0
  0.750000   0.437500 0
  0.750000   0.000000 0
  0.750000   0.062500 0
  1.000000   0.062500 0
  0.812500   0.375000 0
  0.812500   0.437500 0
CELLS 256 1280
4 169 170 148 68
4 151 166 56 167
4 195 45 196 167
4 54 170 201 202
4 109 34 30 147
4 40 32 81 112
4 192 89 86 68
4 48 91 78 202
4 99 64 196 97
4 71 43 37 103
4 74 186 56 95
4 109 164 34 115
4 50 81 158 112
4 122 69 92 70
4 195 145 45 106
4 110 143 174 175
4 157 30 158 147
4 40 69 32 41
4 50 158 148 147
4 141 155 164 115
4 122 123 69 41
4 142 186 143 175
4 60 39 61 42
4 40 51 69 70
4 120 31 123 41
4 157 174 36 175
4 50 148 89 68
4 48 78 155 115
4 52 83 51 70
4 151 56 66 95
4 71 61 43 42
4 169 148 34 147
4 100 193 39 42
4 40 81 51 199
4 110 174 32 112
4 109 30 145 106
4 100 66 193 95
4 169 34 78 115
4 190 92 83 70
4 50 89 81 199
4 54 86 170 68
4 74 56 45 167
4 142 143 43 103
4 153 59 64 97
4 99 196 166 167
4 169 78 170 202
4 142 193 186 95
4 192 128 89 199
4 74 45 36 106
4 110 31 143 103
4 76 184 59 97
4 142 43 193 42
4 52 51 128 199
4 189 201 91 202
4 120 37 31 103
4 74 36 186 175
4 195 196 184 97
4 141 164 140 183
4 157 158 174 112
4 109 145 164 183
4 195 184 145 183
4 110 32 31 41
4 157 36 30 106
4 76 140 184 183
4 171 172 206 181
4 178 172 261 136
4 256 261 255 136
4 256 257 261 245
4 180 150 206 207
4 60 119 39 210
4 118 215 241 263
4 178 205 172 181
4 216 243 238 244
4 162 217 233 232
4 180 206 131 181
4 179 137 119 210
4 216 204 217 232
4 220 237 219 229
4 216 217 243 159
4 259 258 262 224
4 240 254 237 229
4 153 64 227 208
4 161 205 258 224
4 240 237 238 223
4 226 227 233 208
4 234 228 254 229
4 171 248 137 210
4 160 132 204 232
4 180 131 138 159
4 133 251 213 252
4 171 206 248 207
4 162 138 217 159
4 161 258 243 244
4 220 225 237 223
4 151 150 166 212
4 260 247 257 245
4 259 262 214 263
4 151 66 150 207
4 234 254 209 253
4 162 233 250 208
4 242 241 262 263
4 171 137 172 136
4 161 243 131 159
4 160 204 225 223
4 161 131 205 181
4 179 255 137 136
4 216 238 204 223
4 100 39 248 210
4 260 213 247 252
4 226 233 132 232
4 134 214 215 263
4 180 138 150 212
4 178 261 239 245
4 259 246 258 244
4 178 239 205 224
4 240 238 246 244
4 242 262 239 224
4 99 250 64 208
4 240 246 254 253
4 242 239 247 245
4 135 219 228 229
4 99 166 250 212
4 259 214 246 253
4 118 241 251 252
4 100 248 66 207
4 134 209 214 253
4 162 250 138 212
4 242 247 241 252
4 71 187 61 280
4 102 281 197 280
4 122 92 82 203
4 17 18 82 117
4 122 82 123 117
4 19 264 273 265
4 267 279 222 20
4 125 273 270 265
4 267 272 279 176
4 19 116 18 117
4 21 25 286 24
4 23 28 26 20
4 23 285 28 27
4 218 286 275 24
4 85 53 84 288
4 235 236 231 266
4 221 222 28 20
4 267 222 231 230
4 268 38 129 203
4 125 270 197 188
4 126 287 272 176
4 277 270 276 265
4 267 231 272 266
4 125 197 187 280
4 190 129 92 203
4 277 276 287 176
4 19 18 264 22
4 17 82 38 203
4 102 197 90 188
4 126 84 287 288
4 284 130 285 27
4 121 276 264 265
4 71 37 187 177
4 120 123 116 117
4 198 88 127 191
4 221 16 25 24
4 23 26 15 22
4 121 279 276 176
4 235 231 124 230
4 125 187 273 177
4 278 271 236 266
4 277 287 283 288
4 284 285 274 282
4 278 127 271 191
4 269 275 16 24
4 200 283 53 288
4 23 15 285 282
4 121 26 279 20
4 21 124 25 230
4 19 273 116 177
4 200 90 283 188
4 126 271 84 191
4 269 16 130 27
4 17 38 15 282
4 221 25 222 230
4 121 264 26 22
4 120 116 37 177
4 60 61 281 280
4 277 283 270 188
4 126 272 271 266
4 268 274 38 282
4 85 84 88 191
4 17 15 18 22
4 221 28 16 27
4 93 94 73 55
4 85 88 67 87
4 80 49 79 87
4 44 104 73 72
4 146 33 67 168
4 211 165 149 55
4 8 47 14 154
4 105 104 108 144
4 105 108 29 107
4 7 139 13 75
4 44 165 194 98
4 200 53 77 168
4 8 1 101 4
4 2 5 152 58
4 260 6 213 3
4 105 35 104 72
4 96 57 182 75
4 7 14 139 154
4 146 29 33 107
4 7 13 10 9
4 12 13 57 75
4 85 67 53 168
4 44 73 165 55
4 63 152 62 58
4 8 101 47 46
4 96 182 194 144
4 60 281 119 4
4 12 5 6 3
4 173 185 35 72
4 65 149 94 55
4 146 67 49 87
4 114 113 47 154
4 163 108 182 144
4 12 6 13 9
4 173 35 111 156
4 163 182 139 75
4 260 257 6 9
4 105 29 35 156
4 163 139 113 154
4 256 10 257 9
4 146 49 29 156
4 163 113 108 107
4 80 111 49 156
4 102 101 281 4
4 12 57 5 58
4 44 194 104 144
4 96 194 62 98
4 2 0 5 3
4 93 73 185 72
4 179 119 1 4
4 200 77 90 46
4 114 33 113 107
4 7 10 14 11
4 96 62 57 58
4 133 213 0 3
4 102 90 101 46
4 256 255 10 11
4 63 62 249 98
4 114 47 77 46
4 179 1 255 11
4 211 249 165 98
4 114 77 33 168
4 198 79 88 87
4 8 14 1 11
CELL_TYPES 256
8
8
8
8
8
8
8
8
8
8
8
8
8
8
8
8
8
8
8
8
8
8
8
8
8
8
8
8
8
8
8
8
8
8
8
8
8
8
8
8
8
8
8
8
8
8
8
8
8
8
8
8
8
8
8
8
8
8
8
8
8
8
8
8
8
8
8
8
8
8
8
8
8
8
8
8
8
8
8
8
8
8
8
8
8
8
8
8
8
8
8
8
8
8
8
8
8
8
8
8
8
8
8
8
8
8
8
8
8
8
8
8
8
8
8
8
8
8
8
8
8
8
8
8
8
8
8
8
8
8
8
8
8
8
8
8
8
8
8
8
8
8
8
8
8
8
8
8
8
8
8
8
8
8
8
8
8
8
8
8
8
8
8
8
8
8
8
8
8
8
8
8
8
8
8
8
8
8
8
8
8
8
8
8
8
8
8
8
8
8
8
8
8
8
8
8
8
8
8
8
8
8
8
8
8
8
8
8
8
8
8
8
8
8
8
8
8
8
8
8
8
8
8
8
8
8
8
8
8
8
8
8
8
8
8
8
8
8
8
8
8
8
8
8
8
8
8
8
8
8
8
8
8
8
8
8
CELL_DATA 256
VECTORS vector_value float
-0.246962 -0.627933 0
-0.632506 -1.14348 0
-0.387919 -0.98163 0
-0.0193025 -0.301346 0
0.0983263 -0.471557 0
-0.526977 -2.48223 0
-0.495301 -2.19779 0
0.0208095 -0.1067 0
-0.0324798 -0.29764 0
0.876589 -1.57735 0
-0.337088 -1.37589 0
0.0126337 -0.166645 0
-0.305717 -3.17703 0
-0.0262108 -1.00775 0
0.238385 -1.42089 0
-0.138731 -1.23689 0
0.279799 -1.04657 0
-0.324879 -1.40643 0
-0.108695 -1.04766 0
-0.0182492 -0.147265 0
-0.0176769 -1.37126 0
0.193534 -2.01647 0
0.364669 -0.575578 0
0.0150312 -1.42908 0
0.0118359 -1.5919 0
0.163232 -1.66559 0
-0.542841 -1.34626 0
0.00558747 -0.156147 0
0.127748 -1.5547 0
-0.162342 -2.13083 0
1.32217 -1.34206 0
-9.3763e-05 -0.389012 0
1.40641 -3.1146 0
-0.177451 -1.95181 0
-0.356184 -1.51435 0
0.338039 -0.823595 0
0.996892 -4.80073 0
0.00339753 -0.120385 0
-0.12117 -1.47412 0
-0.710114 -3.20949 0
-0.0688187 -0.766784 0
-0.474347 -1.11609 0
0.922126 -3.05825 0
0.0170464 -0.175798 0
-0.199731 -0.419518 0
-0.0320286 -0.257088 0
0.508404 -3.52057 0
-0.395827 -2.50189 0
-0.183087 -1.35454 0
0.234679 -2.81414 0
0.0199046 -0.132561 0
1.14187 -3.04049 0
-0.0177921 -1.39736 0
-0.00624873 -0.114136 0
0.500142 -1.59324 0
-0.306988 -1.13644 0
-0.0161958 -0.464817 0
-0.0158675 -0.0908654 0
0.464885 -3.12089 0
0.0161763 -0.289445 0
0.103678 -0.393428 0
-0.445545 -2.09293 0
0.994899 -1.88755 0
0.0158642 -0.102899 0
0.336138 -3.94742 0
-0.419407 -0.734022 0
-0.539106 -0.410162 0
-0.688532 -0.298467 0
0.465441 -5.17368 0
0.151329 -0.544523 0
-0.76313 -1.61687 0
-0.410422 -3.956 0
0.428811 -0.421878 0
-0.0149875 -0.0659856 0
0.330888 -6.28399 0
-0.0786029 -0.563379 0
-0.0197119 -0.0574101 0
0.175657 -0.509267 0
0.0206056 -0.137955 0
-0.0833337 -3.24979 0
0.256008 -0.579467 0
0.00532022 -0.223996 0
0.420593 -4.41548 0
0.424397 -0.50146 0
-0.0106368 -0.186054 0
0.578416 -0.546401 0
0.135928 -1.21315 0
-0.0205789 -0.168164 0
-0.018187 -0.879498 0
-1.03904 -0.715902 0
0.627797 -4.63215 0
-0.029179 -0.0867579 0
0.934703 -1.97164 0
0.0697742 -0.17216 0
-0.307576 -0.671131 0
-1.23783 -0.708328 0
-0.212681 -1.72319 0
0.526567 -4.18834 0
0.818616 -1.50275 0
-0.0386666 -0.113334 0
-0.951633 -2.28815 0
-0.0234043 -0.721368 0
0.379442 -1.39969 0
-0.00673856 -0.117703 0
0.158623 -5.46577 0
-0.23905 -0.519429 0
0.04829 -0.157845 0
0.549156 -1.68282 0
-1.33077 -1.25871 0
-0.000239085 -0.184438 0
-0.213111 -1.06575 0
-0.0680292 -0.953767 0
-1.2842 -1.01945 0
0.614204 -2.03038 0
-0.928345 -3.24715 0
0.6026 -0.694328 0
-0.921409 -2.33457 0
-0.03765 -0.127743 0
0.340232 -0.802444 0
-1.40322 -1.19667 0
0.190486 -0.945924 0
-0.184707 -0.262908 0
0.666053 -2.11877 0
-1.32807 -0.908467 0
1.44572 -5.19573 0
0.0977586 -1.11286 0
-0.0785509 -0.0923207 0
-0.839577 -0.674985 0
0.892167 -0.832157 0
0.154262 -0.650984 0
-0.260495 -1.61745 0
-0.363491 -0.853055 0
-0.0917857 -0.818952 0
0.818255 -1.05029 0
0.544904 -0.468045 0
0.833843 -1.09237 0
0.406587 -0.396693 0
-0.0262101 -0.831687 0
-0.0328731 -0.374154 0
0.241665 -0.613015 0
0.226045 -0.972837 0
-0.0212646 -0.292272 0
-0.0821569 -0.292051 0
0.0172945 -0.134909 0
0.313573 -0.687493 0
0.364428 -0.539062 0
-0.0464893 -0.367824 0
0.142277 -0.501977 0
0.0275102 -0.233188 0
0.178257 -0.985808 0
0.105074 -0.184432 0
0.407853 -0.810943 0
-0.143292 -1.37719 0
0.0142068 -0.628159 0
0.0282286 -0.874681 0
-0.155201 -0.437758 0
0.226591 -0.421384 0
-0.0520353 -0.278124 0
0.0975301 -1.05103 0
0.944994 -1.56335 0
0.871748 -0.708769 0
0.031775 -0.674655 0
-0.0151157 -0.128699 0
-0.0353899 -0.965065 0
0.276442 -0.982764 0
0.618603 -0.708123 0
0.0786812 -0.244921 0
1.11452 -1.05755 0
-0.000712257 -0.11891 0
0.0150773 -0.648282 0
0.070884 -0.434475 0
-0.00133979 -0.135451 0
-0.0581727 -0.960439 0
0.0436236 -0.381158 0
0.128326 -0.573652 0
0.662914 -0.88645 0
0.0389493 -0.40723 0
0.610913 -0.940844 0
0.381384 -0.791195 0
-0.016559 -0.101273 0
0.00680957 -0.888597 0
-0.0109877 -0.437185 0
0.196699 -0.809686 0
0.285342 -1.32839 0
0.497718 -0.620044 0
0.195926 -0.505068 0
0.0680177 -0.71768 0
0.0111012 -0.114975 0
-0.000878076 -0.32005 0
-0.0584818 -0.171283 0
-0.0643911 -0.677654 0
0.0416668 -0.685783 0
-0.0254451 -0.189161 0
-0.075651 -0.180228 0
-0.00609541 -0.239422 0
-0.0169798 -0.177209 0
-0.0141084 -0.211894 0
-1.10779 -0.805815 0
-0.0303292 -0.350548 0
0.0433978 -0.204795 0
0.0786143 -0.169505 0
-1.44053 -1.23561 0
-0.465743 -0.756726 0
0.0290982 -0.179064 0
0.390972 -1.12615 0
-0.479772 -0.711982 0
-0.726125 -0.570885 0
0.0468908 -0.114849 0
-1.07485 -1.39099 0
-0.553769 -0.634626 0
0.0210457 -0.180301 0
-1.05897 -0.77173 0
-1.42351 -1.19756 0
-0.0730679 -0.292796 0
-0.127715 -0.3019 0
-0.643002 -1.40483 0
0.252169 -0.526686 0
-0.648627 -1.13803 0
0.118433 -0.405001 0
-0.481953 -0.38902 0
0.0299847 -0.205708 0
-0.395445 -0.633608 0
-0.0287236 -0.228464 0
-0.00120573 -0.132238 0
-0.280487 -0.537555 0
-0.954318 -0.438736 0
0.00312241 -0.252931 0
-0.964796 -0.858835 0
-0.773765 -0.299814 0
0.0592101 -0.173138 0
-0.164806 -0.325481 0
-0.78102 -0.421299 0
0.0048556 -0.259958 0
0.0274114 -0.160745 0
0.000959516 -0.227739 0
0.173595 -0.716113 0
-0.485587 -0.672674 0
-0.184626 -0.317348 0
-0.580098 -1.15606 0
-0.970543 -0.619376 0
0.0044954 -0.152638 0
0.0718913 -0.523159 0
0.221852 -0.332284 0
0.0166509 -0.0877428 0
-1.09083 -1.28901 0
-0.823611 -2.00859 0
-1.40642 -1.3384 0
0.475082 -0.803943 0
-0.776095 -0.665383 0
-1.31302 -1.18016 0
0.0381606 -0.116981 0
-0.241261 -0.977757 0
-1.41423 -0.890896 0
0.0124844 -0.0994024 0
-0.032604 -0.193379 0
-0.0810819 -1.09483 0
