# vtk DataFile Version 2.0
Unstructured Grid by M++
ASCII
DATASET UNSTRUCTURED_GRID
POINTS 289 float
  0.562500   1.000000 0
  0.562500   0.625000 0
  0.625000   1.000000 0
  0.562500   0.937500 0
  0.562500   0.562500 0
  0.625000   0.937500 0
  0.562500   0.875000 0
  0.625000   0.750000 0
  0.625000   0.625000 0
  0.562500   0.812500 0
  0.562500   0.750000 0
  0.562500   0.687500 0
  0.625000   0.875000 0
  0.625000   0.812500 0
  0.625000   0.687500 0
  0.687500   0.125000 0
  0.875000   0.062500 0
  0.625000   0.125000 0
  0.625000   0.187500 0
  0.625000   0.250000 0
  0.812500   0.187500 0
  1.000000   0.125000 0
  0.687500   0.187500 0
  0.750000   0.125000 0
  0.937500   0.062500 0
  0.937500   0.125000 0
  0.750000   0.187500 0
  0.812500   0.062500 0
  0.812500   0.125000 0
  0.875000   0.687500 0
  0.187500   0.250000 0
  0.437500   0.250000 0
  0.375000   0.187500 0
  0.812500   0.625000 0
  0.125000   0.187500 0
  0.937500   0.750000 0
  0.250000   0.312500 0
  0.500000   0.312500 0
  0.625000   0.062500 0
  0.437500   0.500000 0
  0.375000   0.125000 0
  0.437500   0.187500 0
  0.437500   0.437500 0
  0.437500   0.375000 0
  0.875000   0.875000 0
  0.187500   0.375000 0
  0.687500   0.562500 0
  0.687500   0.625000 0
  0.000000   0.125000 0
  0.937500   0.625000 0
  0.250000   0.125000 0
  0.375000   0.062500 0
  0.375000   0.000000 0
  0.812500   0.500000 0
  0.125000   0.000000 0
  0.937500   0.937500 0
  0.250000   0.437500 0
  0.687500   0.875000 0
  0.687500   0.937500 0
  0.000000   0.437500 0
  0.500000   0.500000 0
  0.500000   0.437500 0
  0.750000   0.937500 0
  0.750000   1.000000 0
  0.062500   0.500000 0
  1.000000   1.000000 0
  0.312500   0.500000 0
  0.875000   0.562500 0
  0.187500   0.062500 0
  0.437500   0.125000 0
  0.437500   0.062500 0
  0.500000   0.375000 0
  0.937500   0.812500 0
  0.937500   0.875000 0
  0.250000   0.375000 0
  0.687500   0.812500 0
  0.000000   0.375000 0
  0.750000   0.562500 0
  0.062500   0.125000 0
  1.000000   0.562500 0
  1.000000   0.625000 0
  0.312500   0.125000 0
  0.562500   0.125000 0
  0.437500   0.000000 0
  0.875000   0.437500 0
  0.875000   0.500000 0
  0.187500   0.000000 0
  0.937500   0.562500 0
  0.937500   0.500000 0
  0.250000   0.062500 0
  0.687500   0.500000 0
  0.000000   0.062500 0
  0.500000   0.062500 0
  1.000000   0.875000 0
  1.000000   0.937500 0
  0.312500   0.437500 0
  0.750000   0.875000 0
  0.062500   0.437500 0
  0.812500   0.937500 0
  0.125000   0.500000 0
  0.375000   0.500000 0
  0.625000   0.562500 0
  0.625000   0.500000 0
  0.437500   0.312500 0
  0.875000   0.812500 0
  0.875000   0.750000 0
  0.187500   0.312500 0
  0.812500   0.687500 0
  0.812500   0.750000 0
  0.125000   0.250000 0
  0.375000   0.250000 0
  1.000000   0.687500 0
  0.312500   0.187500 0
  0.750000   0.687500 0
  0.750000   0.625000 0
  0.062500   0.187500 0
  0.562500   0.250000 0
  0.562500   0.187500 0
  0.375000   1.000000 0
  0.500000   0.562500 0
  0.500000   0.250000 0
  0.750000   0.250000 0
  0.500000   0.125000 0
  0.500000   0.187500 0
  1.000000   0.187500 0
  0.625000   0.375000 0
  0.875000   0.375000 0
  1.000000   0.437500 0
  0.312500   0.000000 0
  0.562500   0.000000 0
  0.812500   0.000000 0
  0.250000   0.687500 0
  0.000000   0.687500 0
  0.500000   1.000000 0
  0.250000   1.000000 0
  0.000000   1.000000 0
  0.437500   0.687500 0
  0.437500   0.625000 0
  0.187500   0.625000 0
  0.687500   0.750000 0
  0.000000   0.312500 0
  0.000000   0.250000 0
  0.375000   0.375000 0
  0.375000   0.312500 0
  0.812500   0.812500 0
  0.125000   0.312500 0
  0.875000   0.625000 0
  0.187500   0.187500 0
  0.187500   0.125000 0
  0.937500   1.000000 0
  0.250000   0.562500 0
  0.250000   0.500000 0
  0.687500   1.000000 0
  0.000000   0.500000 0
  0.687500   0.687500 0
  0.000000   0.187500 0
  0.937500   0.687500 0
  0.250000   0.250000 0
  0.250000   0.187500 0
  0.187500   0.687500 0
  0.000000   0.750000 0
  0.250000   0.750000 0
  0.125000   0.625000 0
  0.750000   0.750000 0
  0.062500   0.250000 0
  0.875000   0.937500 0
  0.187500   0.500000 0
  0.187500   0.437500 0
  0.812500   0.562500 0
  0.125000   0.125000 0
  0.125000   0.062500 0
  0.375000   0.625000 0
  0.375000   0.687500 0
  1.000000   0.750000 0
  0.312500   0.250000 0
  0.312500   0.312500 0
  0.812500   0.312500 0
  0.562500   0.312500 0
  0.375000   0.750000 0
  0.500000   0.625000 0
  0.250000   0.625000 0
  0.312500   0.687500 0
  0.750000   0.812500 0
  0.062500   0.312500 0
  0.062500   0.375000 0
  1.000000   0.812500 0
  0.312500   0.375000 0
  0.562500   0.375000 0
  0.687500   0.437500 0
  0.000000   0.000000 0
  0.500000   0.000000 0
  0.937500   0.437500 0
  0.250000   0.000000 0
  0.375000   0.437500 0
  0.812500   0.875000 0
  0.125000   0.375000 0
  0.125000   0.437500 0
  0.625000   0.437500 0
  1.000000   0.500000 0
  0.312500   0.062500 0
  0.750000   0.500000 0
  0.062500   0.000000 0
  0.062500   0.062500 0
  0.562500   0.062500 0
  0.062500   0.750000 0
  0.312500   0.750000 0
  0.312500   0.625000 0
  0.312500   0.562500 0
  0.062500   0.562500 0
  0.187500   1.000000 0
  0.437500   0.562500 0
  0.875000   1.000000 0
  0.187500   0.562500 0
  0.500000   0.937500 0
  0.250000   0.937500 0
  0.312500   1.000000 0
  0.125000   0.750000 0
  0.125000   0.687500 0
  1.000000   0.000000 0
  0.000000   0.937500 0
  0.000000   0.875000 0
  0.875000   0.125000 0
  0.875000   0.187500 0
  0.062500   0.812500 0
  0.312500   0.812500 0
  0.000000   0.812500 0
  0.000000   0.625000 0
  0.000000   0.562500 0
  0.062500   1.000000 0
  0.062500   0.937500 0
  0.937500   0.187500 0
  0.937500   0.250000 0
  0.062500   0.687500 0
  0.062500   0.625000 0
  0.125000   1.000000 0
  1.000000   0.250000 0
  1.000000   0.312500 0
  0.062500   0.875000 0
  0.125000   0.812500 0
  0.375000   0.812500 0
  0.125000   0.875000 0
  0.375000   0.937500 0
  0.375000   0.875000 0
  0.187500   0.750000 0
  0.187500   0.812500 0
  0.437500   0.812500 0
  0.187500   0.875000 0
  0.437500   0.875000 0
  0.375000   0.562500 0
  0.812500   1.000000 0
  0.125000   0.562500 0
  0.437500   1.000000 0
  0.437500   0.937500 0
  0.187500   0.937500 0
  0.125000   0.937500 0
  0.500000   0.687500 0
  0.500000   0.750000 0
  0.500000   0.812500 0
  0.250000   0.812500 0
  0.250000   0.875000 0
  0.500000   0.875000 0
  0.437500   0.750000 0
  0.312500   0.875000 0
  0.312500   0.937500 0
  0.687500   0.250000 0
  0.687500   0.312500 0
  0.937500   0.312500 0
  0.875000   0.250000 0
  0.625000   0.000000 0
  0.875000   0.000000 0
  0.687500   0.375000 0
  0.937500   0.375000 0
  0.875000   0.312500 0
  0.625000   0.312500 0
  0.687500   0.000000 0
  0.937500   0.000000 0
  0.750000   0.312500 0
  0.750000   0.375000 0
  1.000000   0.375000 0
  0.812500   0.250000 0
  0.562500   0.437500 0
  0.562500   0.500000 0
  0.687500   0.062500 0
  0.750000   0.437500 0
  0.750000   0.000000 0
  0.750000   0.062500 0
  1.000000   0.062500 0
  0.812500   0.375000 0
  0.812500   0.437500 0
CELLS 256 1280
4 169 170 148 68
4 151 166 56 167
4 195 45 196 167
4 54 170 201 202
4 109 34 30 147
4 40 32 81 112
4 192 89 86 68
4 48 91 78 202
4 99 64 196 97
4 71 43 37 103
4 74 186 56 95
4 109 164 34 115
4 50 81 158 112
4 122 69 92 70
4 195 145 45 106
4 110 143 174 175
4 157 30 158 147
4 40 69 32 41
4 50 158 148 147
4 141 155 164 115
4 122 123 69 41
4 142 186 143 175
4 60 39 61 42
4 40 51 69 70
4 120 31 123 41
4 157 174 36 175
4 50 148 89 68
4 48 78 155 115
4 52 83 51 70
4 151 56 66 95
4 71 61 43 42
4 169 148 34 147
4 100 193 39 42
4 40 81 51 199
4 110 174 32 112
4 109 30 145 106
4 100 66 193 95
4 169 34 78 115
4 190 92 83 70
4 50 89 81 199
4 54 86 170 68
4 74 56 45 167
4 142 143 43 103
4 153 59 64 97
4 99 196 166 167
4 169 78 170 202
4 142 193 186 95
4 192 128 89 199
4 74 45 36 106
4 110 31 143 103
4 76 184 59 97
4 142 43 193 42
4 52 51 128 199
4 189 201 91 202
4 120 37 31 103
4 74 36 186 175
4 195 196 184 97
4 141 164 140 183
4 157 158 174 112
4 109 145 164 183
4 195 184 145 183
4 110 32 31 41
4 157 36 30 106
4 76 140 184 183
4 171 172 206 181
4 178 172 261 136
4 256 261 255 136
4 256 257 261 245
4 180 150 206 207
4 60 119 39 210
4 118 215 241 263
4 178 205 172 181
4 216 243 238 244
4 162 217 233 232
4 180 206 131 181
4 179 137 119 210
4 216 204 217 232
4 220 237 219 229
4 216 217 243 159
4 259 258 262 224
4 240 254 237 229
4 153 64 227 208
4 161 205 258 224
4 240 237 238 223
4 226 227 233 208
4 234 228 254 229
4 171 248 137 210
4 160 132 204 232
4 180 131 138 159
4 133 251 213 252
4 171 206 248 207
4 162 138 217 159
4 161 258 243 244
4 220 225 237 223
4 151 150 166 212
4 260 247 257 245
4 259 262 214 263
4 151 66 150 207
4 234 254 209 253
4 162 233 250 208
4 242 241 262 263
4 171 137 172 136
4 161 243 131 159
4 160 204 225 223
4 161 131 205 181
4 179 255 137 136
4 216 238 204 223
4 100 39 248 210
4 260 213 247 252
4 226 233 132 232
4 134 214 215 263
4 180 138 150 212
4 178 261 239 245
4 259 246 258 244
4 178 239 205 224
4 240 238 246 244
4 242 262 239 224
4 99 250 64 208
4 240 246 254 253
4 242 239 247 245
4 135 219 228 229
4 99 166 250 212
4 259 214 246 253
4 118 241 251 252
4 100 248 66 207
4 134 209 214 253
4 162 250 138 212
4 242 247 241 252
4 71 187 61 280
4 102 281 197 280
4 122 92 82 203
4 17 18 82 117
4 122 82 123 117
4 19 264 273 265
4 267 279 222 20
4 125 273 270 265
4 267 272 279 176
4 19 116 18 117
4 21 25 286 24
4 23 28 26 20
4 23 285 28 27
4 218 286 275 24
4 85 53 84 288
4 235 236 231 266
4 221 222 28 20
4 267 222 231 230
4 268 38 129 203
4 125 270 197 188
4 126 287 272 176
4 277 270 276 265
4 267 231 272 266
4 125 197 187 280
4 190 129 92 203
4 277 276 287 176
4 19 18 264 22
4 17 82 38 203
4 102 197 90 188
4 126 84 287 288
4 284 130 285 27
4 121 276 264 265
4 71 37 187 177
4 120 123 116 117
4 198 88 127 191
4 221 16 25 24
4 23 26 15 22
4 121 279 276 176
4 235 231 124 230
4 125 187 273 177
4 278 271 236 266
4 277 287 283 288
4 284 285 274 282
4 278 127 271 191
4 269 275 16 24
4 200 283 53 288
4 23 15 285 282
4 121 26 279 20
4 21 124 25 230
4 19 273 116 177
4 200 90 283 188
4 126 271 84 191
4 269 16 130 27
4 17 38 15 282
4 221 25 222 230
4 121 264 26 22
4 120 116 37 177
4 60 61 281 280
4 277 283 270 188
4 126 272 271 266
4 268 274 38 282
4 85 84 88 191
4 17 15 18 22
4 221 28 16 27
4 93 94 73 55
4 85 88 67 87
4 80 49 79 87
4 44 104 73 72
4 146 33 67 168
4 211 165 149 55
4 8 47 14 154
4 105 104 108 144
4 105 108 29 107
4 7 139 13 75
4 44 165 194 98
4 200 53 77 168
4 8 1 101 4
4 2 5 152 58
4 260 6 213 3
4 105 35 104 72
4 96 57 182 75
4 7 14 139 154
4 146 29 33 107
4 7 13 10 9
4 12 13 57 75
4 85 67 53 168
4 44 73 165 55
4 63 152 62 58
4 8 101 47 46
4 96 182 194 144
4 60 281 119 4
4 12 5 6 3
4 173 185 35 72
4 65 149 94 55
4 146 67 49 87
4 114 113 47 154
4 163 108 182 144
4 12 6 13 9
4 173 35 111 156
4 163 182 139 75
4 260 257 6 9
4 105 29 35 156
4 163 139 113 154
4 256 10 257 9
4 146 49 29 156
4 163 113 108 107
4 80 111 49 156
4 102 101 281 4
4 12 57 5 58
4 44 194 104 144
4 96 194 62 98
4 2 0 5 3
4 93 73 185 72
4 179 119 1 4
4 200 77 90 46
4 114 33 113 107
4 7 10 14 11
4 96 62 57 58
4 133 213 0 3
4 102 90 101 46
4 256 255 10 11
4 63 62 249 98
4 114 47 77 46
4 179 1 255 11
4 211 249 165 98
4 114 77 33 168
4 198 79 88 87
4 8 14 1 11
CELL_TYPES 256
8
8
8
8
8
8
8
8
8
8
8
8
8
8
8
8
8
8
8
8
8
8
8
8
8
8
8
8
8
8
8
8
8
8
8
8
8
8
8
8
8
8
8
8
8
8
8
8
8
8
8
8
8
8
8
8
8
8
8
8
8
8
8
8
8
8
8
8
8
8
8
8
8
8
8
8
8
8
8
8
8
8
8
8
8
8
8
8
8
8
8
8
8
8
8
8
8
8
8
8
8
8
8
8
8
8
8
8
8
8
8
8
8
8
8
8
8
8
8
8
8
8
8
8
8
8
8
8
8
8
8
8
8
8
8
8
8
8
8
8
8
8
8
8
8
8
8
8
8
8
8
8
8
8
8
8
8
8
8
8
8
8
8
8
8
8
8
8
8
8
8
8
8
8
8
8
8
8
8
8
8
8
8
8
8
8
8
8
8
8
8
8
8
8
8
8
8
8
8
8
8
8
8
8
8
8
8
8
8
8
8
8
8
8
8
8
8
8
8
8
8
8
8
8
8
8
8
8
8
8
8
8
8
8
8
8
8
8
8
8
8
8
8
8
8
8
8
8
8
8
8
8
8
8
8
8
CELL_DATA 256
VECTORS vector_value float
0.0174899 -0.224399 0
-0.146931 -0.455742 0
-0.0633927 -0.248827 0
-0.00130332 -0.147039 0
-0.0713038 -0.263592 0
0.0268216 -0.0493181 0
-0.00344411 -0.230542 0
-0.0167718 -0.0982417 0
-0.0518486 -0.115274 0
1.05019 -0.673295 0
-0.209434 -1.27414 0
-0.0110819 -0.117739 0
0.0225264 -0.11404 0
0.0816685 -0.705435 0
-0.000895342 -0.299109 0
0.589764 -0.462847 0
-0.0216311 -0.311506 0
0.109247 -0.160375 0
0.0102176 -0.198092 0
0.0164682 -0.128624 0
0.219763 -0.91924 0
1.0671 -0.91177 0
0.701369 -0.755872 0
0.0461176 -0.074178 0
0.447197 -0.754175 0
0.253985 -0.290637 0
0.0019327 -0.200031 0
0.00230144 -0.0885187 0
0.0217841 -0.0479122 0
-0.085167 -1.24497 0
0.657302 -0.663583 0
-0.0261831 -0.267923 0
0.414882 -0.807575 0
0.0320474 -0.0499235 0
0.146091 -0.144787 0
-0.0112818 -0.224185 0
0.123935 -1.90578 0
-0.0215267 -0.232033 0
-0.0870604 -0.978415 0
0.00647349 -0.0969042 0
0.0147394 -0.260503 0
-0.21848 -0.662818 0
0.953356 -0.56439 0
-0.00575893 -0.052121 0
-0.1182 -0.192218 0
-0.0103427 -0.249944 0
0.243883 -1.05833 0
-0.00106971 -0.0593605 0
0.118513 -0.704945 0
1.12031 -0.6477 0
-0.0126131 -0.0693886 0
0.700082 -0.755266 0
0.00802446 -0.0370964 0
-0.0182859 -0.155107 0
1.00089 -0.722363 0
0.548178 -0.653778 0
-0.0216119 -0.149173 0
-0.0165749 -0.102108 0
0.0682597 -0.140066 0
-0.0206947 -0.141586 0
-0.0197485 -0.110954 0
0.2836 -0.316593 0
0.0612127 -0.453288 0
-0.00689151 -0.0897731 0
0.723436 -4.29394 0
1.2011 -1.43219 0
0.572028 -0.463362 0
-0.0627847 -0.27368 0
0.013823 -2.09721 0
1.97189 -1.46506 0
-1.05104 -1.32865 0
1.13292 -5.5397 0
0.0647975 -0.101681 0
-0.0063921 -0.0339681 0
0.0332483 -2.16653 0
1.43869 -1.24591 0
-0.00430155 -0.0304559 0
0.101753 -0.226947 0
0.0023884 -0.0602019 0
1.14055 -4.16306 0
0.314289 -0.29349 0
-0.00422256 -0.0431943 0
1.16826 -3.80058 0
0.165226 -0.124213 0
-4.91541e-05 -0.0339028 0
0.957109 -0.606526 0
1.4085 -2.04608 0
-0.0018924 -0.0314308 0
-0.0139852 -0.260307 0
-1.73111 -0.685268 0
0.667127 -2.83975 0
-0.0120481 -0.0506368 0
0.212231 -0.37781 0
0.0426117 -0.0766276 0
-0.157127 -0.4075 0
-0.345648 -0.226704 0
0.522277 -2.96384 0
0.0255582 -1.6365 0
1.51609 -0.852885 0
-0.00754788 -0.0559462 0
-0.821703 -2.54467 0
1.18969 -2.06033 0
0.0272201 -0.276013 0
0.00370072 -0.0317223 0
0.279156 -2.41269 0
0.75896 -0.6564 0
0.0165769 -0.0401924 0
1.24471 -1.58127 0
-0.61462 -0.274791 0
-0.000965366 -0.0383233 0
-0.109676 -1.76878 0
-0.0564255 -0.267056 0
0.187344 -0.67874 0
0.765765 -0.961023 0
1.19732 -5.11282 0
0.322765 -0.220329 0
0.0667346 -3.87803 0
-0.00564509 -0.0500951 0
0.4996 -0.351449 0
-0.370318 -0.532884 0
0.336589 -0.691182 0
-0.0407474 -0.114538 0
1.2769 -2.0784 0
-1.78103 -1.34187 0
0.477767 -1.96621 0
0.965535 -1.60409 0
-0.0237562 -0.0631683 0
-1.13934 -1.00633 0
0.534281 -1.58224 0
0.729728 -1.5189 0
-0.652159 -4.79217 0
-0.937911 -8.26277 0
-0.179054 -2.72872 0
-1.25012 -4.2394 0
-0.102251 -0.100327 0
-0.747583 -4.14382 0
-0.0771756 -0.178912 0
-0.835943 -5.9996 0
-0.0650302 -0.758245 0
-0.0528383 -0.133212 0
-0.0221535 -0.0864491 0
-0.0188281 -0.626922 0
-0.206289 -0.791356 0
0.135519 -0.818235 0
-0.0397912 -0.059604 0
-0.00969946 -0.179377 0
-0.286574 -6.96899 0
-0.247095 -2.41764 0
-0.0444669 -0.371824 0
-0.818595 -1.36235 0
0.0897734 -0.382245 0
0.542483 -2.33046 0
-0.153501 -4.96172 0
-0.284599 -0.475193 0
-1.29508 -2.73679 0
-0.616658 -6.82634 0
0.507672 -1.81653 0
0.0812957 -0.666337 0
-0.0132412 -0.0881998 0
-0.408943 -0.779837 0
0.958129 -1.96425 0
0.447774 -3.04709 0
-0.0529932 -0.324406 0
-0.087941 -0.254697 0
-0.154722 -0.340787 0
-0.194753 -0.257622 0
0.0356871 -0.965422 0
0.246651 -2.5027 0
0.13704 -0.491261 0
-0.463782 -1.12947 0
-0.0124077 -0.177378 0
0.0283463 -0.281338 0
-0.039437 -0.348715 0
-0.49273 -1.75332 0
-0.0524483 -0.185282 0
-0.160184 -0.152352 0
-0.0887807 -0.928626 0
-0.575099 -4.2631 0
-0.120316 -1.65694 0
0.143777 -0.70769 0
-0.0143621 -0.13509 0
-0.277506 -1.27517 0
-0.112385 -0.16069 0
-0.352565 -0.641971 0
0.551656 -2.03593 0
1.3048 -2.04546 0
-0.95407 -2.0033 0
0.212517 -0.68059 0
-0.136524 -0.777011 0
-0.0810483 -0.563537 0
-0.36 -1.35605 0
-0.0396357 -0.122598 0
-0.109747 -0.625743 0
-0.301174 -0.571671 0
-0.050816 -0.767517 0
-0.0371897 -1.11025 0
-0.44018 -1.39305 0
-0.19443 -0.946593 0
-0.0756063 -0.261939 0
0.136339 -2.12839 0
-0.181776 -1.5272 0
-0.0540043 -0.179234 0
0.111115 -2.10244 0
-0.338769 -1.19279 0
0.678678 -0.93697 0
-0.255488 -0.7023 0
-0.515942 -0.334012 0
0.177476 -1.37241 0
-0.00666883 -0.21701 0
-0.0861685 -0.145371 0
-0.418035 -1.28344 0
-0.0865935 -0.304558 0
-0.143844 -0.237584 0
-0.461339 -1.30066 0
-0.173759 -1.16097 0
0.197387 -0.639437 0
0.139449 -0.714713 0
0.0720073 -0.674541 0
1.4082 -1.21619 0
-0.38552 -0.58643 0
0.0091602 -0.498769 0
-0.111061 -0.890387 0
-0.22116 -0.596791 0
-0.250662 -0.487438 0
-0.0868405 -0.656374 0
-0.301074 -0.440838 0
0.0788511 -0.621642 0
-0.03349 -0.146324 0
-0.363775 -0.275555 0
0.108528 -1.59618 0
-0.192613 -0.329448 0
-0.126109 -0.296705 0
-0.179142 -1.15669 0
-0.278378 -0.665266 0
0.0357552 -0.728855 0
1.47764 -1.8405 0
-0.172889 -0.391753 0
0.01419 -2.34174 0
0.205433 -0.634946 0
-0.612116 -0.80947 0
-0.0263142 -0.519605 0
1.22427 -1.32398 0
0.10477 -1.11077 0
-0.454823 -0.937495 0
-0.0616325 -0.348057 0
0.0523769 -0.423786 0
-1.07567 -0.637716 0
0.696839 -1.02965 0
0.15015 -0.520794 0
0.553067 -0.871745 0
-0.211485 -0.579607 0
0.564533 -1.12663 0
0.223151 -1.62309 0
-0.334797 -1.03835 0
-0.126465 -0.473393 0
0.113988 -0.457078 0
