# vtk DataFile Version 2.0
Unstructured Grid by M++
ASCII
DATASET UNSTRUCTURED_GRID
POINTS 81 float
  1.000000   0.625000 0
  0.750000   0.375000 0
  1.000000   0.000000 0
  0.875000   0.875000 0
  0.750000   0.125000 0
  1.000000   1.000000 0
  0.875000   0.250000 0
  0.625000   0.875000 0
  1.000000   0.750000 0
  0.875000   0.000000 0
  1.000000   0.250000 0
  0.625000   0.375000 0
  0.875000   0.500000 0
  0.625000   0.625000 0
  1.000000   0.500000 0
  0.750000   0.500000 0
  0.750000   1.000000 0
  1.000000   0.125000 0
  0.625000   0.250000 0
  0.750000   0.750000 0
  0.625000   0.000000 0
  0.125000   0.375000 0
  0.000000   0.500000 0
  0.125000   0.625000 0
  0.625000   1.000000 0
  1.000000   0.875000 0
  0.875000   0.125000 0
  0.500000   0.250000 0
  0.625000   0.500000 0
  0.250000   0.625000 0
  0.000000   0.625000 0
  0.375000   0.500000 0
  0.375000   0.000000 0
  0.000000   0.125000 0
  0.125000   0.875000 0
  0.875000   1.000000 0
  0.750000   0.250000 0
  0.375000   0.375000 0
  0.250000   0.375000 0
  0.625000   0.750000 0
  0.125000   0.125000 0
  0.500000   0.000000 0
  0.250000   0.875000 0
  0.125000   0.500000 0
  0.500000   0.375000 0
  0.125000   0.000000 0
  0.250000   0.750000 0
  0.250000   0.500000 0
  0.000000   0.875000 0
  0.875000   0.625000 0
  0.500000   0.750000 0
  0.750000   0.625000 0
  0.250000   0.000000 0
  0.375000   0.750000 0
  0.750000   0.875000 0
  0.625000   0.125000 0
  0.250000   0.250000 0
  0.375000   1.000000 0
  0.375000   0.250000 0
  0.000000   0.375000 0
  0.500000   1.000000 0
  0.875000   0.750000 0
  0.750000   0.000000 0
  0.375000   0.125000 0
  0.500000   0.875000 0
  0.000000   0.000000 0
  0.125000   0.750000 0
  0.500000   0.625000 0
  0.125000   0.250000 0
  0.500000   0.125000 0
  0.250000   1.000000 0
  0.250000   0.125000 0
  0.000000   1.000000 0
  0.375000   0.875000 0
  0.000000   0.750000 0
  0.375000   0.625000 0
  0.000000   0.250000 0
  0.125000   1.000000 0
  1.000000   0.375000 0
  0.500000   0.500000 0
  0.875000   0.375000 0
CELLS 64 320
4 56 71 58 63
4 27 58 69 63
4 41 69 32 63
4 76 33 68 40
4 27 44 58 37
4 79 31 44 37
4 56 38 68 21
4 56 58 38 37
4 52 32 71 63
4 47 38 31 37
4 76 68 59 21
4 22 59 43 21
4 65 45 33 40
4 47 43 38 21
4 52 71 45 40
4 56 68 71 40
4 74 30 66 23
4 46 66 29 23
4 22 43 30 23
4 72 48 77 34
4 46 53 42 73
4 50 64 53 73
4 70 42 57 73
4 74 66 48 34
4 46 42 66 34
4 47 29 43 23
4 70 77 42 34
4 60 57 64 73
4 79 67 31 75
4 47 31 29 75
4 50 53 67 75
4 46 29 53 75
4 10 78 6 80
4 36 6 1 80
4 15 1 12 80
4 36 4 6 26
4 14 12 78 80
4 2 17 9 26
4 36 18 4 55
4 15 28 1 11
4 62 4 20 55
4 10 6 17 26
4 27 18 44 11
4 62 9 4 26
4 27 69 18 55
4 36 1 18 11
4 41 20 69 55
4 79 44 28 11
4 16 24 54 7
4 19 54 39 7
4 50 39 64 7
4 8 25 61 3
4 60 64 24 7
4 79 28 67 13
4 19 51 61 49
4 8 61 0 49
4 15 51 28 13
4 19 39 51 13
4 50 67 39 13
4 19 61 54 3
4 14 0 12 49
4 5 35 25 3
4 15 12 51 49
4 16 54 35 3
CELL_TYPES 64
8
8
8
8
8
8
8
8
8
8
8
8
8
8
8
8
8
8
8
8
8
8
8
8
8
8
8
8
8
8
8
8
8
8
8
8
8
8
8
8
8
8
8
8
8
8
8
8
8
8
8
8
8
8
8
8
8
8
8
8
8
8
8
8
CELL_DATA 64
VECTORS vector_value float
0.10332 -1.63207 0
0.0337942 -0.189528 0
0.00929557 -0.249173 0
-0.100677 -0.354185 0
-0.0318774 -0.0784693 0
-0.097534 -0.120999 0
0.107355 -3.93907 0
0.138824 -1.65842 0
0.100327 -1.84614 0
-0.642478 -1.42673 0
0.00926195 -0.252972 0
0.141365 -0.426833 0
-0.157114 -0.727556 0
-0.324365 -3.92155 0
-0.0276519 -3.15333 0
-0.0669385 -3.78816 0
-0.0143962 -0.881809 0
-0.108307 -0.965552 0
0.150459 -0.680596 0
0.0788377 -0.986582 0
-0.256718 -0.597015 0
-0.65968 -0.788609 0
0.58462 -0.633889 0
0.00229938 -0.813112 0
-0.0379344 -0.843386 0
-0.600442 -2.23829 0
0.249455 -0.721859 0
0.948453 -1.14503 0
-1.5101 -0.955271 0
-1.8765 -1.7745 0
-1.04241 -1.0145 0
-0.438625 -1.16771 0
-0.0439081 -0.396947 0
-0.109444 -1.30456 0
0.0555652 -0.941529 0
0.0551716 -1.42951 0
-0.142876 -0.719114 0
-0.0314727 -0.217442 0
0.0829037 -0.217115 0
0.0507071 -0.401595 0
0.0184153 -0.0928693 0
-0.0567607 -0.378287 0
-0.0313098 -0.0406842 0
-0.0240349 -1.70793 0
-0.0176519 -0.0111542 0
0.00567356 -0.328887 0
-0.00292059 -0.00556477 0
-0.0253623 -0.0416487 0
-0.932968 -0.897791 0
-0.136975 -1.12505 0
-0.114583 -3.06988 0
-0.0637972 -0.290152 0
-0.100445 -2.27808 0
-0.172856 -0.275992 0
0.368517 -0.522082 0
0.0676032 -0.294692 0
0.164449 -0.778108 0
0.222666 -1.43111 0
-1.01434 -1.72254 0
-0.31947 -0.472796 0
0.17557 -0.690449 0
-0.300883 -0.827462 0
0.237151 -0.606791 0
-0.696057 -0.509313 0
