# vtk DataFile Version 2.0
Unstructured Grid by M++
ASCII
DATASET UNSTRUCTURED_GRID
POINTS 81 float
  1.000000   0.625000 0
  0.750000   0.375000 0
  1.000000   0.000000 0
  0.875000   0.875000 0
  0.750000   0.125000 0
  1.000000   1.000000 0
  0.875000   0.250000 0
  0.625000   0.875000 0
  1.000000   0.750000 0
  0.875000   0.000000 0
  1.000000   0.250000 0
  0.625000   0.375000 0
  0.875000   0.500000 0
  0.625000   0.625000 0
  1.000000   0.500000 0
  0.750000   0.500000 0
  0.750000   1.000000 0
  1.000000   0.125000 0
  0.625000   0.250000 0
  0.750000   0.750000 0
  0.625000   0.000000 0
  0.125000   0.375000 0
  0.000000   0.500000 0
  0.125000   0.625000 0
  0.625000   1.000000 0
  1.000000   0.875000 0
  0.875000   0.125000 0
  0.500000   0.250000 0
  0.625000   0.500000 0
  0.250000   0.625000 0
  0.000000   0.625000 0
  0.375000   0.500000 0
  0.375000   0.000000 0
  0.000000   0.125000 0
  0.125000   0.875000 0
  0.875000   1.000000 0
  0.750000   0.250000 0
  0.375000   0.375000 0
  0.250000   0.375000 0
  0.625000   0.750000 0
  0.125000   0.125000 0
  0.500000   0.000000 0
  0.250000   0.875000 0
  0.125000   0.500000 0
  0.500000   0.375000 0
  0.125000   0.000000 0
  0.250000   0.750000 0
  0.250000   0.500000 0
  0.000000   0.875000 0
  0.875000   0.625000 0
  0.500000   0.750000 0
  0.750000   0.625000 0
  0.250000   0.000000 0
  0.375000   0.750000 0
  0.750000   0.875000 0
  0.625000   0.125000 0
  0.250000   0.250000 0
  0.375000   1.000000 0
  0.375000   0.250000 0
  0.000000   0.375000 0
  0.500000   1.000000 0
  0.875000   0.750000 0
  0.750000   0.000000 0
  0.375000   0.125000 0
  0.500000   0.875000 0
  0.000000   0.000000 0
  0.125000   0.750000 0
  0.500000   0.625000 0
  0.125000   0.250000 0
  0.500000   0.125000 0
  0.250000   1.000000 0
  0.250000   0.125000 0
  0.000000   1.000000 0
  0.375000   0.875000 0
  0.000000   0.750000 0
  0.375000   0.625000 0
  0.000000   0.250000 0
  0.125000   1.000000 0
  1.000000   0.375000 0
  0.500000   0.500000 0
  0.875000   0.375000 0
CELLS 64 320
4 56 71 58 63
4 27 58 69 63
4 41 69 32 63
4 76 33 68 40
4 27 44 58 37
4 79 31 44 37
4 56 38 68 21
4 56 58 38 37
4 52 32 71 63
4 47 38 31 37
4 76 68 59 21
4 22 59 43 21
4 65 45 33 40
4 47 43 38 21
4 52 71 45 40
4 56 68 71 40
4 74 30 66 23
4 46 66 29 23
4 22 43 30 23
4 72 48 77 34
4 46 53 42 73
4 50 64 53 73
4 70 42 57 73
4 74 66 48 34
4 46 42 66 34
4 47 29 43 23
4 70 77 42 34
4 60 57 64 73
4 79 67 31 75
4 47 31 29 75
4 50 53 67 75
4 46 29 53 75
4 10 78 6 80
4 36 6 1 80
4 15 1 12 80
4 36 4 6 26
4 14 12 78 80
4 2 17 9 26
4 36 18 4 55
4 15 28 1 11
4 62 4 20 55
4 10 6 17 26
4 27 18 44 11
4 62 9 4 26
4 27 69 18 55
4 36 1 18 11
4 41 20 69 55
4 79 44 28 11
4 16 24 54 7
4 19 54 39 7
4 50 39 64 7
4 8 25 61 3
4 60 64 24 7
4 79 28 67 13
4 19 51 61 49
4 8 61 0 49
4 15 51 28 13
4 19 39 51 13
4 50 67 39 13
4 19 61 54 3
4 14 0 12 49
4 5 35 25 3
4 15 12 51 49
4 16 54 35 3
CELL_TYPES 64
8
8
8
8
8
8
8
8
8
8
8
8
8
8
8
8
8
8
8
8
8
8
8
8
8
8
8
8
8
8
8
8
8
8
8
8
8
8
8
8
8
8
8
8
8
8
8
8
8
8
8
8
8
8
8
8
8
8
8
8
8
8
8
8
CELL_DATA 64
VECTORS vector_value float
0.811471 -0.959294 0
0.470186 -0.943386 0
0.206116 -0.908156 0
0.0210249 -0.332375 0
-0.12366 -0.430469 0
-0.0239825 -0.178687 0
1.46945 -3.1004 0
0.127576 -0.258437 0
0.0324164 -0.430761 0
-0.132473 -0.257607 0
0.545197 -0.914132 0
0.622822 -2.71237 0
-0.0147663 -0.364296 0
-0.102633 -1.29484 0
-0.0342468 -2.61412 0
0.162854 -2.62699 0
-0.362171 -2.04139 0
-0.972132 -1.14907 0
-0.0886522 -2.65802 0
-0.321444 -1.51231 0
-0.496454 -0.791862 0
-0.119068 -2.33423 0
-0.016893 -1.33253 0
-0.0866195 -1.72907 0
-0.420652 -0.49299 0
-0.112677 -0.920789 0
-0.167023 -0.0984968 0
-0.634553 -1.90528 0
0.00648317 -0.674527 0
-0.331845 -0.479235 0
-0.110422 -1.15951 0
-0.682191 -0.51422 0
0.370674 -0.971922 0
0.328315 -0.685411 0
0.229261 -0.975734 0
0.0969097 -0.256944 0
0.0543096 -0.31313 0
-0.00470846 -1.47401 0
-0.0219471 -0.0998771 0
-0.24623 -1.44688 0
0.13777 -0.205763 0
0.159079 -1.42923 0
-0.303902 -1.34458 0
0.0453148 -0.27766 0
0.0249631 -1.35191 0
-0.0568032 -0.294649 0
0.292785 -1.72523 0
-0.241056 -0.820761 0
-0.601606 -0.851747 0
0.00425747 -0.540668 0
0.0120226 -0.454166 0
-0.286961 -0.538426 0
-1.01927 -0.737479 0
0.181384 -0.466392 0
0.0111011 -1.13962 0
0.00902662 -0.434778 0
0.155313 -1.51782 0
0.00676145 -0.617501 0
0.421918 -0.943919 0
-0.338752 -1.11858 0
-0.0711505 -0.802956 0
0.00595171 -1.21259 0
-0.109033 -0.480267 0
-0.142722 -0.349571 0
