# vtk DataFile Version 2.0
Unstructured Grid by M++
ASCII
DATASET UNSTRUCTURED_GRID
POINTS 81 float
  1.000000   0.625000 0
  0.750000   0.375000 0
  1.000000   0.000000 0
  0.875000   0.875000 0
  0.750000   0.125000 0
  1.000000   1.000000 0
  0.875000   0.250000 0
  0.625000   0.875000 0
  1.000000   0.750000 0
  0.875000   0.000000 0
  1.000000   0.250000 0
  0.625000   0.375000 0
  0.875000   0.500000 0
  0.625000   0.625000 0
  1.000000   0.500000 0
  0.750000   0.500000 0
  0.750000   1.000000 0
  1.000000   0.125000 0
  0.625000   0.250000 0
  0.750000   0.750000 0
  0.625000   0.000000 0
  0.125000   0.375000 0
  0.000000   0.500000 0
  0.125000   0.625000 0
  0.625000   1.000000 0
  1.000000   0.875000 0
  0.875000   0.125000 0
  0.500000   0.250000 0
  0.625000   0.500000 0
  0.250000   0.625000 0
  0.000000   0.625000 0
  0.375000   0.500000 0
  0.375000   0.000000 0
  0.000000   0.125000 0
  0.125000   0.875000 0
  0.875000   1.000000 0
  0.750000   0.250000 0
  0.375000   0.375000 0
  0.250000   0.375000 0
  0.625000   0.750000 0
  0.125000   0.125000 0
  0.500000   0.000000 0
  0.250000   0.875000 0
  0.125000   0.500000 0
  0.500000   0.375000 0
  0.125000   0.000000 0
  0.250000   0.750000 0
  0.250000   0.500000 0
  0.000000   0.875000 0
  0.875000   0.625000 0
  0.500000   0.750000 0
  0.750000   0.625000 0
  0.250000   0.000000 0
  0.375000   0.750000 0
  0.750000   0.875000 0
  0.625000   0.125000 0
  0.250000   0.250000 0
  0.375000   1.000000 0
  0.375000   0.250000 0
  0.000000   0.375000 0
  0.500000   1.000000 0
  0.875000   0.750000 0
  0.750000   0.000000 0
  0.375000   0.125000 0
  0.500000   0.875000 0
  0.000000   0.000000 0
  0.125000   0.750000 0
  0.500000   0.625000 0
  0.125000   0.250000 0
  0.500000   0.125000 0
  0.250000   1.000000 0
  0.250000   0.125000 0
  0.000000   1.000000 0
  0.375000   0.875000 0
  0.000000   0.750000 0
  0.375000   0.625000 0
  0.000000   0.250000 0
  0.125000   1.000000 0
  1.000000   0.375000 0
  0.500000   0.500000 0
  0.875000   0.375000 0
CELLS 64 320
4 56 71 58 63
4 27 58 69 63
4 41 69 32 63
4 76 33 68 40
4 27 44 58 37
4 79 31 44 37
4 56 38 68 21
4 56 58 38 37
4 52 32 71 63
4 47 38 31 37
4 76 68 59 21
4 22 59 43 21
4 65 45 33 40
4 47 43 38 21
4 52 71 45 40
4 56 68 71 40
4 74 30 66 23
4 46 66 29 23
4 22 43 30 23
4 72 48 77 34
4 46 53 42 73
4 50 64 53 73
4 70 42 57 73
4 74 66 48 34
4 46 42 66 34
4 47 29 43 23
4 70 77 42 34
4 60 57 64 73
4 79 67 31 75
4 47 31 29 75
4 50 53 67 75
4 46 29 53 75
4 10 78 6 80
4 36 6 1 80
4 15 1 12 80
4 36 4 6 26
4 14 12 78 80
4 2 17 9 26
4 36 18 4 55
4 15 28 1 11
4 62 4 20 55
4 10 6 17 26
4 27 18 44 11
4 62 9 4 26
4 27 69 18 55
4 36 1 18 11
4 41 20 69 55
4 79 44 28 11
4 16 24 54 7
4 19 54 39 7
4 50 39 64 7
4 8 25 61 3
4 60 64 24 7
4 79 28 67 13
4 19 51 61 49
4 8 61 0 49
4 15 51 28 13
4 19 39 51 13
4 50 67 39 13
4 19 61 54 3
4 14 0 12 49
4 5 35 25 3
4 15 12 51 49
4 16 54 35 3
CELL_TYPES 64
8
8
8
8
8
8
8
8
8
8
8
8
8
8
8
8
8
8
8
8
8
8
8
8
8
8
8
8
8
8
8
8
8
8
8
8
8
8
8
8
8
8
8
8
8
8
8
8
8
8
8
8
8
8
8
8
8
8
8
8
8
8
8
8
CELL_DATA 64
VECTORS vector_value float
0.57915 -1.09027 0
0.913188 -2.83181 0
0.56999 -2.53477 0
-0.0430192 -0.715797 0
0.126464 -1.64638 0
-0.250781 -0.985202 0
0.712942 -1.28517 0
1.12922 -1.66844 0
0.194618 -0.585515 0
0.0726128 -0.952671 0
-0.0130583 -0.633311 0
0.481154 -1.59984 0
-0.0578394 -0.863618 0
0.455832 -1.18439 0
-0.00018184 -0.110192 0
0.0374659 -0.417387 0
0.0292086 -1.25701 0
-0.051795 -0.33823 0
-0.170641 -1.50356 0
0.0299747 -0.872001 0
0.0477626 -0.18471 0
0.464029 -1.69264 0
0.808011 -0.787008 0
-0.197229 -1.31199 0
-0.0390658 -0.238218 0
-0.638832 -0.731965 0
0.104889 -0.85687 0
0.467991 -1.59888 0
-0.458752 -0.671169 0
-0.918671 -1.25344 0
-1.06384 -1.36067 0
-0.64684 -0.6566 0
0.0690601 -0.465654 0
0.0545348 -0.171278 0
0.0600217 -0.394574 0
0.216595 -0.419428 0
0.101068 -0.277656 0
-0.0815637 -0.413298 0
0.0687716 -0.350076 0
0.0165472 -0.571828 0
0.4553 -0.565344 0
0.0270952 -0.54995 0
-0.0426146 -1.30519 0
0.0541544 -0.856111 0
0.149982 -1.62528 0
0.108995 -0.824576 0
0.735979 -2.07115 0
-0.249704 -2.03385 0
0.339395 -1.50999 0
-0.790936 -3.48665 0
0.400825 -0.666184 0
-0.0180373 -0.0372959 0
0.343487 -0.283486 0
-0.868111 -1.86975 0
0.190014 -0.625577 0
0.00457222 -0.0186306 0
-0.578599 -1.10378 0
-0.491509 -2.66026 0
-0.976852 -1.08302 0
-0.113714 -0.382308 0
0.0617977 -0.060142 0
-0.470937 -0.342959 0
0.042422 -0.806203 0
-1.15365 -1.7488 0
