# vtk DataFile Version 2.0
Unstructured Grid by M++
ASCII
DATASET UNSTRUCTURED_GRID
POINTS 81 float
  1.000000   0.625000 0
  0.750000   0.375000 0
  1.000000   0.000000 0
  0.875000   0.875000 0
  0.750000   0.125000 0
  1.000000   1.000000 0
  0.875000   0.250000 0
  0.625000   0.875000 0
  1.000000   0.750000 0
  0.875000   0.000000 0
  1.000000   0.250000 0
  0.625000   0.375000 0
  0.875000   0.500000 0
  0.625000   0.625000 0
  1.000000   0.500000 0
  0.750000   0.500000 0
  0.750000   1.000000 0
  1.000000   0.125000 0
  0.625000   0.250000 0
  0.750000   0.750000 0
  0.625000   0.000000 0
  0.125000   0.375000 0
  0.000000   0.500000 0
  0.125000   0.625000 0
  0.625000   1.000000 0
  1.000000   0.875000 0
  0.875000   0.125000 0
  0.500000   0.250000 0
  0.625000   0.500000 0
  0.250000   0.625000 0
  0.000000   0.625000 0
  0.375000   0.500000 0
  0.375000   0.000000 0
  0.000000   0.125000 0
  0.125000   0.875000 0
  0.875000   1.000000 0
  0.750000   0.250000 0
  0.375000   0.375000 0
  0.250000   0.375000 0
  0.625000   0.750000 0
  0.125000   0.125000 0
  0.500000   0.000000 0
  0.250000   0.875000 0
  0.125000   0.500000 0
  0.500000   0.375000 0
  0.125000   0.000000 0
  0.250000   0.750000 0
  0.250000   0.500000 0
  0.000000   0.875000 0
  0.875000   0.625000 0
  0.500000   0.750000 0
  0.750000   0.625000 0
  0.250000   0.000000 0
  0.375000   0.750000 0
  0.750000   0.875000 0
  0.625000   0.125000 0
  0.250000   0.250000 0
  0.375000   1.000000 0
  0.375000   0.250000 0
  0.000000   0.375000 0
  0.500000   1.000000 0
  0.875000   0.750000 0
  0.750000   0.000000 0
  0.375000   0.125000 0
  0.500000   0.875000 0
  0.000000   0.000000 0
  0.125000   0.750000 0
  0.500000   0.625000 0
  0.125000   0.250000 0
  0.500000   0.125000 0
  0.250000   1.000000 0
  0.250000   0.125000 0
  0.000000   1.000000 0
  0.375000   0.875000 0
  0.000000   0.750000 0
  0.375000   0.625000 0
  0.000000   0.250000 0
  0.125000   1.000000 0
  1.000000   0.375000 0
  0.500000   0.500000 0
  0.875000   0.375000 0
CELLS 64 320
4 56 71 58 63
4 27 58 69 63
4 41 69 32 63
4 76 33 68 40
4 27 44 58 37
4 79 31 44 37
4 56 38 68 21
4 56 58 38 37
4 52 32 71 63
4 47 38 31 37
4 76 68 59 21
4 22 59 43 21
4 65 45 33 40
4 47 43 38 21
4 52 71 45 40
4 56 68 71 40
4 74 30 66 23
4 46 66 29 23
4 22 43 30 23
4 72 48 77 34
4 46 53 42 73
4 50 64 53 73
4 70 42 57 73
4 74 66 48 34
4 46 42 66 34
4 47 29 43 23
4 70 77 42 34
4 60 57 64 73
4 79 67 31 75
4 47 31 29 75
4 50 53 67 75
4 46 29 53 75
4 10 78 6 80
4 36 6 1 80
4 15 1 12 80
4 36 4 6 26
4 14 12 78 80
4 2 17 9 26
4 36 18 4 55
4 15 28 1 11
4 62 4 20 55
4 10 6 17 26
4 27 18 44 11
4 62 9 4 26
4 27 69 18 55
4 36 1 18 11
4 41 20 69 55
4 79 44 28 11
4 16 24 54 7
4 19 54 39 7
4 50 39 64 7
4 8 25 61 3
4 60 64 24 7
4 79 28 67 13
4 19 51 61 49
4 8 61 0 49
4 15 51 28 13
4 19 39 51 13
4 50 67 39 13
4 19 61 54 3
4 14 0 12 49
4 5 35 25 3
4 15 12 51 49
4 16 54 35 3
CELL_TYPES 64
8
8
8
8
8
8
8
8
8
8
8
8
8
8
8
8
8
8
8
8
8
8
8
8
8
8
8
8
8
8
8
8
8
8
8
8
8
8
8
8
8
8
8
8
8
8
8
8
8
8
8
8
8
8
8
8
8
8
8
8
8
8
8
8
CELL_DATA 64
VECTORS vector_value float
-0.125814 -0.0890712 0
-0.0711889 -0.202316 0
-0.00221669 -0.195923 0
-0.0808473 -1.14188 0
-0.151202 -0.156869 0
0.0580031 -0.171058 0
-0.0946077 -0.290975 0
-0.0842765 -0.0306071 0
-0.0100275 -0.0194535 0
-0.0382986 -0.0803296 0
-0.0110111 -0.969132 0
-0.0497102 -1.00486 0
-0.0639129 -1.29775 0
-0.0792388 -0.147385 0
-0.0689193 -0.136753 0
-0.121973 -0.205386 0
-0.166533 -0.167407 0
-0.0886853 -1.24447 0
-0.234102 -0.804616 0
0.434072 -0.353024 0
0.769622 -1.71077 0
0.434648 -0.526697 0
-0.755652 -1.02605 0
0.0125184 -0.0736876 0
0.639257 -2.35232 0
-0.128524 -0.202727 0
0.065082 -2.22491 0
-0.9525 -1.04694 0
0.676032 -0.480132 0
0.0632231 -0.430165 0
1.95614 -0.492825 0
1.23533 -1.47005 0
0.766084 -1.99243 0
1.43373 -3.25162 0
1.41028 -3.37407 0
0.21241 -1.61288 0
0.482594 -1.05584 0
0.104651 -4.5233 0
-0.0352776 -0.389217 0
1.0334 -1.59538 0
-0.0580028 -0.352243 0
0.566775 -4.06699 0
-0.151186 -0.396959 0
0.101737 -1.09356 0
-0.024838 -0.292265 0
0.260065 -0.911407 0
-0.0492791 -0.381016 0
0.367032 -0.571077 0
-0.235193 -1.32726 0
-0.0392269 -0.772091 0
-0.0362857 -0.727706 0
-0.0846514 -0.644402 0
-0.403399 -0.198658 0
1.01676 -0.829982 0
-0.25716 -1.27116 0
-0.111319 -0.309629 0
1.71156 -2.64438 0
0.645991 -1.96251 0
1.9326 -1.08195 0
-0.0363318 -1.19232 0
0.219878 -0.562508 0
-0.164918 -0.720983 0
0.980427 -2.04549 0
-0.258046 -1.10219 0
