# vtk DataFile Version 2.0
Unstructured Grid by M++
ASCII
DATASET UNSTRUCTURED_GRID
POINTS 81 float
  1.000000   0.625000 0
  0.750000   0.375000 0
  1.000000   0.000000 0
  0.875000   0.875000 0
  0.750000   0.125000 0
  1.000000   1.000000 0
  0.875000   0.250000 0
  0.625000   0.875000 0
  1.000000   0.750000 0
  0.875000   0.000000 0
  1.000000   0.250000 0
  0.625000   0.375000 0
  0.875000   0.500000 0
  0.625000   0.625000 0
  1.000000   0.500000 0
  0.750000   0.500000 0
  0.750000   1.000000 0
  1.000000   0.125000 0
  0.625000   0.250000 0
  0.750000   0.750000 0
  0.625000   0.000000 0
  0.125000   0.375000 0
  0.000000   0.500000 0
  0.125000   0.625000 0
  0.625000   1.000000 0
  1.000000   0.875000 0
  0.875000   0.125000 0
  0.500000   0.250000 0
  0.625000   0.500000 0
  0.250000   0.625000 0
  0.000000   0.625000 0
  0.375000   0.500000 0
  0.375000   0.000000 0
  0.000000   0.125000 0
  0.125000   0.875000 0
  0.875000   1.000000 0
  0.750000   0.250000 0
  0.375000   0.375000 0
  0.250000   0.375000 0
  0.625000   0.750000 0
  0.125000   0.125000 0
  0.500000   0.000000 0
  0.250000   0.875000 0
  0.125000   0.500000 0
  0.500000   0.375000 0
  0.125000   0.000000 0
  0.250000   0.750000 0
  0.250000   0.500000 0
  0.000000   0.875000 0
  0.875000   0.625000 0
  0.500000   0.750000 0
  0.750000   0.625000 0
  0.250000   0.000000 0
  0.375000   0.750000 0
  0.750000   0.875000 0
  0.625000   0.125000 0
  0.250000   0.250000 0
  0.375000   1.000000 0
  0.375000   0.250000 0
  0.000000   0.375000 0
  0.500000   1.000000 0
  0.875000   0.750000 0
  0.750000   0.000000 0
  0.375000   0.125000 0
  0.500000   0.875000 0
  0.000000   0.000000 0
  0.125000   0.750000 0
  0.500000   0.625000 0
  0.125000   0.250000 0
  0.500000   0.125000 0
  0.250000   1.000000 0
  0.250000   0.125000 0
  0.000000   1.000000 0
  0.375000   0.875000 0
  0.000000   0.750000 0
  0.375000   0.625000 0
  0.000000   0.250000 0
  0.125000   1.000000 0
  1.000000   0.375000 0
  0.500000   0.500000 0
  0.875000   0.375000 0
CELLS 64 320
4 56 71 58 63
4 27 58 69 63
4 41 69 32 63
4 76 33 68 40
4 27 44 58 37
4 79 31 44 37
4 56 38 68 21
4 56 58 38 37
4 52 32 71 63
4 47 38 31 37
4 76 68 59 21
4 22 59 43 21
4 65 45 33 40
4 47 43 38 21
4 52 71 45 40
4 56 68 71 40
4 74 30 66 23
4 46 66 29 23
4 22 43 30 23
4 72 48 77 34
4 46 53 42 73
4 50 64 53 73
4 70 42 57 73
4 74 66 48 34
4 46 42 66 34
4 47 29 43 23
4 70 77 42 34
4 60 57 64 73
4 79 67 31 75
4 47 31 29 75
4 50 53 67 75
4 46 29 53 75
4 10 78 6 80
4 36 6 1 80
4 15 1 12 80
4 36 4 6 26
4 14 12 78 80
4 2 17 9 26
4 36 18 4 55
4 15 28 1 11
4 62 4 20 55
4 10 6 17 26
4 27 18 44 11
4 62 9 4 26
4 27 69 18 55
4 36 1 18 11
4 41 20 69 55
4 79 44 28 11
4 16 24 54 7
4 19 54 39 7
4 50 39 64 7
4 8 25 61 3
4 60 64 24 7
4 79 28 67 13
4 19 51 61 49
4 8 61 0 49
4 15 51 28 13
4 19 39 51 13
4 50 67 39 13
4 19 61 54 3
4 14 0 12 49
4 5 35 25 3
4 15 12 51 49
4 16 54 35 3
CELL_TYPES 64
8
8
8
8
8
8
8
8
8
8
8
8
8
8
8
8
8
8
8
8
8
8
8
8
8
8
8
8
8
8
8
8
8
8
8
8
8
8
8
8
8
8
8
8
8
8
8
8
8
8
8
8
8
8
8
8
8
8
8
8
8
8
8
8
CELL_DATA 64
VECTORS vector_value float
-0.3815 -0.400367 0
-1.18202 -0.848651 0
-0.924109 -1.98945 0
-0.086556 -0.220917 0
-0.485071 -0.468127 0
-0.33647 -0.956546 0
-0.359885 -0.503968 0
-0.704026 -0.283996 0
-0.325065 -1.37663 0
-0.182837 -0.123689 0
-0.00682222 -0.057588 0
0.00292126 -0.0633056 0
0.000434574 -0.246794 0
-0.0187976 -0.0832084 0
0.0253489 -0.719025 0
-0.154874 -0.840625 0
-0.00946883 -0.0576232 0
-0.00154224 -0.0261023 0
-0.00284913 -0.0772728 0
0.485424 -0.332628 0
0.248404 -0.344362 0
0.122724 -1.32625 0
2.15652 -0.791327 0
-0.00640852 -0.0263342 0
0.00173695 -0.0780006 0
-0.0221646 -0.0223097 0
1.4281 -0.737905 0
2.28639 -1.15995 0
0.19207 -0.908078 0
-0.0186819 -0.0202295 0
0.335287 -1.86557 0
-0.00112638 -0.017974 0
-0.327913 -0.491152 0
-0.634475 -0.262787 0
-0.448 -0.232744 0
-0.250567 -0.111841 0
-0.19689 -0.987795 0
-0.000940071 -0.0147648 0
-0.840512 -1.58126 0
-0.86757 -4.51931 0
-0.0372315 -1.11881 0
-0.0626211 -0.0923256 0
-1.74448 -3.47917 0
-0.00458303 -0.0255802 0
-1.82469 -3.90402 0
-1.09125 -2.45321 0
-0.165967 -2.50894 0
-0.100104 -1.0334 0
0.13441 -0.632565 0
0.235457 -0.370035 0
0.744774 -3.29447 0
-0.318286 -2.1924 0
0.891058 -2.26832 0
0.709517 -1.78922 0
-0.736617 -1.36722 0
-0.0326801 -1.29411 0
-0.310757 -3.46754 0
0.870997 -1.97157 0
0.375848 -1.39984 0
0.193673 -0.368149 0
-0.0480006 -1.27637 0
0.494557 -1.74927 0
-0.262157 -0.43898 0
0.669517 -0.328037 0
