# vtk DataFile Version 2.0
Unstructured Grid by M++
ASCII
DATASET UNSTRUCTURED_GRID
POINTS 289 float
  0.562500   1.000000 0
  0.562500   0.625000 0
  0.625000   1.000000 0
  0.562500   0.937500 0
  0.562500   0.562500 0
  0.625000   0.937500 0
  0.562500   0.875000 0
  0.625000   0.750000 0
  0.625000   0.625000 0
  0.562500   0.812500 0
  0.562500   0.750000 0
  0.562500   0.687500 0
  0.625000   0.875000 0
  0.625000   0.812500 0
  0.625000   0.687500 0
  0.687500   0.125000 0
  0.875000   0.062500 0
  0.625000   0.125000 0
  0.625000   0.187500 0
  0.625000   0.250000 0
  0.812500   0.187500 0
  1.000000   0.125000 0
  0.687500   0.187500 0
  0.750000   0.125000 0
  0.937500   0.062500 0
  0.937500   0.125000 0
  0.750000   0.187500 0
  0.812500   0.062500 0
  0.812500   0.125000 0
  0.875000   0.687500 0
  0.187500   0.250000 0
  0.437500   0.250000 0
  0.375000   0.187500 0
  0.812500   0.625000 0
  0.125000   0.187500 0
  0.937500   0.750000 0
  0.250000   0.312500 0
  0.500000   0.312500 0
  0.625000   0.062500 0
  0.437500   0.500000 0
  0.375000   0.125000 0
  0.437500   0.187500 0
  0.437500   0.437500 0
  0.437500   0.375000 0
  0.875000   0.875000 0
  0.187500   0.375000 0
  0.687500   0.562500 0
  0.687500   0.625000 0
  0.000000   0.125000 0
  0.937500   0.625000 0
  0.250000   0.125000 0
  0.375000   0.062500 0
  0.375000   0.000000 0
  0.812500   0.500000 0
  0.125000   0.000000 0
  0.937500   0.937500 0
  0.250000   0.437500 0
  0.687500   0.875000 0
  0.687500   0.937500 0
  0.000000   0.437500 0
  0.500000   0.500000 0
  0.500000   0.437500 0
  0.750000   0.937500 0
  0.750000   1.000000 0
  0.062500   0.500000 0
  1.000000   1.000000 0
  0.312500   0.500000 0
  0.875000   0.562500 0
  0.187500   0.062500 0
  0.437500   0.125000 0
  0.437500   0.062500 0
  0.500000   0.375000 0
  0.937500   0.812500 0
  0.937500   0.875000 0
  0.250000   0.375000 0
  0.687500   0.812500 0
  0.000000   0.375000 0
  0.750000   0.562500 0
  0.062500   0.125000 0
  1.000000   0.562500 0
  1.000000   0.625000 0
  0.312500   0.125000 0
  0.562500   0.125000 0
  0.437500   0.000000 0
  0.875000   0.437500 0
  0.875000   0.500000 0
  0.187500   0.000000 0
  0.937500   0.562500 0
  0.937500   0.500000 0
  0.250000   0.062500 0
  0.687500   0.500000 0
  0.000000   0.062500 0
  0.500000   0.062500 0
  1.000000   0.875000 0
  1.000000   0.937500 0
  0.312500   0.437500 0
  0.750000   0.875000 0
  0.062500   0.437500 0
  0.812500   0.937500 0
  0.125000   0.500000 0
  0.375000   0.500000 0
  0.625000   0.562500 0
  0.625000   0.500000 0
  0.437500   0.312500 0
  0.875000   0.812500 0
  0.875000   0.750000 0
  0.187500   0.312500 0
  0.812500   0.687500 0
  0.812500   0.750000 0
  0.125000   0.250000 0
  0.375000   0.250000 0
  1.000000   0.687500 0
  0.312500   0.187500 0
  0.750000   0.687500 0
  0.750000   0.625000 0
  0.062500   0.187500 0
  0.562500   0.250000 0
  0.562500   0.187500 0
  0.375000   1.000000 0
  0.500000   0.562500 0
  0.500000   0.250000 0
  0.750000   0.250000 0
  0.500000   0.125000 0
  0.500000   0.187500 0
  1.000000   0.187500 0
  0.625000   0.375000 0
  0.875000   0.375000 0
  1.000000   0.437500 0
  0.312500   0.000000 0
  0.562500   0.000000 0
  0.812500   0.000000 0
  0.250000   0.687500 0
  0.000000   0.687500 0
  0.500000   1.000000 0
  0.250000   1.000000 0
  0.000000   1.000000 0
  0.437500   0.687500 0
  0.437500   0.625000 0
  0.187500   0.625000 0
  0.687500   0.750000 0
  0.000000   0.312500 0
  0.000000   0.250000 0
  0.375000   0.375000 0
  0.375000   0.312500 0
  0.812500   0.812500 0
  0.125000   0.312500 0
  0.875000   0.625000 0
  0.187500   0.187500 0
  0.187500   0.125000 0
  0.937500   1.000000 0
  0.250000   0.562500 0
  0.250000   0.500000 0
  0.687500   1.000000 0
  0.000000   0.500000 0
  0.687500   0.687500 0
  0.000000   0.187500 0
  0.937500   0.687500 0
  0.250000   0.250000 0
  0.250000   0.187500 0
  0.187500   0.687500 0
  0.000000   0.750000 0
  0.250000   0.750000 0
  0.125000   0.625000 0
  0.750000   0.750000 0
  0.062500   0.250000 0
  0.875000   0.937500 0
  0.187500   0.500000 0
  0.187500   0.437500 0
  0.812500   0.562500 0
  0.125000   0.125000 0
  0.125000   0.062500 0
  0.375000   0.625000 0
  0.375000   0.687500 0
  1.000000   0.750000 0
  0.312500   0.250000 0
  0.312500   0.312500 0
  0.812500   0.312500 0
  0.562500   0.312500 0
  0.375000   0.750000 0
  0.500000   0.625000 0
  0.250000   0.625000 0
  0.312500   0.687500 0
  0.750000   0.812500 0
  0.062500   0.312500 0
  0.062500   0.375000 0
  1.000000   0.812500 0
  0.312500   0.375000 0
  0.562500   0.375000 0
  0.687500   0.437500 0
  0.000000   0.000000 0
  0.500000   0.000000 0
  0.937500   0.437500 0
  0.250000   0.000000 0
  0.375000   0.437500 0
  0.812500   0.875000 0
  0.125000   0.375000 0
  0.125000   0.437500 0
  0.625000   0.437500 0
  1.000000   0.500000 0
  0.312500   0.062500 0
  0.750000   0.500000 0
  0.062500   0.000000 0
  0.062500   0.062500 0
  0.562500   0.062500 0
  0.062500   0.750000 0
  0.312500   0.750000 0
  0.312500   0.625000 0
  0.312500   0.562500 0
  0.062500   0.562500 0
  0.187500   1.000000 0
  0.437500   0.562500 0
  0.875000   1.000000 0
  0.187500   0.562500 0
  0.500000   0.937500 0
  0.250000   0.937500 0
  0.312500   1.000000 0
  0.125000   0.750000 0
  0.125000   0.687500 0
  1.000000   0.000000 0
  0.000000   0.937500 0
  0.000000   0.875000 0
  0.875000   0.125000 0
  0.875000   0.187500 0
  0.062500   0.812500 0
  0.312500   0.812500 0
  0.000000   0.812500 0
  0.000000   0.625000 0
  0.000000   0.562500 0
  0.062500   1.000000 0
  0.062500   0.937500 0
  0.937500   0.187500 0
  0.937500   0.250000 0
  0.062500   0.687500 0
  0.062500   0.625000 0
  0.125000   1.000000 0
  1.000000   0.250000 0
  1.000000   0.312500 0
  0.062500   0.875000 0
  0.125000   0.812500 0
  0.375000   0.812500 0
  0.125000   0.875000 0
  0.375000   0.937500 0
  0.375000   0.875000 0
  0.187500   0.750000 0
  0.187500   0.812500 0
  0.437500   0.812500 0
  0.187500   0.875000 0
  0.437500   0.875000 0
  0.375000   0.562500 0
  0.812500   1.000000 0
  0.125000   0.562500 0
  0.437500   1.000000 0
  0.437500   0.937500 0
  0.187500   0.937500 0
  0.125000   0.937500 0
  0.500000   0.687500 0
  0.500000   0.750000 0
  0.500000   0.812500 0
  0.250000   0.812500 0
  0.250000   0.875000 0
  0.500000   0.875000 0
  0.437500   0.750000 0
  0.312500   0.875000 0
  0.312500   0.937500 0
  0.687500   0.250000 0
  0.687500   0.312500 0
  0.937500   0.312500 0
  0.875000   0.250000 0
  0.625000   0.000000 0
  0.875000   0.000000 0
  0.687500   0.375000 0
  0.937500   0.375000 0
  0.875000   0.312500 0
  0.625000   0.312500 0
  0.687500   0.000000 0
  0.937500   0.000000 0
  0.750000   0.312500 0
  0.750000   0.375000 0
  1.000000   0.375000 0
  0.812500   0.250000 0
  0.562500   0.437500 0
  0.562500   0.500000 0
  0.687500   0.062500 0
  0.750000   0.437500 0
  0.750000   0.000000 0
  0.750000   0.062500 0
  1.000000   0.062500 0
  0.812500   0.375000 0
  0.812500   0.437500 0
CELLS 256 1280
4 169 170 148 68
4 151 166 56 167
4 195 45 196 167
4 54 170 201 202
4 109 34 30 147
4 40 32 81 112
4 192 89 86 68
4 48 91 78 202
4 99 64 196 97
4 71 43 37 103
4 74 186 56 95
4 109 164 34 115
4 50 81 158 112
4 122 69 92 70
4 195 145 45 106
4 110 143 174 175
4 157 30 158 147
4 40 69 32 41
4 50 158 148 147
4 141 155 164 115
4 122 123 69 41
4 142 186 143 175
4 60 39 61 42
4 40 51 69 70
4 120 31 123 41
4 157 174 36 175
4 50 148 89 68
4 48 78 155 115
4 52 83 51 70
4 151 56 66 95
4 71 61 43 42
4 169 148 34 147
4 100 193 39 42
4 40 81 51 199
4 110 174 32 112
4 109 30 145 106
4 100 66 193 95
4 169 34 78 115
4 190 92 83 70
4 50 89 81 199
4 54 86 170 68
4 74 56 45 167
4 142 143 43 103
4 153 59 64 97
4 99 196 166 167
4 169 78 170 202
4 142 193 186 95
4 192 128 89 199
4 74 45 36 106
4 110 31 143 103
4 76 184 59 97
4 142 43 193 42
4 52 51 128 199
4 189 201 91 202
4 120 37 31 103
4 74 36 186 175
4 195 196 184 97
4 141 164 140 183
4 157 158 174 112
4 109 145 164 183
4 195 184 145 183
4 110 32 31 41
4 157 36 30 106
4 76 140 184 183
4 171 172 206 181
4 178 172 261 136
4 256 261 255 136
4 256 257 261 245
4 180 150 206 207
4 60 119 39 210
4 118 215 241 263
4 178 205 172 181
4 216 243 238 244
4 162 217 233 232
4 180 206 131 181
4 179 137 119 210
4 216 204 217 232
4 220 237 219 229
4 216 217 243 159
4 259 258 262 224
4 240 254 237 229
4 153 64 227 208
4 161 205 258 224
4 240 237 238 223
4 226 227 233 208
4 234 228 254 229
4 171 248 137 210
4 160 132 204 232
4 180 131 138 159
4 133 251 213 252
4 171 206 248 207
4 162 138 217 159
4 161 258 243 244
4 220 225 237 223
4 151 150 166 212
4 260 247 257 245
4 259 262 214 263
4 151 66 150 207
4 234 254 209 253
4 162 233 250 208
4 242 241 262 263
4 171 137 172 136
4 161 243 131 159
4 160 204 225 223
4 161 131 205 181
4 179 255 137 136
4 216 238 204 223
4 100 39 248 210
4 260 213 247 252
4 226 233 132 232
4 134 214 215 263
4 180 138 150 212
4 178 261 239 245
4 259 246 258 244
4 178 239 205 224
4 240 238 246 244
4 242 262 239 224
4 99 250 64 208
4 240 246 254 253
4 242 239 247 245
4 135 219 228 229
4 99 166 250 212
4 259 214 246 253
4 118 241 251 252
4 100 248 66 207
4 134 209 214 253
4 162 250 138 212
4 242 247 241 252
4 71 187 61 280
4 102 281 197 280
4 122 92 82 203
4 17 18 82 117
4 122 82 123 117
4 19 264 273 265
4 267 279 222 20
4 125 273 270 265
4 267 272 279 176
4 19 116 18 117
4 21 25 286 24
4 23 28 26 20
4 23 285 28 27
4 218 286 275 24
4 85 53 84 288
4 235 236 231 266
4 221 222 28 20
4 267 222 231 230
4 268 38 129 203
4 125 270 197 188
4 126 287 272 176
4 277 270 276 265
4 267 231 272 266
4 125 197 187 280
4 190 129 92 203
4 277 276 287 176
4 19 18 264 22
4 17 82 38 203
4 102 197 90 188
4 126 84 287 288
4 284 130 285 27
4 121 276 264 265
4 71 37 187 177
4 120 123 116 117
4 198 88 127 191
4 221 16 25 24
4 23 26 15 22
4 121 279 276 176
4 235 231 124 230
4 125 187 273 177
4 278 271 236 266
4 277 287 283 288
4 284 285 274 282
4 278 127 271 191
4 269 275 16 24
4 200 283 53 288
4 23 15 285 282
4 121 26 279 20
4 21 124 25 230
4 19 273 116 177
4 200 90 283 188
4 126 271 84 191
4 269 16 130 27
4 17 38 15 282
4 221 25 222 230
4 121 264 26 22
4 120 116 37 177
4 60 61 281 280
4 277 283 270 188
4 126 272 271 266
4 268 274 38 282
4 85 84 88 191
4 17 15 18 22
4 221 28 16 27
4 93 94 73 55
4 85 88 67 87
4 80 49 79 87
4 44 104 73 72
4 146 33 67 168
4 211 165 149 55
4 8 47 14 154
4 105 104 108 144
4 105 108 29 107
4 7 139 13 75
4 44 165 194 98
4 200 53 77 168
4 8 1 101 4
4 2 5 152 58
4 260 6 213 3
4 105 35 104 72
4 96 57 182 75
4 7 14 139 154
4 146 29 33 107
4 7 13 10 9
4 12 13 57 75
4 85 67 53 168
4 44 73 165 55
4 63 152 62 58
4 8 101 47 46
4 96 182 194 144
4 60 281 119 4
4 12 5 6 3
4 173 185 35 72
4 65 149 94 55
4 146 67 49 87
4 114 113 47 154
4 163 108 182 144
4 12 6 13 9
4 173 35 111 156
4 163 182 139 75
4 260 257 6 9
4 105 29 35 156
4 163 139 113 154
4 256 10 257 9
4 146 49 29 156
4 163 113 108 107
4 80 111 49 156
4 102 101 281 4
4 12 57 5 58
4 44 194 104 144
4 96 194 62 98
4 2 0 5 3
4 93 73 185 72
4 179 119 1 4
4 200 77 90 46
4 114 33 113 107
4 7 10 14 11
4 96 62 57 58
4 133 213 0 3
4 102 90 101 46
4 256 255 10 11
4 63 62 249 98
4 114 47 77 46
4 179 1 255 11
4 211 249 165 98
4 114 77 33 168
4 198 79 88 87
4 8 14 1 11
CELL_TYPES 256
8
8
8
8
8
8
8
8
8
8
8
8
8
8
8
8
8
8
8
8
8
8
8
8
8
8
8
8
8
8
8
8
8
8
8
8
8
8
8
8
8
8
8
8
8
8
8
8
8
8
8
8
8
8
8
8
8
8
8
8
8
8
8
8
8
8
8
8
8
8
8
8
8
8
8
8
8
8
8
8
8
8
8
8
8
8
8
8
8
8
8
8
8
8
8
8
8
8
8
8
8
8
8
8
8
8
8
8
8
8
8
8
8
8
8
8
8
8
8
8
8
8
8
8
8
8
8
8
8
8
8
8
8
8
8
8
8
8
8
8
8
8
8
8
8
8
8
8
8
8
8
8
8
8
8
8
8
8
8
8
8
8
8
8
8
8
8
8
8
8
8
8
8
8
8
8
8
8
8
8
8
8
8
8
8
8
8
8
8
8
8
8
8
8
8
8
8
8
8
8
8
8
8
8
8
8
8
8
8
8
8
8
8
8
8
8
8
8
8
8
8
8
8
8
8
8
8
8
8
8
8
8
8
8
8
8
8
8
8
8
8
8
8
8
8
8
8
8
8
8
8
8
8
8
8
8
CELL_DATA 256
VECTORS vector_value float
0.066171 -0.0772475 0
0.579844 -0.592398 0
0.207272 -0.103084 0
0.00351633 -0.0243603 0
0.320016 -0.24986 0
0.223383 -0.389397 0
0.0310483 -0.0817656 0
0.000893355 -0.0448478 0
0.0161802 -0.441342 0
0.547212 -1.60237 0
0.721986 -0.336353 0
0.277378 -0.369066 0
0.316024 -0.225025 0
-0.0448578 -1.27937 0
0.384971 -0.0463939 0
0.21287 -0.30736 0
0.316741 -0.215125 0
-0.21908 -1.77174 0
0.443431 -0.279799 0
0.0787638 -0.215378 0
-0.333068 -1.9976 0
0.385187 -0.370947 0
0.246057 -0.778451 0
-0.227076 -2.27939 0
-0.0378315 -2.01033 0
0.212023 -0.146092 0
0.151343 -0.127661 0
0.034421 -0.0932027 0
-0.0413269 -2.38756 0
1.11167 -0.842999 0
0.498925 -1.26588 0
0.308264 -0.166046 0
0.791616 -0.843309 0
0.147246 -0.716146 0
0.19206 -0.267936 0
0.513165 -0.208153 0
1.02597 -0.792392 0
0.133187 -0.168679 0
0.00219141 -0.927714 0
0.381878 -0.310362 0
0.0179009 -0.0530759 0
0.381689 -0.126669 0
0.763139 -1.77157 0
0.0503295 -1.38196 0
0.0944793 -0.24346 0
0.0227835 -0.0579821 0
1.3708 -0.882906 0
0.0452218 -0.162179 0
0.339354 -0.0439341 0
0.280473 -1.2918 0
0.0626935 -1.287 0
1.0222 -1.32924 0
0.0384693 -1.03698 0
-0.000214153 -0.0454839 0
0.493154 -1.81445 0
0.346345 -0.14671 0
0.132971 -0.470247 0
0.229625 -0.549037 0
0.223246 -0.162809 0
0.516927 -0.453585 0
0.451438 -0.451819 0
0.180234 -1.3034 0
0.267516 -0.0789187 0
0.25088 -1.03111 0
0.0610938 -0.203907 0
0.0303965 -0.140023 0
-0.00970041 -0.154496 0
0.0637905 -0.166584 0
0.488256 -0.755781 0
0.0579722 -0.267551 0
-0.0526593 -0.402285 0
0.0821011 -0.218451 0
0.163873 -0.575126 0
0.46947 -1.2788 0
0.138472 -0.390792 0
0.030021 -0.230209 0
0.928818 -1.97159 0
-0.0655645 -3.43609 0
0.299806 -0.741848 0
0.0371497 -0.126637 0
-0.0334737 -1.04522 0
-0.0380542 -1.45934 0
0.149334 -0.183562 0
0.086326 -0.897247 0
0.0162973 -1.35838 0
-2.38879 -1.06338 0
0.0761639 -0.278683 0
0.336017 -1.98068 0
0.516057 -0.672823 0
0.99258 -0.706265 0
0.1763 -0.259449 0
1.03777 -1.38671 0
0.179275 -0.340534 0
0.0440692 -3.43898 0
0.77557 -1.12991 0
0.299628 -0.345535 0
-0.0498511 -0.130912 0
0.816151 -0.920452 0
-2.15966 -0.80122 0
0.297745 -0.826045 0
0.0254019 -0.16365 0
0.0382622 -0.195489 0
0.117705 -0.281417 0
0.533666 -3.07131 0
0.13393 -0.27132 0
-0.0226168 -0.237093 0
0.472452 -1.19581 0
0.254026 -0.468438 0
0.46164 -0.541183 0
0.10537 -1.46728 0
-0.850078 -0.585063 0
0.832439 -1.13351 0
0.0392671 -0.0917797 0
0.0619581 -0.36857 0
0.0794954 -0.152997 0
0.077231 -0.622062 0
0.0340651 -0.105484 0
0.0559957 -0.324667 0
-0.0284415 -0.453656 0
0.0964264 -0.117347 0
-1.16197 -2.23213 0
0.376751 -0.635622 0
-0.124863 -0.39312 0
0.609104 -0.734281 0
0.619273 -0.574264 0
-1.52774 -0.672561 0
0.727029 -0.972822 0
0.201662 -0.274393 0
0.166447 -0.514038 0
0.0620877 -0.207167 0
0.323082 -0.893822 0
0.204726 -0.575257 0
0.0857985 -0.936826 0
-0.0291314 -0.109625 0
-0.963051 -5.02455 0
-0.0123118 -0.195261 0
-0.77822 -4.06413 0
0.118376 -0.472739 0
0.00545624 -0.400054 0
-1.30114 -2.60806 0
-1.15997 -2.78827 0
0.0414213 -0.501057 0
0.0821735 -1.93272 0
-0.193619 -0.808434 0
-0.87127 -4.32139 0
-0.499607 -1.50381 0
0.206477 -0.903925 0
0.0389117 -0.291202 0
-0.14359 -1.89512 0
0.151493 -0.340997 0
-1.04547 -2.61432 0
0.0389995 -0.248875 0
0.121646 -0.639391 0
0.379843 -1.96976 0
-0.0288216 -0.114661 0
0.223393 -0.607511 0
0.172054 -0.435409 0
0.051026 -1.94077 0
-0.450484 -2.61969 0
0.0168025 -0.237366 0
0.164838 -0.774192 0
0.0124506 -1.45046 0
-0.239929 -3.48462 0
0.129373 -1.20573 0
-0.512017 -0.758211 0
0.0930337 -1.49783 0
-0.0711521 -0.55359 0
-0.0532323 -0.366668 0
-0.506772 -1.43271 0
0.141918 -1.4663 0
-0.379171 -2.59142 0
-0.545981 -2.75582 0
0.108319 -1.34777 0
0.21711 -1.31397 0
-0.7377 -1.88697 0
-0.464316 -1.93289 0
-0.0363916 -0.456772 0
-0.0511911 -0.283258 0
0.180906 -0.831695 0
-0.348009 -2.22898 0
-0.104819 -1.7354 0
0.0191627 -0.568449 0
-0.113202 -0.995411 0
-0.035481 -0.153396 0
0.224905 -1.53564 0
-0.00412075 -0.470162 0
0.269084 -0.752624 0
-1.09074 -3.56044 0
-0.0520441 -0.942233 0
-0.267649 -1.40796 0
0.0630745 -0.256586 0
-0.404061 -2.75619 0
0.00321651 -0.659721 0
-0.13681 -1.56 0
0.0896298 -3.40894 0
0.461475 -1.1353 0
-0.0582955 -1.2872 0
-0.429254 -0.824413 0
0.0752595 -1.06423 0
1.27142 -2.36472 0
0.739998 -2.22674 0
0.272769 -1.36384 0
0.499142 -2.56533 0
0.130927 -1.40694 0
-0.162764 -0.678507 0
1.91689 -1.04064 0
0.545291 -0.554849 0
1.21488 -2.41262 0
0.637432 -1.27985 0
0.135727 -1.5243 0
0.128666 -1.67705 0
0.301419 -0.622584 0
0.370194 -0.948338 0
-0.267198 -1.39718 0
0.0650092 -0.762588 0
1.44568 -1.48123 0
0.0625954 -0.52328 0
1.27603 -1.92535 0
-0.112893 -0.560315 0
0.51806 -0.703503 0
0.288216 -1.10364 0
-0.155637 -0.757524 0
0.118606 -2.10885 0
0.211759 -0.863927 0
0.823105 -1.2713 0
0.585007 -0.831857 0
0.466427 -1.88583 0
0.224967 -0.748153 0
0.470637 -0.426469 0
1.06056 -2.74092 0
0.14785 -0.595402 0
0.181605 -0.33544 0
0.465509 -2.17709 0
0.183021 -0.526313 0
0.462612 -3.10803 0
-0.00103698 -0.441521 0
0.616369 -0.98048 0
1.1044 -2.64908 0
0.505669 -1.29376 0
1.80121 -0.900435 0
0.0887101 -0.781895 0
-0.0884557 -0.327875 0
0.254521 -0.873003 0
0.0362727 -0.488536 0
0.0370535 -0.51804 0
0.818129 -2.04154 0
1.41743 -0.802271 0
0.137075 -0.370123 0
-0.00161483 -0.222625 0
0.891305 -1.57321 0
0.242166 -1.00646 0
-0.0255886 -0.134605 0
-0.0872713 -1.42311 0
0.0166526 -0.844012 0
0.0612251 -3.61069 0
-0.104647 -0.653645 0
