# vtk DataFile Version 2.0
Unstructured Grid by M++
ASCII
DATASET UNSTRUCTURED_GRID
POINTS 81 float
  1.000000   0.625000 0
  0.750000   0.375000 0
  1.000000   0.000000 0
  0.875000   0.875000 0
  0.750000   0.125000 0
  1.000000   1.000000 0
  0.875000   0.250000 0
  0.625000   0.875000 0
  1.000000   0.750000 0
  0.875000   0.000000 0
  1.000000   0.250000 0
  0.625000   0.375000 0
  0.875000   0.500000 0
  0.625000   0.625000 0
  1.000000   0.500000 0
  0.750000   0.500000 0
  0.750000   1.000000 0
  1.000000   0.125000 0
  0.625000   0.250000 0
  0.750000   0.750000 0
  0.625000   0.000000 0
  0.125000   0.375000 0
  0.000000   0.500000 0
  0.125000   0.625000 0
  0.625000   1.000000 0
  1.000000   0.875000 0
  0.875000   0.125000 0
  0.500000   0.250000 0
  0.625000   0.500000 0
  0.250000   0.625000 0
  0.000000   0.625000 0
  0.375000   0.500000 0
  0.375000   0.000000 0
  0.000000   0.125000 0
  0.125000   0.875000 0
  0.875000   1.000000 0
  0.750000   0.250000 0
  0.375000   0.375000 0
  0.250000   0.375000 0
  0.625000   0.750000 0
  0.125000   0.125000 0
  0.500000   0.000000 0
  0.250000   0.875000 0
  0.125000   0.500000 0
  0.500000   0.375000 0
  0.125000   0.000000 0
  0.250000   0.750000 0
  0.250000   0.500000 0
  0.000000   0.875000 0
  0.875000   0.625000 0
  0.500000   0.750000 0
  0.750000   0.625000 0
  0.250000   0.000000 0
  0.375000   0.750000 0
  0.750000   0.875000 0
  0.625000   0.125000 0
  0.250000   0.250000 0
  0.375000   1.000000 0
  0.375000   0.250000 0
  0.000000   0.375000 0
  0.500000   1.000000 0
  0.875000   0.750000 0
  0.750000   0.000000 0
  0.375000   0.125000 0
  0.500000   0.875000 0
  0.000000   0.000000 0
  0.125000   0.750000 0
  0.500000   0.625000 0
  0.125000   0.250000 0
  0.500000   0.125000 0
  0.250000   1.000000 0
  0.250000   0.125000 0
  0.000000   1.000000 0
  0.375000   0.875000 0
  0.000000   0.750000 0
  0.375000   0.625000 0
  0.000000   0.250000 0
  0.125000   1.000000 0
  1.000000   0.375000 0
  0.500000   0.500000 0
  0.875000   0.375000 0
CELLS 64 320
4 56 71 58 63
4 27 58 69 63
4 41 69 32 63
4 76 33 68 40
4 27 44 58 37
4 79 31 44 37
4 56 38 68 21
4 56 58 38 37
4 52 32 71 63
4 47 38 31 37
4 76 68 59 21
4 22 59 43 21
4 65 45 33 40
4 47 43 38 21
4 52 71 45 40
4 56 68 71 40
4 74 30 66 23
4 46 66 29 23
4 22 43 30 23
4 72 48 77 34
4 46 53 42 73
4 50 64 53 73
4 70 42 57 73
4 74 66 48 34
4 46 42 66 34
4 47 29 43 23
4 70 77 42 34
4 60 57 64 73
4 79 67 31 75
4 47 31 29 75
4 50 53 67 75
4 46 29 53 75
4 10 78 6 80
4 36 6 1 80
4 15 1 12 80
4 36 4 6 26
4 14 12 78 80
4 2 17 9 26
4 36 18 4 55
4 15 28 1 11
4 62 4 20 55
4 10 6 17 26
4 27 18 44 11
4 62 9 4 26
4 27 69 18 55
4 36 1 18 11
4 41 20 69 55
4 79 44 28 11
4 16 24 54 7
4 19 54 39 7
4 50 39 64 7
4 8 25 61 3
4 60 64 24 7
4 79 28 67 13
4 19 51 61 49
4 8 61 0 49
4 15 51 28 13
4 19 39 51 13
4 50 67 39 13
4 19 61 54 3
4 14 0 12 49
4 5 35 25 3
4 15 12 51 49
4 16 54 35 3
CELL_TYPES 64
8
8
8
8
8
8
8
8
8
8
8
8
8
8
8
8
8
8
8
8
8
8
8
8
8
8
8
8
8
8
8
8
8
8
8
8
8
8
8
8
8
8
8
8
8
8
8
8
8
8
8
8
8
8
8
8
8
8
8
8
8
8
8
8
CELL_DATA 64
VECTORS vector_value float
0.337376 -3.82767 0
0.255615 -0.833117 0
0.143089 -1.25853 0
0.0159962 -0.292757 0
0.130083 -0.565763 0
-1.10856 -1.49817 0
0.339425 -1.01386 0
0.0649627 -3.99119 0
0.102492 -3.51111 0
-0.0967055 -2.30807 0
-0.00333714 -0.259556 0
0.597736 -1.17912 0
0.00470844 -0.24471 0
0.764648 -0.634045 0
0.0265633 -0.641158 0
0.110725 -0.769232 0
-0.109665 -1.70335 0
-0.00728394 -0.99597 0
0.113669 -1.60151 0
-0.126055 -1.20364 0
-0.347095 -0.795676 0
-0.217657 -0.426342 0
-0.607927 -0.802379 0
-0.114623 -1.31638 0
-0.210787 -1.70918 0
0.407559 -1.09783 0
-0.491712 -1.3698 0
-0.361545 -0.780352 0
-0.249369 -1.48677 0
0.106879 -0.744655 0
-0.0940597 -0.561686 0
0.315676 -1.18548 0
-0.00386111 -0.263187 0
0.052758 -1.38444 0
-0.0949636 -0.75108 0
0.313619 -1.25573 0
-0.227836 -0.633493 0
-0.00914469 -0.695319 0
0.176781 -0.278953 0
0.0965998 -0.509615 0
0.119913 -0.173963 0
0.217842 -0.640333 0
0.0761877 -0.126853 0
0.0907158 -1.41519 0
0.113421 -0.102208 0
0.11504 -0.395152 0
0.0374256 -0.0600077 0
-0.20595 -0.486411 0
0.432699 -0.561305 0
-0.0314839 -0.300201 0
-0.105037 -0.686353 0
0.101627 -2.6262 0
-0.0163926 -0.694953 0
-0.749551 -0.800913 0
-0.551967 -0.399102 0
-0.583621 -2.18594 0
-0.80414 -0.298494 0
-0.387929 -0.290721 0
-0.329385 -0.677746 0
0.0226845 -0.13966 0
-0.34984 -1.04978 0
0.700969 -1.8205 0
-1.08347 -0.920048 0
1.16866 -0.767069 0
