# vtk DataFile Version 2.0
Unstructured Grid by M++
ASCII
DATASET UNSTRUCTURED_GRID
POINTS 81 float
  1.000000   0.625000 0
  0.750000   0.375000 0
  1.000000   0.000000 0
  0.875000   0.875000 0
  0.750000   0.125000 0
  1.000000   1.000000 0
  0.875000   0.250000 0
  0.625000   0.875000 0
  1.000000   0.750000 0
  0.875000   0.000000 0
  1.000000   0.250000 0
  0.625000   0.375000 0
  0.875000   0.500000 0
  0.625000   0.625000 0
  1.000000   0.500000 0
  0.750000   0.500000 0
  0.750000   1.000000 0
  1.000000   0.125000 0
  0.625000   0.250000 0
  0.750000   0.750000 0
  0.625000   0.000000 0
  0.125000   0.375000 0
  0.000000   0.500000 0
  0.125000   0.625000 0
  0.625000   1.000000 0
  1.000000   0.875000 0
  0.875000   0.125000 0
  0.500000   0.250000 0
  0.625000   0.500000 0
  0.250000   0.625000 0
  0.000000   0.625000 0
  0.375000   0.500000 0
  0.375000   0.000000 0
  0.000000   0.125000 0
  0.125000   0.875000 0
  0.875000   1.000000 0
  0.750000   0.250000 0
  0.375000   0.375000 0
  0.250000   0.375000 0
  0.625000   0.750000 0
  0.125000   0.125000 0
  0.500000   0.000000 0
  0.250000   0.875000 0
  0.125000   0.500000 0
  0.500000   0.375000 0
  0.125000   0.000000 0
  0.250000   0.750000 0
  0.250000   0.500000 0
  0.000000   0.875000 0
  0.875000   0.625000 0
  0.500000   0.750000 0
  0.750000   0.625000 0
  0.250000   0.000000 0
  0.375000   0.750000 0
  0.750000   0.875000 0
  0.625000   0.125000 0
  0.250000   0.250000 0
  0.375000   1.000000 0
  0.375000   0.250000 0
  0.000000   0.375000 0
  0.500000   1.000000 0
  0.875000   0.750000 0
  0.750000   0.000000 0
  0.375000   0.125000 0
  0.500000   0.875000 0
  0.000000   0.000000 0
  0.125000   0.750000 0
  0.500000   0.625000 0
  0.125000   0.250000 0
  0.500000   0.125000 0
  0.250000   1.000000 0
  0.250000   0.125000 0
  0.000000   1.000000 0
  0.375000   0.875000 0
  0.000000   0.750000 0
  0.375000   0.625000 0
  0.000000   0.250000 0
  0.125000   1.000000 0
  1.000000   0.375000 0
  0.500000   0.500000 0
  0.875000   0.375000 0
CELLS 64 320
4 56 71 58 63
4 27 58 69 63
4 41 69 32 63
4 76 33 68 40
4 27 44 58 37
4 79 31 44 37
4 56 38 68 21
4 56 58 38 37
4 52 32 71 63
4 47 38 31 37
4 76 68 59 21
4 22 59 43 21
4 65 45 33 40
4 47 43 38 21
4 52 71 45 40
4 56 68 71 40
4 74 30 66 23
4 46 66 29 23
4 22 43 30 23
4 72 48 77 34
4 46 53 42 73
4 50 64 53 73
4 70 42 57 73
4 74 66 48 34
4 46 42 66 34
4 47 29 43 23
4 70 77 42 34
4 60 57 64 73
4 79 67 31 75
4 47 31 29 75
4 50 53 67 75
4 46 29 53 75
4 10 78 6 80
4 36 6 1 80
4 15 1 12 80
4 36 4 6 26
4 14 12 78 80
4 2 17 9 26
4 36 18 4 55
4 15 28 1 11
4 62 4 20 55
4 10 6 17 26
4 27 18 44 11
4 62 9 4 26
4 27 69 18 55
4 36 1 18 11
4 41 20 69 55
4 79 44 28 11
4 16 24 54 7
4 19 54 39 7
4 50 39 64 7
4 8 25 61 3
4 60 64 24 7
4 79 28 67 13
4 19 51 61 49
4 8 61 0 49
4 15 51 28 13
4 19 39 51 13
4 50 67 39 13
4 19 61 54 3
4 14 0 12 49
4 5 35 25 3
4 15 12 51 49
4 16 54 35 3
CELL_TYPES 64
8
8
8
8
8
8
8
8
8
8
8
8
8
8
8
8
8
8
8
8
8
8
8
8
8
8
8
8
8
8
8
8
8
8
8
8
8
8
8
8
8
8
8
8
8
8
8
8
8
8
8
8
8
8
8
8
8
8
8
8
8
8
8
8
CELL_DATA 64
VECTORS vector_value float
-0.234426 -0.497431 0
0.225445 -1.7896 0
0.00839424 -0.347542 0
0.272577 -0.808485 0
-0.00808338 -1.86452 0
0.473333 -0.895426 0
0.283183 -0.495625 0
0.386621 -0.335673 0
-0.172399 -0.854897 0
0.761097 -0.256388 0
0.0724448 -1.13874 0
0.0428713 -1.03351 0
0.0389459 -0.307134 0
0.402904 -1.2506 0
0.109438 -1.34675 0
0.126253 -0.677179 0
0.0544206 -1.64932 0
-0.155995 -1.12294 0
0.151081 -1.24511 0
-0.27899 -1.51114 0
-0.428088 -1.02625 0
-0.218346 -0.897589 0
-0.13972 -0.782906 0
-0.00042655 -1.51692 0
-0.103124 -0.815429 0
0.304019 -1.52303 0
-0.428949 -0.702554 0
-0.0512093 -0.992803 0
0.283037 -0.39126 0
0.261211 -0.471647 0
0.106274 -0.423168 0
-0.0443648 -0.735275 0
0.018413 -0.314363 0
0.121887 -0.282524 0
-0.282351 -0.346081 0
0.970345 -1.18095 0
-0.0404082 -0.330893 0
0.277876 -1.24953 0
0.665412 -1.04648 0
-1.10326 -1.16028 0
0.2324 -0.689601 0
0.219779 -0.600521 0
0.501203 -2.42975 0
0.425972 -1.27255 0
0.517833 -1.39936 0
0.998489 -1.13881 0
0.271763 -1.932 0
-0.558507 -2.72682 0
0.0703321 -0.513939 0
0.497772 -0.849597 0
0.185189 -0.341836 0
-0.185888 -0.856254 0
-0.0372299 -1.2163 0
-0.317299 -1.63453 0
-0.254249 -1.77523 0
-0.0602432 -0.787008 0
-0.666465 -0.886741 0
-0.289069 -0.945658 0
0.160018 -0.561396 0
-0.0774224 -1.69612 0
-0.143358 -0.563762 0
0.0849053 -1.18978 0
-0.726343 -1.28392 0
0.278958 -1.09058 0
