# vtk DataFile Version 2.0
Unstructured Grid by M++
ASCII
DATASET UNSTRUCTURED_GRID
POINTS 81 float
  1.000000   0.625000 0
  0.750000   0.375000 0
  1.000000   0.000000 0
  0.875000   0.875000 0
  0.750000   0.125000 0
  1.000000   1.000000 0
  0.875000   0.250000 0
  0.625000   0.875000 0
  1.000000   0.750000 0
  0.875000   0.000000 0
  1.000000   0.250000 0
  0.625000   0.375000 0
  0.875000   0.500000 0
  0.625000   0.625000 0
  1.000000   0.500000 0
  0.750000   0.500000 0
  0.750000   1.000000 0
  1.000000   0.125000 0
  0.625000   0.250000 0
  0.750000   0.750000 0
  0.625000   0.000000 0
  0.125000   0.375000 0
  0.000000   0.500000 0
  0.125000   0.625000 0
  0.625000   1.000000 0
  1.000000   0.875000 0
  0.875000   0.125000 0
  0.500000   0.250000 0
  0.625000   0.500000 0
  0.250000   0.625000 0
  0.000000   0.625000 0
  0.375000   0.500000 0
  0.375000   0.000000 0
  0.000000   0.125000 0
  0.125000   0.875000 0
  0.875000   1.000000 0
  0.750000   0.250000 0
  0.375000   0.375000 0
  0.250000   0.375000 0
  0.625000   0.750000 0
  0.125000   0.125000 0
  0.500000   0.000000 0
  0.250000   0.875000 0
  0.125000   0.500000 0
  0.500000   0.375000 0
  0.125000   0.000000 0
  0.250000   0.750000 0
  0.250000   0.500000 0
  0.000000   0.875000 0
  0.875000   0.625000 0
  0.500000   0.750000 0
  0.750000   0.625000 0
  0.250000   0.000000 0
  0.375000   0.750000 0
  0.750000   0.875000 0
  0.625000   0.125000 0
  0.250000   0.250000 0
  0.375000   1.000000 0
  0.375000   0.250000 0
  0.000000   0.375000 0
  0.500000   1.000000 0
  0.875000   0.750000 0
  0.750000   0.000000 0
  0.375000   0.125000 0
  0.500000   0.875000 0
  0.000000   0.000000 0
  0.125000   0.750000 0
  0.500000   0.625000 0
  0.125000   0.250000 0
  0.500000   0.125000 0
  0.250000   1.000000 0
  0.250000   0.125000 0
  0.000000   1.000000 0
  0.375000   0.875000 0
  0.000000   0.750000 0
  0.375000   0.625000 0
  0.000000   0.250000 0
  0.125000   1.000000 0
  1.000000   0.375000 0
  0.500000   0.500000 0
  0.875000   0.375000 0
CELLS 64 320
4 56 71 58 63
4 27 58 69 63
4 41 69 32 63
4 76 33 68 40
4 27 44 58 37
4 79 31 44 37
4 56 38 68 21
4 56 58 38 37
4 52 32 71 63
4 47 38 31 37
4 76 68 59 21
4 22 59 43 21
4 65 45 33 40
4 47 43 38 21
4 52 71 45 40
4 56 68 71 40
4 74 30 66 23
4 46 66 29 23
4 22 43 30 23
4 72 48 77 34
4 46 53 42 73
4 50 64 53 73
4 70 42 57 73
4 74 66 48 34
4 46 42 66 34
4 47 29 43 23
4 70 77 42 34
4 60 57 64 73
4 79 67 31 75
4 47 31 29 75
4 50 53 67 75
4 46 29 53 75
4 10 78 6 80
4 36 6 1 80
4 15 1 12 80
4 36 4 6 26
4 14 12 78 80
4 2 17 9 26
4 36 18 4 55
4 15 28 1 11
4 62 4 20 55
4 10 6 17 26
4 27 18 44 11
4 62 9 4 26
4 27 69 18 55
4 36 1 18 11
4 41 20 69 55
4 79 44 28 11
4 16 24 54 7
4 19 54 39 7
4 50 39 64 7
4 8 25 61 3
4 60 64 24 7
4 79 28 67 13
4 19 51 61 49
4 8 61 0 49
4 15 51 28 13
4 19 39 51 13
4 50 67 39 13
4 19 61 54 3
4 14 0 12 49
4 5 35 25 3
4 15 12 51 49
4 16 54 35 3
CELL_TYPES 64
8
8
8
8
8
8
8
8
8
8
8
8
8
8
8
8
8
8
8
8
8
8
8
8
8
8
8
8
8
8
8
8
8
8
8
8
8
8
8
8
8
8
8
8
8
8
8
8
8
8
8
8
8
8
8
8
8
8
8
8
8
8
8
8
CELL_DATA 64
VECTORS vector_value float
-0.0521047 -0.424966 0
0.00793291 -0.168143 0
0.0367626 -0.391251 0
-0.171958 -1.00451 0
-0.0426754 -0.158034 0
-0.0544476 -0.671569 0
-0.115094 -0.134476 0
-0.307638 -0.769238 0
0.00197825 -0.118256 0
0.0258408 -0.339523 0
-0.0791833 -0.764925 0
-0.181479 -0.558008 0
-0.0261319 -1.19654 0
-0.101792 -0.361529 0
-0.0545933 -0.208028 0
-0.356713 -0.244601 0
0.0253064 -0.264746 0
0.351497 -1.0346 0
-0.0213444 -0.244013 0
-0.0445379 -1.41527 0
0.0236324 -0.108785 0
0.529207 -1.91832 0
0.59944 -0.915126 0
0.396703 -0.936951 0
0.477467 -0.904445 0
-0.0245091 -0.744626 0
0.0140856 -0.238567 0
0.486843 -1.74207 0
0.563117 -0.668652 0
0.33564 -0.514947 0
0.260939 -0.423942 0
0.409845 -0.815418 0
0.826186 -1.7356 0
2.65202 -3.7329 0
-0.102825 -2.85053 0
0.13866 -0.82379 0
-0.017547 -1.34254 0
-0.0395368 -5.20216 0
-0.00657795 -0.111856 0
0.340538 -1.69538 0
-0.00146595 -0.0252857 0
1.13284 -5.09523 0
0.0433101 -0.116563 0
0.0152294 -0.748274 0
-0.0540439 -0.126906 0
0.687986 -0.588266 0
-0.0331452 -0.110204 0
0.160122 -0.180918 0
0.724463 -0.806379 0
0.801587 -0.348137 0
0.3585 -0.235604 0
0.096425 -0.803769 0
0.27674 -0.268607 0
0.601122 -0.375723 0
0.695609 -1.74265 0
0.933603 -2.39708 0
0.575543 -1.48442 0
0.340762 -0.264662 0
1.17269 -1.0569 0
0.912292 -2.74399 0
-0.688753 -2.53973 0
-0.148727 -0.749498 0
-0.461185 -1.42788 0
0.229039 -1.86449 0
