# vtk DataFile Version 2.0
Unstructured Grid by M++
ASCII
DATASET UNSTRUCTURED_GRID
POINTS 81 float
  1.000000   0.625000 0
  0.750000   0.375000 0
  1.000000   0.000000 0
  0.875000   0.875000 0
  0.750000   0.125000 0
  1.000000   1.000000 0
  0.875000   0.250000 0
  0.625000   0.875000 0
  1.000000   0.750000 0
  0.875000   0.000000 0
  1.000000   0.250000 0
  0.625000   0.375000 0
  0.875000   0.500000 0
  0.625000   0.625000 0
  1.000000   0.500000 0
  0.750000   0.500000 0
  0.750000   1.000000 0
  1.000000   0.125000 0
  0.625000   0.250000 0
  0.750000   0.750000 0
  0.625000   0.000000 0
  0.125000   0.375000 0
  0.000000   0.500000 0
  0.125000   0.625000 0
  0.625000   1.000000 0
  1.000000   0.875000 0
  0.875000   0.125000 0
  0.500000   0.250000 0
  0.625000   0.500000 0
  0.250000   0.625000 0
  0.000000   0.625000 0
  0.375000   0.500000 0
  0.375000   0.000000 0
  0.000000   0.125000 0
  0.125000   0.875000 0
  0.875000   1.000000 0
  0.750000   0.250000 0
  0.375000   0.375000 0
  0.250000   0.375000 0
  0.625000   0.750000 0
  0.125000   0.125000 0
  0.500000   0.000000 0
  0.250000   0.875000 0
  0.125000   0.500000 0
  0.500000   0.375000 0
  0.125000   0.000000 0
  0.250000   0.750000 0
  0.250000   0.500000 0
  0.000000   0.875000 0
  0.875000   0.625000 0
  0.500000   0.750000 0
  0.750000   0.625000 0
  0.250000   0.000000 0
  0.375000   0.750000 0
  0.750000   0.875000 0
  0.625000   0.125000 0
  0.250000   0.250000 0
  0.375000   1.000000 0
  0.375000   0.250000 0
  0.000000   0.375000 0
  0.500000   1.000000 0
  0.875000   0.750000 0
  0.750000   0.000000 0
  0.375000   0.125000 0
  0.500000   0.875000 0
  0.000000   0.000000 0
  0.125000   0.750000 0
  0.500000   0.625000 0
  0.125000   0.250000 0
  0.500000   0.125000 0
  0.250000   1.000000 0
  0.250000   0.125000 0
  0.000000   1.000000 0
  0.375000   0.875000 0
  0.000000   0.750000 0
  0.375000   0.625000 0
  0.000000   0.250000 0
  0.125000   1.000000 0
  1.000000   0.375000 0
  0.500000   0.500000 0
  0.875000   0.375000 0
CELLS 64 320
4 56 71 58 63
4 27 58 69 63
4 41 69 32 63
4 76 33 68 40
4 27 44 58 37
4 79 31 44 37
4 56 38 68 21
4 56 58 38 37
4 52 32 71 63
4 47 38 31 37
4 76 68 59 21
4 22 59 43 21
4 65 45 33 40
4 47 43 38 21
4 52 71 45 40
4 56 68 71 40
4 74 30 66 23
4 46 66 29 23
4 22 43 30 23
4 72 48 77 34
4 46 53 42 73
4 50 64 53 73
4 70 42 57 73
4 74 66 48 34
4 46 42 66 34
4 47 29 43 23
4 70 77 42 34
4 60 57 64 73
4 79 67 31 75
4 47 31 29 75
4 50 53 67 75
4 46 29 53 75
4 10 78 6 80
4 36 6 1 80
4 15 1 12 80
4 36 4 6 26
4 14 12 78 80
4 2 17 9 26
4 36 18 4 55
4 15 28 1 11
4 62 4 20 55
4 10 6 17 26
4 27 18 44 11
4 62 9 4 26
4 27 69 18 55
4 36 1 18 11
4 41 20 69 55
4 79 44 28 11
4 16 24 54 7
4 19 54 39 7
4 50 39 64 7
4 8 25 61 3
4 60 64 24 7
4 79 28 67 13
4 19 51 61 49
4 8 61 0 49
4 15 51 28 13
4 19 39 51 13
4 50 67 39 13
4 19 61 54 3
4 14 0 12 49
4 5 35 25 3
4 15 12 51 49
4 16 54 35 3
CELL_TYPES 64
8
8
8
8
8
8
8
8
8
8
8
8
8
8
8
8
8
8
8
8
8
8
8
8
8
8
8
8
8
8
8
8
8
8
8
8
8
8
8
8
8
8
8
8
8
8
8
8
8
8
8
8
8
8
8
8
8
8
8
8
8
8
8
8
CELL_DATA 64
VECTORS vector_value float
0.104398 -2.42251 0
-0.0884899 -0.909554 0
-0.0409263 -0.475181 0
0.571232 -1.1878 0
0.0913324 -1.11276 0
0.0670537 -0.765908 0
0.203265 -1.09618 0
0.131226 -1.99566 0
0.285035 -3.6175 0
0.606145 -2.10991 0
0.466501 -2.68892 0
-0.0641075 -2.70481 0
0.137703 -0.441947 0
0.167642 -1.27007 0
0.541917 -2.16481 0
1.12169 -2.32631 0
-0.80911 -1.54681 0
-1.35519 -3.21591 0
-0.145681 -2.48052 0
0.312295 -0.469786 0
-1.41571 -1.48254 0
-1.2015 -1.12477 0
-0.902811 -0.90367 0
-0.166855 -0.564094 0
-0.830754 -3.01235 0
0.296469 -2.54143 0
-0.079072 -2.02233 0
-1.55521 -1.61259 0
-0.0144545 -0.399122 0
0.192569 -1.27743 0
-0.226474 -0.327774 0
-0.868849 -1.49177 0
-0.0669829 -0.59323 0
-0.164744 -0.322254 0
0.0337991 -0.294391 0
-0.00740203 -0.230161 0
-0.0050385 -0.639635 0
0.0700383 -0.607413 0
-0.16344 -0.165612 0
0.0263122 -0.0920577 0
-0.0525596 -0.0920922 0
-0.000178682 -0.484397 0
-0.0381773 -0.133067 0
0.0215681 -0.0477373 0
-0.0158198 -0.273658 0
-0.0599222 -0.0579348 0
0.00988952 -0.553323 0
-0.0461628 -0.123211 0
-0.927849 -0.414074 0
-0.627462 -0.499662 0
-0.600146 -0.417817 0
-0.0700411 -0.729164 0
-1.55347 -0.824237 0
-0.0550507 -0.308995 0
-0.0260324 -0.0724323 0
-0.0103944 -0.628669 0
0.0608438 -0.154537 0
-0.0634854 -0.328796 0
-0.175514 -0.387844 0
-0.225672 -0.169599 0
0.00479581 -0.632883 0
-0.106819 -1.00907 0
0.0885278 -0.20508 0
-0.585168 -0.744246 0
