# vtk DataFile Version 2.0
Unstructured Grid by M++
ASCII
DATASET UNSTRUCTURED_GRID
POINTS 81 float
  1.000000   0.625000 0
  0.750000   0.375000 0
  1.000000   0.000000 0
  0.875000   0.875000 0
  0.750000   0.125000 0
  1.000000   1.000000 0
  0.875000   0.250000 0
  0.625000   0.875000 0
  1.000000   0.750000 0
  0.875000   0.000000 0
  1.000000   0.250000 0
  0.625000   0.375000 0
  0.875000   0.500000 0
  0.625000   0.625000 0
  1.000000   0.500000 0
  0.750000   0.500000 0
  0.750000   1.000000 0
  1.000000   0.125000 0
  0.625000   0.250000 0
  0.750000   0.750000 0
  0.625000   0.000000 0
  0.125000   0.375000 0
  0.000000   0.500000 0
  0.125000   0.625000 0
  0.625000   1.000000 0
  1.000000   0.875000 0
  0.875000   0.125000 0
  0.500000   0.250000 0
  0.625000   0.500000 0
  0.250000   0.625000 0
  0.000000   0.625000 0
  0.375000   0.500000 0
  0.375000   0.000000 0
  0.000000   0.125000 0
  0.125000   0.875000 0
  0.875000   1.000000 0
  0.750000   0.250000 0
  0.375000   0.375000 0
  0.250000   0.375000 0
  0.625000   0.750000 0
  0.125000   0.125000 0
  0.500000   0.000000 0
  0.250000   0.875000 0
  0.125000   0.500000 0
  0.500000   0.375000 0
  0.125000   0.000000 0
  0.250000   0.750000 0
  0.250000   0.500000 0
  0.000000   0.875000 0
  0.875000   0.625000 0
  0.500000   0.750000 0
  0.750000   0.625000 0
  0.250000   0.000000 0
  0.375000   0.750000 0
  0.750000   0.875000 0
  0.625000   0.125000 0
  0.250000   0.250000 0
  0.375000   1.000000 0
  0.375000   0.250000 0
  0.000000   0.375000 0
  0.500000   1.000000 0
  0.875000   0.750000 0
  0.750000   0.000000 0
  0.375000   0.125000 0
  0.500000   0.875000 0
  0.000000   0.000000 0
  0.125000   0.750000 0
  0.500000   0.625000 0
  0.125000   0.250000 0
  0.500000   0.125000 0
  0.250000   1.000000 0
  0.250000   0.125000 0
  0.000000   1.000000 0
  0.375000   0.875000 0
  0.000000   0.750000 0
  0.375000   0.625000 0
  0.000000   0.250000 0
  0.125000   1.000000 0
  1.000000   0.375000 0
  0.500000   0.500000 0
  0.875000   0.375000 0
CELLS 64 320
4 56 71 58 63
4 27 58 69 63
4 41 69 32 63
4 76 33 68 40
4 27 44 58 37
4 79 31 44 37
4 56 38 68 21
4 56 58 38 37
4 52 32 71 63
4 47 38 31 37
4 76 68 59 21
4 22 59 43 21
4 65 45 33 40
4 47 43 38 21
4 52 71 45 40
4 56 68 71 40
4 74 30 66 23
4 46 66 29 23
4 22 43 30 23
4 72 48 77 34
4 46 53 42 73
4 50 64 53 73
4 70 42 57 73
4 74 66 48 34
4 46 42 66 34
4 47 29 43 23
4 70 77 42 34
4 60 57 64 73
4 79 67 31 75
4 47 31 29 75
4 50 53 67 75
4 46 29 53 75
4 10 78 6 80
4 36 6 1 80
4 15 1 12 80
4 36 4 6 26
4 14 12 78 80
4 2 17 9 26
4 36 18 4 55
4 15 28 1 11
4 62 4 20 55
4 10 6 17 26
4 27 18 44 11
4 62 9 4 26
4 27 69 18 55
4 36 1 18 11
4 41 20 69 55
4 79 44 28 11
4 16 24 54 7
4 19 54 39 7
4 50 39 64 7
4 8 25 61 3
4 60 64 24 7
4 79 28 67 13
4 19 51 61 49
4 8 61 0 49
4 15 51 28 13
4 19 39 51 13
4 50 67 39 13
4 19 61 54 3
4 14 0 12 49
4 5 35 25 3
4 15 12 51 49
4 16 54 35 3
CELL_TYPES 64
8
8
8
8
8
8
8
8
8
8
8
8
8
8
8
8
8
8
8
8
8
8
8
8
8
8
8
8
8
8
8
8
8
8
8
8
8
8
8
8
8
8
8
8
8
8
8
8
8
8
8
8
8
8
8
8
8
8
8
8
8
8
8
8
CELL_DATA 64
VECTORS vector_value float
-0.0672551 -0.730937 0
-0.197009 -2.06308 0
-0.423129 -1.94805 0
-0.040162 -0.257638 0
0.205234 -1.57459 0
0.272634 -0.935601 0
-0.0759095 -0.136649 0
0.152991 -1.30855 0
-0.493987 -1.01789 0
0.771958 -1.72144 0
-0.0215371 -0.168148 0
-0.0087182 -0.111918 0
-0.0385496 -0.338382 0
0.238806 -0.364598 0
-0.221908 -0.487354 0
-0.0959638 -0.233329 0
0.103892 -0.505202 0
0.150687 -1.33332 0
0.110129 -0.198644 0
0.115617 -1.13193 0
0.117349 -0.117428 0
-0.0556126 -0.346952 0
0.148428 -0.134615 0
0.103714 -0.677997 0
0.391368 -1.54989 0
0.623621 -1.09607 0
-0.129742 -1.22685 0
0.928045 -0.683471 0
-0.0808544 -0.445674 0
0.346614 -1.21969 0
-0.0374838 -0.332381 0
0.106888 -0.644659 0
0.0687105 -2.51645 0
-0.0106496 -0.873828 0
-0.785789 -1.27616 0
-0.00791321 -0.494597 0
-0.074743 -2.49723 0
0.00506706 -2.85883 0
-0.298877 -0.329287 0
-0.696456 -0.795621 0
-0.0376039 -0.166134 0
0.118468 -2.74322 0
-0.267513 -0.632016 0
-0.00135048 -0.220924 0
-0.429543 -1.1479 0
-0.45203 -0.789758 0
-0.19145 -0.962426 0
-0.288876 -0.297438 0
1.9776 -1.20701 0
0.402871 -0.753601 0
-0.0186611 -0.293713 0
0.686084 -1.34527 0
1.59901 -0.684457 0
-0.147744 -0.250215 0
0.0849373 -0.933003 0
0.94436 -3.83524 0
-0.110782 -0.215134 0
-0.128161 -0.183848 0
-0.0600296 -0.232347 0
1.76466 -2.91515 0
-0.726361 -3.81128 0
-0.091324 -0.583591 0
-0.507296 -0.76329 0
0.932476 -2.34808 0
