# vtk DataFile Version 2.0
Unstructured Grid by M++
ASCII
DATASET UNSTRUCTURED_GRID
POINTS 81 float
  1.000000   0.625000 0
  0.750000   0.375000 0
  1.000000   0.000000 0
  0.875000   0.875000 0
  0.750000   0.125000 0
  1.000000   1.000000 0
  0.875000   0.250000 0
  0.625000   0.875000 0
  1.000000   0.750000 0
  0.875000   0.000000 0
  1.000000   0.250000 0
  0.625000   0.375000 0
  0.875000   0.500000 0
  0.625000   0.625000 0
  1.000000   0.500000 0
  0.750000   0.500000 0
  0.750000   1.000000 0
  1.000000   0.125000 0
  0.625000   0.250000 0
  0.750000   0.750000 0
  0.625000   0.000000 0
  0.125000   0.375000 0
  0.000000   0.500000 0
  0.125000   0.625000 0
  0.625000   1.000000 0
  1.000000   0.875000 0
  0.875000   0.125000 0
  0.500000   0.250000 0
  0.625000   0.500000 0
  0.250000   0.625000 0
  0.000000   0.625000 0
  0.375000   0.500000 0
  0.375000   0.000000 0
  0.000000   0.125000 0
  0.125000   0.875000 0
  0.875000   1.000000 0
  0.750000   0.250000 0
  0.375000   0.375000 0
  0.250000   0.375000 0
  0.625000   0.750000 0
  0.125000   0.125000 0
  0.500000   0.000000 0
  0.250000   0.875000 0
  0.125000   0.500000 0
  0.500000   0.375000 0
  0.125000   0.000000 0
  0.250000   0.750000 0
  0.250000   0.500000 0
  0.000000   0.875000 0
  0.875000   0.625000 0
  0.500000   0.750000 0
  0.750000   0.625000 0
  0.250000   0.000000 0
  0.375000   0.750000 0
  0.750000   0.875000 0
  0.625000   0.125000 0
  0.250000   0.250000 0
  0.375000   1.000000 0
  0.375000   0.250000 0
  0.000000   0.375000 0
  0.500000   1.000000 0
  0.875000   0.750000 0
  0.750000   0.000000 0
  0.375000   0.125000 0
  0.500000   0.875000 0
  0.000000   0.000000 0
  0.125000   0.750000 0
  0.500000   0.625000 0
  0.125000   0.250000 0
  0.500000   0.125000 0
  0.250000   1.000000 0
  0.250000   0.125000 0
  0.000000   1.000000 0
  0.375000   0.875000 0
  0.000000   0.750000 0
  0.375000   0.625000 0
  0.000000   0.250000 0
  0.125000   1.000000 0
  1.000000   0.375000 0
  0.500000   0.500000 0
  0.875000   0.375000 0
CELLS 64 320
4 56 71 58 63
4 27 58 69 63
4 41 69 32 63
4 76 33 68 40
4 27 44 58 37
4 79 31 44 37
4 56 38 68 21
4 56 58 38 37
4 52 32 71 63
4 47 38 31 37
4 76 68 59 21
4 22 59 43 21
4 65 45 33 40
4 47 43 38 21
4 52 71 45 40
4 56 68 71 40
4 74 30 66 23
4 46 66 29 23
4 22 43 30 23
4 72 48 77 34
4 46 53 42 73
4 50 64 53 73
4 70 42 57 73
4 74 66 48 34
4 46 42 66 34
4 47 29 43 23
4 70 77 42 34
4 60 57 64 73
4 79 67 31 75
4 47 31 29 75
4 50 53 67 75
4 46 29 53 75
4 10 78 6 80
4 36 6 1 80
4 15 1 12 80
4 36 4 6 26
4 14 12 78 80
4 2 17 9 26
4 36 18 4 55
4 15 28 1 11
4 62 4 20 55
4 10 6 17 26
4 27 18 44 11
4 62 9 4 26
4 27 69 18 55
4 36 1 18 11
4 41 20 69 55
4 79 44 28 11
4 16 24 54 7
4 19 54 39 7
4 50 39 64 7
4 8 25 61 3
4 60 64 24 7
4 79 28 67 13
4 19 51 61 49
4 8 61 0 49
4 15 51 28 13
4 19 39 51 13
4 50 67 39 13
4 19 61 54 3
4 14 0 12 49
4 5 35 25 3
4 15 12 51 49
4 16 54 35 3
CELL_TYPES 64
8
8
8
8
8
8
8
8
8
8
8
8
8
8
8
8
8
8
8
8
8
8
8
8
8
8
8
8
8
8
8
8
8
8
8
8
8
8
8
8
8
8
8
8
8
8
8
8
8
8
8
8
8
8
8
8
8
8
8
8
8
8
8
8
CELL_DATA 64
VECTORS vector_value float
-0.166835 -0.321884 0
-0.351637 -1.47456 0
-0.0341928 -0.678216 0
-0.314407 -2.10533 0
-0.0392346 -0.146306 0
0.0552697 -0.108871 0
-0.410268 -2.3131 0
0.661812 -1.13572 0
-0.407565 -0.676347 0
0.000593221 -0.0855711 0
-0.157578 -1.07571 0
0.521162 -1.58217 0
0.229495 -1.6259 0
1.0896 -2.88154 0
0.125419 -2.37215 0
-0.188841 -1.59006 0
-0.28381 -1.66895 0
-0.9344 -1.56738 0
-0.0638874 -2.74485 0
-0.0467183 -0.893977 0
-0.213299 -0.418316 0
-0.292966 -0.648777 0
-0.365195 -0.312928 0
-0.158958 -1.27917 0
-0.177849 -1.50527 0
-0.336835 -1.32012 0
-0.457895 -1.71672 0
0.123457 -0.823269 0
0.00609307 -0.0619782 0
-0.294255 -0.565811 0
-0.985996 -0.387559 0
-1.11941 -0.725779 0
0.0703784 -1.06459 0
-0.0931926 -0.374166 0
-0.311981 -1.27097 0
-0.00173556 -0.0267473 0
0.124059 -0.992728 0
-0.0108756 -1.1643 0
-0.0110067 -0.256244 0
-0.274604 -0.673642 0
2.51002e-05 -0.0983191 0
0.00167535 -1.25626 0
-1.05491 -1.12917 0
-0.00610058 -0.19599 0
-0.0301901 -0.968916 0
-1.05739 -0.761239 0
0.0122399 -1.18878 0
-0.00697536 -0.404515 0
-0.157419 -1.02284 0
-0.174337 -0.831364 0
-0.202879 -1.45349 0
-0.0457095 -0.528841 0
0.029884 -1.33082 0
0.00512021 -0.348274 0
0.0211366 -1.30406 0
-0.00315015 -0.456568 0
0.227603 -0.446807 0
0.356578 -0.798419 0
-0.197255 -1.09128 0
-0.0924473 -1.33477 0
0.163089 -0.644931 0
-0.219129 -0.642032 0
0.526389 -1.86723 0
-0.28079 -1.25741 0
