# vtk DataFile Version 2.0
Unstructured Grid by M++
ASCII
DATASET UNSTRUCTURED_GRID
POINTS 81 float
  1.000000   0.625000 0
  0.750000   0.375000 0
  1.000000   0.000000 0
  0.875000   0.875000 0
  0.750000   0.125000 0
  1.000000   1.000000 0
  0.875000   0.250000 0
  0.625000   0.875000 0
  1.000000   0.750000 0
  0.875000   0.000000 0
  1.000000   0.250000 0
  0.625000   0.375000 0
  0.875000   0.500000 0
  0.625000   0.625000 0
  1.000000   0.500000 0
  0.750000   0.500000 0
  0.750000   1.000000 0
  1.000000   0.125000 0
  0.625000   0.250000 0
  0.750000   0.750000 0
  0.625000   0.000000 0
  0.125000   0.375000 0
  0.000000   0.500000 0
  0.125000   0.625000 0
  0.625000   1.000000 0
  1.000000   0.875000 0
  0.875000   0.125000 0
  0.500000   0.250000 0
  0.625000   0.500000 0
  0.250000   0.625000 0
  0.000000   0.625000 0
  0.375000   0.500000 0
  0.375000   0.000000 0
  0.000000   0.125000 0
  0.125000   0.875000 0
  0.875000   1.000000 0
  0.750000   0.250000 0
  0.375000   0.375000 0
  0.250000   0.375000 0
  0.625000   0.750000 0
  0.125000   0.125000 0
  0.500000   0.000000 0
  0.250000   0.875000 0
  0.125000   0.500000 0
  0.500000   0.375000 0
  0.125000   0.000000 0
  0.250000   0.750000 0
  0.250000   0.500000 0
  0.000000   0.875000 0
  0.875000   0.625000 0
  0.500000   0.750000 0
  0.750000   0.625000 0
  0.250000   0.000000 0
  0.375000   0.750000 0
  0.750000   0.875000 0
  0.625000   0.125000 0
  0.250000   0.250000 0
  0.375000   1.000000 0
  0.375000   0.250000 0
  0.000000   0.375000 0
  0.500000   1.000000 0
  0.875000   0.750000 0
  0.750000   0.000000 0
  0.375000   0.125000 0
  0.500000   0.875000 0
  0.000000   0.000000 0
  0.125000   0.750000 0
  0.500000   0.625000 0
  0.125000   0.250000 0
  0.500000   0.125000 0
  0.250000   1.000000 0
  0.250000   0.125000 0
  0.000000   1.000000 0
  0.375000   0.875000 0
  0.000000   0.750000 0
  0.375000   0.625000 0
  0.000000   0.250000 0
  0.125000   1.000000 0
  1.000000   0.375000 0
  0.500000   0.500000 0
  0.875000   0.375000 0
CELLS 64 320
4 56 71 58 63
4 27 58 69 63
4 41 69 32 63
4 76 33 68 40
4 27 44 58 37
4 79 31 44 37
4 56 38 68 21
4 56 58 38 37
4 52 32 71 63
4 47 38 31 37
4 76 68 59 21
4 22 59 43 21
4 65 45 33 40
4 47 43 38 21
4 52 71 45 40
4 56 68 71 40
4 74 30 66 23
4 46 66 29 23
4 22 43 30 23
4 72 48 77 34
4 46 53 42 73
4 50 64 53 73
4 70 42 57 73
4 74 66 48 34
4 46 42 66 34
4 47 29 43 23
4 70 77 42 34
4 60 57 64 73
4 79 67 31 75
4 47 31 29 75
4 50 53 67 75
4 46 29 53 75
4 10 78 6 80
4 36 6 1 80
4 15 1 12 80
4 36 4 6 26
4 14 12 78 80
4 2 17 9 26
4 36 18 4 55
4 15 28 1 11
4 62 4 20 55
4 10 6 17 26
4 27 18 44 11
4 62 9 4 26
4 27 69 18 55
4 36 1 18 11
4 41 20 69 55
4 79 44 28 11
4 16 24 54 7
4 19 54 39 7
4 50 39 64 7
4 8 25 61 3
4 60 64 24 7
4 79 28 67 13
4 19 51 61 49
4 8 61 0 49
4 15 51 28 13
4 19 39 51 13
4 50 67 39 13
4 19 61 54 3
4 14 0 12 49
4 5 35 25 3
4 15 12 51 49
4 16 54 35 3
CELL_TYPES 64
8
8
8
8
8
8
8
8
8
8
8
8
8
8
8
8
8
8
8
8
8
8
8
8
8
8
8
8
8
8
8
8
8
8
8
8
8
8
8
8
8
8
8
8
8
8
8
8
8
8
8
8
8
8
8
8
8
8
8
8
8
8
8
8
CELL_DATA 64
VECTORS vector_value float
-0.0400392 -0.333754 0
0.0213652 -0.524657 0
-0.0894422 -0.419806 0
0.174023 -3.59914 0
0.209834 -0.385394 0
0.364945 -1.28247 0
-0.455642 -0.534714 0
-0.0504654 -0.923783 0
-0.145127 -0.418324 0
-0.940909 -1.96352 0
-0.541642 -3.30629 0
-0.84539 -1.71831 0
0.251938 -2.82605 0
-1.82975 -1.13711 0
0.367695 -1.43694 0
-0.0488883 -0.551803 0
0.0344997 -0.692006 0
-0.081241 -0.950953 0
-0.070163 -0.702578 0
-0.00998295 -1.10666 0
-0.312412 -2.17912 0
-0.623591 -0.335599 0
0.0558365 -1.25609 0
0.135684 -0.808324 0
0.27541 -0.725017 0
-0.303394 -1.16644 0
0.0925849 -0.709278 0
-0.0374534 -0.628139 0
-0.501522 -1.71025 0
-0.287402 -2.49554 0
-0.750251 -0.964758 0
-0.275813 -2.58916 0
-0.119967 -0.435516 0
0.00270827 -0.0477146 0
0.100759 -0.10374 0
0.0171323 -0.50667 0
0.03924 -0.373452 0
-0.02229 -0.0820405 0
1.21652 -1.35735 0
-0.0245393 -0.271907 0
0.206572 -0.735633 0
-0.0307354 -0.151486 0
0.746256 -1.95539 0
0.559454 -1.71067 0
0.464119 -0.975138 0
0.148202 -0.411194 0
0.0270376 -0.370542 0
0.0734463 -1.14949 0
-0.740778 -1.28307 0
-0.374058 -2.00207 0
-0.624215 -1.4652 0
-0.0496365 -0.0785379 0
-0.131575 -1.72864 0
-0.551952 -0.76338 0
0.107524 -0.240804 0
0.00556939 -0.0542784 0
-0.157814 -0.813372 0
-0.579148 -1.85794 0
-0.784993 -0.6501 0
-0.371044 -0.406138 0
0.136365 -0.29281 0
-0.42124 -0.435342 0
0.0570285 -0.0556278 0
-0.942943 -0.852788 0
