# vtk DataFile Version 2.0
Unstructured Grid by M++
ASCII
DATASET UNSTRUCTURED_GRID
POINTS 16641 float
  0.703125   0.781250 0
  0.632812   0.828125 0
  0.640625   0.835938 0
  0.640625   0.804688 0
  0.648438   0.812500 0
  0.625000   0.820312 0
  0.789062   0.929688 0
  0.796875   0.937500 0
  0.664062   0.945312 0
  0.664062   0.953125 0
  0.664062   0.968750 0
  0.671875   0.960938 0
  0.679688   0.960938 0
  0.679688   0.968750 0
  0.671875   0.953125 0
  0.914062   0.945312 0
  0.914062   0.968750 0
  0.914062   0.960938 0
  0.921875   0.968750 0
  0.929688   0.960938 0
  0.921875   0.945312 0
  0.921875   0.953125 0
  0.929688   0.953125 0
  0.820312   0.898438 0
  0.750000   0.945312 0
  0.570312   0.898438 0
  0.578125   0.898438 0
  0.585938   0.898438 0
  0.523438   0.953125 0
  0.585938   0.890625 0
  0.585938   0.882812 0
  0.515625   0.945312 0
  0.523438   0.945312 0
  0.515625   0.937500 0
  0.570312   0.890625 0
  0.578125   0.890625 0
  0.578125   0.882812 0
  0.570312   0.882812 0
  0.507812   0.937500 0
  0.507812   0.929688 0
  0.976562   0.882812 0
  0.992188   0.898438 0
  0.984375   0.890625 0
  0.968750   0.820312 0
  0.976562   0.828125 0
  0.992188   0.812500 0
  1.000000   0.820312 0
  0.656250   0.960938 0
  0.648438   0.953125 0
  0.640625   0.945312 0
  0.882812   0.968750 0
  0.882812   0.960938 0
  0.890625   0.968750 0
  0.906250   0.960938 0
  0.898438   0.953125 0
  0.906250   0.953125 0
  0.898438   0.945312 0
  0.906250   0.945312 0
  0.882812   0.953125 0
  0.890625   0.953125 0
  0.890625   0.945312 0
  0.882812   0.945312 0
  0.539062   0.695312 0
  0.539062   0.718750 0
  0.531250   0.710938 0
  0.554688   0.710938 0
  0.546875   0.703125 0
  0.570312   0.585938 0
  0.578125   0.585938 0
  0.585938   0.578125 0
  0.585938   0.570312 0
  0.570312   0.578125 0
  0.578125   0.570312 0
  0.757812   0.835938 0
  0.929688   0.968750 0
  0.960938   0.929688 0
  0.960938   0.921875 0
  0.953125   0.914062 0
  0.953125   0.921875 0
  0.601562   0.679688 0
  0.835938   0.976562 0
  0.898438   0.718750 0
  0.835938   0.968750 0
  0.593750   0.906250 0
  0.664062   0.914062 0
  0.601562   0.914062 0
  0.609375   0.921875 0
  0.679688   0.929688 0
  0.679688   0.937500 0
  0.796875   0.968750 0
  0.726562   0.945312 0
  0.742188   0.945312 0
  0.726562   0.890625 0
  0.734375   0.898438 0
  0.742188   0.960938 0
  0.734375   0.960938 0
  0.734375   0.953125 0
  0.726562   0.953125 0
  0.523438   0.820312 0
  0.523438   0.828125 0
  0.640625   0.953125 0
  0.984375   0.664062 0
  0.632812   0.953125 0
  0.921875   0.914062 0
  0.914062   0.906250 0
  0.671875   0.929688 0
  0.671875   0.921875 0
  0.664062   0.921875 0
  0.554688   0.945312 0
  0.914062   0.937500 0
  0.718750   0.882812 0
  0.507812   0.867188 0
  0.570312   0.617188 0
  0.742188   0.968750 0
  0.726562   0.976562 0
  0.726562   0.984375 0
  0.562500   0.898438 0
  0.734375   0.984375 0
  0.734375   0.992188 0
  0.742188   0.992188 0
  0.742188   1.000000 0
  0.742188   0.937500 0
  0.734375   0.937500 0
  0.734375   0.929688 0
  0.726562   0.921875 0
  0.726562   0.929688 0
  0.679688   0.843750 0
  0.921875   0.960938 0
  0.914062   0.953125 0
  0.687500   0.851562 0
  0.562500   0.984375 0
  0.554688   0.984375 0
  0.632812   0.937500 0
  0.625000   0.929688 0
  0.554688   0.921875 0
  0.585938   0.984375 0
  0.648438   0.929688 0
  0.656250   0.937500 0
  0.578125   0.914062 0
  0.585938   0.921875 0
  0.578125   0.921875 0
  0.906250   0.929688 0
  0.898438   0.929688 0
  0.898438   0.937500 0
  0.906250   0.937500 0
  0.554688   0.679688 0
  0.554688   0.687500 0
  0.554688   0.976562 0
  0.570312   0.914062 0
  0.570312   0.906250 0
  0.562500   0.906250 0
  0.531250   0.664062 0
  0.539062   0.664062 0
  0.804688   0.976562 0
  0.890625   0.937500 0
  0.890625   0.929688 0
  0.882812   0.921875 0
  0.875000   0.921875 0
  0.882812   0.937500 0
  0.882812   0.929688 0
  0.875000   0.929688 0
  0.546875   0.679688 0
  0.539062   0.671875 0
  0.531250   0.687500 0
  0.539062   0.617188 0
  0.546875   0.671875 0
  0.554688   0.601562 0
  0.742188   0.906250 0
  0.570312   0.968750 0
  0.578125   0.976562 0
  0.585938   0.976562 0
  0.578125   0.968750 0
  0.640625   0.921875 0
  0.828125   0.968750 0
  0.539062   0.929688 0
  0.890625   0.921875 0
  0.898438   0.921875 0
  0.906250   0.921875 0
  0.945312   1.000000 0
  0.945312   0.992188 0
  0.937500   0.992188 0
  0.953125   0.992188 0
  0.953125   1.000000 0
  0.960938   0.992188 0
  0.960938   1.000000 0
  0.710938   0.992188 0
  0.710938   1.000000 0
  0.718750   1.000000 0
  0.960938   0.984375 0
  0.960938   0.976562 0
  0.539062   0.703125 0
  0.718750   0.976562 0
  0.539062   0.875000 0
  0.695312   0.859375 0
  0.703125   0.867188 0
  0.937500   0.984375 0
  0.945312   0.984375 0
  0.953125   0.984375 0
  0.953125   0.976562 0
  0.937500   0.976562 0
  0.945312   0.976562 0
  0.687500   0.976562 0
  0.695312   0.976562 0
  0.882812   0.562500 0
  0.703125   1.000000 0
  0.703125   0.992188 0
  0.703125   0.984375 0
  0.695312   0.984375 0
  0.523438   0.835938 0
  0.867188   0.546875 0
  0.687500   0.984375 0
  0.695312   1.000000 0
  0.687500   0.992188 0
  0.687500   1.000000 0
  0.585938   0.648438 0
  0.523438   0.898438 0
  0.554688   0.898438 0
  0.835938   0.914062 0
  0.539062   0.882812 0
  0.882812   0.593750 0
  0.750000   0.921875 0
  0.820312   0.937500 0
  0.820312   0.929688 0
  0.914062   0.921875 0
  0.750000   0.773438 0
  0.914062   0.929688 0
  0.632812   0.960938 0
  0.843750   0.976562 0
  0.812500   0.523438 0
  0.843750   0.984375 0
  0.523438   0.632812 0
  0.703125   0.812500 0
  0.648438   0.960938 0
  0.992188   0.671875 0
  0.640625   0.960938 0
  0.929688   0.921875 0
  0.921875   0.921875 0
  0.757812   0.781250 0
  0.921875   0.929688 0
  0.921875   0.937500 0
  0.937500   0.929688 0
  0.929688   0.929688 0
  0.765625   0.757812 0
  0.695312   0.804688 0
  0.812500   0.953125 0
  0.648438   0.898438 0
  0.656250   0.906250 0
  0.820312   1.000000 0
  0.820312   0.992188 0
  0.820312   0.960938 0
  0.906250   0.898438 0
  0.554688   0.648438 0
  0.554688   0.656250 0
  0.578125   0.945312 0
  0.882812   0.734375 0
  0.820312   0.984375 0
  0.960938   0.640625 0
  0.828125   0.937500 0
  0.898438   0.890625 0
  0.554688   0.640625 0
  0.554688   0.632812 0
  0.570312   0.937500 0
  0.562500   0.929688 0
  0.632812   0.882812 0
  0.867188   0.718750 0
  0.875000   0.726562 0
  0.804688   0.968750 0
  0.812500   0.976562 0
  0.562500   0.875000 0
  0.804688   0.945312 0
  0.812500   0.945312 0
  0.953125   0.632812 0
  0.945312   0.625000 0
  0.890625   0.882812 0
  0.882812   0.875000 0
  0.546875   0.632812 0
  0.531250   0.632812 0
  0.539062   0.632812 0
  0.539062   0.625000 0
  0.546875   0.656250 0
  0.546875   0.648438 0
  0.546875   0.640625 0
  0.539062   0.640625 0
  0.531250   0.640625 0
  0.539062   0.656250 0
  0.539062   0.648438 0
  0.531250   0.648438 0
  0.531250   0.656250 0
  0.843750   0.921875 0
  0.835938   0.921875 0
  0.843750   0.929688 0
  0.609375   0.890625 0
  0.851562   0.992188 0
  0.726562   0.835938 0
  0.585938   0.656250 0
  0.585938   0.664062 0
  0.523438   0.906250 0
  0.796875   0.960938 0
  0.789062   0.960938 0
  0.609375   0.648438 0
  0.601562   0.640625 0
  0.601562   0.648438 0
  0.593750   0.648438 0
  0.546875   0.898438 0
  0.539062   0.890625 0
  0.750000   0.914062 0
  0.539062   0.898438 0
  0.531250   0.898438 0
  0.828125   0.976562 0
  0.664062   0.828125 0
  0.726562   0.578125 0
  0.601562   0.882812 0
  0.593750   0.875000 0
  0.734375   0.585938 0
  0.890625   0.742188 0
  0.742188   0.593750 0
  0.671875   0.835938 0
  0.835938   0.984375 0
  0.828125   0.984375 0
  0.828125   0.992188 0
  0.828125   1.000000 0
  0.843750   0.992188 0
  0.835938   0.992188 0
  0.835938   1.000000 0
  0.843750   1.000000 0
  0.570312   0.742188 0
  0.562500   0.742188 0
  0.507812   1.000000 0
  0.546875   0.664062 0
  0.898438   0.804688 0
  0.554688   0.671875 0
  0.890625   0.960938 0
  0.554688   0.664062 0
  0.757812   0.960938 0
  0.507812   0.960938 0
  0.578125   0.648438 0
  0.570312   0.648438 0
  0.562500   0.648438 0
  0.515625   0.898438 0
  0.507812   0.898438 0
  0.523438   0.765625 0
  0.585938   0.515625 0
  0.875000   0.960938 0
  0.898438   0.960938 0
  0.734375   0.812500 0
  0.898438   0.968750 0
  0.750000   0.828125 0
  0.906250   0.968750 0
  0.742188   0.820312 0
  0.507812   0.992188 0
  0.851562   0.703125 0
  0.789062   0.953125 0
  0.867188   0.773438 0
  0.710938   0.593750 0
  0.812500   0.984375 0
  0.812500   0.992188 0
  0.804688   1.000000 0
  0.570312   0.960938 0
  0.562500   0.960938 0
  0.562500   0.953125 0
  0.554688   0.953125 0
  0.640625   0.890625 0
  0.617188   0.742188 0
  0.796875   1.000000 0
  0.796875   0.992188 0
  0.789062   0.992188 0
  0.609375   0.742188 0
  0.687500   0.570312 0
  0.789062   0.984375 0
  0.601562   0.734375 0
  0.593750   0.726562 0
  0.601562   0.726562 0
  0.539062   0.976562 0
  0.867188   0.804688 0
  0.750000   0.953125 0
  0.757812   0.953125 0
  0.570312   0.703125 0
  0.562500   0.695312 0
  0.570312   0.695312 0
  0.687500   0.945312 0
  0.695312   0.945312 0
  0.773438   0.945312 0
  0.781250   0.945312 0
  0.695312   0.921875 0
  0.703125   0.921875 0
  0.585938   0.640625 0
  0.593750   0.640625 0
  0.585938   0.632812 0
  0.593750   0.632812 0
  0.523438   0.890625 0
  0.531250   0.890625 0
  0.523438   0.882812 0
  0.531250   0.882812 0
  0.781250   0.953125 0
  0.765625   0.960938 0
  0.578125   0.703125 0
  0.578125   0.710938 0
  0.585938   0.710938 0
  0.585938   0.718750 0
  0.851562   0.789062 0
  0.710938   0.960938 0
  0.710938   0.968750 0
  0.718750   0.968750 0
  0.562500   0.734375 0
  0.570312   0.734375 0
  0.570312   0.726562 0
  0.562500   0.718750 0
  0.843750   0.695312 0
  0.507812   0.984375 0
  0.578125   0.734375 0
  0.578125   0.742188 0
  0.585938   0.742188 0
[...]
CELL_DATA 16384
VECTORS vector_value float
-0.0669427 -0.643121 0
-0.0626273 -0.629479 0
-0.0669373 -0.640048 0
-0.065166 -0.622411 0
-0.0689119 -0.644005 0
-0.0639639 -0.627008 0
-0.0629391 -0.647273 0
-0.0578872 -0.618975 0
-0.0495019 -0.696739 0
-0.0583704 -0.666252 0
-0.0566288 -0.668742 0
-0.0386192 -0.715455 0
0.122485 -0.339311 0
0.116018 -0.336975 0
0.118844 -0.340171 0
0.12265 -0.343547 0
0.0901847 -0.325186 0
0.0997847 -0.330543 0
0.0984932 -0.334028 0
0.0863076 -0.349809 0
0.0964798 -0.346143 0
0.0964229 -0.34344 0
0.090472 -0.339257 0
0.0829839 -0.345558 0
0.120448 -0.342989 0
0.111614 -0.342617 0
0.110419 -0.342886 0
0.119857 -0.348061 0
0.00745962 -0.406962 0
0.01865 -0.365678 0
0.030968 -0.343793 0
0.0221418 -0.403497 0
-0.0028537 -0.383739 0
0.00670242 -0.369684 0
-0.00445169 -0.420362 0
-0.022137 -0.436782 0
0.0206535 -0.298592 0
0.0157832 -0.317067 0
0.0104767 -0.321862 0
0.0142632 -0.299447 0
0.0371395 -0.312467 0
0.025524 -0.303394 0
0.0301168 -0.297791 0
0.0333143 -0.28956 0
0.0378195 -0.406689 0
0.0285776 -0.412983 0
0.0228962 -0.422853 0
0.0336069 -0.421598 0
0.0399716 -0.415244 0
0.0678803 -0.37866 0
0.0354103 -0.475203 0
0.0375051 -0.436625 0
0.0553745 -0.437002 0
0.0429689 -0.469714 0
0.0142428 -0.442933 0
0.0258783 -0.446193 0
0.0205155 -0.475231 0
0.00372633 -0.48964 0
0.167949 -0.351339 0
0.169137 -0.356903 0
0.135419 -0.358009 0
0.1438 -0.356054 0
0.191166 -0.355553 0
0.178833 -0.349337 0
0.186408 -0.356718 0
0.187543 -0.343204 0
0.176814 -0.425195 0
0.1795 -0.388394 0
0.192622 -0.388807 0
0.188808 -0.421543 0
0.134021 -0.393901 0
0.164263 -0.388026 0
0.161685 -0.436217 0
0.136236 -0.432519 0
0.0836269 -0.333728 0
0.0695841 -0.32046 0
0.0636282 -0.324916 0
0.0721336 -0.323526 0
0.0642541 -0.366239 0
0.0753306 -0.338862 0
0.0849729 -0.335327 0
0.0759776 -0.351431 0
0.0453888 -0.334374 0
0.0637747 -0.337091 0
0.0557387 -0.391503 0
0.0422264 -0.403772 0
0.0521929 -0.318274 0
0.0598199 -0.311363 0
0.0477828 -0.312566 0
0.0403525 -0.300869 0
0.0335003 -0.474373 0
0.0451114 -0.475968 0
0.0490552 -0.477389 0
-0.190718 -0.860143 0
-0.15948 -0.94559 0
-0.135254 -0.868527 0
-0.175334 -0.87435 0
0.0653528 -0.516825 0
0.0323598 -0.468189 0
0.0375819 -0.487602 0
-0.168592 -1.05203 0
-0.163061 -1.00526 0
-0.203964 -0.870872 0
-0.199024 -0.923119 0
0.0887777 -0.563201 0
0.0686768 -0.551718 0
0.100321 -0.565542 0
-0.093529 -0.935399 0
-0.126852 -1.01722 0
-0.148865 -1.01402 0
-0.106589 -0.993586 0
0.0527255 -0.531201 0
-0.083332 -0.916786 0
-0.0966657 -0.966072 0
-0.0603236 -0.914519 0
-0.0453048 -0.889149 0
0.204021 -0.384911 0
0.154072 -0.381446 0
0.18709 -0.407492 0
0.184489 -0.353132 0
0.18811 -0.373895 0
0.196468 -0.358517 0
0.12684 -0.348604 0
0.160583 -0.361351 0
0.170147 -0.359701 0
0.137857 -0.351101 0
0.144839 -0.355469 0
0.117336 -0.337216 0
0.120148 -0.349174 0
-0.0710716 -0.608568 0
-0.0937732 -0.591278 0
-0.105938 -0.61357 0
-0.0788158 -0.638715 0
-0.0838728 -0.557237 0
-0.0827503 -0.557703 0
-0.0732602 -0.609368 0
-0.0766585 -0.597837 0
-0.124564 -0.613838 0
-0.102754 -0.587226 0
-0.086653 -0.56283 0
-0.127749 -0.621302 0
-0.115717 -0.596642 0
-0.138148 -0.647667 0
-0.145411 -0.661654 0
-0.121498 -0.820563 0
-0.152479 -0.809169 0
-0.153776 -0.850576 0
-0.143463 -0.74123 0
-0.143616 -0.776546 0
-0.112794 -0.789015 0
-0.113813 -0.763841 0
-0.193533 -0.738307 0
-0.172934 -0.74035 0
-0.173878 -0.72078 0
-0.18993 -0.720569 0
-0.165302 -0.777406 0
-0.184026 -0.774709 0
-0.191273 -0.731636 0
0.00268872 -0.828643 0
0.381538 -0.526183 0
0.394102 -0.553237 0
0.402343 -0.585906 0
0.00596484 -0.842622 0
-0.0126834 -0.883062 0
0.0124143 -0.805947 0
0.342377 -0.469487 0
0.39588 -0.571033 0
0.378086 -0.545263 0
-0.00893369 -0.92695 0
0.311604 -0.431305 0
0.343694 -0.463335 0
0.300324 -0.41473 0
-0.0679615 -0.942082 0
-0.0578827 -1.00548 0
-0.0908554 -1.03341 0
0.35503 -0.496685 0
-0.0667833 -0.994535 0
-0.0523228 -0.896422 0
-0.038015 -0.900839 0
-0.0551627 -0.966867 0
-0.0838468 -0.987439 0
-0.0693209 -0.91768 0
-0.104058 -1.01435 0
-0.126711 -1.03463 0
0.00188746 -0.818275 0
-0.0216613 -0.851825 0
-0.032584 -0.896171 0
-0.00713737 -0.817566 0
-0.031181 -0.777846 0
-0.0308864 -0.798991 0
-0.00605076 -0.819481 0
-0.0138545 -0.794036 0
0.00173148 -1.10274 0
0.00378683 -0.965032 0
0.0907614 -0.433997 0
0.0892626 -0.432569 0
0.0811168 -0.375624 0
0.0833054 -0.390078 0
0.0442114 -1.26263 0
0.0557876 -1.29841 0
0.0690491 -1.40436 0
0.113922 -0.45628 0
0.101442 -0.455598 0
0.0971782 -0.465602 0
0.108047 -0.479357 0
-0.0449194 -1.36358 0
0.0944754 -0.424472 0
0.0972457 -0.434999 0
0.112464 -0.453182 0
-0.0397897 -0.993194 0
-0.0286918 -1.10138 0
-0.0840118 -1.02323 0
-0.00643849 -0.348719 0
-0.0212128 -0.393033 0
-0.0110273 -0.365796 0
0.0877841 -0.388321 0
0.0837863 -0.416421 0
0.0900495 -0.41392 0
0.0928664 -0.401094 0
-0.174556 -1.00727 0
-0.180397 -0.990128 0
-0.191417 -0.969813 0
0.0316429 -0.379435 0
0.0473903 -0.394552 0
-0.152326 -1.13182 0
0.0764459 -0.385925 0
0.0727259 -0.377633 0
0.0840758 -0.375401 0
-0.117359 -0.958117 0
-0.0845884 -1.03017 0
-0.0667578 -1.00896 0
0.0483225 -0.35941 0
0.028572 -0.388459 0
-0.208962 -0.933755 0
0.0213362 -0.363911 0
0.0334864 -0.354481 0
0.0156087 -0.345859 0
0.00219616 -0.351736 0
0.00600799 -0.747658 0
-0.00340714 -0.768149 0
-0.00173357 -0.757936 0
0.00347915 -0.774794 0
0.0151646 -0.72684 0
0.00349663 -0.841971 0
0.0197619 -0.841909 0
0.0218073 -0.947252 0
-0.0656039 -0.971362 0
-0.224786 -0.863329 0
-0.245815 -0.925651 0
-0.248777 -0.876086 0
-0.229273 -0.900572 0
-0.224268 -0.867965 0
-0.232125 -1.00301 0
-0.230478 -1.00252 0
-0.226326 -1.00267 0
-0.252387 -0.975605 0
-0.234639 -0.948431 0
-0.243649 -0.926532 0
0.0541681 -0.358338 0
0.0697828 -0.374146 0
0.0867576 -0.358031 0
0.0327298 -0.371101 0
0.040566 -0.335059 0
0.0311605 -0.33467 0
0.0405901 -0.413093 0
0.0434432 -0.368781 0
0.0471617 -0.399899 0
0.0443103 -0.387354 0
-0.0134971 -0.591529 0
-0.0139694 -0.621464 0
-0.00265987 -0.612715 0
-0.000747708 -0.616076 0
-0.0621653 -0.644697 0
-0.036437 -0.61797 0
-0.0367245 -0.598096 0
-0.0591727 -0.615945 0
-0.051886 -0.68085 0
-0.0374872 -0.655883 0
-0.0652437 -0.658992 0
-0.077328 -0.696272 0
-0.00578959 -0.628583 0
-0.0161288 -0.62317 0
-0.0249996 -0.647912 0
-0.00431823 -0.633246 0
0.0782405 -0.747963 0
0.0857791 -0.742491 0
0.0787865 -0.732014 0
0.062766 -0.781856 0
-0.0296081 -0.801361 0
-0.0328047 -0.716464 0
0.364168 -0.605854 0
-0.0922334 -0.756168 0
0.327873 -0.528562 0
-0.0234607 -0.533052 0
0.357896 -0.571011 0
-0.00185864 -0.523217 0
-0.0809745 -0.709314 0
0.423498 -0.639942 0
-0.0391271 -0.647895 0
0.400556 -0.623295 0
-0.0613244 -0.679339 0
0.395203 -0.622848 0
-0.0498049 -0.869099 0
0.032811 -0.358013 0
0.0263229 -0.359963 0
0.00507396 -0.334126 0
-0.173868 -1.05105 0
-0.0382513 -0.529796 0
0.337045 -0.561395 0
0.106152 -0.346672 0
0.304396 -0.561944 0
0.101801 -0.360306 0
0.305467 -0.597956 0
-0.100671 -0.594105 0
0.0192423 -0.902017 0
0.314934 -0.574273 0
0.108003 -0.340392 0
0.261541 -0.449205 0
0.0884576 -0.377306 0
0.243343 -0.50533 0
0.083891 -0.37331 0
0.269721 -0.489718 0
0.0936106 -0.382609 0
-0.0686005 -1.12562 0
0.303471 -0.428331 0
0.0641731 -0.400703 0
-0.0588881 -1.00792 0
-0.0758948 -1.04275 0
-0.049955 -0.981353 0
-0.17103 -0.632243 0
0.179674 -0.388846 0
0.0913655 -0.466818 0
-0.00226287 -1.02261 0
-0.0513318 -0.716525 0
-0.0167689 -0.948524 0
0.124094 -0.344079 0
-0.0609702 -0.686159 0
0.27428 -0.408264 0
0.0747553 -0.404557 0
-0.0246548 -0.935959 0
-0.0636062 -0.692337 0
-0.202086 -0.57531 0
-0.200793 -0.583918 0
-0.178785 -0.593909 0
-0.0332633 -1.15094 0
-0.222888 -0.551773 0
-0.0497455 -1.15119 0
0.167886 -0.388949 0
0.123592 -0.433087 0
-0.199856 -0.532541 0
0.161555 -0.456466 0
0.0524367 -0.777231 0
0.145916 -0.431499 0
0.0680934 -0.7363 0
0.00878083 -1.44642 0
-0.0434935 -0.617374 0
-0.22762 -0.96744 0
0.154872 -0.511534 0
0.160633 -0.516138 0
0.199551 -0.424809 0
0.125603 -0.44774 0
0.103365 -0.659437 0
-0.0470808 -0.622899 0
0.132695 -0.421222 0
0.0637468 -0.694611 0
0.11255 -0.40391 0
0.103843 -0.387691 0
0.0989692 -0.730057 0
-0.0307484 -0.965503 0
0.252276 -0.467273 0
-0.00816519 -0.855724 0
0.0138933 -0.826566 0
-0.189467 -0.933806 0
0.0517624 -0.748027 0
0.144247 -0.424284 0
0.0194027 -0.768697 0
0.122634 -0.408536 0
0.24001 -0.394829 0
0.213325 -0.351259 0
0.130423 -0.453916 0
0.00634785 -1.50023 0
-0.0610523 -0.654913 0
-0.238859 -0.967811 0
0.15071 -0.538771 0
0.13952 -0.513395 0
0.149189 -0.531963 0
0.188397 -0.53289 0
0.153743 -0.539707 0
0.161855 -0.495778 0
-0.0234186 -0.863009 0
-0.0222191 -0.97907 0
-0.233691 -0.977585 0
0.272561 -0.422071 0
-0.0260061 -0.963511 0
0.0905118 -0.45374 0
0.173621 -0.516076 0
0.140856 -0.53379 0
0.136803 -0.579137 0
0.144196 -0.504023 0
0.110042 -0.541968 0
0.151327 -0.433788 0
0.155726 -0.502517 0
0.192323 -0.460434 0
0.144503 -0.476899 0
0.112492 -0.704227 0
0.010456 -0.983596 0
0.113272 -0.696522 0
0.120319 -0.69072 0
0.0816047 -0.418852 0
0.116421 -0.704296 0
0.0629318 -0.533186 0
0.204229 -0.559395 0
0.218719 -0.542004 0
0.205988 -0.524178 0
0.0979637 -0.466984 0
0.118595 -0.703826 0
0.0703714 -0.406426 0
0.102859 -0.68713 0
0.106537 -0.66258 0
0.0317138 -0.379823 0
0.0798385 -0.673875 0
0.100387 -0.683241 0
0.00551935 -0.957338 0
0.10765 -0.710344 0
0.0949591 -0.699562 0
0.00878804 -0.860964 0
-0.0724768 -0.84461 0
-0.0312796 -0.73768 0
0.0737998 -0.535451 0
0.193654 -0.572017 0
0.162013 -0.573204 0
0.229461 -0.501913 0
-0.0599318 -1.13514 0
-0.0573708 -1.10009 0
0.218146 -0.493651 0
0.222812 -0.507652 0
0.130093 -0.469867 0
0.190104 -0.486833 0
0.170579 -0.518738 0
0.24266 -0.482678 0
0.103038 -0.408783 0
0.239982 -0.512582 0
0.103889 -0.41384 0
0.243496 -0.524909 0
0.243932 -0.537731 0
0.0871119 -0.380747 0
0.255814 -0.580556 0
0.210827 -0.586339 0
0.214459 -0.588021 0
0.0548411 -0.327647 0
0.0466217 -0.351194 0
0.123984 -0.627742 0
0.059758 -0.351552 0
0.114189 -0.623685 0
0.0672462 -0.348275 0
0.112518 -0.575932 0
-0.132529 -0.714866 0
-0.0548878 -0.994517 0
-0.129187 -0.727702 0
-0.0871855 -1.01017 0
-0.00974756 -0.718602 0
0.0268643 -0.290156 0
0.222684 -0.613059 0
-0.0587327 -0.574267 0
0.0242794 -0.296047 0
0.0534316 -0.353969 0
0.0406684 -0.350458 0
0.134504 -0.659006 0
0.0133478 -0.348692 0
0.15061 -0.686231 0
0.0264553 -0.34032 0
0.137937 -0.667805 0
0.0159366 -0.332136 0
0.0945157 -0.332676 0
-0.0873948 -1.13697 0
-0.00704694 -0.607677 0
-0.0543231 -0.663951 0
-0.0690835 -1.19122 0
-0.023779 -0.662462 0
-0.0908218 -1.14147 0
-0.0208827 -0.729188 0
-0.0908672 -1.10984 0
0.0237227 -0.342991 0
-0.0285815 -0.607051 0
-0.0482643 -0.600142 0
-0.0256913 -0.525549 0
-0.101897 -1.25068 0
0.0451473 -0.298877 0
0.216966 -0.633494 0
-0.167089 -0.754361 0
-0.144984 -0.918607 0
0.104214 -1.20059 0
-0.134296 -0.938467 0
0.190723 -1.12445 0
0.000143377 -0.436976 0
-0.103121 -0.907479 0
0.0807399 -0.700711 0
0.0799756 -0.715096 0
-0.0135341 -0.336319 0
0.0953513 -0.720979 0
-0.0151992 -0.358111 0
-0.176632 -0.921906 0
-0.16707 -0.904575 0
-0.150039 -0.890228 0
0.0188202 -0.791943 0
-0.0352657 -0.858153 0
-0.161563 -0.902004 0
0.149675 -0.703742 0
-0.00177479 -0.3622 0
0.111149 -0.688213 0
-0.0152424 -0.363239 0
0.135877 -0.724065 0
-0.0129113 -0.36664 0
0.0650187 -0.873011 0
0.23482 -0.578454 0
0.103405 -0.387174 0
0.266293 -0.544479 0
0.114908 -0.406509 0
0.0833658 -0.719727 0
-0.0659824 -0.961921 0
0.103501 -0.72955 0
-0.117823 -1.00232 0
0.115857 -0.749884 0
-0.0869035 -0.940591 0
0.187655 -0.618036 0
0.101673 -0.414434 0
0.169517 -0.682011 0
0.101194 -0.429839 0
0.0499562 -0.926752 0
-0.000607053 -0.938872 0
-0.194524 -0.690632 0
-0.130215 -1.01729 0
-0.0131105 -0.728516 0
0.215157 -0.57718 0
0.141022 -0.498871 0
0.207435 -0.553248 0
0.161214 -0.472541 0
0.00591509 -0.968614 0
0.0250027 -0.959431 0
0.0106922 -0.971799 0
0.0322157 -0.99148 0
0.0370754 -0.962288 0
-0.208323 -0.637788 0
-0.00178499 -0.629694 0
-0.243279 -0.709939 0
0.181288 -0.571464 0
0.162077 -0.554672 0
-0.00592358 -1.10485 0
-0.0170716 -0.728618 0
0.0898478 -0.668503 0
0.0141036 -0.959234 0
0.342557 -0.492774 0
-0.0502891 -1.12383 0
-0.23802 -0.887305 0
-0.0448696 -1.02576 0
-0.228158 -0.920331 0
-0.0402706 -1.01732 0
-0.0756716 -1.10505 0
-0.207305 -0.877659 0
0.111694 -0.669762 0
0.104259 -0.400314 0
0.0790559 -0.601026 0
0.0933941 -0.697671 0
0.0150434 -1.02093 0
0.119634 -0.700129 0
0.199684 -0.539457 0
0.125159 -0.502616 0
-0.199697 -0.670404 0
-0.0900265 -1.09419 0
-0.00675431 -0.696745 0
-0.176358 -0.626737 0
-0.0757248 -1.06184 0
-0.236888 -0.695595 0
-0.235846 -0.69094 0
-0.250235 -0.732393 0
-0.132616 -1.06732 0
0.011085 -0.74851 0
-0.0625509 -0.629793 0
-0.0615163 -0.652006 0
-0.0770353 -1.13587 0
0.254391 -0.61854 0
0.0251752 -0.393215 0
0.00848255 -0.389786 0
0.00880297 -0.414981 0
0.111095 -0.378961 0
0.138836 -0.490785 0
0.124256 -0.471991 0
0.130508 -0.722102 0
-0.140488 -0.775323 0
0.0854111 -0.68613 0
-0.172382 -0.82856 0
0.350992 -0.580881 0
-0.140281 -0.703214 0
0.303978 -0.600804 0
0.0114168 -1.56518 0
0.153393 -0.722402 0
0.154283 -0.415749 0
0.145108 -0.728552 0
-0.122753 -0.776604 0
0.171724 -0.39541 0
0.200593 -0.42307 0
0.286304 -0.58601 0
0.328749 -0.586496 0
0.309382 -0.642149 0
0.142648 -0.714652 0
-0.0863011 -0.876573 0
0.253192 -0.440319 0
0.0956283 -0.405343 0
0.177513 -0.504346 0
0.366541 -0.588892 0
-0.163922 -0.70143 0
0.291873 -0.437293 0
-0.0178917 -1.03801 0
-0.239756 -0.939639 0
0.323016 -0.464635 0
-0.0237513 -1.12512 0
-0.018351 -1.11116 0
0.123987 -0.648688 0
0.106462 -0.42194 0
0.0908659 -0.573196 0
0.129862 -0.619066 0
0.0206402 -0.99705 0
-0.256832 -0.763666 0
-0.127232 -1.00601 0
0.0165533 -0.781754 0
0.194602 -0.494633 0
-0.0339396 -0.536383 0
0.200364 -0.498394 0
0.204802 -0.538008 0
0.129796 -0.645227 0
-0.0127063 -0.639305 0
-0.107984 -0.43161 0
0.113329 -0.639158 0
0.120487 -0.461713 0
-0.12777 -0.448453 0
-0.0161221 -1.0811 0
-0.0989808 -0.444155 0
0.111264 -0.438625 0
0.083862 -0.579391 0
-0.207018 -0.874432 0
-0.184905 -0.91538 0
0.131962 -0.670833 0
-0.00365043 -0.695513 0
0.138404 -0.646131 0
0.147557 -0.631849 0
0.0126289 -0.322014 0
0.132301 -0.655238 0
-0.153347 -1.06843 0
-0.0296155 -0.559417 0
0.0891219 -0.699568 0
0.260058 -0.592986 0
-0.00454036 -0.755738 0
0.263899 -0.568782 0
0.0649881 -0.335752 0
0.287077 -0.578046 0
0.0966753 -0.336134 0
-0.200001 -0.864401 0
0.049099 -1.54198 0
-0.113007 -0.632087 0
-0.207076 -0.861969 0
0.153175 -0.582681 0
-0.00228795 -0.604851 0
0.139175 -0.574787 0
0.0298781 -0.322533 0
0.137152 -0.552361 0
-0.0119074 -0.545511 0
0.146899 -0.553974 0
-0.0013366 -0.538527 0
-0.207891 -0.845696 0
-0.212472 -0.821511 0
0.0709899 -0.498977 0
0.127635 -0.544335 0
0.128136 -0.581335 0
0.118642 -0.590148 0
-0.0351684 -0.583664 0
0.118304 -0.537972 0
0.0910148 -0.676877 0
-0.206628 -0.99389 0
-0.0407082 -0.611343 0
0.26092 -0.561294 0
0.0285204 -0.322841 0
0.250611 -0.571115 0
-0.0213266 -0.586983 0
0.256429 -0.53396 0
0.0118782 -0.313367 0
-0.185693 -1.0394 0
-0.0339866 -0.587831 0
-0.164845 -1.03995 0
-0.0231443 -0.604794 0
-0.10982 -0.874762 0
0.029932 -0.862517 0
-0.155514 -1.10666 0
-0.0190159 -0.570024 0
-0.169138 -0.651114 0
-0.101492 -1.04569 0
-0.0219654 -0.681994 0
0.24012 -0.560219 0
-0.0184581 -0.669174 0
-0.0209178 -0.7659 0
0.106803 -0.679974 0
0.144559 -0.451938 0
-0.16813 -0.964531 0
-0.029128 -0.672866 0
-0.119438 -0.961627 0
-0.0172264 -0.604438 0
-0.000561656 -1.54519 0
-0.0706336 -0.692175 0
-0.00558682 -0.553906 0
-0.0338886 -0.591122 0
0.401228 -0.634161 0
-0.00322013 -0.56999 0
-0.0391578 -0.612397 0
0.00209105 -0.932356 0
-0.03478 -0.619001 0
-0.123683 -1.07424 0
-0.0511302 -0.600424 0
-0.148796 -1.01427 0
-0.00282108 -0.707443 0
0.163102 -0.493342 0
0.0850738 -0.661401 0
0.169125 -0.511488 0
0.0829676 -0.646796 0
0.102868 -0.694511 0
0.00211164 -0.883522 0
-0.315111 -0.83973 0
0.106617 -0.697246 0
0.00182759 -0.877478 0
0.181304 -0.517187 0
0.043186 -0.432055 0
0.186722 -0.520328 0
0.19296 -0.511636 0
0.00284764 -0.462354 0
0.178882 -0.505365 0
0.0142885 -0.429452 0
0.134416 -0.530377 0
0.153945 -0.588856 0
0.123123 -0.48491 0
0.155258 -0.605185 0
0.0363399 -0.344911 0
0.25899 -0.525709 0
0.107292 -0.701353 0
-0.00878332 -0.825168 0
0.125109 -0.713804 0
-0.0177255 -0.830249 0
-0.340042 -0.813885 0
0.190018 -0.526378 0
0.177771 -0.53808 0
0.173003 -0.555878 0
0.112451 -0.473047 0
0.170173 -0.526208 0
-0.318478 -0.788677 0
0.102125 -0.681756 0
-0.00481382 -0.866394 0
-0.323363 -0.827977 0
-0.308944 -0.823825 0
0.0936357 -0.739048 0
-0.0183323 -0.358846 0
0.17334 -0.523697 0
0.0723318 -0.434001 0
0.176716 -0.519563 0
0.052851 -0.45446 0
0.175484 -0.511753 0
-0.302447 -0.79692 0
0.106719 -0.683203 0
-0.0100262 -0.352745 0
-0.300143 -0.819184 0
0.206985 -0.512455 0
0.0624607 -0.419758 0
0.195297 -0.526667 0
-0.077465 -0.924391 0
0.145639 -0.443016 0
0.0257112 -0.856563 0
0.0395558 -1.56143 0
-0.260436 -0.923114 0
-0.287707 -0.793944 0
0.026018 -0.922586 0
0.0495468 -0.417165 0
0.0473119 -0.410428 0
0.186315 -0.493204 0
0.083213 -0.66555 0
-0.0337924 -0.337572 0
0.0783628 -0.6537 0
-0.0964312 -1.03351 0
0.0707244 -0.702172 0
-0.0211086 -0.339301 0
0.0567166 -0.724258 0
0.0747699 -0.696566 0
-0.077955 -1.04654 0
0.0783423 -0.656115 0
-0.0541716 -1.00935 0
0.0720189 -0.663301 0
0.0757085 -0.679737 0
-0.0443932 -1.03777 0
0.0323625 -0.942819 0
0.19399 -0.674701 0
0.0883347 -0.40913 0
0.198245 -0.613546 0
0.157305 -0.606563 0
0.141294 -0.692062 0
0.0916809 -0.419393 0
0.0453129 -0.920377 0
0.142637 -0.67596 0
0.0892611 -0.411149 0
0.131342 -0.689628 0
0.0935277 -0.41209 0
0.0457233 -0.884933 0
0.208234 -0.677783 0
0.0949662 -0.410211 0
0.052868 -0.867204 0
0.0498053 -0.867244 0
-0.0162592 -0.514017 0
0.0681054 -0.429984 0
0.0509585 -0.423341 0
0.197605 -0.553131 0
0.0848639 -0.437769 0
0.2008 -0.515912 0
0.109912 -0.44913 0
0.132928 -0.468263 0
0.187375 -0.525938 0
0.0701209 -0.433755 0
0.263319 -0.474825 0
0.0917501 -0.382162 0
-0.143349 -0.58557 0
-0.206467 -0.914967 0
-0.0397541 -0.93839 0
0.286406 -0.667222 0
0.115757 -0.404035 0
0.112605 -0.414015 0
0.280389 -0.397573 0
0.0635293 -0.408995 0
-0.00794473 -0.335338 0
0.119656 -0.656266 0
0.0301813 -0.377427 0
0.016425 -0.364178 0
0.0177826 -0.380813 0
0.15257 -0.716156 0
0.00314753 -0.447243 0
0.279953 -0.470627 0
0.0926145 -0.38022 0
-0.0218502 -0.367728 0
-0.0191825 -0.376536 0
0.0833387 -0.360209 0
0.214261 -0.60006 0
0.0946348 -0.351545 0
0.231108 -0.587705 0
0.0776766 -0.409639 0
0.153251 -0.614017 0
0.334089 -0.618138 0
0.0553761 -0.40577 0
-0.000958521 -0.50222 0
-0.192671 -1.024 0
-0.107798 -1.15682 0
0.0818814 -0.43556 0
0.189034 -0.553703 0
0.0994268 -0.427754 0
0.178306 -0.54572 0
0.0623275 -0.429296 0
0.190977 -0.563131 0
0.127049 -0.442503 0
0.171335 -0.520676 0
-0.114547 -0.562777 0
-0.0797396 -1.25806 0
-0.103282 -1.00046 0
0.339872 -0.580344 0
-0.101715 -1.03358 0
-0.0732772 -0.547773 0
0.338534 -0.587904 0
-0.109118 -1.02642 0
0.371523 -0.548622 0
0.0927351 -0.35683 0
0.393058 -0.576469 0
0.0855528 -0.408141 0
0.00196548 -0.557613 0
-0.105487 -1.02001 0
0.351902 -0.513775 0
0.0796163 -0.37446 0
-0.105616 -1.04624 0
0.338777 -0.549107 0
0.0718363 -0.434241 0
0.304485 -0.538074 0
0.0359475 -1.01112 0
0.0633943 -0.395252 0
0.0423633 -0.884155 0
-0.222737 -0.815067 0
0.197229 -0.494369 0
0.196076 -0.472417 0
-0.0490429 -0.484683 0
-0.110063 -0.825623 0
0.219972 -0.481938 0
0.0184111 -0.384928 0
0.233548 -0.501207 0
-0.0547031 -0.455482 0
-0.235489 -0.818536 0
-0.0925586 -1.00548 0
0.0335149 -0.866046 0
-0.137541 -0.805024 0
0.204881 -0.482653 0
0.026986 -0.40223 0
0.197595 -0.48298 0
0.0354494 -0.417947 0
-0.258999 -0.807049 0
0.0739954 -1.00658 0
0.181924 -0.47214 0
0.177254 -0.499068 0
0.0301179 -0.395136 0
0.173484 -0.497041 0
-0.0040885 -0.436724 0
0.143855 -0.682129 0
0.0387847 -0.388259 0
0.126874 -0.659388 0
0.0501127 -0.402908 0
0.112636 -0.658834 0
0.0565089 -0.365021 0
0.131017 -0.667424 0
-0.0579384 -0.778614 0
0.0955672 -0.643199 0
0.0628417 -0.380164 0
0.101119 -0.652254 0
-0.145069 -0.854749 0
0.0947305 -0.658774 0