# vtk DataFile Version 2.0
Unstructured Grid by M++
ASCII
DATASET UNSTRUCTURED_GRID
POINTS 81 float
  1.000000   0.625000 0
  0.750000   0.375000 0
  1.000000   0.000000 0
  0.875000   0.875000 0
  0.750000   0.125000 0
  1.000000   1.000000 0
  0.875000   0.250000 0
  0.625000   0.875000 0
  1.000000   0.750000 0
  0.875000   0.000000 0
  1.000000   0.250000 0
  0.625000   0.375000 0
  0.875000   0.500000 0
  0.625000   0.625000 0
  1.000000   0.500000 0
  0.750000   0.500000 0
  0.750000   1.000000 0
  1.000000   0.125000 0
  0.625000   0.250000 0
  0.750000   0.750000 0
  0.625000   0.000000 0
  0.125000   0.375000 0
  0.000000   0.500000 0
  0.125000   0.625000 0
  0.625000   1.000000 0
  1.000000   0.875000 0
  0.875000   0.125000 0
  0.500000   0.250000 0
  0.625000   0.500000 0
  0.250000   0.625000 0
  0.000000   0.625000 0
  0.375000   0.500000 0
  0.375000   0.000000 0
  0.000000   0.125000 0
  0.125000   0.875000 0
  0.875000   1.000000 0
  0.750000   0.250000 0
  0.375000   0.375000 0
  0.250000   0.375000 0
  0.625000   0.750000 0
  0.125000   0.125000 0
  0.500000   0.000000 0
  0.250000   0.875000 0
  0.125000   0.500000 0
  0.500000   0.375000 0
  0.125000   0.000000 0
  0.250000   0.750000 0
  0.250000   0.500000 0
  0.000000   0.875000 0
  0.875000   0.625000 0
  0.500000   0.750000 0
  0.750000   0.625000 0
  0.250000   0.000000 0
  0.375000   0.750000 0
  0.750000   0.875000 0
  0.625000   0.125000 0
  0.250000   0.250000 0
  0.375000   1.000000 0
  0.375000   0.250000 0
  0.000000   0.375000 0
  0.500000   1.000000 0
  0.875000   0.750000 0
  0.750000   0.000000 0
  0.375000   0.125000 0
  0.500000   0.875000 0
  0.000000   0.000000 0
  0.125000   0.750000 0
  0.500000   0.625000 0
  0.125000   0.250000 0
  0.500000   0.125000 0
  0.250000   1.000000 0
  0.250000   0.125000 0
  0.000000   1.000000 0
  0.375000   0.875000 0
  0.000000   0.750000 0
  0.375000   0.625000 0
  0.000000   0.250000 0
  0.125000   1.000000 0
  1.000000   0.375000 0
  0.500000   0.500000 0
  0.875000   0.375000 0
CELLS 64 320
4 56 71 58 63
4 27 58 69 63
4 41 69 32 63
4 76 33 68 40
4 27 44 58 37
4 79 31 44 37
4 56 38 68 21
4 56 58 38 37
4 52 32 71 63
4 47 38 31 37
4 76 68 59 21
4 22 59 43 21
4 65 45 33 40
4 47 43 38 21
4 52 71 45 40
4 56 68 71 40
4 74 30 66 23
4 46 66 29 23
4 22 43 30 23
4 72 48 77 34
4 46 53 42 73
4 50 64 53 73
4 70 42 57 73
4 74 66 48 34
4 46 42 66 34
4 47 29 43 23
4 70 77 42 34
4 60 57 64 73
4 79 67 31 75
4 47 31 29 75
4 50 53 67 75
4 46 29 53 75
4 10 78 6 80
4 36 6 1 80
4 15 1 12 80
4 36 4 6 26
4 14 12 78 80
4 2 17 9 26
4 36 18 4 55
4 15 28 1 11
4 62 4 20 55
4 10 6 17 26
4 27 18 44 11
4 62 9 4 26
4 27 69 18 55
4 36 1 18 11
4 41 20 69 55
4 79 44 28 11
4 16 24 54 7
4 19 54 39 7
4 50 39 64 7
4 8 25 61 3
4 60 64 24 7
4 79 28 67 13
4 19 51 61 49
4 8 61 0 49
4 15 51 28 13
4 19 39 51 13
4 50 67 39 13
4 19 61 54 3
4 14 0 12 49
4 5 35 25 3
4 15 12 51 49
4 16 54 35 3
CELL_TYPES 64
8
8
8
8
8
8
8
8
8
8
8
8
8
8
8
8
8
8
8
8
8
8
8
8
8
8
8
8
8
8
8
8
8
8
8
8
8
8
8
8
8
8
8
8
8
8
8
8
8
8
8
8
8
8
8
8
8
8
8
8
8
8
8
8
CELL_DATA 64
VECTORS vector_value float
-0.147819 -0.513356 0
-0.346666 -0.433916 0
-0.464715 -0.861278 0
-0.376405 -0.691536 0
0.30344 -0.868066 0
1.23878 -2.56199 0
-0.462455 -1.22051 0
-0.49933 -1.12566 0
-0.358052 -0.715466 0
0.169899 -1.83495 0
-0.0117271 -0.0689446 0
0.0114608 -0.0725524 0
-0.290015 -1.32532 0
-0.089355 -0.744779 0
-0.391 -1.02185 0
-0.487382 -1.38909 0
0.592973 -0.963396 0
1.80177 -1.4601 0
0.0960157 -0.180862 0
-0.61758 -1.75218 0
-0.162391 -0.660508 0
-0.276303 -0.719611 0
-1.10202 -0.891982 0
0.384282 -2.43642 0
0.0223426 -0.979205 0
0.476396 -0.918064 0
-1.27172 -1.01287 0
-0.73865 -0.759598 0
0.453146 -1.51462 0
1.02627 -2.67525 0
-0.239752 -0.684179 0
0.808865 -1.98679 0
0.0324365 -0.0731198 0
0.0664272 -0.109964 0
-0.045058 -0.174127 0
0.452164 -0.264519 0
-0.00230035 -0.0438685 0
0.212182 -0.628426 0
1.04673 -2.43983 0
-0.153831 -1.43226 0
0.027842 -2.16669 0
0.0809133 -0.208664 0
1.39892 -2.73268 0
0.372509 -0.642679 0
0.00908447 -2.05909 0
0.361162 -1.80105 0
-0.00450558 -0.638296 0
0.0127251 -1.13547 0
0.141283 -0.332008 0
-0.0760501 -0.380781 0
-0.165636 -0.418023 0
-0.551813 -1.9368 0
-0.410772 -0.791256 0
-0.453753 -0.447611 0
-1.48125 -1.04735 0
-0.396102 -0.613817 0
-0.814461 -1.74358 0
-0.673584 -1.13508 0
-0.129869 -0.109294 0
-0.196652 -0.468645 0
-0.0405272 -0.0844024 0
0.514787 -1.67767 0
-0.35191 -0.435606 0
0.695618 -0.782442 0
