# vtk DataFile Version 2.0
Unstructured Grid by M++
ASCII
DATASET UNSTRUCTURED_GRID
POINTS 81 float
  1.000000   0.625000 0
  0.750000   0.375000 0
  1.000000   0.000000 0
  0.875000   0.875000 0
  0.750000   0.125000 0
  1.000000   1.000000 0
  0.875000   0.250000 0
  0.625000   0.875000 0
  1.000000   0.750000 0
  0.875000   0.000000 0
  1.000000   0.250000 0
  0.625000   0.375000 0
  0.875000   0.500000 0
  0.625000   0.625000 0
  1.000000   0.500000 0
  0.750000   0.500000 0
  0.750000   1.000000 0
  1.000000   0.125000 0
  0.625000   0.250000 0
  0.750000   0.750000 0
  0.625000   0.000000 0
  0.125000   0.375000 0
  0.000000   0.500000 0
  0.125000   0.625000 0
  0.625000   1.000000 0
  1.000000   0.875000 0
  0.875000   0.125000 0
  0.500000   0.250000 0
  0.625000   0.500000 0
  0.250000   0.625000 0
  0.000000   0.625000 0
  0.375000   0.500000 0
  0.375000   0.000000 0
  0.000000   0.125000 0
  0.125000   0.875000 0
  0.875000   1.000000 0
  0.750000   0.250000 0
  0.375000   0.375000 0
  0.250000   0.375000 0
  0.625000   0.750000 0
  0.125000   0.125000 0
  0.500000   0.000000 0
  0.250000   0.875000 0
  0.125000   0.500000 0
  0.500000   0.375000 0
  0.125000   0.000000 0
  0.250000   0.750000 0
  0.250000   0.500000 0
  0.000000   0.875000 0
  0.875000   0.625000 0
  0.500000   0.750000 0
  0.750000   0.625000 0
  0.250000   0.000000 0
  0.375000   0.750000 0
  0.750000   0.875000 0
  0.625000   0.125000 0
  0.250000   0.250000 0
  0.375000   1.000000 0
  0.375000   0.250000 0
  0.000000   0.375000 0
  0.500000   1.000000 0
  0.875000   0.750000 0
  0.750000   0.000000 0
  0.375000   0.125000 0
  0.500000   0.875000 0
  0.000000   0.000000 0
  0.125000   0.750000 0
  0.500000   0.625000 0
  0.125000   0.250000 0
  0.500000   0.125000 0
  0.250000   1.000000 0
  0.250000   0.125000 0
  0.000000   1.000000 0
  0.375000   0.875000 0
  0.000000   0.750000 0
  0.375000   0.625000 0
  0.000000   0.250000 0
  0.125000   1.000000 0
  1.000000   0.375000 0
  0.500000   0.500000 0
  0.875000   0.375000 0
CELLS 64 320
4 56 71 58 63
4 27 58 69 63
4 41 69 32 63
4 76 33 68 40
4 27 44 58 37
4 79 31 44 37
4 56 38 68 21
4 56 58 38 37
4 52 32 71 63
4 47 38 31 37
4 76 68 59 21
4 22 59 43 21
4 65 45 33 40
4 47 43 38 21
4 52 71 45 40
4 56 68 71 40
4 74 30 66 23
4 46 66 29 23
4 22 43 30 23
4 72 48 77 34
4 46 53 42 73
4 50 64 53 73
4 70 42 57 73
4 74 66 48 34
4 46 42 66 34
4 47 29 43 23
4 70 77 42 34
4 60 57 64 73
4 79 67 31 75
4 47 31 29 75
4 50 53 67 75
4 46 29 53 75
4 10 78 6 80
4 36 6 1 80
4 15 1 12 80
4 36 4 6 26
4 14 12 78 80
4 2 17 9 26
4 36 18 4 55
4 15 28 1 11
4 62 4 20 55
4 10 6 17 26
4 27 18 44 11
4 62 9 4 26
4 27 69 18 55
4 36 1 18 11
4 41 20 69 55
4 79 44 28 11
4 16 24 54 7
4 19 54 39 7
4 50 39 64 7
4 8 25 61 3
4 60 64 24 7
4 79 28 67 13
4 19 51 61 49
4 8 61 0 49
4 15 51 28 13
4 19 39 51 13
4 50 67 39 13
4 19 61 54 3
4 14 0 12 49
4 5 35 25 3
4 15 12 51 49
4 16 54 35 3
CELL_TYPES 64
8
8
8
8
8
8
8
8
8
8
8
8
8
8
8
8
8
8
8
8
8
8
8
8
8
8
8
8
8
8
8
8
8
8
8
8
8
8
8
8
8
8
8
8
8
8
8
8
8
8
8
8
8
8
8
8
8
8
8
8
8
8
8
8
CELL_DATA 64
VECTORS vector_value float
0.380861 -0.952779 0
0.289536 -0.372338 0
0.39753 -1.07863 0
-0.169995 -0.609609 0
0.628937 -0.659713 0
-0.0499081 -0.560632 0
-0.619873 -1.83862 0
0.0139412 -1.45802 0
0.586053 -0.992078 0
-0.282069 -2.99395 0
-0.124638 -0.296355 0
-0.0106872 -0.127676 0
-0.0225162 -0.775556 0
-0.0949175 -0.935483 0
0.0710631 -0.66523 0
0.218853 -1.62322 0
0.497092 -1.0134 0
0.394404 -0.890102 0
0.0372414 -0.140851 0
-0.360306 -1.60025 0
0.113994 -0.267215 0
0.106737 -0.970084 0
0.111112 -0.833712 0
0.262279 -1.63387 0
0.25912 -0.578811 0
0.571754 -1.33727 0
-0.396731 -0.423183 0
0.444171 -0.613393 0
-0.488936 -0.874409 0
-0.334457 -2.01542 0
-0.733992 -1.26657 0
0.0714151 -0.540126 0
-0.45551 -1.05038 0
-0.228103 -0.966154 0
-0.204979 -0.811713 0
-0.473753 -1.6927 0
-0.0920879 -1.33516 0
-0.0339611 -0.0559238 0
0.253096 -1.69971 0
0.143575 -0.891809 0
0.35663 -1.84201 0
-0.129394 -0.186792 0
0.315185 -0.556139 0
0.206607 -2.18597 0
0.610989 -0.862846 0
-0.0019548 -1.17462 0
0.123433 -0.4046 0
0.081603 -0.34358 0
0.61217 -0.724206 0
0.117939 -0.474084 0
0.0117547 -1.05777 0
-0.126356 -2.00401 0
0.48828 -1.3781 0
0.0212765 -1.04953 0
-0.269453 -0.863835 0
-0.00301032 -1.59765 0
0.0197805 -0.268458 0
-0.778896 -0.686508 0
-0.845744 -1.14181 0
-0.0271808 -1.01416 0
-0.0792575 -1.60367 0
0.441878 -1.68231 0
-0.0914209 -0.710391 0
0.771628 -0.74484 0
