# vtk DataFile Version 2.0
Unstructured Grid by M++
ASCII
DATASET UNSTRUCTURED_GRID
POINTS 289 float
  0.562500   1.000000 0
  0.562500   0.625000 0
  0.625000   1.000000 0
  0.562500   0.937500 0
  0.562500   0.562500 0
  0.625000   0.937500 0
  0.562500   0.875000 0
  0.625000   0.750000 0
  0.625000   0.625000 0
  0.562500   0.812500 0
  0.562500   0.750000 0
  0.562500   0.687500 0
  0.625000   0.875000 0
  0.625000   0.812500 0
  0.625000   0.687500 0
  0.687500   0.125000 0
  0.875000   0.062500 0
  0.625000   0.125000 0
  0.625000   0.187500 0
  0.625000   0.250000 0
  0.812500   0.187500 0
  1.000000   0.125000 0
  0.687500   0.187500 0
  0.750000   0.125000 0
  0.937500   0.062500 0
  0.937500   0.125000 0
  0.750000   0.187500 0
  0.812500   0.062500 0
  0.812500   0.125000 0
  0.875000   0.687500 0
  0.187500   0.250000 0
  0.437500   0.250000 0
  0.375000   0.187500 0
  0.812500   0.625000 0
  0.125000   0.187500 0
  0.937500   0.750000 0
  0.250000   0.312500 0
  0.500000   0.312500 0
  0.625000   0.062500 0
  0.437500   0.500000 0
  0.375000   0.125000 0
  0.437500   0.187500 0
  0.437500   0.437500 0
  0.437500   0.375000 0
  0.875000   0.875000 0
  0.187500   0.375000 0
  0.687500   0.562500 0
  0.687500   0.625000 0
  0.000000   0.125000 0
  0.937500   0.625000 0
  0.250000   0.125000 0
  0.375000   0.062500 0
  0.375000   0.000000 0
  0.812500   0.500000 0
  0.125000   0.000000 0
  0.937500   0.937500 0
  0.250000   0.437500 0
  0.687500   0.875000 0
  0.687500   0.937500 0
  0.000000   0.437500 0
  0.500000   0.500000 0
  0.500000   0.437500 0
  0.750000   0.937500 0
  0.750000   1.000000 0
  0.062500   0.500000 0
  1.000000   1.000000 0
  0.312500   0.500000 0
  0.875000   0.562500 0
  0.187500   0.062500 0
  0.437500   0.125000 0
  0.437500   0.062500 0
  0.500000   0.375000 0
  0.937500   0.812500 0
  0.937500   0.875000 0
  0.250000   0.375000 0
  0.687500   0.812500 0
  0.000000   0.375000 0
  0.750000   0.562500 0
  0.062500   0.125000 0
  1.000000   0.562500 0
  1.000000   0.625000 0
  0.312500   0.125000 0
  0.562500   0.125000 0
  0.437500   0.000000 0
  0.875000   0.437500 0
  0.875000   0.500000 0
  0.187500   0.000000 0
  0.937500   0.562500 0
  0.937500   0.500000 0
  0.250000   0.062500 0
  0.687500   0.500000 0
  0.000000   0.062500 0
  0.500000   0.062500 0
  1.000000   0.875000 0
  1.000000   0.937500 0
  0.312500   0.437500 0
  0.750000   0.875000 0
  0.062500   0.437500 0
  0.812500   0.937500 0
  0.125000   0.500000 0
  0.375000   0.500000 0
  0.625000   0.562500 0
  0.625000   0.500000 0
  0.437500   0.312500 0
  0.875000   0.812500 0
  0.875000   0.750000 0
  0.187500   0.312500 0
  0.812500   0.687500 0
  0.812500   0.750000 0
  0.125000   0.250000 0
  0.375000   0.250000 0
  1.000000   0.687500 0
  0.312500   0.187500 0
  0.750000   0.687500 0
  0.750000   0.625000 0
  0.062500   0.187500 0
  0.562500   0.250000 0
  0.562500   0.187500 0
  0.375000   1.000000 0
  0.500000   0.562500 0
  0.500000   0.250000 0
  0.750000   0.250000 0
  0.500000   0.125000 0
  0.500000   0.187500 0
  1.000000   0.187500 0
  0.625000   0.375000 0
  0.875000   0.375000 0
  1.000000   0.437500 0
  0.312500   0.000000 0
  0.562500   0.000000 0
  0.812500   0.000000 0
  0.250000   0.687500 0
  0.000000   0.687500 0
  0.500000   1.000000 0
  0.250000   1.000000 0
  0.000000   1.000000 0
  0.437500   0.687500 0
  0.437500   0.625000 0
  0.187500   0.625000 0
  0.687500   0.750000 0
  0.000000   0.312500 0
  0.000000   0.250000 0
  0.375000   0.375000 0
  0.375000   0.312500 0
  0.812500   0.812500 0
  0.125000   0.312500 0
  0.875000   0.625000 0
  0.187500   0.187500 0
  0.187500   0.125000 0
  0.937500   1.000000 0
  0.250000   0.562500 0
  0.250000   0.500000 0
  0.687500   1.000000 0
  0.000000   0.500000 0
  0.687500   0.687500 0
  0.000000   0.187500 0
  0.937500   0.687500 0
  0.250000   0.250000 0
  0.250000   0.187500 0
  0.187500   0.687500 0
  0.000000   0.750000 0
  0.250000   0.750000 0
  0.125000   0.625000 0
  0.750000   0.750000 0
  0.062500   0.250000 0
  0.875000   0.937500 0
  0.187500   0.500000 0
  0.187500   0.437500 0
  0.812500   0.562500 0
  0.125000   0.125000 0
  0.125000   0.062500 0
  0.375000   0.625000 0
  0.375000   0.687500 0
  1.000000   0.750000 0
  0.312500   0.250000 0
  0.312500   0.312500 0
  0.812500   0.312500 0
  0.562500   0.312500 0
  0.375000   0.750000 0
  0.500000   0.625000 0
  0.250000   0.625000 0
  0.312500   0.687500 0
  0.750000   0.812500 0
  0.062500   0.312500 0
  0.062500   0.375000 0
  1.000000   0.812500 0
  0.312500   0.375000 0
  0.562500   0.375000 0
  0.687500   0.437500 0
  0.000000   0.000000 0
  0.500000   0.000000 0
  0.937500   0.437500 0
  0.250000   0.000000 0
  0.375000   0.437500 0
  0.812500   0.875000 0
  0.125000   0.375000 0
  0.125000   0.437500 0
  0.625000   0.437500 0
  1.000000   0.500000 0
  0.312500   0.062500 0
  0.750000   0.500000 0
  0.062500   0.000000 0
  0.062500   0.062500 0
  0.562500   0.062500 0
  0.062500   0.750000 0
  0.312500   0.750000 0
  0.312500   0.625000 0
  0.312500   0.562500 0
  0.062500   0.562500 0
  0.187500   1.000000 0
  0.437500   0.562500 0
  0.875000   1.000000 0
  0.187500   0.562500 0
  0.500000   0.937500 0
  0.250000   0.937500 0
  0.312500   1.000000 0
  0.125000   0.750000 0
  0.125000   0.687500 0
  1.000000   0.000000 0
  0.000000   0.937500 0
  0.000000   0.875000 0
  0.875000   0.125000 0
  0.875000   0.187500 0
  0.062500   0.812500 0
  0.312500   0.812500 0
  0.000000   0.812500 0
  0.000000   0.625000 0
  0.000000   0.562500 0
  0.062500   1.000000 0
  0.062500   0.937500 0
  0.937500   0.187500 0
  0.937500   0.250000 0
  0.062500   0.687500 0
  0.062500   0.625000 0
  0.125000   1.000000 0
  1.000000   0.250000 0
  1.000000   0.312500 0
  0.062500   0.875000 0
  0.125000   0.812500 0
  0.375000   0.812500 0
  0.125000   0.875000 0
  0.375000   0.937500 0
  0.375000   0.875000 0
  0.187500   0.750000 0
  0.187500   0.812500 0
  0.437500   0.812500 0
  0.187500   0.875000 0
  0.437500   0.875000 0
  0.375000   0.562500 0
  0.812500   1.000000 0
  0.125000   0.562500 0
  0.437500   1.000000 0
  0.437500   0.937500 0
  0.187500   0.937500 0
  0.125000   0.937500 0
  0.500000   0.687500 0
  0.500000   0.750000 0
  0.500000   0.812500 0
  0.250000   0.812500 0
  0.250000   0.875000 0
  0.500000   0.875000 0
  0.437500   0.750000 0
  0.312500   0.875000 0
  0.312500   0.937500 0
  0.687500   0.250000 0
  0.687500   0.312500 0
  0.937500   0.312500 0
  0.875000   0.250000 0
  0.625000   0.000000 0
  0.875000   0.000000 0
  0.687500   0.375000 0
  0.937500   0.375000 0
  0.875000   0.312500 0
  0.625000   0.312500 0
  0.687500   0.000000 0
  0.937500   0.000000 0
  0.750000   0.312500 0
  0.750000   0.375000 0
  1.000000   0.375000 0
  0.812500   0.250000 0
  0.562500   0.437500 0
  0.562500   0.500000 0
  0.687500   0.062500 0
  0.750000   0.437500 0
  0.750000   0.000000 0
  0.750000   0.062500 0
  1.000000   0.062500 0
  0.812500   0.375000 0
  0.812500   0.437500 0
CELLS 256 1280
4 169 170 148 68
4 151 166 56 167
4 195 45 196 167
4 54 170 201 202
4 109 34 30 147
4 40 32 81 112
4 192 89 86 68
4 48 91 78 202
4 99 64 196 97
4 71 43 37 103
4 74 186 56 95
4 109 164 34 115
4 50 81 158 112
4 122 69 92 70
4 195 145 45 106
4 110 143 174 175
4 157 30 158 147
4 40 69 32 41
4 50 158 148 147
4 141 155 164 115
4 122 123 69 41
4 142 186 143 175
4 60 39 61 42
4 40 51 69 70
4 120 31 123 41
4 157 174 36 175
4 50 148 89 68
4 48 78 155 115
4 52 83 51 70
4 151 56 66 95
4 71 61 43 42
4 169 148 34 147
4 100 193 39 42
4 40 81 51 199
4 110 174 32 112
4 109 30 145 106
4 100 66 193 95
4 169 34 78 115
4 190 92 83 70
4 50 89 81 199
4 54 86 170 68
4 74 56 45 167
4 142 143 43 103
4 153 59 64 97
4 99 196 166 167
4 169 78 170 202
4 142 193 186 95
4 192 128 89 199
4 74 45 36 106
4 110 31 143 103
4 76 184 59 97
4 142 43 193 42
4 52 51 128 199
4 189 201 91 202
4 120 37 31 103
4 74 36 186 175
4 195 196 184 97
4 141 164 140 183
4 157 158 174 112
4 109 145 164 183
4 195 184 145 183
4 110 32 31 41
4 157 36 30 106
4 76 140 184 183
4 171 172 206 181
4 178 172 261 136
4 256 261 255 136
4 256 257 261 245
4 180 150 206 207
4 60 119 39 210
4 118 215 241 263
4 178 205 172 181
4 216 243 238 244
4 162 217 233 232
4 180 206 131 181
4 179 137 119 210
4 216 204 217 232
4 220 237 219 229
4 216 217 243 159
4 259 258 262 224
4 240 254 237 229
4 153 64 227 208
4 161 205 258 224
4 240 237 238 223
4 226 227 233 208
4 234 228 254 229
4 171 248 137 210
4 160 132 204 232
4 180 131 138 159
4 133 251 213 252
4 171 206 248 207
4 162 138 217 159
4 161 258 243 244
4 220 225 237 223
4 151 150 166 212
4 260 247 257 245
4 259 262 214 263
4 151 66 150 207
4 234 254 209 253
4 162 233 250 208
4 242 241 262 263
4 171 137 172 136
4 161 243 131 159
4 160 204 225 223
4 161 131 205 181
4 179 255 137 136
4 216 238 204 223
4 100 39 248 210
4 260 213 247 252
4 226 233 132 232
4 134 214 215 263
4 180 138 150 212
4 178 261 239 245
4 259 246 258 244
4 178 239 205 224
4 240 238 246 244
4 242 262 239 224
4 99 250 64 208
4 240 246 254 253
4 242 239 247 245
4 135 219 228 229
4 99 166 250 212
4 259 214 246 253
4 118 241 251 252
4 100 248 66 207
4 134 209 214 253
4 162 250 138 212
4 242 247 241 252
4 71 187 61 280
4 102 281 197 280
4 122 92 82 203
4 17 18 82 117
4 122 82 123 117
4 19 264 273 265
4 267 279 222 20
4 125 273 270 265
4 267 272 279 176
4 19 116 18 117
4 21 25 286 24
4 23 28 26 20
4 23 285 28 27
4 218 286 275 24
4 85 53 84 288
4 235 236 231 266
4 221 222 28 20
4 267 222 231 230
4 268 38 129 203
4 125 270 197 188
4 126 287 272 176
4 277 270 276 265
4 267 231 272 266
4 125 197 187 280
4 190 129 92 203
4 277 276 287 176
4 19 18 264 22
4 17 82 38 203
4 102 197 90 188
4 126 84 287 288
4 284 130 285 27
4 121 276 264 265
4 71 37 187 177
4 120 123 116 117
4 198 88 127 191
4 221 16 25 24
4 23 26 15 22
4 121 279 276 176
4 235 231 124 230
4 125 187 273 177
4 278 271 236 266
4 277 287 283 288
4 284 285 274 282
4 278 127 271 191
4 269 275 16 24
4 200 283 53 288
4 23 15 285 282
4 121 26 279 20
4 21 124 25 230
4 19 273 116 177
4 200 90 283 188
4 126 271 84 191
4 269 16 130 27
4 17 38 15 282
4 221 25 222 230
4 121 264 26 22
4 120 116 37 177
4 60 61 281 280
4 277 283 270 188
4 126 272 271 266
4 268 274 38 282
4 85 84 88 191
4 17 15 18 22
4 221 28 16 27
4 93 94 73 55
4 85 88 67 87
4 80 49 79 87
4 44 104 73 72
4 146 33 67 168
4 211 165 149 55
4 8 47 14 154
4 105 104 108 144
4 105 108 29 107
4 7 139 13 75
4 44 165 194 98
4 200 53 77 168
4 8 1 101 4
4 2 5 152 58
4 260 6 213 3
4 105 35 104 72
4 96 57 182 75
4 7 14 139 154
4 146 29 33 107
4 7 13 10 9
4 12 13 57 75
4 85 67 53 168
4 44 73 165 55
4 63 152 62 58
4 8 101 47 46
4 96 182 194 144
4 60 281 119 4
4 12 5 6 3
4 173 185 35 72
4 65 149 94 55
4 146 67 49 87
4 114 113 47 154
4 163 108 182 144
4 12 6 13 9
4 173 35 111 156
4 163 182 139 75
4 260 257 6 9
4 105 29 35 156
4 163 139 113 154
4 256 10 257 9
4 146 49 29 156
4 163 113 108 107
4 80 111 49 156
4 102 101 281 4
4 12 57 5 58
4 44 194 104 144
4 96 194 62 98
4 2 0 5 3
4 93 73 185 72
4 179 119 1 4
4 200 77 90 46
4 114 33 113 107
4 7 10 14 11
4 96 62 57 58
4 133 213 0 3
4 102 90 101 46
4 256 255 10 11
4 63 62 249 98
4 114 47 77 46
4 179 1 255 11
4 211 249 165 98
4 114 77 33 168
4 198 79 88 87
4 8 14 1 11
CELL_TYPES 256
8
8
8
8
8
8
8
8
8
8
8
8
8
8
8
8
8
8
8
8
8
8
8
8
8
8
8
8
8
8
8
8
8
8
8
8
8
8
8
8
8
8
8
8
8
8
8
8
8
8
8
8
8
8
8
8
8
8
8
8
8
8
8
8
8
8
8
8
8
8
8
8
8
8
8
8
8
8
8
8
8
8
8
8
8
8
8
8
8
8
8
8
8
8
8
8
8
8
8
8
8
8
8
8
8
8
8
8
8
8
8
8
8
8
8
8
8
8
8
8
8
8
8
8
8
8
8
8
8
8
8
8
8
8
8
8
8
8
8
8
8
8
8
8
8
8
8
8
8
8
8
8
8
8
8
8
8
8
8
8
8
8
8
8
8
8
8
8
8
8
8
8
8
8
8
8
8
8
8
8
8
8
8
8
8
8
8
8
8
8
8
8
8
8
8
8
8
8
8
8
8
8
8
8
8
8
8
8
8
8
8
8
8
8
8
8
8
8
8
8
8
8
8
8
8
8
8
8
8
8
8
8
8
8
8
8
8
8
8
8
8
8
8
8
8
8
8
8
8
8
8
8
8
8
8
8
CELL_DATA 256
VECTORS vector_value float
-1.13064 -2.0531 0
0.190037 -0.619253 0
0.750262 -0.906901 0
-0.399761 -1.1868 0
0.148418 -0.68001 0
-1.70629 -2.44907 0
-0.963869 -3.02595 0
0.0457965 -0.265605 0
0.699762 -1.16903 0
-0.987567 -1.9466 0
0.216103 -0.565443 0
0.111814 -0.264518 0
-1.03542 -3.01867 0
-0.582789 -0.490602 0
0.298513 -0.796793 0
-0.7896 -1.8214 0
-0.0175599 -1.69344 0
-1.51254 -1.76345 0
-0.459371 -1.89136 0
0.0308489 -0.488037 0
-0.753766 -1.09167 0
-0.153616 -1.08326 0
-0.197523 -1.12264 0
-1.23704 -1.22434 0
-1.1933 -2.37277 0
-0.125417 -1.18473 0
-2.14833 -2.15802 0
0.0581426 -0.39711 0
-0.160657 -0.818332 0
0.036416 -0.526366 0
-0.79038 -1.55051 0
-0.0782739 -0.800154 0
-0.06373 -0.657823 0
-1.73594 -2.23735 0
-0.935985 -1.89854 0
0.233924 -0.602859 0
0.0141889 -0.541036 0
0.0628621 -0.293822 0
-0.105483 -0.349737 0
-2.50321 -3.2185 0
-0.67693 -2.71553 0
0.666241 -1.18888 0
-0.731688 -1.42518 0
0.266165 -1.2719 0
0.614657 -0.835179 0
-0.029546 -0.482191 0
0.0308498 -0.631168 0
-0.329412 -1.85354 0
0.289836 -1.22049 0
-1.02682 -1.40585 0
0.0875944 -0.91788 0
-0.217998 -0.856925 0
-0.227173 -2.14329 0
-0.0258743 -0.298762 0
-1.55032 -3.0101 0
0.265972 -0.920652 0
0.408074 -0.74692 0
0.0481492 -0.550835 0
-0.577876 -2.07566 0
0.177487 -0.428925 0
0.191844 -0.40921 0
-1.45615 -1.87885 0
0.226993 -1.4866 0
0.115773 -0.793711 0
0.597216 -0.765775 0
0.391176 -0.454728 0
0.440666 -0.356825 0
0.441544 -0.467558 0
0.0232019 -0.494887 0
-0.261105 -0.871355 0
-0.527597 -0.823037 0
0.228075 -0.318175 0
0.143646 -0.272739 0
0.0979843 -0.848146 0
0.332468 -0.568353 0
-0.0294666 -0.706007 0
0.0662844 -1.0282 0
-0.436348 -2.09484 0
0.213905 -0.312041 0
0.119644 -0.673511 0
-0.82913 -1.55097 0
0.278607 -1.82613 0
0.147795 -0.866013 0
-0.029318 -1.22282 0
0.211991 -2.48231 0
-0.829511 -1.36274 0
0.0953858 -0.444049 0
-0.0112571 -2.50752 0
0.135075 -0.289914 0
0.275685 -0.566228 0
0.0593019 -0.625357 0
0.130669 -0.29945 0
0.183219 -0.451095 0
-0.0411482 -2.63529 0
0.0751077 -0.450165 0
0.234333 -0.544604 0
-0.068222 -1.16585 0
-0.032716 -0.430002 0
-1.07849 -0.771725 0
0.216816 -0.647357 0
-0.0102111 -0.617268 0
0.357596 -0.316519 0
0.279278 -0.355239 0
0.0178905 -2.48627 0
0.408976 -1.03512 0
0.253674 -0.445506 0
0.127919 -1.30016 0
-0.0591884 -0.454653 0
0.0711451 -0.441987 0
-0.0122251 -2.53154 0
-0.587014 -1.18858 0
0.0439084 -0.214413 0
0.311104 -0.484962 0
0.057102 -0.577251 0
0.171952 -0.514813 0
0.03019 -0.324745 0
0.319743 -0.822555 0
0.497631 -1.15451 0
-0.420304 -0.506952 0
0.288637 -0.498525 0
-0.287798 -1.3729 0
0.197766 -0.495953 0
-0.196182 -0.446109 0
-0.187822 -0.683166 0
-0.0250025 -0.623722 0
-0.736202 -0.798735 0
0.166535 -0.514167 0
0.049918 -0.581007 0
-1.2196 -2.44524 0
-0.439416 -1.77825 0
-0.132153 -0.94928 0
-0.0849077 -0.618822 0
-0.312247 -1.38116 0
-0.383777 -0.659693 0
-0.0158456 -0.362462 0
-0.729573 -0.8059 0
-0.00600719 -0.333456 0
-0.417115 -1.015 0
-0.0449814 -0.410187 0
0.0341273 -0.358895 0
-0.139994 -0.562224 0
0.00803415 -0.417406 0
-0.331264 -0.898495 0
0.0332117 -0.625474 0
-0.0756163 -0.530002 0
-0.011444 -0.427831 0
0.0869245 -0.591928 0
-0.851973 -1.14635 0
-0.0445455 -0.359467 0
-0.412001 -0.653222 0
0.0378856 -0.558824 0
-1.10566 -1.73765 0
-0.0107984 -0.523974 0
-0.148247 -0.365894 0
-0.0528204 -0.209026 0
0.114222 -0.564623 0
-0.463902 -1.69316 0
-0.25442 -0.511542 0
-0.0350778 -0.671586 0
-0.0433155 -0.333738 0
-1.48894 -2.28527 0
-0.565993 -1.31376 0
-0.075346 -0.478373 0
-0.145878 -0.473177 0
0.0317851 -0.194092 0
-0.0010423 -0.273116 0
0.0129104 -0.725662 0
-1.23408 -1.7567 0
0.0720909 -0.543692 0
-0.50777 -0.502411 0
-0.00793179 -0.318932 0
0.0579889 -0.335367 0
-0.0192973 -0.337865 0
-0.461005 -0.585207 0
0.0419063 -0.279086 0
0.0461122 -0.348092 0
-0.0960855 -0.586913 0
-0.518775 -1.16515 0
-0.436026 -0.829602 0
-0.00340999 -0.962425 0
-0.0563994 -0.484145 0
0.0859949 -0.141543 0
-0.164657 -0.452324 0
0.0345369 -0.246344 0
-0.97719 -1.55926 0
-0.276658 -2.04103 0
-0.691338 -0.994396 0
0.038562 -0.633963 0
0.0536832 -0.262224 0
-0.140444 -0.952661 0
0.024947 -0.172488 0
-0.209487 -0.490177 0
0.0344216 -1.04662 0
-0.211541 -1.27199 0
-0.370747 -0.875448 0
0.118176 -0.728611 0
-0.131411 -0.753404 0
0.130762 -0.903807 0
-0.691865 -1.63476 0
-0.0427662 -0.416732 0
0.033831 -0.348963 0
-0.551493 -1.62897 0
0.00652367 -0.63391 0
-0.436572 -0.702727 0
-0.506396 -2.71265 0
0.868436 -0.764737 0
0.194045 -1.04426 0
0.178466 -0.68717 0
-0.487826 -2.20047 0
-0.277656 -1.69788 0
-0.00338194 -0.626796 0
0.0427362 -1.31041 0
0.0170622 -0.930039 0
-0.393422 -1.05338 0
0.032987 -1.13222 0
0.866725 -1.28214 0
-0.318462 -0.990073 0
-0.200382 -1.00482 0
-0.432805 -2.22599 0
0.248397 -0.611753 0
0.0872391 -1.58129 0
0.026961 -1.22433 0
-0.588231 -1.24486 0
-0.198606 -0.874344 0
-0.159451 -1.19037 0
0.290638 -0.882555 0
0.0111457 -1.65387 0
-0.381326 -1.53988 0
0.257855 -0.713575 0
-0.0159786 -0.679128 0
-0.13465 -1.15501 0
0.426327 -0.80156 0
-0.152837 -0.63287 0
0.0589995 -1.22921 0
-0.200011 -1.55329 0
-0.0879211 -2.09277 0
0.236025 -0.758037 0
0.00932849 -0.871172 0
-0.156031 -1.95551 0
0.559918 -0.722654 0
0.159417 -1.36945 0
-0.28012 -1.70955 0
-0.32429 -0.600056 0
0.0456672 -1.07551 0
-0.305499 -1.43392 0
0.0580427 -1.41271 0
0.45869 -1.2398 0
-0.0946306 -1.2962 0
0.0929173 -1.43418 0
0.277265 -1.5049 0
-0.346539 -0.637065 0
0.110937 -1.97505 0
0.00282509 -0.790526 0
-0.147235 -0.948405 0
-0.0062067 -0.450383 0
-0.340456 -1.56219 0
