# vtk DataFile Version 2.0
Unstructured Grid by M++
ASCII
DATASET UNSTRUCTURED_GRID
POINTS 81 float
  1.000000   0.625000 0
  0.750000   0.375000 0
  1.000000   0.000000 0
  0.875000   0.875000 0
  0.750000   0.125000 0
  1.000000   1.000000 0
  0.875000   0.250000 0
  0.625000   0.875000 0
  1.000000   0.750000 0
  0.875000   0.000000 0
  1.000000   0.250000 0
  0.625000   0.375000 0
  0.875000   0.500000 0
  0.625000   0.625000 0
  1.000000   0.500000 0
  0.750000   0.500000 0
  0.750000   1.000000 0
  1.000000   0.125000 0
  0.625000   0.250000 0
  0.750000   0.750000 0
  0.625000   0.000000 0
  0.125000   0.375000 0
  0.000000   0.500000 0
  0.125000   0.625000 0
  0.625000   1.000000 0
  1.000000   0.875000 0
  0.875000   0.125000 0
  0.500000   0.250000 0
  0.625000   0.500000 0
  0.250000   0.625000 0
  0.000000   0.625000 0
  0.375000   0.500000 0
  0.375000   0.000000 0
  0.000000   0.125000 0
  0.125000   0.875000 0
  0.875000   1.000000 0
  0.750000   0.250000 0
  0.375000   0.375000 0
  0.250000   0.375000 0
  0.625000   0.750000 0
  0.125000   0.125000 0
  0.500000   0.000000 0
  0.250000   0.875000 0
  0.125000   0.500000 0
  0.500000   0.375000 0
  0.125000   0.000000 0
  0.250000   0.750000 0
  0.250000   0.500000 0
  0.000000   0.875000 0
  0.875000   0.625000 0
  0.500000   0.750000 0
  0.750000   0.625000 0
  0.250000   0.000000 0
  0.375000   0.750000 0
  0.750000   0.875000 0
  0.625000   0.125000 0
  0.250000   0.250000 0
  0.375000   1.000000 0
  0.375000   0.250000 0
  0.000000   0.375000 0
  0.500000   1.000000 0
  0.875000   0.750000 0
  0.750000   0.000000 0
  0.375000   0.125000 0
  0.500000   0.875000 0
  0.000000   0.000000 0
  0.125000   0.750000 0
  0.500000   0.625000 0
  0.125000   0.250000 0
  0.500000   0.125000 0
  0.250000   1.000000 0
  0.250000   0.125000 0
  0.000000   1.000000 0
  0.375000   0.875000 0
  0.000000   0.750000 0
  0.375000   0.625000 0
  0.000000   0.250000 0
  0.125000   1.000000 0
  1.000000   0.375000 0
  0.500000   0.500000 0
  0.875000   0.375000 0
CELLS 64 320
4 56 71 58 63
4 27 58 69 63
4 41 69 32 63
4 76 33 68 40
4 27 44 58 37
4 79 31 44 37
4 56 38 68 21
4 56 58 38 37
4 52 32 71 63
4 47 38 31 37
4 76 68 59 21
4 22 59 43 21
4 65 45 33 40
4 47 43 38 21
4 52 71 45 40
4 56 68 71 40
4 74 30 66 23
4 46 66 29 23
4 22 43 30 23
4 72 48 77 34
4 46 53 42 73
4 50 64 53 73
4 70 42 57 73
4 74 66 48 34
4 46 42 66 34
4 47 29 43 23
4 70 77 42 34
4 60 57 64 73
4 79 67 31 75
4 47 31 29 75
4 50 53 67 75
4 46 29 53 75
4 10 78 6 80
4 36 6 1 80
4 15 1 12 80
4 36 4 6 26
4 14 12 78 80
4 2 17 9 26
4 36 18 4 55
4 15 28 1 11
4 62 4 20 55
4 10 6 17 26
4 27 18 44 11
4 62 9 4 26
4 27 69 18 55
4 36 1 18 11
4 41 20 69 55
4 79 44 28 11
4 16 24 54 7
4 19 54 39 7
4 50 39 64 7
4 8 25 61 3
4 60 64 24 7
4 79 28 67 13
4 19 51 61 49
4 8 61 0 49
4 15 51 28 13
4 19 39 51 13
4 50 67 39 13
4 19 61 54 3
4 14 0 12 49
4 5 35 25 3
4 15 12 51 49
4 16 54 35 3
CELL_TYPES 64
8
8
8
8
8
8
8
8
8
8
8
8
8
8
8
8
8
8
8
8
8
8
8
8
8
8
8
8
8
8
8
8
8
8
8
8
8
8
8
8
8
8
8
8
8
8
8
8
8
8
8
8
8
8
8
8
8
8
8
8
8
8
8
8
CELL_DATA 64
VECTORS vector_value float
-0.463022 -0.551884 0
-0.999118 -0.552576 0
-0.363843 -0.435726 0
0.0885148 -0.519897 0
-0.199381 -0.194328 0
-0.494806 -0.187264 0
-0.236303 -0.401789 0
-0.15368 -0.153352 0
-0.35999 -1.1529 0
-0.400327 -0.159167 0
-0.051165 -0.516122 0
-0.153282 -0.347163 0
0.0396766 -0.296644 0
-0.263346 -0.232612 0
0.0441921 -0.919692 0
-0.0268778 -0.568055 0
-0.00346092 -0.0824296 0
-0.00378761 -0.280519 0
-0.0213393 -0.122799 0
0.451407 -0.388702 0
0.0797915 -0.21594 0
0.125012 -0.0318066 0
1.9808 -0.824934 0
0.00794033 -0.0845118 0
0.0263641 -0.293322 0
-0.0407207 -0.236063 0
1.25136 -0.797939 0
2.8288 -0.267096 0
-0.050218 -0.0890406 0
-0.0390888 -0.163127 0
0.00581543 -0.0537453 0
0.0027286 -0.14945 0
-0.0820085 -1.94217 0
-0.563543 -2.29777 0
-1.33792 -1.06425 0
1.21036 -2.11425 0
-1.13346 -3.77694 0
0.841162 -4.25537 0
0.109862 -0.554278 0
-0.614871 -0.935339 0
0.00813601 -0.136269 0
0.413278 -2.47731 0
-0.529726 -1.3383 0
0.271297 -0.619295 0
-0.525337 -0.661747 0
-0.222477 -1.15616 0
-0.0687506 -0.184099 0
-0.723152 -1.29726 0
3.06266 -1.50126 0
0.606727 -1.21823 0
0.56426 -1.02858 0
1.86195 -4.03372 0
2.96501 -0.966494 0
-0.100221 -0.724374 0
0.0393322 -0.50204 0
0.168494 -5.24916 0
-0.523994 -1.30711 0
0.0181114 -0.886865 0
0.00944427 -0.795791 0
1.35229 -1.09389 0
-0.417149 -5.1174 0
0.115614 -0.857938 0
-0.416229 -0.240093 0
2.55465 -2.39564 0
