# vtk DataFile Version 2.0
Unstructured Grid by M++
ASCII
DATASET UNSTRUCTURED_GRID
POINTS 81 float
  1.000000   0.625000 0
  0.750000   0.375000 0
  1.000000   0.000000 0
  0.875000   0.875000 0
  0.750000   0.125000 0
  1.000000   1.000000 0
  0.875000   0.250000 0
  0.625000   0.875000 0
  1.000000   0.750000 0
  0.875000   0.000000 0
  1.000000   0.250000 0
  0.625000   0.375000 0
  0.875000   0.500000 0
  0.625000   0.625000 0
  1.000000   0.500000 0
  0.750000   0.500000 0
  0.750000   1.000000 0
  1.000000   0.125000 0
  0.625000   0.250000 0
  0.750000   0.750000 0
  0.625000   0.000000 0
  0.125000   0.375000 0
  0.000000   0.500000 0
  0.125000   0.625000 0
  0.625000   1.000000 0
  1.000000   0.875000 0
  0.875000   0.125000 0
  0.500000   0.250000 0
  0.625000   0.500000 0
  0.250000   0.625000 0
  0.000000   0.625000 0
  0.375000   0.500000 0
  0.375000   0.000000 0
  0.000000   0.125000 0
  0.125000   0.875000 0
  0.875000   1.000000 0
  0.750000   0.250000 0
  0.375000   0.375000 0
  0.250000   0.375000 0
  0.625000   0.750000 0
  0.125000   0.125000 0
  0.500000   0.000000 0
  0.250000   0.875000 0
  0.125000   0.500000 0
  0.500000   0.375000 0
  0.125000   0.000000 0
  0.250000   0.750000 0
  0.250000   0.500000 0
  0.000000   0.875000 0
  0.875000   0.625000 0
  0.500000   0.750000 0
  0.750000   0.625000 0
  0.250000   0.000000 0
  0.375000   0.750000 0
  0.750000   0.875000 0
  0.625000   0.125000 0
  0.250000   0.250000 0
  0.375000   1.000000 0
  0.375000   0.250000 0
  0.000000   0.375000 0
  0.500000   1.000000 0
  0.875000   0.750000 0
  0.750000   0.000000 0
  0.375000   0.125000 0
  0.500000   0.875000 0
  0.000000   0.000000 0
  0.125000   0.750000 0
  0.500000   0.625000 0
  0.125000   0.250000 0
  0.500000   0.125000 0
  0.250000   1.000000 0
  0.250000   0.125000 0
  0.000000   1.000000 0
  0.375000   0.875000 0
  0.000000   0.750000 0
  0.375000   0.625000 0
  0.000000   0.250000 0
  0.125000   1.000000 0
  1.000000   0.375000 0
  0.500000   0.500000 0
  0.875000   0.375000 0
CELLS 64 320
4 56 71 58 63
4 27 58 69 63
4 41 69 32 63
4 76 33 68 40
4 27 44 58 37
4 79 31 44 37
4 56 38 68 21
4 56 58 38 37
4 52 32 71 63
4 47 38 31 37
4 76 68 59 21
4 22 59 43 21
4 65 45 33 40
4 47 43 38 21
4 52 71 45 40
4 56 68 71 40
4 74 30 66 23
4 46 66 29 23
4 22 43 30 23
4 72 48 77 34
4 46 53 42 73
4 50 64 53 73
4 70 42 57 73
4 74 66 48 34
4 46 42 66 34
4 47 29 43 23
4 70 77 42 34
4 60 57 64 73
4 79 67 31 75
4 47 31 29 75
4 50 53 67 75
4 46 29 53 75
4 10 78 6 80
4 36 6 1 80
4 15 1 12 80
4 36 4 6 26
4 14 12 78 80
4 2 17 9 26
4 36 18 4 55
4 15 28 1 11
4 62 4 20 55
4 10 6 17 26
4 27 18 44 11
4 62 9 4 26
4 27 69 18 55
4 36 1 18 11
4 41 20 69 55
4 79 44 28 11
4 16 24 54 7
4 19 54 39 7
4 50 39 64 7
4 8 25 61 3
4 60 64 24 7
4 79 28 67 13
4 19 51 61 49
4 8 61 0 49
4 15 51 28 13
4 19 39 51 13
4 50 67 39 13
4 19 61 54 3
4 14 0 12 49
4 5 35 25 3
4 15 12 51 49
4 16 54 35 3
CELL_TYPES 64
8
8
8
8
8
8
8
8
8
8
8
8
8
8
8
8
8
8
8
8
8
8
8
8
8
8
8
8
8
8
8
8
8
8
8
8
8
8
8
8
8
8
8
8
8
8
8
8
8
8
8
8
8
8
8
8
8
8
8
8
8
8
8
8
CELL_DATA 64
VECTORS vector_value float
-0.0317533 -0.132243 0
0.0317906 -0.554715 0
0.0705347 -0.277862 0
-0.023604 -0.293855 0
0.0855546 -0.49723 0
1.03319 -0.662496 0
-0.0708287 -0.629432 0
-0.0343641 -0.350151 0
-0.0625431 -0.118108 0
0.195741 -1.12239 0
-0.00609641 -0.226704 0
0.0237405 -0.26898 0
0.0447699 -0.214102 0
-0.0970257 -0.321951 0
0.0210087 -0.874445 0
-0.0880942 -0.722751 0
0.00885626 -0.263721 0
0.0167757 -0.260381 0
-0.00687203 -0.273616 0
0.344662 -0.452437 0
0.119085 -1.68691 0
-0.192869 -2.64072 0
0.957414 -1.29909 0
0.0149548 -0.288248 0
0.042242 -0.262932 0
-0.0192869 -0.261071 0
1.04739 -0.908013 0
-0.0742803 -1.94901 0
1.16769 -1.02748 0
0.615295 -2.3304 0
0.0445544 -1.81922 0
-0.416899 -2.52591 0
0.0503472 -0.189469 0
-0.0204274 -2.89792 0
0.216929 -2.24019 0
-0.0557821 -2.10147 0
-0.0434932 -0.196559 0
-0.0903331 -0.267621 0
-0.121969 -3.04447 0
1.23822 -2.15377 0
-0.0878173 -2.6642 0
0.0714516 -0.46131 0
0.151781 -0.874112 0
-0.0480309 -2.3814 0
0.0314771 -0.689184 0
-0.00585041 -2.33499 0
-0.0481858 -1.20226 0
1.57117 -1.03366 0
0.108903 -0.747068 0
-0.0129733 -0.859412 0
-0.00637809 -0.11446 0
-0.0369055 -0.429183 0
-0.418501 -0.411698 0
1.07366 -0.79773 0
0.0814906 -1.73498 0
0.0378639 -0.486058 0
0.261245 -0.994538 0
0.0867309 -0.834525 0
0.0512986 -0.0751988 0
-0.0915801 -1.71814 0
-0.123344 -0.500269 0
-0.246832 -0.729757 0
-0.0216787 -1.81489 0
-0.110604 -1.50292 0
