# vtk DataFile Version 2.0
Unstructured Grid by M++
ASCII
DATASET UNSTRUCTURED_GRID
POINTS 81 float
  1.000000   0.625000 0
  0.750000   0.375000 0
  1.000000   0.000000 0
  0.875000   0.875000 0
  0.750000   0.125000 0
  1.000000   1.000000 0
  0.875000   0.250000 0
  0.625000   0.875000 0
  1.000000   0.750000 0
  0.875000   0.000000 0
  1.000000   0.250000 0
  0.625000   0.375000 0
  0.875000   0.500000 0
  0.625000   0.625000 0
  1.000000   0.500000 0
  0.750000   0.500000 0
  0.750000   1.000000 0
  1.000000   0.125000 0
  0.625000   0.250000 0
  0.750000   0.750000 0
  0.625000   0.000000 0
  0.125000   0.375000 0
  0.000000   0.500000 0
  0.125000   0.625000 0
  0.625000   1.000000 0
  1.000000   0.875000 0
  0.875000   0.125000 0
  0.500000   0.250000 0
  0.625000   0.500000 0
  0.250000   0.625000 0
  0.000000   0.625000 0
  0.375000   0.500000 0
  0.375000   0.000000 0
  0.000000   0.125000 0
  0.125000   0.875000 0
  0.875000   1.000000 0
  0.750000   0.250000 0
  0.375000   0.375000 0
  0.250000   0.375000 0
  0.625000   0.750000 0
  0.125000   0.125000 0
  0.500000   0.000000 0
  0.250000   0.875000 0
  0.125000   0.500000 0
  0.500000   0.375000 0
  0.125000   0.000000 0
  0.250000   0.750000 0
  0.250000   0.500000 0
  0.000000   0.875000 0
  0.875000   0.625000 0
  0.500000   0.750000 0
  0.750000   0.625000 0
  0.250000   0.000000 0
  0.375000   0.750000 0
  0.750000   0.875000 0
  0.625000   0.125000 0
  0.250000   0.250000 0
  0.375000   1.000000 0
  0.375000   0.250000 0
  0.000000   0.375000 0
  0.500000   1.000000 0
  0.875000   0.750000 0
  0.750000   0.000000 0
  0.375000   0.125000 0
  0.500000   0.875000 0
  0.000000   0.000000 0
  0.125000   0.750000 0
  0.500000   0.625000 0
  0.125000   0.250000 0
  0.500000   0.125000 0
  0.250000   1.000000 0
  0.250000   0.125000 0
  0.000000   1.000000 0
  0.375000   0.875000 0
  0.000000   0.750000 0
  0.375000   0.625000 0
  0.000000   0.250000 0
  0.125000   1.000000 0
  1.000000   0.375000 0
  0.500000   0.500000 0
  0.875000   0.375000 0
CELLS 64 320
4 56 71 58 63
4 27 58 69 63
4 41 69 32 63
4 76 33 68 40
4 27 44 58 37
4 79 31 44 37
4 56 38 68 21
4 56 58 38 37
4 52 32 71 63
4 47 38 31 37
4 76 68 59 21
4 22 59 43 21
4 65 45 33 40
4 47 43 38 21
4 52 71 45 40
4 56 68 71 40
4 74 30 66 23
4 46 66 29 23
4 22 43 30 23
4 72 48 77 34
4 46 53 42 73
4 50 64 53 73
4 70 42 57 73
4 74 66 48 34
4 46 42 66 34
4 47 29 43 23
4 70 77 42 34
4 60 57 64 73
4 79 67 31 75
4 47 31 29 75
4 50 53 67 75
4 46 29 53 75
4 10 78 6 80
4 36 6 1 80
4 15 1 12 80
4 36 4 6 26
4 14 12 78 80
4 2 17 9 26
4 36 18 4 55
4 15 28 1 11
4 62 4 20 55
4 10 6 17 26
4 27 18 44 11
4 62 9 4 26
4 27 69 18 55
4 36 1 18 11
4 41 20 69 55
4 79 44 28 11
4 16 24 54 7
4 19 54 39 7
4 50 39 64 7
4 8 25 61 3
4 60 64 24 7
4 79 28 67 13
4 19 51 61 49
4 8 61 0 49
4 15 51 28 13
4 19 39 51 13
4 50 67 39 13
4 19 61 54 3
4 14 0 12 49
4 5 35 25 3
4 15 12 51 49
4 16 54 35 3
CELL_TYPES 64
8
8
8
8
8
8
8
8
8
8
8
8
8
8
8
8
8
8
8
8
8
8
8
8
8
8
8
8
8
8
8
8
8
8
8
8
8
8
8
8
8
8
8
8
8
8
8
8
8
8
8
8
8
8
8
8
8
8
8
8
8
8
8
8
CELL_DATA 64
VECTORS vector_value float
-1.49358 -2.68651 0
-2.12228 -0.519646 0
-0.34581 -0.429227 0
0.150898 -0.857579 0
-0.969697 -0.489627 0
-0.103809 -0.5034 0
0.230571 -0.63419 0
-0.233275 -1.8503 0
-1.13915 -2.14106 0
-0.160213 -0.591755 0
-0.0135016 -1.08131 0
0.0743631 -1.05118 0
0.115182 -0.566407 0
0.204258 -1.26478 0
-0.838524 -3.67718 0
-0.332188 -1.49214 0
-0.249418 -1.13869 0
-0.0961678 -0.798408 0
0.0331478 -1.4851 0
0.302477 -0.548088 0
0.521589 -1.23508 0
0.103991 -0.570111 0
-0.698221 -1.21986 0
-0.177154 -0.444867 0
-0.0504593 -2.06439 0
-0.194098 -0.651235 0
0.0318555 -1.8467 0
-0.532059 -0.600638 0
0.0984147 -0.826115 0
-0.100454 -0.502384 0
0.714344 -0.997504 0
0.299328 -0.9934 0
-0.415237 -1.14154 0
-1.53001 -0.927705 0
-0.454546 -1.01625 0
-0.309174 -0.332525 0
-0.382194 -2.24734 0
-0.0122142 -0.338918 0
-0.580832 -0.337249 0
-0.264609 -0.648219 0
-0.0949415 -0.224126 0
-0.171598 -0.559156 0
-1.06308 -0.89997 0
-0.066055 -0.285493 0
-1.9658 -1.2152 0
-1.98468 -0.975352 0
-0.0915784 -0.337583 0
-0.135226 -0.67707 0
-0.0689234 -0.46287 0
0.763555 -0.648409 0
0.206539 -0.390247 0
0.225657 -1.87039 0
-0.157759 -1.13386 0
0.322886 -0.759417 0
0.443413 -1.21511 0
0.0680542 -2.10325 0
0.112399 -0.260092 0
0.338687 -0.206498 0
0.386084 -0.547145 0
0.488646 -0.776505 0
0.0974903 -2.12771 0
0.257465 -1.42605 0
0.0244376 -1.38794 0
0.37394 -0.761927 0
