# vtk DataFile Version 2.0
Unstructured Grid by M++
ASCII
DATASET UNSTRUCTURED_GRID
POINTS 81 float
  1.000000   0.625000 0
  0.750000   0.375000 0
  1.000000   0.000000 0
  0.875000   0.875000 0
  0.750000   0.125000 0
  1.000000   1.000000 0
  0.875000   0.250000 0
  0.625000   0.875000 0
  1.000000   0.750000 0
  0.875000   0.000000 0
  1.000000   0.250000 0
  0.625000   0.375000 0
  0.875000   0.500000 0
  0.625000   0.625000 0
  1.000000   0.500000 0
  0.750000   0.500000 0
  0.750000   1.000000 0
  1.000000   0.125000 0
  0.625000   0.250000 0
  0.750000   0.750000 0
  0.625000   0.000000 0
  0.125000   0.375000 0
  0.000000   0.500000 0
  0.125000   0.625000 0
  0.625000   1.000000 0
  1.000000   0.875000 0
  0.875000   0.125000 0
  0.500000   0.250000 0
  0.625000   0.500000 0
  0.250000   0.625000 0
  0.000000   0.625000 0
  0.375000   0.500000 0
  0.375000   0.000000 0
  0.000000   0.125000 0
  0.125000   0.875000 0
  0.875000   1.000000 0
  0.750000   0.250000 0
  0.375000   0.375000 0
  0.250000   0.375000 0
  0.625000   0.750000 0
  0.125000   0.125000 0
  0.500000   0.000000 0
  0.250000   0.875000 0
  0.125000   0.500000 0
  0.500000   0.375000 0
  0.125000   0.000000 0
  0.250000   0.750000 0
  0.250000   0.500000 0
  0.000000   0.875000 0
  0.875000   0.625000 0
  0.500000   0.750000 0
  0.750000   0.625000 0
  0.250000   0.000000 0
  0.375000   0.750000 0
  0.750000   0.875000 0
  0.625000   0.125000 0
  0.250000   0.250000 0
  0.375000   1.000000 0
  0.375000   0.250000 0
  0.000000   0.375000 0
  0.500000   1.000000 0
  0.875000   0.750000 0
  0.750000   0.000000 0
  0.375000   0.125000 0
  0.500000   0.875000 0
  0.000000   0.000000 0
  0.125000   0.750000 0
  0.500000   0.625000 0
  0.125000   0.250000 0
  0.500000   0.125000 0
  0.250000   1.000000 0
  0.250000   0.125000 0
  0.000000   1.000000 0
  0.375000   0.875000 0
  0.000000   0.750000 0
  0.375000   0.625000 0
  0.000000   0.250000 0
  0.125000   1.000000 0
  1.000000   0.375000 0
  0.500000   0.500000 0
  0.875000   0.375000 0
CELLS 64 320
4 56 71 58 63
4 27 58 69 63
4 41 69 32 63
4 76 33 68 40
4 27 44 58 37
4 79 31 44 37
4 56 38 68 21
4 56 58 38 37
4 52 32 71 63
4 47 38 31 37
4 76 68 59 21
4 22 59 43 21
4 65 45 33 40
4 47 43 38 21
4 52 71 45 40
4 56 68 71 40
4 74 30 66 23
4 46 66 29 23
4 22 43 30 23
4 72 48 77 34
4 46 53 42 73
4 50 64 53 73
4 70 42 57 73
4 74 66 48 34
4 46 42 66 34
4 47 29 43 23
4 70 77 42 34
4 60 57 64 73
4 79 67 31 75
4 47 31 29 75
4 50 53 67 75
4 46 29 53 75
4 10 78 6 80
4 36 6 1 80
4 15 1 12 80
4 36 4 6 26
4 14 12 78 80
4 2 17 9 26
4 36 18 4 55
4 15 28 1 11
4 62 4 20 55
4 10 6 17 26
4 27 18 44 11
4 62 9 4 26
4 27 69 18 55
4 36 1 18 11
4 41 20 69 55
4 79 44 28 11
4 16 24 54 7
4 19 54 39 7
4 50 39 64 7
4 8 25 61 3
4 60 64 24 7
4 79 28 67 13
4 19 51 61 49
4 8 61 0 49
4 15 51 28 13
4 19 39 51 13
4 50 67 39 13
4 19 61 54 3
4 14 0 12 49
4 5 35 25 3
4 15 12 51 49
4 16 54 35 3
CELL_TYPES 64
8
8
8
8
8
8
8
8
8
8
8
8
8
8
8
8
8
8
8
8
8
8
8
8
8
8
8
8
8
8
8
8
8
8
8
8
8
8
8
8
8
8
8
8
8
8
8
8
8
8
8
8
8
8
8
8
8
8
8
8
8
8
8
8
CELL_DATA 64
VECTORS vector_value float
-0.600309 -0.842478 0
-0.238933 -0.374121 0
-0.0267094 -0.06356 0
0.344289 -1.80236 0
-1.2148 -1.04629 0
-0.824214 -0.806161 0
-0.49642 -2.21053 0
-1.39806 -1.44151 0
-0.0995636 -1.04277 0
-0.943485 -1.77256 0
0.1445 -2.29374 0
0.090061 -2.58212 0
0.0551578 -1.37432 0
-0.200324 -0.660556 0
0.115453 -4.91905 0
-0.388547 -4.37101 0
-0.112322 -2.55926 0
-0.108485 -0.197237 0
0.00252096 -2.70783 0
-0.529285 -1.68502 0
-0.0143076 -0.129204 0
0.0481723 -0.0960997 0
-0.334242 -0.75215 0
-0.172889 -2.32327 0
-0.204735 -0.45779 0
-0.136522 -0.150417 0
-0.895023 -0.646306 0
0.496005 -0.238034 0
-1.65199 -0.838352 0
-0.875152 -0.929498 0
-0.459896 -0.47941 0
-0.0662261 -0.226153 0
-0.0318005 -0.30676 0
-0.11839 -0.211406 0
-0.637287 -0.760566 0
-0.0394259 -0.158996 0
-0.106213 -0.449045 0
-0.012582 -0.187705 0
-0.00811707 -0.103069 0
-1.25004 -0.455407 0
-0.00978581 -0.182904 0
-0.0340338 -0.26337 0
-0.561915 -0.21716 0
-0.0402502 -0.18291 0
-0.0124715 -0.0845921 0
-0.364646 -0.272607 0
0.00569124 -0.0467857 0
-1.33959 -0.513584 0
0.840004 -1.38747 0
0.106055 -1.71634 0
-0.0262961 -0.644329 0
-0.0740774 -0.42492 0
1.06621 -0.927658 0
-1.31905 -0.613538 0
-0.0979247 -2.27566 0
0.021023 -0.314537 0
-0.590115 -0.662103 0
-0.762915 -1.33931 0
-0.734722 -0.608437 0
-0.0349066 -2.20804 0
0.079315 -0.591141 0
-0.249876 -0.710241 0
-0.297991 -1.50712 0
0.0386266 -1.65312 0
