# vtk DataFile Version 2.0
Unstructured Grid by M++
ASCII
DATASET UNSTRUCTURED_GRID
POINTS 16641 float
  0.703125   0.781250 0
  0.632812   0.828125 0
  0.640625   0.835938 0
  0.640625   0.804688 0
  0.648438   0.812500 0
  0.625000   0.820312 0
  0.789062   0.929688 0
  0.796875   0.937500 0
  0.664062   0.945312 0
  0.664062   0.953125 0
  0.664062   0.968750 0
  0.671875   0.960938 0
  0.679688   0.960938 0
  0.679688   0.968750 0
  0.671875   0.953125 0
  0.914062   0.945312 0
  0.914062   0.968750 0
  0.914062   0.960938 0
  0.921875   0.968750 0
  0.929688   0.960938 0
  0.921875   0.945312 0
  0.921875   0.953125 0
  0.929688   0.953125 0
  0.820312   0.898438 0
  0.750000   0.945312 0
  0.570312   0.898438 0
  0.578125   0.898438 0
  0.585938   0.898438 0
  0.523438   0.953125 0
  0.585938   0.890625 0
  0.585938   0.882812 0
  0.515625   0.945312 0
  0.523438   0.945312 0
  0.515625   0.937500 0
  0.570312   0.890625 0
  0.578125   0.890625 0
  0.578125   0.882812 0
  0.570312   0.882812 0
  0.507812   0.937500 0
  0.507812   0.929688 0
  0.976562   0.882812 0
  0.992188   0.898438 0
  0.984375   0.890625 0
  0.968750   0.820312 0
  0.976562   0.828125 0
  0.992188   0.812500 0
  1.000000   0.820312 0
  0.656250   0.960938 0
  0.648438   0.953125 0
  0.640625   0.945312 0
  0.882812   0.968750 0
  0.882812   0.960938 0
  0.890625   0.968750 0
  0.906250   0.960938 0
  0.898438   0.953125 0
  0.906250   0.953125 0
  0.898438   0.945312 0
  0.906250   0.945312 0
  0.882812   0.953125 0
  0.890625   0.953125 0
  0.890625   0.945312 0
  0.882812   0.945312 0
  0.539062   0.695312 0
  0.539062   0.718750 0
  0.531250   0.710938 0
  0.554688   0.710938 0
  0.546875   0.703125 0
  0.570312   0.585938 0
  0.578125   0.585938 0
  0.585938   0.578125 0
  0.585938   0.570312 0
  0.570312   0.578125 0
  0.578125   0.570312 0
  0.757812   0.835938 0
  0.929688   0.968750 0
  0.960938   0.929688 0
  0.960938   0.921875 0
  0.953125   0.914062 0
  0.953125   0.921875 0
  0.601562   0.679688 0
  0.835938   0.976562 0
  0.898438   0.718750 0
  0.835938   0.968750 0
  0.593750   0.906250 0
  0.664062   0.914062 0
  0.601562   0.914062 0
  0.609375   0.921875 0
  0.679688   0.929688 0
  0.679688   0.937500 0
  0.796875   0.968750 0
  0.726562   0.945312 0
  0.742188   0.945312 0
  0.726562   0.890625 0
  0.734375   0.898438 0
  0.742188   0.960938 0
  0.734375   0.960938 0
  0.734375   0.953125 0
  0.726562   0.953125 0
  0.523438   0.820312 0
  0.523438   0.828125 0
  0.640625   0.953125 0
  0.984375   0.664062 0
  0.632812   0.953125 0
  0.921875   0.914062 0
  0.914062   0.906250 0
  0.671875   0.929688 0
  0.671875   0.921875 0
  0.664062   0.921875 0
  0.554688   0.945312 0
  0.914062   0.937500 0
  0.718750   0.882812 0
  0.507812   0.867188 0
  0.570312   0.617188 0
  0.742188   0.968750 0
  0.726562   0.976562 0
  0.726562   0.984375 0
  0.562500   0.898438 0
  0.734375   0.984375 0
  0.734375   0.992188 0
  0.742188   0.992188 0
  0.742188   1.000000 0
  0.742188   0.937500 0
  0.734375   0.937500 0
  0.734375   0.929688 0
  0.726562   0.921875 0
  0.726562   0.929688 0
  0.679688   0.843750 0
  0.921875   0.960938 0
  0.914062   0.953125 0
  0.687500   0.851562 0
  0.562500   0.984375 0
  0.554688   0.984375 0
  0.632812   0.937500 0
  0.625000   0.929688 0
  0.554688   0.921875 0
  0.585938   0.984375 0
  0.648438   0.929688 0
  0.656250   0.937500 0
  0.578125   0.914062 0
  0.585938   0.921875 0
  0.578125   0.921875 0
  0.906250   0.929688 0
  0.898438   0.929688 0
  0.898438   0.937500 0
  0.906250   0.937500 0
  0.554688   0.679688 0
  0.554688   0.687500 0
  0.554688   0.976562 0
  0.570312   0.914062 0
  0.570312   0.906250 0
  0.562500   0.906250 0
  0.531250   0.664062 0
  0.539062   0.664062 0
  0.804688   0.976562 0
  0.890625   0.937500 0
  0.890625   0.929688 0
  0.882812   0.921875 0
  0.875000   0.921875 0
  0.882812   0.937500 0
  0.882812   0.929688 0
  0.875000   0.929688 0
  0.546875   0.679688 0
  0.539062   0.671875 0
  0.531250   0.687500 0
  0.539062   0.617188 0
  0.546875   0.671875 0
  0.554688   0.601562 0
  0.742188   0.906250 0
  0.570312   0.968750 0
  0.578125   0.976562 0
  0.585938   0.976562 0
  0.578125   0.968750 0
  0.640625   0.921875 0
  0.828125   0.968750 0
  0.539062   0.929688 0
  0.890625   0.921875 0
  0.898438   0.921875 0
  0.906250   0.921875 0
  0.945312   1.000000 0
  0.945312   0.992188 0
  0.937500   0.992188 0
  0.953125   0.992188 0
  0.953125   1.000000 0
  0.960938   0.992188 0
  0.960938   1.000000 0
  0.710938   0.992188 0
  0.710938   1.000000 0
  0.718750   1.000000 0
  0.960938   0.984375 0
  0.960938   0.976562 0
  0.539062   0.703125 0
  0.718750   0.976562 0
  0.539062   0.875000 0
  0.695312   0.859375 0
  0.703125   0.867188 0
  0.937500   0.984375 0
  0.945312   0.984375 0
  0.953125   0.984375 0
  0.953125   0.976562 0
  0.937500   0.976562 0
  0.945312   0.976562 0
  0.687500   0.976562 0
  0.695312   0.976562 0
  0.882812   0.562500 0
  0.703125   1.000000 0
  0.703125   0.992188 0
  0.703125   0.984375 0
  0.695312   0.984375 0
  0.523438   0.835938 0
  0.867188   0.546875 0
  0.687500   0.984375 0
  0.695312   1.000000 0
  0.687500   0.992188 0
  0.687500   1.000000 0
  0.585938   0.648438 0
  0.523438   0.898438 0
  0.554688   0.898438 0
  0.835938   0.914062 0
  0.539062   0.882812 0
  0.882812   0.593750 0
  0.750000   0.921875 0
  0.820312   0.937500 0
  0.820312   0.929688 0
  0.914062   0.921875 0
  0.750000   0.773438 0
  0.914062   0.929688 0
  0.632812   0.960938 0
  0.843750   0.976562 0
  0.812500   0.523438 0
  0.843750   0.984375 0
  0.523438   0.632812 0
  0.703125   0.812500 0
  0.648438   0.960938 0
  0.992188   0.671875 0
  0.640625   0.960938 0
  0.929688   0.921875 0
  0.921875   0.921875 0
  0.757812   0.781250 0
  0.921875   0.929688 0
  0.921875   0.937500 0
  0.937500   0.929688 0
  0.929688   0.929688 0
  0.765625   0.757812 0
  0.695312   0.804688 0
  0.812500   0.953125 0
  0.648438   0.898438 0
  0.656250   0.906250 0
  0.820312   1.000000 0
  0.820312   0.992188 0
  0.820312   0.960938 0
  0.906250   0.898438 0
  0.554688   0.648438 0
  0.554688   0.656250 0
  0.578125   0.945312 0
  0.882812   0.734375 0
  0.820312   0.984375 0
  0.960938   0.640625 0
  0.828125   0.937500 0
  0.898438   0.890625 0
  0.554688   0.640625 0
  0.554688   0.632812 0
  0.570312   0.937500 0
  0.562500   0.929688 0
  0.632812   0.882812 0
  0.867188   0.718750 0
  0.875000   0.726562 0
  0.804688   0.968750 0
  0.812500   0.976562 0
  0.562500   0.875000 0
  0.804688   0.945312 0
  0.812500   0.945312 0
  0.953125   0.632812 0
  0.945312   0.625000 0
  0.890625   0.882812 0
  0.882812   0.875000 0
  0.546875   0.632812 0
  0.531250   0.632812 0
  0.539062   0.632812 0
  0.539062   0.625000 0
  0.546875   0.656250 0
  0.546875   0.648438 0
  0.546875   0.640625 0
  0.539062   0.640625 0
  0.531250   0.640625 0
  0.539062   0.656250 0
  0.539062   0.648438 0
  0.531250   0.648438 0
  0.531250   0.656250 0
  0.843750   0.921875 0
  0.835938   0.921875 0
  0.843750   0.929688 0
  0.609375   0.890625 0
  0.851562   0.992188 0
  0.726562   0.835938 0
  0.585938   0.656250 0
  0.585938   0.664062 0
  0.523438   0.906250 0
  0.796875   0.960938 0
  0.789062   0.960938 0
  0.609375   0.648438 0
  0.601562   0.640625 0
  0.601562   0.648438 0
  0.593750   0.648438 0
  0.546875   0.898438 0
  0.539062   0.890625 0
  0.750000   0.914062 0
  0.539062   0.898438 0
  0.531250   0.898438 0
  0.828125   0.976562 0
  0.664062   0.828125 0
  0.726562   0.578125 0
  0.601562   0.882812 0
  0.593750   0.875000 0
  0.734375   0.585938 0
  0.890625   0.742188 0
  0.742188   0.593750 0
  0.671875   0.835938 0
  0.835938   0.984375 0
  0.828125   0.984375 0
  0.828125   0.992188 0
  0.828125   1.000000 0
  0.843750   0.992188 0
  0.835938   0.992188 0
  0.835938   1.000000 0
  0.843750   1.000000 0
  0.570312   0.742188 0
  0.562500   0.742188 0
  0.507812   1.000000 0
  0.546875   0.664062 0
  0.898438   0.804688 0
  0.554688   0.671875 0
  0.890625   0.960938 0
  0.554688   0.664062 0
  0.757812   0.960938 0
  0.507812   0.960938 0
  0.578125   0.648438 0
  0.570312   0.648438 0
  0.562500   0.648438 0
  0.515625   0.898438 0
  0.507812   0.898438 0
  0.523438   0.765625 0
  0.585938   0.515625 0
  0.875000   0.960938 0
  0.898438   0.960938 0
  0.734375   0.812500 0
  0.898438   0.968750 0
  0.750000   0.828125 0
  0.906250   0.968750 0
  0.742188   0.820312 0
  0.507812   0.992188 0
  0.851562   0.703125 0
  0.789062   0.953125 0
  0.867188   0.773438 0
  0.710938   0.593750 0
  0.812500   0.984375 0
  0.812500   0.992188 0
  0.804688   1.000000 0
  0.570312   0.960938 0
  0.562500   0.960938 0
  0.562500   0.953125 0
  0.554688   0.953125 0
  0.640625   0.890625 0
  0.617188   0.742188 0
  0.796875   1.000000 0
  0.796875   0.992188 0
  0.789062   0.992188 0
  0.609375   0.742188 0
  0.687500   0.570312 0
  0.789062   0.984375 0
  0.601562   0.734375 0
  0.593750   0.726562 0
  0.601562   0.726562 0
  0.539062   0.976562 0
  0.867188   0.804688 0
  0.750000   0.953125 0
  0.757812   0.953125 0
  0.570312   0.703125 0
  0.562500   0.695312 0
  0.570312   0.695312 0
  0.687500   0.945312 0
  0.695312   0.945312 0
  0.773438   0.945312 0
  0.781250   0.945312 0
  0.695312   0.921875 0
  0.703125   0.921875 0
  0.585938   0.640625 0
  0.593750   0.640625 0
  0.585938   0.632812 0
  0.593750   0.632812 0
  0.523438   0.890625 0
  0.531250   0.890625 0
  0.523438   0.882812 0
  0.531250   0.882812 0
  0.781250   0.953125 0
  0.765625   0.960938 0
  0.578125   0.703125 0
  0.578125   0.710938 0
  0.585938   0.710938 0
  0.585938   0.718750 0
  0.851562   0.789062 0
  0.710938   0.960938 0
  0.710938   0.968750 0
  0.718750   0.968750 0
  0.562500   0.734375 0
  0.570312   0.734375 0
  0.570312   0.726562 0
  0.562500   0.718750 0
  0.843750   0.695312 0
  0.507812   0.984375 0
  0.578125   0.734375 0
  0.578125   0.742188 0
  0.585938   0.742188 0
[...]
CELL_DATA 16384
SCALARS scalar_value float 1
LOOKUP_TABLE default
2.93166
2.83828
2.42371
2.64931
3.09567
3.0857
3.25693
3.42205
2.46446
2.86546
2.98432
2.68871
2.87932
2.71422
2.40206
2.41827
2.96057
2.81156
2.97991
3.31502
2.58187
2.82799
2.80797
2.73488
2.22144
2.61025
2.55993
2.26955
2.75634
2.29618
2.17154
2.8009
2.45605
2.22183
2.75666
2.94451
1.70997
2.0626
2.00133
1.57992
1.85751
2.02761
1.85227
1.90834
3.27347
3.929
4.21289
3.24439
4.05
3.80755
5.37901
4.68332
4.30668
4.56397
5.6094
5.21878
5.95527
6.30084
1.84744
1.90636
2.17737
2.06705
1.42143
1.66151
1.65282
1.38017
1.87788
1.83493
1.54349
1.61429
2.43648
2.02235
2.24784
2.48358
2.66874
2.60731
2.44431
2.61205
3.17894
2.79756
2.95513
3.21779
2.39684
2.80159
2.94095
2.79367
2.23755
2.50318
2.07313
2.02847
4.4365
4.30919
4.45963
1.37824
1.38014
1.28827
1.3512
4.55816
4.57094
4.32966
1.23145
1.38565
1.36053
1.27123
4.65221
4.75898
5.09956
1.16883
1.28788
1.17538
1.15471
4.37339
1.2261
1.34201
1.24289
1.20085
1.52474
1.62799
1.42799
1.54778
1.58451
1.42641
1.97697
1.72761
1.63121
1.95868
1.81255
1.99776
2.02924
3.90195
3.86529
3.62729
3.62586
4.06405
3.99253
4.19973
3.99771
4.28989
3.98566
4.24946
3.67111
3.96187
4.0326
3.68105
4.04088
3.46159
3.36899
3.23628
3.47458
3.66866
3.33552
2.68052
3.25852
3.03656
2.77936
2.84631
3.19154
2.55983
1.92076
3.76696
3.81584
3.88986
1.72715
1.80371
2.02612
3.72814
3.92658
3.80813
1.44457
3.85067
3.75843
3.60082
1.53091
1.47208
1.48013
3.79203
0.8594
1.01524
1.06285
0.908017
0.882041
0.947853
0.812978
0.784281
1.18669
1.10609
1.00605
1.09077
1.26882
1.18893
1.34343
1.40583
3.50488
3.46435
2.04591
1.6029
1.48679
1.84759
3.48199
3.25371
3.03125
1.73085
1.72909
2.18948
2.25682
3.5828
1.16109
1.37393
1.34307
4.01994
3.68653
3.88646
3.80694
3.58096
3.45166
1.19054
1.27297
1.04055
0.95861
3.61609
3.77592
3.76666
0.548921
0.566897
3.90198
0.704175
0.598228
0.715574
4.34613
4.00349
4.28763
0.577565
0.671242
3.9381
0.546805
0.530742
0.58171
0.627283
4.84388
4.85733
5.22248
4.24447
4.02244
4.07273
3.71595
3.59998
4.44108
4.57471
4.2635
4.35342
4.26947
4.72275
3.91413
3.79395
3.70621
4.39662
4.22279
4.08656
2.69331
2.71333
3.18922
2.46891
2.73499
2.76142
2.21342
2.30848
2.03776
2.40241
4.03685
3.81515
4.3729
4.23275
2.72599
3.32477
3.38826
2.77518
2.78472
3.12227
2.67867
2.52848
4.33882
3.64106
3.28305
3.8039
1.5606
1.71438
1.74662
3.35573
3.72817
3.34103
3.05353
3.17247
3.90079
3.36549
3.76101
3.25292
3.19051
3.20418
3.08138
3.22257
3.14834
3.49804
1.79744
3.33854
4.25608
4.99161
1.50862
3.14948
3.48237
1.84582
3.43406
1.54366
3.00298
4.63796
0.365448
2.99149
1.60441
3.57287
2.70637
3.27049
2.2722
3.18389
2.8393
0.805722
3.69944
2.81064
0.874419
0.955657
1.15007
0.773741
2.8641
5.04511
0.689408
2.3221
0.826898
1.78158
2.02786
3.48411
3.01669
0.79182
2.39513
0.676741
0.768007
0.686341
0.725835
0.709366
0.676596
2.95424
4.66199
0.635307
1.25624
1.66094
1.19169
1.78126
2.89694
2.09752
1.52821
4.02089
4.06134
1.27444
1.11014
2.50018
2.25446
0.964682
1.89346
0.899078
0.803573
1.97737
2.04522
3.62944
2.44743
2.52554
3.94626
1.7095
0.989043
3.92125
0.978211
0.968556
1.09379
0.967553
2.59942
2.07643
1.49666
4.14349
1.28084
4.09016
1.49985
4.35116
1.50078
2.22128
1.90227
4.23994
3.69929
1.86133
1.0457
4.39336
3.05358
1.42492
3.32167
1.07317
2.28097
3.8572
2.28499
3.48026
1.84851
0.559224
1.79108
1.95153
0.607869
2.03774
4.31595
2.54112
2.76198
2.29035
2.5257
1.87783
0.562346
1.73572
1.85515
0.625132
1.66782
1.81844
0.557741
1.70326
1.57557
0.377327
1.90969
2.28721
4.32246
2.86149
2.94806
2.59582
1.14653
0.935529
1.96408
2.33529
3.48385
1.89583
4.14566
2.64508
2.96226
2.88318
2.82945
2.9668
3.21736
2.45566
5.21849
5.64049
5.55622
2.14202
1.7323
2.57655
1.88962
2.52612
2.34313
2.71731
2.8422
2.58631
2.50654
2.42873
3.67005
1.0743
2.89198
2.35603
1.28464
1.46852
1.37879
2.36473
0.971659
1.74451
1.23698
2.03308
1.17718
1.25923
1.17821
4.21893
5.54694
0.925772
5.43808
1.03455
5.72075
0.798731
0.615003
5.28016
5.29519
5.05681
0.839042
1.08024
2.97345
4.95457
0.863706
3.22714
0.78052
3.0399
2.88869
0.797251
1.53285
1.2853
0.697529
1.38498
0.741333
0.805709
0.946817
1.02406
1.0461
2.09698
0.822953
1.34452
0.930617
1.31585
0.881105
1.25683
0.984139
0.3929
2.79947
0.889515
2.91949
0.926436
1.14948
0.615597
1.02147
0.602548
1.11449
0.601991
2.49134
0.70636
2.36869
0.745969
0.450029
0.586946
0.860532
0.758551
3.4173
7.40885
6.25036
7.98286
1.60901
0.454585
0.426073
0.421569
0.489266
0.440502
0.901412
5.01732
0.854504
6.86602
5.69075
0.532596
2.32032
2.30898
0.641766
3.70692
2.16092
4.39104
1.97861
4.36664
2.53421
2.56815
4.93753
2.57334
0.877186
4.66039
2.09155
0.58589
2.35088
1.90364
3.30037
0.895558
0.577725
4.31437
0.939028
0.567975
0.810146
0.800979
0.764983
0.561578
3.98625
1.40411
1.54836
1.01005
4.13023
3.95536
3.58745
1.62274
3.15438
5.37519
1.02757
1.91868
0.858052
1.79439
0.873911
3.20236
3.052
3.13504
2.38243
1.89426
1.38089
1.79726
1.13222
3.22773
1.08418
3.0207
3.48289
3.17019
1.68293
1.22149
3.33278
3.56118
0.852226
3.30432
3.34212
3.84296
1.70979
4.14684
3.59492
1.85668
1.78102
2.66972
0.987871
4.72668
2.91327
0.474469
0.751111
0.667171
3.85312
7.38895
7.5085
6.8092
7.47804
2.47417
0.400277
0.886579
2.54906
1.23881
0.831627
0.603834
0.775059
6.91188
5.02576
1.95618
2.01258
1.8844
0.364612
2.21072
2.18146
1.33871
2.00691
2.08943
3.25853
1.88874
2.85818
0.450803
3.16916
1.71385
2.96883
1.66909
1.76603
3.00034
2.5069
1.65653
2.5036
0.488096
2.59994
1.77854
2.78371
0.498185
3.0522
0.545659
1.73651
1.44852
5.29138
2.95614
2.79206
2.90276
0.445428
2.86505
2.17052
1.62501
2.36499
3.75181
1.7398
3.58728
0.507101
3.77111
1.80689
1.79644
2.45139
1.89095
2.64917
0.898832
0.856941
2.02037
2.93269
0.873006
0.711167
0.453109
3.21795
0.483322
0.441372
2.18402
1.50601
1.69437
2.53965
1.73981
0.59331
2.46127
1.86812
2.97516
2.94076
3.83576
3.02866
2.99729
0.49739
2.87187
1.81928
3.26534
1.87386
0.601671
1.83724
1.88001
2.26703
1.47535
1.55064
0.636543
0.971972
1.46488
0.587984
4.97554
0.831985
5.88291
6.20174
5.30286
5.44814
4.09261
2.45505
1.56672
1.83173
2.08479
2.07264
3.63963
1.49923
0.508854
1.34551
0.486269
0.973692
5.15431
5.3121
4.60731
1.31244
4.65657
0.837453
1.41455
0.574702
0.916412
0.836757
1.20486
0.844504
5.28782
0.989258
4.70249
0.830841
4.30124
0.903685
1.46319
0.737801
0.897323
6.33864
1.25004
5.97291
0.696173
1.02552
3.65172
2.45991
1.31663
0.895671
3.40329
0.995089
1.09719
6.4028
0.955497
0.873695
1.15003
0.658921
1.1627
0.746591
0.942929
1.28962
0.681766
1.39169
0.629074
1.4875
1.39163
0.636108
0.400461
2.6303
0.890506
3.19686
2.86404
2.30798
0.624795
0.403374
2.56707
0.805733
2.4022
0.701266
0.350776
2.79056
0.847637
0.378172
0.354503
2.73185
1.49912
1.84613
7.72455
1.45105
5.79003
1.49444
1.49076
4.73571
1.1698
3.14763
3.03764
0.973853
3.90099
1.55797
2.89176
0.83033
0.835063
3.40704
2.97736
0.813171
1.53623
4.01239
0.917174
0.983026
1.36123
4.0057
3.46147
2.84494
0.990408
1.05476
0.925994
2.79191
1.04994
2.6731
0.621351
2.23612
3.31798
0.612184
1.04924
4.04502
0.545122
1.79739
6.05197
2.19207
5.28933
2.25614
7.11238
1.93263
4.06825
4.36164
1.31162
1.66159
3.49787
1.66112
4.82305
3.33254
1.57118
3.4088
2.29763
3.2785
2.43926
1.09454
0.918172
3.64523
2.55359
1.75324
3.41464
2.71041
3.50908
0.545184
2.63539
0.484032
0.956515
5.70548
6.52935
6.40717
1.85085
6.49099
1.47779
6.24857
5.53029
0.834791
0.927046
3.3242
1.88293
7.19923
1.60422
7.72032
1.62322
0.917329
2.85542
6.44161
5.34308
1.09214
5.72552
4.31102
1.68058
0.983936
1.59809
1.11364
1.87779
1.31689
1.92563
0.445214
1.69666
1.36736
1.51348
0.512256
1.41166
0.539104
1.52515
0.488595
1.08435
1.08197
1.97392
1.14843
4.76371
0.736903
1.69741
0.802485
1.56627
0.422199
1.92063
1.26644
1.29436
1.30768
0.537626
1.09379
1.18531
1.11089
3.81486
0.568514
1.10383
0.510382
1.38808
0.486922
1.09859
0.52674
0.833456
1.87463
0.452385
1.92607
1.97282
0.81103
0.758642
0.484173
0.759548
2.21024
0.467649
0.797352
0.476475
1.54207
0.735314
0.799638
1.68521
0.449299
1.54082
0.670482
1.46643
1.27376
1.76814
1.39579
2.6191
0.820486
2.71067
3.38441
2.69026
1.05976
2.87208
1.0967
1.2544
1.34762
1.02812
1.47028
0.883545
2.82745
3.16765
0.786597
2.03105
2.7009
3.20006
3.03763
3.17869
1.40647
0.919354
3.10554
0.950104
1.48764
0.662241
2.08019
1.92069
2.82986
0.614908
3.00981
3.53327
1.46682
1.21115
1.6187
1.25526
0.603646
2.28137
0.681999
1.88376
2.84949
3.49049
0.760588
2.61999
3.49682
0.698073
1.79268
2.88123
3.73236
1.17507
0.90618
1.20341
0.938277
3.60499
1.29297
1.19782
0.895963
1.17119
4.55901
4.47627
4.13507
2.33319
1.20019
0.998121
1.14194
1.02908
1.37377
1.03255
0.867956
3.61182
1.54037
3.59029
1.61301
0.440128
1.66711
0.437947
1.94964
0.42433
0.893517
0.437174
2.94298
0.906404
1.50379
0.807221
1.65572
0.947303
1.71336
0.391038
1.0378
1.02854
0.439655
0.438866
0.415977
0.37381
0.390251
2.68984
0.433378
3.86592
4.21411
1.06886
0.362152
3.50492
6.19087
3.65199
1.75348
6.70248
0.817479
3.27039
3.6692
1.18167
5.3639
0.375291
3.68147
5.94498
0.664962
0.872213
4.56661
5.57619
4.38189
0.579363
4.25941
6.09651
7.86644
0.99358
0.68712
4.106
5.48455
8.78995
4.36178
1.01816
7.2183
3.95255
1.14794
3.13886
0.425995
2.89942
1.03184
1.12135
1.15217
3.15343
3.07715
4.26888
1.03146
1.23005
3.08043
4.13605
3.37049
4.54582
0.964413
0.461876
1.29919
1.26702
3.03637
3.18349
0.805212
0.959217
0.744498
7.68527
1.98489
4.50521
0.97326
2.86646
2.14589
3.00426
0.435157
0.909891
1.76545
3.14558
2.31008
2.84942
1.03169
2.51269
2.16188
3.00483
2.05823
2.07819
2.67943
2.00022
0.802484
0.505963
3.20388
3.12786
0.435224
0.772846
1.70116
3.75154
0.536275
2.85253
4.01346
0.966684
3.09348
1.57416
2.33855
0.635226
0.387935
8.44248
1.65433
0.839405
2.31515
2.71245
0.39018
2.64161
3.84184
0.65796
2.32609
2.8898
2.3592
3.85586
0.344088
2.81482
0.588523
1.67305
3.94835
5.71337
8.74331
1.77561
0.883681
3.1468
2.29479
2.92633
0.581052
1.56547
2.90024
3.79953
1.07856
0.334708
3.93484
4.99304
1.14652
5.11185
0.524843
2.81933
0.632392
1.44875
6.76931
0.753603
0.786336
0.4574
2.22549
0.723393
0.459029
2.98783
3.81317
4.83685
0.471525
0.41521
0.916587
4.57149
0.47102
0.356305
2.88478
4.28459
3.18266
5.03826
0.468537
2.12618
0.719887
3.14577
5.36252
0.806172
0.685503
2.93696
2.7265
0.632883
2.25882
1.78902
5.37622
0.89235
3.07395
2.06979
3.39413
3.87123
2.3194
2.32488
3.49235
1.2563
0.436679
2.16641
1.88697
2.67663
0.611179
3.94496
3.36346
0.461545
0.954163
1.09127
3.51775
2.45688
1.47006
0.592914
5.33712
0.882249
1.61
0.623665
0.709
2.9174
1.74651
3.09016
3.23853
0.59936
1.02085
0.452834
0.877767
1.08135
3.10154
2.67264
1.38756
0.650296
1.38403
6.48796
2.75862
4.70769
1.47708
2.9852
0.459871
5.09208
0.840363
2.65153
1.69857
1.44974
5.53124
0.771635
0.767909
1.87773
2.87845
1.93826
0.848229
3.33348
0.604632
1.00678
3.07157
2.68894
2.37729
0.604447
0.44216
0.846472
2.16453
0.719926
0.497409
3.53041
4.21087
0.909043
3.17824
1.29304
2.36781
0.557094
0.77312
3.11899
1.02502
4.39932
3.59418
2.61772
2.55587
0.523623
0.915434
2.04577
0.755483
0.885482
2.4207
0.453556
2.22086
0.712881
0.414236
3.22329
0.948918
1.67062
3.34724
0.454695
0.620921
4.02245
1.30685
2.01566
0.550224
1.0671
4.63334
0.451092
0.777123
0.881894
0.905239
0.534076
2.852
2.09978
2.81967
1.42433
2.12049
1.40748
0.771611
4.07147
1.40227
1.2985
0.912682
4.30137
4.34654
0.597146
0.840553
4.37699
0.428641
4.00979
0.695692
1.59707
1.50341
1.207
0.776505
0.943114
0.55392
4.50736
3.85523
0.932788
0.577746
3.00418
4.50213
4.10273
0.950213
0.589764
0.590895
0.577842
4.46126
4.86222
3.95681
1.07014
1.64577
2.18196
1.54298
1.36772
5.17862
4.46936
1.36364
3.37712
1.26716
2.1176
1.93727
1.88908
1.24074
1.3059
1.07835
5.37615
0.622726
3.02483
0.640566
0.969361
1.90427
2.61783
1.29625
2.18175
0.727409
0.970795
4.94066
0.509812
5.16341
1.95193
4.27885
1.08431
3.06637
1.34893
3.09536
1.30477
2.03309
0.633552
3.88746
4.64038
0.478554
0.724362
3.1105
1.94149
1.66612
1.95669
1.73618
2.12282
0.629207
2.28138
1.39578
5.23509
3.02241
4.69439
1.71074
2.00831
3.85642
4.89995
5.03419
4.33636
1.50874
1.38395
1.63159
1.20152
1.8681
1.19597
0.768667
0.859228
1.70752
3.50072
0.593629
1.02478
0.681905
0.911247
1.6419
0.902832
2.67477
1.89496
2.51348
1.22665
0.65127
3.28455
4.3117
3.20996
3.69946
0.884991
1.7817
2.94052
1.26138
2.81999
0.800627
0.926652
2.95846
1.8461
3.04742
1.19521
0.739188
3.42335
5.34366
0.597197
1.74172
2.05762
1.60237
2.68644
1.96839
1.47201
2.55914
3.16868
0.701181
1.78308
3.1681
1.76437
3.36884
6.29998
4.90144
3.32733
1.56933
4.09054
2.02678
1.94749
2.88225
3.37388
1.04396
3.76218
1.61985
0.900222
3.38451
3.488
1.05475
3.36153
4.14171
1.78149
1.05875
3.07361
0.536594
2.35862
0.651074
1.41275
3.76556
3.66859
3.23857
0.552844
4.19443
0.54385
4.76675
4.72322
2.86646
3.04301
0.634624
0.628993
0.984305
0.839916
1.035
1.6856
2.12103
0.77967
2.96442
3.7257
2.45
4.52558
0.579254
0.626255
3.74957
0.865493
1.03802
5.5336
0.715724
0.849346
0.945788
0.657571
3.95367
0.58378
5.70207
0.486253
4.69544
2.3404
0.593888
1.57438
0.474753
3.34939
3.3922
0.933703
0.520181
4.46211
0.944876
0.90311
1.52235
2.83947
0.660982
0.544964
0.918115
0.620935
2.33638
3.31157
5.00877
0.910024
4.15072
3.27508
0.893388
2.5263
3.66817
0.626608
1.57257
0.441256
3.53907
3.37022
1.27551
1.06274
0.933108
2.41385
0.819679
3.82027
0.810109
4.86128
0.667526
2.66392
3.83412
2.29139
4.10821
0.886604
1.01092
0.516979
2.59969
4.42224
2.66751
1.33457
0.861034
0.564923
3.07152
2.62244
3.71397
1.77038
3.85207
0.906795
0.967157
3.80967
5.3778
4.37442
1.90859
3.1973
1.01616
2.56898
2.65009
3.71168
1.13222
0.891859
0.740394
1.44836
3.43457
3.68337
1.82288
4.74468
2.13885
1.72252
4.92363
0.955986
0.412041
2.73881
5.8621
0.814617
0.976497
0.762858
3.06989
0.584298
3.35645
0.856104
2.74382
1.01063
2.64714
2.76363
6.5818
4.27259
3.79017
1.04103
0.748586
0.67367
3.48112
2.9968
1.47527
1.82859
4.61335
2.04935
3.05071
0.840369
0.799781
3.10736
4.89324
0.843803
0.73147
0.798027
2.74824
1.53892
1.62633
0.948506
2.55
0.587084
2.65436
5.47499
3.53134
3.34796
5.5976
4.28928
2.08003
3.08447
3.65814
2.14123
2.92339
2.4096
0.925682
0.814826
3.02062
5.93056
3.99295
3.10607
0.867129
0.766201
0.838528
0.712993
3.39268
5.59431
0.786851
3.07032
2.49775
3.15073
3.07313
0.886353
0.669622
0.672462
3.00156
2.23937
2.85946
0.879826
0.852335
2.53083
2.40302
3.15085
2.32633
1.78965
0.67592
3.36247
2.07974
3.95696
0.72865
3.49167
4.00174
2.28684
3.56181
0.648887
4.52314
2.83704
7.10997
1.75269
0.938251
2.78069
0.4157
0.663807
3.36919
4.22579
0.558939
0.62748
0.820659
3.06707
1.90259
5.31334
2.66333
2.80649
3.82138
2.39255
1.03765
0.963876
0.639321
5.05488
4.94977
0.46177
4.50311
4.55751
1.11825
3.22895
0.580764
0.844288
4.15815
5.3171
1.13023
0.594019
0.984197
4.74229
5.19344
0.485267
0.726223
1.24739
3.03045
3.43061
0.66739
1.34754
3.7724
1.94275
1.06538
0.785374
0.576131
4.84362
4.41988
0.431464
4.30437
4.80129
0.551727
0.944609
4.80999
4.33834
0.458958
6.47403
1.29873
3.21222
1.62857
3.85495
1.6817
0.933308
0.836175
0.60905
4.63393
3.67662
0.412219
0.521604
2.83745
4.45237
3.14018
3.82461
1.14265
3.36512
1.81566
2.76578
5.04678
0.859158
0.82285
4.13706
3.54939
1.03643
3.20365
2.61123
3.32844
3.73728
3.65061
2.70472
3.89546
4.00997
2.81963
0.952468
4.13956
0.592362
0.697244
0.883599
1.01646
3.24871
3.50651
1.63167
1.77164
3.5896
3.05112
2.72539
1.03811
0.945029
3.7455
0.553249
0.861154
0.464534
2.34921
3.70125
3.36541
1.77947
3.61901
0.738918
1.63156
3.40483
3.62726
0.911208
0.551905
5.20024
0.531475
1.9787
3.38085
0.917695
0.853567
2.19748
2.85403
4.36252
0.99849
0.823523
0.513005
0.717577
2.90122
2.22861
0.978634
0.853104
6.0261
4.06268
2.32986
2.07746
2.10846
2.2874
3.91916
2.94203
0.610381
1.82849
3.32676
0.765746
0.515259
4.99131
0.450903
1.97252
0.881053
0.805303
2.39942
0.452759
0.888005
1.03818
0.895611
1.054
1.14597
3.2341
0.730339
2.03217
0.659115
0.810075
2.74522
4.56143
2.66335
2.26593
4.1617
2.86017
3.38157
0.740698
1.19467
0.752617
0.785399
3.91679
4.01104
2.00061
3.66394
1.50469
1.44851
0.558136
2.8475
0.563743
3.05042
2.94151
0.677161
1.1611
0.631286
0.415632
3.51676
4.07924
2.23714
0.535225
1.77207
0.62095
2.11048
0.482624
3.36102
0.853311
3.20148
5.55719
3.26112
1.14785
0.915199
4.10262
2.34248
4.17472
3.19585
0.664235
0.896626
1.14305
4.16252
0.457332
2.90741
0.853703
2.67982
0.882219
3.25436
0.521842
0.708498
0.676987
0.762833
3.44718
0.937371
2.32176
0.803475
2.98993
0.618311
0.590614
2.90256
3.54919
0.531537
2.87215
5.06144
0.684161
2.87867
0.565861
4.9569
4.83132
0.588161
1.00244
4.35691
0.456289
2.39738
1.11497
0.896657
4.32364
3.72543
1.96637
4.5149
0.669588
1.94346
0.85782
0.882075
0.827735
0.650536
0.635776
0.813897
0.841742
0.860866
2.03376
3.26421
2.143
1.35212
2.00084
3.58549
1.54995
2.32152
2.45026
3.88964
2.87533
2.50721
1.98112
0.645287
2.74838
2.79236
3.99926
3.01064
2.49584
1.945
0.58023
2.82399
2.73863
0.38721
0.762611
1.13159
2.84854
3.08855
0.390484
0.742052
1.32746
2.96099
3.40588
0.367306
1.16809
3.45798
3.13069
0.414367
1.41084
3.52769
3.56104
0.390163
0.319035
0.359579
0.343007
0.92601
0.448107
0.939009
0.536423
0.889587
1.11967
1.3728
4.06551
2.33776
3.98412
0.803081
0.649238
0.716849
1.03387
0.842601
4.92585
1.20534
1.57466
3.707
1.47078
0.752026
0.659368
0.485339
0.965223
1.2053
3.81041
3.16577
0.620259
3.15194
1.99983
3.31859
4.83986
2.24488
3.2457
3.57574
1.72939
3.69186
2.49072
4.72288
2.45879
2.10505
3.61977
2.26408
3.91882
4.41125
4.07236
4.88728
0.685268
3.98438
0.999547
0.608473
1.1641
1.02231
0.523656
0.444478
3.82901
3.13588
3.39795
4.14739
0.51705
2.50122
0.660262
0.380939
3.60672
0.593409
2.89492
1.8011
1.14998
0.541932
3.56216
0.784241
1.01235
1.8563
1.02546
1.01559
0.470613
0.832387
0.477405
2.38963
3.34963
0.506467
0.701369
0.711534
3.71514
3.41352
0.529031
0.745051
4.68452
0.642098
4.17409
0.500444
0.774845
0.571741
3.45388
0.674271
1.74463
0.666828
3.78303
0.71339
2.19239
4.64891
2.78228
2.26314
2.26448
3.38117
4.25798
2.60159
2.59516
3.06406
2.28215
2.43078
2.78462
2.42688
3.03911
2.6473
2.16444
2.96881
3.97564
1.53586
0.833925
2.14596
2.89258
3.40091
2.17315
2.81953
3.45458
1.80901
2.88823
6.33853
1.95838
0.757026
1.29842
2.79447
3.30104
3.02199
0.673535
1.79391
3.2655
3.40358
3.03872
0.81004
1.77664
3.04852
3.51999
3.27082
1.66001
2.11028
1.06351
2.19362
2.69154
2.59076
2.50876
2.52913
2.39162
2.36253
0.9022
3.88108
2.63221
0.499804
1.85367
1.19971
3.54546
0.630888
2.56565
2.05986
1.00938
3.41824
2.68022
3.93714
1.51395
0.559039
5.24711
2.09991
0.974332
3.6061
0.531104
2.39147
0.939756
1.91979
2.13197
4.07337
2.27143
0.882543
4.248
2.25201
2.06786
3.44929
0.841625
4.27761
2.13747
3.06281
2.11535
3.53724
2.39423
2.169
2.96281
1.9424
4.27598
1.95524
1.04426
2.3996
2.75458
3.06023
0.957753
1.61531
1.09013
0.650417
0.459529
2.10339
1.60459
1.27933
2.14294
1.694
2.26628
1.54088
2.42291
1.36609
2.24887
2.23911
1.8103
2.23179
1.76662
2.18171
5.94652
4.01734
1.97166
1.6861
6.64025
3.86923
1.46982
6.67208
3.61867
1.45091
1.45332
1.22074
0.534595
1.28246
2.41586
2.57522
1.78301
1.87196
1.58996
2.36843
1.51062
2.24033
1.29017
2.09613
1.68294
2.32631
1.36183
3.14509
4.00372
1.34693
2.12758
3.60519
3.23097
2.80834
3.4968
3.50249
2.90353
2.74805
2.38035
2.8583
3.15449
2.75081
2.71448
4.14402
2.68133
2.58296
3.82705
2.39182
4.33635
2.96619
2.91257
3.59695
0.599722
1.54068
4.88031
1.6798
0.862038
4.73812
0.744166
3.61686
0.669968
1.65602
4.37141
0.686349
2.60457
0.646644
1.35516
0.983634
3.94002
1.50778
4.96725
1.20178
7.06841
1.31736
1.49833
7.02985
3.66785
1.40665
1.11362
0.919997
2.00019
2.37729
2.34766
2.27669
2.2977
0.973577
2.15786
2.20164
2.27133
1.1489
2.21601
1.72249
2.24956
2.29954
2.42383
2.49978
2.6758
4.30275
2.63762
2.58087
4.02739
2.53667
1.29737
3.08317
3.96357
2.82437
3.265
2.72372
1.33472
2.34532
1.38618
3.15296
2.40746
1.20681
3.25507
2.38233
2.98776
0.820308
2.06477
3.34542
2.30143
0.955756
3.13951
2.00546
0.891846
3.85434
6.2781
1.14283
2.22882
1.97539
7.42669
5.29279
2.2683
7.00778
5.20899
1.74012
2.51334
1.47815
2.65923
3.63814
2.81113
3.31951
2.56785
3.80215
3.05995
1.73184
1.82935
1.71231
1.59038
3.37198
2.69717
3.58711
2.70558
3.32269
3.03346
3.15054
0.943221
7.48332
3.93226
7.01037
4.83318