# vtk DataFile Version 2.0
Unstructured Grid by M++
ASCII
DATASET UNSTRUCTURED_GRID
POINTS 16641 float
  0.703125   0.781250 0
  0.632812   0.828125 0
  0.640625   0.835938 0
  0.640625   0.804688 0
  0.648438   0.812500 0
  0.625000   0.820312 0
  0.789062   0.929688 0
  0.796875   0.937500 0
  0.664062   0.945312 0
  0.664062   0.953125 0
  0.664062   0.968750 0
  0.671875   0.960938 0
  0.679688   0.960938 0
  0.679688   0.968750 0
  0.671875   0.953125 0
  0.914062   0.945312 0
  0.914062   0.968750 0
  0.914062   0.960938 0
  0.921875   0.968750 0
  0.929688   0.960938 0
  0.921875   0.945312 0
  0.921875   0.953125 0
  0.929688   0.953125 0
  0.820312   0.898438 0
  0.750000   0.945312 0
  0.570312   0.898438 0
  0.578125   0.898438 0
  0.585938   0.898438 0
  0.523438   0.953125 0
  0.585938   0.890625 0
  0.585938   0.882812 0
  0.515625   0.945312 0
  0.523438   0.945312 0
  0.515625   0.937500 0
  0.570312   0.890625 0
  0.578125   0.890625 0
  0.578125   0.882812 0
  0.570312   0.882812 0
  0.507812   0.937500 0
  0.507812   0.929688 0
  0.976562   0.882812 0
  0.992188   0.898438 0
  0.984375   0.890625 0
  0.968750   0.820312 0
  0.976562   0.828125 0
  0.992188   0.812500 0
  1.000000   0.820312 0
  0.656250   0.960938 0
  0.648438   0.953125 0
  0.640625   0.945312 0
  0.882812   0.968750 0
  0.882812   0.960938 0
  0.890625   0.968750 0
  0.906250   0.960938 0
  0.898438   0.953125 0
  0.906250   0.953125 0
  0.898438   0.945312 0
  0.906250   0.945312 0
  0.882812   0.953125 0
  0.890625   0.953125 0
  0.890625   0.945312 0
  0.882812   0.945312 0
  0.539062   0.695312 0
  0.539062   0.718750 0
  0.531250   0.710938 0
  0.554688   0.710938 0
  0.546875   0.703125 0
  0.570312   0.585938 0
  0.578125   0.585938 0
  0.585938   0.578125 0
  0.585938   0.570312 0
  0.570312   0.578125 0
  0.578125   0.570312 0
  0.757812   0.835938 0
  0.929688   0.968750 0
  0.960938   0.929688 0
  0.960938   0.921875 0
  0.953125   0.914062 0
  0.953125   0.921875 0
  0.601562   0.679688 0
  0.835938   0.976562 0
  0.898438   0.718750 0
  0.835938   0.968750 0
  0.593750   0.906250 0
  0.664062   0.914062 0
  0.601562   0.914062 0
  0.609375   0.921875 0
  0.679688   0.929688 0
  0.679688   0.937500 0
  0.796875   0.968750 0
  0.726562   0.945312 0
  0.742188   0.945312 0
  0.726562   0.890625 0
  0.734375   0.898438 0
  0.742188   0.960938 0
  0.734375   0.960938 0
  0.734375   0.953125 0
  0.726562   0.953125 0
  0.523438   0.820312 0
  0.523438   0.828125 0
  0.640625   0.953125 0
  0.984375   0.664062 0
  0.632812   0.953125 0
  0.921875   0.914062 0
  0.914062   0.906250 0
  0.671875   0.929688 0
  0.671875   0.921875 0
  0.664062   0.921875 0
  0.554688   0.945312 0
  0.914062   0.937500 0
  0.718750   0.882812 0
  0.507812   0.867188 0
  0.570312   0.617188 0
  0.742188   0.968750 0
  0.726562   0.976562 0
  0.726562   0.984375 0
  0.562500   0.898438 0
  0.734375   0.984375 0
  0.734375   0.992188 0
  0.742188   0.992188 0
  0.742188   1.000000 0
  0.742188   0.937500 0
  0.734375   0.937500 0
  0.734375   0.929688 0
  0.726562   0.921875 0
  0.726562   0.929688 0
  0.679688   0.843750 0
  0.921875   0.960938 0
  0.914062   0.953125 0
  0.687500   0.851562 0
  0.562500   0.984375 0
  0.554688   0.984375 0
  0.632812   0.937500 0
  0.625000   0.929688 0
  0.554688   0.921875 0
  0.585938   0.984375 0
  0.648438   0.929688 0
  0.656250   0.937500 0
  0.578125   0.914062 0
  0.585938   0.921875 0
  0.578125   0.921875 0
  0.906250   0.929688 0
  0.898438   0.929688 0
  0.898438   0.937500 0
  0.906250   0.937500 0
  0.554688   0.679688 0
  0.554688   0.687500 0
  0.554688   0.976562 0
  0.570312   0.914062 0
  0.570312   0.906250 0
  0.562500   0.906250 0
  0.531250   0.664062 0
  0.539062   0.664062 0
  0.804688   0.976562 0
  0.890625   0.937500 0
  0.890625   0.929688 0
  0.882812   0.921875 0
  0.875000   0.921875 0
  0.882812   0.937500 0
  0.882812   0.929688 0
  0.875000   0.929688 0
  0.546875   0.679688 0
  0.539062   0.671875 0
  0.531250   0.687500 0
  0.539062   0.617188 0
  0.546875   0.671875 0
  0.554688   0.601562 0
  0.742188   0.906250 0
  0.570312   0.968750 0
  0.578125   0.976562 0
  0.585938   0.976562 0
  0.578125   0.968750 0
  0.640625   0.921875 0
  0.828125   0.968750 0
  0.539062   0.929688 0
  0.890625   0.921875 0
  0.898438   0.921875 0
  0.906250   0.921875 0
  0.945312   1.000000 0
  0.945312   0.992188 0
  0.937500   0.992188 0
  0.953125   0.992188 0
  0.953125   1.000000 0
  0.960938   0.992188 0
  0.960938   1.000000 0
  0.710938   0.992188 0
  0.710938   1.000000 0
  0.718750   1.000000 0
  0.960938   0.984375 0
  0.960938   0.976562 0
  0.539062   0.703125 0
  0.718750   0.976562 0
  0.539062   0.875000 0
  0.695312   0.859375 0
  0.703125   0.867188 0
  0.937500   0.984375 0
  0.945312   0.984375 0
  0.953125   0.984375 0
  0.953125   0.976562 0
  0.937500   0.976562 0
  0.945312   0.976562 0
  0.687500   0.976562 0
  0.695312   0.976562 0
  0.882812   0.562500 0
  0.703125   1.000000 0
  0.703125   0.992188 0
  0.703125   0.984375 0
  0.695312   0.984375 0
  0.523438   0.835938 0
  0.867188   0.546875 0
  0.687500   0.984375 0
  0.695312   1.000000 0
  0.687500   0.992188 0
  0.687500   1.000000 0
  0.585938   0.648438 0
  0.523438   0.898438 0
  0.554688   0.898438 0
  0.835938   0.914062 0
  0.539062   0.882812 0
  0.882812   0.593750 0
  0.750000   0.921875 0
  0.820312   0.937500 0
  0.820312   0.929688 0
  0.914062   0.921875 0
  0.750000   0.773438 0
  0.914062   0.929688 0
  0.632812   0.960938 0
  0.843750   0.976562 0
  0.812500   0.523438 0
  0.843750   0.984375 0
  0.523438   0.632812 0
  0.703125   0.812500 0
  0.648438   0.960938 0
  0.992188   0.671875 0
  0.640625   0.960938 0
  0.929688   0.921875 0
  0.921875   0.921875 0
  0.757812   0.781250 0
  0.921875   0.929688 0
  0.921875   0.937500 0
  0.937500   0.929688 0
  0.929688   0.929688 0
  0.765625   0.757812 0
  0.695312   0.804688 0
  0.812500   0.953125 0
  0.648438   0.898438 0
  0.656250   0.906250 0
  0.820312   1.000000 0
  0.820312   0.992188 0
  0.820312   0.960938 0
  0.906250   0.898438 0
  0.554688   0.648438 0
  0.554688   0.656250 0
  0.578125   0.945312 0
  0.882812   0.734375 0
  0.820312   0.984375 0
  0.960938   0.640625 0
  0.828125   0.937500 0
  0.898438   0.890625 0
  0.554688   0.640625 0
  0.554688   0.632812 0
  0.570312   0.937500 0
  0.562500   0.929688 0
  0.632812   0.882812 0
  0.867188   0.718750 0
  0.875000   0.726562 0
  0.804688   0.968750 0
  0.812500   0.976562 0
  0.562500   0.875000 0
  0.804688   0.945312 0
  0.812500   0.945312 0
  0.953125   0.632812 0
  0.945312   0.625000 0
  0.890625   0.882812 0
  0.882812   0.875000 0
  0.546875   0.632812 0
  0.531250   0.632812 0
  0.539062   0.632812 0
  0.539062   0.625000 0
  0.546875   0.656250 0
  0.546875   0.648438 0
  0.546875   0.640625 0
  0.539062   0.640625 0
  0.531250   0.640625 0
  0.539062   0.656250 0
  0.539062   0.648438 0
  0.531250   0.648438 0
  0.531250   0.656250 0
  0.843750   0.921875 0
  0.835938   0.921875 0
  0.843750   0.929688 0
  0.609375   0.890625 0
  0.851562   0.992188 0
  0.726562   0.835938 0
  0.585938   0.656250 0
  0.585938   0.664062 0
  0.523438   0.906250 0
  0.796875   0.960938 0
  0.789062   0.960938 0
  0.609375   0.648438 0
  0.601562   0.640625 0
  0.601562   0.648438 0
  0.593750   0.648438 0
  0.546875   0.898438 0
  0.539062   0.890625 0
  0.750000   0.914062 0
  0.539062   0.898438 0
  0.531250   0.898438 0
  0.828125   0.976562 0
  0.664062   0.828125 0
  0.726562   0.578125 0
  0.601562   0.882812 0
  0.593750   0.875000 0
  0.734375   0.585938 0
  0.890625   0.742188 0
  0.742188   0.593750 0
  0.671875   0.835938 0
  0.835938   0.984375 0
  0.828125   0.984375 0
  0.828125   0.992188 0
  0.828125   1.000000 0
  0.843750   0.992188 0
  0.835938   0.992188 0
  0.835938   1.000000 0
  0.843750   1.000000 0
  0.570312   0.742188 0
  0.562500   0.742188 0
  0.507812   1.000000 0
  0.546875   0.664062 0
  0.898438   0.804688 0
  0.554688   0.671875 0
  0.890625   0.960938 0
  0.554688   0.664062 0
  0.757812   0.960938 0
  0.507812   0.960938 0
  0.578125   0.648438 0
  0.570312   0.648438 0
  0.562500   0.648438 0
  0.515625   0.898438 0
  0.507812   0.898438 0
  0.523438   0.765625 0
  0.585938   0.515625 0
  0.875000   0.960938 0
  0.898438   0.960938 0
  0.734375   0.812500 0
  0.898438   0.968750 0
  0.750000   0.828125 0
  0.906250   0.968750 0
  0.742188   0.820312 0
  0.507812   0.992188 0
  0.851562   0.703125 0
  0.789062   0.953125 0
  0.867188   0.773438 0
  0.710938   0.593750 0
  0.812500   0.984375 0
  0.812500   0.992188 0
  0.804688   1.000000 0
  0.570312   0.960938 0
  0.562500   0.960938 0
  0.562500   0.953125 0
  0.554688   0.953125 0
  0.640625   0.890625 0
  0.617188   0.742188 0
  0.796875   1.000000 0
  0.796875   0.992188 0
  0.789062   0.992188 0
  0.609375   0.742188 0
  0.687500   0.570312 0
  0.789062   0.984375 0
  0.601562   0.734375 0
  0.593750   0.726562 0
  0.601562   0.726562 0
  0.539062   0.976562 0
  0.867188   0.804688 0
  0.750000   0.953125 0
  0.757812   0.953125 0
  0.570312   0.703125 0
  0.562500   0.695312 0
  0.570312   0.695312 0
  0.687500   0.945312 0
  0.695312   0.945312 0
  0.773438   0.945312 0
  0.781250   0.945312 0
  0.695312   0.921875 0
  0.703125   0.921875 0
  0.585938   0.640625 0
  0.593750   0.640625 0
  0.585938   0.632812 0
  0.593750   0.632812 0
  0.523438   0.890625 0
  0.531250   0.890625 0
  0.523438   0.882812 0
  0.531250   0.882812 0
  0.781250   0.953125 0
  0.765625   0.960938 0
  0.578125   0.703125 0
  0.578125   0.710938 0
  0.585938   0.710938 0
  0.585938   0.718750 0
  0.851562   0.789062 0
  0.710938   0.960938 0
  0.710938   0.968750 0
  0.718750   0.968750 0
  0.562500   0.734375 0
  0.570312   0.734375 0
  0.570312   0.726562 0
  0.562500   0.718750 0
  0.843750   0.695312 0
  0.507812   0.984375 0
  0.578125   0.734375 0
  0.578125   0.742188 0
  0.585938   0.742188 0
[...]
CELL_DATA 16384
SCALARS scalar_value float 1
LOOKUP_TABLE default
1.62496
1.98873
1.91247
1.55603
2.23725
2.27471
1.91992
2.09721
2.79657
2.48372
2.54579
2.97512
0.749573
0.952317
0.758626
0.668402
1.17516
1.04621
0.932191
1.114
1.03469
1.07694
1.2046
1.29183
0.780997
0.9383
0.870471
0.763241
2.38732
2.53089
2.27592
2.16851
2.96058
2.97599
2.59369
3.03846
3.16793
3.01738
3.10806
3.37
2.57579
2.67462
2.95823
2.64912
1.53038
1.48294
1.67004
1.71335
1.35325
1.2057
1.1136
1.26861
1.03578
0.992953
1.68732
1.41456
1.39403
1.70036
0.658862
0.668412
0.659907
0.627969
0.725206
0.664994
0.664843
0.759483
0.657939
0.665698
0.698989
0.667463
0.657032
0.687843
0.669968
0.702163
1.39514
1.62485
1.81947
1.53136
1.36813
1.45028
1.36885
1.27834
2.10384
1.71289
1.46681
1.7033
2.11531
1.9801
2.30157
2.2929
2.3646
2.41178
2.32939
2.82227
2.86652
2.74229
2.64606
2.13338
2.20448
2.10203
3.61026
3.17178
3.15482
3.4096
2.66735
2.28593
2.44614
3.35333
3.49099
3.82145
3.69724
2.43652
2.84874
2.83616
3.0392
2.9608
0.792834
0.658313
0.680999
0.723531
0.799983
0.778817
0.738231
0.72363
0.687974
0.68443
0.717126
0.763106
0.706977
3.27927
3.30575
3.53415
3.57076
3.22071
3.29462
3.01901
3.19033
3.9628
3.37203
3.13485
3.2658
3.3692
3.67104
3.30509
4.73562
4.73006
5.0382
4.3675
4.24984
4.20317
4.14607
4.20701
4.35366
4.37159
4.53782
4.80276
4.37564
4.26469
5.86661
0.588646
0.508473
0.470468
7.72825
7.13011
6.52519
0.655976
0.534756
0.570971
7.88635
0.72372
0.685285
0.819533
6.32555
7.27471
6.72322
0.606879
3.12139
2.92188
2.74603
2.97293
4.08462
3.13707
3.52392
3.90654
3.40297
3.31358
4.25384
4.13073
2.60974
2.69028
2.49482
2.31499
7.44294
7.40353
4.788
5.29058
4.76912
4.64004
6.99528
7.56594
7.57526
4.25748
5.08383
4.7611
4.0017
5.25597
5.57571
5.6571
5.01505
6.7848
6.91179
5.91419
1.13155
1.21408
1.1306
5.10763
5.52425
6.02761
5.59212
4.12734
3.96096
3.81219
5.07308
5.19433
4.2678
5.54831
5.13498
5.59958
3.42373
3.46139
3.29084
4.53024
4.81833
3.93884
4.78162
4.75115
4.45444
4.22984
5.83018
6.10806
5.00022
6.65279
7.5199
6.58393
6.81539
6.78141
5.75419
4.74046
4.18624
4.6021
4.44855
5.00523
4.06525
3.94385
3.71354
4.00065
4.11064
3.82306
3.01522
2.96166
2.605
3.79813
2.99636
3.8276
4.12861
3.5751
4.05301
3.46101
0.985136
0.925266
0.80055
0.843049
1.32234
1.08137
1.10217
1.39691
1.08729
1.03375
1.2199
1.26977
0.77971
0.943826
0.99638
0.826063
2.47478
2.35499
1.85903
2.87684
3.94023
3.80222
0.585174
3.66654
0.318846
3.08616
0.362924
3.42013
3.64872
0.575755
3.85155
0.542425
3.18065
0.535287
4.45395
3.99982
5.45366
6.97034
5.54687
1.51329
0.462
5.43772
0.568885
5.90072
0.555156
3.62196
4.36572
0.440747
5.06529
1.19931
4.75511
1.33103
4.77731
1.87006
4.1751
7.51986
0.991077
4.6094
8.47851
8.55656
8.46643
0.36758
1.61897
4.00716
7.09205
1.11762
7.30749
0.652449
1.28025
1.31233
5.21411
8.44041
1.17216
0.415103
0.395517
0.398862
7.57189
0.46346
6.91677
2.23159
4.874
0.521373
5.2201
2.14579
5.04947
1.87213
12.8556
2.2299
3.4489
2.02682
1.79663
0.695031
5.07336
1.60223
1.95318
5.27011
1.70955
5.55206
5.3429
1.62488
2.71461
1.04419
2.75038
2.7406
3.63189
1.84402
5.14747
7.67686
5.36653
0.860226
0.797524
5.84782
11.3523
2.35226
3.42463
2.13529
2.13051
2.62886
1.89707
2.63447
2.1526
2.62512
2.80748
3.86593
1.09897
2.98461
2.25339
1.77
2.78799
1.73159
2.29431
1.77991
2.48302
4.20683
2.43004
3.906
1.32592
6.36319
1.18465
1.06299
5.63742
1.15364
2.44749
1.53228
1.49017
1.68007
4.0611
0.984319
5.52601
1.09846
0.991324
5.22115
1.83011
1.36311
6.03524
1.56978
2.01117
4.92943
3.83851
3.53093
2.74565
1.47394
1.44761
2.06979
4.64076
4.16643
2.57358
2.38112
3.24823
2.67855
3.13349
1.95551
3.97474
1.99737
3.34694
1.7397
1.54131
4.08946
0.882521
1.72273
1.33159
1.88569
1.82696
1.66881
1.57806
1.74023
1.61603
1.63803
5.9731
3.62801
6.57472
3.30846
8.97605
3.96966
0.559089
1.55598
3.63171
1.56863
1.84966
1.77356
2.14214
1.77014
2.17927
1.5355
2.54564
4.96254
7.17592
0.999695
5.39107
4.80532
5.30585
7.76309
4.77978
4.26875
4.45424
5.7353
5.31775
5.61566
6.63649
4.15819
0.493178
5.44794
3.58053
2.29132
3.52341
2.26107
1.48754
3.43139
2.06166
2.59071
3.67327
2.2295
3.43002
2.74493
2.94882
2.81868
5.76505
2.67166
2.45652
2.46881
1.75565
2.23932
2.58406
2.81509
1.96929
4.39959
0.603563
5.83776
0.796244
5.65123
2.91363
4.42834
3.47219
3.99659
3.23429
3.65045
0.852792
6.00918
0.940066
6.13854
4.9077
5.89439
1.30996
4.04163
10.8228
1.9401
3.81836
1.44563
2.66444
5.99565
5.46034
5.67438
5.90963
5.44031
1.07567
10.5808
1.00803
3.04661
3.901
6.11419
1.16663
1.50887
6.02685
0.608411
3.16765
4.89162
2.81472
4.3079
2.65963
2.95716
4.86869
1.33511
5.67173
2.47173
1.48831
6.52147
1.25049
1.83323
3.25101
1.31744
4.31708
11.4096
1.22175
4.54444
1.00393
1.11997
1.06401
3.75978
8.1579
2.97225
3.26443
4.32052
1.05191
2.79014
2.93011
3.86499
2.40023
4.22477
0.537414
5.61208
2.59988
4.59705
2.37214
0.838276
4.18796
1.24337
11.6606
5.76736
0.643117
5.93254
2.89868
1.86017
0.67154
1.41151
1.13154
1.30861
5.66523
2.85211
1.72095
5.35318
0.677394
0.964936
3.62658
0.829568
3.44484
4.086
0.624764
3.29595
3.36543
1.45466
5.38327
2.17132
1.49591
6.10496
1.30073
3.76077
8.80994
1.10942
2.43849
1.2737
1.49455
1.38971
3.54511
1.08548
1.60936
4.75465
0.897999
5.52683
0.852846
3.56031
2.48821
3.38425
3.28099
1.30763
4.17798
1.20972
1.06686
2.65679
1.12016
4.19506
2.06894
1.83208
0.400778
4.27321
0.393536
4.11013
0.393146
4.29019
3.28348
7.43355
1.65562
3.47004
1.14412
4.01201
1.28518
2.43828
1.30918
3.27406
1.15787
3.49058
3.28356
3.23929
4.256
1.34452
1.38621
1.58864
3.11403
1.56224
1.76383
3.60821
2.32282
0.406224
3.99974
0.507522
4.20188
0.533751
3.8437
3.80491
2.11389
3.99346
2.26317
3.32245
5.42998
3.97552
1.9837
1.41029
4.37256
3.80859
0.456907
4.14449
4.32977
1.6889
4.68823
4.00645
2.85706
3.95925
4.42398
12.1576
2.961
3.79795
3.49324
0.48667
3.71496
2.357
5.33088
2.44514
4.10174
2.34417
4.60409
4.40026
4.01163
1.81375
2.98004
2.05621
1.80797
5.33832
1.94819
1.64005
5.02115
1.37077
2.84295
1.49493
1.28634
2.00289
1.18146
1.92922
3.2892
1.61107
4.05991
1.48705
4.3094
0.365315
1.76322
4.76071
1.99599
4.35045
1.15689
1.99984
1.70288
1.97266
2.38364
2.39639
1.44539
1.89351
4.83023
1.58162
1.95555
2.62274
2.83045
1.53542
2.65785
1.43586
2.69468
1.59492
1.41387
1.4608
3.82488
1.21009
1.42362
3.72717
1.51485
3.25762
5.73377
7.99468
10.8378
3.10954
1.58074
7.7372
3.50513
3.83438
1.13507
3.63212
2.61691
3.10525
4.81827
3.19647
3.60738
3.64071
2.87339
4.91495
2.72884
5.1256
2.29979
2.50361
5.37763
5.43747
1.09544
5.92423
1.20347
1.33835
1.04183
5.95852
5.33454
1.13726
5.87052
1.10811
5.69787
4.62925
0.979442
6.04515
4.65254
4.60134
1.52853
3.71079
3.79161
1.76871
3.42463
1.7101
2.93997
3.08715
2.54979
3.19733
1.76126
4.0778
1.34846
3.70564
5.97268
1.4959
6.0943
6.00797
1.14852
4.5425
2.60641
1.60274
2.35947
1.607
1.34605
2.97838
6.80214
1.44969
4.55541
2.10301
1.54685
5.37804
0.51651
5.48613
0.524426
6.10962
0.947242
1.23835
5.65979
4.01418
4.74327
4.97445
3.09511
2.58854
2.73516
3.35144
3.18755
2.42541
2.64129
3.38423
4.85458
5.65816
6.22418
1.04756
5.92348
5.05121
1.00277
6.8484
0.471293
5.54289
0.403165
4.97867
4.04639
4.10675
0.518012
5.62831
4.39099
0.322527
4.22699
0.307594
6.03047
4.19618
5.09424
1.72227
0.735837
0.8927
2.80406
3.19343
0.788588
4.28887
0.686614
3.11947
1.5738
3.6875
9.19669
3.39788
0.980236
4.22197
1.09222
4.4814
1.9261
9.01779
0.999652
0.829858
4.23572
1.03156
2.37898
2.67696
1.38976
2.96487
1.15411
2.60502
1.20732
2.21378
3.66595
2.72112
1.05523
3.16585
3.56312
3.35795
3.17255
2.87211
2.96564
4.49745
4.9506
3.65978
4.37294
2.45773
1.15499
0.901398
1.17692
0.996508
5.08598
0.967304
4.05826
0.856078
3.90725
3.80328
4.49937
0.94282
4.65857
1.14091
3.53243
3.93568
3.76573
3.58115
3.96801
3.46936
3.63261
1.6072
0.910834
5.36358
0.802598
0.823743
1.40689
3.88969
5.27304
1.18312
0.711857
5.12945
1.32955
4.81131
1.13479
4.59304
1.35855
0.923421
5.42862
1.37525
4.97936
5.48238
0.861593
5.13145
2.40223
2.69492
5.02404
2.52349
1.29046
2.75121
4.70196
0.485255
5.98568
5.65797
2.68283
6.42246
2.42422
4.4129
2.3245
1.36173
4.80386
4.41767
2.07887
1.38792
1.53249
7.82212
5.63954
0.870983
1.42123
0.775771
5.51901
5.49704
0.687833
4.72392
1.7183
5.72976
1.41027
1.2784
5.1957
3.08473
5.19709
3.08488
5.69701
0.828436
5.55488
5.49829
2.01798
1.19023
5.98776
2.14556
1.15614
5.8594
5.78289
1.76374
1.11991
3.54381
3.54512
3.3679
4.01753
3.85627
2.92468
3.29957
3.85423
1.42894
2.19445
1.25205
2.34055
5.20295
4.03401
4.37556
4.60989
4.19082
4.43891
4.24134
2.22706
2.48503
3.66994
0.83141
1.99412
4.20707
2.21322
3.92624
1.98129
3.5647
1.52054
4.87751
0.495426
4.48218
1.24029
3.51752
1.45753
2.74491
1.20626
4.67009
1.51398
3.61449
5.05133
4.55981
4.52879
4.43029
4.44249
0.433673
4.52342
3.24872
0.395035
0.902946
4.20821
2.51585
0.982445
2.35838
4.12605
1.09897
1.55039
3.3059
0.302451
0.757807
5.34688
3.59776
2.24612
1.4093
3.34262
1.85508
3.16774
0.427833
4.11148
3.0166
2.64319
3.52242
1.16366
0.692294
2.65123
3.14519
4.23327
1.48663
2.79702
0.603852
2.19843
3.12469
0.584723
3.86665
4.6125
0.664942
5.66222
0.74123
5.20452
4.14697
4.51239
4.42941
3.42907
0.669234
4.08531
0.289051
3.36942
5.14004
3.13783
5.21403
0.739298
4.81398
3.79868
4.38892
3.88328
2.63781
2.4954
1.64964
3.90531
2.744
0.523548
11.7846
2.13544
4.87064
4.44503
0.472196
4.55846
10.8234
1.93803
5.0801
0.5171
10.2239
2.10391
4.18935
5.15072
3.02402
9.28497
2.13466
3.14034
5.20738
3.85177
3.41211
4.49314
0.450995
5.98217
0.272231
6.21059
3.95939
4.0609
2.255
6.3525
3.54257
1.60514
4.47832
4.30362
1.35089
4.20506
0.477721
2.03007
5.47331
4.35241
5.44007
0.623445
5.62026
1.91586
4.43186
5.78156
0.587548
4.09492
4.9649
5.96352
1.69722
3.08415
4.12373
1.26153
4.39729
0.594369
12.9906
2.1067
4.71916
5.37249
1.57162
4.19709
4.14794
3.84541
4.16364
2.98792
0.391297
5.09787
5.16363
3.0337
4.43731
4.99696
2.07916
1.55237
0.429087
0.436728
4.5784
0.664633
0.467436
3.88277
3.95416
0.275515
5.01922
3.98937
3.3551
1.12674
4.64503
3.46999
4.46637
3.77287
0.301033
3.50804
0.382637
3.21041
2.23397
3.96594
3.60772
5.09176
3.61279
0.443138
6.11026
1.58157
5.01621
4.45432
4.42731
5.67599
3.10816
1.49773
4.20908
0.36882
3.61751
3.45868
1.66586
2.06571
2.69375
4.94935
0.753064
4.08701
3.01213
3.48545
8.34084
3.12037
5.68708
2.95241
3.80675
3.39613
1.42671
3.8285
3.50308
5.35612
3.49278
1.06046
5.20459
0.434846
1.57718
4.50986
0.400398
3.97673
3.7713
3.81956
5.41798
3.82253
3.9531
3.64791
1.37922
3.91057
3.82328
4.68905
3.49267
0.848947
2.81868
3.41442
3.54229
5.43557
4.46898
4.0403
4.52353
3.16102
2.71842
4.95717
4.18469
0.417041
5.47862
7.39328
1.85111
3.10254
4.04521
4.15339
1.73911
5.42803
1.47562
4.28742
4.11423
4.38729
0.435852
6.02511
3.53255
5.10668
3.48197
4.31051
1.73629
5.99389
2.97184
1.55541
4.36563
3.60951
3.49784
2.70618
5.47232
4.92554
1.58428
4.1636
3.87798
1.40766
0.732611
4.46741
0.494106
5.43684
3.40111
1.92311
3.66853
4.64129
3.52414
0.495632
4.58034
1.53825
4.39305
4.12052
10.3503
2.66775
4.41727
4.29552
5.26517
9.23782
4.07658
4.15654
4.10367
1.60015
2.98968
1.63985
3.35287
5.11445
0.866657
1.42978
7.97903
3.81522
0.853866
5.56817
2.96127
4.39576
2.94165
0.403947
4.85177
0.906664
7.98613
5.09744
3.18034
5.5212
1.71042
5.69283
3.17692
4.17443
0.579623
5.91399
2.9669
0.439418
0.488403
2.90586
1.42396
2.9515
0.444289
7.51644
2.82626
6.24691
5.27998
6.80119
3.25392
0.511991
3.91023
4.34313
5.75416
6.52437
2.79126
3.09032
0.548712
0.740367
1.18551
4.34911
4.5875
2.09298
7.03612
6.13316
2.74793
4.59938
0.709034
2.8265
1.74286
0.608668
4.13249
3.48692
4.77499
0.879328
1.74518
6.82699
0.580778
6.13099
2.93113
3.38178
3.427
5.02182
5.46895
0.855838
4.94899
1.02494
5.49052
2.29283
4.77447
3.01975
0.362469
3.03489
0.75727
6.34857
5.10356
5.28706
2.24857
4.73849
2.11576
6.96742
1.51885
5.58279
2.73238
1.28813
2.86609
2.43583
5.78363
0.607457
2.71401
7.03898
2.89263
2.68792
5.55322
2.69329
5.3652
2.40068
5.3364
3.50289
4.84517
3.00633
1.42911
3.43827
4.68382
3.64686
5.11569
3.70991
0.543149
9.10647
5.18151
1.27874
4.02978
3.62696
1.91509
5.11924
1.15202
2.48425
2.04987
1.45409
2.53664
4.03031
1.34951
3.34339
0.527775
8.26569
4.39248
1.31681
4.31158
3.75854
2.34741
4.42011
5.1075
1.29746
3.60165
0.686318
12.9507
4.98611
4.45282
4.19454
1.35298
4.37954
5.06793
1.17943
5.86174
0.766563
3.71192
2.69277
2.84981
0.661972
0.417565
3.96067
4.19221
1.80629
1.21961
1.83304
2.23022
1.79399
5.76483
1.51178
5.484
1.70467
1.429
2.16016
1.49489
5.30833
1.02919
5.92335
2.9289
4.87743
2.11085
2.15213
0.37664
3.81323
4.7711
9.88726
4.35573
7.63375
4.08688
2.64947
6.89621
4.05539
4.35992
1.37902
4.3585
3.79881
4.28585
1.59755
7.42492
1.5488
0.465137
3.11771
5.35263
4.18402
4.72242
10.3864
4.17506
3.68539
8.63982
4.48148
4.53081
3.6546
4.35817
10.9835
3.93832
8.71104
5.83218
2.18155
1.48752
5.12367
1.82154
5.64794
3.40959
1.95808
1.85346
4.96678
8.07885
1.15213
4.96296
4.63904
1.45576
4.16433
4.95648
1.20477
6.19664
4.76139
0.374069
8.75454
1.12161
3.04308
2.88822
8.04538
1.15813
6.13782
5.39324
1.79129
5.01874
3.15549
2.42507
1.70412
0.882324
5.59005
1.32958
4.3738
6.91046
0.948048
3.33004
4.17126
0.905507
3.94478
3.85885
7.53527
3.48887
3.82296
5.65081
0.879803
4.08967
2.90014
2.07159
4.1051
6.11525
2.40798
0.728152
5.16506
1.91934
2.9454
2.79078
3.92307
5.42581
3.05437
2.81823
4.6868
1.65573
5.87534
0.834524
2.73368
0.307573
3.61983
3.80655
5.13141
1.93014
2.70651
0.737642
4.15486
4.82283
3.18932
1.8824
5.03367
2.38248
4.84812
1.34461
4.14643
4.20988
2.80777
4.20799
3.30744
6.3055
4.21763
4.88797
1.61858
4.22939
0.579891
1.90213
4.14793
3.27429
3.92092
2.94865
4.074
4.19421
3.26138
3.19059
1.69077
3.93185
4.84802
3.46231
1.79968
1.63199
5.02116
2.67949
2.84223
1.31318
4.68075
5.59006
1.33084
4.94945
2.21853
5.39335
0.989582
4.8552
1.1773
4.15202
3.78405
3.82501
3.37507
2.9247
3.5803
2.16451
0.574775
3.46744
1.63611
4.26895
1.43587
4.73577
2.49841
3.4878
3.22361
2.77658
2.09654
4.68686
1.68162
4.92331
3.13011
0.458967
7.88008
2.00348
3.81424
5.38512
3.09323
2.30941
4.26033
4.47432
2.36553
1.88307
3.60289
2.06808
4.54349
3.02296
0.680829
3.35927
3.63474
1.52509
7.31216
3.11659
3.7651
5.03942
7.77312
3.19048
0.500539
4.01296
4.9815
2.51814
4.49719
1.98751
4.24951
5.24202
4.06451
1.57422
3.33465
4.23288
3.39702
0.310469
5.35616
4.05013
0.602053
7.95175
5.21092
0.523328
1.58283
3.00159
2.09269
4.24538
1.0141
5.21174
6.02169
6.13801
3.16789
3.30418
2.06617
1.60404
1.39915
3.64926
6.2865
0.725837
2.123
1.77087
1.14595
6.10589
0.700201
6.81535
2.8773
3.61699
4.40785
3.09671
1.36187
1.38941
5.15998
2.30752
2.0319
4.20978
1.30402
4.91887
5.30726
6.89827
2.96877
3.97397
2.08954
1.4122
5.65162
0.827436
7.5018
3.07801
4.42385
3.82187
0.655231
11.2776
4.0819
2.372
4.06442
1.84764
4.80883
4.70031
7.149
3.20826
4.7049
6.27769
3.97395
0.331461
3.23654
2.85818
0.587573
10.2314
4.16052
1.07078
3.74274
1.28711
4.97045
0.793114
3.04363
1.50698
0.894178
2.0236
4.31522
0.782378
2.78828
1.00306
1.03198
2.89567
1.02791
4.30342
6.87043
6.13559
0.749424
2.46294
4.28171
4.88171
2.94161
0.727491
4.46079
4.38236
1.79019
3.69502
1.7961
3.95989
5.52345
5.50353
0.851582
5.00254
0.849392
2.95732
5.43631
3.83697
0.724964
3.18815
3.87537
0.888022
2.53497
2.3903
5.28574
10.0754
4.10341
4.31779
1.60665
3.11195
4.68859
3.28869
3.0554
0.626203
4.44311
3.06646
4.11026
0.626749
5.67141
4.07636
3.10628
4.96849
4.12842
3.0409
3.62283
1.27754
0.739643
3.77908
6.91884
2.80728
4.1577
4.0296
0.786041
3.3051
4.7151
10.1641
4.24608
0.80471
3.59647
0.562092
4.44641
4.07495
0.517841
2.8056
4.77436
1.60378
3.52033
10.2681
2.69104
4.23985
4.52758
4.19709
1.06124
3.81913
3.7744
3.1914
0.591042
1.55107
1.4207
5.1338
2.56035
4.96006
1.03991
2.22378
0.878052
4.18901
0.716494
0.792521
3.85203
4.20012
0.894718
3.13633
1.26036
2.17304
5.32216
0.706224
3.94104
5.19361
3.10661
3.58412
1.83125
3.65778
3.30861
2.57581
4.07797
3.19785
3.08362
4.23753
1.53999
3.405
3.69291
3.34748
4.04426
4.19093
3.42216
0.512368
2.18945
6.30497
0.60587
3.77195
4.04921
3.91589
3.31517
2.74019
3.06841
3.69468
4.33038
6.0685
0.600808
3.61872
3.96145
3.27004
5.86481
2.19585
2.57426
2.68121
6.5648
3.49942
1.98678
3.00561
6.06271
3.3645
0.427764
2.59921
2.37221
5.88388
7.77055
3.4188
3.63746
3.23801
4.46477
3.68046
3.82794
2.73154
4.59968
4.98401
0.625378
4.06735
4.9336
2.52578
4.66991
4.3294
3.96991
4.3393
4.16713
4.55603
4.78099
4.51804
4.22726
4.91565
1.13285
5.73654
2.58186
5.61665
0.878229
2.30751
5.3814
5.41421
0.763465
6.64959
1.70083
5.10552
5.34245
4.44567
4.87093
0.906621
8.24512
1.73353
3.39517
5.68035
3.66721
4.17645
5.04033
4.01345
2.57025
1.58566
1.63937
4.8206
4.01075
2.31261
1.42591
2.03533
4.52637
2.78455
1.64811
2.06001
4.75682
2.33393
1.56772
2.19838
4.61178
4.10813
4.19863
4.04168
4.14428
4.27325
4.22003
4.05679
4.04636
2.04522
7.20379
1.21155
2.67644
0.68047
3.99906
3.85973
4.31197
1.64936
2.94784
5.11718
5.03547
6.53997
1.56387
3.20594
4.05427
4.16843
4.54155
4.69113
2.58991
0.600692
1.01401
4.9261
0.941516
4.22236
0.788423
0.615265
2.83418
0.900916
3.56356
5.19613
0.667926
2.94392
0.521864
2.96924
4.66438
0.669471
2.99901
0.64993
0.563407
0.622945
5.17858
3.94668
0.501285
7.45644
2.8912
0.766959
5.63897
3.04605
3.24827
5.34487
2.60673
3.32721
0.316746
2.93641
1.86689
4.03617
3.90785
3.32837
2.848
2.00087
5.71416
2.74547
3.92415
0.590542
0.586931
0.538808
5.297
2.59563
0.565855
4.03797
0.572606
4.68311
0.751331
5.59462
5.91362
0.741375
3.56801
0.785908
6.40826
5.39469
0.815224
9.12471
3.76536
7.32163
5.13252
0.941371
3.86189
0.65816
0.62353
5.21075
4.05633
0.693915
0.692933
3.50751
5.16672
2.83514
3.14737
3.01152
7.21286
0.29731
2.90607
2.89822
6.75761
2.98327
2.9562
6.17572
2.94089
6.19967
3.57781
3.51738
1.7446
7.95123
2.00054
5.37409
3.448
1.55648
8.87952
3.70229
1.62329
10.0418
3.97439
1.23548
0.587628
2.95592
4.90633
2.40468
1.35849
1.62915
1.09758
4.03111
1.60337
0.985648
2.23942
1.09427
2.90029
1.50944
1.04477
2.37917
1.1771
0.796734
1.32002
7.6195
3.00295
5.16258
2.8637
2.88077
3.00053
2.7014
2.73527
4.39607
1.14182
2.50659
2.99075
3.04572
4.31648
1.16528
2.59211
2.3442
2.99513
4.43561
1.13528
2.47323
4.33097
2.77591
2.67676
5.43657
2.92063
4.1726
1.14095
2.98543
2.09569
2.79499
4.36651
4.15272
0.354185
4.05655
1.31517
4.66688
4.0332
4.08989
1.30916
1.04074
5.23788
3.9285
1.38782
3.59286
5.42822
3.59198
3.79371
1.51878
4.03675
0.464985
3.89839
0.562883
3.153
1.44478
2.36547
0.532829
5.45826
2.97039
4.27614
5.79667
3.70588
3.8019
4.38316
3.44454
4.48724
3.75181
4.20108
4.21126
3.68953
4.48643
5.35124
3.27093
5.13395
3.60233
4.32289
4.36763
3.38307
4.11475
0.765301
2.94828
2.55316
0.724142
3.23199
2.83458
0.69225
0.684041
0.59306
6.38801
0.579266
3.03186
1.46354
0.709375
0.782241
2.56133
4.56169
2.99767
4.63894
2.73227
4.22081
2.43783
5.16806
2.86026
2.87526
5.3953
2.94877
4.2784
0.351507
2.55399
2.62828
4.82709
0.326483
2.71208
2.68326
6.50129
2.81459
3.58711
2.74014
7.1181
0.289024
2.73673
7.40123
0.289012
2.86375
3.45406
2.85507
2.68617
6.2457
2.53512
4.61093
4.91376
4.27992
1.75039
4.93851
2.67697
4.24587
2.70046
4.64543
4.7667
2.68065
2.71329
2.84056
5.0169
1.99552
4.39066
4.39741
5.81576
0.61344
2.47416
0.677453
0.768279
2.33372
2.77574
0.686968
0.767018
6.08254
1.78155
1.63645
1.49078
1.74615
1.90221
0.873937
2.46465
5.68777
2.2236
0.827206
2.027
2.1696
6.22569
3.06513
3.0144
3.02031
3.22205
0.431413
3.09576
2.85418
0.339154
2.86108
3.09251
3.06574
5.03886
2.80345
5.4779
2.82091
4.4695
3.23605
4.35453
0.50538
3.26519
4.79685
0.617923
3.22269
5.45196
2.65372
4.39881
4.48061
3.94724
0.91739
4.52379
4.18403
1.21602
5.06587
3.20805
0.557223
2.40456
5.51964
3.29291
2.24762
2.52967
3.25046
2.28231
0.707763
2.29826
7.12028
3.09856
0.329163
2.98993
0.364553
3.42181
0.417825
1.60252
5.58872
5.25411
5.81793
6.11347
4.15014
0.755846
3.92501
0.685157
4.01236
0.611783
4.07718
1.32976
3.06303
3.71518
2.92685
2.09017
1.72537
2.68246
4.05044
1.47313
2.81323
4.28178
5.84928
1.92804
2.0068
6.48634
1.9988
2.21507
5.29359
1.88431
3.97672
3.91847
3.97968
2.36432
2.57915
2.46528
4.18178
3.38732
1.81978
2.27614
2.36077
2.43566
1.98721
4.11539
0.834379
4.07117
3.95201
4.07901
0.611937
4.25617
4.06348
4.20836
0.793933
4.08663
4.27177
4.3311
4.65744