# vtk DataFile Version 2.0
Unstructured Grid by M++
ASCII
DATASET UNSTRUCTURED_GRID
POINTS 16641 float
  0.703125   0.781250 0
  0.632812   0.828125 0
  0.640625   0.835938 0
  0.640625   0.804688 0
  0.648438   0.812500 0
  0.625000   0.820312 0
  0.789062   0.929688 0
  0.796875   0.937500 0
  0.664062   0.945312 0
  0.664062   0.953125 0
  0.664062   0.968750 0
  0.671875   0.960938 0
  0.679688   0.960938 0
  0.679688   0.968750 0
  0.671875   0.953125 0
  0.914062   0.945312 0
  0.914062   0.968750 0
  0.914062   0.960938 0
  0.921875   0.968750 0
  0.929688   0.960938 0
  0.921875   0.945312 0
  0.921875   0.953125 0
  0.929688   0.953125 0
  0.820312   0.898438 0
  0.750000   0.945312 0
  0.570312   0.898438 0
  0.578125   0.898438 0
  0.585938   0.898438 0
  0.523438   0.953125 0
  0.585938   0.890625 0
  0.585938   0.882812 0
  0.515625   0.945312 0
  0.523438   0.945312 0
  0.515625   0.937500 0
  0.570312   0.890625 0
  0.578125   0.890625 0
  0.578125   0.882812 0
  0.570312   0.882812 0
  0.507812   0.937500 0
  0.507812   0.929688 0
  0.976562   0.882812 0
  0.992188   0.898438 0
  0.984375   0.890625 0
  0.968750   0.820312 0
  0.976562   0.828125 0
  0.992188   0.812500 0
  1.000000   0.820312 0
  0.656250   0.960938 0
  0.648438   0.953125 0
  0.640625   0.945312 0
  0.882812   0.968750 0
  0.882812   0.960938 0
  0.890625   0.968750 0
  0.906250   0.960938 0
  0.898438   0.953125 0
  0.906250   0.953125 0
  0.898438   0.945312 0
  0.906250   0.945312 0
  0.882812   0.953125 0
  0.890625   0.953125 0
  0.890625   0.945312 0
  0.882812   0.945312 0
  0.539062   0.695312 0
  0.539062   0.718750 0
  0.531250   0.710938 0
  0.554688   0.710938 0
  0.546875   0.703125 0
  0.570312   0.585938 0
  0.578125   0.585938 0
  0.585938   0.578125 0
  0.585938   0.570312 0
  0.570312   0.578125 0
  0.578125   0.570312 0
  0.757812   0.835938 0
  0.929688   0.968750 0
  0.960938   0.929688 0
  0.960938   0.921875 0
  0.953125   0.914062 0
  0.953125   0.921875 0
  0.601562   0.679688 0
  0.835938   0.976562 0
  0.898438   0.718750 0
  0.835938   0.968750 0
  0.593750   0.906250 0
  0.664062   0.914062 0
  0.601562   0.914062 0
  0.609375   0.921875 0
  0.679688   0.929688 0
  0.679688   0.937500 0
  0.796875   0.968750 0
  0.726562   0.945312 0
  0.742188   0.945312 0
  0.726562   0.890625 0
  0.734375   0.898438 0
  0.742188   0.960938 0
  0.734375   0.960938 0
  0.734375   0.953125 0
  0.726562   0.953125 0
  0.523438   0.820312 0
  0.523438   0.828125 0
  0.640625   0.953125 0
  0.984375   0.664062 0
  0.632812   0.953125 0
  0.921875   0.914062 0
  0.914062   0.906250 0
  0.671875   0.929688 0
  0.671875   0.921875 0
  0.664062   0.921875 0
  0.554688   0.945312 0
  0.914062   0.937500 0
  0.718750   0.882812 0
  0.507812   0.867188 0
  0.570312   0.617188 0
  0.742188   0.968750 0
  0.726562   0.976562 0
  0.726562   0.984375 0
  0.562500   0.898438 0
  0.734375   0.984375 0
  0.734375   0.992188 0
  0.742188   0.992188 0
  0.742188   1.000000 0
  0.742188   0.937500 0
  0.734375   0.937500 0
  0.734375   0.929688 0
  0.726562   0.921875 0
  0.726562   0.929688 0
  0.679688   0.843750 0
  0.921875   0.960938 0
  0.914062   0.953125 0
  0.687500   0.851562 0
  0.562500   0.984375 0
  0.554688   0.984375 0
  0.632812   0.937500 0
  0.625000   0.929688 0
  0.554688   0.921875 0
  0.585938   0.984375 0
  0.648438   0.929688 0
  0.656250   0.937500 0
  0.578125   0.914062 0
  0.585938   0.921875 0
  0.578125   0.921875 0
  0.906250   0.929688 0
  0.898438   0.929688 0
  0.898438   0.937500 0
  0.906250   0.937500 0
  0.554688   0.679688 0
  0.554688   0.687500 0
  0.554688   0.976562 0
  0.570312   0.914062 0
  0.570312   0.906250 0
  0.562500   0.906250 0
  0.531250   0.664062 0
  0.539062   0.664062 0
  0.804688   0.976562 0
  0.890625   0.937500 0
  0.890625   0.929688 0
  0.882812   0.921875 0
  0.875000   0.921875 0
  0.882812   0.937500 0
  0.882812   0.929688 0
  0.875000   0.929688 0
  0.546875   0.679688 0
  0.539062   0.671875 0
  0.531250   0.687500 0
  0.539062   0.617188 0
  0.546875   0.671875 0
  0.554688   0.601562 0
  0.742188   0.906250 0
  0.570312   0.968750 0
  0.578125   0.976562 0
  0.585938   0.976562 0
  0.578125   0.968750 0
  0.640625   0.921875 0
  0.828125   0.968750 0
  0.539062   0.929688 0
  0.890625   0.921875 0
  0.898438   0.921875 0
  0.906250   0.921875 0
  0.945312   1.000000 0
  0.945312   0.992188 0
  0.937500   0.992188 0
  0.953125   0.992188 0
  0.953125   1.000000 0
  0.960938   0.992188 0
  0.960938   1.000000 0
  0.710938   0.992188 0
  0.710938   1.000000 0
  0.718750   1.000000 0
  0.960938   0.984375 0
  0.960938   0.976562 0
  0.539062   0.703125 0
  0.718750   0.976562 0
  0.539062   0.875000 0
  0.695312   0.859375 0
  0.703125   0.867188 0
  0.937500   0.984375 0
  0.945312   0.984375 0
  0.953125   0.984375 0
  0.953125   0.976562 0
  0.937500   0.976562 0
  0.945312   0.976562 0
  0.687500   0.976562 0
  0.695312   0.976562 0
  0.882812   0.562500 0
  0.703125   1.000000 0
  0.703125   0.992188 0
  0.703125   0.984375 0
  0.695312   0.984375 0
  0.523438   0.835938 0
  0.867188   0.546875 0
  0.687500   0.984375 0
  0.695312   1.000000 0
  0.687500   0.992188 0
  0.687500   1.000000 0
  0.585938   0.648438 0
  0.523438   0.898438 0
  0.554688   0.898438 0
  0.835938   0.914062 0
  0.539062   0.882812 0
  0.882812   0.593750 0
  0.750000   0.921875 0
  0.820312   0.937500 0
  0.820312   0.929688 0
  0.914062   0.921875 0
  0.750000   0.773438 0
  0.914062   0.929688 0
  0.632812   0.960938 0
  0.843750   0.976562 0
  0.812500   0.523438 0
  0.843750   0.984375 0
  0.523438   0.632812 0
  0.703125   0.812500 0
  0.648438   0.960938 0
  0.992188   0.671875 0
  0.640625   0.960938 0
  0.929688   0.921875 0
  0.921875   0.921875 0
  0.757812   0.781250 0
  0.921875   0.929688 0
  0.921875   0.937500 0
  0.937500   0.929688 0
  0.929688   0.929688 0
  0.765625   0.757812 0
  0.695312   0.804688 0
  0.812500   0.953125 0
  0.648438   0.898438 0
  0.656250   0.906250 0
  0.820312   1.000000 0
  0.820312   0.992188 0
  0.820312   0.960938 0
  0.906250   0.898438 0
  0.554688   0.648438 0
  0.554688   0.656250 0
  0.578125   0.945312 0
  0.882812   0.734375 0
  0.820312   0.984375 0
  0.960938   0.640625 0
  0.828125   0.937500 0
  0.898438   0.890625 0
  0.554688   0.640625 0
  0.554688   0.632812 0
  0.570312   0.937500 0
  0.562500   0.929688 0
  0.632812   0.882812 0
  0.867188   0.718750 0
  0.875000   0.726562 0
  0.804688   0.968750 0
  0.812500   0.976562 0
  0.562500   0.875000 0
  0.804688   0.945312 0
  0.812500   0.945312 0
  0.953125   0.632812 0
  0.945312   0.625000 0
  0.890625   0.882812 0
  0.882812   0.875000 0
  0.546875   0.632812 0
  0.531250   0.632812 0
  0.539062   0.632812 0
  0.539062   0.625000 0
  0.546875   0.656250 0
  0.546875   0.648438 0
  0.546875   0.640625 0
  0.539062   0.640625 0
  0.531250   0.640625 0
  0.539062   0.656250 0
  0.539062   0.648438 0
  0.531250   0.648438 0
  0.531250   0.656250 0
  0.843750   0.921875 0
  0.835938   0.921875 0
  0.843750   0.929688 0
  0.609375   0.890625 0
  0.851562   0.992188 0
  0.726562   0.835938 0
  0.585938   0.656250 0
  0.585938   0.664062 0
  0.523438   0.906250 0
  0.796875   0.960938 0
  0.789062   0.960938 0
  0.609375   0.648438 0
  0.601562   0.640625 0
  0.601562   0.648438 0
  0.593750   0.648438 0
  0.546875   0.898438 0
  0.539062   0.890625 0
  0.750000   0.914062 0
  0.539062   0.898438 0
  0.531250   0.898438 0
  0.828125   0.976562 0
  0.664062   0.828125 0
  0.726562   0.578125 0
  0.601562   0.882812 0
  0.593750   0.875000 0
  0.734375   0.585938 0
  0.890625   0.742188 0
  0.742188   0.593750 0
  0.671875   0.835938 0
  0.835938   0.984375 0
  0.828125   0.984375 0
  0.828125   0.992188 0
  0.828125   1.000000 0
  0.843750   0.992188 0
  0.835938   0.992188 0
  0.835938   1.000000 0
  0.843750   1.000000 0
  0.570312   0.742188 0
  0.562500   0.742188 0
  0.507812   1.000000 0
  0.546875   0.664062 0
  0.898438   0.804688 0
  0.554688   0.671875 0
  0.890625   0.960938 0
  0.554688   0.664062 0
  0.757812   0.960938 0
  0.507812   0.960938 0
  0.578125   0.648438 0
  0.570312   0.648438 0
  0.562500   0.648438 0
  0.515625   0.898438 0
  0.507812   0.898438 0
  0.523438   0.765625 0
  0.585938   0.515625 0
  0.875000   0.960938 0
  0.898438   0.960938 0
  0.734375   0.812500 0
  0.898438   0.968750 0
  0.750000   0.828125 0
  0.906250   0.968750 0
  0.742188   0.820312 0
  0.507812   0.992188 0
  0.851562   0.703125 0
  0.789062   0.953125 0
  0.867188   0.773438 0
  0.710938   0.593750 0
  0.812500   0.984375 0
  0.812500   0.992188 0
  0.804688   1.000000 0
  0.570312   0.960938 0
  0.562500   0.960938 0
  0.562500   0.953125 0
  0.554688   0.953125 0
  0.640625   0.890625 0
  0.617188   0.742188 0
  0.796875   1.000000 0
  0.796875   0.992188 0
  0.789062   0.992188 0
  0.609375   0.742188 0
  0.687500   0.570312 0
  0.789062   0.984375 0
  0.601562   0.734375 0
  0.593750   0.726562 0
  0.601562   0.726562 0
  0.539062   0.976562 0
  0.867188   0.804688 0
  0.750000   0.953125 0
  0.757812   0.953125 0
  0.570312   0.703125 0
  0.562500   0.695312 0
  0.570312   0.695312 0
  0.687500   0.945312 0
  0.695312   0.945312 0
  0.773438   0.945312 0
  0.781250   0.945312 0
  0.695312   0.921875 0
  0.703125   0.921875 0
  0.585938   0.640625 0
  0.593750   0.640625 0
  0.585938   0.632812 0
  0.593750   0.632812 0
  0.523438   0.890625 0
  0.531250   0.890625 0
  0.523438   0.882812 0
  0.531250   0.882812 0
  0.781250   0.953125 0
  0.765625   0.960938 0
  0.578125   0.703125 0
  0.578125   0.710938 0
  0.585938   0.710938 0
  0.585938   0.718750 0
  0.851562   0.789062 0
  0.710938   0.960938 0
  0.710938   0.968750 0
  0.718750   0.968750 0
  0.562500   0.734375 0
  0.570312   0.734375 0
  0.570312   0.726562 0
  0.562500   0.718750 0
  0.843750   0.695312 0
  0.507812   0.984375 0
  0.578125   0.734375 0
  0.578125   0.742188 0
  0.585938   0.742188 0
[...]
POINT_DATA 16641
SCALARS scalar_value float 1
LOOKUP_TABLE default
-0.430242
-0.436548
-0.437873
-0.433318
-0.434553
-0.435224
-0.457645
-0.459054
-0.457262
-0.459244
-0.463685
-0.461251
-0.460995
-0.463177
-0.459126
-0.466489
-0.470424
-0.469005
-0.470696
-0.469547
-0.466708
-0.467948
-0.468217
-0.455804
-0.4584
-0.4486
-0.448312
-0.448059
-0.462285
-0.446497
-0.445058
-0.460616
-0.460105
-0.458718
-0.447054
-0.446789
-0.445292
-0.445535
-0.459329
-0.457529
-0.460181
-0.461668
-0.460937
-0.4536
-0.454678
-0.452552
-0.453668
-0.461489
-0.459373
-0.457425
-0.469203
-0.467561
-0.469542
-0.468708
-0.467054
-0.467388
-0.465928
-0.466233
-0.466336
-0.466702
-0.465618
-0.465279
-0.421546
-0.423399
-0.422852
-0.422726
-0.422137
-0.407672
-0.407156
-0.40547
-0.40434
-0.406563
-0.40491
-0.441654
-0.47095
-0.465281
-0.46428
-0.463334
-0.464254
-0.418794
-0.468163
-0.421553
-0.466355
-0.449463
-0.450411
-0.451003
-0.452485
-0.453692
-0.455309
-0.463562
-0.457731
-0.458183
-0.448631
-0.450322
-0.460679
-0.460582
-0.459263
-0.459104
-0.433636
-0.434994
-0.459445
-0.412685
-0.459526
-0.462969
-0.461972
-0.453586
-0.451987
-0.451913
-0.459036
-0.465406
-0.447056
-0.442865
-0.412284
-0.461976
-0.463545
-0.465147
-0.448877
-0.464929
-0.466544
-0.466342
-0.467968
-0.456912
-0.456647
-0.455415
-0.453822
-0.455154
-0.439889
-0.469277
-0.467673
-0.441223
-0.470406
-0.470755
-0.455531
-0.45384
-0.45387
-0.47027
-0.45365
-0.455435
-0.451525
-0.452936
-0.45311
-0.464223
-0.463979
-0.464923
-0.465184
-0.419876
-0.420657
-0.467937
-0.451749
-0.450186
-0.450451
-0.418454
-0.418416
-0.465618
-0.464629
-0.463682
-0.462424
-0.462001
-0.464267
-0.463326
-0.462931
-0.419984
-0.419268
-0.420908
-0.41314
-0.419187
-0.410731
-0.451978
-0.46509
-0.467508
-0.467576
-0.465031
-0.452008
-0.46576
-0.455906
-0.462771
-0.463072
-0.463334
-0.477795
-0.476048
-0.475945
-0.476181
-0.477846
-0.476391
-0.478018
-0.46784
-0.469702
-0.469064
-0.474842
-0.473329
-0.422199
-0.463766
-0.444607
-0.442501
-0.443912
-0.474246
-0.474449
-0.474648
-0.47309
-0.472655
-0.472859
-0.465199
-0.464821
-0.393818
-0.470426
-0.468447
-0.466483
-0.467003
-0.43648
-0.393544
-0.467555
-0.471307
-0.469897
-0.472339
-0.416094
-0.450008
-0.449113
-0.45863
-0.446257
-0.396878
-0.454793
-0.460371
-0.459454
-0.463555
-0.429315
-0.464432
-0.461759
-0.468819
-0.394515
-0.470978
-0.415039
-0.436015
-0.461562
-0.415448
-0.461649
-0.463937
-0.463757
-0.431241
-0.464622
-0.465598
-0.464936
-0.464779
-0.426005
-0.434447
-0.461968
-0.447381
-0.448882
-0.473058
-0.470699
-0.463669
-0.460882
-0.416634
-0.417501
-0.458494
-0.424882
-0.468731
-0.40525
-0.460827
-0.459739
-0.415716
-0.414739
-0.456686
-0.455163
-0.444652
-0.418831
-0.421662
-0.464052
-0.466228
-0.444159
-0.460456
-0.460875
-0.402836
-0.400602
-0.458474
-0.457126
-0.414819
-0.414981
-0.414895
-0.414016
-0.417542
-0.416688
-0.415761
-0.415809
-0.415853
-0.417576
-0.416713
-0.416737
-0.417603
-0.459966
-0.459502
-0.460872
-0.445925
-0.47421
-0.440324
-0.416955
-0.417719
-0.451739
-0.462283
-0.461906
-0.415219
-0.414542
-0.415516
-0.415809
-0.449344
-0.447881
-0.453564
-0.449553
-0.449763
-0.467515
-0.437364
-0.400466
-0.444663
-0.443507
-0.401052
-0.428696
-0.401687
-0.438626
-0.47025
-0.469479
-0.471698
-0.474318
-0.473522
-0.472668
-0.475516
-0.476592
-0.425135
-0.425117
-0.486181
-0.418382
-0.448643
-0.419089
-0.467931
-0.418326
-0.460897
-0.466082
-0.41631
-0.416466
-0.416568
-0.45024
-0.450478
-0.426792
-0.397952
-0.467187
-0.468342
-0.436903
-0.469851
-0.440053
-0.470138
-0.438507
-0.481495
-0.414585
-0.460781
-0.4378
-0.402866
-0.467958
-0.469828
-0.4709
-0.462867
-0.462995
-0.460896
-0.46107
-0.446002
-0.424927
-0.470066
-0.468257
-0.467591
-0.425004
-0.400671
-0.466008
-0.424232
-0.423561
-0.423432
-0.468918
-0.446315
-0.45958
-0.459763
-0.421835
-0.421265
-0.421143
-0.457035
-0.457044
-0.459132
-0.459426
-0.45265
-0.452958
-0.415104
-0.414812
-0.414048
-0.413804
-0.448143
-0.447997
-0.446389
-0.446325
-0.460491
-0.461106
-0.421705
-0.422413
-0.42226
-0.422956
-0.440656
-0.460476
-0.462191
-0.462036
-0.424507
-0.424503
-0.423878
-0.423316
-0.412939
-0.477135
-0.424465
-0.42515
-0.425151
-0.479552
-0.416592
-0.483638
-0.481539
-0.424092
-0.415735
-0.416514
-0.45073
-0.44436
-0.465914
-0.465304
-0.458964
-0.457322
-0.457522
-0.431577
-0.425925
-0.468348
-0.471225
-0.473789
-0.461787
-0.463437
-0.462307
-0.438615
-0.427924
-0.464174
-0.430031
-0.464072
-0.459302
-0.392705
-0.467984
-0.470391
-0.467497
-0.467349
-0.466182
-0.465991
-0.40572
-0.45757
-0.420557
-0.420271
-0.419537
-0.414651
-0.467589
-0.466368
-0.434549
-0.466308
-0.465225
-0.432252
-0.436288
-0.436379
-0.434907
-0.393445
-0.433515
-0.43482
-0.463421
-0.433432
-0.393296
-0.468872
-0.470331
-0.441693
-0.471843
-0.408818
-0.463154
-0.421287
-0.422158
-0.413558
-0.465785
-0.433101
-0.466926
-0.467157
-0.435172
-0.414934
-0.465107
-0.446827
-0.477801
-0.444991
-0.400156
-0.471631
-0.421607
-0.439615
-0.470142
-0.468765
-0.437404
-0.468626
-0.468444
-0.471381
-0.469987
-0.420939
-0.469801
-0.47116
-0.46053
-0.45881
-0.458775
-0.462935
-0.419978
-0.420469
-0.419695
-0.413301
-0.414297
-0.41405
-0.413041
-0.444467
-0.446139
-0.397558
-0.447723
-0.447524
-0.447298
-0.444334
-0.445954
-0.445748
-0.474081
-0.472796
-0.413978
-0.438441
-0.446708
-0.477362
-0.418563
-0.475229
-0.416014
-0.476377
-0.478415
-0.464248
-0.462427
-0.441229
-0.465725
-0.461861
-0.466151
-0.463762
-0.422439
-0.421562
-0.420738
-0.42103
-0.422653
-0.422804
-0.479803
-0.399275
-0.399885
-0.463127
-0.465193
-0.43597
-0.40223
-0.401497
-0.467251
-0.465037
-0.435291
-0.42801
-0.429032
-0.472924
-0.397366
-0.469306
-0.43383
-0.432537
-0.431243
-0.42792
-0.426894
-0.458053
-0.45896
-0.459456
-0.468241
-0.410529
-0.471637
-0.466686
-0.470505
-0.412137
-0.466471
-0.438719
-0.461316
-0.404443
-0.403381
-0.403997
-0.402923
-0.47162
-0.467512
-0.466971
-0.428247
-0.424875
-0.400884
-0.400486
-0.40135
-0.403847
-0.474724
-0.477866
-0.475508
-0.478089
-0.431585
-0.432901
-0.434048
-0.464831
-0.45993
-0.426077
-0.397277
-0.463966
-0.462334
-0.431439
-0.461824
-0.45214
-0.427456
-0.426719
-0.42666
-0.427368
-0.39996
-0.467537
-0.399058
-0.398186
-0.464794
-0.398421
-0.398677
-0.40034
-0.399345
-0.399678
-0.470421
-0.400745
-0.462887
-0.463931
-0.465082
-0.465542
-0.46595
-0.463418
-0.464425
-0.464862
-0.463864
-0.423258
-0.423929
-0.423046
-0.454307
-0.455936
-0.467647
-0.467657
-0.432149
-0.469093
-0.469101
-0.470686
-0.470662
-0.470486
-0.436847
-0.46897
-0.439893
-0.46905
-0.469098
-0.467651
-0.437153
-0.467638
-0.46766
-0.420231
-0.420763
-0.47769
-0.477595
-0.479708
-0.478789
-0.47667
-0.478356
-0.477857
-0.398615
-0.475559
-0.397954
-0.442805
-0.461553
-0.460068
-0.43219
-0.475066
-0.422791
-0.443974
-0.473558
-0.47376
-0.472177
-0.472025
-0.453339
-0.450626
-0.454202
-0.452455
-0.473951
-0.47559
-0.475792
-0.472358
-0.439961
-0.469616
-0.438586
-0.42377
-0.424658
-0.466388
-0.46528
-0.466393
-0.421402
-0.423101
-0.44966
-0.451348
-0.451162
-0.462475
-0.455392
-0.424093
-0.456291
-0.45229
-0.456613
-0.457751
-0.427533
-0.45237
-0.451249
-0.477342
-0.422257
-0.426368
-0.454925
-0.45352
-0.455703
-0.454575
-0.456178
-0.423397
-0.445518
-0.378995
-0.428933
-0.428777
-0.378436
-0.401438
-0.416997
-0.393412
-0.401624
-0.394013
-0.501172
-0.408472
-0.431565
-0.434085
-0.508475
-0.395843
-0.404287
-0.397487
-0.396296
-0.405357
-0.398144
-0.436992
-0.513456
-0.404707
-0.395119
-0.452192
-0.537458
-0.336077
-0.399969
-0.41108
-0.407719
-0.420622
-0.402276
-0.430181
-0.504698
-0.394676
-0.197912
-0.509332
-0.39608
-0.404763
-0.397825
-0.396353
-0.404611
-0.442253
-0.52994
-0.437776
-0.515691
-0.386655
-0.404507
-0.40601
-0.405337
-0.430165
-0.504897
-0.402586
-0.409296
-0.412398
-0.403381
-0.402933
-0.403704
-0.419146
-0.381514
-0.396855
-0.413807
-0.392715
-0.404486
-0.395272
-0.404794
-0.392867
-0.405022
-0.395474
-0.441811
-0.522438
-0.284777
-0.210663
-0.432648
-0.505658
-0.507929
-0.433077
-0.50485
-0.40508
-0.435125
-0.507147
-0.435802
-0.506073
-0.405724
-0.400339
-0.414502
-0.40308
-0.395065
-0.39481
-0.430685
-0.502881
-0.404525
-0.428659
-0.499734
-0.19636
-0.408267
-0.428373
-0.500371
-0.404008
-0.416925
-0.404474
-0.405179
-0.506116
-0.416018
-0.44381
-0.519947
-0.520464
-0.417824
-0.510136
-0.406213
-0.444489
-0.524134
-0.401358
-0.401074
-0.376459
-0.394938
-0.403449
-0.396423
-0.403356
-0.436445
-0.520042
-0.399696
-0.389974
-0.399478
-0.389047
-0.389084
-0.403577
-0.437817
-0.52193
-0.394228
-0.403644
-0.438005
-0.521513
-0.393907
-0.403417
-0.436667
-0.519681
-0.411607
-0.435074
-0.520947
-0.372738
-0.394381
-0.404428
-0.409071
-0.50392
-0.42977
-0.504162
-0.431875
-0.506573
-0.395779
-0.403859
-0.439651
-0.527117
-0.396082
-0.404174
-0.440943
-0.52864
-0.395574
-0.40394
-0.397154
-0.392998
-0.402788
-0.431387
-0.508645
-0.481945
-0.436005
-0.514176
-0.403838
-0.437432
-0.515936
-0.404285
-0.438945
-0.517805
-0.404575
-0.442691
-0.535294
-0.516288
-0.436691
-0.516375
-0.389855
-0.403739
-0.402954
-0.394157
-0.403038
-0.39557
-0.404182
-0.396658
-0.403936
-0.398142
-0.440318
-0.530785
-0.27629
-0.514363
-0.437555
-0.216986
-0.393903
-0.403726
-0.394186
-0.404037
-0.399927
-0.390748
-0.406902
-0.397303
-0.404693
-0.39904
-0.442879
-0.53427
-0.291699
-0.405139
-0.444025
-0.536941
-0.389938
-0.405915
-0.445427
-0.538275
-0.397901
-0.406136
-0.399945
-0.445652
-0.536634
-0.307828
-0.514422
-0.411214
-0.410499
-0.435033
-0.51437
-0.412004
-0.516567
-0.413333
-0.412835
-0.436485
-0.516456
-0.436247
-0.516512
-0.518506
-0.38674
-0.447523
-0.535267
-0.425911
-0.497706
-0.382385
-0.427771
-0.501314
-0.403582
-0.411578
-0.419498
-0.406715
-0.428398
-0.395017
-0.401271
-0.401561
-0.395494
-0.395959
-0.39538
-0.402147
-0.397005
-0.396566
-0.408827
-0.416877
-0.454515
-0.439537
-0.499865
-0.407362
-0.427512
-0.428136
-0.414843
-0.449793
-0.426359
-0.496795
-0.181995
-0.403516
-0.426203
-0.497349
-0.486184
-0.487305
-0.435039
-0.483793
-0.437198
-0.407569
-0.399537
-0.404334
-0.454841
-0.418216
-0.460342
-0.421818
-0.382862
-0.383326
-0.398983
-0.406419
-0.416065
-0.390748
-0.406035
-0.446178
-0.545994
-0.399251
-0.406198
-0.446296
-0.544606
-0.398613
-0.405513
-0.398835
-0.405386
-0.444925
-0.542378
-0.398234
-0.404881
-0.521449
-0.520143
-0.437775
-0.518357
-0.444139
-0.375044
-0.375704
-0.403886
-0.42934
-0.476309
-0.194174
-0.432209
-0.480104
-0.406847
-0.208628
-0.407117
-0.413307
-0.444821
-0.411693
-0.439872
-0.168068
-0.374412
-0.420658
-0.464731
-0.424226
-0.427113
-0.470458
-0.430394
-0.423597
-0.467969
-0.427053
-0.383726
-0.384053
-0.433756
-0.406123
-0.425667
-0.474097
-0.179495
-0.425052
-0.475757
-0.40536
-0.439138
-0.434646
-0.512016
-0.432947
-0.509752
-0.403815
-0.410898
-0.403234
-0.40925
-0.505121
-0.409871
-0.508761
-0.515105
-0.433638
-0.431523
-0.508869
-0.402978
-0.428876
-0.407418
-0.426071
-0.425395
-0.500699
-0.409063
-0.401274
-0.394951
-0.394168
-0.401029
-0.395073
-0.392336
-0.407038
-0.39154
-0.391537
-0.417792
-0.408223
0
-0.392323
-0.39315
-0.393088
-0.400163
-0.529626
-0.401939
-0.403438
-0.431142
-0.507317
-0.40923
-0.429068
-0.128137
-0.410337
-0.434211
-0.433588
-0.141331
-0.40228
-0.530031
-0.539329
-0.446954
-0.381989
-0.154463
-0.402644
-0.403041
-0.428927
-0.488562
-0.385864
-0.404734
-0.475201
-0.49046
-0.424826
-0.479028
-0.427701
-0.425155
-0.387066
-0.404244
-0.434886
-0.511797
-0.387478
-0.387258
-0.411264
-0.416804
-0.498392
-0.4109
-0.416781
-0.497906
-0.410366
-0.414304
-0.412144
-0.544123
-0.447452
-0.420333
-0.465753
-0.405209
-0.400493
-0.40474
-0.438682
-0.437441
-0.437376
-0.408667
-0.412001
-0.414125
-0.488058
-0.40923
-0.414071
-0.447357
-0.547904
-0.44904
-0.405295
-0.446089
-0.547137
-0.416845
-0.498681
-0.411526
-0.420036
-0.551775
-0.404225
-0.407021
-0.407806
-0.426367
-0.472262
-0.423082
-0.469462
-0.483849
-0.42653
-0.402815
-0.405849
-0.406134
-0.4046
-0.407125
-0.403573
-0.406396
-0.407049
-0.4039
-0.406483
-0.442054
-0.403635
-0.439869
-0.442084
-0.440961
-0.441014
-0.45915
-0.400309
-0.404726
-0.401256
-0.405182
-0.405732
-0.401917
-0.405681
-0.419368
-0.458356
-0.462567
-0.401004
-0.405158
-0.526528
-0.439851
-0.532101
-0.439841
-0.395095
-0.405307
-0.443473
-0.526142
-0.39848
-0.512957
-0.409672
-0.509132
-0.431688
-0.409684
-0.43756
-0.43182
-0.409669
-0.501201
-0.408987
-0.403116
-0.409621
-0.449622
-0.447868
-0.408444
-0.403151
-0.411473
-0.402829
-0.407898
-0.401903
-0.403661
-0.441258
-0.40399
-0.511801
-0.517683
-0.435027
-0.404358
-0.400972
-0.404842
-0.403897
-0.404761
-0.409555
-0.548318
-0.445923
-0.492062
-0.408449
-0.418561
-0.405772
-0.409382
-0.40736
-0.409205
-0.41057
-0.447453
-0.529159
-0.530334
-0.496087
-0.409257
-0.410842
-0.410251
-0.412409
-0.530493
-0.497184
-0.421051
-0.448233
-0.53187
-0.397379
-0.408009
-0.449911
-0.531993
-0.397866
-0.409345
-0.406943
-0.424166
-0.404523
-0.417177
-0.403338
-0.415416
-0.405639
-0.419908
-0.419143
-0.402992
-0.417182
-0.46065
-0.476
-0.420316
-0.412937
-0.443552
-0.416655
-0.414337
-0.449569
-0.418078
-0.416107
-0.455134
-0.419833
-0.423019
-0.396726
-0.40713
-0.398867
-0.404688
-0.416183
-0.404653
-0.416301
-0.407263
-0.405715
-0.418779
-0.408279
-0.405742
-0.418608
-0.406806
-0.421845
-0.409302
-0.406825
-0.421629
-0.427356
-0.49998
-0.178118
-0.407946
-0.425581
-0.449412
-0.548131
-0.402269
-0.413387
-0.403446
-0.415045
-0.40366
-0.41423
-0.406243
-0.402783
-0.412334
-0.405329
-0.403749
-0.414061
-0.416428
-0.421873
-0.410657
-0.411917
-0.429817
-0.400363
-0.435272
-0.440901
-0.530279
-0.429771
-0.417146
-0.446517
-0.399363
-0.412504
-0.453167
-0.531576
-0.392722
-0.391143
-0.413223
-0.429259
-0.398532
-0.41084
-0.451588
-0.531837
-0.418235
-0.393814
-0.405518
-0.513457
-0.426967
-0.41508
-0.433904
-0.426196
-0.440698
-0.514339
-0.404349
-0.418662
-0.451488
-0.427321
-0.448129
-0.404781
-0.422205
-0.404804
-0.427689
-0.405557
-0.428088
-0.424204
-0.466523
-0.405444
-0.419994
-0.457207
-0.417319
-0.453839
-0.414171
-0.42856
-0.416862
-0.530523
-0.530464
-0.412536
-0.424071
-0.41893
-0.418111
-0.423098
-0.459657
-0.414518
-0.4283
-0.413985
-0.423444
-0.512811
-0.421098
-0.463677
-0.404752
-0.37028
-0.400693
-0.428025
-0.406272
-0.372264
-0.428806
-0.406206
-0.427862
-0.468712
-0.405534
-0.371281
-0.400974
-0.406076
-0.39448
-0.421996
-0.469674
-0.430013
-0.47529
-0.406113
-0.430938
-0.460388
-0.468286
-0.405431
-0.42747
-0.459352
-0.475707
-0.469071
-0.42182
-0.427005
-0.525773
-0.409126
-0.396862
-0.430151
-0.409056
-0.459214
-0.524123
-0.408595
-0.396398
-0.407576
-0.481412
-0.406744
-0.40666
-0.487872
-0.407267
-0.493305
-0.504784
-0.43021
-0.408401
-0.377417
-0.435097
-0.524248
-0.457556
-0.407996
-0.376561
-0.402137
-0.434375
-0.495927
-0.523548
-0.481984
-0.425709
-0.406626
-0.430378
-0.475581
-0.455043
-0.520971
-0.406806
-0.426847
-0.40732
-0.430877
-0.40692
-0.407291
-0.373182
-0.40733
-0.487525
-0.407547
-0.406958
-0.487699
-0.410695
-0.416887
-0.442002
-0.530863
-0.428537
-0.522967
-0.529083
-0.438944
-0.42731
-0.454017
-0.405042
-0.40546
-0.437606
-0.522408
-0.404693
-0.423991
-0.457723
-0.460844
-0.406207
-0.524792
-0.404542
-0.418976
-0.450484
-0.400426
-0.427661
-0.405576
-0.40653
-0.438844
-0.524161
-0.404401
-0.408847
-0.48446
-0.445052
-0.526635
-0.395256
-0.406069
-0.502031
-0.431089
-0.406189
-0.442749
-0.399658
-0.404344
-0.405912
-0.414991
-0.413892
-0.435286
-0.476403
-0.42171
-0.410939
-0.406263
-0.421174
-0.462821
-0.429687
-0.405821
-0.407023
-0.409623
-0.415757
-0.44071
-0.529378
-0.416003
-0.455373
-0.425187
-0.406928
-0.431278
-0.492745
-0.414375
-0.449384
-0.378332
-0.407034
-0.409889
-0.421963
-0.480759
-0.406861
-0.526451
-0.533321
-0.441382
-0.405969
-0.405626
-0.42062
-0.407629
-0.406586
-0.406436
-0.425767
-0.456547
-0.52182
-0.407461
-0.410841
-0.406899
-0.405299
-0.423005
-0.404434
-0.417676
-0.453295
-0.482041
-0.427958
-0.407941
-0.408051
-0.415152
-0.4495
-0.393536
-0.420317
-0.428782
-0.408619
-0.494454
-0.432791
-0.511776
-0.402984
-0.410739
-0.444529
-0.407537
-0.422275
-0.472456
-0.404599
-0.427464
-0.408088
-0.419911
-0.467977
-0.403765
-0.403341
-0.420734
-0.430521
-0.424408
-0.492384
-0.402374
-0.408006
-0.439081
-0.450564
-0.555331
-0.39684
-0.403515
-0.432865
-0.5099
-0.435309
-0.403337
-0.408215
-0.44005
-0.42264
-0.47092
-0.164532
-0.403763
-0.434444
-0.512139
-0.391693
-0.407586
-0.523699
-0.401884
-0.414779
-0.414759
-0.434268
-0.417431
-0.421314
-0.400822
-0.405603
-0.403519
-0.402542
-0.405786
-0.516853
-0.453722
-0.409158
-0.412343
-0.414273
-0.400882
-0.412806
-0.409154
-0.402705
-0.422467
-0.45189
-0.408113
-0.40865
-0.399651
-0.404706
-0.405115
-0.515538
-0.422327
-0.461265
-0.404715
-0.44491
-0.441406
-0.451471
-0.490565
-0.440489
-0.423134
-0.487012
-0.407449
-0.408125
-0.40834
-0.408661
-0.402409
-0.44988
-0.398778
-0.403969
-0.420086
-0.466838
-0.149322
-0.403492
-0.421166
-0.449507
-0.528239
-0.409175
-0.455154
-0.403487
-0.411632
-0.425629
-0.446055
-0.407039
-0.417434
-0.41378
-0.438647
-0.413603
-0.435389
-0.416452
-0.500303
-0.397177
-0.403419
-0.397128
-0.403444
-0.403208
-0.410877
-0.406902
-0.417541
-0.437521
-0.515951
-0.403178
-0.406881
-0.449061
-0.52926
-0.403812
-0.407785
-0.525067
-0.408627
-0.405654
-0.408733
-0.409075
-0.409616
-0.410209
-0.429038
-0.408501
-0.420395
-0.447846
-0.528152
-0.407902
-0.40559
-0.443802
-0.400214
-0.40511
-0.405119
-0.488455
-0.401608
-0.405636
-0.402537
-0.406212
-0.40223
-0.40618
-0.411578
-0.439589
-0.420321
-0.413061
-0.444756
-0.424651
-0.411158
-0.424812
-0.493328
-0.521371
-0.408563
-0.439448
-0.52774
-0.413085
-0.443236
-0.399997
-0.405823
-0.402299
-0.399439
-0.405191
-0.49118
-0.443641
-0.4062
-0.411509
-0.45062
-0.523864
-0.400497
-0.40666
-0.402874
-0.419799
-0.432489
-0.511914
-0.555471
-0.452115
-0.433344
-0.509204
-0.417268
-0.50142
-0.407975
-0.420539
-0.413054
-0.406754
-0.417678
-0.413315
-0.412221
-0.448233
-0.452347
-0.450752
-0.552284
-0.402881
-0.406899
-0.422752
-0.418177
-0.415133
-0.422961
-0.41158
-0.397825
-0.404432
-0.433693
-0.508858
-0.410699
-0.433824
-0.51494
-0.435524
-0.510986
-0.407007
-0.498168
-0.403691
-0.406118
-0.407271
-0.470005
-0.486396
-0.42286
-0.406155
-0.464067
-0.481142
-0.421266
-0.405107
-0.41356
-0.403031
-0.397243
-0.403027
-0.400576
-0.402724
-0.399094
-0.396831
-0.402719
-0.438338
-0.428649
-0.396671
-0.402719
-0.408136
-0.424812
-0.511447
-0.424563
-0.407111
-0.421222
-0.509525
-0.514234
-0.435748
-0.396387
-0.402415
-0.398394
-0.40212
-0.398245
-0.397972
-0.436882
-0.402416
-0.398699
-0.399764
-0.400537
-0.431343
-0.508563
-0.443187
-0.39785
-0.403043
-0.400162
-0.410017
-0.400952
-0.443924
-0.401344
-0.411571
-0.558615
-0.45373
-0.406556
-0.400568
-0.410008
-0.40589
-0.453921
-0.40788
-0.52079
-0.412448
-0.439593
-0.430525
-0.506719
-0.402986
-0.410224
-0.439799
-0.410733
-0.435487
-0.412216
-0.424212
-0.499023
-0.408252
-0.427473
-0.406844
-0.423546
-0.407959
-0.426011
-0.410396
-0.409258
-0.430948
-0.411572
-0.409162
-0.430647
-0.396757
-0.403066
-0.39836
-0.435401
-0.39729
-0.403351
-0.398998
-0.54591
-0.446182
-0.412895
-0.429413
-0.415706
-0.499444
-0.389939
-0.404608
-0.410589
-0.403486
-0.407842
-0.46892
-0.389106
-0.403883
-0.393031
-0.405218
-0.412683
-0.489134
-0.455651
-0.430297
-0.462806
-0.40464
-0.427316
-0.44963
-0.173095
-0.403864
-0.446997
-0.496526
-0.402856
-0.427364
-0.501041
-0.386277
-0.421676
-0.402917
-0.401672
-0.488472
-0.422827
-0.481796
-0.421681
-0.403308
-0.420405
-0.402096
-0.457514
-0.474898
-0.419911
-0.453682
-0.417387
-0.418656
-0.412472
-0.435252
-0.517441
-0.411519
-0.434317
-0.514507
-0.403175
-0.418045
-0.400774
-0.409764
-0.45098
-0.549077
-0.488897
-0.401519
-0.411277
-0.426845
-0.494921
-0.485101
-0.433764
-0.528948
-0.5108
-0.450335
-0.561616
-0.511279
-0.415553
-0.427318
-0.511719
-0.416042
-0.432638
-0.43227
-0.407183
-0.446121
-0.524491
-0.393222
-0.407569
-0.396034
-0.446578
-0.523839
-0.308734
-0.40828
-0.447939
-0.524734
-0.396395
-0.315141
-0.400703
-0.512228
-0.416258
-0.439503
-0.445765
-0.416539
-0.439014
-0.401251
-0.416211
-0.432066
-0.448801
-0.419975
-0.448793
-0.455204