# vtk DataFile Version 2.0
Unstructured Grid by M++
ASCII
DATASET UNSTRUCTURED_GRID
POINTS 1072 float
  0.593750   1.000000 0
  0.718750   0.656250 0
  0.625000   0.968750 0
  0.625000   1.000000 0
  0.843750   0.562500 0
  0.875000   0.562500 0
  0.875000   0.531250 0
  0.562500   0.531250 0
  0.687500   1.000000 0
  0.875000   0.593750 0
  0.562500   0.593750 0
  0.625000   0.531250 0
  0.593750   0.562500 0
  0.593750   0.531250 0
  0.562500   0.562500 0
  0.593750   0.625000 0
  0.593750   0.593750 0
  0.562500   0.625000 0
  0.593750   0.687500 0
  0.562500   0.687500 0
  0.906250   0.500000 0
  0.656250   0.750000 0
  0.625000   0.937500 0
  0.593750   0.968750 0
  0.812500   0.531250 0
  0.625000   0.906250 0
  0.906250   0.625000 0
  0.656250   0.593750 0
  0.531250   0.937500 0
  0.593750   0.656250 0
  0.687500   0.562500 0
  0.625000   0.593750 0
  0.656250   0.562500 0
  0.625000   0.562500 0
  0.718750   1.000000 0
  0.687500   0.625000 0
  0.562500   0.968750 0
  0.656250   0.625000 0
  0.531250   0.968750 0
  0.625000   0.625000 0
  0.656250   0.656250 0
  0.531250   1.000000 0
  0.625000   0.656250 0
  0.625000   0.687500 0
  0.937500   0.562500 0
  0.937500   0.656250 0
  0.968750   0.625000 0
  0.937500   0.625000 0
  0.968750   0.593750 0
  0.937500   0.593750 0
  0.843750   0.531250 0
  0.812500   0.562500 0
  0.625000   0.875000 0
  0.812500   0.687500 0
  1.000000   0.625000 0
  0.750000   0.968750 0
  0.843750   0.843750 0
  1.000000   0.937500 0
  1.000000   0.906250 0
  0.937500   0.687500 0
  0.843750   0.781250 0
  0.750000   1.000000 0
  0.968750   0.562500 0
  0.968750   0.937500 0
  0.968750   0.906250 0
  0.968750   0.875000 0
  0.656250   0.781250 0
  1.000000   0.593750 0
  0.562500   0.937500 0
  0.656250   0.843750 0
  1.000000   0.656250 0
  0.656250   0.812500 0
  0.656250   0.875000 0
  0.781250   0.531250 0
  1.000000   0.687500 0
  0.906250   0.906250 0
  0.843750   0.687500 0
  0.843750   0.656250 0
  0.656250   0.906250 0
  0.937500   0.843750 0
  0.937500   0.906250 0
  0.937500   0.937500 0
  0.937500   0.875000 0
  0.625000   0.750000 0
  0.625000   0.812500 0
  0.625000   0.781250 0
  0.906250   1.000000 0
  0.625000   0.843750 0
  0.968750   0.656250 0
  0.968750   0.500000 0
  0.937500   0.531250 0
  0.875000   0.875000 0
  0.875000   0.812500 0
  0.718750   0.968750 0
  0.906250   0.812500 0
  0.843750   0.812500 0
  0.812500   0.812500 0
  0.718750   0.937500 0
  0.687500   0.937500 0
  0.906250   0.593750 0
  0.968750   0.531250 0
  0.875000   0.625000 0
  0.906250   0.875000 0
  0.781250   1.000000 0
  0.968750   0.687500 0
  0.875000   0.781250 0
  0.875000   0.687500 0
  0.812500   0.781250 0
  0.906250   0.687500 0
  0.875000   0.656250 0
  1.000000   0.562500 0
  0.812500   0.750000 0
  0.906250   0.656250 0
  0.843750   0.750000 0
  0.562500   1.000000 0
  0.687500   0.656250 0
  0.562500   0.656250 0
  0.593750   0.906250 0
  0.593750   0.937500 0
  0.562500   0.875000 0
  0.593750   0.843750 0
  0.593750   0.875000 0
  0.750000   0.687500 0
  0.781250   0.687500 0
  0.750000   0.718750 0
  0.781250   0.718750 0
  0.750000   0.750000 0
  0.562500   0.812500 0
  0.593750   0.781250 0
  0.593750   0.812500 0
  0.750000   0.625000 0
  0.781250   0.625000 0
  0.750000   0.656250 0
  0.812500   0.625000 0
  0.781250   0.656250 0
  0.562500   0.906250 0
  0.562500   0.843750 0
  0.562500   0.750000 0
  0.593750   0.750000 0
  0.562500   0.781250 0
  0.656250   0.937500 0
  0.531250   0.531250 0
  0.531250   0.562500 0
  0.531250   0.593750 0
  0.531250   0.625000 0
  0.531250   0.656250 0
  0.531250   0.687500 0
  0.812500   0.593750 0
  0.843750   0.593750 0
  0.781250   0.750000 0
  0.781250   0.781250 0
  0.531250   0.812500 0
  0.531250   0.843750 0
  0.531250   0.750000 0
  0.531250   0.718750 0
  0.531250   0.906250 0
  0.875000   0.843750 0
  0.531250   0.875000 0
  0.718750   0.718750 0
  0.687500   0.687500 0
  0.718750   0.687500 0
  0.718750   0.625000 0
  0.562500   0.718750 0
  0.687500   0.593750 0
  0.718750   0.593750 0
  0.718750   0.562500 0
  0.750000   0.562500 0
  0.656250   0.968750 0
  0.656250   0.687500 0
  1.000000   0.968750 0
  0.625000   0.718750 0
  0.656250   0.718750 0
  0.843750   0.625000 0
  0.812500   0.656250 0
  0.812500   0.718750 0
  0.687500   0.968750 0
  0.656250   1.000000 0
  0.687500   0.531250 0
  0.718750   0.531250 0
  0.906250   0.562500 0
  1.000000   0.531250 0
  0.750000   0.531250 0
  0.750000   0.593750 0
  0.781250   0.875000 0
  0.781250   0.562500 0
  0.781250   0.593750 0
  0.593750   0.281250 0
  0.593750   0.250000 0
  0.562500   0.250000 0
  0.562500   0.031250 0
  0.593750   0.375000 0
  0.718750   0.031250 0
  0.593750   0.343750 0
  0.687500   0.250000 0
  0.656250   0.437500 0
  0.781250   0.093750 0
  0.625000   0.406250 0
  0.750000   0.062500 0
  0.687500   0.500000 0
  0.812500   0.156250 0
  0.593750   0.031250 0
  0.562500   0.000000 0
  0.625000   0.125000 0
  0.625000   0.093750 0
  0.593750   0.093750 0
  0.593750   0.062500 0
  0.687500   0.437500 0
  0.781250   0.343750 0
  0.906250   0.000000 0
  0.781250   0.312500 0
  0.656250   0.406250 0
  0.750000   0.312500 0
  0.687500   0.468750 0
  0.812500   0.125000 0
  0.906250   0.031250 0
  0.656250   0.312500 0
  0.625000   0.281250 0
  0.687500   0.375000 0
  0.656250   0.343750 0
  0.625000   0.312500 0
  0.656250   0.375000 0
  0.625000   0.343750 0
  0.625000   0.375000 0
  0.750000   0.125000 0
  0.625000   0.468750 0
  0.687500   0.062500 0
  0.562500   0.406250 0
  0.656250   0.031250 0
  0.531250   0.375000 0
  0.625000   0.000000 0
  0.656250   0.062500 0
  0.531250   0.406250 0
  0.625000   0.031250 0
  0.625000   0.062500 0
  0.750000   0.406250 0
  0.843750   0.312500 0
  0.812500   0.343750 0
  0.937500   0.000000 0
  0.843750   0.343750 0
  0.968750   0.000000 0
  0.812500   0.312500 0
  0.968750   0.093750 0
  0.937500   0.062500 0
  0.750000   0.187500 0
  0.656250   0.281250 0
  0.843750   0.093750 0
  0.750000   0.156250 0
  0.625000   0.500000 0
  0.843750   0.062500 0
  0.625000   0.250000 0
  0.812500   0.062500 0
  0.968750   0.062500 0
  0.843750   0.375000 0
  0.968750   0.031250 0
  0.812500   0.375000 0
  0.937500   0.031250 0
  0.906250   0.062500 0
  0.781250   0.125000 0
  0.656250   0.468750 0
  0.875000   0.031250 0
  0.937500   0.218750 0
  0.937500   0.250000 0
  0.937500   0.312500 0
  0.937500   0.343750 0
  0.937500   0.375000 0
  0.937500   0.406250 0
  1.000000   0.000000 0
  0.875000   0.343750 0
  0.937500   0.437500 0
  0.562500   0.312500 0
  0.656250   0.218750 0
  1.000000   0.031250 0
  0.875000   0.375000 0
  0.625000   0.437500 0
  0.750000   0.093750 0
  0.968750   0.250000 0
  0.968750   0.343750 0
  0.968750   0.375000 0
  0.968750   0.406250 0
  0.968750   0.468750 0
  0.968750   0.437500 0
  0.937500   0.156250 0
  1.000000   0.406250 0
  1.000000   0.375000 0
  0.875000   0.406250 0
  1.000000   0.062500 0
  0.593750   0.000000 0
  1.000000   0.500000 0
  0.531250   0.000000 0
  1.000000   0.468750 0
  1.000000   0.437500 0
  0.750000   0.375000 0
  0.843750   0.281250 0
  0.156250   0.531250 0
  1.000000   0.312500 0
  0.031250   0.875000 0
  0.000000   0.750000 0
  0.031250   0.750000 0
  0.031250   0.781250 0
  0.031250   0.812500 0
  0.031250   0.843750 0
  0.156250   0.500000 0
  1.000000   0.281250 0
  0.125000   0.968750 0
  0.250000   0.625000 0
  0.187500   1.000000 0
  1.000000   0.718750 0
  0.312500   0.000000 0
  0.312500   0.656250 0
  0.156250   1.000000 0
  0.968750   0.718750 0
  0.281250   0.000000 0
  0.281250   0.656250 0
  0.125000   0.843750 0
  0.156250   0.843750 0
  0.000000   0.718750 0
  0.843750   0.500000 0
  0.281250   0.687500 0
  0.437500   0.781250 0
  0.312500   1.000000 0
  0.281250   1.000000 0
  0.375000   0.781250 0
  0.312500   0.500000 0
  0.437500   0.156250 0
  0.343750   0.500000 0
  0.468750   0.156250 0
  0.250000   0.156250 0
  0.343750   0.125000 0
  0.218750   0.468750 0
  0.375000   0.375000 0
  0.437500   0.312500 0
  0.406250   0.312500 0
  0.062500   0.375000 0
  0.093750   0.281250 0
  0.093750   0.343750 0
  0.937500   0.125000 0
  0.906250   0.718750 0
  0.218750   0.000000 0
  0.250000   0.968750 0
  0.531250   0.062500 0
  0.156250   0.062500 0
  0.312500   0.187500 0
  1.000000   0.875000 0
  0.312500   0.156250 0
  0.281250   0.187500 0
  0.906250   0.781250 0
  0.218750   0.062500 0
  0.718750   0.781250 0
  0.031250   0.062500 0
  0.375000   0.000000 0
  0.718750   0.750000 0
  0.031250   0.031250 0
  0.687500   0.781250 0
  0.000000   0.062500 0
  0.250000   0.500000 0
  0.375000   0.156250 0
  0.281250   0.468750 0
  0.406250   0.125000 0
  0.406250   0.343750 0
  0.062500   0.406250 0
  0.312500   0.437500 0
  0.437500   0.093750 0
  0.781250   0.031250 0
  0.250000   0.468750 0
  0.375000   0.125000 0
  0.281250   0.437500 0
  0.406250   0.093750 0
  0.406250   0.437500 0
  0.406250   0.406250 0
  0.375000   0.437500 0
  0.031250   1.000000 0
  0.187500   0.437500 0
  1.000000   0.812500 0
  0.312500   0.093750 0
  0.218750   0.437500 0
  0.343750   0.093750 0
  0.250000   0.437500 0
  0.375000   0.093750 0
  0.218750   0.406250 0
  0.343750   0.062500 0
  0.250000   0.406250 0
  0.375000   0.062500 0
  0.281250   0.218750 0
  0.187500   0.312500 0
  0.250000   0.218750 0
  0.156250   0.312500 0
  1.000000   0.093750 0
  0.125000   0.312500 0
  0.406250   0.000000 0
  0.750000   0.781250 0
  0.062500   0.062500 0
  0.375000   0.500000 0
  0.500000   0.156250 0
  0.312500   0.968750 0
  0.125000   0.468750 0
  0.500000   0.375000 0
  0.437500   0.406250 0
  0.375000   0.468750 0
  0.468750   0.375000 0
  0.125000   0.437500 0
  0.343750   0.468750 0
  0.468750   0.125000 0
  0.437500   0.375000 0
  0.093750   0.437500 0
  0.125000   0.093750 0
  0.500000   0.937500 0
  0.718750   0.906250 0
  0.031250   0.187500 0
  0.687500   0.906250 0
  0.000000   0.187500 0
  0.937500   0.781250 0
  0.250000   0.062500 0
[...]
POINT_DATA 1072
SCALARS scalar_value float 1
LOOKUP_TABLE default
0
0.00181055
0.000103588
0
-0.00108693
-0.000566815
0.00364528
0.0392437
0
0.000608008
0.0219137
0.0593676
0.0126934
0.05599
0.035319
0.023786
0.0275189
0.0214373
0.0201226
0.0169009
-0.0257982
0.000741682
4.17078e-05
0.00111846
0.00314163
0.000345937
-0.00182789
0.000283391
-0.000320472
0.0140035
0.0193863
-0.0169209
0.0866859
0.0364074
0
0.000697632
0.000563618
0.00221947
0.000992124
0.00634715
0.00367642
0
-0.0103279
0.000306297
-0.00804217
0.00186201
-0.00156713
-0.00239082
0.000633007
0.0039487
0.00070203
-0.00338684
-0.000331964
0.000990815
-0.00161965
-0.000298438
6.80637e-05
2.63658e-05
-4.3197e-05
-0.00117858
0.00095185
0
0.0014217
9.46136e-05
-7.56438e-05
-3.5201e-05
-0.000257165
0.0036967
0.000403769
0.000816347
0.000275588
-4.23352e-05
-0.000389788
-0.00329926
0.000309101
-0.000231314
-0.00155504
0.000886319
0.000877881
-0.000262422
-4.58538e-05
-2.58449e-05
2.36477e-05
-0.00348234
-0.00102023
0.00191658
0
0.000782728
0.00132233
-0.00250579
0.0102268
-0.000256541
-0.000431167
0.000123215
-0.000562017
-0.000760441
-0.000755804
-0.000394391
-0.000203256
0.00132337
-0.000447932
-0.000756101
4.59741e-05
0
-0.000631487
0.000590078
-0.00110394
0.00137556
-0.00186991
0.000987258
-0.00522297
-0.000264703
0.00216773
-0.00153283
0
-0.000601644
-0.00705006
0.00144468
-0.000624511
0.000671962
0.000829714
-0.000625745
-0.000629722
-0.00196396
0.000616259
0.000923244
-0.000762491
-0.00124343
9.54414e-05
0.000194681
0.00155878
-0.0036102
-0.000572301
-0.000606814
0.00319665
-0.0001122
0.000393392
0.00241313
0.00294578
0.00215551
-0.000149227
0.0149482
-0.00568635
0.0174633
-0.0211964
0.0119908
-0.00162697
0.00242768
0.000221629
-0.000188141
0.0003471
-6.58463e-05
0.00242874
0.00593577
-0.00506158
0.00195838
0.000243879
-0.00175715
0.00126297
0.000430939
-0.00205998
-0.00363394
-0.00296489
-0.00592893
0.00494933
-0.00410223
0.000135208
0.000810083
-0.00323705
0.000118734
0.00291913
0.000813615
-0.000316926
-0.000566511
1.53318e-05
5.35711e-05
0
0.0106101
-0.00305719
0.00232805
0.00473543
0.00455785
-0.00235954
-0.0019616
0.000780479
0.00198323
1.00453
1.50966
1.22636
1.31871
0.336431
0.858871
0.509406
0.730935
0.343807
0.172855
0.305859
0.556302
0.0151268
0.00464567
1.06557
1.22595
1.30126
1.20645
1.25243
1.15287
-0.00328995
0.0323361
-0.000791388
0.0217771
0.444129
0.087245
-0.0150289
-0.00214006
-0.000903055
0.850263
1.0096
0.151682
0.662525
0.804271
0.531882
0.632612
0.431333
0.410787
0.0862127
1.09633
0.174235
0.627395
0.165227
0.833235
0.676561
0.0927904
1.02481
1.18908
0.0172552
-0.0110335
0.0254851
6.88614e-05
0.0161681
0.000145215
-0.00864369
0.000170126
-5.92896e-05
0.267626
0.971083
-0.0117005
0.347133
0.0401649
-0.00962179
1.32722
0.0736466
0.000186951
-0.0168183
0.000170294
-0.00734404
-8.06693e-06
-0.00114417
0.109955
0.311278
-0.00208647
-6.24309e-06
-0.000312951
-0.0015397
-0.000119465
-0.00374857
0.0020904
-7.818e-05
0.00958061
-0.00878254
0.557164
1.27275
-7.73853e-05
-0.0102615
0.172032
0.51168
-0.000165274
0.000402571
-0.000291816
0.00161857
0.00357339
-0.00142128
-0.000127543
0.00106709
3.83463e-05
0.0162454
-7.17364e-05
0.962202
-0.00518233
1.38127
0.00323913
-0.00155124
0.0286946
0.00913869
-0.000936257
0.000145062
7.58185e-06
-0.000114535
-8.3701e-05
6.10259e-07
-2.55428e-06
-9.13866e-07
0.00447787
0.000639512
4.07866e-05
-0.000584789
0
-0.000262687
1.02619
0.00114102
0
0.000131852
0.670132
-0.00182336
9.03941e-05
1.68041e-05
0.000181892
-0.00015589
0.00129684
-0.00289191
0
0
0.00094732
0.0221603
1.24351
0.0117902
1.2727
0.276428
1.19713
-0.00084469
0.248861
0.634479
1.08389
-0.000257803
0.0011819
0.000715308
-8.03961e-05
0.00176007
0.0669473
-0.000129165
1.41331
-0.000494838
0.720695
0.000206996
0.847772
0.44496
0.000868622
0.0738799
0.000197171
3.08875e-05
1.24608
-0.00103577
3.72242e-05
0.00158483
8.00126e-05
-0.0032965
1.402
0.0591205
1.46993
0.984046
0.000260861
0.0433091
1.37163
0.242449
0.00479462
1.45435
0.0767025
1.46751
0.79641
0.790148
0.219358
0
-0.000133091
0.000146552
1.03143
-0.000687142
1.25615
0.0111092
1.4528
0.00304807
1.27277
0.0266784
1.41759
0.337917
0.0451817
0.178516
0.0014507
-5.46207e-05
-0.00272308
1.27414
0.000564939
-0.000220731
0.141635
1.20557
-0.000283886
0.00049294
0.099903
0.272817
0.185869
0.214569
-0.000835127
0.027813
1.57257
0.377362
0.000772174
-0.000599262
-4.15894e-05
0.000422132
-6.07322e-05
3.36325e-07
8.85979e-05
-0.000178025
0.333335
-0.00176584
6.69888e-06
1.67934e-05
0.00112007
1.45403
8.9116e-05
0.00233306
0.0691741
0.000128818
0.000589844
-0.00326539
-0.000125598
0.000826851
0.0392352
1.34345
0.437923
0.000440894
0.946117
0.598206
-0.000114336
0.305063
0.060247
0.000132665
8.83887e-05
-0.00498484
0.054892
0.000301459
0.000570809
0.00636627
0.945666
-0.000147939
0.325395
9.53177e-05
0.619904
-0.000227875
0.0178646
0.000165782
0.0163697
0.208106
0.0571663
0.000342862
0.149793
0.131533
0
0.366571
0.24035
5.56252e-05
-0.000760896
0.171355
0.294517
0.0541456
0.562216
-5.41144e-05
-0.000150007
0.958338
1.38293
-0.000647755
-0.000173771
8.46154e-05
0.0573022
1.37488
0.233765
0.000215596
0.586967
0.899035
-0.000297681
-0.0028983
1.42783
1.34014
0.0266944
0.539364
3.54858e-05
0.0400819
-0.000376157
0.000452305
0
0.208731
1.28879
1.21319
-8.63081e-05
6.95684e-05
-0.00238016
1.04458
0.134095
0.0055041
0.745432
0.00022747
0.000565311
-0.000106068
0.000451969
0.00426783
0.0876565
0.49773
0.000558555
1.1094
0.0018136
0.00426599
0.0138804
-6.62198e-05
-0.000488806
-4.63966e-05
-0.000146558
-0.000532839
0.000179653
0.00134334
0.828755
1.39739
0.299833
0.000289768
0.325418
-0.00030791
-0.000537928
1.08746
-7.12973e-05
8.15585e-06
0.0304386
-2.51721e-06
-5.24686e-05
-0.000317837
0.00153244
0.155753
0.781194
0.000355564
-7.16429e-05
4.0889e-06
0.0101395
0.000696179
7.58034e-05
-0.0096847
0.000130065
0.000130801
-0.000228005
0.0534144
0.000137207
6.32389e-05
0.639674
6.10376e-05
0.462847
0.0703585
0.587006
0.170706
-8.18357e-05
-0.000146063
-0.00371102
-8.17189e-05
0.247307
1.38326
1.24946
0.00141884
-0.00168639
0
-0.0032696
0.000194502
-6.87767e-05
0.674601
0.000169003
0.0101809
1.30101
1.04398
-0.000384793
-0.00175354
-0.000207498
5.71721e-05
-0.00125534
1.95005e-05
-6.79864e-05
1.59089e-05
1.37229
-0.000221182
4.55907e-05
0.000933118
-0.00136952
7.34934e-05
0
-3.36124e-05
0.000140495
0.005426
-0.00137161
7.3994e-05
0.0106546
0.000587705
0.000146604
0.000857525
-1.63922e-05
-0.000212781
0.977943
0.157319
0.385199
-0.000547401
1.30109e-05
-0.000240979
0.0784395
0.941781
0.000252206
-0.00149992
0.00235277
0.118219
0.0904189
-0.000405819
9.41604e-05
0
0
0.00794925
0
0.035209
0.927653
0.000526335
0.00263248
0.0034287
0.045357
0.000909952
-0.000558121
1.34275
-0.00106674
0.0035298
-0.00177543
0.872473
0.444449
1.08282
-1.79976e-06
0.00877541
-6.07063e-06
0.0673859
0
-0.00383024
0.0306694
1.18805
0
-0.000309726
-0.000982877
0.276809
1.12655
0.000273757
0.756853
0.181196
0.125157
-0.000121013
-7.95943e-05
0
0
0.050775
0.304174
0.508508
0.000297068
-0.000193145
-0.00117686
0.000604245
-6.88763e-05
1.52982
0.000192058
-0.00182023
0.000904805
0.00226373
-0.000314254
-3.95684e-05
1.31887
0.0017003
-0.0015712
9.40879e-06
1.2137
1.3125
0.0296448
1.48409
-0.000282578
0.00909426
4.98474e-06
0.00097282
-0.000467032
0.00356462
0.000268841
-0.00175249
0.000417769
0.000344712
0.00015796
0.00830613
1.15779
0.000254339
0.000312932
0.000179233
-0.00110636
0.0748476
-0.000647425
0.000128545
0.000620908
0.304144
0
-0.00019151
0.00127536
-0.000165279
-0.00291744
0.0988007
1.44887
0.545058
-0.00058138
0.258322
8.27961e-05
-0.000110293
-0.0017732
0.346477
-0.000712836
-3.81806e-06
0.00699438
1.24563
6.17666e-05
-0.00619991
-0.000840742
4.719e-05
-3.37735e-05
0.327464
0.0313387
1.22587e-05
-0.000590934
0.00701178
-3.94935e-05
1.06876
0.0541909
-1.05749e-05
0.000814569
0.00386842
0.000213221
1.06467
1.43053
0.000388081
0.85463
0.000133845
-0.00713189
0.172779
-1.43778e-05
-2.09089e-05
0.00197589
5.25924e-05
6.65322e-05
0.70158
4.84614e-06
0.000194726
0.00142139
0.00014628
-6.95648e-05
0.702605
0.655107
0.400911
0.260765
0.000162194
1.52961
-0.000380373
-0.00159972
1.46676
0.0426298
1.43256
-0.000140309
0.00605072
0.000111876
0.0306345
-0.000235506
0.000516307
0.000183841
-3.37327e-05
7.9711e-05
-1.76937e-05
-0.0033733
1.27943e-05
-0.00283246
0.0141276
-0.0002699
0.00101886
-0.000310994
0.000166837
-8.32073e-05
-0.000860066
1.61628e-05
0
-0.000397752
-0.000325927
-0.00055697
0.0550589
4.93367e-05
0.000230517
0.000503644
3.12392e-05
-0.000462007
5.76685e-05
0.000108597
7.09496e-05
-0.00392857
0.000406923
-0.000431255
-0.000177285
0.00041801
0.000331521
-0.00490304
-1.97823e-05
0.000549561
0.000335426
0.0625286
-0.0107046
0.0021285
-8.66525e-07
-0.000757547
0.0749275
3.67973e-05
0.000424595
1.32567e-05
0.000955438
0
0.079549
-1.55224e-05
0.00105522
-5.21663e-05
0.000202191
0.0125588
0.000190422
-0.000248281
0.00036241
0.0633873
4.53782e-05
0.0032051
-0.00162376
0.00122692
-0.000110587
0.00603197
-0.000284684
0
-0.0185891
0.000996898
0.00885615
-0.00467716
-0.00241588
0.00334487
-6.7999e-05
2.50867e-05
1.34703
8.41507e-05
1.77068e-06
-0.000370447
8.02278e-05
-3.08979e-05
0.0501478
0.0100914
0.0171818
-0.00285251
-3.77003e-05
0.0232668
1.15869
-0.000221517
-7.14524e-05
-0.0259586
-0.000344995
-0.00749886
0.00762647
0.016005
-0.0017251
0.000133353
0.0553828
0.00306058
-0.0053568
0.00182144
0.0303559
-0.00355647
0.0238633
0.00223182
0.00507194
-0.00167147
0.00362059
1.3659
-5.21912e-05
0.15508
-2.40901e-05
0.000523013
0.0024405
-0.000184178
0.0634623
-7.61597e-05
-0.000232384
0.011921
0.0005128
2.80227e-05
0.000721287
0
9.34224e-05
0.00584291
-0.00288276
1.37587
8.48077e-05
0.000533282
-0.000816355
0.0528415
-0.000145282
0
0.00341857
-6.72841e-05
0.0175904
0.00063133
-0.000385842
0.00017195
-0.000345633
0.00910597
-0.000300712
0.002736
0.000752668
0.0244826
-0.017793
0.0435369
-2.81674e-05
0.000476503
-7.51338e-05
-0.000215373
0.000165849
0.0138479
0.00810218
-0.000371873
-0.000724467
-0.000187375
0.000130206
-0.000157991
0.00012141
4.9264e-06
-0.000105551
4.18278e-06
0.563249
0.0136917
1.27875e-05
-0.000215876
0.000124317
0.42582
4.08035e-05
0.21958
0.00553738
-4.92338e-05
-0.000475948
0.000325891
-0.000397949
-1.93095e-05
-0.000482601
0.000654311
-0.00020373
-0.000125409
-0.000199795
0.000353936
-5.85671e-05
9.78939e-05
1.45764e-06
-0.000661254
-1.30897e-05
0.00079619
-0.000479495
1.79339e-05
0.000965721
0.000453301
5.38515e-05
-0.000406474
-9.34536e-05
0.00383752
0.000336538
-0.000390088
0.000545588
-7.41389e-05
4.74437e-05
-5.35605e-05
0.000405563
0.000128793
0.000284159
0.814943
1.37987e-05
0.112092
-3.53091e-05
-4.56717e-05
-8.80115e-06
-0.00102213
-0.000327358
0.00984823
0.0770409
0.238305
0.00425317
0.107821
0.0566766
-0.00214404
0.0027511
0.000142423
-0.00334071
0.0135487
-0.00400142
0.0246966
0.278196
0.496953
0.541488
1.15725
1.26308
0.954028
0.0098242
-0.0008029
-0.00923815
0.873271
0.989327
1.29971
0.071468
0.526771
0.262466
0.414584
1.38826
0.10093
0.0573536
0.24146
1.27146
0.00295324
-0.000717381
0.982703
0.0109859
-0.000311837
1.11817
-0.00159047
0.0242512
0.0273689
0.0575984
0.63309
0.791503
0.920354
0.160188
0.739894
1.18743
0.849982
1.14515
0.0280708
1.39131
0.36029
0.89985
0.237075
0.692119
0.843362
0.15404
0.0853398
0.167189
1.44813
1.28399
1.28251
1.38456
0.00981713
-0.011695
0.0829772
-0.00318766
-4.81201e-05
-0.00239191
0.00256064
0.000249377
0.0085676
0.000309094
0.0123798
0.399532
0.00039156
-0.00124386
0.0364811
0.100507
0.300947
0.404051
-0.00936602
1.03468
0.261067
0
0.0139723
-0.00206669
-0.000631702
