# vtk DataFile Version 2.0
Unstructured Grid by M++
ASCII
DATASET UNSTRUCTURED_GRID
POINTS 1072 float
  0.593750   1.000000 0
  0.718750   0.656250 0
  0.625000   0.968750 0
  0.625000   1.000000 0
  0.843750   0.562500 0
  0.875000   0.562500 0
  0.875000   0.531250 0
  0.562500   0.531250 0
  0.687500   1.000000 0
  0.875000   0.593750 0
  0.562500   0.593750 0
  0.625000   0.531250 0
  0.593750   0.562500 0
  0.593750   0.531250 0
  0.562500   0.562500 0
  0.593750   0.625000 0
  0.593750   0.593750 0
  0.562500   0.625000 0
  0.593750   0.687500 0
  0.562500   0.687500 0
  0.906250   0.500000 0
  0.656250   0.750000 0
  0.625000   0.937500 0
  0.593750   0.968750 0
  0.812500   0.531250 0
  0.625000   0.906250 0
  0.906250   0.625000 0
  0.656250   0.593750 0
  0.531250   0.937500 0
  0.593750   0.656250 0
  0.687500   0.562500 0
  0.625000   0.593750 0
  0.656250   0.562500 0
  0.625000   0.562500 0
  0.718750   1.000000 0
  0.687500   0.625000 0
  0.562500   0.968750 0
  0.656250   0.625000 0
  0.531250   0.968750 0
  0.625000   0.625000 0
  0.656250   0.656250 0
  0.531250   1.000000 0
  0.625000   0.656250 0
  0.625000   0.687500 0
  0.937500   0.562500 0
  0.937500   0.656250 0
  0.968750   0.625000 0
  0.937500   0.625000 0
  0.968750   0.593750 0
  0.937500   0.593750 0
  0.843750   0.531250 0
  0.812500   0.562500 0
  0.625000   0.875000 0
  0.812500   0.687500 0
  1.000000   0.625000 0
  0.750000   0.968750 0
  0.843750   0.843750 0
  1.000000   0.937500 0
  1.000000   0.906250 0
  0.937500   0.687500 0
  0.843750   0.781250 0
  0.750000   1.000000 0
  0.968750   0.562500 0
  0.968750   0.937500 0
  0.968750   0.906250 0
  0.968750   0.875000 0
  0.656250   0.781250 0
  1.000000   0.593750 0
  0.562500   0.937500 0
  0.656250   0.843750 0
  1.000000   0.656250 0
  0.656250   0.812500 0
  0.656250   0.875000 0
  0.781250   0.531250 0
  1.000000   0.687500 0
  0.906250   0.906250 0
  0.843750   0.687500 0
  0.843750   0.656250 0
  0.656250   0.906250 0
  0.937500   0.843750 0
  0.937500   0.906250 0
  0.937500   0.937500 0
  0.937500   0.875000 0
  0.625000   0.750000 0
  0.625000   0.812500 0
  0.625000   0.781250 0
  0.906250   1.000000 0
  0.625000   0.843750 0
  0.968750   0.656250 0
  0.968750   0.500000 0
  0.937500   0.531250 0
  0.875000   0.875000 0
  0.875000   0.812500 0
  0.718750   0.968750 0
  0.906250   0.812500 0
  0.843750   0.812500 0
  0.812500   0.812500 0
  0.718750   0.937500 0
  0.687500   0.937500 0
  0.906250   0.593750 0
  0.968750   0.531250 0
  0.875000   0.625000 0
  0.906250   0.875000 0
  0.781250   1.000000 0
  0.968750   0.687500 0
  0.875000   0.781250 0
  0.875000   0.687500 0
  0.812500   0.781250 0
  0.906250   0.687500 0
  0.875000   0.656250 0
  1.000000   0.562500 0
  0.812500   0.750000 0
  0.906250   0.656250 0
  0.843750   0.750000 0
  0.562500   1.000000 0
  0.687500   0.656250 0
  0.562500   0.656250 0
  0.593750   0.906250 0
  0.593750   0.937500 0
  0.562500   0.875000 0
  0.593750   0.843750 0
  0.593750   0.875000 0
  0.750000   0.687500 0
  0.781250   0.687500 0
  0.750000   0.718750 0
  0.781250   0.718750 0
  0.750000   0.750000 0
  0.562500   0.812500 0
  0.593750   0.781250 0
  0.593750   0.812500 0
  0.750000   0.625000 0
  0.781250   0.625000 0
  0.750000   0.656250 0
  0.812500   0.625000 0
  0.781250   0.656250 0
  0.562500   0.906250 0
  0.562500   0.843750 0
  0.562500   0.750000 0
  0.593750   0.750000 0
  0.562500   0.781250 0
  0.656250   0.937500 0
  0.531250   0.531250 0
  0.531250   0.562500 0
  0.531250   0.593750 0
  0.531250   0.625000 0
  0.531250   0.656250 0
  0.531250   0.687500 0
  0.812500   0.593750 0
  0.843750   0.593750 0
  0.781250   0.750000 0
  0.781250   0.781250 0
  0.531250   0.812500 0
  0.531250   0.843750 0
  0.531250   0.750000 0
  0.531250   0.718750 0
  0.531250   0.906250 0
  0.875000   0.843750 0
  0.531250   0.875000 0
  0.718750   0.718750 0
  0.687500   0.687500 0
  0.718750   0.687500 0
  0.718750   0.625000 0
  0.562500   0.718750 0
  0.687500   0.593750 0
  0.718750   0.593750 0
  0.718750   0.562500 0
  0.750000   0.562500 0
  0.656250   0.968750 0
  0.656250   0.687500 0
  1.000000   0.968750 0
  0.625000   0.718750 0
  0.656250   0.718750 0
  0.843750   0.625000 0
  0.812500   0.656250 0
  0.812500   0.718750 0
  0.687500   0.968750 0
  0.656250   1.000000 0
  0.687500   0.531250 0
  0.718750   0.531250 0
  0.906250   0.562500 0
  1.000000   0.531250 0
  0.750000   0.531250 0
  0.750000   0.593750 0
  0.781250   0.875000 0
  0.781250   0.562500 0
  0.781250   0.593750 0
  0.593750   0.281250 0
  0.593750   0.250000 0
  0.562500   0.250000 0
  0.562500   0.031250 0
  0.593750   0.375000 0
  0.718750   0.031250 0
  0.593750   0.343750 0
  0.687500   0.250000 0
  0.656250   0.437500 0
  0.781250   0.093750 0
  0.625000   0.406250 0
  0.750000   0.062500 0
  0.687500   0.500000 0
  0.812500   0.156250 0
  0.593750   0.031250 0
  0.562500   0.000000 0
  0.625000   0.125000 0
  0.625000   0.093750 0
  0.593750   0.093750 0
  0.593750   0.062500 0
  0.687500   0.437500 0
  0.781250   0.343750 0
  0.906250   0.000000 0
  0.781250   0.312500 0
  0.656250   0.406250 0
  0.750000   0.312500 0
  0.687500   0.468750 0
  0.812500   0.125000 0
  0.906250   0.031250 0
  0.656250   0.312500 0
  0.625000   0.281250 0
  0.687500   0.375000 0
  0.656250   0.343750 0
  0.625000   0.312500 0
  0.656250   0.375000 0
  0.625000   0.343750 0
  0.625000   0.375000 0
  0.750000   0.125000 0
  0.625000   0.468750 0
  0.687500   0.062500 0
  0.562500   0.406250 0
  0.656250   0.031250 0
  0.531250   0.375000 0
  0.625000   0.000000 0
  0.656250   0.062500 0
  0.531250   0.406250 0
  0.625000   0.031250 0
  0.625000   0.062500 0
  0.750000   0.406250 0
  0.843750   0.312500 0
  0.812500   0.343750 0
  0.937500   0.000000 0
  0.843750   0.343750 0
  0.968750   0.000000 0
  0.812500   0.312500 0
  0.968750   0.093750 0
  0.937500   0.062500 0
  0.750000   0.187500 0
  0.656250   0.281250 0
  0.843750   0.093750 0
  0.750000   0.156250 0
  0.625000   0.500000 0
  0.843750   0.062500 0
  0.625000   0.250000 0
  0.812500   0.062500 0
  0.968750   0.062500 0
  0.843750   0.375000 0
  0.968750   0.031250 0
  0.812500   0.375000 0
  0.937500   0.031250 0
  0.906250   0.062500 0
  0.781250   0.125000 0
  0.656250   0.468750 0
  0.875000   0.031250 0
  0.937500   0.218750 0
  0.937500   0.250000 0
  0.937500   0.312500 0
  0.937500   0.343750 0
  0.937500   0.375000 0
  0.937500   0.406250 0
  1.000000   0.000000 0
  0.875000   0.343750 0
  0.937500   0.437500 0
  0.562500   0.312500 0
  0.656250   0.218750 0
  1.000000   0.031250 0
  0.875000   0.375000 0
  0.625000   0.437500 0
  0.750000   0.093750 0
  0.968750   0.250000 0
  0.968750   0.343750 0
  0.968750   0.375000 0
  0.968750   0.406250 0
  0.968750   0.468750 0
  0.968750   0.437500 0
  0.937500   0.156250 0
  1.000000   0.406250 0
  1.000000   0.375000 0
  0.875000   0.406250 0
  1.000000   0.062500 0
  0.593750   0.000000 0
  1.000000   0.500000 0
  0.531250   0.000000 0
  1.000000   0.468750 0
  1.000000   0.437500 0
  0.750000   0.375000 0
  0.843750   0.281250 0
  0.156250   0.531250 0
  1.000000   0.312500 0
  0.031250   0.875000 0
  0.000000   0.750000 0
  0.031250   0.750000 0
  0.031250   0.781250 0
  0.031250   0.812500 0
  0.031250   0.843750 0
  0.156250   0.500000 0
  1.000000   0.281250 0
  0.125000   0.968750 0
  0.250000   0.625000 0
  0.187500   1.000000 0
  1.000000   0.718750 0
  0.312500   0.000000 0
  0.312500   0.656250 0
  0.156250   1.000000 0
  0.968750   0.718750 0
  0.281250   0.000000 0
  0.281250   0.656250 0
  0.125000   0.843750 0
  0.156250   0.843750 0
  0.000000   0.718750 0
  0.843750   0.500000 0
  0.281250   0.687500 0
  0.437500   0.781250 0
  0.312500   1.000000 0
  0.281250   1.000000 0
  0.375000   0.781250 0
  0.312500   0.500000 0
  0.437500   0.156250 0
  0.343750   0.500000 0
  0.468750   0.156250 0
  0.250000   0.156250 0
  0.343750   0.125000 0
  0.218750   0.468750 0
  0.375000   0.375000 0
  0.437500   0.312500 0
  0.406250   0.312500 0
  0.062500   0.375000 0
  0.093750   0.281250 0
  0.093750   0.343750 0
  0.937500   0.125000 0
  0.906250   0.718750 0
  0.218750   0.000000 0
  0.250000   0.968750 0
  0.531250   0.062500 0
  0.156250   0.062500 0
  0.312500   0.187500 0
  1.000000   0.875000 0
  0.312500   0.156250 0
  0.281250   0.187500 0
  0.906250   0.781250 0
  0.218750   0.062500 0
  0.718750   0.781250 0
  0.031250   0.062500 0
  0.375000   0.000000 0
  0.718750   0.750000 0
  0.031250   0.031250 0
  0.687500   0.781250 0
  0.000000   0.062500 0
  0.250000   0.500000 0
  0.375000   0.156250 0
  0.281250   0.468750 0
  0.406250   0.125000 0
  0.406250   0.343750 0
  0.062500   0.406250 0
  0.312500   0.437500 0
  0.437500   0.093750 0
  0.781250   0.031250 0
  0.250000   0.468750 0
  0.375000   0.125000 0
  0.281250   0.437500 0
  0.406250   0.093750 0
  0.406250   0.437500 0
  0.406250   0.406250 0
  0.375000   0.437500 0
  0.031250   1.000000 0
  0.187500   0.437500 0
  1.000000   0.812500 0
  0.312500   0.093750 0
  0.218750   0.437500 0
  0.343750   0.093750 0
  0.250000   0.437500 0
  0.375000   0.093750 0
  0.218750   0.406250 0
  0.343750   0.062500 0
  0.250000   0.406250 0
  0.375000   0.062500 0
  0.281250   0.218750 0
  0.187500   0.312500 0
  0.250000   0.218750 0
  0.156250   0.312500 0
  1.000000   0.093750 0
  0.125000   0.312500 0
  0.406250   0.000000 0
  0.750000   0.781250 0
  0.062500   0.062500 0
  0.375000   0.500000 0
  0.500000   0.156250 0
  0.312500   0.968750 0
  0.125000   0.468750 0
  0.500000   0.375000 0
  0.437500   0.406250 0
  0.375000   0.468750 0
  0.468750   0.375000 0
  0.125000   0.437500 0
  0.343750   0.468750 0
  0.468750   0.125000 0
  0.437500   0.375000 0
  0.093750   0.437500 0
  0.125000   0.093750 0
  0.500000   0.937500 0
  0.718750   0.906250 0
  0.031250   0.187500 0
  0.687500   0.906250 0
  0.000000   0.187500 0
  0.937500   0.781250 0
  0.250000   0.062500 0
[...]
POINT_DATA 1072
SCALARS scalar_value float 1
LOOKUP_TABLE default
0
0.000327377
-0.0842696
0
1.60252e-05
-1.31011e-05
-1.11664e-05
-2.44178e-05
0
-1.55513e-05
-7.36914e-05
-1.21199e-05
4.01613e-05
2.2318e-05
-4.43284e-05
5.3784e-05
5.11996e-05
-7.88686e-05
0.000519912
-0.00280273
-6.66743e-07
0.0259931
0.430283
-0.064284
-1.1473e-05
0.806516
9.43902e-06
0.000208667
0.439865
0.000161954
-2.62172e-06
6.57935e-05
-2.16267e-05
-4.1143e-06
0
0.000297504
-0.110914
0.000810708
-0.0420855
0.00019642
0.0023501
0
0.000570911
0.00117857
-2.36472e-06
-4.78352e-06
2.61067e-06
-4.53537e-06
8.17597e-07
-1.48625e-06
9.38511e-06
-1.86011e-05
1.04051
-0.000148706
-2.50873e-06
-0.00772753
0.000737886
1.01889e-05
-7.61175e-06
-6.82829e-06
0.00041012
0
6.82587e-07
-2.08831e-05
1.07214e-05
6.62255e-06
0.0653601
-9.58684e-07
0.462059
0.630822
-2.55292e-06
0.203503
1.04059
1.29465e-05
-4.95813e-06
0.000275061
7.58517e-05
4.91409e-05
0.851864
6.76693e-06
-3.37488e-05
6.82164e-05
-1.19154e-05
0.00638272
0.187629
0.0468688
0
0.621719
3.0433e-06
3.22278e-07
-1.31448e-06
0.000627091
-0.000441104
0.00187751
7.99156e-05
0.00084446
-0.00158187
0.0118822
0.31227
5.72673e-06
5.54943e-07
-1.84355e-05
-0.000101195
0
4.85945e-06
-5.2852e-05
-2.96546e-05
-0.000794203
1.22178e-05
-2.35996e-05
-5.16797e-07
-0.000418973
1.03033e-05
0.000199983
0
0.00137089
-0.00010667
0.834255
0.455153
1.05834
0.6161
1.04611
-0.000492971
0.000266636
-0.00108989
0.000468152
-0.00198607
0.180615
0.0237654
0.165557
-0.000106596
7.87643e-05
-0.000220162
-5.15443e-05
0.000143352
0.820497
0.611154
-0.00638821
-0.0155592
0.0398109
0.459243
3.66996e-05
9.60658e-05
0.000282448
0.000831861
0.00242307
0.00616987
-3.13931e-05
1.86722e-05
0.000716792
0.0011254
0.220412
0.658628
0.0321065
0.0131561
0.845833
-0.000294459
1.04124
0.00436325
0.00474781
0.0012113
0.000123759
-0.00605728
5.30981e-05
5.95692e-05
3.43725e-05
-2.64102e-05
-0.0315125
0.00493249
-6.20209e-05
0.002377
0.0113262
3.49226e-05
-9.05624e-05
-0.000251503
-0.0333623
0
-3.02521e-06
1.76463e-05
1.67276e-05
-4.58323e-07
-1.45801e-05
-5.2216e-05
0.00283652
2.27454e-05
4.19369e-05
6.60281e-08
3.39271e-08
-3.72788e-08
-1.22121e-10
4.83102e-07
5.89451e-10
2.27921e-07
-3.43469e-08
-2.89308e-08
1.17081e-09
-6.20137e-08
-1.03993e-09
-2.04446e-06
-3.27971e-09
0
0
0
0
1.06872e-10
0
8.34982e-08
3.50514e-07
0
1.69685e-07
4.14331e-08
-1.80077e-07
6.55716e-07
-1.39606e-09
0
5.24435e-08
-3.01476e-08
-1.67268e-07
6.53875e-08
-4.91216e-08
6.29623e-08
-5.64395e-08
-7.36968e-08
-2.57942e-09
-1.74452e-07
-1.4352e-09
-1.99911e-06
1.10162e-10
1.18306e-06
0
2.10314e-10
2.42079e-06
0
0
-1.33436e-06
5.67575e-08
-2.62033e-07
0
1.25424e-07
0
-1.20802e-07
0
0
-8.53368e-09
3.05702e-08
0
-4.72768e-09
-3.74486e-06
0
-2.25621e-08
0
0
2.84768e-07
0
-5.63227e-07
0
0
1.89114e-09
-2.72284e-08
0
-5.34812e-10
-9.68007e-10
-4.5543e-09
-8.0378e-09
-1.55563e-08
-2.76628e-08
0
-2.55127e-08
-5.3066e-08
-2.05503e-07
1.61792e-08
0
-4.73454e-08
-2.13995e-08
-1.75278e-09
9.42186e-10
8.70357e-09
1.78292e-08
3.76214e-08
1.64089e-07
7.82013e-08
-1.70049e-10
-3.28508e-08
-1.48512e-08
-8.9451e-08
0
0
-2.95083e-07
1.65493e-10
-1.53806e-07
-7.28815e-08
-6.91842e-07
2.68556e-08
6.39014e-06
-3.05879e-09
3.94777e-06
-8.26634e-06
1.19778e-05
1.20404e-05
-3.21075e-06
-6.55846e-06
2.86786e-05
-1.42587e-09
7.48065e-05
-0.000327969
0
-6.79353e-06
-2.94355e-10
-0.00200797
0
7.96959e-06
1.4971e-10
0.000922898
-0.000418518
0.00086955
-6.2205e-06
5.47381e-06
0.00141747
-0.0312763
0
0
0.0391888
-6.13853e-06
-7.13166e-09
3.15034e-05
1.08223e-08
-1.28251e-09
5.10961e-09
1.1396e-05
-1.80877e-07
-9.02371e-08
5.3348e-08
-4.34315e-08
7.93298e-09
3.21757e-08
0
1.3873e-05
0
-0.009036
6.95417e-10
0
-1.39018e-08
-5.07911e-06
-7.29495e-09
9.99328e-09
3.33028e-05
0
0.0325133
0
-5.33397e-10
0.0125638
0
0.0881941
0
-1.39389e-05
-8.59931e-09
3.43068e-06
4.97692e-09
8.68623e-08
-8.51625e-08
-2.78134e-06
-3.74152e-09
2.73195e-10
-6.88544e-06
-5.26244e-09
2.1682e-06
3.0168e-09
1.78677e-07
3.58535e-07
-5.64077e-06
0
-4.59708e-06
6.70146e-06
-1.96769e-09
5.66682e-06
2.85017e-09
-3.69586e-06
-3.22787e-09
3.2909e-06
1.53797e-09
-2.59149e-06
-1.86954e-09
2.08955e-08
-1.91237e-08
-9.16788e-09
1.04783e-08
0
-1.56499e-08
4.51362e-10
-0.00356715
0
-1.32076e-05
-1.00152e-08
-0.035626
-2.43758e-06
-5.27143e-07
-1.42559e-06
-1.23073e-05
1.41476e-06
-9.81855e-07
1.54059e-05
8.32774e-09
-4.88886e-07
3.4616e-07
0
0.516722
0.0620077
3.70901e-10
0.6803
-2.35616e-10
-2.98609e-05
-1.57873e-10
-2.32093e-07
2.4659e-10
-0.000581841
0
-3.4462e-09
1.92444e-07
-6.72996e-09
0
-2.72924e-07
-7.30835e-05
-3.45584e-10
0.000222823
0
-1.39978e-06
-9.34611e-10
9.6593e-08
-9.28214e-09
-3.37991e-08
4.98749e-08
-4.72906e-09
-6.04523e-10
1.10492e-10
-6.95526e-07
-0.00111779
-4.15555e-09
1.92642e-10
0.00555181
3.94266e-09
0
-1.43353e-10
9.28769e-05
1.9994e-07
-4.60403e-06
2.14464e-09
0.00016785
-4.01322e-10
0
-1.9663e-07
-4.08485e-07
6.32613e-06
-0.000215323
-8.76573e-07
3.64687e-06
0
-7.35637e-08
-3.05147e-09
0
0.860586
8.93591e-08
-5.6322e-06
3.11246e-10
-8.23505e-08
2.58107e-08
-2.41162e-06
-3.78261e-09
8.22993e-10
-0.00846391
0
-0.000207802
5.6587e-10
-1.3402e-09
5.08708e-07
0.0022818
-5.64919e-08
-2.65023e-08
0
0.564931
3.25895e-10
-4.78487e-09
-4.20352e-06
4.57016e-09
-5.40517e-05
-4.11508e-09
0
0.80411
0
5.89797e-08
-1.35495e-08
-1.90888e-10
-2.5006e-09
1.26467e-07
-4.59513e-09
1.64924e-08
9.34319e-07
-1.11905e-05
-5.35702e-08
1.36847e-08
1.54879e-08
0
-3.33726e-08
2.67528e-09
8.22102e-06
-2.04078e-07
1.66408e-07
-2.2861e-08
1.00768e-09
0
-6.38551e-08
6.18138e-06
-4.37535e-06
1.92876e-09
1.05629e-06
-2.32877e-09
-3.0359e-07
3.3615e-09
-3.6001e-08
1.65869e-08
-1.37371e-07
-1.21465e-05
-3.0282e-10
7.03904e-09
0
1.62475e-10
0.0824616
0
9.4207e-06
0.186589
1.29727e-10
0
1.03594
1.2389e-06
-4.64239e-08
2.74998e-05
7.5502e-07
9.88909e-05
3.27145e-09
0.648875
0
1.5138e-06
-0.0844111
0
1.0244
1.04949e-05
0.0125707
0
-6.44017e-08
-4.02531e-06
-3.85625e-08
7.53819e-08
-2.47741e-08
4.02377e-07
-7.88388e-07
-0.000797967
-1.22461e-09
5.21063e-05
3.25252e-08
-8.39897e-09
1.28231e-10
-0.00226676
0
0
-4.06293e-07
-3.3156e-10
-3.09552e-06
1.03872e-09
-0.000570766
0
2.28028e-09
-1.58861e-08
0.000350698
-1.72612e-10
-1.8213e-07
1.09648e-05
-2.02748e-05
8.0591e-08
-1.51233e-09
0.00521776
-1.93547e-10
4.76672e-07
0
0.500205
0.0328782
0
0
7.77978e-07
0.000284167
7.39546e-10
0.239366
0
6.55719e-07
0.440689
0
0.707792
-2.21094e-07
1.45085e-09
-2.01315e-08
-4.7771e-07
2.77906e-07
-0.0352948
-3.78843e-10
0.000143953
-3.96497e-09
1.18013e-10
3.69415e-09
0
2.08678e-05
-3.96813e-06
-1.66671e-06
0.915023
-1.51028e-10
0
0
5.44225e-09
0
-1.02877e-07
1.64825e-08
-0.00125254
1.89515e-09
0
-5.32824e-07
0.00598575
0
-1.82735e-09
-3.49875e-05
0
0.00270846
1.40814e-07
-1.47014e-07
9.1367e-09
-1.38044e-05
0.00186959
-0.00010301
-4.34835e-08
0
-8.21088e-09
5.85708e-07
4.5012e-10
0
-1.49912e-07
3.37315e-10
6.32177e-07
2.68747e-08
-0.000938313
2.84987e-08
-4.5671e-07
3.24423e-06
0.118834
1.99085e-10
0
0
-1.13871e-08
-2.77685e-07
1.18115e-07
0.00928162
-1.34076e-09
0
-0.0340409
-1.76222e-10
-1.62904e-09
-2.15966e-08
0
-3.48751e-05
0
0.00218756
0
-2.80337e-10
0.000118794
0
0.000439308
3.59613e-08
2.34366e-08
1.51863e-05
1.16473e-08
-6.01709e-08
8.50094e-09
4.71704e-08
-4.12229e-10
-1.79162e-08
0
-2.61625e-06
0.000335992
0
-0.0326525
-6.01299e-10
-3.96138e-05
-1.14897e-08
-1.04355e-07
1.2614e-08
7.21227e-08
1.58965e-05
0
-3.18283e-08
0
-9.59268e-06
0
0
0
1.08992
0
0.579794
1.57519e-06
1.90941e-09
-2.77347e-10
-2.90366e-09
-2.38559e-05
1.7797e-09
5.91455e-10
0
-1.25516e-05
1.13829e-08
0
1.3665e-06
7.84279e-10
-4.57267e-10
0
-7.28746e-08
1.37598e-10
-1.62208e-05
0
3.00191e-06
2.85548e-05
0.811649
-7.0968e-07
-5.69335e-06
-1.0094e-09
1.44091e-07
-2.1296e-05
1.06592
-2.70498e-07
-8.52979e-06
-5.14506e-10
-1.73503e-10
-5.60004e-09
2.97003e-08
-9.09689e-10
0
2.80309e-06
1.41334e-05
1.04296
4.37116e-08
0
1.20094e-05
2.61345e-10
-4.13951e-05
0.86224
1.26454e-07
-1.75978e-10
1.38226e-05
5.10628e-10
5.7183e-08
-1.37046e-07
8.05761e-08
0.00149371
-3.72048e-10
-1.09488e-08
0
5.86333e-09
5.26869e-06
-5.90118e-09
2.79964e-06
0.000286819
1.56528e-06
8.4854e-06
-1.81282e-06
0.000189887
0.00515347
0.00415686
-0.00234594
6.91005e-06
-4.24039e-06
4.14109e-06
0.000796795
-6.56023e-07
-4.0277e-06
3.28569e-06
8.24082e-05
-2.76024e-05
-1.15437e-05
5.51561e-05
-0.000149242
0
0.466457
0.47724
-0.000254605
4.69561e-06
-5.19095e-05
0.854829
7.36308e-05
4.67692e-05
0.0550572
0.00608327
-0.0291597
1.93926e-07
-1.40215e-08
-0.00099289
-0.00069107
0.000425251
0.000318412
-9.8966e-07
1.5074e-08
0.00158243
0.00082753
-3.74273e-06
-1.10099e-05
2.82606e-08
-0.000162722
2.77241e-05
-7.17454e-05
1.06871e-05
-0.000443337
3.72505e-05
0.000246669
2.90595e-05
0
-7.11161e-06
-0.00014954
-2.42428e-05
-4.65049e-06
-7.63623e-06
-0.000292922
-0.00485847
6.44967e-06
3.0605e-06
3.27642e-05
-0.000933378
-0.00117045
-0.282629
0.0165751
0.000455459
7.13468e-07
0.687123
0
-2.5553e-10
0.00183918
0.00355338
0.00256973
0.0096096
0.00129171
0.0198629
0.00365917
3.98005e-10
-1.88893e-05
0.3168
0.0969839
0.0608196
0.0109584
4.20576e-05
7.73199e-05
3.04315e-05
-0.00123378
0.0333871
-4.5804e-05
4.1521e-09
-5.43605e-06
-0.00156432
0.000354016
0.00447367
0.000442643
-0.000787425
0.000957067
1.0685
0.00508078
-2.16642e-10
0.000896087
0.0939564
0.129292
-0.000123576
0.00235222
-0.000207539
0.0089409
0.233341
0.298532
2.32729e-05
-6.71137e-09
8.04766e-06
1.49775e-07
-0.0307487
0.0639339
0.0100073
-3.81657e-05
-3.55514e-07
0.12834
-2.33336e-05
-0.000258252
0.0251387
-6.01215e-06
-0.155962
0
9.21015e-06
-1.29743e-07
0.00673505
-1.81548e-08
0.000221068
0.44266
-0.0444583
-6.71282e-05
0.918804
0
5.57537e-05
9.194e-05
0.000147703
-0.117807
0.59688
6.97634e-05
0.823352
-1.1847e-06
0.458527
-0.00910806
-0.0141266
5.91461e-06
3.11896e-05
0.00014766
0.255595
0.280699
-0.0280918
0.610536
0.00632676
-0.00026135
7.94567e-05
0.679443
0.0960906
0.125099
-0.039996
-0.000466079
-5.39937e-05
0.00086674
-0.000477255
-0.00971597
-5.16602e-10
3.40158e-05
6.55934e-05
0.0910633
2.33125e-05
4.99136e-05
0.188625
5.75227e-10
-0.000660714
-0.000999842
-0.00201831
0.00912069
0.0334467
-0.000120436
-5.62066e-06
1.23525e-05
2.8182e-05
-1.69886e-05
-2.72077e-05
-5.06656e-05
1.82173e-05
-0.000156458
2.90859e-05
1.21017e-05
5.72357e-05
-2.59784e-05
-4.11859e-06
1.01296e-05
8.07971e-06
-6.85011e-09
-3.16998e-05
-1.53122e-05
-1.23573e-06
9.72285e-09
2.20813e-06
2.03695e-06
-5.00558e-06
-6.08732e-09
2.24577e-07
-4.1445e-06
-7.17537e-07
4.22322e-09
-1.29265e-05
3.03157e-10
-2.88792e-05
5.77841e-06
0.00059219
-0.000408545
-1.14388e-07
4.9967e-09
-2.07536e-06
2.249e-08
0
1.46454e-10
7.69609e-06
1.7592e-08
3.92005e-08
-6.49528e-06
-4.23298e-06
4.66554e-06
-4.81494e-06
9.57742e-06
-8.79609e-06
3.99167e-06
-2.2417e-08
2.31208e-08
1.17359e-08
-6.6688e-09
3.30814e-09
4.80213e-09
1.52894e-05
-0.0632819
-1.94571e-07
-2.12153e-08
-1.15896e-08
1.05167e-08
0
0
5.58286e-07
2.60468e-07
1.1396e-09
2.72215e-07
4.95794e-07
-1.34365e-07
-2.00574e-08
0.0015788
1.53294e-10
2.25218e-08
-0.000745971
-2.93558e-10
1.05662e-08
-1.04101e-10
9.06756e-07
1.78389e-06
-1.4112e-07
1.13258e-07
3.60785e-08
2.07382e-09
2.53207e-06
4.95496e-09
-3.92112e-09
3.4387e-09
-2.90378e-09
-1.22746e-08
-3.18803e-10
4.35303e-08
1.33394e-09
1.08806e-06
1.08599e-07
-8.30818e-08
-9.03918e-08
8.08143e-08
-4.4498e-08
7.64256e-10
-1.70862e-10
1.72328e-10
-4.83408e-10
-2.54751e-06
-5.82076e-09
6.05018e-09
0.0785545
-6.69151e-10
-2.36016e-06
0.0406506
4.63945e-10
1.40929e-06
2.65426e-06
-2.72308e-08
-8.70828e-08
0.0051082
2.90115e-10
-5.67424e-08
3.5399e-09
-3.44891e-07
-4.39766e-07
-5.71271e-07
-2.43487e-10
-9.49915e-07
0
2.42991e-08
0.0264474
-2.9144e-10
