# vtk DataFile Version 2.0
Unstructured Grid by M++
ASCII
DATASET UNSTRUCTURED_GRID
POINTS 4072 float
  0.562500   0.968750 0
  0.906250   0.500000 0
  0.750000   0.781250 0
  0.953125   0.531250 0
  0.984375   0.875000 0
  0.828125   0.828125 0
  0.828125   0.859375 0
  0.562500   0.765625 0
  0.937500   0.687500 0
  0.968750   0.578125 0
  0.968750   0.781250 0
  0.734375   0.843750 0
  0.968750   0.718750 0
  0.734375   0.796875 0
  0.984375   0.718750 0
  0.984375   0.703125 0
  1.000000   0.750000 0
  0.984375   0.734375 0
  1.000000   0.718750 0
  0.953125   0.859375 0
  0.953125   0.843750 0
  0.937500   0.843750 0
  0.921875   0.640625 0
  0.937500   0.625000 0
  0.671875   0.906250 0
  0.687500   0.890625 0
  1.000000   0.687500 0
  0.828125   0.796875 0
  0.828125   0.750000 0
  0.515625   0.750000 0
  0.828125   0.937500 0
  0.968750   0.625000 0
  0.984375   0.593750 0
  0.984375   0.796875 0
  0.750000   0.859375 0
  0.859375   0.937500 0
  0.828125   0.953125 0
  0.859375   0.781250 0
  0.593750   0.515625 0
  0.984375   0.750000 0
  0.734375   0.828125 0
  1.000000   0.734375 0
  0.750000   0.812500 0
  0.953125   0.562500 0
  0.968750   0.750000 0
  0.734375   0.812500 0
  0.968750   0.546875 0
  0.843750   0.906250 0
  0.875000   0.875000 0
  0.578125   0.640625 0
  0.750000   0.968750 0
  0.984375   0.906250 0
  0.625000   0.515625 0
  0.937500   0.593750 0
  0.781250   0.578125 0
  0.640625   0.968750 0
  0.937500   0.531250 0
  0.937500   0.515625 0
  0.953125   0.500000 0
  0.703125   0.796875 0
  0.859375   0.718750 0
  0.703125   0.765625 0
  0.921875   0.703125 0
  0.687500   0.765625 0
  0.921875   0.500000 0
  0.718750   0.781250 0
  0.734375   0.765625 0
  0.968750   0.687500 0
  0.968750   0.890625 0
  0.734375   0.953125 0
  0.859375   0.828125 0
  0.890625   0.484375 0
  0.843750   0.843750 0
  0.828125   0.765625 0
  0.968750   0.906250 0
  0.796875   0.578125 0
  0.765625   0.828125 0
  0.609375   0.968750 0
  0.734375   0.656250 0
  0.671875   0.875000 0
  0.531250   0.906250 0
  0.546875   0.921875 0
  0.765625   0.656250 0
  0.531250   0.937500 0
  0.531250   0.734375 0
  0.765625   0.671875 0
  0.843750   0.734375 0
  0.843750   0.937500 0
  0.609375   1.000000 0
  0.593750   0.796875 0
  0.828125   0.734375 0
  0.578125   0.812500 0
  0.671875   0.562500 0
  0.781250   0.562500 0
  0.656250   1.000000 0
  0.765625   0.796875 0
  0.656250   0.593750 0
  0.796875   0.562500 0
  0.625000   0.828125 0
  0.625000   0.625000 0
  0.859375   0.562500 0
  0.796875   1.000000 0
  0.890625   0.781250 0
  0.875000   0.781250 0
  0.625000   0.859375 0
  0.843750   0.781250 0
  0.859375   0.765625 0
  0.843750   0.765625 0
  0.859375   0.750000 0
  0.843750   0.750000 0
  0.765625   1.000000 0
  0.781250   0.984375 0
  0.875000   0.625000 0
  0.875000   0.812500 0
  0.640625   0.875000 0
  0.562500   0.906250 0
  0.796875   0.843750 0
  0.796875   0.828125 0
  0.656250   0.906250 0
  0.890625   0.640625 0
  0.875000   0.843750 0
  0.859375   0.843750 0
  0.625000   0.906250 0
  0.812500   0.875000 0
  0.859375   0.515625 0
  0.812500   0.843750 0
  0.796875   0.875000 0
  0.796875   0.859375 0
  0.593750   0.968750 0
  0.859375   0.875000 0
  0.625000   0.937500 0
  0.843750   0.875000 0
  0.593750   0.953125 0
  0.859375   0.859375 0
  0.828125   0.671875 0
  0.890625   0.765625 0
  0.656250   0.828125 0
  0.656250   0.625000 0
  0.890625   0.562500 0
  0.640625   0.843750 0
  0.640625   0.640625 0
  0.875000   0.578125 0
  0.890625   0.750000 0
  0.875000   0.765625 0
  0.562500   0.625000 0
  0.968750   0.500000 0
  0.734375   0.562500 0
  0.937500   0.578125 0
  0.703125   0.640625 0
  0.656250   0.984375 0
  0.640625   1.000000 0
  0.953125   0.578125 0
  0.671875   0.984375 0
  0.906250   0.921875 0
  0.921875   0.687500 0
  0.671875   0.765625 0
  0.687500   0.750000 0
  0.906250   0.484375 0
  0.984375   0.921875 0
  0.734375   1.000000 0
  1.000000   0.906250 0
  0.750000   0.984375 0
  0.828125   0.843750 0
  0.593750   0.906250 0
  0.828125   0.640625 0
  0.843750   0.828125 0
  0.609375   0.890625 0
  0.609375   0.687500 0
  0.843750   0.625000 0
  0.734375   0.875000 0
  0.968750   0.812500 0
  0.859375   0.812500 0
  0.625000   0.875000 0
  0.859375   0.609375 0
  0.843750   0.812500 0
  0.859375   0.796875 0
  0.828125   0.812500 0
  0.593750   0.875000 0
  0.828125   0.609375 0
  0.781250   0.843750 0
  0.515625   0.921875 0
  1.000000   0.781250 0
  0.765625   0.843750 0
  1.000000   0.578125 0
  0.765625   0.968750 0
  0.890625   0.703125 0
  0.656250   0.765625 0
  0.890625   0.500000 0
  0.875000   0.703125 0
  0.937500   0.937500 0
  0.984375   0.578125 0
  0.578125   0.531250 0
  0.875000   0.609375 0
  0.640625   0.671875 0
  0.796875   0.625000 0
  0.859375   0.593750 0
  0.625000   0.656250 0
  0.609375   0.671875 0
  0.593750   0.687500 0
  1.000000   0.562500 0
  0.765625   0.625000 0
  0.656250   0.578125 0
  0.625000   0.546875 0
  0.671875   0.812500 0
  0.906250   0.750000 0
  0.796875   0.546875 0
  0.828125   0.718750 0
  0.578125   0.781250 0
  0.875000   0.656250 0
  0.640625   0.718750 0
  0.734375   0.984375 0
  0.968750   0.921875 0
  0.609375   0.531250 0
  0.953125   0.921875 0
  0.968750   0.937500 0
  0.593750   0.546875 0
  0.765625   0.609375 0
  0.531250   0.671875 0
  0.781250   0.593750 0
  0.546875   0.656250 0
  0.656250   0.656250 0
  0.890625   0.593750 0
  0.656250   0.859375 0
  0.921875   0.671875 0
  0.968750   0.734375 0
  0.718750   0.812500 0
  0.812500   0.984375 0
  0.562500   0.796875 0
  0.750000   0.640625 0
  0.765625   0.687500 0
  0.531250   0.953125 0
  0.687500   0.656250 0
  0.921875   0.593750 0
  1.000000   0.593750 0
  0.750000   0.671875 0
  0.671875   0.750000 0
  0.906250   0.687500 0
  1.000000   0.656250 0
  0.812500   0.562500 0
  0.687500   0.796875 0
  0.921875   0.734375 0
  0.828125   0.546875 0
  1.000000   0.625000 0
  0.953125   0.968750 0
  0.750000   0.906250 0
  0.515625   0.968750 0
  0.812500   0.531250 0
  1.000000   0.796875 0
  0.515625   0.937500 0
  0.750000   0.875000 0
  0.812500   0.703125 0
  0.796875   0.703125 0
  0.812500   0.593750 0
  0.937500   0.562500 0
  0.656250   0.968750 0
  0.890625   0.906250 0
  0.703125   0.625000 0
  0.953125   0.546875 0
  0.671875   0.953125 0
  0.906250   0.890625 0
  0.984375   0.781250 0
  0.796875   0.687500 0
  0.562500   0.953125 0
  0.968750   0.875000 0
  0.718750   0.953125 0
  0.562500   0.937500 0
  0.781250   0.781250 0
  0.953125   0.875000 0
  0.718750   0.937500 0
  0.953125   0.671875 0
  0.796875   0.656250 0
  0.828125   1.000000 0
  0.953125   0.890625 0
  0.703125   0.968750 0
  0.828125   0.625000 0
  0.781250   0.968750 0
  0.781250   0.671875 0
  0.781250   0.875000 0
  0.546875   0.937500 0
  0.906250   0.640625 0
  0.671875   0.703125 0
  0.640625   0.609375 0
  0.875000   0.546875 0
  0.906250   0.625000 0
  0.656250   0.703125 0
  0.656250   0.718750 0
  0.968750   0.531250 0
  0.734375   0.593750 0
  0.984375   0.531250 0
  0.781250   0.546875 0
  0.718750   0.609375 0
  0.906250   0.703125 0
  0.968750   0.593750 0
  0.687500   1.000000 0
  0.921875   0.937500 0
  0.906250   0.765625 0
  0.906250   0.562500 0
  0.718750   0.750000 0
  0.718750   0.546875 0
  0.953125   0.484375 0
  0.796875   0.593750 0
  0.515625   1.000000 0
  0.750000   0.937500 0
  0.906250   0.593750 0
  0.546875   1.000000 0
  0.781250   0.937500 0
  0.828125   0.593750 0
  0.984375   0.609375 0
  0.937500   0.953125 0
  0.796875   0.515625 0
  0.968750   0.609375 0
  0.734375   0.671875 0
  0.906250   0.781250 0
  0.671875   0.843750 0
  0.515625   0.890625 0
  0.687500   0.625000 0
  0.921875   0.562500 0
  0.843750   0.531250 0
  1.000000   0.765625 0
  0.750000   0.843750 0
  0.812500   0.671875 0
  0.687500   0.921875 0
  0.765625   0.515625 0
  0.953125   0.609375 0
  0.921875   0.625000 0
  0.687500   0.687500 0
  0.812500   0.656250 0
  0.812500   0.859375 0
  0.578125   0.921875 0
  0.796875   0.765625 0
  0.890625   0.687500 0
  0.578125   0.750000 0
  0.812500   0.687500 0
  0.578125   0.953125 0
  0.796875   0.796875 0
  0.984375   0.890625 0
  0.734375   0.968750 0
  0.718750   0.640625 0
  0.968750   0.562500 0
  0.687500   0.968750 0
  0.921875   0.906250 0
  0.765625   0.953125 0
  0.812500   0.609375 0
  0.812500   0.734375 0
  0.875000   0.562500 0
  0.968750   0.656250 0
  0.796875   0.734375 0
  0.812500   0.828125 0
  0.578125   0.890625 0
  0.781250   0.687500 0
  0.984375   0.671875 0
  0.578125   0.828125 0
  0.812500   0.765625 0
  0.875000   0.593750 0
  1.000000   0.875000 0
  0.765625   0.937500 0
  0.843750   0.656250 0
  0.843750   0.859375 0
  0.609375   0.921875 0
  0.828125   0.687500 0
  0.937500   0.656250 0
  0.937500   0.859375 0
  0.703125   0.921875 0
  0.984375   0.640625 0
  0.890625   0.468750 0
  0.656250   0.734375 0
  0.890625   0.671875 0
  0.890625   0.875000 0
  0.656250   0.937500 0
  0.578125   0.859375 0
  0.812500   0.796875 0
  0.843750   0.890625 0
  0.609375   0.953125 0
  0.937500   0.875000 0
  0.687500   0.953125 0
  0.843750   0.953125 0
  0.828125   0.703125 0
  0.593750   0.765625 0
  0.937500   0.546875 0
  0.781250   0.531250 0
  0.781250   0.734375 0
  0.546875   0.796875 0
  0.796875   0.718750 0
  0.562500   0.984375 0
  0.984375   0.812500 0
  0.562500   0.812500 0
  0.796875   0.750000 0
  0.562500   0.875000 0
  0.796875   0.812500 0
  0.640625   0.750000 0
  0.875000   0.687500 0
  0.703125   0.671875 0
  0.937500   0.609375 0
  0.562500   0.843750 0
  0.796875   0.781250 0
  0.781250   0.750000 0
  0.781250   0.609375 0
  0.812500   0.953125 0
  0.812500   0.718750 0
  0.953125   0.593750 0
  0.718750   0.656250 0
  0.671875   1.000000 0
  0.796875   0.953125 0
  0.843750   0.609375 0
  0.812500   0.812500 0
  0.812500   0.781250 0
  0.750000   0.953125 0
  0.750000   0.750000 0
  0.984375   0.687500 0
  0.781250   1.000000 0
  0.765625   0.546875 0
  0.765625   0.750000 0
[...]
POINT_DATA 4072
SCALARS scalar_value float 1
LOOKUP_TABLE default
0
-1.1741e-09
0
0
0
0
0
1.91241e-08
0
0
0
0
0
0
0
0
0
0
0
0
0
0
0
0
0
0
0
0
0
-5.26358e-09
0
0
0
0
0
0
0
0
7.80612e-06
0
0
0
0
0
0
0
0
0
0
8.34738e-07
0
0
1.22012e-05
0
5.99633e-10
0
-1.36919e-10
-1.92382e-10
0
1.05155e-10
0
3.93364e-10
0
8.38239e-10
-1.20376e-09
0
0
0
0
0
0
-7.79385e-10
0
0
0
4.69556e-10
0
0
7.34085e-10
0
0
0
1.21186e-10
0
0
0
0
0
0
2.23306e-09
0
1.66206e-09
2.86983e-06
8.29385e-10
0
0
8.52518e-07
6.27119e-10
4.47321e-10
3.95512e-07
0
0
0
0
1.19142e-10
0
0
0
0
0
0
0
0
0
0
0
0
0
0
0
0
0
0
0
0
0
0
0
0
0
0
0
0
0
0
0
1.20934e-10
1.897e-07
0
1.2998e-10
1.55754e-07
0
0
0
5.1244e-07
0
1.92161e-08
0
3.38681e-08
0
0
0
0
0
0
9.22161e-10
1.54454e-09
-1.67524e-09
0
0
0
0
0
0
0
0
0
1.2256e-07
0
0
0
0
0
0
0
0
0
0
1.43081e-10
0
0
0
0
0
0
0
1.87313e-09
-6.40087e-10
0
0
0
5.81361e-06
0
6.04115e-08
1.78514e-10
0
1.29533e-07
1.85156e-07
2.59367e-07
0
2.89994e-10
2.23977e-06
7.403e-06
1.35592e-10
0
8.25156e-10
0
7.15095e-09
0
2.39518e-08
0
0
6.86517e-06
0
0
4.21683e-06
4.4107e-10
1.1849e-08
4.27362e-10
7.59791e-08
5.79559e-08
0
0
0
0
0
0
3.68773e-09
3.42915e-10
0
0
4.28719e-08
0
0
1.37625e-10
1.67716e-09
0
0
5.30277e-10
2.28533e-10
0
4.86976e-10
0
0
0
0
9.46685e-10
0
0
0
0
0
2.87682e-10
0
0
0
6.14477e-08
0
0
0
0
0
0
0
0
0
0
0
0
0
0
0
0
0
0
0
0
0
0
0
8.73551e-09
5.66616e-07
-1.33239e-10
0
1.62214e-08
1.04478e-08
0
4.97449e-09
0
1.13338e-09
2.10833e-08
0
0
0
0
0
0
1.71295e-10
3.22687e-07
0
3.45696e-10
0
0
0
0
0
2.00664e-10
0
0
1.36818e-09
0
4.67817e-10
0
0
0
1.46196e-07
0
3.45344e-10
0
0
0
0
5.22271e-09
0
0
1.42083e-08
0
0
0
0
0
3.22199e-08
0
0
0
0
0
6.79691e-09
0
0
0
0
2.06645e-10
0
0
0
0
0
0
0
0
8.47918e-10
0
0
0
0
0
0
0
0
0
0
0
0
-1.10262e-09
6.36386e-09
0
0
0
2.3014e-10
0
0
0
0
0
0
0
1.27872e-08
0
1.53688e-09
0
-7.94478e-10
0
0
0
1.76728e-09
0
1.16242e-10
0
9.88922e-09
0
1.13291e-08
0
4.41732e-10
0
0
3.00233e-10
0
0
0
4.09331e-09
0
0
0
0
0
0
0
0
0
2.16606e-09
0
-1.59187e-09
0
0
8.74651e-10
0
0
0
0
6.62426e-10
0
0
0
0
0
1.52516e-09
0
0
0
0
8.04246e-10
0
-4.22782e-09
4.42305e-10
0
1.92231e-09
1.08003e-08
0
-1.61818e-09
0
1.08592e-10
0
-4.19214e-09
0
4.9494e-10
0
0
0
0
0
3.40873e-08
4.21132e-08
0
0
0
0
0
0
0
1.25553e-07
0
4.75426e-10
0
0
7.37702e-08
0
0
0
0
0
0
0
0
0
0
0
0
0
0
1.01758e-10
0
0
-2.53676e-07
0
0
0
8.01458e-07
0
0
0
0
0
0
1.78559e-09
0
0
1.61992e-08
0
3.57906e-09
0
5.56647e-08
0
3.27839e-08
0
0
0
0
7.09189e-10
1.57805e-06
0
3.1827e-06
0
-2.94897e-10
2.783e-06
0
0
1.48842e-06
0
1.1992e-06
0
0
5.30642e-06
0
0
0
5.63396e-06
0
0
2.97039e-09
0
6.60148e-10
1.68971e-06
0
4.85706e-10
2.05775e-06
3.50814e-06
0
0
1.09462e-08
0
0
0
4.78144e-09
0
0
1.88159e-09
0
0
0
0
2.19017e-09
0
0
0
-2.5837e-09
5.07938e-10
0
9.10384e-10
1.0708e-09
1.2363e-06
1.26383e-09
2.657e-06
2.50279e-10
1.63042e-07
3.93639e-10
2.00159e-07
7.69898e-07
3.81354e-07
0
0
0
0
0
0
0
0
0
0
0
0
0
0
0
0
0
0
0
0
0
0
0
0
0
0
0
0
0
0
0
0
0
0
0
0
0
0
0
-1.95833e-10
0
0
0
0
0
0
0
0
0
0
0
0
0
0
0
0
0
0
0
0
0
0
0
0
0
0
0
2.43229e-08
0
0
0
0
0
0
0
0
0
0
0
0
-2.1687e-10
0
0
0
0
-2.77869e-09
0
0
0
0
2.05927e-10
0
0
0
0
0
0
0
0
0
0
0
0
1.99532e-10
7.55206e-07
2.56119e-10
9.98565e-10
0
0
0
-5.17573e-10
0
-5.5542e-10
0
-1.52412e-10
0
0
0
0
0
0
0
0
4.82678e-09
-5.51372e-07
0
0.723249
1.63558e-08
2.59959e-10
0
0
0
0.743756
0
0.406032
2.60598e-10
7.40306e-10
0
1.40985
0
0
0.0796352
-1.05775e-09
3.5507e-08
5.21035e-08
0
0
0
9.4076e-09
-2.00684e-08
0
0
2.64939e-08
0.514144
-5.79095e-06
0
3.41904e-06
5.15017e-09
1.77327e-08
0
0.020383
7.30216e-10
-6.95742e-10
0
0
1.31089
1.08088e-09
5.7113e-07
4.88239e-09
0.000414228
0
0.000478571
4.42765e-05
0
0.000117334
0.3023
1.30154e-05
0.141805
8.43812e-08
1.10678e-09
1.16023e-09
0
-2.08496e-10
0
-2.43738e-09
0
0.225948
6.17925e-06
1.04559e-08
0
0
-7.38839e-09
0
0
0.339652
1.39174e-05
0.120765
2.60905e-07
-2.79881e-09
1.5115e-09
0
-3.35024e-08
0
0
1.05771
0
4.43208e-05
2.75085e-07
0
-4.53249e-06
0
2.60828e-07
0
0
1.76622e-10
0
1.03974e-09
5.16184e-10
0
6.1445e-07
1.37528e-08
0
1.46283e-08
3.52041e-08
9.8011e-09
0
0
0
0
3.35751e-09
0
1.06753e-09
1.11047e-10
0
0
3.66911e-06
-5.45886e-07
0
0
-3.5747e-07
0.000443953
7.02194e-07
0.000685147
0
0
1.69724e-07
-1.0344e-07
0
0.000442197
2.23786e-07
0
0.000226167
4.21149e-07
5.00232e-09
2.76203e-09
0
0
0
0
1.57139e-10
0
5.35112e-07
-3.1374e-07
2.88427e-09
-9.86239e-09
9.15497e-09
1.41446e-08
2.28837e-10
0
6.39881e-07
8.01111e-07
1.16649e-08
-1.22354e-08
1.14107e-09
-6.63427e-09
1.1704e-07
-3.07892e-08
0
7.28806e-06
3.05178e-07
0
0
0
1.79329e-06
-2.28061e-07
0
0
0
0
0
1.86148e-06
4.13682e-07
0
0
0
0
0.0370563
0
0.0101493
0
0
2.87295e-06
0
0
0
0
-6.01736e-09
0
0
0
-8.30928e-10
0
2.19085e-07
1.29823e-07
8.98175e-10
2.66883e-10
2.54435e-10
1.10118e-10
1.12133e-05
6.49351e-09
4.35115e-09
1.0631e-08
0
0.0110661
0
0.100065
5.50211e-05
0.00025727
2.3892e-10
3.18087e-10
0
1.56849e-10
6.82991e-08
1.28009e-09
1.23948e-08
2.88992e-09
0
0
1.01234e-07
1.66682e-07
2.09574e-10
8.33868e-07
5.27408e-07
0
0
0
0
2.75867e-10
3.1021e-07
6.63427e-10
0
0
0
2.00269e-07
-5.61606e-05
0
0
4.15146e-09
0
0.23539
5.35791e-10
-7.54401e-07
0
-8.68994e-10
0
0
-2.36589e-10
0
0
0
-9.24088e-10
0
9.51535e-07
2.23031e-08
0
0
-1.26949e-05
5.19953e-07
4.88117e-06
0
0.271972
0
9.53673e-06
0
0.218127
0
0
5.98055e-06
3.81238e-06
0.07771
0.00325792
0.000628007
0
8.53292e-05
0.000155169
5.29761e-06
-5.65176e-10
1.51243e-07
2.07524e-09
0.000111938
0.00242609
1.00384e-07
-5.88789e-07
0
0.000147848
-1.47477e-07
5.59876e-08
2.47672e-07
0.0871026
0
3.32733e-07
0.003993
-6.79773e-07
-2.52659e-05
-5.40235e-06
0.00714261
0
0.02506
6.90326e-07
3.82319e-07
0
0
0
2.89963e-07
0.0105331
2.28669e-10
1.71413e-09
1.45334e-09
0
0.000766422
0
2.42048e-07
0.023542
-1.07303e-07
0.012631
0.0133878
0.000625666
0.00366125
1.52814e-05
0.00247949
-2.91972e-07
0.0108197
-1.16439e-09
1.66616e-05
0
0.0273763
7.75936e-08
2.20384e-07
8.53986e-07
0.000243223
0.000364904
0
0.216011
0
0.00011624
4.80209e-06
1.60159e-05
-8.42832e-06
0
0.179023
0
0.187931
0
-4.98148e-09
-0.000213119
0.00020215
0
-4.26945e-09
0.000211469
0
0.242116
0
9.88017e-06
-2.45341e-06
-0.00014478
-0.00017321
0.000168732
0.00267147
-0.00020649
-4.33532e-05
-5.90179e-05
0.00203746
0.000298924
0
0.000135724
-2.20515e-07
0.00167346
0.000374731
0
-1.18705e-07
0.000484844
0.000216427
0.000382113
1.05769e-07
0
0
7.53009e-10
-5.324e-08
5.89746e-08
0.000800877
0.000274699
1.76516e-05
0
1.37073e-05
4.97213e-07
-2.32493e-05
8.03369e-07
-2.42992e-08
0.000109653
0.000193948
3.80193e-09
-2.63772e-06
3.19984e-07
0.000970018
-3.97612e-06
-4.07068e-07
0.00136564
1.07549e-09
-8.91864e-09
-1.81195e-05
-2.9882e-06
-2.2913e-10
0.00901639
-1.90704e-06
0.00662523
0.00839064
-3.38706e-07
0.000843371
6.51384e-09
6.0865e-07
4.21676e-08
0.00407253
2.03574e-10
0
2.31148e-08
2.71264e-06
0.00763089
-2.56686e-10
1.06885e-07
1.14211e-05
-4.34506e-06
-3.01421e-08
3.98379e-06
0.000131997
2.28734e-07
2.30552e-07
3.15402e-07
1.49284e-07
0
0
-1.92854e-06
-2.00572e-05
6.39923e-05
5.94639e-06
1.5522e-05
-1.8082e-07
0.0696817
0.00114439
0.000606926
0.00779843
0.000489254
-4.46395e-05
0
-9.67255e-09
0.00149246
0
5.99535e-10
2.82861e-08
2.09275e-08
0.00129331
0
4.8059e-10
6.70798e-07
-5.101e-09
0.00250963
0
0.00337845
0.00104731
0
0.00385983
0
0.287261
0
-7.10715e-05
0
0.323122
0
8.02481e-05
-6.75446e-05
5.39208e-05
0.00140622
-6.94375e-05
0.000140015
0.00339332
-9.09045e-05
0
0.00331757
-1.10964e-07
0
0
1.25966e-08
0.00413828
0.0747399
2.28487e-08
4.49627e-06
2.12828e-07
-6.87003e-07
0
0.165543
0
0.10318
0
3.30054e-08
0
0
-7.32127e-09
0.000922591
7.16321e-09
0.00139503
-6.89372e-07
0.00659545
1.1383e-07
0.000538399
0.0602659
3.08962e-08
0
0.0265088
2.78424e-08
0
0
0.768683
-4.08277e-06
0.000779057
0.00249951
-1.19692e-07
0
0
0.667263
2.27552e-05
4.2718e-07
0.000863899
2.56851e-08
0.0102736
6.23755e-07
4.43997e-08
0.0013285
0.000500279
-1.25246e-07
0.0161131
0
0.378673
0.0531526
0.000208685
5.47414e-07
2.87866e-08
1.52764e-08
-0.000123634
0.0296637
0.00775548
0.217209
0.00495963
0.00333075
-1.25901e-06
0.00221274
0.00368145
0.160987
0.00147434
0.00185415
0.00256921
0
0.00320804
-2.85178e-06
-4.18374e-05
0.175162
-3.4994e-07
0.00065863
-7.28208e-08
0.101389
0.0010624
2.79989e-06
1.63579e-08
6.72326e-08
0.000647347
0.059692
4.75744e-08
3.56152e-07
0.045094
0.000635615
0.000432814
-1.56029e-06
0.00693123
0
0.00212042
4.30835e-06
3.35659e-09
2.94645e-08
0.00191219
4.98746e-05
3.31317e-05
-0.00025066
8.78095e-08
-2.35992e-10
0.000178895
0.0110224
-1.43322e-07
2.76408e-09
3.81515e-05
0.00150144
1.83575e-07
2.81226e-07
1.67643e-07
-1.02697e-08
0.00178512
0.000142287
-0.000128271
2.38627e-06
-1.84381e-06
-9.0687e-08
0.000103133
0.00131567
-5.89848e-08
2.68376e-09
5.55823e-06
0.000987874
1.0825e-07
-0.000137586
1.39141e-07
-0.000136642
-4.93017e-07
0
0.0420252
0
0.031412
0.00112141
0.000105078
0.000191266
2.27902e-06
0
1.48306e-07
0
0
0
9.63895e-08
0
0.0296625
1.49849e-09
-3.30257e-08
1.07047e-08
1.44859e-07
-0.000143892
0
0.42431
0
0.0150719
-7.28921e-06
6.92607e-08
1.68081e-05
8.57956e-09
-1.02549e-09
0.000281858
3.71128e-09
0.000965189
0.00296765
-8.8146e-07
4.49594e-05
5.11819e-07
0.0263941
0.0175436
-8.8356e-06
1.7369e-08
1.69362e-05
0.0335799
-9.39156e-06
1.24283e-08
0.0346488
1.95889e-05
0.000100091
-9.01701e-06
0.0433417
-1.51942e-09
0.0489654
0.00025423
0.000300737
0.0432049
-2.95967e-07
0.00095487
7.51937e-07
0
-5.55377e-10
0.000173729
0.000106924
0
5.00511e-06
1.49411e-09
0.000214576
5.98726e-10
0.490833
0
0.00483468
0
0.0190953
0.00199666
1.36527e-10
0.311438
0.000859058
-1.23975e-08
6.48815e-06
0.0166853
1.38771e-05
8.07427e-09
-2.90742e-09
8.50319e-10
6.41064e-10
0.0187568
0.000394649
0.000155533
0.000337542
0
-4.13038e-08
-7.53452e-08
-6.85442e-08
0.00120235
0.000218568
-5.60377e-09
0
4.39741e-05
0.0122605
1.2185e-05
4.49836e-09
0.0299147
5.7311e-05
4.22725e-07
8.45036e-09
0
0.000429632
0
0
3.56971e-09
0
3.44812e-06
3.25462e-06
3.15478e-08
0
-2.23747e-06
3.95388e-09
0
4.09063e-05
4.72383e-06
5.63983e-08
0.00596309
0.000425743
6.8695e-09
1.04679e-05
1.04807e-05
0.474423
-8.43496e-06
1.72049e-06
2.2834e-05
2.46754e-09
2.50612e-07
1.61007e-10
0.000116067
7.34287e-05
0.00876749
0.410196
0
-8.99341e-07
1.58639e-07
5.60264e-06
2.99421e-05
-1.45473e-06
1.7541e-05
6.94609e-09
-7.13762e-07
5.43568e-09
-8.49074e-06
1.50548e-05
0.0402453
0.002141
0.0140137
3.55812e-07
0.000315995
0.00146898
0.000143391
0.0307903
2.94507e-07
0.00157596
-1.7517e-09
3.71144e-07
0.0013589
1.15687e-06
3.64478e-10
1.31322e-06
7.22189e-05
2.23984e-07
0.0827067
0
0
6.32899e-08
3.03093e-08
0
4.24119e-05
0.0232014
3.0366e-07
3.7104e-05
2.4368e-05
5.56988e-05
0.00278573
3.2699e-07
1.2682e-09
0.000168573
0.00309098
1.89842e-05
0
0.0289839
-2.4459e-05
0.103907
8.54736e-05
0.0384413
4.14557e-07
0.00448214
7.02758e-07
0.000196252
0.148163
-2.16927e-06
-0.000111766
9.29043e-05
0.00671142
-1.98827e-08
7.2649e-10
0.000559528
4.47754e-08
0
0.000456148
3.54778e-06
0.0479104
0
2.66065e-08
1.71306e-09
6.88883e-06
4.68512e-10
-2.86028e-06
0.00333743
0.0236311
0.000103577
0.00181032
0.417946
6.05458e-07
0.00194941
0.000172736
0.000378713
-7.26368e-06
0.000239925
0.365616
1.34722e-05
0.00199859
-5.8139e-06
4.02224e-05
-2.31472e-05
0.000118372
0
0.0245658
-7.96606e-07
0.00173489
0
-3.96206e-10
0.000148513
-0.00012081
0.000102574
0.00102008
0.00434094
2.00093e-07
0.000180968
0.00241985
-7.09495e-10
2.05062e-05
0
3.02382e-07
6.96536e-06
-3.51273e-08
0.00261912
0.00481363
0.151787
2.58283e-07
0.0234057
0
0
0.000119002
-8.81228e-05
5.79591e-05
0.00035932
0.00385179
0
0.000134309
0
3.08381e-07
-2.36112e-06
0
0
0.00114772
4.70785e-07
-8.8633e-07
-7.8308e-06
0
0.00186626
9.77682e-08
1.02853e-05
-1.36196e-06
1.66333e-05
-1.74987e-06
-7.86729e-10
2.17993e-10
0.297001
0
-3.56534e-06
0
0.0452059
6.42667e-05
0.000270646
0.000508131
-6.30496e-10
0
0
-1.10599e-06
-2.90843e-05
9.26256e-05
8.11168e-05
0
0.0385154
1.25341e-07
-1.2769e-06
2.60546e-06
0
8.98939e-06
-4.93191e-07
-1.07028e-05
0.0412047
0.000391717
1.06594e-08
1.31496e-09
0
0.0186955
0.00138846
0.000285336
8.36564e-05
0
0.00269966
1.8372e-07
0
0.463398
0
1.64917e-08
-0.000290169
-9.47407e-07
0.000105971
0.00610726
0.255224
-1.95185e-09
2.77314e-05
0.000965877
0
0.166107
0
0.0351228
9.89583e-05
0.000111731
6.49805e-05
7.56996e-07
1.24231e-10
4.39815e-06
3.79986e-06
0
0.384296
0
0.00042419
-3.37964e-06
0
0.0329748
6.16939e-05
0.00271544
0.142027
0.00040695
2.1706e-06
0.00458128
-9.29067e-06
0.0733496
5.44009e-05
0.000329557
-0.000112649
0.00168263
-5.95858e-05
-2.11785e-07
0
4.21648e-09
0.0290752
0.000236442
0.00106288
4.4263e-07
-1.13959e-06
1.52345e-08
-0.000124828
-2.08372e-07
8.2083e-08
8.37785e-06
6.90256e-06
-3.79711e-06
1.83312e-06
-9.22069e-08
0.00843159
0.605659
0
6.32919e-09
0.000256444
0.000113225
0.116522
-3.20249e-05
0.000397762
-1.28844e-09
5.49351e-07
0.00775707
0.000755392
8.89305e-07
0.000618303
0.0397505
0
-9.921e-07
-2.28526e-07
0.0131748
4.26038e-09
0
1.19077e-07
-8.52834e-05
0.00293921
0.000334913
2.34132e-09
1.63044e-06
0.000191592
-6.02591e-09
-9.44544e-06
0.00940743
0
0.00257505
2.5555e-05
0.110795
0.0018413
0.000280093
0.000225228
0.000202339
0
1.13219e-07
-2.14871e-06
1.07653e-05
4.50288e-06
0.011216
0.0247233
-3.73046e-06
0
5.76461e-06
2.6026e-09
0.032531
2.69851e-07
0.000812053
0.000575258
0.00041093
1.45917e-07
0
-3.26096e-10
0
1.1459e-05
3.90233e-08
-1.11322e-09
1.1822e-08
-2.23475e-07
0
1.56778e-06
0.0445651
0.00508036
2.23821e-06
-6.82495e-10
0.0101074
0.374611
0
0.00263051
-5.11635e-06
0.00133805
0.000219419
1.33482e-05
-2.22413e-06
0
0
1.83634e-05
1.61941e-06
3.54696e-10
0.353017
0
7.49777e-08
0
0.000604933
1.99977e-10
0.247007
0.000672564
0.00115209
0.00399554
0
0
-1.66106e-10
0
8.59245e-06
8.78787e-09
6.23199e-07
1.17917e-08
7.59581e-06
0
0.00679784
7.56763e-06
4.22645e-09
3.28443e-06
0
-1.59341e-09
2.12688e-09
0.000184803
0
0.0423532
6.7472e-05
1.31177e-05
1.54417e-06
0.163501
-8.41948e-05
5.77035e-09
0
0.00077239
5.32445e-10
0.000441002
3.68327e-05
3.50552e-05
2.88881e-09
0.11385
0.000218018
-4.5149e-06
0
0.0223256
-0.000101405
0.000493421
0.0370642
0
7.88915e-07
0.000144576
-0.000245188
0.00525246
-8.26767e-06
0.00177132
-8.63842e-09
-3.18284e-09
0.000588745
6.66529e-05
9.27442e-05
1.33825e-05
-1.25954e-08
2.72734e-09
0.270869
0
-3.63851e-06
-1.29803e-07
0.000201327
2.72615e-09
0.0139297
0.99347
0
0.00467278
-5.07133e-07
6.86856e-06
-8.45226e-08
2.46782e-10
-7.22335e-06
0.00995049
0.00108628
0.00323111
0.289502
0.0129339
0.000160621
6.76668e-05
0
2.64525e-05
2.52464e-07
-0.000100204
0
0.000175919
9.98926e-08
-0.000290525
0
1.05563e-07
0.0192097
0.000153975
0
1.58568e-08
2.48926e-07
0.0177204
0.003203
0.000206578
0.000731694
0.00249972
0.000368063
0.000653756
0.0179186
0.000349036
0.00248619
2.34908e-07
0
0.123253
0.00137204
0
0.111347
-7.80733e-05
1.6156e-07
1.55323e-07
0.000371165
4.98298e-08
2.18946e-07
4.93281e-06
0.00143167
1.21958e-05
2.91754e-05
0.000551966
1.59847e-08
-1.09881e-06
5.39704e-10
0
-7.71025e-10
-2.34278e-08
0.000104128
0
0.00345428
4.47038e-06
2.23662e-09
0.00988727
0.487264
0
-0.000177446
0.00011928
0.00523195
0.000107887
0.000214443
0.0303186
0.00131835
-5.81297e-08
0
0.0109181
-3.42691e-06
3.03521e-07
1.27757e-05
0
0
1.42138e-05
2.37569e-06
0.00036179
0.00343373
-7.60339e-06
-2.24526e-08
0
1.37798e-10
0.00070168
0.00152586
3.6975e-07
1.6283e-10
0
-5.88781e-07
4.39873e-10
0.000361018
3.63973e-07
0.00147742
0.00811583
3.9802e-09
0.089877
0
-5.46265e-07
0
0
-5.53102e-06
-3.35727e-05
0
0
-1.30782e-06
3.43887e-07
0.0029259
0.000216572
0.000260362
0.000447359
0.000507367
4.79306e-07
0.000472488
4.31138e-05
4.50174e-05
3.6426e-06
0
2.55068e-09
3.62909e-07
0.00404051
1.53925e-06
0.000240526
0.000581668
1.95622e-05
1.6965e-05
-3.76375e-10
0.259459
6.71157e-06
-2.99209e-05
2.88792e-05
0.000443229
0
0.901683
0.194911
4.3701e-06
2.10971e-09
2.08626e-05
9.88786e-09
0.0192096
0.0097704
0.0212794
0.00851157
0.0076314
0.0201849
0.000171971
2.00559e-08
0.00101666
0.000982066
2.73934e-10
2.46402e-09
2.96073e-06
0.00776563
8.16305e-09
0.016206
7.15723e-05
7.2963e-09
6.16918e-08
-6.40718e-10
0.0501516
6.75287e-05
0.000143745
2.47205e-10
0.0785797
-1.49052e-05
0.00016886
0.0242381
-2.03554e-07
0.000484919
-2.10231e-09
2.48631e-09
0.157733
-4.43285e-05
0.000550546
-2.66788e-06
9.21487e-07
9.13838e-06
1.2808e-07
0.000187358
0.000524428
0.00129223
-1.35893e-06
3.61671e-08
0.00187994
0.000332169
-4.20498e-06
1.0063e-08
5.23538e-10
0.325637
5.47954e-06
9.85744e-10
7.77604e-05
2.88896e-05
0.0046757
0.000677221
-2.77032e-09
3.12021e-05
0.000214914
0
1.53429e-09
-6.43503e-06
0.00582496
0
0.0076035
4.47578e-05
0.000239895
0.000151675
2.60894e-09
-1.431e-06
1.92316e-06
1.60197e-07
0
4.32219e-08
-5.9485e-05
7.92801e-05
0.000936297
-2.20772e-08
6.17919e-05
-9.61313e-07
0.0030546
0
0.00764955
1.44489e-05
1.11954e-05
-3.89214e-07
-1.61427e-06
0.00487778
-3.80527e-05
4.02489e-09
0.0244893
0.000138829
2.38518e-07
-6.40064e-06
3.15835e-08
7.20694e-08
-6.5675e-07
0
-2.07381e-06
0.00242526
0.00517522
9.67003e-05
0.000575254
-7.83649e-07
0
-2.95892e-10
2.30481e-05
0.020754
0.0082013
3.13733e-09
1.77581e-05
1.76598e-06
7.65633e-06
1.06153e-06
0.0767058
-2.21695e-06
0
2.96652e-05
1.40981e-09
0.000653832
2.74041e-05
1.57135e-05
2.36045e-07
0.0195883
0.00026883
4.75797e-08
1.60958e-06
-6.89848e-07
-1.90109e-05
0.0577741
0.00517707
0.404071
8.07821e-05
8.33892e-10
0.00141419
7.04104e-05
-8.21659e-06
-3.01443e-08
2.31318e-05
0.0096556
0.000181944
0.00125896
-3.80456e-10
-6.1497e-06
0.00486871
1.84013e-07
-2.90894e-07
0.00703614
0.00116175
1.10522e-05
8.99569e-05
1.01422e-07
0.011493
0.170464
-1.67714e-05
3.36226e-10
5.32507e-05
0
-3.44503e-08
0.0123488
0.00615928
5.00266e-06
1.13372e-09
0.000773515
0.00121261
1.23358e-10
8.61061e-06
0.00396734
2.54301e-08
0.00233088
0.00024767
5.59135e-06
0.205164
0
9.44238e-10
-1.04556e-06
0.00114277
0.000696085
0
-1.98767e-06
0.0045356
1.3217e-05
2.07213e-07
0
0.0104748
9.31788e-05
5.61355e-09
-6.14165e-08
1.23538e-06
0.00234511
-2.30325e-07
0.0126365
0
0.000917622
2.43712e-06
1.7101e-09
0.0179722
-2.71661e-07
0.00384045
0.0176287
0.000279218
2.82715e-09
0.0534418
5.05398e-06
6.20447e-05
7.69662e-05
0.00734505
0.00083148
0.000134094
-1.31977e-05
0
0.000240047
2.64933e-08
0
3.47522e-06
1.33495e-10
1.41665e-08
0.000420153
0.0206763
0.00508869
0.011475
-4.55547e-06
0
2.40379e-07
0
0.00442273
3.05474e-06
1.28079e-09
-1.10621e-06
0.00632057
0.0167623
0.0403292
-1.06886e-05
3.68872e-06
4.7342e-05
-4.35105e-06
0.0149268
9.31359e-05
0.0163342
0
1.068e-06
8.79227e-09
2.5626e-07
-9.17058e-08
0.0155275
0.0673562
-1.639e-05
9.33632e-05
7.68633e-09
0.000965334
0.000137222
4.62515e-06
0.00706765
0.11006
0
0.216468
0.00255157
-5.42149e-07
2.91884e-06
1.77732e-10
0
0.0059274
0.00306623
6.08814e-06
1.69037e-10
-1.33556e-06
0.0161672
0.00643507
0.00193093
-1.1514e-10
3.38176e-06
3.44784e-05
1.95067e-08
-4.09892e-07
0.000306816
6.13735e-08
-9.85885e-05
0.0794878
4.89442e-05
0.039457
-2.22613e-06
0.000361642
1.016e-05
-9.27201e-10
0
0
3.97556e-05
1.69613e-09
1.80266e-08
0
0
-3.48353e-10
0.130048
-6.03986e-05
1.10009e-10
5.54971e-05
2.56893e-05
2.04081e-09
-2.2504e-06
9.65006e-07
0.000238618
2.63911e-06
-1.41439e-10
0.0587965
0.000228184
-1.1068e-10
3.08014e-05
0.00149275
0.00192019
5.60311e-05
0.00647982
0.0120411
0.00340566
4.52703e-10
2.1892e-05
-4.38367e-07
6.84677e-06
-7.99466e-08
2.16579e-08
0.000278437
9.69391e-05
0.00379442
0.0887978
0.000387211
7.50169e-05
0.07769
-9.11388e-06
0.000238066
0.000616449
-1.66259e-10
1.49554e-09
-1.33061e-08
-2.22534e-08
0.000661942
1.17601e-07
0
1.14796e-08
0
0.0053301
0.0641518
0
0.000693976
0.000116878
1.01761e-06
2.49004e-10
4.43919e-05
0
3.6774e-07
1.45502e-09
0.000132744
1.42522e-09
0
0
0
0.00184902
2.92935e-07
5.5052e-10
5.20564e-10
0.000101543
8.98155e-05
0
1.99025e-07
0.00514014
0.000261287
-2.67212e-10
3.87067e-07
4.66252e-09
2.59003e-07
-2.0366e-06
-2.53385e-06
0.0107893
-2.50632e-10
8.46883e-05
0
0
8.54809e-06
0
-5.34466e-09
0.000258792
-2.18842e-06
1.45559e-06
4.61668e-07
-4.83898e-08
4.06796e-05
0
0
0.000319348
-1.95836e-06
4.47537e-07
8.47265e-09
0
1.34716e-09
1.17106e-05
2.85699e-06