# vtk DataFile Version 2.0
Unstructured Grid by M++
ASCII
DATASET UNSTRUCTURED_GRID
POINTS 4072 float
  0.875000   1.000000 0
  0.875000   0.984375 0
  0.875000   0.968750 0
  0.875000   0.953125 0
  0.875000   0.937500 0
  0.875000   0.921875 0
  0.875000   0.906250 0
  0.875000   0.890625 0
  0.875000   0.875000 0
  0.875000   0.859375 0
  0.875000   0.843750 0
  0.875000   0.828125 0
  0.875000   0.812500 0
  0.875000   0.796875 0
  0.875000   0.781250 0
  0.875000   0.765625 0
  0.859375   1.000000 0
  0.859375   0.984375 0
  0.859375   0.968750 0
  0.859375   0.953125 0
  0.859375   0.937500 0
  0.859375   0.921875 0
  0.859375   0.890625 0
  0.859375   0.875000 0
  0.859375   0.859375 0
  0.859375   0.843750 0
  0.859375   0.828125 0
  0.859375   0.812500 0
  0.859375   0.796875 0
  0.859375   0.781250 0
  0.859375   0.765625 0
  0.859375   0.671875 0
  0.859375   0.656250 0
  0.859375   0.640625 0
  0.843750   1.000000 0
  0.843750   0.984375 0
  0.843750   0.968750 0
  0.843750   0.953125 0
  0.843750   0.937500 0
  0.843750   0.921875 0
  0.843750   0.906250 0
  0.843750   0.875000 0
  0.843750   0.859375 0
  0.843750   0.843750 0
  0.843750   0.828125 0
  0.843750   0.812500 0
  0.843750   0.796875 0
  0.843750   0.781250 0
  0.843750   0.765625 0
  0.843750   0.671875 0
  0.843750   0.656250 0
  0.843750   0.640625 0
  0.828125   1.000000 0
  0.828125   0.984375 0
  0.828125   0.968750 0
  0.828125   0.953125 0
  0.828125   0.937500 0
  0.828125   0.921875 0
  0.875000   0.671875 0
  0.812500   0.921875 0
  0.890625   0.656250 0
  0.828125   0.906250 0
  0.875000   0.656250 0
  0.812500   0.906250 0
  0.890625   0.640625 0
  0.828125   0.890625 0
  0.875000   0.640625 0
  0.812500   0.890625 0
  0.890625   0.625000 0
  0.828125   0.875000 0
  0.890625   0.609375 0
  0.828125   0.859375 0
  0.890625   0.593750 0
  0.828125   0.843750 0
  0.890625   0.578125 0
  0.828125   0.828125 0
  0.890625   0.562500 0
  0.828125   0.812500 0
  0.828125   0.796875 0
  0.828125   0.781250 0
  0.828125   0.765625 0
  0.828125   0.671875 0
  0.828125   0.656250 0
  0.828125   0.640625 0
  0.875000   0.750000 0
  0.812500   1.000000 0
  0.875000   0.625000 0
  0.812500   0.875000 0
  0.875000   0.734375 0
  0.812500   0.984375 0
  0.875000   0.718750 0
  0.812500   0.968750 0
  0.875000   0.703125 0
  0.812500   0.953125 0
  0.875000   0.687500 0
  0.812500   0.937500 0
  0.875000   0.609375 0
  0.812500   0.859375 0
  0.875000   0.593750 0
  0.812500   0.843750 0
  0.875000   0.578125 0
  0.812500   0.828125 0
  0.812500   0.812500 0
  0.875000   0.546875 0
  0.812500   0.796875 0
  0.812500   0.781250 0
  0.812500   0.765625 0
  0.859375   0.750000 0
  0.796875   1.000000 0
  0.859375   0.625000 0
  0.796875   0.875000 0
  0.859375   0.734375 0
  0.796875   0.984375 0
  0.859375   0.718750 0
  0.796875   0.968750 0
  0.859375   0.703125 0
  0.796875   0.953125 0
  0.859375   0.687500 0
  0.796875   0.937500 0
  0.859375   0.609375 0
  0.796875   0.859375 0
  0.859375   0.593750 0
  0.796875   0.843750 0
  0.859375   0.578125 0
  0.796875   0.828125 0
  0.859375   0.562500 0
  0.796875   0.812500 0
  0.796875   0.796875 0
  0.859375   0.531250 0
  0.796875   0.781250 0
  0.796875   0.765625 0
  0.843750   0.750000 0
  0.781250   1.000000 0
  0.843750   0.625000 0
  0.781250   0.875000 0
  0.843750   0.734375 0
  0.781250   0.984375 0
  0.843750   0.718750 0
  0.781250   0.968750 0
  0.843750   0.703125 0
  0.781250   0.953125 0
  0.843750   0.687500 0
  0.781250   0.937500 0
  0.843750   0.609375 0
  0.781250   0.859375 0
  0.843750   0.593750 0
  0.781250   0.843750 0
  0.843750   0.578125 0
  0.781250   0.828125 0
  0.781250   0.812500 0
  0.843750   0.546875 0
  0.781250   0.796875 0
  0.781250   0.781250 0
  0.843750   0.515625 0
  0.781250   0.765625 0
  0.828125   0.750000 0
  0.765625   1.000000 0
  0.828125   0.625000 0
  0.765625   0.875000 0
  0.828125   0.734375 0
  0.765625   0.984375 0
  0.828125   0.718750 0
  0.765625   0.968750 0
  0.828125   0.703125 0
  0.765625   0.953125 0
  0.828125   0.687500 0
  0.765625   0.937500 0
  0.828125   0.609375 0
  0.765625   0.859375 0
  0.828125   0.593750 0
  0.765625   0.843750 0
  0.828125   0.578125 0
  0.765625   0.828125 0
  0.828125   0.562500 0
  0.765625   0.812500 0
  0.765625   0.796875 0
  0.828125   0.531250 0
  0.765625   0.781250 0
  0.765625   0.765625 0
  0.812500   0.750000 0
  0.750000   1.000000 0
  0.953125   1.000000 0
  0.812500   0.734375 0
  0.750000   0.984375 0
  0.812500   0.718750 0
  0.750000   0.968750 0
  0.812500   0.703125 0
  0.750000   0.953125 0
  0.812500   0.687500 0
  0.750000   0.937500 0
  0.812500   0.671875 0
  0.750000   0.921875 0
  0.812500   0.656250 0
  0.750000   0.906250 0
  0.812500   0.640625 0
  0.750000   0.890625 0
  0.812500   0.625000 0
  0.750000   0.875000 0
  0.812500   0.609375 0
  0.750000   0.859375 0
  0.812500   0.593750 0
  0.750000   0.843750 0
  0.812500   0.578125 0
  0.750000   0.828125 0
  0.750000   0.812500 0
  0.812500   0.546875 0
  0.750000   0.796875 0
  0.750000   0.781250 0
  0.812500   0.515625 0
  0.750000   0.765625 0
  0.796875   0.750000 0
  0.734375   1.000000 0
  0.796875   0.734375 0
  0.734375   0.984375 0
  0.796875   0.718750 0
  0.734375   0.968750 0
  0.796875   0.703125 0
  0.734375   0.953125 0
  0.796875   0.687500 0
  0.734375   0.937500 0
  0.796875   0.671875 0
  0.734375   0.921875 0
  0.796875   0.656250 0
  0.734375   0.906250 0
  0.796875   0.640625 0
  0.734375   0.890625 0
  0.796875   0.625000 0
  0.734375   0.875000 0
  0.796875   0.609375 0
  0.734375   0.859375 0
  0.796875   0.593750 0
  0.734375   0.843750 0
  0.796875   0.578125 0
  0.734375   0.828125 0
  0.734375   0.812500 0
  0.734375   0.796875 0
  0.796875   0.531250 0
  0.734375   0.781250 0
  0.734375   0.765625 0
  0.781250   0.750000 0
  0.718750   1.000000 0
  0.921875   1.000000 0
  0.781250   0.734375 0
  0.718750   0.984375 0
  0.781250   0.718750 0
  0.718750   0.968750 0
  0.781250   0.703125 0
  0.718750   0.953125 0
  0.859375   0.906250 0
  0.781250   0.687500 0
  0.718750   0.937500 0
  0.781250   0.671875 0
  0.718750   0.921875 0
  0.781250   0.656250 0
  0.718750   0.906250 0
  0.781250   0.640625 0
  0.718750   0.890625 0
  0.781250   0.625000 0
  0.718750   0.875000 0
  0.781250   0.609375 0
  0.718750   0.859375 0
  0.781250   0.593750 0
  0.718750   0.843750 0
  0.781250   0.578125 0
  0.718750   0.828125 0
  0.781250   0.562500 0
  0.718750   0.812500 0
  0.781250   0.546875 0
  0.718750   0.796875 0
  0.781250   0.531250 0
  0.718750   0.781250 0
  0.781250   0.515625 0
  0.718750   0.765625 0
  0.765625   0.750000 0
  0.703125   1.000000 0
  0.765625   0.734375 0
  0.703125   0.984375 0
  0.765625   0.718750 0
  0.703125   0.968750 0
  0.765625   0.703125 0
  0.703125   0.953125 0
  0.765625   0.687500 0
  0.703125   0.937500 0
  0.843750   0.890625 0
  0.703125   0.921875 0
  0.765625   0.656250 0
  0.703125   0.906250 0
  0.765625   0.640625 0
  0.703125   0.890625 0
  0.765625   0.625000 0
  0.703125   0.875000 0
  0.765625   0.609375 0
  0.703125   0.859375 0
  0.765625   0.593750 0
  0.703125   0.843750 0
  0.765625   0.578125 0
  0.703125   0.828125 0
  0.765625   0.562500 0
  0.703125   0.812500 0
  0.765625   0.546875 0
  0.703125   0.796875 0
  0.765625   0.531250 0
  0.703125   0.781250 0
  0.765625   0.515625 0
  0.703125   0.765625 0
  0.750000   0.750000 0
  0.687500   1.000000 0
  0.890625   1.000000 0
  0.750000   0.734375 0
  0.687500   0.984375 0
  0.750000   0.718750 0
  0.687500   0.968750 0
  0.578125   0.796875 0
  0.578125   0.781250 0
  0.578125   0.765625 0
  0.546875   0.953125 0
  0.546875   0.968750 0
  0.546875   0.718750 0
  0.546875   0.687500 0
  0.250000   0.609375 0
  0.937500   0.031250 0
  0.046875   0.703125 0
  0.734375   0.062500 0
  0.734375   0.078125 0
  0.734375   0.046875 0
  0.046875   0.593750 0
  0.046875   0.562500 0
  0.046875   0.531250 0
  0.718750   0.156250 0
  0.046875   0.609375 0
  0.734375   0.031250 0
  0.062500   0.609375 0
  0.234375   0.703125 0
  0.718750   0.125000 0
  0.046875   0.578125 0
  0.734375   0.000000 0
  0.062500   0.578125 0
  0.000000   0.828125 0
  0.234375   0.671875 0
  0.234375   0.625000 0
  0.718750   0.093750 0
  0.687500   0.156250 0
  0.062500   0.546875 0
  0.000000   0.796875 0
  0.718750   0.046875 0
  0.031250   0.687500 0
  0.687500   0.171875 0
  0.500000   1.000000 0
  0.078125   0.218750 0
  0.234375   0.593750 0
  0.718750   0.062500 0
  0.687500   0.125000 0
  0.000000   0.765625 0
  0.421875   0.500000 0
  0.031250   0.593750 0
  0.718750   0.015625 0
  0.687500   0.234375 0
  0.015625   0.812500 0
  0.703125   0.171875 0
  0.703125   0.187500 0
  0.703125   0.140625 0
  0.015625   0.781250 0
  0.437500   0.515625 0
  0.500000   0.796875 0
  0.078125   0.015625 0
  0.687500   0.203125 0
  0.250000   0.578125 0
  0.703125   0.109375 0
  0.000000   0.515625 0
  0.500000   0.765625 0
  0.062500   0.593750 0
  0.750000   0.015625 0
  0.015625   0.843750 0
  0.687500   0.000000 0
  0.500000   0.828125 0
  0.078125   0.046875 0
  0.015625   0.531250 0
  0.250000   0.546875 0
  0.703125   0.078125 0
  0.703125   0.031250 0
  0.015625   0.671875 0
  0.250000   0.515625 0
  0.000000   0.656250 0
  0.500000   0.906250 0
  0.078125   0.125000 0
  0.687500   0.015625 0
  0.031250   0.546875 0
  0.687500   0.031250 0
  0.500000   0.859375 0
  0.703125   0.000000 0
  0.703125   0.046875 0
  0.703125   0.015625 0
  0.500000   0.937500 0
  0.234375   0.531250 0
  0.031250   0.578125 0
  0.687500   0.062500 0
  0.500000   0.890625 0
  0.031250   0.796875 0
  0.453125   0.531250 0
  0.500000   0.968750 0
  0.078125   0.187500 0
  0.234375   0.562500 0
  0.031250   0.609375 0
  0.718750   0.031250 0
  0.687500   0.093750 0
  0.750000   0.046875 0
  0.000000   0.937500 0
  0.421875   0.671875 0
  0.718750   0.187500 0
  0.031250   0.828125 0
  0.765625   0.062500 0
  0.015625   0.953125 0
[...]
CELL_DATA 7648
SCALARS scalar_value float 1
LOOKUP_TABLE default
0
0
0
0
0
0
0
6.91093e-06
-1.28448e-06
1.65419e-06
8.84414e-06
0
0
0
0
-1.00041e-05
0
0
0
0
-1.99071e-05
6.62688e-09
0
-1.66182e-10
1.84087e-10
0
0
0
0
0
0
0
0
0
0
0
0
0
0.000193147
-8.79781e-05
0
5.00427e-05
0
0
0
0
0
0
0
0
0
0
0
0
3.7518e-05
3.75933e-08
2.95634e-09
2.80087e-08
-2.38166e-08
0
0
0
0
0
0
0
0
0
0
0
0
0
0
0
0
3.65044e-10
0
0
0
0.000215432
0
0
-8.59634e-10
0
0
0
0
0
0
0
0
1.53197e-07
0
0
0
0
0
0
0
0
0
0
0
0
-6.23506e-08
0
2.77749e-08
-6.77733e-09
-1.46403e-10
0
1.53438e-09
-1.86197e-10
7.94304e-10
6.49395e-10
0
0
3.89267e-09
0
0
0
0
-7.29147e-09
3.02959e-09
0
0
0
0
-1.08487e-07
-3.47232e-08
-2.92966e-09
4.00899e-09
0
0
6.56492e-05
0
0
1.49286e-06
0
7.9998e-06
0
0
0
0
0
0.084454
0
0
0
0
-1.49245e-10
0
0
0.000162562
0
2.566e-05
0
0
-9.35029e-07
-8.94395e-08
1.63818e-06
-1.72447e-07
4.87652e-09
0
0
0
0
0
0
0
2.59412e-07
0
3.6225e-10
0
0
-3.91798e-07
5.95317e-05
-1.66927e-06
0
0
0
1.75681e-08
0
0
0
0
0
0
1.381e-08
0
-1.18232e-09
7.56851e-05
0
0
0
0
0
0
0.000118265
0
0
0
0
-5.84962e-08
-1.02881e-06
0
0
4.53598e-06
7.73156e-07
0
0
0
0
-9.20927e-06
-6.41875e-06
4.50548e-06
1.52226e-09
4.82154e-08
8.24067e-07
-1.05956e-07
-1.94216e-08
3.285e-06
0
0
-2.90514e-05
0
0
0
0
0
-5.37655e-06
-1.09141e-08
0
0
-1.24902e-05
-3.91194e-07
5.78141e-06
5.58483e-06
7.35495e-06
0
0
0
0
8.22474e-05
1.53034e-06
2.5075e-05
0
0
0
0
0
0
0
0
0
-4.19087e-07
0
0
0
0
-1.64636e-08
0
0
0
0
0
0
0
0
0
0
0
0
0
0
0
0
0
1.28433e-10
3.71301e-07
2.94414e-06
1.87946e-06
6.34752e-08
0
0
0
0
0
1.5289e-07
-1.15085e-07
0
0
0
0
1.80554e-06
1.50034e-05
7.52503e-07
0
0
-2.71019e-07
0
0.000181177
9.46863e-05
-5.10549e-05
0
0
0
0
0
0
0
0
0
0
0
2.57535e-05
-1.70227e-05
2.31247e-05
0
0
0
0
0
0
0
0
0
-1.22577e-06
-3.47966e-08
-3.65852e-07
-1.19686e-09
0.000181684
-5.90081e-05
0
0.0156949
-0.000330806
0
0
0
0
0
0.0152443
-1.72786e-05
0.000248719
0.00410057
0
-6.80658e-07
0
0
0
0
0
1.16992e-07
1.18374e-07
-2.50389e-09
9.50832e-09
0
0
0
0.00043597
6.98493e-05
0
0
0
0
0
-3.90087e-05
1.10125e-07
3.13362e-09
-3.17132e-09
3.61077e-06
0
0
0
7.12523e-10
3.19684e-10
0
5.17224e-06
-1.42304e-08
2.89476e-07
-2.69166e-06
-7.1644e-07
0
4.60297e-07
1.78457e-05
6.24615e-06
9.81679e-06
0
0.000710619
0
0
0
0
-4.58302e-07
1.18335e-07
1.29331e-07
-1.07523e-08
5.93846e-08
2.99011e-07
7.51696e-06
-4.10236e-06
-3.51121e-06
0
0
0
2.95514e-10
0
-1.25019e-05
0.0013368
6.15181e-07
0
0
6.4586e-06
0
-3.50549e-06
-4.23237e-06
0
0
4.94076e-09
1.77055e-06
-4.78115e-06
2.89676e-06
0
0
0
0
4.4774e-05
-0.000322325
0
0
0
0
0
0
0
0
0
0
0
0
0
0
0
0.00232601
0
0
0
0
0
0
0
0
0
0
0
0
0
0
0
0
0
0
0
0
0
0.00180038
0
0
0
1.24736e-10
0
2.52072e-10
-8.84207e-08
1.50549e-08
0
0
2.67178e-07
0
0
0
0
0
-1.30494e-08
9.07628e-07
-8.92724e-07
0
0
0
0
0
0
0
0
0
0
0
0
0
0
0
0
0.0010281
0
0
0
0
0
0
1.46311e-09
0
-2.47204e-09
0
-6.27184e-10
-7.2934e-10
0
0
0
0
9.78097e-05
4.46572e-06
0
0
6.11215e-09
0
0
0
0
0
0
0
0
0
0
0
2.93233e-07
9.34218e-06
0
0
0
0
-1.17277e-06
0
0
0.000150916
0
0
0
1.71895e-10
0
0
-9.10677e-06
-8.75586e-06
0
-5.14848e-06
7.81801e-05
0
8.0152e-05
0
0.0646938
0
6.2934e-08
0
0
-3.23483e-05
0
0
0.000201651
0
0.000208911
0
0
0
-6.97869e-05
0
4.08739e-06
-8.037e-05
-2.56954e-05
2.2751e-05
0
-1.18146e-05
0
0
0
0
2.03333e-05
0
0
0
0
0
0
0
0
-1.88115e-09
0
0
0
0
0
0
0
0
0
0
0
0
-3.64819e-05
0
0
-4.353e-06
6.93557e-08
0
-1.10176e-09
0
0
0
0.0443231
-6.14988e-08
5.26422e-05
0
0
0
7.53171e-06
6.66153e-10
1.74318e-05
0
2.25081e-05
4.72593e-09
5.78592e-06
1.98096e-05
-0.00017577
0.0421115
0
0
0.00214931
0
0
0
0
0
-1.2561e-05
0
0
0
0
0
-6.65203e-09
4.90179e-09
0
0
4.85763e-09
0
0
0
9.06186e-10
-2.50765e-06
-8.68003e-10
0
-1.32199e-09
0
9.09856e-07
0
0
0
0
0.000103577
0
0
0
0
3.82068e-07
-0.00014333
0
0
0
1.06915e-08
0
0.000227375
-0.000113934
0
0
0
2.60568e-05
0
0
0
0
0
0
1.34977e-10
0
0
0
0
1.87226e-06
0
8.61023e-09
-7.97299e-10
0
0
0
-1.10379e-07
0
-1.47899e-07
0
0
0
0
0
0
0
-1.62144e-05
0
-0.000142689
-1.02452e-10
-1.92356e-05
-8.41017e-06
6.186e-06
0
-5.26375e-07
0
0
0
1.0722e-09
0
0
-1.29412e-06
0
0
0
0
0
0
0
-1.87825e-10
0
0
0
0
0
0
-1.82135e-06
0
0
0
-6.36941e-08
0
0
1.18684e-06
0
-7.88349e-05
0
0
-1.13877e-07
0
0
3.39589e-08
0
-1.74928e-10
0
0
8.06515e-09
0
0
0
0
0
0
0
0
-1.01935e-09
0
0
0
0
0
-0.000139715
0
0
0
0
0
0
0
0
0
0
0
0
-6.44766e-09
0
0
0
5.30143e-07
0
0
0.0177253
1.1867e-08
0
0
0
0
0
-7.99463e-05
-9.52934e-06
0
0.000388272
5.43632e-10
3.86445e-07
3.09973e-06
0
-1.54228e-05
1.25538e-05
-1.41321e-06
0
0
0
0
0
0
0
0
0
0
0
0
0
0
0
0
0
-8.05112e-08
6.00697e-07
9.70512e-07
0
0
0
-5.20905e-06
0
0
0
0
0
0
0
0
0
0
0
0
0
0
0
0
0
1.71583e-05
0
0
0
0.00381451
0.00211537
1.54502e-05
-0.000160883
0
3.5389e-09
8.1478e-06
0
0
0
0
0
0
0
3.53835e-10
-3.72797e-09
0
0
0
0
0
0
0
0
-1.45469e-06
0
0
0
-5.2996e-09
0
0
0
5.65742e-07
0
0
0
0
0
0
0
0
-3.41294e-09
0
0
1.04439e-06
0
0
-1.91082e-09
0
0
0
0
-1.03086e-10
0
0
0
0
0
0
0
0
0
0
0
0
0
0
0
0
0
0
0
0
0
0
0
3.09393e-10
0
0
0
0
0
0
0
0
0
0
0
0
6.92091e-08
0
0
0
0
5.70682e-07
0.00918517
2.5243e-06
5.67988e-08
0
0
2.48261e-07
0
0
0
0
0
0
0
-2.56472e-05
0
-0.000269966
0
0
1.46315e-08
0.000187928
0
-2.8422e-05
0
0
0
0
0
0
0
0
0
0
0
0
0
0
0
0
0
1.64188e-09
0.00219669
0
0
0
0
0
0
0
-1.90646e-10
9.67738e-10
0
0
0
0
0
0
0
0
-2.02388e-10
0
0
0
0
0.000123241
0
0
0
0
0
0
0
0
0
0
0
1.82073e-05
0
0
0
-1.33455e-09
4.66381e-10
0
0
-2.79913e-05
0
0
0
-7.8791e-06
0.000169788
-1.66515e-09
2.92014e-09
0
2.4462e-05
-2.60601e-05
-1.20508e-10
4.43853e-08
3.85919e-07
0
0
1.77601e-10
0
0
0.000129166
0
0
0
0
0
0
0
0
0
0
0
0
0
0
0.0267297
0
0.0143733
0
0
0
0
0
-4.86128e-10
5.55069e-05
2.47801e-08
0
0
0
-3.9117e-10
0
1.80598e-09
0
7.55278e-10
0
0
0
0
0
0
-1.04968e-09
-7.12121e-09
5.71361e-07
0
0
0
-1.08192e-08
0
0
0
0
0
0
0
0
0
0
0
-9.97375e-08
0
0
0
2.36283e-08
0
0
0
0
0
0
0
0
0
0
0
0
0
0
-1.03189e-10
-1.16657e-09
-2.18213e-10
0
0
0
0
0
0
0
0
0
0
-4.61167e-06
-2.87128e-06
8.29969e-06
5.82752e-05
0
0
0
0
0
0
-7.71639e-05
0
4.87636e-06
0
0
0
0
0
0
0
-5.46181e-06
0
0
0
0
0
0
0
0
0
0
0
0
0
0
0
0
0
0
0
0
0
0
0
3.20488e-09
8.85248e-09
-2.91865e-09
0
-6.92541e-09
0
0
0
0
0
0.00790405
-1.77222e-09
0.000900705
0.000432387
0
-4.63019e-05
0
0
0
0
0
0
0
0
2.97051e-07
0
0
0
0
0
1.5024e-08
0
5.12436e-10
1.55203e-09
-6.21247e-10
0
0
0
0
0
0
0
0
0
0
0
-5.31107e-06
7.42407e-06
1.09011e-06
2.89636e-05
0.000353771
0
-1.54243e-05
0
-6.22361e-10
0
0
0
0
0
0
-6.19646e-09
0
0
0.00668185
0
-2.81627e-07
0
0
0
0
-4.95938e-09
0
0
0
0
0
0
0
0
0.000211437
0
0.0197695
0
0
0
0
0
0.0260402
0
0
0
0
0
0
0
-1.85803e-09
0
0
1.77946e-06
0
0
0
0
0
0
0
0
0
0
0
0
0
0
4.87037e-07
6.63377e-08
0
0
0
0
0
0
0
0
5.53852e-10
0
0
0
0
0
0
0
0
1.42907e-10
0
0
-3.51249e-09
0
0
0
0
0
0
0
0
0.000679714
-4.07274e-07
0
-2.54998e-05
0.0258095
0
0
0
0
0
0
0
-0.000111232
3.20374e-05
0
-1.23807e-10
0.00177178
0.00340181
-3.7274e-09
0
0
0
0
0
0
0
0
0
0
-0.00168644
0
0
0
0
0
0
2.11192e-06
-5.10323e-05
0
0
0
0
0
0
0
0
-2.68325e-10
0
0
0
0
0
0
0
0
0
0
0
0
-6.07569e-09
-1.58037e-07
0
0
0
0
0
0
0
0
0
0
0
0
0
0
0
0
0
0
0.00138518
3.58658e-07
1.23662e-06
6.7284e-06
0
0
0.0042028
0
0
0
0
0
0
0.00229841
0
0
0
-0.000141697
0.000197388
2.05879e-09
3.57581e-08
1.76841e-09
-6.27791e-05
0
0
0
0
0
0
0
0
0
0
0
0
0
0
0
0
0
-8.70341e-08
8.80651e-10
0
0
0
0
0
0
0
0
0
0
0
0
0
6.25951e-06
0
0
-1.18155e-08
5.57381e-08
2.07144e-07
0
0
0
0
0
0
0
0
0
-6.28255e-07
0
2.88846e-05
-1.66703e-07
0
0
0
0
0
0
0
-1.25224e-05
0
0
0
0
-6.96054e-09
0
0
0
0
0
0
0
0
0
0.00609209
0
-9.88559e-10
9.12354e-10
0
-2.95024e-08
0
5.68314e-08
1.39952e-08
0
0
4.4713e-10
-3.22077e-09
9.50756e-10
6.92585e-09
0
-8.1895e-07
0
0
0
8.14322e-08
-2.51142e-07
-2.94286e-08
-1.29586e-09
-2.00138e-08
1.62157e-08
0
0
0
3.28365e-07
2.26224e-08
-3.5754e-07
0
0
0
0
0
0
0
0
0
0
0
0
0
0
0
0
0
1.21258e-10
1.65128e-09
0
0
0
0
0
0
0
0
0
0
0
0
0
-1.1586e-09
0
0
0
0
0
0
0
0
0
0
0
-0.00129218
0.00841449
0.0405106
0
0
0
-2.44014e-09
1.35747e-07
3.54826e-05
-2.49965e-06
-3.17148e-05
0
0
0
-5.8717e-08
0
-8.15288e-07
0
0
0
0
0
-1.32946e-10
0
3.84499e-09
0
0
0
0
0
0
0
0
0
0
0.00145653
0.00018714
0
0
0
0
0
0
0
1.17549e-07
0
0
0
0
0
0
0
0
0
0
0
0
0
0
0
0
0
0
0
0
0
0
-3.95405e-08
-1.67201e-07
0
0
0
-1.61308e-10
-4.49847e-09
7.53786e-09
-1.09294e-08
5.82848e-09
4.93509e-09
0
0
0
0
0
0
0
0
0
0
0
0
0
0
0
0
0
0
0
0
0
0
0
0
0
0
0
0
0
0
0
0
8.30601e-08
-6.15573e-07
1.75832e-06
9.13575e-07
0
-2.74594e-10
1.42477e-10
0
0
1.26033e-09
0
2.10657e-07
-3.88058e-06
0
0
0
0
0
0
0
0
0
0
4.99059e-09
0
0
0
0
0
0
0
0
0
0
0
0
0
0
0
0
0
0.000308821
0.000835286
0.0111255
0.00155023
-1.48436e-10
2.17647e-10
4.22416e-09
0
0
0
0
0
0
3.46491e-05
0.000373905
0
0
0
0
0
1.32942e-08
3.59281e-08
3.75439e-08
-9.81356e-06
-5.09276e-05
0
0
0
0
0
0
0
-0.00094183
0.00381902
0
0
0
0
0
0
0
0
0
-1.37665e-07
-4.97352e-06
0
0
0
0
0
0
0
0
-1.45337e-10
0
0
0
0
0
0
0
0
0
0
0
0
0
0
0
0
0
-2.38993e-10
-4.73581e-09
1.78104e-10
-1.3316e-10
0
0
0
0
0
0
0
2.18206e-09
0
0.000646413
0
0
0
0
0
0
0
0
0
0
0
4.96179e-09
0
0
0
0
0
0
0
0
0
0
0
0
0
0
0
0
0
0
0
0
0
0
-6.00839e-10
-1.34089e-09
1.46793e-09
-1.39094e-09
-3.99639e-05
0
0
0
0
0
0
0
0
0
0
-1.65498e-08
1.11065e-07
0
0
0
0
0
0
0
0
0
0
-6.06511e-08
-3.02642e-08
-2.72381e-07
2.31732e-08
0
0
0
0
0
0
0
0
0
0
-1.10123e-10
0
0
0
0
0
0
0
0
0
0
0
0
0
0
2.32891e-06
0.0333379
0.0333364
0.0248844
0.0161803
0.0175285
0.0406414
0.0615582
0.0516209
0.0249086
-0.00149536
-0.0235981
-0.0319694
-0.0217539
-0.006465
0.000427579
0.00160671
0.00190653
-0.000720726
-0.0106153
-0.0248073
-0.0298349
-0.0230181
-0.0114947
0.0301216
0.180592
0.470988
0.768616
0.924533
0.910426
0.730427
0.441525
0.188705
0.0408382
0.0392625
0.0136551
0.0611185
0.0741005
-0.00492987
-0.0229831
-0.0184939
-0.00155031
-0.002363
-0.0164797
-0.0287879
0.235385
0.0102456
0.0070657
0.0151938
0.0290254
0.0449849
0.0561881
0.0480313
0.0259871
0.0123711
0.00906003
0.00452134
0.00042769
-0.000327641
7.36181e-05
0.000611804
0.00148977
0.00214723
7.89449e-05
-0.0046541
-0.0106111
-0.0117989
-0.00621513
0.00231599
0.0430522
0.206322
0.516347
0.809226
0.940655
0.895872
0.67897
0.374397
0.145369
0.0139818
0.0172039
0.0238949
0.0215798
0.00706005
0.0106694
0.00653595
-0.00322245
-0.000622622
-0.0044574
-0.0332175
-0.000931732
0.00353844
0.00568982
-0.000101858
-0.00378034
-0.00764755
-0.0110773
-0.00588043
0.00115665
0.000695783
-0.00375357
-0.00334183
0.0012923
0.00485937
0.0051541
0.00310714
0.00162581
0.000612651
-0.0061883
-0.0191139
-0.019741
-0.0083025
0.00602992
0.0643021
0.259695
0.579663
0.843673
0.938017
0.857133
0.58662
0.259989
0.0726763
-0.00131339
0.00444207
6.0032e-05
-0.00237727
-0.0143632
0.00106444
0.0108479
-0.00832907
-4.16387e-05
-0.000547366
-2.93186e-05
-0.00462625
-0.000256207
2.82374e-05
-0.00340031
5.26767e-05
-0.000914467
-0.00686486
3.61852e-05
0.000468795
1.11462e-05
0.000418076
-0.000481074
-0.0335637
-3.38527e-06
0.000253739
0.00101229
0.000923943
0.00301067
-0.0039937
-0.00275147
-0.00627134
-0.00543197
-0.00016526
-0.00512837
0.000551059
-0.00096388
0.00143226
0.00157166
0.0010179
-0.00299303
-0.00080066
-7.14307e-06
-4.43954e-05
-0.00267678
-2.90222e-05
0.00380329
-3.35077e-05
0.00471105
-0.000408395
-2.08429e-05
0.00355112
-1.03655e-05
0.00144323
-0.0161086
-3.67638e-06
0.00011659
-1.82293e-07
0.000449066
0.000713111
-0.000178744
-0.00051406
-0.000604847
2.21629e-05
-0.000201729
-4.3756e-05
0.000982898
5.9402e-06
0.00105317
0.00039668
0.00187873
0.00474789
-0.00142265
0.00698583
0.00705425
0.000299177
0.00380638
0.00109515
-0.00104708
0.000132094
-0.00124427
0.0002093
9.12641e-05
-0.0284096
9.31717e-05
7.45073e-05
0.00941961
-0.000105368
7.27507e-06
-0.00747672
-3.00946e-05
0.000355849
0.000181506
-0.00757211
5.01519e-06
-0.000109402
-3.12527e-05
-0.00199537
1.80779e-06
0.684384
0.00010817
0.000154477
0.0695532
0.000117258
-0.00033924
5.83118e-06
-0.00156533
-0.00163786
-1.50541e-05
-0.00214187
-0.00213502
-9.039e-06
-0.000498103
0.00110626
-6.87526e-07
-4.40668e-05
-4.07606e-09
5.75261e-05
0.000490498
0.0026466
-6.16975e-05
-0.000108901
-0.000205312
-9.55921e-05
-0.00149921
-8.75822e-05
-0.00177565
-6.75668e-05
-0.0028235
-5.48041e-05
-0.0027868
0.00023961
-0.00230969
-0.000993178
0.00155986
0.00188492
0.00345546
0.00141387
-0.000554576
-0.000794893
-0.00158153
0.000930515
-4.91692e-05
-9.26115e-05
-6.78778e-05
-0.0114306
-5.5412e-05
-0.000146105
0.000356595
0.000475991
0.000325587
-1.32269e-05
2.33735e-05
4.46248e-05
-0.00267543
-4.97423e-05
-0.000108648
-0.000327691
4.50221e-05
-0.000258304
-0.00102644
-0.00123037
7.42323e-05
0.00125913
0.000774178
5.59327e-05
3.27554e-05
3.15931e-05
-0.00154996
-7.36678e-05
0.000116239
7.24998e-05
0.00543824
-4.33805e-05
-0.00115904
-0.0418668
-0.000105549
-0.00499188
-0.00517735
-0.0124606
-4.15886e-05
-0.00843193
-0.00525555
2.15177e-05
-0.00844936
-0.00321872
-0.0312795
-0.00545259
-0.00210289
8.42915e-05
-0.000980881
-0.00147926
-0.0285999
0.00317626
-0.000963698
0.000648171
0.0041858
-0.000594256
0.311162
-0.000595459
0.00257985
3.26861e-05
-0.000922774
0.000211451
-1.41339e-05
0.00171599
1.77552e-05
0.00726898
-3.58735e-06
0.00857819
-1.4081e-05
0.000972014
0.0181262
-1.7527e-05
0.0294429
0.00221163
-0.00995125
-2.22268e-06
0.000666771
0.00265997
-9.55156e-07
0.000523777
0.126001
-3.76761e-07
0.000259207
0.00499487
-8.39418e-08
4.56835e-05
0.686435
2.67064e-08
-5.46857e-06
0.00705301
1.97743e-08
-4.07814e-05
0.928273
1.29863e-09
-4.17845e-05
-0.00253495
-0.000928913
2.70794e-09
-1.44135e-05
-0.000259363
-0.000587892
-0.000344032
-1.55536e-05
8.38804e-05
0.00036382
-0.000139132
0.000707719
0.000340475
3.84785e-05
0.000154267
0.000113209
-0.000695513
-1.91932e-05
-2.61539e-06
-0.00110898
-0.000114741
-9.1898e-05
0.00102694
-0.00242718
0.00311825
-0.00102121
0.00561469
4.79972e-05
-0.000209523
0.000765767
0.001871
0.000169466
-0.000456888
0.00140519
0.000116064
-0.00156148
0.00111824
3.07904e-05
0.00166615
-0.00996707
-3.0634e-05
0.0032772
0.00160499
0.00077958
-9.58566e-05
0.00515461
0.00117869
4.84944e-05
0.00544124
0.000761351
0.00865745
0.00393357
0.000362704
0.000114405
0.00102567
-4.77167e-05
0.0815955
-0.00174831
-0.000328436
0.257448
-0.000504676
-0.00112711
-0.000300536
0.543312
0.00031166
0.000275573
-0.000194659
0.00042567
-6.90264e-06
-1.72037e-05
-0.00631458
-1.30659e-05
-0.00629642
-7.79297e-06
-0.000521204
0.0171607
0.0011421
-0.0275107
-3.85118e-07
0.000340637
-0.00118065
0.0194542
-1.57495e-07
0.000346839
-0.00102937
-8.06684e-08
0.000119693
0.418355
-1.12401e-08
4.10223e-05
0.000192043
1.18399e-08
-9.54766e-06
0.918632
1.03777e-09
-4.16555e-05
-0.000305414
-5.02136e-09
-1.40551e-05
0.746176
-3.38118e-09
2.95063e-05
0.00750629
-4.42551e-05
-4.3752e-09
0.00016652
-0.000103108
0.000356574
-6.20532e-05
-0.000209338
0.000471118
3.40085e-05
-0.000298995
0.000114886
-2.81256e-05
-0.000177247
0.000370762
-4.83007e-05
4.16798e-05
3.47232e-05
-9.50417e-06
1.91088e-05
9.07336e-06
-0.000606598
0.00288351
0.000239595
0.000695955
0.00117953
-0.00265419
0.000640586
-0.000156872
-0.000366356
0.00173482
-0.000112152
0.000438379
-0.00587891
8.91862e-05
0.002325
0.000162533
1.82508e-05
0.0626797
0.000411724
0.00058043
-5.58489e-05
0.219192
6.65801e-06
0.00242572
-9.19468e-05
0.485918
-0.000487569
1.16351e-05
0.000142521
0.74966
-0.00053622
-0.00252145
0.000899303
0.000366552
0.0390334
-0.000184078
0.000447032
0.000104998
0.000623042
2.56423e-08
2.98504e-05
-7.19161e-05
-0.000266183
-7.92493e-09
-0.000206877
-3.81039e-05
0.000339431
-0.00322887
3.53773e-06
5.12785e-05
0.00100316
0.000113811
0.0057408
-3.00269e-06
0.000110784
-0.000164679
-0.000900316
0.00119923
-3.74956e-05
-0.000610277
-0.000163252
0.00138273
-0.000438479
0.00395298
-0.000106677
0.00485835
0.000139309
0.000385005
0.00964974
-0.00548539
0.000243402
-6.5697e-05
0.00167718
0.00116921
-0.00842404
1.55817e-07
-0.000199797
0.000200085
4.13778e-05
4.47722e-06
0.000113835
0.000277498
2.57187e-05
0.000117713
0.000247855
-0.000199316
0.00337644
-6.67795e-07
-0.000247674
0.00328776
0.000329799
0.00299581
-3.52205e-06
8.69641e-05
-0.0143301
-0.000169117
-0.00827008
8.76372e-05
-9.13425e-05
-0.00389383
0.000106623
5.10037e-06
0.000451209
4.39826e-05
2.4451e-05
-4.86041e-06
4.37933e-05
0.00613122
-1.25329e-05
5.05567e-05
-0.00491024
-2.79868e-05
1.42256e-07
0.0169798
3.70509e-06
8.88183e-06
4.43231e-05
-0.00293423
-5.62537e-06
9.49978e-06
-3.29359e-06
1.82724e-06
1.27511e-05
1.48447e-07
0.000885782
-5.03421e-06
-0.00672679
1.16877e-05
-0.0251558
0.00188511
5.06298e-07
2.23711e-05
0.00093107
1.1339e-07
6.47932e-06
0.373617
0.00163701
-7.47109e-07
0.893134
0.00653448
9.91651e-07
0.790134
0.00332382
8.54188e-07
0.513039
0.00366785
4.53311e-07
0.015928
-5.64139e-08
-0.000313726
0.000288889
-0.000293238
0.000142006
0.0819512
1.83864e-07
0.0184509
-6.27419e-10
0.0200776
-1.1483e-10
-7.18708e-08
0.0170329
0.000104332
-2.13807e-08
0.00118667
0.000420766
8.15344e-09
-0.024557
6.17136e-09
-0.01371
-6.3148e-05
-0.000165397
-5.82664e-05
-7.71169e-06
-5.953e-10
0.000144037
0.832354
2.42994e-05
-6.66035e-05
-4.24763e-05
1.08518e-06
-3.34995e-05
0.00627317
0.000226492
1.65142e-07
2.16012e-05
0.0102351
-6.04136e-05
0.00888023
-0.000113042
8.02261e-05
-3.31371e-07
-0.0013159
5.49937e-05
1.06287e-05
-0.00125206
0.0849478
-2.06493e-05
0.000165785
4.64511e-05
-8.74893e-07
0.00285656
0.033377
7.42247e-06
-6.77199e-08
3.06563e-06
0.00574772
1.03771e-07
-5.46046e-06
8.98519e-06
0.00503888
9.59555e-05
-0.000595192
0.0197493
-1.48945e-05
8.90742e-06
5.00134e-07
-2.11498e-05
3.32397e-06
-0.00576207
-0.00129025
-6.3095e-06
-2.4483e-05
-3.91492e-05
2.87869e-06
-0.0232376
-2.07757e-08
-0.000685829
5.67845e-09
4.91531e-05
0.00259055
3.9561e-09
2.75197e-05
2.86698e-06
1.037e-05
-9.98008e-08
-1.93236e-05
-0.00188713
-6.96578e-08
-0.0025656
3.84784e-09
0.000103564
1.12253e-05
-0.000433494
-1.69273e-07
8.59998e-08
-3.36587e-05
2.99145e-06
-0.000427505
-3.68159e-08
0.00456443
5.06497e-09
-1.57334e-07
2.09052e-05
0.000163434
5.81896e-05
0.364354
-3.68587e-09
-0.00443703
9.38727e-09
0.00250868
0
8.46269e-09
0.00283172
1.23259e-05
-2.03979e-06
-1.9538e-06
7.15424e-06
9.11278e-07
2.02973e-09
0.0131504
1.15232e-08
0.00705007
3.87746e-06
-8.79459e-05
-2.29593e-06
-8.5796e-08
0.00252715
1.26855e-05
-0.0001059
0.000268263
-0.000157237
0.15947
3.10356e-06
-0.0016734
2.25535e-06
3.4161e-06
2.56891e-07
9.52914e-05
-3.00653e-05
4.03007e-06
-3.34043e-09
-7.59735e-08
6.0082e-07
1.4073e-06
3.94456e-06
-0.0041361
-2.31099e-05
0.000517814
3.72852e-05
2.16022e-07
5.13888e-06
1.41209e-05
-0.000525016
-3.54112e-08
-0.0268621
1.85777e-05
0.0081213
-4.93125e-08
-1.10629e-07
0.024727
4.11674e-06
-4.72256e-05
0.000100971
4.65314e-05
0.000565122
-0.000136058
5.47974e-06
-0.00194542
1.95588e-06
-0.000306638
0.0339483
6.88967e-07
-1.12989e-06
1.81826e-09
-0.0375439
-0.000379346
7.1128e-09
0.00329939
0.000107644
-1.13159e-08
-0.000676195
0.000124052
-0.000127479
-1.66992e-05
-0.000130337
0.344043
-5.57171e-08
0.00311537
-0.000464192
-6.28412e-05
0.0172688
-9.41287e-08
0.179402
-0.00216803
-1.64202e-07
0.44351
-0.00129348
8.31597e-07
0.921416
0.00331398
1.15689e-05
0.735056
0.00539003
1.85928e-05
0.143484
0.00938348
1.07593e-06
1.09271e-09
0.28159
0
-4.76597e-06
-1.69958e-06
-1.03191e-07
-6.60129e-06
-0.0284508
0.00343404
2.35928e-07
-0.0129229
1.15236e-06
-4.24554e-06
1.00747e-06
6.25471e-06
-4.50195e-06
-0.0146489
0.0103188
-1.45384e-07
0.103776
-0.000301646
0.0169991
-1.47253e-05
-3.94945e-05
-8.61196e-08
-2.76197e-06
0.000748378
0.801908
1.50093e-06
1.26164e-06
-1.56953e-05
8.73145e-06
-0.003111
1.3315e-05
2.32671e-06
-7.87487e-06
6.64036e-06
0.012954
1.50363e-07
1.04207e-05
-0.000605793
3.23509e-05
-3.32043e-06
0.0092051
5.40457e-05
-2.16905e-05
1.68112e-05
-2.95666e-05
0.00713349
-1.85077e-05
5.07934e-06
0.00545181
6.07811e-06
0.00509709
3.63167e-06
1.76498e-07
-0.0462989
-8.75843e-05
-0.0095049
-1.23294e-05
-0.00611713
-5.06254e-05
4.64308e-07
-0.0290293
4.48742e-05
-0.00685253
-9.16574e-05
-0.0100419
-1.24864e-07
-0.0471154
-7.80251e-06
-0.0110023
3.91288e-07
0.00860819
2.83983e-05
-0.00604213
9.92128e-06
-0.00107724
-6.84243e-07
0.000576803
2.67855e-05
9.8875e-05
-2.89209e-06
3.09248e-05
-6.13192e-06
-0.000234321
3.58533e-05
-8.33908e-06