# vtk DataFile Version 2.0
Unstructured Grid by M++
ASCII
DATASET UNSTRUCTURED_GRID
POINTS 4072 float
  0.875000   1.000000 0
  0.875000   0.984375 0
  0.875000   0.968750 0
  0.875000   0.953125 0
  0.875000   0.937500 0
  0.875000   0.921875 0
  0.875000   0.906250 0
  0.875000   0.890625 0
  0.875000   0.875000 0
  0.875000   0.859375 0
  0.875000   0.843750 0
  0.875000   0.828125 0
  0.875000   0.812500 0
  0.875000   0.796875 0
  0.875000   0.781250 0
  0.875000   0.765625 0
  0.859375   1.000000 0
  0.859375   0.984375 0
  0.859375   0.968750 0
  0.859375   0.953125 0
  0.859375   0.937500 0
  0.859375   0.921875 0
  0.859375   0.890625 0
  0.859375   0.875000 0
  0.859375   0.859375 0
  0.859375   0.843750 0
  0.859375   0.828125 0
  0.859375   0.812500 0
  0.859375   0.796875 0
  0.859375   0.781250 0
  0.859375   0.765625 0
  0.859375   0.671875 0
  0.859375   0.656250 0
  0.859375   0.640625 0
  0.843750   1.000000 0
  0.843750   0.984375 0
  0.843750   0.968750 0
  0.843750   0.953125 0
  0.843750   0.937500 0
  0.843750   0.921875 0
  0.843750   0.906250 0
  0.843750   0.875000 0
  0.843750   0.859375 0
  0.843750   0.843750 0
  0.843750   0.828125 0
  0.843750   0.812500 0
  0.843750   0.796875 0
  0.843750   0.781250 0
  0.843750   0.765625 0
  0.843750   0.671875 0
  0.843750   0.656250 0
  0.843750   0.640625 0
  0.828125   1.000000 0
  0.828125   0.984375 0
  0.828125   0.968750 0
  0.828125   0.953125 0
  0.828125   0.937500 0
  0.828125   0.921875 0
  0.875000   0.671875 0
  0.812500   0.921875 0
  0.890625   0.656250 0
  0.828125   0.906250 0
  0.875000   0.656250 0
  0.812500   0.906250 0
  0.890625   0.640625 0
  0.828125   0.890625 0
  0.875000   0.640625 0
  0.812500   0.890625 0
  0.890625   0.625000 0
  0.828125   0.875000 0
  0.890625   0.609375 0
  0.828125   0.859375 0
  0.890625   0.593750 0
  0.828125   0.843750 0
  0.890625   0.578125 0
  0.828125   0.828125 0
  0.890625   0.562500 0
  0.828125   0.812500 0
  0.828125   0.796875 0
  0.828125   0.781250 0
  0.828125   0.765625 0
  0.828125   0.671875 0
  0.828125   0.656250 0
  0.828125   0.640625 0
  0.875000   0.750000 0
  0.812500   1.000000 0
  0.875000   0.625000 0
  0.812500   0.875000 0
  0.875000   0.734375 0
  0.812500   0.984375 0
  0.875000   0.718750 0
  0.812500   0.968750 0
  0.875000   0.703125 0
  0.812500   0.953125 0
  0.875000   0.687500 0
  0.812500   0.937500 0
  0.875000   0.609375 0
  0.812500   0.859375 0
  0.875000   0.593750 0
  0.812500   0.843750 0
  0.875000   0.578125 0
  0.812500   0.828125 0
  0.812500   0.812500 0
  0.875000   0.546875 0
  0.812500   0.796875 0
  0.812500   0.781250 0
  0.812500   0.765625 0
  0.859375   0.750000 0
  0.796875   1.000000 0
  0.859375   0.625000 0
  0.796875   0.875000 0
  0.859375   0.734375 0
  0.796875   0.984375 0
  0.859375   0.718750 0
  0.796875   0.968750 0
  0.859375   0.703125 0
  0.796875   0.953125 0
  0.859375   0.687500 0
  0.796875   0.937500 0
  0.859375   0.609375 0
  0.796875   0.859375 0
  0.859375   0.593750 0
  0.796875   0.843750 0
  0.859375   0.578125 0
  0.796875   0.828125 0
  0.859375   0.562500 0
  0.796875   0.812500 0
  0.796875   0.796875 0
  0.859375   0.531250 0
  0.796875   0.781250 0
  0.796875   0.765625 0
  0.843750   0.750000 0
  0.781250   1.000000 0
  0.843750   0.625000 0
  0.781250   0.875000 0
  0.843750   0.734375 0
  0.781250   0.984375 0
  0.843750   0.718750 0
  0.781250   0.968750 0
  0.843750   0.703125 0
  0.781250   0.953125 0
  0.843750   0.687500 0
  0.781250   0.937500 0
  0.843750   0.609375 0
  0.781250   0.859375 0
  0.843750   0.593750 0
  0.781250   0.843750 0
  0.843750   0.578125 0
  0.781250   0.828125 0
  0.781250   0.812500 0
  0.843750   0.546875 0
  0.781250   0.796875 0
  0.781250   0.781250 0
  0.843750   0.515625 0
  0.781250   0.765625 0
  0.828125   0.750000 0
  0.765625   1.000000 0
  0.828125   0.625000 0
  0.765625   0.875000 0
  0.828125   0.734375 0
  0.765625   0.984375 0
  0.828125   0.718750 0
  0.765625   0.968750 0
  0.828125   0.703125 0
  0.765625   0.953125 0
  0.828125   0.687500 0
  0.765625   0.937500 0
  0.828125   0.609375 0
  0.765625   0.859375 0
  0.828125   0.593750 0
  0.765625   0.843750 0
  0.828125   0.578125 0
  0.765625   0.828125 0
  0.828125   0.562500 0
  0.765625   0.812500 0
  0.765625   0.796875 0
  0.828125   0.531250 0
  0.765625   0.781250 0
  0.765625   0.765625 0
  0.812500   0.750000 0
  0.750000   1.000000 0
  0.953125   1.000000 0
  0.812500   0.734375 0
  0.750000   0.984375 0
  0.812500   0.718750 0
  0.750000   0.968750 0
  0.812500   0.703125 0
  0.750000   0.953125 0
  0.812500   0.687500 0
  0.750000   0.937500 0
  0.812500   0.671875 0
  0.750000   0.921875 0
  0.812500   0.656250 0
  0.750000   0.906250 0
  0.812500   0.640625 0
  0.750000   0.890625 0
  0.812500   0.625000 0
  0.750000   0.875000 0
  0.812500   0.609375 0
  0.750000   0.859375 0
  0.812500   0.593750 0
  0.750000   0.843750 0
  0.812500   0.578125 0
  0.750000   0.828125 0
  0.750000   0.812500 0
  0.812500   0.546875 0
  0.750000   0.796875 0
  0.750000   0.781250 0
  0.812500   0.515625 0
  0.750000   0.765625 0
  0.796875   0.750000 0
  0.734375   1.000000 0
  0.796875   0.734375 0
  0.734375   0.984375 0
  0.796875   0.718750 0
  0.734375   0.968750 0
  0.796875   0.703125 0
  0.734375   0.953125 0
  0.796875   0.687500 0
  0.734375   0.937500 0
  0.796875   0.671875 0
  0.734375   0.921875 0
  0.796875   0.656250 0
  0.734375   0.906250 0
  0.796875   0.640625 0
  0.734375   0.890625 0
  0.796875   0.625000 0
  0.734375   0.875000 0
  0.796875   0.609375 0
  0.734375   0.859375 0
  0.796875   0.593750 0
  0.734375   0.843750 0
  0.796875   0.578125 0
  0.734375   0.828125 0
  0.734375   0.812500 0
  0.734375   0.796875 0
  0.796875   0.531250 0
  0.734375   0.781250 0
  0.734375   0.765625 0
  0.781250   0.750000 0
  0.718750   1.000000 0
  0.921875   1.000000 0
  0.781250   0.734375 0
  0.718750   0.984375 0
  0.781250   0.718750 0
  0.718750   0.968750 0
  0.781250   0.703125 0
  0.718750   0.953125 0
  0.859375   0.906250 0
  0.781250   0.687500 0
  0.718750   0.937500 0
  0.781250   0.671875 0
  0.718750   0.921875 0
  0.781250   0.656250 0
  0.718750   0.906250 0
  0.781250   0.640625 0
  0.718750   0.890625 0
  0.781250   0.625000 0
  0.718750   0.875000 0
  0.781250   0.609375 0
  0.718750   0.859375 0
  0.781250   0.593750 0
  0.718750   0.843750 0
  0.781250   0.578125 0
  0.718750   0.828125 0
  0.781250   0.562500 0
  0.718750   0.812500 0
  0.781250   0.546875 0
  0.718750   0.796875 0
  0.781250   0.531250 0
  0.718750   0.781250 0
  0.781250   0.515625 0
  0.718750   0.765625 0
  0.765625   0.750000 0
  0.703125   1.000000 0
  0.765625   0.734375 0
  0.703125   0.984375 0
  0.765625   0.718750 0
  0.703125   0.968750 0
  0.765625   0.703125 0
  0.703125   0.953125 0
  0.765625   0.687500 0
  0.703125   0.937500 0
  0.843750   0.890625 0
  0.703125   0.921875 0
  0.765625   0.656250 0
  0.703125   0.906250 0
  0.765625   0.640625 0
  0.703125   0.890625 0
  0.765625   0.625000 0
  0.703125   0.875000 0
  0.765625   0.609375 0
  0.703125   0.859375 0
  0.765625   0.593750 0
  0.703125   0.843750 0
  0.765625   0.578125 0
  0.703125   0.828125 0
  0.765625   0.562500 0
  0.703125   0.812500 0
  0.765625   0.546875 0
  0.703125   0.796875 0
  0.765625   0.531250 0
  0.703125   0.781250 0
  0.765625   0.515625 0
  0.703125   0.765625 0
  0.750000   0.750000 0
  0.687500   1.000000 0
  0.890625   1.000000 0
  0.750000   0.734375 0
  0.687500   0.984375 0
  0.750000   0.718750 0
  0.687500   0.968750 0
  0.578125   0.796875 0
  0.578125   0.781250 0
  0.578125   0.765625 0
  0.546875   0.953125 0
  0.546875   0.968750 0
  0.546875   0.718750 0
  0.546875   0.687500 0
  0.250000   0.609375 0
  0.937500   0.031250 0
  0.046875   0.703125 0
  0.734375   0.062500 0
  0.734375   0.078125 0
  0.734375   0.046875 0
  0.046875   0.593750 0
  0.046875   0.562500 0
  0.046875   0.531250 0
  0.718750   0.156250 0
  0.046875   0.609375 0
  0.734375   0.031250 0
  0.062500   0.609375 0
  0.234375   0.703125 0
  0.718750   0.125000 0
  0.046875   0.578125 0
  0.734375   0.000000 0
  0.062500   0.578125 0
  0.000000   0.828125 0
  0.234375   0.671875 0
  0.234375   0.625000 0
  0.718750   0.093750 0
  0.687500   0.156250 0
  0.062500   0.546875 0
  0.000000   0.796875 0
  0.718750   0.046875 0
  0.031250   0.687500 0
  0.687500   0.171875 0
  0.500000   1.000000 0
  0.078125   0.218750 0
  0.234375   0.593750 0
  0.718750   0.062500 0
  0.687500   0.125000 0
  0.000000   0.765625 0
  0.421875   0.500000 0
  0.031250   0.593750 0
  0.718750   0.015625 0
  0.687500   0.234375 0
  0.015625   0.812500 0
  0.703125   0.171875 0
  0.703125   0.187500 0
  0.703125   0.140625 0
  0.015625   0.781250 0
  0.437500   0.515625 0
  0.500000   0.796875 0
  0.078125   0.015625 0
  0.687500   0.203125 0
  0.250000   0.578125 0
  0.703125   0.109375 0
  0.000000   0.515625 0
  0.500000   0.765625 0
  0.062500   0.593750 0
  0.750000   0.015625 0
  0.015625   0.843750 0
  0.687500   0.000000 0
  0.500000   0.828125 0
  0.078125   0.046875 0
  0.015625   0.531250 0
  0.250000   0.546875 0
  0.703125   0.078125 0
  0.703125   0.031250 0
  0.015625   0.671875 0
  0.250000   0.515625 0
  0.000000   0.656250 0
  0.500000   0.906250 0
  0.078125   0.125000 0
  0.687500   0.015625 0
  0.031250   0.546875 0
  0.687500   0.031250 0
  0.500000   0.859375 0
  0.703125   0.000000 0
  0.703125   0.046875 0
  0.703125   0.015625 0
  0.500000   0.937500 0
  0.234375   0.531250 0
  0.031250   0.578125 0
  0.687500   0.062500 0
  0.500000   0.890625 0
  0.031250   0.796875 0
  0.453125   0.531250 0
  0.500000   0.968750 0
  0.078125   0.187500 0
  0.234375   0.562500 0
  0.031250   0.609375 0
  0.718750   0.031250 0
  0.687500   0.093750 0
  0.750000   0.046875 0
  0.000000   0.937500 0
  0.421875   0.671875 0
  0.718750   0.187500 0
  0.031250   0.828125 0
  0.765625   0.062500 0
  0.015625   0.953125 0
[...]
CELL_DATA 7648
SCALARS scalar_value float 1
LOOKUP_TABLE default
0
0
0
0
0
0
0
-2.62887e-10
-1.90866e-09
2.03382e-07
5.7089e-08
0
0
0
0
6.01035e-09
0
0
0
0
-2.87833e-10
0
0
0
0
0
0
0
0
0
0
0
0
0
0
0
0
0
1.04992e-05
-9.60431e-06
0
7.80133e-08
0
0
0
0
0
0
0
0
0
0
0
0
-2.47587e-06
0
0
0
0
0
0
0
0
0
0
0
0
0
0
0
0
0
0
0
0
0
0
0
0
-1.23046e-06
0
0
0
0
0
0
0
0
0
0
0
0
0
0
0
0
0
0
0
0
0
0
0
0
0
0
-4.67223e-10
0
0
0
0
0
0
0
0
0
0
0
0
0
0
0
0
0
0
0
0
0
0
0
0
0
0
1.10247e-07
0
0
0
0
5.74332e-10
0
0
0
0
0
-6.23891e-05
0
0
0
0
0
0
0
4.61044e-06
0
-4.66887e-06
0
0
-8.99738e-10
0
3.87644e-10
0
0
0
0
0
0
0
0
0
0
0
0
0
0
-1.95095e-10
2.14208e-09
1.06671e-10
0
0
0
-1.78373e-10
0
0
0
0
0
0
0
0
0
3.37769e-07
0
0
0
0
0
0
6.29813e-07
0
0
0
0
-3.16815e-09
-1.44462e-09
0
0
9.64645e-09
-2.9532e-10
0
0
0
0
5.18738e-07
3.67982e-08
4.21367e-09
0
-4.66646e-10
4.07256e-10
-1.30707e-10
0
5.23369e-07
0
0
5.85922e-06
0
0
0
0
0
0
0
0
0
4.82581e-07
3.69457e-08
-2.36612e-07
1.07684e-07
8.48507e-08
0
0
0
0
5.9597e-08
0
1.57498e-08
0
0
0
0
0
0
0
0
0
6.61943e-09
0
0
0
0
0
0
0
0
0
0
0
0
0
0
0
0
0
0
0
0
0
0
0
1.5062e-09
-1.7415e-08
4.27609e-10
-1.37472e-10
0
0
0
0
0
0
0
0
0
0
0
2.62461e-08
4.13051e-09
-4.39855e-09
0
0
0
0
-9.04405e-08
4.17536e-07
1.35107e-07
0
0
0
0
0
0
0
0
0
0
0
1.60365e-06
6.25808e-07
1.30962e-07
0
0
0
0
0
0
0
0
0
-9.86625e-09
0
-3.59997e-09
-1.97543e-10
8.81405e-09
1.42023e-07
0
3.47803e-07
1.6319e-06
0
0
0
0
0
6.84996e-06
-6.4287e-09
2.80158e-07
-4.02041e-07
0
-3.14445e-10
0
0
0
0
0
0
0
0
0
0
0
0
-7.72628e-06
-1.32692e-06
0
0
0
0
0
-8.38418e-06
0
0
0
3.18645e-09
0
0
0
0
0
0
-1.51664e-08
0
0
-1.22474e-08
-2.05939e-09
0
1.02794e-08
1.4401e-08
6.45454e-10
4.47078e-08
0
-2.46138e-07
0
0
0
0
1.48181e-08
-1.06189e-08
1.41478e-09
0
0
2.63514e-10
5.42424e-08
2.63764e-08
-6.18544e-08
0
0
0
0
0
-4.66375e-08
-4.12374e-05
1.92958e-09
0
0
8.87757e-10
0
1.64554e-10
4.83694e-10
0
0
0
2.58455e-10
-5.57376e-08
-1.8469e-08
0
0
0
0
-9.05168e-07
-4.34168e-06
0
0
0
0
0
0
0
0
0
0
0
0
0
0
0
-4.37643e-07
0
0
0
0
0
0
0
0
0
0
0
0
0
0
0
0
0
0
0
0
0
-1.45634e-05
0
0
0
0
0
0
0
0
0
0
0
0
0
0
0
0
0
2.50417e-10
-1.331e-10
0
0
0
0
0
0
0
0
0
0
0
0
0
0
0
0
3.39321e-06
0
0
0
0
0
0
0
0
0
0
0
0
0
0
0
0
-8.79913e-08
2.59158e-09
0
0
0
0
0
0
0
0
0
0
0
0
0
0
0
0
0
0
0
0
0
0
0
1.17801e-05
0
0
0
0
0
0
7.01881e-07
-1.47884e-08
0
3.01762e-07
3.81622e-08
0
-3.80214e-06
0
-0.000133863
0
-3.73943e-06
0
0
3.0473e-06
0
0
-4.70929e-06
0
1.07894e-05
0
0
0
-1.39348e-06
0
6.16753e-08
2.29442e-06
-1.07664e-08
-1.64638e-08
0
-2.14647e-06
0
0
0
0
-4.90242e-10
0
0
0
0
0
0
0
0
0
0
0
0
0
0
0
0
0
0
0
0
0
5.29572e-06
0
0
3.3368e-09
0
0
0
0
0
0
0.000127356
5.92849e-08
6.22441e-08
0
0
0
-1.79657e-09
0
1.32572e-07
0
-1.38735e-06
0
6.53673e-06
-8.46629e-07
5.03895e-07
-4.15965e-06
0
0
-1.63514e-07
0
0
0
0
0
2.06855e-06
0
0
0
0
0
0
-1.09294e-10
0
0
0
0
0
0
0
1.75401e-10
0
0
0
0
0
0
0
0
0
-9.25193e-08
0
0
0
0
0
-2.76581e-07
0
0
0
0
0
5.26009e-07
-8.57636e-07
0
0
0
5.40358e-09
0
0
0
0
0
0
0
0
0
0
0
-2.87503e-07
0
0
0
0
0
0
-1.1111e-09
0
2.09082e-09
0
0
0
0
0
0
0
1.1278e-09
0
-4.55635e-08
0
-7.30051e-09
1.38694e-07
7.85555e-09
0
0
0
0
0
0
0
0
0
0
0
0
0
0
0
0
0
0
0
0
0
0
0
-4.07468e-10
0
0
0
0
0
0
-2.80779e-10
0
-2.43336e-08
0
0
-3.58429e-09
0
0
-1.98332e-10
0
0
0
0
0
0
0
0
0
0
0
0
0
0
0
0
0
0
0
5.90096e-07
0
0
0
0
0
0
0
0
0
0
0
0
0
0
0
0
2.20905e-10
0
0
-3.59395e-06
0
0
0
0
0
0
-2.87593e-08
3.22886e-09
0
1.25318e-06
0
1.46298e-10
1.45896e-09
0
7.68527e-10
-7.48911e-10
2.39766e-08
0
0
0
0
0
0
0
0
0
0
0
0
0
0
0
0
0
2.85956e-09
-1.83321e-10
9.66697e-10
0
0
0
-2.40583e-08
0
0
0
0
0
0
0
0
0
0
0
0
0
0
0
0
0
7.9999e-06
0
0
0
-4.77414e-07
1.52685e-05
2.31358e-07
5.13532e-06
0
0
-6.17073e-09
0
0
0
0
0
0
0
0
0
0
0
0
0
0
0
0
0
-1.33251e-09
0
0
0
0
0
0
0
0
0
0
0
0
0
0
0
0
0
0
0
2.10595e-09
0
0
0
0
0
0
0
0
0
0
0
0
0
0
0
0
0
0
0
0
0
0
0
0
0
0
0
0
0
0
0
0
0
0
0
0
0
0
0
0
0
0
0
0
9.48625e-10
0
0
0
0
-5.36107e-10
1.92473e-05
-1.46266e-09
0
0
0
1.02666e-10
0
0
0
0
0
0
0
1.98669e-06
0
6.77255e-06
0
0
0
1.4259e-06
0
3.40151e-06
0
0
0
0
0
0
0
0
0
0
0
0
0
0
0
0
0
0
1.31948e-06
0
0
0
0
0
0
0
0
0
0
0
0
0
0
0
0
0
0
0
0
0
0
4.22122e-07
0
0
0
0
0
0
0
0
0
0
0
-1.37294e-06
0
0
0
0
0
0
0
-1.95839e-08
0
0
0
-1.01298e-08
-1.05941e-05
0
0
0
2.27839e-08
-5.85126e-10
0
0
0
0
0
0
0
0
-3.85448e-07
0
0
0
0
0
0
0
0
0
0
0
0
0
0
-0.000136051
0
-2.30851e-05
0
0
0
0
0
0
1.07033e-07
0
0
0
0
0
0
0
0
0
0
0
0
0
0
0
0
-2.8909e-10
1.14857e-10
0
0
0
-2.46227e-09
0
0
0
0
0
0
0
0
0
0
0
0
0
0
0
4.13608e-09
0
0
0
0
0
0
0
0
0
0
0
0
0
0
0
0
0
0
0
0
0
0
0
0
0
0
0
1.18601e-08
-2.59873e-09
-1.05451e-08
9.08434e-09
0
0
0
0
0
0
-4.07391e-07
0
1.13581e-06
0
0
0
0
0
0
0
-1.90149e-07
0
0
0
0
0
0
0
0
0
0
0
0
0
0
0
0
0
0
0
0
0
0
0
0
-2.30774e-10
0
0
0
0
0
0
0
0
4.0968e-06
0
-2.74911e-05
-4.04863e-06
0
-1.66179e-07
0
0
0
0
0
0
0
0
0
0
0
0
0
0
0
0
0
0
0
0
0
0
0
0
0
0
0
0
0
0
0
4.58651e-09
4.2319e-08
1.31291e-08
-8.31312e-08
0
-3.22118e-09
0
0
0
0
0
0
0
0
0
0
0
-5.3731e-05
0
0
0
0
0
0
0
0
0
0
0
0
0
0
0
2.39165e-06
0
-1.17071e-06
0
0
0
0
0
0.000144594
0
0
0
0
0
0
0
0
0
0
0
0
0
0
0
0
0
0
0
0
0
0
0
0
0
1.18593e-10
0
0
0
0
0
0
0
0
0
0
0
0
0
0
0
0
0
0
0
0
0
0
0
0
0
0
0
0
0
0
-1.96467e-07
0
0
-2.09325e-08
1.03061e-06
0
0
0
0
0
0
0
7.35788e-07
4.43072e-07
0
0
3.44443e-06
4.60985e-05
0
0
0
0
0
0
0
0
0
0
0
4.17526e-07
0
0
0
0
0
0
-1.21905e-10
-2.66393e-07
0
0
0
0
0
0
0
0
0
0
0
0
0
0
0
0
0
0
0
0
0
0
0
0
0
0
0
0
0
0
0
0
0
0
0
0
0
0
0
0
0
7.80084e-08
1.63032e-10
1.25375e-10
4.88621e-09
0
0
9.93679e-05
0
0
0
0
0
0
-3.40725e-06
0
0
0
-2.75262e-07
-1.11471e-06
0
-1.12675e-09
0
-1.20818e-07
0
0
0
0
0
0
0
0
0
0
0
0
0
0
0
0
0
-1.62686e-10
0
0
0
0
0
0
0
0
0
0
0
0
0
0
1.18094e-07
0
0
0
0
0
0
0
0
0
0
0
0
0
0
-3.37375e-10
0
-2.83742e-08
-6.29988e-10
0
0
0
0
0
0
0
-1.57222e-09
0
0
0
0
0
0
0
0
0
0
0
0
0
0
-0.000266672
0
0
0
0
0
0
0
0
0
0
0
0
0
0
0
0
0
0
0
0
-1.31851e-10
5.0538e-10
0
0
0
0
0
0
-1.17693e-10
0
-2.30265e-10
0
0
0
0
0
0
0
0
0
0
0
0
0
0
0
0
0
0
0
0
0
0
0
0
0
0
0
0
0
0
0
0
0
0
0
0
0
0
0
0
0
0
0
0
7.91674e-05
-1.24957e-07
3.19339e-05
0
0
0
0
1.53751e-10
4.79791e-06
9.931e-08
8.54677e-07
0
0
0
0
0
0
0
0
0
0
0
0
0
0
0
0
0
0
0
0
0
0
0
0
5.89167e-07
-2.70551e-09
0
0
0
0
0
0
0
0
0
0
0
0
0
0
0
0
0
0
0
0
0
0
0
0
0
0
0
0
0
0
0
0
0
0
0
0
0
0
0
-1.3584e-09
-1.70852e-10
0
0
0
0
0
0
0
0
0
0
0
0
0
0
0
0
0
0
0
0
0
0
0
0
0
0
0
0
0
0
0
0
0
0
1.97024e-09
1.81007e-09
0
0
0
0
0
0
0
0
-8.0116e-10
0
0
0
0
0
0
0
0
0
0
0
0
0
0
0
0
0
0
0
0
0
0
0
0
0
0
0
0
9.83787e-08
2.89191e-06
8.08633e-06
2.95455e-06
0
0
3.38118e-10
0
0
0
0
0
0
1.78634e-07
4.04573e-07
0
0
0
0
0
0
0
0
-4.68507e-07
-7.27064e-07
0
0
0
0
0
0
0
2.86597e-05
-0.000124788
0
0
0
0
0
0
0
0
0
0
3.1509e-10
0
0
0
0
0
0
0
0
0
0
0
0
0
0
0
0
0
0
0
0
0
0
0
0
0
0
0
0
0
0
0
0
0
0
0
0
0
0
0
-5.15183e-05
0
0
0
0
0
0
0
0
0
0
0
0
0
0
0
0
0
0
0
0
0
0
0
0
0
0
0
0
0
0
0
0
0
0
0
0
1.12677e-10
3.77075e-10
-8.09094e-08
0
0
0
0
0
0
0
0
0
0
0
0
0
0
0
0
0
0
0
0
0
0
0
-3.32427e-09
-6.08266e-09
9.88472e-10
0
0
0
0
0
0
0
0
0
0
0
0
0
0
0
0
0
0
0
0
0
0
0
0
0
2.44677e-09
0.0154331
0.0266786
0.0417107
0.0475824
0.0392217
0.0165691
-0.0134233
-0.0305752
-0.0230854
-0.00107358
0.00835028
-0.00397271
-0.0116429
-0.00791844
-0.0150339
-0.0294477
-0.0334139
-0.0238448
-0.0120519
0.00386802
0.0889778
0.333258
0.670791
0.902891
0.959094
0.841399
0.543297
0.223152
0.0536192
0.00708673
0.000362876
-5.77345e-05
0.00676715
0.0277727
0.0779824
0.0213803
-0.0364992
-0.0155634
-0.00153225
0.00336202
-0.0135923
-0.0238137
-0.0094041
0.00289
0.000142498
0.0364163
0.058124
0.0745515
0.0650985
0.031812
0.00682356
-0.00471393
-0.0140393
-0.00906986
0.00453624
0.00315187
-0.00336955
-0.00241558
-0.004085
-0.0155382
-0.0277366
-0.0268366
-0.0149617
-0.00375722
0.0114735
0.0998753
0.358777
0.701721
0.916601
0.956205
0.819358
0.497971
0.1823
0.037376
0.00489251
0.000614815
4.5065e-05
0.0336897
0.0378745
0.0150848
0.00441505
-0.00375006
0.00118469
0.00223456
-0.00470506
-0.0224426
-0.0345645
0.0567163
0.00558689
-0.00513072
-0.0141124
-0.00341494
0.00984793
0.0112313
0.00804494
0.00324267
0.00406125
0.00573959
0.000567652
0.000317112
0.000873675
-0.00559703
-0.0178528
-0.0262142
-0.0127023
0.00605507
0.0110394
0.0205166
0.124131
0.40528
0.739671
0.928237
0.947131
0.786784
0.445343
0.14141
0.0213165
0.00130301
0.00015516
4.88921e-05
0.00010442
-0.0109168
-0.00822916
-0.0143863
-0.000325341
0.0045341
0.0121966
-0.00520047
-1.62578e-05
0.000956275
2.45125e-06
0.00268924
-0.0205252
4.18944e-06
0.00161472
-3.41554e-07
-0.000638632
-0.0183499
-1.70347e-06
-0.00250277
-1.13546e-06
-0.00145751
0.000524266
0.0555636
-3.42646e-07
-0.00111909
1.81612e-05
-0.00128752
-0.00114846
-0.00445945
-0.00151139
-0.00159854
0.00112019
0.000164783
0.0019975
0.000432597
-0.00019876
-0.00043218
-0.00125762
-0.000685576
0.00188003
0.00728641
-2.95013e-06
3.31716e-05
-0.0115484
-5.8272e-06
0.00149357
-8.83516e-07
0.00035256
-0.0345997
1.5156e-06
-0.0001518
1.2757e-06
0.000137002
-0.0239423
5.07024e-07
0.000663933
3.28085e-08
0.000236678
0.000690215
2.90299e-05
0.000748899
0.000369022
6.99229e-06
0.0092512
0.000302756
0.00972167
0.000225287
0.00965801
0.000251054
0.00811362
0.00530357
0.000182343
0.00158941
-0.000853434
0.00014588
-0.00198844
-3.62782e-05
-0.000922817
0.000554144
-0.00252548
-1.14629e-05
-1.92099e-05
0.0553542
-1.94902e-06
-8.66174e-07
0.739876
0.000345002
-0.000413533
-0.00993498
3.56338e-06
-0.000384189
0.000427999
0.00199799
3.39601e-06
0.000172504
8.00779e-05
0.0031423
-1.69501e-07
0.015751
-0.000114477
-0.000125443
0.000320902
9.67735e-05
0.000110499
-2.11057e-06
-0.000776528
-0.000619127
4.14587e-08
-0.000343165
2.14545e-05
5.42022e-07
-0.000192731
-0.000483521
5.96609e-08
3.70659e-05
0
1.80616e-06
-0.000244458
-0.000163363
0.000299498
3.10036e-05
-5.39106e-05
0.00014418
0.00123012
0.000207241
0.00325824
0.00014968
0.0041119
-0.000110872
0.00496508
-0.00028976
0.00278606
-0.000263846
0.000213156
-0.000239772
0.000648756
-0.000286186
2.55252e-05
-0.000825576
3.08794e-05
-0.00205737
-2.47813e-05
-8.64948e-06
-1.72198e-07
0.399487
5.38416e-07
0.00034343
-0.000208536
-0.000364849
2.48869e-05
-0.00010493
-6.58436e-05
-6.33349e-05
0.0020941
-6.13111e-06
0.000136466
0.000592159
0.000166102
0.000152092
0.000289381
0.00063292
0.00063357
0.000191837
0.000117078
1.69096e-06
9.19514e-08
0.000294352
3.47177e-05
-7.76459e-05
5.53278e-07
8.20207e-05
-0.000894413
6.5087e-05
-0.00142536
0.0543332
4.94253e-05
-0.0148218
-0.00153155
0.0684192
-7.4647e-07
-0.00452682
-0.00061792
-0.000191644
0.00469074
-0.000128949
0.256943
0.00614457
-8.06085e-05
-0.000114167
0.00495756
-4.98262e-05
0.832284
0.00439663
-1.81548e-06
-0.000652659
0.000885662
1.96758e-05
0.891053
-0.000432939
-0.00413856
2.51542e-06
-5.42655e-05
4.35063e-06
-5.55137e-05
-0.00324221
-1.27586e-06
0.00338168
1.01203e-07
0.110988
-3.62198e-07
0.00337921
0.491817
-6.06679e-08
0.835086
0.00187212
0.557028
-1.58019e-08
-0.00025662
0.00269196
-1.04106e-09
-0.000272703
0.956563
2.74768e-09
-0.000106979
0.00323093
3.10703e-09
-0.000252979
0.645596
6.44171e-10
-0.000217214
0.000657154
-3.50681e-10
-7.15715e-05
0.0814773
0
8.52097e-05
0.00100501
-0.000440377
2.50957e-10
-4.37464e-05
4.09416e-05
2.19094e-05
0.000188411
1.8627e-05
0.000398106
-3.56392e-06
0.000287878
-3.398e-05
-1.13172e-05
-0.000152797
1.26735e-07
4.14395e-05
-7.67064e-05
-5.13896e-06
3.59629e-07
-0.000404882
-0.00727655
0.000167275
1.94615e-05
0.000205333
-0.00679339
-0.000304268
-0.0166254
0.000209685
-3.10399e-06
-0.000836522
-0.0237513
9.09239e-05
-0.000222311
-0.0202838
0.000103046
-0.00438677
0.000213849
-4.2256e-05
0.000237113
-0.035814
-0.00018147
0.00223498
0.000146274
-0.0013379
-9.89791e-05
-0.000968717
2.74006e-05
-1.27287e-06
-0.00251956
-6.22924e-06
0.474417
-0.000863507
-1.60927e-05
-0.000161957
-0.000634123
-1.18147e-05
0.958462
-0.00304822
4.80409e-06
0.940889
0.000310042
-0.00166716
8.06587e-06
0.754187
0.000141826
0.00258572
-3.48711e-07
0.000134449
1.527e-06
-2.41588e-07
0.0940847
-4.83591e-07
0.305746
-3.68027e-08
-6.63911e-05
0.315048
-0.000199656
0.25895
-3.64779e-08
-7.36666e-06
0.00032674
0.875888
2.00849e-09
-3.312e-05
0.000305637
3.87673e-09
-9.24177e-05
0.885133
2.25866e-09
-0.000222896
-0.000219432
4.53451e-10
-0.000169029
0.269097
0
-9.66655e-05
-0.000106165
1.82403e-10
-3.13394e-05
0.00922594
1.56161e-10
0.000237436
-3.02252e-05
3.46204e-05
0
0.000229312
2.57552e-06
0.000270621
3.6298e-06
0.000105264
1.05494e-05
3.41268e-06
-0.00044712
-2.98548e-06
-2.38305e-05
-0.00011232
-0.000171223
7.16424e-06
3.94632e-06
1.70139e-06
2.47677e-06
4.45083e-07
-1.79162e-08
0.000567378
-0.00513077
8.717e-05
-0.000560406
-0.00037557
0.00364408
-0.000261536
0.00609544
-4.52849e-05
-0.000465705
0.000150575
0.00014588
-0.00865241
2.99544e-05
0.00748784
3.57462e-05
-2.59479e-06
0.915261
0.000536115
-0.0036977
-1.46175e-06
0.911807
6.59925e-05
-0.00148415
2.42519e-06
0.732192
-1.5207e-05
-0.000559897
2.05818e-06
0.432171
-3.77872e-05
-0.00109074
7.40591e-05
5.70862e-05
0.863513
0.00047331
3.72827e-05
4.2024e-05
-0.000175145
1.17209e-09
1.15098e-05
4.49503e-05
-4.45339e-05
2.35354e-10
-6.70918e-05
-7.3892e-05
-7.40834e-05
0.00747537
1.04157e-06
-1.55744e-05
0.000269255
0.000235913
0.0100018
-4.03694e-06
-7.02774e-06
0.000239764
-0.000425012
0.000643089
-0.00033451
0.00739302
-3.97295e-08
0.00937685
0.000136843
0.00597351
6.01125e-05
-0.000252729
-8.81752e-06
2.79185e-05
-0.00185432
0.00241909
-1.97941e-05
-4.52926e-05
0.00764803
0.00045346
-0.0022412
3.2691e-10
0.000100921
3.54624e-05
-0.000306977
0.000175028
3.55744e-05
0.00018916
-4.23899e-07
-1.13496e-06
-0.00024874
-7.87485e-05
0.000327458
-6.28059e-07
0.000129893
-0.0129837
-8.07529e-05
-0.0196921
-1.19755e-07
-0.000133069
-0.00404025
3.12136e-05
0.00108367
-6.90146e-05
3.72307e-05
0.0125158
-3.80471e-05
2.61141e-05
0.0109047
-1.37454e-05
-8.24484e-08
9.3976e-06
1.25356e-05
-0.00321202
2.17954e-06
4.5702e-06
-0.00042557
-1.99435e-07
5.51353e-09
0.65827
-2.52877e-08
1.12157e-06
7.41443e-07
-0.000472251
7.98965e-07
-2.41015e-08
-3.63093e-08
-1.30249e-08
3.92876e-06
2.03202e-08
-0.00333576
-7.15698e-05
0.129178
4.13209e-06
0.235682
0.00592025
-1.4976e-07
-1.59833e-06
0.00257665
1.7971e-07
-9.8604e-07
0.896084
0.00159957
1.8677e-07
0.303125
-0.0016348
6.91989e-08
0.0116286
-0.00296779
8.59141e-09
0.000953422
0.00389715
-3.42307e-09
-0.00219554
6.40309e-10
5.49616e-05
0.00028127
-0.000252944
0.000101169
0.924754
-3.50008e-09
-0.0171507
-7.51767e-10
-0.0224973
-2.6517e-10
9.7386e-10
-0.0133966
0.000248463
0
-0.0198261
0.000215283
-1.05899e-10
-0.0247101
0
0.189823
-0.000111698
6.88212e-05
6.29764e-05
6.15968e-05
1.21431e-10
0.000131238
0.285336
-6.19172e-08
4.82619e-05
-4.92866e-06
-1.09405e-07
-5.88613e-05
0.00783404
0.000295013
-7.93212e-08
-5.44099e-05
0.00978387
-2.69362e-05
0.0125489
-1.43395e-05
-1.62438e-05
-4.93267e-09
0.000839045
1.15133e-05
2.88175e-06
0.00271244
-0.0183045
1.34651e-05
0.0016097
3.64251e-07
-4.56064e-06
-0.00505332
-0.0296054
9.76059e-07
3.09932e-09
1.11563e-08
0.0985919
4.98842e-09
-6.66786e-07
4.98576e-07
-0.00432267
-7.84724e-05
0.000345233
0.00347952
-2.26382e-06
3.65739e-06
2.91497e-09
3.37623e-06
2.0639e-07
0.0194431
-0.000929426
-1.14869e-06
1.21764e-06
1.26739e-05
5.43454e-08
-0.00755748
-1.75363e-09
-0.0172012
0
1.07927e-06
0.00377406
1.61102e-08
-2.62153e-06
3.37983e-07
2.80158e-06
2.01702e-07
1.4255e-06
0.00565543
-1.96599e-09
-0.000532721
-2.12299e-10
-2.11684e-05
-3.26967e-07
0.00179051
-5.98149e-09
3.09904e-09
3.01319e-06
2.68117e-07
-0.0115867
-2.02463e-10
-0.0143004
0
-2.07374e-09
1.06258e-05
7.02105e-05
-3.73414e-05
0.172982
-8.37928e-10
-0.0239551
-2.06388e-10
-0.0226972
0
-4.51704e-10
-0.0258839
0.00250575
8.47699e-08
3.58369e-06
4.59208e-06
5.84687e-09
0
0.0144716
0
0.62353
6.73835e-08
-4.54277e-05
0.00168141
-1.54153e-09
-0.00966212
3.08343e-05
9.26543e-06
5.82902e-05
-2.20217e-05
0.548687
4.30801e-07
0.0010316
-9.19079e-08
-1.20903e-07
-2.86999e-08
5.4204e-05
-4.07352e-05
4.14637e-08
-3.00593e-10
1.12986e-09
-2.83633e-09
-5.64395e-09
1.78116e-07
-0.00883546
3.87712e-06
-0.000169834
-1.79034e-07
1.3012e-07
-1.79586e-08
8.46662e-06
-0.00215259
-1.65196e-10
0.206435
-8.53641e-07
-0.000112087
-1.50273e-08
3.0865e-09
0.0423614
-2.86465e-07
-4.58869e-05
2.14987e-05
1.75567e-05
-6.18367e-05
1.41763e-05
2.04312e-07
-0.0686679
-9.79082e-07
6.20477e-06
0.950864
4.68427e-09
6.7532e-07
0
0.178606
-0.00010005
-1.07617e-10
0.0217729
7.8374e-05
-2.02111e-10
-0.0177154
-1.88758e-05
9.40392e-05
6.70369e-05
7.90972e-05
0.823082
-8.26381e-10
-0.00562474
-0.000171706
2.10785e-05
0.835662
-2.81434e-09
-2.0171e-05
0.00146604
-4.39281e-09
0.000694164
0.00245845
-7.44901e-08
0.0665529
0.000437052
-7.01947e-07
0.613459
-0.000803546
2.76241e-07
0.965894
0.00107146
1.30932e-06
-2.31919e-10
0.510695
1.27657e-08
-1.45029e-07
1.24631e-06
1.46853e-09
-2.3873e-06
-0.00507242
0.0059668
1.10491e-08
0.0543609
9.0543e-09
1.1522e-06
9.91335e-09
-5.56583e-07
2.69684e-06
0.601567
0.00632525
1.73445e-09
0.500125
-0.00249231
0.00517971
-2.92028e-06
-7.04197e-07
7.28546e-09
5.01531e-06
7.05955e-05
0.567302
1.44987e-08
4.56503e-08
-1.26605e-06
6.15915e-07
0.0163881
-4.77073e-06
1.04175e-07
7.64038e-07
4.95036e-07
0.00949738
-6.11676e-06
1.28388e-06
-0.00264948
5.81276e-06
3.29912e-06
-0.0127514
1.56523e-05
5.67747e-06
-6.29896e-06
4.70322e-06
0.00309717
-6.27628e-06
1.37598e-07
-0.00292314
4.24198e-07
-0.00360141
9.45944e-07
-4.73533e-09
0.153187
-4.12921e-06
-0.00227091
2.11514e-06
0.00321409
3.86823e-06
4.48839e-08
-0.0531271
2.48626e-05
-0.00790128
3.3109e-06
0.000968346
2.74784e-08
-0.012977
-7.9605e-06
-0.00319411
2.01594e-08
0.0250329
1.91948e-05
-0.037307
-3.85625e-07
-0.0127973
-3.2019e-08
-0.00102603
8.1199e-06
-0.0102372
-6.91201e-08
3.59603e-06
4.27376e-08
-0.00401986
2.33925e-06
2.85919e-08
2.68357e-06
-1.23126e-05
-0.00288731
8.90587e-06
-5.3219e-07
-0.000352042
1.70343e-05
-7.4092e-07
-6.1209e-06
-1.80784e-05
-0.0026575
-7.05115e-05
-3.3692e-06
-0.000119253
1.32815e-05
-2.33579e-05
-0.0045065
-3.95772e-05
2.86444e-05
0.00953598
-7.97034e-05
0.000111138
0.0127942
-4.17403e-06
1.83742e-10
7.25646e-05
0.000344455
0.000133722
0.644418
1.9464e-10
1.13817e-09
0.000121704
-0.00737172
-4.9744e-10
0.00143768
-8.05507e-10
2.48433e-05
-0.00176444
1.28836e-09
-0.00418152
-8.47815e-09
-0.00528526
-1.70024e-08
0.000351946
-3.35828e-08
0.00559651
-0.00078389
-1.16247e-08
0.00971794
-1.56038e-07
0.00220643
-1.78575e-07
-1.10898e-06
0.0299653
6.4866e-08
0.000653685
-7.97381e-07
0.0217667
1.26246e-06
0.0259162
-2.73414e-08
1.51396e-05
0.0154911
-3.65395e-08
3.7159e-05
-0.00340239
-3.27224e-08
0.000136219
-0.0282029
-1.84055e-05
4.20936e-09
-0.0617043
-3.1296e-07
1.33699e-06
-5.09034e-06
-0.00141587
-4.7572e-06
0.00307185
-2.15397e-07
-0.0388781
-7.82809e-07
-9.3293e-07
-1.086e-07
-3.92835e-06
-1.87915e-05
0.00160659
1.43145e-05
0.00371862
-1.93608e-06
-0.00803567
-9.11784e-07
2.03789e-07
0.00512812
-1.34488e-05
0.00114291
1.66231e-05
2.80685e-05
0.00553526
-1.9364e-05
-0.000320251
3.47391e-05
1.17635e-05
-2.83697e-05
-0.00458027
-6.2569e-05
-0.00949644
-0.000153981
4.59387e-05
-0.000104805
-0.0106042
2.1316e-05
-0.000103516
-7.94849e-05
-3.18519e-05
1.23843e-06
-0.00111664
-1.69168e-10
0.46329
1.8665e-06
5.09317e-09
0.228265
0
0.00123824
2.13157e-09
7.34721e-05
0.00657467
-3.36378e-10
0.000110801
0.00231092
0.000301195
0.000146549
0.887541
1.22184e-07
4.04102e-07
-1.59444e-09
-3.69918e-08
0.00019651
0.00354432
-8.72549e-10
-0.00142483
-6.35437e-09
0.00646586
-5.46742e-08
0.000122651
-1.23995e-07
-0.0010264
-4.1101e-07
-0.000284826
-1.45838e-06
-0.0163685
-0.00729156
2.58272e-06
-3.35046e-07
0.00442782
2.45442e-05
-2.02844e-05
-1.36147e-07
-2.31999e-08
1.06113e-05
-0.00673203
-5.76919e-05
-7.62643e-07
-0.00170427
1.96363e-05
-0.000102035
1.70192e-06
-0.0286193
-2.3328e-07
1.58033e-05
0.00709577
-9.81978e-08
-1.10636e-05
0.00417153
1.07478e-08
0.000624551
-1.39372e-06
-2.30348e-05
7.73159e-07
-0.00565755
1.09468e-05
-1.17179e-05
-0.00180668
2.95039e-06
-0.00730472
1.24664e-06
-0.00610347
2.34157e-05
-0.00759896
1.66876e-07
-6.71184e-06
-0.00384847
2.39759e-05
-0.0078015
-1.95844e-05
-3.06051e-05
-0.00678874
-0.000241094
3.80829e-05
-8.38117e-05