# vtk DataFile Version 2.0
Unstructured Grid by M++
ASCII
DATASET UNSTRUCTURED_GRID
POINTS 4072 float
  0.875000   1.000000 0
  0.875000   0.984375 0
  0.875000   0.968750 0
  0.875000   0.953125 0
  0.875000   0.937500 0
  0.875000   0.921875 0
  0.875000   0.906250 0
  0.875000   0.890625 0
  0.875000   0.875000 0
  0.875000   0.859375 0
  0.875000   0.843750 0
  0.875000   0.828125 0
  0.875000   0.812500 0
  0.875000   0.796875 0
  0.875000   0.781250 0
  0.875000   0.765625 0
  0.859375   1.000000 0
  0.859375   0.984375 0
  0.859375   0.968750 0
  0.859375   0.953125 0
  0.859375   0.937500 0
  0.859375   0.921875 0
  0.859375   0.890625 0
  0.859375   0.875000 0
  0.859375   0.859375 0
  0.859375   0.843750 0
  0.859375   0.828125 0
  0.859375   0.812500 0
  0.859375   0.796875 0
  0.859375   0.781250 0
  0.859375   0.765625 0
  0.859375   0.671875 0
  0.859375   0.656250 0
  0.859375   0.640625 0
  0.843750   1.000000 0
  0.843750   0.984375 0
  0.843750   0.968750 0
  0.843750   0.953125 0
  0.843750   0.937500 0
  0.843750   0.921875 0
  0.843750   0.906250 0
  0.843750   0.875000 0
  0.843750   0.859375 0
  0.843750   0.843750 0
  0.843750   0.828125 0
  0.843750   0.812500 0
  0.843750   0.796875 0
  0.843750   0.781250 0
  0.843750   0.765625 0
  0.843750   0.671875 0
  0.843750   0.656250 0
  0.843750   0.640625 0
  0.828125   1.000000 0
  0.828125   0.984375 0
  0.828125   0.968750 0
  0.828125   0.953125 0
  0.828125   0.937500 0
  0.828125   0.921875 0
  0.875000   0.671875 0
  0.812500   0.921875 0
  0.890625   0.656250 0
  0.828125   0.906250 0
  0.875000   0.656250 0
  0.812500   0.906250 0
  0.890625   0.640625 0
  0.828125   0.890625 0
  0.875000   0.640625 0
  0.812500   0.890625 0
  0.890625   0.625000 0
  0.828125   0.875000 0
  0.890625   0.609375 0
  0.828125   0.859375 0
  0.890625   0.593750 0
  0.828125   0.843750 0
  0.890625   0.578125 0
  0.828125   0.828125 0
  0.890625   0.562500 0
  0.828125   0.812500 0
  0.828125   0.796875 0
  0.828125   0.781250 0
  0.828125   0.765625 0
  0.828125   0.671875 0
  0.828125   0.656250 0
  0.828125   0.640625 0
  0.875000   0.750000 0
  0.812500   1.000000 0
  0.875000   0.625000 0
  0.812500   0.875000 0
  0.875000   0.734375 0
  0.812500   0.984375 0
  0.875000   0.718750 0
  0.812500   0.968750 0
  0.875000   0.703125 0
  0.812500   0.953125 0
  0.875000   0.687500 0
  0.812500   0.937500 0
  0.875000   0.609375 0
  0.812500   0.859375 0
  0.875000   0.593750 0
  0.812500   0.843750 0
  0.875000   0.578125 0
  0.812500   0.828125 0
  0.812500   0.812500 0
  0.875000   0.546875 0
  0.812500   0.796875 0
  0.812500   0.781250 0
  0.812500   0.765625 0
  0.859375   0.750000 0
  0.796875   1.000000 0
  0.859375   0.625000 0
  0.796875   0.875000 0
  0.859375   0.734375 0
  0.796875   0.984375 0
  0.859375   0.718750 0
  0.796875   0.968750 0
  0.859375   0.703125 0
  0.796875   0.953125 0
  0.859375   0.687500 0
  0.796875   0.937500 0
  0.859375   0.609375 0
  0.796875   0.859375 0
  0.859375   0.593750 0
  0.796875   0.843750 0
  0.859375   0.578125 0
  0.796875   0.828125 0
  0.859375   0.562500 0
  0.796875   0.812500 0
  0.796875   0.796875 0
  0.859375   0.531250 0
  0.796875   0.781250 0
  0.796875   0.765625 0
  0.843750   0.750000 0
  0.781250   1.000000 0
  0.843750   0.625000 0
  0.781250   0.875000 0
  0.843750   0.734375 0
  0.781250   0.984375 0
  0.843750   0.718750 0
  0.781250   0.968750 0
  0.843750   0.703125 0
  0.781250   0.953125 0
  0.843750   0.687500 0
  0.781250   0.937500 0
  0.843750   0.609375 0
  0.781250   0.859375 0
  0.843750   0.593750 0
  0.781250   0.843750 0
  0.843750   0.578125 0
  0.781250   0.828125 0
  0.781250   0.812500 0
  0.843750   0.546875 0
  0.781250   0.796875 0
  0.781250   0.781250 0
  0.843750   0.515625 0
  0.781250   0.765625 0
  0.828125   0.750000 0
  0.765625   1.000000 0
  0.828125   0.625000 0
  0.765625   0.875000 0
  0.828125   0.734375 0
  0.765625   0.984375 0
  0.828125   0.718750 0
  0.765625   0.968750 0
  0.828125   0.703125 0
  0.765625   0.953125 0
  0.828125   0.687500 0
  0.765625   0.937500 0
  0.828125   0.609375 0
  0.765625   0.859375 0
  0.828125   0.593750 0
  0.765625   0.843750 0
  0.828125   0.578125 0
  0.765625   0.828125 0
  0.828125   0.562500 0
  0.765625   0.812500 0
  0.765625   0.796875 0
  0.828125   0.531250 0
  0.765625   0.781250 0
  0.765625   0.765625 0
  0.812500   0.750000 0
  0.750000   1.000000 0
  0.953125   1.000000 0
  0.812500   0.734375 0
  0.750000   0.984375 0
  0.812500   0.718750 0
  0.750000   0.968750 0
  0.812500   0.703125 0
  0.750000   0.953125 0
  0.812500   0.687500 0
  0.750000   0.937500 0
  0.812500   0.671875 0
  0.750000   0.921875 0
  0.812500   0.656250 0
  0.750000   0.906250 0
  0.812500   0.640625 0
  0.750000   0.890625 0
  0.812500   0.625000 0
  0.750000   0.875000 0
  0.812500   0.609375 0
  0.750000   0.859375 0
  0.812500   0.593750 0
  0.750000   0.843750 0
  0.812500   0.578125 0
  0.750000   0.828125 0
  0.750000   0.812500 0
  0.812500   0.546875 0
  0.750000   0.796875 0
  0.750000   0.781250 0
  0.812500   0.515625 0
  0.750000   0.765625 0
  0.796875   0.750000 0
  0.734375   1.000000 0
  0.796875   0.734375 0
  0.734375   0.984375 0
  0.796875   0.718750 0
  0.734375   0.968750 0
  0.796875   0.703125 0
  0.734375   0.953125 0
  0.796875   0.687500 0
  0.734375   0.937500 0
  0.796875   0.671875 0
  0.734375   0.921875 0
  0.796875   0.656250 0
  0.734375   0.906250 0
  0.796875   0.640625 0
  0.734375   0.890625 0
  0.796875   0.625000 0
  0.734375   0.875000 0
  0.796875   0.609375 0
  0.734375   0.859375 0
  0.796875   0.593750 0
  0.734375   0.843750 0
  0.796875   0.578125 0
  0.734375   0.828125 0
  0.734375   0.812500 0
  0.734375   0.796875 0
  0.796875   0.531250 0
  0.734375   0.781250 0
  0.734375   0.765625 0
  0.781250   0.750000 0
  0.718750   1.000000 0
  0.921875   1.000000 0
  0.781250   0.734375 0
  0.718750   0.984375 0
  0.781250   0.718750 0
  0.718750   0.968750 0
  0.781250   0.703125 0
  0.718750   0.953125 0
  0.859375   0.906250 0
  0.781250   0.687500 0
  0.718750   0.937500 0
  0.781250   0.671875 0
  0.718750   0.921875 0
  0.781250   0.656250 0
  0.718750   0.906250 0
  0.781250   0.640625 0
  0.718750   0.890625 0
  0.781250   0.625000 0
  0.718750   0.875000 0
  0.781250   0.609375 0
  0.718750   0.859375 0
  0.781250   0.593750 0
  0.718750   0.843750 0
  0.781250   0.578125 0
  0.718750   0.828125 0
  0.781250   0.562500 0
  0.718750   0.812500 0
  0.781250   0.546875 0
  0.718750   0.796875 0
  0.781250   0.531250 0
  0.718750   0.781250 0
  0.781250   0.515625 0
  0.718750   0.765625 0
  0.765625   0.750000 0
  0.703125   1.000000 0
  0.765625   0.734375 0
  0.703125   0.984375 0
  0.765625   0.718750 0
  0.703125   0.968750 0
  0.765625   0.703125 0
  0.703125   0.953125 0
  0.765625   0.687500 0
  0.703125   0.937500 0
  0.843750   0.890625 0
  0.703125   0.921875 0
  0.765625   0.656250 0
  0.703125   0.906250 0
  0.765625   0.640625 0
  0.703125   0.890625 0
  0.765625   0.625000 0
  0.703125   0.875000 0
  0.765625   0.609375 0
  0.703125   0.859375 0
  0.765625   0.593750 0
  0.703125   0.843750 0
  0.765625   0.578125 0
  0.703125   0.828125 0
  0.765625   0.562500 0
  0.703125   0.812500 0
  0.765625   0.546875 0
  0.703125   0.796875 0
  0.765625   0.531250 0
  0.703125   0.781250 0
  0.765625   0.515625 0
  0.703125   0.765625 0
  0.750000   0.750000 0
  0.687500   1.000000 0
  0.890625   1.000000 0
  0.750000   0.734375 0
  0.687500   0.984375 0
  0.750000   0.718750 0
  0.687500   0.968750 0
  0.578125   0.796875 0
  0.578125   0.781250 0
  0.578125   0.765625 0
  0.546875   0.953125 0
  0.546875   0.968750 0
  0.546875   0.718750 0
  0.546875   0.687500 0
  0.250000   0.609375 0
  0.937500   0.031250 0
  0.046875   0.703125 0
  0.734375   0.062500 0
  0.734375   0.078125 0
  0.734375   0.046875 0
  0.046875   0.593750 0
  0.046875   0.562500 0
  0.046875   0.531250 0
  0.718750   0.156250 0
  0.046875   0.609375 0
  0.734375   0.031250 0
  0.062500   0.609375 0
  0.234375   0.703125 0
  0.718750   0.125000 0
  0.046875   0.578125 0
  0.734375   0.000000 0
  0.062500   0.578125 0
  0.000000   0.828125 0
  0.234375   0.671875 0
  0.234375   0.625000 0
  0.718750   0.093750 0
  0.687500   0.156250 0
  0.062500   0.546875 0
  0.000000   0.796875 0
  0.718750   0.046875 0
  0.031250   0.687500 0
  0.687500   0.171875 0
  0.500000   1.000000 0
  0.078125   0.218750 0
  0.234375   0.593750 0
  0.718750   0.062500 0
  0.687500   0.125000 0
  0.000000   0.765625 0
  0.421875   0.500000 0
  0.031250   0.593750 0
  0.718750   0.015625 0
  0.687500   0.234375 0
  0.015625   0.812500 0
  0.703125   0.171875 0
  0.703125   0.187500 0
  0.703125   0.140625 0
  0.015625   0.781250 0
  0.437500   0.515625 0
  0.500000   0.796875 0
  0.078125   0.015625 0
  0.687500   0.203125 0
  0.250000   0.578125 0
  0.703125   0.109375 0
  0.000000   0.515625 0
  0.500000   0.765625 0
  0.062500   0.593750 0
  0.750000   0.015625 0
  0.015625   0.843750 0
  0.687500   0.000000 0
  0.500000   0.828125 0
  0.078125   0.046875 0
  0.015625   0.531250 0
  0.250000   0.546875 0
  0.703125   0.078125 0
  0.703125   0.031250 0
  0.015625   0.671875 0
  0.250000   0.515625 0
  0.000000   0.656250 0
  0.500000   0.906250 0
  0.078125   0.125000 0
  0.687500   0.015625 0
  0.031250   0.546875 0
  0.687500   0.031250 0
  0.500000   0.859375 0
  0.703125   0.000000 0
  0.703125   0.046875 0
  0.703125   0.015625 0
  0.500000   0.937500 0
  0.234375   0.531250 0
  0.031250   0.578125 0
  0.687500   0.062500 0
  0.500000   0.890625 0
  0.031250   0.796875 0
  0.453125   0.531250 0
  0.500000   0.968750 0
  0.078125   0.187500 0
  0.234375   0.562500 0
  0.031250   0.609375 0
  0.718750   0.031250 0
  0.687500   0.093750 0
  0.750000   0.046875 0
  0.000000   0.937500 0
  0.421875   0.671875 0
  0.718750   0.187500 0
  0.031250   0.828125 0
  0.765625   0.062500 0
  0.015625   0.953125 0
[...]
CELL_DATA 7648
SCALARS scalar_value float 1
LOOKUP_TABLE default
0
0
0
0
0
0
0
0
0
1.43059e-10
0
0
0
0
0
0
0
0
0
0
0
0
0
0
0
0
0
0
0
0
0
0
0
0
0
0
0
0
4.56007e-07
-1.77203e-07
0
2.27616e-10
0
0
0
0
0
0
0
0
0
0
0
0
9.5198e-09
0
0
0
0
0
0
0
0
0
0
0
0
0
0
0
0
0
0
0
0
0
0
0
0
-1.40449e-09
0
0
0
0
0
0
0
0
0
0
0
0
0
0
0
0
0
0
0
0
0
0
0
0
0
0
0
0
0
0
0
0
0
0
0
0
0
0
0
0
0
0
0
0
0
0
0
0
0
0
0
0
0
2.58502e-10
0
0
0
0
0
0
0
0
0
0
-7.63353e-08
0
0
0
0
0
0
0
3.27567e-07
0
-1.51344e-08
0
0
0
0
0
0
0
0
0
0
0
0
0
0
0
0
0
0
0
0
0
0
0
0
0
0
0
0
0
0
0
0
0
0
0
-1.61609e-10
0
0
0
0
0
0
0
0
0
0
0
0
0
0
0
0
0
0
0
0
0
2.82679e-10
0
0
0
0
0
0
0
-1.88198e-09
0
0
2.04063e-08
0
0
0
0
0
0
0
0
0
0
-2.55891e-09
-2.15066e-10
3.4496e-10
1.07423e-10
0
0
0
0
0
0
0
0
0
0
0
0
0
0
0
0
-5.06371e-10
0
0
0
0
0
0
0
0
0
0
0
0
0
0
0
0
0
0
0
0
0
0
0
0
0
0
0
0
0
0
0
0
0
0
0
0
0
0
0
0
0
0
0
0
0
-4.14143e-10
5.61974e-10
2.36501e-10
0
0
0
0
0
0
0
0
0
0
0
3.01826e-09
1.98283e-09
0
0
0
0
0
0
0
0
0
0
-5.0115e-10
0
-1.06313e-10
0
-8.45421e-10
1.47194e-10
0
1.45318e-08
9.8337e-09
0
0
0
0
0
4.0051e-08
0
1.63955e-09
5.08202e-09
0
0
0
0
0
0
0
0
0
0
0
0
0
0
-4.64039e-09
6.79991e-10
0
0
0
0
0
-2.89334e-07
0
0
0
0
0
0
0
0
0
0
0
0
0
0
0
0
0
0
0
0
0
-1.89739e-09
0
0
0
0
0
0
0
0
0
0
0
0
0
0
0
0
0
0
-1.11061e-10
-3.36323e-08
0
0
0
0
0
0
0
0
0
0
0
-1.60448e-10
0
0
0
0
0
1.13247e-08
-9.2223e-07
0
0
0
0
0
0
0
0
0
0
0
0
0
0
0
-1.46241e-09
0
0
0
0
0
0
0
0
0
0
0
0
0
0
0
0
0
0
0
0
0
6.58262e-09
0
0
0
0
0
0
0
0
0
0
0
0
0
0
0
0
0
0
0
0
0
0
0
0
0
0
0
0
0
0
0
0
0
0
0
2.46587e-08
0
0
0
0
0
0
0
0
0
0
0
0
0
0
0
0
-1.93854e-10
0
0
0
0
0
0
0
0
0
0
0
0
0
0
0
0
0
0
0
0
0
0
0
0
1.13882e-08
0
0
0
0
0
0
1.05722e-09
0
0
0
-7.03319e-10
0
-2.96393e-08
0
-7.06425e-07
0
-3.16285e-08
0
0
1.57397e-08
0
0
7.91618e-07
0
6.16783e-07
0
0
0
-5.96178e-08
0
0
2.20938e-08
0
0
0
1.54389e-09
0
0
0
0
0
0
0
0
0
0
0
0
0
0
0
0
0
0
0
0
0
0
0
0
0
0
-2.9802e-09
0
0
0
0
0
0
0
0
0
5.77901e-07
0
0
0
0
0
0
0
-2.10544e-09
0
-1.33553e-09
0
4.6798e-08
1.41527e-09
1.40111e-09
-1.20107e-08
0
0
-1.72641e-09
0
0
0
0
0
3.19259e-09
0
0
0
0
0
0
0
0
0
0
0
0
0
0
0
0
0
0
0
0
0
0
0
0
0
0
0
0
0
0
2.09835e-10
0
0
0
0
0
-3.3918e-10
6.76998e-10
0
0
0
0
0
0
0
0
0
0
0
0
0
0
0
0
0
0
0
0
0
0
0
0
0
0
0
0
0
0
0
0
0
0
0
0
-1.7298e-10
-9.87702e-10
0
0
0
0
0
0
0
0
0
0
0
0
0
0
0
0
0
0
0
0
0
0
0
0
0
0
0
0
0
0
0
0
0
0
0
0
0
0
0
0
0
0
0
0
0
0
0
0
0
0
0
0
0
0
0
0
0
0
0
2.82248e-09
0
0
0
0
0
0
0
0
0
0
0
0
0
0
0
0
0
0
0
3.90014e-09
0
0
0
0
0
0
0
0
0
1.32461e-09
0
0
0
0
0
0
-2.37735e-09
0
0
0
0
0
0
0
0
0
0
0
0
0
0
0
0
0
0
0
0
0
0
0
0
0
0
0
0
0
0
0
0
0
0
0
0
0
0
0
0
0
5.32454e-08
0
0
0
-1.49218e-08
7.92825e-08
2.93237e-09
7.40934e-08
0
0
-1.61496e-10
0
0
0
0
0
0
0
0
0
0
0
0
0
0
0
0
0
0
0
0
0
0
0
0
0
0
0
0
0
0
0
0
0
0
0
0
0
0
0
0
0
0
0
0
0
0
0
0
0
0
0
0
0
0
0
0
0
0
0
0
0
0
0
0
0
0
0
0
0
0
0
0
0
0
0
0
0
0
0
0
0
0
0
0
0
0
0
0
2.065e-08
0
0
0
0
0
0
0
0
0
0
0
0
1.51571e-09
0
-1.07459e-09
0
0
0
7.57035e-09
0
1.40343e-09
0
0
0
0
0
0
0
0
0
0
0
0
0
0
0
0
0
0
1.0048e-08
0
0
0
0
0
0
0
0
0
0
0
0
0
0
0
0
0
0
0
0
0
0
1.68175e-09
0
0
0
0
0
0
0
0
0
0
0
-6.94363e-10
0
0
0
0
0
0
0
0
0
0
0
0
3.72185e-09
0
0
0
0
0
0
0
0
0
0
0
0
0
-2.97621e-10
0
0
0
0
0
0
0
0
0
0
0
0
0
0
-2.2322e-06
0
2.47575e-08
0
0
0
0
0
0
0
0
0
0
0
0
0
0
0
0
0
0
0
0
0
0
0
0
0
0
0
0
1.25822e-10
0
0
0
0
0
0
0
0
0
0
0
0
0
0
0
0
0
0
0
0
0
0
0
0
0
0
0
0
0
0
0
0
0
0
0
0
0
0
0
0
0
0
0
0
0
0
0
0
0
0
0
0
0
2.31763e-10
0
-2.84855e-10
0
0
0
0
0
0
0
-1.01155e-10
0
0
0
0
0
0
0
0
0
0
0
0
0
0
0
0
0
0
0
0
0
0
0
0
0
0
0
0
0
0
0
0
0
7.12733e-09
0
-1.07033e-07
1.61157e-09
0
0
0
0
0
0
0
0
0
0
0
0
0
0
0
0
0
0
0
0
0
0
0
0
0
0
0
0
0
0
0
0
0
0
0
0
1.94645e-10
0
0
0
0
0
0
0
0
0
0
0
0
0
-8.60305e-08
0
0
0
0
0
0
0
0
0
0
0
0
0
0
0
7.70414e-09
0
-7.95158e-08
0
0
0
0
0
1.77162e-06
0
0
0
0
0
0
0
0
0
0
0
0
0
0
0
0
0
0
0
0
0
0
0
0
0
0
0
0
0
0
0
0
0
0
0
0
0
0
0
0
0
0
0
0
0
0
0
0
0
0
0
0
0
0
0
0
-5.42735e-09
0
0
0
4.90954e-08
0
0
0
0
0
0
0
-4.50265e-10
-2.70141e-10
0
0
6.53329e-09
1.10328e-07
0
0
0
0
0
0
0
0
0
0
0
-2.89803e-06
0
0
0
0
0
0
0
0
0
0
0
0
0
0
0
0
0
0
0
0
0
0
0
0
0
0
0
0
0
0
0
0
0
0
0
0
0
0
0
0
0
0
0
0
0
0
0
0
0
-8.66411e-10
0
0
0
0
0
3.13572e-06
0
0
0
0
0
0
-1.59308e-09
0
0
0
1.98417e-10
5.87352e-10
0
0
0
0
0
0
0
0
0
0
0
0
0
0
0
0
0
0
0
0
0
0
0
0
0
0
0
0
0
0
0
0
0
0
0
0
0
0
0
0
0
0
0
0
0
0
0
0
0
0
0
0
0
0
0
0
0
0
0
0
0
0
0
0
0
0
0
0
0
0
0
0
0
0
0
0
0
-3.19146e-06
0
0
0
0
0
0
0
0
0
0
0
0
0
0
0
0
0
0
0
0
0
0
0
0
0
0
0
0
0
0
0
0
0
0
0
0
0
0
0
0
0
0
0
0
0
0
0
0
0
0
0
0
0
0
0
0
0
0
0
0
0
0
0
0
0
0
0
0
0
0
0
0
0
0
0
4.90912e-07
-5.72354e-09
2.46266e-08
0
0
0
0
0
5.23616e-08
1.0977e-09
-3.48593e-09
0
0
0
0
0
0
0
0
0
0
0
0
0
0
0
0
0
0
0
0
0
0
0
0
1.17185e-09
0
0
0
0
0
0
0
0
0
0
0
0
0
0
0
0
0
0
0
0
0
0
0
0
0
0
0
0
0
0
0
0
0
0
0
0
0
0
0
0
0
0
0
0
0
0
0
0
0
0
0
0
0
0
0
0
0
0
0
0
0
0
0
0
0
0
0
0
0
0
0
0
0
0
0
0
0
0
0
0
0
0
0
0
0
0
0
0
0
0
0
0
0
0
0
0
0
0
0
0
0
0
0
0
0
0
0
0
0
0
0
0
0
0
0
1.36617e-10
2.95121e-08
2.15221e-07
-3.96386e-08
0
0
0
0
0
0
0
0
0
2.01993e-10
-6.91023e-09
0
0
0
0
0
0
0
0
3.2701e-10
0
0
0
0
0
0
0
0
3.82641e-08
-4.78602e-07
0
0
0
0
0
0
0
0
0
0
0
0
0
0
0
0
0
0
0
0
0
0
0
0
0
0
0
0
0
0
0
0
0
0
0
0
0
0
0
0
0
0
0
0
0
0
0
0
0
0
-8.0999e-07
0
0
0
0
0
0
0
0
0
0
0
0
0
0
0
0
0
0
0
0
0
0
0
0
0
0
0
0
0
0
0
0
0
0
0
0
0
0
0
0
0
0
0
0
0
0
0
0
0
0
0
0
0
0
0
0
0
0
0
0
0
0
0
0
0
0
0
0
0
0
0
0
0
0
0
0
0
0
0
0
0
0
0
0
0
0
0
0
0
0
0
0.0358598
0.0382178
0.0295502
0.00491491
-0.0197403
-0.0224645
-0.00436986
0.00762998
0.00769886
-0.00252974
-0.0130371
-0.0230039
-0.031533
-0.0280434
-0.0156172
-0.00932728
-0.0012769
0.0516416
0.241855
0.570118
0.849522
0.967617
0.938452
0.71489
0.347018
0.0911629
0.0119391
0.000675733
-2.15563e-05
-1.04648e-05
-1.30612e-06
-5.15754e-08
0.0615394
0.0740976
0.0138808
-0.0447397
-0.011787
0.000775424
0.000389884
-0.0199322
-0.0142718
0.00379684
0.159681
0.447643
1.31723e-06
0.0892194
0.0627708
0.0171443
-0.00613299
-0.0181959
-0.017721
0.00192945
0.0127401
0.00648468
0.00031179
-0.00631953
-0.0188409
-0.032226
-0.031375
-0.0213978
-0.0158249
-0.00448848
0.0461391
0.237332
0.581989
0.863279
0.968385
0.929721
0.689169
0.312097
0.0716757
0.007963
0.000808671
0.000147305
2.03034e-05
1.75356e-06
5.57986e-08
0.035237
0.012732
0.00694637
-0.0134095
-0.00381232
-0.0038361
-0.0146143
-0.0238559
-0.000581526
0.0223947
0.796127
-0.0138981
0.00581006
0.0137013
0.00574705
0.00511964
0.00611806
0.00644209
0.00771241
0.00625165
0.00218956
-0.00355679
-0.0187807
-0.0320184
-0.032824
-0.0271739
-0.01592
0.0140093
0.0583728
0.250597
0.602059
0.876395
0.970879
0.918012
0.657267
0.279479
0.0578111
0.005027
0.000267722
8.80927e-05
3.93275e-05
9.57676e-06
9.35775e-07
-0.0141695
-0.00303045
-0.00908519
0.00290604
0.00511441
-0.00541708
-0.00076578
-0.0237054
1.55207e-06
0.00193482
5.47677e-07
0.00108517
-0.00105669
-8.01183e-07
-0.000567522
-7.34384e-07
-0.0011235
0.0305832
-3.56403e-07
-9.59377e-05
-1.40794e-07
0.000587049
0.000175296
0.770222
1.55726e-08
-0.000200755
7.93179e-07
0.000399455
-0.000201861
0.000519733
0.000241806
0.00149963
0.00811965
-0.000290153
-0.00619588
-0.000207081
0.000301765
0.000114869
0.00060208
0.000524765
-0.0152672
0.00261728
-8.4546e-08
0.000538361
-0.0108433
8.5985e-07
0.000261988
7.8052e-07
0.000568804
-0.00248777
2.80081e-07
0.000683781
2.54434e-09
0.000421347
0.154127
-4.18057e-08
-0.000153275
-7.83872e-09
-0.000254862
0.00100135
5.63344e-07
-0.000280733
-0.000504793
2.37495e-05
0.0117184
0.000284204
0.0093412
0.000374763
0.00269546
0.000159824
-0.0015405
0.0034465
-8.9059e-05
0.00334053
-0.00493487
0.000305676
0.00637934
0.000614636
-0.0067265
0.00017447
-0.0121684
2.87722e-07
1.20835e-06
0.825809
5.20642e-07
2.93983e-07
0.828775
-0.000276697
-0.000427706
0.00188417
2.3318e-06
0.000634125
-0.000337207
0.00221213
2.46469e-07
-5.18539e-05
-7.85981e-05
-0.00768793
5.0381e-08
0.000559812
-2.94271e-05
5.75213e-05
5.86444e-05
0.000160867
0.000279668
6.74951e-08
-5.08706e-05
-0.000179846
2.25941e-07
-0.000391516
-0.000590729
2.46549e-08
-0.000199104
0.00044088
4.91858e-09
-1.52674e-06
0
-2.36723e-07
0.000223641
2.64267e-05
-0.000122492
1.85648e-06
0.00032061
7.7156e-05
0.00585506
0.000129165
0.00314091
0.00012413
-0.00156017
-1.50568e-06
0.00179122
-0.000314716
0.00445572
-0.00253395
0.000101183
-0.00333399
0.00490497
0.000252308
-0.000272162
-0.0122602
-0.000550795
0.00146819
8.56941e-07
4.22282e-07
1.68571e-07
0.941672
-4.20886e-08
-0.000327117
-0.000259683
-6.17918e-05
-0.000296882
3.67387e-07
-2.7474e-05
-1.40372e-06
0.000184881
5.62992e-05
8.67202e-05
2.6469e-05
4.2719e-05
0.000154541
6.84341e-05
-9.78402e-05
-1.7038e-06
0.000296096
0.000149399
-6.16779e-08
4.39961e-08
0.000102529
-7.81832e-06
0.000232281
-7.15784e-08
-1.36487e-05
-0.000365862
2.26277e-05
-0.000124875
0.420945
5.11683e-05
-0.00203195
-7.87561e-05
0.615671
1.85751e-05
0.00459312
-4.01676e-05
-6.86093e-05
0.00686329
-7.41785e-06
0.977417
0.00048901
4.78198e-07
-0.000113284
-0.00590465
-4.10131e-07
0.807485
-0.000322615
-3.28007e-06
7.59449e-05
0.00101405
-3.87757e-06
0.151502
-6.12743e-05
-0.00999451
-3.77684e-07
-0.000175719
5.09325e-07
7.17181e-05
0.0139518
1.47493e-07
0.497975
6.37857e-08
0.867185
-6.76072e-09
0.00196623
0.940507
-4.79705e-08
0.554829
0.000838275
0.96401
8.15172e-10
-0.000374525
0.00108388
5.11448e-10
-0.000302197
0.473256
4.68208e-10
-0.000212179
0.00072121
0
-7.10706e-05
0.023547
0
-7.64219e-05
-3.93436e-05
0
-6.33757e-06
-7.97775e-06
0
6.40191e-05
4.87003e-05
1.85109e-05
0
2.55912e-05
4.40095e-05
-1.50628e-06
4.84757e-05
1.44905e-07
3.70302e-05
2.55533e-06
0.000168622
0.000110284
2.23387e-06
1.49312e-05
7.30396e-07
-5.05665e-05
-0.000140215
3.38976e-08
3.06179e-08
0.0002912
-0.00298662
0.000238415
4.13018e-06
-0.000234982
-0.0208085
-0.00041319
-0.00217136
0.000142767
-2.6137e-07
-0.000356122
0.0267255
-3.57685e-05
-4.04526e-05
0.0561528
2.56801e-05
0.00432624
3.02802e-05
2.20432e-05
-2.21243e-05
0.11996
-5.49093e-05
0.00455036
-1.08127e-05
0.545682
-6.10931e-05
0.000719661
-7.82741e-07
-4.99542e-05
-0.00482343
4.28956e-07
0.981113
-0.00116158
1.01282e-06
-6.38674e-05
0.00428084
-4.58509e-07
0.545363
-0.00154332
-2.27334e-06
0.207432
-0.000163334
-0.00458417
-1.82715e-06
0.0439686
3.81282e-05
0.011343
-8.23102e-07
7.08143e-05
-7.98496e-08
-7.394e-09
0.715323
-2.81873e-08
0.576639
-1.03269e-08
7.10512e-05
0.149219
0.000171619
0.959563
4.73643e-09
-0.000164923
0.000278466
0.796054
1.17541e-09
-0.0001703
8.96444e-05
3.13963e-10
-0.000101475
0.131333
0
-0.000127991
-6.66406e-05
0
-8.70651e-05
0.00166584
0
-9.86314e-06
1.84851e-05
0
-1.08202e-05
-3.15625e-05
0
1.91497e-05
1.81146e-06
-2.04208e-06
0
1.34656e-05
-3.65518e-07
8.81417e-05
-1.62423e-07
3.0771e-05
0.000136564
4.32194e-07
-0.000116566
9.46089e-07
-0.000106829
-0.000174512
-2.06055e-05
5.1707e-06
1.47843e-07
2.32008e-08
-3.05187e-07
1.25692e-08
-3.29636e-10
-0.0003527
0.00648064
-0.000378924
-0.00211711
-0.000191168
-0.010173
-2.41505e-05
-0.00889778
3.832e-05
-0.000468
3.41601e-05
1.72297e-06
0.0490783
1.2832e-05
0.00541854
-7.3558e-06
-2.06217e-08
0.498671
-0.000338418
-0.00530617
-5.68426e-07
0.179458
0.000443661
0.0024944
-7.44547e-07
0.0369029
4.91094e-05
0.0122993
3.42994e-07
0.0041709
-5.95119e-05
-0.00361354
0.000464759
6.44519e-05
0.757892
9.01588e-05
-8.29513e-06
8.40108e-05
-4.97058e-05
0
-4.16714e-05
-1.99097e-05
1.46176e-05
0
-3.10709e-05
-5.18824e-05
-5.09656e-05
0.00168841
2.79944e-08
-4.23069e-05
3.1151e-05
0.000217858
0.00708937
5.90493e-07
-8.81051e-05
8.28922e-05
-0.000245187
0.0165777
3.87509e-05
0.0043072
6.10183e-05
-0.007926
3.37539e-05
-0.012173
3.87198e-06
-0.0118737
-1.73037e-05
-8.52136e-06
-0.00880766
0.00557499
-8.48285e-06
-3.36878e-07
0.160111
0.000204267
0.000641765
0
-8.39406e-05
0.000156928
6.25155e-05
0.00024379
-1.10553e-06
0.000117231
1.85271e-07
-5.09332e-05
-2.10183e-05
1.49276e-05
5.9319e-06
-2.82391e-08
1.3861e-05
-0.00558097
4.4562e-05
-0.00302598
9.62658e-09
2.4951e-05
0.00737171
1.72822e-05
0.00336262
-3.55729e-05
6.47088e-06
-0.000474776
-1.15634e-05
1.01256e-06
0.000936152
7.33758e-06
-2.37239e-08
3.74195e-06
-4.72737e-07
-0.00526176
1.40748e-05
-3.63342e-07
-0.00673378
4.38378e-07
1.6403e-09
0.947562
2.3205e-09
-7.08355e-08
-1.43118e-07
0.0198043
-3.90815e-06
4.29559e-09
2.49105e-07
-1.00213e-09
-3.39547e-07
-3.20883e-10
-0.00496701
2.15149e-06
0.680844
1.18956e-07
0.947056
0.00341165
8.19726e-08
-2.77724e-07
-0.0033647
-7.53553e-09
6.2721e-08
0.152707
-0.00736725
2.04463e-08
0.00139687
0.00426979
-6.31531e-09
4.72901e-06
-0.000449492
-2.78979e-09
4.75733e-06
-0.0247292
-1.24429e-09
-0.00471862
0
2.23329e-05
7.0648e-05
-3.94345e-05
0.000154441
0.401679
-2.34024e-10
0.0287927
0
0.0754154
0
0
0.128332
3.51592e-05
0
0.0952135
8.79333e-05
0
0.681765
0
0.909729
1.38228e-06
0.000120003
-3.31782e-05
5.05412e-05
0
2.88793e-05
0.00332108
1.11262e-07
2.55119e-05
2.44804e-06
4.82953e-09
9.28616e-06
0.0107829
0.000110182
7.92889e-09
6.44814e-06
0.00381179
4.40005e-06
0.00387485
2.79358e-05
-3.89503e-05
2.1067e-09
0.000713136
-4.1511e-07
-5.00394e-07
0.0014717
-0.0296442
9.10405e-06
-0.0028458
8.88219e-09
-2.63077e-06
0.000839386
-0.00365347
-1.15709e-07
0
-8.79036e-10
-0.00803003
0
7.00391e-07
-3.30261e-07
-0.0066424
1.08873e-05
-0.000319028
-0.00459792
2.42095e-06
3.59504e-07
-4.05819e-10
-3.08592e-06
-2.03724e-08
0.067727
-0.00139546
2.22576e-08
4.16345e-06
2.09188e-06
-5.63541e-10
0.0762671
0
-0.0238488
0
-5.93846e-07
-0.000531885
2.48607e-09
4.30707e-06
-1.56663e-07
-2.36698e-07
-3.89097e-09
1.74831e-06
0.00122147
-2.21109e-10
-0.0308991
0
-1.71733e-05
-3.38222e-08
0.000874527
-1.52566e-09
7.89993e-10
-1.01271e-06
-2.62791e-08
-0.00274254
0
-0.0353937
0
-6.42038e-10
4.80396e-07
1.92472e-05
-6.37116e-06
0.00258243
0
-0.0152018
0
0.00859012
0
0
-0.0110978
-0.00101206
1.03747e-08
3.77792e-07
5.07569e-07
-3.16549e-10
0
0.633643
0
1.03716
1.87973e-10
3.61728e-06
0.00123673
-1.74666e-10
-0.0281292
3.21518e-06
3.30066e-05
1.65245e-05
6.97167e-06
0.0917664
-5.18952e-08
-0.00175882
-5.32007e-09
-8.2456e-09
-2.32972e-09
1.45909e-05
2.2759e-05
-2.94041e-08
0
0
-4.05315e-10
-1.12067e-10
-3.38761e-08
-0.00828729
2.81063e-06
-9.43724e-05
-5.01271e-07
2.35461e-07
1.45204e-09
2.03963e-06
-0.000235125
0
0.895314
-1.32725e-07
-0.00105665
-3.24739e-09
0
0.295576
-8.98576e-09
-3.91287e-05
9.57433e-06
3.45548e-05
3.87528e-05
1.34788e-05
-1.44909e-08
0.0274654
-1.51609e-06
-4.75948e-08
0.636881
-3.70126e-10
4.70919e-08
0
0.938151
-1.33013e-05
0
0.321825
7.63102e-05
0
-0.0265052
-4.36022e-06
6.59981e-05
-2.40372e-05
0.000152137
0.080959
0
-0.0330895
-4.29912e-05
0.000119667
0.684034
-9.64269e-10
5.84441e-07
-0.0173905
-2.20809e-09
-5.47086e-06
-0.0102485
-5.04443e-09
3.80724e-05
-0.000895379
-3.21304e-08
0.0194885
0.00644409
-3.31621e-07
0.439656
-0.0079952
-5.40178e-08
0
0.212779
-2.10633e-10
2.16512e-07
7.33333e-08
0
3.18454e-07
0.461248
0.00393266
0
0.193835
-8.1866e-10
-6.23846e-08
0
4.54968e-08
-5.59122e-08
0.962749
0.00198896
0
0.520942
0.000461222
-0.00983047
-1.57992e-06
7.99816e-07
0
4.87992e-07
5.39889e-06
0.0482871
3.50664e-09
2.47261e-09
1.03962e-07
-7.61284e-08
0.00227491
4.87271e-07
6.7924e-09
1.25561e-06
-4.12665e-08
-0.0351909
-2.89405e-06
-1.75382e-07
0.00440002
1.32101e-06
-2.63793e-07
8.42822e-05
-2.84022e-06
1.83435e-07
-7.34854e-06
1.02403e-06
-0.00869972
-1.60693e-06
-1.19141e-08
-0.0308218
-1.95827e-08
0.00421549
1.99137e-08
3.04677e-10
0.915375
1.95281e-06
0.00551153
1.26498e-07
-0.00581503
4.0861e-07
-6.2666e-10
0.276173
-1.42525e-06
0.00130589
1.13138e-06
0.00348571
-4.10758e-10
0.656613
5.7872e-07
0.00402348
1.23763e-10
0.049238
-6.25166e-06
0.0221882
-2.60918e-07
-0.000951027
-4.38883e-10
0.0361626
-5.53749e-07
-0.00440667
9.63415e-10
-2.4159e-08
5.81116e-09
0.0669789
6.59024e-07
-1.69676e-10
1.07961e-06
8.1087e-07
0.00948129
2.90515e-05
5.26937e-08
0.00783737
5.28653e-06
1.61026e-07
-1.45042e-05
-4.70647e-06
-0.00265404
-1.73369e-05
3.4312e-07
-0.00196261
8.21804e-06
-5.96047e-08
-3.17277e-05
1.04004e-06
-1.26718e-05
0.000186846
-4.49823e-05
3.11026e-06
-0.00274699
-4.5836e-05
0
6.00383e-05
3.15724e-05
0.000149029
0.0231329
0
2.3526e-10
6.39299e-05
-0.00269842
0
0.000157731
0
-0.000141291
-3.43938e-05
0
-0.001044
4.92464e-10
-0.00327896
-2.29504e-09
-0.00477762
3.89592e-10
-0.00151542
-0.000177943
2.94129e-08
0.000383215
1.98944e-08
0.00410161
2.45268e-08
-1.88554e-07
0.0146178
4.67948e-10
0.00573548
4.15341e-08
0.00415575
-1.02256e-06
0.018772
6.78726e-10
-3.25047e-06
0.0111096
7.21163e-10
-2.47078e-06
-0.0029632
1.18114e-09
-4.222e-06
0.0171236
2.91033e-07
8.04371e-10
-0.033299
4.24897e-07
6.14462e-07
-2.51129e-07
-0.0146361
-1.65344e-06
0.0046628
-1.05983e-08
-0.0369089
1.07193e-06
-1.35282e-08
-2.3193e-08
1.33666e-06
-1.84792e-06
-0.00171303
-1.87721e-05
0.00400512
-6.10763e-08
-0.0122638
3.16388e-08
1.10145e-06
0.00298141
-5.32869e-07
-0.00759582
-7.65654e-07
1.5839e-05
0.0044519
-6.30499e-06
0.000784861
3.8248e-06
-2.32033e-05
-1.27377e-05
-0.000660764
-1.99761e-05
-0.00562291
-5.88778e-06
1.52395e-05
-2.86406e-05
-0.011788
1.28298e-05
-5.67906e-05
-0.000103797
-4.84662e-06
4.00276e-08
0.00353726
0
0.291054
2.44065e-07
0
0.29974
0
-0.000309097
1.51761e-10
4.78578e-05
0.000875903
0
4.91958e-05
-0.000597073
-8.86208e-05
0.000102843
0.123851
-1.83202e-08
-1.47237e-07
0
-1.10518e-09
0.000129091
0.00535475
0
-0.00110911
5.96559e-10
0.00511052
-5.08141e-09
0.00479047
1.51631e-08
0.00184868
5.30983e-08
-0.0017378
-2.367e-07
-0.0022026
-0.00229086
5.225e-06
6.09261e-08
-0.00241454
9.47145e-07
5.8311e-06
4.97923e-08
-2.92031e-08
5.55316e-08
-0.0390977
7.82039e-06
3.02997e-08
0.003878
1.48612e-05
-3.05183e-05
-3.64779e-07
-0.0131435
-5.00925e-09
1.20207e-06
0.0155667
2.76987e-09
1.57604e-06
0.0162475
1.11486e-09
-0.0145556
2.63926e-07
-6.14857e-07
5.35138e-07
0.143751
-8.94492e-07
-6.9923e-06
0.000676777
2.6031e-06
0.0177396
3.2409e-07
-0.00212703
5.65125e-06
-0.000521962
1.21443e-06
-7.52667e-05
-0.00177915
1.19921e-05
-0.0044114
-2.35704e-05
2.86678e-05
-0.00681871
-1.51059e-05
9.49142e-06
3.7894e-05
-0.00671304
1.84974e-05
-0.00410948
-3.01294e-05
-3.1367e-05
-3.22111e-06
0.00467381
-4.91493e-05
-4.06972e-07
-0.000521912
0
0.37217
1.91339e-07
-7.27531e-05
-1.12344e-10
0.548785
0
0
0.000225394
3.39473e-07
0.00393037
-1.22144e-09
0.000171937
-0.00638641
-0.0240539
-1.41612e-07
0
-0.000721767
0.000368237
-0.000254064
0.260135
1.79692e-08
1.8449e-08
0
2.95226e-09
-0.00494565
7.52337e-09
4.13425e-07
6.7944e-10
0.00134848
-5.22799e-09
-0.00988524
7.56953e-08
-0.000934605
2.05901e-07
0.00328499
-1.30868e-06
-8.18791e-06
3.24019e-07
0.00138343
-2.25435e-06
0.00636653
0.00767766
-7.8002e-06
1.79507e-07
-0.00143301
-8.36218e-06
-1.83818e-06
-5.45673e-07
-1.67892e-07
0.00198988
7.05816e-06
0.00221164
2.18587e-06
-1.94057e-06
-0.000300729
-5.65469e-07
0.00196541
-1.02343e-06
0.011798
-6.22365e-09
0.00345923
-1.81414e-05
-0.0014301
-6.44568e-09
0.0804071
-6.74987e-06
0.00240205
1.39483e-06
-7.01557e-08
-0.000130929
-2.7846e-05
-0.00668336
-2.25773e-07
0.00826597
3.69598e-06
-0.000182516
0.000857353
-6.89002e-06
-0.00524031
-9.56868e-05
-0.00420397
-1.68397e-05
-0.00691643
2.77186e-05
-3.48677e-05
-4.4184e-05
-0.00416307
0.000323964
-0.000142802
1.21167e-05
0.000240379
0.00012697
0.0124775
0.0010568
-5.26898e-05
-1.04237e-06
0.814248
0.00353853
0
0.988505
-1.23487e-06
0.00266802
-1.34171e-10
0.912135
1.98406e-07
0.00631993
-2.7504e-10
0.48153
0
0
7.4685e-07
2.6926e-07
2.38796e-10
0.0057761
-1.50452e-09
0.000228122
0.0104109
-0.00947419
4.48517e-07
7.48079e-10
-0.000492247
0.000198599
-0.000366754
0.0479193
1.06082e-08
1.81914e-07
-9.42351e-10
1.46752e-07
0.00246802
6.86709e-09
3.10992e-08
-6.99979e-09
-0.00115563
2.05498e-08
0.00801035
3.83611e-07
-0.00180355
-0.0280695
-1.5272e-05
3.76124e-07
-0.00363678
6.60341e-06
5.39929e-06
5.69674e-07
0.000642922
3.99712e-07
0.000753627
5.21387e-05
-0.0151965
0.0542088
1.6527e-05
4.30496e-06
0.00337051
4.23239e-05
1.91056e-05
1.73157e-05
-9.8289e-08
0.0894854
-0.00021005
0.00667272
6.17414e-05
7.18286e-06
4.08543e-05
-0.00478074
-4.58387e-07
0.0140318
1.34053e-05
-0.00374408
-1.85798e-08
0.343958
-0.00343372
0.000278477
0.0010541
0.00259786
0.00462268
0.00618826
-0.0637483
0.00503717