# vtk DataFile Version 2.0
Unstructured Grid by M++
ASCII
DATASET UNSTRUCTURED_GRID
POINTS 4072 float
  0.875000   1.000000 0
  0.875000   0.984375 0
  0.875000   0.968750 0
  0.875000   0.953125 0
  0.875000   0.937500 0
  0.875000   0.921875 0
  0.875000   0.906250 0
  0.875000   0.890625 0
  0.875000   0.875000 0
  0.875000   0.859375 0
  0.875000   0.843750 0
  0.875000   0.828125 0
  0.875000   0.812500 0
  0.875000   0.796875 0
  0.875000   0.781250 0
  0.875000   0.765625 0
  0.859375   1.000000 0
  0.859375   0.984375 0
  0.859375   0.968750 0
  0.859375   0.953125 0
  0.859375   0.937500 0
  0.859375   0.921875 0
  0.859375   0.890625 0
  0.859375   0.875000 0
  0.859375   0.859375 0
  0.859375   0.843750 0
  0.859375   0.828125 0
  0.859375   0.812500 0
  0.859375   0.796875 0
  0.859375   0.781250 0
  0.859375   0.765625 0
  0.859375   0.671875 0
  0.859375   0.656250 0
  0.859375   0.640625 0
  0.843750   1.000000 0
  0.843750   0.984375 0
  0.843750   0.968750 0
  0.843750   0.953125 0
  0.843750   0.937500 0
  0.843750   0.921875 0
  0.843750   0.906250 0
  0.843750   0.875000 0
  0.843750   0.859375 0
  0.843750   0.843750 0
  0.843750   0.828125 0
  0.843750   0.812500 0
  0.843750   0.796875 0
  0.843750   0.781250 0
  0.843750   0.765625 0
  0.843750   0.671875 0
  0.843750   0.656250 0
  0.843750   0.640625 0
  0.828125   1.000000 0
  0.828125   0.984375 0
  0.828125   0.968750 0
  0.828125   0.953125 0
  0.828125   0.937500 0
  0.828125   0.921875 0
  0.875000   0.671875 0
  0.812500   0.921875 0
  0.890625   0.656250 0
  0.828125   0.906250 0
  0.875000   0.656250 0
  0.812500   0.906250 0
  0.890625   0.640625 0
  0.828125   0.890625 0
  0.875000   0.640625 0
  0.812500   0.890625 0
  0.890625   0.625000 0
  0.828125   0.875000 0
  0.890625   0.609375 0
  0.828125   0.859375 0
  0.890625   0.593750 0
  0.828125   0.843750 0
  0.890625   0.578125 0
  0.828125   0.828125 0
  0.890625   0.562500 0
  0.828125   0.812500 0
  0.828125   0.796875 0
  0.828125   0.781250 0
  0.828125   0.765625 0
  0.828125   0.671875 0
  0.828125   0.656250 0
  0.828125   0.640625 0
  0.875000   0.750000 0
  0.812500   1.000000 0
  0.875000   0.625000 0
  0.812500   0.875000 0
  0.875000   0.734375 0
  0.812500   0.984375 0
  0.875000   0.718750 0
  0.812500   0.968750 0
  0.875000   0.703125 0
  0.812500   0.953125 0
  0.875000   0.687500 0
  0.812500   0.937500 0
  0.875000   0.609375 0
  0.812500   0.859375 0
  0.875000   0.593750 0
  0.812500   0.843750 0
  0.875000   0.578125 0
  0.812500   0.828125 0
  0.812500   0.812500 0
  0.875000   0.546875 0
  0.812500   0.796875 0
  0.812500   0.781250 0
  0.812500   0.765625 0
  0.859375   0.750000 0
  0.796875   1.000000 0
  0.859375   0.625000 0
  0.796875   0.875000 0
  0.859375   0.734375 0
  0.796875   0.984375 0
  0.859375   0.718750 0
  0.796875   0.968750 0
  0.859375   0.703125 0
  0.796875   0.953125 0
  0.859375   0.687500 0
  0.796875   0.937500 0
  0.859375   0.609375 0
  0.796875   0.859375 0
  0.859375   0.593750 0
  0.796875   0.843750 0
  0.859375   0.578125 0
  0.796875   0.828125 0
  0.859375   0.562500 0
  0.796875   0.812500 0
  0.796875   0.796875 0
  0.859375   0.531250 0
  0.796875   0.781250 0
  0.796875   0.765625 0
  0.843750   0.750000 0
  0.781250   1.000000 0
  0.843750   0.625000 0
  0.781250   0.875000 0
  0.843750   0.734375 0
  0.781250   0.984375 0
  0.843750   0.718750 0
  0.781250   0.968750 0
  0.843750   0.703125 0
  0.781250   0.953125 0
  0.843750   0.687500 0
  0.781250   0.937500 0
  0.843750   0.609375 0
  0.781250   0.859375 0
  0.843750   0.593750 0
  0.781250   0.843750 0
  0.843750   0.578125 0
  0.781250   0.828125 0
  0.781250   0.812500 0
  0.843750   0.546875 0
  0.781250   0.796875 0
  0.781250   0.781250 0
  0.843750   0.515625 0
  0.781250   0.765625 0
  0.828125   0.750000 0
  0.765625   1.000000 0
  0.828125   0.625000 0
  0.765625   0.875000 0
  0.828125   0.734375 0
  0.765625   0.984375 0
  0.828125   0.718750 0
  0.765625   0.968750 0
  0.828125   0.703125 0
  0.765625   0.953125 0
  0.828125   0.687500 0
  0.765625   0.937500 0
  0.828125   0.609375 0
  0.765625   0.859375 0
  0.828125   0.593750 0
  0.765625   0.843750 0
  0.828125   0.578125 0
  0.765625   0.828125 0
  0.828125   0.562500 0
  0.765625   0.812500 0
  0.765625   0.796875 0
  0.828125   0.531250 0
  0.765625   0.781250 0
  0.765625   0.765625 0
  0.812500   0.750000 0
  0.750000   1.000000 0
  0.953125   1.000000 0
  0.812500   0.734375 0
  0.750000   0.984375 0
  0.812500   0.718750 0
  0.750000   0.968750 0
  0.812500   0.703125 0
  0.750000   0.953125 0
  0.812500   0.687500 0
  0.750000   0.937500 0
  0.812500   0.671875 0
  0.750000   0.921875 0
  0.812500   0.656250 0
  0.750000   0.906250 0
  0.812500   0.640625 0
  0.750000   0.890625 0
  0.812500   0.625000 0
  0.750000   0.875000 0
  0.812500   0.609375 0
  0.750000   0.859375 0
  0.812500   0.593750 0
  0.750000   0.843750 0
  0.812500   0.578125 0
  0.750000   0.828125 0
  0.750000   0.812500 0
  0.812500   0.546875 0
  0.750000   0.796875 0
  0.750000   0.781250 0
  0.812500   0.515625 0
  0.750000   0.765625 0
  0.796875   0.750000 0
  0.734375   1.000000 0
  0.796875   0.734375 0
  0.734375   0.984375 0
  0.796875   0.718750 0
  0.734375   0.968750 0
  0.796875   0.703125 0
  0.734375   0.953125 0
  0.796875   0.687500 0
  0.734375   0.937500 0
  0.796875   0.671875 0
  0.734375   0.921875 0
  0.796875   0.656250 0
  0.734375   0.906250 0
  0.796875   0.640625 0
  0.734375   0.890625 0
  0.796875   0.625000 0
  0.734375   0.875000 0
  0.796875   0.609375 0
  0.734375   0.859375 0
  0.796875   0.593750 0
  0.734375   0.843750 0
  0.796875   0.578125 0
  0.734375   0.828125 0
  0.734375   0.812500 0
  0.734375   0.796875 0
  0.796875   0.531250 0
  0.734375   0.781250 0
  0.734375   0.765625 0
  0.781250   0.750000 0
  0.718750   1.000000 0
  0.921875   1.000000 0
  0.781250   0.734375 0
  0.718750   0.984375 0
  0.781250   0.718750 0
  0.718750   0.968750 0
  0.781250   0.703125 0
  0.718750   0.953125 0
  0.859375   0.906250 0
  0.781250   0.687500 0
  0.718750   0.937500 0
  0.781250   0.671875 0
  0.718750   0.921875 0
  0.781250   0.656250 0
  0.718750   0.906250 0
  0.781250   0.640625 0
  0.718750   0.890625 0
  0.781250   0.625000 0
  0.718750   0.875000 0
  0.781250   0.609375 0
  0.718750   0.859375 0
  0.781250   0.593750 0
  0.718750   0.843750 0
  0.781250   0.578125 0
  0.718750   0.828125 0
  0.781250   0.562500 0
  0.718750   0.812500 0
  0.781250   0.546875 0
  0.718750   0.796875 0
  0.781250   0.531250 0
  0.718750   0.781250 0
  0.781250   0.515625 0
  0.718750   0.765625 0
  0.765625   0.750000 0
  0.703125   1.000000 0
  0.765625   0.734375 0
  0.703125   0.984375 0
  0.765625   0.718750 0
  0.703125   0.968750 0
  0.765625   0.703125 0
  0.703125   0.953125 0
  0.765625   0.687500 0
  0.703125   0.937500 0
  0.843750   0.890625 0
  0.703125   0.921875 0
  0.765625   0.656250 0
  0.703125   0.906250 0
  0.765625   0.640625 0
  0.703125   0.890625 0
  0.765625   0.625000 0
  0.703125   0.875000 0
  0.765625   0.609375 0
  0.703125   0.859375 0
  0.765625   0.593750 0
  0.703125   0.843750 0
  0.765625   0.578125 0
  0.703125   0.828125 0
  0.765625   0.562500 0
  0.703125   0.812500 0
  0.765625   0.546875 0
  0.703125   0.796875 0
  0.765625   0.531250 0
  0.703125   0.781250 0
  0.765625   0.515625 0
  0.703125   0.765625 0
  0.750000   0.750000 0
  0.687500   1.000000 0
  0.890625   1.000000 0
  0.750000   0.734375 0
  0.687500   0.984375 0
  0.750000   0.718750 0
  0.687500   0.968750 0
  0.578125   0.796875 0
  0.578125   0.781250 0
  0.578125   0.765625 0
  0.546875   0.953125 0
  0.546875   0.968750 0
  0.546875   0.718750 0
  0.546875   0.687500 0
  0.250000   0.609375 0
  0.937500   0.031250 0
  0.046875   0.703125 0
  0.734375   0.062500 0
  0.734375   0.078125 0
  0.734375   0.046875 0
  0.046875   0.593750 0
  0.046875   0.562500 0
  0.046875   0.531250 0
  0.718750   0.156250 0
  0.046875   0.609375 0
  0.734375   0.031250 0
  0.062500   0.609375 0
  0.234375   0.703125 0
  0.718750   0.125000 0
  0.046875   0.578125 0
  0.734375   0.000000 0
  0.062500   0.578125 0
  0.000000   0.828125 0
  0.234375   0.671875 0
  0.234375   0.625000 0
  0.718750   0.093750 0
  0.687500   0.156250 0
  0.062500   0.546875 0
  0.000000   0.796875 0
  0.718750   0.046875 0
  0.031250   0.687500 0
  0.687500   0.171875 0
  0.500000   1.000000 0
  0.078125   0.218750 0
  0.234375   0.593750 0
  0.718750   0.062500 0
  0.687500   0.125000 0
  0.000000   0.765625 0
  0.421875   0.500000 0
  0.031250   0.593750 0
  0.718750   0.015625 0
  0.687500   0.234375 0
  0.015625   0.812500 0
  0.703125   0.171875 0
  0.703125   0.187500 0
  0.703125   0.140625 0
  0.015625   0.781250 0
  0.437500   0.515625 0
  0.500000   0.796875 0
  0.078125   0.015625 0
  0.687500   0.203125 0
  0.250000   0.578125 0
  0.703125   0.109375 0
  0.000000   0.515625 0
  0.500000   0.765625 0
  0.062500   0.593750 0
  0.750000   0.015625 0
  0.015625   0.843750 0
  0.687500   0.000000 0
  0.500000   0.828125 0
  0.078125   0.046875 0
  0.015625   0.531250 0
  0.250000   0.546875 0
  0.703125   0.078125 0
  0.703125   0.031250 0
  0.015625   0.671875 0
  0.250000   0.515625 0
  0.000000   0.656250 0
  0.500000   0.906250 0
  0.078125   0.125000 0
  0.687500   0.015625 0
  0.031250   0.546875 0
  0.687500   0.031250 0
  0.500000   0.859375 0
  0.703125   0.000000 0
  0.703125   0.046875 0
  0.703125   0.015625 0
  0.500000   0.937500 0
  0.234375   0.531250 0
  0.031250   0.578125 0
  0.687500   0.062500 0
  0.500000   0.890625 0
  0.031250   0.796875 0
  0.453125   0.531250 0
  0.500000   0.968750 0
  0.078125   0.187500 0
  0.234375   0.562500 0
  0.031250   0.609375 0
  0.718750   0.031250 0
  0.687500   0.093750 0
  0.750000   0.046875 0
  0.000000   0.937500 0
  0.421875   0.671875 0
  0.718750   0.187500 0
  0.031250   0.828125 0
  0.765625   0.062500 0
  0.015625   0.953125 0
[...]
CELL_DATA 7648
SCALARS scalar_value float 1
LOOKUP_TABLE default
0
0
0
0
0
0
0
0.0187044
0.00664345
0.000504246
0.000354401
0
0
0
0
0.0687359
0
2.48521e-10
-5.33406e-10
0
0.00148757
5.27652e-06
3.65056e-09
-1.44889e-10
-1.11933e-06
1.5345e-09
-2.92415e-10
2.09595e-10
5.24495e-10
0
0
0
0
0
0
0
0
0
0.00221898
-0.00204304
0
0.181155
5.84428e-07
0
0
-2.46457e-09
-9.395e-08
-4.3042e-08
0
0
0
0
0
0
-0.00203742
0.000103526
1.68959e-05
2.24627e-05
-2.18742e-06
0
0
-4.46864e-09
0
-7.43379e-10
-1.64895e-10
-7.26224e-10
2.72631e-10
0
0
0
0
0
0
0
0
2.61763e-07
1.00912e-10
3.00042e-09
4.27978e-10
0.358884
-2.12857e-10
-1.89023e-10
-1.50262e-05
-1.61987e-10
0
0
0
2.54571e-08
-2.90916e-08
7.90094e-10
0
0.000280046
0
0
0
0
0
0
0
0
0
0
0
0
-1.07974e-05
0
-9.42328e-08
-9.58773e-08
-4.20023e-06
1.14042e-07
-6.02257e-08
1.44587e-07
2.09037e-06
5.6774e-06
0
0
-1.2821e-05
0
0
0
0
2.64965e-06
-3.02671e-06
0
0
0
0
2.8401e-05
-4.73297e-05
-1.72158e-05
-7.62845e-06
0
-6.90995e-08
0.0317778
0
0
-8.21187e-05
-2.76604e-09
0.000187449
8.3198e-10
0
0
0
0
0.916665
0
0
0
0
-1.60105e-06
0
0
0.000929983
0
-0.00170393
0
0
-9.25153e-06
1.56682e-06
-9.88037e-06
-5.3696e-06
5.05535e-06
0
0
3.80524e-10
2.66713e-08
0
0
0
3.58496e-06
0
2.22109e-06
0
0
6.38048e-06
-0.00207131
0.000120444
0
0
-4.38647e-09
2.47732e-08
0
0
0
0
0
0
-8.31887e-06
0
-5.08893e-06
0.0273197
0
0
0
0
0
0
0.113054
0
0
0
0
-8.62337e-06
2.81632e-05
1.00711e-10
0
6.45987e-05
-6.7441e-06
0
0
0
0
0.00069044
6.74367e-05
7.32819e-06
4.93385e-06
1.66634e-05
0.00415634
0.000851311
4.8044e-05
-2.66929e-05
0
0
0.00220236
0
1.2648e-10
0
-1.96111e-09
4.36017e-10
0.000189001
3.77949e-06
5.82965e-10
1.39375e-09
0.000160161
-7.1472e-06
-0.000408986
0.000315514
0.000281913
0
0
0
0
0.000479678
-1.10386e-05
-0.000912658
0
0
0
0
-7.11346e-09
0
-2.57814e-08
0
-2.61978e-08
-2.22658e-06
0
0
0
0
2.87821e-05
0
0
0
0
0
3.73898e-07
4.1298e-06
0
0
0
1.39824e-07
0
3.90577e-08
9.13329e-09
1.42324e-08
0
-1.5515e-07
1.42596e-06
0.0136954
0.0397883
-2.47379e-05
5.43533e-05
0
0
0
0
0
4.53372e-05
9.23525e-05
0
0
0
0
0.0222702
0.00464485
0.00131926
0
0
-6.58648e-05
0
0.0118112
0.120779
0.103327
0
0
0
0
0
0
0
0
0
0
0
0.000669973
0.00299683
0.00166804
0
0
0
0
0
0
2.5903e-09
0
0
-5.9126e-06
3.37681e-07
5.69212e-07
3.70569e-07
0.344913
0.0051232
0
0.805489
0.0573898
0
0
0
0
0
0.807489
0.000230905
0.36532
0.677446
0
-4.80705e-05
-2.1815e-07
2.24443e-08
0
0
0
0.00116674
-1.88895e-06
-1.41718e-05
6.95895e-05
0
0
1.99411e-10
0.0143271
0.107847
0
0
-1.07375e-06
0
0
-0.00149503
1.54879e-06
4.18046e-05
1.2158e-05
0.00217939
-2.84263e-08
0
0
2.90689e-06
1.63683e-06
6.50248e-08
-2.82041e-05
-4.19845e-05
-1.63382e-06
-3.5338e-05
-5.66324e-06
0
-0.000228604
0.000429249
-5.34613e-06
-0.000379803
0
0.361301
-1.47703e-08
-1.89862e-10
2.69738e-09
-9.84085e-10
4.5087e-05
-3.99764e-05
7.77673e-06
7.58384e-05
-7.87195e-06
1.70235e-05
0.000320484
-3.22532e-05
-8.62842e-05
0
-8.28114e-10
1.45084e-09
-2.95406e-08
0
-0.000371742
-0.00612493
0.0239635
0
0
-0.000479394
0
0.000177606
0.000654397
0
0
1.45927e-07
-1.0788e-05
-3.66733e-06
-3.82342e-05
4.77106e-07
0
-6.42381e-10
0
-0.000473973
-0.00158166
0
1.21144e-10
0
0
0
0
1.14647e-08
-6.96538e-07
0
0
0
0
0
0
-3.88976e-09
0.641884
9.14671e-09
0
0
4.33134e-08
0
0
0
0
0
-9.59366e-08
0
0
0
0
-7.00903e-08
0
0
-7.45062e-07
1.15925e-10
0
-8.45679e-10
0.433562
0
-2.78512e-10
5.68506e-07
1.61283e-08
0
-7.26432e-06
-4.28736e-06
4.69176e-06
0
0
7.10052e-05
0
0
0
0
0
-7.21884e-07
1.76175e-05
1.57247e-05
0
0
0
3.88023e-10
0
0
-3.35392e-10
0
0
0
0
0
0
-6.08583e-10
0
0
0.346271
-4.20556e-09
1.11461e-09
0
0
0
1.16629e-10
-2.61414e-08
0
1.52848e-08
0
9.46629e-09
1.1494e-08
0
1.72996e-07
1.06998e-06
0
0.147537
0.0165737
0
0
1.77591e-05
0
-1.42697e-09
1.19836e-09
0
0
0
2.68633e-08
0
0
0
0
0.000150064
-0.000411494
0
0
0
0
-6.69483e-05
0
0
0.491533
-1.84192e-10
0
4.22549e-06
-1.47465e-06
0
0
0.000699405
-0.000105741
0
0.000496771
0.00122102
0
0.000540087
0
0.911786
0
-0.00129534
0
0
0.00116226
0
0
0.000234204
-2.66672e-10
0.00211325
0
0
0
-0.00105863
0
0.00513933
0.000971447
0.00294659
0.00550643
0
0.00103792
0
0
0
2.069e-09
-0.000203553
-3.3121e-10
5.93296e-08
0
4.2684e-08
0
0
0
0
3.11789e-07
0
0
0
-9.28695e-08
0
0
4.70742e-07
0
0
0
0
0
0.00133567
0
0
3.65689e-05
1.41114e-07
5.50682e-08
-3.14554e-05
0
0
1.51837e-07
0.904679
0.000292079
0.031116
3.5792e-07
0
3.62445e-09
-0.000130027
2.97836e-06
0.000584739
0
-0.00108954
4.42097e-06
0.00124799
-0.00126642
0.0179788
0.874177
0
0
0.575733
-9.0976e-10
0
2.13359e-08
0
0
0.000658409
-2.86153e-09
0
-1.05094e-09
0
0
2.09466e-07
-2.93261e-10
0
1.14176e-10
1.86645e-08
0
0
0
5.95076e-06
0.000315456
-3.73256e-08
0
1.36805e-06
0
-0.000150738
0
-5.69317e-10
0
0
-0.00157558
1.56572e-09
0
0
0
-4.32851e-06
0.00223574
0
0
0
5.47227e-07
0
0.00429955
0.000117286
9.11148e-10
0
0
-0.000600172
0
-4.7604e-06
0
0
-7.98204e-09
0
9.43023e-10
-1.64878e-09
0
0
0
-0.000556716
-1.11994e-10
5.58977e-05
-1.86722e-06
0
0
0
-1.32037e-05
0
-0.000650593
1.13145e-07
0
0
0
0
-2.44963e-10
0
0.000837631
0
0.0219759
-1.73517e-07
0.176748
6.91618e-05
5.81732e-05
2.00259e-10
3.16243e-06
0
0
0
-1.34914e-07
0
0
2.23534e-05
0
0
0
4.83199e-07
0
-3.76716e-10
0
-1.93726e-08
0
0
0
0
-5.36981e-09
2.7148e-09
9.88453e-06
-5.32861e-10
0
0
-8.70403e-05
0
1.07169e-10
1.23391e-05
0
0.00247405
0
0
1.83936e-06
0
0
8.82722e-07
0
-1.85993e-06
5.56089e-07
0
1.77499e-05
0
0
1.27915e-07
0
0
0
0
0
2.55609e-08
0
0
0
0
0
0.285837
0
0
0
0
0
0
0
0
-1.08743e-09
-4.79069e-10
0
0
5.15113e-06
0
0
0
0.000273127
0
0
0.83879
2.4415e-05
1.00095e-08
-1.6353e-08
0
0
0
0.00622403
0.00111025
0
0.293833
6.89831e-06
0.00186006
4.81883e-05
0
0.000733985
-0.000663768
-1.94957e-05
-2.56293e-08
0
0
0
0
-1.16018e-10
0
0
0
3.18455e-10
0
0
0
0
0
0
0
1.66341e-07
0.000242161
1.70896e-05
0
0
0
-0.000228572
2.82822e-09
0
0
0
-1.88447e-10
0
0
0
0
0
4.65421e-10
0
0
-7.42286e-10
0
0
0
0.00201442
-3.05569e-10
0
0
0.628386
0.478503
-0.000110655
0.152285
3.60357e-09
-5.15562e-07
0.000606311
0
0
0
0
0
0
0
1.45492e-08
2.53606e-06
3.378e-09
0
0
0
-4.15892e-08
0
0
0
0.00720454
0
0
0
4.53605e-07
-2.17529e-08
0
0
0.000166092
-3.81571e-09
-1.37854e-09
0
0
0
0
0
0
-2.68924e-06
0
0
2.01199e-05
0
-1.76515e-09
-1.35993e-06
5.28268e-08
-1.44246e-07
0
-4.19412e-07
1.21169e-07
0
0
0
-6.15387e-09
0
0
0
0
0
0
0
0
-1.06742e-10
0
0
-5.79781e-10
0
-1.31663e-10
-9.62274e-10
0
-4.66662e-06
-7.33096e-08
0
5.14773e-06
0
1.11535e-07
0
4.02237e-10
0
0
0
-2.05968e-08
0
0
0
4.12524e-10
-4.42337e-08
0
0
0
0
0.000671896
0.774083
0.000111666
0.00012413
0
0
0.00273966
0
0
0
0
0
0
0
0.00145079
0
0.123765
0
0
-8.57654e-07
0.17439
0
0.263313
0
0
0
-8.75989e-08
1.40131e-07
0
0
0
0
0
1.16727e-07
-3.31322e-09
0
0
3.20355e-10
0
0
6.22727e-08
0.598959
0
0
3.74995e-09
-4.15526e-09
0
0
0
-4.92185e-10
-3.36831e-08
0
0
0
0
0
0
0
0
3.17776e-09
0
0
-1.06166e-10
1.90964e-10
0.0766554
0
0
0
0
2.05371e-08
0
0
0
0
0
0
-0.000978521
0
0
0
-1.11039e-07
1.19794e-06
0
0
0.00204231
0
0
0
-0.000104282
-0.00192918
3.87858e-08
2.1836e-06
0
0.0686714
0.208648
-6.1701e-09
-6.50829e-05
-2.82586e-06
0
-9.0781e-10
1.57769e-08
1.02649e-09
0
0.387551
0
0
0
0
0
0
0
0
0
3.5678e-10
0
0
0
2.65466e-10
0.869211
0
0.807946
6.06096e-09
0
0
2.3318e-10
0
-2.69101e-07
0.0024412
9.25568e-07
-1.38819e-10
0
0
1.07876e-05
0
-3.01384e-06
0
3.92518e-07
0
0
0
0
0
0
2.22411e-06
7.89755e-06
-4.71236e-06
-1.52953e-10
-4.43494e-09
0
-7.76117e-07
-6.76988e-09
0
1.39261e-10
0
-1.13946e-06
0
-1.38757e-09
-1.04874e-10
3.34865e-07
0
0
-4.38861e-07
0
0
0
4.22196e-06
0
0
0
0
-2.57569e-09
-4.94971e-09
0
0
0
0
0
0
0
0
1.51694e-08
1.29161e-08
1.66313e-08
0
0
0
0
0
0
0
0
0
0
-0.00126769
0.0282892
0.109978
0.0826585
0
0
0
0
0
2.03637e-08
0.0526055
0
0.104761
0
0
0
0
0
0
0
-0.000543706
0
0
0
7.62212e-10
-1.67178e-10
0
0
0
0
0
0
1.05966e-10
-1.13699e-09
0
0
0
0
0
0
0
0
0
0
1.41689e-07
2.68206e-07
4.52532e-08
0
4.84814e-09
0
0
0
0
0
0.746757
-1.68026e-07
0.0398175
0.236737
0
0.0529863
0
0
0
0
0
0
0
0
-0.000157926
0
0
0
0
0
1.86183e-05
-1.67421e-09
1.19576e-08
1.05587e-07
-5.28849e-08
0
0
0
0
0
0
0
0
0
0
0
0.000300035
0.00501392
0.00674438
0.020482
0.433284
0
0.0799067
-2.65645e-07
4.26448e-09
0
0
0
0
3.97564e-08
0
-1.63585e-07
0
5.17551e-10
0.66826
0
-0.000122148
0
0
0
0
8.43431e-06
0
0
0
0
0
0
0
0
0.290991
1.37203e-10
0.833506
0
0
0
0
2.78174e-10
0.878959
0
0
0
0
0
9.21613e-10
0
-3.43412e-06
0
0
-5.17641e-07
0
-4.13863e-08
3.95285e-09
-2.08374e-08
0
0
0
0
0
0
0
0
0
1.11845e-09
-5.86299e-06
-4.11526e-05
0
-1.85242e-10
0
0
0
0
0
-5.02381e-07
1.57731e-05
0
0
0
0
0
0
0
0
1.33301e-07
2.68349e-08
6.05224e-07
3.77386e-08
0
0
0
0
0
0
0
0
0.0380577
-7.3214e-06
0
0.000914952
0.845068
0
1.58661e-10
5.06488e-10
0
0
0
0
0.0586078
0.0277331
8.34396e-07
-1.34178e-07
0.543629
0.724052
-9.03824e-08
0
0
0
0
0
0
0
0
0
0
0.216228
0
0
-3.98213e-10
2.73152e-08
1.43142e-08
0
0.000738297
0.172707
0
0
0
0
0
0
0
1.23e-08
-4.25416e-08
-3.45624e-09
0
0
0
0
0
0
0
0
0
0
0
-3.50618e-05
-7.38846e-05
0
0
0
0
0
0
-1.74388e-09
0
0
0
0
0
0
0
0
0
0
0
0.513588
-2.63133e-06
-7.68886e-06
8.05548e-05
0
0
0.678196
0
0
-1.77689e-09
8.05958e-07
1.66084e-09
0
0.602077
0
0
0
0.00228558
0.00736473
1.14786e-07
7.71869e-07
-1.2457e-07
0.012831
0
0
0
0
0
0
0
0
0
0
0
0
1.14945e-08
0
0
0
0
-4.19594e-06
2.40481e-07
2.01989e-08
0
0
0
0
0
0
-8.25689e-10
0
0
0
0
0
0.000297516
0
0
-2.93595e-05
4.21147e-05
5.0686e-05
3.72784e-10
1.55751e-07
0
0
3.72675e-09
1.30058e-09
0
0
0
0.000544384
0
0.00300856
1.37144e-05
0
0
2.02451e-07
-1.12965e-07
0
0
0
0.000619252
0
0
0
0
-5.00201e-06
0
0
0
0
0
0
0
0
0
0.0138054
0
-2.2651e-05
4.5613e-05
0
-7.07909e-05
-3.44819e-10
5.35795e-06
2.81416e-06
0
0
1.12749e-06
-3.45737e-07
-1.87936e-07
-3.66548e-07
0
-3.54479e-05
0
0
0
0.000306901
0.000539942
7.10131e-06
8.17676e-06
3.19975e-05
2.90725e-05
0
0
0
0.00312197
0.000299432
0.00403393
0
0
0
0
0
0
0
0
0
1.30848e-09
-8.64631e-10
3.19621e-09
5.35925e-09
3.90806e-09
0
0
-1.46528e-08
-2.07174e-08
-2.85403e-08
4.46805e-09
2.89363e-09
-3.26536e-09
0
0
0
0
0
0
0
0
0
0
2.44922e-08
0
0
0
0
0
0
0
0
0
0
0
0.439261
0.742561
0.884832
0
0
3.55705e-10
-1.38595e-06
3.68648e-06
0.000995521
0.000433245
0.00076061
0
-1.52209e-10
0
-1.02718e-05
0
-0.000105589
-2.17766e-09
3.58375e-09
2.22139e-08
0
0
-1.40095e-08
-8.00403e-09
3.89457e-07
0
0
0
0
0
0
0
0
0
0
0.496931
0.277443
0
0
0
0
0
0
1.77299e-06
-0.000135065
0
0
0
0
0
0
0
0
0
0
6.58148e-09
0
0
0
-1.34252e-08
-1.78912e-08
0
0
0
0
0
0
-3.71318e-07
6.37656e-06
0
0
0
2.20348e-07
-7.69082e-07
1.94756e-06
-8.87417e-07
1.15855e-06
1.60334e-07
0
0
-2.59581e-09
2.13956e-09
1.43055e-09
-1.8864e-07
1.66636e-07
0
-5.4283e-08
0
0
0
0
0
0
0
0
0
0
0
0
1.43209e-10
0
0
0
0
0
0
0
0
0
0
5.17375e-05
1.30104e-05
0.000393537
-0.000303153
-9.45762e-07
-6.82414e-06
-1.34887e-08
7.753e-10
0
-9.97451e-10
-1.84647e-07
-4.47178e-06
2.64627e-05
0
0
0
0
0
0
0
0
0
0
-8.02177e-07
9.41787e-07
0
0
0
0
0
0
-3.28771e-09
0
0
0
0
0
0
0
0
0
0.244336
0.53555
0.7351
0.0810615
3.39089e-08
1.22202e-07
-2.42453e-06
0
0
0
0
0
0
7.76299e-06
0.00739434
1.13051e-08
-7.7231e-09
0
0
0
-1.27003e-07
-1.2851e-07
9.82265e-07
0.0359249
0.162376
0
0
0
0
0
0
0
0.247496
-0.00542189
0
0
0
0
0
0
0
0
0
9.38765e-05
0.000212926
0
0
0
0
0
0
6.15172e-09
2.0369e-09
3.02058e-09
0
0
-2.31533e-09
1.46187e-08
0
0
0
0
0
0
0
0
0
0
0
0
0
1.32156e-07
-1.07986e-07
1.35047e-08
6.54418e-08
0
0
0
0
0
0
0
-3.71786e-08
-3.60461e-09
0.0997272
0
0
0
0
0
0
0
0
0
0
-9.06791e-08
1.78189e-08
0
0
0
0
5.12868e-09
0
-6.64334e-10
0
-5.91525e-09
0
0
0
0
0
0
0
0
0
0
0
0
0
4.98391e-09
-1.57316e-08
3.68814e-08
-1.55722e-07
0.010943
0
0
0
0
0
0
0
0
0
0
0.00027057
0.000587105
0
0
0
0
0
0
0
0
-2.03601e-09
-2.57173e-09
0.00040661
1.82035e-06
1.76557e-06
-1.90877e-07
0
0
0
0
0
0
0
0
0
0
-9.49044e-10
1.361e-09
0
0
0
0
0
0
0
0
0
0
0
0
0
2.10592e-05
-0.00549109
0.00125161
0.0129624
0.0265843
0.0348185
0.0299003
0.0198881
0.0232149
0.0437871
0.0659774
0.0719166
0.0578271
0.0317314
0.00376604
-0.0163632
-0.0237281
-0.0190805
-0.00990124
-0.00382152
0.000356136
0.00355797
0.0017498
-0.00897591
-0.0247657
-0.0327758
-0.0245817
-0.00257901
0.0568043
0.215799
0.478534
0.739269
0.891098
-0.00298424
0.00525194
0.0351941
0.0279938
0.0216238
0.0703024
0.0741913
0.0304542
-0.0150153
-0.0299655
-0.00467729
-0.00198237
0.873066
0.000763168
0.00614071
0.008065
0.00597507
0.00488391
0.00982719
0.0205978
0.0309861
0.0325579
0.0244492
0.0146244
0.00846722
0.00598139
0.00731191
0.00944595
0.00538956
-0.00376257
-0.00790728
-0.00452134
0.000967967
0.00410327
0.00291057
-0.00431256
-0.0122019
-0.0133828
-0.0106077
0.00283601
0.0734063
0.262002
0.549478
0.801449
0.910677
-0.0100422
-0.00515819
0.00723039
0.0171314
0.00968989
-0.00518004
-0.00230101
0.000955613
0.00453221
0.000240976
0.00242535
-0.00419005
-0.00398528
-0.00436327
-0.00184005
0.00133323
0.00101473
1.7954e-05
-0.00184729
-0.00567296
-0.00367092
0.00359717
0.00434911
0.00247677
0.00179458
0.000267411
-0.00237231
-0.00213331
-0.000978805
-0.00256848
-0.00289755
-0.00333542
-0.00493239
-0.010664
-0.0169171
-0.0133731
0.00156299
0.030034
0.119741
0.348877
0.657357
0.868486
0.923026
-0.00113426
-0.00155517
-0.00323159
-0.00169976
0.00372118
0.00746913
-0.005959
0.00673878
-0.000161785
0.000498608
2.07855e-05
0.00156759
-0.0295452
6.85416e-05
0.000427646
5.70931e-05
-0.0018807
-0.0173647
4.90044e-05
-0.00253103
5.20031e-05
-0.00237207
-0.00166851
-0.00499598
5.92564e-05
0.000408004
7.34313e-05
0.000509903
0.00781076
0.00360527
0.00120657
0.00320889
0.00262048
6.13844e-05
-0.00507208
-0.00189524
-0.00649457
-0.00259165
0.00242796
-0.00111746
0.0099884
-0.000997918
-2.71403e-05
-0.00116496
0.00185936
-9.25952e-05
-0.00241181
-6.36038e-05
-0.00115972
0.0042926
-4.42112e-05
0.0016429
-5.43638e-05
0.00410254
-0.000719664
-4.84408e-05
0.00327039
-2.92668e-05
0.00193741
3.68634e-05
0.00419132
-0.00106449
0.00316745
0.000589357
-0.000802507
0.000359009
-0.000351439
9.97267e-06
-0.000118623
-0.000602938
-7.08516e-05
-2.77261e-05
0.00202685
-0.000253652
-0.000160898
-0.00184464
0.0104445
2.78758e-05
0.0126808
0.00142019
0.0032828
-0.000124649
8.01015e-05
0.00415465
0.000177206
0.000357458
0.000497789
-1.29511e-05
0.000331387
0.000446385
-5.83484e-05
0.000504293
-0.000656657
0.00452743
-3.90088e-05
4.26819e-05
0.000261449
0.0128656
-5.23086e-05
0.654089
3.93798e-05
-0.000126751
0.788729
-7.96523e-05
0.000942896
-7.84898e-06
0.000804334
0.000166831
-2.40457e-05
0.000206053
-0.00148234
-2.11307e-05
-0.00400826
-0.00342586
-2.37712e-05
6.62567e-05
-3.05553e-08
-5.32051e-05
-0.000612329
0.00232626
-0.000199024
-1.11252e-05
0.00039608
-2.60318e-05
-0.00413385
0.000105175
-0.00421385
0.000169954
-0.00278011
7.14952e-05
-0.00108827
-0.000782215
-0.0013896
-0.00387458
-0.000835492
-0.00494597
-0.00249148
0.00139873
0.00301819
0.00233486
0.000783925
0.000148322
0.000301894
0.000212995
4.48266e-05
-0.00462628
-4.7488e-05
-0.000390451
-0.00034003
-0.000255101
-3.63251e-05
0.000331375
0.000269752
0.000322027
0.190763
0.00021259
8.43542e-05
-0.0157501
8.75421e-06
0.00071801
0.00135013
0.000706677
-0.000512172
0.000720685
0.00280457
4.31133e-05
0.000145646
-0.000184183
0.000710878
-1.15355e-05
0.00149856
-1.88161e-06
-0.00554779
0.000206428
-0.00435624
0.0143608
0.000115679
-0.00351104
0.00139002
-0.0150256
0.00012759
-0.00302773
-0.000511229
0.000183357
-0.00277125
-0.00296441
0.00302932
-0.00358383
-0.00426918
-0.000351387
-0.00507313
-0.00406922
-0.00656261
-0.0062677
-0.00212057
-0.000307761
-0.00763817
0.000138708
-0.022388
0.000223648
-0.0105548
0.00115928
-0.00186359
0.00146858
-0.00282792
-0.0121083
-0.000117541
0.0101149
-0.000162125
0.00759286
-0.000150646
0.000845948
-0.00165491
-8.29952e-05
-0.00589565
0.00704471
-0.0149056
5.2218e-07
0.000185223
0.0077365
-3.67341e-06
0.000172349
-0.0273666
-1.48002e-06
0.000435831
0.0109144
-9.81189e-07
0.000468102
0.000333631
-1.27519e-06
0.00029351
0.00200165
-1.03192e-06
0.000218626
0.164893
-1.09258e-06
0.000236887
0.40017
0.00483409
-9.01302e-07
0.000299707
0.000179721
0.00213287
0.000183265
0.00212618
-0.000616857
0.00192693
-5.88564e-06
0.000305195
0.00076673
0.00163348
0.000366101
-0.000135257
9.72751e-05
0.000221463
0.000105886
-0.00118218
-0.00072385
-0.000200956
-0.0011121
-0.000754219
0.000494084
0.000465477
-0.00056923
5.33618e-05
-0.00255292
-0.00178529
-0.00034701
-1.49658e-05
-0.00168132
0.000920433
0.00023017
0.00334603
0.00218451
0.000271297
0.0040656
0.00359516
0.00014727
0.00394595
0.00421172
-0.000977483
7.62146e-06
0.00317755
0.00462069
-9.15619e-06
0.00285784
0.00365447
-0.00652193
0.00424002
0.00176873
-7.67043e-05
0.00600149
-0.000223934
-0.016578
0.00588755
-0.00106956
-0.0206469
-0.00116467
0.0041108
-0.000597881
-0.0143287
-0.00106232
0.0039154
-0.000606879
0.00104899
-9.60279e-05
-6.35236e-05
0.00941974
-6.30238e-05
0.0198557
-4.24519e-05
0.00069991
0.0163381
0.00166718
-0.00184914
-1.41535e-05
-0.000186001
-0.000866144
-0.0276948
-1.0003e-06
3.2574e-05
0.000487588
6.17462e-07
0.000266846
-0.0287585
-8.83404e-08
0.000260915
-0.00111639
-5.40268e-07
0.000262034
0.0463175
-5.80445e-07
0.000151174
-0.000122678
-5.87157e-07
8.11638e-05
0.481319
-3.36824e-07
-0.000101324
0.55957
0.000742763
-4.51829e-08
-0.000220235
-0.000227543
-0.000457673
-0.00049364
-0.000129011
8.71752e-05
-3.33822e-06
0.000484631
0.000361235
-0.000192579
-0.000791964
-0.00173498
1.51435e-05
6.88338e-07
-5.22383e-06
-7.14053e-05
1.16736e-05
2.94222e-05
0.000992707
-0.00281169
0.00170487
0.000485047
0.0017403
0.000658998
-0.000109909
0.00197464
-0.00065444
0.00168624
4.1256e-06
0.000472831
-0.000701946
5.80512e-05
-0.000236644
8.59898e-05
0.000426061
0.00655987
-0.00186699
-0.00395365
-6.33454e-05
0.0113859
0.00113289
-0.000302474
-0.00042123
0.0117252
0.000214576
0.00572224
0.00109401
0.0183196
0.000565447
0.00655315
-0.00180812
-9.44466e-05
-0.00730256
-0.00129591
-0.0002079
0.000318045
0.00104037
-9.83392e-07
0.000266434
0.000275025
0.000204448
-3.75581e-07
0.000335925
0.000493492
-0.000652452
0.000863859
-0.000366807
-5.61178e-05
-1.98841e-05
0.000787531
-0.00354902
0.000239183
4.59555e-05
-0.000331866
-0.000749809
0.000506712
0.000141529
0.00124284
6.73613e-05
0.000850428
-0.000806307
-0.000108516
-0.000714092
-0.00150626
-4.10531e-05
-0.000193465
-0.00118108
-0.0041047
0.00020569
0.000254311
-0.00111126
0.000339896
0.00445114
1.45211e-06
0.00146348
-8.83411e-05
-0.000555142
5.68876e-05
-0.000361598
-0.000161953
-8.86379e-05
-5.7258e-05
-0.000525421
0.000231627
0.00877027
6.90059e-05
0.000385138
-0.00872713
-8.91456e-05
-0.0055419
2.36473e-05
-0.000210914
-0.000904934
0.000359302
-0.000845661
8.17656e-06
0.000113399
-0.00484484
1.20585e-05
-2.68132e-06
-0.00785061
6.33762e-05
7.11314e-05
1.22315e-05
-6.71744e-05
-0.0029129
0.000101488
-6.90099e-05
0.00671142
6.03446e-05
-9.62989e-06
0.000604794
7.66758e-05
-5.94384e-08
3.04012e-06
0.00115353
1.03984e-05
0.000103371
-2.5551e-05
3.47959e-05
3.94154e-05
1.94528e-06
-0.0015192
0.000319281
-0.00676649
2.39384e-05
-0.00887423
-1.37924e-05
4.64878e-05
3.69977e-05
0.00303356
1.18787e-05
5.21195e-05
-0.0168333
0.00334215
2.44525e-05
0.0382113
0.00828694
9.63453e-06
0.410129
-0.00585905
4.67651e-06
0.685633
0.000762816
-5.87498e-07
-0.00180226
1.15304e-06
-0.000495353
-0.000199197
-0.000588813
-0.000150754
-0.00911469
-1.5805e-06
0.00123772
-2.3887e-07
0.00538693
6.91524e-07
8.00524e-07
0.00876725
-0.000108474
1.1543e-06
-0.00378904
-0.000257108
1.58261e-07
0.00983618
-4.52522e-08
0.000442257
-0.00155319
-1.77484e-05
0.000663968
-0.000229947
-3.02952e-07
-0.000345534
0.00482098
-9.47072e-05
0.000125919
-0.000269173
1.99139e-05
5.83419e-05
-0.00600724
-0.000138355
-1.80812e-05
-0.000352012
-0.00411256
-0.000449424
-0.000496476
0.000348145
-5.583e-06
-7.22123e-06
-0.000484736
-0.00015896
-9.10564e-06
-0.00126819
0.0174799
2.85688e-05
-0.00341811
0.000162876
-3.04686e-05
-0.00212876
0.0449775
-1.12061e-05
1.32297e-06
4.80903e-07
-0.00413162
-1.27606e-06
-0.000115618
2.90481e-05
0.00203689
0.00024435
8.29968e-06
0.0147405
4.25945e-05
-5.71741e-05
-8.33577e-07
8.89833e-05
1.18831e-05
-0.00688918
-0.000260499
0.000178094
3.50325e-05
-2.33633e-05
1.69317e-05
-0.014583
2.9861e-06
0.001281
-8.94795e-09
-7.18458e-05