# vtk DataFile Version 2.0
Unstructured Grid by M++
ASCII
DATASET UNSTRUCTURED_GRID
POINTS 4072 float
  0.875000   1.000000 0
  0.875000   0.984375 0
  0.875000   0.968750 0
  0.875000   0.953125 0
  0.875000   0.937500 0
  0.875000   0.921875 0
  0.875000   0.906250 0
  0.875000   0.890625 0
  0.875000   0.875000 0
  0.875000   0.859375 0
  0.875000   0.843750 0
  0.875000   0.828125 0
  0.875000   0.812500 0
  0.875000   0.796875 0
  0.875000   0.781250 0
  0.875000   0.765625 0
  0.859375   1.000000 0
  0.859375   0.984375 0
  0.859375   0.968750 0
  0.859375   0.953125 0
  0.859375   0.937500 0
  0.859375   0.921875 0
  0.859375   0.890625 0
  0.859375   0.875000 0
  0.859375   0.859375 0
  0.859375   0.843750 0
  0.859375   0.828125 0
  0.859375   0.812500 0
  0.859375   0.796875 0
  0.859375   0.781250 0
  0.859375   0.765625 0
  0.859375   0.671875 0
  0.859375   0.656250 0
  0.859375   0.640625 0
  0.843750   1.000000 0
  0.843750   0.984375 0
  0.843750   0.968750 0
  0.843750   0.953125 0
  0.843750   0.937500 0
  0.843750   0.921875 0
  0.843750   0.906250 0
  0.843750   0.875000 0
  0.843750   0.859375 0
  0.843750   0.843750 0
  0.843750   0.828125 0
  0.843750   0.812500 0
  0.843750   0.796875 0
  0.843750   0.781250 0
  0.843750   0.765625 0
  0.843750   0.671875 0
  0.843750   0.656250 0
  0.843750   0.640625 0
  0.828125   1.000000 0
  0.828125   0.984375 0
  0.828125   0.968750 0
  0.828125   0.953125 0
  0.828125   0.937500 0
  0.828125   0.921875 0
  0.875000   0.671875 0
  0.812500   0.921875 0
  0.890625   0.656250 0
  0.828125   0.906250 0
  0.875000   0.656250 0
  0.812500   0.906250 0
  0.890625   0.640625 0
  0.828125   0.890625 0
  0.875000   0.640625 0
  0.812500   0.890625 0
  0.890625   0.625000 0
  0.828125   0.875000 0
  0.890625   0.609375 0
  0.828125   0.859375 0
  0.890625   0.593750 0
  0.828125   0.843750 0
  0.890625   0.578125 0
  0.828125   0.828125 0
  0.890625   0.562500 0
  0.828125   0.812500 0
  0.828125   0.796875 0
  0.828125   0.781250 0
  0.828125   0.765625 0
  0.828125   0.671875 0
  0.828125   0.656250 0
  0.828125   0.640625 0
  0.875000   0.750000 0
  0.812500   1.000000 0
  0.875000   0.625000 0
  0.812500   0.875000 0
  0.875000   0.734375 0
  0.812500   0.984375 0
  0.875000   0.718750 0
  0.812500   0.968750 0
  0.875000   0.703125 0
  0.812500   0.953125 0
  0.875000   0.687500 0
  0.812500   0.937500 0
  0.875000   0.609375 0
  0.812500   0.859375 0
  0.875000   0.593750 0
  0.812500   0.843750 0
  0.875000   0.578125 0
  0.812500   0.828125 0
  0.812500   0.812500 0
  0.875000   0.546875 0
  0.812500   0.796875 0
  0.812500   0.781250 0
  0.812500   0.765625 0
  0.859375   0.750000 0
  0.796875   1.000000 0
  0.859375   0.625000 0
  0.796875   0.875000 0
  0.859375   0.734375 0
  0.796875   0.984375 0
  0.859375   0.718750 0
  0.796875   0.968750 0
  0.859375   0.703125 0
  0.796875   0.953125 0
  0.859375   0.687500 0
  0.796875   0.937500 0
  0.859375   0.609375 0
  0.796875   0.859375 0
  0.859375   0.593750 0
  0.796875   0.843750 0
  0.859375   0.578125 0
  0.796875   0.828125 0
  0.859375   0.562500 0
  0.796875   0.812500 0
  0.796875   0.796875 0
  0.859375   0.531250 0
  0.796875   0.781250 0
  0.796875   0.765625 0
  0.843750   0.750000 0
  0.781250   1.000000 0
  0.843750   0.625000 0
  0.781250   0.875000 0
  0.843750   0.734375 0
  0.781250   0.984375 0
  0.843750   0.718750 0
  0.781250   0.968750 0
  0.843750   0.703125 0
  0.781250   0.953125 0
  0.843750   0.687500 0
  0.781250   0.937500 0
  0.843750   0.609375 0
  0.781250   0.859375 0
  0.843750   0.593750 0
  0.781250   0.843750 0
  0.843750   0.578125 0
  0.781250   0.828125 0
  0.781250   0.812500 0
  0.843750   0.546875 0
  0.781250   0.796875 0
  0.781250   0.781250 0
  0.843750   0.515625 0
  0.781250   0.765625 0
  0.828125   0.750000 0
  0.765625   1.000000 0
  0.828125   0.625000 0
  0.765625   0.875000 0
  0.828125   0.734375 0
  0.765625   0.984375 0
  0.828125   0.718750 0
  0.765625   0.968750 0
  0.828125   0.703125 0
  0.765625   0.953125 0
  0.828125   0.687500 0
  0.765625   0.937500 0
  0.828125   0.609375 0
  0.765625   0.859375 0
  0.828125   0.593750 0
  0.765625   0.843750 0
  0.828125   0.578125 0
  0.765625   0.828125 0
  0.828125   0.562500 0
  0.765625   0.812500 0
  0.765625   0.796875 0
  0.828125   0.531250 0
  0.765625   0.781250 0
  0.765625   0.765625 0
  0.812500   0.750000 0
  0.750000   1.000000 0
  0.953125   1.000000 0
  0.812500   0.734375 0
  0.750000   0.984375 0
  0.812500   0.718750 0
  0.750000   0.968750 0
  0.812500   0.703125 0
  0.750000   0.953125 0
  0.812500   0.687500 0
  0.750000   0.937500 0
  0.812500   0.671875 0
  0.750000   0.921875 0
  0.812500   0.656250 0
  0.750000   0.906250 0
  0.812500   0.640625 0
  0.750000   0.890625 0
  0.812500   0.625000 0
  0.750000   0.875000 0
  0.812500   0.609375 0
  0.750000   0.859375 0
  0.812500   0.593750 0
  0.750000   0.843750 0
  0.812500   0.578125 0
  0.750000   0.828125 0
  0.750000   0.812500 0
  0.812500   0.546875 0
  0.750000   0.796875 0
  0.750000   0.781250 0
  0.812500   0.515625 0
  0.750000   0.765625 0
  0.796875   0.750000 0
  0.734375   1.000000 0
  0.796875   0.734375 0
  0.734375   0.984375 0
  0.796875   0.718750 0
  0.734375   0.968750 0
  0.796875   0.703125 0
  0.734375   0.953125 0
  0.796875   0.687500 0
  0.734375   0.937500 0
  0.796875   0.671875 0
  0.734375   0.921875 0
  0.796875   0.656250 0
  0.734375   0.906250 0
  0.796875   0.640625 0
  0.734375   0.890625 0
  0.796875   0.625000 0
  0.734375   0.875000 0
  0.796875   0.609375 0
  0.734375   0.859375 0
  0.796875   0.593750 0
  0.734375   0.843750 0
  0.796875   0.578125 0
  0.734375   0.828125 0
  0.734375   0.812500 0
  0.734375   0.796875 0
  0.796875   0.531250 0
  0.734375   0.781250 0
  0.734375   0.765625 0
  0.781250   0.750000 0
  0.718750   1.000000 0
  0.921875   1.000000 0
  0.781250   0.734375 0
  0.718750   0.984375 0
  0.781250   0.718750 0
  0.718750   0.968750 0
  0.781250   0.703125 0
  0.718750   0.953125 0
  0.859375   0.906250 0
  0.781250   0.687500 0
  0.718750   0.937500 0
  0.781250   0.671875 0
  0.718750   0.921875 0
  0.781250   0.656250 0
  0.718750   0.906250 0
  0.781250   0.640625 0
  0.718750   0.890625 0
  0.781250   0.625000 0
  0.718750   0.875000 0
  0.781250   0.609375 0
  0.718750   0.859375 0
  0.781250   0.593750 0
  0.718750   0.843750 0
  0.781250   0.578125 0
  0.718750   0.828125 0
  0.781250   0.562500 0
  0.718750   0.812500 0
  0.781250   0.546875 0
  0.718750   0.796875 0
  0.781250   0.531250 0
  0.718750   0.781250 0
  0.781250   0.515625 0
  0.718750   0.765625 0
  0.765625   0.750000 0
  0.703125   1.000000 0
  0.765625   0.734375 0
  0.703125   0.984375 0
  0.765625   0.718750 0
  0.703125   0.968750 0
  0.765625   0.703125 0
  0.703125   0.953125 0
  0.765625   0.687500 0
  0.703125   0.937500 0
  0.843750   0.890625 0
  0.703125   0.921875 0
  0.765625   0.656250 0
  0.703125   0.906250 0
  0.765625   0.640625 0
  0.703125   0.890625 0
  0.765625   0.625000 0
  0.703125   0.875000 0
  0.765625   0.609375 0
  0.703125   0.859375 0
  0.765625   0.593750 0
  0.703125   0.843750 0
  0.765625   0.578125 0
  0.703125   0.828125 0
  0.765625   0.562500 0
  0.703125   0.812500 0
  0.765625   0.546875 0
  0.703125   0.796875 0
  0.765625   0.531250 0
  0.703125   0.781250 0
  0.765625   0.515625 0
  0.703125   0.765625 0
  0.750000   0.750000 0
  0.687500   1.000000 0
  0.890625   1.000000 0
  0.750000   0.734375 0
  0.687500   0.984375 0
  0.750000   0.718750 0
  0.687500   0.968750 0
  0.578125   0.796875 0
  0.578125   0.781250 0
  0.578125   0.765625 0
  0.546875   0.953125 0
  0.546875   0.968750 0
  0.546875   0.718750 0
  0.546875   0.687500 0
  0.250000   0.609375 0
  0.937500   0.031250 0
  0.046875   0.703125 0
  0.734375   0.062500 0
  0.734375   0.078125 0
  0.734375   0.046875 0
  0.046875   0.593750 0
  0.046875   0.562500 0
  0.046875   0.531250 0
  0.718750   0.156250 0
  0.046875   0.609375 0
  0.734375   0.031250 0
  0.062500   0.609375 0
  0.234375   0.703125 0
  0.718750   0.125000 0
  0.046875   0.578125 0
  0.734375   0.000000 0
  0.062500   0.578125 0
  0.000000   0.828125 0
  0.234375   0.671875 0
  0.234375   0.625000 0
  0.718750   0.093750 0
  0.687500   0.156250 0
  0.062500   0.546875 0
  0.000000   0.796875 0
  0.718750   0.046875 0
  0.031250   0.687500 0
  0.687500   0.171875 0
  0.500000   1.000000 0
  0.078125   0.218750 0
  0.234375   0.593750 0
  0.718750   0.062500 0
  0.687500   0.125000 0
  0.000000   0.765625 0
  0.421875   0.500000 0
  0.031250   0.593750 0
  0.718750   0.015625 0
  0.687500   0.234375 0
  0.015625   0.812500 0
  0.703125   0.171875 0
  0.703125   0.187500 0
  0.703125   0.140625 0
  0.015625   0.781250 0
  0.437500   0.515625 0
  0.500000   0.796875 0
  0.078125   0.015625 0
  0.687500   0.203125 0
  0.250000   0.578125 0
  0.703125   0.109375 0
  0.000000   0.515625 0
  0.500000   0.765625 0
  0.062500   0.593750 0
  0.750000   0.015625 0
  0.015625   0.843750 0
  0.687500   0.000000 0
  0.500000   0.828125 0
  0.078125   0.046875 0
  0.015625   0.531250 0
  0.250000   0.546875 0
  0.703125   0.078125 0
  0.703125   0.031250 0
  0.015625   0.671875 0
  0.250000   0.515625 0
  0.000000   0.656250 0
  0.500000   0.906250 0
  0.078125   0.125000 0
  0.687500   0.015625 0
  0.031250   0.546875 0
  0.687500   0.031250 0
  0.500000   0.859375 0
  0.703125   0.000000 0
  0.703125   0.046875 0
  0.703125   0.015625 0
  0.500000   0.937500 0
  0.234375   0.531250 0
  0.031250   0.578125 0
  0.687500   0.062500 0
  0.500000   0.890625 0
  0.031250   0.796875 0
  0.453125   0.531250 0
  0.500000   0.968750 0
  0.078125   0.187500 0
  0.234375   0.562500 0
  0.031250   0.609375 0
  0.718750   0.031250 0
  0.687500   0.093750 0
  0.750000   0.046875 0
  0.000000   0.937500 0
  0.421875   0.671875 0
  0.718750   0.187500 0
  0.031250   0.828125 0
  0.765625   0.062500 0
  0.015625   0.953125 0
[...]
CELL_DATA 7648
SCALARS scalar_value float 1
LOOKUP_TABLE default
0
0
0
0
0
0
0
0.00121404
0.000228077
5.95238e-05
-3.06789e-06
0
0
0
0
0.00395042
0
1.24919e-10
-1.92176e-10
0
7.53708e-05
5.48085e-07
0
4.41971e-09
7.44916e-08
0
0
0
0
0
0
0
0
0
0
0
0
0
0.00155506
-0.00132545
0
0.0199108
6.54826e-08
0
0
-1.88119e-09
3.49958e-09
8.4594e-10
0
0
0
0
0
0
-0.000769269
8.5865e-06
6.43984e-07
-2.78773e-06
-7.38309e-07
0
0
0
0
0
0
0
0
0
0
0
0
0
0
0
0
-1.858e-08
0
0
0
0.0682795
0
0
-1.26371e-06
0
0
0
0
1.88701e-09
-2.12605e-09
8.09208e-10
0
3.75949e-05
0
0
0
0
0
0
0
0
0
0
0
0
-6.33787e-06
0
-5.21908e-07
1.06799e-08
-1.91056e-07
2.29635e-08
-4.03225e-08
4.0284e-08
1.35193e-07
1.43937e-07
0
0
5.08541e-09
0
0
0
0
2.17876e-07
-2.76581e-07
0
0
0
0
-5.33472e-06
-7.04736e-06
-1.36125e-06
-8.54361e-08
0
-1.89479e-09
0.00130144
0
0
4.98728e-05
-3.07933e-10
-0.000135294
0
0
0
0
0
0.71965
0
0
0
0
-1.05478e-07
0
0
0.000760534
0
-0.000807518
0
0
-4.0674e-06
-9.5478e-07
7.04715e-06
-2.01138e-06
1.04323e-06
0
0
0
4.36384e-10
0
0
0
5.67596e-06
0
2.16086e-07
0
0
7.05424e-07
-0.000139105
-2.98649e-05
0
0
0
9.07202e-08
0
0
0
0
0
0
-1.63446e-06
0
-5.79154e-07
0.00040143
0
0
0
0
0
0
0.00872373
0
0
0
0
-7.60229e-06
-8.80121e-06
0
0
-9.77144e-06
1.22129e-06
0
0
0
0
0.000171273
4.10615e-05
-4.80907e-06
2.20034e-07
4.7623e-06
0.000144085
-3.94037e-05
-5.91763e-06
0.000127885
0
0
0.000993573
0
0
0
8.27195e-10
3.80142e-10
-0.000114159
3.50608e-07
0
0
0.00014133
1.3174e-06
-9.7623e-05
-4.52768e-06
-5.17567e-06
0
0
0
0
-0.000666721
0.000122763
-0.000179894
0
0
0
0
0
0
-4.56192e-10
0
-6.24485e-10
1.46939e-06
0
0
0
0
2.64669e-07
0
0
0
0
0
2.33649e-08
3.77028e-08
0
0
0
3.79386e-09
0
1.83508e-09
0
7.22409e-10
0
-9.20975e-09
1.19807e-07
0.000385774
0.00255159
2.41408e-05
1.69698e-05
0
0
0
0
0
1.23383e-05
-1.50118e-06
0
0
0
0
0.000331588
0.000284077
0.000360579
0
0
-2.36324e-05
0
0.00218756
0.0116977
0.00749628
0
0
0
0
0
0
0
0
0
0
0
-0.000132178
0.000810329
0.000100278
0
0
0
0
0
0
3.79848e-10
0
0
4.08857e-06
1.65019e-07
1.21788e-06
-4.3665e-08
0.0679131
-0.00019827
0
0.411134
0.00497081
0
0
0
0
0
0.416441
0.000222041
0.0708744
0.261589
-1.67326e-10
1.45681e-05
-1.05018e-08
-7.58692e-10
0
0
0
3.76791e-05
1.96858e-06
-7.20517e-07
2.16508e-06
0
0
0
-0.00225292
0.0106557
0
0
-3.72276e-08
0
0
-0.00112652
1.0566e-05
3.7604e-06
-3.30261e-07
-8.09566e-05
-1.04515e-09
0
0
1.40623e-07
4.15163e-08
1.78444e-09
-2.58721e-05
-4.91306e-06
-2.12901e-06
-4.25689e-06
5.84495e-06
0
-3.3972e-06
-2.50812e-05
2.75341e-05
-0.000131127
0
0.0693393
1.72942e-10
0
1.29896e-10
-1.42291e-10
2.30565e-06
6.2605e-06
8.66692e-07
4.17327e-06
2.18824e-06
1.35661e-05
-2.3109e-06
1.7031e-05
-5.88203e-06
0
0
0
-6.01303e-09
0
3.1052e-05
0.00413518
0.000781265
9.98083e-10
0
-2.95333e-05
0
-4.3998e-05
5.29436e-05
0
0
-4.02251e-08
2.09967e-06
2.43898e-05
-6.09928e-06
2.58308e-08
0
0
0
-9.50918e-05
-0.00134097
0
0
0
0
0
0
-1.51519e-10
-1.83865e-08
0
0
0
0
0
0
-8.74234e-10
0.22301
-2.06117e-10
0
0
-4.09816e-08
0
0
0
0
0
-2.46827e-09
0
0
0
0
-8.94924e-09
0
0
-1.83792e-08
0
0
3.04982e-10
0.100445
0
0
2.83856e-08
9.77569e-10
0
-3.05745e-07
-4.56126e-06
1.37925e-06
0
0
1.69469e-05
0
0
0
0
0
8.78348e-08
1.33527e-05
-9.65953e-06
0
0
0
0
0
0
0
0
0
0
0
0
0
2.85573e-09
0
0
0.0979264
-2.20749e-09
-4.02844e-09
0
0
0
1.64672e-10
-2.15563e-09
0
7.01177e-10
0
-4.4157e-09
-3.59636e-09
0
6.41832e-09
4.94278e-08
0
0.0157748
0.000860643
0
0
1.98644e-06
0
-1.23988e-10
-2.06215e-10
0
0
0
2.13804e-08
0
0
0
0
2.40931e-05
0.00012683
0
0
0
0
-6.25466e-05
0
0
0.119282
0
0
1.9301e-07
7.98843e-08
0
0
0.000119734
4.1955e-05
0
0.000160095
0.000842184
0
-5.82335e-05
0
0.665421
0
-0.000655322
0
0
0.000528203
0
0
0.00028297
0
0.00169255
0
0
0
-0.000519784
0
-0.00034502
-0.000134852
0.000307004
0.000424293
0
0.00152396
0
0
0
1.89016e-10
-5.21345e-05
0
3.41853e-09
0
1.03413e-09
0
0
0
0
1.45945e-08
0
0
0
-1.03042e-09
0
0
2.51559e-08
0
0
0
0
0
0.000680638
0
0
9.91601e-06
2.1691e-06
1.69465e-09
-2.70615e-06
0
0
-1.21966e-08
0.619164
4.68921e-05
0.00135002
6.11029e-09
0
-2.42588e-10
1.58434e-05
3.72055e-07
0.000207804
0
-0.000357262
1.04366e-06
0.000936014
-0.000227634
0.000345043
0.58588
0
0
0.185994
0
0
8.24572e-10
0
0
0.000374917
-2.53989e-09
0
0
0
0
6.22111e-08
-7.69274e-08
0
0
-2.35344e-08
0
0
0
2.82791e-07
-1.46835e-06
6.02133e-09
0
-9.09232e-08
0
-9.44455e-06
0
0
0
0
-0.000579188
0
0
0
0
-3.80382e-06
0.00151077
0
0
0
1.13217e-06
0
-0.00233564
0.00183613
0
0
0
0.000109848
0
-2.21223e-07
0
0
-1.13768e-09
0
-6.45743e-10
-1.95294e-09
0
0
0
-7.18142e-05
0
1.94649e-06
-6.99603e-08
0
0
0
-1.81225e-06
0
-0.000162549
4.73585e-09
0
0
0
0
0
0
-6.80986e-05
0
0.00224745
-1.43665e-08
0.0204717
9.31591e-05
-2.42698e-05
0
2.07379e-06
0
0
0
-1.87617e-08
0
0
-5.11355e-05
0
0
0
3.61546e-08
0
0
0
-1.01937e-09
0
0
0
0
0
-3.0148e-09
1.17821e-06
0
0
0
-1.54076e-05
0
0
3.85637e-05
0
0.000404458
0
0
1.22362e-07
0
0
7.5797e-08
0
1.18438e-08
6.14816e-09
0
1.26014e-06
0
0
6.66537e-09
0
0
0
0
0
-5.38904e-10
0
0
0
0
0
0.046391
0
0
0
0
0
0
0
0
0
1.84476e-10
0
0
-4.48047e-07
0
0
0
5.24045e-05
0
0
0.462823
4.81887e-07
3.38154e-10
-1.71871e-09
0
0
0
0.000709738
-0.000180436
0
0.045575
1.6435e-07
7.22529e-05
-1.11854e-05
0
-3.94337e-05
0.000101256
3.6377e-06
-1.83017e-10
0
0
0
0
0
0
0
0
0
0
0
0
0
0
0
0
2.45611e-07
9.87126e-07
-2.29598e-06
0
0
0
7.31023e-06
0
0
0
0
0
0
0
0
0
0
0
0
0
1.30014e-10
0
0
0
0.00109449
0
0
0
0.211866
0.177995
-0.000330843
0.033507
-1.27041e-10
-1.71624e-07
0.000565639
0
0
0
0
0
0
0
-2.32041e-09
8.1276e-08
3.47815e-10
0
0
0
-2.52373e-09
0
0
0
0.000111176
0
0
0
-1.00809e-07
-2.37712e-09
0
0
6.52611e-05
2.44605e-10
-1.89585e-09
0
0
0
0
0
0
-7.14477e-07
0
0
-5.3021e-06
0
3.26628e-10
-2.46598e-07
6.04906e-09
-5.85522e-09
0
-1.10376e-08
1.33737e-08
0
0
0
0
0
0
0
0
0
0
0
0
0
0
0
0
0
0
0
0
-2.59867e-07
-1.08122e-09
0
3.7144e-07
0
1.44832e-09
0
0
0
0
0
0
0
0
0
-3.50116e-10
-9.71369e-08
0
0
0
0
0.000144549
0.356338
-1.14372e-06
1.94985e-05
0
0
0.000104049
0
0
0
0
0
0
0
0.000464279
0
0.0100419
0
0
-2.27566e-07
0.0270687
0
0.0348841
0
0
0
8.20304e-10
0
0
0
0
0
0
5.78561e-09
0
0
0
-1.47179e-09
0
0
1.43227e-07
0.195682
0
0
-1.52437e-09
-1.08629e-09
0
0
0
-2.02148e-09
-6.79689e-09
0
0
0
0
0
0
0
0
2.09555e-09
0
0
0
0
0.00583309
0
0
0
0
3.3049e-10
0
0
0
0
0
0
-0.000300205
0
0
0
-8.67353e-10
-8.75756e-10
0
0
8.28945e-05
0
0
0
2.30774e-05
0.0042645
1.30327e-08
3.72104e-07
0
0.00451825
0.0252927
5.12034e-10
-8.17839e-06
5.50263e-06
0
0
3.09309e-09
0
0
0.0765512
0
0
0
0
0
0
0
0
0
-1.29827e-10
0
0
0
0
0.49004
0
0.409189
0
0
0
0
0
-7.5421e-08
-0.000463521
-1.38989e-07
0
0
0
4.65597e-07
0
-6.74216e-08
0
1.3656e-07
0
0
0
0
0
0
1.54395e-07
1.25738e-06
-5.90134e-07
0
-1.47925e-10
0
2.34271e-07
0
0
0
0
-1.69169e-08
0
0
0
1.5946e-08
0
0
8.41047e-07
0
0
0
2.69118e-06
0
0
0
0
-1.27298e-09
-5.73677e-10
0
0
0
0
0
0
0
0
9.22111e-09
2.95291e-08
5.07951e-09
0
0
0
0
0
0
0
0
0
0
-0.000361009
0.00110163
0.00937566
0.00672229
0
0
0
0
0
-1.58197e-10
0.00440298
0
0.00644319
0
0
0
0
0
0
0
7.69616e-06
0
0
0
0
0
0
0
0
0
0
0
0
0
0
0
0
0
0
0
0
0
0
0
1.96263e-08
3.59216e-08
1.1521e-08
0
4.98332e-08
0
0
0
0
0
0.321111
-1.00696e-07
-0.00181553
0.034548
0
0.00259013
0
0
0
0
0
0
0
0
-2.02438e-05
0
0
0
0
0
3.398e-06
-1.14728e-10
-2.51503e-09
-3.70366e-09
1.42513e-09
0
0
0
0
0
0
0
0
0
0
0
-2.87127e-05
0.000364703
3.68394e-05
0.00104825
0.0979208
0
0.0050184
9.87517e-08
5.68115e-09
0
0
0
0
8.85405e-10
0
1.04195e-07
0
0
0.245906
0
-3.65872e-05
0
0
0
0
-3.18702e-08
0
0
0
0
0
0
0
0
0.059331
0
0.455681
0
0
0
0
0
0.545994
0
0
0
0
0
0
0
-9.44721e-07
0
0
6.65912e-05
0
-2.18996e-09
4.50623e-10
-4.10787e-09
0
0
0
0
0
0
0
0
0
0
3.78698e-06
1.75864e-06
0
0
0
0
0
0
0
3.08459e-09
1.1027e-06
0
0
0
0
0
0
0
0
1.09514e-08
-8.73259e-10
1.79113e-08
1.49147e-08
0
0
0
0
0
0
0
0
0.0057991
1.60998e-06
0
0.000178479
0.511329
0
0
0
0
0
0
0
0.00427997
-6.30953e-05
4.67468e-08
-1.8265e-08
0.151804
0.294542
8.86752e-08
0
0
0
0
0
0
0
0
0
0
0.0522134
0
0
0
7.3205e-10
7.17802e-09
0
0.00013797
0.0177347
0
0
0
0
0
0
0
2.38236e-09
-2.0011e-08
-1.15586e-09
0
0
0
0
0
0
0
0
0
0
0
-4.12489e-06
-1.98929e-05
0
0
0
0
0
0
-2.62772e-10
0
0
0
0
0
0
0
0
0
0
0
0.138534
1.81154e-06
1.82137e-06
-1.60007e-05
0
0
0.275869
0
0
3.93555e-09
2.16332e-08
-2.17069e-10
0
0.192971
0
0
0
0.00139073
-0.00167918
-6.34433e-08
-6.65524e-07
1.53975e-08
0.00125233
0
0
0
0
0
0
0
0
0
0
0
0
6.16066e-10
0
0
0
0
-8.20737e-08
-2.30005e-09
6.98689e-10
0
0
0
0
0
0
0
0
0
0
0
0
-1.71211e-05
0
0
-4.162e-06
7.2736e-06
1.91387e-05
-6.302e-10
4.62975e-09
0
0
0
-3.50979e-10
0
0
0
5.58359e-05
0
0.00107503
2.39913e-06
0
0
6.85866e-10
8.56999e-10
0
0
0
-2.25272e-05
0
0
0
0
-1.63895e-06
0
0
0
0
0
0
0
0
0
-0.0071429
0
-1.81372e-06
3.70367e-06
0
-1.00989e-05
0
3.29114e-06
1.09971e-06
0
0
1.07183e-07
1.2045e-08
9.23727e-09
-1.16653e-08
0
-7.89767e-05
0
0
0
1.5738e-05
-1.57012e-05
-1.63445e-06
2.61612e-07
3.53542e-06
2.48155e-06
0
0
0
0.000184678
-3.69308e-06
2.43015e-05
0
0
0
0
0
0
0
0
0
0
0
3.13453e-10
1.83368e-09
1.55205e-09
0
0
4.93265e-09
5.22249e-09
-4.26492e-09
1.51069e-09
1.33681e-09
-7.70551e-10
0
0
0
0
0
0
0
0
0
0
-1.53013e-09
0
0
0
0
0
0
0
0
0
0
0
0.11031
0.328404
0.592708
0
0
0
-2.96018e-07
-1.59312e-07
0.000652267
1.67726e-05
0.000184217
0
0
0
-2.26824e-07
0
-5.65226e-05
-3.24009e-10
2.95928e-10
8.42584e-10
0
0
-5.51749e-09
-5.17676e-09
1.21151e-08
0
0
0
0
0
0
0
0
0
0
0.124773
0.0431571
0
0
0
0
0
0
3.54519e-08
-1.52745e-05
0
0
0
0
0
0
0
0
0
0
0
0
0
0
-3.97315e-10
-6.16599e-10
0
0
0
0
0
0
-7.79696e-07
-1.48811e-06
0
0
0
-6.63566e-09
-3.78176e-07
7.30259e-07
-4.93039e-08
-3.86626e-07
-8.70389e-08
0
0
0
0
0
-3.6047e-09
4.76591e-09
0
-2.11556e-09
0
0
0
0
0
0
0
0
0
0
0
0
0
0
0
0
0
0
0
0
0
0
0
7.52732e-06
-2.27779e-05
-2.24189e-07
-0.000147855
-4.99231e-08
-5.77198e-07
3.63951e-09
0
0
-3.06256e-10
-1.95875e-08
4.00716e-06
2.73867e-06
0
0
0
0
0
0
0
0
0
0
1.25963e-06
8.26587e-09
0
0
0
0
0
0
-3.14818e-10
0
0
0
0
0
0
0
0
0
0.0337384
0.163391
0.37564
0.0180703
-3.14812e-09
4.30003e-08
-1.03869e-06
0
0
0
0
0
0
-0.000158422
0.000756292
0
2.13793e-10
0
0
0
-1.62524e-07
-1.84738e-07
-1.54922e-07
0.00299809
0.0183676
0
0
0
0
0
0
0
0.0355265
-0.00100621
0
0
0
0
0
0
0
0
0
5.35066e-06
-0.000124933
0
0
0
0
0
0
-2.52327e-10
5.75417e-10
2.56463e-09
0
0
0
-1.95645e-10
0
0
0
0
0
0
0
0
0
0
0
0
0
4.30587e-08
-1.94026e-08
8.23731e-09
7.8877e-09
0
0
0
0
0
0
0
-1.38319e-08
3.97659e-09
0.00830987
0
0
0
0
0
0
0
0
0
0
2.54779e-10
-3.45216e-08
0
0
0
0
1.40189e-10
0
0
0
0
0
0
0
0
0
0
0
0
0
0
0
0
0
1.06844e-10
3.08648e-08
1.10793e-08
9.85442e-08
0.000331272
0
0
0
0
0
0
0
0
0
0
3.12483e-06
2.35294e-05
0
0
0
0
0
0
0
0
-3.1276e-10
-9.43929e-10
1.52988e-05
-4.03971e-07
6.01574e-07
2.13761e-08
0
0
0
0
0
0
0
0
0
0
3.39198e-09
-3.93075e-09
0
0
0
0
0
0
0
0
0
0
0
0
0
-4.17684e-06
0.000648565
0.0156996
0.0330676
0.0354081
0.023282
0.014929
0.0236874
0.0473509
0.0681627
0.0660117
0.0421159
0.0123317
-0.0139921
-0.0302529
-0.0279495
-0.0133228
-0.00342044
-0.001009
0.00190697
0.00409591
-0.00100627
-0.0156021
-0.0292164
-0.0299454
-0.0191717
0.0109263
0.111029
0.334505
0.627603
0.850012
0.922953
0.844614
0.0102782
0.0246274
0.0381311
0.0172047
0.05548
0.0735291
0.0461281
-0.00743216
-0.0280728
-0.00861996
-0.00184839
-0.00574761
0.879828
0.00823823
0.0118286
0.0104288
0.00590686
0.00979209
0.0237421
0.0365681
0.0413027
0.0361449
0.022429
0.0103877
0.00716564
0.00805654
0.0077409
0.00493544
0.000374468
-0.00229302
-0.0011489
0.00216654
0.00321717
0.000165373
-0.00710471
-0.0127652
-0.0111513
-0.00405791
0.0213189
0.130547
0.384813
0.692676
0.888364
0.921578
0.806345
-0.00647258
0.00284985
0.0164343
0.0200031
0.00636752
0.00366824
0.00360441
0.00300064
-0.000841479
-0.000665265
-0.00600996
-0.00547142
-0.000167829
0.00030914
-0.000335988
0.0025452
0.000848391
-0.00533609
-0.00846936
-0.00755621
-0.0049292
-0.00141904
-0.000507066
-0.00152048
-0.00168394
-0.000370924
0.00151624
0.00246542
-0.00071344
-0.00191641
-0.00291593
-0.00752269
-0.0170668
-0.0205089
-0.0108572
0.00460115
0.0443732
0.185119
0.465366
0.760143
0.918552
0.890914
0.670652
-0.00589825
0.000207447
-0.000666116
0.00175977
-0.00148418
0.00521107
-0.00350387
-0.0216645
-5.2638e-05
0.00146394
-5.624e-06
-0.000806299
-0.0221721
1.2539e-05
-0.00297741
4.20846e-05
-0.00406907
-0.00043051
6.83874e-05
-0.00260067
6.88913e-05
-0.0006329
0.000733911
-0.011386
2.08242e-05
0.000296596
0.00220931
0.00106247
0.0108125
0.000666933
0.000514353
0.000331342
-0.000306166
-0.000241247
-0.00831625
-0.00143246
-0.00676637
-0.00108023
0.00333292
0.000907959
0.00587693
-0.0026344
-2.64108e-05
-0.000670521
0.000931743
-3.80015e-05
-0.000290659
-3.88953e-05
0.00226345
-0.00226732
-4.4526e-05
0.00442826
-3.88112e-05
0.00472013
0.00134406
-2.24904e-05
0.00252893
-1.18581e-05
0.000861106
0.000259781
0.00213104
-0.0012117
0.00152866
-2.07261e-05
0.000649181
-0.000341101
0.00031173
-0.000341547
-0.00195561
-0.000599472
-0.00218051
-0.00020693
0.000717368
0.00175433
0.00317023
-0.0024059
0.012066
0.000277004
0.00900252
0.00136818
0.000262567
0.00018168
0.000185841
-0.00451451
0.000270195
0.000286804
0.0026396
-0.000245395
0.000118146
-0.000267903
-7.04279e-05
0.00083938
-0.000413779
0.00192635
-3.05759e-05
-9.53532e-05
-3.15538e-05
0.0071564
-1.86536e-05
0.895741
-0.000188408
-0.000209186
0.528125
-0.000129283
0.000768605
3.46722e-06
0.000493952
-0.000245285
-1.06508e-05
-0.00105808
-0.00313441
-2.11988e-05
-0.00416303
-0.00176311
-1.34208e-05
-7.81272e-05
4.8498e-08
-3.50319e-05
-9.39631e-05
0.00261124
-0.00028392
0.000669369
0.000383912
-8.49851e-05
-0.00289903
-1.87727e-05
-0.00366484
8.11293e-06
-0.0033965
-1.50523e-05
-0.00267018
-0.000630638
-0.00339647
-0.00485273
-2.80839e-05
-0.00398115
0.000306936
0.00308491
0.00268885
0.00123674
-0.000387559
0.000261691
0.000144045
1.48047e-05
-5.96509e-05
-0.00846576
-0.000107909
-0.00067
-5.62665e-05
0.000520225
0.000230547
0.000268354
0.000235238
0.000229337
0.0929858
1.16986e-05
-0.000120678
-0.0027824
4.18153e-05
0.000567062
0.000382395
-0.000718597
-0.00097619
0.000949073
0.00224765
9.18481e-05
0.000110925
-0.000149633
-0.00166588
0.000147742
0.000799208
0.000196763
-0.00126336
0.000112318
0.0022856
0.0153059
-5.56925e-05
-0.00297558
-0.000282396
-0.0259215
6.66444e-05
-0.00293334
-0.00417966
0.000220996
-0.00364033
-0.00560867
0.00105841
-0.00553351
-0.0052539
-0.00046415
-0.00672996
-0.00405072
-0.0289505
-0.0061945
-0.00221499
0.000426484
-0.00579528
-0.00067862
-0.0204551
-0.000147897
-0.00737755
0.000424099
-0.0018871
0.0011014
-0.00171011
-0.00386582
-0.000120422
0.0122446
-4.32144e-05
0.0135168
-4.65563e-05
0.00126389
0.00930078
-5.86691e-05
-0.00311653
0.00622386
-0.0294958
-5.57301e-06
0.000577827
0.00497496
-5.38204e-06
0.000596465
-0.0139867
-2.66084e-06
0.000448918
0.00510048
-1.37058e-06
0.000432413
0.0783963
-1.12587e-06
0.000248578
0.00553494
-7.23915e-07
7.93098e-05
0.551232
-1.84942e-07
9.99559e-05
0.140349
0.00452606
5.83084e-08
0.000287612
-8.60011e-05
-0.000496532
-0.000189347
0.000649897
-0.000276259
0.00125191
-0.000260078
0.00105377
0.000805878
0.00136191
0.00056389
-3.03315e-06
-0.000195582
0.000109167
3.80046e-05
7.4537e-05
0.00250584
-9.5369e-05
0.000923105
-0.00183937
0.0011862
-0.00125552
0.00132854
-0.000114991
-0.00149654
-0.000559784
-0.000687617
0.000100403
9.18668e-05
0.00282856
0.000184371
0.00123007
0.00199502
0.000267645
0.00344739
0.00386744
0.000161318
0.0028289
0.00412812
-0.00173722
-9.62734e-05
0.0040128
0.00350929
2.1837e-05
0.00511049
0.00231391
-0.00531547
0.00629101
0.00105315
8.7925e-05
0.00650544
-0.000201696
-0.0131373
0.00448555
-0.000881682
-0.00500809
-0.00128785
0.00110474
-0.000697083
0.026028
-0.000435239
0.00263668
-0.000694962
0.000775718
-1.81865e-05
-3.03795e-05
0.00486129
-6.46017e-05
0.00758493
-3.92979e-05
0.000305387
0.0126821
0.0017037
-0.0191181
-2.48235e-06
1.77181e-05
-0.00105736
-0.031633
-1.04881e-06
0.000301289
-0.00152372
-3.97433e-07
0.000275064
0.0022066
-4.68864e-07
0.000286928
-0.000433741
-5.11285e-07
0.00024306
0.309062
-2.30162e-07
0.00014569
9.29165e-05
2.74603e-08
4.97705e-05
0.848702
7.91601e-08
-0.000217325
0.191517
0.000208917
4.87883e-08
-0.000187564
-0.000287248
-0.000297353
-0.000309682
-0.000161626
0.000381139
2.79816e-05
-0.000139687
0.00029546
-0.000151251
-0.00087882
-0.00079758
-7.62661e-05
-3.02463e-05
3.40939e-05
-5.65268e-05
5.44478e-05
3.15134e-05
-0.00033141
0.00217006
-1.48071e-05
0.00237824
0.00167433
-0.00104455
0.00126027
0.00035812
-9.30932e-05
4.83275e-06
-0.000257279
-6.9379e-05
-0.00187266
-4.82905e-05
0.000515669
0.000200047
0.000241594
0.00955275
-0.000479634
-0.00240384
-6.79648e-05
0.0132251
0.000639402
0.00241457
-0.000301025
0.0296973
-2.10855e-06
0.00879962
0.000697233
0.102019
-6.06435e-05
0.00511447
0.000750081
-3.39532e-06
-0.00375789
7.43507e-05
0.000242593
0.000358704
0.000815161
-2.64064e-07
0.000234923
5.0577e-05
0.000268447
5.02403e-08
5.02211e-05
0.000360089
0.000132565
-0.00191453
-0.000131449
-0.000142495
0.00102959
0.000495804
-0.00398343
0.000159644
0.0001812
-0.000217906
-0.00169574
0.00177127
0.000150324
-0.000664986
0.000872909
-0.00112277
-0.000271286
-0.00155688
-0.000764346
-0.0010425
5.48946e-05
-0.000264006
0.00265783
-0.00508943
0.000230228
0.000360134
-0.0020616
0.000825579
0.00114279
1.88357e-06
0.000622922
-2.50444e-05
-0.00114242
5.7556e-05
-0.000146119
3.719e-05
-3.27309e-05
0.000159191
-7.31474e-06
2.90342e-05
0.00423667
4.61932e-05
-6.48593e-06
-0.00675302
0.000438472
-0.00200374
2.95197e-06
0.000162953
-0.000473214
8.94474e-05
-0.00525098
6.66045e-05
-0.000101428
-0.00919129
7.12994e-05
-0.000124107
-0.00899598
8.17056e-05
7.78223e-05
3.47675e-06
-3.69891e-05
-0.00366625
8.23746e-05
1.0678e-05
0.00191101
2.36129e-05
-2.57529e-06
-0.00775442
3.48545e-05
-5.90758e-06
4.55406e-05
-0.00103515
-2.10362e-05
6.87959e-05
-9.36022e-06
8.79515e-06
3.8916e-06
3.84169e-06
-0.0046638
0.000269026
-0.00483181
3.31599e-05
-0.0210779
0.000152743
1.78112e-05
5.40979e-05
0.00303185
9.69967e-07
4.14594e-05
0.00849982
0.00128939
5.65022e-06
0.26273
0.0106729
2.98504e-07
0.808976
0.000586122
9.78577e-07
0.922398
-0.000251962
9.43765e-07
0.00539877
6.73361e-07
-0.000389709
-0.000164882
-0.00146754
8.22374e-05
-0.0111484
8.28661e-07
0.00998342
1.13746e-06
0.0132138
-7.46964e-08
1.16443e-06
0.0141776
-0.000119107
1.45754e-07
-0.0073389
1.71145e-06
-8.36237e-08
0.00543137
-3.31206e-08
-0.00455891
-0.0010615
-4.21856e-05
0.000246254
-0.000225024
8.1847e-08
-0.000195967
0.150678
3.51562e-05
7.83128e-05
-0.000148376
1.86481e-06
0.000118717
-0.00316588
-0.000196675
-5.06355e-06
1.74116e-05
0.00118483
-0.000144769
0.00476521
0.000212301
3.40649e-05
-1.95648e-06
-0.00112174
6.07728e-05
-2.8597e-05
-0.00194583
0.027304
5.82181e-06
-0.00289828
0.0001119
-2.50813e-05
0.000359875
0.0774446
-1.77539e-05
1.85147e-06
8.19865e-06
-0.0100111
1.03225e-06
-2.47328e-05
9.29167e-05
0.00590249
0.000300287
-0.000505236
0.0189485
1.01792e-05
-3.7937e-05
4.5217e-07
-8.47704e-06
3.05805e-06
0.00272936
-0.000897056
4.44647e-05
3.54541e-06
-0.000101874
8.71263e-06
-0.0190199
2.83833e-07
-0.000331149
-4.98851e-08
-1.22874e-05
-0.000761175
-6.7802e-06
0.000214301
6.68477e-05
2.99358e-06
1.82638e-05
-3.83885e-05
-0.00361805
5.37912e-07
0.000247332
-7.10921e-08
-3.6186e-05
1.93531e-05
-0.00138643
3.15621e-06
-5.3877e-07
5.36e-05
8.87825e-06
-0.00734008
3.97923e-07
0.00113617
-3.33612e-08
1.05754e-06
-2.5756e-05
6.56152e-05
-0.000104326
0.047641
6.45872e-08
-0.000910863
-1.10872e-07
0.00467616
4.06669e-09
-9.90189e-08
0.00465665
0.00144515
1.37746e-05
-2.46959e-05
-6.34372e-05
3.22596e-06
-9.97502e-09
0.00605014
-8.78517e-08
-0.0167706
1.036e-05
-0.000114797
-0.00174649
2.61999e-07
0.00337618
0.000193179
0.000116961
0.000454312
-5.69655e-05
0.00267101
-1.98133e-05
-0.00438874
1.84696e-05
8.88664e-06
6.72873e-06
0.000512871
-0.000145888
-6.05125e-06
-8.41802e-08
7.13753e-07
3.23097e-06
6.73222e-06
3.21219e-05
-0.0030951
0.000132204
0.000462398
6.45146e-05
-2.36181e-05
1.58248e-05
0.000117798
6.79751e-06
1.27948e-07
-0.0319996
2.30984e-05
0.00861905
8.02389e-06
1.50681e-06
0.0182788
2.44478e-05
-0.000127556
8.53005e-05
1.87476e-05
-0.000236805