# vtk DataFile Version 2.0
Unstructured Grid by M++
ASCII
DATASET UNSTRUCTURED_GRID
POINTS 4072 float
  0.875000   1.000000 0
  0.875000   0.984375 0
  0.875000   0.968750 0
  0.875000   0.953125 0
  0.875000   0.937500 0
  0.875000   0.921875 0
  0.875000   0.906250 0
  0.875000   0.890625 0
  0.875000   0.875000 0
  0.875000   0.859375 0
  0.875000   0.843750 0
  0.875000   0.828125 0
  0.875000   0.812500 0
  0.875000   0.796875 0
  0.875000   0.781250 0
  0.875000   0.765625 0
  0.859375   1.000000 0
  0.859375   0.984375 0
  0.859375   0.968750 0
  0.859375   0.953125 0
  0.859375   0.937500 0
  0.859375   0.921875 0
  0.859375   0.890625 0
  0.859375   0.875000 0
  0.859375   0.859375 0
  0.859375   0.843750 0
  0.859375   0.828125 0
  0.859375   0.812500 0
  0.859375   0.796875 0
  0.859375   0.781250 0
  0.859375   0.765625 0
  0.859375   0.671875 0
  0.859375   0.656250 0
  0.859375   0.640625 0
  0.843750   1.000000 0
  0.843750   0.984375 0
  0.843750   0.968750 0
  0.843750   0.953125 0
  0.843750   0.937500 0
  0.843750   0.921875 0
  0.843750   0.906250 0
  0.843750   0.875000 0
  0.843750   0.859375 0
  0.843750   0.843750 0
  0.843750   0.828125 0
  0.843750   0.812500 0
  0.843750   0.796875 0
  0.843750   0.781250 0
  0.843750   0.765625 0
  0.843750   0.671875 0
  0.843750   0.656250 0
  0.843750   0.640625 0
  0.828125   1.000000 0
  0.828125   0.984375 0
  0.828125   0.968750 0
  0.828125   0.953125 0
  0.828125   0.937500 0
  0.828125   0.921875 0
  0.875000   0.671875 0
  0.812500   0.921875 0
  0.890625   0.656250 0
  0.828125   0.906250 0
  0.875000   0.656250 0
  0.812500   0.906250 0
  0.890625   0.640625 0
  0.828125   0.890625 0
  0.875000   0.640625 0
  0.812500   0.890625 0
  0.890625   0.625000 0
  0.828125   0.875000 0
  0.890625   0.609375 0
  0.828125   0.859375 0
  0.890625   0.593750 0
  0.828125   0.843750 0
  0.890625   0.578125 0
  0.828125   0.828125 0
  0.890625   0.562500 0
  0.828125   0.812500 0
  0.828125   0.796875 0
  0.828125   0.781250 0
  0.828125   0.765625 0
  0.828125   0.671875 0
  0.828125   0.656250 0
  0.828125   0.640625 0
  0.875000   0.750000 0
  0.812500   1.000000 0
  0.875000   0.625000 0
  0.812500   0.875000 0
  0.875000   0.734375 0
  0.812500   0.984375 0
  0.875000   0.718750 0
  0.812500   0.968750 0
  0.875000   0.703125 0
  0.812500   0.953125 0
  0.875000   0.687500 0
  0.812500   0.937500 0
  0.875000   0.609375 0
  0.812500   0.859375 0
  0.875000   0.593750 0
  0.812500   0.843750 0
  0.875000   0.578125 0
  0.812500   0.828125 0
  0.812500   0.812500 0
  0.875000   0.546875 0
  0.812500   0.796875 0
  0.812500   0.781250 0
  0.812500   0.765625 0
  0.859375   0.750000 0
  0.796875   1.000000 0
  0.859375   0.625000 0
  0.796875   0.875000 0
  0.859375   0.734375 0
  0.796875   0.984375 0
  0.859375   0.718750 0
  0.796875   0.968750 0
  0.859375   0.703125 0
  0.796875   0.953125 0
  0.859375   0.687500 0
  0.796875   0.937500 0
  0.859375   0.609375 0
  0.796875   0.859375 0
  0.859375   0.593750 0
  0.796875   0.843750 0
  0.859375   0.578125 0
  0.796875   0.828125 0
  0.859375   0.562500 0
  0.796875   0.812500 0
  0.796875   0.796875 0
  0.859375   0.531250 0
  0.796875   0.781250 0
  0.796875   0.765625 0
  0.843750   0.750000 0
  0.781250   1.000000 0
  0.843750   0.625000 0
  0.781250   0.875000 0
  0.843750   0.734375 0
  0.781250   0.984375 0
  0.843750   0.718750 0
  0.781250   0.968750 0
  0.843750   0.703125 0
  0.781250   0.953125 0
  0.843750   0.687500 0
  0.781250   0.937500 0
  0.843750   0.609375 0
  0.781250   0.859375 0
  0.843750   0.593750 0
  0.781250   0.843750 0
  0.843750   0.578125 0
  0.781250   0.828125 0
  0.781250   0.812500 0
  0.843750   0.546875 0
  0.781250   0.796875 0
  0.781250   0.781250 0
  0.843750   0.515625 0
  0.781250   0.765625 0
  0.828125   0.750000 0
  0.765625   1.000000 0
  0.828125   0.625000 0
  0.765625   0.875000 0
  0.828125   0.734375 0
  0.765625   0.984375 0
  0.828125   0.718750 0
  0.765625   0.968750 0
  0.828125   0.703125 0
  0.765625   0.953125 0
  0.828125   0.687500 0
  0.765625   0.937500 0
  0.828125   0.609375 0
  0.765625   0.859375 0
  0.828125   0.593750 0
  0.765625   0.843750 0
  0.828125   0.578125 0
  0.765625   0.828125 0
  0.828125   0.562500 0
  0.765625   0.812500 0
  0.765625   0.796875 0
  0.828125   0.531250 0
  0.765625   0.781250 0
  0.765625   0.765625 0
  0.812500   0.750000 0
  0.750000   1.000000 0
  0.953125   1.000000 0
  0.812500   0.734375 0
  0.750000   0.984375 0
  0.812500   0.718750 0
  0.750000   0.968750 0
  0.812500   0.703125 0
  0.750000   0.953125 0
  0.812500   0.687500 0
  0.750000   0.937500 0
  0.812500   0.671875 0
  0.750000   0.921875 0
  0.812500   0.656250 0
  0.750000   0.906250 0
  0.812500   0.640625 0
  0.750000   0.890625 0
  0.812500   0.625000 0
  0.750000   0.875000 0
  0.812500   0.609375 0
  0.750000   0.859375 0
  0.812500   0.593750 0
  0.750000   0.843750 0
  0.812500   0.578125 0
  0.750000   0.828125 0
  0.750000   0.812500 0
  0.812500   0.546875 0
  0.750000   0.796875 0
  0.750000   0.781250 0
  0.812500   0.515625 0
  0.750000   0.765625 0
  0.796875   0.750000 0
  0.734375   1.000000 0
  0.796875   0.734375 0
  0.734375   0.984375 0
  0.796875   0.718750 0
  0.734375   0.968750 0
  0.796875   0.703125 0
  0.734375   0.953125 0
  0.796875   0.687500 0
  0.734375   0.937500 0
  0.796875   0.671875 0
  0.734375   0.921875 0
  0.796875   0.656250 0
  0.734375   0.906250 0
  0.796875   0.640625 0
  0.734375   0.890625 0
  0.796875   0.625000 0
  0.734375   0.875000 0
  0.796875   0.609375 0
  0.734375   0.859375 0
  0.796875   0.593750 0
  0.734375   0.843750 0
  0.796875   0.578125 0
  0.734375   0.828125 0
  0.734375   0.812500 0
  0.734375   0.796875 0
  0.796875   0.531250 0
  0.734375   0.781250 0
  0.734375   0.765625 0
  0.781250   0.750000 0
  0.718750   1.000000 0
  0.921875   1.000000 0
  0.781250   0.734375 0
  0.718750   0.984375 0
  0.781250   0.718750 0
  0.718750   0.968750 0
  0.781250   0.703125 0
  0.718750   0.953125 0
  0.859375   0.906250 0
  0.781250   0.687500 0
  0.718750   0.937500 0
  0.781250   0.671875 0
  0.718750   0.921875 0
  0.781250   0.656250 0
  0.718750   0.906250 0
  0.781250   0.640625 0
  0.718750   0.890625 0
  0.781250   0.625000 0
  0.718750   0.875000 0
  0.781250   0.609375 0
  0.718750   0.859375 0
  0.781250   0.593750 0
  0.718750   0.843750 0
  0.781250   0.578125 0
  0.718750   0.828125 0
  0.781250   0.562500 0
  0.718750   0.812500 0
  0.781250   0.546875 0
  0.718750   0.796875 0
  0.781250   0.531250 0
  0.718750   0.781250 0
  0.781250   0.515625 0
  0.718750   0.765625 0
  0.765625   0.750000 0
  0.703125   1.000000 0
  0.765625   0.734375 0
  0.703125   0.984375 0
  0.765625   0.718750 0
  0.703125   0.968750 0
  0.765625   0.703125 0
  0.703125   0.953125 0
  0.765625   0.687500 0
  0.703125   0.937500 0
  0.843750   0.890625 0
  0.703125   0.921875 0
  0.765625   0.656250 0
  0.703125   0.906250 0
  0.765625   0.640625 0
  0.703125   0.890625 0
  0.765625   0.625000 0
  0.703125   0.875000 0
  0.765625   0.609375 0
  0.703125   0.859375 0
  0.765625   0.593750 0
  0.703125   0.843750 0
  0.765625   0.578125 0
  0.703125   0.828125 0
  0.765625   0.562500 0
  0.703125   0.812500 0
  0.765625   0.546875 0
  0.703125   0.796875 0
  0.765625   0.531250 0
  0.703125   0.781250 0
  0.765625   0.515625 0
  0.703125   0.765625 0
  0.750000   0.750000 0
  0.687500   1.000000 0
  0.890625   1.000000 0
  0.750000   0.734375 0
  0.687500   0.984375 0
  0.750000   0.718750 0
  0.687500   0.968750 0
  0.578125   0.796875 0
  0.578125   0.781250 0
  0.578125   0.765625 0
  0.546875   0.953125 0
  0.546875   0.968750 0
  0.546875   0.718750 0
  0.546875   0.687500 0
  0.250000   0.609375 0
  0.937500   0.031250 0
  0.046875   0.703125 0
  0.734375   0.062500 0
  0.734375   0.078125 0
  0.734375   0.046875 0
  0.046875   0.593750 0
  0.046875   0.562500 0
  0.046875   0.531250 0
  0.718750   0.156250 0
  0.046875   0.609375 0
  0.734375   0.031250 0
  0.062500   0.609375 0
  0.234375   0.703125 0
  0.718750   0.125000 0
  0.046875   0.578125 0
  0.734375   0.000000 0
  0.062500   0.578125 0
  0.000000   0.828125 0
  0.234375   0.671875 0
  0.234375   0.625000 0
  0.718750   0.093750 0
  0.687500   0.156250 0
  0.062500   0.546875 0
  0.000000   0.796875 0
  0.718750   0.046875 0
  0.031250   0.687500 0
  0.687500   0.171875 0
  0.500000   1.000000 0
  0.078125   0.218750 0
  0.234375   0.593750 0
  0.718750   0.062500 0
  0.687500   0.125000 0
  0.000000   0.765625 0
  0.421875   0.500000 0
  0.031250   0.593750 0
  0.718750   0.015625 0
  0.687500   0.234375 0
  0.015625   0.812500 0
  0.703125   0.171875 0
  0.703125   0.187500 0
  0.703125   0.140625 0
  0.015625   0.781250 0
  0.437500   0.515625 0
  0.500000   0.796875 0
  0.078125   0.015625 0
  0.687500   0.203125 0
  0.250000   0.578125 0
  0.703125   0.109375 0
  0.000000   0.515625 0
  0.500000   0.765625 0
  0.062500   0.593750 0
  0.750000   0.015625 0
  0.015625   0.843750 0
  0.687500   0.000000 0
  0.500000   0.828125 0
  0.078125   0.046875 0
  0.015625   0.531250 0
  0.250000   0.546875 0
  0.703125   0.078125 0
  0.703125   0.031250 0
  0.015625   0.671875 0
  0.250000   0.515625 0
  0.000000   0.656250 0
  0.500000   0.906250 0
  0.078125   0.125000 0
  0.687500   0.015625 0
  0.031250   0.546875 0
  0.687500   0.031250 0
  0.500000   0.859375 0
  0.703125   0.000000 0
  0.703125   0.046875 0
  0.703125   0.015625 0
  0.500000   0.937500 0
  0.234375   0.531250 0
  0.031250   0.578125 0
  0.687500   0.062500 0
  0.500000   0.890625 0
  0.031250   0.796875 0
  0.453125   0.531250 0
  0.500000   0.968750 0
  0.078125   0.187500 0
  0.234375   0.562500 0
  0.031250   0.609375 0
  0.718750   0.031250 0
  0.687500   0.093750 0
  0.750000   0.046875 0
  0.000000   0.937500 0
  0.421875   0.671875 0
  0.718750   0.187500 0
  0.031250   0.828125 0
  0.765625   0.062500 0
  0.015625   0.953125 0
[...]
CELL_DATA 7648
SCALARS scalar_value float 1
LOOKUP_TABLE default
0
0
0
0
0
0
0
0.0210879
0.0668968
0.000372948
0.00058349
0
-1.46374e-10
7.46313e-10
6.9333e-10
0.0163361
5.7138e-05
0.000617292
0.00118105
0
0.380498
0.711969
0.389845
-4.2139e-06
0.224193
-0.000136907
9.87787e-05
0.000529044
-2.1053e-05
0.0881307
7.77777e-06
1.57014e-06
1.6854e-06
2.95561e-07
6.54574e-08
8.69352e-08
0
4.47691e-07
0.00329717
-0.00355294
1.75e-08
-0.00179944
0.00107976
-8.40345e-10
-2.74607e-10
-3.46303e-05
-2.77552e-05
-4.67046e-05
7.54489e-06
-1.07228e-06
8.22961e-07
1.81586e-06
0
0
-0.005856
0.733729
0.810358
0.490134
-0.001973
0
1.24022e-10
2.16615e-05
-4.69606e-08
-3.79776e-06
2.18074e-05
-1.57405e-05
0.000669931
0
-2.14527e-07
-4.01913e-10
-5.37757e-10
-9.86577e-10
0
0
-1.58919e-09
0.327479
0.0610128
0.0864422
0.0291025
-0.0142286
-1.13511e-06
0.0947928
0.522635
-1.71446e-05
0
-1.04415e-06
-1.09605e-09
0.0037697
0.0100005
0.00135126
4.60711e-06
0.224723
1.402e-08
9.06472e-08
-1.21111e-07
-3.60322e-08
0
3.00186e-09
1.25032e-06
1.06692e-06
1.02786e-06
-3.25177e-10
0
-1.72922e-10
0.797641
0
-1.62869e-05
-5.67178e-05
0.0169816
0.106305
-1.90497e-05
1.10836e-05
0.834604
0.770032
9.84739e-09
4.60775e-08
0.693025
5.20512e-08
-1.2892e-08
1.76359e-08
1.35065e-08
-0.000114772
-8.56148e-05
4.61032e-09
0
1.84474e-09
-6.13435e-10
0.629953
0.065316
0.0356999
0.35707
3.46228e-08
-0.000512247
0.256354
-1.0303e-09
0
0.83933
0.454007
0.445844
0.00563406
0
0
1.44486e-08
8.96011e-10
-0.00739026
-3.17753e-08
0
-1.78392e-07
0
-0.00234992
-1.23446e-10
0
0.00285751
-3.20949e-10
-0.00203393
6.233e-10
0
0.000723765
0.000325284
0.000832807
-0.000793086
0.00245493
0
0
0.000174139
0.000636899
0
0
0
0.00173874
-7.14834e-10
0.00233312
0
0
-0.000961876
0.4505
0.656794
0
-3.16274e-07
-0.00036276
8.828e-06
-5.28224e-07
-2.6014e-07
-5.69953e-08
-4.01869e-08
-3.59253e-07
-6.85936e-07
-0.00147645
-6.78142e-07
-0.00263432
0.0303024
-4.3486e-08
-8.74389e-07
0
0
1.17038e-09
-1.38158e-09
-0.00715383
0
0
1.61195e-07
6.0689e-08
0.00214131
0.00331046
-1.96941e-06
7.25216e-06
0.00147401
0.00181459
-3.05812e-08
-4.56196e-07
-8.18473e-09
-9.05509e-08
0.000587199
5.87897e-05
-0.000146067
0.72021
0.00266144
0.140788
0.24928
0.458301
0.00408911
-2.99413e-07
0
0.00183411
6.30769e-08
1.4703e-05
-1.51222e-10
1.34483e-05
9.00683e-06
0.307796
0.122359
0.044445
0.1778
0.00067925
1.20756e-05
-0.0010173
-0.000439858
0.000363693
2.93574e-10
2.65729e-05
0
7.01343e-09
0.256334
0.716864
0.316173
0
0
0
0
0.000114948
-0.000506964
-0.000503249
7.18844e-08
0.000222937
3.5329e-05
0
1.69392e-09
4.14493e-10
1.20544e-09
0.574512
4.25143e-10
0
6.01117e-06
1.60571e-06
-2.86096e-06
0.802394
0.397531
1.44041e-09
-7.85797e-10
0.000320476
0.567573
0
0.238859
0.00492689
0.331514
2.39159e-06
-0.000961307
0.00265914
0.0450322
0.011972
0.000154952
-0.00267589
1.35107e-05
2.3097e-06
1.40162e-06
-2.73454e-07
1.28001e-07
0.37337
0.0756425
-4.51256e-07
5.46978e-07
-3.11613e-07
-1.42935e-07
0.0165876
0.0414235
0.0300973
9.93614e-07
3.39906e-06
0.102551
-2.98173e-07
-0.00692136
0.00738068
0.00233447
0.000255452
4.16722e-05
-2.48058e-07
-6.95164e-08
0.00273779
0.00248803
0.000248793
0
0.00046504
5.94471e-05
0.000182599
0.000554754
6.71434e-05
-0.00209965
0.00619996
0.00706963
0.00222903
-4.08917e-08
-4.10497e-08
1.10283e-08
4.69661e-08
0
-0.000171389
0.00044271
-3.78257e-05
6.24276e-05
-4.21919e-05
-0.0677539
0.304629
0
-0.0425493
0.170205
2.08742e-08
0
3.57235e-10
2.97131e-08
4.74315e-09
-0.0064452
0.610746
-0.017427
-0.0145278
-1.55594e-06
0.000882244
0.804004
0.66293
1.40249e-09
0
0
0.208862
-0.00150989
0.703806
0.556782
0
3.35956e-07
1.52665e-06
0.254569
-0.0249946
3.21044e-08
1.30426e-07
0.1058
0
4.59208e-06
0.00329918
0.916146
0.852248
0.538553
0.068995
0.000937348
0
2.06287e-09
0.613626
0.754362
0.0344179
-0.000912417
0.452652
0.0235128
0.00265908
-0.00133303
2.81577e-07
0.000301523
-0.00339549
-0.00460215
-0.00209799
-1.04369e-09
-0.00254325
-9.95538e-06
1.10679e-05
0.000228412
3.74783e-05
0.000163112
-0.00205153
0.000490102
0.293227
0.0123413
0.00255886
0.000587266
0.0035187
0.00436325
1.72479e-08
-1.13846e-06
-4.72852e-07
1.86535e-05
0
-0.000111778
0.176086
0.0654992
1.15985e-06
0
0.571315
0
0.713261
0.500846
8.91956e-09
0
1.69371e-05
0.00105569
0.00466485
-0.0022969
0.00164294
1.19627e-06
0.219363
1.04308e-10
0.00436239
-0.00489227
1.34698e-05
7.98603e-05
-9.14658e-10
-5.17235e-10
9.5649e-06
0
0.041172
0.263177
7.51949e-07
-1.33396e-06
0
0
0
2.5362e-09
-2.8064e-06
-0.0156444
2.67659e-06
0
0
0.0308965
1.97641e-10
0
0
0
1.40288e-05
-0.000800079
0
-2.38947e-08
5.65246e-07
0
0.0077581
-3.05924e-07
-7.32245e-06
0.00721656
9.2159e-07
2.95879e-07
5.80585e-06
-0.0397939
0
1.13218e-07
0.00141815
-1.3724e-06
0
0.0644172
-0.00142905
0.00220419
0
-1.03164e-09
0.854641
3.93099e-09
0
5.16626e-09
-1.98378e-09
0
0.00110915
0.197043
-0.00140576
-3.42561e-08
1.08031e-08
0
7.08501e-07
-5.93507e-09
0.00938458
-1.02973e-06
5.39382e-09
0
-5.28731e-09
0
3.48954e-05
-3.54965e-08
7.86445e-07
-1.13625e-08
0
0.106295
4.99848e-07
1.52147e-06
1.44977e-06
1.61411e-07
-1.68757e-07
3.20571e-06
-1.32151e-05
1.2254e-06
9.55668e-06
6.78717e-07
4.74485e-06
1.01934e-05
0
0.0388242
0.15546
0
-0.00222062
0.0321187
1.25183e-07
0
0.606101
0
-2.31087e-05
-1.05273e-06
-1.46176e-08
0
0
0.330058
8.44001e-06
0
6.59099e-08
5.31707e-07
0.736929
0.543242
0
-1.60735e-09
0
-3.45085e-08
0.801256
0
0
-0.0100985
-5.15813e-07
-1.1175e-08
0.486606
0.629791
0
5.84069e-05
-0.0010975
0.00241475
0.000100917
0.000143565
-0.0136482
0.000908272
0.00832375
9.69001e-09
-0.0133208
-9.17767e-07
-0.000171292
0
0.000151546
-0.00203674
1.48455e-05
-4.42803e-06
0.00215616
2.42538e-06
0.00261551
6.2646e-06
0
0
-0.00475284
6.21019e-09
0.146525
-0.00945828
0.254061
0.107783
0
0.343779
0
0.00120649
0.0152444
0.143978
-0.00488182
-5.56266e-07
0.625353
0.00167218
-0.000184478
0.0629435
7.98584e-08
3.17768e-08
1.54374e-08
0.00152923
0
0
0
0.00315635
-2.77583e-10
0.000592521
0.132633
0
-1.31989e-07
-4.32241e-06
5.71134e-07
9.04065e-07
-0.00020874
0
-3.63942e-09
0.00322972
0.000908795
0.000607803
0.121068
0
2.59777e-05
0.0018879
-0.00792069
-0.00302348
0.012903
0.83975
0.18316
-1.03342e-05
-0.00301249
0.585323
0.00436998
0.524743
-0.00115332
0.000224845
-0.000697483
-0.00127306
0.241227
-0.00830682
-7.05299e-08
8.7585e-07
-0.0586637
-8.58936e-07
-6.10779e-08
0.210761
3.95955e-10
-1.88642e-09
0.001363
5.57094e-06
0.000179985
4.73288e-08
0
0.00137839
-5.04911e-06
-2.33975e-05
0.000222486
0.000318848
-8.4317e-07
3.3845e-05
-7.80997e-09
3.25958e-06
0.424071
0.634951
-9.2661e-06
7.23907e-06
0.0740299
2.77502e-09
0.786016
0
0.00558834
5.79424e-10
0.000164793
0.366984
0.00232983
-0.000113416
9.90639e-10
2.95726e-05
-0.000276789
0.318862
7.10459e-05
0
-9.48622e-10
2.08955e-05
-7.77807e-06
0.21621
0.207215
0.000191988
0
2.63469e-05
0.28861
0.0151908
0.499222
-3.06853e-10
5.76278e-06
-3.28134e-05
-6.30663e-05
9.17491e-06
1.16221e-06
0.00146811
6.49087e-10
0
0.0051081
0.00218941
0.598061
0.776666
0
6.06176e-08
0
-3.19098e-05
0
0.252564
0.00133933
3.47034e-05
0
0
0
-1.77829e-06
-1.94044e-05
0.273641
-4.36089e-05
0.0314333
0.0506144
-0.0707069
0.00420914
-0.00143149
0.000776376
-0.00805181
-1.47348e-06
1.25144e-05
3.36047e-05
-3.41532e-05
-2.13502e-05
0
0.128694
0.0236941
0.00165538
-0.000281941
0.648352
2.22247e-06
-2.02543e-06
0
6.64639e-06
0
2.45531e-07
0
-3.87783e-09
-8.67868e-07
-7.76893e-07
-0.000954808
-0.000322387
2.96098e-07
0
0.194298
-7.98866e-08
0.00793409
-0.00491925
0
0.529336
0
-1.70469e-05
4.32969e-05
-1.21398e-08
0
9.30021e-05
2.49128e-09
0.836116
0.812357
-2.98074e-10
0.733012
0
7.80018e-08
0.743503
-3.74818e-07
-1.34397e-08
-6.05611e-07
-1.04926e-10
6.28553e-08
-3.0749e-06
-1.6237e-09
-6.22406e-08
-2.6813e-07
2.48271e-10
-2.36661e-08
-0.00199251
1.50764e-10
4.33738e-09
-1.0712e-09
1.22328e-06
9.70229e-08
5.85212e-10
0
-9.5027e-09
-5.69643e-05
-6.08747e-06
9.8636e-08
5.90193e-08
0.60076
0
-5.75553e-07
0
0.626356
0.0451416
-1.86199e-08
-0.0118505
0.490785
0.382734
0.675915
-1.24266e-07
0
0.0116104
0.159295
0.346288
3.8976e-06
-0.0197767
0.790899
0.132412
0.00045903
-2.37819e-06
0.622264
0.648293
0.000436925
0.00739276
5.47427e-05
0
0.0284565
3.64794e-10
0.00945096
-3.83506e-10
-1.71938e-10
1.37702e-10
0.133463
0.0393814
0
0
0
0.027923
0
0
-1.18077e-05
0.0237268
-0.00484398
0
-2.82031e-07
0
0.00538295
0.303323
-3.96395e-09
5.30014e-10
-2.52306e-05
-6.02099e-06
-1.25171e-07
0
0.0173838
-1.01807e-05
0
0.188256
4.87581e-08
0
-7.02253e-07
0
2.24184e-06
0.00033117
0.0022308
0.0052637
3.11376e-07
-1.31569e-07
-0.00128598
0.0110764
-0.00627216
0.150466
0.384359
-5.45752e-06
-0.000109205
-2.72942e-07
1.45025e-06
-8.49326e-06
-1.11576e-05
-3.31703e-08
-6.98023e-10
9.87928e-07
9.32062e-06
0.00137588
-1.7252e-06
1.34359e-09
0
-1.43775e-09
0.000270178
-6.31939e-10
-9.87735e-10
0
0.0363148
6.19677e-07
3.74067e-09
0
0.00126312
-0.000172652
3.90933e-10
0.00113188
0.796494
0.00416671
-7.71456e-07
7.48296e-06
-4.76865e-09
3.38645e-09
0.000986959
0
0
-0.000299808
0
-3.53635e-10
-0.00213263
0
5.01114e-07
-0.00203594
-0.000155983
9.38056e-06
2.94978e-06
-0.00225099
-0.000845208
0
0
0
0.029525
-3.59811e-07
0
0
0
0
9.8325e-06
0
0
-0.000106991
0
0
-0.000236662
0
-5.2897e-05
-1.7546e-05
0
0.273029
0.103773
-1.17841e-06
0.354278
0
0.0945676
0.00167817
-0.00110888
0
-7.91371e-09
0
0.0456257
5.03822e-07
0
3.05795e-05
-5.21853e-06
-4.06691e-05
5.77339e-06
9.5472e-08
-1.08544e-07
1.00295e-06
0.0139382
-0.0175156
-0.0048543
0.790232
0
0
0.135943
1.97065e-06
7.00896e-07
1.17817e-07
-1.44029e-06
3.49755e-07
0
-1.37435e-06
0.000856994
3.09631e-10
0.024688
0
0
-4.16022e-05
0.170656
0
-0.00332679
3.28237e-06
-9.13997e-07
0
0.173908
0.116197
2.78101e-06
1.44842e-09
1.15738e-07
1.5598e-09
3.38231e-09
0.41647
0.429372
-4.2053e-10
7.1543e-09
0.62299
1.61365e-09
-8.26015e-09
0.00145546
-0.0163895
0
-3.15992e-08
6.03177e-06
2.46e-05
0
2.53741e-07
2.00952e-09
-2.40607e-06
3.04086e-05
0
0
-8.17941e-07
4.58549e-06
-8.54715e-10
1.4914e-09
-1.63911e-09
-2.3603e-09
-1.76024e-05
0
6.55658e-09
0.00323327
0.000224141
0.226237
0
0
0
-2.85558e-06
0.0118985
7.05042e-07
1.84231e-05
3.00945e-10
7.01541e-09
4.1228e-09
0
0.00319598
6.9226e-09
0
-1.73158e-10
2.15386e-05
0.00599153
0
0
0.231315
-2.43169e-08
1.74509e-08
-1.88006e-08
-0.000925406
0.222284
-4.58076e-05
0.00138064
2.55773e-07
0.0209632
-0.00328933
-3.05916e-06
0.859105
0.00155801
6.87952e-09
-2.82912e-06
-9.50008e-06
2.18231e-06
9.35216e-08
-0.0148871
0
-5.9985e-08
0
0
1.06055e-06
0
-1.26821e-08
-2.60523e-08
0
-3.4871e-07
3.89335e-05
-7.35857e-09
2.89403e-09
2.85899e-06
-0.0309527
1.54565e-10
-0.0164101
0.0274413
-6.85734e-09
0
-1.31486e-05
-7.60638e-08
0.14601
0.126557
0.00093071
6.96792e-07
5.02426e-09
0
0.485555
3.3732e-07
0.0234428
0
0.774117
3.11724e-08
-3.16002e-10
-2.23708e-09
-2.53506e-09
0
0
-0.00165289
0.000635908
-0.0020528
1.63797e-05
3.30095e-05
0.000174414
-1.16993e-06
0.00199063
0
0.123663
0
0.0290479
0
0.0143625
0.0741704
0.430928
0
-0.000105478
0.00111129
-5.56275e-10
2.73649e-06
0
-0.00270327
0
0
0
4.54861e-10
0.00254001
0.0431087
0
0
0
0
8.75087e-05
1.47415e-07
-1.02103e-07
2.9345e-07
2.91912e-05
3.88702e-05
-2.23971e-06
8.62208e-09
1.70988e-08
2.14936e-08
-4.89161e-08
-1.30521e-08
-1.47677e-08
0
0
0
0
0.4641
0.0234397
-0.0169692
0.000305947
0
-9.25706e-08
8.31034e-08
-7.55821e-08
8.66642e-07
0.740562
0.0172595
0
0.0135478
0
-1.46406e-07
-2.22987e-08
-2.95708e-07
1.87505e-07
-1.95819e-07
3.76703e-05
0.00112737
-4.89299e-09
-3.62677e-09
-0.000377299
-0.000606979
0.000786051
1.92101e-09
2.525e-09
-1.74555e-09
6.15906e-09
0.000915368
0.000465332
0.00423082
-6.05321e-06
2.06973e-06
1.02058e-05
-2.47267e-06
0.000286299
2.04867e-05
0.000253828
0.000300262
-2.86766e-05
5.25068e-08
-5.64419e-06
7.12411e-05
7.49637e-05
-1.41842e-05
-2.86893e-06
-3.91329e-06
0
0
0
2.38653e-06
-2.11589e-05
0.0123395
0.773336
0.200669
-0.0360593
0
0.015769
-4.23583e-09
1.42845e-05
4.61904e-06
1.59047e-05
-1.78783e-05
7.42776e-06
5.81106e-05
0
0.383158
2.23359e-06
-1.93023e-06
-3.43057e-06
-3.55504e-06
0
0.800109
-3.91589e-06
1.39386e-06
1.18061e-05
-1.99688e-05
1.03354e-08
-6.7596e-10
-1.36881e-08
9.47917e-08
1.66586e-08
-2.19819e-08
1.70954e-08
-3.77852e-06
-3.08902e-06
-4.12592e-06
0
0.107355
0.173338
0.407616
0.0306228
-0.0130243
0
-0.0231623
-0.00136888
-3.0815e-06
0
0
2.48005e-10
-2.08491e-10
0.00779452
0
-1.56567e-05
-0.000284301
0.0276943
-0.0383317
0
0.846797
0
-4.97663e-10
-3.93198e-10
-6.60792e-10
0.256306
0
-4.25866e-07
6.36678e-07
-6.53944e-07
0
0
0
0
0.00856455
0.000419299
-0.00304238
2.94201e-07
2.21521e-05
4.62319e-05
1.04623e-05
5.78742e-07
-0.00377775
9.16388e-10
2.80249e-10
-7.44659e-10
6.47771e-10
1.08607e-06
1.26487e-06
0
0.58978
0
0
0.77306
-2.36547e-10
0.000192593
-0.000337702
-0.000154764
1.703e-06
1.62083e-06
-1.43207e-07
9.46185e-09
1.30079e-09
-6.79416e-10
-6.36593e-10
8.7563e-10
-1.50256e-09
3.20284e-06
0.776818
0.437522
0
-9.75797e-07
-4.0074e-07
0
0
0
0
0.376259
0.724407
-1.12339e-08
-5.12891e-07
-9.89198e-08
1.70189e-07
2.55663e-09
1.64839e-09
-4.48461e-10
4.84197e-10
0.00179111
0.12074
0.266135
-1.24655e-05
1.52004e-10
-9.91942e-10
1.64779e-09
-1.3048e-09
0.000367695
0.00171603
0.00642387
0
-0.0117555
0.136968
0.000243808
0.120948
-0.0102016
3.85287e-07
1.61382e-07
2.15567e-06
2.28995e-08
-5.00713e-08
2.43453e-07
2.12787e-07
0.0052992
0.0487856
0.820923
0.789617
-0.022263
-0.0095455
1.76554e-05
-5.34736e-10
-3.11202e-09
-1.18534e-09
5.11274e-09
-3.66772e-09
-4.52418e-09
2.90265e-09
0.000331116
-6.90365e-05
-7.67263e-07
0.100036
4.55817e-07
-2.51587e-06
0.00039863
0.630565
0.805686
0
0.11581
-0.00714138
0
-2.84396e-07
6.1583e-08
-6.2253e-08
1.84648e-08
2.07471e-08
-1.57392e-08
-0.000403709
-0.00101477
2.60093e-06
-7.41945e-09
-6.07768e-09
5.14522e-08
-4.07835e-08
-8.26407e-08
1.49852e-07
1.90432e-09
-2.0462e-07
0
0
0
0.756208
0.851137
0
0
0
0
-6.94623e-09
1.19337e-09
4.43421e-07
0.00218824
-2.55661e-08
3.61623e-09
-4.5805e-08
-2.73176e-08
0
0
0
5.53714e-10
-7.48418e-10
-5.13477e-05
-0.0112954
0.000665796
0.00104355
0.000906042
-1.57952e-08
-3.88898e-08
-0.0148268
-7.41355e-09
4.23468e-08
9.66812e-06
0.248799
2.32857e-05
0
-0.0174063
0
-3.00049e-09
-6.6692e-10
0.507773
0.276485
2.19154e-06
8.50844e-06
-2.69383e-05
0.0894095
0
0
0
0
1.56007e-08
-2.33431e-08
0
0
0
1.9014e-06
-1.18411e-06
1.06566e-06
0.00872765
1.46131e-09
8.54276e-07
0
0
-0.00107605
0.0017751
0.535533
-5.95159e-10
-2.1714e-10
7.33252e-10
0
0
0
0.237557
0.291447
8.64879e-10
2.27121e-10
0
1.68444e-08
-0.000621069
0
0
0.733658
0.803674
0.872771
-1.63338e-06
0.00143226
0
2.45286e-10
0.000307697
-1.39685e-06
3.57869e-08
0
0
0.0604944
0
0.00576652
0.000707855
-3.86173e-07
-2.35823e-06
0.125037
0.0113581
-8.02576e-08
-2.03228e-08
3.37069e-08
0.470035
-7.06912e-07
4.559e-08
7.17287e-07
1.34303e-06
0.0586548
-0.000115496
6.87109e-06
9.39747e-05
0
0
0
0
0
0
0.0997347
0
0.733125
0.677855
0
0.866236
1.93543e-05
0.00210896
0.00115179
-4.77152e-08
-1.17181e-07
0.00154455
-1.95037e-05
-4.3677e-05
-2.43597e-05
0
0.683101
1.64112e-07
-9.77917e-08
4.26577e-07
0.33329
0.209515
0.000692391
0.00705604
0.00240245
0.477549
-2.13969e-07
-5.68472e-08
-6.97714e-07
0.113087
0.25452
0.102788
-1.83294e-07
1.6397e-07
-7.55405e-07
0
1.05841e-06
2.11989e-07
-1.03768e-06
-2.7534e-06
-1.11292e-07
4.27235e-07
-5.13888e-07
5.39787e-06
-1.44702e-06
-2.56266e-06
-3.86909e-08
-4.06447e-08
-8.24054e-06
-3.44735e-07
-1.38264e-06
7.58008e-06
2.58341e-08
1.05223e-06
-2.22024e-08
-1.6339e-09
-2.10255e-10
-1.18285e-09
1.27636e-09
-9.61621e-09
-5.66661e-10
-4.82339e-08
-4.70101e-09
5.57446e-09
-1.31602e-05
1.36941e-05
-1.89937e-05
1.82466e-05
2.46839e-05
-0.000139896
0.000444554
-0.000102155
-0.000477767
0
0
0
0.00211999
-0.00768391
0.00963407
2.14322e-09
7.33099e-05
0.0109912
-0.00108677
0.0023178
0.00222534
-0.000687282
-0.00071325
-2.27657e-06
0.000603245
-9.47161e-06
0.145805
2.32355e-05
0.267104
1.50016e-07
4.14669e-07
-4.48119e-05
0
0
-0.000472816
0.000792565
0.00102802
6.02471e-10
3.4192e-10
1.66159e-09
0
0
0
0
0
-3.86043e-05
-3.00244e-05
0.0113349
-0.0193213
-5.17365e-05
7.46412e-06
0.000222419
0
0.000233333
0.000933155
0.279416
0.207338
8.82777e-07
2.7714e-06
-7.70781e-07
0
2.87067e-08
3.15126e-07
0
-1.48209e-10
-2.17826e-10
-1.77671e-06
0.000456839
3.40002e-05
6.16528e-05
3.25443e-06
0.00011576
0.000112138
-1.44089e-08
5.40465e-09
6.02475e-09
-2.16911e-08
9.53452e-09
-7.47076e-09
-0.000110576
-9.11382e-05
0
1.92702e-09
-1.50061e-09
0.000675972
0.000401283
-0.00183198
-0.00294377
1.63602e-05
-3.29019e-05
-2.24018e-08
0
0.00188111
0.00208225
0.00435618
0.0309279
0.0502559
0
0.100868
0
0
0
0
0
0
0
0
-2.16867e-10
0
0.000206902
0.000787738
0.00950135
0.00521632
1.26228e-08
-0.000115616
-2.39263e-07
6.56344e-05
1.02413e-06
1.52497e-06
2.93028e-06
-3.40042e-06
-4.80978e-06
0.77554
0.844449
0.652382
0.694146
0.261574
0.501237
7.21895e-07
0.00147884
4.91419e-08
-0.00067785
0.000310405
0.000829289
-0.000783057
1.49728e-05
2.54887e-06
-5.54697e-05
0
0
0
0
0
0
0
0.838023
0.242412
0
0
0
0
1.01852e-10
-1.86629e-10
-1.41468e-05
-1.48306e-07
-7.17516e-07
-2.03298e-07
-6.39598e-08
6.81825e-09
-2.45576e-10
0
2.34725e-10
-1.80148e-10
0.00614403
-0.00311948
-0.000517128
-0.0116422
-2.74122e-05
0.00217391
0.00106328
1.97871e-08
0
-4.10992e-08
1.27217e-08
3.80128e-06
0
-0.00377718
-0.021618
0.0265987
0.061769
0
1.64627e-06
-4.52024e-08
3.85164e-05
7.88677e-05
8.94623e-05
0.0121992
-0.0055896
0
0
0
0
3.85304e-08
1.80242e-07
-7.14556e-07
0.0183455
0.132654
-4.47115e-09
-9.43058e-09
-1.62794e-08
0
0
0
0
0
0
0.817246
0.603127
-3.97481e-09
-1.90259e-09
9.33467e-10
-1.13544e-09
2.3493e-09
-1.93374e-09
8.20437e-07
2.77258e-06
1.33583e-05
5.21545e-10
-5.4482e-10
0.0122555
0.042602
3.11985e-08
2.67213e-08
9.89869e-08
-4.81076e-06
-3.60456e-06
-1.24768e-05
2.30989e-05
-1.69053e-05
-4.20106e-05
2.87796e-10
-9.02361e-10
4.17846e-10
-2.08663e-09
0.000739594
-0.0012952
0.000550443
0.000973798
-3.72529e-06
-3.64549e-08
-1.69212e-07
4.42783e-07
5.71776e-07
5.25343e-08
-1.10486e-06
3.82396e-05
9.20899e-07
0.14657
-5.08628e-09
-1.76652e-09
-3.24426e-10
6.80245e-07
-3.57559e-09
-4.83599e-09
-2.2269e-09
2.63294e-09
-3.57601e-09
1.43872e-07
0.140405
3.70719e-05
0
0
-1.8223e-08
1.30802e-09
0.0978033
-1.29471e-09
0.000404278
-1.84542e-08
0.000410494
0
0
0
0
0
0
0
0
-4.16888e-08
2.58336e-08
-1.09763e-07
-1.04238e-07
-2.02797e-08
-7.42878e-06
4.05996e-05
5.31049e-05
-3.70868e-05
0.0810638
1.71057e-07
-5.77721e-05
-6.76376e-06
-0.000482693
7.21657e-10
-7.1869e-05
0.000134559
0
0
0
0.350986
0.306301
5.05605e-09
8.69732e-10
3.61999e-10
-6.00004e-09
1.63085e-09
-6.23813e-09
9.25881e-08
1.35974e-07
8.06252e-07
1.41881e-06
0.310932
2.4999e-05
3.97127e-05
-4.41999e-05
-8.11189e-08
-4.29441e-08
1.1604e-07
-5.35487e-09
8.17632e-08
-3.72357e-09
-2.7366e-08
4.36293e-08
1.09707e-07
6.03593e-08
-2.0402e-06
8.54055e-06
0
0
0
0
0
0
-5.19049e-08
-1.42917e-07
-1.01816e-07
-1.17e-08
0
0
0
0.000220994
-0.0038118
-0.00248065
0.000105817
0.00104467
0.000425926
0.000126448
-0.00107972
-0.00275423
-0.00155958
0.00243168
0.00791794
0.0155826
0.0238252
0.0288389
0.030026
0.0277396
0.0236263
0.0202338
0.0175423
0.0192602
0.0256128
0.0320119
0.0378481
0.0318627
0.0110203
-0.00706213
-0.0137628
-0.0142887
-0.0107247
-0.0062291
-0.00484441
-0.00590172
-0.00322711
-0.00316771
-0.0023739
-0.00139203
-0.00288338
-0.0022073
0.00202568
0.00902711
0.0151073
0.0215386
0.0198749
0.0277344
-0.000419341
-0.00456094
-0.00573709
-0.00531991
-0.00335388
-0.00164303
-0.0028698
-0.00561266
-0.00640896
-0.00614078
-0.00709221
-0.00813065
-0.00741547
-0.00520675
-0.00147995
0.00327354
0.0073733
0.0131554
0.0241066
0.0380211
0.0513305
0.0602634
0.0593976
0.0415363
0.0176054
0.00211679
-0.00842512
-0.0110044
-0.00223631
0.00217947
-0.00298786
-0.00529142
-0.00774826
-0.00223191
-0.000610797
0.000551937
-0.00198314
-0.00392562
-0.00639882
-0.00533459
-0.00103421
0.00248569
0.00614118
0.0305247
0.00134794
0.00216119
0.00207232
0.00146521
0.0017127
0.00260676
0.00242212
0.00121311
0.00101778
0.00210572
0.00235109
0.00100608
-0.00105541
-0.00265105
-0.00308064
-0.00257457
0.00224814
0.00335984
-0.0047245
-0.0119293