# vtk DataFile Version 2.0
Unstructured Grid by M++
ASCII
DATASET UNSTRUCTURED_GRID
POINTS 4072 float
  0.875000   1.000000 0
  0.875000   0.984375 0
  0.875000   0.968750 0
  0.875000   0.953125 0
  0.875000   0.937500 0
  0.875000   0.921875 0
  0.875000   0.906250 0
  0.875000   0.890625 0
  0.875000   0.875000 0
  0.875000   0.859375 0
  0.875000   0.843750 0
  0.875000   0.828125 0
  0.875000   0.812500 0
  0.875000   0.796875 0
  0.875000   0.781250 0
  0.875000   0.765625 0
  0.859375   1.000000 0
  0.859375   0.984375 0
  0.859375   0.968750 0
  0.859375   0.953125 0
  0.859375   0.937500 0
  0.859375   0.921875 0
  0.859375   0.890625 0
  0.859375   0.875000 0
  0.859375   0.859375 0
  0.859375   0.843750 0
  0.859375   0.828125 0
  0.859375   0.812500 0
  0.859375   0.796875 0
  0.859375   0.781250 0
  0.859375   0.765625 0
  0.859375   0.671875 0
  0.859375   0.656250 0
  0.859375   0.640625 0
  0.843750   1.000000 0
  0.843750   0.984375 0
  0.843750   0.968750 0
  0.843750   0.953125 0
  0.843750   0.937500 0
  0.843750   0.921875 0
  0.843750   0.906250 0
  0.843750   0.875000 0
  0.843750   0.859375 0
  0.843750   0.843750 0
  0.843750   0.828125 0
  0.843750   0.812500 0
  0.843750   0.796875 0
  0.843750   0.781250 0
  0.843750   0.765625 0
  0.843750   0.671875 0
  0.843750   0.656250 0
  0.843750   0.640625 0
  0.828125   1.000000 0
  0.828125   0.984375 0
  0.828125   0.968750 0
  0.828125   0.953125 0
  0.828125   0.937500 0
  0.828125   0.921875 0
  0.875000   0.671875 0
  0.812500   0.921875 0
  0.890625   0.656250 0
  0.828125   0.906250 0
  0.875000   0.656250 0
  0.812500   0.906250 0
  0.890625   0.640625 0
  0.828125   0.890625 0
  0.875000   0.640625 0
  0.812500   0.890625 0
  0.890625   0.625000 0
  0.828125   0.875000 0
  0.890625   0.609375 0
  0.828125   0.859375 0
  0.890625   0.593750 0
  0.828125   0.843750 0
  0.890625   0.578125 0
  0.828125   0.828125 0
  0.890625   0.562500 0
  0.828125   0.812500 0
  0.828125   0.796875 0
  0.828125   0.781250 0
  0.828125   0.765625 0
  0.828125   0.671875 0
  0.828125   0.656250 0
  0.828125   0.640625 0
  0.875000   0.750000 0
  0.812500   1.000000 0
  0.875000   0.625000 0
  0.812500   0.875000 0
  0.875000   0.734375 0
  0.812500   0.984375 0
  0.875000   0.718750 0
  0.812500   0.968750 0
  0.875000   0.703125 0
  0.812500   0.953125 0
  0.875000   0.687500 0
  0.812500   0.937500 0
  0.875000   0.609375 0
  0.812500   0.859375 0
  0.875000   0.593750 0
  0.812500   0.843750 0
  0.875000   0.578125 0
  0.812500   0.828125 0
  0.812500   0.812500 0
  0.875000   0.546875 0
  0.812500   0.796875 0
  0.812500   0.781250 0
  0.812500   0.765625 0
  0.859375   0.750000 0
  0.796875   1.000000 0
  0.859375   0.625000 0
  0.796875   0.875000 0
  0.859375   0.734375 0
  0.796875   0.984375 0
  0.859375   0.718750 0
  0.796875   0.968750 0
  0.859375   0.703125 0
  0.796875   0.953125 0
  0.859375   0.687500 0
  0.796875   0.937500 0
  0.859375   0.609375 0
  0.796875   0.859375 0
  0.859375   0.593750 0
  0.796875   0.843750 0
  0.859375   0.578125 0
  0.796875   0.828125 0
  0.859375   0.562500 0
  0.796875   0.812500 0
  0.796875   0.796875 0
  0.859375   0.531250 0
  0.796875   0.781250 0
  0.796875   0.765625 0
  0.843750   0.750000 0
  0.781250   1.000000 0
  0.843750   0.625000 0
  0.781250   0.875000 0
  0.843750   0.734375 0
  0.781250   0.984375 0
  0.843750   0.718750 0
  0.781250   0.968750 0
  0.843750   0.703125 0
  0.781250   0.953125 0
  0.843750   0.687500 0
  0.781250   0.937500 0
  0.843750   0.609375 0
  0.781250   0.859375 0
  0.843750   0.593750 0
  0.781250   0.843750 0
  0.843750   0.578125 0
  0.781250   0.828125 0
  0.781250   0.812500 0
  0.843750   0.546875 0
  0.781250   0.796875 0
  0.781250   0.781250 0
  0.843750   0.515625 0
  0.781250   0.765625 0
  0.828125   0.750000 0
  0.765625   1.000000 0
  0.828125   0.625000 0
  0.765625   0.875000 0
  0.828125   0.734375 0
  0.765625   0.984375 0
  0.828125   0.718750 0
  0.765625   0.968750 0
  0.828125   0.703125 0
  0.765625   0.953125 0
  0.828125   0.687500 0
  0.765625   0.937500 0
  0.828125   0.609375 0
  0.765625   0.859375 0
  0.828125   0.593750 0
  0.765625   0.843750 0
  0.828125   0.578125 0
  0.765625   0.828125 0
  0.828125   0.562500 0
  0.765625   0.812500 0
  0.765625   0.796875 0
  0.828125   0.531250 0
  0.765625   0.781250 0
  0.765625   0.765625 0
  0.812500   0.750000 0
  0.750000   1.000000 0
  0.953125   1.000000 0
  0.812500   0.734375 0
  0.750000   0.984375 0
  0.812500   0.718750 0
  0.750000   0.968750 0
  0.812500   0.703125 0
  0.750000   0.953125 0
  0.812500   0.687500 0
  0.750000   0.937500 0
  0.812500   0.671875 0
  0.750000   0.921875 0
  0.812500   0.656250 0
  0.750000   0.906250 0
  0.812500   0.640625 0
  0.750000   0.890625 0
  0.812500   0.625000 0
  0.750000   0.875000 0
  0.812500   0.609375 0
  0.750000   0.859375 0
  0.812500   0.593750 0
  0.750000   0.843750 0
  0.812500   0.578125 0
  0.750000   0.828125 0
  0.750000   0.812500 0
  0.812500   0.546875 0
  0.750000   0.796875 0
  0.750000   0.781250 0
  0.812500   0.515625 0
  0.750000   0.765625 0
  0.796875   0.750000 0
  0.734375   1.000000 0
  0.796875   0.734375 0
  0.734375   0.984375 0
  0.796875   0.718750 0
  0.734375   0.968750 0
  0.796875   0.703125 0
  0.734375   0.953125 0
  0.796875   0.687500 0
  0.734375   0.937500 0
  0.796875   0.671875 0
  0.734375   0.921875 0
  0.796875   0.656250 0
  0.734375   0.906250 0
  0.796875   0.640625 0
  0.734375   0.890625 0
  0.796875   0.625000 0
  0.734375   0.875000 0
  0.796875   0.609375 0
  0.734375   0.859375 0
  0.796875   0.593750 0
  0.734375   0.843750 0
  0.796875   0.578125 0
  0.734375   0.828125 0
  0.734375   0.812500 0
  0.734375   0.796875 0
  0.796875   0.531250 0
  0.734375   0.781250 0
  0.734375   0.765625 0
  0.781250   0.750000 0
  0.718750   1.000000 0
  0.921875   1.000000 0
  0.781250   0.734375 0
  0.718750   0.984375 0
  0.781250   0.718750 0
  0.718750   0.968750 0
  0.781250   0.703125 0
  0.718750   0.953125 0
  0.859375   0.906250 0
  0.781250   0.687500 0
  0.718750   0.937500 0
  0.781250   0.671875 0
  0.718750   0.921875 0
  0.781250   0.656250 0
  0.718750   0.906250 0
  0.781250   0.640625 0
  0.718750   0.890625 0
  0.781250   0.625000 0
  0.718750   0.875000 0
  0.781250   0.609375 0
  0.718750   0.859375 0
  0.781250   0.593750 0
  0.718750   0.843750 0
  0.781250   0.578125 0
  0.718750   0.828125 0
  0.781250   0.562500 0
  0.718750   0.812500 0
  0.781250   0.546875 0
  0.718750   0.796875 0
  0.781250   0.531250 0
  0.718750   0.781250 0
  0.781250   0.515625 0
  0.718750   0.765625 0
  0.765625   0.750000 0
  0.703125   1.000000 0
  0.765625   0.734375 0
  0.703125   0.984375 0
  0.765625   0.718750 0
  0.703125   0.968750 0
  0.765625   0.703125 0
  0.703125   0.953125 0
  0.765625   0.687500 0
  0.703125   0.937500 0
  0.843750   0.890625 0
  0.703125   0.921875 0
  0.765625   0.656250 0
  0.703125   0.906250 0
  0.765625   0.640625 0
  0.703125   0.890625 0
  0.765625   0.625000 0
  0.703125   0.875000 0
  0.765625   0.609375 0
  0.703125   0.859375 0
  0.765625   0.593750 0
  0.703125   0.843750 0
  0.765625   0.578125 0
  0.703125   0.828125 0
  0.765625   0.562500 0
  0.703125   0.812500 0
  0.765625   0.546875 0
  0.703125   0.796875 0
  0.765625   0.531250 0
  0.703125   0.781250 0
  0.765625   0.515625 0
  0.703125   0.765625 0
  0.750000   0.750000 0
  0.687500   1.000000 0
  0.890625   1.000000 0
  0.750000   0.734375 0
  0.687500   0.984375 0
  0.750000   0.718750 0
  0.687500   0.968750 0
  0.578125   0.796875 0
  0.578125   0.781250 0
  0.578125   0.765625 0
  0.546875   0.953125 0
  0.546875   0.968750 0
  0.546875   0.718750 0
  0.546875   0.687500 0
  0.250000   0.609375 0
  0.937500   0.031250 0
  0.046875   0.703125 0
  0.734375   0.062500 0
  0.734375   0.078125 0
  0.734375   0.046875 0
  0.046875   0.593750 0
  0.046875   0.562500 0
  0.046875   0.531250 0
  0.718750   0.156250 0
  0.046875   0.609375 0
  0.734375   0.031250 0
  0.062500   0.609375 0
  0.234375   0.703125 0
  0.718750   0.125000 0
  0.046875   0.578125 0
  0.734375   0.000000 0
  0.062500   0.578125 0
  0.000000   0.828125 0
  0.234375   0.671875 0
  0.234375   0.625000 0
  0.718750   0.093750 0
  0.687500   0.156250 0
  0.062500   0.546875 0
  0.000000   0.796875 0
  0.718750   0.046875 0
  0.031250   0.687500 0
  0.687500   0.171875 0
  0.500000   1.000000 0
  0.078125   0.218750 0
  0.234375   0.593750 0
  0.718750   0.062500 0
  0.687500   0.125000 0
  0.000000   0.765625 0
  0.421875   0.500000 0
  0.031250   0.593750 0
  0.718750   0.015625 0
  0.687500   0.234375 0
  0.015625   0.812500 0
  0.703125   0.171875 0
  0.703125   0.187500 0
  0.703125   0.140625 0
  0.015625   0.781250 0
  0.437500   0.515625 0
  0.500000   0.796875 0
  0.078125   0.015625 0
  0.687500   0.203125 0
  0.250000   0.578125 0
  0.703125   0.109375 0
  0.000000   0.515625 0
  0.500000   0.765625 0
  0.062500   0.593750 0
  0.750000   0.015625 0
  0.015625   0.843750 0
  0.687500   0.000000 0
  0.500000   0.828125 0
  0.078125   0.046875 0
  0.015625   0.531250 0
  0.250000   0.546875 0
  0.703125   0.078125 0
  0.703125   0.031250 0
  0.015625   0.671875 0
  0.250000   0.515625 0
  0.000000   0.656250 0
  0.500000   0.906250 0
  0.078125   0.125000 0
  0.687500   0.015625 0
  0.031250   0.546875 0
  0.687500   0.031250 0
  0.500000   0.859375 0
  0.703125   0.000000 0
  0.703125   0.046875 0
  0.703125   0.015625 0
  0.500000   0.937500 0
  0.234375   0.531250 0
  0.031250   0.578125 0
  0.687500   0.062500 0
  0.500000   0.890625 0
  0.031250   0.796875 0
  0.453125   0.531250 0
  0.500000   0.968750 0
  0.078125   0.187500 0
  0.234375   0.562500 0
  0.031250   0.609375 0
  0.718750   0.031250 0
  0.687500   0.093750 0
  0.750000   0.046875 0
  0.000000   0.937500 0
  0.421875   0.671875 0
  0.718750   0.187500 0
  0.031250   0.828125 0
  0.765625   0.062500 0
  0.015625   0.953125 0
[...]
CELL_DATA 7648
SCALARS scalar_value float 1
LOOKUP_TABLE default
0
0
0
0
0
0
0
0.116937
0.215971
0.000458994
0.000925597
0
0
1.96234e-10
1.52567e-10
0.0549308
2.6593e-05
0.000507755
0.000255824
0
0.657756
0.843131
0.164301
-9.60431e-07
0.100496
1.54607e-07
5.68835e-06
0.000166433
2.22911e-05
0.0195886
1.12713e-06
2.72721e-07
2.37297e-07
4.55572e-08
-3.25259e-09
2.74513e-08
0
6.11404e-08
0.00172738
-0.00171185
-4.40306e-08
0.0229388
0.000827183
1.34341e-09
0
-2.47933e-05
-5.69525e-05
-6.28792e-05
2.30472e-06
2.52595e-06
5.23141e-07
9.07394e-07
0
0
-0.00278017
0.809044
0.743774
0.736216
-0.00224625
-4.02124e-10
0
-2.55355e-05
-2.40387e-08
-1.49349e-05
9.95219e-06
-1.66646e-05
0.000325317
0
-3.16492e-08
-4.84879e-10
-2.151e-10
-5.50469e-10
0
0
-2.97445e-10
0.123193
0.011885
0.0189943
0.00420597
0.00295819
-5.75983e-07
0.0211402
0.258456
-6.821e-06
0
-5.36981e-07
-1.61506e-10
0.00239548
0.00198546
0.000591722
6.0225e-07
0.351248
2.14266e-09
3.33377e-08
-5.36055e-08
1.607e-08
0
1.18006e-09
1.96055e-07
1.34407e-07
1.72312e-07
0
0
0
0.585879
0
-3.28562e-05
-4.24572e-05
0.00406205
0.0331673
-1.95905e-05
1.59884e-05
0.794232
0.848869
-1.7262e-09
2.75125e-09
0.804161
5.93268e-09
-1.35618e-09
1.98429e-09
1.75652e-09
0.00166572
-0.00227778
2.70717e-09
0
5.25154e-10
-1.88986e-10
0.474532
0.0240322
0.0100891
0.209705
7.96998e-09
-0.000228556
0.372292
-1.0976e-09
-1.78896e-10
0.925692
0.206507
0.73825
0.000314204
0
0
7.48772e-09
1.29316e-10
-0.0127644
-6.25841e-09
0
-9.91418e-08
0
-0.00198531
0
0
0.00174256
0
-0.000802943
1.10327e-10
0
-0.000552145
0.000910699
0.00155663
-0.00182963
0.00238268
0
0
5.94528e-05
0.000323269
0
0
0
0.00241845
0
0.00192705
0
0
0.000179383
0.708058
0.562671
0
-5.4342e-08
-0.000174532
2.3754e-05
-9.55126e-08
3.98277e-08
-1.51706e-08
-8.43176e-09
-7.35783e-08
-1.07464e-06
-0.00184771
-2.15422e-07
-0.00261799
0.142969
-4.54367e-08
-2.171e-07
0
0
-2.29668e-08
-2.48262e-08
0.0375758
0
0
2.41797e-08
6.3427e-09
0.000100062
0.00197778
-1.84177e-06
1.87603e-06
0.00128285
0.00125541
-1.65396e-09
3.79036e-08
-1.76835e-09
-1.19105e-08
0.000420524
-0.000263459
0.000345214
0.824696
0.00203576
0.343588
0.518835
0.732493
0.00402555
-5.11325e-08
0
0.000450454
-2.65534e-08
1.71753e-05
0
6.34186e-06
4.23302e-06
0.210304
0.0695891
0.00828197
0.0505335
0.00039728
2.97625e-05
-0.000966936
-0.000618532
0.000338822
0
-1.68657e-05
0
8.70844e-10
0.535661
0.752475
0.595337
0
0
0
0
-3.47889e-05
-0.000179583
-0.000330013
-2.18733e-08
-1.37303e-05
1.48869e-05
0
1.36287e-09
0
0
0.786502
0
0
1.73039e-07
-1.09695e-06
-8.61503e-07
0.602911
0.197023
4.74733e-10
-1.83624e-10
0.000167658
0.314938
0
0.0916069
-0.000493517
0.132196
-1.4413e-08
-0.000532438
0.00202116
0.150561
0.0695622
0.00255738
0.00113057
1.12832e-06
2.61523e-07
1.2406e-07
-1.82036e-08
9.14402e-09
0.549055
0.0849323
-6.60383e-08
7.81997e-08
-6.60935e-08
-2.04034e-08
0.0768522
0.127734
0.0728452
-4.34505e-07
6.98857e-07
0.0486444
-1.13015e-07
0.00838702
0.0140816
0.0200899
2.30376e-05
3.44815e-06
3.0974e-07
2.64017e-09
0.000276253
0.000174141
2.169e-06
0
0.000142547
2.33218e-05
4.27891e-05
-0.00377173
-0.00276008
-0.00339603
0.00062528
0.000969403
0.000194705
-1.46181e-07
8.2924e-08
1.55037e-09
4.9378e-07
0
5.1413e-05
0.000348425
-3.54716e-05
2.04329e-05
-3.34803e-05
-0.062683
0.408037
0
-0.0614529
0.259329
3.83862e-09
0
2.00875e-09
1.3147e-08
-4.21397e-09
-0.0102745
0.688102
-0.0093822
-0.0121713
-8.83111e-07
0.000713807
0.655334
0.391929
4.7925e-10
0
0
0.50541
-0.00093513
0.850244
0.793601
0
1.28722e-07
4.77556e-07
0.373058
0.0332677
2.92946e-09
4.90893e-08
0.0263799
0
3.56183e-07
0.00376809
0.828421
0.708324
0.340135
0.214188
-1.90604e-05
0
2.27973e-10
0.416679
0.552456
0.00552162
-0.000711927
0.712525
0.022444
0.00111998
-0.000448166
5.94272e-08
0.00115122
-0.00416607
-0.0043924
0.000645126
-4.72277e-10
-0.00190844
-4.38943e-05
1.16532e-06
7.61093e-05
1.82141e-05
-0.00167497
-0.00130111
0.00220011
0.331922
0.00721632
0.00332049
0.000847358
0.000739835
0.00294874
-1.13059e-08
-1.10061e-06
5.18334e-07
1.03574e-05
0
-0.000437824
0.249211
0.176398
4.33434e-07
0
0.802951
0
0.854726
0.755023
8.43003e-10
0
3.46496e-05
0.00144388
0.00397431
-0.00217217
0.00110596
-6.7177e-09
0.0676229
0
0.00425817
-0.00295074
5.75885e-06
1.12358e-05
-4.29427e-10
-1.53707e-10
-1.05859e-06
0
0.00451482
0.0872063
6.1595e-07
-6.61138e-07
0
0
0
1.73998e-10
-4.26611e-06
-0.0142485
3.22193e-05
0
0
0.00733943
0
0
0
0
1.7995e-06
-0.000576075
0
-7.08819e-09
1.52181e-07
0
0.000510601
-6.28651e-08
-1.96294e-06
0.0022359
4.83662e-07
4.73386e-08
3.29655e-06
-0.0304925
0
2.43289e-07
0.00102597
3.29644e-07
0
0.0174831
-0.00178756
0.0023202
0
-1.04097e-10
0.796887
9.25474e-10
0
1.71028e-09
-1.8658e-10
0
0.000916481
0.412671
-0.00195041
1.2832e-08
2.63514e-09
0
7.02254e-07
-8.95961e-10
0.00118644
-8.82768e-07
5.42387e-10
0
-4.42475e-10
0
7.58398e-06
1.52876e-08
-5.56601e-08
1.57939e-07
0
0.164223
1.02185e-06
-5.01314e-07
4.37448e-07
9.82973e-08
-3.38199e-08
1.51947e-06
-6.7736e-06
2.72736e-06
9.95785e-07
8.58827e-08
9.51615e-08
8.13491e-06
0
0.00576614
0.0394929
0
0.012266
0.166534
1.95705e-08
0
0.32816
0
-1.13508e-05
-1.30305e-06
1.05604e-08
0
0
0.124605
4.39747e-05
0
1.60634e-08
6.71762e-08
0.861535
0.785454
0
-1.49946e-09
0
-3.57886e-09
0.857634
0
0
-0.00306927
2.49088e-08
-9.61288e-10
0.224065
0.344331
0
9.24006e-06
-0.000702826
0.003173
2.3863e-05
-0.00347558
0.00224658
0.000243135
0.00495608
4.64344e-10
-0.0192375
-3.16719e-06
0.00344227
0
2.85496e-05
-0.00116806
7.95126e-06
-2.41425e-06
0.00166311
7.72829e-07
0.00149512
1.82311e-06
0
0
-0.00115241
5.0505e-09
0.37218
-0.00610572
0.525138
0.306706
0
0.464118
0
0.000434302
0.0019103
0.0394055
-0.00305908
-5.65597e-07
0.354777
0.000398095
-3.99116e-05
0.0123549
-7.31063e-08
9.23109e-09
1.13239e-08
-0.000701231
0
0
0
0.00189982
0
8.16471e-05
0.0331667
0
5.38673e-08
1.12841e-06
2.3678e-06
8.39752e-07
-0.000322708
0
-5.16267e-10
0.0030174
0.000977683
0.000256479
0.0444536
0
5.6518e-06
0.00111175
-0.0189745
-0.00489159
0.0454684
0.72731
0.0537449
-5.25169e-06
-1.87114e-06
0.309276
-7.99801e-05
0.259251
-0.000639815
-0.000607816
-0.000903576
0.0010839
0.339889
-0.0149135
4.47062e-08
2.15125e-07
-0.0693316
-5.99451e-07
-9.22672e-09
0.068156
0
-1.9693e-10
0.000668568
1.93523e-06
1.69926e-05
-4.99952e-07
0
0.000111896
1.15855e-05
-2.24972e-05
-1.30534e-05
7.41609e-05
1.27102e-06
4.41462e-06
-1.10165e-09
2.26652e-06
0.337895
0.827499
-1.91617e-05
5.28371e-06
0.0302484
0
0.866079
0
0.000483874
1.76143e-10
1.40112e-06
0.566383
0.000589765
-2.58489e-05
4.13921e-10
1.10409e-06
-0.000593146
0.348492
-6.63966e-05
0
-1.2424e-10
6.32403e-05
2.66297e-06
0.416471
0.243555
5.02605e-05
0
6.58146e-06
0.560302
0.00206347
0.235833
-1.17131e-10
1.82499e-06
-6.9261e-06
1.84265e-05
5.43416e-06
1.34835e-06
0.000181597
1.07907e-10
0
0.00535952
0.000615846
0.806915
0.806131
0
2.05198e-08
0
-0.0015293
0
0.249918
0.000685842
2.08778e-05
0
0
0
-6.47735e-07
9.45917e-06
0.216208
-1.52084e-05
0.206995
0.0178694
-0.0407511
0.00404226
-0.00209927
0.000196222
-0.00747493
-1.04863e-06
-2.22402e-05
3.29634e-05
-2.6321e-05
-8.89275e-06
0
0.081168
0.00332182
5.59867e-05
-0.000333857
0.417124
4.98471e-07
-3.48167e-07
0
8.08738e-07
0
-1.19743e-07
0
-1.95176e-10
-2.85608e-06
1.7036e-06
-0.000808536
-7.12917e-05
1.26069e-07
0
0.0918022
-8.51401e-08
0.000694257
-0.00280895
0
0.537783
0
-2.50349e-05
3.69936e-06
2.26227e-09
0
0.000136895
1.59479e-10
0.800767
0.641083
0
0.594918
0
1.19531e-08
0.501454
-2.04957e-09
1.90554e-10
-1.69637e-07
0
-2.74454e-08
-1.54855e-06
-1.75251e-09
-5.61442e-10
-1.2517e-08
0
-9.22255e-09
0.00334399
0
4.19233e-09
0
2.99948e-07
-1.50558e-07
1.10084e-10
0
-5.84074e-08
-2.96267e-05
-3.02933e-06
4.08978e-08
6.55653e-09
0.799444
0
-1.17379e-07
0
0.773297
0.00789351
-2.95502e-10
-0.016249
0.734836
0.156377
0.420051
9.46475e-08
0
0.00144739
0.414076
0.627482
5.93388e-07
-0.00444208
0.813504
0.351117
0.000493418
-1.51283e-07
0.587418
0.868823
0.000379146
0.00175049
2.57106e-06
0
0.00436536
1.1865e-10
-0.000526965
-1.32499e-10
0
0
0.0331823
0.0068148
0
0
0
0.00466994
0
0
-2.44673e-05
0.0319418
-0.00242539
0
1.37898e-07
0
0.00362505
0.10733
-3.95874e-09
0
-1.22224e-05
-4.99673e-06
-1.29417e-08
0
0.0034548
1.17172e-06
0
0.0546446
1.7232e-06
0
-8.9761e-07
0
1.26351e-06
8.32095e-05
0.000816187
0.00144277
-1.06069e-08
-3.80666e-08
-0.00279638
0.00886294
-0.0019125
0.228848
0.158626
-1.11469e-05
0.0171441
3.77826e-07
-1.5286e-06
3.39946e-07
-2.55768e-06
8.9614e-09
5.9711e-09
5.81764e-07
5.60327e-06
0.00146405
-2.29716e-07
5.17928e-10
0
-5.31208e-10
5.57037e-05
-1.84729e-10
-4.45204e-10
0
0.262593
9.51017e-08
1.19969e-09
0
0.000711679
-1.76272e-05
0
9.53837e-05
0.738924
0.00137142
-1.08667e-06
1.28232e-06
-4.46348e-10
8.2404e-10
0.000164901
0
0
-0.000535628
0
0
-0.00211
0
-1.40764e-07
-0.00151543
4.20082e-05
-0.000207125
2.73725e-06
-0.00155865
-0.000291621
0
0
0
0.00433826
-2.08662e-07
0
0
0
0
-5.86346e-07
0
0
-7.1547e-07
0
0
-6.86258e-05
0
-2.37472e-05
-4.16152e-05
0
0.0953582
0.0233343
-3.95922e-07
0.134789
0
0.0198412
0.0010436
-0.000106175
0
-1.77154e-09
0
0.00986809
2.26928e-07
0
1.79804e-06
-1.89875e-06
-3.22164e-05
1.20949e-06
-3.85777e-09
-1.66005e-08
5.74304e-07
0.0289283
-0.0229529
-0.00446908
0.623465
0
0
0.37875
1.14144e-06
2.41441e-07
-1.3144e-08
-7.58443e-07
6.91671e-08
0
-9.55837e-07
0.000232153
0
0.102909
0
0
-5.00109e-05
0.251869
0
0.0154358
4.34964e-07
-7.79895e-08
0
0.0502892
0.0270358
2.52679e-07
7.1471e-10
7.05805e-08
4.31764e-10
1.00044e-09
0.192875
0.184798
0
8.82978e-10
0.357845
2.32823e-10
-8.62317e-10
0.000858759
-0.0169826
0
-3.66794e-09
3.2769e-06
1.05236e-05
0
1.16469e-07
2.35246e-10
-2.75997e-06
2.27863e-05
0
0
-2.95094e-08
9.15883e-07
0
7.29764e-10
-5.43711e-10
-1.84182e-10
-1.02465e-05
0
1.38588e-09
0.000733618
-9.19814e-05
0.325869
0
0
0
-7.41659e-07
0.00098957
1.47629e-07
2.27232e-06
0
4.87025e-09
2.22734e-10
0
0.00543749
1.01234e-09
0
0
1.43211e-05
0.00178946
0
0
0.495237
-1.50646e-09
1.67486e-09
-1.72804e-09
-0.00110791
0.296008
-2.6059e-05
0.0012357
2.28053e-08
0.0734422
0.0135019
-3.29566e-06
0.753011
0.0018874
1.24458e-08
-2.15845e-06
-5.94964e-06
2.03485e-06
1.098e-07
-0.00429355
0
-2.49543e-08
0
0
3.52369e-07
0
0
-6.42578e-09
0
2.20911e-07
3.90457e-05
-3.18608e-09
-4.55391e-09
1.72385e-06
-0.0413572
0
-0.0170522
0.00300328
-1.25187e-08
0
-8.12446e-06
-1.4451e-08
0.0833598
0.340161
0.000694663
7.19072e-07
5.52277e-10
0
0.236306
1.41929e-08
0.00834469
0
0.672664
3.62434e-09
0
-1.49678e-10
-3.33065e-10
0
0
0.00144661
0.000788267
-0.00130932
-1.32137e-06
-1.9206e-05
-2.04158e-05
-1.0075e-05
0.00162469
0
0.0305352
0
0.00617717
0
0.00376546
0.0149528
0.228604
0
-3.98984e-05
0.000540921
0
9.07355e-08
0
0.000339795
0
0
0
0
0.00093799
0.0130099
0
0
0
0
3.78774e-05
1.74641e-08
-1.04447e-08
3.86348e-08
1.58269e-05
2.42569e-05
-1.22713e-06
5.52945e-09
4.78625e-09
1.48434e-08
-1.45135e-08
-2.73632e-09
-2.82872e-09
0
0
0
0
0.55367
0.108141
0.0180207
0.024929
0
7.21498e-08
6.42441e-08
2.65053e-08
2.60849e-08
0.493912
0.109928
0
0.0623758
0
-4.81597e-08
-5.43268e-08
-4.44952e-07
-2.91346e-08
-1.21328e-07
9.77614e-06
0.00263279
4.49488e-10
1.88132e-09
-7.55295e-05
-0.0003161
0.000340447
2.74418e-10
3.14973e-10
-1.96798e-10
6.70608e-10
-6.54142e-05
3.65948e-05
0.000836332
5.03321e-07
1.78684e-06
1.32291e-06
-1.2731e-07
2.2653e-05
-1.74611e-06
2.93866e-05
1.33736e-05
1.61373e-06
2.87708e-07
5.2572e-06
5.01405e-05
7.15931e-05
-9.66825e-06
7.35411e-08
4.28175e-06
0
0
0
-1.23698e-07
-1.95125e-05
0.0117467
0.797477
0.305703
-0.00862364
0
0.0967538
3.5299e-10
1.86016e-06
4.84867e-07
2.80466e-06
-2.66861e-06
1.14678e-06
9.83594e-06
0
0.32425
8.41289e-07
-4.7509e-09
-9.25945e-07
-2.75839e-06
0
0.569743
-3.24164e-06
3.77966e-06
1.85579e-05
-1.53031e-05
3.85681e-09
6.89097e-09
-9.95764e-10
8.73115e-09
2.76717e-09
-3.05205e-09
8.59321e-10
-4.56992e-06
-1.06164e-06
-2.49223e-06
0
0.0806591
0.386041
0.549642
0.172401
-0.00502338
0
0.0438299
-0.00109152
-2.29604e-06
0
0
0
0
7.63609e-05
0
-1.09886e-05
0.000292161
0.00469144
-0.0404565
0
0.876502
0
0
0
-1.14004e-10
0.210797
0
-1.32297e-07
2.55936e-07
-3.62407e-07
0
0
0
0
0.00751877
0.000186242
-0.00358716
-1.89841e-07
1.51436e-05
1.31083e-05
-2.50841e-06
7.45959e-07
-0.00896319
1.39578e-10
0
0
1.715e-10
5.85521e-07
1.11176e-06
0
0.318416
0
0
0.878345
0
4.53501e-05
-9.30441e-05
-7.80543e-05
2.59778e-07
-2.08876e-06
-4.8623e-08
1.82625e-09
-6.07069e-10
0
-1.07145e-10
2.41617e-10
-4.1746e-10
2.06086e-06
0.781432
0.318611
0
-3.45397e-07
-9.14845e-08
0
0
0
0
0.150104
0.461006
2.10601e-08
7.55101e-08
-6.11561e-08
3.34329e-08
1.44897e-09
1.33645e-09
-1.07691e-09
3.17092e-09
0.00241422
0.0497813
0.154529
-4.30591e-06
-1.56469e-09
-7.7246e-10
1.48117e-09
-9.33476e-10
2.99585e-05
0.000174967
0.000689845
0
-0.00613577
0.0814238
2.92746e-05
0.111753
-0.0110314
2.66249e-07
1.97996e-07
1.03007e-06
-3.73329e-08
-2.50378e-08
-6.25214e-08
-2.19499e-08
0.117902
0.169639
0.728257
0.614453
-0.0189689
-0.00955415
9.38793e-06
0
-5.53663e-10
-2.27791e-10
7.30852e-10
-4.63726e-10
-1.47664e-09
6.76269e-09
-5.85122e-05
4.49331e-05
-2.5478e-07
0.165266
7.35237e-08
-7.14815e-07
4.7994e-05
0.36484
0.610296
0
0.255283
0.0232304
0
-3.1311e-08
4.8004e-09
-3.56182e-09
2.10845e-09
2.24369e-09
-1.217e-09
-0.000242059
-0.00034561
-5.35007e-08
-1.42643e-09
-3.74384e-09
6.737e-09
-5.58294e-09
-1.37436e-08
2.42697e-08
-1.17624e-09
-6.01458e-08
0
0
0
0.510825
0.725761
0
0
0
0
1.89916e-09
1.27092e-09
-6.7049e-07
-1.80494e-05
-6.1346e-09
3.89463e-09
-1.42176e-08
7.62812e-10
0
0
0
0
-2.0132e-10
-1.45739e-05
-0.0121791
0.000828166
0.00125793
0.00134278
-2.90701e-09
-1.95748e-08
-0.00532171
-9.11709e-10
1.6279e-08
7.22246e-06
0.0789906
2.22547e-05
0
-0.0102201
0
2.54387e-10
-7.8799e-09
0.580494
0.410474
1.75872e-05
-1.46746e-05
-1.34636e-05
0.278196
0
0
0
0
-1.83789e-08
-7.48422e-09
0
0
0
-3.51193e-07
2.51102e-07
3.58279e-07
0.00169352
3.36975e-10
4.94014e-07
0
0
-0.00107551
0.00256631
0.265469
-2.85353e-10
0
2.70537e-10
0
0
0
0.0764648
0.10289
1.75457e-10
0
0
5.49292e-09
-0.00119614
0
0
0.480615
0.585888
0.795962
-1.3108e-06
0.000830491
0
0
0.000137004
-7.45075e-07
2.10626e-08
0
0
0.096632
0
0.0361397
0.000286508
-2.93914e-08
-4.98257e-07
0.0295681
0.00263547
-1.14822e-08
-3.11606e-09
4.0926e-09
0.732448
-1.94735e-07
-8.38166e-08
2.84726e-07
2.30288e-08
0.0441133
-1.22129e-05
8.66e-06
1.8028e-05
0
0
0
0
0
0
0.1567
0
0.472025
0.432743
0
0.721129
7.78898e-06
0.00234647
0.00115022
-2.11336e-08
-2.8475e-08
0.00121734
-2.59825e-05
-5.51878e-05
-3.71824e-05
0
0.879159
2.25616e-08
-1.80179e-08
7.00944e-08
0.616909
0.462989
0.000321056
0.00609436
0.00556096
0.513087
-3.71896e-08
-9.46669e-09
-5.49189e-08
0.318941
0.510518
0.273233
3.31871e-10
5.16943e-08
-7.45488e-08
0
1.53145e-07
9.99527e-09
-1.10768e-07
-4.96127e-07
-1.61217e-08
7.38232e-07
-1.05864e-06
3.38237e-06
3.80381e-07
-1.35364e-06
-4.41506e-08
-1.59793e-08
-3.22353e-06
2.69882e-07
3.48961e-07
4.96854e-06
1.21823e-07
2.23782e-07
-7.76334e-09
-2.95961e-10
0
-1.22493e-10
1.92111e-10
-2.35464e-09
-2.16682e-10
-1.27745e-08
-1.06358e-09
1.8916e-09
-7.32787e-06
2.31096e-06
-4.50355e-06
6.39568e-06
3.61657e-06
2.57085e-05
0.000123148
-7.55774e-05
-8.66367e-05
0
0
0
0.0315925
-0.0132582
0.0114143
5.08367e-10
6.0775e-05
0.000768811
-0.000730491
0.00210771
0.00111713
-0.000883348
-0.000763821
2.20875e-08
-0.00057226
8.70194e-07
0.0984012
-1.10554e-05
0.154353
-1.06061e-06
1.09574e-06
3.06096e-05
0
0
-0.000467768
0.000234879
0.00173849
1.8972e-09
0
1.02376e-09
0
0
0
0
0
-9.92293e-06
-5.99035e-06
0.00770282
-0.00996505
-3.69006e-05
4.16697e-05
1.83868e-05
0
-9.09941e-08
0.000163955
0.0977175
0.164027
6.77179e-08
1.61532e-06
-1.37263e-07
0
2.36899e-09
8.18137e-08
0
0
0
-7.31557e-07
-0.000548624
3.63116e-06
5.16514e-06
-7.16048e-06
-2.32591e-06
9.31177e-07
-6.08231e-09
2.29091e-09
2.15305e-09
-1.23944e-09
-2.35085e-09
1.94611e-09
-0.000246429
0.000215269
0
1.12303e-09
-1.1148e-09
0.000434968
0.00024601
-0.00070402
-0.00343397
-7.39308e-06
-2.58336e-05
-1.44128e-08
0
0.000716501
-3.51017e-06
-0.000279236
0.00626506
0.00796815
0
0.0213922
0
0
0
0
0
0
0
0
0
0
6.22914e-05
0.000143946
0.00148705
0.000734944
9.96251e-10
-7.4994e-05
-4.68792e-08
-0.000116491
3.96989e-07
5.5687e-07
8.70984e-07
-5.98335e-07
1.6272e-07
0.716808
0.800339
0.776045
0.753538
0.0858028
0.238581
-2.71151e-06
0.000597695
7.28194e-08
-0.000211347
9.22317e-05
0.00101673
-0.00130787
3.24639e-07
-2.65292e-06
-2.8833e-06
0
0
0
0
0
0
0
0.603396
0.0870928
0
0
0
0
0
0
7.03739e-07
-3.81755e-08
-2.48292e-07
-1.14439e-07
9.61079e-08
3.54853e-10
0
0
0
0
0.00487629
-0.00156448
-0.000989324
-0.0128622
-1.12245e-05
-0.000787888
-0.00012147
-1.8283e-10
0
-4.16189e-09
-1.41716e-09
2.45051e-06
0
-0.00488121
-0.0125757
0.00343149
0.0137591
0
4.64702e-07
-1.46893e-09
3.08614e-05
2.21146e-05
0.000105976
0.122204
0.0325558
0
0
0
0
1.16537e-08
5.20128e-08
-1.16161e-07
0.0699265
0.199334
-8.86532e-10
-1.31272e-09
-2.94576e-09
0
0
0
0
0
0
0.849393
0.818967
-4.56266e-10
-2.11222e-10
0
0
-1.02695e-09
2.06252e-09
1.93305e-06
-5.9616e-08
5.60285e-06
0
0
0.0026041
0.00621809
-9.40572e-09
-2.44354e-09
1.23043e-08
-4.46688e-07
-3.45579e-07
-1.71788e-06
4.62144e-06
-3.51851e-06
-1.20624e-05
-2.09489e-09
-1.64167e-09
1.60673e-09
-1.14993e-09
0.000257997
-0.00104873
9.50528e-05
0.000185166
2.19999e-06
9.04051e-08
-7.18216e-09
6.32835e-08
7.73801e-08
8.41567e-09
-2.50595e-07
3.34418e-05
4.38194e-07
0.233701
-4.84895e-10
-1.29616e-10
0
-8.05516e-08
-7.95289e-09
-3.33627e-09
-4.48428e-10
6.09032e-10
-8.45563e-10
2.17223e-08
0.0381402
3.93822e-05
0
0
-2.01762e-09
1.45346e-10
0.0252509
1.26703e-09
-5.19051e-05
1.31134e-09
9.50807e-05
0
0
0
0
0
0
0
0
5.41206e-08
6.01352e-08
-5.86217e-08
1.19127e-09
2.29233e-08
-4.27836e-06
2.5673e-05
3.25542e-05
-1.32534e-05
0.254911
-2.42379e-08
-2.70814e-05
-4.38255e-05
-0.000109652
0
-2.55282e-05
3.4494e-06
0
0
0
0.632374
0.585915
1.93801e-09
3.99842e-10
4.37666e-10
4.89019e-09
-3.68036e-10
-2.23997e-09
1.46838e-08
9.97073e-10
-1.24873e-07
5.81933e-07
0.586675
-2.91102e-06
1.25701e-05
-2.57192e-05
-3.72768e-08
-5.37292e-08
3.00869e-08
-2.49902e-09
4.75382e-08
-2.70963e-08
-2.50849e-10
-7.49861e-08
7.68966e-08
-5.52018e-08
-2.37822e-06
4.811e-06
0
0
0
0
0
0
-8.6063e-09
-1.37812e-08
-1.37037e-08
-1.39379e-09
0
0
0
0.000401574
-0.00259731
-0.000816944
0.00134408
0.00170559
-6.57959e-05
-0.00155931
-0.00260297
-0.00252633
0.00200364
0.010185
0.0181444
0.0247718
0.0292637
0.0288957
0.0253483
0.0216876
0.0191476
0.0205362
0.0231692
0.0270873
0.0331801
0.0325307
0.0275084
0.0158838
-0.00629756
-0.0183784
-0.0128499
-0.00763578
-0.00732166
-0.00671082
-0.00817367
-0.0113418
-0.00350213
-0.00201294
-0.000865947
-0.00204526
-0.00271665
0.00382993
0.00891509
0.012797
0.0161879
0.0236682
0.0321062
0.0460652
-0.00813866
-0.00546994
-0.00578868
-0.00458735
-0.00307212
-0.00266926
-0.00441673
-0.00687543
-0.00732943
-0.00677008
-0.00697697
-0.00642555
-0.00392882
-4.54529e-05
0.00413752
0.00835162
0.011989
0.0197209
0.0362604
0.0535925
0.0610687
0.0546672
0.0401488
0.0182312
-0.00428232
-0.00997926
-0.00792942
-0.00882286
-0.00307283
0.00217863
-0.00435905
-0.0112855
-0.0157574
-0.00158554
-6.34471e-05
7.96408e-05
-0.00404753
-0.00715641
-0.00647901
-0.00446091
0.00151611
0.00351095
0.00391263
0.0306333
0.00243592
0.00283074
0.00227453
0.00116211
0.00108769
0.00182356
0.00164916
0.000703522
0.000597013
0.000878312
3.28476e-07
-0.00078623
-0.0024301
-0.00344767
-0.00252695
-0.000555994
0.00500486
0.00418616
-0.00824837
-0.0144763
-0.00807995
-0.00291095
-0.00260145
0.00125761
0.00193286
0.00117573
0.00601326
0.00319534
-0.002863
0.000106461
-0.00910553
-0.0312226
-0.00085288
-0.00138703
-0.000464389
0.00306682
0.0022606
0.00299167
-0.00121428
0.0142203
0.00024785
0.000821981
8.76348e-05
0.000416763
0.0198202
-5.43757e-06
-8.18474e-05
4.68935e-05
-0.000879769
0.0256886
0.000198199
-0.00166665
0.00033478
-0.00211634
-0.00109879
0.0578941
0.000313884
-0.000477244
0.012229
-0.000185941
-0.00127912
-0.00177468
-7.6855e-05
-0.00230577
-0.00292008
0.000142866
-0.000224282
0.000188768
0.00250107