# vtk DataFile Version 2.0
Unstructured Grid by M++
ASCII
DATASET UNSTRUCTURED_GRID
POINTS 4072 float
  0.875000   1.000000 0
  0.875000   0.984375 0
  0.875000   0.968750 0
  0.875000   0.953125 0
  0.875000   0.937500 0
  0.875000   0.921875 0
  0.875000   0.906250 0
  0.875000   0.890625 0
  0.875000   0.875000 0
  0.875000   0.859375 0
  0.875000   0.843750 0
  0.875000   0.828125 0
  0.875000   0.812500 0
  0.875000   0.796875 0
  0.875000   0.781250 0
  0.875000   0.765625 0
  0.859375   1.000000 0
  0.859375   0.984375 0
  0.859375   0.968750 0
  0.859375   0.953125 0
  0.859375   0.937500 0
  0.859375   0.921875 0
  0.859375   0.890625 0
  0.859375   0.875000 0
  0.859375   0.859375 0
  0.859375   0.843750 0
  0.859375   0.828125 0
  0.859375   0.812500 0
  0.859375   0.796875 0
  0.859375   0.781250 0
  0.859375   0.765625 0
  0.859375   0.671875 0
  0.859375   0.656250 0
  0.859375   0.640625 0
  0.843750   1.000000 0
  0.843750   0.984375 0
  0.843750   0.968750 0
  0.843750   0.953125 0
  0.843750   0.937500 0
  0.843750   0.921875 0
  0.843750   0.906250 0
  0.843750   0.875000 0
  0.843750   0.859375 0
  0.843750   0.843750 0
  0.843750   0.828125 0
  0.843750   0.812500 0
  0.843750   0.796875 0
  0.843750   0.781250 0
  0.843750   0.765625 0
  0.843750   0.671875 0
  0.843750   0.656250 0
  0.843750   0.640625 0
  0.828125   1.000000 0
  0.828125   0.984375 0
  0.828125   0.968750 0
  0.828125   0.953125 0
  0.828125   0.937500 0
  0.828125   0.921875 0
  0.875000   0.671875 0
  0.812500   0.921875 0
  0.890625   0.656250 0
  0.828125   0.906250 0
  0.875000   0.656250 0
  0.812500   0.906250 0
  0.890625   0.640625 0
  0.828125   0.890625 0
  0.875000   0.640625 0
  0.812500   0.890625 0
  0.890625   0.625000 0
  0.828125   0.875000 0
  0.890625   0.609375 0
  0.828125   0.859375 0
  0.890625   0.593750 0
  0.828125   0.843750 0
  0.890625   0.578125 0
  0.828125   0.828125 0
  0.890625   0.562500 0
  0.828125   0.812500 0
  0.828125   0.796875 0
  0.828125   0.781250 0
  0.828125   0.765625 0
  0.828125   0.671875 0
  0.828125   0.656250 0
  0.828125   0.640625 0
  0.875000   0.750000 0
  0.812500   1.000000 0
  0.875000   0.625000 0
  0.812500   0.875000 0
  0.875000   0.734375 0
  0.812500   0.984375 0
  0.875000   0.718750 0
  0.812500   0.968750 0
  0.875000   0.703125 0
  0.812500   0.953125 0
  0.875000   0.687500 0
  0.812500   0.937500 0
  0.875000   0.609375 0
  0.812500   0.859375 0
  0.875000   0.593750 0
  0.812500   0.843750 0
  0.875000   0.578125 0
  0.812500   0.828125 0
  0.812500   0.812500 0
  0.875000   0.546875 0
  0.812500   0.796875 0
  0.812500   0.781250 0
  0.812500   0.765625 0
  0.859375   0.750000 0
  0.796875   1.000000 0
  0.859375   0.625000 0
  0.796875   0.875000 0
  0.859375   0.734375 0
  0.796875   0.984375 0
  0.859375   0.718750 0
  0.796875   0.968750 0
  0.859375   0.703125 0
  0.796875   0.953125 0
  0.859375   0.687500 0
  0.796875   0.937500 0
  0.859375   0.609375 0
  0.796875   0.859375 0
  0.859375   0.593750 0
  0.796875   0.843750 0
  0.859375   0.578125 0
  0.796875   0.828125 0
  0.859375   0.562500 0
  0.796875   0.812500 0
  0.796875   0.796875 0
  0.859375   0.531250 0
  0.796875   0.781250 0
  0.796875   0.765625 0
  0.843750   0.750000 0
  0.781250   1.000000 0
  0.843750   0.625000 0
  0.781250   0.875000 0
  0.843750   0.734375 0
  0.781250   0.984375 0
  0.843750   0.718750 0
  0.781250   0.968750 0
  0.843750   0.703125 0
  0.781250   0.953125 0
  0.843750   0.687500 0
  0.781250   0.937500 0
  0.843750   0.609375 0
  0.781250   0.859375 0
  0.843750   0.593750 0
  0.781250   0.843750 0
  0.843750   0.578125 0
  0.781250   0.828125 0
  0.781250   0.812500 0
  0.843750   0.546875 0
  0.781250   0.796875 0
  0.781250   0.781250 0
  0.843750   0.515625 0
  0.781250   0.765625 0
  0.828125   0.750000 0
  0.765625   1.000000 0
  0.828125   0.625000 0
  0.765625   0.875000 0
  0.828125   0.734375 0
  0.765625   0.984375 0
  0.828125   0.718750 0
  0.765625   0.968750 0
  0.828125   0.703125 0
  0.765625   0.953125 0
  0.828125   0.687500 0
  0.765625   0.937500 0
  0.828125   0.609375 0
  0.765625   0.859375 0
  0.828125   0.593750 0
  0.765625   0.843750 0
  0.828125   0.578125 0
  0.765625   0.828125 0
  0.828125   0.562500 0
  0.765625   0.812500 0
  0.765625   0.796875 0
  0.828125   0.531250 0
  0.765625   0.781250 0
  0.765625   0.765625 0
  0.812500   0.750000 0
  0.750000   1.000000 0
  0.953125   1.000000 0
  0.812500   0.734375 0
  0.750000   0.984375 0
  0.812500   0.718750 0
  0.750000   0.968750 0
  0.812500   0.703125 0
  0.750000   0.953125 0
  0.812500   0.687500 0
  0.750000   0.937500 0
  0.812500   0.671875 0
  0.750000   0.921875 0
  0.812500   0.656250 0
  0.750000   0.906250 0
  0.812500   0.640625 0
  0.750000   0.890625 0
  0.812500   0.625000 0
  0.750000   0.875000 0
  0.812500   0.609375 0
  0.750000   0.859375 0
  0.812500   0.593750 0
  0.750000   0.843750 0
  0.812500   0.578125 0
  0.750000   0.828125 0
  0.750000   0.812500 0
  0.812500   0.546875 0
  0.750000   0.796875 0
  0.750000   0.781250 0
  0.812500   0.515625 0
  0.750000   0.765625 0
  0.796875   0.750000 0
  0.734375   1.000000 0
  0.796875   0.734375 0
  0.734375   0.984375 0
  0.796875   0.718750 0
  0.734375   0.968750 0
  0.796875   0.703125 0
  0.734375   0.953125 0
  0.796875   0.687500 0
  0.734375   0.937500 0
  0.796875   0.671875 0
  0.734375   0.921875 0
  0.796875   0.656250 0
  0.734375   0.906250 0
  0.796875   0.640625 0
  0.734375   0.890625 0
  0.796875   0.625000 0
  0.734375   0.875000 0
  0.796875   0.609375 0
  0.734375   0.859375 0
  0.796875   0.593750 0
  0.734375   0.843750 0
  0.796875   0.578125 0
  0.734375   0.828125 0
  0.734375   0.812500 0
  0.734375   0.796875 0
  0.796875   0.531250 0
  0.734375   0.781250 0
  0.734375   0.765625 0
  0.781250   0.750000 0
  0.718750   1.000000 0
  0.921875   1.000000 0
  0.781250   0.734375 0
  0.718750   0.984375 0
  0.781250   0.718750 0
  0.718750   0.968750 0
  0.781250   0.703125 0
  0.718750   0.953125 0
  0.859375   0.906250 0
  0.781250   0.687500 0
  0.718750   0.937500 0
  0.781250   0.671875 0
  0.718750   0.921875 0
  0.781250   0.656250 0
  0.718750   0.906250 0
  0.781250   0.640625 0
  0.718750   0.890625 0
  0.781250   0.625000 0
  0.718750   0.875000 0
  0.781250   0.609375 0
  0.718750   0.859375 0
  0.781250   0.593750 0
  0.718750   0.843750 0
  0.781250   0.578125 0
  0.718750   0.828125 0
  0.781250   0.562500 0
  0.718750   0.812500 0
  0.781250   0.546875 0
  0.718750   0.796875 0
  0.781250   0.531250 0
  0.718750   0.781250 0
  0.781250   0.515625 0
  0.718750   0.765625 0
  0.765625   0.750000 0
  0.703125   1.000000 0
  0.765625   0.734375 0
  0.703125   0.984375 0
  0.765625   0.718750 0
  0.703125   0.968750 0
  0.765625   0.703125 0
  0.703125   0.953125 0
  0.765625   0.687500 0
  0.703125   0.937500 0
  0.843750   0.890625 0
  0.703125   0.921875 0
  0.765625   0.656250 0
  0.703125   0.906250 0
  0.765625   0.640625 0
  0.703125   0.890625 0
  0.765625   0.625000 0
  0.703125   0.875000 0
  0.765625   0.609375 0
  0.703125   0.859375 0
  0.765625   0.593750 0
  0.703125   0.843750 0
  0.765625   0.578125 0
  0.703125   0.828125 0
  0.765625   0.562500 0
  0.703125   0.812500 0
  0.765625   0.546875 0
  0.703125   0.796875 0
  0.765625   0.531250 0
  0.703125   0.781250 0
  0.765625   0.515625 0
  0.703125   0.765625 0
  0.750000   0.750000 0
  0.687500   1.000000 0
  0.890625   1.000000 0
  0.750000   0.734375 0
  0.687500   0.984375 0
  0.750000   0.718750 0
  0.687500   0.968750 0
  0.578125   0.796875 0
  0.578125   0.781250 0
  0.578125   0.765625 0
  0.546875   0.953125 0
  0.546875   0.968750 0
  0.546875   0.718750 0
  0.546875   0.687500 0
  0.250000   0.609375 0
  0.937500   0.031250 0
  0.046875   0.703125 0
  0.734375   0.062500 0
  0.734375   0.078125 0
  0.734375   0.046875 0
  0.046875   0.593750 0
  0.046875   0.562500 0
  0.046875   0.531250 0
  0.718750   0.156250 0
  0.046875   0.609375 0
  0.734375   0.031250 0
  0.062500   0.609375 0
  0.234375   0.703125 0
  0.718750   0.125000 0
  0.046875   0.578125 0
  0.734375   0.000000 0
  0.062500   0.578125 0
  0.000000   0.828125 0
  0.234375   0.671875 0
  0.234375   0.625000 0
  0.718750   0.093750 0
  0.687500   0.156250 0
  0.062500   0.546875 0
  0.000000   0.796875 0
  0.718750   0.046875 0
  0.031250   0.687500 0
  0.687500   0.171875 0
  0.500000   1.000000 0
  0.078125   0.218750 0
  0.234375   0.593750 0
  0.718750   0.062500 0
  0.687500   0.125000 0
  0.000000   0.765625 0
  0.421875   0.500000 0
  0.031250   0.593750 0
  0.718750   0.015625 0
  0.687500   0.234375 0
  0.015625   0.812500 0
  0.703125   0.171875 0
  0.703125   0.187500 0
  0.703125   0.140625 0
  0.015625   0.781250 0
  0.437500   0.515625 0
  0.500000   0.796875 0
  0.078125   0.015625 0
  0.687500   0.203125 0
  0.250000   0.578125 0
  0.703125   0.109375 0
  0.000000   0.515625 0
  0.500000   0.765625 0
  0.062500   0.593750 0
  0.750000   0.015625 0
  0.015625   0.843750 0
  0.687500   0.000000 0
  0.500000   0.828125 0
  0.078125   0.046875 0
  0.015625   0.531250 0
  0.250000   0.546875 0
  0.703125   0.078125 0
  0.703125   0.031250 0
  0.015625   0.671875 0
  0.250000   0.515625 0
  0.000000   0.656250 0
  0.500000   0.906250 0
  0.078125   0.125000 0
  0.687500   0.015625 0
  0.031250   0.546875 0
  0.687500   0.031250 0
  0.500000   0.859375 0
  0.703125   0.000000 0
  0.703125   0.046875 0
  0.703125   0.015625 0
  0.500000   0.937500 0
  0.234375   0.531250 0
  0.031250   0.578125 0
  0.687500   0.062500 0
  0.500000   0.890625 0
  0.031250   0.796875 0
  0.453125   0.531250 0
  0.500000   0.968750 0
  0.078125   0.187500 0
  0.234375   0.562500 0
  0.031250   0.609375 0
  0.718750   0.031250 0
  0.687500   0.093750 0
  0.750000   0.046875 0
  0.000000   0.937500 0
  0.421875   0.671875 0
  0.718750   0.187500 0
  0.031250   0.828125 0
  0.765625   0.062500 0
  0.015625   0.953125 0
[...]
CELL_DATA 7648
SCALARS scalar_value float 1
LOOKUP_TABLE default
0
0
0
0
0
0
0
0.752159
0.612843
0.001657
0.00254149
0
0
0
0
0.845105
-8.92313e-10
-7.45688e-07
1.278e-06
0
0.258831
0.0503331
3.01905e-07
2.02044e-07
7.5137e-05
1.04112e-07
6.51304e-08
-4.26965e-08
4.05491e-09
1.138e-06
5.41135e-10
1.59307e-10
3.68044e-10
1.99792e-09
3.50446e-10
1.48526e-10
0
4.24999e-10
0.000840593
-0.00117558
1.00301e-09
0.877091
2.64155e-07
0
0
-1.16619e-07
1.78236e-06
1.37067e-06
-2.92024e-09
-2.0858e-08
-1.27849e-09
5.6245e-10
0
0
0.00175438
0.044429
0.00897287
0.171042
-5.27278e-05
0
0
3.40674e-07
2.69149e-10
0
-7.32301e-08
-3.93161e-08
-1.77444e-07
0
2.17684e-10
0
0
0
0
0
0
0.000124278
3.94824e-07
3.81096e-06
1.0464e-06
0.812709
4.64319e-09
-2.21532e-07
0.000533433
-9.00873e-08
0
-2.55644e-10
0
3.27685e-06
9.19502e-06
-1.5789e-06
0
0.0635277
1.77837e-10
-1.20923e-10
1.75021e-10
0
0
0
-3.80808e-10
0
0
0
0
0
0.00206071
0
-1.39622e-05
-1.73305e-06
0.000120766
5.14955e-05
-1.61366e-06
1.47876e-06
0.0097436
0.0249668
0
0
0.0224214
0
0
0
0
-4.00547e-05
2.51967e-06
0
0
0
0
0.000476654
0.00133512
0.000641317
-0.000238291
0
-1.08719e-06
0.630216
0
0
0.0412169
4.52048e-06
0.260383
2.92334e-06
0
0
0
0
0.149881
0
0
9.50976e-10
0
1.43059e-05
0
0
0.000678597
0
-0.00143093
0
0
-0.00081931
-0.000140145
0.00146331
-0.00023352
7.23228e-05
0
0
9.15975e-07
2.22542e-06
0
0
0
0.000586038
0
1.41333e-06
0
0
-0.000188989
0.313266
0.00850413
0
-1.70223e-09
-1.87493e-06
4.96442e-06
9.80594e-10
0
0
0
0
6.95685e-09
-9.56511e-05
-1.97369e-09
-4.93256e-06
0.812716
0
0
0
0
2.57603e-10
1.85095e-10
0.896417
0
0
-9.73101e-10
0
-0.000513982
-0.00132436
-1.98819e-08
3.98917e-08
0.00169844
0.000717268
0
1.56995e-09
0
0
0.0012966
-0.00140016
0.00203706
0.0240072
5.45485e-06
0.568008
0.382265
0.174161
0.00104294
-2.05315e-09
0
0.00189462
4.94496e-10
-2.43005e-10
0
6.96179e-08
1.00759e-07
-0.00169988
-0.000486459
2.66274e-06
3.54633e-06
-0.000323353
-2.35485e-05
-0.000630395
0.00131203
0.00216883
0
1.20853e-09
0
0
0.496799
0.0527656
0.323697
0
0
0
0
1.15326e-06
-3.4266e-06
-1.73978e-06
0
2.58609e-06
-1.45108e-05
0
0
0
0
0.0637221
0
0
2.48286e-08
-1.74532e-08
-9.99727e-09
0.00138485
-0.000148064
0
0
2.11248e-07
0.000323349
0
6.20577e-05
-2.11245e-06
7.41254e-05
-4.81716e-10
-3.25646e-06
-4.34109e-06
0.722652
0.822228
0.000679118
0.000323448
-1.46463e-09
1.21519e-09
0
0
0
0.0604918
-0.00115608
-1.22948e-10
1.01387e-10
0
0
0.710588
0.414189
0.0534911
-2.08255e-10
1.674e-10
0.00145814
0
0.172657
0.609907
0.7905
6.00636e-10
0
0
-3.97206e-10
8.28038e-09
4.95433e-09
-6.06151e-10
0
7.85774e-09
8.83884e-10
1.81839e-09
0.00444182
-0.00242094
0.000107897
-1.14228e-08
2.61367e-08
2.61593e-09
-7.06177e-10
9.20942e-10
0
-1.21945e-08
0
8.62819e-08
3.1554e-05
-1.1674e-05
-1.20317e-05
-8.09423e-06
0.797204
0.338267
0
0.356435
0.521474
0
0
0
0
0
0.358308
0.113895
0.781034
0.433405
-2.59453e-08
-0.000371452
0.00224928
0.000402458
0
0
0
0.379695
0.000211199
0.0549965
0.102407
0
-6.00501e-10
1.18728e-08
0.459297
0.920896
0
-4.63504e-10
-3.62423e-06
0
1.28191e-09
0.00256153
0.00873953
0.00107441
-0.000556621
0.471883
5.83493e-06
0
0
0.000835887
0.0015313
7.08261e-08
0.00123514
0.109517
0.000694438
-0.00153963
9.80498e-05
0
-0.0001942
0.00315917
0.00432976
-0.000360267
0
0.699775
7.91443e-07
-1.3628e-09
1.29457e-06
1.72521e-07
-0.000609979
0.000648494
0.000248579
0.0117645
0.00144604
0.000172735
0.00206751
-0.00119985
-0.00162729
0
1.72692e-08
-2.96504e-08
-3.36575e-07
0
-0.00277781
0.196242
0.782428
-1.0003e-08
0
0.121035
0
0.0543582
0.162797
0
0
3.76265e-06
0.00125754
-0.000734334
0.00101166
-1.19065e-06
-9.41883e-10
8.9752e-06
0
0.00187601
-0.00105988
1.62958e-09
4.01288e-07
0
0
-1.90136e-10
0
5.46262e-05
1.37799e-05
-4.64621e-09
-9.85631e-09
0
0
0
0
-1.02409e-07
0.5798
-9.49324e-07
0
0
-4.68501e-05
0
0
0
0
1.75177e-10
-5.31456e-07
0
-5.19605e-10
3.75142e-09
0
-2.72749e-06
0
3.32959e-09
-5.67974e-05
5.24689e-09
0
2.78571e-08
0.811558
0
4.36554e-09
-3.74227e-06
1.43243e-07
0
0.000229907
-0.000436772
9.2876e-05
0
0
0.00616346
0
0
0
0
0
1.54855e-05
0.213855
-0.00129705
0
0
0
-1.14458e-08
0
1.18653e-08
4.36209e-09
0
0
0
0
-2.5775e-09
1.7775e-09
1.4751e-07
0
0
0.707694
-1.22694e-07
-2.40705e-07
0
0
0
3.0258e-08
4.72617e-07
5.24716e-09
-7.03815e-07
7.8877e-09
-4.79507e-07
-5.17532e-07
0
3.04101e-05
-1.61629e-05
0
0.846353
0.747097
0
0
-0.000577995
0
-1.30227e-07
-3.86098e-08
-3.33341e-10
0
0
-8.10656e-05
6.42454e-09
0
0
1.97878e-09
0.0432712
0.147799
0
0
0
0
0.0304039
0
0
0.721577
-2.44252e-10
0
-0.000127944
0.000195674
0
6.80416e-09
-0.00113054
-0.00189215
-1.98763e-09
0.00153706
0.0539278
1.53373e-08
-0.000401416
0
0.20505
-7.12748e-10
-0.000835554
0
6.91276e-10
-0.00173805
9.86784e-09
-8.79623e-09
0.000464545
1.68085e-09
-4.39115e-05
-1.40258e-08
0
0
-0.00103356
0
0.588413
-0.000683621
0.396293
0.643122
0
0.300216
0
-1.93465e-06
3.29222e-08
1.47951e-05
0.00333471
6.37795e-09
0.000183744
5.76302e-08
-2.94687e-06
1.97884e-08
1.65254e-10
0
1.95599e-10
1.14517e-05
0
0
0
-5.91786e-05
0
-2.90867e-07
5.17021e-05
0
3.71484e-10
-1.85605e-08
3.28898e-09
5.35062e-09
-0.000444722
0
0
-0.00195747
0.000215146
1.87732e-06
0.00107034
0
-3.88812e-09
1.32019e-06
0.216399
0.00171057
0.58259
0.00439451
-6.17517e-07
-8.40527e-08
0.00178069
-0.000153269
0.000904831
6.19591e-05
-0.00153086
0.000630788
-0.00193884
-3.26602e-05
0.430228
0.181499
-2.4614e-10
-4.14815e-10
0.615553
2.40441e-08
-1.11873e-10
6.90832e-06
0
0
0.000571761
-9.75236e-08
6.55935e-10
1.34877e-08
0
-7.52932e-09
2.03084e-06
-4.0044e-06
7.68552e-09
-1.22359e-08
9.15707e-08
6.22552e-10
0
-5.22341e-09
0.00141325
0.0855273
9.7027e-07
5.18115e-10
-0.000157446
0
0.0300997
0
3.86745e-07
0
-9.25612e-08
0.429131
-3.59897e-06
5.9104e-08
0
1.31748e-07
-2.43495e-05
0.0337714
9.02633e-08
0
0
0.000123579
-9.99544e-08
0.629977
0.0450412
1.03855e-06
0
1.38304e-08
0.373464
4.56539e-08
0.00029119
0
4.1247e-09
-4.92033e-07
1.1365e-07
-8.12081e-09
-7.17485e-08
7.2263e-09
0
0
-0.00106044
8.73829e-08
0.0602893
0.0155091
0
-2.70741e-10
0
-5.46658e-05
0
-0.00428763
4.93923e-06
2.57631e-10
0
0
0
2.54044e-09
1.24428e-08
-0.00482407
1.31722e-09
0.768766
0.000129334
0.884429
0.000200685
0.000712576
-9.94263e-07
0.000877526
-7.60141e-09
-6.50003e-09
-1.19637e-09
-9.06674e-07
1.30272e-09
0
-0.000311197
1.04241e-08
4.47818e-08
2.40948e-06
1.73795e-05
9.48749e-09
-1.7728e-08
0
-1.12534e-07
0
2.01237e-09
0
0
2.68259e-08
-1.57525e-07
-0.00106127
-1.90886e-06
-3.22066e-10
0
0.00212897
0
2.2893e-07
0.00273813
0
0.0434461
0
-1.14868e-08
-1.3688e-05
0
0
2.12568e-05
0
0.0112226
0.00231563
0
0.00566009
0
0
0.000603988
-1.31413e-09
-4.9856e-10
6.64729e-10
0
4.97645e-10
-1.06324e-06
0
0
0
0
0
0.68093
0
0
0
-6.5562e-10
-2.19452e-10
0
0
0
-2.77281e-07
-5.15413e-08
0
0
0.0711369
0
-4.48285e-10
0
0.138716
1.87972e-07
0
0.341456
0.103674
2.63666e-05
0.000198785
-1.38889e-09
0
2.36632e-08
0.522475
0.310569
0
0.840624
0.0128535
0.461642
0.000812569
-8.63676e-10
0.0282964
0.14045
6.52503e-05
-1.46153e-05
-3.73329e-09
0
-6.27004e-09
0
1.79525e-05
0
0
0
1.75523e-06
9.84113e-08
0
0
0
1.48159e-07
0
0
-8.53303e-06
0.00166633
0.00108445
0
-1.58213e-08
0
-0.00132051
1.43199e-05
0
0
1.57969e-09
-5.51808e-08
0
0
-1.06339e-05
-5.95533e-08
0
-2.17604e-06
-1.04761e-08
0
-1.50658e-08
0
-3.47295e-09
3.5715e-09
0.00125869
6.2351e-07
0
0
0.459602
0.288487
-0.000537971
0.533915
-1.01676e-05
-5.5803e-06
0.034249
-3.85741e-09
1.81403e-08
-4.83027e-08
-5.78013e-08
0
-2.9723e-10
-1.39302e-09
1.14074e-07
-3.61182e-05
-2.03069e-08
0
0
0
2.26354e-06
0
0
0
0.618419
2.70988e-09
0
0
-1.02211e-05
-1.63357e-06
0
5.42308e-10
0.0112686
-2.5823e-05
-4.56579e-08
0
0
0
-3.76359e-07
0
0
-6.08465e-05
0
0
-6.88041e-05
0
-5.31388e-08
-1.69985e-05
-7.48342e-07
4.81483e-06
2.04071e-10
4.07751e-06
-4.64391e-06
0
0
0
-2.09873e-06
0
0
0
0
0
5.21721e-08
0
0
-5.6525e-07
0
0
-1.1929e-06
0
-2.26395e-07
-1.57852e-08
0
0.000142988
-9.99753e-06
-5.58934e-09
-0.00017596
0
2.90957e-05
-8.73324e-06
8.48936e-07
0
0
0
-2.64498e-05
0
0
0
-5.8481e-08
1.1622e-05
-2.26598e-09
0
0
9.65396e-09
0.0128482
0.437723
0.00155267
-0.000844215
0
0
0.478674
2.99399e-09
6.06722e-09
1.05211e-09
1.58573e-09
2.44664e-09
0
2.19939e-09
0.0021131
0
0.90719
0
0
-1.75174e-06
0.740794
0
0.857278
0
0
0
-7.55085e-05
0.000109637
-7.35483e-10
0
5.6816e-10
0
0
-1.51174e-05
6.44319e-05
0
0
7.08858e-05
0
0
1.67394e-05
0.593003
0
0
-2.52335e-07
2.75631e-07
0
1.26204e-09
0
2.21777e-07
-1.14144e-08
0
0
-9.53264e-10
3.78808e-09
0
0
0
0
-2.75046e-08
0
0
-2.95441e-06
4.49912e-07
0.695691
0
0
0
-5.15343e-09
4.33449e-06
-1.12044e-09
4.4249e-09
0
0
0
0
-0.000762601
0
0
0
1.59195e-07
-4.78791e-05
0
0
0.423049
0
0
0
-0.00239009
0.164652
6.83923e-07
2.28717e-05
0
0.879938
0.812794
1.41834e-07
0.0056317
0.000672635
0
1.36126e-08
1.51886e-07
-2.03858e-08
2.33578e-10
0.783618
0
0
0
0
5.98541e-09
0
0
0
0
4.86876e-09
-1.56277e-08
0
0
-1.36465e-08
0.364865
0
0.410747
1.63341e-05
0
0
-9.5145e-08
0
0.000614041
0.595276
-9.53022e-06
5.91331e-09
0
0
-0.000366451
2.89271e-09
0.000256727
0
0.00236473
0
0
0
0
0
0
5.27556e-05
-5.54417e-05
0.000197036
1.52934e-08
4.58496e-07
-2.3008e-08
2.07552e-05
-2.78635e-05
0
6.8878e-07
0
-4.86359e-05
0
4.4103e-06
-7.45274e-08
0.000214665
0
-1.83161e-08
0.000110283
0
1.13775e-10
0
0.000569548
0
0
0
0
3.46693e-06
2.64313e-05
0
0
0
0
5.0715e-09
0
0
1.76225e-10
4.50419e-07
1.60695e-06
3.55045e-07
0
0
-1.17638e-10
0
0
0
0
0
0
0
0.133643
0.781561
0.863367
0.868562
0
-1.0051e-09
-2.63033e-10
0
1.75043e-10
0.000586936
0.855464
0
0.893351
0
-4.92485e-10
3.11066e-10
0
1.70503e-09
-1.12233e-09
3.76675e-10
-0.00116337
0
0
6.62247e-07
2.66589e-06
-1.81375e-06
0
0
0
0
5.59616e-07
2.75977e-07
-2.33955e-06
9.17951e-10
-3.16702e-09
0
0
-2.8255e-09
-7.89166e-10
2.56749e-09
-6.51873e-10
-1.02515e-07
-3.12746e-08
-4.36457e-08
3.57448e-06
8.14238e-06
-1.03151e-06
-9.08138e-09
-1.20232e-06
0
0
0
8.04713e-09
-1.81079e-10
0.342926
0.0120971
0.507602
0.90869
0
0.860225
0
0
0
1.12542e-10
-1.19368e-10
0
3.94439e-10
0
0.000103191
1.03311e-10
1.19164e-10
0
-2.98114e-10
0
9.30737e-05
-5.29584e-08
-1.99227e-07
4.48373e-08
1.11611e-07
0
0
0
0
0
0
0
-1.07127e-09
0
-2.19604e-10
0
-0.00341969
0.564993
0.441144
0.755547
0.658789
0
0.875277
2.76526e-05
1.58777e-07
0
0
0
0
1.72101e-05
0
5.17712e-06
6.81372e-07
1.42955e-06
0.623738
0
0.0251491
0
0
0
0
0.00203711
0
-2.05163e-09
2.94913e-09
-3.21258e-10
0
0
0
0
0.486408
-1.35086e-06
0.227927
0
1.98876e-10
-1.14323e-10
7.40648e-10
-1.21698e-08
0.289478
0
0
0
0
-8.2621e-09
-3.53013e-08
0
0.000446004
0
0
0.0369096
0
2.3743e-06
6.05796e-07
-1.1432e-06
-4.13194e-10
-4.77086e-09
0
0
0
0
0
0
0
-3.11598e-08
0.0792798
-0.00105392
0
-9.46914e-09
-1.26696e-09
0
0
0
0
-7.4373e-05
-0.000452709
-1.17969e-09
6.45592e-10
-2.36569e-09
0
0
0
0
0
-2.29063e-05
0.000121987
0.00039761
-1.21247e-06
0
0
0
0
1.31615e-09
2.07943e-09
1.50078e-09
0
0.180885
-0.00162268
-1.9052e-07
-0.00417185
0.214936
1.62086e-09
4.27291e-09
3.42931e-08
0
0
0
-1.36689e-10
0.891523
0.81167
0.00401972
0.00144168
0.671525
0.51192
8.94586e-07
0
0
0
0
0
0
0
2.04349e-07
6.28766e-08
-6.14935e-09
0.605215
0
0
3.10776e-07
9.68199e-05
0.00140986
0
0.204517
0.887911
0
0
0
0
0
0
0
2.7916e-06
-6.16791e-06
-7.27544e-09
0
0
0
0
0
0
0
1.46569e-10
0
0
0
0.00140318
0.00726828
0
0
0
0
0
0
2.48163e-08
1.55665e-06
0
0
0
0
0
0
0
0
0
-5.08432e-10
0.623455
0.000356866
0.000897134
0.00229449
0
0
0.630735
0
0
4.63628e-07
2.4494e-05
-3.56875e-07
0
0.636229
0
0
0
0.118581
0.475607
-2.03634e-06
-1.76456e-05
-2.33721e-07
0.670695
0
0
0
0
0
-1.67903e-10
0
0
0
8.11743e-09
-5.95275e-09
3.55328e-09
-1.02993e-05
0
1.55199e-09
0
0
2.55015e-05
2.96958e-05
9.58637e-05
0
0
0
0
0
0
-1.50871e-06
5.83536e-06
0
0
0
0
-0.000131096
0
0
0.00189725
-0.000442698
0.00512241
5.01462e-08
2.52953e-06
0
0
1.48402e-06
3.40984e-08
0
0
0
0.0106713
0
0.11939
-0.000621887
6.28948e-10
1.92755e-09
8.10746e-05
-5.99025e-05
0
0
0
0.184077
-1.79077e-10
3.87465e-10
-6.27689e-10
1.87895e-09
-0.000232139
-5.34552e-07
-1.7585e-08
4.37408e-07
0
0
0
0
0
0
0.31832
0
0.00153101
-0.00138475
0
0.00615913
1.17755e-07
0.000296172
9.39325e-05
0
2.78023e-10
-3.64564e-08
1.45174e-06
2.12839e-06
3.39095e-06
0
0.0937601
0
0
0
0.203119
0.321792
-0.000565749
-0.000389042
-0.000669817
0.0101393
0
0
0
0.486168
0.296658
0.566811
0
0
0
0
0
0
0
0
0
-2.08827e-08
1.37928e-08
-2.09011e-08
4.44824e-08
4.39531e-08
0
0
3.57581e-07
3.99385e-07
3.34151e-07
1.10678e-07
3.66235e-08
8.08376e-09
0
0
0
0
0
0
0
0
0
0
-8.36209e-07
0
0
0
-2.59736e-10
7.57805e-08
-4.71691e-07
1.81571e-07
5.61195e-07
0
0
0
0.805585
0.392197
0.143822
0
-1.78761e-07
8.68975e-06
-1.53755e-05
8.70998e-05
0.000763077
0.000573374
-8.37628e-05
1.78288e-10
4.22562e-06
4.48952e-10
-0.00157502
-1.8841e-08
0.00168665
2.45204e-08
-3.95479e-08
-1.88539e-06
0
0
7.88532e-06
2.57471e-05
6.45321e-06
0
0
0
0
0
0
0
0
-4.25743e-10
-1.48006e-10
0.592507
0.800348
1.29541e-08
6.93439e-09
-4.39647e-08
0
-9.57348e-08
-6.3338e-07
5.59006e-05
-0.00574306
-1.35922e-10
0
1.18044e-09
0
0
0
0
0
0
-6.66792e-10
7.81398e-06
1.64476e-09
-1.8575e-09
3.43894e-09
1.16934e-06
1.4736e-06
0
0
0
0
0
0
-5.06523e-05
-0.000278996
0
0
0
-3.51485e-06
-2.66286e-05
4.568e-05
1.2882e-05
-1.19024e-05
-5.82063e-06
0
0
-5.74488e-06
1.3176e-06
7.25789e-06
-2.49224e-05
8.29605e-06
0
3.40365e-05
0
0
0
0
0
0
0
0
0
0
4.01247e-08
3.79157e-09
4.30874e-07
8.82066e-08
0
-6.36253e-08
0
-6.45445e-08
-9.08924e-10
-1.26355e-09
0
0
4.52289e-10
0.0292898
0.0113294
0.222935
0.0988843
0.000109847
0.000480371
2.72206e-07
-7.08913e-06
0
3.80526e-06
3.94667e-06
0.000468133
-0.00213421
6.10309e-08
-2.78466e-08
-2.41536e-07
0
0
0
0
0
0
0
0.00159494
9.91637e-05
0
0
0
0
0
0
-1.09179e-07
0
0
0
0
0
0
0
0
0
0.797331
0.452432
0.220868
0.140986
-4.61618e-07
-9.8449e-06
-0.000234467
0
0
0
-2.03242e-10
0
0
0.00452018
0.0598996
1.14746e-05
-3.47109e-05
0
0
0
-2.55158e-06
6.5571e-06
6.93133e-06
0.838322
0.894967
0
0
0
0
0
0
0
0.887544
0.255514
0
0
0
0
0
0
0
0
0
0.0168738
0.113866
0
0
0
0
0
0
-2.09836e-08
-3.99257e-08
-2.3579e-09
0
0
-1.0295e-05
3.37712e-05
0
0
0
0
0
0
0
0
2.80577e-10
0
0
0
0
3.1926e-06
-9.38157e-06
4.00314e-06
8.93894e-06
-1.45165e-08
-4.66721e-10
-1.36057e-09
2.10382e-09
-2.223e-10
0
-1.99592e-10
6.84621e-07
2.17789e-07
0.568459
0
0
0
2.06264e-10
0
0
0
0
0
0
-4.9836e-05
1.82299e-06
0
0
0
0
1.19587e-05
0
5.17863e-07
0
2.90694e-06
0
0
0
0
0
0
0
0
0
0
0
-9.30879e-10
-5.18823e-10
-3.58948e-07
2.20664e-06
2.26565e-06
3.61382e-06
0.689
9.46737e-10
2.30922e-09
2.15644e-08
7.2143e-07
0
-3.10972e-09
1.81816e-09
0
0
0
0.221181
0.291654
0
0
0
0
0
0
0
0
8.50954e-09
-1.85848e-08
0.217223
-2.14608e-05
-2.37319e-05
7.3518e-06
0
0
0
0
0
0
0
0
0
-3.9253e-10
1.5679e-07
-2.62003e-07
0
0
0
0
0
0
0
0
0
0
0
0
0
0.000905302
0.000150042
-0.00305906
-0.0056071
-0.00436104
0.00113228
0.0111389
0.0246528
0.0346292
0.0336784
0.0256978
0.0225975
0.0312623
0.0490048
0.0645104
0.0640648
0.0512149
0.0380706
0.0236372
0.00615312
-0.00866576
-0.0127876
-0.00778507
-0.00709442
-0.00373124
0.00509398
-0.00502705
-0.0272281
-0.0307404
-0.0209123
-0.0114866
0.0103238
0.070193
0.000269821
-0.00250773
-0.00173281
0.014483
0.0277078
0.0175826
0.0199372
0.0426402
0.0709082
0.0478002
0.00417517
-0.0137524
0.0446286
-0.00465261
-0.00477854
-0.00490505
-0.00479582
-0.00287679
-0.000296146
0.00139763
0.00414153
0.00929871
0.0139808
0.0147587
0.0113531
0.0072508
0.00303765
0.00300182
0.0121763
0.0216901
0.0134452
-0.00576711
-0.0194555
-0.0222614
-0.0152161
-0.000177641
0.00677099
-0.000913894
-0.000544909
-0.000873703
-0.0255201
-0.0391865
-0.0153347
0.0220302
0.107131
-0.00298898
-0.00596835
-0.00938342
-0.00550571
0.00783447
0.00546638
0.000138219
-0.0037921
-0.00524936
0.00810871
-0.00338745
0.000762651
-0.000941584
-0.00152786
-0.00172471
-0.00363499
-0.00450553
-0.00192807
-0.000334505
-0.00169949
-0.00131381
0.002323
0.00437251
0.00622102
0.00651545
0.00739142
0.00778075
0.00353647
-0.00242182
0.00166535
0.00604274
0.00374573
0.000481601
-0.00258658
-0.00283498
0.00427843
-7.27466e-06
-0.0129241
-0.00148882
0.00916203
-0.00706352
0.0346786
0.213577
0.00169303
0.00302473
0.00394827
-0.00322865
-0.00329226
-0.00092517
0.00294587
0.0581377
-0.000249966
-0.00168341
-0.000312589
-9.68933e-05
0.0679167
-1.17816e-05
0.000663483
0.000334126
0.00184936
0.0246743
0.000420398
0.00328914
0.000274319
0.00404876
0.00282501
-0.0213003
6.96572e-05
0.000732952
0.00151463
0.000397144
-0.000288731
0.000319413
0.00012709
0.00198116
0.00390794
-0.000774598
0.00390877
-0.000698333
0.00203249
-0.000869905
0.00341041
-0.0017875
0.00582978
0.00157458
-0.000176908
3.7058e-05
-0.00434758
-0.000337166
-0.000238274
-0.00028695
-0.00106502
-0.00152059
-0.000149946
-0.00188812
-7.321e-05
-0.00253151
0.00941458
-4.82981e-05
-0.00202207
-3.9807e-05
-0.000526438
0.000177398
-0.00683048
0.000412021
-0.000591114
0.000244406
-0.000409274
0.000917018
-0.000906975
0.000647428
-0.00110515
0.000345344
-0.00121949
-0.000262028
0.0007521
0.00114966
0.000868591
0.00291508
0.000964521
0.00224268
0.00464777
0.0012968
0.00454693
0.00028519
-0.00033633
0.00341504
-0.000522794
-0.000281833
-0.00418843
0.000325175
0.000296603
-0.00389875
0.000170491
0.000331966
0.000244588
-0.00343711
7.37211e-05
-7.06731e-05
-0.000171162
0.00243343
2.65693e-05
0.0688064
-1.10338e-05
5.14057e-05
0.442577
4.75184e-05
-0.000168081
-0.000107389
-0.000648202
-0.000681869
2.6404e-06
-0.000426765
0.000337813
-8.4335e-05
0.00182468
0.00195813
-4.83433e-05
0.00040991
-1.27009e-06
0.000513246
1.85985e-05
-0.00534561
-3.25822e-05
0.00177689
0.000148748
0.000142057
-0.00133147
-4.33409e-05
-0.00207559
-3.79388e-05
-0.00242547
8.64137e-05
-0.00221375
0.000262966
-0.00150379
-0.00133133
0.000659662
-0.00161425
-0.00135215
-0.00131063
-0.00247678
-0.00323412
-0.00192745
-0.00378776
0.000140081
-5.66286e-05
3.72432e-05
0.00277963
0.00022729
7.59541e-05
-0.000132622
-0.000594731
-0.000624107
-0.000300114
-0.000292291
-0.000329616
0.253214
-6.00265e-05
7.74491e-05
0.104744
-5.41573e-05
4.82382e-05
0.000464331
0.000354948
0.000742818
0.000699825
-0.000230762
-0.000245651
-0.000269125
2.31015e-06
0.000751678
-4.44128e-05
-0.00352686
-0.000368485
0.0112608
-0.000252815
-0.00906308
0.00238224
7.46148e-05
-0.00132216
-0.0158063
-0.00190942
9.15054e-05
-0.00157787
-0.00951829
0.000116068
-0.00116473
-0.00481145
0.000650079
-0.00142017
-0.00209329
0.000408932
-0.00264294
0.000419214
0.00808156
-0.00326368
0.0039329
0.000435922
-0.00310315
0.00633622
0.00992238
0.000202621
-0.00428121
0.00384619
0.000284689
0.00119187
0.000655313
-0.0104295
-4.90628e-05
0.00189992
8.46166e-06
-0.00205889
-2.11231e-05
0.000241798
-0.0101291
-0.000105792
-0.00738722
-0.000993932
-0.0122305
4.64599e-05
-0.000684342
0.000313026
5.25633e-05
-0.000467185
-0.000172833
4.56891e-05
-0.000117972
0.0152759
2.90874e-05
-6.6699e-05
-0.0212456
8.63916e-06
6.63188e-05
0.0202345
-5.59345e-06
0.000281926
-0.00255989
-4.61133e-06
0.000185251
0.614764
-0.00333886
1.6461e-06
-9.02558e-05
0.000318067
0.000970601
0.000545977
0.00470091
-0.00036049
0.00490428
8.77251e-05
0.000659884
0.00139635
0.000466903
-0.00026866
-0.000284341
-0.000340783
0.000400078
0.000218888
-0.0033974
-0.0096493
0.000175706
-0.00111721
-0.00460694
-0.000382695
-0.00296504
0.00243868
0.000140203
0.00201611
-0.000511271
0.00507705
-1.59267e-05
0.000210838
0.00113465
-6.84102e-05
0.000681948
0.00311429
-0.000246786
0.00675676
0.00267613
-3.36886e-05
0.0046262
0.00705537
-0.00368411
0.000286845
0.00408292
0.00510371
0.000176721
0.00263208
0.0039245
-0.00803796
0.00186986
0.00293204
-0.000129992
0.00229138
0.000935421
0.000294465
0.00244289
-0.00071442
0.000591773
-0.00148159
0.00125729
-0.00011795
-0.0037469
-0.000710171
-0.000279309
4.68101e-05
0.000358065
-0.000241016
-0.000199781
0.00220288
-0.000154563
0.0108016
-8.55593e-05
-6.42897e-05
0.0138716
0.000428574
-0.0050643
-6.55355e-05
-0.00060615
-0.00283714
0.00100829
-2.75738e-05
-0.000371214
-0.00236468
-1.11274e-05
-0.000171206
-0.00862993
-5.21976e-06
-0.000102766
0.000676516
-7.05529e-06
-7.94669e-05
-0.0379461
-6.01171e-06
-4.41538e-05
-0.00205062
-6.36058e-07
0.000185032
0.00162929
1.44043e-06
0.000657058
0.82338