# vtk DataFile Version 2.0
Unstructured Grid by M++
ASCII
DATASET UNSTRUCTURED_GRID
POINTS 4072 float
  0.875000   1.000000 0
  0.875000   0.984375 0
  0.875000   0.968750 0
  0.875000   0.953125 0
  0.875000   0.937500 0
  0.875000   0.921875 0
  0.875000   0.906250 0
  0.875000   0.890625 0
  0.875000   0.875000 0
  0.875000   0.859375 0
  0.875000   0.843750 0
  0.875000   0.828125 0
  0.875000   0.812500 0
  0.875000   0.796875 0
  0.875000   0.781250 0
  0.875000   0.765625 0
  0.859375   1.000000 0
  0.859375   0.984375 0
  0.859375   0.968750 0
  0.859375   0.953125 0
  0.859375   0.937500 0
  0.859375   0.921875 0
  0.859375   0.890625 0
  0.859375   0.875000 0
  0.859375   0.859375 0
  0.859375   0.843750 0
  0.859375   0.828125 0
  0.859375   0.812500 0
  0.859375   0.796875 0
  0.859375   0.781250 0
  0.859375   0.765625 0
  0.859375   0.671875 0
  0.859375   0.656250 0
  0.859375   0.640625 0
  0.843750   1.000000 0
  0.843750   0.984375 0
  0.843750   0.968750 0
  0.843750   0.953125 0
  0.843750   0.937500 0
  0.843750   0.921875 0
  0.843750   0.906250 0
  0.843750   0.875000 0
  0.843750   0.859375 0
  0.843750   0.843750 0
  0.843750   0.828125 0
  0.843750   0.812500 0
  0.843750   0.796875 0
  0.843750   0.781250 0
  0.843750   0.765625 0
  0.843750   0.671875 0
  0.843750   0.656250 0
  0.843750   0.640625 0
  0.828125   1.000000 0
  0.828125   0.984375 0
  0.828125   0.968750 0
  0.828125   0.953125 0
  0.828125   0.937500 0
  0.828125   0.921875 0
  0.875000   0.671875 0
  0.812500   0.921875 0
  0.890625   0.656250 0
  0.828125   0.906250 0
  0.875000   0.656250 0
  0.812500   0.906250 0
  0.890625   0.640625 0
  0.828125   0.890625 0
  0.875000   0.640625 0
  0.812500   0.890625 0
  0.890625   0.625000 0
  0.828125   0.875000 0
  0.890625   0.609375 0
  0.828125   0.859375 0
  0.890625   0.593750 0
  0.828125   0.843750 0
  0.890625   0.578125 0
  0.828125   0.828125 0
  0.890625   0.562500 0
  0.828125   0.812500 0
  0.828125   0.796875 0
  0.828125   0.781250 0
  0.828125   0.765625 0
  0.828125   0.671875 0
  0.828125   0.656250 0
  0.828125   0.640625 0
  0.875000   0.750000 0
  0.812500   1.000000 0
  0.875000   0.625000 0
  0.812500   0.875000 0
  0.875000   0.734375 0
  0.812500   0.984375 0
  0.875000   0.718750 0
  0.812500   0.968750 0
  0.875000   0.703125 0
  0.812500   0.953125 0
  0.875000   0.687500 0
  0.812500   0.937500 0
  0.875000   0.609375 0
  0.812500   0.859375 0
  0.875000   0.593750 0
  0.812500   0.843750 0
  0.875000   0.578125 0
  0.812500   0.828125 0
  0.812500   0.812500 0
  0.875000   0.546875 0
  0.812500   0.796875 0
  0.812500   0.781250 0
  0.812500   0.765625 0
  0.859375   0.750000 0
  0.796875   1.000000 0
  0.859375   0.625000 0
  0.796875   0.875000 0
  0.859375   0.734375 0
  0.796875   0.984375 0
  0.859375   0.718750 0
  0.796875   0.968750 0
  0.859375   0.703125 0
  0.796875   0.953125 0
  0.859375   0.687500 0
  0.796875   0.937500 0
  0.859375   0.609375 0
  0.796875   0.859375 0
  0.859375   0.593750 0
  0.796875   0.843750 0
  0.859375   0.578125 0
  0.796875   0.828125 0
  0.859375   0.562500 0
  0.796875   0.812500 0
  0.796875   0.796875 0
  0.859375   0.531250 0
  0.796875   0.781250 0
  0.796875   0.765625 0
  0.843750   0.750000 0
  0.781250   1.000000 0
  0.843750   0.625000 0
  0.781250   0.875000 0
  0.843750   0.734375 0
  0.781250   0.984375 0
  0.843750   0.718750 0
  0.781250   0.968750 0
  0.843750   0.703125 0
  0.781250   0.953125 0
  0.843750   0.687500 0
  0.781250   0.937500 0
  0.843750   0.609375 0
  0.781250   0.859375 0
  0.843750   0.593750 0
  0.781250   0.843750 0
  0.843750   0.578125 0
  0.781250   0.828125 0
  0.781250   0.812500 0
  0.843750   0.546875 0
  0.781250   0.796875 0
  0.781250   0.781250 0
  0.843750   0.515625 0
  0.781250   0.765625 0
  0.828125   0.750000 0
  0.765625   1.000000 0
  0.828125   0.625000 0
  0.765625   0.875000 0
  0.828125   0.734375 0
  0.765625   0.984375 0
  0.828125   0.718750 0
  0.765625   0.968750 0
  0.828125   0.703125 0
  0.765625   0.953125 0
  0.828125   0.687500 0
  0.765625   0.937500 0
  0.828125   0.609375 0
  0.765625   0.859375 0
  0.828125   0.593750 0
  0.765625   0.843750 0
  0.828125   0.578125 0
  0.765625   0.828125 0
  0.828125   0.562500 0
  0.765625   0.812500 0
  0.765625   0.796875 0
  0.828125   0.531250 0
  0.765625   0.781250 0
  0.765625   0.765625 0
  0.812500   0.750000 0
  0.750000   1.000000 0
  0.953125   1.000000 0
  0.812500   0.734375 0
  0.750000   0.984375 0
  0.812500   0.718750 0
  0.750000   0.968750 0
  0.812500   0.703125 0
  0.750000   0.953125 0
  0.812500   0.687500 0
  0.750000   0.937500 0
  0.812500   0.671875 0
  0.750000   0.921875 0
  0.812500   0.656250 0
  0.750000   0.906250 0
  0.812500   0.640625 0
  0.750000   0.890625 0
  0.812500   0.625000 0
  0.750000   0.875000 0
  0.812500   0.609375 0
  0.750000   0.859375 0
  0.812500   0.593750 0
  0.750000   0.843750 0
  0.812500   0.578125 0
  0.750000   0.828125 0
  0.750000   0.812500 0
  0.812500   0.546875 0
  0.750000   0.796875 0
  0.750000   0.781250 0
  0.812500   0.515625 0
  0.750000   0.765625 0
  0.796875   0.750000 0
  0.734375   1.000000 0
  0.796875   0.734375 0
  0.734375   0.984375 0
  0.796875   0.718750 0
  0.734375   0.968750 0
  0.796875   0.703125 0
  0.734375   0.953125 0
  0.796875   0.687500 0
  0.734375   0.937500 0
  0.796875   0.671875 0
  0.734375   0.921875 0
  0.796875   0.656250 0
  0.734375   0.906250 0
  0.796875   0.640625 0
  0.734375   0.890625 0
  0.796875   0.625000 0
  0.734375   0.875000 0
  0.796875   0.609375 0
  0.734375   0.859375 0
  0.796875   0.593750 0
  0.734375   0.843750 0
  0.796875   0.578125 0
  0.734375   0.828125 0
  0.734375   0.812500 0
  0.734375   0.796875 0
  0.796875   0.531250 0
  0.734375   0.781250 0
  0.734375   0.765625 0
  0.781250   0.750000 0
  0.718750   1.000000 0
  0.921875   1.000000 0
  0.781250   0.734375 0
  0.718750   0.984375 0
  0.781250   0.718750 0
  0.718750   0.968750 0
  0.781250   0.703125 0
  0.718750   0.953125 0
  0.859375   0.906250 0
  0.781250   0.687500 0
  0.718750   0.937500 0
  0.781250   0.671875 0
  0.718750   0.921875 0
  0.781250   0.656250 0
  0.718750   0.906250 0
  0.781250   0.640625 0
  0.718750   0.890625 0
  0.781250   0.625000 0
  0.718750   0.875000 0
  0.781250   0.609375 0
  0.718750   0.859375 0
  0.781250   0.593750 0
  0.718750   0.843750 0
  0.781250   0.578125 0
  0.718750   0.828125 0
  0.781250   0.562500 0
  0.718750   0.812500 0
  0.781250   0.546875 0
  0.718750   0.796875 0
  0.781250   0.531250 0
  0.718750   0.781250 0
  0.781250   0.515625 0
  0.718750   0.765625 0
  0.765625   0.750000 0
  0.703125   1.000000 0
  0.765625   0.734375 0
  0.703125   0.984375 0
  0.765625   0.718750 0
  0.703125   0.968750 0
  0.765625   0.703125 0
  0.703125   0.953125 0
  0.765625   0.687500 0
  0.703125   0.937500 0
  0.843750   0.890625 0
  0.703125   0.921875 0
  0.765625   0.656250 0
  0.703125   0.906250 0
  0.765625   0.640625 0
  0.703125   0.890625 0
  0.765625   0.625000 0
  0.703125   0.875000 0
  0.765625   0.609375 0
  0.703125   0.859375 0
  0.765625   0.593750 0
  0.703125   0.843750 0
  0.765625   0.578125 0
  0.703125   0.828125 0
  0.765625   0.562500 0
  0.703125   0.812500 0
  0.765625   0.546875 0
  0.703125   0.796875 0
  0.765625   0.531250 0
  0.703125   0.781250 0
  0.765625   0.515625 0
  0.703125   0.765625 0
  0.750000   0.750000 0
  0.687500   1.000000 0
  0.890625   1.000000 0
  0.750000   0.734375 0
  0.687500   0.984375 0
  0.750000   0.718750 0
  0.687500   0.968750 0
  0.578125   0.796875 0
  0.578125   0.781250 0
  0.578125   0.765625 0
  0.546875   0.953125 0
  0.546875   0.968750 0
  0.546875   0.718750 0
  0.546875   0.687500 0
  0.250000   0.609375 0
  0.937500   0.031250 0
  0.046875   0.703125 0
  0.734375   0.062500 0
  0.734375   0.078125 0
  0.734375   0.046875 0
  0.046875   0.593750 0
  0.046875   0.562500 0
  0.046875   0.531250 0
  0.718750   0.156250 0
  0.046875   0.609375 0
  0.734375   0.031250 0
  0.062500   0.609375 0
  0.234375   0.703125 0
  0.718750   0.125000 0
  0.046875   0.578125 0
  0.734375   0.000000 0
  0.062500   0.578125 0
  0.000000   0.828125 0
  0.234375   0.671875 0
  0.234375   0.625000 0
  0.718750   0.093750 0
  0.687500   0.156250 0
  0.062500   0.546875 0
  0.000000   0.796875 0
  0.718750   0.046875 0
  0.031250   0.687500 0
  0.687500   0.171875 0
  0.500000   1.000000 0
  0.078125   0.218750 0
  0.234375   0.593750 0
  0.718750   0.062500 0
  0.687500   0.125000 0
  0.000000   0.765625 0
  0.421875   0.500000 0
  0.031250   0.593750 0
  0.718750   0.015625 0
  0.687500   0.234375 0
  0.015625   0.812500 0
  0.703125   0.171875 0
  0.703125   0.187500 0
  0.703125   0.140625 0
  0.015625   0.781250 0
  0.437500   0.515625 0
  0.500000   0.796875 0
  0.078125   0.015625 0
  0.687500   0.203125 0
  0.250000   0.578125 0
  0.703125   0.109375 0
  0.000000   0.515625 0
  0.500000   0.765625 0
  0.062500   0.593750 0
  0.750000   0.015625 0
  0.015625   0.843750 0
  0.687500   0.000000 0
  0.500000   0.828125 0
  0.078125   0.046875 0
  0.015625   0.531250 0
  0.250000   0.546875 0
  0.703125   0.078125 0
  0.703125   0.031250 0
  0.015625   0.671875 0
  0.250000   0.515625 0
  0.000000   0.656250 0
  0.500000   0.906250 0
  0.078125   0.125000 0
  0.687500   0.015625 0
  0.031250   0.546875 0
  0.687500   0.031250 0
  0.500000   0.859375 0
  0.703125   0.000000 0
  0.703125   0.046875 0
  0.703125   0.015625 0
  0.500000   0.937500 0
  0.234375   0.531250 0
  0.031250   0.578125 0
  0.687500   0.062500 0
  0.500000   0.890625 0
  0.031250   0.796875 0
  0.453125   0.531250 0
  0.500000   0.968750 0
  0.078125   0.187500 0
  0.234375   0.562500 0
  0.031250   0.609375 0
  0.718750   0.031250 0
  0.687500   0.093750 0
  0.750000   0.046875 0
  0.000000   0.937500 0
  0.421875   0.671875 0
  0.718750   0.187500 0
  0.031250   0.828125 0
  0.765625   0.062500 0
  0.015625   0.953125 0
[...]
CELL_DATA 7648
SCALARS scalar_value float 1
LOOKUP_TABLE default
-1.56444e-08
3.6895e-09
-4.91074e-10
-9.18978e-09
1.32183e-06
5.52194e-07
-1.46051e-07
0.00144006
-0.00964049
0.00440891
0.0066072
-2.35398e-08
-5.73176e-07
9.86307e-08
-3.06401e-07
-0.00333722
0.0506499
0.061988
0.000208046
0
-0.0104731
0.00831095
0.413694
1.88023e-05
0.492127
0.00173693
0.0022767
0.0522555
0.00187535
0.697207
0.0573481
0.00325879
0.0158266
-6.42067e-07
8.9306e-07
-9.20877e-07
-1.15133e-09
-7.77513e-06
0.00253459
-0.00354279
1.28638e-06
-0.0014609
0.00207015
1.54614e-06
-1.87132e-09
-3.07791e-05
0.000249455
0.000195627
0.000152357
0.000482585
3.08336e-06
1.0756e-05
-9.55807e-09
1.29179e-08
0.00578846
0.0539694
0.0527488
-0.0220148
0.00453077
-1.3296e-07
-7.93532e-09
-0.00160205
1.50415e-06
0.00116044
-0.00078316
-0.00027344
0.0542404
8.14378e-09
0.0052804
-1.06031e-07
-2.61968e-08
-1.20722e-07
0
0
-1.97018e-08
0.484534
0.792543
0.531869
0.637842
-0.00275936
1.53913e-05
0.698436
0.304828
0.000653591
0
-1.68111e-06
3.79675e-08
-0.0011552
0.0795612
0.0728632
0.000531584
0.00558838
3.53617e-06
-6.0752e-06
6.6277e-06
6.93646e-06
-2.65414e-10
1.53911e-07
4.76269e-05
0.000251362
0.000374914
-1.94132e-08
-3.79114e-08
-9.47171e-09
0.082394
-5.80962e-10
6.91985e-06
0.000174573
0.279779
0.541147
-7.2168e-05
-2.19026e-05
0.0420348
-0.0198618
8.23411e-05
0.000445021
0.000795563
8.29034e-06
-1.74351e-05
2.00239e-05
4.51947e-06
-2.5513e-05
-0.000678649
1.45715e-07
0
1.56188e-07
-3.66188e-08
0.282634
0.237873
0.271305
0.402887
-6.89043e-07
-7.53291e-06
0.00165637
-3.10849e-07
-1.76809e-08
-0.0376471
0.294376
-0.0485853
0.749021
-3.46244e-08
0
6.69149e-07
4.35802e-08
-0.0216812
1.14662e-06
0
4.32489e-05
0
-0.000820595
1.3418e-09
-8.57192e-10
0.00182963
-8.45252e-06
-0.00518941
-2.45346e-07
7.36551e-08
0.00324441
0.00179926
0.00283955
0.00523299
0.000711639
-2.43873e-08
0
0.000908747
0.0011542
0
-1.44172e-08
1.44428e-09
0.00269215
-4.27461e-08
0.000974812
0
0
0.00011688
-0.00984009
0.206648
0
1.24532e-06
0.000580902
-0.000106327
1.05085e-05
1.05955e-05
-5.16243e-06
-1.58161e-06
-2.62578e-05
-7.59942e-05
0.000520681
3.39718e-07
-0.000160929
0.000881394
-9.91003e-06
-8.79588e-06
0
-2.76635e-10
2.61834e-07
4.03754e-06
0.00303465
9.83881e-09
5.60416e-10
1.07019e-06
9.3052e-06
0.000707748
-0.0006071
0.000193568
1.11095e-05
0.00633846
0.00490132
8.18521e-05
2.97538e-07
-6.23333e-07
8.24725e-07
0.00410072
-0.00213956
0.00249158
0.0171154
-0.0049978
0.0148625
-0.0455442
-0.0698156
0.00942164
-6.17114e-07
1.0333e-09
0.00513071
-3.89368e-06
0.00169813
6.09953e-09
-2.85531e-05
-1.02947e-05
0.198397
0.238224
0.767677
0.646592
0.000270282
-0.000228121
-0.00466238
0.00253998
0.00596138
4.62604e-08
0.0206442
1.98278e-10
7.34424e-05
-0.0325519
0.10708
-0.0110449
0
-5.41379e-09
1.69577e-08
-1.03587e-09
0.00142246
-0.000763987
0.000351847
-1.49181e-06
0.00107724
-0.000112117
0
3.69789e-07
2.19038e-06
-2.37174e-07
-0.00344582
4.35276e-09
-5.50303e-08
0.000109732
-0.000832522
0.000296602
0.103867
0.504639
-1.11767e-06
2.91413e-07
0.054384
0.270246
0
0.65577
0.435822
0.488036
-2.26697e-05
0.000593509
-0.000110133
0.00538757
-0.00651214
0.00111055
0.00510887
0.0941706
0.0752074
2.52431e-05
6.20083e-05
0.000291802
0.00747939
-0.0186562
0.00383174
0.00049463
0.000395785
0.000100378
0.00358909
0.0098113
-0.00587589
0.068569
0.018258
0.182883
0.0023042
0.00105832
0.00594801
0.00238401
0.386073
0.203858
0.0622638
-1.87567e-06
0.64989
0.639101
0.400112
-5.17712e-10
0.280356
-0.00104641
0.111478
-0.00845608
-0.0020648
0.00284757
0.726796
0.745046
0.648604
-1.00588e-06
4.14067e-06
5.07282e-07
4.29602e-06
0
0.294071
0.000263933
-0.000197893
-0.000153728
-0.000111053
-0.00217659
-0.00509226
-1.00593e-09
-0.00203015
-0.00550339
1.43479e-06
-5.7781e-09
-2.11829e-06
-5.2034e-07
-1.66861e-06
0.000209825
0.0909701
-0.000641453
0.000440182
6.70139e-06
-0.00700314
0.0361203
0.122116
1.02157e-07
3.82824e-10
-1.48125e-08
-0.0380727
0.00250215
-0.0637992
-0.00977376
-7.4264e-09
1.59611e-06
3.0291e-05
0.0315448
-0.00558111
0.000576056
-1.63061e-06
0.744461
0
0.0102952
0.0107452
-0.00942185
0.0648014
0.381349
0.00643645
0.144867
0
-1.94678e-08
0.399503
0.116329
0.524135
-0.000280991
-0.0060468
-0.0160803
0.00145073
-0.00165022
-1.33512e-05
-0.00314622
0.00698651
0.00891373
0.00288343
-1.41858e-07
-0.00471598
0.000396838
-0.00118509
0.000895499
4.24361e-05
-0.00294138
-0.00273474
0.000558154
0.00290844
-0.0106459
-0.00250726
0.00498469
-0.00277026
0.00253505
3.94509e-06
1.21476e-05
1.88423e-05
-3.60078e-05
9.99827e-10
-0.00661652
0.0231206
-0.00832512
-2.12762e-05
-9.72201e-08
-0.0143855
0
-0.0190248
-0.0195039
1.54922e-06
-1.44556e-08
0.00025865
0.00324901
0.0058747
-0.0038957
0.00123267
-8.18384e-05
0.507337
-3.6616e-08
0.0100206
-0.00129074
-0.00109504
0.00126024
-1.89652e-07
-3.17356e-06
0.187097
0
0.804141
0.568884
-0.000161708
2.80941e-06
-3.05351e-09
1.01451e-09
-6.39308e-09
-5.36983e-07
1.113e-05
-0.00890541
-0.000181605
0
0
0.244845
-9.73496e-07
2.75287e-10
-3.69719e-08
0
0.00403056
-0.000139378
-3.00028e-08
1.83323e-05
-5.61163e-06
-7.08116e-09
0.205127
7.45529e-05
0.141616
0.265741
1.7459e-06
0.000165633
6.37368e-05
-0.00532417
-5.80078e-09
2.11788e-05
0.000900417
-3.04065e-06
-3.05133e-08
0.503086
-0.00174126
0.00203477
0
-2.42415e-05
0.0185522
1.88579e-06
-1.38669e-10
8.8021e-06
7.15467e-07
0
-0.000375809
0.00873499
-0.00267032
6.32866e-06
1.00835e-05
1.7932e-10
4.7113e-06
-2.26634e-07
0.77385
-3.76839e-06
1.3056e-07
-1.13547e-09
8.63746e-07
-8.45446e-08
0.00430348
-1.23864e-05
1.27379e-05
3.74765e-05
-5.20328e-09
-0.00422012
-6.65165e-06
0.000100029
0.000134587
2.40012e-05
-7.36456e-06
4.5743e-05
2.27386e-05
0.00106665
8.59097e-05
0.000462501
0.000105746
-1.61251e-05
4.12997e-09
0.818025
0.693647
0
-0.00450137
0.0181077
9.43028e-05
-1.43119e-09
0.248574
0
-2.34263e-06
2.69418e-06
-5.68755e-07
-3.80143e-09
0
0.51377
0.144614
0
5.50656e-06
1.87411e-05
-0.0098977
-0.00516391
0
-2.90265e-07
0
-0.000180138
-0.0138623
-1.39913e-07
-2.11411e-09
0.00404929
-1.6016e-05
9.06242e-05
0.37359
0.251366
3.89074e-07
0.0415938
-0.00330816
-0.00123357
0.134639
-0.00475701
0.00297275
0.20424
-0.0110133
4.52841e-07
0.00389983
-0.00161499
0.0114375
-5.40865e-07
0.0535031
-0.0017318
0.000946362
-0.00117594
0.000576591
-0.000827679
0.00198609
-0.000156276
-3.19025e-08
2.06186e-09
0.0117234
9.37608e-07
-0.0173054
0.0137986
-0.019789
0.000469616
1.92417e-10
0.0392298
-2.90141e-10
0.107184
0.796053
0.684537
0.00306575
-5.56547e-06
0.230317
0.504967
-4.15586e-05
0.796451
-5.93935e-06
3.05377e-06
5.88308e-06
-0.00246902
-2.74662e-07
0
0
0.235466
-1.19168e-07
0.068565
0.707875
6.06135e-09
3.64242e-05
0.000285185
0.000955068
-8.85132e-06
0.00154149
5.55948e-10
7.69997e-07
-0.00116162
0.000420629
0.00093157
0.462023
1.5877e-10
0.0774515
-0.000169483
-0.00748301
-0.000576629
0.00754991
0.00482219
0.644723
-5.14824e-05
0.00343298
0.281472
-0.00843815
0.251829
-0.00605843
-0.00100175
-0.00193511
0.00111916
-0.0101526
-0.00152808
2.14742e-06
3.78944e-05
-0.00188023
4.10078e-05
4.07233e-07
0.370501
1.13285e-05
-2.36956e-05
0.00259264
-3.63849e-05
0.337784
-1.36257e-05
-7.06741e-08
0.588264
-0.000112232
-3.84709e-05
0.452666
0.0547764
-8.21114e-05
0.159155
5.76902e-06
0.000318752
0.0267094
-0.00135816
8.84426e-05
0.00290844
0.255328
2.39874e-06
-0.00786372
-9.41114e-09
0.764169
6.97784e-07
0.0504785
0.0226242
0.602039
0.0773383
1.27416e-06
0.00152323
0.000967889
0.0525278
0.308194
0
-2.51744e-05
0.000686768
-0.0021346
-0.000971673
0.0309642
0.00121884
0
0.0164773
-0.00297017
0.796559
0.337438
-5.59118e-08
0.00047155
0.000205592
0.069507
8.37226e-05
-2.60363e-05
0.585214
9.5092e-09
-3.3717e-08
0.00521686
0.207654
0.00314733
-0.00737187
2.48967e-08
-1.41201e-06
1.28093e-09
0.00259922
1.49625e-09
0.0232608
0.000954082
0.0516808
-1.48326e-09
4.51423e-09
1.2014e-09
9.38577e-07
0.0150484
0.108129
0.0382017
-0.0211421
0.0670949
-0.00418401
0.0082582
-0.00501405
0.387101
0.0227798
1.93063e-06
0.0594569
0.0412624
-1.2633e-05
0.0130195
6.9073e-08
0.115612
0.760205
0.594688
0.573948
0.0766459
1.97843e-05
-2.17944e-05
1.38803e-08
-4.16287e-05
0
1.35676e-05
-7.34673e-10
-3.13941e-06
-2.02113e-05
-3.14999e-05
-0.00399626
-0.00115567
2.33244e-05
7.81446e-10
0.387392
-2.15363e-05
0.661617
0.00816859
0
0.102421
0
0.0137422
-0.000166079
2.42353e-06
-2.72231e-07
0.000467423
-1.30649e-06
-0.0279873
0.029053
7.2404e-08
0.301356
0
6.96245e-06
0.0847974
-2.12934e-06
1.97558e-06
0.0177712
3.24262e-10
-9.40725e-06
-1.65081e-05
-3.36009e-07
-2.21714e-06
9.97197e-06
2.60005e-07
8.24418e-07
0.00267414
-1.07345e-08
1.51991e-05
9.74473e-07
0.0111344
-4.69272e-05
1.17759e-08
-3.53664e-10
-1.27101e-05
7.28921e-06
-2.20449e-05
1.11017e-05
6.19826e-05
-0.0257441
-1.44777e-07
0.0334018
0
0.0782532
0.765002
0.000155153
-0.0158678
0.0112471
0.42906
0.1292
-1.39256e-05
-1.12873e-07
0.773581
-0.0165333
-0.02669
-0.000187913
0.00237759
-0.000783301
0.0147684
0.00280282
0.00165447
0.148246
-0.0333978
0.000418539
0.740865
0.100437
1.04695e-07
0.785675
1.60366e-06
0.775859
-7.77334e-07
-3.48546e-07
5.30209e-07
0.626993
0.799873
5.14638e-08
8.91343e-07
0
0.78835
1.20507e-07
2.45743e-09
3.79593e-06
-0.0129521
0.00561472
-3.17561e-09
-0.000351422
-1.57924e-09
0.000820908
0.416681
-9.16119e-07
-8.7875e-09
0.00481914
0.000924739
-0.000336703
-8.43171e-07
0.821377
0.000713901
-4.85812e-09
0.501919
0.000346737
7.18627e-10
-2.27409e-06
1.04318e-08
0.00021419
0.182376
0.00354463
0.204834
-1.13214e-06
-1.02383e-05
-0.00529231
0.00513424
0.00945892
0.00323511
0.298659
0.000108207
0.00190445
6.88916e-05
-0.000309603
0.000429195
0.000274976
8.41321e-06
1.13562e-06
8.90923e-05
8.62121e-05
-0.00102185
2.96738e-05
1.22537e-07
-8.42117e-09
1.06582e-06
-0.00267479
-2.26088e-07
-5.38182e-08
-4.25691e-09
-0.0289231
8.00903e-06
3.62823e-07
-4.93603e-09
-0.00269648
-0.00123246
-6.60459e-07
0.556696
0.134644
0.404054
7.98058e-05
0.072552
-4.14254e-05
-8.50004e-07
0.470964
-1.99116e-10
6.46833e-10
-0.00122058
1.22682e-10
-4.97824e-08
1.5239e-05
-1.0305e-08
-9.44038e-06
-0.00137019
0.00138398
0.000267857
0.000715601
-0.000825515
-0.00356021
-1.51112e-07
1.70403e-08
-6.80167e-09
0.828713
-5.17131e-05
6.78227e-09
0
-3.49476e-09
0
0.000951977
0
-1.935e-08
-0.00122499
-1.47235e-09
6.26041e-10
0.000346884
-8.20876e-07
0.00145756
0.0016861
-4.74444e-09
0.544901
0.754741
3.37867e-05
0.472779
0
0.787882
0.151129
0.2993
0
3.59027e-08
0
0.827949
-0.000161503
0
0.187548
-3.33064e-05
0.000104147
0.0338442
1.07883e-05
7.71138e-07
-3.18616e-06
-0.00480508
-0.00369295
0.0033215
0.190778
0
-8.15971e-09
-0.000899967
-3.9658e-07
-2.56882e-06
-4.87652e-07
-6.79038e-05
-5.51134e-07
4.07581e-08
-0.000167701
0.00566346
2.73437e-08
-0.0100221
9.50804e-10
2.15071e-08
0.000128118
-0.00912347
1.11189e-09
0.00425359
0.000657752
-2.1515e-06
0
0.69815
0.750321
0.0327263
1.92437e-06
2.47649e-07
2.77349e-06
3.03825e-06
0.200842
0.29176
1.54036e-06
-1.01916e-06
0.135676
3.95979e-07
-8.16372e-05
-0.00334051
0.000389591
0
6.97413e-07
6.2802e-05
3.36721e-05
-1.38373e-08
-7.09552e-06
4.00629e-05
1.67462e-05
-7.98869e-07
0
0
0.000905202
8.88266e-06
8.7285e-06
-2.42185e-06
2.85134e-06
9.50286e-07
-8.47074e-05
-2.69706e-09
-2.64848e-07
0.615052
0.43101
-0.0078852
0
0
-2.32188e-07
0.000275885
0.807778
0.000513726
0.0240837
4.41326e-08
8.61092e-07
-5.42554e-09
6.8707e-08
0.0090342
2.82479e-07
1.34477e-06
-6.86902e-06
8.93097e-05
-0.00675141
-8.21134e-09
7.25044e-10
-0.0197132
-4.00713e-07
-2.6601e-07
1.40323e-06
-0.00657767
0.0323308
2.54082e-05
0.000649703
9.90529e-05
0.00878113
-0.00318057
5.70346e-05
0.0253618
0.00159524
2.83926e-06
-3.34282e-06
-8.79592e-05
7.34625e-07
-9.31334e-07
-0.00446715
-2.50262e-09
1.79712e-07
1.64111e-10
4.21638e-10
-9.02788e-08
-2.47978e-10
8.52491e-07
2.96534e-06
0
1.27608e-05
0.102263
6.95536e-08
3.70695e-05
1.00459e-05
-0.00208095
-7.94712e-09
0.00120379
0.829049
5.75516e-07
-9.39981e-10
0.000137522
0.00103242
0.0368049
-0.00465641
-0.00602563
8.18475e-07
-2.04309e-10
0
0.460242
6.18177e-07
0.000666125
5.4585e-09
0.018374
3.28592e-05
1.97331e-08
-2.76125e-07
2.95366e-07
7.92145e-09
-2.38294e-07
0.00338757
-0.00382436
0.00295347
0.000261816
0.000794443
0.0393507
0.00011873
0.19549
-1.73644e-08
0.682642
-9.82413e-09
0.503505
-8.42757e-10
0.197877
0.676047
0.527631
3.64125e-09
0.00205156
0.00391954
-3.00868e-06
-0.000407777
5.33473e-10
0.00480268
1.63751e-08
4.9176e-09
5.68777e-09
-3.80492e-07
-0.00195519
0.177962
0
2.17365e-09
-4.26263e-09
-7.04647e-09
-0.00585976
0.000107366
0.000616825
0.0034062
7.19296e-06
-1.13499e-05
-2.2267e-05
-1.16536e-06
-4.76122e-07
-8.33089e-08
-4.46383e-06
-9.05178e-07
-1.07383e-06
0
0
0
0
0.047769
-0.0177328
-0.00410005
0.00397724
-1.94654e-08
0.000479023
0.000287198
0.000728522
0.00330725
0.0894274
-0.00886507
4.19963e-10
0.0020358
8.98956e-10
1.13571e-06
-1.46808e-06
-0.000127215
-4.04564e-06
1.30107e-06
0.00199618
-0.000761265
6.36245e-05
-6.30583e-06
0.192365
0.387792
0.327284
1.03078e-05
4.05819e-05
-3.16758e-05
1.30447e-05
0.54305
0.581903
0.687543
-0.000928949
0.000304242
0.000934199
0.00549677
0.395402
0.240748
0.374272
0.443158
0.00123502
-0.000757598
0.00067375
-6.43659e-06
0.000165276
-8.28587e-05
0.000129958
-3.99108e-05
-1.13049e-09
-2.30514e-08
-7.60691e-08
1.62864e-05
0.0537049
0.00048479
0.010785
0.0278276
-0.0059116
-4.67201e-10
-0.00790205
4.41752e-05
0.00420284
-4.49543e-05
0.00144894
0.000769834
0.000833338
0.0286487
0
0.205094
3.85905e-05
0.000328673
0.000290701
0.0005592
0
0.11221
-3.23278e-05
-8.3585e-05
-7.76709e-05
2.33598e-05
-1.61134e-07
1.44131e-06
-1.21559e-07
4.26117e-06
9.98854e-07
-5.34465e-07
1.79127e-06
-0.00114665
-0.000289649
-0.000646812
-1.04065e-10
0.0600708
0.00888607
0.00769643
0.00791599
-0.000762381
0
-0.0134554
-2.15636e-05
-3.99081e-05
0
5.68361e-08
-2.33685e-07
7.33924e-07
0.776284
0
-0.000122799
0.158292
0.682001
-0.00408165
6.99186e-10
-0.0331557
-8.54445e-10
-1.08224e-07
4.22993e-07
2.80533e-07
0.0114192
0
3.4191e-06
8.92014e-07
8.14908e-07
0
-2.294e-10
0
-1.24584e-09
0.00546457
0.248466
-0.00483467
-4.55702e-05
0.0570063
0.0193209
0.009998
6.16259e-06
0.000264059
2.79082e-08
-2.42929e-08
2.18428e-07
-1.62641e-07
-1.78813e-05
-2.45555e-05
0
0.246063
0
0
0.00125467
-6.39354e-09
-0.000639636
0.0019368
0.000872558
4.07793e-05
-0.000706379
-1.47189e-05
7.12089e-07
-2.61354e-07
6.48873e-07
4.83286e-07
-7.13408e-07
1.80936e-06
7.38549e-06
0.168156
0.302119
6.28609e-08
5.62841e-06
2.09893e-06
4.69137e-09
-2.64081e-08
-5.36264e-09
-4.40899e-08
0.481636
0.177339
-4.07017e-05
6.73557e-05
-0.000100758
-2.48285e-05
5.26866e-07
3.19236e-07
-3.19389e-07
1.34376e-06
0.00652579
0.134152
0.0736417
-6.68009e-05
7.33828e-06
7.03448e-07
1.68055e-06
1.99341e-06
0.417965
0.612669
0.731292
0
-0.00238132
0.12788
0.198918
0.028537
0.0016605
6.74102e-06
-3.5377e-06
-2.6006e-06
-8.04612e-06
3.50815e-06
-6.42955e-06
2.03974e-05
-0.0168615
-0.00556229
0.0295457
0.0463453
-0.000390888
0.00239675
4.95221e-05
2.08931e-07
-3.59233e-06
3.80019e-06
7.50404e-06
1.06033e-05
2.39815e-06
5.5603e-06
0.45416
0.352102
1.34883e-06
0.01505
3.08029e-05
-0.000226923
0.0022159
0.19699
0.0503156
-6.69182e-10
0.00971946
-0.00427018
8.13334e-10
-0.000411581
0.000152199
6.32128e-06
2.62551e-05
0.000112342
-3.87692e-05
0.00226635
0.00158884
-2.21246e-05
8.59442e-06
-2.93583e-05
4.62126e-05
-5.68249e-05
0.000883073
0.00215786
1.91373e-05
0.00460342
-4.32541e-09
3.4139e-09
-1.15914e-08
0.120266
0.0302261
0
0
0
0
6.03721e-07
2.88823e-07
-4.37894e-06
0.670043
-3.5235e-07
3.94579e-07
-3.26408e-06
1.0244e-06
-2.42283e-08
3.63893e-08
1.65157e-07
-3.22736e-08
-1.1561e-07
0.00194889
0.00107367
0.00133441
0.00139595
0.00564105
3.63912e-07
-4.28111e-06
-0.00672903
1.83096e-07
4.76627e-06
8.75502e-06
0.607429
-0.000350523
9.33633e-08
-0.000870661
-4.93496e-09
5.22187e-08
-1.8098e-06
0.0734213
0.0275521
-6.39849e-05
-1.88933e-05
6.15042e-05
-0.0146495
3.16279e-10
3.48116e-08
1.60183e-10
5.29159e-10
-6.04345e-06
-2.55558e-06
-4.03373e-10
3.53798e-10
-4.0809e-09
-3.87026e-05
3.93321e-06
9.42738e-06
0.770791
5.84231e-08
-2.80249e-06
1.41291e-07
-6.73138e-08
0.00331246
0.000106615
0.215986
-6.13402e-07
-3.03629e-06
2.41453e-06
-2.52119e-07
3.68176e-08
-8.80399e-07
0.508477
0.472401
1.38456e-05
5.50097e-06
2.56443e-07
1.87904e-06
-0.00484819
0
-5.98325e-10
0.137541
0.0937889
0.0294086
5.64263e-05
0.00152066
-1.82323e-08
-7.84999e-08
0.000925367
3.27183e-05
5.61665e-06
-2.42776e-07
0
-0.0147658
0
0.00030667
-0.00784946
0.0228757
0.056198
0.808256
0.466693
1.06853e-05
2.18536e-06
-2.7513e-06
-0.0237049
-4.02651e-05
-2.91962e-05
-7.1948e-05
-5.89779e-05
-0.0125001
-0.000283256
-0.000750264
0.00115372
0
0
-6.3149e-10
4.8671e-10
-7.52733e-09
8.62183e-09
0.0151977
0
0.139795
0.296779
0
0.0195922
2.06495e-05
0.000962943
0.000598404
-2.03395e-06
-7.40393e-07
0.00077793
0.000183691
0.000163629
5.00322e-05
-3.26274e-08
-0.0496262
3.44932e-05
-0.000134236
0.000149238
0.0138706
-0.0102147
-0.00598512
-0.00462631
0.000524022
0.00834038
-0.000171529
-0.000109753
-7.37211e-05
-0.00424914
-0.0031052
-0.0178066
-2.93019e-05
-0.000423118
0.000216935
0
0.000265143
-7.34808e-05
0.00137037
0.00139641
2.42414e-05
4.82277e-06
-4.76792e-06
6.18404e-06
-2.13013e-06
3.45935e-05
-9.64656e-06
-4.73568e-06
2.98808e-05
-7.06875e-05
-8.9612e-05
6.46485e-06
6.06322e-06
-4.06584e-06
-2.46746e-06
-9.79444e-08
5.6082e-08
2.21203e-08
1.36264e-07
-6.76796e-07
-7.91192e-08
-4.03454e-06
-5.79417e-07
6.49983e-07
-7.55399e-05
0.00352541
0.00770102
0.010388
0.0268544
0.148915
0.149601
0.217044
0.341148
-2.10381e-08
2.13734e-08
7.97465e-10
-0.00683212
-0.000879167
-0.000323254
4.12691e-07
0.170734
0.826879
0.00595547
-0.00498908
0.0026938
0.000952465
0.000880542
0.000630294
0.661177
0.021197
0.196964
0.0780254
0.294095
-2.25882e-06
-1.95522e-05
-0.000185741
0
0
0.00210778
-0.00117302
0.00125568
-7.72265e-06
-2.12886e-07
2.41106e-07
0
-1.38666e-10
-7.04137e-10
-2.23358e-10
3.28433e-10
0.00991706
0.000819044
0.000907592
0.00239155
0.129795
0.160775
0.25278
0
0.179758
0.38293
0.650924
0.0924232
1.92467e-05
0.000433231
9.6647e-05
0
0.000366311
0.00273038
1.23924e-08
1.9896e-07
2.0929e-07
0.101924
0.609178
0.190127
0.215847
0.282835
-0.00210016
0.000102557
-3.99214e-07
2.05589e-06
5.35667e-06
0.000215766
8.44925e-05
-9.20385e-06
0.00381051
-0.0024206
-1.14285e-09
-3.41609e-06
3.09013e-06
-0.000739771
-0.00333723
0.00254321
0.0023505
-0.000118346
-4.49737e-05
-3.83981e-06
-1.70089e-10
0.550542
0.657338
0.761043
0.818099
0.821997
0
0.752854
-7.7859e-07
-5.27569e-09
1.46341e-08
-1.76337e-07
-3.76942e-07
-4.85017e-06
-8.34751e-09
6.63467e-07
-4.41276e-06
-7.53715e-07
0.0040542
0.339965
0.696878
0.536319
-3.6397e-06
0.000385613
3.20741e-05
0.00689045
9.83531e-05
0.000102453
0.00116235
0.00109137
0.00178826
0.230606
0.00648631
0.0753078
0.10146
0.560605
0.327128
3.60036e-05
0.328319
1.75195e-05
0.00116334
-0.00323479
0.00144231
-0.00388902
0.000984583
-0.0017917
0.000410525
3.94189e-08
4.17024e-09
3.54355e-08
3.93292e-08
0
0
0
0.0796027
0.638481
-3.85743e-09
1.80127e-08
6.6049e-08
3.61078e-08
-6.46606e-08
1.30795e-07
-0.000444278
-1.46762e-05
-8.77613e-05
-4.02838e-05
2.81559e-05
-4.5462e-07
6.1084e-08
2.5693e-08
-3.90548e-08
7.3667e-08
0.00245689
0.00353686
0.004507
-0.00828071
1.89545e-05
0.00995218
-0.00311129
4.69344e-05
-4.7843e-08
2.48343e-05
0.00859876
0.0186473
6.33869e-10
-0.000871802
-0.00287718
0.842336
0.825282
3.43085e-10
0.00015306
-1.74582e-06
-0.000604092
-9.76042e-05
0.000168151
-0.00164983
-0.00473037
0
0
0
0
3.78021e-06
2.53272e-05
-3.90845e-05
-0.00727782
0.0187242
3.72957e-07
1.08558e-06
3.69368e-07
0
0
0
0
0
0
0.0174634
-0.0274653
-2.38909e-07
-1.01766e-08
-5.87125e-08
-5.13176e-08
-6.51848e-07
6.23803e-07
2.84389e-06
-7.27307e-06
-9.83633e-06
-2.47027e-08
-4.95898e-09
0.786088
0.876056
3.28778e-05
0.000176235
0.000117111
0.000223241
0.000182933
0.000438147
0.00506481
0.00950171
0.0369249
2.23044e-05
1.53205e-05
-7.10392e-06
6.47766e-06
-0.00111291
0.00203775
0.000680456
0.00166656
0.000583825
2.25545e-05
2.76814e-06
7.01791e-06
0.00918972
0.00183336
0.0186859
6.32835e-05
-4.24741e-05
0.0219857
-8.97936e-07