# vtk DataFile Version 2.0
Unstructured Grid by M++
ASCII
DATASET UNSTRUCTURED_GRID
POINTS 4072 float
  0.875000   1.000000 0
  0.875000   0.984375 0
  0.875000   0.968750 0
  0.875000   0.953125 0
  0.875000   0.937500 0
  0.875000   0.921875 0
  0.875000   0.906250 0
  0.875000   0.890625 0
  0.875000   0.875000 0
  0.875000   0.859375 0
  0.875000   0.843750 0
  0.875000   0.828125 0
  0.875000   0.812500 0
  0.875000   0.796875 0
  0.875000   0.781250 0
  0.875000   0.765625 0
  0.859375   1.000000 0
  0.859375   0.984375 0
  0.859375   0.968750 0
  0.859375   0.953125 0
  0.859375   0.937500 0
  0.859375   0.921875 0
  0.859375   0.890625 0
  0.859375   0.875000 0
  0.859375   0.859375 0
  0.859375   0.843750 0
  0.859375   0.828125 0
  0.859375   0.812500 0
  0.859375   0.796875 0
  0.859375   0.781250 0
  0.859375   0.765625 0
  0.859375   0.671875 0
  0.859375   0.656250 0
  0.859375   0.640625 0
  0.843750   1.000000 0
  0.843750   0.984375 0
  0.843750   0.968750 0
  0.843750   0.953125 0
  0.843750   0.937500 0
  0.843750   0.921875 0
  0.843750   0.906250 0
  0.843750   0.875000 0
  0.843750   0.859375 0
  0.843750   0.843750 0
  0.843750   0.828125 0
  0.843750   0.812500 0
  0.843750   0.796875 0
  0.843750   0.781250 0
  0.843750   0.765625 0
  0.843750   0.671875 0
  0.843750   0.656250 0
  0.843750   0.640625 0
  0.828125   1.000000 0
  0.828125   0.984375 0
  0.828125   0.968750 0
  0.828125   0.953125 0
  0.828125   0.937500 0
  0.828125   0.921875 0
  0.875000   0.671875 0
  0.812500   0.921875 0
  0.890625   0.656250 0
  0.828125   0.906250 0
  0.875000   0.656250 0
  0.812500   0.906250 0
  0.890625   0.640625 0
  0.828125   0.890625 0
  0.875000   0.640625 0
  0.812500   0.890625 0
  0.890625   0.625000 0
  0.828125   0.875000 0
  0.890625   0.609375 0
  0.828125   0.859375 0
  0.890625   0.593750 0
  0.828125   0.843750 0
  0.890625   0.578125 0
  0.828125   0.828125 0
  0.890625   0.562500 0
  0.828125   0.812500 0
  0.828125   0.796875 0
  0.828125   0.781250 0
  0.828125   0.765625 0
  0.828125   0.671875 0
  0.828125   0.656250 0
  0.828125   0.640625 0
  0.875000   0.750000 0
  0.812500   1.000000 0
  0.875000   0.625000 0
  0.812500   0.875000 0
  0.875000   0.734375 0
  0.812500   0.984375 0
  0.875000   0.718750 0
  0.812500   0.968750 0
  0.875000   0.703125 0
  0.812500   0.953125 0
  0.875000   0.687500 0
  0.812500   0.937500 0
  0.875000   0.609375 0
  0.812500   0.859375 0
  0.875000   0.593750 0
  0.812500   0.843750 0
  0.875000   0.578125 0
  0.812500   0.828125 0
  0.812500   0.812500 0
  0.875000   0.546875 0
  0.812500   0.796875 0
  0.812500   0.781250 0
  0.812500   0.765625 0
  0.859375   0.750000 0
  0.796875   1.000000 0
  0.859375   0.625000 0
  0.796875   0.875000 0
  0.859375   0.734375 0
  0.796875   0.984375 0
  0.859375   0.718750 0
  0.796875   0.968750 0
  0.859375   0.703125 0
  0.796875   0.953125 0
  0.859375   0.687500 0
  0.796875   0.937500 0
  0.859375   0.609375 0
  0.796875   0.859375 0
  0.859375   0.593750 0
  0.796875   0.843750 0
  0.859375   0.578125 0
  0.796875   0.828125 0
  0.859375   0.562500 0
  0.796875   0.812500 0
  0.796875   0.796875 0
  0.859375   0.531250 0
  0.796875   0.781250 0
  0.796875   0.765625 0
  0.843750   0.750000 0
  0.781250   1.000000 0
  0.843750   0.625000 0
  0.781250   0.875000 0
  0.843750   0.734375 0
  0.781250   0.984375 0
  0.843750   0.718750 0
  0.781250   0.968750 0
  0.843750   0.703125 0
  0.781250   0.953125 0
  0.843750   0.687500 0
  0.781250   0.937500 0
  0.843750   0.609375 0
  0.781250   0.859375 0
  0.843750   0.593750 0
  0.781250   0.843750 0
  0.843750   0.578125 0
  0.781250   0.828125 0
  0.781250   0.812500 0
  0.843750   0.546875 0
  0.781250   0.796875 0
  0.781250   0.781250 0
  0.843750   0.515625 0
  0.781250   0.765625 0
  0.828125   0.750000 0
  0.765625   1.000000 0
  0.828125   0.625000 0
  0.765625   0.875000 0
  0.828125   0.734375 0
  0.765625   0.984375 0
  0.828125   0.718750 0
  0.765625   0.968750 0
  0.828125   0.703125 0
  0.765625   0.953125 0
  0.828125   0.687500 0
  0.765625   0.937500 0
  0.828125   0.609375 0
  0.765625   0.859375 0
  0.828125   0.593750 0
  0.765625   0.843750 0
  0.828125   0.578125 0
  0.765625   0.828125 0
  0.828125   0.562500 0
  0.765625   0.812500 0
  0.765625   0.796875 0
  0.828125   0.531250 0
  0.765625   0.781250 0
  0.765625   0.765625 0
  0.812500   0.750000 0
  0.750000   1.000000 0
  0.953125   1.000000 0
  0.812500   0.734375 0
  0.750000   0.984375 0
  0.812500   0.718750 0
  0.750000   0.968750 0
  0.812500   0.703125 0
  0.750000   0.953125 0
  0.812500   0.687500 0
  0.750000   0.937500 0
  0.812500   0.671875 0
  0.750000   0.921875 0
  0.812500   0.656250 0
  0.750000   0.906250 0
  0.812500   0.640625 0
  0.750000   0.890625 0
  0.812500   0.625000 0
  0.750000   0.875000 0
  0.812500   0.609375 0
  0.750000   0.859375 0
  0.812500   0.593750 0
  0.750000   0.843750 0
  0.812500   0.578125 0
  0.750000   0.828125 0
  0.750000   0.812500 0
  0.812500   0.546875 0
  0.750000   0.796875 0
  0.750000   0.781250 0
  0.812500   0.515625 0
  0.750000   0.765625 0
  0.796875   0.750000 0
  0.734375   1.000000 0
  0.796875   0.734375 0
  0.734375   0.984375 0
  0.796875   0.718750 0
  0.734375   0.968750 0
  0.796875   0.703125 0
  0.734375   0.953125 0
  0.796875   0.687500 0
  0.734375   0.937500 0
  0.796875   0.671875 0
  0.734375   0.921875 0
  0.796875   0.656250 0
  0.734375   0.906250 0
  0.796875   0.640625 0
  0.734375   0.890625 0
  0.796875   0.625000 0
  0.734375   0.875000 0
  0.796875   0.609375 0
  0.734375   0.859375 0
  0.796875   0.593750 0
  0.734375   0.843750 0
  0.796875   0.578125 0
  0.734375   0.828125 0
  0.734375   0.812500 0
  0.734375   0.796875 0
  0.796875   0.531250 0
  0.734375   0.781250 0
  0.734375   0.765625 0
  0.781250   0.750000 0
  0.718750   1.000000 0
  0.921875   1.000000 0
  0.781250   0.734375 0
  0.718750   0.984375 0
  0.781250   0.718750 0
  0.718750   0.968750 0
  0.781250   0.703125 0
  0.718750   0.953125 0
  0.859375   0.906250 0
  0.781250   0.687500 0
  0.718750   0.937500 0
  0.781250   0.671875 0
  0.718750   0.921875 0
  0.781250   0.656250 0
  0.718750   0.906250 0
  0.781250   0.640625 0
  0.718750   0.890625 0
  0.781250   0.625000 0
  0.718750   0.875000 0
  0.781250   0.609375 0
  0.718750   0.859375 0
  0.781250   0.593750 0
  0.718750   0.843750 0
  0.781250   0.578125 0
  0.718750   0.828125 0
  0.781250   0.562500 0
  0.718750   0.812500 0
  0.781250   0.546875 0
  0.718750   0.796875 0
  0.781250   0.531250 0
  0.718750   0.781250 0
  0.781250   0.515625 0
  0.718750   0.765625 0
  0.765625   0.750000 0
  0.703125   1.000000 0
  0.765625   0.734375 0
  0.703125   0.984375 0
  0.765625   0.718750 0
  0.703125   0.968750 0
  0.765625   0.703125 0
  0.703125   0.953125 0
  0.765625   0.687500 0
  0.703125   0.937500 0
  0.843750   0.890625 0
  0.703125   0.921875 0
  0.765625   0.656250 0
  0.703125   0.906250 0
  0.765625   0.640625 0
  0.703125   0.890625 0
  0.765625   0.625000 0
  0.703125   0.875000 0
  0.765625   0.609375 0
  0.703125   0.859375 0
  0.765625   0.593750 0
  0.703125   0.843750 0
  0.765625   0.578125 0
  0.703125   0.828125 0
  0.765625   0.562500 0
  0.703125   0.812500 0
  0.765625   0.546875 0
  0.703125   0.796875 0
  0.765625   0.531250 0
  0.703125   0.781250 0
  0.765625   0.515625 0
  0.703125   0.765625 0
  0.750000   0.750000 0
  0.687500   1.000000 0
  0.890625   1.000000 0
  0.750000   0.734375 0
  0.687500   0.984375 0
  0.750000   0.718750 0
  0.687500   0.968750 0
  0.578125   0.796875 0
  0.578125   0.781250 0
  0.578125   0.765625 0
  0.546875   0.953125 0
  0.546875   0.968750 0
  0.546875   0.718750 0
  0.546875   0.687500 0
  0.250000   0.609375 0
  0.937500   0.031250 0
  0.046875   0.703125 0
  0.734375   0.062500 0
  0.734375   0.078125 0
  0.734375   0.046875 0
  0.046875   0.593750 0
  0.046875   0.562500 0
  0.046875   0.531250 0
  0.718750   0.156250 0
  0.046875   0.609375 0
  0.734375   0.031250 0
  0.062500   0.609375 0
  0.234375   0.703125 0
  0.718750   0.125000 0
  0.046875   0.578125 0
  0.734375   0.000000 0
  0.062500   0.578125 0
  0.000000   0.828125 0
  0.234375   0.671875 0
  0.234375   0.625000 0
  0.718750   0.093750 0
  0.687500   0.156250 0
  0.062500   0.546875 0
  0.000000   0.796875 0
  0.718750   0.046875 0
  0.031250   0.687500 0
  0.687500   0.171875 0
  0.500000   1.000000 0
  0.078125   0.218750 0
  0.234375   0.593750 0
  0.718750   0.062500 0
  0.687500   0.125000 0
  0.000000   0.765625 0
  0.421875   0.500000 0
  0.031250   0.593750 0
  0.718750   0.015625 0
  0.687500   0.234375 0
  0.015625   0.812500 0
  0.703125   0.171875 0
  0.703125   0.187500 0
  0.703125   0.140625 0
  0.015625   0.781250 0
  0.437500   0.515625 0
  0.500000   0.796875 0
  0.078125   0.015625 0
  0.687500   0.203125 0
  0.250000   0.578125 0
  0.703125   0.109375 0
  0.000000   0.515625 0
  0.500000   0.765625 0
  0.062500   0.593750 0
  0.750000   0.015625 0
  0.015625   0.843750 0
  0.687500   0.000000 0
  0.500000   0.828125 0
  0.078125   0.046875 0
  0.015625   0.531250 0
  0.250000   0.546875 0
  0.703125   0.078125 0
  0.703125   0.031250 0
  0.015625   0.671875 0
  0.250000   0.515625 0
  0.000000   0.656250 0
  0.500000   0.906250 0
  0.078125   0.125000 0
  0.687500   0.015625 0
  0.031250   0.546875 0
  0.687500   0.031250 0
  0.500000   0.859375 0
  0.703125   0.000000 0
  0.703125   0.046875 0
  0.703125   0.015625 0
  0.500000   0.937500 0
  0.234375   0.531250 0
  0.031250   0.578125 0
  0.687500   0.062500 0
  0.500000   0.890625 0
  0.031250   0.796875 0
  0.453125   0.531250 0
  0.500000   0.968750 0
  0.078125   0.187500 0
  0.234375   0.562500 0
  0.031250   0.609375 0
  0.718750   0.031250 0
  0.687500   0.093750 0
  0.750000   0.046875 0
  0.000000   0.937500 0
  0.421875   0.671875 0
  0.718750   0.187500 0
  0.031250   0.828125 0
  0.765625   0.062500 0
  0.015625   0.953125 0
[...]
CELL_DATA 7648
SCALARS scalar_value float 1
LOOKUP_TABLE default
-1.19028e-08
-6.2135e-09
5.31558e-09
-6.92284e-09
9.24155e-07
3.36743e-07
-8.76405e-08
0.00227072
-0.0101625
0.00426779
0.00619517
-1.06044e-08
-5.33782e-07
6.13996e-08
-1.53407e-07
-0.00400485
0.0297343
0.056496
0.00120238
0
-0.0113622
0.0173944
0.512223
1.13274e-05
0.518856
0.00144685
0.00264825
0.0413189
0.00158578
0.756679
0.0340041
0.00158175
0.0083588
3.67823e-08
1.27664e-06
-9.40322e-07
-1.06664e-08
-4.58994e-06
0.00307477
-0.00445884
1.4918e-06
-0.00201413
0.00170703
1.60657e-06
4.52395e-09
-4.46795e-05
0.000240954
0.000186369
-8.04241e-05
0.000365551
2.00342e-06
1.02835e-05
-5.02218e-09
1.22063e-08
0.00503473
0.0659858
0.0774136
-0.017926
0.00348538
-1.04423e-07
2.3854e-08
-0.000913115
1.51579e-06
0.00113845
-0.000734758
8.97459e-05
0.0456102
5.19082e-09
0.00241689
-5.69059e-08
-4.58393e-09
-6.90621e-08
0
0
-1.04464e-07
0.579587
0.815825
0.589987
0.651446
-0.00349448
1.3321e-05
0.753335
0.398227
0.000649542
0
-5.95862e-07
7.0421e-08
-0.00181995
0.0880056
0.072768
0.000326324
0.00521259
2.87742e-06
-6.79503e-06
7.91886e-06
6.31243e-06
-1.08437e-10
1.37434e-07
1.45479e-05
0.000192504
0.000308506
-3.31322e-08
-5.08892e-08
-1.84923e-08
0.132399
-3.9339e-10
2.09441e-05
0.000164149
0.265741
0.548912
-3.59781e-05
-4.04069e-05
0.0612846
-0.0142917
4.01786e-05
0.000209097
0.00482635
1.0132e-05
-1.02487e-05
1.3218e-05
5.48922e-06
0.00080188
1.22214e-05
1.94129e-07
0
6.3352e-08
-1.60261e-08
0.330719
0.246394
0.269268
0.436775
-4.75366e-07
-0.000716121
0.0106295
-2.38986e-07
-2.02977e-08
-0.0262411
0.383537
-0.0509117
0.675313
-2.40213e-08
0
7.24552e-07
3.71156e-08
-0.0201839
1.01351e-06
0
4.24356e-05
0
-0.000888656
-5.11021e-09
1.94843e-09
0.00219794
-4.30538e-06
-0.00594118
-2.04827e-07
-2.75026e-09
0.00396896
-0.000262031
0.00230412
0.00533665
0.000736803
-1.52762e-08
0
0.000901167
0.00121839
2.37682e-10
-8.05143e-09
8.60579e-10
0.00235677
-6.94955e-09
0.00109551
0
0
3.11711e-05
-0.00787364
0.245259
0
1.01807e-06
0.000563683
-0.000109246
7.6894e-06
1.76651e-05
-2.5041e-06
-8.42682e-08
-1.01454e-05
-5.85472e-05
0.000550353
8.3052e-07
-0.000258871
-0.00124346
-7.43239e-06
5.36873e-06
0
-1.19005e-10
5.74007e-07
3.54455e-06
0.00219353
7.5274e-09
2.02841e-10
7.93012e-07
1.10862e-05
0.00113004
-0.000265924
0.000176166
1.35427e-05
0.00558235
0.00445553
9.51796e-06
-1.143e-07
-3.03763e-07
4.84799e-06
0.00422248
-0.00157235
0.0019427
0.0208181
-0.00500483
0.0154676
-0.0481833
-0.0761886
0.0089956
-1.22718e-06
1.00075e-09
0.00560078
-3.37778e-06
0.00145103
-2.40416e-08
-1.51973e-05
2.11244e-07
0.226546
0.244368
0.765263
0.722267
0.000479217
-0.000172528
-0.00478034
0.00220595
0.00533458
3.3908e-08
0.0120951
1.11395e-10
4.88193e-05
-0.0354066
0.130809
-0.0122302
0
-2.60993e-09
4.71788e-09
2.9582e-10
0.00155583
-0.0008844
0.000411633
-3.81004e-06
0.00126005
-0.000127516
0
2.8613e-07
1.79385e-06
-2.06468e-07
0.000200221
-2.18896e-08
-3.23641e-08
1.35268e-05
-0.000612082
0.000213357
0.146597
0.56739
-5.64352e-07
1.45042e-07
0.0335828
0.352278
0
0.694722
0.397307
0.574256
-6.88452e-05
-0.000105087
0.000112642
0.0057703
-0.00705383
5.32472e-05
0.00327017
0.0589628
0.045434
6.13423e-05
-5.58187e-05
0.000203462
0.00660701
-0.0172129
0.00179175
0.000253006
0.000204681
4.75392e-05
0.00343185
0.0104671
-0.00880911
0.0412713
0.00984891
0.197009
0.00112372
0.00140413
0.00649332
0.00200032
0.295474
0.142643
0.0377293
-2.11397e-06
0.564435
0.55209
0.311901
0
0.213182
8.44989e-05
0.0744285
-0.0055957
0.000548794
0.00507101
0.667979
0.685706
0.565015
2.66129e-07
2.21886e-06
1.76835e-07
4.01562e-06
0
0.214362
0.000183138
-0.000163254
-0.000162847
-8.34393e-05
-0.00284988
0.00242131
-6.83469e-10
-0.00101454
-0.00865979
5.94298e-07
-4.05532e-09
-2.02047e-06
-2.92557e-07
-1.40977e-06
0.000481549
0.11007
-0.00152771
-2.42603e-05
7.63899e-06
-0.00789055
0.0654489
0.184409
4.5148e-08
2.56098e-10
-5.12416e-09
-0.0492929
0.00268368
-0.0602873
-0.0126333
-4.25431e-09
5.05039e-07
2.50677e-05
0.0358314
-0.00829059
0.000247419
-1.73563e-06
0.795136
0
0.00555626
0.0109233
0.0214986
0.0988225
0.439323
0.00629913
0.126197
0
-4.03304e-08
0.451797
0.169065
0.506735
-0.000596821
-0.00448659
-0.0159213
0.00208962
-0.00145574
1.44806e-06
-0.00530693
0.00818194
0.00879788
5.40571e-05
-1.14666e-07
-0.00435506
0.000389506
-0.000934497
0.000922987
5.37332e-05
-0.00181428
-0.00234151
-0.00128297
0.00531875
-0.00760121
-0.0035393
0.00459421
-0.00283001
0.00249401
2.32884e-06
1.32289e-05
1.3354e-05
-4.10693e-05
4.79188e-10
-0.00597044
0.0261321
-0.00787051
-1.65475e-05
-4.73207e-08
-0.0124856
0
-0.0125879
-0.0188643
2.42603e-06
6.17622e-09
0.000203032
0.00261929
0.00534184
-0.00349139
0.00135512
-8.873e-05
0.602046
-2.81877e-08
0.00988116
-0.00206117
-0.0013136
0.00122179
-1.71741e-07
-1.61264e-06
0.129583
0
0.791557
0.659233
-0.000117782
2.45097e-06
-1.49275e-09
4.54142e-10
-6.04534e-09
-4.61499e-07
1.01811e-05
-0.006129
-0.000389814
0
0
0.23617
-5.76509e-07
1.75842e-10
-4.13416e-08
0
0.00192764
-9.20846e-05
-2.34525e-08
1.54177e-05
-5.09316e-06
-4.06029e-09
0.189162
4.10044e-05
0.0926067
0.241499
6.63625e-06
0.000125807
5.64276e-05
-0.00635569
-2.76778e-09
1.37994e-05
0.000992431
1.13442e-06
-2.22469e-08
0.498401
-0.00148539
0.00184713
0
-1.30203e-05
0.0394055
1.00777e-06
0
6.22642e-06
2.92279e-07
-1.8802e-10
-0.000990449
0.00777551
-0.00195528
3.81558e-06
7.84335e-06
1.05274e-10
3.87267e-06
-4.45116e-08
0.720268
-2.69584e-06
-3.48104e-08
-6.76946e-10
8.78038e-07
-4.40738e-08
0.00118163
-1.08253e-05
8.91788e-06
3.16915e-05
-3.82365e-09
-0.00775909
-4.85117e-06
9.34565e-05
8.19106e-05
1.75192e-05
-2.6897e-06
3.9325e-05
2.34775e-05
0.000875059
9.00428e-05
0.000408532
0.000105315
-2.25746e-05
0
0.820588
0.764515
0
-0.00445204
0.0175604
6.7687e-05
-3.92975e-09
0.334131
0
-9.20775e-06
7.43144e-06
-9.33694e-07
-1.77116e-09
0
0.610478
0.0947456
0
3.10993e-06
1.49767e-05
-0.00342084
-0.00221741
0
-2.54654e-07
0
-0.0001162
-0.00253683
-6.46955e-08
-1.1696e-09
0.00476263
-1.41953e-05
3.52341e-05
0.469447
0.348784
2.08282e-07
0.0271374
-0.00419292
-0.00128149
0.0948422
-0.00290793
0.00333204
0.169823
-0.0106085
7.32254e-08
0.00242475
-0.000921626
0.0102178
-3.00205e-07
0.037838
-0.00291851
0.000887301
-0.000492645
0.000747483
-0.000836869
0.00290269
-0.000313263
-2.67502e-08
1.28899e-09
0.0115195
-2.49818e-07
-0.0195747
0.0124628
-0.0224363
-0.00246324
1.27346e-10
0.045935
-1.40036e-10
0.0787791
0.752416
0.737903
0.00387785
-2.64215e-06
0.305712
0.426612
-0.000106479
0.818407
-4.32717e-06
1.74675e-06
4.52814e-06
-0.000624604
-1.70821e-07
0
0
0.204575
-6.24089e-08
0.0466775
0.770612
2.57543e-09
3.32375e-05
0.000221556
0.000790278
-1.59104e-05
0.00179551
0
6.31722e-07
-0.000998609
0.000361179
0.00105785
0.476388
0
0.0492625
0.000102474
-0.00620463
0.00123923
0.00853741
0.0301947
0.72234
-4.5175e-05
0.00308725
0.372864
-0.0071538
0.340859
-0.0064694
0.00210567
-0.00320378
0.000540476
-0.00885089
-0.00139394
1.51159e-06
1.47632e-05
-0.00153748
3.03909e-05
1.67678e-07
0.451308
5.63179e-06
-1.37544e-05
0.00287209
-3.17574e-05
0.25319
-9.92495e-06
-5.88115e-08
0.49692
-8.02792e-05
-2.03701e-05
0.361795
0.0412008
-7.6479e-05
0.10634
1.32737e-06
0.000186205
0.041271
0.0021715
7.62673e-05
0.00106299
0.25489
2.3979e-06
0.00130444
-2.98684e-09
0.699139
4.01518e-07
0.0302255
0.0271449
0.507986
0.0470805
8.57523e-07
0.00139592
0.000912158
0.0626771
0.22708
0
-1.3495e-05
0.000564606
-0.0019791
-0.000723843
0.0360571
0.00123272
0
0.0082515
-0.00374247
0.755969
0.434909
1.94836e-09
0.000553953
-1.88347e-05
0.0412927
7.70222e-05
-2.45652e-05
0.492338
-1.07337e-08
-1.54332e-08
0.00339554
0.18492
0.000571806
0.00374459
3.59243e-08
-1.23228e-06
9.51568e-10
0.0030391
1.37062e-09
0.0380597
0.00115895
0.029282
-6.39318e-10
3.07271e-09
9.20204e-10
1.18631e-06
0.00710721
0.126721
0.0226215
-0.0254494
0.0837338
-0.00673691
0.00767314
-0.00484384
0.296283
0.0225569
2.46125e-06
0.0359405
0.0222315
-2.46481e-05
0.0073734
2.88041e-08
0.127723
0.756559
0.518438
0.47752
0.119612
2.23951e-05
-1.93574e-05
1.4026e-08
-3.48907e-05
0
1.51884e-05
-3.18023e-10
-3.37726e-06
-1.3177e-05
-2.77266e-05
-0.00341771
-0.00126039
1.34367e-05
2.97415e-10
0.414738
-1.71078e-05
0.624888
0.00689447
0
0.122798
0
0.00848422
-0.000154038
1.92633e-06
-2.01358e-07
0.000401715
-9.43728e-07
-0.00754346
0.0569388
3.84797e-08
0.346465
0
2.32159e-06
0.129735
-2.01557e-06
1.79233e-06
0.00937419
2.42121e-09
-7.96399e-06
-1.40903e-05
-3.53305e-07
2.18635e-07
1.02526e-05
1.34673e-07
9.1165e-07
0.00230997
-9.91161e-09
7.54838e-06
7.12025e-07
0.00555922
-4.15173e-05
-5.14769e-09
-1.93226e-10
-1.05091e-05
-8.76584e-06
-2.02873e-05
7.31539e-06
4.66246e-05
-0.0234164
-6.39172e-08
0.0186307
0
0.0929948
0.789678
9.02417e-05
-0.0125163
0.0139359
0.522766
0.189593
-1.47265e-05
-4.72046e-08
0.735541
-0.0201604
-0.0274552
-0.000314757
0.00291265
0.00521352
0.014464
0.00250875
0.000800749
0.177872
-0.0296292
0.000291728
0.67232
0.0623729
4.46071e-08
0.780926
8.61102e-07
0.721836
-4.39071e-07
-1.80802e-07
2.64141e-07
0.70428
0.808591
2.38321e-08
3.9605e-07
0
0.788116
5.73485e-08
1.20995e-09
0.000102167
-0.0158899
0.00547833
-2.01653e-09
-0.0002641
-8.29497e-10
-0.000357276
0.514161
-6.56117e-07
-4.5928e-08
0.00321538
0.000765951
-0.000228351
-3.85492e-07
0.781879
0.000609272
-3.17588e-09
0.590659
0.000248594
5.65001e-10
-7.30262e-07
4.75296e-09
0.000131098
0.14045
0.00403338
0.195258
-7.26497e-06
-6.03586e-06
-0.0052278
0.00509943
0.00690209
-0.000772799
0.387654
0.000115877
-0.000512507
5.93212e-05
-0.000231268
0.000400493
0.000311455
8.5645e-06
-1.70099e-06
5.54057e-05
8.95956e-05
-0.00091623
2.50469e-05
1.21379e-07
-4.57065e-09
5.30929e-07
-0.00240355
-1.48485e-07
-1.55346e-07
-1.87026e-09
-0.0383635
7.04694e-06
1.41063e-07
-5.0557e-09
-0.00399635
-0.0013387
-4.94576e-07
0.463562
0.167302
0.352604
6.89012e-05
0.0447084
-2.97928e-05
-9.34416e-07
0.374513
-1.66388e-10
3.20544e-10
-0.00113443
0
-2.91534e-08
0.00151109
-6.17576e-09
-6.89414e-06
-0.000852075
0.00180827
0.000458071
0.000539842
-0.000987906
-0.0030026
-7.3718e-08
1.04453e-08
-3.16916e-09
0.819705
-3.69558e-05
6.30585e-09
0
-1.58884e-09
0
0.000869796
0
-1.24576e-08
-0.0012701
-1.92524e-09
3.30892e-09
0.000246759
-5.42184e-07
0.0013646
0.00167747
-3.01552e-09
0.637023
0.804299
3.02489e-05
0.57077
0
0.830395
0.118515
0.253123
0
1.56963e-07
0
0.831884
-0.000165577
0
0.127809
-2.92948e-05
9.14769e-05
0.0192018
8.40613e-06
6.9972e-06
-3.22288e-06
-0.00871116
-0.0021073
0.00438715
0.240367
0
-7.37828e-09
-0.00552639
-5.27584e-07
-1.87517e-06
-1.41347e-07
-3.3222e-05
-5.71487e-07
2.98181e-08
-9.84229e-05
0.00593499
1.26818e-08
-0.0108937
4.85655e-10
1.50284e-08
0.000131856
-0.00983344
9.52604e-10
0.00439219
0.000568256
-9.57222e-05
0
0.773032
0.776724
0.0184833
1.58214e-06
-4.98562e-07
1.90817e-06
3.01762e-06
0.273413
0.384349
5.75245e-07
-8.6904e-07
0.195653
1.44437e-07
-4.92617e-05
-0.00187801
0.000168012
0
7.24457e-07
5.38693e-05
2.71364e-05
-7.8073e-09
-6.98165e-06
2.17846e-05
4.49157e-05
-2.14398e-05
0
0
0.000751155
-0.000102524
3.64926e-06
-1.33212e-06
1.39517e-06
6.66758e-07
-7.95689e-05
-6.05125e-09
-3.90103e-07
0.522649
0.336821
-0.00334809
0
0
-1.2308e-07
0.000486396
0.760731
0.000497267
0.0143116
2.17758e-08
6.35694e-07
-8.52077e-08
3.3079e-08
0.00720541
4.33873e-08
6.18204e-07
-3.39757e-06
9.15967e-05
-0.006052
-6.79851e-09
4.93074e-10
-0.0208739
-2.01608e-06
-9.86147e-07
4.89708e-07
-0.00571941
0.0364663
2.64615e-06
0.00070789
8.76605e-05
0.0107656
-0.0045566
4.97537e-05
0.0532529
0.00125913
2.49096e-06
-6.27268e-07
-9.7077e-05
1.311e-07
-1.32125e-06
-0.00326727
-1.19096e-09
5.60106e-07
0
2.03728e-10
1.05092e-07
-1.2075e-10
7.77398e-07
2.5319e-06
0
7.16399e-06
0.0681389
-3.7565e-07
2.06417e-05
1.03977e-05
-0.00249535
-8.91084e-09
1.80966e-05
0.819025
-3.55101e-07
-5.88939e-10
0.000123069
0.000471163
0.0531032
-0.00706835
-0.00505493
-1.2964e-06
-1.58235e-07
0
0.548651
9.14448e-07
0.0062754
3.0619e-09
0.0343802
2.19623e-05
-8.05157e-08
-7.17989e-07
2.67486e-07
4.87549e-09
-1.46758e-07
0.00399551
-0.00257087
0.00346621
0.000609152
0.00108288
0.0247058
0.00010455
0.161883
-1.77924e-08
0.749495
-5.43346e-09
0.478499
-2.40529e-10
0.203193
0.729125
0.582234
2.9711e-09
0.00262978
0.00372939
-2.41381e-06
-0.000339728
3.01264e-10
0.00353494
5.83167e-08
2.56971e-09
1.70038e-09
-2.52174e-07
-0.00140242
0.198962
0
1.19591e-09
-2.52844e-09
-4.65891e-09
-0.00469336
6.68262e-05
0.000256344
0.00162236
1.35585e-05
-2.8742e-06
-1.2576e-05
-1.18577e-06
-5.18473e-07
-3.78321e-07
-2.65827e-06
-3.9594e-07
-5.43106e-07
0
0
0
0
0.0686401
-0.0201544
-0.00624806
0.00525882
-9.33332e-09
0.000360535
0.000177848
0.000512833
0.00164091
0.146747
-0.0114683
3.6081e-10
0.00150966
6.18669e-10
8.67068e-07
-6.01139e-07
-0.000104207
-2.91158e-06
1.39848e-06
0.00169418
-0.00104766
1.99733e-05
-6.45136e-06
0.131239
0.296979
0.244059
6.20224e-06
2.41546e-05
-1.90657e-05
8.51097e-06
0.445792
0.486091
0.602657
-0.000960893
0.00020124
0.000255266
0.00291572
0.304463
0.170516
0.284812
0.350047
0.00101198
-0.000737501
0.000444093
-4.42324e-05
9.86943e-05
-8.29577e-05
0.000109807
-4.23367e-05
-8.44567e-10
-8.86514e-09
-3.83647e-08
1.68152e-05
0.0345284
0.000492471
0.0199848
0.031417
-0.00763453
5.93433e-10
-0.00903625
1.9342e-05
0.00219989
-8.62114e-05
0.000915294
0.000480267
-0.000101302
0.0163258
0
0.231378
2.17355e-06
0.000216071
0.000281618
0.000492681
0
0.169859
-3.69641e-05
-7.9335e-05
-7.41616e-05
2.39591e-05
1.867e-09
1.27977e-06
-2.3805e-07
1.967e-06
3.09181e-07
4.48685e-07
2.07863e-06
-0.000891937
-0.000180536
-0.000469044
0
0.0677251
0.00850894
0.0223409
0.00753547
-0.00167558
0
-0.0175049
-0.000138608
-3.06435e-05
0
7.24511e-08
-1.59257e-07
4.54242e-07
0.718381
0
-9.25238e-05
0.120312
0.645543
-0.00477445
7.9584e-10
-0.0210771
0
-1.09974e-07
2.10827e-07
1.42793e-07
0.0201696
0
3.24442e-06
2.33337e-07
2.06637e-06
0
-1.01238e-10
0
-6.41706e-10
0.00555779
0.195485
-0.00534896
-4.69358e-05
0.0335286
0.00929313
0.0054875
2.17726e-06
0.00114837
-3.33161e-08
-9.18248e-09
1.33348e-07
-5.75083e-08
-1.3308e-05
-2.11152e-05
0
0.331288
0
0
0.0103071
0
9.59231e-05
0.00167969
0.000633354
1.29625e-06
-0.0006293
-9.2477e-06
3.15719e-07
-1.78945e-07
3.59643e-07
2.4692e-07
-3.87294e-07
9.09545e-07
8.15823e-06
0.207637
0.333611
5.7354e-08
4.72759e-06
9.67273e-07
1.53611e-10
-2.10178e-08
-3.14139e-09
-4.31496e-08
0.58581
0.246741
-3.8605e-05
6.46991e-05
-9.27006e-05
-1.57992e-05
3.19335e-07
2.05128e-07
-2.12409e-07
9.54524e-07
0.00582185
0.165539
0.101647
-5.76332e-05
3.75384e-06
5.97366e-08
1.42311e-06
3.87701e-07
0.328058
0.520415
0.668451
0
-0.000537248
0.141282
0.136749
0.0353399
0.00153497
3.39207e-06
-3.05991e-06
1.29781e-06
-6.77534e-06
8.26429e-07
-1.20361e-05
9.34166e-06
-0.0197493
-0.00726121
0.0454748
0.0734314
0.000942758
0.00350764
5.26244e-05
1.36689e-07
-1.91756e-06
2.5344e-06
4.9241e-06
8.21922e-06
1.42436e-06
4.21727e-06
0.357054
0.264063
6.15294e-07
0.0179396
1.40312e-05
-0.000131919
0.00298874
0.279022
0.0989921
-2.65049e-10
0.00929272
-0.00452813
1.19062e-09
-0.000283812
0.000125884
-3.83992e-05
1.79805e-05
8.50928e-05
-4.05772e-05
0.00221533
0.00100276
-1.51231e-05
1.10454e-05
-1.05024e-05
3.16054e-05
-3.72439e-05
0.000322746
0.00104748
8.52659e-06
0.00222264
-3.05741e-09
1.51363e-09
-9.84132e-09
0.182244
0.062019
0
0
0
0
4.73462e-07
1.63741e-07
-4.36434e-06
0.575806
6.18298e-07
5.93877e-08
-1.11361e-06
3.39058e-07
-1.22592e-08
1.73361e-08
8.87583e-08
-4.55362e-08
-7.88549e-08
0.00151114
0.00201094
0.00106815
0.00104526
0.00497269
5.52502e-07
-2.11105e-06
-0.00765118
4.05687e-08
3.18659e-06
7.5705e-06
0.694617
-0.000480014
4.00961e-08
-0.00168601
-3.23437e-09
1.33112e-07
-1.67286e-06
0.088111
0.0319223
-2.76521e-05
8.87261e-06
2.79147e-05
-0.0183425
2.28226e-10
1.33806e-08
0
1.36673e-10
-5.43607e-06
-2.31187e-06
-2.12684e-10
2.14349e-10
-1.86442e-09
-2.6193e-05
-4.14465e-06
8.47034e-06
0.709214
-3.36015e-09
-4.20295e-06
6.49572e-08
-3.69228e-08
0.00334273
-0.000410842
0.296533
-4.27068e-07
-1.48276e-06
1.47418e-06
-1.07877e-07
1.58225e-08
-3.89766e-07
0.599083
0.569146
7.38105e-06
2.66303e-06
1.55105e-07
1.21579e-06
-0.00516012
0
-3.47913e-10
0.20331
0.144298
0.0545692
4.48427e-05
0.00166573
-8.71116e-09
-4.04308e-08
0.00094205
2.3392e-05
4.13295e-06
-1.6722e-07
0
-0.0165792
0
-0.00129443
-0.00741013
0.0121449
0.0329466
0.852146
0.425175
3.79735e-06
7.36672e-07
6.18771e-07
-0.0226506
-1.39375e-05
-1.70626e-05
-3.92552e-05
-7.03262e-05
-0.0078786
-0.000392911
-0.000732062
0.00110861
0
0
-2.37338e-10
2.14822e-10
-8.10342e-09
-2.85365e-10
0.017197
0
0.211949
0.369588
0
0.0562599
2.83934e-05
0.000821439
0.000607801
-2.05252e-06
-1.34495e-06
0.000859657
0.000173887
0.000147191
5.6903e-05
-3.18296e-08
-0.0482581
2.76547e-05
-0.000101031
0.000105161
0.0112046
-0.00965697
-0.00490522
-0.00597233
-0.0014515
0.0119132
-0.000167193
-7.95305e-05
-9.56869e-05
-0.00367556
-2.43271e-05
-0.0172364
-6.97298e-05
-0.00030691
9.14661e-05
0
-3.37676e-05
-4.87366e-05
0.000758322
0.000737234
1.25839e-05
4.56595e-06
-4.23016e-06
6.57088e-06
-7.5663e-06
3.24266e-05
-7.80929e-06
-3.20697e-06
2.46149e-05
-6.12527e-05
-8.11334e-05
5.77868e-06
4.45543e-06
-3.82342e-06
-1.56331e-06
-4.4102e-08
4.22418e-08
5.75207e-08
1.20362e-07
-3.44386e-07
-4.41557e-08
-2.23315e-06
-3.90956e-07
3.8897e-07
-7.49236e-05
0.00114385
0.00449075
0.00468058
0.0140257
0.0972115
0.099501
0.151115
0.254412
-1.00009e-08
1.11493e-08
1.89169e-09
-0.00704125
-0.000159844
-0.000719245
1.40072e-07
0.12495
0.7669
0.00505558
-0.00617812
0.00307379
0.000717853
0.000786582
0.000360003
0.575213
0.0113969
0.208528
0.0478819
0.325863
2.90334e-06
-2.02532e-05
-0.000506003
0
0
0.00263584
-0.000462932
0.000687883
-4.6522e-06
-1.18404e-07
3.12511e-07
0
0
-3.56286e-10
-1.13408e-10
1.57941e-10
0.00532338
0.000617782
0.00140268
0.00251659
0.0851245
0.106245
0.179338
0
0.122256
0.293099
0.730645
0.108562
-1.28197e-06
0.000309848
9.58047e-05
0
0.000166635
0.00117035
-3.45946e-09
1.17946e-07
5.73192e-08
0.0641738
0.516074
0.129494
0.150236
0.205353
-0.0015577
0.00067251
-3.75054e-07
1.21073e-06
3.44548e-06
9.61466e-05
3.91677e-05
-1.05458e-05
0.00399451
-0.00222159
-6.14044e-10
-1.83212e-06
1.5887e-06
-0.0023887
-0.00427474
0.00227034
0.00339317
-9.03877e-05
-2.52829e-05
-2.88575e-06
-1.44221e-10
0.455668
0.567858
0.694205
0.806165
0.836731
0
0.803208
-3.8084e-07
-3.04648e-09
1.13684e-08
-1.0547e-07
-1.54025e-07
-2.30007e-06
-3.60046e-09
2.95678e-07
-2.34278e-06
-3.4702e-07
-0.00152655
0.278237
0.642599
0.475243
-1.06254e-06
0.000841126
1.90821e-05
0.00403475
5.99117e-05
4.98863e-05
0.000318218
0.000681933
0.00101543
0.271162
0.0267878
0.103651
0.133852
0.65139
0.421337
3.44291e-05
0.273369
1.39581e-05
0.000971826
-0.00274063
0.00108589
-0.00301692
0.00089036
-0.00157548
0.000265766
2.76227e-08
5.69376e-09
3.31927e-08
5.18067e-08
0
0
0
0.144272
0.691825
-3.20548e-09
7.73478e-09
3.64583e-08
1.72513e-08
-3.54207e-08
6.85411e-08
-0.000579972
-6.08106e-06
-5.36808e-05
-2.77475e-05
2.44343e-05
-3.78134e-07
4.72543e-08
1.31946e-08
-2.91613e-08
4.00511e-08
0.00364838
0.00341792
0.0047021
-0.00579134
-6.355e-06
0.0127419
-0.00233001
5.3461e-06
-2.56334e-08
8.72302e-06
0.00427786
0.0101011
3.18893e-10
0.00120469
0.000135253
0.823246
0.845974
4.94907e-10
9.1162e-05
-2.72931e-07
-0.000549611
-5.87955e-05
0.000163881
-0.00497453
-0.00597011
0
0
0
0
2.2509e-06
1.55133e-05
-1.35291e-05
-0.00739609
0.0209392
1.76142e-07
1.10068e-06
9.04116e-07
0
0
0
0
0
0
0.0297429
-0.0244765
-9.87217e-08
3.81709e-09
-3.40596e-08
-2.82805e-08
-4.87601e-07
4.83447e-07
2.8541e-06
1.78018e-06
-2.37471e-07
9.00573e-10
-2.02472e-08
0.73027
0.86807
1.29595e-05
8.71161e-05
6.00572e-05
0.000160612
7.16972e-05
0.000313266
0.00151064
0.00524063
0.0216523
1.14501e-05
7.11109e-06
-4.4251e-06
3.30932e-06
-2.89577e-05
0.00177452
0.000527223
0.00195097
0.000466491
1.69901e-05
2.02175e-06
5.56366e-06
0.00474866
0.000839475
0.00990246
2.70628e-05
-3.44763e-05
0.0251739
-1.19167e-06
-1.74031e-06
-4.84403e-07
2.53494e-05
9.64331e-07
5.37382e-06
4.04585e-07
2.12099e-07
-6.20576e-08