# vtk DataFile Version 2.0
Unstructured Grid by M++
ASCII
DATASET UNSTRUCTURED_GRID
POINTS 4072 float
  0.875000   1.000000 0
  0.875000   0.984375 0
  0.875000   0.968750 0
  0.875000   0.953125 0
  0.875000   0.937500 0
  0.875000   0.921875 0
  0.875000   0.906250 0
  0.875000   0.890625 0
  0.875000   0.875000 0
  0.875000   0.859375 0
  0.875000   0.843750 0
  0.875000   0.828125 0
  0.875000   0.812500 0
  0.875000   0.796875 0
  0.875000   0.781250 0
  0.875000   0.765625 0
  0.859375   1.000000 0
  0.859375   0.984375 0
  0.859375   0.968750 0
  0.859375   0.953125 0
  0.859375   0.937500 0
  0.859375   0.921875 0
  0.859375   0.890625 0
  0.859375   0.875000 0
  0.859375   0.859375 0
  0.859375   0.843750 0
  0.859375   0.828125 0
  0.859375   0.812500 0
  0.859375   0.796875 0
  0.859375   0.781250 0
  0.859375   0.765625 0
  0.859375   0.671875 0
  0.859375   0.656250 0
  0.859375   0.640625 0
  0.843750   1.000000 0
  0.843750   0.984375 0
  0.843750   0.968750 0
  0.843750   0.953125 0
  0.843750   0.937500 0
  0.843750   0.921875 0
  0.843750   0.906250 0
  0.843750   0.875000 0
  0.843750   0.859375 0
  0.843750   0.843750 0
  0.843750   0.828125 0
  0.843750   0.812500 0
  0.843750   0.796875 0
  0.843750   0.781250 0
  0.843750   0.765625 0
  0.843750   0.671875 0
  0.843750   0.656250 0
  0.843750   0.640625 0
  0.828125   1.000000 0
  0.828125   0.984375 0
  0.828125   0.968750 0
  0.828125   0.953125 0
  0.828125   0.937500 0
  0.828125   0.921875 0
  0.875000   0.671875 0
  0.812500   0.921875 0
  0.890625   0.656250 0
  0.828125   0.906250 0
  0.875000   0.656250 0
  0.812500   0.906250 0
  0.890625   0.640625 0
  0.828125   0.890625 0
  0.875000   0.640625 0
  0.812500   0.890625 0
  0.890625   0.625000 0
  0.828125   0.875000 0
  0.890625   0.609375 0
  0.828125   0.859375 0
  0.890625   0.593750 0
  0.828125   0.843750 0
  0.890625   0.578125 0
  0.828125   0.828125 0
  0.890625   0.562500 0
  0.828125   0.812500 0
  0.828125   0.796875 0
  0.828125   0.781250 0
  0.828125   0.765625 0
  0.828125   0.671875 0
  0.828125   0.656250 0
  0.828125   0.640625 0
  0.875000   0.750000 0
  0.812500   1.000000 0
  0.875000   0.625000 0
  0.812500   0.875000 0
  0.875000   0.734375 0
  0.812500   0.984375 0
  0.875000   0.718750 0
  0.812500   0.968750 0
  0.875000   0.703125 0
  0.812500   0.953125 0
  0.875000   0.687500 0
  0.812500   0.937500 0
  0.875000   0.609375 0
  0.812500   0.859375 0
  0.875000   0.593750 0
  0.812500   0.843750 0
  0.875000   0.578125 0
  0.812500   0.828125 0
  0.812500   0.812500 0
  0.875000   0.546875 0
  0.812500   0.796875 0
  0.812500   0.781250 0
  0.812500   0.765625 0
  0.859375   0.750000 0
  0.796875   1.000000 0
  0.859375   0.625000 0
  0.796875   0.875000 0
  0.859375   0.734375 0
  0.796875   0.984375 0
  0.859375   0.718750 0
  0.796875   0.968750 0
  0.859375   0.703125 0
  0.796875   0.953125 0
  0.859375   0.687500 0
  0.796875   0.937500 0
  0.859375   0.609375 0
  0.796875   0.859375 0
  0.859375   0.593750 0
  0.796875   0.843750 0
  0.859375   0.578125 0
  0.796875   0.828125 0
  0.859375   0.562500 0
  0.796875   0.812500 0
  0.796875   0.796875 0
  0.859375   0.531250 0
  0.796875   0.781250 0
  0.796875   0.765625 0
  0.843750   0.750000 0
  0.781250   1.000000 0
  0.843750   0.625000 0
  0.781250   0.875000 0
  0.843750   0.734375 0
  0.781250   0.984375 0
  0.843750   0.718750 0
  0.781250   0.968750 0
  0.843750   0.703125 0
  0.781250   0.953125 0
  0.843750   0.687500 0
  0.781250   0.937500 0
  0.843750   0.609375 0
  0.781250   0.859375 0
  0.843750   0.593750 0
  0.781250   0.843750 0
  0.843750   0.578125 0
  0.781250   0.828125 0
  0.781250   0.812500 0
  0.843750   0.546875 0
  0.781250   0.796875 0
  0.781250   0.781250 0
  0.843750   0.515625 0
  0.781250   0.765625 0
  0.828125   0.750000 0
  0.765625   1.000000 0
  0.828125   0.625000 0
  0.765625   0.875000 0
  0.828125   0.734375 0
  0.765625   0.984375 0
  0.828125   0.718750 0
  0.765625   0.968750 0
  0.828125   0.703125 0
  0.765625   0.953125 0
  0.828125   0.687500 0
  0.765625   0.937500 0
  0.828125   0.609375 0
  0.765625   0.859375 0
  0.828125   0.593750 0
  0.765625   0.843750 0
  0.828125   0.578125 0
  0.765625   0.828125 0
  0.828125   0.562500 0
  0.765625   0.812500 0
  0.765625   0.796875 0
  0.828125   0.531250 0
  0.765625   0.781250 0
  0.765625   0.765625 0
  0.812500   0.750000 0
  0.750000   1.000000 0
  0.953125   1.000000 0
  0.812500   0.734375 0
  0.750000   0.984375 0
  0.812500   0.718750 0
  0.750000   0.968750 0
  0.812500   0.703125 0
  0.750000   0.953125 0
  0.812500   0.687500 0
  0.750000   0.937500 0
  0.812500   0.671875 0
  0.750000   0.921875 0
  0.812500   0.656250 0
  0.750000   0.906250 0
  0.812500   0.640625 0
  0.750000   0.890625 0
  0.812500   0.625000 0
  0.750000   0.875000 0
  0.812500   0.609375 0
  0.750000   0.859375 0
  0.812500   0.593750 0
  0.750000   0.843750 0
  0.812500   0.578125 0
  0.750000   0.828125 0
  0.750000   0.812500 0
  0.812500   0.546875 0
  0.750000   0.796875 0
  0.750000   0.781250 0
  0.812500   0.515625 0
  0.750000   0.765625 0
  0.796875   0.750000 0
  0.734375   1.000000 0
  0.796875   0.734375 0
  0.734375   0.984375 0
  0.796875   0.718750 0
  0.734375   0.968750 0
  0.796875   0.703125 0
  0.734375   0.953125 0
  0.796875   0.687500 0
  0.734375   0.937500 0
  0.796875   0.671875 0
  0.734375   0.921875 0
  0.796875   0.656250 0
  0.734375   0.906250 0
  0.796875   0.640625 0
  0.734375   0.890625 0
  0.796875   0.625000 0
  0.734375   0.875000 0
  0.796875   0.609375 0
  0.734375   0.859375 0
  0.796875   0.593750 0
  0.734375   0.843750 0
  0.796875   0.578125 0
  0.734375   0.828125 0
  0.734375   0.812500 0
  0.734375   0.796875 0
  0.796875   0.531250 0
  0.734375   0.781250 0
  0.734375   0.765625 0
  0.781250   0.750000 0
  0.718750   1.000000 0
  0.921875   1.000000 0
  0.781250   0.734375 0
  0.718750   0.984375 0
  0.781250   0.718750 0
  0.718750   0.968750 0
  0.781250   0.703125 0
  0.718750   0.953125 0
  0.859375   0.906250 0
  0.781250   0.687500 0
  0.718750   0.937500 0
  0.781250   0.671875 0
  0.718750   0.921875 0
  0.781250   0.656250 0
  0.718750   0.906250 0
  0.781250   0.640625 0
  0.718750   0.890625 0
  0.781250   0.625000 0
  0.718750   0.875000 0
  0.781250   0.609375 0
  0.718750   0.859375 0
  0.781250   0.593750 0
  0.718750   0.843750 0
  0.781250   0.578125 0
  0.718750   0.828125 0
  0.781250   0.562500 0
  0.718750   0.812500 0
  0.781250   0.546875 0
  0.718750   0.796875 0
  0.781250   0.531250 0
  0.718750   0.781250 0
  0.781250   0.515625 0
  0.718750   0.765625 0
  0.765625   0.750000 0
  0.703125   1.000000 0
  0.765625   0.734375 0
  0.703125   0.984375 0
  0.765625   0.718750 0
  0.703125   0.968750 0
  0.765625   0.703125 0
  0.703125   0.953125 0
  0.765625   0.687500 0
  0.703125   0.937500 0
  0.843750   0.890625 0
  0.703125   0.921875 0
  0.765625   0.656250 0
  0.703125   0.906250 0
  0.765625   0.640625 0
  0.703125   0.890625 0
  0.765625   0.625000 0
  0.703125   0.875000 0
  0.765625   0.609375 0
  0.703125   0.859375 0
  0.765625   0.593750 0
  0.703125   0.843750 0
  0.765625   0.578125 0
  0.703125   0.828125 0
  0.765625   0.562500 0
  0.703125   0.812500 0
  0.765625   0.546875 0
  0.703125   0.796875 0
  0.765625   0.531250 0
  0.703125   0.781250 0
  0.765625   0.515625 0
  0.703125   0.765625 0
  0.750000   0.750000 0
  0.687500   1.000000 0
  0.890625   1.000000 0
  0.750000   0.734375 0
  0.687500   0.984375 0
  0.750000   0.718750 0
  0.687500   0.968750 0
  0.578125   0.796875 0
  0.578125   0.781250 0
  0.578125   0.765625 0
  0.546875   0.953125 0
  0.546875   0.968750 0
  0.546875   0.718750 0
  0.546875   0.687500 0
  0.250000   0.609375 0
  0.937500   0.031250 0
  0.046875   0.703125 0
  0.734375   0.062500 0
  0.734375   0.078125 0
  0.734375   0.046875 0
  0.046875   0.593750 0
  0.046875   0.562500 0
  0.046875   0.531250 0
  0.718750   0.156250 0
  0.046875   0.609375 0
  0.734375   0.031250 0
  0.062500   0.609375 0
  0.234375   0.703125 0
  0.718750   0.125000 0
  0.046875   0.578125 0
  0.734375   0.000000 0
  0.062500   0.578125 0
  0.000000   0.828125 0
  0.234375   0.671875 0
  0.234375   0.625000 0
  0.718750   0.093750 0
  0.687500   0.156250 0
  0.062500   0.546875 0
  0.000000   0.796875 0
  0.718750   0.046875 0
  0.031250   0.687500 0
  0.687500   0.171875 0
  0.500000   1.000000 0
  0.078125   0.218750 0
  0.234375   0.593750 0
  0.718750   0.062500 0
  0.687500   0.125000 0
  0.000000   0.765625 0
  0.421875   0.500000 0
  0.031250   0.593750 0
  0.718750   0.015625 0
  0.687500   0.234375 0
  0.015625   0.812500 0
  0.703125   0.171875 0
  0.703125   0.187500 0
  0.703125   0.140625 0
  0.015625   0.781250 0
  0.437500   0.515625 0
  0.500000   0.796875 0
  0.078125   0.015625 0
  0.687500   0.203125 0
  0.250000   0.578125 0
  0.703125   0.109375 0
  0.000000   0.515625 0
  0.500000   0.765625 0
  0.062500   0.593750 0
  0.750000   0.015625 0
  0.015625   0.843750 0
  0.687500   0.000000 0
  0.500000   0.828125 0
  0.078125   0.046875 0
  0.015625   0.531250 0
  0.250000   0.546875 0
  0.703125   0.078125 0
  0.703125   0.031250 0
  0.015625   0.671875 0
  0.250000   0.515625 0
  0.000000   0.656250 0
  0.500000   0.906250 0
  0.078125   0.125000 0
  0.687500   0.015625 0
  0.031250   0.546875 0
  0.687500   0.031250 0
  0.500000   0.859375 0
  0.703125   0.000000 0
  0.703125   0.046875 0
  0.703125   0.015625 0
  0.500000   0.937500 0
  0.234375   0.531250 0
  0.031250   0.578125 0
  0.687500   0.062500 0
  0.500000   0.890625 0
  0.031250   0.796875 0
  0.453125   0.531250 0
  0.500000   0.968750 0
  0.078125   0.187500 0
  0.234375   0.562500 0
  0.031250   0.609375 0
  0.718750   0.031250 0
  0.687500   0.093750 0
  0.750000   0.046875 0
  0.000000   0.937500 0
  0.421875   0.671875 0
  0.718750   0.187500 0
  0.031250   0.828125 0
  0.765625   0.062500 0
  0.015625   0.953125 0
[...]
CELL_DATA 7648
SCALARS scalar_value float 1
LOOKUP_TABLE default
-1.76479e-09
-2.7788e-09
2.46416e-09
-5.30416e-10
5.81181e-08
1.18328e-08
1.94949e-09
0.00193233
-0.00630285
0.00255585
0.00285019
5.92623e-09
-6.49622e-08
1.62785e-09
-4.30007e-09
-0.00472584
-0.000127578
0.0177274
0.00447362
0
0.00799395
0.142299
0.826569
-1.2364e-05
0.537255
8.78457e-06
0.00231108
0.00676492
0.000158855
0.657839
0.00135853
5.72572e-05
0.000231248
1.51525e-06
1.26071e-06
-9.90322e-08
-7.32052e-09
1.23122e-06
0.00496452
-0.0072682
1.33149e-06
-0.00435065
0.00100342
7.27901e-07
1.75111e-09
-5.94736e-05
0.000160506
0.000113116
-9.4124e-05
6.73791e-06
-1.71636e-07
5.74234e-06
-2.50129e-10
8.59936e-10
-0.00208925
0.221601
0.35539
0.0405045
0.000588489
5.91551e-08
2.38499e-08
0.00059005
6.48779e-07
0.000391266
-0.00017237
0.000421622
0.00928548
0
1.86763e-06
1.45282e-08
7.3571e-09
5.66162e-09
0
0
-6.07245e-08
0.831125
0.581287
0.561524
0.412106
-0.0103336
2.46663e-06
0.657361
0.803264
0.000243052
0
6.5258e-07
6.60135e-09
-0.000472001
0.0815311
0.0391017
9.75254e-05
0.0191852
9.88139e-07
-4.12689e-06
5.35568e-06
2.02607e-06
0
2.90799e-08
-8.97008e-06
4.92058e-05
5.01747e-05
-2.85754e-08
-1.74848e-08
-1.16136e-08
0.547859
0
4.26125e-05
5.79402e-05
0.147662
0.447139
1.70572e-05
-4.62305e-05
0.306085
0.142364
1.33375e-06
5.21239e-06
0.108751
3.09104e-06
-6.32871e-07
1.29871e-06
1.27306e-06
0.000328336
0.00282236
9.54353e-08
0
-1.24083e-08
2.99567e-09
0.590691
0.220287
0.189969
0.546489
1.68716e-07
-0.00192571
0.0829946
-1.08286e-08
3.75191e-09
0.173603
0.769128
-0.0228041
0.227721
-9.81924e-10
0
4.10296e-07
9.59884e-09
-0.00575132
1.22008e-07
0
1.84054e-05
0
-0.00146139
-6.14246e-09
3.19933e-09
0.00365665
-1.0082e-07
-0.00676155
-1.42535e-08
-1.60498e-08
0.00471775
-0.00545236
0.000634288
0.00289589
0.00139127
-6.55001e-10
0
0.000679494
0.00132078
-1.09858e-10
-1.3346e-10
0
0.00127191
-5.51867e-09
0.00184475
0
0
-0.00198547
0.0445279
0.480308
0
-1.06092e-06
-4.60356e-05
-6.66751e-05
-3.77538e-07
7.40914e-07
7.6466e-07
3.25186e-08
2.14216e-07
1.58127e-05
-7.2046e-05
-3.89443e-07
-0.00110259
-0.0142958
1.4313e-06
4.132e-06
0
0
7.60877e-07
1.46911e-06
-0.0116716
6.27157e-10
0
7.94314e-07
2.35694e-06
0.0034648
0.00192942
7.1787e-05
1.80698e-05
0.00276938
0.00307674
-2.8289e-06
-2.14744e-06
-2.43396e-08
-7.76271e-07
0.00333713
0.000306537
6.30813e-05
0.129162
-0.000617259
0.0176575
-0.037792
-0.0511837
0.00646639
-2.01173e-06
0
0.00626218
-2.10181e-07
0.000225831
-1.01322e-08
2.46642e-05
2.12573e-05
0.351984
0.235399
0.485426
0.769461
0.00126014
-8.86382e-05
-0.00324972
0.000591404
0.00234463
4.91193e-09
0.00119065
0
2.63436e-06
-0.0270855
0.320495
0.00237614
0
1.51689e-09
-2.98495e-09
1.0475e-09
0.00134746
-0.00122621
7.30172e-05
1.15546e-06
0.00142873
-0.000118053
0
1.69126e-08
2.11844e-07
2.00727e-08
0.0589865
8.01635e-09
-3.65399e-09
-2.36575e-05
-6.09636e-05
4.92239e-05
0.528112
0.743213
-2.1017e-08
5.73383e-09
-0.00323733
0.742374
0
0.692747
0.166041
0.794154
-3.56735e-05
-0.00163196
0.00152619
0.00819703
-0.0073025
-0.00481751
-0.00455601
0.00304512
0.00169042
7.86832e-05
-3.41384e-05
2.6388e-05
0.0306839
0.00689539
1.4541e-05
2.18677e-05
2.19086e-08
-2.58467e-06
0.00153607
0.00855459
-0.0141994
0.00160429
0.00027256
0.221778
2.24546e-05
-0.00623363
0.0102467
-0.000469715
0.0388644
0.0118559
0.00149042
-1.39204e-06
0.155138
0.149501
0.0470908
-1.24375e-09
0.0268535
0.00055347
0.00465044
0.00539223
0.00890528
0.00822025
0.239613
0.248013
0.149891
1.10585e-06
-1.1105e-06
1.13177e-07
2.75852e-06
0
0.0200358
0.000277849
-5.23993e-05
-5.03376e-05
-2.51063e-05
-0.0211632
0.0889876
0
-0.00226982
0.0145296
4.97571e-09
-2.86585e-10
-7.30985e-07
2.66737e-07
-2.74399e-07
0.000474144
0.263119
-0.00847945
-0.0055179
2.30384e-06
-0.00494387
0.394603
0.632051
-1.24672e-08
0
3.05915e-09
-0.0836738
0.000222233
0.0708396
0.0311118
0
-9.84327e-08
8.46643e-06
0.0747995
-0.0281882
3.78461e-06
-7.33143e-07
0.683509
0
0.000262092
0.00689538
0.37973
0.455175
0.689647
0.00290663
0.0447098
0
4.60173e-08
0.702681
0.56559
0.307536
-0.00100131
0.0279993
0.00167933
0.00511235
-0.00207026
5.16729e-06
-0.00793333
0.00540766
0.00193352
-0.00903635
-1.35093e-08
-0.0024865
0.000263457
-0.00012217
0.00082175
8.15485e-05
0.00435356
-0.00191714
-0.00636963
0.0574609
0.0106784
-0.0040291
0.0021146
0.00213463
0.00415283
-7.97894e-07
6.83932e-06
-2.64136e-06
-4.11151e-06
0
-0.00215749
0.0550894
0.000757555
-1.23311e-06
-1.21305e-09
0.047515
0
0.109365
0.0265346
7.23224e-07
4.139e-09
-2.42834e-06
0.000628985
0.0041903
-0.00159758
0.00191694
-3.85733e-05
0.789706
5.12395e-10
0.00709469
-0.00587829
-0.000249512
0.000738643
-1.00644e-07
-7.15401e-08
0.0101694
0
0.486158
0.827086
5.23371e-06
-8.23922e-07
0
0
-7.17063e-10
-3.52025e-08
1.6434e-05
-0.00281134
-0.000529716
0
0
0.158339
1.3056e-08
0
-4.81786e-09
0
0.000178399
-0.000306726
-1.70612e-09
4.11074e-06
-4.69824e-07
0
0.096709
4.77059e-07
0.00505191
0.105108
1.11902e-05
1.82462e-05
2.50915e-05
-0.0178471
1.28411e-09
2.2208e-07
0.0014637
9.91523e-09
-1.66593e-09
0.348831
-0.0011572
0.00153057
0
-3.51826e-07
0.317872
3.80883e-09
0
7.63217e-07
-1.17937e-07
0
-0.0015106
0.00660281
-0.000650297
-1.19663e-06
7.57384e-07
0
1.16333e-07
-4.86285e-08
0.285015
9.8947e-07
5.96077e-08
0
-1.71477e-09
-1.82598e-09
-0.000180503
-4.35969e-06
3.63771e-06
5.32627e-06
-2.39185e-10
0.00475691
-4.02742e-06
4.01779e-05
1.04172e-06
6.49999e-07
1.54009e-06
1.52722e-05
-2.84292e-06
0.000192224
7.51125e-05
0.000146722
6.23926e-05
-1.92571e-05
-1.03163e-09
0.508116
0.765505
0
-0.00423917
0.000221428
7.57075e-06
-1.18386e-09
0.771023
0
-2.96578e-05
8.84543e-06
-8.30727e-07
0
0
0.849306
0.00455113
0
-1.18324e-07
4.64473e-06
0.126932
0.0527546
0
-5.70321e-08
0
-7.68455e-06
0.185498
1.0977e-08
0
0.00232247
-6.95398e-06
-7.03024e-07
0.836885
0.81273
-3.29588e-09
0.00203538
-0.00497185
-0.000482526
0.00805458
0.0051167
-0.0103122
0.0363749
-0.000895115
3.71361e-08
-0.0041146
0.000553326
0.000508499
-5.07767e-09
0.00396472
-0.00445013
0.000178521
0.00039354
0.00159416
-0.000364061
0.00524923
-0.000221947
7.53843e-10
0
0.00234044
-6.31394e-07
-0.0165966
8.12e-05
-0.0126581
-0.00649223
0
0.110114
0
0.00891336
0.33964
0.693886
0.00175403
2.16833e-06
0.731873
0.10184
-0.000374729
0.577949
5.0096e-07
-1.5503e-07
1.15671e-06
0.006366
-8.83051e-09
0
0
0.0684295
-1.70635e-09
0.00390621
0.728005
0
1.04414e-05
1.14929e-05
0.000178958
-1.87617e-05
0.0013334
0
-2.71206e-08
0.000607607
0.000535673
0.00141121
0.415473
0
0.00241329
0.00174878
0.00304946
0.00478994
0.0104167
0.34631
0.768905
-2.60057e-05
-0.00232304
0.799603
0.00328267
0.767104
-0.00541336
0.00921358
-0.00437685
-0.0029673
0.0484908
-0.000463676
-5.28825e-07
-6.4605e-06
-0.0101208
2.09068e-06
-3.00088e-07
0.658566
1.11092e-07
-5.60752e-07
0.00340798
-1.83213e-07
0.0301524
1.31156e-06
-8.34642e-09
0.111645
1.67525e-05
-7.68541e-06
0.0587445
0.00568902
-3.63443e-05
0.0071205
-6.59931e-07
-4.99503e-05
0.209375
0.0786258
2.3465e-05
-0.000177025
0.210629
5.87365e-07
0.165889
3.56566e-09
0.252737
1.40491e-08
0.00249368
0.082438
0.115156
0.00156706
4.94713e-08
0.00061933
0.000394585
0.145691
0.0258925
0
-3.25918e-07
0.000296767
-0.000832875
0.018495
0.0829091
0.000958083
0
1.43325e-05
0.0125119
0.345229
0.821966
4.43741e-08
0.000120889
-0.000283711
0.000347132
3.62951e-05
-1.46436e-05
0.107528
-1.43015e-09
-1.1746e-09
-0.000537436
0.0583953
0.0480723
0.186746
1.06861e-08
4.20669e-09
-1.89935e-10
0.00404983
1.83718e-10
0.133141
0.00204251
2.17668e-05
0
1.22609e-10
0
-9.27851e-07
-0.000655353
0.23179
0.00129625
-0.0440376
0.13588
-0.0361118
0.00529109
-0.00262018
0.0395999
0.0106813
1.19295e-06
0.00252484
-0.000719564
-5.97374e-05
0.000584015
-7.79736e-09
0.174256
0.41847
0.137593
0.0975115
0.498358
1.50284e-05
-1.07153e-05
2.72992e-09
4.30191e-06
0
1.14757e-05
0
-7.87596e-07
5.35762e-06
-2.03289e-05
-0.00147418
-0.00131455
-2.33157e-06
0
0.446037
-1.71454e-06
0.260007
-0.00132357
0
0.276887
0
0.00137238
1.71464e-05
2.5573e-07
-2.18325e-08
9.68118e-05
9.77693e-08
0.267786
0.396539
-3.39416e-10
0.602739
0
-1.38271e-07
0.537904
-1.49422e-06
1.01241e-06
0.000189401
0
-2.22987e-06
-5.89266e-06
-1.63121e-07
7.56451e-07
-5.22115e-07
3.8958e-09
4.18194e-07
-0.0008322
1.46776e-09
2.5887e-08
-9.11384e-09
6.53873e-05
-9.92534e-06
-3.0117e-09
0
-1.74195e-06
-7.48857e-05
-5.85758e-06
8.81839e-08
6.86042e-06
0.0504749
-1.21733e-09
0.000456452
0
0.213069
0.538246
2.79442e-06
-0.00201646
0.0493352
0.827064
0.618538
-9.50571e-06
-8.01149e-10
0.320821
-0.0263105
-0.00369835
2.84559e-06
-0.0055142
0.177554
0.00933674
0.000987332
-9.17374e-05
0.378076
0.0639093
0.000152769
0.234644
0.00276609
7.73757e-10
0.446292
3.0087e-08
0.311859
-1.87243e-08
-4.98405e-09
6.83943e-09
0.726788
0.508249
5.00136e-10
6.72349e-09
0
0.449985
1.39548e-09
0
0.000257932
-0.010953
-0.000199305
-1.12657e-10
-1.26028e-05
0
0.000151618
0.805231
-8.73816e-09
-4.9733e-09
0.000572451
0.000166548
-2.01512e-05
-7.93171e-09
0.360179
9.26273e-05
-1.12042e-10
0.743097
2.8444e-06
0
2.56397e-06
1.51336e-09
-1.79316e-05
0.0194976
0.00514354
0.089405
-1.26187e-06
1.93695e-06
-0.00314122
0.00696555
-0.00642795
0.00908085
0.757798
6.90484e-05
-0.0181367
3.21296e-06
-5.33037e-06
8.00558e-05
0.000126087
1.28896e-06
3.54e-07
-7.92637e-06
4.50874e-05
-0.000426574
2.71438e-06
5.6624e-09
0
2.15994e-08
7.02376e-05
-4.32516e-09
-1.66701e-08
0
-0.080783
3.65813e-06
-7.99036e-08
-1.40993e-09
-0.00334656
-0.00107774
-3.72405e-08
0.0975475
0.427954
0.118591
1.9024e-05
0.00196674
-1.83758e-06
-1.92154e-07
0.0603763
0
0
-0.000617171
0
1.05878e-10
0.00386288
1.72135e-09
1.73764e-06
0.000353486
-0.000405395
0.000945481
6.09245e-05
-0.00200063
-0.00144787
-6.49725e-10
2.83127e-10
0
0.473157
-1.58985e-06
6.77853e-10
0
1.86563e-10
0
0.000364921
0
-8.80804e-10
-0.000984723
-3.34231e-10
1.28307e-09
-0.000375648
-3.4465e-08
0.000500714
0.000930558
0
0.823523
0.693777
1.09987e-05
0.847146
0
0.680702
0.0202733
0.0627934
0
8.86427e-08
0
0.525939
-3.99191e-05
0
0.00914834
-1.72526e-05
2.59148e-05
0.000503892
2.4579e-06
5.22238e-06
-3.93067e-07
-0.0189753
0.002434
0.00296396
0.587263
0
-6.66187e-10
-0.0263985
5.99753e-07
1.01874e-06
9.28072e-07
1.24836e-05
7.19869e-07
1.61427e-09
9.71553e-06
0.00522049
6.41633e-09
-0.0170622
0
1.79586e-09
6.87208e-05
0.029952
-2.60889e-10
-0.00206762
0.000160982
-7.73081e-05
0
0.791594
0.637006
0.000671923
1.57976e-07
-6.6888e-07
2.06875e-07
4.71489e-07
0.645711
0.783251
-1.39597e-08
-1.52596e-07
0.62481
1.80958e-09
-2.31251e-06
0.00166405
-0.00441069
0
1.31899e-07
3.20063e-05
1.79605e-05
4.69226e-10
-3.80078e-06
6.07439e-07
4.39241e-05
-1.20282e-05
0
0
0.000113758
-1.33318e-05
-2.21561e-08
-7.01783e-08
7.98934e-08
-3.16879e-08
-4.26293e-05
-1.83992e-09
-1.5214e-07
0.124871
0.0499165
0.0614538
0
0
-3.09708e-09
0.0002478
0.328965
5.80838e-05
0.000797425
1.73493e-09
1.50755e-08
-4.57727e-08
1.4094e-09
-0.000318515
5.50518e-08
1.08146e-08
-6.14865e-08
3.61301e-05
0.00271162
-7.60069e-10
0
-0.0104776
-1.94153e-06
2.01102e-07
-8.59076e-07
-0.00187329
0.075948
-7.71105e-05
0.0010747
2.50608e-05
0.0138344
-0.0110525
9.24061e-06
0.378977
0.000790512
5.43179e-07
2.14709e-06
-5.39859e-05
-1.05623e-06
-1.73198e-06
-0.00633448
0
4.85961e-07
0
0
1.71627e-06
0
1.50758e-07
6.72676e-07
0
-2.66469e-06
0.00297614
9.69517e-08
1.31908e-06
8.09616e-06
-0.00645986
4.71589e-10
-0.00387933
0.466415
-5.50876e-08
0
3.89657e-05
6.17453e-06
0.1567
-0.0112978
0.000721213
-2.1212e-06
3.22232e-08
0
0.85052
1.84333e-06
0.0307077
0
0.280954
2.81892e-06
-3.75194e-08
-3.09749e-07
9.60351e-09
1.78673e-10
-7.44995e-09
0.000361362
0.00196365
0.000836319
0.00107592
0.000715014
0.00211893
6.40806e-05
0.0399616
-3.43175e-09
0.714208
-3.14393e-10
0.266758
1.03447e-10
0.136897
0.608051
0.74834
1.30467e-10
0.00133895
0.00317517
-2.47675e-07
-1.13276e-05
0
-0.00400528
3.06969e-08
0
0
1.03251e-08
0.00316468
0.204169
0
0
0
-2.44714e-10
0.000392348
8.60301e-06
-1.84043e-06
3.6259e-05
5.27242e-05
6.18081e-05
2.97691e-06
-4.09706e-07
-1.48175e-07
-3.88273e-07
1.15608e-08
-1.64215e-08
-1.80913e-08
0
0
0
0
0.204371
-0.0230456
-0.0196495
0.00922122
-1.68066e-10
1.60206e-05
5.63799e-07
3.95529e-05
7.92092e-05
0.586257
-0.0245769
0
-0.00652781
0
-1.00865e-07
8.34151e-07
-4.12346e-06
6.7727e-07
4.14225e-07
0.000221329
-0.0018103
-5.17098e-07
-4.74831e-07
0.00810916
0.038229
0.0286109
3.26315e-07
8.57951e-07
-6.74848e-07
6.84712e-07
0.088231
0.101379
0.169832
-0.000432028
-1.84909e-05
0.000134368
3.26326e-05
0.0414856
0.0143809
0.0358812
0.0535355
0.000102381
-0.000329746
-0.000118125
-3.6639e-05
-5.16953e-05
-5.41255e-05
2.36398e-05
-4.07015e-05
0
0
-8.67743e-10
1.5685e-05
0.00188149
0.00440976
0.183064
0.0599296
-0.0238957
5.11328e-10
-0.0159086
9.04498e-08
0.000397679
0.000129594
0.000127133
-2.48929e-05
-2.75662e-05
0.000898407
0
0.344792
-8.31388e-06
-2.01737e-05
4.82317e-05
0.000208874
0
0.610034
-2.00719e-05
-3.53397e-05
-4.82012e-05
-8.12453e-06
1.77731e-07
2.77361e-07
-2.78564e-07
2.23408e-06
-1.33072e-08
1.58523e-07
1.29804e-06
-0.000106469
4.49934e-06
-2.65182e-05
0
0.104601
0.00605034
0.136773
-0.0134723
-0.00851563
0
-0.0376369
-0.000785273
-2.44456e-06
0
1.5467e-08
8.01642e-09
-6.11344e-09
0.279347
0
8.5294e-06
0.0108088
0.345888
-0.0122944
1.54893e-10
0.207883
3.64491e-10
-2.43737e-08
-3.4375e-08
-3.15055e-08
0.118307
0
2.33561e-07
2.85736e-07
1.3708e-06
0
0
0
0
0.00879975
0.0322827
-0.00517711
-3.63954e-06
0.000845527
-0.000499487
0.000500043
-3.7694e-06
0.00577326
3.10523e-10
1.05752e-09
-1.30147e-09
0
-5.19091e-07
-4.93689e-06
0
0.760813
0
0
0.158695
6.81886e-10
0.00147348
8.68185e-05
-0.000102528
-1.87476e-05
-0.000159836
1.39999e-08
4.22121e-09
1.40264e-08
2.17088e-08
7.45291e-09
-2.05462e-08
3.56981e-08
8.8628e-06
0.44639
0.470893
6.09976e-09
-8.97103e-07
-1.86065e-06
-1.2472e-09
-1.80502e-09
3.90897e-10
-7.02969e-09
0.874653
0.691967
-1.51557e-05
2.29632e-05
-3.27628e-05
7.38155e-07
-1.96163e-08
-1.80045e-08
-8.42774e-10
2.49754e-08
0.000675522
0.27177
0.283802
-3.39494e-05
1.01775e-07
-6.45818e-08
1.76486e-07
-2.25051e-07
0.0508928
0.121945
0.238376
0
-0.000714334
0.193148
0.0111053
0.0763328
-0.00242931
-6.45845e-07
-2.82892e-06
5.70731e-06
9.15363e-07
4.46531e-08
-5.62226e-07
-1.88598e-06
-0.0363922
-0.0136425
0.303521
0.395897
-0.000422819
0.0055194
7.65128e-05
-1.14033e-08
-2.3429e-07
2.80177e-08
5.1933e-07
4.52372e-07
8.9214e-08
6.9092e-08
0.0564668
0.0287381
-1.99995e-06
0.0339324
2.42789e-06
1.41349e-06
0.00380362
0.726233
0.511189
0
0.00788615
-0.0112932
3.1012e-10
-2.97593e-05
1.70408e-05
-1.35326e-05
1.83351e-06
7.47289e-06
-5.18879e-06
0.000764551
-0.00170155
7.91656e-06
1.62552e-06
2.08885e-06
3.1682e-06
-2.28553e-06
-7.68001e-06
2.78086e-05
3.13471e-08
3.37227e-05
-1.71126e-10
0
-1.08324e-09
0.62862
0.408878
0
0
0
0
-3.7095e-08
-6.00954e-08
-1.69625e-06
0.149719
4.08041e-07
-2.28836e-07
8.15883e-07
-3.99525e-08
0
2.15378e-10
1.80768e-09
-8.76096e-09
-2.42849e-09
4.46791e-05
0.00310071
0.00026236
0.000475421
0.00152023
-1.54313e-07
9.17325e-07
-0.00984752
-2.58663e-07
-3.77361e-08
6.56275e-06
0.832347
-0.00028155
7.44428e-10
-0.00558397
7.11177e-10
6.08241e-08
-4.31756e-07
0.212921
0.0757881
2.43929e-05
9.2573e-05
-7.94976e-05
-0.025163
0
-2.57663e-10
0
-1.7999e-10
-1.64554e-06
-9.4288e-07
0
0
0
1.10619e-05
-1.69074e-05
4.01481e-06
0.265699
-3.23449e-08
-2.33711e-06
-1.14931e-09
1.14641e-10
0.00188773
-0.00279152
0.733877
-4.79539e-08
-3.77312e-08
9.01007e-08
-4.58408e-10
2.93957e-10
-6.2954e-09
0.783547
0.815332
2.13634e-07
5.38193e-08
4.95047e-09
-6.89374e-08
-0.00425953
0
0
0.651595
0.565219
0.360801
6.44035e-06
0.00219184
7.56995e-10
9.23137e-10
0.0008409
-1.83368e-07
2.60863e-07
-7.05314e-09
0
-0.00797245
0
-0.0124424
-0.00213548
0.000205987
0.00104591
0.726025
0.186625
-2.03682e-06
-4.56357e-07
1.39939e-06
0.0196885
3.44117e-06
1.21343e-05
7.891e-06
1.39193e-05
0.0248996
-0.000636758
-0.000375864
0.000673582
0
0
0
0
-1.75864e-09
-3.72379e-09
0.0312438
0
0.677953
0.750301
0
0.443699
4.32794e-05
0.00104927
0.000864672
-9.15736e-07
-1.52225e-06
0.00133248
6.71147e-05
4.85587e-05
2.11244e-05
-6.12881e-09
0.0472746
7.05692e-06
-9.17527e-06
1.70055e-05
0.00754582
0.00232883
-0.000547636
-0.00424142
-0.00662907
0.101346
-2.94087e-05
-9.05509e-06
-4.92348e-05
-0.00265676
0.0227053
-0.00104267
-2.84037e-05
-2.69657e-05
-2.51932e-05
0
-1.79819e-05
1.27387e-05
1.22746e-05
3.21154e-05
-1.21228e-06
1.39797e-06
-1.6686e-08
9.95474e-06
-1.38626e-05
1.13209e-05
-7.53493e-07
5.06325e-08
-8.01197e-06
-2.0505e-05
-3.37795e-05
8.62603e-06
3.46555e-06
-3.21426e-06
-2.7666e-08
-2.36033e-08
-5.13702e-09
-2.67952e-09
4.43657e-08
-2.2344e-08
-2.24312e-09
-1.2176e-07
-2.81647e-08
-7.68852e-08
-4.78346e-05
9.21007e-06
0.00023803
-0.000256927
0.000256595
0.00347415
0.0071354
0.0121278
0.0265422
1.4916e-09
-1.51626e-09
-1.87265e-10
-0.00777974
0.00245407
0.00136412
-3.31352e-08
0.0123098
0.314181
-0.000279319
-0.00469505
0.00421069
-0.000588766
-0.000518543
3.39708e-06
0.161825
0.000206182
0.226998
0.00261659
0.425602
9.8955e-06
-1.0594e-05
-0.00113309
0
0
0.00234901
0.00205816
-0.00259885
-1.90483e-07
-3.86279e-09
3.49064e-08
0
0
0
0
0
0.000295514
-7.0501e-05
0.00672622
-0.00363393
0.00607056
0.00487676
0.0156389
0
0.0102482
0.040162
0.844637
0.182828
-9.85367e-06
2.20438e-05
4.67875e-05
0
4.24734e-06
1.30133e-06
-2.70499e-09
2.87301e-09
-5.49347e-09
0.00290316
0.119255
0.00906518
0.0123238
0.0195687
0.000467255
0.00110906
1.6683e-07
-8.13401e-08
1.41186e-07
1.02067e-06
1.01738e-06
-7.80898e-07
0.00278955
-0.00135339
0
-6.59789e-08
5.47286e-08
-0.0028879
-0.00221896
-0.000351864
0.00462678
6.36003e-05
-1.13955e-05
-2.10087e-07
0
0.0938079
0.148005
0.246535
0.452498
0.56347
0
0.689697
-8.15873e-09
-1.22708e-10
2.54422e-10
-8.35163e-09
0
-2.45454e-08
0
5.13426e-09
-6.41051e-08
-6.01712e-09
-0.00185533
0.0592489
0.260985
0.169764
7.39419e-07
0.00211027
-1.64916e-06
0.00169603
-6.57687e-06
-1.4062e-05
-8.62784e-05
6.58167e-06
-1.15405e-05
0.512357
0.295139
0.281987
0.337033
0.824072
0.8111
2.94062e-05
0.0669617
1.61791e-06
-0.00101857
0.000232319
0.000478904
-0.000349605
0.000374286
-0.000477823
-0.000233389
1.77142e-09
1.4659e-09
4.90838e-09
1.53743e-08
0
0
0
0.624535
0.72742
-6.30951e-10
-6.63798e-10
-9.05691e-10
-1.64598e-09
4.23409e-10
-7.69658e-10
-0.000369704
1.57495e-06
2.58985e-06
2.67026e-06
5.23611e-06
-2.31166e-08
-2.96383e-09
-2.49026e-09
4.6865e-09
-4.94537e-09
0.00986426
0.000878947
0.00420012
0.00117481
-6.78251e-05
0.0166601
0.000533544
-5.30038e-07
-2.54737e-10
-1.55921e-06
6.6576e-05
0.00018175
-1.5795e-10
0.00506523
-0.0012901
0.446443
0.594867
1.18711e-10
1.77993e-06
0
-0.000197885
0.000102196
7.56023e-05
-0.0217303
-0.0171465
0
0
0
0
2.13093e-08
-1.25418e-06
-2.82079e-06
-0.00937883
0.0407
-1.3085e-07
7.6421e-08
1.77208e-07
0
0
0
0
0
0
0.226229
0.0503077
-3.54805e-08
-4.33382e-08
4.66561e-08
-3.67265e-08
-3.986e-08
1.7681e-08
-1.73824e-06
1.87274e-05
3.33817e-05
2.81704e-08
-2.52148e-08
0.293073
0.52734
-6.10727e-07
5.77084e-06
-1.55532e-06
-0.000121607
-0.000105715
-0.000123252
-0.000205145
0.000194213
0.00108505
3.92881e-07
2.55848e-07
-2.22224e-07
1.18922e-07
0.00243138
0.000748665
0.000441069
0.00201386
5.093e-05
1.31774e-06
-5.21355e-07
2.37729e-06
0.000140251
1.37916e-05
0.000207295
-1.50831e-05
-7.34957e-06
0.04583
-3.59329e-07
-2.41299e-07
-5.07276e-08
1.12358e-05
9.6618e-10
3.12118e-07
2.15214e-08
-1.95278e-08
4.40064e-08
0.000174331
0.742463
-1.24951e-05
-8.77481e-09
6.42774e-09
-9.80424e-07
1.40571e-07
0.54222
-7.47035e-07
0.00265076
-1.25935e-06
0.0137272
0
0
0
0
0
0
0
0
2.62677e-06
1.43937e-06
-3.61811e-07
-1.17242e-06
-6.25748e-07
-2.42636e-05
3.64329e-05
-2.08428e-06
-4.53638e-05
-0.0173849
2.62391e-06
0.00453833
0.0172083
0.0655227
1.53911e-07
0.000426441
0.0133141
0
0
0
-0.0153668
0.00637928
-4.44767e-08
4.25444e-09
1.49207e-08
5.53823e-07
-4.77659e-08
1.12742e-05
-1.86676e-06
2.25262e-05
-2.31698e-06
-8.02629e-06
0.00994526
6.61797e-05
3.35622e-05
-4.14624e-06
-2.14162e-07
-1.24844e-06
-3.92127e-08
1.55334e-07
2.3615e-07
-8.89621e-07
4.04275e-07
-4.05743e-06
5.37377e-08