# vtk DataFile Version 2.0
Unstructured Grid by M++
ASCII
DATASET UNSTRUCTURED_GRID
POINTS 4072 float
  0.875000   1.000000 0
  0.875000   0.984375 0
  0.875000   0.968750 0
  0.875000   0.953125 0
  0.875000   0.937500 0
  0.875000   0.921875 0
  0.875000   0.906250 0
  0.875000   0.890625 0
  0.875000   0.875000 0
  0.875000   0.859375 0
  0.875000   0.843750 0
  0.875000   0.828125 0
  0.875000   0.812500 0
  0.875000   0.796875 0
  0.875000   0.781250 0
  0.875000   0.765625 0
  0.859375   1.000000 0
  0.859375   0.984375 0
  0.859375   0.968750 0
  0.859375   0.953125 0
  0.859375   0.937500 0
  0.859375   0.921875 0
  0.859375   0.890625 0
  0.859375   0.875000 0
  0.859375   0.859375 0
  0.859375   0.843750 0
  0.859375   0.828125 0
  0.859375   0.812500 0
  0.859375   0.796875 0
  0.859375   0.781250 0
  0.859375   0.765625 0
  0.859375   0.671875 0
  0.859375   0.656250 0
  0.859375   0.640625 0
  0.843750   1.000000 0
  0.843750   0.984375 0
  0.843750   0.968750 0
  0.843750   0.953125 0
  0.843750   0.937500 0
  0.843750   0.921875 0
  0.843750   0.906250 0
  0.843750   0.875000 0
  0.843750   0.859375 0
  0.843750   0.843750 0
  0.843750   0.828125 0
  0.843750   0.812500 0
  0.843750   0.796875 0
  0.843750   0.781250 0
  0.843750   0.765625 0
  0.843750   0.671875 0
  0.843750   0.656250 0
  0.843750   0.640625 0
  0.828125   1.000000 0
  0.828125   0.984375 0
  0.828125   0.968750 0
  0.828125   0.953125 0
  0.828125   0.937500 0
  0.828125   0.921875 0
  0.875000   0.671875 0
  0.812500   0.921875 0
  0.890625   0.656250 0
  0.828125   0.906250 0
  0.875000   0.656250 0
  0.812500   0.906250 0
  0.890625   0.640625 0
  0.828125   0.890625 0
  0.875000   0.640625 0
  0.812500   0.890625 0
  0.890625   0.625000 0
  0.828125   0.875000 0
  0.890625   0.609375 0
  0.828125   0.859375 0
  0.890625   0.593750 0
  0.828125   0.843750 0
  0.890625   0.578125 0
  0.828125   0.828125 0
  0.890625   0.562500 0
  0.828125   0.812500 0
  0.828125   0.796875 0
  0.828125   0.781250 0
  0.828125   0.765625 0
  0.828125   0.671875 0
  0.828125   0.656250 0
  0.828125   0.640625 0
  0.875000   0.750000 0
  0.812500   1.000000 0
  0.875000   0.625000 0
  0.812500   0.875000 0
  0.875000   0.734375 0
  0.812500   0.984375 0
  0.875000   0.718750 0
  0.812500   0.968750 0
  0.875000   0.703125 0
  0.812500   0.953125 0
  0.875000   0.687500 0
  0.812500   0.937500 0
  0.875000   0.609375 0
  0.812500   0.859375 0
  0.875000   0.593750 0
  0.812500   0.843750 0
  0.875000   0.578125 0
  0.812500   0.828125 0
  0.812500   0.812500 0
  0.875000   0.546875 0
  0.812500   0.796875 0
  0.812500   0.781250 0
  0.812500   0.765625 0
  0.859375   0.750000 0
  0.796875   1.000000 0
  0.859375   0.625000 0
  0.796875   0.875000 0
  0.859375   0.734375 0
  0.796875   0.984375 0
  0.859375   0.718750 0
  0.796875   0.968750 0
  0.859375   0.703125 0
  0.796875   0.953125 0
  0.859375   0.687500 0
  0.796875   0.937500 0
  0.859375   0.609375 0
  0.796875   0.859375 0
  0.859375   0.593750 0
  0.796875   0.843750 0
  0.859375   0.578125 0
  0.796875   0.828125 0
  0.859375   0.562500 0
  0.796875   0.812500 0
  0.796875   0.796875 0
  0.859375   0.531250 0
  0.796875   0.781250 0
  0.796875   0.765625 0
  0.843750   0.750000 0
  0.781250   1.000000 0
  0.843750   0.625000 0
  0.781250   0.875000 0
  0.843750   0.734375 0
  0.781250   0.984375 0
  0.843750   0.718750 0
  0.781250   0.968750 0
  0.843750   0.703125 0
  0.781250   0.953125 0
  0.843750   0.687500 0
  0.781250   0.937500 0
  0.843750   0.609375 0
  0.781250   0.859375 0
  0.843750   0.593750 0
  0.781250   0.843750 0
  0.843750   0.578125 0
  0.781250   0.828125 0
  0.781250   0.812500 0
  0.843750   0.546875 0
  0.781250   0.796875 0
  0.781250   0.781250 0
  0.843750   0.515625 0
  0.781250   0.765625 0
  0.828125   0.750000 0
  0.765625   1.000000 0
  0.828125   0.625000 0
  0.765625   0.875000 0
  0.828125   0.734375 0
  0.765625   0.984375 0
  0.828125   0.718750 0
  0.765625   0.968750 0
  0.828125   0.703125 0
  0.765625   0.953125 0
  0.828125   0.687500 0
  0.765625   0.937500 0
  0.828125   0.609375 0
  0.765625   0.859375 0
  0.828125   0.593750 0
  0.765625   0.843750 0
  0.828125   0.578125 0
  0.765625   0.828125 0
  0.828125   0.562500 0
  0.765625   0.812500 0
  0.765625   0.796875 0
  0.828125   0.531250 0
  0.765625   0.781250 0
  0.765625   0.765625 0
  0.812500   0.750000 0
  0.750000   1.000000 0
  0.953125   1.000000 0
  0.812500   0.734375 0
  0.750000   0.984375 0
  0.812500   0.718750 0
  0.750000   0.968750 0
  0.812500   0.703125 0
  0.750000   0.953125 0
  0.812500   0.687500 0
  0.750000   0.937500 0
  0.812500   0.671875 0
  0.750000   0.921875 0
  0.812500   0.656250 0
  0.750000   0.906250 0
  0.812500   0.640625 0
  0.750000   0.890625 0
  0.812500   0.625000 0
  0.750000   0.875000 0
  0.812500   0.609375 0
  0.750000   0.859375 0
  0.812500   0.593750 0
  0.750000   0.843750 0
  0.812500   0.578125 0
  0.750000   0.828125 0
  0.750000   0.812500 0
  0.812500   0.546875 0
  0.750000   0.796875 0
  0.750000   0.781250 0
  0.812500   0.515625 0
  0.750000   0.765625 0
  0.796875   0.750000 0
  0.734375   1.000000 0
  0.796875   0.734375 0
  0.734375   0.984375 0
  0.796875   0.718750 0
  0.734375   0.968750 0
  0.796875   0.703125 0
  0.734375   0.953125 0
  0.796875   0.687500 0
  0.734375   0.937500 0
  0.796875   0.671875 0
  0.734375   0.921875 0
  0.796875   0.656250 0
  0.734375   0.906250 0
  0.796875   0.640625 0
  0.734375   0.890625 0
  0.796875   0.625000 0
  0.734375   0.875000 0
  0.796875   0.609375 0
  0.734375   0.859375 0
  0.796875   0.593750 0
  0.734375   0.843750 0
  0.796875   0.578125 0
  0.734375   0.828125 0
  0.734375   0.812500 0
  0.734375   0.796875 0
  0.796875   0.531250 0
  0.734375   0.781250 0
  0.734375   0.765625 0
  0.781250   0.750000 0
  0.718750   1.000000 0
  0.921875   1.000000 0
  0.781250   0.734375 0
  0.718750   0.984375 0
  0.781250   0.718750 0
  0.718750   0.968750 0
  0.781250   0.703125 0
  0.718750   0.953125 0
  0.859375   0.906250 0
  0.781250   0.687500 0
  0.718750   0.937500 0
  0.781250   0.671875 0
  0.718750   0.921875 0
  0.781250   0.656250 0
  0.718750   0.906250 0
  0.781250   0.640625 0
  0.718750   0.890625 0
  0.781250   0.625000 0
  0.718750   0.875000 0
  0.781250   0.609375 0
  0.718750   0.859375 0
  0.781250   0.593750 0
  0.718750   0.843750 0
  0.781250   0.578125 0
  0.718750   0.828125 0
  0.781250   0.562500 0
  0.718750   0.812500 0
  0.781250   0.546875 0
  0.718750   0.796875 0
  0.781250   0.531250 0
  0.718750   0.781250 0
  0.781250   0.515625 0
  0.718750   0.765625 0
  0.765625   0.750000 0
  0.703125   1.000000 0
  0.765625   0.734375 0
  0.703125   0.984375 0
  0.765625   0.718750 0
  0.703125   0.968750 0
  0.765625   0.703125 0
  0.703125   0.953125 0
  0.765625   0.687500 0
  0.703125   0.937500 0
  0.843750   0.890625 0
  0.703125   0.921875 0
  0.765625   0.656250 0
  0.703125   0.906250 0
  0.765625   0.640625 0
  0.703125   0.890625 0
  0.765625   0.625000 0
  0.703125   0.875000 0
  0.765625   0.609375 0
  0.703125   0.859375 0
  0.765625   0.593750 0
  0.703125   0.843750 0
  0.765625   0.578125 0
  0.703125   0.828125 0
  0.765625   0.562500 0
  0.703125   0.812500 0
  0.765625   0.546875 0
  0.703125   0.796875 0
  0.765625   0.531250 0
  0.703125   0.781250 0
  0.765625   0.515625 0
  0.703125   0.765625 0
  0.750000   0.750000 0
  0.687500   1.000000 0
  0.890625   1.000000 0
  0.750000   0.734375 0
  0.687500   0.984375 0
  0.750000   0.718750 0
  0.687500   0.968750 0
  0.578125   0.796875 0
  0.578125   0.781250 0
  0.578125   0.765625 0
  0.546875   0.953125 0
  0.546875   0.968750 0
  0.546875   0.718750 0
  0.546875   0.687500 0
  0.250000   0.609375 0
  0.937500   0.031250 0
  0.046875   0.703125 0
  0.734375   0.062500 0
  0.734375   0.078125 0
  0.734375   0.046875 0
  0.046875   0.593750 0
  0.046875   0.562500 0
  0.046875   0.531250 0
  0.718750   0.156250 0
  0.046875   0.609375 0
  0.734375   0.031250 0
  0.062500   0.609375 0
  0.234375   0.703125 0
  0.718750   0.125000 0
  0.046875   0.578125 0
  0.734375   0.000000 0
  0.062500   0.578125 0
  0.000000   0.828125 0
  0.234375   0.671875 0
  0.234375   0.625000 0
  0.718750   0.093750 0
  0.687500   0.156250 0
  0.062500   0.546875 0
  0.000000   0.796875 0
  0.718750   0.046875 0
  0.031250   0.687500 0
  0.687500   0.171875 0
  0.500000   1.000000 0
  0.078125   0.218750 0
  0.234375   0.593750 0
  0.718750   0.062500 0
  0.687500   0.125000 0
  0.000000   0.765625 0
  0.421875   0.500000 0
  0.031250   0.593750 0
  0.718750   0.015625 0
  0.687500   0.234375 0
  0.015625   0.812500 0
  0.703125   0.171875 0
  0.703125   0.187500 0
  0.703125   0.140625 0
  0.015625   0.781250 0
  0.437500   0.515625 0
  0.500000   0.796875 0
  0.078125   0.015625 0
  0.687500   0.203125 0
  0.250000   0.578125 0
  0.703125   0.109375 0
  0.000000   0.515625 0
  0.500000   0.765625 0
  0.062500   0.593750 0
  0.750000   0.015625 0
  0.015625   0.843750 0
  0.687500   0.000000 0
  0.500000   0.828125 0
  0.078125   0.046875 0
  0.015625   0.531250 0
  0.250000   0.546875 0
  0.703125   0.078125 0
  0.703125   0.031250 0
  0.015625   0.671875 0
  0.250000   0.515625 0
  0.000000   0.656250 0
  0.500000   0.906250 0
  0.078125   0.125000 0
  0.687500   0.015625 0
  0.031250   0.546875 0
  0.687500   0.031250 0
  0.500000   0.859375 0
  0.703125   0.000000 0
  0.703125   0.046875 0
  0.703125   0.015625 0
  0.500000   0.937500 0
  0.234375   0.531250 0
  0.031250   0.578125 0
  0.687500   0.062500 0
  0.500000   0.890625 0
  0.031250   0.796875 0
  0.453125   0.531250 0
  0.500000   0.968750 0
  0.078125   0.187500 0
  0.234375   0.562500 0
  0.031250   0.609375 0
  0.718750   0.031250 0
  0.687500   0.093750 0
  0.750000   0.046875 0
  0.000000   0.937500 0
  0.421875   0.671875 0
  0.718750   0.187500 0
  0.031250   0.828125 0
  0.765625   0.062500 0
  0.015625   0.953125 0
[...]
CELL_DATA 7648
SCALARS scalar_value float 1
LOOKUP_TABLE default
-1.94817e-10
-3.1254e-10
3.0738e-10
0
3.7446e-09
5.60585e-10
7.88027e-10
-0.0022295
0.0048311
0.00114244
0.00101167
1.34943e-09
-5.71312e-09
1.73749e-09
1.76158e-09
0.000765438
-0.000177581
0.00352349
0.00351589
0
0.0942301
0.370226
0.728301
-1.10159e-05
0.423816
-0.000332001
0.000949763
0.00163711
-0.000134181
0.35179
0.000116169
1.13998e-05
2.19345e-05
1.04006e-06
5.37837e-07
1.45378e-07
-1.34515e-09
1.11985e-06
0.00489928
-0.00634922
5.42359e-07
-0.0061786
0.00111824
1.77524e-07
-4.88627e-10
-4.59887e-05
6.96145e-05
3.20028e-05
6.0956e-06
-1.94123e-05
5.07989e-07
3.38383e-06
0
0
-0.00614546
0.450701
0.633389
0.174297
-0.00043813
1.8851e-08
4.14673e-09
0.000330118
1.02905e-07
0.000117158
-1.25307e-05
0.000135054
0.00178425
0
-3.11317e-06
4.90329e-09
7.0684e-10
1.55886e-09
0
0
-1.30099e-08
0.684644
0.278908
0.320059
0.170674
-0.0175741
-7.74344e-07
0.361978
0.811404
4.12372e-05
0
-7.36472e-07
-4.50366e-09
0.00271453
0.0438491
0.0128104
3.51669e-05
0.0744207
2.99433e-07
-1.0581e-06
1.43012e-06
2.96417e-07
0
8.11612e-09
9.65536e-07
1.13455e-05
9.98872e-06
-6.21649e-09
-2.50844e-09
-2.48853e-09
0.798416
0
2.02243e-05
-2.00562e-05
0.0693492
0.284026
-3.97462e-06
-1.4558e-05
0.601248
0.422906
1.34252e-07
4.83138e-07
0.340529
6.07568e-07
-1.35488e-07
2.18474e-07
2.08173e-07
-0.00117944
0.00275639
2.30232e-08
0
1.49227e-09
-4.13005e-10
0.692863
0.150808
0.108154
0.513689
1.38021e-07
-0.00125979
0.148025
4.43309e-09
3.23832e-09
0.483209
0.757129
0.102477
0.0589218
0
0
1.18029e-07
3.85227e-09
-0.00339696
-6.81917e-08
0
4.72479e-06
0
-0.00206416
-1.28347e-09
5.74641e-10
0.00386016
-6.89756e-09
-0.00474008
1.79516e-09
-1.92707e-09
0.00288052
-0.00286957
0.000456793
0.000918347
0.00197652
0
0
0.000430164
0.00109498
0
0
0
0.00114573
-5.59686e-09
0.00228258
0
0
-0.0023149
0.1625
0.622463
0
-1.01335e-06
-0.00040128
-2.61319e-05
-1.18149e-06
-1.9928e-06
4.02572e-08
-1.55309e-07
-1.14823e-06
7.60307e-06
-0.000681686
-1.19495e-06
-0.00190376
-0.0116957
6.02764e-07
-1.19579e-06
0
0
2.89549e-07
4.44467e-07
-0.018801
0
0
5.91022e-07
4.64612e-07
0.00386105
0.00328472
2.01591e-05
1.56142e-05
0.00184459
0.00253876
-3.22934e-07
-1.83611e-06
-2.80374e-08
-7.85097e-07
0.0018726
0.000516705
-0.000356934
0.370751
0.00207268
0.0349361
0.0251547
0.0977108
0.00496493
-1.14212e-06
0
0.00462958
4.27146e-07
-1.78678e-05
-1.42682e-09
2.4305e-05
1.7397e-05
0.376658
0.193519
0.219194
0.510683
0.00117123
-4.88186e-05
-0.00182457
6.50433e-05
0.00104727
1.6554e-09
0.00042118
0
1.84411e-07
0.0333022
0.514155
0.0700831
0
6.57639e-10
-5.97368e-10
2.60302e-10
0.000698604
-0.00102539
-0.00037124
9.36124e-07
0.000891265
-2.37954e-05
0
-3.26573e-09
1.97072e-08
1.22861e-08
0.22195
3.95915e-09
-6.38191e-10
1.45446e-05
4.27296e-06
1.01216e-05
0.782676
0.656768
1.02703e-10
-1.51109e-09
-0.00120012
0.793085
0
0.51207
0.0545793
0.659579
1.02279e-06
-0.00150623
0.00248391
0.012457
-0.00441972
-0.00383536
-0.00591255
0.000278302
9.31068e-05
1.84573e-05
-5.4743e-06
3.33535e-06
0.128301
0.0373032
-2.46053e-06
4.86405e-06
-1.39175e-06
-9.80248e-07
0.0010449
0.0090986
-0.00323942
9.97587e-05
2.79162e-05
0.182789
-4.23572e-07
-0.0119411
0.00960997
-0.00136167
0.005023
0.00111432
7.58029e-05
-5.36234e-07
0.034142
0.0329235
0.00653509
-4.1233e-10
0.0034194
0.000151152
0.000751317
0.00600425
0.00705306
0.0032365
0.0633946
0.0662223
0.0309747
4.59136e-07
-6.51885e-07
6.52601e-08
6.45946e-07
0
0.000909641
0.000445586
-3.31041e-05
5.36632e-05
-3.59963e-05
-0.045941
0.178149
0
-0.0154935
0.0726681
7.13003e-08
0
-1.76619e-07
1.37718e-07
-2.10806e-08
-0.00159312
0.419011
-0.0142408
-0.0102875
-1.03737e-06
-0.00106091
0.688589
0.812658
-5.13869e-10
0
6.93285e-10
-0.0353806
-0.00142356
0.32953
0.194818
0
3.57765e-07
4.04304e-06
0.134214
-0.0370178
3.84546e-07
3.67376e-08
0.382923
0
4.96735e-05
0.00411329
0.718452
0.745782
0.709594
0.00767427
0.0129782
0
1.81734e-08
0.754696
0.778983
0.148349
-0.0010217
0.138861
0.0155994
0.00481581
-0.0021304
1.29812e-06
-0.0038842
-5.65322e-05
-0.00245601
-0.00762972
-1.2383e-09
-0.00167317
0.00012029
2.01532e-06
0.000556247
6.69463e-05
0.00402256
-0.00238944
-0.00415389
0.155406
0.0154829
-0.000605581
0.000812472
0.00508088
0.00519431
-7.62801e-08
1.40057e-06
-2.95895e-06
1.83302e-05
0
-0.000448694
0.0963699
0.0157773
1.81501e-06
-2.93804e-10
0.212862
0
0.351061
0.163679
1.26392e-07
2.95628e-10
-2.24011e-05
0.000617733
0.00452059
-0.00169474
0.00202829
-6.2299e-06
0.573476
7.3015e-10
0.00555606
-0.00666746
-1.04715e-05
0.000353929
-1.53533e-08
-8.53329e-09
0.000857107
0
0.218226
0.626721
3.24224e-06
-1.87134e-06
0
0
0
1.11554e-08
8.59192e-06
-0.0081101
-0.000181881
0
0
0.0928811
4.60555e-09
0
-3.12606e-10
0
8.46448e-05
-0.000685261
-2.82008e-10
1.0171e-06
8.33076e-07
0
0.0427076
-1.17129e-06
0.00027749
0.0398842
4.33178e-06
3.19301e-06
1.28115e-05
-0.0310512
3.69327e-10
-2.41313e-07
0.00162697
-2.76943e-06
-1.68103e-10
0.198147
-0.00115713
0.00170485
0
-2.35347e-08
0.632167
7.83238e-09
0
1.02605e-07
-2.68614e-08
0
-0.000103571
0.0389047
-0.000936982
-5.06623e-07
9.90927e-08
0
1.61299e-08
-3.30522e-08
0.0824858
2.30811e-07
3.80455e-08
0
-4.06327e-08
-1.75292e-10
7.34414e-05
-1.35646e-06
3.20639e-06
-4.43949e-08
0
0.0448947
-2.57092e-06
1.36686e-05
1.98978e-06
-1.94553e-07
5.75495e-08
7.33132e-06
-1.59682e-05
3.16571e-05
3.98122e-05
3.88e-05
2.66272e-05
2.75036e-07
-1.57008e-10
0.214711
0.485088
0
-0.00392742
-0.00906805
1.24862e-06
-1.4893e-10
0.844164
0
-3.36282e-05
2.7037e-06
-2.72142e-07
0
0
0.693193
-7.59014e-05
0
9.81942e-08
2.103e-06
0.379521
0.199369
0
-7.37652e-09
0
-7.45448e-07
0.478326
2.02704e-09
0
-0.00574446
-3.18791e-06
-2.00005e-07
0.80397
0.880117
-9.92652e-10
0.000400273
-0.00356751
0.000764467
0.000905926
0.00484497
-0.0204896
0.00717226
0.00644078
5.8594e-08
-0.00666823
0.000171549
-0.00249728
-1.27382e-10
0.00085144
-0.00359389
1.60562e-05
7.96421e-05
0.00214172
-8.43701e-05
0.00454837
-3.06331e-05
1.29099e-09
0
-0.00391234
-1.24859e-07
0.0133771
-0.00763568
0.0414556
0.00985007
0
0.196615
0
0.00207316
0.113526
0.435767
-0.00275449
6.85577e-07
0.832618
0.0197137
-0.000370199
0.279436
7.53946e-07
1.59255e-08
2.96505e-07
0.00564806
-7.24475e-10
0
0
0.020253
-9.97377e-10
0.00154463
0.439122
0
1.86936e-06
-1.66267e-05
2.90058e-05
-6.73306e-06
0.000273539
0
-2.74606e-08
0.00201246
0.000736671
0.00118131
0.281139
0
0.000211416
0.00234258
0.00317856
0.00184867
0.00798508
0.66386
0.512115
-1.84787e-05
-0.00492574
0.84473
0.00697793
0.802632
-0.00315374
0.00556063
-0.00187884
-0.00340814
0.126121
-0.00225582
-5.73589e-07
4.44079e-08
-0.0303074
-7.67419e-07
-2.20895e-07
0.507907
7.66424e-09
-4.31654e-08
0.00266597
8.21078e-06
0.00370621
1.66038e-06
-1.28389e-09
0.0207785
2.38986e-06
-2.09858e-05
0.00798868
0.00136984
-1.35035e-05
0.000659214
-1.35653e-07
-1.94624e-05
0.365754
0.272528
7.44722e-06
-3.72743e-05
0.150486
8.1975e-08
0.44626
7.62147e-10
0.0658629
1.84088e-09
0.000891602
0.172173
0.0223287
-0.000197877
4.36512e-09
0.000227598
0.00011587
0.227685
0.00341308
0
-2.01533e-08
0.000139
-0.000246312
0.0693659
0.13651
0.000572025
0
5.31611e-05
0.0683563
0.114351
0.805566
7.05759e-09
1.49213e-05
-0.000122121
-0.000478364
1.95673e-05
-4.77081e-06
0.0197386
2.2165e-09
-5.52619e-10
0.0016193
0.0151405
0.227317
0.471647
1.50327e-09
1.8296e-07
0
0.0027095
0
0.200727
0.00204934
-0.00013772
0
0
0
-2.46496e-06
-0.00027067
0.281753
6.57471e-05
-0.0409605
0.111938
-0.0605239
0.0043306
-0.00113576
0.00593936
-0.000775619
-8.27708e-07
0.000506359
-0.000305731
-4.83651e-05
5.54569e-05
-1.6008e-09
0.172805
0.156064
0.0279232
0.0147472
0.714643
7.06803e-06
-6.31441e-06
4.34672e-10
1.23854e-05
0
4.42384e-06
0
-1.04544e-07
4.44816e-06
-1.08709e-05
-0.00116043
-0.000896754
-4.05235e-07
0
0.355573
1.1505e-07
0.0764035
-0.00463506
0
0.410523
0
0.000312826
7.98831e-05
-1.65559e-08
-2.52897e-09
2.82517e-05
3.61352e-08
0.585406
0.703925
-1.38071e-09
0.740546
0
3.08413e-07
0.783965
-1.22048e-06
3.22721e-07
3.80718e-06
-4.60209e-10
-3.30899e-07
-4.57281e-06
-3.87697e-08
-1.49545e-07
-1.1815e-06
9.76452e-10
6.91127e-08
-0.00262111
1.03022e-09
-2.93847e-08
-1.3387e-08
5.46908e-06
-9.41893e-07
1.36632e-09
0
2.8022e-08
-8.4106e-05
-6.06085e-06
3.3161e-08
9.58782e-07
0.238797
0
1.31055e-05
0
0.369321
0.237433
6.76921e-08
-0.00399283
0.169224
0.727044
0.798473
-3.41356e-06
0
0.0983636
-0.000158858
0.0781426
2.02862e-05
-0.0173857
0.472013
0.0194305
0.000483799
-3.3605e-05
0.52642
0.26961
0.000340403
0.0627624
0.00036654
0
0.173956
2.56902e-09
0.0991574
-1.63304e-09
-6.62832e-10
7.19918e-10
0.445493
0.214687
0
4.71515e-10
0
0.172213
2.33819e-10
0
0.000130376
0.00574515
-0.00430443
0
4.21253e-06
0
0.00371248
0.663951
1.61648e-08
2.06127e-09
7.00198e-05
4.11949e-05
-2.37349e-06
-5.8067e-10
0.11902
-1.78365e-05
0
0.519475
-1.20495e-05
0
9.53729e-07
6.37408e-10
-6.34085e-06
0.00290216
0.00430158
0.0306213
1.11036e-06
3.77646e-07
-0.0016086
0.0103392
-0.00985303
0.0594448
0.709596
1.98987e-05
-0.0181412
-3.10358e-06
1.34216e-05
-1.05041e-05
9.73459e-06
-7.65474e-08
3.778e-07
-2.76274e-06
2.09887e-05
0.000435235
-2.66929e-06
1.37146e-09
0
9.02524e-10
0.000575951
-1.19295e-09
-1.07668e-09
0
-0.0802334
2.09154e-06
-8.34728e-09
-2.8505e-10
0.000208988
-0.000622764
-5.30363e-10
0.0175014
0.654537
0.0337699
3.66187e-06
0.000142098
-1.34137e-07
-1.4903e-08
0.00953848
0
0
-0.000255112
0
-6.84569e-10
0.000694116
5.25972e-10
2.11121e-06
-0.0012176
-0.000808017
0.000609932
2.6829e-06
-0.00249359
-0.00149204
0
0
0
0.186216
2.16488e-07
0
0
0
0
0.000119906
0
-1.21763e-10
-0.000516859
0
1.8492e-10
-0.000466634
-3.00174e-09
7.23843e-05
0.000316531
0
0.631041
0.389446
1.64973e-06
0.715335
0
0.368792
0.00371689
0.0097801
0
-9.11375e-09
0
0.228396
-4.76965e-06
0
0.000816429
-1.12656e-05
-1.78042e-05
3.77243e-05
8.96661e-07
6.14534e-07
9.25779e-07
-0.00775016
-0.00313343
-0.00134261
0.786446
0
0
-0.00904477
1.95363e-06
1.3371e-06
6.04617e-07
1.8315e-06
8.55615e-07
0
3.43117e-06
0.00315445
2.83788e-09
-0.0127758
0
4.82816e-10
3.44134e-06
0.0872598
-1.27636e-10
-0.00858361
3.46216e-05
-1.51818e-05
0
0.513773
0.378013
5.93484e-05
1.56757e-08
-8.75614e-08
2.65286e-08
6.09682e-08
0.672168
0.756368
-3.57039e-09
-7.73302e-09
0.78818
7.3908e-09
-1.87335e-07
0.00173321
-0.00999496
0
-5.84564e-08
1.84437e-05
2.98929e-05
1.90887e-10
-8.59167e-07
4.12662e-08
1.12146e-05
2.04211e-05
0
0
7.67339e-06
1.54403e-05
-1.18516e-08
-7.54976e-09
7.62146e-09
-2.27627e-08
-2.92291e-05
-2.28034e-10
-7.87644e-09
0.02623
0.00689961
0.127192
0
0
-1.8896e-10
2.90281e-05
0.102393
3.97607e-06
0.000152585
1.27582e-09
-9.76214e-09
5.49555e-09
4.7059e-10
-0.000395488
4.01875e-08
8.01288e-10
-3.94301e-09
1.98995e-05
0.00748596
-1.0649e-10
0
0.0370811
-4.07262e-07
1.45843e-07
-2.29041e-07
-0.000850488
0.129545
-7.71018e-05
0.0012903
4.27376e-06
0.0108101
-0.0119663
-6.48048e-07
0.692012
0.00110407
5.1144e-08
-7.64716e-07
-2.30034e-05
6.04986e-07
-6.56032e-07
-0.0129382
0
5.69734e-08
0
0
1.9861e-06
0
-1.21247e-08
8.83452e-08
0
-1.79064e-06
-0.000178629
2.0856e-08
1.41467e-07
5.13278e-06
-0.0146175
8.64024e-10
-0.0079016
0.181423
8.9208e-08
0
-2.45922e-07
-6.05553e-08
0.190763
0.00964146
0.00167271
-3.46859e-07
3.33715e-08
0
0.790718
1.28184e-06
0.0359635
0
0.579956
4.57791e-07
-5.72469e-09
-4.75282e-08
-1.22564e-08
0
-8.74737e-10
-0.00303202
0.00176756
-0.00172957
0.000381229
0.000266609
0.000971134
3.79255e-05
0.00891327
-4.28251e-10
0.423383
0
0.124714
0
0.0630404
0.313574
0.675474
0
7.56896e-05
0.00240491
-2.20449e-08
1.41475e-05
0
-0.00567207
3.72684e-09
0
0
6.94537e-09
0.00428724
0.128326
0
0
0
0
0.000352865
1.6658e-06
-1.00986e-06
3.74002e-06
4.93565e-05
6.07842e-05
-9.74084e-07
-7.56417e-08
4.38264e-09
-8.9183e-08
-6.57683e-08
-4.33773e-08
-4.50313e-08
0
0
0
0
0.316539
-0.0124518
-0.0256337
0.00539167
0
-1.01584e-06
-1.03812e-06
1.7103e-06
1.38185e-05
0.810222
-0.0200339
0
-0.00612361
0
-2.5167e-07
3.73126e-07
2.95741e-06
7.71124e-07
-5.9404e-08
9.82115e-05
-0.000845268
-4.52698e-08
-4.71316e-08
-0.000339287
0.00370758
0.00401804
3.52295e-08
5.43751e-08
-4.25047e-08
9.15999e-08
0.0156901
0.016129
0.0383761
-0.00012634
-1.1714e-05
7.02192e-05
-1.91879e-05
0.0055474
0.00124035
0.00452912
0.00726255
-6.98929e-05
-8.51444e-05
-8.41086e-05
4.70649e-05
6.17712e-06
-2.91532e-05
-1.22608e-06
-2.31464e-05
0
0
0
1.01873e-05
0.000248483
0.00845852
0.46098
0.103429
-0.0362685
0
-0.0135733
-3.87135e-08
0.00012003
4.46024e-05
7.26582e-05
-8.24617e-05
3.31701e-05
0.00031947
0
0.390019
2.3504e-06
-1.45378e-05
-2.69149e-06
4.01254e-05
0
0.838897
-6.1019e-06
-1.12982e-05
-1.79997e-05
-2.02806e-05
6.88457e-08
2.07019e-08
-1.18359e-07
8.55294e-07
6.05742e-08
-8.0475e-08
2.85474e-07
-6.81112e-07
-1.48789e-06
1.19232e-06
0
0.118421
0.03622
0.24398
-0.0216787
-0.0131774
0
-0.0425807
-0.0012301
-1.55384e-06
0
1.29819e-09
3.72798e-09
-4.04277e-09
0.0795229
0
-2.86565e-07
-0.00195828
0.147052
-0.0236842
0
0.533259
0
-4.73396e-09
-8.05375e-09
-7.72386e-09
0.21275
0
-6.50849e-07
8.78685e-07
-2.64074e-07
0
0
0
0
0.0105281
0.00455078
-0.00400605
2.75573e-06
-3.94076e-05
-9.00183e-06
0.000147322
-1.4263e-06
0.00479131
4.40681e-09
1.21246e-09
-4.22489e-09
1.268e-09
1.25331e-06
-1.20382e-07
0
0.829473
0
0
0.424986
-6.22539e-10
0.000751479
-0.000447357
-0.000200018
-4.13977e-07
-1.70526e-05
-1.30281e-07
3.20097e-08
1.28745e-08
-6.21162e-10
-1.90984e-09
0
6.03953e-10
6.12063e-06
0.626209
0.507094
3.74161e-10
-1.82324e-06
-1.33131e-06
-1.87357e-10
-1.26971e-10
1.08568e-10
-7.03739e-10
0.743623
0.854652
-3.91765e-06
3.80494e-06
-7.71886e-06
7.8774e-07
-6.75136e-09
-8.64449e-09
5.76147e-09
-2.30823e-08
0.000105809
0.235443
0.343821
-2.50062e-05
1.49251e-08
-4.75186e-09
1.73644e-08
-3.11847e-08
0.00727152
0.0235843
0.0635759
0
-0.00788045
0.190265
0.00163893
0.104007
-0.00634904
-5.56214e-09
-1.21359e-06
3.91895e-06
6.69622e-07
1.40527e-07
1.58226e-06
4.33752e-07
-0.0368316
-0.00286015
0.614527
0.691786
-0.0110588
0.000127807
5.14638e-05
-5.62197e-09
-5.03544e-08
-1.37133e-08
8.05132e-08
-4.95326e-09
3.57203e-09
-7.71115e-08
0.00857216
0.00215355
-1.78552e-06
0.0525565
2.05777e-06
-3.93574e-06
0.00206366
0.832721
0.778366
0
0.024864
-0.0155121
0
-4.2965e-06
1.86625e-06
-1.70486e-06
2.53039e-07
6.44005e-07
-4.86634e-07
-8.34351e-05
-0.00200609
7.88425e-06
9.8843e-08
2.87461e-07
5.33514e-07
-3.35133e-07
-1.13226e-06
2.29158e-06
-6.4421e-09
3.94467e-07
0
0
0
0.835637
0.714019
0
0
0
0
-5.31941e-08
-2.12953e-08
6.6639e-07
0.0318949
-8.78128e-09
-7.53736e-08
6.2684e-08
-1.10721e-07
0
0
0
1.50521e-09
-1.02895e-09
-0.000112919
-0.00183296
0.00037618
0.000720913
0.000612771
-9.95341e-08
1.91246e-07
-0.0127597
-1.04759e-07
1.27926e-09
9.66205e-06
0.613857
-6.19037e-05
0
-0.0121281
2.9204e-10
-8.58403e-10
-3.96516e-08
0.34513
0.143257
-1.59184e-06
6.44359e-05
-6.37241e-05
-0.00652279
0
0
0
0
-2.44021e-07
-3.01421e-07
0
0
0
1.00582e-05
-9.19076e-06
2.4032e-06
0.0738637
-3.3572e-09
1.36807e-07
-1.74516e-10
0
9.66205e-06
-0.00122551
0.799978
-4.59146e-09
-3.05483e-09
8.68976e-09
0
0
-4.78842e-10
0.585798
0.650599
1.68389e-08
3.89381e-09
3.86614e-10
-1.29395e-09
-0.00205096
0
0
0.838053
0.81299
0.675978
-8.7057e-07
0.00208692
2.48733e-10
1.28026e-09
0.000612746
-2.22955e-06
-1.18664e-09
-2.70114e-10
0
0.0141862
0
-0.0112332
0.000171673
1.25719e-06
3.44979e-05
0.423765
0.0695026
-6.42187e-07
-1.4953e-07
3.40216e-07
0.144825
-1.02098e-06
3.52965e-06
2.3932e-06
9.85961e-06
0.0492553
-0.000424887
-0.000117335
0.000345108
0
0
0
0
-2.76265e-10
-6.51458e-10
0.0520797
0
0.853748
0.843212
0
0.751837
3.57999e-05
0.00152186
0.00102302
-2.95586e-07
-6.6522e-07
0.00158857
9.30912e-06
-2.51349e-06
-4.77628e-06
-6.31844e-10
0.284178
1.54452e-06
-1.03199e-06
3.69558e-06
0.0719845
0.0386315
0.000630564
0.00211081
-0.0038924
0.267571
-3.76715e-06
-1.08639e-06
-1.04594e-05
0.00997456
0.0658782
0.0214696
-4.59545e-06
-1.67184e-06
-7.70523e-06
0
3.90675e-06
3.29389e-06
-6.4837e-06
-8.23685e-06
-7.56139e-07
3.58023e-08
8.67927e-07
8.88308e-06
-7.43661e-06
3.29315e-07
1.16258e-07
8.66004e-09
-1.41341e-05
-6.18671e-06
-1.20498e-05
9.99846e-06
1.8213e-06
-6.16053e-07
-2.63096e-08
-1.06883e-08
-2.42205e-09
-7.08196e-09
1.114e-08
-2.73544e-08
-1.3744e-09
-1.26639e-07
-1.46326e-08
-9.66132e-09
-2.73268e-05
5.90571e-05
-3.36094e-05
-1.93662e-05
0.000103578
-0.000695513
0.00140016
0.00103178
0.00129189
5.755e-10
-6.91681e-10
-3.34004e-10
-0.0086576
0.00054115
0.00547244
1.36529e-09
0.000839073
0.0961926
-0.00145376
-0.00015543
0.00373542
-0.000680353
-0.000938709
-1.18116e-05
0.0336969
-4.27687e-05
0.20227
0.000389822
0.395787
4.95664e-06
-3.36457e-06
-0.000495431
0
0
0.000631773
0.00192237
-0.001809
-2.24849e-08
1.06863e-09
2.07901e-09
0
0
0
0
0
-2.47497e-05
-0.000106436
0.0104801
-0.0131553
0.000646266
-0.000149777
0.00193156
0
0.00182729
0.00673496
0.635152
0.215045
6.49414e-08
1.08811e-06
1.09149e-05
0
3.91907e-07
7.85578e-07
-7.64642e-10
-1.12512e-09
-1.59075e-09
0.00014889
0.0218492
0.000788796
0.00127895
0.00172397
0.000470348
0.000489433
3.2256e-08
-1.73554e-08
1.31826e-08
-8.35032e-08
1.34384e-07
-1.0099e-07
0.000983661
-0.000833928
0
-6.95286e-09
7.62096e-09
-5.7909e-05
-7.69584e-05
-0.00217209
0.00120215
7.01255e-05
-3.2009e-05
3.5115e-09
0
0.0171091
0.0307436
0.0631042
0.17766
0.255692
0
0.384354
-5.8321e-10
0
0
-1.12769e-09
1.90961e-10
-9.66526e-10
0
3.92899e-10
-4.45104e-09
-3.56086e-10
0.000274218
0.0105841
0.0796171
0.048709
1.70186e-07
0.00064197
-1.16816e-06
0.00123608
-1.99413e-06
-2.02959e-06
-5.33754e-06
-1.54823e-05
-3.19844e-05
0.678885
0.607585
0.441265
0.507367
0.623911
0.801785
1.50948e-05
0.0139497
-6.67833e-08
-0.00150311
0.000588053
0.000619758
-0.000251636
0.000132003
-9.40452e-05
-0.000206626
1.22254e-10
1.99576e-10
5.29063e-10
2.22062e-09
0
0
0
0.870818
0.538303
0
0
-4.37845e-10
-5.19419e-10
6.64425e-10
-1.31965e-09
-0.000121585
-9.88563e-08
-1.62116e-07
1.01355e-06
3.34002e-07
2.09154e-08
-2.09638e-09
-6.51279e-10
2.09214e-09
-1.90288e-09
0.0113792
-0.00174829
0.00198163
-0.00278752
-5.52175e-05
0.010872
0.00143881
1.01834e-07
0
-4.28411e-07
2.26591e-06
-1.47929e-05
0
0.0016778
-0.0142827
0.169575
0.281388
0
2.94343e-06
-1.99572e-07
-2.71443e-05
0.000131321
5.508e-05
-0.0222198
-0.0207808
0
0
0
0
6.28996e-08
-4.55083e-08
-3.23734e-06
-0.00713677
0.0700774
-3.81252e-08
-3.91703e-08
-4.64492e-08
0
0
0
0
0
0
0.51984
0.236
-2.38961e-08
-1.61391e-08
1.38528e-08
-1.26463e-08
7.28028e-09
-2.02824e-08
-1.58982e-06
1.14629e-05
2.8418e-05
6.92093e-09
-6.45905e-09
0.0878564
0.227563
1.05169e-07
6.42606e-07
-2.04264e-07
-4.67122e-05
-3.56927e-05
-7.55529e-05
5.28996e-05
-4.05216e-05
1.16627e-05
4.60361e-08
3.96948e-08
-3.23027e-08
1.26916e-08
0.00189364
-0.000316164
0.000863126
0.00170737
-1.47293e-05
-4.01218e-07
-5.84645e-07
1.45129e-06
1.19885e-05
1.01723e-06
4.65426e-06
1.95574e-05
-4.39619e-07
0.0750002
-6.76999e-08
-3.30793e-08
-6.29091e-09
4.5063e-06
8.24017e-08
3.65453e-08
-5.11766e-09
4.69396e-09
-2.74809e-09
5.79139e-06
0.452489
6.96558e-06
-3.05834e-10
1.20931e-09
-2.08496e-07
1.95867e-08
0.314379
-1.3203e-07
0.00112869
-3.51239e-07
0.0024019
0
0
0
0
0
0
0
0
1.86092e-07
-1.03444e-07
5.3061e-08
-6.17723e-07
-3.09597e-07
-1.32315e-05
6.0602e-05
6.09979e-05
-6.18675e-05
-0.00211719
1.1749e-06
0.000399733
0.00201375
0.00781885
1.72338e-08
-9.81074e-05
0.00156817
0
0
0
0.0699656
0.0653717
-5.2398e-09
7.59698e-10
5.7332e-09
-3.52199e-08
3.408e-08
4.21255e-07
2.19559e-07
3.19899e-06
1.43291e-06
-5.50038e-07
0.0714227
6.1911e-05
5.66668e-05
-4.3128e-05
-3.01239e-08
1.32419e-08
2.21421e-07
4.47669e-08
-1.30771e-07
-7.30488e-09
1.19886e-08
-2.70282e-07
-3.759e-07
-1.52774e-06
6.47086e-06
5.83959e-06
-5.86074e-10
1.43811e-10
-1.211e-10
0
0
0
-2.25796e-07
-1.32987e-06
-6.9118e-07
-1.00677e-07
-1.25732e-09
-3.37604e-09
-2.56553e-10
0.000194539
-0.00321767
-0.00318578
-0.00192994
-0.00139358
-0.000829358
0.000227767
-2.3117e-05
-0.000972901
-0.00144047
-0.00191563
-0.000872432
0.00345077
0.0104839
0.0186479
0.0252487
0.0276427
0.0276195
0.0261115
0.0226142
0.0187217
0.0155497
0.0198925
0.0318586
0.0384218
0.0349343