# vtk DataFile Version 2.0
Unstructured Grid by M++
ASCII
DATASET UNSTRUCTURED_GRID
POINTS 4072 float
  0.875000   1.000000 0
  0.875000   0.984375 0
  0.875000   0.968750 0
  0.875000   0.953125 0
  0.875000   0.937500 0
  0.875000   0.921875 0
  0.875000   0.906250 0
  0.875000   0.890625 0
  0.875000   0.875000 0
  0.875000   0.859375 0
  0.875000   0.843750 0
  0.875000   0.828125 0
  0.875000   0.812500 0
  0.875000   0.796875 0
  0.875000   0.781250 0
  0.875000   0.765625 0
  0.859375   1.000000 0
  0.859375   0.984375 0
  0.859375   0.968750 0
  0.859375   0.953125 0
  0.859375   0.937500 0
  0.859375   0.921875 0
  0.859375   0.890625 0
  0.859375   0.875000 0
  0.859375   0.859375 0
  0.859375   0.843750 0
  0.859375   0.828125 0
  0.859375   0.812500 0
  0.859375   0.796875 0
  0.859375   0.781250 0
  0.859375   0.765625 0
  0.859375   0.671875 0
  0.859375   0.656250 0
  0.859375   0.640625 0
  0.843750   1.000000 0
  0.843750   0.984375 0
  0.843750   0.968750 0
  0.843750   0.953125 0
  0.843750   0.937500 0
  0.843750   0.921875 0
  0.843750   0.906250 0
  0.843750   0.875000 0
  0.843750   0.859375 0
  0.843750   0.843750 0
  0.843750   0.828125 0
  0.843750   0.812500 0
  0.843750   0.796875 0
  0.843750   0.781250 0
  0.843750   0.765625 0
  0.843750   0.671875 0
  0.843750   0.656250 0
  0.843750   0.640625 0
  0.828125   1.000000 0
  0.828125   0.984375 0
  0.828125   0.968750 0
  0.828125   0.953125 0
  0.828125   0.937500 0
  0.828125   0.921875 0
  0.875000   0.671875 0
  0.812500   0.921875 0
  0.890625   0.656250 0
  0.828125   0.906250 0
  0.875000   0.656250 0
  0.812500   0.906250 0
  0.890625   0.640625 0
  0.828125   0.890625 0
  0.875000   0.640625 0
  0.812500   0.890625 0
  0.890625   0.625000 0
  0.828125   0.875000 0
  0.890625   0.609375 0
  0.828125   0.859375 0
  0.890625   0.593750 0
  0.828125   0.843750 0
  0.890625   0.578125 0
  0.828125   0.828125 0
  0.890625   0.562500 0
  0.828125   0.812500 0
  0.828125   0.796875 0
  0.828125   0.781250 0
  0.828125   0.765625 0
  0.828125   0.671875 0
  0.828125   0.656250 0
  0.828125   0.640625 0
  0.875000   0.750000 0
  0.812500   1.000000 0
  0.875000   0.625000 0
  0.812500   0.875000 0
  0.875000   0.734375 0
  0.812500   0.984375 0
  0.875000   0.718750 0
  0.812500   0.968750 0
  0.875000   0.703125 0
  0.812500   0.953125 0
  0.875000   0.687500 0
  0.812500   0.937500 0
  0.875000   0.609375 0
  0.812500   0.859375 0
  0.875000   0.593750 0
  0.812500   0.843750 0
  0.875000   0.578125 0
  0.812500   0.828125 0
  0.812500   0.812500 0
  0.875000   0.546875 0
  0.812500   0.796875 0
  0.812500   0.781250 0
  0.812500   0.765625 0
  0.859375   0.750000 0
  0.796875   1.000000 0
  0.859375   0.625000 0
  0.796875   0.875000 0
  0.859375   0.734375 0
  0.796875   0.984375 0
  0.859375   0.718750 0
  0.796875   0.968750 0
  0.859375   0.703125 0
  0.796875   0.953125 0
  0.859375   0.687500 0
  0.796875   0.937500 0
  0.859375   0.609375 0
  0.796875   0.859375 0
  0.859375   0.593750 0
  0.796875   0.843750 0
  0.859375   0.578125 0
  0.796875   0.828125 0
  0.859375   0.562500 0
  0.796875   0.812500 0
  0.796875   0.796875 0
  0.859375   0.531250 0
  0.796875   0.781250 0
  0.796875   0.765625 0
  0.843750   0.750000 0
  0.781250   1.000000 0
  0.843750   0.625000 0
  0.781250   0.875000 0
  0.843750   0.734375 0
  0.781250   0.984375 0
  0.843750   0.718750 0
  0.781250   0.968750 0
  0.843750   0.703125 0
  0.781250   0.953125 0
  0.843750   0.687500 0
  0.781250   0.937500 0
  0.843750   0.609375 0
  0.781250   0.859375 0
  0.843750   0.593750 0
  0.781250   0.843750 0
  0.843750   0.578125 0
  0.781250   0.828125 0
  0.781250   0.812500 0
  0.843750   0.546875 0
  0.781250   0.796875 0
  0.781250   0.781250 0
  0.843750   0.515625 0
  0.781250   0.765625 0
  0.828125   0.750000 0
  0.765625   1.000000 0
  0.828125   0.625000 0
  0.765625   0.875000 0
  0.828125   0.734375 0
  0.765625   0.984375 0
  0.828125   0.718750 0
  0.765625   0.968750 0
  0.828125   0.703125 0
  0.765625   0.953125 0
  0.828125   0.687500 0
  0.765625   0.937500 0
  0.828125   0.609375 0
  0.765625   0.859375 0
  0.828125   0.593750 0
  0.765625   0.843750 0
  0.828125   0.578125 0
  0.765625   0.828125 0
  0.828125   0.562500 0
  0.765625   0.812500 0
  0.765625   0.796875 0
  0.828125   0.531250 0
  0.765625   0.781250 0
  0.765625   0.765625 0
  0.812500   0.750000 0
  0.750000   1.000000 0
  0.953125   1.000000 0
  0.812500   0.734375 0
  0.750000   0.984375 0
  0.812500   0.718750 0
  0.750000   0.968750 0
  0.812500   0.703125 0
  0.750000   0.953125 0
  0.812500   0.687500 0
  0.750000   0.937500 0
  0.812500   0.671875 0
  0.750000   0.921875 0
  0.812500   0.656250 0
  0.750000   0.906250 0
  0.812500   0.640625 0
  0.750000   0.890625 0
  0.812500   0.625000 0
  0.750000   0.875000 0
  0.812500   0.609375 0
  0.750000   0.859375 0
  0.812500   0.593750 0
  0.750000   0.843750 0
  0.812500   0.578125 0
  0.750000   0.828125 0
  0.750000   0.812500 0
  0.812500   0.546875 0
  0.750000   0.796875 0
  0.750000   0.781250 0
  0.812500   0.515625 0
  0.750000   0.765625 0
  0.796875   0.750000 0
  0.734375   1.000000 0
  0.796875   0.734375 0
  0.734375   0.984375 0
  0.796875   0.718750 0
  0.734375   0.968750 0
  0.796875   0.703125 0
  0.734375   0.953125 0
  0.796875   0.687500 0
  0.734375   0.937500 0
  0.796875   0.671875 0
  0.734375   0.921875 0
  0.796875   0.656250 0
  0.734375   0.906250 0
  0.796875   0.640625 0
  0.734375   0.890625 0
  0.796875   0.625000 0
  0.734375   0.875000 0
  0.796875   0.609375 0
  0.734375   0.859375 0
  0.796875   0.593750 0
  0.734375   0.843750 0
  0.796875   0.578125 0
  0.734375   0.828125 0
  0.734375   0.812500 0
  0.734375   0.796875 0
  0.796875   0.531250 0
  0.734375   0.781250 0
  0.734375   0.765625 0
  0.781250   0.750000 0
  0.718750   1.000000 0
  0.921875   1.000000 0
  0.781250   0.734375 0
  0.718750   0.984375 0
  0.781250   0.718750 0
  0.718750   0.968750 0
  0.781250   0.703125 0
  0.718750   0.953125 0
  0.859375   0.906250 0
  0.781250   0.687500 0
  0.718750   0.937500 0
  0.781250   0.671875 0
  0.718750   0.921875 0
  0.781250   0.656250 0
  0.718750   0.906250 0
  0.781250   0.640625 0
  0.718750   0.890625 0
  0.781250   0.625000 0
  0.718750   0.875000 0
  0.781250   0.609375 0
  0.718750   0.859375 0
  0.781250   0.593750 0
  0.718750   0.843750 0
  0.781250   0.578125 0
  0.718750   0.828125 0
  0.781250   0.562500 0
  0.718750   0.812500 0
  0.781250   0.546875 0
  0.718750   0.796875 0
  0.781250   0.531250 0
  0.718750   0.781250 0
  0.781250   0.515625 0
  0.718750   0.765625 0
  0.765625   0.750000 0
  0.703125   1.000000 0
  0.765625   0.734375 0
  0.703125   0.984375 0
  0.765625   0.718750 0
  0.703125   0.968750 0
  0.765625   0.703125 0
  0.703125   0.953125 0
  0.765625   0.687500 0
  0.703125   0.937500 0
  0.843750   0.890625 0
  0.703125   0.921875 0
  0.765625   0.656250 0
  0.703125   0.906250 0
  0.765625   0.640625 0
  0.703125   0.890625 0
  0.765625   0.625000 0
  0.703125   0.875000 0
  0.765625   0.609375 0
  0.703125   0.859375 0
  0.765625   0.593750 0
  0.703125   0.843750 0
  0.765625   0.578125 0
  0.703125   0.828125 0
  0.765625   0.562500 0
  0.703125   0.812500 0
  0.765625   0.546875 0
  0.703125   0.796875 0
  0.765625   0.531250 0
  0.703125   0.781250 0
  0.765625   0.515625 0
  0.703125   0.765625 0
  0.750000   0.750000 0
  0.687500   1.000000 0
  0.890625   1.000000 0
  0.750000   0.734375 0
  0.687500   0.984375 0
  0.750000   0.718750 0
  0.687500   0.968750 0
  0.578125   0.796875 0
  0.578125   0.781250 0
  0.578125   0.765625 0
  0.546875   0.953125 0
  0.546875   0.968750 0
  0.546875   0.718750 0
  0.546875   0.687500 0
  0.250000   0.609375 0
  0.937500   0.031250 0
  0.046875   0.703125 0
  0.734375   0.062500 0
  0.734375   0.078125 0
  0.734375   0.046875 0
  0.046875   0.593750 0
  0.046875   0.562500 0
  0.046875   0.531250 0
  0.718750   0.156250 0
  0.046875   0.609375 0
  0.734375   0.031250 0
  0.062500   0.609375 0
  0.234375   0.703125 0
  0.718750   0.125000 0
  0.046875   0.578125 0
  0.734375   0.000000 0
  0.062500   0.578125 0
  0.000000   0.828125 0
  0.234375   0.671875 0
  0.234375   0.625000 0
  0.718750   0.093750 0
  0.687500   0.156250 0
  0.062500   0.546875 0
  0.000000   0.796875 0
  0.718750   0.046875 0
  0.031250   0.687500 0
  0.687500   0.171875 0
  0.500000   1.000000 0
  0.078125   0.218750 0
  0.234375   0.593750 0
  0.718750   0.062500 0
  0.687500   0.125000 0
  0.000000   0.765625 0
  0.421875   0.500000 0
  0.031250   0.593750 0
  0.718750   0.015625 0
  0.687500   0.234375 0
  0.015625   0.812500 0
  0.703125   0.171875 0
  0.703125   0.187500 0
  0.703125   0.140625 0
  0.015625   0.781250 0
  0.437500   0.515625 0
  0.500000   0.796875 0
  0.078125   0.015625 0
  0.687500   0.203125 0
  0.250000   0.578125 0
  0.703125   0.109375 0
  0.000000   0.515625 0
  0.500000   0.765625 0
  0.062500   0.593750 0
  0.750000   0.015625 0
  0.015625   0.843750 0
  0.687500   0.000000 0
  0.500000   0.828125 0
  0.078125   0.046875 0
  0.015625   0.531250 0
  0.250000   0.546875 0
  0.703125   0.078125 0
  0.703125   0.031250 0
  0.015625   0.671875 0
  0.250000   0.515625 0
  0.000000   0.656250 0
  0.500000   0.906250 0
  0.078125   0.125000 0
  0.687500   0.015625 0
  0.031250   0.546875 0
  0.687500   0.031250 0
  0.500000   0.859375 0
  0.703125   0.000000 0
  0.703125   0.046875 0
  0.703125   0.015625 0
  0.500000   0.937500 0
  0.234375   0.531250 0
  0.031250   0.578125 0
  0.687500   0.062500 0
  0.500000   0.890625 0
  0.031250   0.796875 0
  0.453125   0.531250 0
  0.500000   0.968750 0
  0.078125   0.187500 0
  0.234375   0.562500 0
  0.031250   0.609375 0
  0.718750   0.031250 0
  0.687500   0.093750 0
  0.750000   0.046875 0
  0.000000   0.937500 0
  0.421875   0.671875 0
  0.718750   0.187500 0
  0.031250   0.828125 0
  0.765625   0.062500 0
  0.015625   0.953125 0
[...]
CELL_DATA 7648
SCALARS scalar_value float 1
LOOKUP_TABLE default
-2.58782e-07
4.56065e-06
5.25225e-06
1.96107e-06
0.000412369
0.00019185
-3.95551e-05
-0.00168286
-0.00262474
-0.000138383
0.000999289
3.7765e-07
-0.000169475
0.000385124
0.00448387
0.00372576
0.653332
-0.0121742
-0.00161311
5.47468e-10
0.00394752
-0.00163741
-0.0305495
2.69492e-05
0.0373472
-0.00425439
-0.00178087
0.00748764
-0.00365353
-0.00191915
0.601901
0.734544
0.752758
4.7197e-05
2.08011e-05
3.53675e-05
-4.31725e-06
-5.76179e-05
0.00118405
-0.00094188
-1.64397e-06
0.00291036
0.00750354
4.95762e-06
1.02337e-06
-0.000152449
4.05406e-05
-0.000209627
-0.000536929
-0.00243617
4.91329e-05
-5.5194e-06
1.13742e-06
5.32488e-06
-0.00226959
-0.00200289
-0.000687711
-0.00178588
-0.00137606
4.02048e-05
1.53928e-05
0.0016772
-5.89527e-07
-0.000685713
0.000572303
0.00199269
-0.0047961
1.44649e-06
0.751148
4.45862e-06
3.33719e-06
1.63195e-06
0
-1.51701e-09
-2.02174e-05
-0.010921
0.00892553
0.00666346
0.00627752
-0.00361854
3.25347e-05
-0.0186779
-0.0199246
-0.000408113
-1.44934e-10
-3.74258e-05
0.00177312
-0.000491496
-0.0125971
-0.0152658
0.0176622
0.00230663
4.91833e-05
5.94189e-05
-2.79686e-05
4.00129e-05
1.99156e-07
5.45691e-06
-0.0018254
0.0449827
0.163194
-2.56166e-05
-2.05326e-05
-8.07882e-06
8.10102e-06
-0.000152785
-0.000715223
-0.000259747
0.0791639
0.080593
-0.000181334
0.00011691
-0.00488158
0.00620553
0.399783
0.608202
0.00310946
-0.00733181
0.00499916
0.0212828
-0.00282161
0.0016027
0.00505883
1.65343e-05
-4.2818e-10
7.28779e-06
5.2807e-07
0.0184461
0.0393318
0.0557259
0.0163628
3.48596e-05
-0.00232051
0.0152698
-5.68488e-06
-6.77174e-07
-0.0103519
-0.0138979
-0.00673238
0.0246672
-8.11847e-06
-1.13284e-09
1.89558e-06
1.39957e-06
0.0519382
-2.20894e-06
3.8717e-09
-4.38445e-06
5.48659e-09
-0.00741259
-3.34381e-06
1.29728e-06
-0.000287028
-0.000928976
-0.00042926
0.000108323
2.18748e-05
0.0122739
-0.0119093
0.00491104
0.00767378
0.00650394
-7.379e-06
1.62049e-09
0.00109746
0.00242146
2.11275e-07
-2.9674e-06
1.48416e-06
0.00937551
-4.72532e-07
0.00639768
-3.80624e-10
5.65727e-10
-0.00501453
0.00127642
0.0121557
-1.44862e-09
-2.20121e-05
-0.00163433
-7.02448e-05
2.90368e-05
-0.00064074
0.000519075
0.000227115
0.000482533
-0.000645746
-0.00400292
-3.0653e-05
-0.00741333
-0.00182975
0.000719383
0.000278091
1.26852e-08
-1.60002e-07
1.60068e-05
1.72981e-05
0.0140409
2.61441e-06
-4.43856e-08
4.17094e-05
0.00353872
-0.00394932
-0.00253554
0.000196372
9.42752e-05
0.000416531
0.00543369
0.544414
-7.83298e-05
-9.64528e-06
-0.00156699
1.49104e-05
0.000141476
0.000823138
0.00437134
-0.00464051
0.0067707
-0.00807372
-0.0061571
0.00102566
2.52161e-05
1.29867e-06
0.00061122
-5.99588e-05
-0.00245285
2.90787e-05
0.000218119
0.000170951
0.0227737
0.0283241
0.0355347
0.00403441
-0.00022105
0.000396718
-5.40491e-05
-0.00215696
-0.00216942
1.52685e-06
0.573839
5.46946e-08
0.0791945
6.47955e-06
0.00345107
-0.0192522
-1.22007e-09
0.00156343
0.000428264
0.000256342
-0.000225546
-0.000863576
-0.00202396
0.000962472
0.000248065
0.000104537
9.77257e-10
5.47075e-06
0.000709613
-4.79527e-05
-0.00427594
2.27854e-05
-2.49468e-05
-0.00241494
0.00365368
-0.00249096
-0.00660928
0.0272901
0.0174334
0.00434327
0.356523
0.0109088
1.00008e-10
0.0634044
0.214981
0.0101668
0.00118
-0.000616175
0.00549977
0.00664601
-0.00247271
-0.0100704
-0.0125888
0.449394
0.504176
0.551597
0.574803
0.422752
0.00505635
-0.0149578
0.776695
0.563572
0.45035
0.240839
0.00615335
0.00246417
-0.011567
0.588738
0.756722
0.0254542
0.655938
0.00144878
0.00214725
0.00476632
0.184496
0.368717
0.631477
1.99222e-05
0.0539418
-0.00457143
0.147586
-9.66109e-07
0.422936
0.13754
0.594897
-0.00286103
0.000422534
-0.00183241
0.0127743
0.0153527
0.043724
-6.60631e-05
2.62848e-05
4.82442e-05
1.12336e-05
9.7788e-10
0.369572
0.00144022
0.000268307
0.00012657
1.18767e-05
-0.00258778
0.0127988
-3.84758e-07
-0.000470149
0.00423775
6.10117e-07
-1.78159e-06
1.19239e-05
7.95673e-07
4.27277e-06
0.0018542
-0.00105855
0.00163123
0.00499026
6.75897e-05
0.0120522
-0.0102634
0.00494503
-1.32619e-06
1.89046e-07
0.00027815
-0.00477424
0.00769262
-0.00344313
0.00243668
-2.28362e-06
-3.76416e-05
1.91913e-05
-0.00477167
0.00539256
0.658532
-2.92442e-05
-0.0220819
4.20426e-10
0.372945
0.00220857
-0.0135948
0.00467547
0.0233991
0.00629426
0.170177
-6.88494e-10
1.18493e-05
-0.00781107
0.00624303
0.143023
-0.000466568
-0.000385222
-0.00991373
0.0112066
-0.00043589
0.00368629
0.00817894
-0.00566471
-0.0100115
0.00476185
1.61513e-06
-0.00337582
-6.74415e-06
0.00200464
0.000752416
0.000120019
0.00820761
0.00370991
-0.00693563
0.00118702
-0.00336071
-0.00906717
-0.000644699
0.00306583
0.00624941
-0.00171846
1.27541e-05
0.000151486
0.000148944
7.80085e-08
0.00022379
-0.000345584
0.00175182
-0.00011842
-0.00031559
-0.0171841
6.68376e-10
-0.00876499
-0.000712956
0.00271719
8.20537e-06
-0.000482001
0.00186396
0.00202455
0.00679139
0.00441638
0.00050647
-0.00116831
0.000145911
0.00206508
-0.00111844
0.731042
0.000681376
0.00220861
0.00297119
0.391907
4.98e-10
0.0531568
-0.00619544
0.00229231
-6.71015e-06
-1.14113e-06
2.41919e-07
-1.35367e-06
1.41203e-06
-2.80829e-05
0.0532613
0.00253339
-2.11878e-08
2.17411e-08
0.0906938
-0.000231321
9.98714e-08
-5.52284e-06
-2.61917e-08
0.602091
-0.00272381
6.31008e-06
5.07855e-06
4.56808e-05
-1.27775e-06
0.130839
0.21492
0.350314
0.113721
-9.83896e-05
0.0608019
0.00016287
0.00752413
2.31565e-06
-0.00025694
0.00441386
1.98492e-05
-8.33438e-06
0.0853575
-0.00552101
0.00994159
-2.4619e-08
0.00155305
0.00111596
0.0005569
-5.02654e-08
0.0716342
0.000112603
-1.74835e-07
0.00177279
0.0059392
-0.0035755
-0.00111765
0.00252725
7.69955e-08
4.26116e-05
-1.10518e-05
0.013128
-3.87372e-05
1.5695e-05
-4.49233e-07
0.000254452
-0.000247349
0.794577
-3.98055e-05
1.12175e-05
-9.32738e-05
-1.36243e-06
0.00268238
-5.60688e-05
0.000531096
0.0015991
-3.02756e-05
-0.000126739
6.24503e-05
0.00010621
0.00126251
0.000567744
0.000563652
0.000585083
-0.000263631
9.52443e-05
-0.00322012
-0.015406
-1.5327e-10
-0.00224321
0.0052342
0.0607004
5.58182e-05
0.00135663
3.04043e-10
5.94496e-05
0.000168715
-1.30607e-05
5.10684e-07
1.23719e-09
-0.0254758
0.554976
1.98338e-06
3.41622e-05
2.41906e-05
0.0023243
-0.000131806
-1.17924e-10
-6.91539e-07
-1.54513e-09
0.0526285
0.00272569
2.94645e-06
-7.55544e-07
0.001305
-1.72371e-05
0.450798
-0.00514704
-0.0265311
0.000132581
0.139171
0.00409705
-0.00123152
0.148854
0.00179586
-0.00144743
0.0270613
-0.00373063
4.40948e-05
-0.00794038
0.00851991
-0.00293287
-0.000173434
0.0679831
0.00387563
0.000302739
0.0223064
-0.000281279
0.000377308
0.00318242
0.000299988
-1.41142e-06
8.72115e-08
-0.00167689
-0.00096879
0.00504764
1.71913e-06
0.000286123
-0.00125176
7.86357e-08
-0.00231797
-1.45481e-07
0.377788
-0.0575579
0.0120435
-0.00716216
-0.000108016
-0.00528933
0.238091
0.000309234
-0.0568932
-3.42303e-05
-7.09738e-05
5.2803e-05
0.00208855
9.4152e-05
1.97539e-09
-3.44722e-08
0.16179
0.000264092
0.45784
-0.00532604
3.54293e-06
-2.68443e-05
0.000401173
0.00106357
0.000155934
0.000753264
2.29373e-06
0.000267589
-0.00171321
0.00299343
0.00460346
0.0563438
-1.41466e-07
0.28262
0.00189637
0.0426017
0.00250694
0.00241772
0.00928763
-0.0425982
1.03668e-05
-0.00901682
-0.0154061
-0.000186543
-0.00113787
0.000127766
0.00242857
0.00438614
-0.00140973
0.0087321
0.00349237
7.0261e-05
-0.00127074
-0.00139794
-0.000330467
-4.76538e-05
0.0078061
0.00918567
0.0160461
-0.000593433
-0.000214253
0.196935
-0.000145027
-2.01023e-05
0.0477786
0.000435989
-0.000239636
0.0811884
0.0286313
-0.00030311
0.389188
0.0343476
0.000701025
0.0023418
0.00759539
5.12328e-05
0.772223
0.05578
0.00102352
-0.0139574
9.04908e-07
0.0391018
-0.000103897
0.651423
0.000127933
0.073389
0.594107
-3.95146e-05
0.000923536
-0.000991913
0.00665818
0.273414
-3.89253e-09
0.027037
0.000241045
-0.000446377
0.00147752
0.00366714
0.000852888
9.09376e-09
0.754609
0.00131857
0.0173764
-0.00654682
3.67901e-05
0.00564299
-0.00352053
0.59828
0.000268053
-0.000153442
0.0534423
5.02183e-06
6.73688e-05
-0.0038472
0.00712619
-0.000362262
-0.00576786
1.041e-05
-1.00576e-05
-2.97727e-08
-0.00507475
4.3451e-07
0.0119906
0.00695312
0.675184
-4.38403e-08
4.73892e-06
3.6439e-07
-8.25389e-05
0.77698
0.0131444
0.714585
0.00241836
-0.0046904
-0.00469126
0.000589362
0.00718916
0.187892
-0.00265733
-5.27786e-05
0.633718
0.682211
-0.000615099
0.781399
-1.1492e-05
0.0110439
0.0012485
0.0293201
0.0956335
0.00741413
-1.52575e-05
1.3258e-05
3.36393e-06
6.45249e-05
-7.02278e-10
-2.7189e-05
-3.16765e-06
-0.00125702
-1.25952e-05
-0.000116032
-0.00123919
-0.000606614
-0.000198026
1.31411e-06
0.0382509
6.33598e-05
0.0104674
-0.0127779
-3.05858e-09
0.00769632
9.97068e-10
0.781361
4.4777e-05
1.22484e-05
0.000230216
-0.000463541
-0.000192752
-0.00529285
0.0046144
0.00106197
-0.0157241
1.74971e-10
-2.35393e-05
0.00806998
-5.39431e-05
7.26443e-05
0.696729
3.2502e-07
-4.36461e-05
-9.98254e-05
-1.20768e-05
0.000251589
-0.000676615
-3.2919e-05
1.22222e-05
0.00276509
3.27401e-06
0.0462933
0.00024171
0.60065
0.000103809
-6.23598e-07
-1.4587e-07
-3.97035e-05
-1.77269e-05
-0.000200809
1.57237e-05
0.334974
-0.00364621
-0.000511903
0.644042
-1.91629e-10
0.00662374
0.0164157
0.0972698
0.0574742
0.00434617
-0.00130728
-0.0130539
-2.85333e-05
-0.000422921
0.0206415
-0.000223815
0.00163614
0.644211
0.0252641
0.00188836
0.00533837
0.000443811
0.694203
0.00774942
-0.00424914
0.00142132
0.0220492
0.541158
0.000436992
-0.0163321
0.000294236
0.0783187
1.25684e-05
-0.000339605
0.00048872
0.0140724
-0.0134507
0.000237982
0.00077042
-2.88781e-10
0.00210853
0.000360087
-4.32332e-07
-0.000447417
-0.012226
-0.00193572
-1.12764e-06
0.0030294
-3.82534e-07
-0.00158405
0.0111829
7.47862e-07
0.00024316
0.747784
-0.0018054
0.104679
-0.000723485
-0.01482
-0.00169136
1.87803e-06
-0.00334052
-0.0030909
4.099e-07
-9.49114e-05
-1.16982e-05
-0.00326283
0.0679031
0.00081923
-0.00279923
-0.000783231
7.56991e-05
-0.00592078
-0.000195762
0.00205608
-0.000228219
-0.0065716
0.000226509
-0.00556469
0.000606356
0.000376374
0.000743722
0.00108589
0.000432004
-0.000244219
-0.000828199
0.000260957
0.00260546
0.000188207
0.00179069
-1.80735e-06
0.0157039
-0.00274356
0.000628813
0.00119434
-2.00472e-06
-0.0101842
1.80302e-05
-6.93448e-05
0.00198938
-0.00268632
0.00345551
-0.000290035
0.0699961
0.0063132
0.253494
0.00042187
0.606639
0.144389
-0.000600891
0.142361
-8.59859e-08
1.62965e-07
-0.00352569
4.3045e-08
-4.08906e-07
0.0103603
-3.45949e-07
-0.000111441
0.00448564
0.0145433
-0.00117404
0.0016176
-0.0057497
0.00956161
-6.22402e-05
5.33147e-06
-2.54262e-06
0.00897602
1.14158e-05
7.29479e-06
6.96058e-10
1.42237e-05
-8.66141e-09
0.000528723
1.54987e-08
1.61152e-05
-0.000147389
2.36552e-05
8.51265e-05
-0.00128273
0.000249492
-0.00058451
-0.000460608
2.03895e-07
-0.028143
-0.00258309
1.74965e-05
-0.00345274
-6.70597e-10
-0.018718
0.297084
0.284656
0
-0.00036005
0
-0.0185238
0.244999
8.96686e-10
0.36907
2.54482e-05
-0.000356365
0.451239
4.35205e-05
0.00174931
0.000109599
-0.00996483
0.0374744
0.00120525
0.00492442
-4.83834e-09
4.34548e-06
-0.0029665
-1.9025e-05
7.91436e-05
2.25261e-05
0.000713974
3.24043e-05
1.02665e-05
0.00106867
-1.37896e-05
1.11451e-06
0.00476404
3.65745e-07
2.78611e-07
-0.00125905
0.00740478
-3.74447e-07
-0.000708335
0.366922
0.0502387
-8.81473e-09
-0.0386043
0.039723
0.631789
0.000152328
3.06697e-05
0.000653116
-0.000278236
0.00807106
0.00221173
0.0789186
-6.40751e-06
-0.00885913
0.000158548
0.0235194
0.00758402
0.00152958
1.32173e-08
2.55227e-06
0.000189001
-6.8636e-05
5.53979e-05
-4.5866e-05
0.0220297
6.21284e-05
0.000159685
-2.60591e-10
0
0.0682823
0.000351751
0.181695
0.083107
0.115177
0.000191097
-1.23044e-05
-5.19859e-07
0.000123058
0.0710129
0.167601
0.0123865
4.82862e-10
-1.10383e-09
-8.48597e-05
0.0427148
0.00186672
0.0112051
0.247783
5.4382e-05
-1.08589e-06
-3.68565e-06
2.18797e-05
-0.00388421
1.49448e-05
0.00290686
0.00609781
0.000233386
0.0017131
-2.40379e-06
2.4312e-07
-0.0146282
-0.00157178
-8.02667e-05
-0.000211304
-0.000198988
-0.000399335
-0.000351927
0.00412133
0.464834
0.007893
0.00244144
-0.000407575
-0.00862804
0.00567646
-2.35773e-06
-6.02292e-05
1.20822e-05
-1.08435e-05
-5.53682e-05
0.041047
-6.54507e-07
1.49575e-05
6.15039e-08
1.57549e-07
-1.31674e-05
-5.31315e-08
7.60887e-06
1.47653e-05
3.61751e-10
0.00015406
0.574242
0.00703093
0.311349
-3.02328e-05
0.00448273
-1.86735e-07
-0.00873238
-0.00240802
-0.00122246
1.19201e-06
0.000122147
0.688833
0.000973642
-0.015275
-0.00295943
0.000132187
-3.25472e-05
9.16774e-09
-0.00278854
-5.7978e-06
0.00112028
1.96198e-06
0.0061706
0.173482
-2.70074e-06
-0.000244969
-0.000173576
2.58048e-06
-0.000106944
0.00477838
0.000818165
0.00888085
0.00104194
-7.07305e-05
0.526688
-0.000193664
0.223565
-5.40786e-06
-0.019403
4.01127e-07
0.127339
3.11485e-06
-0.00609403
-0.00138792
0.019699
4.2087e-07
0.157229
0.00897013
-0.000878744
0.359645
1.90291e-07
-0.00536237
3.1186e-05
1.87886e-06
4.74447e-06
-1.04117e-05
-0.000495444
-0.00409605
7.8001e-10
8.07702e-07
-1.46197e-06
-2.24922e-06
0.243656
0.346478
0.653315
0.77369
0.000646588
0.000663123
-2.2779e-05
-1.05789e-05
-6.61439e-06
-1.70012e-05
-1.3596e-05
-5.61586e-07
-2.98175e-05
1.17776e-08
-1.85964e-08
-4.87863e-09
2.24158e-09
0.0172267
-0.00536101
-0.00343727
0.000569054
-6.49931e-06
0.0152746
0.0174843
0.0922493
0.468791
0.00712163
0.00619102
1.85592e-07
-0.000433183
2.51823e-07
-6.43057e-05
2.90741e-05
0.00135068
3.84927e-05
-7.16108e-05
0.0495052
-0.000908578
0.465578
0.273569
0.382585
0.194928
0.236698
0.043563
0.0386329
0.0700372
0.104611
0.11103
0.110766
0.035728
-0.000413089
0.000230983
0.601344
0.811092
0.126187
0.259708
0.143962
0.116171
-0.000351807
-0.000539996
-0.000149995
0.000420615
0.000123796
-0.000288963
0.000204408
-0.000179784
2.00654e-06
-8.96102e-06
-2.66798e-05
5.36516e-05
0.633625
-0.00212485
-0.00620638
-0.00539618
0.00789411
1.35753e-06
0.00485492
0.34178
0.568648
0.590218
0.00968362
0.380668
0.774837
0.659895
2.22236e-09
-0.000719796
0.0924019
0.0791629
0.265491
0.600799
5.01404e-10
-0.00587879
-0.000233556
0.000149805
0.000138363
-0.000537488
2.81058e-05
-8.59158e-08
-2.88988e-05
0.0016311
-3.19504e-05
0.000315914
0.00132677
-0.00118916
-0.00115072
-0.00116426
-2.91072e-08
0.00253445
0.00863368
0.0189769
0.00512381
0.00367385
-2.36933e-09
-0.0062
-0.00309769
-0.000112172
-1.39076e-08
2.2128e-05
-5.22943e-05
0.000204494
0.0127981
0
-0.000791576
0.337729
0.21471
0.00577005
6.93152e-07
-0.00362464
3.47332e-07
-2.97162e-05
8.82888e-05
0.000101145
0.00118658
3.2501e-10
-4.80699e-05
4.41988e-05
-7.16061e-05
1.79496e-08
-5.96003e-08
-8.52667e-09
-4.49369e-07
0.00141598
0.41311
-0.0088148
0.00138966
0.726868
0.726405
0.596059
0.00010375
0.00224054
0.00313613
0.00717516
0.0103593
0.0258239
-6.26745e-05
-7.99354e-05
-1.59412e-09
-0.00796779
-7.93746e-09
1.07486e-08
-0.00484567
-1.02554e-07
-0.000158234
-0.00381069
-0.00627593
0.00109719
-0.000339405
-3.3561e-05
1.02491e-05
2.48226e-06
0.043937
0.0121016
0.0293273
0.038988
-6.54787e-05
0.0165902
0.00883809
1.57485e-05
-5.96223e-07
-3.53187e-05
1.05574e-06
-7.06263e-06
-1.4502e-06
-1.37671e-05
-0.034733
0.00265094
-3.38678e-06
-0.000126593
8.493e-05
0.00227168
8.61606e-06
-7.45346e-07
1.50002e-06
1.11881e-05
-0.000969733
0.000521927
0.00284969
-9.32238e-05
0.121577
0.00282063
0.0246241
0.00974135
0.16418
0.0713258
0.00623611
-9.18514e-10
0.00473734
-0.00400562
0.365787
0.00629836
0.0056439
-0.000152172
-1.27544e-06
8.03416e-05
-0.000127112
0.00113608
-0.000144863
0.000459474
0.00612667
0.00315939
0.00612079
-0.0083051
0.0320827
0.00280011
0.000666306
-6.5223e-05
0.00388187
0.0164467
0.00675392
0.0465312
0.0890824
-0.000146383
0.185755
0.250783
1.99841e-05
-0.00557536
0.00193082
-0.00173513
-0.0022634
-0.0212641
-0.012409
-2.45781e-07
0.00265304
0.0236305
2.6302e-07
0.182758
0.264508
0.412804
0.20407
0.151974
0.26039
-0.0012704
-0.00109544
-0.000134706
0.0941399
0.145822
0.0426459
0.00290797
0.698042
0.731216
0.256945
0.753614
-1.17414e-06
1.42155e-06
-3.00125e-06
-0.00836826
0.000443358
9.65756e-09
-1.35261e-08
-1.08065e-08
-3.69275e-09
-3.37136e-06
-5.53826e-06
-3.00879e-05
0.0690785
0.000357617
0.000445668
0.000802831
0.000913045
-9.50486e-06
1.79733e-05
6.87712e-05
-4.34815e-06
-6.44053e-07
0.131339
0.00264637
0.00123253
0.00365781
0.00146896
0.00012216
0.000255824
0.000522591
-1.44056e-06
-9.31645e-06
-0.00013268
-0.014932
0.00114482
0.000619205
-0.00716248
2.2125e-07
2.67878e-06
2.25013e-06
-0.000657116
-0.00268387
0.00041192
-0.000251871
-0.000515577
0.00541524
1.3216e-07
1.95616e-05
-1.30958e-07
-1.88531e-07
-6.44046e-06
-1.30363e-05
3.69526e-07
-1.72366e-06
-3.63359e-06
3.54393e-05
1.4496e-05
9.52352e-06
0.0160235
-6.3018e-06
6.48818e-05
6.16414e-05
-2.23419e-05
-0.00450233
0.00722978
0.0093734
0.000877166
-0.000462071
-0.00023857
0.000786154
0.000600195
0.000579205
-0.0156008
-0.0123418
0.0124936
0.00244425
0.00646745
-3.97319e-06
0.00562348
-1.4013e-08
-2.10327e-07
-0.00527062
-0.000838019
-0.00505721
0.000296573
0.00421331
0.000275557
0.000839893
0.00153586
0.000201731
-3.93e-06
-8.01505e-05
2.39976e-09
-0.0164567
1.98469e-08
-0.00455004
0.015371
0.677037
0.541526
-0.0133523
0.18382
0.00703202
0.00328364
-0.00102956
-0.0132511
-0.000344744
0.00275776
0.00289315
0.00218912
-0.00657819
-0.000908729
0.000206785
0.000905464
3.64096e-07
-1.51072e-07
1.0783e-06
8.97342e-07
-2.81741e-06
1.14904e-06
-0.000801761
8.30621e-10
-0.00481681
0.00160742
9.68094e-09
-0.00217195
0.000124211
0.00617378
0.00420611
-2.79718e-05
-4.03401e-05
0.00400821
0.000120099
6.86018e-05
-0.000230494
-3.7382e-05
-0.00805145
-0.00363773
-0.00354927
0.0394261
0.00111337
-0.00219764
0.0155874
-0.00431991
-0.0097126
0.00322661
-0.000193816
0.175021
0.175264
-0.00318276
0.00396038
-0.000510821
0.130795
0.0891425
0.286081
-1.56239e-10
0.703191
0.430744
0.681299
0.72632
0.121605
2.68427e-05
-3.40732e-05
-9.41e-05
-4.16471e-05
0.000200763
-3.21237e-05
3.88967e-06
8.59345e-05
-0.000216592
-0.000280386
-0.000118628
5.32554e-06
-3.65759e-05
-7.78792e-06
-9.12052e-06
1.28611e-05
1.58537e-05
4.71539e-05
3.68198e-08
3.06156e-06
-6.97782e-05
-6.27182e-05
-5.32165e-05
-0.000318148
0.80365
0.791386
0.802229
0.733888
0.453946
0.439051
0.358018
0.238445
6.50871e-05
0.000262741
-4.52647e-07
0.00104039
0.00325635
-0.00577501
0.000207771
0.494061
0.0104279
0.00642996
-0.00461334
-0.000433837
-0.00158697
-0.000663017
0.529014
0.12815
0.748854
0.00716743
0.57703
0.0286279
-4.75426e-05
-8.13931e-05
0.00285847
2.07101e-09
4.20566e-10
0.00405961
0.00862145
-0.00242803
0.133298
0.00822921
0.00714537
-1.0549e-08
-1.80046e-08
-2.64802e-07
-1.21279e-07
5.16273e-08
0.555655
0.141468
-0.000149381
0.00101616
0.499328
0.457833
0.319499
1.56382e-08
0.403984
0.200848
-0.00870281
0.000938912
0.00080768
0.00158076
0.000343187
2.23782e-09
0.589128
0.668652
0.00809639
0.0135135
0.0278944
0.456728
0.0736319
0.303215
0.26374
0.186578
-0.00102786
-0.000322337
-0.000693487
-2.71388e-05
0.00136672
0.530813
0.423669
0.353983
0.010284
-0.000765323
-4.59174e-07
0.0534946
0.0478587
-0.00145203
-0.0157588
-0.000777065
-0.000117339
2.80774e-05
-0.000151767
2.9187e-06
-7.43282e-08
0.096426
0.0539678
0.0244463
-0.00871463
-0.0165645
-2.39912e-10
-0.00819167
-0.000915078
-9.61986e-05
-0.000572292
-0.000323201
-0.000813464
-0.00161523
-0.000232024
0.000810776
0.000686559
-0.000896014
0.325333
0.475034
0.104931
0.335699
0.0146528
0.18736
0.0291434
0.210072
-0.00138162
0.000681127
0.712858
0.577621
0.693514
-0.00448659
-0.00174458
0.0221308
0.0262038
-0.00644188
-0.00631886
0.000165104
0.331806
7.44458e-06
-0.00442118
-0.00408493
0.00179912
-0.000942066
0.000711249
-0.000609082
-0.000729699
1.16077e-05
1.48147e-06
1.02407e-05
1.75682e-05
-5.48948e-10
2.75135e-10
5.02675e-10
-0.0182893
0.0320602
0.000436389
0.00071237
0.00338103
0.000773892
0.00178984
0.00319079
-0.00163988
0.00118738
0.00102125
0.0014432
-3.96493e-05
-7.81954e-07
0.000763192
0.000293859
0.000938824
0.00242359
0.000979318
0.000822487
-0.000503566
0.00542017
3.0965e-06
0.00133241
0.0114506
0.488682
-2.38739e-05
0.101568
0.74705
0.824947
-2.16894e-07
-0.00511198
0.00069685
-0.00995174