# vtk DataFile Version 2.0
Unstructured Grid by M++
ASCII
DATASET UNSTRUCTURED_GRID
POINTS 4072 float
  0.875000   1.000000 0
  0.875000   0.984375 0
  0.875000   0.968750 0
  0.875000   0.953125 0
  0.875000   0.937500 0
  0.875000   0.921875 0
  0.875000   0.906250 0
  0.875000   0.890625 0
  0.875000   0.875000 0
  0.875000   0.859375 0
  0.875000   0.843750 0
  0.875000   0.828125 0
  0.875000   0.812500 0
  0.875000   0.796875 0
  0.875000   0.781250 0
  0.875000   0.765625 0
  0.859375   1.000000 0
  0.859375   0.984375 0
  0.859375   0.968750 0
  0.859375   0.953125 0
  0.859375   0.937500 0
  0.859375   0.921875 0
  0.859375   0.890625 0
  0.859375   0.875000 0
  0.859375   0.859375 0
  0.859375   0.843750 0
  0.859375   0.828125 0
  0.859375   0.812500 0
  0.859375   0.796875 0
  0.859375   0.781250 0
  0.859375   0.765625 0
  0.859375   0.671875 0
  0.859375   0.656250 0
  0.859375   0.640625 0
  0.843750   1.000000 0
  0.843750   0.984375 0
  0.843750   0.968750 0
  0.843750   0.953125 0
  0.843750   0.937500 0
  0.843750   0.921875 0
  0.843750   0.906250 0
  0.843750   0.875000 0
  0.843750   0.859375 0
  0.843750   0.843750 0
  0.843750   0.828125 0
  0.843750   0.812500 0
  0.843750   0.796875 0
  0.843750   0.781250 0
  0.843750   0.765625 0
  0.843750   0.671875 0
  0.843750   0.656250 0
  0.843750   0.640625 0
  0.828125   1.000000 0
  0.828125   0.984375 0
  0.828125   0.968750 0
  0.828125   0.953125 0
  0.828125   0.937500 0
  0.828125   0.921875 0
  0.875000   0.671875 0
  0.812500   0.921875 0
  0.890625   0.656250 0
  0.828125   0.906250 0
  0.875000   0.656250 0
  0.812500   0.906250 0
  0.890625   0.640625 0
  0.828125   0.890625 0
  0.875000   0.640625 0
  0.812500   0.890625 0
  0.890625   0.625000 0
  0.828125   0.875000 0
  0.890625   0.609375 0
  0.828125   0.859375 0
  0.890625   0.593750 0
  0.828125   0.843750 0
  0.890625   0.578125 0
  0.828125   0.828125 0
  0.890625   0.562500 0
  0.828125   0.812500 0
  0.828125   0.796875 0
  0.828125   0.781250 0
  0.828125   0.765625 0
  0.828125   0.671875 0
  0.828125   0.656250 0
  0.828125   0.640625 0
  0.875000   0.750000 0
  0.812500   1.000000 0
  0.875000   0.625000 0
  0.812500   0.875000 0
  0.875000   0.734375 0
  0.812500   0.984375 0
  0.875000   0.718750 0
  0.812500   0.968750 0
  0.875000   0.703125 0
  0.812500   0.953125 0
  0.875000   0.687500 0
  0.812500   0.937500 0
  0.875000   0.609375 0
  0.812500   0.859375 0
  0.875000   0.593750 0
  0.812500   0.843750 0
  0.875000   0.578125 0
  0.812500   0.828125 0
  0.812500   0.812500 0
  0.875000   0.546875 0
  0.812500   0.796875 0
  0.812500   0.781250 0
  0.812500   0.765625 0
  0.859375   0.750000 0
  0.796875   1.000000 0
  0.859375   0.625000 0
  0.796875   0.875000 0
  0.859375   0.734375 0
  0.796875   0.984375 0
  0.859375   0.718750 0
  0.796875   0.968750 0
  0.859375   0.703125 0
  0.796875   0.953125 0
  0.859375   0.687500 0
  0.796875   0.937500 0
  0.859375   0.609375 0
  0.796875   0.859375 0
  0.859375   0.593750 0
  0.796875   0.843750 0
  0.859375   0.578125 0
  0.796875   0.828125 0
  0.859375   0.562500 0
  0.796875   0.812500 0
  0.796875   0.796875 0
  0.859375   0.531250 0
  0.796875   0.781250 0
  0.796875   0.765625 0
  0.843750   0.750000 0
  0.781250   1.000000 0
  0.843750   0.625000 0
  0.781250   0.875000 0
  0.843750   0.734375 0
  0.781250   0.984375 0
  0.843750   0.718750 0
  0.781250   0.968750 0
  0.843750   0.703125 0
  0.781250   0.953125 0
  0.843750   0.687500 0
  0.781250   0.937500 0
  0.843750   0.609375 0
  0.781250   0.859375 0
  0.843750   0.593750 0
  0.781250   0.843750 0
  0.843750   0.578125 0
  0.781250   0.828125 0
  0.781250   0.812500 0
  0.843750   0.546875 0
  0.781250   0.796875 0
  0.781250   0.781250 0
  0.843750   0.515625 0
  0.781250   0.765625 0
  0.828125   0.750000 0
  0.765625   1.000000 0
  0.828125   0.625000 0
  0.765625   0.875000 0
  0.828125   0.734375 0
  0.765625   0.984375 0
  0.828125   0.718750 0
  0.765625   0.968750 0
  0.828125   0.703125 0
  0.765625   0.953125 0
  0.828125   0.687500 0
  0.765625   0.937500 0
  0.828125   0.609375 0
  0.765625   0.859375 0
  0.828125   0.593750 0
  0.765625   0.843750 0
  0.828125   0.578125 0
  0.765625   0.828125 0
  0.828125   0.562500 0
  0.765625   0.812500 0
  0.765625   0.796875 0
  0.828125   0.531250 0
  0.765625   0.781250 0
  0.765625   0.765625 0
  0.812500   0.750000 0
  0.750000   1.000000 0
  0.953125   1.000000 0
  0.812500   0.734375 0
  0.750000   0.984375 0
  0.812500   0.718750 0
  0.750000   0.968750 0
  0.812500   0.703125 0
  0.750000   0.953125 0
  0.812500   0.687500 0
  0.750000   0.937500 0
  0.812500   0.671875 0
  0.750000   0.921875 0
  0.812500   0.656250 0
  0.750000   0.906250 0
  0.812500   0.640625 0
  0.750000   0.890625 0
  0.812500   0.625000 0
  0.750000   0.875000 0
  0.812500   0.609375 0
  0.750000   0.859375 0
  0.812500   0.593750 0
  0.750000   0.843750 0
  0.812500   0.578125 0
  0.750000   0.828125 0
  0.750000   0.812500 0
  0.812500   0.546875 0
  0.750000   0.796875 0
  0.750000   0.781250 0
  0.812500   0.515625 0
  0.750000   0.765625 0
  0.796875   0.750000 0
  0.734375   1.000000 0
  0.796875   0.734375 0
  0.734375   0.984375 0
  0.796875   0.718750 0
  0.734375   0.968750 0
  0.796875   0.703125 0
  0.734375   0.953125 0
  0.796875   0.687500 0
  0.734375   0.937500 0
  0.796875   0.671875 0
  0.734375   0.921875 0
  0.796875   0.656250 0
  0.734375   0.906250 0
  0.796875   0.640625 0
  0.734375   0.890625 0
  0.796875   0.625000 0
  0.734375   0.875000 0
  0.796875   0.609375 0
  0.734375   0.859375 0
  0.796875   0.593750 0
  0.734375   0.843750 0
  0.796875   0.578125 0
  0.734375   0.828125 0
  0.734375   0.812500 0
  0.734375   0.796875 0
  0.796875   0.531250 0
  0.734375   0.781250 0
  0.734375   0.765625 0
  0.781250   0.750000 0
  0.718750   1.000000 0
  0.921875   1.000000 0
  0.781250   0.734375 0
  0.718750   0.984375 0
  0.781250   0.718750 0
  0.718750   0.968750 0
  0.781250   0.703125 0
  0.718750   0.953125 0
  0.859375   0.906250 0
  0.781250   0.687500 0
  0.718750   0.937500 0
  0.781250   0.671875 0
  0.718750   0.921875 0
  0.781250   0.656250 0
  0.718750   0.906250 0
  0.781250   0.640625 0
  0.718750   0.890625 0
  0.781250   0.625000 0
  0.718750   0.875000 0
  0.781250   0.609375 0
  0.718750   0.859375 0
  0.781250   0.593750 0
  0.718750   0.843750 0
  0.781250   0.578125 0
  0.718750   0.828125 0
  0.781250   0.562500 0
  0.718750   0.812500 0
  0.781250   0.546875 0
  0.718750   0.796875 0
  0.781250   0.531250 0
  0.718750   0.781250 0
  0.781250   0.515625 0
  0.718750   0.765625 0
  0.765625   0.750000 0
  0.703125   1.000000 0
  0.765625   0.734375 0
  0.703125   0.984375 0
  0.765625   0.718750 0
  0.703125   0.968750 0
  0.765625   0.703125 0
  0.703125   0.953125 0
  0.765625   0.687500 0
  0.703125   0.937500 0
  0.843750   0.890625 0
  0.703125   0.921875 0
  0.765625   0.656250 0
  0.703125   0.906250 0
  0.765625   0.640625 0
  0.703125   0.890625 0
  0.765625   0.625000 0
  0.703125   0.875000 0
  0.765625   0.609375 0
  0.703125   0.859375 0
  0.765625   0.593750 0
  0.703125   0.843750 0
  0.765625   0.578125 0
  0.703125   0.828125 0
  0.765625   0.562500 0
  0.703125   0.812500 0
  0.765625   0.546875 0
  0.703125   0.796875 0
  0.765625   0.531250 0
  0.703125   0.781250 0
  0.765625   0.515625 0
  0.703125   0.765625 0
  0.750000   0.750000 0
  0.687500   1.000000 0
  0.890625   1.000000 0
  0.750000   0.734375 0
  0.687500   0.984375 0
  0.750000   0.718750 0
  0.687500   0.968750 0
  0.578125   0.796875 0
  0.578125   0.781250 0
  0.578125   0.765625 0
  0.546875   0.953125 0
  0.546875   0.968750 0
  0.546875   0.718750 0
  0.546875   0.687500 0
  0.250000   0.609375 0
  0.937500   0.031250 0
  0.046875   0.703125 0
  0.734375   0.062500 0
  0.734375   0.078125 0
  0.734375   0.046875 0
  0.046875   0.593750 0
  0.046875   0.562500 0
  0.046875   0.531250 0
  0.718750   0.156250 0
  0.046875   0.609375 0
  0.734375   0.031250 0
  0.062500   0.609375 0
  0.234375   0.703125 0
  0.718750   0.125000 0
  0.046875   0.578125 0
  0.734375   0.000000 0
  0.062500   0.578125 0
  0.000000   0.828125 0
  0.234375   0.671875 0
  0.234375   0.625000 0
  0.718750   0.093750 0
  0.687500   0.156250 0
  0.062500   0.546875 0
  0.000000   0.796875 0
  0.718750   0.046875 0
  0.031250   0.687500 0
  0.687500   0.171875 0
  0.500000   1.000000 0
  0.078125   0.218750 0
  0.234375   0.593750 0
  0.718750   0.062500 0
  0.687500   0.125000 0
  0.000000   0.765625 0
  0.421875   0.500000 0
  0.031250   0.593750 0
  0.718750   0.015625 0
  0.687500   0.234375 0
  0.015625   0.812500 0
  0.703125   0.171875 0
  0.703125   0.187500 0
  0.703125   0.140625 0
  0.015625   0.781250 0
  0.437500   0.515625 0
  0.500000   0.796875 0
  0.078125   0.015625 0
  0.687500   0.203125 0
  0.250000   0.578125 0
  0.703125   0.109375 0
  0.000000   0.515625 0
  0.500000   0.765625 0
  0.062500   0.593750 0
  0.750000   0.015625 0
  0.015625   0.843750 0
  0.687500   0.000000 0
  0.500000   0.828125 0
  0.078125   0.046875 0
  0.015625   0.531250 0
  0.250000   0.546875 0
  0.703125   0.078125 0
  0.703125   0.031250 0
  0.015625   0.671875 0
  0.250000   0.515625 0
  0.000000   0.656250 0
  0.500000   0.906250 0
  0.078125   0.125000 0
  0.687500   0.015625 0
  0.031250   0.546875 0
  0.687500   0.031250 0
  0.500000   0.859375 0
  0.703125   0.000000 0
  0.703125   0.046875 0
  0.703125   0.015625 0
  0.500000   0.937500 0
  0.234375   0.531250 0
  0.031250   0.578125 0
  0.687500   0.062500 0
  0.500000   0.890625 0
  0.031250   0.796875 0
  0.453125   0.531250 0
  0.500000   0.968750 0
  0.078125   0.187500 0
  0.234375   0.562500 0
  0.031250   0.609375 0
  0.718750   0.031250 0
  0.687500   0.093750 0
  0.750000   0.046875 0
  0.000000   0.937500 0
  0.421875   0.671875 0
  0.718750   0.187500 0
  0.031250   0.828125 0
  0.765625   0.062500 0
  0.015625   0.953125 0
[...]
CELL_DATA 7648
SCALARS scalar_value float 1
LOOKUP_TABLE default
-7.20654e-06
5.71062e-07
2.99241e-06
2.05073e-06
0.000546936
0.000275541
-5.46871e-05
-0.00183675
-0.00205954
-0.000186107
0.000995989
7.13518e-06
-0.000163519
0.000837037
0.00870439
0.00414307
0.614932
-0.0138296
-0.000976907
3.74964e-10
0.0037091
-0.000438696
-0.0263112
4.90152e-05
0.0270108
-0.00415472
-0.00215853
0.00125186
-0.0038748
-0.0015359
0.518067
0.755863
0.703752
5.74781e-05
2.85528e-05
3.56929e-05
-3.66777e-06
-6.69088e-05
0.0013788
-0.0012177
-2.02569e-06
0.00301243
0.00807631
9.47848e-06
1.44422e-06
-0.000140571
0.00010717
-0.000175986
-0.00141216
-0.00174574
5.14256e-05
-1.6248e-05
3.20328e-06
6.94714e-06
-0.00332562
-3.07307e-05
-0.00181438
-0.0019126
0.000276239
4.38031e-05
1.46421e-05
0.00052063
-3.82953e-07
-0.000240277
0.000768313
0.00151685
-0.00866512
2.92515e-06
0.732384
4.58126e-06
3.8896e-06
1.60861e-06
-1.9509e-10
-2.22637e-09
-1.84715e-06
-0.00717961
0.00555206
0.00734834
0.00643232
-0.0052594
4.0463e-05
-0.0188874
-0.0180553
7.13055e-06
-8.52032e-10
-4.16087e-05
0.00270089
0.00135493
-0.0102413
-0.0145239
0.0257632
0.00151937
4.84062e-05
6.69164e-05
-2.44407e-05
4.19372e-05
2.13569e-07
8.38313e-06
-0.0024197
0.058238
0.205557
-2.76048e-05
-2.15971e-05
-7.35427e-06
0.000704225
-0.000223576
-0.000730927
-0.000291083
0.0686612
0.0617768
-5.81308e-05
3.98529e-05
-0.00321405
0.00429425
0.48584
0.673518
0.00292693
-0.00897504
0.00535115
0.0353278
-0.00469254
0.00266833
0.00696492
2.09865e-05
-7.2178e-10
8.13736e-06
8.76496e-07
0.0154772
0.0346723
0.0488573
0.0128359
3.73036e-05
-0.00222807
0.0132548
-6.41643e-06
-8.92371e-07
-0.00962106
-0.0126432
-0.00574518
0.00474031
-9.05326e-06
-3.3525e-10
2.06008e-06
3.19931e-06
0.0466332
-2.33963e-06
5.67128e-09
6.51706e-06
7.13227e-09
-0.00765699
-2.86573e-06
1.24115e-06
-0.000105511
0.000726139
-0.000768293
0.000197381
5.02661e-05
0.0126444
-0.0101344
0.00371721
0.00954489
0.0064255
-1.18558e-05
-4.15336e-09
0.00129853
0.00273555
8.39597e-07
-5.57344e-06
1.76786e-06
0.00870029
3.96111e-08
0.00647628
-3.68891e-10
1.10047e-09
-0.00337356
0.00256265
0.00886511
-2.07344e-09
-2.66579e-05
-0.00178775
-3.76712e-05
4.0019e-05
-0.00056767
0.000578051
0.000256614
0.000621311
-0.0011588
-0.00343894
-3.65852e-05
-0.00719355
0.00504925
0.000501361
0.000491586
1.23371e-08
-3.01458e-07
1.87568e-05
1.90934e-05
0.0211549
3.04649e-06
1.30775e-07
1.48305e-05
0.00384503
-0.00408635
-0.00257225
0.000188038
0.000105642
-0.000642055
0.00416648
0.619644
-8.37466e-05
-8.20707e-06
-0.00111375
-2.60062e-05
5.07057e-05
-0.000174787
0.00466889
-0.00588647
0.00734551
-0.00871435
-0.00747528
0.00169639
2.73134e-05
1.19029e-06
0.000790836
-5.58132e-05
-0.0028328
4.94913e-05
0.000225499
0.000194553
0.0214055
0.0208814
0.0292245
0.0013536
-0.00028013
0.000511057
-0.000202735
-0.001872
-0.00233978
2.57549e-06
0.573002
1.04612e-07
0.116411
0.00131857
0.00264295
-0.0186496
-1.17046e-09
0.00326573
0.000993954
0.000618523
3.5186e-05
-0.00121109
-0.00212608
0.000992333
0.000607288
0.000202123
1.72934e-09
6.40572e-06
0.000882456
-6.34471e-05
-0.00378517
7.19367e-05
-5.29106e-05
-0.00229544
0.00337282
-0.00247298
-0.00576923
0.0234076
0.0301178
0.00809956
0.341826
0.00938807
1.64942e-10
0.0456876
0.185862
0.0110135
0.000945067
-0.00055491
0.00615515
0.00680588
-0.00224205
-0.00959201
-0.0132573
0.361929
0.417063
0.631087
0.659064
0.501221
0.00542791
-0.0167415
0.785169
0.628804
0.512124
0.298493
0.00594683
0.00187804
-0.00883933
0.503555
0.716259
0.0218914
0.688902
0.00325228
0.00176107
0.00430533
0.132588
0.28173
0.556957
2.44452e-05
0.0276858
-0.0372418
0.0805416
-8.78754e-07
0.373082
0.159227
0.553575
-0.00190713
0.000607962
-0.000808049
0.00446808
0.00944059
0.0289623
-6.78445e-05
3.25092e-05
4.38382e-05
9.10087e-06
9.93468e-10
0.286598
0.00149662
0.000348828
0.000219131
0.000113049
-0.00219758
0.0105383
-5.90818e-07
-6.74722e-05
0.00260305
-6.35715e-06
-2.20063e-06
1.56605e-05
-1.24918e-06
5.85489e-06
0.00205808
-0.00273054
0.00174554
0.0054781
9.08012e-05
0.0106831
-0.00854268
0.00443675
-1.08486e-06
2.82321e-07
0.000487436
-0.0047983
0.00931506
-0.00434044
0.0015496
-3.27825e-06
-8.03796e-05
3.34831e-05
-0.00513433
0.00655045
0.719316
-3.92604e-05
-0.0219361
4.89433e-10
0.339157
0.00278649
-0.0115889
0.00387792
0.0202341
0.00632394
0.154362
-8.57456e-10
8.65026e-06
-0.0127049
0.00347614
0.117382
-0.000717374
-0.00061828
-0.0109418
0.0100433
0.00145269
0.00361943
0.0065722
-0.00403402
-0.00839485
0.00327419
6.55668e-07
-0.00458744
2.24137e-05
0.0016097
0.000897011
0.000131515
0.00629823
0.00517196
-0.00638532
0.000284429
-0.00562911
-0.00960461
-0.00134044
0.000844248
0.00466458
-0.00164272
7.06545e-06
0.000172595
8.63758e-05
1.20422e-07
0.000218815
-0.000279654
0.00196888
-0.000124883
-0.000370929
-0.0189299
-2.91649e-08
-0.010434
-0.00206858
0.0057504
6.87521e-06
-0.000597507
0.00131987
0.00119306
0.00744084
0.00482016
0.000484227
-0.000390771
0.000203372
0.00281897
-0.00120619
0.76966
0.000770981
0.00318181
0.00632187
0.302598
5.34988e-10
0.0393565
-0.00422772
0.00226619
-1.87052e-05
-1.89572e-06
7.49051e-07
-9.20485e-07
1.95186e-05
-1.9926e-05
0.055739
0.00309548
-2.25114e-08
4.83235e-08
0.0768277
-0.000321234
1.51871e-07
3.22898e-06
-4.228e-08
0.63141
-0.00287874
1.3036e-05
6.73675e-06
4.94735e-05
-2.13216e-06
0.114779
0.269019
0.269525
0.098178
-0.000128071
0.081253
0.000241108
0.00674236
2.65969e-06
-0.000273609
0.00456066
1.67781e-05
-9.96578e-06
0.0717005
-0.00474734
0.0100203
-5.18025e-08
0.00537329
-0.00118321
0.000868318
-7.22998e-08
0.105667
0.00020804
-1.96483e-07
-0.000580553
0.00633263
-0.0025877
-0.00111944
0.00305393
1.32444e-07
4.02306e-05
-6.96976e-06
0.00416387
-3.98295e-05
1.14371e-05
-5.65475e-07
0.000322331
-0.000319451
0.780059
-3.17218e-05
1.50668e-05
-9.42747e-05
-1.41923e-06
0.000678287
-6.5325e-05
0.000574787
0.00154387
-3.53309e-05
-0.000114145
0.000108883
0.000125577
0.00116416
0.000534043
0.00054881
0.00058915
-0.000262216
0.000163421
-0.00616365
-0.0148377
-1.4567e-10
-0.00285205
0.00589242
0.0856169
0.0001494
0.00335867
4.39196e-10
3.64653e-05
0.000187388
-1.47071e-05
-6.8852e-07
1.11734e-09
-0.0233759
0.461372
2.15563e-06
2.87688e-05
1.95681e-05
0.000103246
-0.000643711
0
-3.3294e-06
-2.60038e-09
0.0781383
0.00392913
-4.6736e-06
-1.05615e-06
0.00186186
-6.04648e-06
0.535837
-0.00284866
-0.0219878
0.000199986
0.110966
0.00361613
-0.00136729
0.109646
0.00144799
-0.000306795
0.0166475
-0.0041669
4.50108e-05
-0.00696112
0.00703768
-0.00212126
-0.000261284
0.0507154
0.00367182
-0.000120278
0.0205273
-0.000156591
-0.000536429
0.00346608
-0.000492933
-2.08322e-06
1.18795e-07
-0.000931304
-0.00113568
0.00573426
-0.000801162
0.00035089
-0.00153513
1.1857e-07
-0.00314561
-2.74575e-07
0.349005
-0.0656531
0.0124337
-0.00581443
-0.000127628
-0.00588823
0.199957
0.00010762
-0.0548289
-3.32387e-05
-7.9592e-05
4.79234e-05
0.00153162
0.000127628
1.48409e-08
-5.44473e-08
0.140638
0.000399692
0.433735
-0.00289702
7.11898e-06
-2.58374e-05
0.000364947
0.00098035
0.000161192
0.00123792
2.8554e-06
0.000365169
-0.00174992
0.00257992
0.00514315
0.0476286
-6.25447e-08
0.223978
0.00264136
0.0409847
0.00262147
0.00198208
0.00812059
-0.0384717
-3.36093e-05
-0.00784828
-0.0127969
-0.000704392
0.00237401
-0.00016926
0.000418251
0.00417564
-0.00224059
0.00643583
0.00301641
7.5324e-05
-0.00136387
-0.00105852
-0.000319137
-5.61193e-05
0.00816439
0.0156197
0.0287311
-0.000514576
-0.000237404
0.13788
-0.000162065
-2.10203e-05
0.0271233
0.000388577
-0.00013034
0.0515683
0.018591
-0.000323972
0.30559
0.0525297
0.000483421
0.00167032
0.00636339
8.89801e-05
0.781548
0.045221
0.00120345
-0.0156976
8.91099e-07
0.0244053
-8.61019e-05
0.574063
0.000796721
0.0426634
0.505946
2.98312e-06
0.000956742
-0.000630437
0.00501899
0.198773
-4.76965e-09
0.0449514
4.06583e-05
-0.000436074
0.00203802
0.00228979
0.00101816
1.0959e-08
0.707405
0.00089322
0.00882078
-0.00418052
4.07643e-05
0.00568607
-0.00431629
0.513835
0.000360981
-0.000136441
0.0331675
5.6707e-06
0.000126114
-0.00414118
0.00192613
-0.000784291
-0.00488719
9.7029e-06
-1.64211e-05
-4.3683e-10
-0.00584661
4.69033e-07
0.0118458
0.00749654
0.597594
-7.72294e-07
6.01875e-06
4.39117e-07
-8.14129e-05
0.730608
0.0109783
0.645226
0.0036548
-0.00269469
-0.00410501
0.0007106
0.00696146
0.129898
-0.00242015
-6.66843e-05
0.551953
0.606578
-0.000619336
0.749699
-3.03185e-05
0.00811082
-0.00157391
0.0173747
0.0591683
0.00741137
-3.72965e-05
1.72512e-05
2.82437e-06
4.24401e-05
-1.1187e-09
-2.63785e-05
-3.47861e-06
-0.00142987
-1.48631e-05
-8.77398e-05
-0.000893696
-0.000896072
-6.52781e-05
1.67855e-06
0.032953
6.16781e-05
0.00738804
-0.0119857
-1.43898e-09
0.00510484
1.1407e-08
0.754018
0.000106336
1.24319e-05
0.000427755
-0.000614993
-0.00025624
-0.00405162
0.00286933
0.00207049
-0.0131154
2.68441e-10
-3.04425e-05
0.00712698
-6.0585e-05
6.59007e-05
0.63334
5.91337e-07
-4.14054e-05
-0.000108456
-1.79454e-05
0.000221934
-0.000453998
-4.20763e-05
1.45879e-05
0.00196148
3.73993e-06
0.0644269
0.000319172
0.553626
9.34216e-05
-7.76033e-07
-2.33852e-07
-4.461e-05
-6.04633e-05
-0.000219762
1.37211e-05
0.424624
-0.0040619
-0.000587694
0.571636
0
0.0101453
0.0163454
0.116411
0.0554373
0.00491556
-0.00324435
-0.0115827
-3.89276e-05
-0.000329868
0.0176253
0.000290107
0.00294097
0.711936
0.0303717
1.23309e-05
0.00600496
0.000229468
0.74933
0.00444962
-0.00346327
0.00146733
0.00627886
0.453341
0.00049629
-0.020781
0.000170845
0.0559342
0.000302895
-0.000295041
0.000518305
0.0134239
-0.0150667
0.000363651
0.000993235
-5.81798e-10
0.00124581
0.000437805
1.37712e-07
-0.000381691
-0.0114721
-0.000509143
-1.51852e-06
0.00313405
-2.84562e-07
-0.0030285
0.00990532
8.19223e-07
0.000247547
0.770027
-0.0011873
0.142816
-0.000753849
-0.0221343
-0.000879134
2.8975e-06
-0.00388235
-0.00307439
5.5507e-07
-0.000101446
7.45797e-06
-0.00332739
0.0466991
0.00106886
-0.00512642
-0.00107644
-1.33352e-05
-0.00732072
-0.00126666
0.000819373
-0.00167304
-0.00674367
0.000278316
-0.00364645
0.000932951
0.000226968
0.00118608
0.00111118
0.000236236
-0.00029075
-0.000637173
0.000352075
0.00283981
0.000201316
0.00358078
-3.74041e-06
0.0269769
-0.00349952
0.000867106
0.00176057
-6.34539e-06
-0.010067
1.80876e-05
-7.65198e-05
0.00385149
2.14555e-05
0.00272222
-0.000418987
0.0383287
0.00548951
0.218111
0.000490165
0.522154
0.202874
-0.000786204
0.0925526
-1.10903e-07
2.36406e-07
-0.00306778
7.28701e-08
-5.47631e-07
0.0097297
-7.62876e-07
-0.000110883
0.00182112
0.0146252
-0.000918626
0.00148808
-0.00634025
0.00717067
-0.000111585
6.8613e-06
-5.2255e-06
0.00442751
3.44869e-05
6.95765e-06
8.14083e-10
2.90081e-05
-1.03559e-08
0.000525655
1.59805e-08
2.11267e-05
-0.000284243
4.59431e-05
0.000146176
-0.00148911
0.00034201
-0.000601709
-0.000367793
9.00372e-07
-0.0264208
-0.00269119
2.7672e-05
-0.00105018
-4.41609e-10
-0.0203623
0.268059
0.255678
0
-0.000441833
-1.41297e-10
-0.0222766
0.314647
1.27251e-09
0.288635
1.00723e-05
-0.000376295
0.385838
3.51378e-05
0.00152105
0.000117571
-0.00804144
0.0381921
0.00203948
0.00359596
-4.92459e-09
5.35772e-06
-0.00240494
-1.5642e-05
8.93411e-05
2.71252e-05
0.000528557
3.89143e-05
1.13515e-05
0.00149087
0.000138759
9.2447e-07
0.00446848
6.49165e-07
6.56559e-07
-0.00150272
0.00486671
-4.0248e-07
-0.000557584
0.41825
0.0696807
-8.83139e-09
-0.0354142
0.0310544
0.553959
3.40692e-05
3.19711e-05
0.0021443
-0.00105835
0.00813682
0.0027776
0.118402
-8.59954e-06
-0.00811107
0.000307388
0.0387794
0.00610486
0.00172056
1.98037e-08
6.80904e-06
0.000186728
1.63059e-05
9.49569e-05
-3.00262e-05
0.0357087
0.000166385
5.44197e-05
-3.88205e-10
0
0.0689336
-0.000916174
0.248101
0.124099
0.166335
0.000257116
-8.79503e-05
6.39962e-07
0.00021011
0.0394258
0.112539
0.00984229
2.61756e-09
-9.74778e-09
-0.000143986
0.0413345
-0.00889412
0.012595
0.210561
0.000157727
3.86009e-08
-3.95621e-06
1.51249e-05
-0.00336229
1.08375e-05
0.00465928
0.0119103
0.000350219
-0.000469675
-2.71627e-06
3.24065e-07
-0.0116019
-0.00168012
-0.00011041
-9.76631e-05
0.000336171
-0.000832954
-0.000430805
0.00435602
0.555599
0.00803607
0.00317304
-0.000379813
-0.00824085
0.00533288
-2.31474e-06
-5.64712e-05
-8.21251e-05
-8.9866e-07
-6.54095e-05
0.0477937
-8.94336e-07
1.93291e-05
1.31612e-07
3.15375e-07
-1.42702e-05
-1.4946e-07
9.91641e-06
1.57404e-05
0
0.000174497
0.529843
0.0104145
0.380485
-4.49583e-05
0.00314794
-4.25764e-07
-0.00872473
-0.00670848
-0.00133454
1.54838e-06
0.000102221
0.729943
0.00142409
-0.0112711
-0.00372533
0.000140839
-4.48587e-05
8.39348e-09
-0.00309306
-7.35549e-06
-0.000933928
3.04816e-06
0.00607559
0.231071
3.67624e-05
-0.000193828
-0.000232494
3.62824e-06
-0.000175725
0.00397043
-1.73915e-05
0.0100102
0.00014507
-8.75644e-05
0.512276
-0.000187926
0.197496
-5.51113e-06
-0.0167259
3.29362e-06
0.107054
6.72937e-06
-0.0062767
-0.00231775
0.0075393
4.97433e-07
0.175429
0.00836934
-0.00107295
0.431144
3.09115e-07
-0.00405162
3.37309e-05
3.04157e-06
9.66285e-06
-1.85551e-05
0.000653562
-0.0031232
5.65647e-10
1.29772e-06
-2.18353e-06
-2.96145e-06
0.257682
0.420738
0.715287
0.781957
0.000603374
0.000612491
-4.26747e-05
-1.25398e-05
-1.05016e-05
-2.06944e-05
-6.89236e-06
3.95081e-06
-2.80505e-05
9.26793e-09
-5.05741e-08
-4.01134e-09
5.75836e-09
0.0166071
-0.00499755
-0.00274224
-7.17705e-05
-1.31531e-05
0.0184023
0.022178
0.0977923
0.457085
0.00818247
0.00561758
2.28363e-07
-0.00121191
2.37419e-07
-6.98706e-05
3.18296e-05
0.00121835
3.96823e-05
-7.34912e-05
0.0686454
-0.00133887
0.551392
0.353047
0.29874
0.135867
0.170383
0.0700845
0.0612912
0.106175
0.153968
0.0672472
0.0752261
0.0126482
-0.0013615
0.000118616
0.644223
0.819463
0.0836075
0.191815
0.0974362
0.0776527
-0.000489401
-0.000615215
-0.00036439
0.000336555
6.45116e-06
-0.000258173
0.000197277
-0.000163122
1.42289e-06
-2.26874e-05
-5.28897e-05
6.98354e-05
0.621695
-0.00293202
-0.00481941
-0.00544657
0.00808713
1.61377e-06
0.0141022
0.426517
0.600543
0.649461
0.0207962
0.420311
0.807156
0.651804
1.97894e-09
0.000376402
0.121888
0.114004
0.339965
0.6715
0
-0.00361114
-0.00021477
0.000126027
0.000120871
-0.000513673
3.26748e-05
2.26889e-06
-3.7452e-05
0.00173027
-4.29976e-05
0.000379363
0.00148069
-0.0010255
-0.00099347
-0.00105928
-5.97853e-08
0.00313771
0.00909317
0.0169355
0.0051753
0.00440184
-2.7061e-09
-0.00570874
-0.00338765
-0.000145656
-4.09305e-08
2.28051e-05
-6.99355e-05
0.000285485
0.000155376
0
-0.000683311
0.313172
0.182748
0.00454493
8.67249e-07
-0.0019787
3.32574e-07
-2.49872e-05
0.000140473
0.000152573
0.000630629
4.62264e-10
-5.60306e-05
5.04876e-05
-8.66783e-05
4.45892e-08
-1.58585e-07
-4.1043e-08
-8.12737e-07
0.000752463
0.368599
-0.00993865
0.00130968
0.646747
0.702189
0.610514
0.000124111
0.00261687
0.00547955
0.0133552
0.0187174
0.0432266
-8.39221e-05
-0.000105505
2.86588e-09
-0.00576749
-1.52905e-08
3.00531e-08
-0.00522849
2.12576e-07
-0.000525142
-0.00316497
-0.00671612
0.000972707
-0.000412646
-2.3191e-05
9.447e-06
1.17004e-06
0.0700289
0.0211842
0.048491
0.0624615
-7.9262e-05
0.0209628
0.00829542
1.60024e-05
1.86797e-05
-2.64013e-05
1.81398e-06
-7.98619e-06
-2.18133e-06
-1.46366e-05
-0.0301128
0.00386081
-1.30798e-05
-0.000109332
9.13364e-05
0.00431515
9.67497e-06
1.79089e-07
7.21974e-07
1.17593e-05
0.00130935
0.00104963
0.00231587
-5.71555e-05
0.172756
0.00485701
0.0405299
0.0165903
0.106115
0.046852
-0.00739335
-3.14525e-09
0.00522707
-0.0026182
0.282315
0.00672298
0.0057499
-0.000191896
2.36199e-05
0.000108641
-0.000391019
0.00104971
-0.00068691
-5.4968e-06
0.00712767
0.00252334
0.00556113
-0.00677731
0.0348867
0.0032045
0.000617429
-0.000105316
0.0049103
0.0282735
0.0130457
0.0720389
0.130436
-0.000490722
0.121043
0.185814
1.56543e-05
-0.00523558
0.00194908
-0.0015883
-0.00216956
-0.0170649
-0.00907635
-5.71916e-07
0.00204237
0.0330642
2.16298e-07
0.232472
0.335982
0.503542
0.277532
0.207172
0.340115
-3.85473e-05
-0.0011725
-0.000162971
0.134723
0.196747
0.0644578
0.00152914
0.734369
0.749237
0.333099
0.739889
-1.28906e-06
2.21904e-06
-3.21687e-06
-0.00656561
0.000927359
9.68897e-09
-1.03181e-08
-8.62523e-09
-9.39915e-09
-5.56902e-07
-4.72131e-06
-3.30135e-05
0.0317621
0.000344937
0.000612913
0.000839629
0.00106199
-1.54089e-05
3.29889e-05
0.000109723
-5.28174e-06
-1.09234e-06
0.155747
0.00279386
0.00108358
0.00257419
0.0011008
0.000170135
0.000125418
-0.000320539
-1.66015e-06
-1.06034e-05
-0.000132045
-0.0135261
0.00172704
0.00079005
-0.00805992
1.09328e-07
3.14162e-06
2.50987e-06
-0.00306626
-0.0033566
0.000430192
-0.000200916
-0.000554733
0.00614616
1.7961e-07
3.78577e-05
-1.6409e-07
-1.95953e-07
-9.71777e-06
-1.85533e-05
6.12535e-07
-1.10298e-06
-4.27855e-06
5.71853e-05
1.16354e-05
4.40261e-06
0.0034034
-6.91114e-06
7.6983e-05
0.000103515
-3.26186e-05
-0.00642672
0.00704296
0.00820549
0.0015197
-3.8158e-05
-0.000348987
0.00185842
0.00100566
0.00165685
-0.0144172
-0.00784504
0.0224234
0.00450508
0.0111649
-2.51811e-06
0.00497979
-2.82732e-08
-3.5711e-07
-0.00441753
-0.00133323
-0.00409024
0.000363678
0.00469289
0.000691153
0.00192506
0.00177397
0.000246417
-5.02793e-06
-9.17843e-05
1.68097e-09
-0.0156169
-4.09045e-08
-0.00168888
0.0147166
0.610352
0.454093
-0.0157479
0.155855
0.0118586
0.00550317
-0.0013115
-0.0134744
0.000360919
0.00209174
0.00265924
0.000983909
-0.00976982
-0.00109898
0.000225477
0.00104977
5.69656e-07
-1.27785e-07
1.05868e-06
1.23296e-06
-2.95287e-06
2.99835e-06
-0.000879661
1.16351e-10
-0.00295327
0.000602392
2.47196e-08
-0.000471456
0.000131646
0.00595713
0.00417186
-3.37614e-05
-4.15533e-05
0.00433256
8.10171e-05
6.5919e-05
-0.000368912
-3.70648e-05
-0.00700544
0.000775244
-0.00574678
0.060165
0.00197847
-0.00208002
0.0161105
-0.00678114
-0.0116391
0.00306554
0.00358594
0.227518
0.222258
-0.00304098
0.00381015
-0.000898117
0.173394
0.119607
0.357256
-1.08674e-09
0.768761
0.506722
0.736307
0.767423
0.162861
2.25798e-05
-3.39641e-05
-0.000105803
-3.42511e-05
0.000201786
-3.91205e-05
1.86366e-06
0.000109802
-0.000254622
-0.000315983
-0.000125613
6.82227e-06
-4.4431e-05
-7.12351e-06
-8.47019e-06
1.72052e-05
1.90843e-05
5.15493e-05
3.444e-06
3.58162e-06
-6.31376e-05
-6.89216e-05
-6.08668e-05
-0.000333224
0.800555
0.788353
0.773618
0.671795
0.365942
0.352251
0.274467
0.17209
0.000269033
0.000493999
-3.67376e-07
0.000172632
0.00307112
-0.00657689
4.56642e-05
0.448387
-0.00738006
0.00802511
-0.00491735
-0.000267102
-0.00118846
-0.000207997
0.598126
0.0908522
0.693388
0.00284682
0.489248
0.0258854
-6.90983e-05
-9.50042e-05
0.00300491
4.70532e-09
-1.27077e-09
0.00502803
0.00874756
0.000201348
0.188484
0.0151697
0.0130901
1.01335e-09
-9.55797e-08
-4.65153e-07
-2.0843e-07
1.74544e-07
0.574464
0.169296
-0.000869944
0.0014397
0.407843
0.371398
0.241198
3.0984e-08
0.317483
0.139732
-0.00916246
0.00402884
0.000781109
0.00147185
0.000356598
1.28598e-08
0.658983
0.663576
0.0145868
0.0237867
0.0460032
0.37186
0.0424293
0.227715
0.193815
0.130847
-0.00205284
-0.000670332
-0.0008129
-0.000368263
0.00185148
0.608828
0.509442
0.438349
0.0102814
-0.000691176
-6.5994e-07
0.0833383
0.0748077
0.000694498
-0.0165636
-0.000759662
4.23702e-05
4.81972e-05
-3.98039e-05
3.71896e-06
-9.82013e-08
0.0591845
0.0266304
0.00929154
-0.0134847
-0.0195843
-3.13264e-10
-0.00757751
-0.00077216
-0.000140157
-0.000755488
-0.000409722
-0.000960333
-0.00153753
-0.000329149
0.00127322
0.00305232
-0.00098193
0.325058
0.430905
0.0846703
0.294943
0.0259597
0.198719
0.0463655
0.212599
-0.00196078
0.000535104
0.75968
0.652521
0.742884
0.00193272
-0.00245835
0.0231106
0.025374
-0.00378867
-0.00396469
0.000142942
0.290679
1.10154e-05
-0.003026
-0.00515416
0.0014261
-0.000251051
0.000730941
-0.000516732
-0.000868733
1.49735e-05
1.52067e-06
1.10737e-05
1.7988e-05
-6.53425e-10
4.52397e-10
6.54281e-10
-0.0147831
0.0265261
0.000884097
0.00148668
0.00653722
0.00149136
0.00373533
0.00598778
-0.00254309
0.0013083
0.00105037
0.00146044
-3.16997e-05
-3.81729e-06
0.00117002
0.000466702
0.00168034
0.00492915
0.00024612
-8.98259e-05
-0.00120412
0.00499259
-4.1539e-05
0.00207473
0.0132281
0.565104
-3.43756e-05
0.138876
0.71708
0.782841
-2.59489e-07
-0.0038427
0.0011046
-0.0174544