# vtk DataFile Version 2.0
Unstructured Grid by M++
ASCII
DATASET UNSTRUCTURED_GRID
POINTS 4072 float
  0.875000   1.000000 0
  0.875000   0.984375 0
  0.875000   0.968750 0
  0.875000   0.953125 0
  0.875000   0.937500 0
  0.875000   0.921875 0
  0.875000   0.906250 0
  0.875000   0.890625 0
  0.875000   0.875000 0
  0.875000   0.859375 0
  0.875000   0.843750 0
  0.875000   0.828125 0
  0.875000   0.812500 0
  0.875000   0.796875 0
  0.875000   0.781250 0
  0.875000   0.765625 0
  0.859375   1.000000 0
  0.859375   0.984375 0
  0.859375   0.968750 0
  0.859375   0.953125 0
  0.859375   0.937500 0
  0.859375   0.921875 0
  0.859375   0.890625 0
  0.859375   0.875000 0
  0.859375   0.859375 0
  0.859375   0.843750 0
  0.859375   0.828125 0
  0.859375   0.812500 0
  0.859375   0.796875 0
  0.859375   0.781250 0
  0.859375   0.765625 0
  0.859375   0.671875 0
  0.859375   0.656250 0
  0.859375   0.640625 0
  0.843750   1.000000 0
  0.843750   0.984375 0
  0.843750   0.968750 0
  0.843750   0.953125 0
  0.843750   0.937500 0
  0.843750   0.921875 0
  0.843750   0.906250 0
  0.843750   0.875000 0
  0.843750   0.859375 0
  0.843750   0.843750 0
  0.843750   0.828125 0
  0.843750   0.812500 0
  0.843750   0.796875 0
  0.843750   0.781250 0
  0.843750   0.765625 0
  0.843750   0.671875 0
  0.843750   0.656250 0
  0.843750   0.640625 0
  0.828125   1.000000 0
  0.828125   0.984375 0
  0.828125   0.968750 0
  0.828125   0.953125 0
  0.828125   0.937500 0
  0.828125   0.921875 0
  0.875000   0.671875 0
  0.812500   0.921875 0
  0.890625   0.656250 0
  0.828125   0.906250 0
  0.875000   0.656250 0
  0.812500   0.906250 0
  0.890625   0.640625 0
  0.828125   0.890625 0
  0.875000   0.640625 0
  0.812500   0.890625 0
  0.890625   0.625000 0
  0.828125   0.875000 0
  0.890625   0.609375 0
  0.828125   0.859375 0
  0.890625   0.593750 0
  0.828125   0.843750 0
  0.890625   0.578125 0
  0.828125   0.828125 0
  0.890625   0.562500 0
  0.828125   0.812500 0
  0.828125   0.796875 0
  0.828125   0.781250 0
  0.828125   0.765625 0
  0.828125   0.671875 0
  0.828125   0.656250 0
  0.828125   0.640625 0
  0.875000   0.750000 0
  0.812500   1.000000 0
  0.875000   0.625000 0
  0.812500   0.875000 0
  0.875000   0.734375 0
  0.812500   0.984375 0
  0.875000   0.718750 0
  0.812500   0.968750 0
  0.875000   0.703125 0
  0.812500   0.953125 0
  0.875000   0.687500 0
  0.812500   0.937500 0
  0.875000   0.609375 0
  0.812500   0.859375 0
  0.875000   0.593750 0
  0.812500   0.843750 0
  0.875000   0.578125 0
  0.812500   0.828125 0
  0.812500   0.812500 0
  0.875000   0.546875 0
  0.812500   0.796875 0
  0.812500   0.781250 0
  0.812500   0.765625 0
  0.859375   0.750000 0
  0.796875   1.000000 0
  0.859375   0.625000 0
  0.796875   0.875000 0
  0.859375   0.734375 0
  0.796875   0.984375 0
  0.859375   0.718750 0
  0.796875   0.968750 0
  0.859375   0.703125 0
  0.796875   0.953125 0
  0.859375   0.687500 0
  0.796875   0.937500 0
  0.859375   0.609375 0
  0.796875   0.859375 0
  0.859375   0.593750 0
  0.796875   0.843750 0
  0.859375   0.578125 0
  0.796875   0.828125 0
  0.859375   0.562500 0
  0.796875   0.812500 0
  0.796875   0.796875 0
  0.859375   0.531250 0
  0.796875   0.781250 0
  0.796875   0.765625 0
  0.843750   0.750000 0
  0.781250   1.000000 0
  0.843750   0.625000 0
  0.781250   0.875000 0
  0.843750   0.734375 0
  0.781250   0.984375 0
  0.843750   0.718750 0
  0.781250   0.968750 0
  0.843750   0.703125 0
  0.781250   0.953125 0
  0.843750   0.687500 0
  0.781250   0.937500 0
  0.843750   0.609375 0
  0.781250   0.859375 0
  0.843750   0.593750 0
  0.781250   0.843750 0
  0.843750   0.578125 0
  0.781250   0.828125 0
  0.781250   0.812500 0
  0.843750   0.546875 0
  0.781250   0.796875 0
  0.781250   0.781250 0
  0.843750   0.515625 0
  0.781250   0.765625 0
  0.828125   0.750000 0
  0.765625   1.000000 0
  0.828125   0.625000 0
  0.765625   0.875000 0
  0.828125   0.734375 0
  0.765625   0.984375 0
  0.828125   0.718750 0
  0.765625   0.968750 0
  0.828125   0.703125 0
  0.765625   0.953125 0
  0.828125   0.687500 0
  0.765625   0.937500 0
  0.828125   0.609375 0
  0.765625   0.859375 0
  0.828125   0.593750 0
  0.765625   0.843750 0
  0.828125   0.578125 0
  0.765625   0.828125 0
  0.828125   0.562500 0
  0.765625   0.812500 0
  0.765625   0.796875 0
  0.828125   0.531250 0
  0.765625   0.781250 0
  0.765625   0.765625 0
  0.812500   0.750000 0
  0.750000   1.000000 0
  0.953125   1.000000 0
  0.812500   0.734375 0
  0.750000   0.984375 0
  0.812500   0.718750 0
  0.750000   0.968750 0
  0.812500   0.703125 0
  0.750000   0.953125 0
  0.812500   0.687500 0
  0.750000   0.937500 0
  0.812500   0.671875 0
  0.750000   0.921875 0
  0.812500   0.656250 0
  0.750000   0.906250 0
  0.812500   0.640625 0
  0.750000   0.890625 0
  0.812500   0.625000 0
  0.750000   0.875000 0
  0.812500   0.609375 0
  0.750000   0.859375 0
  0.812500   0.593750 0
  0.750000   0.843750 0
  0.812500   0.578125 0
  0.750000   0.828125 0
  0.750000   0.812500 0
  0.812500   0.546875 0
  0.750000   0.796875 0
  0.750000   0.781250 0
  0.812500   0.515625 0
  0.750000   0.765625 0
  0.796875   0.750000 0
  0.734375   1.000000 0
  0.796875   0.734375 0
  0.734375   0.984375 0
  0.796875   0.718750 0
  0.734375   0.968750 0
  0.796875   0.703125 0
  0.734375   0.953125 0
  0.796875   0.687500 0
  0.734375   0.937500 0
  0.796875   0.671875 0
  0.734375   0.921875 0
  0.796875   0.656250 0
  0.734375   0.906250 0
  0.796875   0.640625 0
  0.734375   0.890625 0
  0.796875   0.625000 0
  0.734375   0.875000 0
  0.796875   0.609375 0
  0.734375   0.859375 0
  0.796875   0.593750 0
  0.734375   0.843750 0
  0.796875   0.578125 0
  0.734375   0.828125 0
  0.734375   0.812500 0
  0.734375   0.796875 0
  0.796875   0.531250 0
  0.734375   0.781250 0
  0.734375   0.765625 0
  0.781250   0.750000 0
  0.718750   1.000000 0
  0.921875   1.000000 0
  0.781250   0.734375 0
  0.718750   0.984375 0
  0.781250   0.718750 0
  0.718750   0.968750 0
  0.781250   0.703125 0
  0.718750   0.953125 0
  0.859375   0.906250 0
  0.781250   0.687500 0
  0.718750   0.937500 0
  0.781250   0.671875 0
  0.718750   0.921875 0
  0.781250   0.656250 0
  0.718750   0.906250 0
  0.781250   0.640625 0
  0.718750   0.890625 0
  0.781250   0.625000 0
  0.718750   0.875000 0
  0.781250   0.609375 0
  0.718750   0.859375 0
  0.781250   0.593750 0
  0.718750   0.843750 0
  0.781250   0.578125 0
  0.718750   0.828125 0
  0.781250   0.562500 0
  0.718750   0.812500 0
  0.781250   0.546875 0
  0.718750   0.796875 0
  0.781250   0.531250 0
  0.718750   0.781250 0
  0.781250   0.515625 0
  0.718750   0.765625 0
  0.765625   0.750000 0
  0.703125   1.000000 0
  0.765625   0.734375 0
  0.703125   0.984375 0
  0.765625   0.718750 0
  0.703125   0.968750 0
  0.765625   0.703125 0
  0.703125   0.953125 0
  0.765625   0.687500 0
  0.703125   0.937500 0
  0.843750   0.890625 0
  0.703125   0.921875 0
  0.765625   0.656250 0
  0.703125   0.906250 0
  0.765625   0.640625 0
  0.703125   0.890625 0
  0.765625   0.625000 0
  0.703125   0.875000 0
  0.765625   0.609375 0
  0.703125   0.859375 0
  0.765625   0.593750 0
  0.703125   0.843750 0
  0.765625   0.578125 0
  0.703125   0.828125 0
  0.765625   0.562500 0
  0.703125   0.812500 0
  0.765625   0.546875 0
  0.703125   0.796875 0
  0.765625   0.531250 0
  0.703125   0.781250 0
  0.765625   0.515625 0
  0.703125   0.765625 0
  0.750000   0.750000 0
  0.687500   1.000000 0
  0.890625   1.000000 0
  0.750000   0.734375 0
  0.687500   0.984375 0
  0.750000   0.718750 0
  0.687500   0.968750 0
  0.578125   0.796875 0
  0.578125   0.781250 0
  0.578125   0.765625 0
  0.546875   0.953125 0
  0.546875   0.968750 0
  0.546875   0.718750 0
  0.546875   0.687500 0
  0.250000   0.609375 0
  0.937500   0.031250 0
  0.046875   0.703125 0
  0.734375   0.062500 0
  0.734375   0.078125 0
  0.734375   0.046875 0
  0.046875   0.593750 0
  0.046875   0.562500 0
  0.046875   0.531250 0
  0.718750   0.156250 0
  0.046875   0.609375 0
  0.734375   0.031250 0
  0.062500   0.609375 0
  0.234375   0.703125 0
  0.718750   0.125000 0
  0.046875   0.578125 0
  0.734375   0.000000 0
  0.062500   0.578125 0
  0.000000   0.828125 0
  0.234375   0.671875 0
  0.234375   0.625000 0
  0.718750   0.093750 0
  0.687500   0.156250 0
  0.062500   0.546875 0
  0.000000   0.796875 0
  0.718750   0.046875 0
  0.031250   0.687500 0
  0.687500   0.171875 0
  0.500000   1.000000 0
  0.078125   0.218750 0
  0.234375   0.593750 0
  0.718750   0.062500 0
  0.687500   0.125000 0
  0.000000   0.765625 0
  0.421875   0.500000 0
  0.031250   0.593750 0
  0.718750   0.015625 0
  0.687500   0.234375 0
  0.015625   0.812500 0
  0.703125   0.171875 0
  0.703125   0.187500 0
  0.703125   0.140625 0
  0.015625   0.781250 0
  0.437500   0.515625 0
  0.500000   0.796875 0
  0.078125   0.015625 0
  0.687500   0.203125 0
  0.250000   0.578125 0
  0.703125   0.109375 0
  0.000000   0.515625 0
  0.500000   0.765625 0
  0.062500   0.593750 0
  0.750000   0.015625 0
  0.015625   0.843750 0
  0.687500   0.000000 0
  0.500000   0.828125 0
  0.078125   0.046875 0
  0.015625   0.531250 0
  0.250000   0.546875 0
  0.703125   0.078125 0
  0.703125   0.031250 0
  0.015625   0.671875 0
  0.250000   0.515625 0
  0.000000   0.656250 0
  0.500000   0.906250 0
  0.078125   0.125000 0
  0.687500   0.015625 0
  0.031250   0.546875 0
  0.687500   0.031250 0
  0.500000   0.859375 0
  0.703125   0.000000 0
  0.703125   0.046875 0
  0.703125   0.015625 0
  0.500000   0.937500 0
  0.234375   0.531250 0
  0.031250   0.578125 0
  0.687500   0.062500 0
  0.500000   0.890625 0
  0.031250   0.796875 0
  0.453125   0.531250 0
  0.500000   0.968750 0
  0.078125   0.187500 0
  0.234375   0.562500 0
  0.031250   0.609375 0
  0.718750   0.031250 0
  0.687500   0.093750 0
  0.750000   0.046875 0
  0.000000   0.937500 0
  0.421875   0.671875 0
  0.718750   0.187500 0
  0.031250   0.828125 0
  0.765625   0.062500 0
  0.015625   0.953125 0
[...]
CELL_DATA 7648
SCALARS scalar_value float 1
LOOKUP_TABLE default
-4.659e-07
6.97126e-07
2.40053e-06
-3.31951e-07
2.07358e-05
4.8713e-06
3.17165e-07
-0.00274474
-0.00360566
0.00214287
0.00325575
5.99797e-06
-2.15181e-05
-1.78298e-05
-3.20625e-05
0.00241905
0.579997
0.0203652
-0.0017211
1.05714e-10
0.00779594
-0.0147837
-0.037868
-9.06029e-06
0.176918
-0.00061083
-0.000680813
0.0663211
7.22459e-05
0.0374924
0.719632
0.29118
0.538335
3.05176e-06
-3.0559e-06
1.90023e-05
-1.93761e-06
-5.31269e-05
-0.000104142
0.00106305
-5.96469e-07
0.00160963
0.00541094
-4.04939e-06
-3.61547e-07
-2.88344e-05
2.92565e-05
2.58045e-05
0.00401084
-0.00154421
1.67618e-05
1.1844e-05
7.36256e-09
-7.64867e-07
0.00388066
0.00936533
0.0170518
-0.0126954
0.00263045
1.34635e-05
5.86878e-06
0.000460654
-7.32073e-08
-0.0029101
0.000652286
-0.00128529
0.0387152
-5.09845e-07
0.3934
4.17527e-07
-1.31716e-07
-7.78435e-07
0
0
-1.55543e-05
-0.00537604
0.116161
0.0261356
0.0753929
0.00503366
-4.27748e-06
0.0424235
-0.0220215
-0.00240729
3.25531e-10
-1.13035e-05
9.83495e-05
-0.00251297
-0.00620258
0.00584388
0.00632959
0.00490926
2.79261e-05
2.134e-05
-2.67179e-05
1.58135e-05
-7.61565e-08
-1.00073e-06
0.00080425
0.00718513
0.0128262
-7.02329e-06
-4.56855e-06
-3.0554e-06
-0.0191563
2.07393e-06
-0.000241121
-0.000205605
0.186179
0.258829
-0.000452277
0.00026939
-0.00889832
0.0107817
0.0428081
0.124901
0.000184557
3.16126e-05
0.000542879
3.21825e-05
6.56595e-05
-0.00581941
-0.00545805
1.39822e-07
0
3.49024e-06
-8.30993e-07
0.0497812
0.0903437
0.132862
0.105213
9.76977e-06
0.00179339
0.0139537
-9.57176e-07
3.46724e-07
-0.0239326
-0.0104414
-0.0147017
0.400744
1.26903e-06
-6.25009e-10
4.90424e-07
-9.55137e-07
0.0439618
-6.73065e-07
0
-2.28789e-05
1.87928e-10
-0.00302484
-1.70237e-06
5.53316e-07
-0.000838039
-0.00070593
0.00102315
5.22262e-06
-2.55536e-06
0.00247852
-0.00666798
0.00871842
-0.000224673
0.00459551
2.18837e-07
3.1299e-09
0.000634637
0.000835177
-6.65475e-08
6.94661e-07
1.13066e-07
0.00773268
-1.74918e-06
0.00347397
0
-2.13907e-10
-0.00774309
-0.00346013
0.0389337
1.21284e-09
-9.19739e-06
-0.000494622
-8.56268e-05
1.43445e-05
-0.000609097
0.000110004
-1.86827e-05
-0.000331827
0.000967723
-0.00361846
-1.03473e-05
-0.00407192
-0.0111714
0.000379191
-0.00057679
2.26805e-09
-9.48817e-09
3.60364e-06
1.20713e-05
-0.0105441
1.91213e-07
-6.91637e-08
4.52421e-05
0.000428704
-0.00178294
-0.00173791
0.000227333
-3.1382e-06
0.00799372
0.0092298
0.0923202
-1.95903e-05
-1.19602e-05
-0.00110205
0.00111333
-0.00226349
0.0063849
0.00653096
0.00102124
0.00254246
-0.00502966
-0.00227405
0.00293303
5.68265e-06
2.94069e-07
0.00094505
-2.13612e-05
0.00066144
-1.87819e-06
3.70446e-05
-3.67706e-05
0.0432568
0.103761
0.20371
0.0481088
-5.74657e-05
-0.000629947
-7.54227e-05
7.57978e-06
0.00361537
-2.26382e-07
0.361217
-1.11023e-09
0.00164948
-0.0102132
0.0187238
-0.00603494
-1.65123e-10
-2.02666e-06
1.45402e-06
-1.47209e-06
-0.000338567
2.90334e-05
-0.000778009
0.000455024
-0.000455662
-0.000226304
0
4.07648e-07
6.75863e-05
3.48196e-06
-0.0122154
9.0704e-06
6.54254e-07
0.000751181
5.17288e-05
0.000199158
-9.77288e-06
0.0928806
7.39461e-05
8.08663e-05
0.346534
0.00145652
0
0.223187
0.410627
0.0138619
0.0016198
0.00454923
0.000686768
0.00316054
-0.00485529
-0.00404355
0.00116202
0.753287
0.736782
0.0969521
0.0943996
0.0582399
0.00572804
0.000294013
0.335242
0.122088
0.0889769
0.0237701
0.00463021
0.00535798
-0.0092946
0.741615
0.524881
0.060074
0.239709
-0.0129148
0.00497303
0.00447569
0.691609
0.792693
0.693957
4.06001e-06
0.472225
0.476322
0.699757
-3.84474e-07
0.698161
0.0179606
0.644254
-0.0131736
-0.0062987
-0.0108638
0.251678
0.26001
0.389921
-5.02006e-05
2.68009e-05
3.57557e-05
3.31054e-05
1.08965e-10
0.844191
0.00126943
-0.000334037
-9.81012e-05
-0.000408888
-0.00494922
0.0158058
3.56038e-09
-0.00356043
0.0165989
2.38838e-05
-7.82495e-08
2.86314e-06
5.51605e-07
9.86772e-07
0.00113654
0.0173585
0.000627072
0.000977259
-4.08361e-05
0.0129792
-0.0195368
-0.000484902
4.49607e-07
-3.5406e-09
7.62773e-06
0.00169479
-0.00269946
-0.017493
0.0148162
3.61672e-08
6.63885e-05
6.15514e-05
0.00379723
-0.00108736
0.156916
1.94995e-07
0.0512465
0
0.301113
-8.46013e-06
-0.037131
-0.00121591
0.0667128
0.004421
0.235687
0
1.13213e-05
0.0829483
0.00990673
0.341069
0.00179301
-0.0001958
0.0033107
0.00769072
-0.00667788
0.00108241
0.0143098
-0.0122253
-0.00974752
0.0133478
6.8591e-07
-0.00184279
0.000226251
0.00110295
0.000466299
5.72561e-05
0.00734795
-0.00476667
0.00104833
0.00482463
0.00307562
-8.32292e-05
0.00516235
0.0111839
0.0109817
-0.000541759
-1.59383e-05
5.15368e-05
0.000231528
-1.20428e-08
-0.0028883
0.00410024
0.000460352
-8.95864e-05
-3.16427e-05
-0.00750732
1.01029e-09
-0.00964742
0.00470504
-0.000150046
-2.47863e-07
0.000298116
0.00528583
0.00955827
-0.00145086
0.00165048
0.000401932
0.00461477
2.92315e-06
0.00143266
0.000159026
0.231735
0.000810222
-2.34292e-05
-0.000282934
0.789171
0
0.277855
0.00842874
0.00115888
9.74848e-06
1.96167e-08
-1.30176e-08
-2.06969e-07
8.69238e-06
5.89807e-05
0.00198199
-0.000575639
4.73277e-10
-6.83145e-10
0.193604
9.20193e-06
-1.20826e-09
6.51448e-07
1.03938e-09
0.253823
-0.00101925
-3.07251e-07
-6.1816e-06
2.79944e-05
5.25038e-07
0.224832
0.0217951
0.762632
0.245941
1.25743e-05
0.00398724
5.6138e-06
0.00401217
5.3031e-07
1.55669e-05
0.00186726
-5.99227e-05
4.03817e-07
0.242422
-0.00705552
0.00685493
-3.9891e-09
-0.00108599
-0.0022997
-1.58816e-05
6.50007e-10
0.00186155
-3.71995e-05
-2.90101e-08
0.00662334
0.00418968
-0.00907467
-0.000291088
6.73628e-05
-2.72778e-09
2.35356e-05
-1.58986e-05
0.27496
-1.426e-05
1.80464e-05
2.01852e-08
4.52332e-06
-2.38727e-05
0.422956
-3.82035e-05
1.9038e-05
-2.36183e-05
-3.01937e-08
0.0154824
-2.87793e-05
0.000151583
0.00133845
3.35015e-05
-0.000124193
4.28841e-05
-2.55923e-05
0.00191596
0.00038086
0.000684981
0.000252103
-0.000136306
4.37557e-07
0.144134
0.0322976
0
-0.00384321
0.0017147
0.00170422
5.98733e-07
-0.0100455
-1.8887e-10
0.000130573
-9.71769e-06
-2.38687e-06
1.62587e-07
-5.07265e-10
-0.00876241
0.855325
2.48902e-07
4.87978e-05
6.30002e-05
0.00266359
0.00319849
0
1.1945e-06
0
-0.000835804
-0.0121633
1.94729e-06
1.28443e-09
-0.00130252
-4.99305e-05
0.0594049
-0.00220366
-0.0512295
3.70255e-07
0.25729
0.00671711
-0.00133452
0.431693
-0.0016794
-0.0143023
0.184758
-0.0022848
2.54214e-05
-0.00291964
0.00587065
-0.00118519
1.97284e-06
0.180283
0.00658744
0.000975099
0.0118184
-0.000504173
0.00211924
-0.00160529
0.00237885
5.27627e-07
-1.28008e-08
-0.00346581
-0.000114986
-0.00454247
0.00731877
0.00323907
0.00612643
-2.0014e-09
0.00847109
-9.33598e-09
0.428845
0.23403
0.0734537
-0.0118218
-3.75423e-05
0.00933899
0.595878
0.000517702
0.0646492
-2.63482e-05
-4.3984e-06
4.16522e-05
-0.0017779
6.07748e-06
3.22945e-09
1.11755e-09
0.306286
3.07762e-06
0.429739
0.0410176
9.70378e-07
-1.28878e-05
0.000576996
0.001609
0.000100324
-0.00233904
7.60782e-07
4.76891e-06
-0.0017424
0.0034472
0.00111931
0.167758
2.07746e-08
0.524061
-0.00112579
0.0258083
-0.00399672
0.00554868
-0.0024072
-0.0146631
2.24115e-05
-0.00849654
-0.02196
-0.000745489
-0.0256495
0.000427125
0.000593392
0.00689262
0.00155638
0.0179608
0.00248155
2.07709e-05
0.000152711
-0.00391948
-0.000108634
-5.05543e-06
0.00764386
0.000756653
-0.000804894
-0.000124468
-3.73855e-05
0.704355
-4.69464e-05
-1.05527e-06
0.433189
0.000153426
-0.000398137
0.517318
0.111856
-0.000115765
0.785
0.00126136
0.00165136
0.0074941
0.00924257
-5.20814e-05
0.329889
0.150029
0.000163679
-0.0117847
8.41055e-07
0.363611
-9.67734e-06
0.695053
0.0029662
0.52951
0.765793
-7.42133e-05
0.00138139
-0.00110886
0.0181559
0.782308
-2.30038e-10
-7.23457e-05
0.00180202
-0.00129078
-0.00253028
0.0133248
0.000645516
5.15951e-10
0.54846
0.00659308
0.258523
-0.0144044
9.59895e-06
-9.61593e-05
0.00140286
0.746617
-4.92916e-05
-0.000131304
0.456182
2.19399e-06
-2.66828e-06
0.00683012
0.105108
0.0124135
-0.0173675
3.02385e-06
4.14138e-07
-6.21351e-08
-0.000279087
4.51858e-08
-0.00416294
0.00216968
0.723277
-1.14798e-07
2.91713e-08
1.6017e-08
-4.4155e-05
0.551763
0.0265153
0.660752
-0.00340077
-0.0116925
-0.00650068
0.00581187
0.00296616
0.711045
0.00143856
2.18946e-06
0.724164
0.696406
-0.000247749
0.488462
1.49491e-06
0.0372812
0.120031
0.327595
0.57518
0.00384862
1.01983e-06
-5.33882e-05
8.10354e-07
6.49667e-05
0
-1.10389e-05
-4.03057e-07
-0.00021312
-3.51958e-05
-0.000164926
-0.0047436
-0.000172706
-8.25229e-05
4.31707e-07
0.110201
7.72971e-06
0.173312
-0.00471071
-5.72386e-09
0.0251933
2.34486e-09
0.465634
-2.76951e-05
8.21866e-06
9.54647e-06
0.000471275
2.77308e-05
-0.0318333
0.00694394
2.67587e-05
0.0355377
0
8.65147e-05
0.0123672
-7.4334e-06
2.73854e-05
0.558543
-2.42773e-07
-2.8979e-05
-2.29219e-05
1.38025e-06
5.89139e-05
-0.000519461
1.39231e-05
5.00121e-07
0.00421009
1.11087e-06
0.00241293
3.88881e-06
0.438536
5.35866e-05
6.77209e-07
5.30023e-09
-2.40133e-05
0.000139957
1.47577e-06
4.66771e-05
0.025889
-0.00946138
-7.34313e-05
0.635351
-1.13666e-10
-0.00797314
0.0869255
0.0124614
0.0221894
0.000816489
0.0215804
-0.0165752
5.04754e-06
-7.62564e-05
0.205628
0.0024038
-0.00684684
0.146469
-0.00455394
0.0125279
0.00374141
0.00217765
0.186785
0.031052
-0.0123872
0.00116647
0.359428
0.786986
6.23163e-05
0.136802
0.00014091
0.408635
-9.71596e-05
-7.02289e-05
9.47471e-05
0.032009
0.114329
2.92442e-05
0.000213461
0
0.116581
3.95557e-05
-1.92035e-07
-0.000841406
-0.00118424
-0.00712036
-1.04885e-08
1.74033e-05
-1.11921e-08
0.0105197
0.0145764
-4.97355e-07
1.06209e-05
0.282034
-0.00185846
0.00250973
-0.000192311
0.244644
-0.00272601
2.45677e-07
0.0147108
-8.11331e-05
3.91615e-09
-2.12632e-05
-1.19393e-06
0.000148439
0.300925
-3.48993e-05
0.0555241
0.00032421
0.00014479
-0.000430254
0.00334903
0.010972
0.0158759
0.00268191
3.67116e-05
-0.0136306
-0.000392825
0.000203486
-0.00178847
-0.00118756
0.000441864
0.000135257
-0.000172831
-0.000141769
-0.00106566
6.96062e-05
-1.55241e-05
-3.26731e-08
0.000263177
0.00208971
3.76853e-05
0.000127373
6.65472e-07
-0.00396265
1.14754e-05
-1.56197e-05
2.04019e-05
-0.00446225
0.00414957
1.33388e-06
0.516887
0.0188428
0.500509
0.00010806
0.727989
0.00638518
-2.67445e-05
0.663471
-1.58008e-09
-6.04125e-09
-0.0039185
-1.30089e-09
-2.49163e-07
0.00191064
3.40557e-07
-5.79748e-05
0.010658
-0.00275285
-0.00115522
0.00215221
-0.00135754
0.00870272
-2.08481e-06
-1.90862e-07
-5.73841e-08
0.179658
-0.000134229
5.75698e-07
0
2.31255e-07
-4.76678e-10
0.000845241
-8.19976e-10
1.72622e-06
-0.000271845
1.10602e-08
1.59279e-06
-0.000304682
2.16428e-05
0.000211228
9.69909e-05
-8.69358e-08
-0.00441988
0.0643363
1.42999e-05
-0.00049227
-1.14834e-10
0.0763048
0.404064
0.446961
0
-1.10101e-05
0
0.1363
0.0202383
0
0.793403
-3.55267e-05
-1.54058e-05
0.528345
5.41331e-05
0.00102652
4.41767e-05
-0.00836198
0.0127341
-0.00640603
0.0179097
-3.48834e-09
4.42615e-07
0.0021586
-8.75357e-06
1.77676e-05
7.56817e-06
-3.28634e-05
1.07567e-05
2.70586e-07
-0.00145592
0.0010369
1.27871e-06
-0.00116561
1.90253e-08
5.30912e-09
-7.1147e-05
0.0189907
-9.56704e-08
-0.000521571
0.0835745
-0.000176871
-7.41445e-10
-0.00358063
0.189129
0.639818
-0.000127851
2.7035e-05
4.8487e-05
-9.43146e-05
0.00377481
-0.00363265
0.00217717
1.59115e-06
-0.00456288
3.98973e-06
-0.00135628
0.000252081
0.000456052
6.9216e-09
-6.77808e-06
0.000193212
-0.000184893
8.47744e-07
-4.16155e-05
0.00144839
-0.000309201
0.000379051
0
0
0.0257472
0.00509491
0.00879307
0.00193406
0.00372481
-6.69088e-06
0.000128004
-5.57034e-07
9.6591e-06
0.530591
0.694368
0.0186325
0
-5.18988e-10
-1.84299e-06
0.0195575
0.274628
-0.00151379
0.307738
-5.95671e-06
-5.07165e-07
4.66871e-07
1.05133e-05
0.00258425
1.81804e-05
0.000260727
-0.000358681
-0.000187159
0.00465877
-2.62287e-07
8.53239e-10
-0.0102898
-0.000468279
6.50102e-05
-0.000229194
-0.00576149
0.00952678
3.46648e-06
0.00185203
0.0559288
0.00387039
0.000374984
-0.000261823
-0.0186505
0.0054459
1.03132e-07
-6.10126e-05
0.000256153
-2.45382e-05
-4.61734e-06
-0.0124991
-3.60604e-08
-6.41436e-06
1.39671e-08
1.41856e-08
-2.63079e-06
-7.06202e-09
-1.12658e-06
1.00481e-05
-1.86412e-09
0.000106529
0.617072
0.000655404
0.0309173
1.24424e-05
0.00754056
4.62599e-07
3.83886e-05
0.173335
-0.000221429
1.42841e-08
0.000192961
0.194183
-0.00856176
-0.00773016
0.000677429
7.8304e-05
1.05335e-05
4.03763e-09
0.0242961
-1.29939e-06
-0.0109187
1.79111e-08
0.00214745
0.00926567
-1.18782e-05
-9.42349e-05
3.97785e-06
2.17521e-08
3.43651e-06
-0.000888445
-0.00119126
-0.00228642
0.00179102
-0.00272403
0.405294
1.03493e-05
0.361063
-9.88925e-07
0.022915
-1.39483e-06
0.32915
4.55228e-08
0.025025
0.0464605
0.14137
3.50719e-08
0.0354622
0.00802302
-7.25348e-05
0.0455709
-3.7125e-09
-0.00413276
7.62842e-06
-1.22267e-07
1.57385e-06
5.6979e-06
-0.00117479
0.00740868
1.48238e-10
8.1103e-09
5.5424e-10
-1.63166e-08
0.0996365
0.0384546
0.158552
0.324708
0.000417125
0.000484192
-5.59514e-05
4.39159e-07
4.57909e-06
3.01155e-06
-3.6338e-05
-1.58147e-05
-2.22418e-05
-2.5059e-09
-9.11902e-09
-2.98412e-09
-1.16857e-09
0.00802562
-0.00232721
-0.00435845
0.000419618
-2.34906e-06
-0.00140187
3.89e-06
0.0261546
0.238516
-0.0176208
0.00322222
5.75636e-09
0.00110515
8.50783e-09
-1.67084e-05
-4.14407e-07
0.000883622
1.21261e-05
-3.4163e-05
-0.00989403
-0.000207229
0.0608332
0.0189802
0.802284
0.713983
0.74256
0.000748701
0.000558737
0.00192476
0.00298207
0.621828
0.580293
0.456508
0.00224205
0.000989255
0.201243
0.354957
0.620247
0.733649
0.648317
0.592644
0.000914783
-0.000228088
0.00143692
0.000512454
0.000597157
-0.000159086
0.000210787
-0.00016561
1.05689e-07
-2.41364e-06
-3.11606e-06
-1.04101e-05
0.480893
0.00203813
-0.0143786
0.000482514
0.000973747
1.77715e-07
-0.0184744
0.0300894
0.242398
0.148146
-0.00373034
0.11058
0.284892
0.460535
-5.22214e-10
0.0206356
0.00764026
0.00262737
0.0171084
0.121239
0
-0.0218956
-7.54595e-05
8.09589e-05
-1.18751e-05
-0.000346166
3.33642e-06
-2.31113e-06
1.40886e-07
0.000614995
1.58381e-05
1.85772e-05
0.000331605
-0.00226973
-0.00170387
-0.00182338
7.88708e-10
0.00747449
-0.000467126
0.0128616
-0.000634126
2.54128e-05
7.82266e-10
-0.00495843
-0.000413055
-3.93593e-05
-4.91353e-09
4.50621e-06
8.30255e-07
1.36942e-06
0.314856
0
-0.0002777
0.428075
0.476738
0.00614413
4.2313e-08
-0.0206463
9.65606e-08
-5.62422e-06
-7.18363e-06
-3.35817e-06
-0.000336238
0
-2.3736e-05
1.29839e-05
-3.19006e-05
9.8396e-09
-1.66552e-08
-9.16654e-09
-1.1506e-08
0.0041367
0.607974
-0.000640673
0.000943768
0.754847
0.509383
0.307891
4.57539e-05
-0.000241054
9.39823e-05
2.33132e-05
5.95249e-05
0.00025441
-3.64442e-05
-9.26701e-06
7.40955e-10
-0.0190513
4.46063e-10
1.13773e-10
-0.00390935
-4.86665e-07
-0.00136667
-0.00189299
6.16555e-06
0.00115259
-0.000195919
-8.32884e-05
1.15745e-05
1.32875e-06
0.000782656
0.000199231
0.000297512
0.000811144
4.09594e-06
-0.0180534
0.0542918
1.8981e-06
-3.42694e-05
-1.73268e-05
-4.27312e-07
-4.53126e-07
8.31289e-08
-1.965e-06
-0.041296
-0.00582726
2.83321e-05
-0.000103226
1.07786e-05
-0.000144137
3.82512e-06
-2.00363e-07
-1.49172e-07
6.11063e-06
-0.00922834
0.000712884
0.00250662
-0.000197656
0.00451855
0.000287695
0.000378802
0.00056212
0.686037
0.489391
0.303524
0
-0.00870491
0.0209204
0.801779
0.00463941
0.00239602
6.7531e-05
-5.93484e-05
-6.38693e-05
0.000275369
0.00033133
0.00067734
0.000747667
-0.00378987
-0.000357439
0.0110451
-0.0113008
0.00339025
-0.000607279
0.000562001
3.54354e-06
0.000105236
-0.000161382
-1.61954e-06
0.000347092
0.00235663
0.000208555
0.746248
0.755876
8.57718e-06
-0.00395783
0.00107994
-0.00196386
-0.00174818
-0.0408138
-0.0388624
-1.5026e-08
0.00464489
-0.0193649
6.75994e-08
0.0127986
0.0211597
0.0438959
0.00968559
0.00650253
0.0177637
-0.00359309
0.00134627
-1.63231e-05
0.0024151
0.00681941
0.000474161
0.00150502
0.212128
0.263498
0.0179256
0.363196
-2.89499e-08
-8.4398e-08
-3.30068e-07
-0.0238876
-0.016089
1.10868e-09
-3.40563e-09
-2.10751e-09
-9.83696e-09
-4.22356e-06
-1.64378e-06
-2.64692e-05
0.568659
6.20998e-05
2.22522e-05
0.000159141
9.84516e-05
1.16053e-07
1.52035e-06
1.92023e-06
3.23393e-07
-1.06725e-07
0.0225943
-0.000511736
0.00121323
0.00637206
0.00535009
-4.04656e-05
0.000156523
0.00452156
-7.75434e-07
9.32497e-06
-6.6336e-05
0.0178239
-0.000244227
6.34471e-05
0.0028607
2.26982e-07
-1.28693e-06
3.36019e-07
0.0169114
0.00460286
-6.06186e-05
-0.000134858
-3.01736e-05
0.00140152
-1.26607e-09
2.05592e-06
-2.22569e-08
-5.40197e-08
-2.48611e-06
4.32863e-07
1.44645e-09
-5.0834e-07
-1.14445e-06
-5.77339e-05
5.96571e-05
1.02593e-05
0.321002
-3.56673e-07
4.03735e-05
1.38715e-06
2.5545e-07
0.00401723
0.000153278
0.0118796
-7.00276e-05
-0.000320333
0.000105888
-2.58466e-05
2.12799e-05
-0.00019193
0.00311534
-0.0167249
0.000456875
0.00046708
0.000142549
4.22147e-07
0.00601239
2.02842e-09
2.16501e-09
-0.0178533
-0.00832805
-0.0141711
0.000106898
0.00129066
-4.31731e-06
-2.19519e-05
0.000650012
0.000115103
8.52497e-06
3.86055e-07
4.39726e-10
-0.00293505
-2.09558e-08
-0.0133402
0.00904983
0.593688
0.713283
0.097647
0.418707
0.00045964
0.000144126
-0.000298667
-0.00889938
-0.00168976
0.00230851
0.00158343
0.00411169
-0.00355244
-0.0002733
-0.000156719
0.000866168
1.65835e-08
-2.30841e-08
-3.18102e-08
3.77752e-08
-5.82448e-07
-1.01267e-06
-0.000140412
4.32429e-10
-0.0221065
0.0180144
-1.09079e-08
-0.0228548
2.15745e-05
0.00508723
0.00247443
3.5118e-07
-4.59315e-06
0.00171545
0.000102242
2.17838e-05
-7.09203e-05
-4.91725e-06
-0.0175534
-0.00122646
0.00233041
-0.00232975
0.00781241
-0.00128262
0.00322431
0.00723522
0.00589372
0.00851023
0.000755934
0.011375
0.0137357
-0.00521691
-0.00200594
-0.00127512
0.0101091
0.00431921
0.0305859
4.31456e-10
0.17393
0.0629924
0.176162
0.224173
0.00785008
3.10298e-05
-2.03408e-05
-8.36515e-06
4.8012e-06
0.000101272
-1.1501e-05
-6.96261e-06
-1.77759e-05
-0.000104437
-0.000113181
-3.38423e-05
2.78847e-05
-2.94951e-05
-1.26117e-05
-6.3601e-06
-9.50756e-07
-9.5542e-07
1.18554e-05
-1.1428e-05
1.44101e-07
-6.48245e-05
-1.39549e-05
-1.10427e-05
-7.90749e-05
0.391824
0.383351
0.492446
0.637667
0.810969
0.794308
0.807879
0.75364
-8.93958e-06
9.04021e-06
-2.21591e-07
0.0028273
0.0012261
0.000112931
3.52958e-05
0.625476
0.36838
0.000924849
0.00372037
-0.000596833
-0.0012795
-0.00188046
0.10558
0.5734
0.58546
0.0611584
0.76123
0.0696857
-1.57017e-05
8.12977e-06
0.000500269
-3.04845e-10
1.1793e-09
-0.00326714
-0.00012942
-0.00827001
0.00472916
1.78401e-05
6.35087e-05
7.37163e-09
-1.00933e-09
1.93523e-08
9.65015e-09
1.15011e-08
0.277794
0.0230772
0.00297589
-0.00241911
0.806583
0.816889
0.791763
-5.48824e-10
0.804298
0.722157
0.0454373
-0.010619
0.000646699
0.00182938
0.000171823
5.40217e-10
0.115195
0.297625
0.000100893
0.000144957
0.000481676
0.750012
0.527703
0.758476
0.744946
0.68525
0.00178044
-0.00188447
-7.05277e-05
9.46627e-05
-2.73229e-05
0.0846989
0.0478553
0.0322335
0.00586307
-0.00217827
4.51655e-09
0.000880796
0.00104253
-0.00205608
0.00288298
0.00328136
-0.0014534
3.28144e-05
-0.000411265
-4.76632e-06
-2.19562e-09
0.57471
0.488824
0.35651
0.171243
0.116483
0
0.0606155
-0.000139353
-3.26179e-06
-4.24518e-05
-3.17088e-05
-0.000119486
-0.000444474
-1.1403e-05
0.000156158
-0.0003576
-0.000154041
0.222698
0.680798
0.398637
0.610386
5.59742e-05
0.0709171
0.00096435
0.124851
0.000974221
0.00110265
0.215704
0.108746
0.196625
-0.00282693
-0.0140741
-0.0104963
0.00558366
0.00767445
-0.0127571
0.000176972
0.565512
1.25667e-05
-0.00421655
0.00195067
0.0040853
-0.0073983
0.00102109
-0.00160576
0.00014277
4.57488e-07
4.81239e-07
1.48561e-06
4.28618e-06
0
0
0
-0.0477573
0.131559
3.81924e-06
5.20264e-06
2.58637e-05
1.56116e-05
-7.90403e-06
5.36764e-05
0.00201422
0.000175859
7.74345e-05
0.000543505
-1.8437e-05
3.18342e-06
2.55989e-05
4.60964e-06
2.87072e-05
7.04686e-06
0.00271888
0.00382594
0.00352338
-0.00258229
0.000179188
-0.0140174
-0.00302136
0.0727249
2.04479e-06
0.00497705
0.442764
0.568135
-4.55311e-08
-0.0135905
-0.0106699
0.202691
0.0858743
2.98703e-08
0.00169572
-8.72118e-05
-0.000670407
-0.000304304
0.000193803
0.00140934
0.00548676
0
0
0
0
2.69918e-05
-4.72499e-05
-0.00142752
0.00119576
0.00186229
-3.058e-05
1.12369e-05
4.62486e-05
-3.30721e-10