# vtk DataFile Version 2.0
Unstructured Grid by M++
ASCII
DATASET UNSTRUCTURED_GRID
POINTS 4072 float
  0.875000   1.000000 0
  0.875000   0.984375 0
  0.875000   0.968750 0
  0.875000   0.953125 0
  0.875000   0.937500 0
  0.875000   0.921875 0
  0.875000   0.906250 0
  0.875000   0.890625 0
  0.875000   0.875000 0
  0.875000   0.859375 0
  0.875000   0.843750 0
  0.875000   0.828125 0
  0.875000   0.812500 0
  0.875000   0.796875 0
  0.875000   0.781250 0
  0.875000   0.765625 0
  0.859375   1.000000 0
  0.859375   0.984375 0
  0.859375   0.968750 0
  0.859375   0.953125 0
  0.859375   0.937500 0
  0.859375   0.921875 0
  0.859375   0.890625 0
  0.859375   0.875000 0
  0.859375   0.859375 0
  0.859375   0.843750 0
  0.859375   0.828125 0
  0.859375   0.812500 0
  0.859375   0.796875 0
  0.859375   0.781250 0
  0.859375   0.765625 0
  0.859375   0.671875 0
  0.859375   0.656250 0
  0.859375   0.640625 0
  0.843750   1.000000 0
  0.843750   0.984375 0
  0.843750   0.968750 0
  0.843750   0.953125 0
  0.843750   0.937500 0
  0.843750   0.921875 0
  0.843750   0.906250 0
  0.843750   0.875000 0
  0.843750   0.859375 0
  0.843750   0.843750 0
  0.843750   0.828125 0
  0.843750   0.812500 0
  0.843750   0.796875 0
  0.843750   0.781250 0
  0.843750   0.765625 0
  0.843750   0.671875 0
  0.843750   0.656250 0
  0.843750   0.640625 0
  0.828125   1.000000 0
  0.828125   0.984375 0
  0.828125   0.968750 0
  0.828125   0.953125 0
  0.828125   0.937500 0
  0.828125   0.921875 0
  0.875000   0.671875 0
  0.812500   0.921875 0
  0.890625   0.656250 0
  0.828125   0.906250 0
  0.875000   0.656250 0
  0.812500   0.906250 0
  0.890625   0.640625 0
  0.828125   0.890625 0
  0.875000   0.640625 0
  0.812500   0.890625 0
  0.890625   0.625000 0
  0.828125   0.875000 0
  0.890625   0.609375 0
  0.828125   0.859375 0
  0.890625   0.593750 0
  0.828125   0.843750 0
  0.890625   0.578125 0
  0.828125   0.828125 0
  0.890625   0.562500 0
  0.828125   0.812500 0
  0.828125   0.796875 0
  0.828125   0.781250 0
  0.828125   0.765625 0
  0.828125   0.671875 0
  0.828125   0.656250 0
  0.828125   0.640625 0
  0.875000   0.750000 0
  0.812500   1.000000 0
  0.875000   0.625000 0
  0.812500   0.875000 0
  0.875000   0.734375 0
  0.812500   0.984375 0
  0.875000   0.718750 0
  0.812500   0.968750 0
  0.875000   0.703125 0
  0.812500   0.953125 0
  0.875000   0.687500 0
  0.812500   0.937500 0
  0.875000   0.609375 0
  0.812500   0.859375 0
  0.875000   0.593750 0
  0.812500   0.843750 0
  0.875000   0.578125 0
  0.812500   0.828125 0
  0.812500   0.812500 0
  0.875000   0.546875 0
  0.812500   0.796875 0
  0.812500   0.781250 0
  0.812500   0.765625 0
  0.859375   0.750000 0
  0.796875   1.000000 0
  0.859375   0.625000 0
  0.796875   0.875000 0
  0.859375   0.734375 0
  0.796875   0.984375 0
  0.859375   0.718750 0
  0.796875   0.968750 0
  0.859375   0.703125 0
  0.796875   0.953125 0
  0.859375   0.687500 0
  0.796875   0.937500 0
  0.859375   0.609375 0
  0.796875   0.859375 0
  0.859375   0.593750 0
  0.796875   0.843750 0
  0.859375   0.578125 0
  0.796875   0.828125 0
  0.859375   0.562500 0
  0.796875   0.812500 0
  0.796875   0.796875 0
  0.859375   0.531250 0
  0.796875   0.781250 0
  0.796875   0.765625 0
  0.843750   0.750000 0
  0.781250   1.000000 0
  0.843750   0.625000 0
  0.781250   0.875000 0
  0.843750   0.734375 0
  0.781250   0.984375 0
  0.843750   0.718750 0
  0.781250   0.968750 0
  0.843750   0.703125 0
  0.781250   0.953125 0
  0.843750   0.687500 0
  0.781250   0.937500 0
  0.843750   0.609375 0
  0.781250   0.859375 0
  0.843750   0.593750 0
  0.781250   0.843750 0
  0.843750   0.578125 0
  0.781250   0.828125 0
  0.781250   0.812500 0
  0.843750   0.546875 0
  0.781250   0.796875 0
  0.781250   0.781250 0
  0.843750   0.515625 0
  0.781250   0.765625 0
  0.828125   0.750000 0
  0.765625   1.000000 0
  0.828125   0.625000 0
  0.765625   0.875000 0
  0.828125   0.734375 0
  0.765625   0.984375 0
  0.828125   0.718750 0
  0.765625   0.968750 0
  0.828125   0.703125 0
  0.765625   0.953125 0
  0.828125   0.687500 0
  0.765625   0.937500 0
  0.828125   0.609375 0
  0.765625   0.859375 0
  0.828125   0.593750 0
  0.765625   0.843750 0
  0.828125   0.578125 0
  0.765625   0.828125 0
  0.828125   0.562500 0
  0.765625   0.812500 0
  0.765625   0.796875 0
  0.828125   0.531250 0
  0.765625   0.781250 0
  0.765625   0.765625 0
  0.812500   0.750000 0
  0.750000   1.000000 0
  0.953125   1.000000 0
  0.812500   0.734375 0
  0.750000   0.984375 0
  0.812500   0.718750 0
  0.750000   0.968750 0
  0.812500   0.703125 0
  0.750000   0.953125 0
  0.812500   0.687500 0
  0.750000   0.937500 0
  0.812500   0.671875 0
  0.750000   0.921875 0
  0.812500   0.656250 0
  0.750000   0.906250 0
  0.812500   0.640625 0
  0.750000   0.890625 0
  0.812500   0.625000 0
  0.750000   0.875000 0
  0.812500   0.609375 0
  0.750000   0.859375 0
  0.812500   0.593750 0
  0.750000   0.843750 0
  0.812500   0.578125 0
  0.750000   0.828125 0
  0.750000   0.812500 0
  0.812500   0.546875 0
  0.750000   0.796875 0
  0.750000   0.781250 0
  0.812500   0.515625 0
  0.750000   0.765625 0
  0.796875   0.750000 0
  0.734375   1.000000 0
  0.796875   0.734375 0
  0.734375   0.984375 0
  0.796875   0.718750 0
  0.734375   0.968750 0
  0.796875   0.703125 0
  0.734375   0.953125 0
  0.796875   0.687500 0
  0.734375   0.937500 0
  0.796875   0.671875 0
  0.734375   0.921875 0
  0.796875   0.656250 0
  0.734375   0.906250 0
  0.796875   0.640625 0
  0.734375   0.890625 0
  0.796875   0.625000 0
  0.734375   0.875000 0
  0.796875   0.609375 0
  0.734375   0.859375 0
  0.796875   0.593750 0
  0.734375   0.843750 0
  0.796875   0.578125 0
  0.734375   0.828125 0
  0.734375   0.812500 0
  0.734375   0.796875 0
  0.796875   0.531250 0
  0.734375   0.781250 0
  0.734375   0.765625 0
  0.781250   0.750000 0
  0.718750   1.000000 0
  0.921875   1.000000 0
  0.781250   0.734375 0
  0.718750   0.984375 0
  0.781250   0.718750 0
  0.718750   0.968750 0
  0.781250   0.703125 0
  0.718750   0.953125 0
  0.859375   0.906250 0
  0.781250   0.687500 0
  0.718750   0.937500 0
  0.781250   0.671875 0
  0.718750   0.921875 0
  0.781250   0.656250 0
  0.718750   0.906250 0
  0.781250   0.640625 0
  0.718750   0.890625 0
  0.781250   0.625000 0
  0.718750   0.875000 0
  0.781250   0.609375 0
  0.718750   0.859375 0
  0.781250   0.593750 0
  0.718750   0.843750 0
  0.781250   0.578125 0
  0.718750   0.828125 0
  0.781250   0.562500 0
  0.718750   0.812500 0
  0.781250   0.546875 0
  0.718750   0.796875 0
  0.781250   0.531250 0
  0.718750   0.781250 0
  0.781250   0.515625 0
  0.718750   0.765625 0
  0.765625   0.750000 0
  0.703125   1.000000 0
  0.765625   0.734375 0
  0.703125   0.984375 0
  0.765625   0.718750 0
  0.703125   0.968750 0
  0.765625   0.703125 0
  0.703125   0.953125 0
  0.765625   0.687500 0
  0.703125   0.937500 0
  0.843750   0.890625 0
  0.703125   0.921875 0
  0.765625   0.656250 0
  0.703125   0.906250 0
  0.765625   0.640625 0
  0.703125   0.890625 0
  0.765625   0.625000 0
  0.703125   0.875000 0
  0.765625   0.609375 0
  0.703125   0.859375 0
  0.765625   0.593750 0
  0.703125   0.843750 0
  0.765625   0.578125 0
  0.703125   0.828125 0
  0.765625   0.562500 0
  0.703125   0.812500 0
  0.765625   0.546875 0
  0.703125   0.796875 0
  0.765625   0.531250 0
  0.703125   0.781250 0
  0.765625   0.515625 0
  0.703125   0.765625 0
  0.750000   0.750000 0
  0.687500   1.000000 0
  0.890625   1.000000 0
  0.750000   0.734375 0
  0.687500   0.984375 0
  0.750000   0.718750 0
  0.687500   0.968750 0
  0.578125   0.796875 0
  0.578125   0.781250 0
  0.578125   0.765625 0
  0.546875   0.953125 0
  0.546875   0.968750 0
  0.546875   0.718750 0
  0.546875   0.687500 0
  0.250000   0.609375 0
  0.937500   0.031250 0
  0.046875   0.703125 0
  0.734375   0.062500 0
  0.734375   0.078125 0
  0.734375   0.046875 0
  0.046875   0.593750 0
  0.046875   0.562500 0
  0.046875   0.531250 0
  0.718750   0.156250 0
  0.046875   0.609375 0
  0.734375   0.031250 0
  0.062500   0.609375 0
  0.234375   0.703125 0
  0.718750   0.125000 0
  0.046875   0.578125 0
  0.734375   0.000000 0
  0.062500   0.578125 0
  0.000000   0.828125 0
  0.234375   0.671875 0
  0.234375   0.625000 0
  0.718750   0.093750 0
  0.687500   0.156250 0
  0.062500   0.546875 0
  0.000000   0.796875 0
  0.718750   0.046875 0
  0.031250   0.687500 0
  0.687500   0.171875 0
  0.500000   1.000000 0
  0.078125   0.218750 0
  0.234375   0.593750 0
  0.718750   0.062500 0
  0.687500   0.125000 0
  0.000000   0.765625 0
  0.421875   0.500000 0
  0.031250   0.593750 0
  0.718750   0.015625 0
  0.687500   0.234375 0
  0.015625   0.812500 0
  0.703125   0.171875 0
  0.703125   0.187500 0
  0.703125   0.140625 0
  0.015625   0.781250 0
  0.437500   0.515625 0
  0.500000   0.796875 0
  0.078125   0.015625 0
  0.687500   0.203125 0
  0.250000   0.578125 0
  0.703125   0.109375 0
  0.000000   0.515625 0
  0.500000   0.765625 0
  0.062500   0.593750 0
  0.750000   0.015625 0
  0.015625   0.843750 0
  0.687500   0.000000 0
  0.500000   0.828125 0
  0.078125   0.046875 0
  0.015625   0.531250 0
  0.250000   0.546875 0
  0.703125   0.078125 0
  0.703125   0.031250 0
  0.015625   0.671875 0
  0.250000   0.515625 0
  0.000000   0.656250 0
  0.500000   0.906250 0
  0.078125   0.125000 0
  0.687500   0.015625 0
  0.031250   0.546875 0
  0.687500   0.031250 0
  0.500000   0.859375 0
  0.703125   0.000000 0
  0.703125   0.046875 0
  0.703125   0.015625 0
  0.500000   0.937500 0
  0.234375   0.531250 0
  0.031250   0.578125 0
  0.687500   0.062500 0
  0.500000   0.890625 0
  0.031250   0.796875 0
  0.453125   0.531250 0
  0.500000   0.968750 0
  0.078125   0.187500 0
  0.234375   0.562500 0
  0.031250   0.609375 0
  0.718750   0.031250 0
  0.687500   0.093750 0
  0.750000   0.046875 0
  0.000000   0.937500 0
  0.421875   0.671875 0
  0.718750   0.187500 0
  0.031250   0.828125 0
  0.765625   0.062500 0
  0.015625   0.953125 0
[...]
CELL_DATA 7648
SCALARS scalar_value float 1
LOOKUP_TABLE default
-2.47872e-05
-1.11042e-05
3.62584e-06
-4.1501e-07
0.000726704
0.000397632
-7.47544e-05
-0.00221432
-0.00146562
-0.000132787
0.00098531
3.49261e-05
-0.000125079
0.00195373
0.0175142
0.0047435
0.559176
-0.0142787
8.53844e-05
0
0.00385393
0.000417413
-0.0212045
7.65554e-05
0.0187131
-0.00369177
-0.00248029
-0.00469293
-0.00385649
-0.00100444
0.416038
0.753415
0.624417
6.96993e-05
3.87793e-05
3.63385e-05
-2.39434e-06
-8.51996e-05
0.00153786
-0.0014476
-2.83902e-06
0.00308357
0.00874262
1.61237e-05
1.87667e-06
-0.000116651
0.000191157
-0.000101695
-0.00235531
-0.000819075
5.19951e-05
-3.12956e-05
7.35836e-06
7.61378e-06
-0.00439048
0.00270486
-0.00197471
-0.00226318
0.00291765
4.73339e-05
1.25213e-05
-0.00104815
-1.82725e-07
0.000102097
0.00105262
0.00059657
-0.011846
4.92739e-06
0.682247
4.10578e-06
4.21412e-06
1.13773e-06
-4.92232e-10
-3.20473e-09
2.90252e-05
-0.00295524
0.00250253
0.00793272
0.00712051
-0.00680383
4.64378e-05
-0.0179089
-0.0160677
0.0003288
-1.69717e-09
-4.51442e-05
0.00444766
0.00340568
-0.0071961
-0.0124427
0.0390584
0.000586622
4.54288e-05
7.40917e-05
-1.89361e-05
4.24836e-05
-4.45887e-08
1.24999e-05
-0.0029538
0.0770368
0.258844
-2.88641e-05
-2.13208e-05
-5.6293e-06
0.000397441
-0.000266706
-0.000693924
-0.000359972
0.0583599
0.0440243
0.00010743
-5.98812e-05
-0.0014538
0.00236592
0.581348
0.725281
0.00269838
-0.00986508
0.00531329
0.0591152
-0.00734184
0.00359261
0.00890768
2.63379e-05
-1.24445e-09
9.14538e-06
1.11264e-06
0.0122478
0.0298641
0.0420129
0.0108156
3.92729e-05
-0.00179761
0.0105436
-6.92583e-06
-1.07858e-06
-0.00886532
-0.0110066
-0.00458094
-0.0106012
-5.95191e-06
6.89553e-10
1.67994e-06
6.01534e-06
0.0400393
-2.36179e-06
8.05093e-09
2.29415e-05
8.64935e-09
-0.00764431
-2.01068e-06
1.06989e-06
9.85287e-05
0.00473968
-0.00110331
0.000389997
9.9524e-05
0.0123373
-0.00751048
0.00230488
0.0114232
0.006194
-1.81116e-05
-9.47424e-09
0.00155876
0.00305562
2.3093e-06
-8.48363e-06
2.0717e-06
0.00755134
6.07631e-07
0.00641915
-2.36491e-10
1.57777e-09
-0.00119305
0.0039471
0.00528776
3.94127e-10
-3.31555e-05
-0.00190573
-5.53342e-07
5.41745e-05
-0.000469831
0.000634438
0.000264956
0.000739601
-0.00162223
-0.0026525
-4.34133e-05
-0.00661867
0.0142709
8.51565e-05
0.000666244
1.23529e-08
-5.39417e-07
2.28498e-05
2.14911e-05
0.0293481
3.42329e-06
6.1073e-07
-2.57612e-05
0.00395736
-0.00415712
-0.00263312
0.000179773
0.00011374
-0.00150254
0.00266666
0.688992
-8.67301e-05
-6.5612e-06
-0.000385273
-4.19978e-05
-0.000126671
-0.00112654
0.00521049
-0.00706517
0.00779434
-0.00902719
-0.00858961
0.0026084
2.72327e-05
1.16077e-06
0.0010198
-4.40292e-05
-0.003121
8.4782e-05
0.000219783
0.000211878
0.0197001
0.0136593
0.024772
-0.00141822
-0.000345166
0.000588272
-0.000354403
-0.00135764
-0.0021841
4.20346e-06
0.559329
1.95353e-07
0.17243
0.00242189
0.00224924
-0.0157052
-8.04844e-10
0.00716459
0.00244086
0.00156791
0.000429023
-0.00166884
-0.00215234
0.00100467
0.00110117
0.000310169
3.09763e-09
7.18752e-06
0.00109476
-8.22641e-05
-0.00347105
0.000177184
-0.000105719
-0.00178581
0.00263543
-0.00216683
-0.00440646
0.0196597
0.0534485
0.0159657
0.32148
0.00676136
2.73299e-10
0.0273288
0.153709
0.0106723
0.000658017
0.000108162
0.00672
0.00689026
-0.00230333
-0.00860769
-0.0132809
0.26748
0.318576
0.709869
0.740083
0.586753
0.00573822
-0.0174714
0.764793
0.687708
0.575021
0.368229
0.00549937
0.00133176
-0.00526658
0.401738
0.645624
0.0181765
0.706899
0.00464114
0.00121853
0.00354209
0.0877901
0.190564
0.461189
2.93804e-05
0.00720907
-0.061683
0.0190291
-6.15636e-07
0.319766
0.1828
0.501674
-0.00116419
0.000532012
2.12198e-05
-0.00153137
0.00657636
0.0191125
-7.33251e-05
4.34537e-05
3.71515e-05
8.80346e-06
7.63871e-10
0.202346
0.00155366
0.000416622
0.000332954
0.000222504
-0.00179791
0.0078194
-9.08835e-07
0.000298545
0.00118985
-1.42476e-05
-2.62814e-06
2.09621e-05
-5.4084e-06
8.69395e-06
0.00240459
-0.00399871
0.00191118
0.00582901
0.000113327
0.00886184
-0.00678806
0.00346701
-3.84241e-07
4.17988e-07
0.000956138
-0.00463455
0.0108292
-0.00569789
0.00112008
-4.57906e-06
-0.000130414
6.66817e-05
-0.00533935
0.00764267
0.76505
-5.16944e-05
-0.0202524
4.87236e-10
0.290428
0.00323043
-0.00969345
0.0025105
0.0169027
0.00619908
0.135639
-9.83791e-10
4.00296e-06
-0.0147413
0.000771348
0.0907196
-0.000923522
-0.000620485
-0.0111903
0.00822809
0.00361348
0.00329363
0.0046693
-0.00233855
-0.00634303
0.00161736
-1.40167e-06
-0.00615554
9.89074e-05
0.00104201
0.00109798
0.000150016
0.00373207
0.00666001
-0.00516462
-0.000818532
-0.00779263
-0.00967424
-0.00184206
-0.00151134
0.00291805
-0.00135311
-5.00521e-06
0.000194473
-7.52723e-06
1.73577e-07
0.000123637
-0.000182963
0.00223878
-0.000137689
-0.000398803
-0.0198143
-8.77195e-08
-0.0121296
-0.00313146
0.0124153
1.48422e-06
-0.000702071
0.000805446
0.000624021
0.00786202
0.00523371
0.00044882
0.000313371
0.000251303
0.00359418
-0.00124645
0.787008
0.000927332
0.00448357
0.0132569
0.206761
3.43967e-10
0.0276477
-0.0017097
0.00209195
-3.46106e-05
-3.04789e-06
1.65414e-06
1.41326e-07
6.59696e-05
3.42615e-06
0.055804
0.00352027
-1.826e-08
9.90875e-08
0.0622694
-0.000437444
2.25127e-07
2.42444e-05
-6.76598e-08
0.649953
-0.00294209
2.54317e-05
3.43122e-06
5.71152e-05
-2.43444e-06
0.0970166
0.335613
0.188552
0.0826177
-0.000156187
0.109567
0.000343278
0.00542179
3.1113e-06
-0.000273973
0.00459656
5.47385e-07
-9.88401e-06
0.0586906
-0.00381504
0.00987942
-1.06874e-07
0.0131551
-0.00450706
0.00130969
-1.04561e-07
0.156814
0.000348268
-2.20612e-07
-0.00361193
0.00658013
-0.00159898
-0.00100249
0.00355379
2.2335e-07
3.64107e-05
-1.75598e-06
-0.001471
-4.02911e-05
5.66905e-06
-6.19785e-07
0.000404354
-0.000408784
0.734891
-2.09052e-05
2.02297e-05
-9.16519e-05
-1.14657e-06
-0.00127199
-7.33443e-05
0.00060413
0.00145845
-3.86271e-05
-9.55325e-05
0.000181378
0.000143159
0.00107387
0.000477401
0.000551531
0.00057113
-0.000250878
0.000291497
-0.00708083
-0.0132986
0
-0.003913
0.0064323
0.121384
0.000431211
0.00483819
0
1.18639e-05
0.000198921
-1.7059e-05
-3.00968e-06
-9.29016e-10
-0.0204595
0.355035
2.38025e-06
2.2142e-05
2.29685e-05
-0.00261056
-0.00116189
4.25708e-10
-7.87245e-06
-4.30433e-09
0.11627
0.0050889
-1.75487e-05
-1.41774e-06
0.00249265
3.94078e-06
0.627625
-0.000469368
-0.0172882
0.000301721
0.0812815
0.00323449
-0.00162799
0.0732067
0.000893982
0.000529203
0.00828023
-0.00453571
4.5175e-05
-0.00544131
0.00483803
-0.00119775
-0.000388381
0.033725
0.00360327
-0.000659804
0.0174441
9.57862e-06
-0.00172059
0.00349503
-0.00155284
-2.8474e-06
1.62913e-07
-0.000220194
-0.00127484
0.00597374
-0.00151843
0.000924004
-0.00160849
1.75204e-07
-0.00383681
-5.00806e-07
0.312552
-0.0681419
0.0130022
-0.00434841
-0.000150609
-0.00591084
0.163042
-0.000184098
-0.0499827
-3.08513e-05
-8.7104e-05
4.02485e-05
0.000452379
0.000182463
4.13953e-08
-8.55697e-08
0.118521
0.000617664
0.39943
0.000795533
1.567e-05
-2.46281e-05
0.000321976
0.000902615
0.000162453
0.00164577
5.13029e-06
0.000498347
-0.00186704
0.00202769
0.00566478
0.0394006
2.12235e-07
0.162704
0.00347707
0.038092
0.002443
0.00154876
0.00628485
-0.0329805
-9.99037e-05
-0.00635648
-0.0100437
-0.00130329
0.00540442
-0.000511381
-0.00217051
0.0040115
-0.00327695
0.00402334
0.00228763
7.54946e-05
-0.00131771
-0.000761048
-0.000286949
-6.51618e-05
0.00823221
0.0282693
0.0514223
-0.000394249
-0.000257634
0.084328
-0.000177979
-1.78162e-05
0.0113225
0.000297812
1.6628e-05
0.0284682
0.0088598
-0.000336354
0.219249
0.0813088
0.000234157
0.00116172
0.00499933
0.000126002
0.762926
0.0345693
0.00140481
-0.0177707
9.75812e-07
0.0133814
-7.07068e-05
0.474625
0.00176364
0.0182791
0.400328
-5.92658e-05
0.00106797
-0.000223751
0.00337013
0.127122
-5.2933e-09
0.076761
-0.00011291
-0.000514629
0.00239247
0.000808071
0.00125447
1.21411e-08
0.630748
0.000450585
0.00267771
-0.00181226
4.47373e-05
0.00527118
-0.00500723
0.411777
0.000468587
-0.000109831
0.0194307
6.53382e-06
0.000233473
-0.00390845
-0.00208389
-0.000604659
-0.00439248
7.60864e-06
-2.59489e-05
3.73954e-08
-0.00658679
4.69139e-07
0.0107298
0.00798157
0.4977
-2.53646e-06
6.83247e-06
5.07779e-07
-7.72294e-05
0.653518
0.00856596
0.548913
0.00503759
-0.00100877
-0.00337229
0.0012044
0.00645977
0.0782747
-0.00210087
-7.93963e-05
0.449545
0.507227
-0.000589756
0.687315
-6.34232e-05
0.00519309
-0.00350866
0.00949282
0.0292479
0.0072243
-6.66815e-05
1.26421e-05
1.46796e-06
6.08548e-06
-1.66727e-09
-2.30992e-05
-3.79688e-06
-0.00159757
-2.07208e-05
-5.10347e-05
-0.000578323
-0.0013093
0.000154894
3.12622e-06
0.0278953
5.45232e-05
0.00617954
-0.0105028
-1.20483e-08
0.00210193
4.03679e-08
0.69548
0.0001965
1.2745e-05
0.000930238
-0.000759892
-0.000328914
-0.00366015
0.000802862
0.00442135
-0.00786835
4.07081e-10
-2.76297e-05
0.00612438
-6.36531e-05
4.78482e-05
0.54169
9.33576e-07
-3.64891e-05
-0.000111389
-2.62416e-05
0.000153008
-0.000122947
-4.32243e-05
1.76443e-05
0.000901268
4.39033e-06
0.0899609
0.000419221
0.481286
7.73283e-05
-7.43666e-07
-3.49486e-07
-5.0516e-05
-0.000105995
-0.000224326
1.41499e-05
0.532823
-0.00473409
-0.000659864
0.476413
4.00952e-10
0.013463
0.0161283
0.137031
0.0510532
0.00543185
-0.00493476
-0.00978681
-5.1187e-05
3.73638e-05
0.0162988
0.00134819
0.00422205
0.768598
0.035319
-0.00165595
0.00662875
2.07472e-05
0.786675
0.000891268
-0.00260573
0.00149119
-0.00516952
0.352722
0.000578183
-0.0232683
-5.40978e-05
0.0366765
0.000863607
-0.000122594
0.000493795
0.012167
-0.0146118
0.000722276
0.001662
-1.21386e-09
0.00126717
0.000516028
1.29539e-06
-0.000318304
-0.00992325
0.000960832
-1.98949e-06
0.00290539
1.08225e-07
-0.0041118
0.00816667
1.32612e-06
0.000145939
0.766863
-0.000417417
0.194684
-0.000722502
-0.0259599
1.66235e-05
4.40582e-06
-0.00418118
-0.00279293
7.46635e-07
-0.000101992
6.59957e-05
-0.00307551
0.028757
0.00132852
-0.00646279
-0.0013577
-0.000121862
-0.00883147
-0.00267188
-0.000458501
-0.00268089
-0.00656748
0.000351114
-0.00186075
0.00125571
0.000109577
0.001433
0.000882963
-1.93508e-05
-0.000293785
-0.00030871
0.000456969
0.00287464
0.000210386
0.0076235
-7.33449e-06
0.0478935
-0.00402997
0.00130898
0.003087
-1.28947e-05
-0.00965626
1.58939e-05
-8.29426e-05
0.00798776
0.00324378
0.00189519
-0.0006071
0.0123344
0.00491653
0.181025
0.000559384
0.416942
0.286079
-0.00101651
0.0500878
-1.40614e-07
3.26419e-07
-0.00251623
1.21143e-07
-8.16067e-07
0.00827891
-1.32065e-06
-0.00010727
-0.000968559
0.0133466
-0.000511074
0.00134393
-0.00682947
0.00394339
-0.000196736
8.01211e-06
-9.95181e-06
0.00168672
5.79803e-05
5.24494e-06
8.20511e-10
5.99992e-05
-1.09784e-08
0.000556415
6.49224e-09
3.07847e-05
-0.000520596
9.19921e-05
0.000277417
-0.00171447
0.000511766
-0.000550792
-0.000167382
1.766e-06
-0.0237354
-0.00170289
4.10305e-05
0.00143633
1.40227e-10
-0.0203083
0.234057
0.222291
0
-0.00052481
-2.1662e-10
-0.0240801
0.403107
1.72933e-09
0.207868
-2.18335e-05
-0.000377464
0.306728
2.66982e-05
0.0011088
0.000126495
-0.00578918
0.0377775
0.00265788
0.00226201
-1.33809e-08
4.75787e-06
-0.00145719
-9.83811e-06
0.000100316
3.37172e-05
0.000208257
4.6954e-05
1.09176e-05
0.00185863
0.000388748
7.20853e-07
0.00370995
1.15242e-06
1.33716e-06
-0.00172754
0.00214443
-3.96718e-07
-0.000301731
0.473687
0.0961331
-7.38411e-09
-0.0308719
0.0237595
0.45369
-0.000464518
3.60476e-05
0.0058641
-0.00261871
0.00798111
0.00305433
0.179604
-1.11137e-05
-0.00700604
0.000556085
0.0638626
0.00365992
0.00201274
4.63959e-08
1.20484e-05
0.000182333
0.00013003
0.000157193
-6.53103e-06
0.0602993
0.000302248
-9.05778e-05
-5.63068e-10
-1.98287e-10
0.0666772
-0.00227042
0.338051
0.186931
0.241282
0.000333671
-0.00018868
2.65908e-06
0.000352979
0.0142118
0.0638152
0.0068227
7.57385e-09
-3.06177e-08
-0.000241521
0.037899
-0.0166093
0.0133957
0.166459
0.000422219
2.06877e-06
-3.7642e-06
6.57347e-06
-0.00247461
5.48362e-06
0.00832552
0.0237834
0.000486518
-0.00335376
-2.93515e-06
4.17396e-07
-0.00580297
-0.00175455
-0.000137816
6.79149e-05
0.000731888
-0.00106001
-0.000541966
0.00451218
0.654004
0.00795681
0.00409093
-0.000326958
-0.00845106
0.00477429
-2.09694e-06
-5.15822e-05
-0.000200026
9.64188e-06
-7.5449e-05
0.0531158
-1.20342e-06
2.34507e-05
2.86633e-07
6.16709e-07
-1.44233e-05
-3.44506e-07
1.26805e-05
1.73126e-05
-6.33056e-09
0.000208779
0.472911
0.0160326
0.457605
-6.29287e-05
0.00165452
-6.565e-07
-0.00811447
-0.00867831
-0.00136198
1.70345e-06
8.1764e-05
0.747295
0.00119724
-0.00437709
-0.00405002
0.000154804
-5.91316e-05
1.38137e-08
-0.0032718
-9.29417e-06
-0.0043786
4.69691e-06
0.00575078
0.306949
0.00010807
-9.20833e-05
-0.000296005
5.02753e-06
-0.000288114
0.00249838
-0.00121856
0.0105917
-0.0010253
-0.000314965
0.48583
-0.000166258
0.168765
-5.04508e-06
-0.012692
8.85153e-06
0.0872951
1.60728e-05
-0.00558422
-0.00292234
-0.00339293
5.92486e-07
0.193063
0.00729206
-0.00129304
0.511334
4.92324e-07
-0.00235049
3.55158e-05
4.51618e-06
2.18421e-05
-2.30875e-05
0.00216583
-0.00175526
0
2.0584e-06
-3.18921e-06
-3.73268e-06
0.269362
0.505393
0.763876
0.760778
0.000518414
0.000523341
-7.48851e-05
-1.47958e-05
-1.51242e-05
-2.4395e-05
1.49144e-07
8.95141e-06
-2.52457e-05
-5.86205e-09
-1.30324e-07
-9.09113e-09
8.95152e-09
0.0154083
-0.00426963
-0.0018684
-0.00100093
-3.03741e-05
0.0212364
0.0272586
0.10017
0.424856
0.00833748
0.00470829
2.71518e-07
-0.00215348
1.68936e-07
-7.46342e-05
3.36884e-05
0.00100926
4.13792e-05
-7.52372e-05
0.0928612
-0.00198151
0.642142
0.452371
0.212431
0.0825964
0.108631
0.114862
0.0986469
0.163436
0.228241
0.0302732
0.0458897
-0.00418827
-0.00249856
3.19664e-06
0.677638
0.798445
0.0480334
0.127629
0.0590393
0.0462836
-0.000614133
-0.00072463
-0.000593818
0.000221476
-0.000122382
-0.000204153
0.000186951
-0.000136252
-4.42087e-07
-5.34103e-05
-0.00010436
8.60287e-05
0.59738
-0.00383239
-0.0034864
-0.00532932
0.00782371
1.93259e-06
0.0252376
0.525152
0.625402
0.702002
0.0375772
0.459024
0.817861
0.630228
-7.7388e-10
0.00240547
0.161448
0.165309
0.431641
0.732921
-1.24523e-09
-0.00134325
-0.00017168
7.9788e-05
7.27742e-05
-0.000456451
3.7404e-05
6.10363e-06
-4.80665e-05
0.00180401
-5.48882e-05
0.000449842
0.0016322
-0.000853879
-0.000815321
-0.000947052
-1.17158e-07
0.00401747
0.00915114
0.0140789
0.00486224
0.00514892
-3.07274e-10
-0.00495621
-0.00356101
-0.000183618
-1.07276e-07
2.16681e-05
-9.23689e-05
0.000397849
-0.00868125
-1.17682e-10
-0.000433718
0.283338
0.148788
0.00297268
1.08349e-06
-0.000286126
2.84388e-07
-1.20411e-05
0.000215511
0.00023376
-0.000302813
6.35388e-10
-6.8904e-05
5.66411e-05
-0.000107531
1.17541e-07
-3.82385e-07
-1.30738e-07
-1.43234e-06
-0.000210332
0.317891
-0.010885
0.00117462
0.541086
0.655999
0.612743
0.000149638
0.00298215
0.0101563
0.0258032
0.0348711
0.0740792
-0.00011592
-0.000136501
1.63034e-08
-0.00409111
-2.7913e-08
7.13553e-08
-0.00535687
6.11195e-07
-0.00102472
-0.00213323
-0.00673932
0.000805129
-0.000501179
-1.36676e-05
8.84609e-06
-1.19475e-06
0.113672
0.0386228
0.0819361
0.102294
-9.37773e-05
0.0241154
0.00847716
1.3981e-05
4.24437e-05
-1.12736e-05
2.70453e-06
-8.2271e-06
-3.2008e-06
-1.41652e-05
-0.0247393
0.00456803
-2.26632e-05
-8.18439e-05
9.71056e-05
0.00864422
1.08367e-05
1.72026e-06
-6.97515e-07
1.22967e-05
0.00330277
0.00141377
0.0016372
-1.49023e-05
0.246792
0.00931568
0.0678833
0.0292648
0.0537664
0.0283647
-0.0176025
-7.43549e-09
0.0051813
0.000146884
0.197599
0.0071876
0.0056493
-0.000226183
5.32997e-05
0.00013665
-0.000744105
0.000779958
-0.00139903
-0.000671272
0.00786953
0.00140214
0.00517919
-0.00506582
0.0368456
0.00358435
0.00054359
-0.000158327
0.00601596
0.0494308
0.0252194
0.112885
0.192005
-0.000935376
0.0624142
0.125523
6.71831e-06
-0.00457975
0.00192571
-0.00140991
-0.00177444
-0.012524
-0.00617883
-1.19122e-06
0.00136237
0.0427739
1.18945e-07
0.294059
0.424513
0.605654
0.376482
0.282778
0.441599
0.00139287
-0.00111679
-0.000192695
0.193951
0.265834
0.0980322
-0.00058641
0.747171
0.738311
0.42966
0.693304
-1.24875e-06
3.25463e-06
-3.17745e-06
-0.00517437
0.000909302
8.44179e-09
-6.46405e-09
-4.27377e-09
-4.58717e-08
3.72937e-06
-2.82242e-06
-3.9415e-05
0.00126554
0.000266385
0.000823018
0.000779772
0.00115973
-2.4298e-05
6.12216e-05
0.000176165
-6.08834e-06
-1.93636e-06
0.183933
0.00276535
0.000853103
0.00123162
0.000794696
0.000219332
-0.000108472
-0.00104549
-1.93342e-06
-1.13381e-05
-0.000125044
-0.0110726
0.00235028
0.00107054
-0.00849432
-3.78084e-08
3.54086e-06
2.73311e-06
-0.00561444
-0.00404705
0.000410664
-0.000105214
-0.000569395
0.00701564
2.37458e-07
7.34633e-05
-2.11117e-07
-1.98818e-07
-1.47608e-05
-2.57437e-05
9.68251e-07
-4.59444e-07
-7.18907e-06
8.4875e-05
9.30693e-06
-4.78252e-06
-0.00572353
-7.01018e-06
9.54546e-05
0.000173795
-4.68778e-05
-0.00848239
0.00613074
0.0067979
0.00253391
0.00108687
-0.000177074
0.00450402
0.00185478
0.0040698
-0.0125927
-0.00291362
0.0416397
0.00934577
0.0205333
2.3239e-07
0.0042455
-5.391e-08
-6.00234e-07
-0.00412304
-0.00273401
-0.00287578
0.000446485
0.00517605
0.00177934
0.00451402
0.00203984
0.000311176
-5.73225e-06
-9.07897e-05
2.7511e-10
-0.0133705
-2.23493e-07
0.00127287
0.013485
0.517681
0.352522
-0.0165358
0.127709
0.021358
0.00990391
-0.00181075
-0.0121715
0.00121509
0.00109866
0.00224296
-0.000501566
-0.0132318
-0.00135508
0.000213333
0.00127718
9.00345e-07
-1.89714e-08
5.0911e-07
1.67104e-06
-2.92304e-06
5.74066e-06
-0.00101384
-1.00797e-09
-0.00137418
-0.000523264
2.38612e-08
0.000993464
0.000137482
0.00557472
0.00398725
-3.89892e-05
-3.87559e-05
0.00464653
2.14937e-05
3.10734e-05
-0.000557678
-2.45396e-05
-0.00563629
0.0099191
-0.00766727
0.0906782
0.00321972
-0.0016674
0.0161458
-0.00943374
-0.013259
0.00301735
0.0110146
0.29552
0.28149
-0.00303436
0.0034259
-0.00122259
0.230408
0.161489
0.443533
-2.17004e-09
0.820767
0.588262
0.774754
0.787668
0.218927
1.86225e-05
-3.52306e-05
-0.000116718
-1.94573e-05
0.000195447
-4.74452e-05
-2.25327e-06
0.000134854
-0.000300557
-0.000350603
-0.000129605
1.03298e-05
-5.51488e-05
-6.60979e-06
-7.42434e-06
2.24366e-05
2.21307e-05
5.49045e-05
6.72348e-06
4.20723e-06
-5.38397e-05
-7.33215e-05
-6.87495e-05
-0.000327286
0.768234
0.755773
0.714099
0.582953
0.271422
0.259162
0.189836
0.110533
0.00085028
0.00106664
-1.95116e-07
-0.000718447
0.00265855
-0.00730437
-0.000326161
0.393877
-0.0205934
0.00972175
-0.0046315
-7.43573e-05
-0.00065957
0.000287822
0.663771
0.0579759
0.608663
-0.000692695
0.38532
0.0231489
-9.65175e-05
-0.00010551
0.00293177
1.03051e-08
-1.9324e-09
0.00565257
0.00812606
0.00334627
0.267388
0.0289478
0.0248481
5.15593e-08
-2.47367e-07
-7.37232e-07
-3.13154e-07
4.37409e-07
0.584375
0.202597
-0.00174584
0.00180109
0.30557
0.27885
0.16423
5.91198e-08
0.226931
0.0843355
-0.0088737
0.00703067
0.000737881
0.00134111
0.000372165
3.75446e-08
0.71888
0.629354
0.0275123
0.0433371
0.0779217
0.278997
0.017442
0.154717
0.128092
0.0816487
-0.00309534
-0.00116499
-0.000920541
-0.000916246
0.00243667
0.681878
0.601707
0.53545
0.00995169
-0.000612301
-8.9299e-07
0.131767
0.118988
0.00322938
-0.0162549
-0.000118343
0.000226246
9.06654e-05
9.84777e-05
4.41157e-06
-1.31454e-07
0.0286154
0.00491211
-0.00163668
-0.0159726
-0.0208799
-3.78288e-10
-0.00563219
2.38201e-05
-0.000208241
-0.000992553
-0.000509676
-0.0010652
-0.000969351
-0.000476682
0.00246097
0.00848702
-0.000897034
0.319808
0.379676
0.0669321
0.250355
0.0473082
0.207454
0.0758154
0.211206
-0.00253097
0.0003668
0.788015
0.721092
0.774522
0.00910832
-0.00401384
0.0227363
0.0231673
-0.000653638
-0.0018068
0.000112557
0.2457
1.54114e-05
-0.000925948
-0.00595915
0.00103547
0.000287717
0.000806107
-0.000463389
-0.00103066
1.89891e-05
1.58759e-06
1.12173e-05
1.7065e-05
-6.62133e-10
7.48999e-10
8.03446e-10
-0.0114042
0.0216948
0.00196598
0.00335367
0.0133376
0.00316958
0.00813944
0.0119969
-0.00352532
0.00139817
0.00101516
0.00142029
-1.87567e-05
-8.10093e-06
0.00193295
0.000783376
0.00329447
0.0104749
-0.000702944
-0.00109207
-0.00182525
0.00431276
-0.000101925
0.00167814
0.0148329
0.63855
-4.4025e-05
0.190383
0.656329
0.70852
-3.05904e-07
-0.00261923
0.00143507
-0.0225329
-0.0325425