# vtk DataFile Version 2.0
Unstructured Grid by M++
ASCII
DATASET UNSTRUCTURED_GRID
POINTS 4072 float
  0.875000   1.000000 0
  0.875000   0.984375 0
  0.875000   0.968750 0
  0.875000   0.953125 0
  0.875000   0.937500 0
  0.875000   0.921875 0
  0.875000   0.906250 0
  0.875000   0.890625 0
  0.875000   0.875000 0
  0.875000   0.859375 0
  0.875000   0.843750 0
  0.875000   0.828125 0
  0.875000   0.812500 0
  0.875000   0.796875 0
  0.875000   0.781250 0
  0.875000   0.765625 0
  0.859375   1.000000 0
  0.859375   0.984375 0
  0.859375   0.968750 0
  0.859375   0.953125 0
  0.859375   0.937500 0
  0.859375   0.921875 0
  0.859375   0.890625 0
  0.859375   0.875000 0
  0.859375   0.859375 0
  0.859375   0.843750 0
  0.859375   0.828125 0
  0.859375   0.812500 0
  0.859375   0.796875 0
  0.859375   0.781250 0
  0.859375   0.765625 0
  0.859375   0.671875 0
  0.859375   0.656250 0
  0.859375   0.640625 0
  0.843750   1.000000 0
  0.843750   0.984375 0
  0.843750   0.968750 0
  0.843750   0.953125 0
  0.843750   0.937500 0
  0.843750   0.921875 0
  0.843750   0.906250 0
  0.843750   0.875000 0
  0.843750   0.859375 0
  0.843750   0.843750 0
  0.843750   0.828125 0
  0.843750   0.812500 0
  0.843750   0.796875 0
  0.843750   0.781250 0
  0.843750   0.765625 0
  0.843750   0.671875 0
  0.843750   0.656250 0
  0.843750   0.640625 0
  0.828125   1.000000 0
  0.828125   0.984375 0
  0.828125   0.968750 0
  0.828125   0.953125 0
  0.828125   0.937500 0
  0.828125   0.921875 0
  0.875000   0.671875 0
  0.812500   0.921875 0
  0.890625   0.656250 0
  0.828125   0.906250 0
  0.875000   0.656250 0
  0.812500   0.906250 0
  0.890625   0.640625 0
  0.828125   0.890625 0
  0.875000   0.640625 0
  0.812500   0.890625 0
  0.890625   0.625000 0
  0.828125   0.875000 0
  0.890625   0.609375 0
  0.828125   0.859375 0
  0.890625   0.593750 0
  0.828125   0.843750 0
  0.890625   0.578125 0
  0.828125   0.828125 0
  0.890625   0.562500 0
  0.828125   0.812500 0
  0.828125   0.796875 0
  0.828125   0.781250 0
  0.828125   0.765625 0
  0.828125   0.671875 0
  0.828125   0.656250 0
  0.828125   0.640625 0
  0.875000   0.750000 0
  0.812500   1.000000 0
  0.875000   0.625000 0
  0.812500   0.875000 0
  0.875000   0.734375 0
  0.812500   0.984375 0
  0.875000   0.718750 0
  0.812500   0.968750 0
  0.875000   0.703125 0
  0.812500   0.953125 0
  0.875000   0.687500 0
  0.812500   0.937500 0
  0.875000   0.609375 0
  0.812500   0.859375 0
  0.875000   0.593750 0
  0.812500   0.843750 0
  0.875000   0.578125 0
  0.812500   0.828125 0
  0.812500   0.812500 0
  0.875000   0.546875 0
  0.812500   0.796875 0
  0.812500   0.781250 0
  0.812500   0.765625 0
  0.859375   0.750000 0
  0.796875   1.000000 0
  0.859375   0.625000 0
  0.796875   0.875000 0
  0.859375   0.734375 0
  0.796875   0.984375 0
  0.859375   0.718750 0
  0.796875   0.968750 0
  0.859375   0.703125 0
  0.796875   0.953125 0
  0.859375   0.687500 0
  0.796875   0.937500 0
  0.859375   0.609375 0
  0.796875   0.859375 0
  0.859375   0.593750 0
  0.796875   0.843750 0
  0.859375   0.578125 0
  0.796875   0.828125 0
  0.859375   0.562500 0
  0.796875   0.812500 0
  0.796875   0.796875 0
  0.859375   0.531250 0
  0.796875   0.781250 0
  0.796875   0.765625 0
  0.843750   0.750000 0
  0.781250   1.000000 0
  0.843750   0.625000 0
  0.781250   0.875000 0
  0.843750   0.734375 0
  0.781250   0.984375 0
  0.843750   0.718750 0
  0.781250   0.968750 0
  0.843750   0.703125 0
  0.781250   0.953125 0
  0.843750   0.687500 0
  0.781250   0.937500 0
  0.843750   0.609375 0
  0.781250   0.859375 0
  0.843750   0.593750 0
  0.781250   0.843750 0
  0.843750   0.578125 0
  0.781250   0.828125 0
  0.781250   0.812500 0
  0.843750   0.546875 0
  0.781250   0.796875 0
  0.781250   0.781250 0
  0.843750   0.515625 0
  0.781250   0.765625 0
  0.828125   0.750000 0
  0.765625   1.000000 0
  0.828125   0.625000 0
  0.765625   0.875000 0
  0.828125   0.734375 0
  0.765625   0.984375 0
  0.828125   0.718750 0
  0.765625   0.968750 0
  0.828125   0.703125 0
  0.765625   0.953125 0
  0.828125   0.687500 0
  0.765625   0.937500 0
  0.828125   0.609375 0
  0.765625   0.859375 0
  0.828125   0.593750 0
  0.765625   0.843750 0
  0.828125   0.578125 0
  0.765625   0.828125 0
  0.828125   0.562500 0
  0.765625   0.812500 0
  0.765625   0.796875 0
  0.828125   0.531250 0
  0.765625   0.781250 0
  0.765625   0.765625 0
  0.812500   0.750000 0
  0.750000   1.000000 0
  0.953125   1.000000 0
  0.812500   0.734375 0
  0.750000   0.984375 0
  0.812500   0.718750 0
  0.750000   0.968750 0
  0.812500   0.703125 0
  0.750000   0.953125 0
  0.812500   0.687500 0
  0.750000   0.937500 0
  0.812500   0.671875 0
  0.750000   0.921875 0
  0.812500   0.656250 0
  0.750000   0.906250 0
  0.812500   0.640625 0
  0.750000   0.890625 0
  0.812500   0.625000 0
  0.750000   0.875000 0
  0.812500   0.609375 0
  0.750000   0.859375 0
  0.812500   0.593750 0
  0.750000   0.843750 0
  0.812500   0.578125 0
  0.750000   0.828125 0
  0.750000   0.812500 0
  0.812500   0.546875 0
  0.750000   0.796875 0
  0.750000   0.781250 0
  0.812500   0.515625 0
  0.750000   0.765625 0
  0.796875   0.750000 0
  0.734375   1.000000 0
  0.796875   0.734375 0
  0.734375   0.984375 0
  0.796875   0.718750 0
  0.734375   0.968750 0
  0.796875   0.703125 0
  0.734375   0.953125 0
  0.796875   0.687500 0
  0.734375   0.937500 0
  0.796875   0.671875 0
  0.734375   0.921875 0
  0.796875   0.656250 0
  0.734375   0.906250 0
  0.796875   0.640625 0
  0.734375   0.890625 0
  0.796875   0.625000 0
  0.734375   0.875000 0
  0.796875   0.609375 0
  0.734375   0.859375 0
  0.796875   0.593750 0
  0.734375   0.843750 0
  0.796875   0.578125 0
  0.734375   0.828125 0
  0.734375   0.812500 0
  0.734375   0.796875 0
  0.796875   0.531250 0
  0.734375   0.781250 0
  0.734375   0.765625 0
  0.781250   0.750000 0
  0.718750   1.000000 0
  0.921875   1.000000 0
  0.781250   0.734375 0
  0.718750   0.984375 0
  0.781250   0.718750 0
  0.718750   0.968750 0
  0.781250   0.703125 0
  0.718750   0.953125 0
  0.859375   0.906250 0
  0.781250   0.687500 0
  0.718750   0.937500 0
  0.781250   0.671875 0
  0.718750   0.921875 0
  0.781250   0.656250 0
  0.718750   0.906250 0
  0.781250   0.640625 0
  0.718750   0.890625 0
  0.781250   0.625000 0
  0.718750   0.875000 0
  0.781250   0.609375 0
  0.718750   0.859375 0
  0.781250   0.593750 0
  0.718750   0.843750 0
  0.781250   0.578125 0
  0.718750   0.828125 0
  0.781250   0.562500 0
  0.718750   0.812500 0
  0.781250   0.546875 0
  0.718750   0.796875 0
  0.781250   0.531250 0
  0.718750   0.781250 0
  0.781250   0.515625 0
  0.718750   0.765625 0
  0.765625   0.750000 0
  0.703125   1.000000 0
  0.765625   0.734375 0
  0.703125   0.984375 0
  0.765625   0.718750 0
  0.703125   0.968750 0
  0.765625   0.703125 0
  0.703125   0.953125 0
  0.765625   0.687500 0
  0.703125   0.937500 0
  0.843750   0.890625 0
  0.703125   0.921875 0
  0.765625   0.656250 0
  0.703125   0.906250 0
  0.765625   0.640625 0
  0.703125   0.890625 0
  0.765625   0.625000 0
  0.703125   0.875000 0
  0.765625   0.609375 0
  0.703125   0.859375 0
  0.765625   0.593750 0
  0.703125   0.843750 0
  0.765625   0.578125 0
  0.703125   0.828125 0
  0.765625   0.562500 0
  0.703125   0.812500 0
  0.765625   0.546875 0
  0.703125   0.796875 0
  0.765625   0.531250 0
  0.703125   0.781250 0
  0.765625   0.515625 0
  0.703125   0.765625 0
  0.750000   0.750000 0
  0.687500   1.000000 0
  0.890625   1.000000 0
  0.750000   0.734375 0
  0.687500   0.984375 0
  0.750000   0.718750 0
  0.687500   0.968750 0
  0.578125   0.796875 0
  0.578125   0.781250 0
  0.578125   0.765625 0
  0.546875   0.953125 0
  0.546875   0.968750 0
  0.546875   0.718750 0
  0.546875   0.687500 0
  0.250000   0.609375 0
  0.937500   0.031250 0
  0.046875   0.703125 0
  0.734375   0.062500 0
  0.734375   0.078125 0
  0.734375   0.046875 0
  0.046875   0.593750 0
  0.046875   0.562500 0
  0.046875   0.531250 0
  0.718750   0.156250 0
  0.046875   0.609375 0
  0.734375   0.031250 0
  0.062500   0.609375 0
  0.234375   0.703125 0
  0.718750   0.125000 0
  0.046875   0.578125 0
  0.734375   0.000000 0
  0.062500   0.578125 0
  0.000000   0.828125 0
  0.234375   0.671875 0
  0.234375   0.625000 0
  0.718750   0.093750 0
  0.687500   0.156250 0
  0.062500   0.546875 0
  0.000000   0.796875 0
  0.718750   0.046875 0
  0.031250   0.687500 0
  0.687500   0.171875 0
  0.500000   1.000000 0
  0.078125   0.218750 0
  0.234375   0.593750 0
  0.718750   0.062500 0
  0.687500   0.125000 0
  0.000000   0.765625 0
  0.421875   0.500000 0
  0.031250   0.593750 0
  0.718750   0.015625 0
  0.687500   0.234375 0
  0.015625   0.812500 0
  0.703125   0.171875 0
  0.703125   0.187500 0
  0.703125   0.140625 0
  0.015625   0.781250 0
  0.437500   0.515625 0
  0.500000   0.796875 0
  0.078125   0.015625 0
  0.687500   0.203125 0
  0.250000   0.578125 0
  0.703125   0.109375 0
  0.000000   0.515625 0
  0.500000   0.765625 0
  0.062500   0.593750 0
  0.750000   0.015625 0
  0.015625   0.843750 0
  0.687500   0.000000 0
  0.500000   0.828125 0
  0.078125   0.046875 0
  0.015625   0.531250 0
  0.250000   0.546875 0
  0.703125   0.078125 0
  0.703125   0.031250 0
  0.015625   0.671875 0
  0.250000   0.515625 0
  0.000000   0.656250 0
  0.500000   0.906250 0
  0.078125   0.125000 0
  0.687500   0.015625 0
  0.031250   0.546875 0
  0.687500   0.031250 0
  0.500000   0.859375 0
  0.703125   0.000000 0
  0.703125   0.046875 0
  0.703125   0.015625 0
  0.500000   0.937500 0
  0.234375   0.531250 0
  0.031250   0.578125 0
  0.687500   0.062500 0
  0.500000   0.890625 0
  0.031250   0.796875 0
  0.453125   0.531250 0
  0.500000   0.968750 0
  0.078125   0.187500 0
  0.234375   0.562500 0
  0.031250   0.609375 0
  0.718750   0.031250 0
  0.687500   0.093750 0
  0.750000   0.046875 0
  0.000000   0.937500 0
  0.421875   0.671875 0
  0.718750   0.187500 0
  0.031250   0.828125 0
  0.765625   0.062500 0
  0.015625   0.953125 0
[...]
CELL_DATA 7648
SCALARS scalar_value float 1
LOOKUP_TABLE default
-0.000224013
-0.000114404
0.000144349
-7.50697e-05
0.00138525
0.000944041
-0.000140812
-0.00511675
-0.00163595
0.000391627
0.000374659
0.000422427
0.000284826
0.0210475
0.107192
0.00710196
0.34902
-0.0070546
0.00417912
-9.75373e-10
0.00689077
0.000767737
-0.00697276
0.000152093
0.010641
-0.000207405
-0.00132486
-0.0133606
-0.00151747
0.000208086
0.142494
0.563468
0.304424
0.00010521
7.59279e-05
5.35438e-05
4.36877e-06
-0.000207229
0.00135918
-0.00140622
-8.10433e-06
0.00333961
0.00991725
4.70763e-05
1.18294e-06
-1.45199e-05
0.000319366
0.000297371
-0.0046222
0.00121588
4.48116e-05
-8.56578e-05
4.70755e-05
-1.81353e-05
-0.00536395
0.0100855
0.00291115
-0.00292858
0.0126816
5.02899e-05
-1.91158e-06
-0.00496289
-2.33801e-06
-0.000116648
0.0016373
-0.00330734
-0.0114865
2.90227e-06
0.391597
-3.7668e-06
5.26481e-07
-3.96235e-06
-2.27354e-09
-4.28905e-09
0.000152667
0.00373711
-0.00485695
0.00745031
0.00819311
-0.00750867
3.39684e-05
-0.0106722
-0.0123896
-0.000215249
1.16721e-08
-5.08227e-05
0.0205459
0.00569059
-0.0006918
-0.00235096
0.111969
-0.00117462
2.93629e-05
6.02367e-05
2.45094e-06
3.39752e-05
-6.66215e-06
2.86026e-05
-0.00265745
0.160668
0.429131
-2.32728e-05
-6.36465e-06
5.15447e-06
-0.00598236
0.00284404
-0.000120187
-0.000643607
0.0351544
0.0147381
0.000656446
-0.000344724
0.00178674
-0.000172314
0.751772
0.668306
0.00289518
0.00716789
0.00415842
0.203451
-0.0126445
0.00401597
0.0124334
4.09972e-05
-4.02293e-09
1.16845e-05
-6.83498e-07
0.00338704
0.0172315
0.0254137
0.0111931
4.62629e-05
0.0012837
0.00127837
-3.51982e-06
-6.28324e-08
-0.00605844
-0.00554672
-0.00117373
-0.0267171
8.30841e-05
-2.34878e-08
-1.05302e-05
1.96871e-05
0.023918
-2.64518e-06
1.10994e-08
0.000108756
7.6644e-09
-0.00553255
1.84043e-06
-5.6109e-07
0.000634194
0.0523118
-0.00146342
0.00339613
0.000368554
0.00660681
0.00181662
-0.00103658
0.0128981
0.00457036
-2.46638e-05
1.63244e-07
0.00230708
0.00357077
1.70733e-05
1.21077e-05
6.48243e-06
0.00214372
9.48268e-07
0.00526968
5.72118e-10
-9.50633e-09
0.00592124
0.00554601
-0.00316336
1.14213e-07
-5.53831e-05
-0.00154071
5.84255e-05
9.00092e-05
-0.000145189
0.000704283
4.70844e-05
0.000681415
-0.00112954
-0.000204358
-5.81732e-05
-0.00320032
0.0439921
-0.00205171
0.000555288
1.22373e-07
-1.53456e-06
4.4802e-05
2.40434e-05
0.0476202
3.13667e-06
7.03138e-06
-0.000168565
0.0022659
-0.00429115
-0.00327096
0.000198796
0.000109799
-0.000956245
-0.000572773
0.710892
-6.95483e-05
-3.16074e-06
0.00250712
1.42372e-05
-0.000410418
-0.00189851
0.00716375
-0.00780797
0.00760024
-0.00735688
-0.008916
0.00465658
5.76996e-07
1.16882e-05
0.00146119
3.67763e-05
-0.002217
0.000344699
6.64744e-05
0.000158814
0.0114241
0.000351513
0.0169301
-0.00660745
-0.000479833
0.000426483
-0.000552574
0.000846248
0.000292366
1.24633e-05
0.443061
7.98113e-07
0.43183
0.00220115
0.00432481
0.0110089
3.9634e-10
0.0576702
0.0266406
0.0189979
0.00222723
-0.00316634
-0.00129355
0.000906741
0.00301695
0.00050469
1.03485e-08
6.63575e-06
0.00172349
-0.00013117
-0.0031558
0.000946006
-0.000503675
0.00173383
-0.00189113
0.000357273
0.000382968
0.0101357
0.225884
0.0976523
0.23964
-0.00108406
7.29084e-10
-0.0100831
0.0691313
0.00241457
-0.000228303
0.00607464
0.00662826
0.00722221
-0.00530594
-0.00390489
-0.00871519
0.0661006
0.0896958
0.796969
0.79941
0.745341
0.00512036
-0.0100528
0.517164
0.706066
0.672556
0.568899
0.00263738
0.000452862
0.00430832
0.137236
0.324855
0.00862398
0.618458
0.00452793
-0.00188811
3.77102e-05
0.0258569
0.000759795
0.167496
3.01197e-05
-0.0160178
-0.0723836
-0.0709356
1.82849e-06
0.184477
0.234685
0.333985
-0.00127321
-0.00101456
0.000130788
-0.00785702
0.00648602
0.0113828
-0.000143686
9.6968e-05
1.42638e-05
2.02122e-05
-1.21842e-09
0.033979
0.00148714
0.000405198
0.000601817
0.000426229
-0.001186
0.00101535
-2.48925e-06
0.000517665
0.000367346
-3.19606e-05
-2.80924e-06
3.78611e-05
-3.44951e-05
2.54167e-05
0.00399097
-0.00302608
0.00300191
0.00513271
0.000124933
0.00214145
-0.00425288
-0.00102302
5.09418e-06
1.01432e-06
0.00836932
-0.00349381
0.0115651
-0.00905438
0.00282928
-7.5927e-06
-0.000221458
0.000302233
-0.00450467
0.0081773
0.69399
-8.38502e-05
-0.0101658
-7.94198e-10
0.123755
0.00278269
-0.00527683
-0.00233005
0.00754893
0.00458847
0.0790554
1.7246e-10
-1.14818e-05
-0.00188586
-0.00108112
0.032422
-0.000953577
0.0015253
-0.00708833
0.00134867
0.00892857
0.000811044
-0.000990742
0.000586617
-0.000554135
-0.00245796
-1.79699e-05
-0.0106634
0.000678482
-0.000981042
0.00195306
0.000250168
-0.00413553
0.00914811
0.000751108
-0.0030737
-0.00915149
-0.00652545
-0.00104527
-0.00530653
-7.31699e-05
0.000993958
-6.64074e-05
0.000222525
-0.000438482
3.34143e-07
-0.000389384
-0.000299742
0.00295694
-0.00023839
0.000346437
-0.00743528
-2.64325e-07
-0.00791918
0.000111265
0.0882755
-5.12807e-05
-0.000770622
0.0001905
0.00174514
0.00699757
0.00591442
0.000265336
0.000749298
-0.000445136
0.00416451
-0.000921334
0.644345
0.00176904
0.00816797
0.0816939
-0.00296793
-3.74766e-09
0.0104681
0.00418403
-3.31311e-05
-6.16198e-05
-7.35108e-06
4.91713e-06
8.422e-06
0.000500255
0.000155246
0.0412062
0.00245582
7.03227e-08
4.66196e-07
0.027027
-0.000792612
4.46135e-07
0.000213787
-2.08214e-07
0.592443
-0.0020528
0.000138027
-5.62593e-05
0.000112414
1.83281e-05
0.049632
0.530231
0.0371223
0.047983
-0.000137092
0.227335
0.000662334
3.21876e-05
5.30792e-06
-0.000133037
0.00393008
-0.000130581
2.50097e-05
0.0316438
-0.00122024
0.00718943
-4.74638e-07
0.0820838
-0.0155354
0.00282571
-2.67901e-07
0.390112
0.000924173
-3.7144e-07
-0.0126566
0.00564435
8.31922e-05
0.000193396
0.00344432
7.16822e-07
2.78399e-05
1.28802e-05
-0.00235213
-4.95045e-05
-1.29372e-05
5.15334e-07
0.000633763
-0.000233132
0.444868
-5.68349e-06
3.76211e-05
-5.43842e-05
3.93938e-06
-0.00374597
-5.31178e-05
0.000531126
0.0011068
-2.842e-05
-7.99675e-06
0.000499235
0.000150705
0.00113944
0.000214447
0.000836263
0.000385087
-0.000135479
0.001651
-0.00063707
-0.00676348
7.64783e-10
-0.00869867
0.0063683
0.277105
0.00748255
0.00151675
-1.7696e-08
-4.92443e-05
0.000137471
-3.21601e-05
-9.16596e-06
-5.0033e-08
-0.0108771
0.0953276
1.46093e-05
1.8109e-07
0.000143971
-0.00712257
-0.00339042
4.90732e-10
-3.44103e-05
-9.57201e-09
0.290169
0.00816741
-4.45876e-05
-1.75856e-06
0.00416215
-2.16065e-05
0.778462
0.00260405
-0.00708939
0.000786328
0.0186859
0.0033132
-0.00331849
0.0152316
-0.000983505
0.00187978
-0.00194056
-0.00425143
3.61483e-05
-0.000463683
-0.00350719
0.000379009
-0.000904905
0.000395994
0.0040126
-0.001895
0.00317047
0.000598273
-0.00523278
0.00159712
-0.00516271
-3.17311e-06
4.88575e-07
0.00055241
-0.000854724
0.00331561
-0.00203466
0.00669676
-0.000709365
3.66463e-07
-0.00459843
-1.69121e-06
0.192562
-0.0485795
0.00849308
-0.00126941
-0.000199269
-0.00241512
0.0850409
-0.00115975
-0.0268584
-2.17821e-05
-9.11661e-05
2.80412e-05
-0.00556147
0.000708047
1.79649e-07
-2.6358e-07
0.0666259
0.00313335
0.266493
0.0110235
0.000110658
-1.52962e-05
0.000228109
0.000957552
0.000118222
0.00154217
5.79864e-05
0.000851273
-0.0029122
3.23947e-05
0.00646504
0.0221262
3.11616e-06
0.0400972
0.00493387
0.0252534
0.000535289
-0.000195951
0.000335047
-0.014387
-0.00038289
-0.00210557
-0.00316086
-0.00242702
0.00731208
-0.00122385
-0.00834446
0.0033935
-0.00598219
-0.000133236
-0.00030465
1.19851e-05
-0.00013349
-0.000731647
-4.86341e-05
-8.37146e-05
0.00684888
0.14063
0.207612
2.10443e-05
-0.000262643
-0.00166589
-0.00017992
3.95609e-05
-0.00864445
-0.000124954
0.000497174
0.00220695
-0.00984689
-0.00028206
0.0470409
0.232903
-0.000422318
0.000588731
0.00242628
0.000158719
0.525995
0.0108853
0.00185773
-0.0176732
2.26787e-06
0.00126938
-0.00126486
0.177484
0.00446713
-0.011607
0.121083
-0.0032493
0.00204551
0.000383867
-0.000205557
0.000913095
-3.72644e-09
0.292545
-0.000115447
-0.00166399
0.000973682
-0.00350337
0.00224308
1.89941e-08
0.316488
-0.00135497
-0.0065382
0.00198447
5.10086e-05
0.00142507
-0.00448182
0.137618
0.000738345
4.82777e-06
0.0109634
9.53334e-06
0.00116621
-0.000804502
-0.00492746
0.00225505
-0.00538431
-8.04142e-06
-6.51118e-05
9.75178e-08
-0.00748925
2.53069e-07
0.00212406
0.00853434
0.197585
-1.79306e-05
3.0135e-06
5.40168e-07
-4.93316e-05
0.329577
0.00346214
0.222165
0.00796607
-0.00247007
-0.00101231
0.00387077
0.00416517
7.99001e-05
-0.00132988
-5.65713e-05
0.15798
0.199027
-0.00025534
0.380478
-0.00017985
0.00016465
-0.00471705
0.00477231
-0.00931536
0.00575942
-0.00012884
-9.25766e-05
-8.59208e-06
-0.000210593
-8.56029e-10
-4.62246e-06
-2.094e-05
-0.00177084
-8.19443e-05
6.14464e-05
-0.000314195
-0.00298388
0.00098849
3.57913e-05
0.0163482
-5.4451e-06
0.00769599
-0.00375975
-4.29724e-07
-0.00716756
4.00156e-07
0.386214
0.000522205
1.73906e-05
0.0110042
-0.000850866
-0.00047386
-0.00677996
-0.00358015
0.0379821
0.0129727
7.61308e-10
6.04937e-05
0.00473151
-1.91981e-05
-7.51994e-05
0.227076
1.46658e-06
-1.81718e-05
-5.35549e-05
-5.97276e-05
-0.000174628
0.000921388
-0.000313797
3.33085e-05
-0.0021757
7.27409e-06
0.186254
0.000750831
0.213848
1.35306e-05
1.77965e-06
-3.5714e-07
-6.36149e-05
-0.00015634
-8.44369e-05
2.89969e-05
0.801515
-0.0062312
-0.000628181
0.184425
-3.35134e-09
0.0168393
0.0108091
0.167894
0.0318539
0.00595098
-0.0056207
-0.00489558
-6.81354e-05
0.00814352
0.0136645
0.00687434
0.00598854
0.741989
0.0407795
-0.00260826
0.00739444
-0.000299809
0.682825
-0.00728983
-0.000985478
0.00123603
-0.0137975
0.10908
0.00316563
-0.0182673
0.000565177
0.00770047
0.0043921
0.00196378
-1.81023e-05
0.00611754
-0.00400776
0.00989997
0.0169203
-6.37281e-09
0.0018852
0.000447497
6.87523e-06
-0.000228271
-0.00389365
0.00332031
-2.8152e-06
-0.000691433
6.26053e-07
-0.00322973
0.00310365
1.01174e-05
-0.00162546
0.56821
0.00136291
0.382852
0.00193629
-0.0205006
0.000963153
-2.22289e-06
-0.00335652
-0.00058656
1.4872e-06
-5.18892e-05
0.00153152
-0.000573362
0.00472409
0.00163497
-0.00367159
-0.00122258
-0.000216901
-0.0114815
-0.00745521
-0.00272681
-0.00171749
-0.00390143
0.000670769
0.00070525
0.0011002
0.000633367
-0.000229282
-0.00128689
-0.000814414
0.000154039
0.000839241
0.000762268
0.00171307
0.000183079
0.0567394
-2.78249e-05
0.206593
-0.00289184
0.00891648
0.0237069
-8.86394e-06
-0.00670071
-1.64668e-05
-8.8676e-05
0.0599272
0.00987179
0.000922182
-0.00134117
-0.0227279
0.00546284
0.0929966
0.000637108
0.111785
0.609769
-0.00142599
-0.00825499
-2.19983e-07
4.5393e-07
-0.00111388
3.58832e-07
-3.45024e-06
0.000444295
-2.55275e-06
-0.000110478
-0.0030839
0.00243403
0.00134244
0.00106825
-0.00641147
-0.00557678
-0.000691379
-2.79665e-06
-3.4502e-05
0.0031624
0.000106663
3.07045e-05
-1.17212e-09
0.000254261
-3.36711e-09
0.000968713
-1.61854e-07
0.000155823
-0.0018196
0.000611851
0.0025296
-0.00203276
0.00308659
0.000257352
0.00118467
-1.43209e-05
-0.0144887
0.00449671
7.55503e-05
0.00376027
7.57164e-10
-0.0121468
0.136157
0.122182
3.86051e-10
-0.000509763
-3.56466e-10
-0.0190523
0.67287
1.13775e-09
0.0588254
-0.000223953
-0.000226263
0.100184
5.70618e-05
-0.000967428
0.000170027
-0.000990374
0.029803
0.00229585
0.000499845
-2.87322e-07
-4.38931e-05
0.00209551
4.44507e-06
0.000130743
5.98254e-05
-0.000673309
6.75097e-05
-1.26906e-05
0.00190782
0.00119219
8.16035e-07
-0.000296396
4.37393e-06
5.6245e-06
-0.00164961
-0.00310676
3.45484e-08
0.00115502
0.587384
0.19716
-3.01964e-08
-0.0151661
0.0119118
0.162285
-0.00685349
7.57309e-05
0.0517991
-0.0118154
0.00657311
0.000923759
0.470953
-1.88398e-05
-0.00306132
0.00178229
0.206336
-0.00520364
0.00348991
5.66451e-07
2.38852e-05
8.96538e-05
0.000492392
0.000171629
7.86205e-05
0.234766
0.000778838
-0.000616101
-7.84232e-10
-2.22888e-09
0.0425722
-0.00484792
0.639437
0.479189
0.55007
0.00035807
-0.000517862
1.3236e-05
0.000992265
-0.0166674
-0.0112189
-0.00112305
5.64286e-08
-2.61513e-07
-0.000768513
0.0181573
-0.0219922
0.00962066
0.0540179
0.00624134
1.59894e-05
3.06231e-06
-1.77558e-05
0.000282739
-8.28563e-06
0.0526105
0.138621
0.000789252
-0.0121245
-2.26766e-06
5.42371e-07
0.0251322
-0.00160911
-0.000131339
0.000639867
0.000276947
-0.00103981
-0.0010485
0.00396967
0.822472
0.00607072
0.00658483
1.23201e-05
-0.011558
0.00194874
-3.24138e-06
-4.41921e-05
-0.000517696
-3.48635e-06
-8.43961e-05
0.05031
-1.8295e-06
2.7501e-05
1.75333e-06
2.72033e-06
-6.68358e-06
-1.5754e-06
2.33522e-05
2.44337e-05
-1.92197e-07
0.00039791
0.287278
0.0481406
0.592661
-0.000112968
-0.00150471
-1.68265e-07
-0.00358015
-0.00330841
-0.00023614
-3.25786e-06
9.76372e-05
0.581778
-0.00445197
0.0286833
0.000231687
0.000254096
-9.14508e-05
2.69606e-07
-0.00404549
-1.26378e-05
-0.01582
1.1869e-05
0.00442862
0.561038
0.000536104
0.000474223
-0.000304851
9.19222e-06
-0.000920053
-0.00421947
-0.00462778
0.00672598
-0.00375339
-0.00165308
0.354139
-2.80468e-05
0.0949627
1.41358e-06
0.000986406
7.65365e-05
0.045451
0.000140797
-0.000567225
-0.00312039
-0.0128905
1.10322e-06
0.215049
0.00208535
-0.00176542
0.683315
1.29691e-06
0.00246467
3.25488e-05
3.7616e-06
0.000165575
0.000110509
0.00538111
0.00117392
-7.0117e-10
5.47277e-06
-6.0809e-06
-3.51568e-06
0.272936
0.692259
0.706749
0.512131
-3.80047e-06
4.18184e-05
-0.000176942
-2.48727e-05
-2.69448e-05
-3.47391e-05
8.03399e-06
1.94319e-05
-1.59905e-05
-2.31247e-07
-9.19886e-07
-2.03425e-07
-5.46474e-08
0.00998446
-0.000589453
0.000750948
-0.00490714
-0.000240098
0.0214373
0.0346903
0.0785508
0.238994
0.00370267
0.0014697
3.02332e-07
-0.00421386
-9.6376e-08
-8.46979e-05
3.91961e-05
0.000152858
6.55434e-05
-0.000100517
0.170007
-0.00468024
0.774737
0.727204
0.0398333
-0.000900555
0.00723897
0.379514
0.312545
0.454542
0.558657
-0.0211231
0.00451252
-0.0182568
-0.00519413
-0.00026308
0.649441
0.541965
-0.00145188
0.0184083
0.014575
0.00707016
-0.000520202
-0.0013923
-0.00107708
-0.000166658
-0.000366106
4.06899e-06
0.000158187
6.29773e-07
-1.02808e-05
-0.000333303
-0.000495956
0.000103792
0.465815
-0.00571118
-0.00114027
-0.00348486
0.00400334
3.36653e-06
0.0519158
0.731337
0.612867
0.719222
0.114736
0.510377
0.661922
0.502196
-6.72429e-08
0.0108603
0.302844
0.386889
0.675668
0.720998
-1.07259e-08
0.00437756
8.72034e-05
-0.000208975
-0.000284028
-4.80089e-05
4.73109e-05
2.83398e-05
-7.92828e-05
0.00173238
-7.77508e-05
0.000606549
0.00183126
-0.000604642
-0.000333887
-0.000692923
-5.37572e-07
0.00730717
0.00585344
0.00413396
0.00129922
0.00603522
9.13402e-08
-0.00134179
-0.00277806
-0.000207863
-8.23837e-07
2.54402e-06
-0.000159513
0.000840424
-0.0132598
1.54998e-10
0.00102391
0.183181
0.0589689
-0.00122972
1.95663e-06
0.0044383
4.65291e-08
8.03325e-05
0.000455173
0.000652006
-0.00444124
4.53245e-10
-0.000136017
6.34826e-05
-0.00018009
1.02137e-06
-2.38998e-06
-1.14881e-06
-4.67098e-06
-0.00447224
0.177746
-0.0107024
0.000555173
0.206231
0.429267
0.524226
0.000219075
0.00302808
0.0538273
0.141102
0.168084
0.280326
-0.000248192
-0.000210493
2.1086e-07
-0.00588584
-1.0428e-07
4.48353e-07
-0.00434853
9.87806e-07
-0.0026864
0.00190363
-0.00290766
0.000178106
-0.000950969
-1.00017e-05
1.21733e-05
-1.39069e-05
0.364836
0.183122
0.297171
0.341677
-0.000120947
0.0213748
0.0109842
-1.52321e-05
9.69014e-05
5.1875e-05
3.36374e-06
2.77007e-06
-6.8351e-06
3.30739e-06
-0.0106096
0.00280158
-4.7972e-05
6.73501e-05
7.62677e-05
0.0551138
1.33301e-05
9.2675e-06
-7.98152e-06
1.48844e-05
0.00262252
0.000523858
-0.000279061
9.11223e-05
0.552715
0.0565951
0.236966
0.121386
-0.0243476
0.00753949
-0.0250899
-3.3453e-08
0.00305873
0.0112177
0.0342095
0.00770723
0.00395216
-0.000206337
0.000121815
0.000159749
-0.00159006
-0.00124699
-0.00311544
-0.0027574
0.00687471
-0.003192
0.00606709
-0.00117958
0.0340431
0.00389528
0.000211234
-0.000219812
0.00807178
0.197264
0.122382
0.332499
0.456839
-0.00186486
-0.0275285
0.024968
-3.76207e-05
-0.0011008
0.00160445
-0.000863403
0.00156553
-0.00342576
-0.00406777
-5.0366e-06
0.000188845
0.0560404
-2.47823e-07
0.469111
0.676277
0.805464
0.709458
0.561996
0.736816
0.0042247
-0.000288442
-0.000246649
0.450893
0.520518
0.265115
-0.00371845
0.579943
0.507163
0.712313
0.39992
4.6937e-07
4.85029e-06
-4.43255e-07
-0.00617075
-0.00094344
4.28827e-08
-1.61739e-07
-7.55784e-08
-8.30819e-07
2.00251e-05
9.9803e-06
-7.0301e-05
-0.0364498
-0.000588628
0.00112086
-0.000512863
0.000364096
-5.86902e-05
0.000269267
0.00054642
-3.73083e-06
-9.21548e-06
0.254263
0.00134015
0.000424821
-0.00227962
0.000379111
0.00020039
-0.00123873
-0.000939722
-2.24379e-06
-1.30401e-05
-4.56526e-05
-0.00293491
0.00279765
0.00533555
-0.00559534
-1.69759e-07
6.18075e-06
2.87956e-06
-0.0111642
-0.00548256
6.70886e-05
0.000393592
-0.000386486
0.00970954
3.46926e-07
0.000354159
-3.59646e-07
-2.42888e-07
-3.99444e-05
-4.56243e-05
6.29787e-07
-2.57377e-05
-8.38895e-05
0.000163084
-9.04502e-06
-5.41974e-05
-0.0144209
-2.45891e-07
0.000173505
0.000591627
-9.63227e-05
-0.0123621
-0.000498433
0.00329525
0.00669396
0.0197049
0.0114603
0.0441646
0.0141768
0.0366957
-0.00646941
0.00678805
0.199559
0.0702743
0.111917
1.60994e-05
0.00284347
-2.70583e-07
-1.95473e-06
-0.00662609
-0.012186
0.00187024
0.000658528
0.00599566
0.0212015
0.0413976
0.00253818
0.000561558
-4.15368e-06
0.00012477
1.50485e-08
-0.00148391
-2.38215e-06
0.00578056
0.00709824
0.212316
0.10448
-0.0123831
0.0653577
0.109221
0.053786
-0.00479577
0.00683487
0.00305217
-0.0025431
5.48774e-05
-0.00430508
-0.0167407
-0.00222365
-0.000189411
0.00229699
2.63361e-06
2.57709e-06
-7.25108e-06
3.87129e-06
-1.64613e-06
1.65398e-05
-0.00123095
1.21259e-08
0.000528815
-0.00284941
-6.64112e-07
0.00316245
0.000153909
0.00363986
0.00238414
-3.28635e-05
1.64024e-06
0.00485933
-0.000119512
-0.000364241
-0.00105165
0.000238406
0.000157073
0.0782345
0.00176347
0.227777
0.00640632
0.000428199
0.0126066
-0.0143344
-0.0130736
0.00292387
0.0617258
0.523979
0.472293
-0.00471114
0.0021312
-0.000667618
0.428845
0.328609
0.670536
1.80243e-08
0.769836
0.728763
0.690066
0.648447
0.427946
1.87933e-05
-5.76767e-05
-0.000121896
5.55378e-05
0.000121803
-6.61449e-05
-2.31717e-05
0.000176289
-0.000403468
-0.00037399
-9.78973e-05
2.80234e-05
-7.27513e-05
-6.25428e-06
-3.71864e-06
3.4875e-05
2.33491e-05
4.98327e-05
4.6415e-06
5.3873e-06
-2.04711e-05
-5.87121e-05
-7.81556e-05
-0.000161378
0.504575
0.486972
0.405892
0.26938
0.0668948
0.0592237
0.0251586
0.00950692
0.0128355
0.0119999
5.55878e-07
-0.0014065
0.00059695
-0.00745958
-0.00272281
0.231857
-0.0317642
0.0123253
7.17893e-05
0.000393889
0.000883786
0.00115965
0.710466
0.00506939
0.283634
-0.00163072
0.117233
0.0146331
-0.000174063
-8.8684e-05
0.000798842
6.87637e-08
5.00777e-08
0.0031604
0.00129957
0.0114462
0.580576
0.151867
0.125544
8.37843e-07
-9.76239e-07
-7.72538e-07
-3.58098e-08
2.2657e-06
0.536448
0.297181
-0.00443823
0.00163295
0.0663952
0.0801216
0.0249711
2.44623e-07
0.0414442
-0.00301896
-0.00670365
0.0108879
0.000537395
0.000998186
0.000501245
2.8212e-07
0.70067
0.377465
0.145604
0.199736
0.288761
0.0710543
-0.013043
0.0314204
0.0190653
0.00877897
-0.00391215
-0.00255692
-0.0006467
-0.00284239
0.00359272
0.709125
0.739902
0.735206
0.00637985
-0.000292139
-6.92172e-07
0.394455
0.366422
0.00825025
-0.007288
0.00651667
0.00088798
0.000351504
0.000474518
5.0494e-06
-2.86307e-07
-0.0102882
-0.0225346
-0.00943776
-0.011297
-0.0160114
1.11285e-10
0.00258055
0.0183637
-0.000537739
-0.000846248
-0.000285122
0.0010207
0.0100952
-0.00113411
0.0228243
0.0702766
0.00473583
0.274046
0.226292
0.0355357
0.128131
0.214432
0.201532
0.260492
0.179566
-0.00271164
-7.76757e-05
0.674302
0.741828
0.671217
0.0227605
-0.00846262
0.013727
0.0113287
0.00470697
-0.00074384
6.17234e-06
0.130217
2.22778e-05
0.0075636
-0.00481285
0.000242469
0.000441603
0.00151495
-0.000985287
-0.00137712
2.69366e-05
2.62544e-06
3.47773e-06
2.8618e-06
1.13323e-09
1.9185e-09
0
-0.00485739
0.0117824
0.0201694
0.0323092
0.0892035
0.0289096
0.0631692
0.080454
-0.00497306
0.00125539
0.000488531
0.000939906
4.00178e-05
-2.30586e-05
0.0101246
0.004276
0.0235186
0.074838
-0.00417772
-0.00276062
-0.00210248
0.00340766
-0.00043308
-0.00658929
0.0158504
0.679804
2.73074e-05
0.393721
0.356522
0.367281
-2.82004e-07
-0.000912556