# vtk DataFile Version 2.0
Unstructured Grid by M++
ASCII
DATASET UNSTRUCTURED_GRID
POINTS 4072 float
  0.875000   1.000000 0
  0.875000   0.984375 0
  0.875000   0.968750 0
  0.875000   0.953125 0
  0.875000   0.937500 0
  0.875000   0.921875 0
  0.875000   0.906250 0
  0.875000   0.890625 0
  0.875000   0.875000 0
  0.875000   0.859375 0
  0.875000   0.843750 0
  0.875000   0.828125 0
  0.875000   0.812500 0
  0.875000   0.796875 0
  0.875000   0.781250 0
  0.875000   0.765625 0
  0.859375   1.000000 0
  0.859375   0.984375 0
  0.859375   0.968750 0
  0.859375   0.953125 0
  0.859375   0.937500 0
  0.859375   0.921875 0
  0.859375   0.890625 0
  0.859375   0.875000 0
  0.859375   0.859375 0
  0.859375   0.843750 0
  0.859375   0.828125 0
  0.859375   0.812500 0
  0.859375   0.796875 0
  0.859375   0.781250 0
  0.859375   0.765625 0
  0.859375   0.671875 0
  0.859375   0.656250 0
  0.859375   0.640625 0
  0.843750   1.000000 0
  0.843750   0.984375 0
  0.843750   0.968750 0
  0.843750   0.953125 0
  0.843750   0.937500 0
  0.843750   0.921875 0
  0.843750   0.906250 0
  0.843750   0.875000 0
  0.843750   0.859375 0
  0.843750   0.843750 0
  0.843750   0.828125 0
  0.843750   0.812500 0
  0.843750   0.796875 0
  0.843750   0.781250 0
  0.843750   0.765625 0
  0.843750   0.671875 0
  0.843750   0.656250 0
  0.843750   0.640625 0
  0.828125   1.000000 0
  0.828125   0.984375 0
  0.828125   0.968750 0
  0.828125   0.953125 0
  0.828125   0.937500 0
  0.828125   0.921875 0
  0.875000   0.671875 0
  0.812500   0.921875 0
  0.890625   0.656250 0
  0.828125   0.906250 0
  0.875000   0.656250 0
  0.812500   0.906250 0
  0.890625   0.640625 0
  0.828125   0.890625 0
  0.875000   0.640625 0
  0.812500   0.890625 0
  0.890625   0.625000 0
  0.828125   0.875000 0
  0.890625   0.609375 0
  0.828125   0.859375 0
  0.890625   0.593750 0
  0.828125   0.843750 0
  0.890625   0.578125 0
  0.828125   0.828125 0
  0.890625   0.562500 0
  0.828125   0.812500 0
  0.828125   0.796875 0
  0.828125   0.781250 0
  0.828125   0.765625 0
  0.828125   0.671875 0
  0.828125   0.656250 0
  0.828125   0.640625 0
  0.875000   0.750000 0
  0.812500   1.000000 0
  0.875000   0.625000 0
  0.812500   0.875000 0
  0.875000   0.734375 0
  0.812500   0.984375 0
  0.875000   0.718750 0
  0.812500   0.968750 0
  0.875000   0.703125 0
  0.812500   0.953125 0
  0.875000   0.687500 0
  0.812500   0.937500 0
  0.875000   0.609375 0
  0.812500   0.859375 0
  0.875000   0.593750 0
  0.812500   0.843750 0
  0.875000   0.578125 0
  0.812500   0.828125 0
  0.812500   0.812500 0
  0.875000   0.546875 0
  0.812500   0.796875 0
  0.812500   0.781250 0
  0.812500   0.765625 0
  0.859375   0.750000 0
  0.796875   1.000000 0
  0.859375   0.625000 0
  0.796875   0.875000 0
  0.859375   0.734375 0
  0.796875   0.984375 0
  0.859375   0.718750 0
  0.796875   0.968750 0
  0.859375   0.703125 0
  0.796875   0.953125 0
  0.859375   0.687500 0
  0.796875   0.937500 0
  0.859375   0.609375 0
  0.796875   0.859375 0
  0.859375   0.593750 0
  0.796875   0.843750 0
  0.859375   0.578125 0
  0.796875   0.828125 0
  0.859375   0.562500 0
  0.796875   0.812500 0
  0.796875   0.796875 0
  0.859375   0.531250 0
  0.796875   0.781250 0
  0.796875   0.765625 0
  0.843750   0.750000 0
  0.781250   1.000000 0
  0.843750   0.625000 0
  0.781250   0.875000 0
  0.843750   0.734375 0
  0.781250   0.984375 0
  0.843750   0.718750 0
  0.781250   0.968750 0
  0.843750   0.703125 0
  0.781250   0.953125 0
  0.843750   0.687500 0
  0.781250   0.937500 0
  0.843750   0.609375 0
  0.781250   0.859375 0
  0.843750   0.593750 0
  0.781250   0.843750 0
  0.843750   0.578125 0
  0.781250   0.828125 0
  0.781250   0.812500 0
  0.843750   0.546875 0
  0.781250   0.796875 0
  0.781250   0.781250 0
  0.843750   0.515625 0
  0.781250   0.765625 0
  0.828125   0.750000 0
  0.765625   1.000000 0
  0.828125   0.625000 0
  0.765625   0.875000 0
  0.828125   0.734375 0
  0.765625   0.984375 0
  0.828125   0.718750 0
  0.765625   0.968750 0
  0.828125   0.703125 0
  0.765625   0.953125 0
  0.828125   0.687500 0
  0.765625   0.937500 0
  0.828125   0.609375 0
  0.765625   0.859375 0
  0.828125   0.593750 0
  0.765625   0.843750 0
  0.828125   0.578125 0
  0.765625   0.828125 0
  0.828125   0.562500 0
  0.765625   0.812500 0
  0.765625   0.796875 0
  0.828125   0.531250 0
  0.765625   0.781250 0
  0.765625   0.765625 0
  0.812500   0.750000 0
  0.750000   1.000000 0
  0.953125   1.000000 0
  0.812500   0.734375 0
  0.750000   0.984375 0
  0.812500   0.718750 0
  0.750000   0.968750 0
  0.812500   0.703125 0
  0.750000   0.953125 0
  0.812500   0.687500 0
  0.750000   0.937500 0
  0.812500   0.671875 0
  0.750000   0.921875 0
  0.812500   0.656250 0
  0.750000   0.906250 0
  0.812500   0.640625 0
  0.750000   0.890625 0
  0.812500   0.625000 0
  0.750000   0.875000 0
  0.812500   0.609375 0
  0.750000   0.859375 0
  0.812500   0.593750 0
  0.750000   0.843750 0
  0.812500   0.578125 0
  0.750000   0.828125 0
  0.750000   0.812500 0
  0.812500   0.546875 0
  0.750000   0.796875 0
  0.750000   0.781250 0
  0.812500   0.515625 0
  0.750000   0.765625 0
  0.796875   0.750000 0
  0.734375   1.000000 0
  0.796875   0.734375 0
  0.734375   0.984375 0
  0.796875   0.718750 0
  0.734375   0.968750 0
  0.796875   0.703125 0
  0.734375   0.953125 0
  0.796875   0.687500 0
  0.734375   0.937500 0
  0.796875   0.671875 0
  0.734375   0.921875 0
  0.796875   0.656250 0
  0.734375   0.906250 0
  0.796875   0.640625 0
  0.734375   0.890625 0
  0.796875   0.625000 0
  0.734375   0.875000 0
  0.796875   0.609375 0
  0.734375   0.859375 0
  0.796875   0.593750 0
  0.734375   0.843750 0
  0.796875   0.578125 0
  0.734375   0.828125 0
  0.734375   0.812500 0
  0.734375   0.796875 0
  0.796875   0.531250 0
  0.734375   0.781250 0
  0.734375   0.765625 0
  0.781250   0.750000 0
  0.718750   1.000000 0
  0.921875   1.000000 0
  0.781250   0.734375 0
  0.718750   0.984375 0
  0.781250   0.718750 0
  0.718750   0.968750 0
  0.781250   0.703125 0
  0.718750   0.953125 0
  0.859375   0.906250 0
  0.781250   0.687500 0
  0.718750   0.937500 0
  0.781250   0.671875 0
  0.718750   0.921875 0
  0.781250   0.656250 0
  0.718750   0.906250 0
  0.781250   0.640625 0
  0.718750   0.890625 0
  0.781250   0.625000 0
  0.718750   0.875000 0
  0.781250   0.609375 0
  0.718750   0.859375 0
  0.781250   0.593750 0
  0.718750   0.843750 0
  0.781250   0.578125 0
  0.718750   0.828125 0
  0.781250   0.562500 0
  0.718750   0.812500 0
  0.781250   0.546875 0
  0.718750   0.796875 0
  0.781250   0.531250 0
  0.718750   0.781250 0
  0.781250   0.515625 0
  0.718750   0.765625 0
  0.765625   0.750000 0
  0.703125   1.000000 0
  0.765625   0.734375 0
  0.703125   0.984375 0
  0.765625   0.718750 0
  0.703125   0.968750 0
  0.765625   0.703125 0
  0.703125   0.953125 0
  0.765625   0.687500 0
  0.703125   0.937500 0
  0.843750   0.890625 0
  0.703125   0.921875 0
  0.765625   0.656250 0
  0.703125   0.906250 0
  0.765625   0.640625 0
  0.703125   0.890625 0
  0.765625   0.625000 0
  0.703125   0.875000 0
  0.765625   0.609375 0
  0.703125   0.859375 0
  0.765625   0.593750 0
  0.703125   0.843750 0
  0.765625   0.578125 0
  0.703125   0.828125 0
  0.765625   0.562500 0
  0.703125   0.812500 0
  0.765625   0.546875 0
  0.703125   0.796875 0
  0.765625   0.531250 0
  0.703125   0.781250 0
  0.765625   0.515625 0
  0.703125   0.765625 0
  0.750000   0.750000 0
  0.687500   1.000000 0
  0.890625   1.000000 0
  0.750000   0.734375 0
  0.687500   0.984375 0
  0.750000   0.718750 0
  0.687500   0.968750 0
  0.578125   0.796875 0
  0.578125   0.781250 0
  0.578125   0.765625 0
  0.546875   0.953125 0
  0.546875   0.968750 0
  0.546875   0.718750 0
  0.546875   0.687500 0
  0.250000   0.609375 0
  0.937500   0.031250 0
  0.046875   0.703125 0
  0.734375   0.062500 0
  0.734375   0.078125 0
  0.734375   0.046875 0
  0.046875   0.593750 0
  0.046875   0.562500 0
  0.046875   0.531250 0
  0.718750   0.156250 0
  0.046875   0.609375 0
  0.734375   0.031250 0
  0.062500   0.609375 0
  0.234375   0.703125 0
  0.718750   0.125000 0
  0.046875   0.578125 0
  0.734375   0.000000 0
  0.062500   0.578125 0
  0.000000   0.828125 0
  0.234375   0.671875 0
  0.234375   0.625000 0
  0.718750   0.093750 0
  0.687500   0.156250 0
  0.062500   0.546875 0
  0.000000   0.796875 0
  0.718750   0.046875 0
  0.031250   0.687500 0
  0.687500   0.171875 0
  0.500000   1.000000 0
  0.078125   0.218750 0
  0.234375   0.593750 0
  0.718750   0.062500 0
  0.687500   0.125000 0
  0.000000   0.765625 0
  0.421875   0.500000 0
  0.031250   0.593750 0
  0.718750   0.015625 0
  0.687500   0.234375 0
  0.015625   0.812500 0
  0.703125   0.171875 0
  0.703125   0.187500 0
  0.703125   0.140625 0
  0.015625   0.781250 0
  0.437500   0.515625 0
  0.500000   0.796875 0
  0.078125   0.015625 0
  0.687500   0.203125 0
  0.250000   0.578125 0
  0.703125   0.109375 0
  0.000000   0.515625 0
  0.500000   0.765625 0
  0.062500   0.593750 0
  0.750000   0.015625 0
  0.015625   0.843750 0
  0.687500   0.000000 0
  0.500000   0.828125 0
  0.078125   0.046875 0
  0.015625   0.531250 0
  0.250000   0.546875 0
  0.703125   0.078125 0
  0.703125   0.031250 0
  0.015625   0.671875 0
  0.250000   0.515625 0
  0.000000   0.656250 0
  0.500000   0.906250 0
  0.078125   0.125000 0
  0.687500   0.015625 0
  0.031250   0.546875 0
  0.687500   0.031250 0
  0.500000   0.859375 0
  0.703125   0.000000 0
  0.703125   0.046875 0
  0.703125   0.015625 0
  0.500000   0.937500 0
  0.234375   0.531250 0
  0.031250   0.578125 0
  0.687500   0.062500 0
  0.500000   0.890625 0
  0.031250   0.796875 0
  0.453125   0.531250 0
  0.500000   0.968750 0
  0.078125   0.187500 0
  0.234375   0.562500 0
  0.031250   0.609375 0
  0.718750   0.031250 0
  0.687500   0.093750 0
  0.750000   0.046875 0
  0.000000   0.937500 0
  0.421875   0.671875 0
  0.718750   0.187500 0
  0.031250   0.828125 0
  0.765625   0.062500 0
  0.015625   0.953125 0
[...]
CELL_DATA 7648
SCALARS scalar_value float 1
LOOKUP_TABLE default
-0.000652597
0.0017446
0.00120421
-0.00127973
0.0014805
0.00155276
-1.64098e-06
-0.0110313
-0.00667014
-0.00110659
0.00117447
0.000877397
0.000593367
0.571566
0.747832
0.0034718
0.0470315
-0.0123604
-0.00837143
9.7517e-07
0.00524631
0.00156149
-0.00703946
-3.50784e-05
0.00946289
-0.00077259
-0.00325472
-0.00186417
0.000438384
0.00140536
0.00290668
-0.0307783
0.0124084
0.000263517
0.000172104
0.000209512
-9.52944e-06
-0.000328944
-0.00162844
0.000380441
-7.84864e-05
0.00368508
-0.000334886
0.000121063
-3.39809e-05
0.000208644
-0.000360497
-0.000742611
0.00216729
-0.00329788
3.5694e-05
1.51133e-05
0.000722251
0.000484726
0.00339184
-0.00481937
0.00159405
0.00301744
-0.00144878
1.71071e-05
-2.1897e-05
0.00687343
-3.24836e-05
-0.00138865
-0.00269875
0.00358889
-0.00797123
7.43163e-05
-0.0052353
-4.92511e-05
-3.98116e-05
-3.62215e-05
-1.60911e-07
-1.36549e-06
-0.000288599
-0.00278772
-0.00406647
0.00618657
0.00316078
-0.00160225
-1.86655e-05
0.00193552
0.0212863
-0.000671703
1.5957e-06
-2.71601e-05
0.114788
-0.0117708
-0.00858334
-0.0125733
0.229291
-0.00470609
0.000555263
0.000133847
-0.000362986
0.000416022
0.000110256
0.000104339
-0.00155328
0.273273
0.370852
-2.33671e-05
1.11116e-05
1.54393e-05
0.0342955
0.429437
0.000137493
0.00121589
0.0010183
0.0111142
0.000137052
5.47996e-05
0.00342167
0.00288752
0.0755303
0.0208748
-0.000460507
0.268773
0.171772
0.60547
0.188648
-0.000696036
-0.000692211
0.000151924
-5.32475e-07
2.07943e-05
-2.17474e-05
0.00400782
-0.000145958
-0.000918752
0.00882788
0.000217372
0.00419831
0.00155655
8.34959e-05
7.9434e-05
-0.00679099
-0.00651282
-0.0018536
-0.00359034
-0.000214289
-3.31819e-06
-5.36326e-05
6.40961e-05
0.0078539
-2.89772e-05
2.53223e-06
0.000188972
3.00637e-06
7.33705e-05
9.5654e-06
6.55338e-06
0.000260943
0.620235
0.00046891
0.232314
-0.00208024
0.00181283
0.00212384
0.00352565
-0.00163626
-0.000716934
0.000885153
-3.41347e-06
0.00181341
0.00170022
0.000794911
0.000431677
0.000213395
0.00435705
-3.68072e-06
0.000408316
-5.5577e-07
-8.67242e-07
0.00637622
-0.00541669
0.00353615
3.13259e-06
-0.000100903
0.0027228
-0.000265669
2.42564e-05
-3.28941e-05
0.000339935
0.000454708
-0.00142349
0.000384193
0.000270318
-7.78313e-05
-0.000388695
0.0235985
0.000848816
0.00128995
6.15113e-06
1.30865e-05
8.27269e-05
-0.000112681
0.0170263
5.38303e-06
0.000531627
0.000356572
-0.00462468
-0.00597523
-0.00387
0.000668686
-2.7933e-06
0.00245878
0.0049995
0.0255441
-5.96157e-05
-6.22764e-06
-0.00436195
0.000490722
9.23451e-05
0.0019345
0.00603306
0.000296121
0.00388381
0.00389124
0.00121008
-0.000965262
0.000284456
1.73479e-05
-0.00105155
-9.38659e-05
0.00124366
-0.00123632
-0.000392105
-0.000497488
-0.00966197
0.0126046
-0.00194729
0.000307257
0.000653706
-9.4752e-05
9.82172e-06
-0.00055969
0.000416172
3.04807e-05
0.0660759
4.75896e-06
0.482455
-0.00355427
0.0103458
0.0469938
-1.79992e-06
0.708212
0.630017
0.652806
0.00317275
-0.000660865
0.00217462
0.00068367
0.00269565
0.000110612
1.0717e-06
2.44442e-05
0.00127179
-1.11436e-05
-0.00897106
-1.74572e-06
0.00050672
-0.00430784
0.00161383
-0.00215397
0.00467705
0.00199288
0.654771
0.752634
0.0292512
0.00409637
1.16516e-07
0.0200454
0.010302
0.00611728
0.00112658
0.00499462
-0.00176257
0.00474758
-0.00616203
-0.00376997
0.000685185
-0.00548544
0.00992572
0.0800494
-0.00114748
0.145954
-0.00387998
0.0070596
-0.0252282
0.0563834
0.25772
0.415055
-0.0021037
-0.0105189
0.00778762
0.0137648
-0.052987
0.00375778
0.112136
0.00905512
-0.00983274
-0.000125162
0.00529146
-0.0167394
-0.0152443
0.000186919
0.0059686
0.0039856
-0.00927267
-1.6742e-05
-0.000924378
0.128936
0.0378929
-0.000959626
-0.00385607
-0.00346437
0.00132027
-0.00482717
0.00223815
-0.000461394
9.91853e-05
2.44939e-05
-3.0975e-06
1.24457e-06
-0.011329
0.000231173
-0.000399879
0.000124588
-0.000341358
-0.00106018
0.00294526
-1.13881e-05
0.00079196
0.000160388
1.1968e-05
8.72255e-07
8.07651e-05
-3.15278e-05
1.43424e-05
0.000258324
0.0125779
0.00211185
-0.000475886
-0.000729529
6.91303e-05
-0.000935561
-0.00451963
4.7601e-05
4.7059e-06
0.282365
-0.00266378
-0.00642335
-0.00108261
0.0036702
2.93658e-05
0.000540849
0.000484909
0.00287617
-0.000814398
0.0214475
-3.1715e-05
-0.00268137
4.86452e-07
0.00600996
-0.000415031
-0.000690484
-0.00528699
0.00265509
-0.00374165
0.00394806
-7.78167e-07
4.30558e-05
0.00938294
0.00393287
0.0124619
0.000843678
-0.00211018
0.000583601
0.00340572
0.00526846
-0.00440301
0.00105823
-0.00368834
-0.00354928
0.00101265
-9.63618e-05
-0.00296786
0.000395318
0.000585301
0.00185006
8.77687e-05
0.00120846
0.00291066
0.00209539
-0.000358474
-0.00320161
-0.00171106
-0.000927607
0.00143877
0.00208823
-0.00276383
-1.06161e-05
-6.68004e-05
-0.000426033
-2.10692e-06
-0.000271965
0.00185862
0.00536787
-0.000276833
-0.00769254
0.052656
1.17813e-06
0.0363863
0.0332846
0.806736
0.000765609
0.000214244
-0.00047228
-6.67035e-05
0.00221917
0.000927612
0.000288956
0.00314273
0.000373115
-0.000725662
1.40948e-05
0.0129733
0.00361241
0.0837718
0.697018
-0.0220949
3.87163e-07
0.000450164
0.00268601
-0.00326972
0.000176814
3.99031e-05
-0.000111249
1.78393e-05
-0.00170337
0.000212316
0.013277
-0.00320133
-2.81296e-07
3.6454e-06
0.00650123
-0.000256743
3.45721e-06
-0.00122307
-3.90864e-07
0.122393
0.00115178
2.88881e-05
0.000200535
0.000117776
-0.000312861
0.00456449
0.277372
-0.00454323
0.0047357
0.000274764
0.35663
0.000120165
-0.00231079
9.93746e-06
0.000779834
0.000378772
5.85238e-05
-0.000603741
-0.00176142
-0.00193792
0.00163609
6.10085e-06
0.459448
0.0409041
-0.00292378
-1.87453e-07
0.512519
0.000453316
-2.54468e-06
-0.00817589
-0.00434906
-0.00153576
0.000595535
-0.00465322
4.2446e-06
3.14679e-05
2.77058e-05
-0.00616743
3.52533e-05
-2.21314e-06
-7.72956e-06
0.00046531
0.0866226
-0.0142246
-0.000469374
-7.20895e-05
1.74863e-05
1.99305e-05
0.00259101
0.000171081
-0.0002338
0.0022654
0.000264818
-5.11207e-05
0.000276196
-0.000118332
0.00517589
-0.000257089
0.00182315
-0.000249923
0.000186728
0.0978245
-0.00942279
-0.0166403
-1.68931e-07
-0.00492675
0.0015068
0.448682
0.522928
0.00562402
-1.04264e-06
-0.00100288
-0.00098842
-9.42125e-05
0.000616994
-1.33563e-06
0.00846946
-0.0299619
0.0011359
0.000139491
0.000640628
0.0446989
-0.00436925
-3.99037e-07
-0.00012636
-8.79801e-07
0.301429
0.0213147
0.000551024
9.39648e-06
0.00116919
-0.000474953
0.0220011
-0.00365475
0.00225707
0.00137366
-0.000544307
-7.60005e-05
-0.00101735
0.00433744
-0.000977574
0.0136946
0.00160024
0.000119592
5.2886e-05
-0.00544697
0.00236152
0.000980239
-0.00073744
0.000962843
-0.00215215
0.00268058
0.000177119
-2.22216e-05
0.00456742
-0.00097772
0.00379
3.6966e-05
-4.19703e-06
0.00158438
0.00143335
0.00326649
-0.0024077
0.0176668
0.00104676
4.66626e-07
0.00269451
4.83239e-06
0.0301701
0.00228629
0.00416598
-0.00349912
9.7426e-05
0.00285231
-0.00819465
6.47829e-05
-0.00225615
-0.000371738
0.000110628
0.000659391
-0.00595016
0.0943052
-1.4862e-06
-9.06189e-07
0.0117195
0.291778
0.0409128
-0.011084
0.00102737
0.000144121
0.00168335
0.00445273
0.000251346
-0.00196321
0.00153059
-0.00279934
-0.00230547
0.0022524
0.00375547
-0.00644549
-7.45638e-05
0.00896331
-0.00144764
-0.000330057
-0.00132292
-0.0106848
0.00186476
-0.00370071
9.25421e-05
-0.00384957
0.00433209
-0.000998231
0.00120353
0.000448871
-0.00298395
-0.00299349
0.00373233
0.00224556
0.000476766
0.000153086
-0.00238693
0.000207231
0.000712683
-0.00038836
0.00941859
0.76964
0.62841
0.000593088
0.000179896
-0.00593607
0.000111011
-0.000663836
-1.51964e-05
0.00026879
-4.97966e-05
0.00404648
0.00182922
0.000212786
-0.00539718
0.590009
0.00248401
0.00396809
0.002622
0.000526458
-0.00601172
0.010084
0.00105202
0.0519301
1.8307e-05
0.00499953
0.0106126
-0.0148921
0.00577137
-0.00395998
-0.0182192
0.0330907
0.00459206
0.000649116
-0.0140206
-0.0149446
-2.51429e-06
0.630983
0.000401716
-0.00594923
0.00229763
-0.0125382
0.00298631
4.46108e-06
0.0143945
0.00222041
-0.00099071
0.00638295
6.31642e-06
0.00254757
0.00626199
0.00768476
0.000117471
3.12491e-05
-0.00361083
1.79834e-05
0.190319
-0.001608
-0.000558367
-0.00408168
0.00059949
-2.97594e-05
-2.27542e-05
-2.29751e-06
-0.00782993
6.23725e-06
0.00273515
0.00260733
-0.0095141
0.000194537
0.000911561
6.32481e-06
-2.89995e-05
-0.00404859
0.000434663
-0.0240502
-0.00284456
-0.0023734
-0.00152203
-0.00112457
0.00270869
-0.00772942
-0.00205
-7.26375e-05
-0.00549459
-0.0107747
0.000161789
-0.00688069
0.0020999
0.00631724
0.000179279
0.00241015
-0.00451113
0.00470156
0.000336921
-0.000370734
-2.01263e-05
-0.000347895
-4.69104e-07
-5.43478e-05
-0.00148149
-0.000508542
-0.000127378
2.232e-05
-0.00139559
-0.00150138
-0.00177808
0.000811822
-0.0117113
4.68753e-05
0.00170321
-0.00232537
3.90585e-07
-0.00920952
3.13835e-06
-0.0444331
0.000190562
-5.21791e-05
0.610352
0.000640571
0.000119292
-0.00291699
-0.00434642
0.72415
0.00127707
1.87771e-07
0.000619186
0.00645953
9.54272e-06
0.000219205
-0.00966576
-2.18139e-05
-0.000411409
0.000171458
-0.000183641
0.000273181
0.000585925
-0.00504559
8.97055e-05
0.000488833
1.20511e-05
0.0741622
0.000669497
0.00706362
-0.000126967
2.90836e-05
8.8914e-06
-0.000148393
-0.000621375
9.51078e-05
0.000152402
0.0994028
0.00104543
0.191052
-0.0240952
-8.58455e-07
-0.00835681
-0.00378558
0.00946876
0.0110039
0.00695181
0.0021574
-0.00293379
6.03527e-05
0.585557
-0.00114592
0.00104042
0.00241623
0.0171488
0.00960221
-0.00430947
0.0036533
0.000610378
-0.0260558
-0.00158626
-0.0106536
0.000289408
-0.00492753
0.00213731
0.434993
0.00624535
0.275808
-0.0013859
-0.00370722
-0.0122366
0.13863
0.000530975
0.000640773
0.631038
0.650421
-3.9999e-07
-0.00267632
0.0626487
-0.000120916
-0.000464834
0.00564104
-0.00315067
-1.52924e-07
-0.00089552
-0.000939253
-0.000530844
0.00834805
1.40998e-06
0.00284046
0.00183806
-0.00346567
0.221481
0.360373
0.00144904
-0.00216577
0.000811655
-0.00273309
-0.00186697
5.19807e-06
-0.000323747
0.311157
-0.00342795
0.00186035
-0.00170209
-0.00517619
-0.00129006
-0.0002994
-0.00165233
-0.00657241
-0.000162286
-0.00115543
0.00165064
0.00103763
0.0125282
-0.000871071
-0.00191208
-0.000432432
0.000288792
-0.00167508
-0.00101689
-0.00252709
0.000233432
-0.0014415
-8.36659e-05
0.638461
0.000543349
0.678448
0.00781101
0.390149
0.476387
0.00134588
-0.00080978
-0.000108227
-0.000141863
0.712129
-0.00719915
0.00902628
0.00251992
-0.00210691
0.00500926
0.0105047
-0.000132425
-0.0382415
0.328881
0.002361
0.00227808
-2.04125e-06
3.1928e-07
-0.00111081
7.81328e-07
-2.86515e-05
-0.00208943
2.80699e-05
-0.000408914
0.0102712
0.00903507
0.00109904
0.00512332
0.000266694
0.0180914
-0.00105902
-0.000140767
0.000219727
0.00320632
-0.000271018
0.00110209
8.99146e-07
-0.0049173
-3.67248e-06
0.00332727
3.53743e-06
0.0242415
-0.00221972
0.0644931
0.219384
0.002325
0.375199
0.00404962
0.00435542
-0.00125933
0.00732709
0.00129245
0.000173957
-0.0106748
-1.00852e-06
0.00114209
0.0214641
0.0108707
3.75337e-08
0.00251729
-1.05676e-07
0.00313748
0.307591
7.44995e-07
0.0123194
-0.000158944
6.22987e-05
0.0105322
0.000696464
-0.00131698
0.00048877
0.00975413
0.000823835
-0.00274144
0.00237499
-2.09543e-06
0.00134711
-0.00151995
-0.000474159
0.000377347
7.11494e-05
0.00168056
5.76931e-05
-0.000116796
-0.00244809
-0.000560156
4.97983e-05
0.000989244
1.92611e-06
-1.33283e-06
0.000625618
0.00278764
-1.47229e-06
0.000731606
0.291104
0.279264
-1.96184e-07
-0.000538214
-0.00073321
0.00299456
0.0671036
0.00016885
0.596387
0.119158
0.00953121
-0.000742509
0.329614
-7.99412e-05
0.00430184
-0.00136618
0.380788
0.00555647
0.000981845
6.56415e-06
0.000100967
-0.000574512
-0.00018366
-0.00280353
-0.000219694
0.699844
0.00027946
-0.000250006
-2.61457e-07
-1.06404e-07
-0.0137769
0.00235143
0.177144
0.351816
0.267336
-0.00144398
0.000258859
1.60387e-05
-0.00239743
-0.000142646
-0.00735755
0.00281491
-1.86777e-07
-3.14817e-06
-0.00123484
-0.00750343
-0.00995692
-0.00256776
0.00175857
0.45492
0.000104281
9.46393e-05
-0.0122031
-0.000584325
5.50819e-05
0.744159
0.786016
0.000332309
-0.00337628
2.18361e-06
4.95893e-06
0.0261972
-0.000446694
0.000390512
-0.000446604
-0.000736913
-0.00296302
0.000758689
-0.00117456
0.0558407
0.00505754
0.00144915
0.000560636
0.0475069
0.000731434
-6.96342e-05
-1.28125e-05
0.000242482
-0.000449327
-5.2649e-05
0.0167172
1.15161e-05
0.00014473
5.17576e-06
7.65673e-08
-0.000348025
1.01506e-05
8.89504e-05
-8.95039e-05
-4.7508e-06
0.000516992
0.0346943
0.0558561
0.0504585
8.77272e-05
-0.000145131
1.35462e-05
-0.00366394
-0.015089
-0.000351816
0.000683317
0.000158398
0.00577384
0.00305575
0.0342859
0.0134756
0.000555941
2.21982e-05
5.59695e-06
0.00307054
-0.000190063
0.00229238
-1.18968e-05
0.000332051
0.368462
0.000898602
4.41083e-05
0.00260664
-9.64793e-06
0.001747
-0.00159042
-0.000901827
-0.00580058
-0.000254936
0.000906574
0.0473953
-7.40023e-05
0.0180829
1.44485e-06
0.00425823
0.00743179
0.00341734
-0.00478431
-0.00984042
-0.00234991
0.0155209
-6.14965e-06
0.0823595
0.00553382
-0.000710749
0.17615
5.63009e-06
-0.0013629
-7.63725e-07
-0.00013762
0.00180172
-0.00037767
-0.0112347
-0.0116149
1.52318e-06
-6.49725e-06
1.57472e-05
1.54567e-05
0.0918176
0.202498
-0.0306358
0.0155071
-0.000805637
-0.000316117
0.000187396
-8.71904e-05
-0.000158107
-0.000183504
-0.000112779
1.2682e-05
-7.62839e-05
3.51793e-06
3.15187e-06
2.49368e-06
9.17666e-07
0.00248634
-0.000412343
-0.00195755
-0.00672936
-0.00184875
-0.0088842
-0.0100816
-0.0129089
0.00840907
0.00252011
0.00493262
4.1464e-07
0.000528111
9.31578e-06
-0.000480627
0.000173734
-0.000593186
0.000166776
-0.000513916
0.163462
0.00142475
0.0583333
0.152565
-0.000280883
0.0023247
-0.00233325
0.554125
0.590534
0.474224
0.367046
-0.00761436
0.00653848
0.00111309
0.00476996
0.00230982
0.139071
-0.0203478
-0.00472612
-0.000812989
0.00251284
0.00356388
0.00472905
-0.00196388
0.00400002
0.000440302
0.000580635
-0.000267849
0.000691939
0.000133878
0.00106032
-0.00112289
-0.00163979
7.79199e-05
0.0630511
-0.00149522
-0.00421371
0.00308826
-0.0016417
7.29339e-06
0.0196203
0.0775926
0.190605
0.129512
0.200049
0.195037
0.00448325
0.104833
-1.77337e-06
0.00606352
0.193819
0.215218
0.133026
0.0267551
3.60994e-07
-0.00207287
-0.000159844
-0.000387708
-0.000522733
0.000381006
0.000195111
0.000107181
-0.000277053
0.00110137
7.36449e-05
0.000350704
0.000958883
-0.00629629
-0.0027469
-0.00484304
-3.88844e-06
0.00113153
-0.00639603
0.00181167
-0.00385084
-8.30558e-06
3.22858e-06
0.00125231
-0.000142475
0.000147927
-4.15749e-06
-2.58291e-05
-2.49038e-05
0.000987827
-0.00388416
-6.85716e-08
0.00035481
0.018454
0.00541486
-0.00138777
5.09137e-06
0.0126535
6.23032e-07
-0.000519068
-0.0021681
-0.00249329
0.00343219
3.83334e-07
-4.20456e-05
4.59741e-05
4.2704e-05
4.60333e-06
5.04014e-06
5.83816e-06
1.14876e-05
-0.00848596
0.0243002
-0.00128199
5.00034e-05
-0.0363573
0.0408344
0.0974738
-2.26492e-05
-0.000159049
0.274976
0.648841
0.547038
0.501673
-0.000158849
-1.046e-05
3.43553e-06
0.0152704
-1.85988e-07
4.15712e-06
-0.0100744
-1.08389e-05
0.00237777
-0.00322205
0.00731318
0.000797116
-0.00264318
-0.000113605
5.51445e-05
-7.70482e-05
0.442289
0.655977
0.526154
0.500695
0.00017887
-0.00195022
0.00847352
-7.17366e-05
-0.00046579
-0.000250156
-2.43212e-05
7.8094e-05
5.10265e-06
5.40274e-05
0.00166154
-0.00537868
-0.000226462
0.000156929
-0.000194294
0.572566
-4.74683e-06
6.66191e-05
-5.36348e-05
-1.50743e-05
-0.00878204
-0.00772196
0.000503478
6.29187e-05
0.329637
0.54567
0.609244
0.588678
0.000595521
-0.00330849
0.00282382
1.56297e-07
0.0100063
0.000577256
-0.0106005
-0.000270934
-0.000718527
0.000708052
-0.000358191
-0.000477993
2.40013e-05
0.00211829
0.000298387
0.00247231
0.00051122
0.00363423
0.00567114
0.000761501
0.00346065
0.000406336
-0.000266759
0.0024003
0.135899
0.69165
0.637321
0.605998
0.23812
-0.000226655
-0.0129244
0.00717142
0.000301102
0.00201183
0.00168753
-0.00323952
-0.00566071
-0.00705027
-0.00379356
3.44613e-05
-0.0083298
0.0194057
6.57451e-06
0.157031
0.250443
0.0800613
0.208432
0.362882
0.193238
-0.0068244
-0.000113291
0.000116429
0.510655
0.445071
0.535181
0.195694
-0.000806971
0.0124992
0.148241
-0.00402439
-9.13062e-06
-3.06514e-05
-6.41819e-06
0.0366605
0.025326
4.65689e-06
-5.16696e-06
-3.14319e-06
-1.57619e-06
6.16199e-05
3.60817e-05
0.000154177
-0.00846872
0.000457688
-0.00162476
-0.000117832
0.000305516
0.000168832
0.00125979
0.00146057
3.31151e-05
-6.99105e-05
0.133551
0.00047866
9.20706e-05
0.00225101
8.41423e-05
0.000315952
0.00068082
-0.000647163
-3.05691e-05
1.02593e-05
0.000253515
-0.00042175
-0.00392875
0.447476
-0.00184744
3.69432e-06
1.79926e-05
-2.24207e-05
0.00378649
0.00211192
-1.81545e-05
0.000295842
-3.24252e-05
0.00968319
3.10902e-07
0.00186649
-1.20234e-07
-2.00966e-06
-8.52392e-05
-4.27806e-05
0.000355017
-0.00108545
-0.00179204
-0.000120751
0.000127052
-5.6272e-05
0.0020797
2.70424e-05
4.53562e-05
0.00170531
7.45658e-05
-0.00965107
-0.00467139
0.00947677
0.0297627
0.563606
0.456306
0.795073
0.611201
0.745306
-0.00578539
0.00123092
0.736392
0.788066
0.756296
4.41972e-05
0.00209553
-4.28949e-06
-7.61833e-06
0.0197059
0.0253426
-0.00812308
8.16166e-05
0.00171658
0.663388
0.736224
0.00163064
0.000338842
-3.82038e-05
0.00110641
1.11738e-06
0.00722054
1.81155e-05
0.00827835
-0.00322485
0.00209267
-0.0100771
-0.000279182
0.00804791
0.6836
0.549718
0.271004
0.029994
-0.00411909
0.000579692
-0.00413639
0.00227776
0.00623845
0.000712565
-0.00191116
0.00275489
0.000178949
0.000261955
0.000492268
0.000245699
4.1239e-06
1.57821e-05
0.00133144
2.20095e-06
0.00980629
0.00308199
2.43462e-06
0.012609
-2.50603e-05
-0.00105001
0.000395277
-4.24862e-05
-0.000107579
-0.000741614
0.0011373
0.000770438
0.00165515
-0.00497211
0.00648603
0.344114
0.221614
0.388167
-0.000396254
-0.00538292
-0.00627805
0.00197551
0.00350935
-4.8282e-05
0.255375
0.411766
0.373148
-0.0147901
0.00751862
0.00445558
0.231656
0.36179
0.18796
2.47115e-06
-0.0156841
0.118397
0.0292963
0.0081826
0.383913
1.98396e-05
0.000101328
0.000229499
3.72423e-05
-7.50112e-05
-5.70266e-05
-3.50954e-05
-9.57005e-05
8.85717e-05
0.000158201
0.000261798
-3.54838e-05
0.000179199
-2.59602e-05
-2.29427e-05
2.45209e-05
3.27866e-05
2.49177e-05
-7.30516e-05
-6.3972e-05
-0.000114963
-2.00083e-05
-5.04684e-06
-0.00015469
0.00340217
-0.0346326
-0.00684027
-0.0098558
-0.00787496
-0.00413993
-0.0131189
-0.0030474
0.622974
0.602571
-4.02833e-06
0.00103285
0.000733915
-0.00210112
0.00338348
0.0265576
-0.00750647
-0.00201683
0.00738939
0.000543287
-0.00122103
-0.00202184
0.0691019
-0.00543515
-0.0258506
0.0103585
-0.023094
-0.0141705
4.15791e-05
6.06101e-05
-0.00135747
3.71926e-07
-3.51686e-07
-0.012492
-0.0110123
0.00574487
0.306195
0.666075
0.650952
-1.28767e-05
2.31796e-05
3.77446e-05
-3.73947e-06
-2.38412e-05
0.129407
0.177106
-0.00178645
-0.000394114
-0.0201798
-9.75976e-05
0.00831576
6.55768e-07
-0.000532816
-0.000936231
0.00121076
-0.00767589
0.000837009
0.00418783
0.000636718
1.91005e-06
0.0208918
0.00320413
0.654013
0.609411
0.507319
-0.0128799
0.00106996
0.00968271
-0.00857058
0.00203251
0.0073231
0.00215915
0.00161346
0.00197661
-0.00413146
0.0270321
0.0537748
0.0865697
0.00255879
-0.00209265
1.47297e-05
0.490227
0.523232
0.00361387
0.00872176
0.00437728
-0.00244099
0.000338038
-0.000185247
-2.77027e-05
2.01226e-07
-0.00129842
-0.00827397
-0.00967568
-0.00704171
-0.0137515
-2.7703e-07
-0.0168108
0.615549
0.0477485
0.213389
0.0761832
0.133024
0.175444
0.107906
0.662318
0.751254
0.255181
0.0525896
-0.000458662
-0.00529545
-0.00120461
0.729708
0.0535471
0.577365
0.0353402
0.000817555
0.00127905
-0.00637839
0.0195136
0.00744249
-0.00462158
0.0416867
-0.00158443
0.0063633
-0.00899112
0.00626454
-4.11745e-05
0.0165651
0.00030242
0.00992949
0.00787528
0.000189118
-0.000713622
0.00297053
-0.00615497
0.00226144
-2.45562e-05
1.38516e-05
6.93616e-06
1.00207e-05
-5.54208e-07
3.11372e-07
5.57252e-07
0.00193526
0.000548735
0.656715
0.69789
0.708036
0.699396
0.719405
0.732674
0.00522769
-0.000640883
-0.00147461
-0.000519576
-0.000247762
-0.000117408
0.129208
0.122856
0.303797
0.639154
-0.00368486
0.000431563
0.000275627
0.0108751
0.000132014
-0.00375477
-0.00448014
0.026872