# vtk DataFile Version 2.0
Unstructured Grid by M++
ASCII
DATASET UNSTRUCTURED_GRID
POINTS 4072 float
  0.875000   1.000000 0
  0.875000   0.984375 0
  0.875000   0.968750 0
  0.875000   0.953125 0
  0.875000   0.937500 0
  0.875000   0.921875 0
  0.875000   0.906250 0
  0.875000   0.890625 0
  0.875000   0.875000 0
  0.875000   0.859375 0
  0.875000   0.843750 0
  0.875000   0.828125 0
  0.875000   0.812500 0
  0.875000   0.796875 0
  0.875000   0.781250 0
  0.875000   0.765625 0
  0.859375   1.000000 0
  0.859375   0.984375 0
  0.859375   0.968750 0
  0.859375   0.953125 0
  0.859375   0.937500 0
  0.859375   0.921875 0
  0.859375   0.890625 0
  0.859375   0.875000 0
  0.859375   0.859375 0
  0.859375   0.843750 0
  0.859375   0.828125 0
  0.859375   0.812500 0
  0.859375   0.796875 0
  0.859375   0.781250 0
  0.859375   0.765625 0
  0.859375   0.671875 0
  0.859375   0.656250 0
  0.859375   0.640625 0
  0.843750   1.000000 0
  0.843750   0.984375 0
  0.843750   0.968750 0
  0.843750   0.953125 0
  0.843750   0.937500 0
  0.843750   0.921875 0
  0.843750   0.906250 0
  0.843750   0.875000 0
  0.843750   0.859375 0
  0.843750   0.843750 0
  0.843750   0.828125 0
  0.843750   0.812500 0
  0.843750   0.796875 0
  0.843750   0.781250 0
  0.843750   0.765625 0
  0.843750   0.671875 0
  0.843750   0.656250 0
  0.843750   0.640625 0
  0.828125   1.000000 0
  0.828125   0.984375 0
  0.828125   0.968750 0
  0.828125   0.953125 0
  0.828125   0.937500 0
  0.828125   0.921875 0
  0.875000   0.671875 0
  0.812500   0.921875 0
  0.890625   0.656250 0
  0.828125   0.906250 0
  0.875000   0.656250 0
  0.812500   0.906250 0
  0.890625   0.640625 0
  0.828125   0.890625 0
  0.875000   0.640625 0
  0.812500   0.890625 0
  0.890625   0.625000 0
  0.828125   0.875000 0
  0.890625   0.609375 0
  0.828125   0.859375 0
  0.890625   0.593750 0
  0.828125   0.843750 0
  0.890625   0.578125 0
  0.828125   0.828125 0
  0.890625   0.562500 0
  0.828125   0.812500 0
  0.828125   0.796875 0
  0.828125   0.781250 0
  0.828125   0.765625 0
  0.828125   0.671875 0
  0.828125   0.656250 0
  0.828125   0.640625 0
  0.875000   0.750000 0
  0.812500   1.000000 0
  0.875000   0.625000 0
  0.812500   0.875000 0
  0.875000   0.734375 0
  0.812500   0.984375 0
  0.875000   0.718750 0
  0.812500   0.968750 0
  0.875000   0.703125 0
  0.812500   0.953125 0
  0.875000   0.687500 0
  0.812500   0.937500 0
  0.875000   0.609375 0
  0.812500   0.859375 0
  0.875000   0.593750 0
  0.812500   0.843750 0
  0.875000   0.578125 0
  0.812500   0.828125 0
  0.812500   0.812500 0
  0.875000   0.546875 0
  0.812500   0.796875 0
  0.812500   0.781250 0
  0.812500   0.765625 0
  0.859375   0.750000 0
  0.796875   1.000000 0
  0.859375   0.625000 0
  0.796875   0.875000 0
  0.859375   0.734375 0
  0.796875   0.984375 0
  0.859375   0.718750 0
  0.796875   0.968750 0
  0.859375   0.703125 0
  0.796875   0.953125 0
  0.859375   0.687500 0
  0.796875   0.937500 0
  0.859375   0.609375 0
  0.796875   0.859375 0
  0.859375   0.593750 0
  0.796875   0.843750 0
  0.859375   0.578125 0
  0.796875   0.828125 0
  0.859375   0.562500 0
  0.796875   0.812500 0
  0.796875   0.796875 0
  0.859375   0.531250 0
  0.796875   0.781250 0
  0.796875   0.765625 0
  0.843750   0.750000 0
  0.781250   1.000000 0
  0.843750   0.625000 0
  0.781250   0.875000 0
  0.843750   0.734375 0
  0.781250   0.984375 0
  0.843750   0.718750 0
  0.781250   0.968750 0
  0.843750   0.703125 0
  0.781250   0.953125 0
  0.843750   0.687500 0
  0.781250   0.937500 0
  0.843750   0.609375 0
  0.781250   0.859375 0
  0.843750   0.593750 0
  0.781250   0.843750 0
  0.843750   0.578125 0
  0.781250   0.828125 0
  0.781250   0.812500 0
  0.843750   0.546875 0
  0.781250   0.796875 0
  0.781250   0.781250 0
  0.843750   0.515625 0
  0.781250   0.765625 0
  0.828125   0.750000 0
  0.765625   1.000000 0
  0.828125   0.625000 0
  0.765625   0.875000 0
  0.828125   0.734375 0
  0.765625   0.984375 0
  0.828125   0.718750 0
  0.765625   0.968750 0
  0.828125   0.703125 0
  0.765625   0.953125 0
  0.828125   0.687500 0
  0.765625   0.937500 0
  0.828125   0.609375 0
  0.765625   0.859375 0
  0.828125   0.593750 0
  0.765625   0.843750 0
  0.828125   0.578125 0
  0.765625   0.828125 0
  0.828125   0.562500 0
  0.765625   0.812500 0
  0.765625   0.796875 0
  0.828125   0.531250 0
  0.765625   0.781250 0
  0.765625   0.765625 0
  0.812500   0.750000 0
  0.750000   1.000000 0
  0.953125   1.000000 0
  0.812500   0.734375 0
  0.750000   0.984375 0
  0.812500   0.718750 0
  0.750000   0.968750 0
  0.812500   0.703125 0
  0.750000   0.953125 0
  0.812500   0.687500 0
  0.750000   0.937500 0
  0.812500   0.671875 0
  0.750000   0.921875 0
  0.812500   0.656250 0
  0.750000   0.906250 0
  0.812500   0.640625 0
  0.750000   0.890625 0
  0.812500   0.625000 0
  0.750000   0.875000 0
  0.812500   0.609375 0
  0.750000   0.859375 0
  0.812500   0.593750 0
  0.750000   0.843750 0
  0.812500   0.578125 0
  0.750000   0.828125 0
  0.750000   0.812500 0
  0.812500   0.546875 0
  0.750000   0.796875 0
  0.750000   0.781250 0
  0.812500   0.515625 0
  0.750000   0.765625 0
  0.796875   0.750000 0
  0.734375   1.000000 0
  0.796875   0.734375 0
  0.734375   0.984375 0
  0.796875   0.718750 0
  0.734375   0.968750 0
  0.796875   0.703125 0
  0.734375   0.953125 0
  0.796875   0.687500 0
  0.734375   0.937500 0
  0.796875   0.671875 0
  0.734375   0.921875 0
  0.796875   0.656250 0
  0.734375   0.906250 0
  0.796875   0.640625 0
  0.734375   0.890625 0
  0.796875   0.625000 0
  0.734375   0.875000 0
  0.796875   0.609375 0
  0.734375   0.859375 0
  0.796875   0.593750 0
  0.734375   0.843750 0
  0.796875   0.578125 0
  0.734375   0.828125 0
  0.734375   0.812500 0
  0.734375   0.796875 0
  0.796875   0.531250 0
  0.734375   0.781250 0
  0.734375   0.765625 0
  0.781250   0.750000 0
  0.718750   1.000000 0
  0.921875   1.000000 0
  0.781250   0.734375 0
  0.718750   0.984375 0
  0.781250   0.718750 0
  0.718750   0.968750 0
  0.781250   0.703125 0
  0.718750   0.953125 0
  0.859375   0.906250 0
  0.781250   0.687500 0
  0.718750   0.937500 0
  0.781250   0.671875 0
  0.718750   0.921875 0
  0.781250   0.656250 0
  0.718750   0.906250 0
  0.781250   0.640625 0
  0.718750   0.890625 0
  0.781250   0.625000 0
  0.718750   0.875000 0
  0.781250   0.609375 0
  0.718750   0.859375 0
  0.781250   0.593750 0
  0.718750   0.843750 0
  0.781250   0.578125 0
  0.718750   0.828125 0
  0.781250   0.562500 0
  0.718750   0.812500 0
  0.781250   0.546875 0
  0.718750   0.796875 0
  0.781250   0.531250 0
  0.718750   0.781250 0
  0.781250   0.515625 0
  0.718750   0.765625 0
  0.765625   0.750000 0
  0.703125   1.000000 0
  0.765625   0.734375 0
  0.703125   0.984375 0
  0.765625   0.718750 0
  0.703125   0.968750 0
  0.765625   0.703125 0
  0.703125   0.953125 0
  0.765625   0.687500 0
  0.703125   0.937500 0
  0.843750   0.890625 0
  0.703125   0.921875 0
  0.765625   0.656250 0
  0.703125   0.906250 0
  0.765625   0.640625 0
  0.703125   0.890625 0
  0.765625   0.625000 0
  0.703125   0.875000 0
  0.765625   0.609375 0
  0.703125   0.859375 0
  0.765625   0.593750 0
  0.703125   0.843750 0
  0.765625   0.578125 0
  0.703125   0.828125 0
  0.765625   0.562500 0
  0.703125   0.812500 0
  0.765625   0.546875 0
  0.703125   0.796875 0
  0.765625   0.531250 0
  0.703125   0.781250 0
  0.765625   0.515625 0
  0.703125   0.765625 0
  0.750000   0.750000 0
  0.687500   1.000000 0
  0.890625   1.000000 0
  0.750000   0.734375 0
  0.687500   0.984375 0
  0.750000   0.718750 0
  0.687500   0.968750 0
  0.578125   0.796875 0
  0.578125   0.781250 0
  0.578125   0.765625 0
  0.546875   0.953125 0
  0.546875   0.968750 0
  0.546875   0.718750 0
  0.546875   0.687500 0
  0.250000   0.609375 0
  0.937500   0.031250 0
  0.046875   0.703125 0
  0.734375   0.062500 0
  0.734375   0.078125 0
  0.734375   0.046875 0
  0.046875   0.593750 0
  0.046875   0.562500 0
  0.046875   0.531250 0
  0.718750   0.156250 0
  0.046875   0.609375 0
  0.734375   0.031250 0
  0.062500   0.609375 0
  0.234375   0.703125 0
  0.718750   0.125000 0
  0.046875   0.578125 0
  0.734375   0.000000 0
  0.062500   0.578125 0
  0.000000   0.828125 0
  0.234375   0.671875 0
  0.234375   0.625000 0
  0.718750   0.093750 0
  0.687500   0.156250 0
  0.062500   0.546875 0
  0.000000   0.796875 0
  0.718750   0.046875 0
  0.031250   0.687500 0
  0.687500   0.171875 0
  0.500000   1.000000 0
  0.078125   0.218750 0
  0.234375   0.593750 0
  0.718750   0.062500 0
  0.687500   0.125000 0
  0.000000   0.765625 0
  0.421875   0.500000 0
  0.031250   0.593750 0
  0.718750   0.015625 0
  0.687500   0.234375 0
  0.015625   0.812500 0
  0.703125   0.171875 0
  0.703125   0.187500 0
  0.703125   0.140625 0
  0.015625   0.781250 0
  0.437500   0.515625 0
  0.500000   0.796875 0
  0.078125   0.015625 0
  0.687500   0.203125 0
  0.250000   0.578125 0
  0.703125   0.109375 0
  0.000000   0.515625 0
  0.500000   0.765625 0
  0.062500   0.593750 0
  0.750000   0.015625 0
  0.015625   0.843750 0
  0.687500   0.000000 0
  0.500000   0.828125 0
  0.078125   0.046875 0
  0.015625   0.531250 0
  0.250000   0.546875 0
  0.703125   0.078125 0
  0.703125   0.031250 0
  0.015625   0.671875 0
  0.250000   0.515625 0
  0.000000   0.656250 0
  0.500000   0.906250 0
  0.078125   0.125000 0
  0.687500   0.015625 0
  0.031250   0.546875 0
  0.687500   0.031250 0
  0.500000   0.859375 0
  0.703125   0.000000 0
  0.703125   0.046875 0
  0.703125   0.015625 0
  0.500000   0.937500 0
  0.234375   0.531250 0
  0.031250   0.578125 0
  0.687500   0.062500 0
  0.500000   0.890625 0
  0.031250   0.796875 0
  0.453125   0.531250 0
  0.500000   0.968750 0
  0.078125   0.187500 0
  0.234375   0.562500 0
  0.031250   0.609375 0
  0.718750   0.031250 0
  0.687500   0.093750 0
  0.750000   0.046875 0
  0.000000   0.937500 0
  0.421875   0.671875 0
  0.718750   0.187500 0
  0.031250   0.828125 0
  0.765625   0.062500 0
  0.015625   0.953125 0
[...]
CELL_DATA 7648
SCALARS scalar_value float 1
LOOKUP_TABLE default
0.00173361
0.00234906
0.000105423
0.000314303
0.00111767
0.00119618
8.41575e-05
-0.00630068
-0.00209578
-0.000911015
0.0017272
-0.000921453
-0.000196955
0.657815
0.513739
0.000143334
0.0250723
-0.0106336
-0.00997619
1.82059e-06
-5.00069e-05
0.00337546
-0.00570021
-0.000122707
0.00699361
-0.00432804
-0.00968558
-0.0107129
-0.00432535
0.0010381
-8.5205e-05
-0.0261567
0.00741201
0.000329766
0.00024217
0.000178211
-1.71672e-05
-0.00015141
-0.000788862
-0.000811453
-0.000274191
0.00112218
0.00306497
0.000166626
-5.86991e-05
0.000504042
0.000722571
-0.00031521
0.00345687
0.000636173
8.8078e-06
0.000179715
-0.000716508
0.000694755
-1.70323e-05
-0.00819365
-0.00475875
0.00367499
-0.00054782
5.92014e-05
-7.6015e-06
0.00810952
-0.000137389
0.00148146
-0.00121869
0.00654287
-0.0130156
0.000636989
-0.0041766
-0.000104013
-7.71513e-05
-6.24062e-05
-6.55178e-07
-3.04706e-06
0.0003429
0.0155645
0.000498404
0.00598958
0.00497916
-0.0044093
6.33498e-05
0.00182096
0.0425163
0.00217239
2.46877e-06
0.000104617
0.0707315
-0.00754567
0.000943574
-0.00532421
0.161993
-0.00945395
0.000676265
0.000478211
-0.000503241
0.000622863
0.000332406
0.000181936
-0.00298523
0.195479
0.238246
-5.67963e-05
-3.22832e-05
2.01656e-05
0.0371612
0.693464
-0.000359403
-4.73795e-05
-0.00364721
0.00855634
-0.000102366
0.000135875
0.00519499
-0.000421523
0.0050483
0.0132624
-0.00257062
0.29424
0.245939
0.464625
0.258613
-0.00230175
-0.00481798
0.000226242
-1.97726e-06
-1.35722e-05
-4.16767e-05
0.00792407
0.000189817
-0.00189807
0.00757011
0.000224791
0.000870465
0.00282786
0.000116373
0.000125126
-0.00725454
-0.00166349
-0.00223791
0.000355106
-0.00202272
-5.31908e-06
-3.70981e-06
0.000125987
-0.00103733
-6.59106e-05
5.33518e-06
-1.39442e-05
5.07691e-06
-0.000813982
2.14864e-05
3.24949e-05
0.000450422
0.565678
-0.000627584
0.396643
-0.00194586
0.00308972
0.00110215
0.00128149
0.0018058
-0.000767284
0.00107609
-1.79548e-05
0.00115124
0.000564771
0.000359675
-0.00101552
-0.000323325
0.00431337
-3.11358e-05
-0.000570506
-1.35956e-06
-1.48194e-06
0.00372652
-0.00141658
0.00921848
5.14187e-06
-3.67091e-05
0.00158757
-0.00038966
4.72201e-05
-0.00109998
0.000489566
-0.000219466
-0.00172877
-0.00460578
0.000397692
3.21688e-05
-0.000374176
0.0143896
-0.000171547
-0.000676829
5.36336e-06
2.0803e-05
6.53636e-05
-0.000105866
0.00810331
2.61768e-05
0.000793569
0.000660004
-0.00180809
-0.00285108
0.00113609
-4.55283e-05
-0.000144492
-0.0011804
0.0016436
-0.0122705
7.97041e-05
-2.94339e-05
-0.00490577
0.000306788
0.000143693
-0.000527653
0.00510964
-2.72858e-05
0.00485068
0.00180028
0.000864295
-1.76759e-05
0.000356935
-0.000806369
-0.000556386
-0.000357199
-0.00512458
-0.00258974
-0.000125294
-0.000273525
-0.0103922
0.0100329
0.00470871
0.0020761
0.000712644
4.80943e-05
-0.000297137
-0.00107561
-0.00163119
6.4683e-05
0.0290789
1.08709e-05
0.219413
-0.000664093
0.0107253
0.0288751
-3.79762e-06
0.528846
0.57069
0.66206
0.00123597
-0.00012744
0.000635322
0.00134702
0.000575378
2.57979e-05
3.55433e-06
-8.13124e-06
0.00107992
7.01503e-05
-0.00937241
-0.00233884
0.00279914
-0.00679073
0.00683009
-0.00464071
0.0050194
0.00494794
0.333031
0.542174
0.0128341
0.000465998
6.74651e-07
0.0142747
0.0082468
0.00643632
0.0034729
-0.00401106
-0.0005036
0.00263737
-0.00130737
-0.00455027
-0.00230766
-0.00647079
0.00603549
0.00299357
-0.0393058
0.0387191
-0.0084818
0.0115199
-0.018205
0.00658589
0.144475
0.264311
-0.00160234
-0.0109428
0.0121134
0.0067656
-0.0242462
0.0022772
0.0544819
0.0103661
-0.00668621
0.000659062
0.000370973
-0.00202612
-0.0040728
0.000390825
0.00577558
-0.00424711
-0.00744642
-3.27302e-05
-0.00331892
0.072675
0.00490226
-0.000498707
-0.0045272
-0.00406325
0.000341504
-0.00187242
0.00283044
-0.000311738
6.95346e-05
2.81714e-05
-7.35488e-05
2.38738e-06
-0.00427484
0.000468588
-0.000376283
6.71381e-05
-0.000398959
0.0016664
0.000725784
-2.10928e-05
0.00273409
-0.0035301
6.71591e-05
9.38254e-06
0.000314022
-1.15839e-05
0.000180246
-0.00103376
0.013772
0.000127891
-0.00120683
-0.000888303
0.00259808
0.00264853
-0.00579384
7.34066e-05
4.92118e-06
0.297259
-0.00183957
-0.0042456
0.00154312
0.00192164
1.80493e-05
0.000734582
-3.20054e-05
0.0020584
-0.0011856
0.00774981
-5.73917e-05
0.0144505
1.22473e-06
0.00440937
6.91381e-05
-0.00368124
-0.0049324
0.00578394
-0.00346708
0.00531783
-2.33419e-06
6.63006e-05
-0.00257232
-0.00282559
0.0101046
-0.000408875
-0.000889291
0.00554406
0.00171696
0.00300954
-0.000492387
0.00182569
-0.00354986
-0.00378816
-0.000409968
-0.000159922
-0.00220981
-0.000491138
0.00233624
0.000213452
9.54954e-05
0.00186352
0.00117252
-0.00035469
-0.00440247
0.000889324
-0.00208898
-0.00227944
0.000808133
-0.000779692
-0.00596407
0.000111187
-9.64971e-05
-8.18089e-05
-9.47621e-06
0.000777121
0.00223344
0.002696
1.78743e-05
-0.0164418
0.0320295
-1.02471e-05
0.0219129
0.025574
0.607363
3.62457e-05
1.19752e-05
0.000336063
-0.00207918
0.000462405
-0.000732142
0.00119268
0.00232299
0.0064144
0.000744277
-0.000588739
-0.00882516
0.0023312
0.176418
0.640233
-0.00760586
9.13386e-07
0.00131207
0.00752759
0.00347378
-3.00229e-05
4.61768e-05
-0.000121971
1.81768e-05
-0.00151182
0.000336241
0.00552891
-0.000748294
-1.39738e-06
5.0024e-06
0.0118624
5.04469e-05
7.33964e-06
-0.00242391
-5.50345e-07
0.0621994
-0.000147658
-0.00198905
0.000335255
-2.0181e-05
-0.00108226
0.0100288
0.0935468
0.000316359
-0.00367211
-4.19983e-05
0.252227
-0.000310441
-0.00165865
1.19491e-05
0.000527227
-9.9012e-05
0.000147526
-0.000968792
-0.00871046
-0.00195476
0.00513536
1.19879e-05
0.32987
0.0515531
-0.00409846
-5.74358e-07
0.320948
-0.000326763
-9.53937e-07
-0.0060031
-0.0062733
-0.00112393
-0.000805091
-0.00304803
4.97042e-06
-9.66384e-06
-3.59982e-05
-0.00506211
0.000158009
4.06111e-05
-1.82923e-05
0.000372038
0.156907
-0.00482775
-0.000364017
-0.000115533
-9.69652e-05
1.62826e-05
0.000667101
7.0372e-05
-0.000223344
0.00372009
0.000212208
-0.000286411
-0.000248409
-7.2917e-05
0.00544061
-7.07717e-05
0.00137615
-0.000129939
7.26112e-05
0.139851
-0.00975058
0.00580075
-3.82262e-07
-0.00194957
0.00334378
0.314262
0.642991
0.0403094
-1.92245e-06
-0.000373661
-0.000920446
-0.000106174
-1.65716e-05
-2.0108e-06
0.00752255
-0.0179002
0.00173921
0.000158484
0.000238311
0.0410049
0.00264736
-7.50376e-07
-0.000249276
-9.00061e-07
0.121435
0.0174598
-0.00112615
1.51852e-05
0.00142265
-0.000194851
-0.05829
-0.00918909
0.00375294
0.00100655
-1.80338e-05
-0.000642313
0.00355922
0.00110179
-0.000747836
0.0118825
-0.00207986
-0.00181549
8.90632e-05
-0.00450512
-0.00386687
0.00195072
-0.000310449
-0.000796121
-0.00193144
-0.00421695
0.00194795
-0.000139272
0.00606553
0.00131958
0.00631244
5.11349e-05
-1.32285e-05
0.00278064
-0.000565389
0.00282864
-0.00300004
0.011251
0.000610567
5.67885e-07
0.0030256
9.83591e-06
0.0186999
-0.00473098
0.00713771
-0.00182903
0.000120592
0.00269202
-0.000424618
9.92887e-05
-0.00580258
-0.000481339
9.845e-05
0.000621634
-0.00174734
0.241007
-3.15388e-06
1.34314e-06
0.00135601
0.496217
0.0255274
-0.00181837
0.00107296
7.16947e-05
0.00202821
0.0047627
0.000198837
-0.000709027
0.00190109
-0.000654906
0.00362491
0.00138928
0.00164388
-0.0112737
-0.000119697
0.00435398
-0.00191408
-0.0034419
-0.00197312
-0.00901488
0.000567824
-0.00443863
0.000407543
-0.00369182
-0.000623871
-0.0011288
0.00295695
-0.000174903
-0.000204891
-0.00199271
0.00206948
-0.000573055
-0.000336437
0.000475592
-0.00237212
0.0030717
0.000312701
-0.000531537
0.00731978
0.55988
0.383578
0.00064682
0.000186755
-0.0023384
7.82011e-05
-0.000502425
0.000601533
0.000531176
-0.000318022
0.00252235
-0.00511543
0.000119029
-0.00366459
0.48294
0.00443124
0.000485026
0.00163655
0.000661
-0.00527296
0.0120986
0.00118922
0.0365011
3.91357e-05
0.00229689
0.0937215
-0.00935705
0.0061007
0.00195495
-0.00718608
0.126915
0.00375107
0.000708415
-0.0151871
-0.00529895
-3.46208e-06
0.275593
0.000426295
-0.00360879
0.00346243
-0.0112586
0.00131936
6.23903e-06
0.0137746
0.00446768
0.00344587
0.0118089
4.93498e-05
0.000452655
0.0049449
0.0118793
-0.000178586
3.59648e-05
-0.00383274
3.33843e-06
0.398506
-0.00135765
-0.00578117
-0.00751687
0.00207612
-2.68184e-05
-4.1375e-05
-2.27163e-06
-0.00668798
4.44832e-06
0.00545248
0.00162339
-0.00511964
0.000397294
0.000806064
5.41971e-06
0.000174654
-0.00540202
-0.00864909
-0.0116064
-0.00375306
0.00538927
-8.81756e-05
-0.00151614
0.000827663
-0.00351284
0.00161215
-0.000249626
0.000944745
-0.00448357
-0.000262607
-0.00547694
0.00223418
-0.00135427
0.000647103
0.00190033
-0.0169043
0.00295508
0.000126066
4.4115e-05
-2.58255e-05
-0.000141797
-7.18696e-07
8.96977e-05
-0.0018994
-0.000766555
1.15832e-06
6.55757e-05
0.000485397
-0.000408426
-0.000337029
0.000981646
-0.0130575
0.000202679
0.00327908
-0.00392906
9.60098e-06
-0.00263509
6.03597e-06
-0.0308521
0.000102197
-0.000111584
0.777563
0.000300565
0.000365568
0.00252655
-0.00823225
0.687331
-0.00560356
8.34665e-07
0.000896217
0.00375478
-0.000270542
0.000545331
-0.00926374
-3.49721e-05
-0.000449048
3.41273e-05
-0.000364384
-0.000803791
-0.000568763
0.0575122
8.17107e-05
0.00124134
9.6219e-06
0.016203
0.000505708
0.00875431
0.000115937
5.28834e-05
8.16124e-06
-0.000218541
-0.000772874
-0.000193039
0.000374826
-0.0356806
0.000429456
0.427895
-0.0122897
-1.77029e-06
-0.00623093
0.0015253
-0.00741119
0.00197782
0.00559402
0.0027905
0.00139698
-0.000163149
0.778065
0.00288499
-0.00341911
0.00265
-0.0100203
0.00234366
-0.00861136
0.00312708
0.0010903
-0.0361097
0.00591545
-0.00695874
0.000502939
-0.0078374
0.00823027
0.707215
0.00124917
0.460205
-0.000990207
0.0348031
-0.00353446
0.303915
0.00119157
-0.00248195
0.799912
0.765278
-1.09528e-06
-0.000400798
0.18425
0.000289688
-0.000334408
0.0102374
-0.00430457
1.41607e-06
0.00652899
-0.00124335
-0.000951266
0.00441565
6.33935e-05
0.00545504
-0.0158482
-0.00187488
0.0667639
0.592132
0.000426885
0.00249634
0.00201713
-0.000954374
-0.00195783
5.39919e-06
-0.000328433
0.561667
-0.00227456
-0.000110977
-0.00134432
-0.00802903
-0.00271655
-0.00130222
-0.00155484
-0.00227002
-0.00195058
-0.00445653
-0.000762636
0.000919089
0.012289
0.000507481
-0.00374396
0.00238147
0.00225702
-0.000469811
-0.00136522
-0.00138845
6.00458e-05
-0.000265437
-7.28766e-05
0.617205
0.000945769
0.358915
0.00696606
0.560848
0.590043
0.00134212
-0.00174674
-5.07475e-06
-0.000177679
0.534493
-0.0101204
0.00458068
0.00176494
-0.000847267
0.00451115
0.00260615
-0.000271429
-0.0108259
0.0895337
0.000413932
0.00302985
-3.10793e-06
-3.0599e-06
-0.00197593
1.39354e-06
-2.57855e-05
0.00104233
3.87229e-05
-0.000205689
0.000905907
0.0161338
-0.000642461
0.00588802
-2.46405e-05
0.0133026
-0.000697014
-8.29463e-05
0.000359851
0.00233282
-0.000366786
0.000560743
2.34116e-06
0.000734363
-1.51281e-06
0.00276841
-2.1857e-06
0.0851478
-0.000750627
0.124444
0.311321
0.00207695
0.651773
0.00289186
0.00263393
-0.000754291
0.0315044
0.00357442
0.000159716
0.0219942
-2.02551e-06
-0.000861955
0.00961327
0.00980873
2.62411e-07
-0.000908699
-4.68983e-07
0.00928593
0.139989
1.57811e-06
0.00327743
0.000275337
-0.000112289
0.00831009
0.00046968
0.0018658
0.000427832
0.0121268
-0.00347986
-0.00392871
8.49051e-05
7.21476e-07
0.00237478
-0.00205423
-0.000508122
0.000401417
4.78995e-05
-0.00204214
3.41093e-05
-4.5148e-05
-0.00155885
-0.000282884
8.92843e-05
0.000240032
-7.19721e-06
2.26543e-06
-0.000663429
0.000861363
-1.66823e-06
0.000181476
0.155661
0.210364
4.45683e-06
0.00263704
0.000755758
-0.00167902
0.165787
0.000119721
0.612743
0.212544
0.00754903
-0.000471096
0.0914843
-9.89292e-05
-0.000346154
-0.0035321
0.192511
0.00621169
-0.00030621
2.2895e-06
0.000143556
0.00051177
-7.30832e-05
0.00460863
-0.000428039
0.425304
0.000144424
0.000114704
-1.19453e-06
-6.42076e-07
-0.00351533
0.00231949
0.0342322
0.103695
0.06545
0.000321675
0.000365039
2.16555e-05
2.04153e-05
0.00182087
-0.00473131
0.00216323
1.30354e-07
-5.60354e-06
-0.000718729
0.00229476
-0.00894992
0.00271316
0.000804105
0.64322
0.00011053
0.000112824
0.0208968
0.000131036
7.54186e-05
0.681482
0.484499
0.000491926
-0.00134785
1.76425e-05
6.88366e-06
0.0199858
-0.00127229
0.000670114
-0.00124964
0.0010826
-0.00223038
0.0010613
0.000654885
-0.0311015
0.00459854
-0.000153492
0.000137579
0.04246
0.0014381
-2.60344e-05
0.000157024
0.00018255
-0.000302138
-1.95786e-05
0.0107605
1.16689e-05
0.000143088
-1.9475e-06
-4.97279e-06
-0.000543403
1.23525e-05
9.14402e-05
-0.000117971
-6.60609e-06
0.000200406
0.0146343
0.0156118
0.0102246
0.00022802
0.000586841
2.82081e-05
-0.0040595
-0.0172874
-0.00526304
0.00129116
-0.000540093
-0.00346593
0.00680925
0.0224337
0.00874418
0.000369588
0.000105683
2.87383e-06
0.00067516
-0.000436738
0.00254713
-1.56042e-05
-0.00254889
0.196354
0.000164444
-0.000747023
0.000944256
-2.30083e-06
0.00278693
0.000629068
-0.00148325
-0.000858966
-0.00843383
0.00353771
0.024313
-0.000195452
0.00617356
-8.84171e-07
0.00192784
0.0334891
-0.00362115
-0.00311886
-0.00694527
0.000515206
0.00433015
-1.39879e-05
0.0439851
0.00519795
-0.000613521
0.0341453
9.29774e-06
-0.00304448
4.20077e-05
-0.000110566
0.00187381
-0.00188237
-0.00950883
-0.00473083
3.11984e-06
-5.86853e-06
9.39078e-06
1.29256e-05
0.041562
0.0845387
-0.0456142
0.0116224
-0.00016128
0.000295891
9.17563e-05
-0.000107293
-0.000168162
-0.000126196
-0.00013929
-7.2968e-05
-9.8329e-05
8.43492e-06
8.81144e-06
8.90003e-06
5.26901e-06
0.00140779
-0.00231651
-0.00159215
-0.0024393
-0.00152507
-0.00138485
-0.00858429
-0.00973339
0.00867871
0.00351838
-0.000138385
-1.51123e-07
-0.000174947
1.43e-05
-0.00052406
0.000113217
0.00126472
5.31863e-05
-0.000446693
0.109119
0.00282071
0.0028122
0.0155963
0.00396081
0.00258954
-0.00793814
0.184503
0.317888
0.165945
0.0610494
-0.00168987
0.00323571
-0.000183446
0.00535197
0.00287828
0.0714655
-0.0100785
-0.00119795
0.00399398
-0.00289921
0.0039308
0.0046262
1.78618e-05
0.00517221
0.000431622
0.000350017
-0.000509226
0.000295042
1.26901e-05
0.00145639
-0.000708179
-0.00113962
-3.87283e-05
0.0097801
-0.00216604
-0.00727739
0.00267645
-0.00115305
8.95348e-06
0.0196034
0.0110033
0.0771472
0.0503469
0.140346
0.0922818
-0.0233981
0.0279845
-3.07563e-06
-0.000481296
0.0584859
0.0293854
-0.00171931
0.0152866
1.0008e-06
-0.00753294
-0.000258838
-7.92639e-05
-9.0323e-05
-2.36279e-05
0.000243099
0.000123696
-0.000471443
0.0021643
0.000142039
0.0003175
0.00152443
-0.00658057
-0.00457599
-0.00550319
-5.93862e-06
-0.0062638
-0.000920383
0.00140891
0.00189453
-0.000466358
5.4132e-06
-0.00129596
0.000292082
-8.89797e-05
-5.62332e-06
2.08964e-05
6.03779e-05
0.000711643
-0.00855797
-2.03732e-07
0.00168459
0.0133903
0.0156249
-0.00104314
5.84933e-06
0.00653907
2.16701e-06
3.62659e-05
-0.00080116
-0.00204716
0.00297236
1.41028e-06
0.00010629
2.24785e-05
0.0001371
-8.09946e-07
1.43756e-05
1.24667e-05
1.3295e-05
-0.00487932
0.0103749
-0.00174664
0.00172124
-0.0253728
0.0221395
0.0441829
-0.000104567
0.00114297
0.16122
0.354632
0.266721
0.198031
-1.69774e-05
4.07653e-05
5.82444e-06
0.0317558
1.30106e-07
6.57962e-06
-0.00310922
-1.99444e-05
0.00404023
-0.00507123
0.00413759
0.00265607
-0.000746272
-0.000108143
3.45396e-05
-0.000145104
0.154035
0.352
0.220491
0.197057
0.000269585
0.00302749
0.00571172
-8.85783e-06
-0.000780506
-0.000599007
-2.7348e-05
3.17993e-05
-8.65907e-06
-4.68682e-08
0.00507071
-0.00885635
0.000103913
-0.000206097
0.000179494
0.547076
-6.1558e-05
8.66786e-05
-7.78316e-05
-7.99401e-05
-0.00438512
-0.0028607
0.000189681
0.000104894
0.0476236
0.585968
0.439586
0.550382
0.0027272
-0.00227203
-0.000603802
8.16027e-07
0.010441
-0.00474082
-0.00610831
-0.00261444
-0.00148793
0.000690671
-0.000451259
-0.000399846
-0.00213074
0.0026751
-0.00189413
0.000595372
0.000258159
0.00236668
0.00388004
-0.00358045
-0.0020045
0.00168928
-8.26005e-05
0.00192985
0.226378
0.493906
0.551181
0.360156
0.059787
-0.00137085
-0.00737667
0.00438729
0.000203427
0.00197572
0.00328336
-0.00547864
-0.00976183
-0.00500112
0.000476793
5.92873e-05
-0.0110983
0.0159067
5.26389e-06
0.0344251
0.0798901
-0.00910235
-0.00688195
0.137609
0.032408
-0.00570565
-0.00252418
0.000197906
0.275025
0.238015
0.383468
0.24611
-0.011962
0.0125396
-0.0323384
-0.00817965
-1.65878e-05
-2.98925e-05
-1.46207e-05
0.0454323
0.0298504
4.96925e-06
1.73579e-06
3.70612e-06
9.14236e-06
0.000120873
8.52495e-05
0.000172118
-0.00303728
0.000120672
0.0019892
0.000945186
0.00316873
0.000258618
0.00116945
0.00122252
4.8898e-05
-9.42417e-05
0.0769923
0.000565855
-0.00208953
-0.000401428
0.000585727
0.000212702
-0.00099304
-0.0035211
-4.52234e-05
8.12698e-05
0.000149396
-0.00553205
-0.00150881
0.713275
-0.00385733
1.02062e-05
3.8392e-06
-3.87384e-05
0.00746361
0.00212146
0.000354863
3.93438e-05
-0.000333946
0.00353651
1.79578e-07
0.00167183
-8.02591e-07
-8.30179e-07
-0.000120518
-0.000137873
0.000958477
-0.000970801
-0.00180793
-0.000192765
0.000334848
9.27609e-05
0.00922581
5.49355e-05
-7.91469e-05
0.00135363
0.000153282
-0.00870485
-0.00102343
0.00559924
0.102379
0.689575
0.588733
0.713392
0.753165
0.709538
-0.00119487
0.00229955
0.397351
0.649284
0.542889
-3.7335e-05
0.000703625
-7.79414e-06
-1.45369e-05
0.036943
0.052118
-0.00804068
-0.000214518
-1.74269e-05
0.677373
0.669373
0.000835405
-3.26415e-05
-2.94053e-05
0.00039133
1.15237e-06
0.0121537
5.09772e-05
0.0111533
-0.000645737
0.00390661
-0.00536364
0.0031214
0.000887599
0.510453
0.549739
0.518879
0.0173818
-0.00274072
0.00366811
0.00104239
0.00342363
0.00841445
0.00159691
-0.00079979
0.00200568
0.000264882
0.000711105
0.000532037
8.73145e-05
2.27195e-05
2.55597e-05
0.00126982
3.46543e-06
0.01342
-0.000390847
3.12628e-05
0.0114592
-0.000101092
0.000239699
0.00214672
-0.000225885
-0.000390614
-0.000672715
0.000845214
0.00158542
0.00110231
-0.00526348
0.000910907
0.309516
0.239722
0.293363
-0.00217992
-0.00183361
-0.00448248
-2.11667e-05
-0.000213781
-0.00491544
0.230868
0.229927
0.215461
-0.0114514
0.00537318
0.00185371
0.0787159
0.197417
0.0426222
4.33487e-06
-0.0412683
0.0199989
0.0052459
-0.00964124
0.170883
-3.99065e-05
0.000183035
0.00024924
-6.96752e-05
-4.59374e-05
-0.0002038
-0.000103424
-0.000116716
0.000197936
0.00014764
0.000211237
-0.000100574
0.000130222
-5.99724e-05
-4.84674e-05
3.28722e-05
3.53562e-05
1.27929e-05
-0.00014947
-8.05774e-05
-0.000206245
-0.000104529
-6.35649e-05
-0.000451084
-0.00484841
-0.0256965
-0.00805075
-0.00303385
-0.00736339
-0.0049793
-0.00485907
-0.010943
0.746539
0.748468
-6.71972e-06
-0.00224973
-1.37681e-05
-0.00277865
0.00272694
0.00895557
-0.00160961
0.00161458
0.00383865
0.000753995
-0.00107908
-0.00142315
0.00441886
-0.00327829
-0.0150395
0.00260957
-0.0143398
-0.0130455
0.00016607
8.14469e-06
-0.000514424
2.09763e-06
-8.93499e-07
-0.00712608
-0.00508552
0.000192532
0.0683994
0.381077
0.540659
-2.85785e-05
3.52773e-05
4.51063e-05
-1.70629e-05
-3.58018e-05
0.0387585
0.0947665
-0.00213265
0.00062766
-0.00755403
0.00088516
0.0104988
1.62175e-06
0.00329358
0.00154019
0.00165298
-0.00394899
0.00180437
0.00507487
0.000106442
2.41632e-06
-0.010862
0.00465454
0.359565
0.296935
0.200476
-0.00182247
-0.00233971
0.0019517
-0.0051171
0.00312547
0.00771265
0.00413818
-0.0032547
-7.0235e-05
-0.00391371
0.00222318
0.0133656
0.000661614
0.00569568
-0.000481949
1.95372e-05
0.175513
0.183176
0.00245991
0.00509467
-0.00140014
-0.00592051
0.000208262
-0.000355298
-4.79264e-05
-4.10134e-07
-0.00886525
-0.00847437
-0.0210067
-0.000534308
-0.00445628
-8.74205e-07
-0.00418693
0.732892
0.125615
0.381972
0.136075
0.173488
0.156909
0.278251
0.770821
0.672663
0.338248
0.019612
0.0091997
0.0038111
0.0148751
0.390739
0.0223742
0.325778
0.0118719
-0.00182132
0.00305484
-0.0249683
-0.0149043
-0.0167039
-0.00441253
0.0317204
0.00192134
0.0069589
0.0146733
0.0312851
-2.26325e-05
0.00697108
0.000487386
0.00224295
0.00571827
0.000185891
-0.000383964
0.00248388
-0.00457668
0.00274079
-5.49384e-06
3.55293e-05
3.77256e-05
4.2177e-05
-1.40929e-06
1.08462e-06
1.53957e-06
0.00044692
0.00276684
0.666368
0.62867
0.47239
0.670494
0.551678
0.527647
0.00507404
-0.000248287
-0.000815417
0.000607515
-0.000460813
-0.000173179
0.104909
0.13178
0.238629
0.426359