# vtk DataFile Version 2.0
Unstructured Grid by M++
ASCII
DATASET UNSTRUCTURED_GRID
POINTS 4072 float
  0.875000   1.000000 0
  0.875000   0.984375 0
  0.875000   0.968750 0
  0.875000   0.953125 0
  0.875000   0.937500 0
  0.875000   0.921875 0
  0.875000   0.906250 0
  0.875000   0.890625 0
  0.875000   0.875000 0
  0.875000   0.859375 0
  0.875000   0.843750 0
  0.875000   0.828125 0
  0.875000   0.812500 0
  0.875000   0.796875 0
  0.875000   0.781250 0
  0.875000   0.765625 0
  0.859375   1.000000 0
  0.859375   0.984375 0
  0.859375   0.968750 0
  0.859375   0.953125 0
  0.859375   0.937500 0
  0.859375   0.921875 0
  0.859375   0.890625 0
  0.859375   0.875000 0
  0.859375   0.859375 0
  0.859375   0.843750 0
  0.859375   0.828125 0
  0.859375   0.812500 0
  0.859375   0.796875 0
  0.859375   0.781250 0
  0.859375   0.765625 0
  0.859375   0.671875 0
  0.859375   0.656250 0
  0.859375   0.640625 0
  0.843750   1.000000 0
  0.843750   0.984375 0
  0.843750   0.968750 0
  0.843750   0.953125 0
  0.843750   0.937500 0
  0.843750   0.921875 0
  0.843750   0.906250 0
  0.843750   0.875000 0
  0.843750   0.859375 0
  0.843750   0.843750 0
  0.843750   0.828125 0
  0.843750   0.812500 0
  0.843750   0.796875 0
  0.843750   0.781250 0
  0.843750   0.765625 0
  0.843750   0.671875 0
  0.843750   0.656250 0
  0.843750   0.640625 0
  0.828125   1.000000 0
  0.828125   0.984375 0
  0.828125   0.968750 0
  0.828125   0.953125 0
  0.828125   0.937500 0
  0.828125   0.921875 0
  0.875000   0.671875 0
  0.812500   0.921875 0
  0.890625   0.656250 0
  0.828125   0.906250 0
  0.875000   0.656250 0
  0.812500   0.906250 0
  0.890625   0.640625 0
  0.828125   0.890625 0
  0.875000   0.640625 0
  0.812500   0.890625 0
  0.890625   0.625000 0
  0.828125   0.875000 0
  0.890625   0.609375 0
  0.828125   0.859375 0
  0.890625   0.593750 0
  0.828125   0.843750 0
  0.890625   0.578125 0
  0.828125   0.828125 0
  0.890625   0.562500 0
  0.828125   0.812500 0
  0.828125   0.796875 0
  0.828125   0.781250 0
  0.828125   0.765625 0
  0.828125   0.671875 0
  0.828125   0.656250 0
  0.828125   0.640625 0
  0.875000   0.750000 0
  0.812500   1.000000 0
  0.875000   0.625000 0
  0.812500   0.875000 0
  0.875000   0.734375 0
  0.812500   0.984375 0
  0.875000   0.718750 0
  0.812500   0.968750 0
  0.875000   0.703125 0
  0.812500   0.953125 0
  0.875000   0.687500 0
  0.812500   0.937500 0
  0.875000   0.609375 0
  0.812500   0.859375 0
  0.875000   0.593750 0
  0.812500   0.843750 0
  0.875000   0.578125 0
  0.812500   0.828125 0
  0.812500   0.812500 0
  0.875000   0.546875 0
  0.812500   0.796875 0
  0.812500   0.781250 0
  0.812500   0.765625 0
  0.859375   0.750000 0
  0.796875   1.000000 0
  0.859375   0.625000 0
  0.796875   0.875000 0
  0.859375   0.734375 0
  0.796875   0.984375 0
  0.859375   0.718750 0
  0.796875   0.968750 0
  0.859375   0.703125 0
  0.796875   0.953125 0
  0.859375   0.687500 0
  0.796875   0.937500 0
  0.859375   0.609375 0
  0.796875   0.859375 0
  0.859375   0.593750 0
  0.796875   0.843750 0
  0.859375   0.578125 0
  0.796875   0.828125 0
  0.859375   0.562500 0
  0.796875   0.812500 0
  0.796875   0.796875 0
  0.859375   0.531250 0
  0.796875   0.781250 0
  0.796875   0.765625 0
  0.843750   0.750000 0
  0.781250   1.000000 0
  0.843750   0.625000 0
  0.781250   0.875000 0
  0.843750   0.734375 0
  0.781250   0.984375 0
  0.843750   0.718750 0
  0.781250   0.968750 0
  0.843750   0.703125 0
  0.781250   0.953125 0
  0.843750   0.687500 0
  0.781250   0.937500 0
  0.843750   0.609375 0
  0.781250   0.859375 0
  0.843750   0.593750 0
  0.781250   0.843750 0
  0.843750   0.578125 0
  0.781250   0.828125 0
  0.781250   0.812500 0
  0.843750   0.546875 0
  0.781250   0.796875 0
  0.781250   0.781250 0
  0.843750   0.515625 0
  0.781250   0.765625 0
  0.828125   0.750000 0
  0.765625   1.000000 0
  0.828125   0.625000 0
  0.765625   0.875000 0
  0.828125   0.734375 0
  0.765625   0.984375 0
  0.828125   0.718750 0
  0.765625   0.968750 0
  0.828125   0.703125 0
  0.765625   0.953125 0
  0.828125   0.687500 0
  0.765625   0.937500 0
  0.828125   0.609375 0
  0.765625   0.859375 0
  0.828125   0.593750 0
  0.765625   0.843750 0
  0.828125   0.578125 0
  0.765625   0.828125 0
  0.828125   0.562500 0
  0.765625   0.812500 0
  0.765625   0.796875 0
  0.828125   0.531250 0
  0.765625   0.781250 0
  0.765625   0.765625 0
  0.812500   0.750000 0
  0.750000   1.000000 0
  0.953125   1.000000 0
  0.812500   0.734375 0
  0.750000   0.984375 0
  0.812500   0.718750 0
  0.750000   0.968750 0
  0.812500   0.703125 0
  0.750000   0.953125 0
  0.812500   0.687500 0
  0.750000   0.937500 0
  0.812500   0.671875 0
  0.750000   0.921875 0
  0.812500   0.656250 0
  0.750000   0.906250 0
  0.812500   0.640625 0
  0.750000   0.890625 0
  0.812500   0.625000 0
  0.750000   0.875000 0
  0.812500   0.609375 0
  0.750000   0.859375 0
  0.812500   0.593750 0
  0.750000   0.843750 0
  0.812500   0.578125 0
  0.750000   0.828125 0
  0.750000   0.812500 0
  0.812500   0.546875 0
  0.750000   0.796875 0
  0.750000   0.781250 0
  0.812500   0.515625 0
  0.750000   0.765625 0
  0.796875   0.750000 0
  0.734375   1.000000 0
  0.796875   0.734375 0
  0.734375   0.984375 0
  0.796875   0.718750 0
  0.734375   0.968750 0
  0.796875   0.703125 0
  0.734375   0.953125 0
  0.796875   0.687500 0
  0.734375   0.937500 0
  0.796875   0.671875 0
  0.734375   0.921875 0
  0.796875   0.656250 0
  0.734375   0.906250 0
  0.796875   0.640625 0
  0.734375   0.890625 0
  0.796875   0.625000 0
  0.734375   0.875000 0
  0.796875   0.609375 0
  0.734375   0.859375 0
  0.796875   0.593750 0
  0.734375   0.843750 0
  0.796875   0.578125 0
  0.734375   0.828125 0
  0.734375   0.812500 0
  0.734375   0.796875 0
  0.796875   0.531250 0
  0.734375   0.781250 0
  0.734375   0.765625 0
  0.781250   0.750000 0
  0.718750   1.000000 0
  0.921875   1.000000 0
  0.781250   0.734375 0
  0.718750   0.984375 0
  0.781250   0.718750 0
  0.718750   0.968750 0
  0.781250   0.703125 0
  0.718750   0.953125 0
  0.859375   0.906250 0
  0.781250   0.687500 0
  0.718750   0.937500 0
  0.781250   0.671875 0
  0.718750   0.921875 0
  0.781250   0.656250 0
  0.718750   0.906250 0
  0.781250   0.640625 0
  0.718750   0.890625 0
  0.781250   0.625000 0
  0.718750   0.875000 0
  0.781250   0.609375 0
  0.718750   0.859375 0
  0.781250   0.593750 0
  0.718750   0.843750 0
  0.781250   0.578125 0
  0.718750   0.828125 0
  0.781250   0.562500 0
  0.718750   0.812500 0
  0.781250   0.546875 0
  0.718750   0.796875 0
  0.781250   0.531250 0
  0.718750   0.781250 0
  0.781250   0.515625 0
  0.718750   0.765625 0
  0.765625   0.750000 0
  0.703125   1.000000 0
  0.765625   0.734375 0
  0.703125   0.984375 0
  0.765625   0.718750 0
  0.703125   0.968750 0
  0.765625   0.703125 0
  0.703125   0.953125 0
  0.765625   0.687500 0
  0.703125   0.937500 0
  0.843750   0.890625 0
  0.703125   0.921875 0
  0.765625   0.656250 0
  0.703125   0.906250 0
  0.765625   0.640625 0
  0.703125   0.890625 0
  0.765625   0.625000 0
  0.703125   0.875000 0
  0.765625   0.609375 0
  0.703125   0.859375 0
  0.765625   0.593750 0
  0.703125   0.843750 0
  0.765625   0.578125 0
  0.703125   0.828125 0
  0.765625   0.562500 0
  0.703125   0.812500 0
  0.765625   0.546875 0
  0.703125   0.796875 0
  0.765625   0.531250 0
  0.703125   0.781250 0
  0.765625   0.515625 0
  0.703125   0.765625 0
  0.750000   0.750000 0
  0.687500   1.000000 0
  0.890625   1.000000 0
  0.750000   0.734375 0
  0.687500   0.984375 0
  0.750000   0.718750 0
  0.687500   0.968750 0
  0.578125   0.796875 0
  0.578125   0.781250 0
  0.578125   0.765625 0
  0.546875   0.953125 0
  0.546875   0.968750 0
  0.546875   0.718750 0
  0.546875   0.687500 0
  0.250000   0.609375 0
  0.937500   0.031250 0
  0.046875   0.703125 0
  0.734375   0.062500 0
  0.734375   0.078125 0
  0.734375   0.046875 0
  0.046875   0.593750 0
  0.046875   0.562500 0
  0.046875   0.531250 0
  0.718750   0.156250 0
  0.046875   0.609375 0
  0.734375   0.031250 0
  0.062500   0.609375 0
  0.234375   0.703125 0
  0.718750   0.125000 0
  0.046875   0.578125 0
  0.734375   0.000000 0
  0.062500   0.578125 0
  0.000000   0.828125 0
  0.234375   0.671875 0
  0.234375   0.625000 0
  0.718750   0.093750 0
  0.687500   0.156250 0
  0.062500   0.546875 0
  0.000000   0.796875 0
  0.718750   0.046875 0
  0.031250   0.687500 0
  0.687500   0.171875 0
  0.500000   1.000000 0
  0.078125   0.218750 0
  0.234375   0.593750 0
  0.718750   0.062500 0
  0.687500   0.125000 0
  0.000000   0.765625 0
  0.421875   0.500000 0
  0.031250   0.593750 0
  0.718750   0.015625 0
  0.687500   0.234375 0
  0.015625   0.812500 0
  0.703125   0.171875 0
  0.703125   0.187500 0
  0.703125   0.140625 0
  0.015625   0.781250 0
  0.437500   0.515625 0
  0.500000   0.796875 0
  0.078125   0.015625 0
  0.687500   0.203125 0
  0.250000   0.578125 0
  0.703125   0.109375 0
  0.000000   0.515625 0
  0.500000   0.765625 0
  0.062500   0.593750 0
  0.750000   0.015625 0
  0.015625   0.843750 0
  0.687500   0.000000 0
  0.500000   0.828125 0
  0.078125   0.046875 0
  0.015625   0.531250 0
  0.250000   0.546875 0
  0.703125   0.078125 0
  0.703125   0.031250 0
  0.015625   0.671875 0
  0.250000   0.515625 0
  0.000000   0.656250 0
  0.500000   0.906250 0
  0.078125   0.125000 0
  0.687500   0.015625 0
  0.031250   0.546875 0
  0.687500   0.031250 0
  0.500000   0.859375 0
  0.703125   0.000000 0
  0.703125   0.046875 0
  0.703125   0.015625 0
  0.500000   0.937500 0
  0.234375   0.531250 0
  0.031250   0.578125 0
  0.687500   0.062500 0
  0.500000   0.890625 0
  0.031250   0.796875 0
  0.453125   0.531250 0
  0.500000   0.968750 0
  0.078125   0.187500 0
  0.234375   0.562500 0
  0.031250   0.609375 0
  0.718750   0.031250 0
  0.687500   0.093750 0
  0.750000   0.046875 0
  0.000000   0.937500 0
  0.421875   0.671875 0
  0.718750   0.187500 0
  0.031250   0.828125 0
  0.765625   0.062500 0
  0.015625   0.953125 0
[...]
CELL_DATA 7648
SCALARS scalar_value float 1
LOOKUP_TABLE default
-0.000586125
-0.00013656
0.000514632
-0.000279605
0.00176273
0.00136892
-0.000161712
-0.00845512
-0.00432673
0.000494549
-0.00049574
0.000990096
0.000753141
0.0770363
0.268458
0.00816831
0.219528
-0.000502691
0.00492619
1.83144e-08
0.00971046
0.000655794
-0.00249549
0.000168124
0.011844
0.00256234
0.00145348
-0.00945884
0.00147701
0.00070646
0.0460113
0.335371
0.128732
0.000124725
9.86043e-05
9.12907e-05
8.06691e-06
-0.000326356
0.000557605
-0.000753208
-1.1225e-05
0.00400251
0.00869056
7.32476e-05
-3.6132e-06
2.63111e-05
0.000103872
0.000464305
-0.00501767
0.000160645
4.20189e-05
-0.000113413
0.000147653
-7.34397e-05
-0.00307362
0.0110767
0.00683652
-0.00228554
0.0154341
3.91077e-05
-1.38968e-05
-0.00435805
-7.79892e-06
-0.000979365
0.00097351
-0.00438424
-0.00430546
-2.89917e-05
0.185065
-1.44262e-05
-8.20651e-06
-9.59467e-06
-5.88993e-10
-4.71173e-09
0.000131853
-0.000248502
-0.0078486
0.00596955
0.00632844
-0.00440254
4.42467e-06
-0.00534659
-0.0124875
-0.00136981
9.48324e-08
-6.33509e-05
0.0482389
0.00147142
-0.00290531
0.000696002
0.180163
-0.000469877
4.57797e-05
-1.62945e-06
-4.71893e-06
3.58015e-05
-1.90906e-05
3.85247e-05
-0.000791875
0.229865
0.505997
-1.25566e-05
1.49364e-05
1.30921e-05
-0.00825483
0.0198846
0.000510144
-0.000448012
0.0241426
0.0114387
0.000860619
-0.000396807
0.00223994
0.0011695
0.671434
0.456716
0.0041245
0.0511375
0.0115493
0.359796
0.00066441
0.00281469
0.0119805
4.79202e-05
-3.69903e-09
1.28201e-05
-4.65686e-06
-0.000434474
0.00982915
0.0165077
0.0120113
6.69851e-05
0.00390381
-0.00309286
6.82082e-06
4.94594e-06
-0.0040422
-0.00351043
0.000339503
-0.0222366
0.000273154
-1.78053e-07
-3.46813e-05
3.02041e-05
0.0202168
-6.21267e-06
2.21891e-08
0.000191345
5.10653e-08
-0.00299784
3.6855e-06
-2.92589e-06
0.000849804
0.148095
-0.000976113
0.0141254
0.000509613
0.000926263
0.00570071
-0.00105974
0.00865672
0.00302077
3.66869e-05
8.38954e-07
0.00245489
0.00350021
5.22775e-05
0.000114919
2.82183e-05
-0.000916207
-1.12018e-06
0.00386203
-6.71658e-09
-6.25687e-08
0.00919837
0.00271114
-0.00494006
4.73672e-07
-6.4948e-05
-0.000369743
4.60052e-05
9.15275e-05
5.4796e-05
0.000655473
-0.000177723
0.000284436
0.00106524
0.000469787
-6.52594e-05
-0.000849121
0.0538302
-0.0030536
0.000310453
6.26074e-07
-1.28855e-06
6.46272e-05
7.39383e-06
0.0477007
1.37746e-06
2.05843e-05
-0.000195035
-0.000277916
-0.00478102
-0.00422533
0.000319024
0.000101578
0.00180868
-2.91717e-05
0.537894
-4.18904e-05
-2.69101e-06
0.00343061
7.86074e-05
-2.8429e-07
-0.00043058
0.00751768
-0.00570603
0.00627405
-0.00469355
-0.00699094
0.00396659
-2.72324e-05
5.20845e-05
0.00115023
9.97622e-05
0.000374938
0.000678886
-0.000163582
-9.0268e-06
0.00339535
-0.000151714
0.00789558
-0.00599624
-0.000432785
0.000102332
-0.000421897
0.00187513
0.00249233
1.95284e-05
0.326266
1.43648e-06
0.623405
-0.000816262
0.00736006
0.0387071
-2.58873e-08
0.173152
0.0960267
0.0750138
0.0035955
-0.00357928
0.000138315
0.000756193
0.0041521
0.000459118
1.10202e-08
5.85198e-06
0.00194915
-0.000136664
-0.00306281
0.00168647
-0.00102061
0.00387375
-0.00511623
0.0022028
0.00237936
0.00477314
0.444727
0.248511
0.173463
-0.00126369
3.1248e-10
-0.0122123
0.0333236
-0.00269585
-0.000708805
0.0115397
0.00486528
0.00772813
-0.00878936
-0.00116079
-0.00341082
0.0147072
0.025358
0.675219
0.631407
0.693755
0.0035452
-0.00096306
0.275366
0.559498
0.626096
0.639762
1.31574e-05
-0.000697831
0.00616282
0.048935
0.115143
0.00404739
0.464613
0.00306992
-0.00521919
-0.00201527
0.0179021
-0.0450527
0.0363204
6.98271e-06
-0.0155244
-0.0477668
-0.0682785
4.45764e-06
0.11647
0.240317
0.231621
-0.00264114
-0.00226609
-0.00128666
-0.00633996
0.00465539
0.0102586
-0.000258053
0.000130827
8.18978e-06
3.24946e-05
1.48109e-08
-0.0101837
0.00111442
0.000200132
0.000586566
0.000364179
-0.00144711
-0.000170859
-3.87593e-06
-9.71166e-05
0.00191123
-3.55354e-05
-1.54891e-06
3.42387e-05
-6.28704e-05
3.61813e-05
0.0045025
0.000870171
0.00414869
0.00335358
5.10876e-05
-0.00216756
-0.00481742
-0.00354991
1.08973e-05
1.58821e-06
0.0316748
-0.00245652
0.00780435
-0.00898156
0.00470694
-4.96063e-06
-0.000161852
0.000533765
-0.00236201
0.00583979
0.479079
-8.33909e-05
-0.00473661
3.156e-10
0.0467512
0.00131402
-0.0025791
-0.00392105
0.00240555
0.00231131
0.0472158
-3.23916e-10
-1.37526e-05
0.0121105
0.00262761
0.0162632
-0.000429378
0.00331978
-0.00365317
-0.0012554
0.0102416
-0.00151569
-0.00348596
5.77446e-05
0.0010126
-0.00322361
-3.96918e-05
-0.0115127
0.00122425
-0.00198674
0.00261936
0.000321311
-0.00629388
0.0084663
0.00403301
-0.00209506
-0.00638375
-0.00320437
0.000664729
-0.00392877
0.00102883
0.00293133
-0.000106055
0.000184906
-0.000727964
4.86646e-07
-0.00070625
-0.000466715
0.00339104
-0.000349818
0.00227051
0.016727
3.19139e-07
0.00834499
0.00972575
0.239106
-8.00095e-05
-0.00057064
0.000351171
0.00365307
0.00532498
0.00550697
8.38234e-05
-0.000145201
-0.00244653
0.0026235
-0.000389847
0.42453
0.0025584
0.0093036
0.203633
-0.0579197
-4.12128e-09
0.00707208
0.00441949
-0.00307037
-4.56107e-06
-6.94562e-06
-1.27671e-07
1.70558e-05
0.000969339
0.000262923
0.027841
-0.000377712
2.00693e-07
9.20099e-07
0.0118413
-0.000890185
4.39932e-07
0.00044563
-3.68211e-07
0.469778
-0.000624221
0.000365402
-0.000114049
0.000167884
7.4498e-05
0.0265496
0.594748
0.00297656
0.0331133
1.12568e-05
0.31691
0.000773599
-0.00255913
7.46025e-06
8.46861e-05
0.00303174
-0.000216493
8.74049e-05
0.0205094
-0.000274017
0.00326727
-6.24771e-07
0.188806
-0.0162707
0.00307271
-4.33323e-07
0.560938
0.00124962
-7.17184e-07
-0.0154005
0.00369538
5.15272e-05
0.0012259
0.00143017
1.21733e-06
3.07779e-05
1.78251e-05
0.000959156
-7.05256e-05
-2.03966e-05
2.42042e-06
0.000705104
0.00250346
0.21695
-5.30855e-05
4.25788e-05
-1.92257e-06
1.17515e-05
-0.00216039
1.35128e-05
0.000360555
0.000895838
1.1606e-05
7.10112e-05
0.000694026
0.000104204
0.00174906
-3.84174e-06
0.0013478
0.000186275
1.27627e-06
0.00588626
0.00405397
-0.00533429
-4.24162e-10
-0.0112303
0.00484138
0.397627
0.0362729
-0.00766591
-7.83928e-08
-0.000142227
-2.78252e-05
-5.03295e-05
2.41206e-05
-1.7361e-07
-0.0049337
0.00746393
7.45431e-05
-7.3988e-06
0.000344122
-0.000768132
-0.00614432
-1.11915e-08
-6.02506e-05
-8.95958e-09
0.415659
0.0111672
7.51834e-05
-1.43491e-07
0.00447366
-0.000123034
0.68523
0.00146596
-0.00368512
0.00118621
0.00106382
0.00375729
-0.00495547
0.00727448
-0.0016124
0.00435259
-0.00153635
-0.00288081
1.97008e-05
0.000654219
-0.00685672
3.06824e-05
-0.00120393
-0.00840127
0.00377559
-0.00118266
-0.00670899
0.000878434
-0.00580422
-0.00068001
-0.00631475
1.71762e-06
1.04729e-06
0.000140503
0.000349047
0.000243064
-0.00124713
0.0130499
0.000185237
3.94676e-07
-0.00381376
-2.24048e-06
0.122313
-0.0258954
0.000755872
-0.00105729
-0.000181219
0.000714836
0.0518176
-0.00131785
-0.0110821
-3.68504e-05
-7.44919e-05
8.60856e-05
-0.00999648
0.00242861
1.42449e-07
-5.02594e-07
0.0450164
0.0142544
0.176379
0.0104867
0.000281101
1.23842e-05
0.000291995
0.00148093
5.50921e-05
0.000339644
0.000207798
0.000485926
-0.00430316
-0.000928154
0.00643778
0.0143431
4.77191e-06
0.0130064
0.00418745
0.0164414
-0.000814068
-0.00275551
-0.00116731
-0.00471044
-0.00054394
-0.000734817
0.00121758
-0.00225568
0.00385424
-0.00110251
-0.00840969
0.00207832
-0.0056744
0.000489269
-0.00119264
-7.66313e-05
0.000776673
-0.00135661
0.000240177
-9.4345e-05
0.00628004
0.318578
0.395835
0.000232707
-0.000194479
-0.0176604
-0.000121906
9.72177e-05
-0.0109561
-0.000334185
0.000674736
0.00116419
-0.0120781
-0.000162614
0.00475256
0.378195
-0.000520661
0.000597124
0.00243328
0.000138795
0.293081
0.00282199
0.00188685
-0.00340612
3.90378e-06
0.00291148
-0.00574825
0.0535613
0.00472852
-0.0131494
0.020774
-0.0101995
0.00315076
0.00013167
-0.0024119
-0.0256414
-5.31794e-08
0.536648
6.59429e-05
-0.00330865
-0.00125261
-0.00658527
0.00301545
1.46464e-07
0.138527
-0.00283257
-0.0103486
0.0018469
4.59494e-05
-0.00171548
-0.00141081
0.0381246
0.000804148
7.34367e-05
0.0116378
1.08751e-05
0.00474879
0.00100986
-0.00160471
0.00335085
-0.00600129
-2.21763e-05
-8.42013e-05
-1.11928e-07
-0.00721105
4.41856e-07
-0.00451464
0.00813383
0.0707631
-3.1445e-05
4.4492e-05
6.83259e-07
-3.68524e-05
0.142076
0.00337279
0.0653201
0.00722163
-0.00862646
-1.92835e-05
0.00459344
0.00309835
-0.0122295
-0.00125821
2.75045e-05
0.0452031
0.064216
8.57549e-05
0.17762
-4.46803e-05
0.000997252
-0.00312241
0.00626688
-0.0104502
0.00471361
-7.14292e-05
-0.000251789
-1.78896e-05
-0.000424882
4.64202e-09
-8.86694e-06
-0.000110986
-0.0015432
-0.000179993
9.8541e-05
-0.000909926
-0.00393045
0.000977811
0.000124739
0.00961081
-6.79544e-05
0.00748997
0.000188201
-1.53169e-06
-0.0124523
1.02454e-06
0.16719
0.000624629
2.37951e-05
0.0478574
-0.00048306
-0.000429174
-0.00897699
-0.00338827
0.124138
0.020877
0
0.000160538
0.0058867
5.63965e-05
-0.000158103
0.0815957
-3.49472e-07
-3.52075e-05
4.35713e-05
-8.10291e-05
-0.000173729
0.00115843
-0.00237044
5.22194e-05
-0.00282041
9.17957e-06
0.228466
0.000904154
0.0818646
-3.74517e-05
5.78341e-06
8.52999e-07
-6.17472e-05
-8.54667e-05
0.000125312
3.37588e-05
0.805235
-0.00537634
0.00166072
0.0582694
-3.31034e-08
0.0124431
0.00343503
0.142774
0.02257
0.00578218
-0.00290814
-0.00390749
-3.20157e-05
0.0385513
0.00816066
0.0102084
0.0051487
0.544501
0.0353385
-0.000978157
0.00720245
-0.000200238
0.447705
-0.00952363
-0.00209992
0.000801593
-0.00802941
0.0316677
0.0178219
-0.00848004
0.0110677
0.00348484
0.00635763
0.00450556
0.00134258
0.00219383
0.00450503
0.0467259
0.0682408
-9.49554e-09
0.000755712
0.000239318
-7.59196e-07
-0.000273282
-0.00161716
0.00265902
-1.9703e-06
-0.00475563
-2.46739e-05
-0.000553304
0.00246764
2.40219e-05
-0.00380659
0.340522
0.00126015
0.473666
0.0160173
-0.0102382
-0.00083978
-4.88218e-05
-0.00251426
0.000705511
2.2398e-06
-1.86195e-05
0.00943867
0.000896505
0.00257089
0.00112698
0.000658208
-0.0001344
0.000135763
-0.0104125
-0.00985253
-0.00222251
0.000726199
-0.00117651
0.000908558
0.0018842
-0.000379151
0.00161672
-0.00267898
-0.0026783
-0.00118905
0.000631306
0.000792585
0.000892587
0.000533413
0.000112124
0.158356
-2.96417e-05
0.416051
-0.000172567
0.0359388
0.0758015
0.000110513
-0.00349409
-6.03781e-05
-8.65411e-05
0.177344
0.00875261
0.00272004
-0.00144783
-0.0242592
0.00700856
0.0559831
0.00053719
-0.0140238
0.772815
-0.000790667
-0.0142573
-2.81105e-07
2.57744e-07
-0.000551194
5.06342e-07
-8.55239e-06
-0.00486388
-6.19967e-07
-0.000176784
0.00328084
-0.00532209
0.0024581
0.00132303
-0.00437017
-0.00641209
-0.00113817
-3.46328e-05
-4.29566e-05
0.00699272
0.000106317
0.000209232
1.70035e-09
4.67491e-05
-1.00048e-07
0.00154323
-2.11671e-07
0.000500988
-0.00298047
0.00220344
0.0116755
-0.00148794
0.0142165
0.00144473
0.00266803
-0.000103622
-0.0108959
0.00666448
8.16267e-05
-0.00179479
-2.41758e-08
-0.00576736
0.0864939
0.0666009
2.48669e-10
6.99539e-05
2.05568e-10
-0.0120553
0.755076
5.52255e-10
0.0300139
-0.000413412
-4.28804e-05
0.0313039
0.000185145
-0.00238964
0.000238978
0.000115916
0.0213718
0.00079686
0.00179866
-1.0072e-06
-0.000124821
0.00352327
-2.71659e-05
0.000160968
7.34309e-05
-0.000118443
7.12311e-05
-5.45328e-05
0.00105514
0.00123077
2.83608e-06
-0.00222352
7.70173e-06
9.68698e-06
-0.000789587
-0.00273743
4.66801e-07
0.00238273
0.584506
0.262766
-2.18625e-07
-0.00710745
0.00736084
0.0515962
-0.0144467
0.000122559
0.142891
-0.014471
0.00592207
-0.00229928
0.66869
-2.73886e-05
-0.00045892
0.00252183
0.344165
-0.00731328
0.00436533
1.80953e-06
2.42548e-05
-0.000161451
0.00056884
-0.000878623
0.000110256
0.449837
0.000987013
-0.000857134
2.76724e-10
-6.74009e-09
0.0195532
-0.00468629
0.730508
0.674181
0.712237
-0.00017472
-0.000605638
2.08363e-05
0.00106691
-0.0167839
-0.0240676
-0.00309335
1.18576e-07
-6.82463e-07
-0.00122751
0.00205529
-0.0171053
0.0028998
0.0161316
0.0302616
3.49945e-05
1.67067e-05
-0.00057545
0.00068525
-6.73834e-06
0.155042
0.332462
0.000742319
-0.014518
-1.03633e-06
4.47623e-07
0.0460498
-0.00125608
-3.52176e-05
0.000788064
-0.0010902
-0.00127055
-0.00134229
0.00260598
0.736789
0.00416952
0.00684464
0.000379884
-0.00807959
-0.000301924
-1.32298e-05
-6.95708e-05
-0.000530525
-9.79926e-05
-6.36144e-05
0.0367464
-7.67323e-07
3.14409e-05
3.97101e-06
4.92975e-06
-7.38712e-06
-2.04991e-06
3.65577e-05
2.25997e-05
-7.37245e-07
0.000557662
0.180937
0.0768582
0.519175
-0.000126521
-0.00201593
1.98961e-06
-0.000804573
0.00225093
0.00161625
-3.44489e-06
0.000246478
0.347572
-0.00955338
0.0501736
0.00663165
0.000380703
-9.24966e-05
1.06657e-06
-0.00397729
-1.07261e-05
-0.0163462
1.53179e-05
0.00411314
0.669159
0.000939833
0.000854669
5.0931e-05
8.86374e-06
-0.0014256
-0.00756696
-0.00480745
0.000433558
-0.0025115
-0.0023605
0.247398
6.05978e-05
0.0621495
8.38385e-06
0.00690979
0.000286485
0.0289675
0.000266906
0.00122806
-0.00300497
-0.00167962
1.72669e-06
0.197206
-0.000665366
-0.00173314
0.670944
1.77063e-06
0.00372241
2.50879e-05
-1.35261e-05
0.000440494
0.000476157
0.00355366
-0.000527089
2.95156e-08
7.17952e-06
-4.68397e-06
1.49167e-06
0.246523
0.681981
0.493491
0.278261
-0.000512899
-0.000369069
-0.000146522
-3.92929e-05
-3.51396e-05
-5.38579e-05
-5.39319e-06
2.23735e-05
-1.61825e-05
-5.26518e-07
-1.86779e-06
-6.45022e-07
-2.84479e-07
0.0067961
0.00184257
0.00141601
-0.00785984
-0.000623036
0.0134305
0.0282892
0.0473794
0.111203
-0.000212396
0.00096215
2.52622e-07
-0.00358597
6.85516e-07
-0.00011382
6.10376e-05
-0.000444417
0.000110402
-0.000172099
0.20599
-0.00590331
0.665128
0.764569
-0.00319001
-0.0138647
-0.00988375
0.631143
0.520689
0.681708
0.766951
-0.0259656
-0.00118054
-0.0126678
-0.00479156
-0.000243852
0.523884
0.286522
-0.0102318
-0.00372878
0.0144196
0.00320261
0.0002522
-0.00215582
-0.000853272
-0.000300229
-0.000268197
8.60796e-05
0.00018785
0.000115383
2.24249e-05
-0.000719215
-0.000984074
9.43956e-05
0.350813
-0.00533486
-0.000363383
-0.000938875
0.000608541
4.99938e-06
0.0521986
0.676906
0.533527
0.594366
0.174918
0.473866
0.437586
0.390261
-2.45872e-07
0.0146731
0.372645
0.521308
0.699468
0.527489
-7.78717e-09
0.00738477
0.000275224
-0.000474966
-0.000608721
0.000340093
5.64582e-05
5.31111e-05
-9.20547e-05
0.00146771
-7.61708e-05
0.000623007
0.00168757
-0.00109212
-0.000164812
-0.000850857
-1.09243e-06
0.00930138
0.000774791
-0.00060831
-0.00278933
0.00492767
3.79459e-07
0.00168621
-0.00148228
-8.21694e-05
-1.96332e-06
-1.87997e-05
-0.000176116
0.00111867
-0.00711094
6.52064e-10
0.00185722
0.116115
0.0142341
-0.00228456
2.97792e-06
0.00780994
1.45182e-07
0.000116409
0.000321061
0.000852545
-0.00572255
-1.19671e-09
-0.000185868
6.07078e-05
-0.000202621
2.61705e-06
-4.83178e-06
-2.50723e-06
-6.38876e-06
-0.00759019
0.109234
-0.00789403
4.4947e-05
0.0538985
0.266425
0.404714
0.000225009
0.00183031
0.125804
0.326254
0.354894
0.506677
-0.00031852
-0.000207535
6.23887e-07
-0.0110244
-1.9429e-07
1.01986e-06
-0.00477227
-8.5627e-07
-0.00318737
0.00364561
0.00203738
-0.000223738
-0.0016108
-2.81042e-05
2.07127e-05
-2.33206e-05
0.591142
0.389276
0.524101
0.572893
-0.000108885
0.0120916
0.0121164
-5.34534e-05
8.18866e-05
7.48156e-05
-8.64882e-07
2.5507e-05
-7.56606e-06
3.10266e-05
-0.00489142
0.000480898
-9.44742e-05
0.000213614
-1.58562e-05
0.143697
1.45547e-05
1.63054e-05
-1.39555e-05
2.02179e-05
-0.0035415
-0.00215185
-0.00136671
0.000117099
0.730399
0.141322
0.415335
0.241433
-0.0298277
0.00445632
-0.0170443
-5.09184e-08
0.00285746
0.0151467
-0.00384169
0.00645045
0.00216179
-6.07125e-05
0.000109991
7.75665e-05
-0.0011741
-0.00272415
-0.00258719
-0.00276287
0.00389928
-0.00459567
0.00738544
0.000130588
0.0263855
0.00300146
-6.2229e-05
5.50722e-05
0.0116436
0.380888
0.258981
0.533456
0.607029
-0.00145597
-0.037729
0.00430995
-3.52669e-05
0.00129722
0.00127552
-0.000594862
0.00390409
-0.00298291
-0.00628496
-7.32098e-06
8.66571e-05
0.0471715
1.56093e-07
0.508512
0.734921
0.745726
0.82449
0.703248
0.797604
0.00330936
0.00030718
-0.000228518
0.628861
0.65988
0.412896
0.0114517
0.351541
0.27366
0.771233
0.187665
2.24345e-06
5.05102e-07
2.95321e-06
-0.00827481
-0.000373014
3.09454e-07
-9.13562e-07
-5.58512e-07
-2.55895e-06
2.54474e-05
2.0251e-05
-6.88162e-05
-0.0352178
-0.00145964
0.000271069
-0.00212434
-0.00130857
-6.43374e-05
0.000542015
0.000919395
5.27773e-06
-2.13556e-05
0.266385
-3.93637e-05
0.00107681
-0.00242135
0.000160457
-3.21666e-05
-0.0016475
0.000626173
-2.84367e-06
-2.02263e-05
5.97981e-05
-0.000369499
0.00101374
0.0231534
-0.00178702
6.12628e-07
1.39668e-05
2.37724e-06
-0.0116804
-0.00490546
-0.000258727
0.000723017
-0.000130769
0.0109922
2.68642e-07
0.000747467
-2.81491e-07
-4.81294e-07
-6.09605e-05
-4.43695e-05
-3.70811e-06
-0.000140677
-0.000305011
0.000159638
-4.24112e-05
-9.2864e-05
-0.0122511
1.11913e-05
0.000215186
0.00103835
-0.00010888
-0.0123382
-0.00590759
0.00363446
0.00749965
0.0720085
0.0512871
0.146079
0.0543347
0.122008
-0.00418036
0.00690632
0.421679
0.200418
0.274339
3.24624e-05
0.00291086
-7.00942e-07
-3.21777e-06
-0.00860485
-0.0189779
0.00396396
0.000675041
0.00575389
0.0814574
0.13442
0.00248196
0.000683985
-2.6232e-06
0.000530519
1.26926e-07
0.0049085
-5.36216e-06
0.00479313
0.00175135
0.0755344
0.0261892
-0.00906374
0.0405537
0.257257
0.137415
-0.00258648
0.028838
0.00247614
-0.00408725
-0.00215506
-0.0048997
-0.0104109
-0.00248216
-0.00088953
0.00292155
5.7208e-06
9.59774e-06
-7.5528e-06
1.24389e-05
-6.87729e-07
2.14798e-05
-0.000783477
1.18869e-07
0.000754571
-0.00192028
-2.68309e-06
0.00427945
0.000170918
0.00190059
0.000630999
-5.48099e-06
3.94821e-05
0.00404847
5.23947e-05
-0.000722289
-0.000883522
0.0007158
0.00468096
0.16144
0.035033
0.333603
0.00645506
0.000348033
0.00764835
-0.0127228
-0.00844062
0.00238068
0.120206
0.633499
0.5599
-0.00777181
0.0026557
0.00128081
0.515913
0.440681
0.698861
1.40275e-07
0.551908
0.664629
0.478595
0.42181
0.548222
2.75331e-05
-7.6188e-05
-7.99936e-05
0.000105007
4.02352e-05
-6.39027e-05
-3.53179e-05
0.000154685
-0.000385798
-0.000298125
-2.0781e-05
3.9786e-05
-3.88928e-05
-5.51574e-06
-3.46328e-06
3.3983e-05
1.72504e-05
3.56064e-05
-1.11598e-05
1.39623e-06
-3.69339e-06
-2.36922e-05
-6.25374e-05
-1.78539e-05
0.275411
0.249363
0.192566
0.111845
0.00910762
0.00513554
-0.0152452
-0.00823723
0.0549981
0.0508036
3.67454e-07
0.000212004
-0.0004422
-0.00552157
-0.00396064
0.145455
-0.0264506
0.0101451
0.00474405
0.000551545
0.001214
0.000826528
0.579234
-0.0049025
0.106714
0.00449106
0.0235795
0.00664497
-0.000196164
-3.78614e-05
-0.00171004
1.62022e-07
1.85829e-07
-0.00218645
-0.00564996
0.0135404
0.744889
0.341711
0.274005
1.96662e-06
-4.80677e-07
2.41942e-06
1.46426e-06
3.14037e-06
0.448127
0.327361
-0.00535445
0.000397404
-0.00757932
0.0240452
-0.00391657
4.21504e-07
-0.00453151
-0.0171896
-0.00598962
0.00802193
0.000377491
0.00104398
0.000725185
6.59934e-07
0.50899
0.183184
0.333123
0.411797
0.516529
0.00847829
-0.0126115
0.0135938
-0.00192864
-0.00255116
-0.00194491
-0.00289204
0.000513175
-0.00281959
0.00275443
0.530345
0.628733
0.683772
0.00240633
-0.000357553
1.6242e-06
0.622204
0.593907
0.00779796
0.00229526
0.0124591
0.00136105
0.000537597
0.000545158
4.07613e-06
-3.94766e-07
-0.0107637
-0.0234068
-0.00396095
-0.00455656
-0.0103671
2.48405e-10
0.00381014
0.0729312
-0.000433336
0.00517498
0.00234216
0.0100511
0.0362036
-0.000668676
0.0820109
0.19204
0.0241609
0.22149
0.135285
0.0209843
0.0605381
0.439784
0.171084
0.458089
0.141399
-0.00107229
-0.000263175
0.452485
0.565912
0.456193
0.0212565
-0.00201856
0.0045279
0.00386466
0.00160241
-0.00470226
-5.04056e-05
0.0780033
2.34647e-05
0.0127043
-0.0010182
0.000159176
-3.985e-05
0.00233472
-0.00223378
-0.0011832
2.07284e-05
4.36414e-06
-8.05014e-06
-1.23043e-05
-4.27665e-10
8.95593e-10
-6.82942e-10
-0.00260582
0.00649886
0.0773721
0.112583
0.237788
0.102162
0.184374
0.219879
-0.00338383
0.000831914
-6.00749e-05
0.000427887
7.14579e-05
-3.00853e-05
0.0287857
0.0141571
0.0700648
0.204552
-0.00629891
-0.00211386
-0.00113458
0.00528084
-0.000809776
-0.012529
0.0125679
0.515022
0.000287677
0.530697
0.161041
0.147363