# vtk DataFile Version 2.0
Unstructured Grid by M++
ASCII
DATASET UNSTRUCTURED_GRID
POINTS 4072 float
  0.875000   1.000000 0
  0.875000   0.984375 0
  0.875000   0.968750 0
  0.875000   0.953125 0
  0.875000   0.937500 0
  0.875000   0.921875 0
  0.875000   0.906250 0
  0.875000   0.890625 0
  0.875000   0.875000 0
  0.875000   0.859375 0
  0.875000   0.843750 0
  0.875000   0.828125 0
  0.875000   0.812500 0
  0.875000   0.796875 0
  0.875000   0.781250 0
  0.875000   0.765625 0
  0.859375   1.000000 0
  0.859375   0.984375 0
  0.859375   0.968750 0
  0.859375   0.953125 0
  0.859375   0.937500 0
  0.859375   0.921875 0
  0.859375   0.890625 0
  0.859375   0.875000 0
  0.859375   0.859375 0
  0.859375   0.843750 0
  0.859375   0.828125 0
  0.859375   0.812500 0
  0.859375   0.796875 0
  0.859375   0.781250 0
  0.859375   0.765625 0
  0.859375   0.671875 0
  0.859375   0.656250 0
  0.859375   0.640625 0
  0.843750   1.000000 0
  0.843750   0.984375 0
  0.843750   0.968750 0
  0.843750   0.953125 0
  0.843750   0.937500 0
  0.843750   0.921875 0
  0.843750   0.906250 0
  0.843750   0.875000 0
  0.843750   0.859375 0
  0.843750   0.843750 0
  0.843750   0.828125 0
  0.843750   0.812500 0
  0.843750   0.796875 0
  0.843750   0.781250 0
  0.843750   0.765625 0
  0.843750   0.671875 0
  0.843750   0.656250 0
  0.843750   0.640625 0
  0.828125   1.000000 0
  0.828125   0.984375 0
  0.828125   0.968750 0
  0.828125   0.953125 0
  0.828125   0.937500 0
  0.828125   0.921875 0
  0.875000   0.671875 0
  0.812500   0.921875 0
  0.890625   0.656250 0
  0.828125   0.906250 0
  0.875000   0.656250 0
  0.812500   0.906250 0
  0.890625   0.640625 0
  0.828125   0.890625 0
  0.875000   0.640625 0
  0.812500   0.890625 0
  0.890625   0.625000 0
  0.828125   0.875000 0
  0.890625   0.609375 0
  0.828125   0.859375 0
  0.890625   0.593750 0
  0.828125   0.843750 0
  0.890625   0.578125 0
  0.828125   0.828125 0
  0.890625   0.562500 0
  0.828125   0.812500 0
  0.828125   0.796875 0
  0.828125   0.781250 0
  0.828125   0.765625 0
  0.828125   0.671875 0
  0.828125   0.656250 0
  0.828125   0.640625 0
  0.875000   0.750000 0
  0.812500   1.000000 0
  0.875000   0.625000 0
  0.812500   0.875000 0
  0.875000   0.734375 0
  0.812500   0.984375 0
  0.875000   0.718750 0
  0.812500   0.968750 0
  0.875000   0.703125 0
  0.812500   0.953125 0
  0.875000   0.687500 0
  0.812500   0.937500 0
  0.875000   0.609375 0
  0.812500   0.859375 0
  0.875000   0.593750 0
  0.812500   0.843750 0
  0.875000   0.578125 0
  0.812500   0.828125 0
  0.812500   0.812500 0
  0.875000   0.546875 0
  0.812500   0.796875 0
  0.812500   0.781250 0
  0.812500   0.765625 0
  0.859375   0.750000 0
  0.796875   1.000000 0
  0.859375   0.625000 0
  0.796875   0.875000 0
  0.859375   0.734375 0
  0.796875   0.984375 0
  0.859375   0.718750 0
  0.796875   0.968750 0
  0.859375   0.703125 0
  0.796875   0.953125 0
  0.859375   0.687500 0
  0.796875   0.937500 0
  0.859375   0.609375 0
  0.796875   0.859375 0
  0.859375   0.593750 0
  0.796875   0.843750 0
  0.859375   0.578125 0
  0.796875   0.828125 0
  0.859375   0.562500 0
  0.796875   0.812500 0
  0.796875   0.796875 0
  0.859375   0.531250 0
  0.796875   0.781250 0
  0.796875   0.765625 0
  0.843750   0.750000 0
  0.781250   1.000000 0
  0.843750   0.625000 0
  0.781250   0.875000 0
  0.843750   0.734375 0
  0.781250   0.984375 0
  0.843750   0.718750 0
  0.781250   0.968750 0
  0.843750   0.703125 0
  0.781250   0.953125 0
  0.843750   0.687500 0
  0.781250   0.937500 0
  0.843750   0.609375 0
  0.781250   0.859375 0
  0.843750   0.593750 0
  0.781250   0.843750 0
  0.843750   0.578125 0
  0.781250   0.828125 0
  0.781250   0.812500 0
  0.843750   0.546875 0
  0.781250   0.796875 0
  0.781250   0.781250 0
  0.843750   0.515625 0
  0.781250   0.765625 0
  0.828125   0.750000 0
  0.765625   1.000000 0
  0.828125   0.625000 0
  0.765625   0.875000 0
  0.828125   0.734375 0
  0.765625   0.984375 0
  0.828125   0.718750 0
  0.765625   0.968750 0
  0.828125   0.703125 0
  0.765625   0.953125 0
  0.828125   0.687500 0
  0.765625   0.937500 0
  0.828125   0.609375 0
  0.765625   0.859375 0
  0.828125   0.593750 0
  0.765625   0.843750 0
  0.828125   0.578125 0
  0.765625   0.828125 0
  0.828125   0.562500 0
  0.765625   0.812500 0
  0.765625   0.796875 0
  0.828125   0.531250 0
  0.765625   0.781250 0
  0.765625   0.765625 0
  0.812500   0.750000 0
  0.750000   1.000000 0
  0.953125   1.000000 0
  0.812500   0.734375 0
  0.750000   0.984375 0
  0.812500   0.718750 0
  0.750000   0.968750 0
  0.812500   0.703125 0
  0.750000   0.953125 0
  0.812500   0.687500 0
  0.750000   0.937500 0
  0.812500   0.671875 0
  0.750000   0.921875 0
  0.812500   0.656250 0
  0.750000   0.906250 0
  0.812500   0.640625 0
  0.750000   0.890625 0
  0.812500   0.625000 0
  0.750000   0.875000 0
  0.812500   0.609375 0
  0.750000   0.859375 0
  0.812500   0.593750 0
  0.750000   0.843750 0
  0.812500   0.578125 0
  0.750000   0.828125 0
  0.750000   0.812500 0
  0.812500   0.546875 0
  0.750000   0.796875 0
  0.750000   0.781250 0
  0.812500   0.515625 0
  0.750000   0.765625 0
  0.796875   0.750000 0
  0.734375   1.000000 0
  0.796875   0.734375 0
  0.734375   0.984375 0
  0.796875   0.718750 0
  0.734375   0.968750 0
  0.796875   0.703125 0
  0.734375   0.953125 0
  0.796875   0.687500 0
  0.734375   0.937500 0
  0.796875   0.671875 0
  0.734375   0.921875 0
  0.796875   0.656250 0
  0.734375   0.906250 0
  0.796875   0.640625 0
  0.734375   0.890625 0
  0.796875   0.625000 0
  0.734375   0.875000 0
  0.796875   0.609375 0
  0.734375   0.859375 0
  0.796875   0.593750 0
  0.734375   0.843750 0
  0.796875   0.578125 0
  0.734375   0.828125 0
  0.734375   0.812500 0
  0.734375   0.796875 0
  0.796875   0.531250 0
  0.734375   0.781250 0
  0.734375   0.765625 0
  0.781250   0.750000 0
  0.718750   1.000000 0
  0.921875   1.000000 0
  0.781250   0.734375 0
  0.718750   0.984375 0
  0.781250   0.718750 0
  0.718750   0.968750 0
  0.781250   0.703125 0
  0.718750   0.953125 0
  0.859375   0.906250 0
  0.781250   0.687500 0
  0.718750   0.937500 0
  0.781250   0.671875 0
  0.718750   0.921875 0
  0.781250   0.656250 0
  0.718750   0.906250 0
  0.781250   0.640625 0
  0.718750   0.890625 0
  0.781250   0.625000 0
  0.718750   0.875000 0
  0.781250   0.609375 0
  0.718750   0.859375 0
  0.781250   0.593750 0
  0.718750   0.843750 0
  0.781250   0.578125 0
  0.718750   0.828125 0
  0.781250   0.562500 0
  0.718750   0.812500 0
  0.781250   0.546875 0
  0.718750   0.796875 0
  0.781250   0.531250 0
  0.718750   0.781250 0
  0.781250   0.515625 0
  0.718750   0.765625 0
  0.765625   0.750000 0
  0.703125   1.000000 0
  0.765625   0.734375 0
  0.703125   0.984375 0
  0.765625   0.718750 0
  0.703125   0.968750 0
  0.765625   0.703125 0
  0.703125   0.953125 0
  0.765625   0.687500 0
  0.703125   0.937500 0
  0.843750   0.890625 0
  0.703125   0.921875 0
  0.765625   0.656250 0
  0.703125   0.906250 0
  0.765625   0.640625 0
  0.703125   0.890625 0
  0.765625   0.625000 0
  0.703125   0.875000 0
  0.765625   0.609375 0
  0.703125   0.859375 0
  0.765625   0.593750 0
  0.703125   0.843750 0
  0.765625   0.578125 0
  0.703125   0.828125 0
  0.765625   0.562500 0
  0.703125   0.812500 0
  0.765625   0.546875 0
  0.703125   0.796875 0
  0.765625   0.531250 0
  0.703125   0.781250 0
  0.765625   0.515625 0
  0.703125   0.765625 0
  0.750000   0.750000 0
  0.687500   1.000000 0
  0.890625   1.000000 0
  0.750000   0.734375 0
  0.687500   0.984375 0
  0.750000   0.718750 0
  0.687500   0.968750 0
  0.578125   0.796875 0
  0.578125   0.781250 0
  0.578125   0.765625 0
  0.546875   0.953125 0
  0.546875   0.968750 0
  0.546875   0.718750 0
  0.546875   0.687500 0
  0.250000   0.609375 0
  0.937500   0.031250 0
  0.046875   0.703125 0
  0.734375   0.062500 0
  0.734375   0.078125 0
  0.734375   0.046875 0
  0.046875   0.593750 0
  0.046875   0.562500 0
  0.046875   0.531250 0
  0.718750   0.156250 0
  0.046875   0.609375 0
  0.734375   0.031250 0
  0.062500   0.609375 0
  0.234375   0.703125 0
  0.718750   0.125000 0
  0.046875   0.578125 0
  0.734375   0.000000 0
  0.062500   0.578125 0
  0.000000   0.828125 0
  0.234375   0.671875 0
  0.234375   0.625000 0
  0.718750   0.093750 0
  0.687500   0.156250 0
  0.062500   0.546875 0
  0.000000   0.796875 0
  0.718750   0.046875 0
  0.031250   0.687500 0
  0.687500   0.171875 0
  0.500000   1.000000 0
  0.078125   0.218750 0
  0.234375   0.593750 0
  0.718750   0.062500 0
  0.687500   0.125000 0
  0.000000   0.765625 0
  0.421875   0.500000 0
  0.031250   0.593750 0
  0.718750   0.015625 0
  0.687500   0.234375 0
  0.015625   0.812500 0
  0.703125   0.171875 0
  0.703125   0.187500 0
  0.703125   0.140625 0
  0.015625   0.781250 0
  0.437500   0.515625 0
  0.500000   0.796875 0
  0.078125   0.015625 0
  0.687500   0.203125 0
  0.250000   0.578125 0
  0.703125   0.109375 0
  0.000000   0.515625 0
  0.500000   0.765625 0
  0.062500   0.593750 0
  0.750000   0.015625 0
  0.015625   0.843750 0
  0.687500   0.000000 0
  0.500000   0.828125 0
  0.078125   0.046875 0
  0.015625   0.531250 0
  0.250000   0.546875 0
  0.703125   0.078125 0
  0.703125   0.031250 0
  0.015625   0.671875 0
  0.250000   0.515625 0
  0.000000   0.656250 0
  0.500000   0.906250 0
  0.078125   0.125000 0
  0.687500   0.015625 0
  0.031250   0.546875 0
  0.687500   0.031250 0
  0.500000   0.859375 0
  0.703125   0.000000 0
  0.703125   0.046875 0
  0.703125   0.015625 0
  0.500000   0.937500 0
  0.234375   0.531250 0
  0.031250   0.578125 0
  0.687500   0.062500 0
  0.500000   0.890625 0
  0.031250   0.796875 0
  0.453125   0.531250 0
  0.500000   0.968750 0
  0.078125   0.187500 0
  0.234375   0.562500 0
  0.031250   0.609375 0
  0.718750   0.031250 0
  0.687500   0.093750 0
  0.750000   0.046875 0
  0.000000   0.937500 0
  0.421875   0.671875 0
  0.718750   0.187500 0
  0.031250   0.828125 0
  0.765625   0.062500 0
  0.015625   0.953125 0
[...]
CELL_DATA 7648
SCALARS scalar_value float 1
LOOKUP_TABLE default
-0.000309421
-0.000137426
0.000227978
-0.000117521
0.00151512
0.00107529
-0.000150781
-0.00604352
-0.00224879
0.000470112
0.000120279
0.000574968
0.000419971
0.0321092
0.145365
0.00753012
0.306917
-0.00479984
0.0047225
1.00549e-09
0.00778597
0.000698692
-0.00502998
0.000161167
0.0108519
0.000693136
-0.000581218
-0.012973
-0.000657582
0.000383092
0.105061
0.498175
0.243196
0.000111326
8.33936e-05
6.23828e-05
5.81263e-06
-0.000242648
0.00117126
-0.0012526
-9.30379e-06
0.00348323
0.00978442
5.49063e-05
2.37225e-07
2.49512e-06
0.00028574
0.000374449
-0.00488418
0.00115545
4.33805e-05
-9.56257e-05
6.65959e-05
-3.2012e-05
-0.00493074
0.0108176
0.00425098
-0.00282608
0.0141065
4.83395e-05
-5.6907e-06
-0.00512689
-3.6789e-06
-0.000338684
0.00155607
-0.00388676
-0.00962276
-2.70054e-06
0.324139
-6.68529e-06
-1.54427e-06
-5.57928e-06
-2.37694e-09
-3.57512e-09
0.000164658
0.00324809
-0.0060027
0.00701394
0.00784209
-0.00678871
2.61297e-05
-0.00900059
-0.0122544
-0.000561055
2.51344e-08
-5.31387e-05
0.0271957
0.00493079
-0.000704071
-0.000765173
0.13199
-0.00112464
2.91876e-05
4.59744e-05
4.21656e-06
3.22602e-05
-9.82439e-06
3.18809e-05
-0.00218457
0.181421
0.457969
-2.03541e-05
-5.43981e-07
7.80746e-06
-0.00735632
0.00557729
6.85377e-05
-0.000645674
0.0315517
0.0127987
0.000742574
-0.000377108
0.00202111
3.16556e-05
0.746409
0.61502
0.00320487
0.0170395
0.00495482
0.246908
-0.0110143
0.00371436
0.0125688
4.31813e-05
-4.3881e-09
1.20154e-05
-1.67537e-06
0.00195445
0.0149127
0.0225874
0.0115479
5.02048e-05
0.00209097
-0.000349628
-1.2856e-06
8.50974e-07
-0.00539505
-0.00465715
-0.000617995
-0.0262331
0.000127246
-4.79344e-08
-1.63932e-05
2.30105e-05
0.0222294
-3.23871e-06
1.0782e-08
0.000132685
1.04726e-08
-0.00480162
2.56601e-06
-1.16955e-06
0.000716248
0.073974
-0.00137654
0.00528786
0.000429896
0.00484805
0.0033454
-0.00127969
0.0120613
0.00411743
-1.57379e-05
2.97579e-07
0.00239263
0.00357995
2.37666e-05
3.14306e-05
1.00557e-05
0.00101571
5.26588e-07
0.00487749
0
-1.88272e-08
0.00712149
0.00505079
-0.00409513
1.85839e-07
-5.8876e-05
-0.00127011
5.79765e-05
9.27957e-05
-8.31426e-05
0.000697118
-3.05086e-05
0.000585067
-0.000586379
0.000116281
-5.99452e-05
-0.00240591
0.0483927
-0.00247549
0.00045824
2.11495e-07
-1.62959e-06
5.07908e-05
2.13869e-05
0.0488474
2.73096e-06
9.93485e-06
-0.00018714
0.00156906
-0.00439576
-0.00351614
0.000221806
0.00010666
-0.000253096
-0.00068507
0.672652
-6.15866e-05
-2.92093e-06
0.00296998
3.07323e-05
-0.000330969
-0.00159432
0.00739432
-0.00735182
0.00728436
-0.00665433
-0.00847854
0.00465763
-9.02515e-06
1.94324e-05
0.0014322
5.74039e-05
-0.00158813
0.000436436
5.91886e-06
0.000120507
0.00910747
-0.000534885
0.0146824
-0.00676911
-0.000483251
0.000334928
-0.000533291
0.0012496
0.00099812
1.46178e-05
0.409419
9.81263e-07
0.493239
0.00146785
0.00520464
0.019162
-2.03071e-09
0.082687
0.0404195
0.0295837
0.00265846
-0.0033826
-0.000916191
0.000866311
0.00340964
0.000505427
1.13754e-08
6.16285e-06
0.00181753
-0.000135989
-0.00309695
0.00117148
-0.000642033
0.00253526
-0.00297847
0.000985407
0.00113452
0.00840543
0.284576
0.132972
0.220213
-0.00167233
7.3888e-10
-0.0128099
0.0561548
0.000437376
-0.000392466
0.00776815
0.00622883
0.00737514
-0.00634656
-0.00293942
-0.00716831
0.0445982
0.0630849
0.775937
0.765964
0.745368
0.00470017
-0.0072939
0.444334
0.674097
0.668445
0.598458
0.00184623
0.000246836
0.00532742
0.102323
0.255882
0.00703955
0.576942
0.00402292
-0.00282546
-0.000692972
0.0220858
-0.0191861
0.119949
2.51588e-05
-0.0166592
-0.0665023
-0.073966
2.62667e-06
0.162147
0.239311
0.301506
-0.00165008
-0.00142233
-0.000227867
-0.00777857
0.00628441
0.0111382
-0.00017258
0.000108599
1.11334e-05
2.38636e-05
-1.81733e-10
0.0159303
0.00140193
0.000357944
0.000617239
0.000427573
-0.00121298
0.000313878
-2.89858e-06
0.000379472
0.000751637
-3.36838e-05
-2.53464e-06
3.90115e-05
-4.30452e-05
2.94912e-05
0.00425827
-0.00202497
0.00334539
0.00467217
0.000111288
0.000732715
-0.00431477
-0.00192238
6.73374e-06
1.1671e-06
0.0127764
-0.00319394
0.0107868
-0.00924562
0.0034408
-7.42324e-06
-0.000216066
0.00037081
-0.00399433
0.00765589
0.639415
-8.63985e-05
-0.00816093
-1.13719e-09
0.0957613
0.00239551
-0.00445451
-0.00301305
0.00582996
0.00400046
0.0686696
6.62437e-10
-1.33603e-05
0.00256178
-0.000211782
0.0256819
-0.000841208
0.00217788
-0.00591233
0.00022416
0.00956229
0.000125942
-0.0019311
0.000631
0.000192671
-0.00291174
-2.37073e-05
-0.0111964
0.000846431
-0.00134849
0.00215909
0.000274631
-0.00519243
0.0091427
0.00192802
-0.00302156
-0.00846396
-0.00549949
-0.000541393
-0.00519689
1.1451e-05
0.00163404
-7.96724e-05
0.000216797
-0.000536423
3.70576e-07
-0.000491416
-0.000378781
0.00307108
-0.000270618
0.00079051
-0.00130826
-1.99859e-07
-0.00413571
0.00239366
0.122728
-6.53392e-05
-0.000731342
0.00022173
0.0023464
0.00652227
0.00588015
0.000213593
0.000524048
-0.000907618
0.00384318
-0.000778126
0.583827
0.00199538
0.0085654
0.110461
-0.0264287
-4.95797e-09
0.00912611
0.00459241
-0.000836621
-5.33607e-05
-7.80608e-06
4.64066e-06
1.09549e-05
0.000644591
0.00019183
0.0369238
0.00174017
1.05766e-07
5.86907e-07
0.0217123
-0.000841344
4.62357e-07
0.000279569
-2.50964e-07
0.560659
-0.00166589
0.000188644
-7.53377e-05
0.000128915
3.08552e-05
0.0418274
0.558383
0.0227339
0.0429457
-0.000104125
0.25488
0.000710082
-0.000934883
5.93392e-06
-7.75002e-05
0.00368596
-0.000162714
4.16086e-05
0.0278621
-0.00084141
0.00614161
-5.58924e-07
0.108629
-0.0167874
0.00302423
-3.15034e-07
0.444683
0.00104073
-4.43486e-07
-0.0139012
0.00515304
0.000156235
0.000525977
0.00299481
8.54201e-07
2.80296e-05
1.48062e-05
-0.00126004
-5.48957e-05
-1.58378e-05
1.04746e-06
0.000665175
0.000154278
0.37265
-1.28729e-05
4.04067e-05
-4.06105e-05
5.98334e-06
-0.00350135
-3.74439e-05
0.000487893
0.00103322
-2.04397e-05
1.51599e-05
0.000566582
0.000141266
0.00126249
0.000150056
0.000965291
0.000329268
-9.74044e-05
0.00240308
0.0011522
-0.00585532
8.56261e-10
-0.00964442
0.00602328
0.314142
0.0124264
-0.000810213
-2.92438e-08
-6.64389e-05
0.000100602
-3.71781e-05
-5.5413e-06
-7.6319e-08
-0.00905423
0.0615046
2.47096e-05
-3.60777e-06
0.000195234
-0.00627132
-0.00412549
-9.79005e-10
-4.19301e-05
-9.40584e-09
0.330767
0.00892276
-2.97191e-05
-1.47775e-06
0.00436493
-4.38006e-05
0.769079
0.00241576
-0.00581405
0.000907902
0.0116203
0.00347563
-0.00381124
0.0111789
-0.00125275
0.00238608
-0.00220911
-0.00391407
3.19273e-05
0.000163024
-0.0049478
0.000370627
-0.00101023
-0.00328069
0.00404854
-0.00187426
-5.6504e-05
0.000705765
-0.00565246
0.000931559
-0.00572181
-2.32415e-06
6.2553e-07
0.000464822
-0.000556394
0.00236302
-0.00184457
0.00853381
-0.000428014
3.89679e-07
-0.0044991
-1.93943e-06
0.169644
-0.0419421
0.00622944
-0.00103291
-0.000199667
-0.00139916
0.0739957
-0.00127679
-0.0217751
-2.28685e-05
-8.809e-05
3.63449e-05
-0.00702296
0.000999989
1.94542e-07
-3.22482e-07
0.0591002
0.00489334
0.238119
0.0117127
0.000151042
-9.85599e-06
0.000230788
0.00106408
0.000100224
0.00125417
8.84429e-05
0.000829818
-0.0032788
-0.000340283
0.0064904
0.0195876
3.93962e-06
0.0281305
0.00486684
0.0224691
7.21567e-05
-0.0008181
-0.000423932
-0.0109862
-0.000441689
-0.00152017
-0.00185973
-0.0024453
0.00649875
-0.00124821
-0.00873333
0.00310511
-0.00615911
-0.000202536
-0.000699422
-1.34878e-05
0.000197442
-0.000889218
2.79053e-05
-8.60712e-05
0.00654613
0.184601
0.258623
9.28701e-05
-0.00024923
-0.00882203
-0.000167951
5.92809e-05
-0.00995932
-0.000205932
0.000572263
0.00124685
-0.0114667
-0.000253028
0.0294217
0.274554
-0.000498027
0.000545211
0.00230323
0.00015195
0.455894
0.00774888
0.00189459
-0.0148885
2.71878e-06
0.00124406
-0.00215929
0.131672
0.00469985
-0.0129522
0.0826616
-0.00492735
0.00235865
0.000343921
-0.000806493
-0.0105615
-7.73915e-09
0.360946
-6.20679e-05
-0.00209516
0.000301518
-0.00441381
0.00247616
3.38768e-08
0.255108
-0.00182745
-0.00788667
0.0021056
5.05694e-05
0.000401955
-0.00375836
0.0994426
0.000770971
2.86716e-05
0.0114135
1.00386e-05
0.00169825
-0.000114925
-0.00419093
0.00278117
-0.00570011
-1.24059e-05
-7.25895e-05
7.03613e-08
-0.0074391
2.35719e-07
-7.85861e-05
0.0084786
0.150973
-2.26214e-05
5.97051e-06
5.40982e-07
-4.34725e-05
0.265324
0.00314051
0.166024
0.00804595
-0.00408241
-0.000619901
0.00428238
0.00375227
-0.00567871
-0.00126152
-3.56763e-05
0.11534
0.149806
-0.000153957
0.313369
-0.000173199
5.18346e-05
-0.0043741
0.00521612
-0.0109677
0.00540753
-0.000123344
-0.000133901
-1.14662e-05
-0.000274236
5.50244e-10
-2.94312e-06
-3.58466e-05
-0.00172886
-0.000106868
7.76938e-05
-0.000427315
-0.0033265
0.00107778
5.42295e-05
0.0143422
-2.37914e-05
0.00789288
-0.00237929
-6.70678e-07
-0.0089212
5.53529e-07
0.315239
0.000571522
1.93051e-05
0.0175823
-0.000777666
-0.000474807
-0.00760788
-0.0037781
0.0557789
0.01627
6.75198e-10
8.97174e-05
0.00492309
1.15397e-06
-0.000105123
0.174216
1.22022e-06
-1.86511e-05
-2.82709e-05
-6.6801e-05
-0.000212196
0.00104653
-0.000633244
3.83277e-05
-0.00253857
7.92538e-06
0.203424
0.000808188
0.166545
-8.90036e-07
2.8284e-06
-1.50149e-07
-6.40732e-05
-0.000141724
-2.71557e-05
3.18993e-05
0.823022
-0.0061601
-0.000397641
0.138404
-7.88915e-09
0.0160742
0.00878189
0.164465
0.0284223
0.00590174
-0.00496078
-0.00434474
-6.23747e-05
0.013457
0.0123378
0.00808349
0.00589463
0.695159
0.0398121
-0.00217048
0.00738171
-0.000293804
0.62159
-0.00825671
-0.00107033
0.00111897
-0.0125704
0.0786031
0.00540888
-0.0155997
0.00203738
0.00564727
0.00523168
0.00272553
-1.28941e-05
0.00482344
-0.00119308
0.0163093
0.0265598
-7.74849e-09
0.00168281
0.000353127
6.811e-06
-0.00023298
-0.00298316
0.00330307
-2.70589e-06
-0.00188764
-2.17118e-06
-0.0024591
0.00256145
1.38109e-05
-0.00228065
0.501799
0.00147013
0.417211
0.0041559
-0.0175888
0.000610228
-1.11894e-05
-0.00304421
-8.95465e-05
1.67912e-06
-3.7571e-05
0.00269878
8.2581e-06
0.00344919
0.00155153
-0.00233897
-0.000952901
-0.000145778
-0.0114333
-0.00831664
-0.00275352
-0.00100284
-0.00309438
0.00074578
0.000954156
0.000755629
0.000920479
-0.000958824
-0.00180974
-0.000946732
0.000308768
0.000941951
0.000813365
0.00135501
0.000165687
0.0796692
-3.15458e-05
0.26188
-0.00219667
0.0138709
0.0346762
1.03761e-05
-0.00579733
-2.84108e-05
-8.79033e-05
0.0854493
0.0100636
0.00123658
-0.00144748
-0.0245218
0.00589643
0.0800716
0.000619733
0.0650418
0.671132
-0.00134131
-0.0117266
-2.34024e-07
4.18036e-07
-0.000917883
4.11888e-07
-4.6104e-06
-0.00133623
-2.36679e-06
-0.000122819
-0.00176302
-0.000238507
0.00173469
0.00108764
-0.00591899
-0.00657417
-0.000826863
-9.84544e-06
-3.92948e-05
0.00439115
0.00011069
6.12906e-05
-1.62328e-09
0.000267293
-1.04172e-08
0.00111854
-2.09928e-07
0.000222337
-0.00216969
0.000891428
0.00405549
-0.00195572
0.00486664
0.000562957
0.00159721
-2.95783e-05
-0.01305
0.00552178
7.86446e-05
0.0027624
-2.09625e-09
-0.0100183
0.119403
0.103775
4.34848e-10
-0.000403056
-2.69874e-10
-0.0169741
0.71143
3.561e-10
0.0457879
-0.000280726
-0.000172906
0.0729616
8.42002e-05
-0.0014396
0.00018628
-0.000556886
0.0273646
0.00189422
0.000701541
-4.43298e-07
-6.75981e-05
0.00267874
1.00544e-06
0.000137939
6.47951e-05
-0.000645237
6.95591e-05
-2.31846e-05
0.00171132
0.00126816
1.15176e-06
-0.00107027
5.34063e-06
6.86205e-06
-0.00145007
-0.00333504
1.83831e-07
0.00154807
0.594205
0.21843
-6.04371e-08
-0.0123677
0.0104527
0.119874
-0.00916278
8.89549e-05
0.0726644
-0.0136271
0.00628161
-1.05937e-05
0.538003
-2.08314e-05
-0.00227254
0.0020531
0.246579
-0.00639678
0.00382189
8.3786e-07
2.44973e-05
3.59211e-05
0.000540196
6.26482e-06
9.24958e-05
0.292848
0.000862472
-0.000708905
-5.92629e-10
-3.30161e-09
0.0357153
-0.00497389
0.684052
0.545438
0.610941
0.000262875
-0.000565048
1.57644e-05
0.00108915
-0.0178066
-0.0171582
-0.00209389
7.42696e-08
-3.60443e-07
-0.00090796
0.0132512
-0.0209479
0.00781259
0.0392263
0.0103344
2.07848e-05
6.22243e-06
-7.14289e-05
0.000563595
-9.09404e-06
0.0745354
0.185707
0.00080129
-0.0132968
-1.90776e-06
5.18148e-07
0.0322574
-0.00151709
-0.000109116
0.000720091
-9.12938e-05
-0.00106207
-0.00116067
0.00364097
0.81593
0.00547463
0.00683347
0.000115893
-0.011535
0.00124121
-4.96114e-06
-4.79509e-05
-0.000546576
-2.2914e-05
-8.04013e-05
0.046684
-1.71519e-06
2.76498e-05
2.31612e-06
3.36627e-06
-5.04372e-06
-1.8413e-06
2.65664e-05
2.52141e-05
-3.02737e-07
0.000447375
0.25247
0.056925
0.586255
-0.000119697
-0.00178584
3.13981e-07
-0.00257785
-0.00138009
0.000260318
-5.00156e-06
0.000128959
0.515186
-0.0061573
0.0360116
0.00201215
0.000288042
-9.3811e-05
4.30294e-07
-0.00417079
-1.22595e-05
-0.0169026
1.32904e-05
0.00427343
0.603652
0.000655966
0.000606259
-0.0002391
9.54676e-06
-0.00108852
-0.00551777
-0.00492002
0.00500464
-0.00372299
-0.00190742
0.321991
3.17271e-06
0.0835629
3.51931e-06
0.00321647
0.00011556
0.0397145
0.000189098
0.000304689
-0.003051
-0.0105108
1.27729e-06
0.212355
0.00103438
-0.00179055
0.692958
1.46233e-06
0.00307492
3.06228e-05
7.05703e-07
0.000229116
0.000192385
0.00526341
0.00106914
2.5324e-09
6.16502e-06
-6.14496e-06
-2.50695e-06
0.267383
0.703473
0.654102
0.440621
-0.000152323
-8.32556e-05
-0.000180957
-2.83711e-05
-2.88908e-05
-3.84718e-05
5.73591e-06
2.04432e-05
-1.51188e-05
-3.18195e-07
-1.19695e-06
-3.08162e-07
-1.02035e-07
0.00889606
0.000233828
0.00110312
-0.0058174
-0.000331319
0.0196259
0.0337909
0.0698062
0.196735
0.00237454
0.00106236
2.87481e-07
-0.00423851
-1.16299e-08
-8.94517e-05
4.32251e-05
-3.1179e-05
7.66081e-05
-0.000115499
0.183161
-0.00519268
0.759888
0.756932
0.0219203
-0.00724889
-0.000828262
0.454423
0.373229
0.526978
0.630662
-0.0242062
0.00152776
-0.0172733
-0.00533565
-0.000287008
0.618769
0.465442
-0.0051862
0.00887364
0.0135737
0.005017
-0.000359991
-0.00160419
-0.00108059
-0.000227543
-0.000364605
3.72055e-05
0.000159253
3.55752e-05
-8.0164e-06
-0.000435204
-0.000627659
0.000101542
0.43206
-0.00576941
-0.000878781
-0.00279642
0.00292075
3.80222e-06
0.0538543
0.734948
0.594071
0.692039
0.133352
0.505432
0.599905
0.469254
-1.04236e-07
0.0123513
0.328787
0.434227
0.699818
0.675914
-1.22072e-08
0.00540269
0.000150735
-0.000289584
-0.000384225
6.91534e-05
4.91554e-05
3.50884e-05
-8.39526e-05
0.00166623
-7.88577e-05
0.000620082
0.00181077
-0.000669024
-0.000260095
-0.00069042
-6.81656e-07
0.00797874
0.00451649
0.00238429
0.000141083
0.00584607
1.48162e-07
-0.000420682
-0.00240967
-0.000181681
-1.11148e-06
-3.76407e-06
-0.000168408
0.00093336
-0.0117411
3.18864e-10
0.00134208
0.162312
0.0436781
-0.00171781
2.21436e-06
0.0054307
3.32675e-08
0.000100713
0.000463283
0.0007447
-0.00512378
0
-0.000152477
6.28377e-05
-0.000191228
1.40887e-06
-3.08467e-06
-1.53292e-06
-5.38142e-06
-0.00545962
0.154432
-0.0100441
0.00040511
0.151189
0.377651
0.491429
0.000226059
0.00276029
0.0714364
0.186941
0.216693
0.344652
-0.000274138
-0.000215317
3.03755e-07
-0.00736598
-1.27909e-07
5.91986e-07
-0.00424956
6.59056e-07
-0.00294704
0.00260756
-0.00149624
4.53577e-05
-0.00111376
-1.42257e-05
1.41959e-05
-1.69647e-05
0.433841
0.236363
0.362441
0.410284
-0.000121032
0.0189455
0.0114572
-2.57678e-05
9.85295e-05
6.25207e-05
2.61235e-06
8.22683e-06
-7.36828e-06
1.0495e-05
-0.00852764
0.00205739
-5.71769e-05
0.000109655
5.70777e-05
0.0755621
1.3656e-05
1.11964e-05
-9.75396e-06
1.60917e-05
0.00110121
-8.32094e-05
-0.000630152
0.000103632
0.61579
0.0766323
0.287479
0.152719
-0.0286306
0.00633994
-0.0234185
-3.97162e-08
0.00276038
0.0129431
0.0181435
0.00749118
0.00342565
-0.000173724
0.000125336
0.000145513
-0.00157785
-0.0017682
-0.00314475
-0.002952
0.00608941
-0.00391588
0.00649767
-0.000712448
0.0320635
0.00372648
0.000129355
-0.000174848
0.00854997
0.246386
0.157364
0.392076
0.511606
-0.00184347
-0.0334267
0.0161069
-4.33232e-05
-0.000304058
0.001508
-0.000764682
0.00241463
-0.00283825
-0.00463287
-5.97201e-06
0.000159837
0.0547011
-2.33151e-07
0.49106
0.708148
0.807102
0.761156
0.614271
0.773031
0.00423596
-8.68789e-05
-0.000247204
0.508821
0.569745
0.308803
-0.00151944
0.515014
0.436414
0.74752
0.330575
1.04812e-06
4.21777e-06
5.61241e-07
-0.00706551
-0.0011357
8.38984e-08
-2.95976e-07
-1.5484e-07
-1.22844e-06
2.25649e-05
1.33591e-05
-7.38323e-05
-0.0375167
-0.000861413
0.000988491
-0.000983691
-6.86153e-05
-6.36248e-05
0.000340498
0.000652231
-1.74303e-06
-1.21229e-05
0.261859
0.000899419
0.000529082
-0.00258519
0.000326587
0.000145749
-0.00144367
-0.000523381
-2.24436e-06
-1.44575e-05
-1.75279e-05
-0.00185403
0.00244744
0.00829371
-0.00444935
-2.9881e-08
7.75679e-06
2.81731e-06
-0.0116684
-0.00550196
-3.63395e-05
0.000507027
-0.000314069
0.010168
3.3803e-07
0.000454658
-3.62669e-07
-2.84769e-07
-4.64257e-05
-4.70624e-05
-3.4974e-07
-4.66753e-05
-0.00012912
0.000169646
-1.76077e-05
-6.63732e-05
-0.0141761
2.75534e-06
0.00018901
0.00071625
-0.000103542
-0.0125554
-0.00222005
0.00307335
0.0072923
0.0301572
0.0191442
0.065305
0.0215497
0.0540659
-0.00552684
0.00734428
0.257129
0.0992492
0.150461
2.05729e-05
0.00279154
-3.646e-07
-2.3268e-06
-0.00739193
-0.0145769
0.00276944
0.000677619
0.0060016
0.0327596
0.0607628
0.00254983
0.000607854
-3.44841e-06
0.000225435
3.31873e-08
0.0008767
-3.21109e-06
0.00571501
0.00548903
0.162223
0.0735216
-0.011249
0.0566495
0.14495
0.0729565
-0.00516597
0.0132391
0.00307275
-0.00315708
-0.000552497
-0.00469578
-0.0154953
-0.00235728
-0.000362368
0.00251398
3.20004e-06
4.05699e-06
-9.18742e-06
5.12781e-06
-1.29128e-06
1.85068e-05
-0.0011557
2.82608e-08
0.000590517
-0.00283073
-1.09434e-06
0.00342296
0.000159001
0.00313982
0.0018859
-2.61263e-05
1.37938e-05
0.00470321
-0.000101259
-0.000482278
-0.00106473
0.000361626
0.00153982
0.100673
0.0088968
0.26056
0.00663231
0.000649446
0.0112898
-0.0143398
-0.0120045
0.00280287
0.0776362
0.564482
0.505108
-0.0054718
0.00210579
-0.000195796
0.463169
0.365083
0.693968
3.78793e-08
0.716936
0.724689
0.63564
0.586646
0.469361
2.10239e-05
-6.46186e-05
-0.000114342
7.21659e-05
9.83678e-05
-6.70895e-05
-2.75367e-05
0.000174729
-0.000407437
-0.000359142
-7.98614e-05
3.20048e-05
-6.76921e-05
-6.16407e-06
-3.29575e-06
3.56171e-05
2.18614e-05
4.60119e-05
9.73163e-07
4.93886e-06
-1.43011e-05
-4.97608e-05
-7.56289e-05
-0.000114371
0.433619
0.413894
0.336166
0.213806
0.0436954
0.0370776
0.00839734
0.00132105
0.0205074
0.0190116
6.15376e-07
-0.00105404
0.000198301
-0.00702216
-0.00325121
0.203147
-0.0307688
0.0120612
0.00148294
0.000454431
0.00107266
0.0011467
0.683943
0.000573053
0.222382
-0.000144884
0.0812341
0.0124692
-0.000184525
-7.57905e-05
6.27991e-05
9.27308e-08
8.15761e-08
0.00179783
-0.000742315
0.0124259
0.641568
0.199506
0.163227
1.15969e-06
-1.02038e-06
-2.53335e-07
2.84729e-07
2.70057e-06
0.51357
0.310592
-0.00484997
0.00132733
0.037099
0.0577374
0.0123293
2.98747e-07
0.0220815
-0.00977804
-0.00643197
0.0104966
0.000488195
0.000971503
0.000556401
3.77391e-07
0.655132
0.314863
0.192229
0.255606
0.353858
0.0464295
-0.0140254
0.0223607
0.0100156
0.00355298
-0.00351023
-0.00273211
-0.000392586
-0.00302502
0.00352152
0.669761
0.724969
0.738783
0.00522553
-0.000256195
-2.43682e-07
0.464267
0.434515
0.00841709
-0.00441064
0.00842549
0.0010421
0.000415322
0.000518025
4.90836e-06
-3.24715e-07
-0.011802
-0.0237811
-0.00820435
-0.0091815
-0.0142383
3.68133e-10
0.00358468
0.0291278
-0.000590751
-4.597e-05
0.000111473
0.00265504
0.0157722
-0.00120754
0.0344867
0.0980386
0.00841714
0.259806
0.197417
0.0311817
0.106266
0.273605
0.194243
0.316482
0.168972
-0.00234713
-0.000145642
0.615677
0.703334
0.614601
0.0232407
-0.00778224
0.0109816
0.00876696
0.0043941
-0.00164159
-1.34016e-05
0.112168
2.20565e-05
0.0092978
-0.00388725
0.0001799
0.000301815
0.00174762
-0.00127827
-0.00137311
2.6417e-05
3.07424e-06
2.86055e-07
-1.73885e-06
1.60573e-09
1.90153e-09
-4.04745e-10
-0.00408048
0.0101223
0.0310305
0.0484202
0.123389
0.0434066
0.0898042
0.111999
-0.0047479
0.00114907
0.000329683
0.000794992
5.23347e-05
-2.55417e-05
0.0141153
0.00617052
0.0335462
0.104374
-0.00489576
-0.00270983
-0.00187071
0.00375629
-0.000538748
-0.0087495
0.0151963
0.64465
8.18294e-05
0.437792
0.291604
0.294199
-2.18802e-07