# vtk DataFile Version 2.0
Unstructured Grid by M++
ASCII
DATASET UNSTRUCTURED_GRID
POINTS 4072 float
  0.875000   1.000000 0
  0.875000   0.984375 0
  0.875000   0.968750 0
  0.875000   0.953125 0
  0.875000   0.937500 0
  0.875000   0.921875 0
  0.875000   0.906250 0
  0.875000   0.890625 0
  0.875000   0.875000 0
  0.875000   0.859375 0
  0.875000   0.843750 0
  0.875000   0.828125 0
  0.875000   0.812500 0
  0.875000   0.796875 0
  0.875000   0.781250 0
  0.875000   0.765625 0
  0.859375   1.000000 0
  0.859375   0.984375 0
  0.859375   0.968750 0
  0.859375   0.953125 0
  0.859375   0.937500 0
  0.859375   0.921875 0
  0.859375   0.890625 0
  0.859375   0.875000 0
  0.859375   0.859375 0
  0.859375   0.843750 0
  0.859375   0.828125 0
  0.859375   0.812500 0
  0.859375   0.796875 0
  0.859375   0.781250 0
  0.859375   0.765625 0
  0.859375   0.671875 0
  0.859375   0.656250 0
  0.859375   0.640625 0
  0.843750   1.000000 0
  0.843750   0.984375 0
  0.843750   0.968750 0
  0.843750   0.953125 0
  0.843750   0.937500 0
  0.843750   0.921875 0
  0.843750   0.906250 0
  0.843750   0.875000 0
  0.843750   0.859375 0
  0.843750   0.843750 0
  0.843750   0.828125 0
  0.843750   0.812500 0
  0.843750   0.796875 0
  0.843750   0.781250 0
  0.843750   0.765625 0
  0.843750   0.671875 0
  0.843750   0.656250 0
  0.843750   0.640625 0
  0.828125   1.000000 0
  0.828125   0.984375 0
  0.828125   0.968750 0
  0.828125   0.953125 0
  0.828125   0.937500 0
  0.828125   0.921875 0
  0.875000   0.671875 0
  0.812500   0.921875 0
  0.890625   0.656250 0
  0.828125   0.906250 0
  0.875000   0.656250 0
  0.812500   0.906250 0
  0.890625   0.640625 0
  0.828125   0.890625 0
  0.875000   0.640625 0
  0.812500   0.890625 0
  0.890625   0.625000 0
  0.828125   0.875000 0
  0.890625   0.609375 0
  0.828125   0.859375 0
  0.890625   0.593750 0
  0.828125   0.843750 0
  0.890625   0.578125 0
  0.828125   0.828125 0
  0.890625   0.562500 0
  0.828125   0.812500 0
  0.828125   0.796875 0
  0.828125   0.781250 0
  0.828125   0.765625 0
  0.828125   0.671875 0
  0.828125   0.656250 0
  0.828125   0.640625 0
  0.875000   0.750000 0
  0.812500   1.000000 0
  0.875000   0.625000 0
  0.812500   0.875000 0
  0.875000   0.734375 0
  0.812500   0.984375 0
  0.875000   0.718750 0
  0.812500   0.968750 0
  0.875000   0.703125 0
  0.812500   0.953125 0
  0.875000   0.687500 0
  0.812500   0.937500 0
  0.875000   0.609375 0
  0.812500   0.859375 0
  0.875000   0.593750 0
  0.812500   0.843750 0
  0.875000   0.578125 0
  0.812500   0.828125 0
  0.812500   0.812500 0
  0.875000   0.546875 0
  0.812500   0.796875 0
  0.812500   0.781250 0
  0.812500   0.765625 0
  0.859375   0.750000 0
  0.796875   1.000000 0
  0.859375   0.625000 0
  0.796875   0.875000 0
  0.859375   0.734375 0
  0.796875   0.984375 0
  0.859375   0.718750 0
  0.796875   0.968750 0
  0.859375   0.703125 0
  0.796875   0.953125 0
  0.859375   0.687500 0
  0.796875   0.937500 0
  0.859375   0.609375 0
  0.796875   0.859375 0
  0.859375   0.593750 0
  0.796875   0.843750 0
  0.859375   0.578125 0
  0.796875   0.828125 0
  0.859375   0.562500 0
  0.796875   0.812500 0
  0.796875   0.796875 0
  0.859375   0.531250 0
  0.796875   0.781250 0
  0.796875   0.765625 0
  0.843750   0.750000 0
  0.781250   1.000000 0
  0.843750   0.625000 0
  0.781250   0.875000 0
  0.843750   0.734375 0
  0.781250   0.984375 0
  0.843750   0.718750 0
  0.781250   0.968750 0
  0.843750   0.703125 0
  0.781250   0.953125 0
  0.843750   0.687500 0
  0.781250   0.937500 0
  0.843750   0.609375 0
  0.781250   0.859375 0
  0.843750   0.593750 0
  0.781250   0.843750 0
  0.843750   0.578125 0
  0.781250   0.828125 0
  0.781250   0.812500 0
  0.843750   0.546875 0
  0.781250   0.796875 0
  0.781250   0.781250 0
  0.843750   0.515625 0
  0.781250   0.765625 0
  0.828125   0.750000 0
  0.765625   1.000000 0
  0.828125   0.625000 0
  0.765625   0.875000 0
  0.828125   0.734375 0
  0.765625   0.984375 0
  0.828125   0.718750 0
  0.765625   0.968750 0
  0.828125   0.703125 0
  0.765625   0.953125 0
  0.828125   0.687500 0
  0.765625   0.937500 0
  0.828125   0.609375 0
  0.765625   0.859375 0
  0.828125   0.593750 0
  0.765625   0.843750 0
  0.828125   0.578125 0
  0.765625   0.828125 0
  0.828125   0.562500 0
  0.765625   0.812500 0
  0.765625   0.796875 0
  0.828125   0.531250 0
  0.765625   0.781250 0
  0.765625   0.765625 0
  0.812500   0.750000 0
  0.750000   1.000000 0
  0.953125   1.000000 0
  0.812500   0.734375 0
  0.750000   0.984375 0
  0.812500   0.718750 0
  0.750000   0.968750 0
  0.812500   0.703125 0
  0.750000   0.953125 0
  0.812500   0.687500 0
  0.750000   0.937500 0
  0.812500   0.671875 0
  0.750000   0.921875 0
  0.812500   0.656250 0
  0.750000   0.906250 0
  0.812500   0.640625 0
  0.750000   0.890625 0
  0.812500   0.625000 0
  0.750000   0.875000 0
  0.812500   0.609375 0
  0.750000   0.859375 0
  0.812500   0.593750 0
  0.750000   0.843750 0
  0.812500   0.578125 0
  0.750000   0.828125 0
  0.750000   0.812500 0
  0.812500   0.546875 0
  0.750000   0.796875 0
  0.750000   0.781250 0
  0.812500   0.515625 0
  0.750000   0.765625 0
  0.796875   0.750000 0
  0.734375   1.000000 0
  0.796875   0.734375 0
  0.734375   0.984375 0
  0.796875   0.718750 0
  0.734375   0.968750 0
  0.796875   0.703125 0
  0.734375   0.953125 0
  0.796875   0.687500 0
  0.734375   0.937500 0
  0.796875   0.671875 0
  0.734375   0.921875 0
  0.796875   0.656250 0
  0.734375   0.906250 0
  0.796875   0.640625 0
  0.734375   0.890625 0
  0.796875   0.625000 0
  0.734375   0.875000 0
  0.796875   0.609375 0
  0.734375   0.859375 0
  0.796875   0.593750 0
  0.734375   0.843750 0
  0.796875   0.578125 0
  0.734375   0.828125 0
  0.734375   0.812500 0
  0.734375   0.796875 0
  0.796875   0.531250 0
  0.734375   0.781250 0
  0.734375   0.765625 0
  0.781250   0.750000 0
  0.718750   1.000000 0
  0.921875   1.000000 0
  0.781250   0.734375 0
  0.718750   0.984375 0
  0.781250   0.718750 0
  0.718750   0.968750 0
  0.781250   0.703125 0
  0.718750   0.953125 0
  0.859375   0.906250 0
  0.781250   0.687500 0
  0.718750   0.937500 0
  0.781250   0.671875 0
  0.718750   0.921875 0
  0.781250   0.656250 0
  0.718750   0.906250 0
  0.781250   0.640625 0
  0.718750   0.890625 0
  0.781250   0.625000 0
  0.718750   0.875000 0
  0.781250   0.609375 0
  0.718750   0.859375 0
  0.781250   0.593750 0
  0.718750   0.843750 0
  0.781250   0.578125 0
  0.718750   0.828125 0
  0.781250   0.562500 0
  0.718750   0.812500 0
  0.781250   0.546875 0
  0.718750   0.796875 0
  0.781250   0.531250 0
  0.718750   0.781250 0
  0.781250   0.515625 0
  0.718750   0.765625 0
  0.765625   0.750000 0
  0.703125   1.000000 0
  0.765625   0.734375 0
  0.703125   0.984375 0
  0.765625   0.718750 0
  0.703125   0.968750 0
  0.765625   0.703125 0
  0.703125   0.953125 0
  0.765625   0.687500 0
  0.703125   0.937500 0
  0.843750   0.890625 0
  0.703125   0.921875 0
  0.765625   0.656250 0
  0.703125   0.906250 0
  0.765625   0.640625 0
  0.703125   0.890625 0
  0.765625   0.625000 0
  0.703125   0.875000 0
  0.765625   0.609375 0
  0.703125   0.859375 0
  0.765625   0.593750 0
  0.703125   0.843750 0
  0.765625   0.578125 0
  0.703125   0.828125 0
  0.765625   0.562500 0
  0.703125   0.812500 0
  0.765625   0.546875 0
  0.703125   0.796875 0
  0.765625   0.531250 0
  0.703125   0.781250 0
  0.765625   0.515625 0
  0.703125   0.765625 0
  0.750000   0.750000 0
  0.687500   1.000000 0
  0.890625   1.000000 0
  0.750000   0.734375 0
  0.687500   0.984375 0
  0.750000   0.718750 0
  0.687500   0.968750 0
  0.578125   0.796875 0
  0.578125   0.781250 0
  0.578125   0.765625 0
  0.546875   0.953125 0
  0.546875   0.968750 0
  0.546875   0.718750 0
  0.546875   0.687500 0
  0.250000   0.609375 0
  0.937500   0.031250 0
  0.046875   0.703125 0
  0.734375   0.062500 0
  0.734375   0.078125 0
  0.734375   0.046875 0
  0.046875   0.593750 0
  0.046875   0.562500 0
  0.046875   0.531250 0
  0.718750   0.156250 0
  0.046875   0.609375 0
  0.734375   0.031250 0
  0.062500   0.609375 0
  0.234375   0.703125 0
  0.718750   0.125000 0
  0.046875   0.578125 0
  0.734375   0.000000 0
  0.062500   0.578125 0
  0.000000   0.828125 0
  0.234375   0.671875 0
  0.234375   0.625000 0
  0.718750   0.093750 0
  0.687500   0.156250 0
  0.062500   0.546875 0
  0.000000   0.796875 0
  0.718750   0.046875 0
  0.031250   0.687500 0
  0.687500   0.171875 0
  0.500000   1.000000 0
  0.078125   0.218750 0
  0.234375   0.593750 0
  0.718750   0.062500 0
  0.687500   0.125000 0
  0.000000   0.765625 0
  0.421875   0.500000 0
  0.031250   0.593750 0
  0.718750   0.015625 0
  0.687500   0.234375 0
  0.015625   0.812500 0
  0.703125   0.171875 0
  0.703125   0.187500 0
  0.703125   0.140625 0
  0.015625   0.781250 0
  0.437500   0.515625 0
  0.500000   0.796875 0
  0.078125   0.015625 0
  0.687500   0.203125 0
  0.250000   0.578125 0
  0.703125   0.109375 0
  0.000000   0.515625 0
  0.500000   0.765625 0
  0.062500   0.593750 0
  0.750000   0.015625 0
  0.015625   0.843750 0
  0.687500   0.000000 0
  0.500000   0.828125 0
  0.078125   0.046875 0
  0.015625   0.531250 0
  0.250000   0.546875 0
  0.703125   0.078125 0
  0.703125   0.031250 0
  0.015625   0.671875 0
  0.250000   0.515625 0
  0.000000   0.656250 0
  0.500000   0.906250 0
  0.078125   0.125000 0
  0.687500   0.015625 0
  0.031250   0.546875 0
  0.687500   0.031250 0
  0.500000   0.859375 0
  0.703125   0.000000 0
  0.703125   0.046875 0
  0.703125   0.015625 0
  0.500000   0.937500 0
  0.234375   0.531250 0
  0.031250   0.578125 0
  0.687500   0.062500 0
  0.500000   0.890625 0
  0.031250   0.796875 0
  0.453125   0.531250 0
  0.500000   0.968750 0
  0.078125   0.187500 0
  0.234375   0.562500 0
  0.031250   0.609375 0
  0.718750   0.031250 0
  0.687500   0.093750 0
  0.750000   0.046875 0
  0.000000   0.937500 0
  0.421875   0.671875 0
  0.718750   0.187500 0
  0.031250   0.828125 0
  0.765625   0.062500 0
  0.015625   0.953125 0
[...]
CELL_DATA 7648
SCALARS scalar_value float 1
LOOKUP_TABLE default
0.000599747
0.00220899
0.000711852
-0.000635339
0.00124489
0.00135316
5.06446e-05
-0.00841952
-0.00408902
-0.00120837
0.00175716
-5.87347e-05
0.00015589
0.647338
0.646516
0.00148625
0.0337723
-0.012998
-0.0100975
1.45961e-06
0.00205791
0.00248811
-0.00665168
-9.69481e-05
0.00792336
-0.0031339
-0.00737294
-0.00732742
-0.00240058
0.00146706
0.00140745
-0.0325797
0.010076
0.000307742
0.000211599
0.000198995
-1.43776e-05
-0.000234705
-0.00127356
-0.000236547
-0.000171978
0.0022698
0.00105612
0.000142558
-4.4495e-05
0.000374852
0.000178635
-0.000676629
0.00339616
-0.00135776
2.43046e-05
0.000108268
0.000107962
0.000753995
0.00169516
-0.00773791
-0.00233257
0.00385277
-0.0019536
4.13215e-05
-1.68333e-05
0.0081141
-7.39143e-05
0.000166169
-0.00205988
0.00562036
-0.0122841
0.000397241
-0.00583007
-7.571e-05
-5.57028e-05
-5.07676e-05
-4.19414e-07
-2.34309e-06
5.82814e-05
0.0074232
-0.00159389
0.00626167
0.00423237
-0.00333258
2.44657e-05
0.00187833
0.0358773
0.000847435
2.08761e-06
4.35123e-05
0.0935994
-0.0097053
-0.00303236
-0.00943594
0.193416
-0.0077939
0.000662938
0.000326191
-0.000464363
0.000555215
0.000230193
0.000147027
-0.00267843
0.232472
0.295643
-4.11097e-05
-1.29284e-05
1.90462e-05
0.0387651
0.594045
-0.000212733
0.00056875
-0.00219057
0.0096342
-4.00471e-05
0.000131427
0.00429838
0.00108741
0.0241416
0.0130913
-0.00225346
0.291834
0.220414
0.538793
0.234931
-0.00174194
-0.00356499
0.000197296
-1.23558e-06
7.18488e-06
-3.16499e-05
0.00614974
0.00013581
-0.00186158
0.00807563
0.00023049
0.00229512
0.00274019
0.000103241
0.000106437
-0.00754537
-0.00432447
-0.00223984
-0.00124084
-0.00123744
-4.45671e-06
-2.35966e-05
9.47475e-05
0.00229216
-4.04492e-05
4.16411e-06
8.66507e-05
4.36088e-06
-0.000384946
1.66728e-05
2.04104e-05
0.000287028
0.620967
-5.05699e-05
0.327084
-0.00235431
0.00305729
0.00118515
0.00255972
0.000326519
-0.000933643
0.00105285
-1.08702e-05
0.00147949
0.00104536
0.000753287
-0.000218212
1.33235e-05
0.00496115
-1.34804e-05
-0.000219442
-9.60002e-07
-1.17591e-06
0.00476202
-0.0033087
0.00677725
3.97451e-06
-7.75646e-05
0.00227131
-0.000359136
3.02628e-05
-0.000555182
0.000376256
0.000201244
-0.00172113
-0.00256241
0.000420764
-2.61901e-05
-0.000407712
0.0176132
0.000595731
0.000404998
6.37074e-06
1.74236e-05
7.57258e-05
-0.000117975
0.0116505
1.50994e-05
0.000773254
0.00054738
-0.00344814
-0.00467342
-0.00128158
0.000324418
-9.12199e-05
0.000247484
0.00339137
-0.00271856
-5.16265e-06
-1.80756e-05
-0.00538057
0.000419923
4.49827e-05
0.000619348
0.00563221
0.000278177
0.0045038
0.00327152
0.00136212
-0.000583996
0.000358468
-0.00038357
-0.000920755
-0.000245732
-0.00227145
-0.00227963
-0.00024233
-0.00039584
-0.0100714
0.0119219
0.00216307
0.00129891
0.000751182
1.39207e-06
-0.000113559
-0.00105946
-0.00100064
4.52091e-05
0.0410981
7.76653e-06
0.326535
-0.00173487
0.0105774
0.0355018
-2.89202e-06
0.643786
0.637832
0.704262
0.00214231
-0.000259469
0.00142987
0.000998491
0.00150986
6.2896e-05
2.30192e-06
9.56672e-06
0.00109022
3.81727e-05
-0.00979643
-0.00137989
0.00197558
-0.006387
0.00505029
-0.00400328
0.00491182
0.00374506
0.481832
0.668671
0.0177048
0.00240803
3.46671e-07
0.0184027
0.0090128
0.00708885
0.00244347
-0.00073492
-0.00143271
0.00346761
-0.00313495
-0.0046385
-0.00107961
-0.00635107
0.00814451
0.0246776
-0.0334972
0.0731162
-0.00658791
0.00910431
-0.023275
0.0192511
0.189059
0.327531
-0.00177356
-0.0112955
0.0104348
0.00980299
-0.0371797
0.00367657
0.0762069
0.0101873
-0.00838988
0.000483476
0.00199606
-0.00676887
-0.00712576
0.000318596
0.00704614
8.36875e-05
-0.00707366
-2.78127e-05
-0.00607311
0.0954305
0.0146685
-0.000291405
-0.00428821
-0.00372763
0.000792268
-0.00359075
0.00236655
-0.000391386
7.72859e-05
2.51853e-05
-4.20524e-05
1.89646e-06
-0.00684376
0.000351966
-0.000403987
8.38449e-05
-0.000397852
0.000345364
0.0019192
-1.6461e-05
0.0020018
-0.00196605
4.70417e-05
3.9012e-06
0.000204483
-1.24375e-05
8.4228e-05
-0.00060116
0.013809
0.000878892
-0.000849538
-0.000874407
0.00203304
0.00130641
-0.00504318
6.30717e-05
4.91355e-06
0.310581
-0.00261903
-0.00571845
0.000845906
0.00250129
2.68942e-05
0.00069326
0.000212386
0.00248819
-0.00118916
0.00960416
-5.15502e-05
0.00541624
8.76643e-07
0.00563218
-8.83138e-05
-0.0023872
-0.00553312
0.00442454
-0.00374436
0.00373853
-1.54683e-06
5.94657e-05
0.00213988
0.00024089
0.0112033
0.000210994
-0.00202431
0.00328278
0.00281494
0.00397694
-0.00250582
0.00199202
-0.00361143
-0.00386289
0.000494073
-0.000120786
-0.00212643
-0.000206093
0.00170473
0.000926243
5.04975e-05
0.00188267
0.00195124
0.000668645
-0.00280475
-0.00133264
-0.00209978
-0.00196171
0.00107664
0.000385538
-0.00513553
6.12858e-05
-9.25657e-05
-0.000211075
-5.85755e-06
0.000357598
0.00223337
0.00415862
-0.000115505
-0.01518
0.0409046
-4.28877e-06
0.0276883
0.0298717
0.733069
0.000566535
0.000133646
-0.000159614
-0.0015366
0.00132661
-0.000184669
0.00075797
0.00338807
0.00429398
9.71232e-05
-0.000359168
-0.00512295
0.00301133
0.134391
0.69339
-0.0119392
6.34546e-07
0.00060399
0.00518928
0.000540998
7.10679e-05
4.79804e-05
-0.000127067
1.63324e-05
-0.00208574
0.000256304
0.00925686
-0.00166839
-8.72119e-07
4.5492e-06
0.00990214
-6.85733e-05
5.7872e-06
-0.00213592
-3.51548e-07
0.0833817
0.000458523
-0.0011077
0.000310895
4.06203e-05
-0.000778957
0.00742177
0.164854
-0.00145812
-0.000538209
0.000104364
0.301657
-0.000152863
-0.00194224
1.14122e-05
0.000686169
5.2725e-05
0.000125938
-0.000930769
-0.00616888
-0.00217057
0.00401237
9.36154e-06
0.402955
0.0503288
-0.00392375
-2.58682e-07
0.401856
-5.23195e-06
-1.90192e-06
-0.00670697
-0.00567283
-0.00145165
-0.000163976
-0.00418771
4.82957e-06
1.32771e-05
1.81071e-06
-0.00651702
0.000109558
2.12521e-05
-1.42173e-05
0.00039195
0.127039
-0.00985394
-0.00045677
-0.000104428
-4.99142e-05
1.6744e-05
0.00172472
0.000124443
-0.000258218
0.00309566
0.000254433
-0.000194209
-2.6905e-05
-0.00010801
0.00549276
-0.000155495
0.00152472
-0.000201235
0.000126747
0.127825
-0.0110832
-0.00717909
-2.82411e-07
-0.00284839
0.00248986
0.377411
0.628926
0.0256795
-1.52e-06
-0.000785533
-0.0010104
-0.000105791
0.000448159
-1.74729e-06
0.00843607
-0.0234665
0.00151093
0.000162972
0.000453338
0.0449165
-0.00013319
-5.89275e-07
-0.000180912
-1.14597e-06
0.194219
0.0197675
-0.000333088
1.17676e-05
0.00112191
-0.000356916
-0.0399477
-0.00672255
0.00343659
0.00117072
0.000355732
-0.000715017
0.00187979
0.0022721
-0.00078172
0.012959
-0.000308876
-0.000787863
7.90492e-05
-0.00540978
-4.90893e-05
0.00169608
-0.00048376
0.00105714
-0.00246715
-0.000628368
0.00288991
-0.000155792
0.00595968
0.000423815
0.00586248
4.31281e-05
-9.38938e-06
0.00230377
0.000377602
0.00374462
-0.00292073
0.0144184
0.000751582
5.92321e-07
0.00311488
7.47006e-06
0.0233641
-0.00159332
0.00663716
-0.00270089
0.000125078
0.00272898
-0.00581041
0.0001131
-0.00468271
-0.000460657
0.000124859
0.000686906
-0.00321955
0.16903
-2.1031e-06
6.54193e-08
0.00563143
0.411376
0.0312924
-0.00753836
0.0010827
0.000116424
0.00199117
0.00478514
0.000286403
-0.00138239
0.0018001
-0.00184513
0.00108848
0.00216429
0.00235941
-0.00993401
-0.000105782
0.00640678
-0.00201317
-0.00238846
-0.00164568
-0.0101809
0.00137175
-0.00441449
0.000318709
-0.00409788
0.00152401
-0.000967083
0.00239471
0.000223742
-0.00158672
-0.002699
0.00344158
0.000752576
0.000114402
0.00033646
-0.00270457
0.00187777
0.000506815
-0.000486646
0.0086598
0.677367
0.50277
0.00061043
0.000202977
-0.00318114
0.000100869
-0.000712998
0.000750273
0.000458856
-0.000238353
0.00313225
-0.00137233
0.000175467
-0.00407131
0.539872
0.00366394
0.00275397
0.00208616
0.000619621
-0.00828116
0.0119452
0.00102081
0.0451395
2.98199e-05
0.00322455
0.0510619
-0.0113671
0.00627267
-0.000980513
-0.0117519
0.0821848
0.0042236
0.000739815
-0.0153716
-0.0092456
-3.27222e-06
0.431883
0.000432582
-0.00478162
0.00346651
-0.0121098
0.00211467
5.85716e-06
0.0147777
0.00398305
0.00203808
0.00964698
2.57397e-05
0.00249178
0.00585721
0.0118916
-9.97961e-05
2.2875e-05
-0.00464095
1.42984e-05
0.303998
-0.00172952
-0.00393828
-0.00635653
0.00186669
-2.91671e-05
-2.6838e-05
-2.14159e-06
-0.00759349
5.79679e-06
0.00522149
0.00158514
-0.00731236
0.000315385
0.000920257
6.56986e-06
7.97349e-05
-0.00569488
-0.00455347
-0.0169106
-0.00371853
0.00305483
-0.00105754
-0.00166502
0.00175648
-0.00571469
-0.000517251
-0.000186579
-0.0014727
-0.00650215
-8.46917e-05
-0.00764919
0.00236298
0.00275211
0.000372487
0.00174482
-0.0111345
0.00401814
0.000251267
-0.000153141
-2.2388e-05
-0.000220844
-7.22899e-07
1.86872e-05
-0.00179781
-0.000523392
-3.93108e-05
3.61427e-05
-0.000285004
-0.000745664
-0.00111552
0.000935867
-0.0133915
0.000147266
0.00239021
-0.00353074
5.48293e-06
-0.00532129
4.38663e-06
-0.0388202
0.000125976
-8.94079e-05
0.743054
0.000483873
0.000265711
0.000374802
-0.00652328
0.747574
-0.00388397
4.80632e-07
0.000807005
0.00501803
-0.000139038
0.000407893
-0.0102233
-2.782e-05
-0.000471517
0.000101483
-0.000276253
-0.000309675
6.14699e-05
0.0221031
8.7545e-05
0.000977935
1.2773e-05
0.0352704
0.000558565
0.00843046
-1.67031e-05
4.21637e-05
8.72328e-06
-0.000200825
-0.00081163
-9.31024e-05
0.000278032
0.000930263
0.00109594
0.319124
-0.018382
-1.33301e-06
-0.0079325
-0.00071693
-0.0027568
0.00586086
0.00634744
0.00255502
-0.000590452
-4.38907e-05
0.731455
0.0011888
-0.00202551
0.00283304
-0.00507803
0.00523577
-0.0068367
0.00318436
0.000918057
-0.0369015
0.00286047
-0.00917051
0.000424777
-0.00781203
0.00620314
0.606497
0.00357241
0.385422
-0.00169288
0.0110038
-0.0126764
0.227469
0.000950849
-0.00187455
0.76661
0.753442
-8.19435e-07
-0.001495
0.122596
4.46759e-05
-0.000412708
0.00864097
-0.00397188
-3.36214e-07
0.00362718
-0.00123867
-0.00105769
0.00650613
1.40957e-05
0.00512542
-0.0112792
-0.00295846
0.124327
0.500878
0.000552949
0.000249232
0.00151755
-0.00175067
-0.0022338
5.19818e-06
-0.000356517
0.459686
-0.0032188
0.000820299
-0.00167283
-0.00785205
-0.00236771
-0.000975168
-0.00135049
-0.00411392
-0.00117024
-0.0031589
0.00056329
0.000970997
0.0129617
0.000110128
-0.00328403
0.00121302
0.00142064
-0.00126637
-0.00141923
-0.00212601
7.18439e-05
-0.00097426
-8.38605e-05
0.652044
0.00079486
0.513268
0.00767197
0.497964
0.557188
0.00143886
-0.00159513
-6.14267e-05
-0.000162536
0.648618
-0.00940811
0.00705087
0.00250463
-0.000728106
0.00427694
0.00566251
-0.000241908
-0.0212336
0.172456
0.00151609
0.00331049
-2.7909e-06
-9.18905e-07
-0.00174918
1.15339e-06
-2.66233e-05
-1.26248e-05
3.37437e-05
-0.000320019
0.00458906
0.0145914
5.698e-05
0.00573583
0.000153061
0.017262
-0.000825708
-0.000116514
0.000310488
0.00232515
-0.000363409
0.000888839
1.63632e-06
-0.00259626
-3.36748e-06
0.00316363
1.62705e-06
0.0521372
-0.00129225
0.099945
0.285699
0.00240167
0.544619
0.0035388
0.0035185
-0.00121167
0.0214123
0.002176
0.000181243
0.00582479
-1.54675e-06
0.000637253
0.0143576
0.0100518
1.30972e-07
0.0010276
-2.64084e-07
0.00654538
0.198356
1.23356e-06
0.00668875
0.000102807
-3.09749e-05
0.00984663
0.000617523
0.000353479
0.000472431
0.0117233
-0.00201824
-0.00350123
0.000731059
-5.817e-07
0.00202261
-0.00229232
-0.000525642
0.000403851
6.0134e-05
-0.000248048
4.56919e-05
-8.14787e-05
-0.00225357
-0.000534319
7.27753e-05
0.000878534
-3.75866e-06
-2.71487e-06
-1.49669e-05
0.00198514
-1.63787e-06
0.000202389
0.211335
0.24368
1.92709e-06
0.000891878
-0.000181847
0.000535042
0.122015
0.000142449
0.629473
0.174955
0.00902475
4.3579e-05
0.173993
-8.99081e-05
0.00221498
-0.00280593
0.275954
0.00656433
0.000104469
4.75825e-06
0.000131481
-1.73166e-05
-0.000173192
0.00119828
-0.000355576
0.556192
0.000149899
-1.86068e-06
-6.6888e-07
-3.40742e-07
-0.00865137
0.00289596
0.0761011
0.193205
0.131004
-0.000414328
0.0003844
1.76702e-05
-0.0014622
0.0011585
-0.00467929
0.00286297
-1.34535e-07
-4.30599e-06
-0.000942937
-0.00102098
-0.0111432
0.00110661
0.00152307
0.581804
0.00010834
0.000107054
-0.000958521
-0.000167261
7.02665e-05
0.747853
0.645102
0.000412087
-0.00164198
8.93841e-06
6.61669e-06
0.0205098
-0.000750877
0.000552645
-0.000894245
0.000412548
-0.00269744
0.00115752
-0.000331551
-0.00943791
0.00512103
0.000438026
0.000315284
0.0482073
0.00146778
-5.07136e-05
9.71631e-05
0.000259299
-0.000390764
-5.50635e-05
0.013991
1.17454e-05
0.000154999
1.3172e-06
-3.62223e-06
-0.000478049
1.21368e-05
9.22414e-05
-0.000112081
-5.63793e-06
0.000355945
0.0221729
0.031959
0.0188825
0.000175232
0.000341414
2.08041e-05
-0.00427871
-0.0193006
-0.00331991
0.0010487
-0.000251109
-0.00125338
0.00627057
0.0262917
0.0110031
0.000472494
7.54224e-05
4.66277e-06
0.00233204
-0.000327317
0.00249142
-1.68341e-05
-0.00159837
0.261888
0.000504227
-0.000394997
0.00211709
-7.4343e-06
0.00271917
-5.32778e-05
-0.00112242
-0.00299839
-0.00476931
0.00254381
0.0316036
-0.00014838
0.0111833
-1.11619e-06
0.00279845
0.0178405
-0.000772327
-0.00489473
-0.00929244
-0.000754814
0.00975261
-1.12755e-05
0.0593269
0.00605404
-0.000576304
0.082706
8.01916e-06
-0.00243619
1.55809e-05
-0.000133029
0.00190809
-0.00147386
-0.0109314
-0.00837564
2.3712e-06
-8.18614e-06
1.33611e-05
1.2995e-05
0.0603442
0.12447
-0.0472306
0.0131821
-0.000459809
4.6208e-05
0.000160163
-9.85836e-05
-0.000176565
-0.000166429
-0.00013452
-2.90728e-05
-9.14428e-05
6.30548e-06
6.38227e-06
5.86691e-06
3.10872e-06
0.00181376
-0.00169114
-0.00192325
-0.00411686
-0.00172622
-0.00539686
-0.0112521
-0.0129608
0.00903791
0.00348984
0.00254711
6.64798e-08
0.000146111
1.13506e-05
-0.000528927
0.000151829
0.000307714
0.000111013
-0.000497584
0.133107
0.00282105
0.015028
0.0552759
0.00343918
0.00344331
-0.00483914
0.337192
0.438946
0.285347
0.171464
-0.00418929
0.00485414
0.000287735
0.00548473
0.00281619
0.0953645
-0.0158926
-0.00221865
0.00225428
-0.00154892
0.00370558
0.00492441
-0.000856863
0.00493764
0.000493237
0.000497779
-0.000426969
0.000556782
6.02751e-05
0.00135346
-0.000880802
-0.00138208
2.31931e-05
0.0258392
-0.00181118
-0.00637026
0.00282688
-0.00138018
7.95218e-06
0.0196003
0.0271457
0.121698
0.0767354
0.168071
0.132883
-0.0174463
0.0563917
-2.36871e-06
0.00187591
0.112226
0.0923031
0.0400683
0.0154964
6.43599e-07
-0.00607285
-0.000268614
-0.000203645
-0.000276649
0.000144687
0.000229412
0.000113379
-0.000390688
0.00157987
0.000126106
0.000302405
0.00115147
-0.00682167
-0.00390475
-0.00551801
-5.055e-06
-0.00340684
-0.00356674
0.00204581
-0.000633093
-0.000316171
4.32067e-06
-0.000476077
7.39217e-05
4.08268e-05
-4.58769e-06
-5.94514e-06
2.69584e-05
0.00081981
-0.00695501
-1.35622e-07
0.000843841
0.0149335
0.0128221
-0.00120805
5.1752e-06
0.00971336
8.72907e-07
-0.00029769
-0.00162995
-0.00266253
0.00363795
8.62617e-07
4.85649e-05
3.47983e-05
0.000110371
1.78494e-06
1.14238e-05
1.03668e-05
1.43823e-05
-0.00663264
0.0157581
-0.001516
0.000881878
-0.0307276
0.0283367
0.0626696
-7.82433e-05
0.000599717
0.218061
0.496245
0.392797
0.320935
-7.65669e-05
2.65167e-05
4.66388e-06
0.0265735
4.92333e-08
5.52072e-06
-0.00673822
-1.47841e-05
0.00360031
-0.00481802
0.00581213
0.00178355
-0.00170061
-0.000129002
4.74325e-05
-0.000115574
0.264288
0.49475
0.347141
0.318466
0.000245876
0.000811096
0.00709804
-4.0506e-05
-0.000673666
-0.000447202
-2.60538e-05
5.61955e-05
-3.96554e-07
2.46444e-05
0.00361998
-0.00775722
-7.12055e-05
-3.97428e-05
6.48081e-06
0.587076
-3.34705e-05
7.98769e-05
-6.83982e-05
-5.16469e-05
-0.00618242
-0.00506241
0.000847675
7.94176e-05
0.151002
0.586796
0.521151
0.583044
0.00313057
-0.00328183
0.00114424
4.82806e-07
0.0105571
-0.00318658
-0.00838894
-0.00159013
-0.0011466
0.000756131
-0.000444324
-0.000472739
-0.00121658
0.00298876
-0.000940224
0.0018443
0.000573449
0.00348176
0.00472157
-0.00155953
-1.33205e-05
0.00106556
-0.00015826
0.00245361
0.190145
0.596841
0.608677
0.470444
0.118463
-0.000933333
-0.0094302
0.0062376
0.000276449
0.00192642
0.00251625
-0.00461577
-0.00871502
-0.00627989
-0.00140892
5.14569e-05
-0.0104119
0.0180158
6.07459e-06
0.0767537
0.13927
0.0136078
0.0607452
0.222186
0.0816089
-0.00679599
-0.00129457
0.000179723
0.372798
0.3214
0.45677
0.232796
-0.0104746
0.0125801
0.0239796
-0.0071728
-1.39148e-05
-3.10372e-05
-1.16076e-05
0.0453941
0.0295305
5.30856e-06
-2.29985e-06
-1.53709e-07
4.27085e-06
9.5758e-05
6.01971e-05
0.000181229
-0.00506483
0.000631109
0.000357414
0.000870573
0.00228531
0.00022894
0.00123535
0.00134513
3.80933e-05
-7.90602e-05
0.0987706
0.000712004
-0.00139809
0.00104306
0.000426129
0.000400653
-1.75209e-05
-0.00237676
-3.73908e-05
5.12944e-05
0.00020309
-0.00277559
-0.00266401
0.615101
-0.00326607
6.26804e-06
1.03593e-06
-3.2476e-05
0.00654778
0.00236536
0.0002064
0.000117379
-0.000204824
0.0066837
2.805e-07
0.00180834
-5.64272e-07
-1.42559e-06
-9.97445e-05
-8.46799e-05
0.000674633
-0.0010899
-0.00188765
-0.000151798
0.000253278
1.9997e-05
0.00622146
3.76375e-05
-3.11303e-05
0.0015348
0.000124313
-0.00926059
-0.00232692
0.0076829
0.0649236
0.660029
0.549213
0.796769
0.728691
0.770106
-0.00368617
0.00184265
0.563209
0.750241
0.665512
1.57149e-06
0.00126032
-5.87524e-06
-1.0985e-05
0.0310485
0.0432635
-0.0093077
-0.000104853
0.000663982
0.715418
0.742429
0.00120218
0.000130262
-3.88693e-05
0.000743347
1.10812e-06
0.00983632
3.68463e-05
0.01027
-0.00168287
0.00332941
-0.00778089
0.00226159
0.00383987
0.610435
0.573594
0.416451
0.0206763
-0.00390809
0.00264136
-0.00139647
0.00355081
0.00713875
0.00139814
-0.00128947
0.00238833
0.00025971
0.000510492
0.000625198
0.000235183
1.31723e-05
2.06847e-05
0.00135141
2.86875e-06
0.0125433
0.00128003
1.66512e-05
0.012815
-0.000101498
-0.000390578
0.00161881
-0.000128198
-0.000250623
-0.0010165
0.00102637
0.0013857
0.00153422
-0.00693094
0.00336089
0.332215
0.24041
0.338598
-0.00177335
-0.00376242
-0.00586378
0.00150883
0.00180473
-0.00246694
0.248038
0.303712
0.280499
-0.0133302
0.00664676
0.00315299
0.134695
0.26669
0.091099
3.44555e-06
-0.0385344
0.0506274
0.0111202
-0.0065689
0.2604
-9.8194e-06
0.000160554
0.000258954
-2.4951e-05
-6.03052e-05
-0.00012503
-6.25224e-05
-0.000124993
0.000177702
0.000176873
0.000248684
-7.5844e-05
0.000166611
-4.57645e-05
-3.41003e-05
3.08039e-05
3.69961e-05
2.04669e-05
-0.00010998
-7.49102e-05
-0.00017336
-6.40867e-05
-3.21387e-05
-0.000326672
-0.00359265
-0.0325057
-0.0086623
-0.00723586
-0.00632562
-0.00332483
-0.00748918
-0.00622526
0.733565
0.723237
-4.98497e-06
-0.000793601
0.000485469
-0.00257741
0.0036881
0.0152285
-0.00410433
-0.000596273
0.00548549
0.000612988
-0.0013292
-0.00189232
0.0237292
-0.00463459
-0.0209736
0.00616512
-0.0189913
-0.0142026
0.000122387
3.80863e-05
-0.000554437
1.0097e-06
-7.22186e-07
-0.00994146
-0.00777698
0.00250594
0.150479
0.520444
0.60683
-2.23588e-05
3.10316e-05
4.41069e-05
-1.11652e-05
-3.24159e-05
0.0714807
0.12655
-0.00173931
0.000286736
-0.0124191
0.00086234
0.0109818
1.11448e-06
0.00272077
0.00118353
0.00219641
-0.00622149
0.00134496
0.00485773
0.000276864
2.2024e-06
-0.00297127
0.00340252
0.501874
0.437528
0.325036
-0.0064507
-0.000405345
0.00495822
-0.00658484
0.00310564
0.00794819
0.00351214
-0.000927468
0.00113521
-0.0044148
0.00736157
0.0207787
0.0252865
0.00477785
-0.00134531
1.69834e-05
0.301067
0.325574
0.00308585
0.00656979
0.00023285
-0.00452472
0.000255059
-0.000309457
-4.09987e-05
-2.26203e-09
-0.00574297
-0.00834991
-0.0174912
-0.0054622
-0.0115708
-5.60105e-07
-0.0130504
0.71495
0.0878325
0.313258
0.111597
0.163458
0.174528
0.196083
0.759654
0.742866
0.313038
0.0304882
0.00293467
-0.000493647
0.00851184
0.554442
0.0339685
0.439998
0.0201678
-0.000606943
0.00232549
-0.0228463
-0.00775634
-0.012428
-0.0056798
0.0378179
0.000785683
0.00753438
0.00210872
0.020285
-2.53011e-05
0.0107456
0.000421473
0.00572034
0.00699757
9.86611e-05
-0.000642235
0.00272661
-0.00551921
0.00272758
-1.72561e-05
2.36569e-05
2.44827e-05
2.82796e-05
-9.90147e-07
6.95769e-07
1.06876e-06
0.00146338
0.00174115
0.70781
0.70295
0.603784
0.727856
0.660807
0.650002
0.00546181
-0.000579026
-0.00128647
-4.29511e-05
-0.000383534
-0.000155706
0.122666
0.136407
0.283546
0.545683
-0.00251629
0.000304874
0.000246936
0.0104353
0.000882459
-0.00239559
-0.00568468