# vtk DataFile Version 2.0
Unstructured Grid by M++
ASCII
DATASET UNSTRUCTURED_GRID
POINTS 4072 float
  0.875000   1.000000 0
  0.875000   0.984375 0
  0.875000   0.968750 0
  0.875000   0.953125 0
  0.875000   0.937500 0
  0.875000   0.921875 0
  0.875000   0.906250 0
  0.875000   0.890625 0
  0.875000   0.875000 0
  0.875000   0.859375 0
  0.875000   0.843750 0
  0.875000   0.828125 0
  0.875000   0.812500 0
  0.875000   0.796875 0
  0.875000   0.781250 0
  0.875000   0.765625 0
  0.859375   1.000000 0
  0.859375   0.984375 0
  0.859375   0.968750 0
  0.859375   0.953125 0
  0.859375   0.937500 0
  0.859375   0.921875 0
  0.859375   0.890625 0
  0.859375   0.875000 0
  0.859375   0.859375 0
  0.859375   0.843750 0
  0.859375   0.828125 0
  0.859375   0.812500 0
  0.859375   0.796875 0
  0.859375   0.781250 0
  0.859375   0.765625 0
  0.859375   0.671875 0
  0.859375   0.656250 0
  0.859375   0.640625 0
  0.843750   1.000000 0
  0.843750   0.984375 0
  0.843750   0.968750 0
  0.843750   0.953125 0
  0.843750   0.937500 0
  0.843750   0.921875 0
  0.843750   0.906250 0
  0.843750   0.875000 0
  0.843750   0.859375 0
  0.843750   0.843750 0
  0.843750   0.828125 0
  0.843750   0.812500 0
  0.843750   0.796875 0
  0.843750   0.781250 0
  0.843750   0.765625 0
  0.843750   0.671875 0
  0.843750   0.656250 0
  0.843750   0.640625 0
  0.828125   1.000000 0
  0.828125   0.984375 0
  0.828125   0.968750 0
  0.828125   0.953125 0
  0.828125   0.937500 0
  0.828125   0.921875 0
  0.875000   0.671875 0
  0.812500   0.921875 0
  0.890625   0.656250 0
  0.828125   0.906250 0
  0.875000   0.656250 0
  0.812500   0.906250 0
  0.890625   0.640625 0
  0.828125   0.890625 0
  0.875000   0.640625 0
  0.812500   0.890625 0
  0.890625   0.625000 0
  0.828125   0.875000 0
  0.890625   0.609375 0
  0.828125   0.859375 0
  0.890625   0.593750 0
  0.828125   0.843750 0
  0.890625   0.578125 0
  0.828125   0.828125 0
  0.890625   0.562500 0
  0.828125   0.812500 0
  0.828125   0.796875 0
  0.828125   0.781250 0
  0.828125   0.765625 0
  0.828125   0.671875 0
  0.828125   0.656250 0
  0.828125   0.640625 0
  0.875000   0.750000 0
  0.812500   1.000000 0
  0.875000   0.625000 0
  0.812500   0.875000 0
  0.875000   0.734375 0
  0.812500   0.984375 0
  0.875000   0.718750 0
  0.812500   0.968750 0
  0.875000   0.703125 0
  0.812500   0.953125 0
  0.875000   0.687500 0
  0.812500   0.937500 0
  0.875000   0.609375 0
  0.812500   0.859375 0
  0.875000   0.593750 0
  0.812500   0.843750 0
  0.875000   0.578125 0
  0.812500   0.828125 0
  0.812500   0.812500 0
  0.875000   0.546875 0
  0.812500   0.796875 0
  0.812500   0.781250 0
  0.812500   0.765625 0
  0.859375   0.750000 0
  0.796875   1.000000 0
  0.859375   0.625000 0
  0.796875   0.875000 0
  0.859375   0.734375 0
  0.796875   0.984375 0
  0.859375   0.718750 0
  0.796875   0.968750 0
  0.859375   0.703125 0
  0.796875   0.953125 0
  0.859375   0.687500 0
  0.796875   0.937500 0
  0.859375   0.609375 0
  0.796875   0.859375 0
  0.859375   0.593750 0
  0.796875   0.843750 0
  0.859375   0.578125 0
  0.796875   0.828125 0
  0.859375   0.562500 0
  0.796875   0.812500 0
  0.796875   0.796875 0
  0.859375   0.531250 0
  0.796875   0.781250 0
  0.796875   0.765625 0
  0.843750   0.750000 0
  0.781250   1.000000 0
  0.843750   0.625000 0
  0.781250   0.875000 0
  0.843750   0.734375 0
  0.781250   0.984375 0
  0.843750   0.718750 0
  0.781250   0.968750 0
  0.843750   0.703125 0
  0.781250   0.953125 0
  0.843750   0.687500 0
  0.781250   0.937500 0
  0.843750   0.609375 0
  0.781250   0.859375 0
  0.843750   0.593750 0
  0.781250   0.843750 0
  0.843750   0.578125 0
  0.781250   0.828125 0
  0.781250   0.812500 0
  0.843750   0.546875 0
  0.781250   0.796875 0
  0.781250   0.781250 0
  0.843750   0.515625 0
  0.781250   0.765625 0
  0.828125   0.750000 0
  0.765625   1.000000 0
  0.828125   0.625000 0
  0.765625   0.875000 0
  0.828125   0.734375 0
  0.765625   0.984375 0
  0.828125   0.718750 0
  0.765625   0.968750 0
  0.828125   0.703125 0
  0.765625   0.953125 0
  0.828125   0.687500 0
  0.765625   0.937500 0
  0.828125   0.609375 0
  0.765625   0.859375 0
  0.828125   0.593750 0
  0.765625   0.843750 0
  0.828125   0.578125 0
  0.765625   0.828125 0
  0.828125   0.562500 0
  0.765625   0.812500 0
  0.765625   0.796875 0
  0.828125   0.531250 0
  0.765625   0.781250 0
  0.765625   0.765625 0
  0.812500   0.750000 0
  0.750000   1.000000 0
  0.953125   1.000000 0
  0.812500   0.734375 0
  0.750000   0.984375 0
  0.812500   0.718750 0
  0.750000   0.968750 0
  0.812500   0.703125 0
  0.750000   0.953125 0
  0.812500   0.687500 0
  0.750000   0.937500 0
  0.812500   0.671875 0
  0.750000   0.921875 0
  0.812500   0.656250 0
  0.750000   0.906250 0
  0.812500   0.640625 0
  0.750000   0.890625 0
  0.812500   0.625000 0
  0.750000   0.875000 0
  0.812500   0.609375 0
  0.750000   0.859375 0
  0.812500   0.593750 0
  0.750000   0.843750 0
  0.812500   0.578125 0
  0.750000   0.828125 0
  0.750000   0.812500 0
  0.812500   0.546875 0
  0.750000   0.796875 0
  0.750000   0.781250 0
  0.812500   0.515625 0
  0.750000   0.765625 0
  0.796875   0.750000 0
  0.734375   1.000000 0
  0.796875   0.734375 0
  0.734375   0.984375 0
  0.796875   0.718750 0
  0.734375   0.968750 0
  0.796875   0.703125 0
  0.734375   0.953125 0
  0.796875   0.687500 0
  0.734375   0.937500 0
  0.796875   0.671875 0
  0.734375   0.921875 0
  0.796875   0.656250 0
  0.734375   0.906250 0
  0.796875   0.640625 0
  0.734375   0.890625 0
  0.796875   0.625000 0
  0.734375   0.875000 0
  0.796875   0.609375 0
  0.734375   0.859375 0
  0.796875   0.593750 0
  0.734375   0.843750 0
  0.796875   0.578125 0
  0.734375   0.828125 0
  0.734375   0.812500 0
  0.734375   0.796875 0
  0.796875   0.531250 0
  0.734375   0.781250 0
  0.734375   0.765625 0
  0.781250   0.750000 0
  0.718750   1.000000 0
  0.921875   1.000000 0
  0.781250   0.734375 0
  0.718750   0.984375 0
  0.781250   0.718750 0
  0.718750   0.968750 0
  0.781250   0.703125 0
  0.718750   0.953125 0
  0.859375   0.906250 0
  0.781250   0.687500 0
  0.718750   0.937500 0
  0.781250   0.671875 0
  0.718750   0.921875 0
  0.781250   0.656250 0
  0.718750   0.906250 0
  0.781250   0.640625 0
  0.718750   0.890625 0
  0.781250   0.625000 0
  0.718750   0.875000 0
  0.781250   0.609375 0
  0.718750   0.859375 0
  0.781250   0.593750 0
  0.718750   0.843750 0
  0.781250   0.578125 0
  0.718750   0.828125 0
  0.781250   0.562500 0
  0.718750   0.812500 0
  0.781250   0.546875 0
  0.718750   0.796875 0
  0.781250   0.531250 0
  0.718750   0.781250 0
  0.781250   0.515625 0
  0.718750   0.765625 0
  0.765625   0.750000 0
  0.703125   1.000000 0
  0.765625   0.734375 0
  0.703125   0.984375 0
  0.765625   0.718750 0
  0.703125   0.968750 0
  0.765625   0.703125 0
  0.703125   0.953125 0
  0.765625   0.687500 0
  0.703125   0.937500 0
  0.843750   0.890625 0
  0.703125   0.921875 0
  0.765625   0.656250 0
  0.703125   0.906250 0
  0.765625   0.640625 0
  0.703125   0.890625 0
  0.765625   0.625000 0
  0.703125   0.875000 0
  0.765625   0.609375 0
  0.703125   0.859375 0
  0.765625   0.593750 0
  0.703125   0.843750 0
  0.765625   0.578125 0
  0.703125   0.828125 0
  0.765625   0.562500 0
  0.703125   0.812500 0
  0.765625   0.546875 0
  0.703125   0.796875 0
  0.765625   0.531250 0
  0.703125   0.781250 0
  0.765625   0.515625 0
  0.703125   0.765625 0
  0.750000   0.750000 0
  0.687500   1.000000 0
  0.890625   1.000000 0
  0.750000   0.734375 0
  0.687500   0.984375 0
  0.750000   0.718750 0
  0.687500   0.968750 0
  0.578125   0.796875 0
  0.578125   0.781250 0
  0.578125   0.765625 0
  0.546875   0.953125 0
  0.546875   0.968750 0
  0.546875   0.718750 0
  0.546875   0.687500 0
  0.250000   0.609375 0
  0.937500   0.031250 0
  0.046875   0.703125 0
  0.734375   0.062500 0
  0.734375   0.078125 0
  0.734375   0.046875 0
  0.046875   0.593750 0
  0.046875   0.562500 0
  0.046875   0.531250 0
  0.718750   0.156250 0
  0.046875   0.609375 0
  0.734375   0.031250 0
  0.062500   0.609375 0
  0.234375   0.703125 0
  0.718750   0.125000 0
  0.046875   0.578125 0
  0.734375   0.000000 0
  0.062500   0.578125 0
  0.000000   0.828125 0
  0.234375   0.671875 0
  0.234375   0.625000 0
  0.718750   0.093750 0
  0.687500   0.156250 0
  0.062500   0.546875 0
  0.000000   0.796875 0
  0.718750   0.046875 0
  0.031250   0.687500 0
  0.687500   0.171875 0
  0.500000   1.000000 0
  0.078125   0.218750 0
  0.234375   0.593750 0
  0.718750   0.062500 0
  0.687500   0.125000 0
  0.000000   0.765625 0
  0.421875   0.500000 0
  0.031250   0.593750 0
  0.718750   0.015625 0
  0.687500   0.234375 0
  0.015625   0.812500 0
  0.703125   0.171875 0
  0.703125   0.187500 0
  0.703125   0.140625 0
  0.015625   0.781250 0
  0.437500   0.515625 0
  0.500000   0.796875 0
  0.078125   0.015625 0
  0.687500   0.203125 0
  0.250000   0.578125 0
  0.703125   0.109375 0
  0.000000   0.515625 0
  0.500000   0.765625 0
  0.062500   0.593750 0
  0.750000   0.015625 0
  0.015625   0.843750 0
  0.687500   0.000000 0
  0.500000   0.828125 0
  0.078125   0.046875 0
  0.015625   0.531250 0
  0.250000   0.546875 0
  0.703125   0.078125 0
  0.703125   0.031250 0
  0.015625   0.671875 0
  0.250000   0.515625 0
  0.000000   0.656250 0
  0.500000   0.906250 0
  0.078125   0.125000 0
  0.687500   0.015625 0
  0.031250   0.546875 0
  0.687500   0.031250 0
  0.500000   0.859375 0
  0.703125   0.000000 0
  0.703125   0.046875 0
  0.703125   0.015625 0
  0.500000   0.937500 0
  0.234375   0.531250 0
  0.031250   0.578125 0
  0.687500   0.062500 0
  0.500000   0.890625 0
  0.031250   0.796875 0
  0.453125   0.531250 0
  0.500000   0.968750 0
  0.078125   0.187500 0
  0.234375   0.562500 0
  0.031250   0.609375 0
  0.718750   0.031250 0
  0.687500   0.093750 0
  0.750000   0.046875 0
  0.000000   0.937500 0
  0.421875   0.671875 0
  0.718750   0.187500 0
  0.031250   0.828125 0
  0.765625   0.062500 0
  0.015625   0.953125 0
[...]
CELL_DATA 7648
SCALARS scalar_value float 1
LOOKUP_TABLE default
-0.000458965
-0.000150433
0.000382275
-0.00020083
0.00167241
0.0012524
-0.00015962
-0.00743683
-0.00338587
0.000514125
-0.00025162
0.000813543
0.00061691
0.0547526
0.212019
0.00797867
0.253418
-0.00200988
0.00504574
8.14675e-09
0.00897556
0.000648665
-0.00319412
0.000167871
0.011422
0.00185706
0.000603314
-0.0112863
0.000604124
0.000590725
0.065868
0.402779
0.17051
0.000119209
9.27758e-05
7.80664e-05
7.3916e-06
-0.000292611
0.000836154
-0.0009783
-1.06219e-05
0.00376035
0.00928371
6.58052e-05
-1.73244e-06
1.93756e-05
0.000195504
0.000446778
-0.00505537
0.000707823
4.22361e-05
-0.000107186
0.000106784
-5.54969e-05
-0.00396753
0.0112206
0.00589868
-0.00255402
0.015266
4.37122e-05
-1.07096e-05
-0.00486437
-5.98175e-06
-0.000697918
0.00128011
-0.00433769
-0.0065515
-1.57207e-05
0.238182
-1.11544e-05
-5.18132e-06
-7.92776e-06
-1.77518e-09
-3.07405e-09
0.000157749
0.00153809
-0.007243
0.0063801
0.00704661
-0.00546398
1.37507e-05
-0.0068007
-0.0123501
-0.00105375
5.78945e-08
-5.8294e-05
0.0386616
0.00315587
-0.0016554
0.000522586
0.160449
-0.000811976
3.52483e-05
1.98561e-05
1.73944e-06
3.24971e-05
-1.50985e-05
3.5972e-05
-0.0013898
0.210231
0.489901
-1.58178e-05
8.40557e-06
1.11465e-05
-0.00840705
0.01224
0.000334744
-0.000568379
0.0270499
0.011594
0.000827676
-0.000398383
0.00218852
0.000616309
0.712468
0.525936
0.00373501
0.035188
0.00782219
0.311963
-0.00568815
0.00319957
0.0123788
4.59046e-05
-4.27698e-09
1.24476e-05
-3.33818e-06
0.000366903
0.0118619
0.0189353
0.0118939
5.86146e-05
0.00318436
-0.00216882
2.9557e-06
2.85863e-06
-0.00454432
-0.00380074
9.86036e-06
-0.0242623
0.000206118
-1.0855e-07
-2.64738e-05
2.74047e-05
0.0207825
-4.69067e-06
1.36527e-08
0.000167185
2.55776e-08
-0.00374017
3.33833e-06
-2.15676e-06
0.000806109
0.113303
-0.00117099
0.00952439
0.000493224
0.00245337
0.00494944
-0.00128264
0.0102751
0.00347414
8.72875e-06
5.76028e-07
0.00245177
0.00354884
3.75379e-05
7.3172e-05
1.86434e-05
-0.000273206
-3.51146e-07
0.00428994
-2.6096e-09
-3.99823e-08
0.00847733
0.00385887
-0.0048138
3.31961e-07
-6.27059e-05
-0.000781653
5.25803e-05
9.33271e-05
-1.1065e-06
0.00067652
-0.00012818
0.000418386
0.00034255
0.000389919
-6.26549e-05
-0.0014216
0.0524807
-0.00290352
0.000348016
4.13059e-07
-1.54854e-06
5.90955e-05
1.45928e-05
0.0488271
1.99247e-06
1.53401e-05
-0.000198557
0.000504174
-0.00460106
-0.00391314
0.000270995
0.000103142
0.000918007
-0.000450238
0.599775
-4.97913e-05
-2.76266e-06
0.00336475
5.62118e-05
-0.000152756
-0.00097068
0.00753674
-0.00646181
0.0067296
-0.00555315
-0.00767533
0.00436254
-2.12927e-05
3.58484e-05
0.0013027
8.39141e-05
-0.000499197
0.000577972
-9.02804e-05
5.08338e-05
0.0057602
-0.000702283
0.0109003
-0.00648445
-0.000464964
0.000197941
-0.000477474
0.00168052
0.00192518
1.7578e-05
0.360893
1.24819e-06
0.573445
0.000192736
0.00648589
0.0307773
-1.15579e-08
0.129967
0.0684859
0.0520513
0.00323112
-0.00355766
-0.000315796
0.000803598
0.00388473
0.000485304
1.1591e-08
5.74948e-06
0.00191116
-0.000138232
-0.00304438
0.00148362
-0.000858819
0.00344497
-0.00433668
0.00176333
0.00194824
0.00618876
0.375908
0.195234
0.192834
-0.0017084
5.81612e-10
-0.0135588
0.0414605
-0.00172147
-0.000593366
0.0100663
0.00549356
0.00759673
-0.00781732
-0.00179367
-0.00494611
0.0241204
0.0372568
0.724801
0.69541
0.723611
0.00403871
-0.00346088
0.343269
0.612538
0.648744
0.627859
0.000748042
-0.0002108
0.00605896
0.0665272
0.168807
0.00514708
0.512516
0.00338084
-0.00421469
-0.00155248
0.0191102
-0.0374931
0.0660523
1.52959e-05
-0.0163709
-0.0560747
-0.0723782
3.75095e-06
0.134268
0.241583
0.259318
-0.0022376
-0.00194501
-0.000830416
-0.0071204
0.00551755
0.0107151
-0.000220258
0.000122738
8.6214e-06
2.90018e-05
5.42995e-09
-0.00177602
0.00124557
0.00027194
0.000609962
0.000401584
-0.00132679
-0.000158625
-3.47394e-06
0.000116532
0.00141878
-3.50802e-05
-1.99972e-06
3.76202e-05
-5.49959e-05
3.41608e-05
0.00447787
-0.000387746
0.00383204
0.00392525
8.10888e-05
-0.00106453
-0.0045824
-0.00297301
9.13557e-06
1.40073e-06
0.0221179
-0.00276133
0.00921379
-0.00920033
0.00423196
-6.37067e-06
-0.000191298
0.000467818
-0.00309982
0.0066652
0.549087
-8.62364e-05
-0.00589781
-9.46684e-10
0.0641009
0.00177576
-0.00333826
-0.00365705
0.0036944
0.00305506
0.0555512
7.75668e-10
-1.43452e-05
0.00845613
0.00138176
0.0191797
-0.000622923
0.00295149
-0.00447061
-0.000862901
0.0101005
-0.000840051
-0.00297045
0.000395558
0.000836588
-0.00322685
-3.27459e-05
-0.0115514
0.00107664
-0.00176887
0.00243799
0.00030484
-0.00608392
0.0088465
0.00329348
-0.0026014
-0.00726666
-0.0041024
0.000188757
-0.00459462
0.000497662
0.00245635
-9.61881e-05
0.000201174
-0.000658035
4.32305e-07
-0.000621605
-0.000456095
0.00324131
-0.000317454
0.00159753
0.00880379
3.23484e-08
0.00268805
0.00640672
0.18485
-7.89629e-05
-0.000648023
0.0002985
0.00316489
0.00581725
0.00571072
0.000137809
0.000130683
-0.00174961
0.00319182
-0.000555382
0.491704
0.00232265
0.00896444
0.160751
-0.0485324
-5.53056e-09
0.00780911
0.00466232
-0.00210822
-2.97648e-05
-7.70161e-06
2.71086e-06
1.45809e-05
0.000846246
0.000237123
0.0313246
0.000548622
1.60799e-07
7.7476e-07
0.0154843
-0.000882109
4.57895e-07
0.000377941
-3.1736e-07
0.509388
-0.00106646
0.000282144
-0.00010018
0.000152219
5.42437e-05
0.0323482
0.58525
0.00922997
0.0368819
-4.20963e-05
0.292154
0.000756422
-0.00200638
6.83723e-06
1.24935e-05
0.00331313
-0.00019945
6.8296e-05
0.0233277
-0.000450733
0.0044953
-6.30965e-07
0.152872
-0.0171609
0.00313496
-3.84536e-07
0.516052
0.00117731
-5.84164e-07
-0.0150309
0.00434452
0.000134284
0.000960429
0.00214999
1.05974e-06
2.93465e-05
1.67667e-05
0.000177324
-6.39062e-05
-1.88959e-05
1.86186e-06
0.000694579
0.00121091
0.27763
-3.21897e-05
4.26435e-05
-1.87216e-05
9.25172e-06
-0.00281952
-9.66105e-06
0.000416905
0.000944102
-4.17141e-06
4.82055e-05
0.00064816
0.000121914
0.00151376
5.9573e-05
0.00117918
0.000246882
-4.03401e-05
0.00406552
0.00314935
-0.00523854
4.95072e-10
-0.0107073
0.00538505
0.364322
0.0237843
-0.00468852
-5.3623e-08
-0.000102929
3.28336e-05
-4.47951e-05
7.30241e-06
-1.26726e-07
-0.00662036
0.0258988
4.84355e-05
-7.01156e-06
0.000278769
-0.00365336
-0.00527909
-5.44929e-09
-5.27184e-05
-8.63591e-09
0.383329
0.0101495
1.77314e-05
-8.10081e-07
0.00449782
-8.57602e-05
0.729895
0.00190562
-0.00443982
0.00107471
0.00453274
0.0036752
-0.004502
0.00817078
-0.00150951
0.00340443
-0.00198684
-0.00333904
2.49927e-05
0.000624297
-0.00636529
0.000210263
-0.0011355
-0.0068506
0.00396094
-0.00158494
-0.00419349
0.000823902
-0.00589906
-2.54569e-05
-0.00621274
-3.28295e-07
8.60197e-07
0.00027945
-4.96628e-05
0.00105906
-0.00150103
0.0111967
-5.39796e-05
4.01536e-07
-0.00417935
-2.18118e-06
0.140646
-0.0324737
0.00292668
-0.000953508
-0.000192306
-8.7576e-05
0.0604991
-0.0013424
-0.0152159
-2.87397e-05
-8.13173e-05
5.97458e-05
-0.0088859
0.00166459
1.82502e-07
-4.20598e-07
0.0502879
0.00921138
0.20082
0.0114788
0.000221356
1.41278e-06
0.000256187
0.00128027
7.33985e-05
0.000747572
0.000149275
0.000684704
-0.00385974
-0.000747513
0.00647452
0.0164194
4.73934e-06
0.0174173
0.00454915
0.0188275
-0.00049339
-0.00187813
-0.00103578
-0.00697179
-0.000509852
-0.000956127
-5.18779e-05
-0.00236527
0.00501372
-0.00119637
-0.00872389
0.00256205
-0.00603751
8.49086e-05
-0.00106848
-5.11514e-05
0.00058794
-0.00115652
0.000147641
-9.00266e-05
0.00629899
0.258382
0.337079
0.00017941
-0.000221038
-0.0151293
-0.000143834
8.47691e-05
-0.0108671
-0.000293714
0.000646455
0.000940527
-0.0123565
-0.000203576
0.0125895
0.334955
-0.000541002
0.000539408
0.00232228
0.000142252
0.358524
0.00444061
0.00190589
-0.00896881
3.39891e-06
0.00200847
-0.0040038
0.0809712
0.00479153
-0.0134556
0.0418872
-0.00785421
0.00282087
0.000229145
-0.00169751
-0.021077
-2.54547e-08
0.463118
1.53345e-05
-0.00277996
-0.000650652
-0.00568695
0.00279717
8.17786e-08
0.181431
-0.00245542
-0.00949267
0.00201835
4.85297e-05
-0.000923673
-0.00246837
0.0589514
0.000798361
5.73522e-05
0.0117779
1.05862e-05
0.00304365
0.000646954
-0.00276275
0.00324342
-0.00597239
-1.83381e-05
-8.06628e-05
-1.28404e-08
-0.00731096
3.01923e-07
-0.00287723
0.0083131
0.0990851
-2.85527e-05
2.11177e-05
5.89481e-07
-3.79779e-05
0.187678
0.0031305
0.101464
0.00773631
-0.00670941
-0.000205683
0.00458821
0.00330959
-0.0104491
-0.00123154
5.9285e-08
0.0693348
0.0945382
-1.11842e-05
0.229094
-0.000120101
0.000418425
-0.00369429
0.00588315
-0.0112561
0.00496978
-9.97386e-05
-0.000200255
-1.53813e-05
-0.000364551
3.07613e-09
-4.49123e-06
-7.14734e-05
-0.00163257
-0.000148022
9.30433e-05
-0.000677874
-0.00372573
0.00107913
9.04748e-05
0.0115932
-5.01074e-05
0.00780908
-0.000731361
-1.12708e-06
-0.0111148
8.13365e-07
0.224139
0.000614366
2.20967e-05
0.0322089
-0.000623489
-0.000455914
-0.00853311
-0.00366478
0.090802
0.0195396
3.52073e-10
0.000131501
0.00542393
3.29932e-05
-0.000140442
0.114437
4.91985e-07
-2.52736e-05
1.2282e-05
-7.56536e-05
-0.000213581
0.00114161
-0.00144821
4.62041e-05
-0.00280146
8.72658e-06
0.221221
0.000871946
0.112155
-2.17462e-05
4.49884e-06
3.42411e-07
-6.31915e-05
-0.000110637
6.09999e-05
3.39519e-05
0.824566
-0.00579815
0.000422682
0.0867614
-1.94988e-08
0.0142334
0.00569229
0.153839
0.0245991
0.00581863
-0.00380249
-0.0039513
-4.73332e-05
0.0254519
0.0100274
0.00949417
0.00553647
0.612224
0.037502
-0.00145976
0.00730257
-0.000249828
0.522886
-0.00916269
-0.00152957
0.000936454
-0.0100714
0.0473602
0.0110812
-0.0114978
0.00611049
0.00405041
0.00610349
0.00382182
0.000439692
0.00319376
0.00238294
0.0308851
0.0471427
-9.13697e-09
0.00120514
0.000237074
4.0269e-06
-0.000252175
-0.00206199
0.00301726
-2.35053e-06
-0.00360068
-1.16883e-05
-0.00131864
0.00229721
1.9689e-05
-0.00321439
0.406482
0.00142759
0.455267
0.0096393
-0.0132699
-0.000160669
-3.07376e-05
-0.0026823
0.00045787
1.98572e-06
-2.27941e-05
0.00571498
0.000637255
0.0026795
0.0013399
-0.000499888
-0.000488556
4.42929e-06
-0.0109827
-0.00931257
-0.00253228
3.76152e-05
-0.00195517
0.0008449
0.00140701
0.000129245
0.00134463
-0.00200316
-0.00240094
-0.00110016
0.000513366
0.00092603
0.000868372
0.00086432
0.000136048
0.12146
-3.30052e-05
0.349168
-0.00106469
0.024686
0.0559286
5.8275e-05
-0.00445607
-4.67828e-05
-8.68283e-05
0.133543
0.0095764
0.00199063
-0.0014999
-0.0250249
0.00655484
0.0649517
0.000577807
0.0134681
0.73957
-0.00107871
-0.0139827
-2.57463e-07
3.32882e-07
-0.000689508
4.74239e-07
-6.70656e-06
-0.00355869
-1.60082e-06
-0.000150239
0.00093869
-0.00350736
0.00220159
0.00118935
-0.00506144
-0.00694057
-0.00101429
-2.3014e-05
-4.321e-05
0.00603435
0.000110907
0.000133566
-9.35642e-10
0.000196629
-4.50356e-08
0.00135659
-2.41344e-07
0.000358878
-0.00265667
0.00150948
0.00763046
-0.00173212
0.00917089
0.00105593
0.00221532
-6.51591e-05
-0.0115742
0.00642409
8.07944e-05
0.000449725
-1.15067e-08
-0.00736144
0.0989863
0.080814
4.00706e-10
-0.000166016
0
-0.0140445
0.74581
-3.20336e-10
0.0345548
-0.000360276
-9.58951e-05
0.0450399
0.000137144
-0.00203378
0.000214696
-0.000141658
0.0238593
0.001261
0.00126007
-7.40313e-07
-0.000103378
0.00327515
-1.15349e-05
0.000150114
7.04465e-05
-0.000414317
7.09921e-05
-4.0636e-05
0.00135427
0.00128429
1.95334e-06
-0.00187987
6.73901e-06
8.58118e-06
-0.0010881
-0.00315778
3.72287e-07
0.00206837
0.59279
0.245688
-1.35767e-07
-0.00904605
0.00860539
0.074731
-0.0124387
0.000108562
0.110146
-0.0149233
0.0060003
-0.00138085
0.621281
-2.42829e-05
-0.0012063
0.00236798
0.304198
-0.00727474
0.00419597
1.3483e-06
2.44732e-05
-6.76596e-05
0.000572915
-0.000419548
0.000105903
0.382568
0.000950063
-0.000809397
-1.26353e-10
-5.21102e-09
0.026139
-0.00490334
0.722415
0.627466
0.67925
4.35766e-05
-0.000602518
1.89626e-05
0.00112994
-0.0177221
-0.0222137
-0.00290011
1.0085e-07
-5.3395e-07
-0.00110007
0.00655768
-0.0188571
0.00499543
0.0238663
0.0198044
2.86282e-05
1.18321e-05
-0.000274636
0.000721172
-8.45423e-06
0.116362
0.266073
0.000780766
-0.0142867
-1.38142e-06
4.71722e-07
0.0410492
-0.00136926
-6.87004e-05
0.000782463
-0.000671158
-0.00115632
-0.00128729
0.00307431
0.779929
0.00466915
0.00694049
0.000269613
-0.0101964
0.000297186
-9.00339e-06
-5.83826e-05
-0.000552139
-6.20314e-05
-7.16205e-05
0.0409323
-1.29107e-06
2.90061e-05
3.23903e-06
4.29683e-06
-4.90015e-06
-2.06399e-06
3.19832e-05
2.46498e-05
-5.24487e-07
0.000514304
0.208625
0.0689978
0.555154
-0.000125463
-0.00198546
1.21511e-06
-0.00141442
0.000989658
0.00104129
-5.76222e-06
0.000191208
0.416839
-0.00833507
0.0450224
0.0046989
0.000340883
-9.41672e-05
7.55023e-07
-0.00416251
-1.13221e-05
-0.0171095
1.47753e-05
0.00415228
0.648782
0.000824963
0.000766842
-9.39237e-05
9.43756e-06
-0.00130542
-0.00692308
-0.00498517
0.00236481
-0.0031968
-0.0022013
0.277733
4.03948e-05
0.0701354
6.46898e-06
0.00565991
0.000199279
0.0330053
0.00024931
0.00106654
-0.00299604
-0.00569391
1.54342e-06
0.204826
-0.000124317
-0.0017759
0.687667
1.65849e-06
0.00359208
2.75237e-05
-6.32786e-06
0.000342223
0.00034467
0.00450189
0.000366185
1.37536e-08
6.89997e-06
-5.59746e-06
-4.24909e-07
0.25641
0.698987
0.564577
0.342818
-0.000365036
-0.000254906
-0.000168413
-3.43357e-05
-3.20535e-05
-4.61559e-05
1.47416e-07
2.15506e-05
-1.51448e-05
-4.45665e-07
-1.60111e-06
-4.94023e-07
-1.97086e-07
0.00757823
0.00125321
0.00138153
-0.00704774
-0.000489769
0.016266
0.0310932
0.0567574
0.143573
0.000722826
0.000844277
2.64441e-07
-0.00397039
2.9977e-07
-0.000100945
5.21398e-05
-0.000277591
9.53412e-05
-0.000144874
0.19807
-0.00571559
0.713713
0.772607
0.00474021
-0.0122976
-0.00750739
0.559956
0.460235
0.622336
0.718196
-0.0260104
-0.000695936
-0.0148538
-0.00517251
-0.000282508
0.566138
0.358593
-0.008644
0.00014655
0.0138115
0.00359566
-4.16944e-05
-0.00192343
-0.000991998
-0.000284135
-0.000323987
7.10575e-05
0.000170557
8.34685e-05
4.16385e-06
-0.000596367
-0.000831212
9.72599e-05
0.384428
-0.00560919
-0.000562727
-0.00173035
0.00149745
4.4826e-06
0.0538963
0.711887
0.560971
0.639623
0.158438
0.49006
0.506004
0.422913
-1.76924e-07
0.0139365
0.357993
0.490833
0.709757
0.594539
-1.15059e-08
0.0066641
0.000230306
-0.000401299
-0.000520579
0.000231956
5.27059e-05
4.53767e-05
-8.9075e-05
0.00155539
-7.81995e-05
0.000626539
0.00174998
-0.000866374
-0.000187387
-0.000750445
-9.11474e-07
0.00881614
0.00239584
0.000415155
-0.00157098
0.00537908
2.6482e-07
0.000845807
-0.00186221
-0.000128381
-1.5865e-06
-1.27417e-05
-0.000175376
0.00104942
-0.00910037
5.56617e-10
0.00169573
0.134558
0.0251712
-0.00214016
2.63556e-06
0.00682241
7.16961e-08
0.000117739
0.00041304
0.0008355
-0.00567349
-7.22474e-10
-0.000173506
6.15752e-05
-0.000200846
2.0714e-06
-4.11855e-06
-2.1122e-06
-6.13187e-06
-0.00675888
0.126288
-0.00886337
0.000193653
0.088622
0.310111
0.441642
0.000228671
0.00225504
0.101291
0.263862
0.29461
0.439562
-0.000303625
-0.000213978
4.73537e-07
-0.00958613
-1.65025e-07
8.28848e-07
-0.00441052
-1.07546e-07
-0.00316555
0.00333871
0.000579957
-0.000122896
-0.00138755
-2.18837e-05
1.77372e-05
-2.08908e-05
0.528942
0.322275
0.457572
0.507317
-0.000116298
0.0150404
0.0119333
-4.17972e-05
9.25327e-05
7.23069e-05
8.67806e-07
1.76698e-05
-7.70641e-06
2.20727e-05
-0.00618964
0.00107853
-7.60104e-05
0.000170814
1.89826e-05
0.112018
1.41357e-05
1.40652e-05
-1.22084e-05
1.83213e-05
-0.00151247
-0.00118963
-0.00108531
0.000114218
0.69044
0.111563
0.36189
0.20248
-0.0305202
0.0051599
-0.0199884
-4.71133e-08
0.0026693
0.0145749
0.00304355
0.00696721
0.00267752
-0.000113273
0.000120778
0.00011175
-0.00140294
-0.00239898
-0.00292146
-0.00295872
0.00482988
-0.00451409
0.00706216
-0.000192157
0.028858
0.00335141
1.55835e-05
-6.21886e-05
0.00987715
0.322818
0.214022
0.476019
0.574929
-0.00166841
-0.0372606
0.00792068
-4.31215e-05
0.000696969
0.00137067
-0.00065065
0.00341254
-0.00270357
-0.00560453
-6.98494e-06
0.000144477
0.0508804
-7.70532e-08
0.50754
0.732649
0.781948
0.809488
0.673429
0.79848
0.00385233
0.000160773
-0.000239912
0.5832
0.62793
0.370346
0.00458557
0.419204
0.338632
0.772309
0.242177
1.81208e-06
2.44372e-06
2.00531e-06
-0.00806389
-0.000938519
1.88644e-07
-5.98574e-07
-3.47298e-07
-1.94601e-06
2.48114e-05
1.77006e-05
-7.35302e-05
-0.0368286
-0.00123301
0.000637127
-0.001667
-0.000775934
-6.63093e-05
0.000453672
0.000807474
2.00001e-06
-1.71312e-05
0.266852
0.000317186
0.000807634
-0.00264154
0.000238224
4.63242e-05
-0.00162122
0.000145499
-2.43561e-06
-1.74595e-05
2.63594e-05
-0.000822926
0.0017
0.0152639
-0.00284079
2.9617e-07
1.09548e-05
2.63301e-06
-0.0118883
-0.00526816
-0.000173836
0.000645593
-0.000206657
0.0106948
3.04348e-07
0.000617681
-3.31374e-07
-3.8078e-07
-5.52327e-05
-4.652e-05
-2.29376e-06
-9.30165e-05
-0.000219231
0.000168495
-3.179e-05
-8.25074e-05
-0.0132234
7.56259e-06
0.000206571
0.00090221
-0.000108989
-0.0125225
-0.00448934
0.00321557
0.00764138
0.0513135
0.0352351
0.10679
0.0375331
0.0886567
-0.00457749
0.0073448
0.34966
0.15269
0.217612
2.73147e-05
0.00283058
-5.3976e-07
-2.85358e-06
-0.00826134
-0.0174877
0.00366737
0.000684255
0.00590188
0.056988
0.0986249
0.00252244
0.00065903
-2.72589e-06
0.000394757
7.77289e-08
0.0035375
-4.47934e-06
0.00525308
0.00326385
0.106059
0.0419396
-0.00987397
0.0465409
0.206204
0.107335
-0.0045209
0.0224947
0.00283118
-0.00379982
-0.00146694
-0.00493731
-0.0128021
-0.00246948
-0.000653288
0.0027751
4.36458e-06
6.92452e-06
-9.89971e-06
8.38707e-06
-8.80614e-07
2.05841e-05
-0.000968137
6.99432e-08
0.000657735
-0.00243673
-1.92852e-06
0.00386327
0.000166373
0.0024199
0.00115294
-1.45137e-05
2.98413e-05
0.00436613
-3.05179e-05
-0.000635127
-0.000996822
0.000565551
0.00342036
0.135277
0.0225965
0.304655
0.0066424
0.000626135
0.00923336
-0.0136624
-0.0100618
0.00257069
0.10192
0.61015
0.541605
-0.00674657
0.00232098
0.000622005
0.499648
0.41187
0.705778
8.60477e-08
0.625523
0.697681
0.546867
0.491603
0.51952
2.47185e-05
-7.27499e-05
-9.71682e-05
9.28393e-05
6.4279e-05
-6.61748e-05
-3.26187e-05
0.000165772
-0.000400059
-0.000327669
-4.78847e-05
3.69884e-05
-5.36952e-05
-5.86459e-06
-3.16989e-06
3.52185e-05
1.92251e-05
3.99722e-05
-5.6859e-06
3.37777e-06
-7.24841e-06
-3.50134e-05
-6.91346e-05
-5.41755e-05
0.337936
0.3147
0.247439
0.148927
0.0204989
0.0154106
-0.00771813
-0.00562004
0.0373032
0.0344484
5.44972e-07
-0.000361934
-0.000236232
-0.00620295
-0.00378763
0.167585
-0.0284719
0.0111516
0.00343898
0.000518364
0.0012101
0.00100625
0.628756
-0.00334592
0.149292
0.00245854
0.043246
0.00916685
-0.000193845
-5.44461e-05
-0.000995474
1.31975e-07
1.38729e-07
-0.000436335
-0.00364452
0.0132791
0.710637
0.278445
0.224876
1.64638e-06
-8.46051e-07
1.03197e-06
9.14184e-07
3.10741e-06
0.476817
0.323155
-0.0052355
0.000803008
0.00723535
0.0352565
0.00091679
3.73519e-07
0.00373748
-0.0153141
-0.00616225
0.00929511
0.000421188
0.000986703
0.000649883
5.34425e-07
0.57445
0.23385
0.270167
0.344134
0.449376
0.0212402
-0.0137034
0.0155969
0.00180793
-0.000828339
-0.00268331
-0.00287615
9.04691e-05
-0.00301984
0.00317414
0.594348
0.678013
0.717002
0.00355555
-0.000277447
7.10491e-07
0.55981
0.529835
0.00819566
-0.000386071
0.0109375
0.00124378
0.000493874
0.000547479
4.52581e-06
-3.71797e-07
-0.0118173
-0.0240348
-0.00582436
-0.00632294
-0.0118579
5.492e-10
0.00410948
0.0511612
-0.000574173
0.00226069
0.00113576
0.00626682
0.0264689
-0.00107704
0.0583691
0.148095
0.0162233
0.238054
0.159944
0.0252738
0.0783944
0.367527
0.181521
0.399074
0.153104
-0.00165224
-0.000222625
0.522679
0.629364
0.524381
0.0225686
-0.00514552
0.00713245
0.00565042
0.00308482
-0.00332917
-3.68097e-05
0.0907765
2.21325e-05
0.0114366
-0.00230094
0.000148769
9.50444e-05
0.00209149
-0.00179615
-0.00129609
2.38648e-05
3.80268e-06
-4.5837e-06
-8.15409e-06
1.31698e-09
1.47118e-09
-9.3679e-10
-0.0031789
0.00794421
0.0539836
0.0809367
0.184677
0.0730009
0.139514
0.169381
-0.00408282
0.000972166
0.000102262
0.000582964
6.58923e-05
-2.83639e-05
0.021733
0.0101282
0.0525814
0.157813
-0.00578422
-0.00242918
-0.00145748
0.00455016
-0.000697593
-0.0112714
0.0138265
0.575075
0.000189051
0.49481
0.210461
0.20285
-1.01781e-07
-0.0013079
0.00677382
-0.0170326
-0.0117257