# vtk DataFile Version 2.0
Unstructured Grid by M++
ASCII
DATASET UNSTRUCTURED_GRID
POINTS 4072 float
  0.875000   1.000000 0
  0.875000   0.984375 0
  0.875000   0.968750 0
  0.875000   0.953125 0
  0.875000   0.937500 0
  0.875000   0.921875 0
  0.875000   0.906250 0
  0.875000   0.890625 0
  0.875000   0.875000 0
  0.875000   0.859375 0
  0.875000   0.843750 0
  0.875000   0.828125 0
  0.875000   0.812500 0
  0.875000   0.796875 0
  0.875000   0.781250 0
  0.875000   0.765625 0
  0.859375   1.000000 0
  0.859375   0.984375 0
  0.859375   0.968750 0
  0.859375   0.953125 0
  0.859375   0.937500 0
  0.859375   0.921875 0
  0.859375   0.890625 0
  0.859375   0.875000 0
  0.859375   0.859375 0
  0.859375   0.843750 0
  0.859375   0.828125 0
  0.859375   0.812500 0
  0.859375   0.796875 0
  0.859375   0.781250 0
  0.859375   0.765625 0
  0.859375   0.671875 0
  0.859375   0.656250 0
  0.859375   0.640625 0
  0.843750   1.000000 0
  0.843750   0.984375 0
  0.843750   0.968750 0
  0.843750   0.953125 0
  0.843750   0.937500 0
  0.843750   0.921875 0
  0.843750   0.906250 0
  0.843750   0.875000 0
  0.843750   0.859375 0
  0.843750   0.843750 0
  0.843750   0.828125 0
  0.843750   0.812500 0
  0.843750   0.796875 0
  0.843750   0.781250 0
  0.843750   0.765625 0
  0.843750   0.671875 0
  0.843750   0.656250 0
  0.843750   0.640625 0
  0.828125   1.000000 0
  0.828125   0.984375 0
  0.828125   0.968750 0
  0.828125   0.953125 0
  0.828125   0.937500 0
  0.828125   0.921875 0
  0.875000   0.671875 0
  0.812500   0.921875 0
  0.890625   0.656250 0
  0.828125   0.906250 0
  0.875000   0.656250 0
  0.812500   0.906250 0
  0.890625   0.640625 0
  0.828125   0.890625 0
  0.875000   0.640625 0
  0.812500   0.890625 0
  0.890625   0.625000 0
  0.828125   0.875000 0
  0.890625   0.609375 0
  0.828125   0.859375 0
  0.890625   0.593750 0
  0.828125   0.843750 0
  0.890625   0.578125 0
  0.828125   0.828125 0
  0.890625   0.562500 0
  0.828125   0.812500 0
  0.828125   0.796875 0
  0.828125   0.781250 0
  0.828125   0.765625 0
  0.828125   0.671875 0
  0.828125   0.656250 0
  0.828125   0.640625 0
  0.875000   0.750000 0
  0.812500   1.000000 0
  0.875000   0.625000 0
  0.812500   0.875000 0
  0.875000   0.734375 0
  0.812500   0.984375 0
  0.875000   0.718750 0
  0.812500   0.968750 0
  0.875000   0.703125 0
  0.812500   0.953125 0
  0.875000   0.687500 0
  0.812500   0.937500 0
  0.875000   0.609375 0
  0.812500   0.859375 0
  0.875000   0.593750 0
  0.812500   0.843750 0
  0.875000   0.578125 0
  0.812500   0.828125 0
  0.812500   0.812500 0
  0.875000   0.546875 0
  0.812500   0.796875 0
  0.812500   0.781250 0
  0.812500   0.765625 0
  0.859375   0.750000 0
  0.796875   1.000000 0
  0.859375   0.625000 0
  0.796875   0.875000 0
  0.859375   0.734375 0
  0.796875   0.984375 0
  0.859375   0.718750 0
  0.796875   0.968750 0
  0.859375   0.703125 0
  0.796875   0.953125 0
  0.859375   0.687500 0
  0.796875   0.937500 0
  0.859375   0.609375 0
  0.796875   0.859375 0
  0.859375   0.593750 0
  0.796875   0.843750 0
  0.859375   0.578125 0
  0.796875   0.828125 0
  0.859375   0.562500 0
  0.796875   0.812500 0
  0.796875   0.796875 0
  0.859375   0.531250 0
  0.796875   0.781250 0
  0.796875   0.765625 0
  0.843750   0.750000 0
  0.781250   1.000000 0
  0.843750   0.625000 0
  0.781250   0.875000 0
  0.843750   0.734375 0
  0.781250   0.984375 0
  0.843750   0.718750 0
  0.781250   0.968750 0
  0.843750   0.703125 0
  0.781250   0.953125 0
  0.843750   0.687500 0
  0.781250   0.937500 0
  0.843750   0.609375 0
  0.781250   0.859375 0
  0.843750   0.593750 0
  0.781250   0.843750 0
  0.843750   0.578125 0
  0.781250   0.828125 0
  0.781250   0.812500 0
  0.843750   0.546875 0
  0.781250   0.796875 0
  0.781250   0.781250 0
  0.843750   0.515625 0
  0.781250   0.765625 0
  0.828125   0.750000 0
  0.765625   1.000000 0
  0.828125   0.625000 0
  0.765625   0.875000 0
  0.828125   0.734375 0
  0.765625   0.984375 0
  0.828125   0.718750 0
  0.765625   0.968750 0
  0.828125   0.703125 0
  0.765625   0.953125 0
  0.828125   0.687500 0
  0.765625   0.937500 0
  0.828125   0.609375 0
  0.765625   0.859375 0
  0.828125   0.593750 0
  0.765625   0.843750 0
  0.828125   0.578125 0
  0.765625   0.828125 0
  0.828125   0.562500 0
  0.765625   0.812500 0
  0.765625   0.796875 0
  0.828125   0.531250 0
  0.765625   0.781250 0
  0.765625   0.765625 0
  0.812500   0.750000 0
  0.750000   1.000000 0
  0.953125   1.000000 0
  0.812500   0.734375 0
  0.750000   0.984375 0
  0.812500   0.718750 0
  0.750000   0.968750 0
  0.812500   0.703125 0
  0.750000   0.953125 0
  0.812500   0.687500 0
  0.750000   0.937500 0
  0.812500   0.671875 0
  0.750000   0.921875 0
  0.812500   0.656250 0
  0.750000   0.906250 0
  0.812500   0.640625 0
  0.750000   0.890625 0
  0.812500   0.625000 0
  0.750000   0.875000 0
  0.812500   0.609375 0
  0.750000   0.859375 0
  0.812500   0.593750 0
  0.750000   0.843750 0
  0.812500   0.578125 0
  0.750000   0.828125 0
  0.750000   0.812500 0
  0.812500   0.546875 0
  0.750000   0.796875 0
  0.750000   0.781250 0
  0.812500   0.515625 0
  0.750000   0.765625 0
  0.796875   0.750000 0
  0.734375   1.000000 0
  0.796875   0.734375 0
  0.734375   0.984375 0
  0.796875   0.718750 0
  0.734375   0.968750 0
  0.796875   0.703125 0
  0.734375   0.953125 0
  0.796875   0.687500 0
  0.734375   0.937500 0
  0.796875   0.671875 0
  0.734375   0.921875 0
  0.796875   0.656250 0
  0.734375   0.906250 0
  0.796875   0.640625 0
  0.734375   0.890625 0
  0.796875   0.625000 0
  0.734375   0.875000 0
  0.796875   0.609375 0
  0.734375   0.859375 0
  0.796875   0.593750 0
  0.734375   0.843750 0
  0.796875   0.578125 0
  0.734375   0.828125 0
  0.734375   0.812500 0
  0.734375   0.796875 0
  0.796875   0.531250 0
  0.734375   0.781250 0
  0.734375   0.765625 0
  0.781250   0.750000 0
  0.718750   1.000000 0
  0.921875   1.000000 0
  0.781250   0.734375 0
  0.718750   0.984375 0
  0.781250   0.718750 0
  0.718750   0.968750 0
  0.781250   0.703125 0
  0.718750   0.953125 0
  0.859375   0.906250 0
  0.781250   0.687500 0
  0.718750   0.937500 0
  0.781250   0.671875 0
  0.718750   0.921875 0
  0.781250   0.656250 0
  0.718750   0.906250 0
  0.781250   0.640625 0
  0.718750   0.890625 0
  0.781250   0.625000 0
  0.718750   0.875000 0
  0.781250   0.609375 0
  0.718750   0.859375 0
  0.781250   0.593750 0
  0.718750   0.843750 0
  0.781250   0.578125 0
  0.718750   0.828125 0
  0.781250   0.562500 0
  0.718750   0.812500 0
  0.781250   0.546875 0
  0.718750   0.796875 0
  0.781250   0.531250 0
  0.718750   0.781250 0
  0.781250   0.515625 0
  0.718750   0.765625 0
  0.765625   0.750000 0
  0.703125   1.000000 0
  0.765625   0.734375 0
  0.703125   0.984375 0
  0.765625   0.718750 0
  0.703125   0.968750 0
  0.765625   0.703125 0
  0.703125   0.953125 0
  0.765625   0.687500 0
  0.703125   0.937500 0
  0.843750   0.890625 0
  0.703125   0.921875 0
  0.765625   0.656250 0
  0.703125   0.906250 0
  0.765625   0.640625 0
  0.703125   0.890625 0
  0.765625   0.625000 0
  0.703125   0.875000 0
  0.765625   0.609375 0
  0.703125   0.859375 0
  0.765625   0.593750 0
  0.703125   0.843750 0
  0.765625   0.578125 0
  0.703125   0.828125 0
  0.765625   0.562500 0
  0.703125   0.812500 0
  0.765625   0.546875 0
  0.703125   0.796875 0
  0.765625   0.531250 0
  0.703125   0.781250 0
  0.765625   0.515625 0
  0.703125   0.765625 0
  0.750000   0.750000 0
  0.687500   1.000000 0
  0.890625   1.000000 0
  0.750000   0.734375 0
  0.687500   0.984375 0
  0.750000   0.718750 0
  0.687500   0.968750 0
  0.578125   0.796875 0
  0.578125   0.781250 0
  0.578125   0.765625 0
  0.546875   0.953125 0
  0.546875   0.968750 0
  0.546875   0.718750 0
  0.546875   0.687500 0
  0.250000   0.609375 0
  0.937500   0.031250 0
  0.046875   0.703125 0
  0.734375   0.062500 0
  0.734375   0.078125 0
  0.734375   0.046875 0
  0.046875   0.593750 0
  0.046875   0.562500 0
  0.046875   0.531250 0
  0.718750   0.156250 0
  0.046875   0.609375 0
  0.734375   0.031250 0
  0.062500   0.609375 0
  0.234375   0.703125 0
  0.718750   0.125000 0
  0.046875   0.578125 0
  0.734375   0.000000 0
  0.062500   0.578125 0
  0.000000   0.828125 0
  0.234375   0.671875 0
  0.234375   0.625000 0
  0.718750   0.093750 0
  0.687500   0.156250 0
  0.062500   0.546875 0
  0.000000   0.796875 0
  0.718750   0.046875 0
  0.031250   0.687500 0
  0.687500   0.171875 0
  0.500000   1.000000 0
  0.078125   0.218750 0
  0.234375   0.593750 0
  0.718750   0.062500 0
  0.687500   0.125000 0
  0.000000   0.765625 0
  0.421875   0.500000 0
  0.031250   0.593750 0
  0.718750   0.015625 0
  0.687500   0.234375 0
  0.015625   0.812500 0
  0.703125   0.171875 0
  0.703125   0.187500 0
  0.703125   0.140625 0
  0.015625   0.781250 0
  0.437500   0.515625 0
  0.500000   0.796875 0
  0.078125   0.015625 0
  0.687500   0.203125 0
  0.250000   0.578125 0
  0.703125   0.109375 0
  0.000000   0.515625 0
  0.500000   0.765625 0
  0.062500   0.593750 0
  0.750000   0.015625 0
  0.015625   0.843750 0
  0.687500   0.000000 0
  0.500000   0.828125 0
  0.078125   0.046875 0
  0.015625   0.531250 0
  0.250000   0.546875 0
  0.703125   0.078125 0
  0.703125   0.031250 0
  0.015625   0.671875 0
  0.250000   0.515625 0
  0.000000   0.656250 0
  0.500000   0.906250 0
  0.078125   0.125000 0
  0.687500   0.015625 0
  0.031250   0.546875 0
  0.687500   0.031250 0
  0.500000   0.859375 0
  0.703125   0.000000 0
  0.703125   0.046875 0
  0.703125   0.015625 0
  0.500000   0.937500 0
  0.234375   0.531250 0
  0.031250   0.578125 0
  0.687500   0.062500 0
  0.500000   0.890625 0
  0.031250   0.796875 0
  0.453125   0.531250 0
  0.500000   0.968750 0
  0.078125   0.187500 0
  0.234375   0.562500 0
  0.031250   0.609375 0
  0.718750   0.031250 0
  0.687500   0.093750 0
  0.750000   0.046875 0
  0.000000   0.937500 0
  0.421875   0.671875 0
  0.718750   0.187500 0
  0.031250   0.828125 0
  0.765625   0.062500 0
  0.015625   0.953125 0
[...]
CELL_DATA 7648
SCALARS scalar_value float 1
LOOKUP_TABLE default
0.00225396
0.000461307
-0.00230275
0.00299445
0.00177665
0.00127338
5.57271e-05
-0.00297136
0.00031501
0.00221229
-0.000547758
-0.00301609
-0.00111137
0.460291
0.100083
-0.00250529
0.00499
0.00120757
-0.00480584
3.35273e-06
-0.00185069
0.00343556
3.69738e-05
-3.92661e-05
0.00518518
-0.00308676
-0.00811989
-0.00668593
-0.00501949
-0.00406029
-0.00407299
-0.00697837
-0.00124183
0.000281375
0.000275645
0.000101443
-2.74904e-05
8.13728e-05
0.00060572
-0.00144381
-0.000558897
-0.00164108
0.00661077
0.000236787
-0.000148552
0.000665284
0.00140326
0.00146967
0.000222615
0.00651182
-8.21364e-05
0.000263258
-0.00231193
-0.00101475
-0.00302372
-0.00161893
-0.00420076
-0.00134396
0.00454181
8.03696e-05
2.97746e-05
0.00404437
-0.000472745
0.00362079
0.000126749
0.00499846
-0.00276469
-0.000188112
0.00218404
-0.000164247
-0.000169044
-9.19562e-05
3.50324e-07
-3.2712e-06
-0.000217123
0.0277464
0.00499054
0.00250014
0.00453052
-0.00361685
0.000132739
0.00326699
0.0294436
0.00446118
4.96381e-06
0.000197843
0.00714791
-0.00228637
0.00485633
0.00365215
0.0769514
-0.0081247
0.000179423
0.00071904
-0.000172441
0.000370191
0.000532245
0.000238057
0.000188879
0.0919517
0.0857141
-0.000103423
-8.48162e-05
-3.2439e-05
0.0230131
0.657009
-0.000166948
-0.000519459
-0.00391593
0.00669968
-5.08335e-05
-0.000206185
0.0067908
-0.00154926
-0.00738735
0.00945626
0.00134956
0.228529
0.229775
0.214608
0.249115
-0.00175737
-0.00211056
0.000234235
-3.60886e-06
-0.000103354
-7.05435e-05
0.0125658
-0.00468955
-0.00280844
0.00398531
0.000142354
-0.000128692
-0.000463087
0.00016783
0.00019447
-0.00299416
0.00586198
-0.00207981
0.00118467
-0.00151952
-1.08044e-05
-6.55345e-06
0.000207779
-0.00335196
-0.000335556
4.31512e-06
-0.00037714
2.38102e-06
-0.00141464
8.09952e-06
4.47269e-05
0.000861596
0.222287
-0.00173264
0.503768
0.000528097
-6.50624e-05
0.00298136
-0.00191435
0.00222167
0.000737206
0.000425767
-3.19799e-05
7.39355e-05
-0.000421509
-0.00217991
-0.00241343
-0.00146524
-0.0010099
-9.35586e-05
3.12647e-06
-3.01488e-06
-4.11774e-06
0.0010381
0.000169462
0.0125773
1.37689e-05
0.000161871
-0.000795205
-0.000204011
0.000105012
-0.00223669
0.00138351
-0.00115987
0.00020776
-0.00532015
-1.11832e-05
0.000204193
-0.000402952
0.00569488
-0.00246476
-0.00330833
-2.05057e-06
4.32149e-05
1.29987e-05
6.03938e-05
-0.00119105
6.39512e-05
-0.00116938
0.000528087
0.00329656
0.00463722
0.00565372
-0.000644586
0.000144181
-0.0012563
-0.00217736
-0.0105817
0.000309623
-2.3705e-05
0.00266515
0.000237948
0.000613163
-0.00177461
0.00310804
-0.0011351
0.00335619
-0.00322775
-0.000327968
0.00067238
6.97648e-05
-0.0011
0.000975935
-0.000420633
-0.00856912
0.000198501
1.27701e-05
3.18391e-05
-0.0106851
0.000563307
0.00395906
0.00368286
0.00034784
-9.20218e-05
-0.00100137
0.000681238
-1.06369e-05
0.000134044
0.0116867
1.7688e-05
0.0304012
-0.00180625
0.00893564
0.0196995
-7.33647e-06
0.127816
0.186846
0.256344
-0.000775656
-0.00012936
-0.00088887
0.00268774
-0.000462839
-0.000137545
5.96736e-06
6.40927e-05
0.00242738
-7.78173e-06
-0.00371047
-0.00309272
0.000541971
-0.00242731
0.0057983
-0.0015605
0.00595956
0.00847685
0.0263094
0.0884789
0.00798886
-0.00545624
2.69198e-06
-0.00303013
0.00788425
-0.0015744
0.00506445
-0.0027016
0.00264495
0.000389733
-0.000429932
-0.000850495
-0.00394058
-0.00486114
0.00256496
-0.00792267
-0.0223781
0.00217381
-0.0104227
0.0170696
-0.00124848
-0.000605463
0.0384096
0.101335
-0.000793854
-0.00545315
0.0125981
0.00173995
-0.0031902
-0.00855691
0.00311558
0.00838568
-0.000459341
0.000479939
0.00195182
-0.00254589
-0.00401183
0.00027121
-0.000327873
-0.0109405
-0.00894913
-3.30081e-05
0.0161053
0.0240978
0.0109848
-0.00433258
-0.00369647
-0.00463089
-0.000386355
0.00174523
0.00304547
-1.1994e-06
8.75461e-05
4.44729e-05
-0.000109494
5.22229e-06
0.000810077
0.000464624
-0.000176549
-3.14908e-05
-0.000267773
0.00414431
-0.00326935
-2.88102e-05
0.0025518
-0.00581088
-4.19315e-05
3.81284e-05
0.000421225
-1.58852e-05
0.000469824
-0.00130869
0.0090377
-0.00126216
-0.00204061
-0.000501715
-0.00119533
0.00210396
-0.00927506
8.71939e-05
6.91997e-06
0.125079
0.00410834
-5.14547e-05
-0.000569017
0.00306427
-2.46437e-05
0.000333102
-0.000549059
0.00141189
-7.93714e-05
0.00410486
0.000142423
0.0345621
2.33325e-06
-0.00105019
-0.000269949
-0.00387896
0.0011584
0.0105147
-0.00178106
0.0115474
-5.30831e-06
3.79843e-05
-0.00514041
-0.00677728
0.0076081
-0.00137398
0.00399362
0.00881555
-0.00167715
-0.000536492
0.00356583
-0.00180816
-0.0040996
-0.00379603
-0.00277922
-0.000406054
-0.00317818
0.000526861
0.00197593
-0.000449604
0.000538052
0.00148421
-0.00144084
-0.00343419
-0.00383663
0.00689471
-0.000215594
0.000462873
0.00117019
-0.0017511
-0.000542934
0.000149532
-5.3332e-05
-0.000102248
-1.3314e-05
0.000492235
0.00125616
-0.00190663
0.000261468
0.0447158
0.021416
-2.56131e-05
0.023545
0.0100905
0.129569
-0.00117669
-0.000312388
0.00137563
-0.000969661
-0.00157049
0.000266167
0.0018402
-0.00616484
0.00303785
0.000565601
-0.000315588
-0.00230832
-0.000113026
0.255314
0.32819
-0.00445428
2.57597e-06
0.00309566
0.0116325
0.00673716
-0.00021451
-1.28308e-06
-1.35107e-05
2.69156e-05
0.00301699
0.000622484
-0.0029694
-0.00147726
-1.67049e-06
5.64689e-06
0.0104271
-0.000136783
6.21811e-06
-0.000258027
-2.47264e-06
0.0231303
-0.000568883
-0.00134052
1.61869e-05
-0.000131782
-0.000353197
0.0127708
-0.00894984
0.00148647
-0.0061787
-0.000152298
0.112578
-0.00012526
-0.000638081
-1.80388e-05
3.85352e-05
-9.96618e-05
-5.02986e-05
0.000306414
-0.00868571
0.000318876
0.00206126
2.17001e-05
0.0884228
0.0322998
-0.000677507
-2.21412e-06
0.138513
-0.000308208
-1.42273e-06
-0.00420307
-0.00569301
0.000498948
-0.00196231
0.00274696
6.12319e-06
-0.000105736
-0.000119467
0.00278564
0.00015277
4.12044e-06
-2.44597e-05
0.000758647
0.201655
-0.00398101
0.000212471
-4.43469e-05
-0.000110464
2.69568e-05
-0.0028913
-0.000108749
-7.17539e-06
0.00471492
-2.35316e-05
-0.000319852
-0.000425371
5.48289e-05
0.0036331
1.83708e-05
0.00109111
2.97478e-05
8.63753e-06
0.0925929
0.00382569
0.0481015
-8.77065e-07
-0.00197509
0.00346742
0.135368
0.33071
0.0520001
-2.8001e-06
0.0012226
-0.000366529
1.39958e-05
-0.0024206
-1.12945e-06
0.0041074
-0.00420987
0.00181701
8.1088e-05
-0.000494459
0.0196192
0.00359398
-1.91401e-06
-0.000506667
4.97797e-06
-0.00345132
0.00719945
-0.000292688
4.31133e-05
0.00191698
0.000349761
-0.0370703
-0.00964378
5.13456e-05
0.000922746
-0.00481754
0.00203007
0.00196079
-0.000252105
-0.00150145
0.00888149
-0.00242373
-0.0036021
8.88493e-05
0.00117361
-0.0133573
0.00138576
-0.000273303
-0.00719692
0.00198872
-0.0126366
-0.0108833
4.29624e-05
0.00315536
0.00127911
0.00327895
0.000125793
-1.30504e-05
0.00314777
-0.00255955
-0.00479953
-0.00252414
0.000776491
0.00250756
1.07538e-06
0.00214329
2.8639e-05
0.00348033
-0.00809528
0.00115201
-0.00124689
5.32306e-05
0.00385355
0.0135091
-0.00021506
-0.00408809
-7.81376e-05
-0.000139576
-6.39917e-05
-0.00110954
0.450246
-1.30639e-05
4.73086e-06
-0.00656588
0.606123
0.00859125
0.0167561
0.000880144
-0.000192115
0.000756551
0.00309198
-0.000603019
0.00110006
0.0015995
0.00126769
0.00480102
-0.00203351
0.00308025
-0.00743989
-6.25982e-05
0.00126138
0.000892677
-0.00473
-0.00256389
-0.00277553
-0.00195545
-0.00131132
4.65081e-05
-0.00116121
-0.0019236
-0.00217322
0.00178117
-0.00150148
0.00378986
0.000430656
-0.00324728
-0.00408318
-0.00105877
0.000685574
0.00104138
0.00374245
3.31739e-05
-0.000425834
0.000176881
0.184195
0.0790891
0.000892059
4.63817e-05
-0.00176245
4.23615e-05
0.000500861
-0.000148717
0.000206022
-0.000289109
0.00280949
-0.0084215
-8.08953e-06
-0.00368262
0.268103
0.00450177
-0.00891082
-0.000153468
0.00065944
0.00550478
0.0056898
0.00305674
0.021937
1.71598e-05
0.0016922
0.235703
-0.0134975
0.0023599
0.0108202
-0.00154033
0.245305
0.00162622
0.000638052
-0.00874021
0.00416868
-2.54336e-06
-0.00612465
0.000586748
-0.000733569
-0.000681393
-0.00638212
-0.000602118
1.11613e-06
-0.00377272
0.00224945
0.00415601
0.0113041
0.000101015
-0.0120489
-0.000716792
-0.00442763
0.000244711
0.00015411
0.00142235
-7.8395e-05
0.604284
0.000594263
-0.00238821
-0.00601946
-0.000852445
8.05245e-06
3.12222e-05
-1.58723e-05
0.000994842
1.09743e-05
0.000517613
0.00460191
-0.00104784
0.000476762
-0.000357965
4.58687e-06
0.000244882
-0.0030904
-0.0155566
-0.00114624
-0.00159171
0.00465892
0.00388958
5.92188e-05
-0.000813874
0.00672397
0.0111116
-0.000162117
0.000604024
-0.0147154
-0.000418708
0.000937173
-0.00121467
-0.0134071
0.000212865
0.0036661
-0.0124737
-0.00115237
-0.000153214
0.000388735
-2.246e-05
-0.00018221
2.71032e-06
7.28127e-05
-0.00142006
-0.00317127
-0.000112272
0.000182176
0.000461185
-0.000137278
0.000559209
0.000890326
-0.00714162
4.60586e-07
0.00472669
-0.00375689
1.28805e-05
0.00231678
1.0786e-05
-0.0110515
1.77346e-05
-9.49992e-05
0.462818
-0.000130521
0.000146925
0.0028796
-0.010769
0.235909
-0.000693679
2.28677e-06
0.000312004
-8.2508e-06
-0.000458096
0.000648762
-0.00412404
-9.61678e-05
5.10453e-05
-0.000124271
-0.000551536
-0.000802615
-0.00207855
0.213409
3.38563e-05
0.00131039
-4.56768e-05
-0.00335028
0.000847396
0.00598192
0.000501437
7.1058e-05
1.1731e-05
3.70857e-06
0.000618002
-3.19629e-05
0.00035608
-0.0403853
-0.00273041
0.650665
0.00174022
-3.307e-06
0.000280126
0.00444934
-0.00465791
-0.00392675
0.00298586
0.00314631
0.00428321
-0.000434599
0.481844
0.00471678
-0.00135182
-0.00245151
-0.00638593
-0.00342284
-0.00977348
0.00269778
0.000742283
-0.0127885
0.00898691
-0.0012784
0.000304822
0.00893952
0.00441012
0.64607
-0.000940747
0.530008
0.00270366
0.161439
0.0974219
0.483141
0.00124328
0.00027655
0.462364
0.440293
1.29443e-06
-0.000561123
0.401495
0.000494364
0.000107815
0.00941521
-0.00356149
2.36687e-05
0.00780881
0.00117115
0.000965635
-0.00132204
0.000403734
-0.000753695
-0.0184263
0.00204187
-0.0144739
0.634881
0.00529772
0.00719579
0.00213945
-0.00181768
0.00206046
7.41294e-06
2.08611e-05
0.63199
0.00365058
-0.00146995
0.00028971
-0.000745755
-0.000566196
-0.000238079
-0.00192369
0.00114351
-0.00261782
-0.0054325
-0.00500288
0.000797399
0.00864179
4.9105e-05
-0.00165569
0.004588
0.00344521
0.00319357
0.000402435
0.00191469
0.000462506
0.00145743
-3.44261e-05
0.370961
0.000742689
-0.00652823
0.00299516
0.571838
0.51227
0.000335883
0.00202453
0.000208867
-0.000214696
0.130323
-0.00606218
-0.00191775
-0.00270605
-0.00143567
0.00658904
-0.00368285
-9.76609e-05
-0.000647009
-0.00223959
-0.00304749
0.00309985
-1.9334e-06
-1.005e-05
-0.000295012
1.47589e-06
-8.2817e-05
0.00209174
9.09017e-05
0.000209349
0.000130933
0.00446129
-0.000451811
0.00463843
-0.000471424
-0.00111713
-0.000708571
6.24818e-05
0.000368164
0.00317226
0.000122724
-0.00125821
5.2972e-06
0.00916061
1.10319e-05
0.000520785
-2.146e-05
0.243875
-0.000145792
0.124337
0.201155
-0.000282542
0.625083
0.00012886
-0.000352578
0.00245331
0.0363261
0.00729511
1.92712e-05
0.0528984
-4.22705e-06
-0.00818144
-0.00259011
0.00971617
1.05505e-06
-0.00636073
-1.68685e-06
0.01751
0.0575992
2.56622e-06
2.56944e-05
0.000276914
-0.000250231
0.00348124
-0.000309201
0.00276898
9.21758e-05
0.00902152
-0.00486156
-0.00339884
0.00260401
3.44283e-06
0.00151137
0.001299
-0.000170105
0.000226259
-2.94535e-06
-0.0050038
-2.2682e-05
9.4654e-05
0.00184395
0.00110643
0.000125707
-0.00267157
-2.89882e-06
3.0689e-05
-0.00243617
-0.00314082
-5.66003e-06
0.00121982
0.0336933
0.099239
1.51925e-05
0.0086827
0.00383073
-0.00563731
0.25343
8.53504e-05
0.390089
0.256693
-0.000728891
-0.00731773
0.0085951
-0.000100114
-0.00609777
-0.00231144
0.0177724
0.001917
-0.00082361
-3.67802e-06
6.67998e-05
0.00114574
0.000467245
0.00700021
-0.000328412
0.119335
0.000327571
-3.55635e-05
-3.86538e-06
-6.5958e-07
0.000413316
-0.00322813
0.00456885
-0.0106468
0.0116558
-0.000775629
-0.000191207
2.42216e-05
0.00349888
0.00891363
-0.000122025
-0.00209365
1.33098e-06
-1.01984e-05
-0.000356667
-0.00468083
0.0260972
-0.00581731
-0.00290135
0.554721
0.000153698
0.000143692
0.165316
0.000425441
7.68029e-05
0.2859
0.0337042
0.000800269
-0.00330917
4.42029e-05
3.85674e-06
0.0210621
-0.00406392
0.00041933
-0.00154681
0.000362945
0.000184682
-0.000835851
0.00161178
-0.0272355
-8.519e-06
-0.00158738
2.77966e-07
0.0204585
-0.00130221
1.80832e-05
7.57282e-05
-0.000304409
4.9649e-05
0.000260066
-0.000681354
3.5993e-05
-3.22305e-06
-3.78262e-06
1.03796e-05
-0.000400507
2.11499e-05
5.96089e-05
-2.53934e-05
-1.50195e-05
-0.000266447
0.00121051
-0.0121498
0.00969515
0.000220454
4.35074e-05
4.26097e-05
6.4525e-05
0.022841
-0.00391397
0.00126497
-0.00021837
-0.00632603
0.00420791
0.0148103
0.00185939
-9.9891e-05
8.53024e-06
-2.42714e-06
-0.00348831
-0.000540811
0.00805459
1.43751e-05
-0.00114539
0.0738338
-0.000434144
-0.0014531
-0.00524091
2.47783e-05
-0.00135875
0.000660884
-0.00219947
0.00242132
-0.0112106
0.00380013
0.0106138
-0.000166395
-0.0057115
-9.70271e-06
0.000450438
0.14887
-0.0080891
0.00804637
0.00159612
0.00038916
-0.00639487
-8.95665e-06
0.0120946
-0.00100738
-0.00230589
-0.00754388
5.69633e-06
-0.00391387
0.000130485
2.73193e-05
0.00133231
0.00138365
-0.00350442
0.00199087
6.64855e-06
2.21952e-05
8.21223e-06
2.96225e-05
0.0105341
0.0258517
-0.0159854
0.0027166
0.00030905
0.00038605
-0.000323397
-5.51049e-05
2.52247e-06
9.2567e-05
-2.06479e-05
-9.44267e-05
-8.01961e-05
1.2091e-05
2.03053e-05
1.94615e-05
1.12713e-05
-0.000520891
-0.00241925
-0.000379889
-0.00120296
-0.000773559
0.00120875
0.00332505
0.00088876
0.00225354
0.000243132
-0.00718645
1.30293e-06
0.000275037
4.28003e-05
-0.000288177
-6.78861e-05
0.00418217
-0.000112439
-0.000137712
0.0439298
-0.0016104
0.000400847
-0.00720867
-0.00479052
-0.00351034
-0.00868532
-0.0461643
0.0622492
0.00281726
-0.0525959
0.00295406
0.00086765
0.00329634
0.00226781
0.00183682
0.0263669
-8.27589e-05
-0.000398633
0.00450155
0.000334589
0.00291024
0.00184303
0.00116487
0.00327444
-2.2017e-05
-0.000167411
-0.000393712
-0.000668809
2.33839e-05
0.00086456
-0.000556004
-0.000517899
-4.51471e-05
0.00863124
-0.002008
-0.00381792
0.00254355
-0.000195716
-2.4509e-06
0.0101838
0.0010808
0.00514809
0.0152679
0.0625068
0.0205513
-0.0144482
0.002136
-7.68786e-06
0.00118352
-0.036544
-0.0177895
-0.0412237
0.00769184
2.18733e-06
-0.0019985
0.000188188
-5.33213e-06
7.72849e-05
-0.000180333
0.000196457
0.000190606
-0.00052283
0.00438588
-1.92834e-05
0.000852934
0.00366604
-0.00312098
-0.00385929
-0.00272163
-5.81241e-06
-0.00853524
0.00539132
-0.00304241
0.00634833
-0.00108097
9.78893e-06
0.000214457
0.000336074
-0.000518421
-1.06406e-05
0.000133321
-2.02607e-06
0.000919336
-0.0039057
-4.87323e-07
0.00457212
0.0103682
0.00801008
-0.000689715
5.01491e-06
-0.00232727
8.00183e-06
0.000256492
0.000272801
0.00134219
0.00184295
3.91677e-06
0.00012717
-5.32473e-05
8.69957e-05
7.55646e-07
5.59641e-06
1.26191e-05
2.1522e-06
0.000216397
-0.000230278
-0.00120313
0.00428657
-0.00881622
0.0062618
0.0156877
-9.30588e-05
0.000709948
0.0282921
0.050687
0.0333332
0.0130737
7.72289e-05
5.1643e-06
8.80842e-06
0.0285786
-1.37324e-06
8.35536e-06
0.00458024
-4.15846e-05
0.00258445
-0.0019102
-0.00267865
0.00440321
0.00141407
0.000362744
6.69161e-05
-0.00014242
0.0156218
0.054096
0.0109759
0.0181718
0.000168065
0.00320537
0.000690119
0.000120046
-0.000613336
-0.000688129
-2.77841e-05
-2.36187e-05
-3.36732e-05
-5.00098e-05
0.00545828
-0.00342336
0.000516799
-0.000673538
-8.33469e-08
0.230223
-0.000135123
8.7806e-05
-0.000105411
-0.000113789
0.000129299
-0.00131039
-0.0057497
0.000183592
-0.0661569
0.437099
0.212336
0.354399
-0.00374196
0.00411796
-0.00232883
6.67528e-07
0.00797093
-0.00350384
0.00570039
-0.00400907
-0.00178705
0.000139735
-0.000178345
-2.63764e-05
-0.00196476
-0.00286798
-0.00199674
-0.0040218
-0.00250851
-0.00264628
0.00150677
-0.0051006
-0.00435326
0.00177322
-1.98931e-05
-0.00329735
0.252687
0.183434
0.288455
0.109666
0.00677877
0.000839635
-0.00167715
-0.000602552
-0.000117322
0.00107219
0.00524177
-0.00511624
-0.00605752
0.00140022
0.00359199
2.85346e-05
-0.00777615
0.00305944
2.00612e-05
-0.0144063
0.00429977
-0.0148158
-0.0486756
0.0116949
-0.0083544
-0.000602049
-0.00623011
9.09618e-05
0.080362
0.0743152
0.166298
0.200539
-0.00330092
0.00330276
-0.0570425
-0.00677776
-2.41256e-05
-3.15203e-05
-2.16802e-05
0.0218078
0.017951
-7.37755e-07
1.30614e-05
1.37963e-05
1.1017e-05
0.000116937
0.000134213
1.2617e-05
0.00129554
-0.00270181
0.00227402
-0.00154784
-0.000246637
0.000252912
0.000907295
0.00100577
0.000131052
-0.000258934
0.0314492
-0.000558296
0.000351661
-0.00336823
-8.224e-05
-0.00113427
-0.0027293
-0.00492576
-0.000199126
7.69261e-05
-1.43433e-05
-0.0121184
-0.000555246
0.660378
-0.00181714
2.05677e-05
0.000249575
-0.000102504
0.00591989
0.00109126
0.000491166
9.87572e-05
-0.000480957
-0.00652889
1.40712e-06
0.00109052
7.38205e-07
-6.31274e-06
-0.000299184
-0.000444757
0.00144501
-0.000449769
-0.0010833
-0.00065136
0.00033909
0.000267681
0.0148341
0.000130199
-0.000125397
0.00094934
0.000147868
-0.0031933
-0.00110588
-0.00118774
0.2223
0.513161
0.494396
0.210571
0.455701
0.263718
0.00619688
0.00184354
0.00855614
0.187924
0.148936
1.32954e-05
0.000704013
-2.03635e-05
-2.19182e-05
0.0325133
0.0448866
0.00179475
-0.000227569
-0.000506223
0.280428
0.227056
-0.000166615
-0.000312679
1.92852e-05
-0.00069351
2.92683e-06
0.0153038
5.42482e-05
0.0102152
-0.00118099
0.00382312
-0.000717305
-0.00292728
-0.00596379
0.174034
0.297732
0.54659
0.0226658
0.00375236
-0.000452456
0.00472067
-0.00347217
0.0142502
0.000267441
-8.51649e-05
0.000555919
-0.000678711
-3.95006e-05
-0.00159811
-0.00125845
3.80246e-05
2.06216e-05
0.00126423
9.17927e-06
0.0066591
-0.000922401
6.52105e-05
0.0013589
0.000401818
0.000530119
4.36695e-05
-0.000601708
-0.000692892
0.00151365
0.000187623
0.000406181
-0.000403074
0.0362662
-0.00305635
0.193632
0.170305
0.144274
-0.000544055
0.00272417
-1.59595e-05
-0.00459767
-0.00450714
-0.0111361
0.137797
0.0781524
0.0774128
-0.00567653
0.000837201
-0.00183666
-1.37817e-05
0.0650516
-0.011351
8.66294e-06
-0.022934
-0.00754565
0.00478321
-0.000294489
0.00366647
-0.000117733
8.70997e-05
9.69699e-05
-7.67569e-05
-3.84477e-05
-0.000474759
-0.000323736
1.50332e-05
5.83213e-05
-8.76006e-06
3.79752e-05
-8.15703e-05
-5.87595e-05
-6.78512e-05
-0.000131297
2.6519e-05
6.53469e-05
-2.57086e-05
-0.000237248
-0.00017547
-0.000164841
-0.000227551
-0.000201022
-0.0005361
0.00154974
-0.00627267
-0.00321727
0.00407358
-0.0223304
-0.0134144
-0.00287306
-0.0222914
0.398062
0.418811
-1.97812e-05
-0.00523592
-0.00132151
-0.00137745
-0.00265866
-0.000384444
0.00217493
0.00699666
-0.00163947
0.00113164
0.000869033
0.000947208
-0.00944606
0.00296129
0.00368827
-0.00311008
0.00392167
-0.00845266
0.000133411
-6.39673e-05
-0.00314048
8.64029e-06
-3.30005e-06
7.59717e-05
-0.000861698
-0.00266828
-0.0125415
0.0581882
0.289794
-3.15286e-05
2.67605e-05
1.66642e-05
-2.55807e-05
-3.11315e-05
0.00551796
0.0374153
-0.00326065
0.000121687
0.00343914
-0.00149052
0.00380065
2.26937e-06
0.00124947
0.00417735
-0.00468122
0.000515376
0.0026657
0.00426295
0.000387344
2.53344e-06
-0.00927412
0.00667989
0.0536793
0.0375315
0.0197974
0.0047311
-0.00430199
0.000746204
-0.00232926
0.00237401
0.00422583
0.0032848
-0.00600333
-0.00187155
0.00128001
-0.00298309
0.0125802
-0.0162163
0.0020941
0.000976252
4.14208e-05
-0.0057658
-0.0536013
0.000122817
0.00305529
0.000869647
-0.00557046
5.77607e-05
-0.000311319
-5.63305e-05
-1.4628e-06
-0.0014806
0.0107807
0.00412085
0.0233026
0.0389678
-2.38156e-06
0.0397479
0.455569
0.226049
0.421724
0.145347
0.112749
0.0524779
0.474704
0.472512
0.277427
0.275358
0.00631619
0.0199341
0.00829669
0.0156714
0.00704174
0.00438137
0.0689687
0.00319717
-0.00247235
0.00326117
-0.015121
-0.00416317
-0.000892695
0.002456
0.0217765
-0.00075641
-0.0023946
0.0485661
0.0449415
-5.7603e-05
-0.00127213
0.000359158
-0.0051854
0.00124326
0.00127713
0.000704061
0.00121586
-0.00135565
0.000828004
4.85276e-05
5.726e-05
5.69042e-05
6.53461e-05
-3.23118e-06
2.14849e-06
3.22426e-06
-0.00326506
0.00594765
0.260457
0.207232
0.0964556
0.253088
0.145297