# vtk DataFile Version 2.0
Unstructured Grid by M++
ASCII
DATASET UNSTRUCTURED_GRID
POINTS 4072 float
  0.875000   1.000000 0
  0.875000   0.984375 0
  0.875000   0.968750 0
  0.875000   0.953125 0
  0.875000   0.937500 0
  0.875000   0.921875 0
  0.875000   0.906250 0
  0.875000   0.890625 0
  0.875000   0.875000 0
  0.875000   0.859375 0
  0.875000   0.843750 0
  0.875000   0.828125 0
  0.875000   0.812500 0
  0.875000   0.796875 0
  0.875000   0.781250 0
  0.875000   0.765625 0
  0.859375   1.000000 0
  0.859375   0.984375 0
  0.859375   0.968750 0
  0.859375   0.953125 0
  0.859375   0.937500 0
  0.859375   0.921875 0
  0.859375   0.890625 0
  0.859375   0.875000 0
  0.859375   0.859375 0
  0.859375   0.843750 0
  0.859375   0.828125 0
  0.859375   0.812500 0
  0.859375   0.796875 0
  0.859375   0.781250 0
  0.859375   0.765625 0
  0.859375   0.671875 0
  0.859375   0.656250 0
  0.859375   0.640625 0
  0.843750   1.000000 0
  0.843750   0.984375 0
  0.843750   0.968750 0
  0.843750   0.953125 0
  0.843750   0.937500 0
  0.843750   0.921875 0
  0.843750   0.906250 0
  0.843750   0.875000 0
  0.843750   0.859375 0
  0.843750   0.843750 0
  0.843750   0.828125 0
  0.843750   0.812500 0
  0.843750   0.796875 0
  0.843750   0.781250 0
  0.843750   0.765625 0
  0.843750   0.671875 0
  0.843750   0.656250 0
  0.843750   0.640625 0
  0.828125   1.000000 0
  0.828125   0.984375 0
  0.828125   0.968750 0
  0.828125   0.953125 0
  0.828125   0.937500 0
  0.828125   0.921875 0
  0.875000   0.671875 0
  0.812500   0.921875 0
  0.890625   0.656250 0
  0.828125   0.906250 0
  0.875000   0.656250 0
  0.812500   0.906250 0
  0.890625   0.640625 0
  0.828125   0.890625 0
  0.875000   0.640625 0
  0.812500   0.890625 0
  0.890625   0.625000 0
  0.828125   0.875000 0
  0.890625   0.609375 0
  0.828125   0.859375 0
  0.890625   0.593750 0
  0.828125   0.843750 0
  0.890625   0.578125 0
  0.828125   0.828125 0
  0.890625   0.562500 0
  0.828125   0.812500 0
  0.828125   0.796875 0
  0.828125   0.781250 0
  0.828125   0.765625 0
  0.828125   0.671875 0
  0.828125   0.656250 0
  0.828125   0.640625 0
  0.875000   0.750000 0
  0.812500   1.000000 0
  0.875000   0.625000 0
  0.812500   0.875000 0
  0.875000   0.734375 0
  0.812500   0.984375 0
  0.875000   0.718750 0
  0.812500   0.968750 0
  0.875000   0.703125 0
  0.812500   0.953125 0
  0.875000   0.687500 0
  0.812500   0.937500 0
  0.875000   0.609375 0
  0.812500   0.859375 0
  0.875000   0.593750 0
  0.812500   0.843750 0
  0.875000   0.578125 0
  0.812500   0.828125 0
  0.812500   0.812500 0
  0.875000   0.546875 0
  0.812500   0.796875 0
  0.812500   0.781250 0
  0.812500   0.765625 0
  0.859375   0.750000 0
  0.796875   1.000000 0
  0.859375   0.625000 0
  0.796875   0.875000 0
  0.859375   0.734375 0
  0.796875   0.984375 0
  0.859375   0.718750 0
  0.796875   0.968750 0
  0.859375   0.703125 0
  0.796875   0.953125 0
  0.859375   0.687500 0
  0.796875   0.937500 0
  0.859375   0.609375 0
  0.796875   0.859375 0
  0.859375   0.593750 0
  0.796875   0.843750 0
  0.859375   0.578125 0
  0.796875   0.828125 0
  0.859375   0.562500 0
  0.796875   0.812500 0
  0.796875   0.796875 0
  0.859375   0.531250 0
  0.796875   0.781250 0
  0.796875   0.765625 0
  0.843750   0.750000 0
  0.781250   1.000000 0
  0.843750   0.625000 0
  0.781250   0.875000 0
  0.843750   0.734375 0
  0.781250   0.984375 0
  0.843750   0.718750 0
  0.781250   0.968750 0
  0.843750   0.703125 0
  0.781250   0.953125 0
  0.843750   0.687500 0
  0.781250   0.937500 0
  0.843750   0.609375 0
  0.781250   0.859375 0
  0.843750   0.593750 0
  0.781250   0.843750 0
  0.843750   0.578125 0
  0.781250   0.828125 0
  0.781250   0.812500 0
  0.843750   0.546875 0
  0.781250   0.796875 0
  0.781250   0.781250 0
  0.843750   0.515625 0
  0.781250   0.765625 0
  0.828125   0.750000 0
  0.765625   1.000000 0
  0.828125   0.625000 0
  0.765625   0.875000 0
  0.828125   0.734375 0
  0.765625   0.984375 0
  0.828125   0.718750 0
  0.765625   0.968750 0
  0.828125   0.703125 0
  0.765625   0.953125 0
  0.828125   0.687500 0
  0.765625   0.937500 0
  0.828125   0.609375 0
  0.765625   0.859375 0
  0.828125   0.593750 0
  0.765625   0.843750 0
  0.828125   0.578125 0
  0.765625   0.828125 0
  0.828125   0.562500 0
  0.765625   0.812500 0
  0.765625   0.796875 0
  0.828125   0.531250 0
  0.765625   0.781250 0
  0.765625   0.765625 0
  0.812500   0.750000 0
  0.750000   1.000000 0
  0.953125   1.000000 0
  0.812500   0.734375 0
  0.750000   0.984375 0
  0.812500   0.718750 0
  0.750000   0.968750 0
  0.812500   0.703125 0
  0.750000   0.953125 0
  0.812500   0.687500 0
  0.750000   0.937500 0
  0.812500   0.671875 0
  0.750000   0.921875 0
  0.812500   0.656250 0
  0.750000   0.906250 0
  0.812500   0.640625 0
  0.750000   0.890625 0
  0.812500   0.625000 0
  0.750000   0.875000 0
  0.812500   0.609375 0
  0.750000   0.859375 0
  0.812500   0.593750 0
  0.750000   0.843750 0
  0.812500   0.578125 0
  0.750000   0.828125 0
  0.750000   0.812500 0
  0.812500   0.546875 0
  0.750000   0.796875 0
  0.750000   0.781250 0
  0.812500   0.515625 0
  0.750000   0.765625 0
  0.796875   0.750000 0
  0.734375   1.000000 0
  0.796875   0.734375 0
  0.734375   0.984375 0
  0.796875   0.718750 0
  0.734375   0.968750 0
  0.796875   0.703125 0
  0.734375   0.953125 0
  0.796875   0.687500 0
  0.734375   0.937500 0
  0.796875   0.671875 0
  0.734375   0.921875 0
  0.796875   0.656250 0
  0.734375   0.906250 0
  0.796875   0.640625 0
  0.734375   0.890625 0
  0.796875   0.625000 0
  0.734375   0.875000 0
  0.796875   0.609375 0
  0.734375   0.859375 0
  0.796875   0.593750 0
  0.734375   0.843750 0
  0.796875   0.578125 0
  0.734375   0.828125 0
  0.734375   0.812500 0
  0.734375   0.796875 0
  0.796875   0.531250 0
  0.734375   0.781250 0
  0.734375   0.765625 0
  0.781250   0.750000 0
  0.718750   1.000000 0
  0.921875   1.000000 0
  0.781250   0.734375 0
  0.718750   0.984375 0
  0.781250   0.718750 0
  0.718750   0.968750 0
  0.781250   0.703125 0
  0.718750   0.953125 0
  0.859375   0.906250 0
  0.781250   0.687500 0
  0.718750   0.937500 0
  0.781250   0.671875 0
  0.718750   0.921875 0
  0.781250   0.656250 0
  0.718750   0.906250 0
  0.781250   0.640625 0
  0.718750   0.890625 0
  0.781250   0.625000 0
  0.718750   0.875000 0
  0.781250   0.609375 0
  0.718750   0.859375 0
  0.781250   0.593750 0
  0.718750   0.843750 0
  0.781250   0.578125 0
  0.718750   0.828125 0
  0.781250   0.562500 0
  0.718750   0.812500 0
  0.781250   0.546875 0
  0.718750   0.796875 0
  0.781250   0.531250 0
  0.718750   0.781250 0
  0.781250   0.515625 0
  0.718750   0.765625 0
  0.765625   0.750000 0
  0.703125   1.000000 0
  0.765625   0.734375 0
  0.703125   0.984375 0
  0.765625   0.718750 0
  0.703125   0.968750 0
  0.765625   0.703125 0
  0.703125   0.953125 0
  0.765625   0.687500 0
  0.703125   0.937500 0
  0.843750   0.890625 0
  0.703125   0.921875 0
  0.765625   0.656250 0
  0.703125   0.906250 0
  0.765625   0.640625 0
  0.703125   0.890625 0
  0.765625   0.625000 0
  0.703125   0.875000 0
  0.765625   0.609375 0
  0.703125   0.859375 0
  0.765625   0.593750 0
  0.703125   0.843750 0
  0.765625   0.578125 0
  0.703125   0.828125 0
  0.765625   0.562500 0
  0.703125   0.812500 0
  0.765625   0.546875 0
  0.703125   0.796875 0
  0.765625   0.531250 0
  0.703125   0.781250 0
  0.765625   0.515625 0
  0.703125   0.765625 0
  0.750000   0.750000 0
  0.687500   1.000000 0
  0.890625   1.000000 0
  0.750000   0.734375 0
  0.687500   0.984375 0
  0.750000   0.718750 0
  0.687500   0.968750 0
  0.578125   0.796875 0
  0.578125   0.781250 0
  0.578125   0.765625 0
  0.546875   0.953125 0
  0.546875   0.968750 0
  0.546875   0.718750 0
  0.546875   0.687500 0
  0.250000   0.609375 0
  0.937500   0.031250 0
  0.046875   0.703125 0
  0.734375   0.062500 0
  0.734375   0.078125 0
  0.734375   0.046875 0
  0.046875   0.593750 0
  0.046875   0.562500 0
  0.046875   0.531250 0
  0.718750   0.156250 0
  0.046875   0.609375 0
  0.734375   0.031250 0
  0.062500   0.609375 0
  0.234375   0.703125 0
  0.718750   0.125000 0
  0.046875   0.578125 0
  0.734375   0.000000 0
  0.062500   0.578125 0
  0.000000   0.828125 0
  0.234375   0.671875 0
  0.234375   0.625000 0
  0.718750   0.093750 0
  0.687500   0.156250 0
  0.062500   0.546875 0
  0.000000   0.796875 0
  0.718750   0.046875 0
  0.031250   0.687500 0
  0.687500   0.171875 0
  0.500000   1.000000 0
  0.078125   0.218750 0
  0.234375   0.593750 0
  0.718750   0.062500 0
  0.687500   0.125000 0
  0.000000   0.765625 0
  0.421875   0.500000 0
  0.031250   0.593750 0
  0.718750   0.015625 0
  0.687500   0.234375 0
  0.015625   0.812500 0
  0.703125   0.171875 0
  0.703125   0.187500 0
  0.703125   0.140625 0
  0.015625   0.781250 0
  0.437500   0.515625 0
  0.500000   0.796875 0
  0.078125   0.015625 0
  0.687500   0.203125 0
  0.250000   0.578125 0
  0.703125   0.109375 0
  0.000000   0.515625 0
  0.500000   0.765625 0
  0.062500   0.593750 0
  0.750000   0.015625 0
  0.015625   0.843750 0
  0.687500   0.000000 0
  0.500000   0.828125 0
  0.078125   0.046875 0
  0.015625   0.531250 0
  0.250000   0.546875 0
  0.703125   0.078125 0
  0.703125   0.031250 0
  0.015625   0.671875 0
  0.250000   0.515625 0
  0.000000   0.656250 0
  0.500000   0.906250 0
  0.078125   0.125000 0
  0.687500   0.015625 0
  0.031250   0.546875 0
  0.687500   0.031250 0
  0.500000   0.859375 0
  0.703125   0.000000 0
  0.703125   0.046875 0
  0.703125   0.015625 0
  0.500000   0.937500 0
  0.234375   0.531250 0
  0.031250   0.578125 0
  0.687500   0.062500 0
  0.500000   0.890625 0
  0.031250   0.796875 0
  0.453125   0.531250 0
  0.500000   0.968750 0
  0.078125   0.187500 0
  0.234375   0.562500 0
  0.031250   0.609375 0
  0.718750   0.031250 0
  0.687500   0.093750 0
  0.750000   0.046875 0
  0.000000   0.937500 0
  0.421875   0.671875 0
  0.718750   0.187500 0
  0.031250   0.828125 0
  0.765625   0.062500 0
  0.015625   0.953125 0
[...]
CELL_DATA 7648
SCALARS scalar_value float 1
LOOKUP_TABLE default
-0.00389937
-0.00481986
-0.0021506
-0.00175123
0.00426166
0.00330857
-0.000284038
-0.00246449
-0.00150653
0.00313902
-0.00104018
-0.000649593
-0.000129164
0.204497
-0.0131989
-0.00318945
0.00186344
0.00450594
-0.00201541
7.37672e-06
0.00267799
-0.00163466
0.00332574
4.27139e-05
0.00172284
-0.000475785
-0.00180521
0.00240587
-0.000955903
-0.010672
-0.000592751
-0.00579157
-0.00145829
-2.37294e-05
9.08715e-05
4.69252e-05
-7.59705e-05
0.000117328
0.000726737
2.61997e-06
-0.000328286
-0.00207915
0.000305454
0.000166037
-0.000179053
0.000408349
-0.000364711
0.000259503
-0.000720996
0.00549411
-0.000135926
8.38527e-05
0.00147165
0.00106984
-0.00157248
0.00505624
0.0035639
-0.00427308
0.00137425
0.000180207
-9.97088e-05
0.000126943
-0.000498249
0.00164387
-0.00299758
0.000977408
0.00329278
-0.000263188
0.00441986
-1.59572e-05
-0.000115454
-0.000106945
7.34827e-06
-4.75036e-06
-0.00155717
0.0245921
0.00585106
-0.00406865
-0.00136661
0.00172098
2.105e-05
0.00474953
0.01776
0.00188813
8.6412e-06
3.6502e-05
-0.0110475
-0.000754588
0.00846554
0.00610091
0.0273807
-0.000865946
-0.000698894
0.000282187
0.000550946
-0.000574531
0.000423841
0.00015979
0.00563043
0.0371238
0.0189375
-7.14229e-05
-4.40491e-05
-6.99206e-05
0.0227878
0.237306
0.000193976
0.00121509
-0.00612656
0.0032723
-0.000250892
-0.000277858
0.00238811
0.00213654
-0.00201257
-0.000615087
0.00313166
0.11193
0.125655
0.0653891
0.14758
-0.000842279
0.00160436
0.000142613
-3.61505e-06
-0.000108552
-9.98358e-05
0.00957493
-0.0129681
-0.0100362
-0.000449605
7.15423e-05
0.00327209
-0.00379099
0.000275238
0.000404807
-0.00124694
0.00374788
-0.00177602
-0.00118861
0.000248101
-2.42062e-05
0.000171976
0.000172752
-0.0027304
-0.000598293
-2.52196e-06
-0.000257816
-5.46776e-07
0.000296511
4.54787e-05
7.20922e-05
-4.46938e-05
-0.0034059
-0.00039387
0.350018
-0.00193342
-0.00175814
0.00318916
0.000635306
-0.000937201
0.000267652
-0.000205393
-2.96223e-05
-0.000468435
0.000135759
-6.57678e-05
0.000226455
0.000174102
-0.00172922
8.10104e-05
0.00122037
-4.70267e-06
-8.68072e-06
-0.00112202
-0.00527111
0.00867022
1.67257e-05
0.000185073
0.000559309
7.28183e-05
4.21948e-05
-0.000884945
0.00225597
0.000703856
0.00305994
-0.000427324
0.000239201
0.000115215
0.000443879
-0.00250706
0.000353251
-0.00128249
1.82124e-06
8.75616e-05
-7.12875e-05
0.000276668
-0.00572551
3.72022e-06
-0.00155739
2.13581e-05
-0.000583275
0.00339254
-0.000346847
0.000956656
0.000778694
0.00268215
0.000380505
0.00122793
5.04217e-05
-5.89719e-05
0.00723083
0.000574225
-0.000128714
0.00160287
0.00187552
-1.84804e-05
-0.00207467
-0.000512207
0.00324127
-0.000996039
-0.000158331
0.000560584
0.00111768
-4.61429e-05
-0.00270453
0.00132999
-0.000334086
-0.000159976
-0.00829367
-0.00206769
-0.00593487
0.00534285
1.48383e-05
-0.000164845
-0.000389802
0.00173467
0.00262688
0.000119368
0.000579962
2.05859e-05
-0.00291145
-0.00529164
0.00292563
0.00588532
-1.87004e-05
-9.8677e-05
0.0144485
0.0196091
0.00096484
-0.00050895
0.00123879
0.00282133
0.0017674
-0.00025073
-3.5696e-07
0.000409059
0.00490029
-0.00032224
-0.000289043
0.00145604
-0.0048499
0.000201568
-0.000384636
0.00146462
0.00453418
0.0107324
-0.0142003
-0.0649152
0.00890652
-0.0020151
6.26056e-06
-0.003591
0.00695454
-0.00407279
0.00251121
0.00367843
-1.95827e-06
-0.00245145
-0.00174594
-0.000704388
-0.00490149
-0.00147372
0.0034106
-0.00324229
-0.0058452
0.000697928
-0.00492504
0.0133159
0.00321747
-0.00732702
-0.0044025
0.00762727
0.000317624
0.000770981
0.00883808
0.0021753
-0.0048674
-0.0142004
-0.00368543
0.00466202
0.00190974
-0.00033464
0.00591693
-0.00559703
0.000448915
-8.26737e-05
0.000624516
-0.00557395
-0.00553588
-0.000153898
0.013
0.00738291
0.0178377
-0.00505176
0.000215397
-0.00214285
-0.00481574
-0.00269057
0.00355338
0.000157798
5.96035e-05
3.71476e-05
7.37084e-06
1.55041e-05
0.00192767
5.31925e-05
0.000130956
-0.000263233
5.18295e-05
0.00189912
-0.00409138
-2.93846e-05
0.000518487
-0.00225071
-0.000402129
3.74506e-05
6.82288e-05
0.000267137
0.000235196
-0.000195065
0.00440993
-0.00104627
-0.000941111
-0.000192852
-0.00414305
-0.00253358
-0.00792746
6.93078e-05
-5.8496e-06
0.0144372
0.00716813
0.000486742
-0.000625698
0.0040486
-3.61647e-05
2.02262e-05
-1.11069e-05
-6.28933e-05
-0.000109033
0.000659751
0.000303725
0.0234428
5.39077e-06
-0.00231984
0.000560324
-0.000966929
0.00397683
0.00988745
0.000568141
0.00808189
-1.25306e-05
0.00014791
0.00219992
0.000429831
0.00457118
0.000420447
0.00281312
0.00625464
-0.00198582
-0.00241908
-0.000666511
-0.00295509
-0.00352899
-0.00429719
-0.00203766
-0.000524372
-0.000928486
0.00133385
-0.00226101
0.00152538
0.000651207
0.00216922
-0.00107591
-0.00478026
0.00151918
0.00501885
0.000507812
0.00429089
0.00184815
-0.00101674
0.00776068
3.42347e-06
-4.76664e-05
-0.000426795
-2.00001e-05
-0.0011898
0.000215152
-0.00324131
0.000149801
0.180633
0.0135842
-2.79276e-05
0.0209479
-0.000392304
-0.0521429
0.00261646
-0.000111398
0.000102196
-0.000441291
0.000433651
0.00138019
5.35634e-05
-0.0113906
-0.00451658
-0.000758654
0.000416742
-0.0156619
8.40724e-05
0.191278
0.0980149
-0.00247428
2.54466e-06
0.00341318
0.00532974
0.00213593
2.72112e-05
-3.4436e-05
0.000132485
1.71785e-05
0.000308191
0.000570039
-0.00254196
-0.00411382
-4.76636e-06
6.33496e-06
-0.000501457
-0.0018899
2.02283e-05
-0.000690957
-3.0208e-06
0.0064222
0.0012192
0.00208319
-0.000136939
-7.03294e-05
0.000258436
0.00323036
-0.00650445
0.00197823
-0.0041677
0.000329714
0.0425212
0.000552845
-0.000313628
-9.87222e-05
0.000264064
0.000610763
-0.000325823
-0.000493874
-0.00126347
0.000728006
-0.00236492
3.92066e-05
-0.00268208
0.0133626
0.00349465
-1.20111e-06
0.0383631
0.00200487
-1.4192e-05
0.000515851
-0.00140222
-0.000242591
0.000136271
0.00071265
1.98179e-06
-0.000101198
0.000224378
0.00348883
-4.38785e-05
-0.000287067
-2.86645e-05
0.00185323
0.141749
-0.0269328
0.000307566
0.000100968
-0.000226262
1.62396e-05
-0.0030016
-6.20878e-05
-1.06449e-05
0.00305814
-0.000350998
-0.000634399
0.000344137
1.31968e-05
0.00088343
-7.40407e-05
3.23111e-05
-4.52827e-05
0.000131194
0.0123665
0.0123418
0.0371941
-3.48121e-06
-0.00119935
-0.00125359
0.0445359
0.0429136
0.0282528
-3.5152e-06
0.000243389
-0.000182136
0.000225482
-0.00073451
2.27621e-06
0.00468707
0.000677144
0.00122296
3.86775e-05
-0.000359392
0.00426774
-0.00071319
-6.06437e-06
-0.000468817
1.71443e-05
-0.018654
-0.00342191
0.00337938
6.10908e-05
-0.00115294
0.000128234
-0.00267675
0.000541876
-0.00408168
0.00245367
-0.000921317
0.00249237
-0.00306031
0.00189167
-0.00203658
0.00487407
0.00210129
-0.00116493
0.000175137
0.00393054
-0.00562823
0.000989822
-0.0021094
0.000472212
0.00162406
-0.00659595
-0.00850395
-0.000264461
-0.00138632
-0.000979705
4.64844e-05
0.000207659
-3.85006e-05
0.00138
6.74153e-05
-0.00801569
-0.00206981
-0.00367031
0.00574093
-4.17968e-07
0.00128426
6.55179e-05
-0.00605764
-0.00247204
-0.0059514
-0.00511248
0.000111717
0.0047046
0.00539055
-0.000388019
0.00174906
0.000512519
-0.000280828
-0.000719507
-0.000891383
0.445967
-1.71347e-05
5.93109e-06
-0.00560245
0.440395
-0.00526045
0.019685
0.00103093
-0.000506576
-0.000609288
0.000271542
-0.000133763
0.00026151
0.00112789
-0.00183491
-0.00260158
0.00125538
0.00346724
-0.000966337
9.04077e-05
0.00187258
0.00114722
-0.00382802
-0.00194979
0.00170422
0.00022712
0.00410983
-0.000481344
-0.00318796
0.000496433
-0.00176012
-0.000693479
-0.000667669
0.00270609
-0.000160294
-0.0024076
-0.00327026
-0.000347126
0.000196829
0.00393127
0.000771827
0.000301943
-3.93164e-05
-0.00605012
0.0363175
-0.0131719
0.0003741
6.22723e-05
0.00154422
0.000155349
-0.00127967
-0.00369659
-0.000522471
-0.000126325
0.00147941
0.00157059
0.000115811
0.000760524
0.0857441
0.000891912
-0.00945361
0.000382888
0.000332648
-0.00264541
-0.00203142
0.00513389
0.0217364
-2.24869e-05
0.000244148
0.269788
-0.00390914
-0.00254847
0.0119903
0.0108747
0.241918
-0.000268691
0.000525697
0.000319958
0.00688784
-4.91147e-06
-0.0290051
0.000843188
-4.99737e-05
-0.0047578
0.000487438
0.000878878
-1.90975e-06
-0.022056
0.00139488
0.00435288
0.00205963
0.000147418
-0.0116301
-0.00474148
-0.0142722
0.000541395
0.000186544
0.000531066
-0.000136047
0.515849
0.00126725
0.00127391
-0.00277928
-0.00338463
-3.41629e-05
0.000310245
-4.23377e-05
0.0062983
3.67203e-05
-0.00181971
0.00293444
-0.000874164
0.000315461
-0.00231788
3.14108e-05
-0.000186248
-0.00597349
-0.00788754
0.00718173
0.000652788
0.00937862
0.0030873
-0.000593727
0.00149663
0.0128147
0.0179166
0.000213535
0.00515392
-0.0235654
-0.000239882
-0.00117347
-0.00571588
-0.0109367
-0.00444804
0.00104164
0.0390091
-0.00216155
0.000211648
-0.000100817
-1.33054e-05
-0.00051438
1.03106e-05
-0.000412878
-0.00072385
-0.00513186
-0.000525772
0.00017396
-0.00183964
-0.000384573
-0.000397469
0.000813634
-0.00335145
-0.000520641
0.000396257
-0.00477449
2.02828e-05
0.00268168
5.1473e-06
6.27667e-05
-0.000240692
0.000108936
0.0513557
2.28585e-05
-0.00129596
-0.00153479
-0.00626794
-0.0489062
0.00206233
5.98735e-06
-0.000323419
-0.000297117
-5.97294e-05
9.6747e-05
-0.00149653
-0.000158353
0.000434561
-1.5438e-05
-0.000366054
0.00142495
-0.000491041
0.291941
-4.13779e-05
-0.000398777
-0.000121053
-0.00132215
0.00211736
0.00401151
0.000270619
6.6873e-05
1.90198e-05
0.000202891
0.00104873
0.000461063
-0.000338491
-0.0133995
-0.00245694
0.481423
0.00104191
-4.40926e-06
0.00216401
0.00221212
-0.00170475
-0.00301572
0.000268258
0.00457888
0.000324327
-1.97471e-05
0.0521529
0.00403981
0.00440665
-0.00770233
-0.00352155
-0.00455921
-0.00473169
-0.000640765
-1.69983e-05
0.0103469
0.00626675
-0.00382522
1.33239e-05
0.0208964
-8.23773e-05
0.214774
0.0027054
0.333698
0.00102361
0.226823
0.212488
0.409807
-0.00114462
0.00036632
0.0253797
0.0741523
1.15423e-05
-0.00716818
0.449536
-0.000836035
0.000573742
0.0065938
-0.00198513
2.74835e-05
0.00194063
0.00240612
0.00167514
-0.0034255
0.000395529
-0.00259782
-0.0176257
0.00140577
-0.0143999
0.344845
0.00976077
0.00392159
-0.00140979
-0.00315043
0.00437208
-1.92166e-05
0.000333864
0.356021
0.00655027
0.00223256
0.000812701
0.000583144
0.00357939
0.00183159
-8.71106e-05
0.00150929
-0.00189074
-0.00126969
-0.00279758
0.000728586
0.00620541
-7.82935e-05
-0.000314634
0.00303344
0.00186238
-0.00355704
0.00125296
0.00296919
0.000354853
-0.000806991
-6.17318e-05
0.157445
-0.000112078
-0.0591704
0.000465228
0.361105
0.283408
-0.000511452
0.00625816
0.000215557
-0.000159661
0.0113607
-0.000612733
0.00211126
-0.00260208
0.0014062
0.00199857
-0.00243107
7.15339e-06
-0.00538831
-0.0027361
-0.000934214
0.0104001
-1.08103e-05
-3.86999e-06
0.000721801
3.94586e-06
-0.000218749
0.00295054
0.000180277
0.000296893
0.00127551
-0.00498084
0.00174193
0.00190404
8.45201e-05
0.00385026
-0.00239968
0.000131909
0.000194914
0.00194305
0.0001301
-0.00259175
1.05175e-05
0.000425345
1.2028e-05
-0.000446355
-2.76769e-05
0.384721
-0.000273877
0.035238
0.0363921
-0.000189177
0.205867
-0.000336746
0.000166089
0.000659293
0.0201482
0.0045108
0.000342689
0.0315727
-6.53089e-06
-0.00408626
-0.00765799
0.00971537
3.03976e-06
-0.000136123
-3.65701e-06
0.0187548
0.044229
7.00597e-06
0.00386721
-0.000331221
5.95349e-05
0.00263255
-0.00060154
-0.00806149
-0.000281776
0.00662372
-0.00377065
-0.00163292
0.00243573
2.00102e-05
-0.00325132
0.00135651
0.000153768
-0.000166702
-9.6146e-05
-0.00151029
-0.000123136
9.13341e-05
0.00178176
0.00120697
0.000327698
-0.00387181
2.43534e-05
-3.09572e-05
-0.00162098
-0.00372877
-1.11304e-05
0.000286199
0.0118557
0.0292115
3.30017e-05
0.00546893
0.00814595
-0.00259374
0.213072
5.60345e-05
0.146159
0.18167
-0.00543358
-0.00989267
0.00267885
7.77171e-05
-0.0013835
0.00311913
-0.0194976
-0.00231101
-0.000402709
7.94447e-06
-0.000110301
-0.000527729
0.00075046
-0.00345602
-1.35377e-05
0.0309268
3.50966e-05
-0.000312144
-8.32597e-06
6.53587e-06
-0.0093124
-0.00471072
-0.00143838
-0.0140194
0.00972613
-0.00291213
-0.000496318
2.70893e-05
-0.00252608
0.0262981
0.036718
-0.00434356
1.92455e-06
-1.05968e-05
-0.00187885
-0.0100253
0.0503318
-0.0142461
-0.00212227
0.267308
0.000226258
0.00021241
0.293768
0.0008057
0.000264094
0.0610926
-0.0629706
0.000906567
-0.00221971
4.76842e-05
2.7736e-05
0.00448228
-0.00464953
-0.000648268
0.001128
-0.00232886
0.00158673
-0.00139097
-0.00192801
-0.00751661
-0.00434717
-0.00185275
0.000139751
0.0231065
-0.00217405
7.39387e-05
-0.000409288
-0.000377312
8.03023e-05
0.000224157
-0.00304781
7.54466e-05
-0.000150707
1.49741e-05
4.53357e-05
6.59448e-05
4.07245e-05
-4.24784e-06
0.000222998
-2.16333e-05
-0.000271559
0.0012268
-0.00283764
0.00576597
3.37267e-05
-0.00110391
3.26654e-05
0.00357001
0.0518888
0.00640991
0.000113152
0.00130207
-0.00569537
0.00764344
0.00204092
-0.00480643
-0.00032311
-0.000232758
1.79696e-05
0.00134621
-0.000123982
0.0125875
5.00732e-05
0.00133731
0.0110285
0.00100175
0.000390451
-0.00336202
3.88528e-05
-0.00422652
-0.000586028
-0.000767389
0.00266101
-0.00308415
0.00138545
-0.00384819
0.000193122
-0.0077804
-6.5537e-05
-0.00133073
0.326096
-0.00319462
0.00522805
0.000461566
-0.00350883
0.000191067
-5.21459e-05
0.00507838
-0.00202009
-0.00508411
0.0035212
1.57902e-05
-0.00317166
9.28573e-05
0.000148657
0.00126973
0.00256347
-0.00198286
-0.000168234
1.15331e-05
4.62458e-05
-3.60741e-06
-2.34497e-05
0.00663407
-0.00385634
0.0025907
-0.000815001
-3.09122e-05
-3.4573e-05
-0.000415127
0.000171218
0.000171219
0.000165988
0.000149586
0.000273566
-2.81048e-05
1.61522e-05
5.71134e-05
4.21349e-05
1.59468e-05
-0.00576249
-0.000718783
0.000755376
-0.00138054
-0.000917435
-0.0124751
-0.00720637
-0.0068468
-0.00115105
-0.000456418
-0.00430786
-1.23934e-05
0.00137624
2.79063e-05
0.00010241
-0.000141883
0.00346251
-0.000103929
0.000161455
0.0104872
-0.00289063
0.000817499
-0.00135365
-0.00602782
0.000446144
0.0132597
-0.0402989
-0.000132855
-0.00636934
-0.028668
0.00150001
-0.000940778
0.00997332
-0.00307226
0.000631199
0.00488919
8.73286e-05
-0.00203322
0.00159531
0.00212137
0.00232424
-0.000714107
-0.000662538
-0.000404564
-0.000203211
-0.000155901
3.47328e-06
0.000375755
0.000124836
-0.000285673
-0.00149604
-0.00138036
0.000597745
0.0131095
0.000348472
0.00114857
-0.000373178
-0.00045112
-6.56496e-05
-0.00116107
-0.0047839
0.0140915
0.00176061
0.0174373
0.0121372
-0.00466823
0.017826
-1.03115e-05
0.00338509
-0.0508162
-0.00705755
-0.0451722
-0.0204975
7.37523e-07
0.000572514
0.000596624
-0.00050819
-0.000585291
-0.000147065
0.000116322
0.000216209
-0.000218607
0.0049859
-0.000211058
0.00188719
0.00511344
-0.000403276
-0.000997217
-0.000268691
-7.6285e-06
-0.00370097
0.00357844
-0.00476622
0.00272858
-0.00101771
1.31907e-05
0.00209348
0.00023898
-0.000401687
2.50915e-06
4.56624e-05
-0.000368181
0.002417
0.00768399
-1.79276e-06
0.00280683
0.0105515
-0.00546119
-0.00081112
-3.52172e-05
-0.00300388
-1.27586e-05
-0.0017102
-0.00280518
-0.000290116
0.00470686
8.41834e-06
4.76371e-05
-0.000138915
7.11369e-05
3.33116e-05
-1.60598e-06
3.38464e-05
2.04713e-06
0.00163764
-0.00289721
0.000480371
0.00377804
0.00251641
-0.0015183
0.0052203
-3.88336e-05
-0.00168304
0.00192563
-0.00743508
0.00486439
-0.00868779
6.28731e-05
3.2966e-05
1.19321e-05
0.0247684
-2.78004e-06
1.13381e-05
0.000610388
-6.00041e-05
0.000627238
-0.000599688
-0.00409859
0.00223734
0.00010684
0.000914255
0.000376767
6.63303e-05
0.0110868
0.000156356
-0.0180931
-0.00133853
-2.04011e-05
-0.00464215
-0.00135567
5.15467e-05
-0.000205576
-0.00027002
-2.28034e-05
-1.86713e-06
-2.68818e-05
-2.85247e-05
-0.000432494
0.00414599
3.91048e-05
-0.000718496
-0.000824734
0.00151026
-7.66757e-05
4.54215e-05
-7.05806e-05
3.35735e-05
0.00388929
-0.00302635
-0.00729566
0.000164749
-0.0270189
0.21035
0.0745937
0.143963
-0.00351895
0.0060159
0.00135791
-1.13641e-06
0.00292322
-0.00332467
0.0135306
0.000922507
-0.000473012
0.000122606
1.2131e-06
-3.62889e-05
0.0024438
-0.00439875
0.00320523
-0.00146823
-0.00425081
-0.00322822
0.00187637
0.000448017
-0.00339564
-0.00154144
-0.000101938
-0.00534141
0.156518
0.0442671
0.0938496
0.0252063
0.00824123
0.000612612
-0.000967917
-0.00416413
-0.000116509
-0.00275076
0.00468815
-0.00157913
-0.00163014
0.0010567
-0.000768029
-2.73719e-05
-0.000785804
-0.00354433
4.40131e-05
-0.00842196
-0.000212591
-0.00410392
-0.0206186
-0.00195139
-0.00286526
-0.000858871
-0.00375199
1.86079e-05
0.0207689
0.020182
0.0505727
0.100492
0.00345311
-0.00257373
-0.0128625
-0.0040276
-2.63376e-05
-1.45e-05
-3.75692e-05
0.0196758
0.00289015
5.59881e-06
1.60275e-06
1.25424e-05
-2.54396e-06
-4.50072e-05
1.75759e-05
-0.000121436
-0.000973969
-0.000706718
-0.00484174
-0.0017846
-0.00562316
5.21645e-05
0.00151362
0.00230671
0.000154612
-0.000463703
0.00698037
-0.000546531
0.00384957
0.00192831
-0.000337727
-0.000137767
0.000926586
-0.00304763
-0.000572612
-0.000221376
-2.90484e-05
-0.00308733
-0.00350528
0.253398
0.00224864
8.65703e-07
0.000498894
-0.000439521
0.00366031
2.12829e-06
-0.000305709
7.60925e-05
-1.63099e-05
-0.0067421
-5.94908e-06
0.00166191
1.11682e-06
-2.36855e-05
-0.000493071
-0.000515972
0.000590059
-0.000589388
-0.000695173
-0.000421363
0.000165717
0.000157231
0.0112804
7.81692e-05
-4.78269e-05
0.00214549
-0.000118707
0.0058032
-0.00367543
-0.00292866
0.21897
0.202808
0.233286
-0.0505799
0.101
0.00483427
0.00547533
-0.00129606
-0.0493672
-0.0157458
0.0230745
0.000459209
0.00222975
-2.98175e-05
-1.6113e-05
0.0135812
0.0226846
0.00145589
-3.5972e-05
0.00111573
0.0189954
-0.000257221
-0.000359766
-0.000150159
4.90273e-05
-0.000433385
-8.87661e-07
0.0115452
-9.92228e-06
0.00657621
-0.00412425
0.00417213
0.000852887
-0.00819973
-0.00372513
0.0245701
0.0507409
0.142832
0.012656
0.00495166
-0.0104187
0.00059721
-0.00905411
0.0134478
-0.0005761
-0.000187174
-0.000408858
-0.00138619
-0.00219968
-0.0019185
-0.000671828
5.33012e-05
4.55932e-05
-0.00032808
1.91241e-05
-0.00310018
0.00321124
1.73599e-05
-0.00504571
0.000769047
-0.00172073
-0.00198775
-0.000459313
-0.000371831
-0.000166906
-8.17943e-05
-0.000219206
0.00124832
0.090276
-0.000712245
0.0751789
0.0766317
0.0412668
-0.000812782
0.000655315
-0.00249037
-0.00321614
-0.00423466
-0.00818498
0.0512747
0.0217782
0.0245642
-0.00375456
-0.00186938
-0.00265004
-0.00376577
0.0364373
-0.00416235
1.27659e-05
-0.0072118
-0.0034148
0.00339056
0.00272044
-0.00866269
-4.92581e-05
-0.000101034
-4.51597e-05
5.0802e-05
-7.07462e-05
-0.000277416
-0.000361736
2.30041e-05
9.21479e-06
5.01736e-05
-4.73951e-05
6.06229e-05
-0.00010575
-0.000227746
-0.000196714
9.16636e-05
0.000204954
-0.000248555
-8.36897e-05
-0.000393672
-0.000192539
-0.000225362
-0.00029905
-0.000162463
0.00636187
0.000539862
0.00211209
0.000808319
-0.00696801
0.00419201
0.0243958
0.0170808
0.0391601
0.00487551
-2.78455e-05
-0.00467143
-0.000642971
0.00134239
0.000508024
-0.00214364
-0.00356637
0.00213931
-0.00636878
0.00022655
0.00134643
0.00104714
-0.00758307
0.00271066
0.00986816
-0.000363062
0.0137066
-0.00633018
-1.90894e-06
3.89162e-05
-0.0042946
1.06646e-05
-1.5203e-05
-0.00154742
-0.00380519
-0.00125842
-0.00545142
-0.017349
0.115261
-3.10269e-05
-6.61143e-06
-1.71465e-06
-2.90229e-05
-3.07848e-05
0.0126398
0.012724
-0.00100715
-0.000306247
0.0114524
-0.00614189
0.00639351
5.21478e-06
0.0161845
0.0239775
-0.00384838
-0.000545634
0.0011005
0.00204892
0.000184328
3.93823e-06
-0.00186971
0.00508792
0.00788844
0.0107915
0.00595801
0.0013297
0.00522284
0.00282747
-0.00114439
0.00197369
0.000810028
0.00120754
0.00348262
0.00215372
0.00244504
-0.0061406
0.0025909
-0.00260072
-0.00276387
-0.000792073
6.24338e-05
-0.0104355
-0.043821
0.000406085
0.00218317
0.00325747
0.00262165
-0.000193024
-3.96041e-05
-0.000300915
9.07698e-07
0.0185421
0.0465036
0.0512538
0.023005
0.0458074
-4.36717e-06
0.0451058
0.0845793
0.199673
0.198037
0.0789961
0.0250667
-0.0209084
0.343828
0.117806
0.0226502
0.0920379
0.00706605
0.00686859
-0.00192721
0.000246326
-0.0509974
0.00502493
-0.0018444
0.00628885
0.00205754
0.00122776
-0.00895545
0.0133847
0.00600811
-0.000147323
0.0226948
-0.00441541
-0.0112345
0.036459
0.0259701
-5.84324e-05
-0.00188348
-0.000423086
-0.00245338
0.000356363