# vtk DataFile Version 2.0
Unstructured Grid by M++
ASCII
DATASET UNSTRUCTURED_GRID
POINTS 4072 float
  0.875000   1.000000 0
  0.875000   0.984375 0
  0.875000   0.968750 0
  0.875000   0.953125 0
  0.875000   0.937500 0
  0.875000   0.921875 0
  0.875000   0.906250 0
  0.875000   0.890625 0
  0.875000   0.875000 0
  0.875000   0.859375 0
  0.875000   0.843750 0
  0.875000   0.828125 0
  0.875000   0.812500 0
  0.875000   0.796875 0
  0.875000   0.781250 0
  0.875000   0.765625 0
  0.859375   1.000000 0
  0.859375   0.984375 0
  0.859375   0.968750 0
  0.859375   0.953125 0
  0.859375   0.937500 0
  0.859375   0.921875 0
  0.859375   0.890625 0
  0.859375   0.875000 0
  0.859375   0.859375 0
  0.859375   0.843750 0
  0.859375   0.828125 0
  0.859375   0.812500 0
  0.859375   0.796875 0
  0.859375   0.781250 0
  0.859375   0.765625 0
  0.859375   0.671875 0
  0.859375   0.656250 0
  0.859375   0.640625 0
  0.843750   1.000000 0
  0.843750   0.984375 0
  0.843750   0.968750 0
  0.843750   0.953125 0
  0.843750   0.937500 0
  0.843750   0.921875 0
  0.843750   0.906250 0
  0.843750   0.875000 0
  0.843750   0.859375 0
  0.843750   0.843750 0
  0.843750   0.828125 0
  0.843750   0.812500 0
  0.843750   0.796875 0
  0.843750   0.781250 0
  0.843750   0.765625 0
  0.843750   0.671875 0
  0.843750   0.656250 0
  0.843750   0.640625 0
  0.828125   1.000000 0
  0.828125   0.984375 0
  0.828125   0.968750 0
  0.828125   0.953125 0
  0.828125   0.937500 0
  0.828125   0.921875 0
  0.875000   0.671875 0
  0.812500   0.921875 0
  0.890625   0.656250 0
  0.828125   0.906250 0
  0.875000   0.656250 0
  0.812500   0.906250 0
  0.890625   0.640625 0
  0.828125   0.890625 0
  0.875000   0.640625 0
  0.812500   0.890625 0
  0.890625   0.625000 0
  0.828125   0.875000 0
  0.890625   0.609375 0
  0.828125   0.859375 0
  0.890625   0.593750 0
  0.828125   0.843750 0
  0.890625   0.578125 0
  0.828125   0.828125 0
  0.890625   0.562500 0
  0.828125   0.812500 0
  0.828125   0.796875 0
  0.828125   0.781250 0
  0.828125   0.765625 0
  0.828125   0.671875 0
  0.828125   0.656250 0
  0.828125   0.640625 0
  0.875000   0.750000 0
  0.812500   1.000000 0
  0.875000   0.625000 0
  0.812500   0.875000 0
  0.875000   0.734375 0
  0.812500   0.984375 0
  0.875000   0.718750 0
  0.812500   0.968750 0
  0.875000   0.703125 0
  0.812500   0.953125 0
  0.875000   0.687500 0
  0.812500   0.937500 0
  0.875000   0.609375 0
  0.812500   0.859375 0
  0.875000   0.593750 0
  0.812500   0.843750 0
  0.875000   0.578125 0
  0.812500   0.828125 0
  0.812500   0.812500 0
  0.875000   0.546875 0
  0.812500   0.796875 0
  0.812500   0.781250 0
  0.812500   0.765625 0
  0.859375   0.750000 0
  0.796875   1.000000 0
  0.859375   0.625000 0
  0.796875   0.875000 0
  0.859375   0.734375 0
  0.796875   0.984375 0
  0.859375   0.718750 0
  0.796875   0.968750 0
  0.859375   0.703125 0
  0.796875   0.953125 0
  0.859375   0.687500 0
  0.796875   0.937500 0
  0.859375   0.609375 0
  0.796875   0.859375 0
  0.859375   0.593750 0
  0.796875   0.843750 0
  0.859375   0.578125 0
  0.796875   0.828125 0
  0.859375   0.562500 0
  0.796875   0.812500 0
  0.796875   0.796875 0
  0.859375   0.531250 0
  0.796875   0.781250 0
  0.796875   0.765625 0
  0.843750   0.750000 0
  0.781250   1.000000 0
  0.843750   0.625000 0
  0.781250   0.875000 0
  0.843750   0.734375 0
  0.781250   0.984375 0
  0.843750   0.718750 0
  0.781250   0.968750 0
  0.843750   0.703125 0
  0.781250   0.953125 0
  0.843750   0.687500 0
  0.781250   0.937500 0
  0.843750   0.609375 0
  0.781250   0.859375 0
  0.843750   0.593750 0
  0.781250   0.843750 0
  0.843750   0.578125 0
  0.781250   0.828125 0
  0.781250   0.812500 0
  0.843750   0.546875 0
  0.781250   0.796875 0
  0.781250   0.781250 0
  0.843750   0.515625 0
  0.781250   0.765625 0
  0.828125   0.750000 0
  0.765625   1.000000 0
  0.828125   0.625000 0
  0.765625   0.875000 0
  0.828125   0.734375 0
  0.765625   0.984375 0
  0.828125   0.718750 0
  0.765625   0.968750 0
  0.828125   0.703125 0
  0.765625   0.953125 0
  0.828125   0.687500 0
  0.765625   0.937500 0
  0.828125   0.609375 0
  0.765625   0.859375 0
  0.828125   0.593750 0
  0.765625   0.843750 0
  0.828125   0.578125 0
  0.765625   0.828125 0
  0.828125   0.562500 0
  0.765625   0.812500 0
  0.765625   0.796875 0
  0.828125   0.531250 0
  0.765625   0.781250 0
  0.765625   0.765625 0
  0.812500   0.750000 0
  0.750000   1.000000 0
  0.953125   1.000000 0
  0.812500   0.734375 0
  0.750000   0.984375 0
  0.812500   0.718750 0
  0.750000   0.968750 0
  0.812500   0.703125 0
  0.750000   0.953125 0
  0.812500   0.687500 0
  0.750000   0.937500 0
  0.812500   0.671875 0
  0.750000   0.921875 0
  0.812500   0.656250 0
  0.750000   0.906250 0
  0.812500   0.640625 0
  0.750000   0.890625 0
  0.812500   0.625000 0
  0.750000   0.875000 0
  0.812500   0.609375 0
  0.750000   0.859375 0
  0.812500   0.593750 0
  0.750000   0.843750 0
  0.812500   0.578125 0
  0.750000   0.828125 0
  0.750000   0.812500 0
  0.812500   0.546875 0
  0.750000   0.796875 0
  0.750000   0.781250 0
  0.812500   0.515625 0
  0.750000   0.765625 0
  0.796875   0.750000 0
  0.734375   1.000000 0
  0.796875   0.734375 0
  0.734375   0.984375 0
  0.796875   0.718750 0
  0.734375   0.968750 0
  0.796875   0.703125 0
  0.734375   0.953125 0
  0.796875   0.687500 0
  0.734375   0.937500 0
  0.796875   0.671875 0
  0.734375   0.921875 0
  0.796875   0.656250 0
  0.734375   0.906250 0
  0.796875   0.640625 0
  0.734375   0.890625 0
  0.796875   0.625000 0
  0.734375   0.875000 0
  0.796875   0.609375 0
  0.734375   0.859375 0
  0.796875   0.593750 0
  0.734375   0.843750 0
  0.796875   0.578125 0
  0.734375   0.828125 0
  0.734375   0.812500 0
  0.734375   0.796875 0
  0.796875   0.531250 0
  0.734375   0.781250 0
  0.734375   0.765625 0
  0.781250   0.750000 0
  0.718750   1.000000 0
  0.921875   1.000000 0
  0.781250   0.734375 0
  0.718750   0.984375 0
  0.781250   0.718750 0
  0.718750   0.968750 0
  0.781250   0.703125 0
  0.718750   0.953125 0
  0.859375   0.906250 0
  0.781250   0.687500 0
  0.718750   0.937500 0
  0.781250   0.671875 0
  0.718750   0.921875 0
  0.781250   0.656250 0
  0.718750   0.906250 0
  0.781250   0.640625 0
  0.718750   0.890625 0
  0.781250   0.625000 0
  0.718750   0.875000 0
  0.781250   0.609375 0
  0.718750   0.859375 0
  0.781250   0.593750 0
  0.718750   0.843750 0
  0.781250   0.578125 0
  0.718750   0.828125 0
  0.781250   0.562500 0
  0.718750   0.812500 0
  0.781250   0.546875 0
  0.718750   0.796875 0
  0.781250   0.531250 0
  0.718750   0.781250 0
  0.781250   0.515625 0
  0.718750   0.765625 0
  0.765625   0.750000 0
  0.703125   1.000000 0
  0.765625   0.734375 0
  0.703125   0.984375 0
  0.765625   0.718750 0
  0.703125   0.968750 0
  0.765625   0.703125 0
  0.703125   0.953125 0
  0.765625   0.687500 0
  0.703125   0.937500 0
  0.843750   0.890625 0
  0.703125   0.921875 0
  0.765625   0.656250 0
  0.703125   0.906250 0
  0.765625   0.640625 0
  0.703125   0.890625 0
  0.765625   0.625000 0
  0.703125   0.875000 0
  0.765625   0.609375 0
  0.703125   0.859375 0
  0.765625   0.593750 0
  0.703125   0.843750 0
  0.765625   0.578125 0
  0.703125   0.828125 0
  0.765625   0.562500 0
  0.703125   0.812500 0
  0.765625   0.546875 0
  0.703125   0.796875 0
  0.765625   0.531250 0
  0.703125   0.781250 0
  0.765625   0.515625 0
  0.703125   0.765625 0
  0.750000   0.750000 0
  0.687500   1.000000 0
  0.890625   1.000000 0
  0.750000   0.734375 0
  0.687500   0.984375 0
  0.750000   0.718750 0
  0.687500   0.968750 0
  0.578125   0.796875 0
  0.578125   0.781250 0
  0.578125   0.765625 0
  0.546875   0.953125 0
  0.546875   0.968750 0
  0.546875   0.718750 0
  0.546875   0.687500 0
  0.250000   0.609375 0
  0.937500   0.031250 0
  0.046875   0.703125 0
  0.734375   0.062500 0
  0.734375   0.078125 0
  0.734375   0.046875 0
  0.046875   0.593750 0
  0.046875   0.562500 0
  0.046875   0.531250 0
  0.718750   0.156250 0
  0.046875   0.609375 0
  0.734375   0.031250 0
  0.062500   0.609375 0
  0.234375   0.703125 0
  0.718750   0.125000 0
  0.046875   0.578125 0
  0.734375   0.000000 0
  0.062500   0.578125 0
  0.000000   0.828125 0
  0.234375   0.671875 0
  0.234375   0.625000 0
  0.718750   0.093750 0
  0.687500   0.156250 0
  0.062500   0.546875 0
  0.000000   0.796875 0
  0.718750   0.046875 0
  0.031250   0.687500 0
  0.687500   0.171875 0
  0.500000   1.000000 0
  0.078125   0.218750 0
  0.234375   0.593750 0
  0.718750   0.062500 0
  0.687500   0.125000 0
  0.000000   0.765625 0
  0.421875   0.500000 0
  0.031250   0.593750 0
  0.718750   0.015625 0
  0.687500   0.234375 0
  0.015625   0.812500 0
  0.703125   0.171875 0
  0.703125   0.187500 0
  0.703125   0.140625 0
  0.015625   0.781250 0
  0.437500   0.515625 0
  0.500000   0.796875 0
  0.078125   0.015625 0
  0.687500   0.203125 0
  0.250000   0.578125 0
  0.703125   0.109375 0
  0.000000   0.515625 0
  0.500000   0.765625 0
  0.062500   0.593750 0
  0.750000   0.015625 0
  0.015625   0.843750 0
  0.687500   0.000000 0
  0.500000   0.828125 0
  0.078125   0.046875 0
  0.015625   0.531250 0
  0.250000   0.546875 0
  0.703125   0.078125 0
  0.703125   0.031250 0
  0.015625   0.671875 0
  0.250000   0.515625 0
  0.000000   0.656250 0
  0.500000   0.906250 0
  0.078125   0.125000 0
  0.687500   0.015625 0
  0.031250   0.546875 0
  0.687500   0.031250 0
  0.500000   0.859375 0
  0.703125   0.000000 0
  0.703125   0.046875 0
  0.703125   0.015625 0
  0.500000   0.937500 0
  0.234375   0.531250 0
  0.031250   0.578125 0
  0.687500   0.062500 0
  0.500000   0.890625 0
  0.031250   0.796875 0
  0.453125   0.531250 0
  0.500000   0.968750 0
  0.078125   0.187500 0
  0.234375   0.562500 0
  0.031250   0.609375 0
  0.718750   0.031250 0
  0.687500   0.093750 0
  0.750000   0.046875 0
  0.000000   0.937500 0
  0.421875   0.671875 0
  0.718750   0.187500 0
  0.031250   0.828125 0
  0.765625   0.062500 0
  0.015625   0.953125 0
[...]
CELL_DATA 7648
SCALARS scalar_value float 1
LOOKUP_TABLE default
0.00259272
0.000889788
-0.00207499
0.00296093
0.00159461
0.00118276
7.48966e-05
-0.00305207
0.000382191
0.00181487
-0.000264533
-0.0029218
-0.00105633
0.491097
0.131263
-0.0023237
0.00636685
0.000302439
-0.00544006
3.0845e-06
-0.0020607
0.00376953
-0.000680671
-5.60034e-05
0.00541594
-0.00348071
-0.00882473
-0.00799411
-0.00535969
-0.00327028
-0.0038956
-0.00785083
-0.00059178
0.000297674
0.000279408
0.000107748
-2.5517e-05
6.39453e-05
0.000516775
-0.00151269
-0.000545662
-0.0014279
0.00676556
0.000232845
-0.000137424
0.000671705
0.00148258
0.00135236
0.000605193
0.0061124
-7.0562e-05
0.000269483
-0.00240981
-0.000860578
-0.00297805
-0.00260816
-0.00485346
-0.000672065
0.0043567
7.79873e-05
2.90536e-05
0.00464148
-0.000437683
0.00362896
0.000210578
0.00543599
-0.00411433
2.14099e-05
0.00166728
-0.000164995
-0.000161537
-8.87148e-05
-2.31231e-08
-3.37253e-06
-2.50404e-05
0.027614
0.00476216
0.00310021
0.00486587
-0.00403523
0.000132903
0.00296417
0.0323357
0.0044591
4.5436e-06
0.00020074
0.0120381
-0.00264666
0.00488087
0.00331641
0.0843359
-0.00870927
0.000270767
0.000720917
-0.00024537
0.000438656
0.000526169
0.000238749
-0.000433584
0.100775
0.0988559
-9.97006e-05
-8.04463e-05
-2.19787e-05
0.0239187
0.688642
-0.00021314
-0.000617081
-0.00401173
0.00685012
-5.57759e-05
-0.000153797
0.00688466
-0.00180047
-0.00768922
0.0106353
0.000815001
0.239642
0.237994
0.238333
0.255906
-0.00192633
-0.00275694
0.000240433
-3.58714e-06
-9.49158e-05
-6.79756e-05
0.012326
-0.00375273
-0.00239605
0.00454321
0.000152442
-0.000349971
2.55448e-05
0.000159623
0.000182671
-0.00348336
0.00544221
-0.00207342
0.00147447
-0.00182986
-9.7815e-06
-5.48973e-06
0.000203533
-0.00354119
-0.000293829
4.91973e-06
-0.000342023
3.06715e-06
-0.00146331
1.12914e-05
4.61551e-05
0.000877458
0.260491
-0.00174231
0.504195
0.000412634
0.000306782
0.00277713
-0.00180942
0.00248685
0.000599239
0.000533384
-3.16845e-05
0.000175444
-0.000375945
-0.00197848
-0.0025103
-0.00144143
-0.000460921
-9.36202e-05
-0.000178498
-2.81607e-06
-3.64696e-06
0.00132782
0.000469446
0.0126651
1.26379e-05
0.000142086
-0.000653553
-0.000237781
0.000102057
-0.00223898
0.00125539
-0.00118194
-0.0001352
-0.00571618
3.64133e-06
0.00019447
-0.000421117
0.00669674
-0.00237953
-0.00323078
-1.34987e-06
3.92497e-05
1.94941e-05
3.36842e-05
-0.000358509
6.21267e-05
-0.000848464
0.000581377
0.00305691
0.00399077
0.00566889
-0.000684705
7.15696e-05
-0.00159373
-0.00206543
-0.011966
0.00030367
-2.88925e-05
0.00167087
0.000206472
0.000594177
-0.00191856
0.00328601
-0.0011059
0.00374887
-0.00296812
-0.000415227
0.000768743
0.000110365
-0.00122644
0.000854004
-0.000442363
-0.00878875
-0.000243623
2.15036e-05
1.88577e-05
-0.010776
0.0014921
0.00473574
0.00357329
0.00038678
-6.14518e-05
-0.000959408
0.000424237
-0.000395439
0.000129119
0.0129261
1.75745e-05
0.0406833
-0.00138609
0.0093781
0.0205132
-6.76987e-06
0.159238
0.224249
0.301799
-0.000724006
-0.000103393
-0.000911291
0.00255632
-0.000569869
-0.000116082
6.06066e-06
3.76417e-05
0.00217469
1.8933e-05
-0.00441581
-0.00324701
0.00115495
-0.00306446
0.0063124
-0.00212573
0.00584357
0.00804259
0.0428331
0.126912
0.00809025
-0.00511491
2.4136e-06
-0.00159584
0.00782301
-0.000588687
0.00508042
-0.00355912
0.00251779
0.00065898
-0.000241637
-0.00130017
-0.00388691
-0.00515116
0.00253982
-0.00859099
-0.0248623
0.00311958
-0.0105952
0.0169347
-0.00273247
-8.87951e-05
0.0475673
0.116208
-0.000947023
-0.00624651
0.0128699
0.0019504
-0.00379909
-0.00725729
0.00714554
0.00868796
-0.00102632
0.000517275
0.00139652
-0.00185911
-0.00408693
0.000307259
3.99286e-05
-0.0109536
-0.00905001
-3.10533e-05
0.0146315
0.0276307
0.00904538
-0.00388425
-0.00393175
-0.00468242
-0.00022545
0.00172331
0.00311459
-3.34426e-05
8.5336e-05
4.42951e-05
-0.000113386
4.64233e-06
0.000375509
0.000503153
-0.000204351
-1.1462e-05
-0.000289031
0.00412944
-0.00290393
-2.89619e-05
0.00273494
-0.00584371
-1.33762e-05
3.56316e-05
0.000437329
-2.54877e-05
0.000457821
-0.00136185
0.00968307
-0.00116385
-0.00203059
-0.000556826
-0.000580084
0.00252229
-0.00896117
8.7034e-05
6.62749e-06
0.145491
0.00337451
-0.000281274
-0.000212268
0.00277884
-2.08029e-05
0.000401456
-0.000535771
0.00143725
-0.000222592
0.00472617
0.000107334
0.0341219
2.18847e-06
-0.000567309
-0.000221143
-0.00416804
0.000431619
0.0100716
-0.00201656
0.011162
-4.94613e-06
4.20125e-05
-0.00575738
-0.00700593
0.00778873
-0.00140962
0.00366438
0.00887532
-0.00146133
-0.0001353
0.00354394
-0.00140175
-0.00401519
-0.00372038
-0.00269522
-0.000376435
-0.00319809
0.000302646
0.00222151
-0.000561167
0.000489173
0.0014574
-0.00121299
-0.00313061
-0.0042782
0.00661217
-0.000487237
-5.69512e-05
0.00107582
-0.00182073
-0.00161267
0.000157154
-5.87207e-05
-7.08792e-05
-1.39465e-05
0.000653617
0.00136559
-0.00153225
0.000255127
0.032435
0.02161
-2.48363e-05
0.0224719
0.0116352
0.171177
-0.00128532
-0.000298684
0.00138775
-0.00116974
-0.00150955
3.71869e-06
0.00188469
-0.0051404
0.00404448
0.000766488
-0.000404987
-0.00258874
0.000101278
0.253654
0.363064
-0.00458338
2.37749e-06
0.00310143
0.0116886
0.00693933
-0.000214145
5.03189e-06
-2.96e-05
2.73061e-05
0.00263203
0.000602604
-0.00255777
-0.00116066
-1.81697e-06
5.46824e-06
0.0112114
-4.6749e-05
6.61939e-06
-0.000574924
-2.25131e-06
0.0259952
-0.000686541
-0.00172798
6.50963e-05
-0.000128242
-0.000553066
0.0130854
-0.00589147
0.00148638
-0.00639343
-0.000176522
0.12451
-0.000199369
-0.000732043
-1.12856e-05
6.09846e-05
-0.00013674
-1.05991e-05
0.000152683
-0.00928779
5.83338e-05
0.00274256
2.03777e-05
0.108505
0.0349871
-0.00131025
-2.09741e-06
0.153006
-0.000424011
-6.95503e-07
-0.00449586
-0.0059386
0.000367227
-0.00198584
0.00223929
5.8036e-06
-9.66545e-05
-0.000125381
0.00212743
0.000166151
2.05827e-05
-2.38225e-05
0.000676627
0.201997
-0.00250317
0.00015125
-5.86675e-05
-0.000115447
2.60773e-05
-0.00260006
-9.57509e-05
-2.44384e-05
0.00472245
5.33048e-06
-0.000324278
-0.000462547
4.77535e-05
0.003914
2.45457e-05
0.00115256
2.65925e-05
3.386e-06
0.102237
0.00222861
0.0455107
-7.82524e-07
-0.00191027
0.00374227
0.150869
0.376668
0.0536015
-2.7615e-06
0.00112357
-0.000424756
-8.5256e-06
-0.00225204
-1.43221e-06
0.00426206
-0.00523823
0.00185676
8.88753e-05
-0.000436561
0.0218951
0.00402201
-1.67644e-06
-0.000486128
3.9476e-06
0.00297392
0.00841062
-0.00072754
3.91586e-05
0.00202452
0.000312998
-0.0416655
-0.0103868
0.00068152
0.000868836
-0.00441781
0.00169071
0.00259982
-0.000256995
-0.00138349
0.00913407
-0.00292812
-0.00364535
8.64387e-05
0.000541928
-0.0131972
0.00148651
-0.000207911
-0.00714589
0.00162479
-0.0123865
-0.00969492
4.30949e-05
0.00358593
0.0014874
0.00371721
0.000114246
-1.38317e-05
0.00322661
-0.0025235
-0.00391758
-0.00254846
0.001763
0.00210224
8.46349e-07
0.00221325
2.52511e-05
0.0050801
-0.00827093
0.00218642
-0.00101329
5.76304e-05
0.00362513
0.0130194
-0.000153523
-0.00459932
-0.000153117
-0.000112594
3.36186e-05
-0.00100067
0.434967
-1.16213e-05
4.73109e-06
-0.00622145
0.609092
0.0104146
0.0154459
0.000903442
-0.000155242
0.000969783
0.0033624
-0.00052203
0.00101268
0.00166535
0.00135212
0.00533093
-0.00184363
0.00275858
-0.00826234
-7.58263e-05
0.00135789
0.000538336
-0.00470007
-0.00257022
-0.0034958
-0.00185456
-0.00191198
0.000121075
-0.00132062
-0.00225382
-0.00208338
0.00209572
-0.00143507
0.00354614
0.00030213
-0.00291348
-0.00382991
-0.00106624
0.000693096
0.000583782
0.00393689
2.26717e-05
-0.000454543
0.00103436
0.214852
0.10112
0.000879309
5.94033e-05
-0.00196056
3.85841e-05
0.000482273
-8.51503e-05
0.000279525
-0.000302975
0.00268677
-0.00912551
-6.35858e-06
-0.00382559
0.291076
0.00471651
-0.00813068
2.04192e-05
0.000671549
0.00509935
0.00673954
0.00278322
0.0219543
2.53433e-05
0.00171955
0.223422
-0.0127072
0.00289811
0.0101444
-0.00160275
0.237187
0.00187289
0.000636862
-0.00971681
0.00346435
-2.56703e-06
0.00683845
0.000542282
-0.000915661
-0.000105542
-0.00704149
-0.000524735
2.01604e-06
-0.00098743
0.002567
0.00420455
0.0119847
9.87527e-05
-0.0108606
1.21388e-05
-0.00214854
0.000168492
0.00014089
0.00102625
-6.8062e-05
0.594941
0.00041819
-0.00322376
-0.00647914
-0.000421648
3.5813e-06
5.53536e-06
-1.29518e-05
-4.73121e-05
8.40491e-06
0.00112205
0.00432821
-0.00132649
0.000482242
-0.000167486
3.37307e-06
0.000260564
-0.00297752
-0.0155154
-0.00199721
-0.00190447
0.00477684
0.00359584
-5.40733e-05
-0.000844997
0.0055881
0.010092
-0.000193425
0.00105394
-0.0125206
-0.000432871
0.000867733
-0.000611588
-0.012635
0.000507056
0.00357113
-0.0157821
-0.000801506
-0.000152977
0.000391854
-2.46116e-05
-0.000153895
2.0274e-06
0.000106761
-0.00150798
-0.00282658
-7.90602e-05
0.000173636
0.000656788
-0.000141025
0.000641797
0.000910525
-0.00780262
5.51574e-05
0.00480843
-0.00375194
1.32831e-05
0.00205758
1.07683e-05
-0.0121971
3.55513e-05
-0.000105554
0.517231
-0.000111377
0.000238609
0.00333473
-0.0108397
0.2874
-0.00152587
2.12385e-06
0.000435693
0.000290591
-0.000468999
0.000675769
-0.00453615
-8.66423e-05
-2.11155e-05
-0.000118878
-0.000546865
-0.000959439
-0.00205223
0.197028
4.06326e-05
0.00139358
-3.65837e-05
-0.00298499
0.000760621
0.00635478
0.000481856
7.05161e-05
1.07175e-05
-3.85584e-05
0.000419686
-8.01766e-05
0.00039324
-0.0433135
-0.00249086
0.643946
0.00103453
-3.15285e-06
-0.000263098
0.00444136
-0.00560537
-0.0038287
0.0032439
0.00308327
0.00437374
-0.000434196
0.536865
0.00470867
-0.00196492
-0.00166312
-0.00690788
-0.0030643
-0.0100734
0.00287415
0.000831319
-0.0160429
0.00912156
-0.00148832
0.000354168
0.00647971
0.00531404
0.681569
-0.00117243
0.537477
0.00250871
0.147125
0.082349
0.473908
0.00135315
-5.80214e-05
0.520356
0.49078
6.48864e-07
-0.000147027
0.381572
0.000601826
4.92986e-05
0.00981345
-0.00373726
2.06953e-05
0.00822644
0.000768337
0.000766689
-0.000862878
0.000367869
0.000139337
-0.0182445
0.00177554
-0.0113497
0.651111
0.00450053
0.00706424
0.00227473
-0.00147063
0.00152863
7.58412e-06
-2.71907e-05
0.646545
0.0029574
-0.00162493
0.000141636
-0.00158255
-0.000987092
-0.000486763
-0.00200007
0.000988468
-0.0026685
-0.0056013
-0.00474977
0.000804056
0.00894498
0.000130139
-0.00201808
0.00452213
0.00348058
0.00301514
0.000178358
0.00158702
0.000420528
0.00146134
-3.5811e-05
0.39974
0.000822597
0.0162517
0.00343979
0.584455
0.531544
0.000468392
0.00136506
0.000189878
-0.000212696
0.162074
-0.00682554
-0.00167703
-0.00225378
-0.00158006
0.00655184
-0.00328939
-0.000124273
-0.000396524
0.000367217
-0.0028333
0.00270735
-2.04179e-06
-1.00258e-05
-0.000578362
1.40067e-06
-7.00119e-05
0.00202927
8.15877e-05
0.000172952
-0.000347771
0.00637264
-0.000678879
0.00488061
-0.00044975
-0.00038475
-0.000661659
4.58952e-05
0.000376757
0.0031641
5.03382e-05
-0.001026
4.88681e-06
0.00900124
9.76859e-06
0.000784691
-1.95896e-05
0.224604
-0.000164704
0.131069
0.222859
-3.47202e-05
0.657379
0.000414153
-0.000119582
0.00214071
0.0379906
0.00716766
2.56914e-05
0.0526097
-3.91619e-06
-0.00762112
-0.00150183
0.00969277
9.36055e-07
-0.00617278
-1.51429e-06
0.016796
0.0618143
2.37414e-06
-0.000126191
0.000323876
-0.000254383
0.00378952
-0.000222841
0.00325825
0.000140298
0.00944159
-0.00486771
-0.00358603
0.00220198
3.08726e-06
0.00178959
0.000958707
-0.000218428
0.000259233
3.68196e-06
-0.00504909
-1.42078e-05
7.97746e-05
0.00153416
0.000977628
0.000120268
-0.00240251
-4.69927e-06
2.99175e-05
-0.00233357
-0.00279591
-4.86479e-06
0.00113709
0.0418206
0.110166
1.39263e-05
0.00829754
0.00352394
-0.00557023
0.249841
8.65604e-05
0.420221
0.25832
0.000161055
-0.00647712
0.0102481
-0.000106266
-0.00600954
-0.00273915
0.0286035
0.00243352
-0.000799458
-3.67224e-06
8.373e-05
0.00121645
0.00040794
0.00761672
-0.000361322
0.139663
0.000319588
6.41858e-06
-3.53753e-06
-8.86059e-07
0.00129788
-0.00259291
0.00501578
-0.00626894
0.0119841
-0.000403394
-0.000119647
2.58522e-05
0.00352581
0.00746488
-0.0022189
-0.00162224
1.29302e-06
-9.89454e-06
-0.000341402
-0.00309349
0.0210013
-0.00415205
-0.00251122
0.581816
0.000145602
0.000137653
0.146583
0.000418593
7.27398e-05
0.327386
0.0649091
0.000760457
-0.00311325
4.31711e-05
3.71159e-06
0.021779
-0.00375811
0.000517981
-0.00163653
0.000657231
-0.000101103
-0.000612371
0.00180485
-0.0297743
0.000627323
-0.00146493
-1.80589e-05
0.0214933
-0.000936207
1.90136e-05
0.000105736
-0.00025276
1.88702e-05
0.000232919
0.000251918
3.0726e-05
1.74359e-05
-4.5794e-06
7.11557e-06
-0.000441592
1.85797e-05
6.52955e-05
-4.55741e-05
-1.36999e-05
-0.000231677
0.00188376
-0.0111747
0.00957592
0.000234304
0.00018898
4.25901e-05
-0.00051342
0.0171238
-0.00472507
0.00133852
-0.000370334
-0.00621617
0.00430199
0.0158237
0.00257113
-4.84317e-05
3.47189e-05
-2.50608e-06
-0.00350423
-0.000557053
0.0071563
9.98742e-06
-0.00150955
0.0827227
-0.000446995
-0.00145538
-0.00467065
2.15795e-05
-0.00072267
0.000737323
-0.00220606
0.00232558
-0.0117389
0.00399451
0.0120669
-0.000188176
-0.00485492
-6.31092e-06
0.000564199
0.131499
-0.00806851
0.00707017
0.0011205
0.00078905
-0.00616633
-9.60509e-06
0.014206
-0.000382554
-0.00199791
-0.0083595
6.32511e-06
-0.0039009
0.00012623
1.02163e-05
0.00140209
0.000816621
-0.00403183
0.00193945
6.14012e-06
1.81994e-05
6.92093e-06
2.82815e-05
0.0122379
0.0297892
-0.0193584
0.00363568
0.000311853
0.000427453
-0.000277351
-7.06057e-05
-2.33774e-05
6.91954e-05
-4.43088e-05
-0.000110892
-8.58321e-05
1.19247e-05
1.82115e-05
1.81294e-05
1.0821e-05
-0.000159034
-0.00249782
-0.000491223
-0.00110646
-0.000841999
0.00219148
0.00287862
0.000625774
0.00300392
0.00066806
-0.00682533
1.1885e-06
0.000121331
3.87664e-05
-0.000326409
-4.93015e-05
0.00398163
-0.000100696
-0.000177221
0.0496397
-0.00107477
0.000280221
-0.00768998
-0.00360416
-0.00306364
-0.00996676
-0.0383896
0.0784462
0.00866161
-0.0516301
0.00284467
0.000947797
0.00255567
0.00276059
0.00196739
0.0299099
-0.000326544
-0.000469114
0.00480714
-0.000174637
0.00316826
0.00223245
0.00121824
0.00363379
2.53159e-05
-0.000128575
-0.000430784
-0.000619963
1.07808e-05
0.000984239
-0.000541644
-0.000553352
-7.83076e-05
0.00718094
-0.00216043
-0.00453611
0.0026083
-0.000287382
1.22015e-06
0.0118029
0.00160145
0.00759706
0.0172261
0.0694848
0.0241319
-0.0160277
0.00105796
-7.07658e-06
0.000514614
-0.0314371
-0.0184535
-0.040342
0.00974427
2.15782e-06
-0.00294351
0.000125879
1.82296e-05
0.000106553
-0.000191899
0.000206404
0.000182694
-0.000535948
0.00417788
9.37188e-06
0.000756308
0.00341321
-0.0035654
-0.00414341
-0.00312194
-6.06118e-06
-0.0087704
0.00503759
-0.00256049
0.0062538
-0.00102002
9.36398e-06
-0.000138929
0.000383578
-0.000488683
-1.0474e-05
0.000125419
2.36283e-05
0.00083437
-0.00509502
-4.46311e-07
0.00440074
0.010528
0.00969253
-0.000688199
6.2907e-06
-0.00169457
8.16164e-06
0.000379763
0.000444212
0.00111259
0.00171724
3.59213e-06
0.000136106
-4.22721e-05
9.69063e-05
-7.96557e-07
7.36487e-06
1.22225e-05
2.78253e-06
-0.000180837
0.000479832
-0.00136818
0.0040948
-0.0104725
0.00788596
0.0173482
-9.95938e-05
0.000933515
0.0363622
0.067891
0.0446382
0.020859
7.60572e-05
1.10297e-05
8.61264e-06
0.029549
-1.10615e-06
8.21502e-06
0.00437578
-3.9649e-05
0.00286084
-0.00232912
-0.00198702
0.00437943
0.00133184
0.000281982
5.00876e-05
-0.000153518
0.0194094
0.0706468
0.0211458
0.0254271
0.000188169
0.00381408
0.00110745
0.000107966
-0.000660355
-0.000716175
-2.88919e-05
-2.16586e-05
-3.23099e-05
-4.71127e-05
0.00584955
-0.00455255
0.000509707
-0.000629666
9.59878e-05
0.26841
-0.000130681
8.93987e-05
-0.000102292
-0.000116676
-0.000342526
-0.00103822
-0.00509629
0.000179421
-0.0655105
0.460195
0.232237
0.378628
-0.00316441
0.00343004
-0.00251411
8.46347e-07
0.00835506
-0.00381584
0.00428683
-0.00411079
-0.00184357
0.000196566
-0.000217748
-5.98766e-05
-0.00224762
-0.00217032
-0.0022815
-0.0037475
-0.00217479
-0.00221698
0.00163844
-0.00545051
-0.0043289
0.00198045
-1.34695e-05
-0.00259707
0.257324
0.209464
0.316659
0.127374
0.00744034
0.000352468
-0.002188
-0.000277767
-8.94922e-05
0.00133361
0.00511816
-0.0054049
-0.0067383
0.000790783
0.00363454
3.55009e-05
-0.00845706
0.00452426
1.63759e-05
-0.0133038
0.0070403
-0.016042
-0.0505379
0.0173929
-0.00796637
-0.00101102
-0.00598704
0.000108825
0.0931406
0.0852464
0.185653
0.210268
-0.00447132
0.00459068
-0.0607476
-0.00709173
-2.30937e-05
-3.13158e-05
-2.08979e-05
0.0242712
0.0197298
-6.59061e-08
1.27935e-05
1.35167e-05
1.22103e-05
0.000126251
0.000135082
3.50931e-05
0.00104695
-0.00252533
0.0027539
-0.00123737
0.000512522
0.000261673
0.00092324
0.000986889
0.000120732
-0.00023231
0.0351622
-0.000477296
-0.000177665
-0.00339039
4.74102e-05
-0.00103264
-0.00280018
-0.00494143
-0.000166829
8.87285e-05
-9.76313e-07
-0.0120658
-0.000385351
0.693431
-0.00227394
2.08345e-05
0.000206766
-8.6001e-05
0.00622438
0.00115535
0.000514253
8.09535e-05
-0.000493377
-0.00573523
1.14582e-06
0.00113716
4.33351e-07
-4.7635e-06
-0.000269521
-0.000406882
0.00145325
-0.000483501
-0.00116896
-0.000588612
0.000358133
0.000260423
0.0146066
0.000124253
-0.000128568
0.000948267
0.00015987
-0.00411474
-0.000839854
-0.000600741
0.213137
0.546585
0.517977
0.263473
0.504407
0.313245
0.00568566
0.00207122
0.0317404
0.231731
0.179474
-1.44783e-05
0.000545819
-1.86251e-05
-2.20217e-05
0.0343312
0.0474562
0.000909164
-0.000248189
-0.000608975
0.326884
0.273042
-8.23606e-05
-0.000308427
1.63383e-05
-0.000600524
2.68321e-06
0.0153967
5.83614e-05
0.0105038
-0.000850965
0.00379652
-0.000912373
-0.00183719
-0.00554707
0.20268
0.330976
0.571986
0.0221563
0.00311187
0.000563302
0.00480889
-0.00245304
0.0137701
0.000499712
-0.000106284
0.000707064
-0.000501488
0.00020624
-0.00128934
-0.00110786
3.88516e-05
2.27306e-05
0.00125599
8.12267e-06
0.00790472
-0.00132928
6.4698e-05
0.00256304
0.000323501
0.000677629
0.000472489
-0.000572811
-0.000690577
0.00138003
0.000248065
0.000600618
-0.000338584
0.0290984
-0.00298561
0.207762
0.180789
0.15944
-0.000770922
0.00255824
-0.000201399
-0.00441738
-0.00436596
-0.0108233
0.148937
0.0888183
0.0873032
-0.00609543
0.00124268
-0.0015433
0.00323453
0.0726212
-0.0101279
8.11194e-06
-0.0252744
-0.00734506
0.00445162
-0.00154451
0.0118827
-0.000114445
0.000107065
0.000117129
-8.82471e-05
-3.56558e-05
-0.000454131
-0.000297069
1.39916e-06
7.79282e-05
1.74933e-06
5.63406e-05
-9.18221e-05
-3.82366e-05
-6.82087e-05
-0.000121126
2.53039e-05
5.45954e-05
-1.91823e-05
-0.000238082
-0.000154217
-0.000178088
-0.000217733
-0.000184325
-0.000555003
0.000605636
-0.00745185
-0.00383604
0.00412499
-0.0207015
-0.0132273
-0.00349133
-0.0227524
0.451081
0.473662
-1.83098e-05
-0.00506809
-0.00128483
-0.00166271
-0.00228152
8.89819e-05
0.00224935
0.00689143
-0.00102757
0.00114074
0.000652248
0.000729257
-0.00972718
0.00241344
0.00203783
-0.00308817
0.00203047
-0.00882306
0.000148851
-6.43276e-05
-0.0027734
7.90173e-06
-2.62658e-06
-0.000296382
-0.000846778
-0.00273877
-0.0115035
0.0783998
0.314487
-3.2199e-05
2.97824e-05
2.17092e-05
-2.54242e-05
-3.18184e-05
0.00536943
0.0412661
-0.00327273
0.000232206
0.0023813
-0.0011757
0.00427115
2.30364e-06
0.00116046
0.00321945
-0.00404905
0.000459959
0.00267231
0.00443679
0.000341123
2.51882e-06
-0.0103955
0.00671954
0.0703088
0.0496282
0.0261741
0.00470664
-0.00474575
0.000426801
-0.00257443
0.00234427
0.00470554
0.00353562
-0.0063348
-0.00209825
0.000608286
-0.00247865
0.0130444
-0.0168878
0.00281879
0.00101103
3.80529e-05
0.000506115
-0.0441199
0.000294035
0.00313514
0.000402997
-0.00609463
7.94449e-05
-0.000326168
-5.24061e-05
-1.50523e-06
-0.00371532
0.00676032
-0.0013362
0.0213575
0.0344505
-2.1861e-06
0.035622
0.501422
0.219887
0.433507
0.150414
0.124194
0.064015
0.466463
0.518881
0.320048
0.291415
0.0068422
0.0201097
0.00870401
0.0168977
0.0308355
0.00513096
0.0864284
0.00313895
-0.00275699
0.00341232
-0.0160415
-0.00658192
-0.00316817
0.00200361
0.021534
-0.000140544
-0.00108828
0.0468959
0.0455511
-5.27831e-05
-0.000687626
0.000403588
-0.0048756
0.0015894
0.00116318
0.000657798
0.00138302
-0.00161624
0.00113919
4.22176e-05
5.99064e-05
5.80678e-05
6.58201e-05
-2.97374e-06
2.04938e-06
2.96618e-06
-0.00302242
0.00549835
0.306438
0.248605