# vtk DataFile Version 2.0
Unstructured Grid by M++
ASCII
DATASET UNSTRUCTURED_GRID
POINTS 4072 float
  0.875000   1.000000 0
  0.875000   0.984375 0
  0.875000   0.968750 0
  0.875000   0.953125 0
  0.875000   0.937500 0
  0.875000   0.921875 0
  0.875000   0.906250 0
  0.875000   0.890625 0
  0.875000   0.875000 0
  0.875000   0.859375 0
  0.875000   0.843750 0
  0.875000   0.828125 0
  0.875000   0.812500 0
  0.875000   0.796875 0
  0.875000   0.781250 0
  0.875000   0.765625 0
  0.859375   1.000000 0
  0.859375   0.984375 0
  0.859375   0.968750 0
  0.859375   0.953125 0
  0.859375   0.937500 0
  0.859375   0.921875 0
  0.859375   0.890625 0
  0.859375   0.875000 0
  0.859375   0.859375 0
  0.859375   0.843750 0
  0.859375   0.828125 0
  0.859375   0.812500 0
  0.859375   0.796875 0
  0.859375   0.781250 0
  0.859375   0.765625 0
  0.859375   0.671875 0
  0.859375   0.656250 0
  0.859375   0.640625 0
  0.843750   1.000000 0
  0.843750   0.984375 0
  0.843750   0.968750 0
  0.843750   0.953125 0
  0.843750   0.937500 0
  0.843750   0.921875 0
  0.843750   0.906250 0
  0.843750   0.875000 0
  0.843750   0.859375 0
  0.843750   0.843750 0
  0.843750   0.828125 0
  0.843750   0.812500 0
  0.843750   0.796875 0
  0.843750   0.781250 0
  0.843750   0.765625 0
  0.843750   0.671875 0
  0.843750   0.656250 0
  0.843750   0.640625 0
  0.828125   1.000000 0
  0.828125   0.984375 0
  0.828125   0.968750 0
  0.828125   0.953125 0
  0.828125   0.937500 0
  0.828125   0.921875 0
  0.875000   0.671875 0
  0.812500   0.921875 0
  0.890625   0.656250 0
  0.828125   0.906250 0
  0.875000   0.656250 0
  0.812500   0.906250 0
  0.890625   0.640625 0
  0.828125   0.890625 0
  0.875000   0.640625 0
  0.812500   0.890625 0
  0.890625   0.625000 0
  0.828125   0.875000 0
  0.890625   0.609375 0
  0.828125   0.859375 0
  0.890625   0.593750 0
  0.828125   0.843750 0
  0.890625   0.578125 0
  0.828125   0.828125 0
  0.890625   0.562500 0
  0.828125   0.812500 0
  0.828125   0.796875 0
  0.828125   0.781250 0
  0.828125   0.765625 0
  0.828125   0.671875 0
  0.828125   0.656250 0
  0.828125   0.640625 0
  0.875000   0.750000 0
  0.812500   1.000000 0
  0.875000   0.625000 0
  0.812500   0.875000 0
  0.875000   0.734375 0
  0.812500   0.984375 0
  0.875000   0.718750 0
  0.812500   0.968750 0
  0.875000   0.703125 0
  0.812500   0.953125 0
  0.875000   0.687500 0
  0.812500   0.937500 0
  0.875000   0.609375 0
  0.812500   0.859375 0
  0.875000   0.593750 0
  0.812500   0.843750 0
  0.875000   0.578125 0
  0.812500   0.828125 0
  0.812500   0.812500 0
  0.875000   0.546875 0
  0.812500   0.796875 0
  0.812500   0.781250 0
  0.812500   0.765625 0
  0.859375   0.750000 0
  0.796875   1.000000 0
  0.859375   0.625000 0
  0.796875   0.875000 0
  0.859375   0.734375 0
  0.796875   0.984375 0
  0.859375   0.718750 0
  0.796875   0.968750 0
  0.859375   0.703125 0
  0.796875   0.953125 0
  0.859375   0.687500 0
  0.796875   0.937500 0
  0.859375   0.609375 0
  0.796875   0.859375 0
  0.859375   0.593750 0
  0.796875   0.843750 0
  0.859375   0.578125 0
  0.796875   0.828125 0
  0.859375   0.562500 0
  0.796875   0.812500 0
  0.796875   0.796875 0
  0.859375   0.531250 0
  0.796875   0.781250 0
  0.796875   0.765625 0
  0.843750   0.750000 0
  0.781250   1.000000 0
  0.843750   0.625000 0
  0.781250   0.875000 0
  0.843750   0.734375 0
  0.781250   0.984375 0
  0.843750   0.718750 0
  0.781250   0.968750 0
  0.843750   0.703125 0
  0.781250   0.953125 0
  0.843750   0.687500 0
  0.781250   0.937500 0
  0.843750   0.609375 0
  0.781250   0.859375 0
  0.843750   0.593750 0
  0.781250   0.843750 0
  0.843750   0.578125 0
  0.781250   0.828125 0
  0.781250   0.812500 0
  0.843750   0.546875 0
  0.781250   0.796875 0
  0.781250   0.781250 0
  0.843750   0.515625 0
  0.781250   0.765625 0
  0.828125   0.750000 0
  0.765625   1.000000 0
  0.828125   0.625000 0
  0.765625   0.875000 0
  0.828125   0.734375 0
  0.765625   0.984375 0
  0.828125   0.718750 0
  0.765625   0.968750 0
  0.828125   0.703125 0
  0.765625   0.953125 0
  0.828125   0.687500 0
  0.765625   0.937500 0
  0.828125   0.609375 0
  0.765625   0.859375 0
  0.828125   0.593750 0
  0.765625   0.843750 0
  0.828125   0.578125 0
  0.765625   0.828125 0
  0.828125   0.562500 0
  0.765625   0.812500 0
  0.765625   0.796875 0
  0.828125   0.531250 0
  0.765625   0.781250 0
  0.765625   0.765625 0
  0.812500   0.750000 0
  0.750000   1.000000 0
  0.953125   1.000000 0
  0.812500   0.734375 0
  0.750000   0.984375 0
  0.812500   0.718750 0
  0.750000   0.968750 0
  0.812500   0.703125 0
  0.750000   0.953125 0
  0.812500   0.687500 0
  0.750000   0.937500 0
  0.812500   0.671875 0
  0.750000   0.921875 0
  0.812500   0.656250 0
  0.750000   0.906250 0
  0.812500   0.640625 0
  0.750000   0.890625 0
  0.812500   0.625000 0
  0.750000   0.875000 0
  0.812500   0.609375 0
  0.750000   0.859375 0
  0.812500   0.593750 0
  0.750000   0.843750 0
  0.812500   0.578125 0
  0.750000   0.828125 0
  0.750000   0.812500 0
  0.812500   0.546875 0
  0.750000   0.796875 0
  0.750000   0.781250 0
  0.812500   0.515625 0
  0.750000   0.765625 0
  0.796875   0.750000 0
  0.734375   1.000000 0
  0.796875   0.734375 0
  0.734375   0.984375 0
  0.796875   0.718750 0
  0.734375   0.968750 0
  0.796875   0.703125 0
  0.734375   0.953125 0
  0.796875   0.687500 0
  0.734375   0.937500 0
  0.796875   0.671875 0
  0.734375   0.921875 0
  0.796875   0.656250 0
  0.734375   0.906250 0
  0.796875   0.640625 0
  0.734375   0.890625 0
  0.796875   0.625000 0
  0.734375   0.875000 0
  0.796875   0.609375 0
  0.734375   0.859375 0
  0.796875   0.593750 0
  0.734375   0.843750 0
  0.796875   0.578125 0
  0.734375   0.828125 0
  0.734375   0.812500 0
  0.734375   0.796875 0
  0.796875   0.531250 0
  0.734375   0.781250 0
  0.734375   0.765625 0
  0.781250   0.750000 0
  0.718750   1.000000 0
  0.921875   1.000000 0
  0.781250   0.734375 0
  0.718750   0.984375 0
  0.781250   0.718750 0
  0.718750   0.968750 0
  0.781250   0.703125 0
  0.718750   0.953125 0
  0.859375   0.906250 0
  0.781250   0.687500 0
  0.718750   0.937500 0
  0.781250   0.671875 0
  0.718750   0.921875 0
  0.781250   0.656250 0
  0.718750   0.906250 0
  0.781250   0.640625 0
  0.718750   0.890625 0
  0.781250   0.625000 0
  0.718750   0.875000 0
  0.781250   0.609375 0
  0.718750   0.859375 0
  0.781250   0.593750 0
  0.718750   0.843750 0
  0.781250   0.578125 0
  0.718750   0.828125 0
  0.781250   0.562500 0
  0.718750   0.812500 0
  0.781250   0.546875 0
  0.718750   0.796875 0
  0.781250   0.531250 0
  0.718750   0.781250 0
  0.781250   0.515625 0
  0.718750   0.765625 0
  0.765625   0.750000 0
  0.703125   1.000000 0
  0.765625   0.734375 0
  0.703125   0.984375 0
  0.765625   0.718750 0
  0.703125   0.968750 0
  0.765625   0.703125 0
  0.703125   0.953125 0
  0.765625   0.687500 0
  0.703125   0.937500 0
  0.843750   0.890625 0
  0.703125   0.921875 0
  0.765625   0.656250 0
  0.703125   0.906250 0
  0.765625   0.640625 0
  0.703125   0.890625 0
  0.765625   0.625000 0
  0.703125   0.875000 0
  0.765625   0.609375 0
  0.703125   0.859375 0
  0.765625   0.593750 0
  0.703125   0.843750 0
  0.765625   0.578125 0
  0.703125   0.828125 0
  0.765625   0.562500 0
  0.703125   0.812500 0
  0.765625   0.546875 0
  0.703125   0.796875 0
  0.765625   0.531250 0
  0.703125   0.781250 0
  0.765625   0.515625 0
  0.703125   0.765625 0
  0.750000   0.750000 0
  0.687500   1.000000 0
  0.890625   1.000000 0
  0.750000   0.734375 0
  0.687500   0.984375 0
  0.750000   0.718750 0
  0.687500   0.968750 0
  0.578125   0.796875 0
  0.578125   0.781250 0
  0.578125   0.765625 0
  0.546875   0.953125 0
  0.546875   0.968750 0
  0.546875   0.718750 0
  0.546875   0.687500 0
  0.250000   0.609375 0
  0.937500   0.031250 0
  0.046875   0.703125 0
  0.734375   0.062500 0
  0.734375   0.078125 0
  0.734375   0.046875 0
  0.046875   0.593750 0
  0.046875   0.562500 0
  0.046875   0.531250 0
  0.718750   0.156250 0
  0.046875   0.609375 0
  0.734375   0.031250 0
  0.062500   0.609375 0
  0.234375   0.703125 0
  0.718750   0.125000 0
  0.046875   0.578125 0
  0.734375   0.000000 0
  0.062500   0.578125 0
  0.000000   0.828125 0
  0.234375   0.671875 0
  0.234375   0.625000 0
  0.718750   0.093750 0
  0.687500   0.156250 0
  0.062500   0.546875 0
  0.000000   0.796875 0
  0.718750   0.046875 0
  0.031250   0.687500 0
  0.687500   0.171875 0
  0.500000   1.000000 0
  0.078125   0.218750 0
  0.234375   0.593750 0
  0.718750   0.062500 0
  0.687500   0.125000 0
  0.000000   0.765625 0
  0.421875   0.500000 0
  0.031250   0.593750 0
  0.718750   0.015625 0
  0.687500   0.234375 0
  0.015625   0.812500 0
  0.703125   0.171875 0
  0.703125   0.187500 0
  0.703125   0.140625 0
  0.015625   0.781250 0
  0.437500   0.515625 0
  0.500000   0.796875 0
  0.078125   0.015625 0
  0.687500   0.203125 0
  0.250000   0.578125 0
  0.703125   0.109375 0
  0.000000   0.515625 0
  0.500000   0.765625 0
  0.062500   0.593750 0
  0.750000   0.015625 0
  0.015625   0.843750 0
  0.687500   0.000000 0
  0.500000   0.828125 0
  0.078125   0.046875 0
  0.015625   0.531250 0
  0.250000   0.546875 0
  0.703125   0.078125 0
  0.703125   0.031250 0
  0.015625   0.671875 0
  0.250000   0.515625 0
  0.000000   0.656250 0
  0.500000   0.906250 0
  0.078125   0.125000 0
  0.687500   0.015625 0
  0.031250   0.546875 0
  0.687500   0.031250 0
  0.500000   0.859375 0
  0.703125   0.000000 0
  0.703125   0.046875 0
  0.703125   0.015625 0
  0.500000   0.937500 0
  0.234375   0.531250 0
  0.031250   0.578125 0
  0.687500   0.062500 0
  0.500000   0.890625 0
  0.031250   0.796875 0
  0.453125   0.531250 0
  0.500000   0.968750 0
  0.078125   0.187500 0
  0.234375   0.562500 0
  0.031250   0.609375 0
  0.718750   0.031250 0
  0.687500   0.093750 0
  0.750000   0.046875 0
  0.000000   0.937500 0
  0.421875   0.671875 0
  0.718750   0.187500 0
  0.031250   0.828125 0
  0.765625   0.062500 0
  0.015625   0.953125 0
[...]
CELL_DATA 7648
SCALARS scalar_value float 1
LOOKUP_TABLE default
1.3356e-05
-0.0017131
-0.00286115
0.00202477
0.00273334
0.00190238
-6.3685e-05
-0.00291365
-0.000383347
0.00338249
-0.00132443
-0.00281079
-0.00108295
0.340662
0.019297
-0.00301487
0.00181283
0.00325684
-0.00281895
4.81944e-06
-0.000284478
0.00146327
0.00245505
1.92493e-05
0.00395344
-0.00153688
-0.00504288
-0.00156327
-0.00320568
-0.00731508
-0.00368498
-0.00586403
-0.00262487
0.000184453
0.000234516
8.03376e-05
-4.01432e-05
0.000120839
0.000782257
-0.000919171
-0.000539174
-0.00221796
0.00465894
0.000235168
-0.0001831
0.000591129
0.000760284
0.00144146
-0.000769359
0.00711541
-0.000122061
0.000206441
-0.00110933
-0.000953179
-0.00272143
0.00201632
-0.000948118
-0.00350723
0.00407231
0.000104443
9.17198e-06
0.00184646
-0.000562387
0.00305369
-0.000801854
0.00306444
0.0012421
-0.000869593
0.00372514
-0.000132945
-0.000177728
-0.000105432
2.6518e-06
-3.1254e-06
-0.00105055
0.0267721
0.00546194
-0.000229267
0.00252407
-0.00146532
0.000107313
0.00444522
0.0199643
0.00382273
6.78223e-06
0.000154606
-0.00645465
-0.00130512
0.00518955
0.00421779
0.052147
-0.00523479
-0.000221786
0.000625315
0.000159967
1.37175e-05
0.000518368
0.000217304
0.00285716
0.0635238
0.0453097
-0.000108619
-9.21211e-05
-7.19291e-05
0.0221606
0.491058
1.48472e-05
0.000114271
-0.00400127
0.0057719
-8.11187e-05
-0.000366078
0.00558308
1.63497e-05
-0.00495508
0.00429496
0.00292347
0.180194
0.18879
0.135792
0.212607
-0.00117618
0.000360248
0.000198559
-3.3829e-06
-0.000125201
-8.18071e-05
0.0124101
-0.0086997
-0.0053971
0.00179366
0.000108362
0.00126976
-0.00228176
0.000208676
0.000262037
-0.00157488
0.0061656
-0.00208227
-0.000332337
-0.000195152
-1.60825e-05
1.95002e-05
0.000208132
-0.00254233
-0.000495165
1.11146e-06
-0.000456618
-4.519e-07
-0.000893993
2.32184e-06
3.97407e-05
0.000604869
0.095559
-0.00136464
0.469945
0.00013562
-0.00116116
0.0034348
-0.00152761
0.000875589
0.000961234
2.39332e-05
-3.09024e-05
-0.00026185
-0.000396998
-0.00219893
-0.00140291
-0.00109347
-0.00241626
-5.45091e-05
0.000760635
-3.78851e-06
-6.2803e-06
-7.95331e-05
-0.00185598
0.011359
1.71768e-05
0.000212206
-0.00077843
-7.03935e-05
0.000100434
-0.00187078
0.0018841
-0.000678436
0.00163445
-0.00315339
4.79068e-05
0.000205342
-0.000160766
0.00179577
-0.00209644
-0.00295203
-3.06478e-06
6.2213e-05
-1.56625e-05
0.000170302
-0.00384268
5.56437e-05
-0.00215599
0.000276737
0.00291145
0.00585402
0.00413753
-0.000164557
0.000470984
0.000518417
-0.00175838
-0.00476118
0.000270531
-4.59641e-06
0.00591631
0.000408713
0.00051169
-0.00060829
0.00256583
-0.000855372
0.00132597
-0.00309512
0.000718403
-3.33318e-05
-7.28481e-05
-0.000300482
0.00123704
-0.000280849
-0.0065721
0.00154172
-8.11429e-05
1.78008e-05
-0.010054
-0.00191717
-0.00020034
0.00420494
0.000208681
-0.000191973
-0.000960606
0.00154261
0.00154602
0.000140881
0.00699931
1.70625e-05
0.00586622
-0.00361969
0.0066638
0.0152197
-1.06713e-05
0.0436591
0.0773331
0.114275
-0.000432537
-0.000305925
-0.000273604
0.0030388
0.000397764
-0.000217404
4.2969e-06
0.000209887
0.0035414
-0.000144576
-0.00143068
-0.00179421
-0.00219508
-0.000392502
0.00332642
0.000467571
0.00605738
0.0100979
-0.00879593
-0.018353
0.00811963
-0.00543828
3.91952e-06
-0.00605053
0.00802084
-0.00442411
0.00449377
0.00095493
0.00226539
-0.000794525
-0.0012844
0.00026109
-0.00416203
-0.00343772
0.00307877
-0.00507039
-0.0136313
0.00090482
-0.00886049
0.0163533
0.0028309
-0.00383573
0.0100316
0.0505696
-0.000129316
-0.00237384
0.0111624
0.00146572
-0.00313245
-0.0126978
-0.00659268
0.00709496
0.00116218
0.000266311
0.0042263
-0.00494785
-0.00261457
0.000108795
-0.000771525
-0.0095892
-0.00793653
-5.9174e-05
0.0184264
0.0137789
0.017222
-0.00551292
-0.00241324
-0.00402963
-0.00168685
0.000789326
0.00292759
0.000102326
8.90329e-05
3.71822e-05
-7.46006e-05
8.65021e-06
0.00212502
0.000265601
-5.4481e-05
-0.000133564
-0.000161654
0.00358355
-0.00430137
-2.67664e-05
0.00167442
-0.00494147
-0.000186614
4.16357e-05
0.000301553
7.07753e-05
0.000440975
-0.000919489
0.00678077
-0.00146569
-0.00181181
-0.000308608
-0.00324833
4.60183e-05
-0.0097473
8.4302e-05
6.32425e-06
0.0595059
0.00650865
0.000343167
-0.00149897
0.00409794
-3.48225e-05
9.44801e-05
-0.000457047
0.00117747
0.000286159
0.0019518
0.000265124
0.0318605
3.18347e-06
-0.00240003
-0.000240241
-0.00247267
0.00334547
0.0114626
-0.000752271
0.0117587
-7.1942e-06
4.19865e-05
-0.00175939
-0.00451376
0.0068073
-0.00086425
0.0043578
0.00787544
-0.00210652
-0.0018909
0.00250406
-0.00289238
-0.00426314
-0.00417629
-0.00268477
-0.000499788
-0.00260392
0.00131595
0.000543439
0.000363973
0.000669942
0.00172142
-0.00191286
-0.00438125
-0.00166846
0.00685494
0.000662916
0.00255823
0.00151888
-0.00136169
0.0038132
9.52339e-05
-3.98927e-05
-0.000253639
-1.02117e-05
-0.000286763
0.000906924
-0.00295413
0.000242043
0.102003
0.0201546
-2.67217e-05
0.0261231
0.00472139
0.0108219
6.16787e-05
-0.000295704
0.00101271
-0.000398387
-0.00124405
0.0012174
0.00133044
-0.00959652
-0.00125371
-0.00031162
5.2771e-05
-0.00468628
-0.000573149
0.243644
0.208084
-0.00370147
3.06265e-06
0.00281517
0.0100279
0.00506423
-0.000160379
-2.20334e-05
5.21667e-05
2.07199e-05
0.00337003
0.000652607
-0.00340243
-0.0028883
-1.14453e-06
6.84631e-06
0.00617399
-0.000706862
6.7153e-06
0.000451446
-3.05047e-06
0.0141763
0.00017887
0.000489527
-0.000136538
-0.000124032
0.000372858
0.00999916
-0.0111487
0.00170884
-0.00490523
1.25507e-05
0.0748127
0.000219239
-0.000396386
-5.10898e-05
6.04114e-05
0.000144433
-0.000211661
0.000535365
-0.00554008
0.00103225
-0.000558459
2.811e-05
0.0308559
0.0227743
0.00190661
-2.2134e-06
0.0901915
0.000433373
-6.24573e-06
-0.00260527
-0.00426435
0.000639943
-0.00141551
0.00351921
7.16804e-06
-0.000126674
-3.43936e-05
0.00426314
7.93599e-05
-9.49169e-05
-2.77191e-05
0.00116896
0.187238
-0.0129468
0.000376969
1.87463e-05
-0.000112469
2.55027e-05
-0.00353996
-0.000125033
2.36631e-05
0.00434455
-0.000146752
-0.000362547
-0.000151706
5.63406e-05
0.00246699
-2.55325e-05
0.000716615
1.05284e-05
5.35474e-05
0.0537731
0.00899847
0.0501721
-1.52161e-06
-0.00200192
0.00176434
0.0859819
0.169972
0.0421334
-2.8918e-06
0.00121181
-0.000198911
0.000112961
-0.00238377
5.04618e-07
0.00422997
-0.00117966
0.00158523
5.96253e-05
-0.000600962
0.0118306
0.0014861
-3.29554e-06
-0.000544385
9.62961e-06
-0.0175328
0.00245457
0.00178038
5.65467e-05
0.000981697
0.000383302
-0.0194675
-0.00540253
-0.00227926
0.00135146
-0.0048594
0.00295244
-0.000780666
0.000243681
-0.00190582
0.00772886
0.000111322
-0.00287203
0.000114312
0.00314038
-0.0115449
0.0010784
-0.00078027
-0.00517817
0.0026715
-0.011605
-0.0127914
-3.50375e-05
0.00133654
0.000264981
0.00173381
0.000171426
-1.32286e-05
0.00256939
-0.00204917
-0.0074985
-0.00249654
-0.00225781
0.00426863
2.13633e-06
0.00192467
4.48105e-05
-0.00197087
-0.00642502
-0.00288984
-0.0027727
5.63795e-05
0.00469903
0.0125678
-0.000453266
-0.00162225
0.000230615
-0.000219022
-0.00043244
-0.00143702
0.481141
-1.77555e-05
3.71448e-06
-0.00681894
0.562113
0.00181062
0.0196736
0.000826517
-0.000345617
-7.07049e-05
0.00191736
-0.000721751
0.00107068
0.00132516
0.000289582
0.00169009
-0.00174996
0.00402981
-0.00417752
-1.41627e-06
0.00121979
0.00181692
-0.00460422
-0.00237343
-0.00028655
-0.00165035
0.001383
-0.000247082
-0.00128793
-0.000255354
-0.00229384
0.000434593
-0.00143776
0.00402585
0.000463786
-0.00362995
-0.00451622
-0.000873054
0.000559134
0.00270711
0.00257698
0.000146231
-0.000282567
-0.0029743
0.0951439
0.0186542
0.00082316
2.14496e-05
-0.000481359
7.78974e-05
0.00011451
-0.000828504
-0.00012673
-0.000229784
0.00298451
-0.00407316
1.83823e-05
-0.00234354
0.183233
0.00318769
-0.0106525
-0.000482875
0.000569229
0.00440176
0.00160412
0.00411642
0.0233414
-1.995e-05
0.00132736
0.268799
-0.0142685
0.000242369
0.0124474
-0.000294231
0.261287
0.00069622
0.000634627
-0.00473985
0.0060179
-3.18658e-06
-0.0308689
0.000772833
-0.000276959
-0.00276296
-0.00356588
-0.000402878
-1.99581e-06
-0.0146407
0.00138322
0.00400453
0.00766926
0.00011021
-0.0145589
-0.00332148
-0.0119635
0.000496509
0.00019012
0.00202686
-0.000114222
0.603144
0.00106812
0.000502838
-0.00419266
-0.00234489
1.45987e-05
0.000162478
-2.95093e-05
0.00465073
2.49676e-05
-0.00131469
0.00486386
-0.000175914
0.000430048
-0.00121785
1.44871e-05
0.000125145
-0.0048875
-0.0138569
0.00217207
-0.000407962
0.00545095
0.004306
0.000110369
-0.000116999
0.0104809
0.0146242
-7.05719e-06
-0.000409311
-0.0231502
-0.000332785
-0.000228827
-0.00373257
-0.0144267
-0.00160892
0.00336434
0.00694779
-0.00204811
-6.70745e-05
0.000263071
-1.32894e-05
-0.000324795
5.88939e-06
-0.000126803
-0.00107158
-0.00443619
-0.000281181
0.0001964
-0.00055937
-0.000181485
4.00172e-05
0.000812385
-0.00506695
-0.0002553
0.00362826
-0.00402775
1.20943e-05
0.00279441
8.862e-06
-0.00783861
-8.06832e-05
-2.91139e-05
0.252654
-0.000129694
-0.000397531
0.00062734
-0.00953982
0.0680112
0.00185188
3.11436e-06
-0.000150885
-0.00066654
-0.000336896
0.000453272
-0.00296927
-0.000133597
0.000306163
-0.000106975
-0.00052259
7.85249e-05
-0.00174991
0.26548
5.44234e-06
0.000728537
-8.26195e-05
-0.00301793
0.00130231
0.0048203
0.000488686
7.11007e-05
1.62514e-05
0.000162431
0.00122139
0.00018714
0.000129361
-0.0277702
-0.00313679
0.625706
0.0026048
-3.80933e-06
0.00176322
0.00395276
-0.00154558
-0.00358738
0.00197644
0.00363887
0.00306366
-0.000336885
0.264453
0.0046079
0.00138518
-0.00544463
-0.00512637
-0.00431511
-0.0078405
0.00158917
0.000393141
-0.000640567
0.00796148
-0.00158967
0.000115398
0.0171146
0.00120292
0.467546
0.000606698
0.469496
0.00250117
0.207302
0.156528
0.486302
0.000435887
0.00102453
0.238326
0.251064
4.8184e-06
-0.00298189
0.455721
-0.000215272
0.000339622
0.00783795
-0.00283358
3.16322e-05
0.00550201
0.00255856
0.0015066
-0.00274584
0.000485933
-0.00339988
-0.0194975
0.00239948
-0.0189979
0.53315
0.00824418
0.00666954
0.00116937
-0.00309287
0.00380703
2.67113e-06
0.000197574
0.535037
0.00584957
-5.99758e-05
0.000689013
0.00123968
0.00128344
0.00081182
-0.00131685
0.00141381
-0.00234978
-0.00414035
-0.00505274
0.000785861
0.00774246
-0.000140732
-0.000470533
0.00433997
0.00293238
0.00230435
0.0010817
0.00284635
0.000529442
0.000851265
-3.84133e-05
0.267676
0.000351095
-0.0577383
0.00152888
0.498629
0.422312
-0.000152337
0.00456699
0.000252861
-0.000210651
0.0473054
-0.00314229
-0.00132354
-0.00379568
-0.000385625
0.0056988
-0.00430454
-1.51404e-05
-0.00281002
-0.00574457
-0.00309849
0.0056985
-2.92454e-06
-7.0923e-06
0.000618156
2.45775e-06
-0.000144381
0.00242136
0.000132486
0.000305158
0.00173254
-0.00202846
0.000674125
0.00354246
-0.000419707
-0.00100054
-0.00111212
0.000119898
0.000314739
0.00288365
0.000325194
-0.00211538
7.2576e-06
0.00735923
1.37546e-05
-0.000329814
-2.63428e-05
0.316005
-0.000120409
0.0882566
0.116532
-0.000849542
0.45583
-0.00064682
-0.000742402
0.00290483
0.0277515
0.00688153
6.74531e-05
0.0471256
-5.51916e-06
-0.00857738
-0.00598074
0.00985508
1.67521e-06
-0.00543058
-2.44592e-06
0.0193457
0.0474537
3.92016e-06
0.00137649
2.05217e-05
-0.00017142
0.00278468
-0.000573926
-0.000781273
-9.87796e-05
0.00772129
-0.00462151
-0.00255832
0.00361192
6.67362e-06
-8.78589e-05
0.00203222
8.63281e-06
6.81032e-05
-3.46696e-05
-0.00396432
-6.24577e-05
0.000135765
0.00254119
0.0013986
0.000170094
-0.00348008
6.97721e-06
1.94631e-05
-0.00246763
-0.00401359
-8.60414e-06
0.00121276
0.0144093
0.0623626
2.07708e-05
0.00878767
0.0052853
-0.00500539
0.251749
7.95089e-05
0.274919
0.236509
-0.00357064
-0.0098142
0.00609545
-5.04647e-05
-0.00501512
-4.65749e-05
-0.00945633
3.39528e-05
-0.000801045
-1.30736e-06
-1.06535e-05
0.000564358
0.000666983
0.00298435
-0.000178924
0.0645739
0.000281197
-0.000199426
-5.24499e-06
1.22222e-06
-0.00466088
-0.00499834
0.00278396
-0.0184607
0.0121306
-0.00226284
-0.000418899
1.65436e-05
0.00202671
0.0160901
0.0131683
-0.0036172
1.14859e-06
-1.04865e-05
-0.000664181
-0.00988203
0.0436061
-0.0118426
-0.00379798
0.431662
0.000188985
0.000172945
0.234245
0.000495058
0.000121222
0.155367
-0.0420488
0.000943899
-0.00351815
4.23384e-05
8.98085e-06
0.015505
-0.00492348
-9.01551e-05
-0.000786252
-0.00100995
0.00117283
-0.00146901
0.000255279
-0.0172023
-0.00240415
-0.0019101
0.000100156
0.0203403
-0.00242515
1.27904e-05
-9.32358e-05
-0.000448513
0.000120523
0.000314503
-0.00294432
5.89991e-05
-8.09845e-05
1.90356e-06
2.56737e-05
-0.000204135
3.43478e-05
3.45216e-05
7.43994e-05
-1.99837e-05
-0.000336535
0.000158562
-0.0113232
0.00892591
0.000148286
-0.000557682
3.96109e-05
0.00213551
0.0425068
0.000354822
0.00084427
0.00054087
-0.00638628
0.0049396
0.0098761
-0.00096978
-0.000262396
-0.000109371
1.42952e-06
-0.00208709
-0.000411154
0.0111861
3.15887e-05
0.000257482
0.0438179
-0.00011394
-0.00110226
-0.00625047
3.57713e-05
-0.00357125
0.000298338
-0.00188389
0.00253794
-0.00794579
0.00275408
0.00443713
-3.67225e-05
-0.00782974
-3.08445e-05
-0.00013628
0.223992
-0.00695781
0.00960303
0.0019304
-0.00159606
-0.00499363
-1.3586e-05
0.00679003
-0.00259911
-0.00365014
-0.00130133
5.66605e-06
-0.00377059
0.000127158
9.2592e-05
0.00111967
0.00316457
-0.00211546
0.00110423
8.83321e-06
3.71813e-05
1.24769e-05
2.33729e-05
0.00662635
0.0115966
-0.00479893
6.84404e-05
0.000198559
0.000179875
-0.000451429
2.9278e-05
0.000100253
0.000159861
8.06298e-05
2.26503e-05
-5.11095e-05
1.28355e-05
3.23318e-05
2.62574e-05
1.27361e-05
-0.0024613
-0.00193531
7.67205e-05
-0.00161914
-0.000604176
-0.0047782
0.00148082
-0.000959343
-1.53168e-05
-0.000901171
-0.00724687
-4.37907e-07
0.000911445
5.29432e-05
-0.0001222
-0.000124341
0.00447393
-0.000135553
1.32723e-05
0.0255078
-0.00305012
0.000499394
-0.00467505
-0.00800215
-0.00366617
-0.000498673
-0.0548039
0.0201109
-0.00753272
-0.0463736
0.00256487
0.000437625
0.00652776
4.29903e-05
0.00136688
0.0147218
-9.94257e-05
-0.000311464
0.00294865
0.00179985
0.00203225
0.000353465
0.000556512
0.00165491
-0.000162379
-0.000243884
-0.00022336
-0.000559604
8.06637e-05
0.000343459
-0.000723508
-0.000560286
0.000182346
0.0131592
-0.00114612
-0.00101393
0.00187702
-3.81552e-05
-2.43503e-05
0.00394519
-0.00141499
0.00462093
0.00873598
0.0391494
0.0133652
-0.00913025
0.0096853
-9.68794e-06
0.00351647
-0.0479176
-0.0132987
-0.0423521
-0.00265623
1.83527e-06
0.00083952
0.000414991
-0.000175362
-0.000150319
-0.000117213
0.000157342
0.000215853
-0.000430581
0.0049796
-0.000125677
0.00129821
0.00453518
-0.00159882
-0.00254932
-0.00130031
-5.21365e-06
-0.00689812
0.00572914
-0.00448246
0.00571519
-0.0012103
1.11201e-05
0.00146458
0.000171402
-0.000556283
-8.38378e-06
0.000133157
-0.000145652
0.00141965
0.00141165
-7.53164e-07
0.00456852
0.0102194
0.00103078
-0.000770651
-5.90162e-06
-0.00374688
2.80236e-06
-0.000552015
-0.00100524
0.0014546
0.00283555
5.43438e-06
8.34761e-05
-9.79872e-05
5.80989e-05
1.10397e-05
-2.35353e-08
1.83481e-05
2.63229e-06
0.00125046
-0.00220191
-0.000441939
0.00462842
-0.00291267
0.000981708
0.0107082
-6.45572e-05
-0.000371221
0.0090885
0.00998461
0.00976276
-0.00370648
6.85093e-05
-4.00433e-06
9.60106e-06
0.0258492
-2.30227e-06
9.42262e-06
0.00385556
-4.80139e-05
0.00157148
-0.000684391
-0.00459197
0.00396403
0.00127132
0.000688434
0.00017407
-7.19489e-05
0.0108595
0.0155603
-0.0123131
0.00310129
8.3154e-05
-0.000110357
-0.000403091
0.000139467
-0.000413138
-0.000521602
-2.05797e-05
-2.20568e-05
-3.48768e-05
-5.5428e-05
0.00318176
0.000944951
0.000415702
-0.000807733
-0.000467598
0.100053
-0.000137053
7.58744e-05
-0.000111068
-7.98387e-05
0.00197355
-0.00259829
-0.00753687
0.000186096
-0.0553398
0.340937
0.145219
0.260548
-0.00488242
0.00606821
-0.000990161
-2.6972e-07
0.00618487
-0.00271574
0.0104792
-0.00280533
-0.00136388
9.80411e-06
-4.61767e-05
4.72737e-05
-0.00036729
-0.00486203
-0.000178878
-0.00400768
-0.00360328
-0.00366799
0.00142855
-0.00288029
-0.00415101
0.000530671
-6.12342e-05
-0.00552726
0.220521
0.103922
0.189825
0.0590896
0.00717594
0.00236017
-0.000392349
-0.00178144
-0.000179205
-0.000375785
0.00540901
-0.00363747
-0.00354052
0.00267796
0.0023936
-3.09757e-07
-0.00476278
-0.00150395
3.65438e-05
-0.0139764
-0.000375441
-0.0095242
-0.0373922
-0.00012369
-0.00689555
0.000168991
-0.00633702
3.16748e-05
0.0446718
0.0430431
0.103785
0.158003
0.000605216
-0.000834988
-0.0380272
-0.00563377
-2.73382e-05
-2.82974e-05
-2.53755e-05
0.0166916
0.0110341
-1.74906e-06
1.05863e-05
1.28002e-05
4.49907e-06
6.00225e-05
0.000108359
-7.06948e-05
0.00139308
-0.00266031
-0.000563456
-0.00240009
-0.00333752
0.000192568
0.000954989
0.00128822
0.000162684
-0.000366539
0.0189228
-0.000679152
0.00242765
-0.00214008
-0.000494651
-0.00115735
-0.00175409
-0.00450286
-0.000358557
-6.77483e-06
-4.48408e-05
-0.0100047
-0.00169131
0.493762
0.000139013
1.46585e-05
0.000412491
-0.00020833
0.00481125
0.000852275
0.000270983
0.000145929
-0.000353954
-0.00824617
1.52345e-06
0.00105782
1.6456e-06
-1.43109e-05
-0.000421879
-0.000556296
0.00123629
-0.000409702
-0.000792524
-0.000797307
0.000245286
0.000256561
0.0146842
0.000135558
-9.83061e-05
0.00116883
6.36847e-05
0.000892023
-0.00233622
-0.00281008
0.240818
0.37354
0.38665
0.0479088
0.272058
0.107333
0.00710781
0.000569169
-0.0425749
0.0585908
0.0666262
0.00017548
0.00153264
-2.66339e-05
-1.90828e-05
0.0243151
0.0342498
0.00353998
-0.000130575
0.000173235
0.129689
0.0861929
-0.000407316
-0.000273635
2.24056e-05
-0.000893201
3.09081e-06
0.0141521
2.93248e-05
0.00888814
-0.00268951
0.00412902
-0.000146653
-0.0067761
-0.0063708
0.0876434
0.174371
0.394372
0.0216474
0.00541608
-0.00508403
0.00337469
-0.00710028
0.0150676
-0.000513486
-6.06284e-05
3.13494e-05
-0.00134385
-0.00124338
-0.00248432
-0.00152277
3.23567e-05
1.66214e-05
0.00106265
1.40221e-05
0.00169286
0.00119527
5.5389e-05
-0.00268193
0.00067192
-0.00036801
-0.0015405
-0.000632288
-0.000613836
0.00141607
1.48767e-06
-0.000219535
-0.000208017
0.0658097
-0.00259864
0.138992
0.128224
0.0911269
-5.13123e-05
0.00248425
-0.000338291
-0.00444313
-0.00447929
-0.0111426
0.096334
0.046544
0.0479039
-0.00459901
-0.000487814
-0.00262503
-0.00578764
0.0462166
-0.0108713
1.06573e-05
-0.014884
-0.00624659
0.00522542
0.00296601
-0.0110854
-0.00011022
-3.02151e-07
2.14019e-05
-1.64565e-05
-5.36209e-05
-0.000495842
-0.000408548
4.54855e-05
2.29246e-06
-1.69463e-05
-2.16013e-05
-2.74679e-05
-0.000117457
-8.47724e-05
-0.000165608
4.57522e-05
0.000128165
-7.39617e-05
-0.000196913
-0.000281735
-0.000121499
-0.000247571
-0.000262605
-0.000409144
0.00474061
-0.00327947
-0.00056491
0.00274899
-0.0241193
-0.0100082
0.00374434
-0.0129871
0.204905
0.207836
-2.37176e-05
-0.00549373
-0.00119928
-0.000136592
-0.00266787
-0.00160467
0.000613791
0.00599691
-0.00398547
0.000907223
0.00146974
0.00143452
-0.00780087
0.0040471
0.00851394
-0.00216433
0.0100092
-0.00734513
6.27848e-05
-3.56276e-05
-0.00431269
1.06317e-05
-7.52026e-06
0.000304648
-0.00182242
-0.00193435
-0.0111447
0.0069728
0.204587
-2.93351e-05
1.08986e-05
-1.65591e-06
-2.6305e-05
-3.0406e-05
0.00897129
0.0251851
-0.00274147
-0.000206713
0.00732109
-0.00292721
0.00353553
2.45343e-06
0.00412314
0.010485
-0.00588879
0.000133292
0.00231609
0.0034346
0.000449631
3.00009e-06
-0.0049142
0.00612873
0.0177416
0.0139826
0.00884661
0.00366206
-0.00100386
0.00203632
-0.00138344
0.00263505
0.00244634
0.00225621
-0.00305991
3.92739e-06
0.0032684
-0.0047935
0.00892926
-0.0110195
-0.00068478
0.000432019
5.41462e-05
-0.0148218
-0.0651766
-0.000150915
0.00276669
0.00242295
-0.00248404
-4.2798e-05
-0.000228605
-0.000104537
-7.03468e-07
0.00848033
0.0286278
0.0277435
0.0268999
0.0504327
-3.20252e-06
0.049601
0.275286
0.233143
0.344653
0.116516
0.0675514
0.0134169
0.462586
0.296056
0.136583
0.200553
0.0055557
0.0163343
0.0049565
0.00924809
-0.0472781
0.00345052
0.0216701
0.00443536
-0.000705208
0.00244874
-0.0125585
0.00531783
0.0056532
0.00274574
0.0238921
-0.00307086
-0.00721018
0.0485874
0.0387586
-7.10839e-05
-0.00266739
0.000106072
-0.00501825
0.000444583
0.00149704
0.000530406
0.000560679
-0.000616144
-0.000325734
7.20247e-05
2.83634e-05
4.1425e-05
5.61707e-05
-4.483e-06