# vtk DataFile Version 2.0
Unstructured Grid by M++
ASCII
DATASET UNSTRUCTURED_GRID
POINTS 4072 float
  0.875000   1.000000 0
  0.875000   0.984375 0
  0.875000   0.968750 0
  0.875000   0.953125 0
  0.875000   0.937500 0
  0.875000   0.921875 0
  0.875000   0.906250 0
  0.875000   0.890625 0
  0.875000   0.875000 0
  0.875000   0.859375 0
  0.875000   0.843750 0
  0.875000   0.828125 0
  0.875000   0.812500 0
  0.875000   0.796875 0
  0.875000   0.781250 0
  0.875000   0.765625 0
  0.859375   1.000000 0
  0.859375   0.984375 0
  0.859375   0.968750 0
  0.859375   0.953125 0
  0.859375   0.937500 0
  0.859375   0.921875 0
  0.859375   0.890625 0
  0.859375   0.875000 0
  0.859375   0.859375 0
  0.859375   0.843750 0
  0.859375   0.828125 0
  0.859375   0.812500 0
  0.859375   0.796875 0
  0.859375   0.781250 0
  0.859375   0.765625 0
  0.859375   0.671875 0
  0.859375   0.656250 0
  0.859375   0.640625 0
  0.843750   1.000000 0
  0.843750   0.984375 0
  0.843750   0.968750 0
  0.843750   0.953125 0
  0.843750   0.937500 0
  0.843750   0.921875 0
  0.843750   0.906250 0
  0.843750   0.875000 0
  0.843750   0.859375 0
  0.843750   0.843750 0
  0.843750   0.828125 0
  0.843750   0.812500 0
  0.843750   0.796875 0
  0.843750   0.781250 0
  0.843750   0.765625 0
  0.843750   0.671875 0
  0.843750   0.656250 0
  0.843750   0.640625 0
  0.828125   1.000000 0
  0.828125   0.984375 0
  0.828125   0.968750 0
  0.828125   0.953125 0
  0.828125   0.937500 0
  0.828125   0.921875 0
  0.875000   0.671875 0
  0.812500   0.921875 0
  0.890625   0.656250 0
  0.828125   0.906250 0
  0.875000   0.656250 0
  0.812500   0.906250 0
  0.890625   0.640625 0
  0.828125   0.890625 0
  0.875000   0.640625 0
  0.812500   0.890625 0
  0.890625   0.625000 0
  0.828125   0.875000 0
  0.890625   0.609375 0
  0.828125   0.859375 0
  0.890625   0.593750 0
  0.828125   0.843750 0
  0.890625   0.578125 0
  0.828125   0.828125 0
  0.890625   0.562500 0
  0.828125   0.812500 0
  0.828125   0.796875 0
  0.828125   0.781250 0
  0.828125   0.765625 0
  0.828125   0.671875 0
  0.828125   0.656250 0
  0.828125   0.640625 0
  0.875000   0.750000 0
  0.812500   1.000000 0
  0.875000   0.625000 0
  0.812500   0.875000 0
  0.875000   0.734375 0
  0.812500   0.984375 0
  0.875000   0.718750 0
  0.812500   0.968750 0
  0.875000   0.703125 0
  0.812500   0.953125 0
  0.875000   0.687500 0
  0.812500   0.937500 0
  0.875000   0.609375 0
  0.812500   0.859375 0
  0.875000   0.593750 0
  0.812500   0.843750 0
  0.875000   0.578125 0
  0.812500   0.828125 0
  0.812500   0.812500 0
  0.875000   0.546875 0
  0.812500   0.796875 0
  0.812500   0.781250 0
  0.812500   0.765625 0
  0.859375   0.750000 0
  0.796875   1.000000 0
  0.859375   0.625000 0
  0.796875   0.875000 0
  0.859375   0.734375 0
  0.796875   0.984375 0
  0.859375   0.718750 0
  0.796875   0.968750 0
  0.859375   0.703125 0
  0.796875   0.953125 0
  0.859375   0.687500 0
  0.796875   0.937500 0
  0.859375   0.609375 0
  0.796875   0.859375 0
  0.859375   0.593750 0
  0.796875   0.843750 0
  0.859375   0.578125 0
  0.796875   0.828125 0
  0.859375   0.562500 0
  0.796875   0.812500 0
  0.796875   0.796875 0
  0.859375   0.531250 0
  0.796875   0.781250 0
  0.796875   0.765625 0
  0.843750   0.750000 0
  0.781250   1.000000 0
  0.843750   0.625000 0
  0.781250   0.875000 0
  0.843750   0.734375 0
  0.781250   0.984375 0
  0.843750   0.718750 0
  0.781250   0.968750 0
  0.843750   0.703125 0
  0.781250   0.953125 0
  0.843750   0.687500 0
  0.781250   0.937500 0
  0.843750   0.609375 0
  0.781250   0.859375 0
  0.843750   0.593750 0
  0.781250   0.843750 0
  0.843750   0.578125 0
  0.781250   0.828125 0
  0.781250   0.812500 0
  0.843750   0.546875 0
  0.781250   0.796875 0
  0.781250   0.781250 0
  0.843750   0.515625 0
  0.781250   0.765625 0
  0.828125   0.750000 0
  0.765625   1.000000 0
  0.828125   0.625000 0
  0.765625   0.875000 0
  0.828125   0.734375 0
  0.765625   0.984375 0
  0.828125   0.718750 0
  0.765625   0.968750 0
  0.828125   0.703125 0
  0.765625   0.953125 0
  0.828125   0.687500 0
  0.765625   0.937500 0
  0.828125   0.609375 0
  0.765625   0.859375 0
  0.828125   0.593750 0
  0.765625   0.843750 0
  0.828125   0.578125 0
  0.765625   0.828125 0
  0.828125   0.562500 0
  0.765625   0.812500 0
  0.765625   0.796875 0
  0.828125   0.531250 0
  0.765625   0.781250 0
  0.765625   0.765625 0
  0.812500   0.750000 0
  0.750000   1.000000 0
  0.953125   1.000000 0
  0.812500   0.734375 0
  0.750000   0.984375 0
  0.812500   0.718750 0
  0.750000   0.968750 0
  0.812500   0.703125 0
  0.750000   0.953125 0
  0.812500   0.687500 0
  0.750000   0.937500 0
  0.812500   0.671875 0
  0.750000   0.921875 0
  0.812500   0.656250 0
  0.750000   0.906250 0
  0.812500   0.640625 0
  0.750000   0.890625 0
  0.812500   0.625000 0
  0.750000   0.875000 0
  0.812500   0.609375 0
  0.750000   0.859375 0
  0.812500   0.593750 0
  0.750000   0.843750 0
  0.812500   0.578125 0
  0.750000   0.828125 0
  0.750000   0.812500 0
  0.812500   0.546875 0
  0.750000   0.796875 0
  0.750000   0.781250 0
  0.812500   0.515625 0
  0.750000   0.765625 0
  0.796875   0.750000 0
  0.734375   1.000000 0
  0.796875   0.734375 0
  0.734375   0.984375 0
  0.796875   0.718750 0
  0.734375   0.968750 0
  0.796875   0.703125 0
  0.734375   0.953125 0
  0.796875   0.687500 0
  0.734375   0.937500 0
  0.796875   0.671875 0
  0.734375   0.921875 0
  0.796875   0.656250 0
  0.734375   0.906250 0
  0.796875   0.640625 0
  0.734375   0.890625 0
  0.796875   0.625000 0
  0.734375   0.875000 0
  0.796875   0.609375 0
  0.734375   0.859375 0
  0.796875   0.593750 0
  0.734375   0.843750 0
  0.796875   0.578125 0
  0.734375   0.828125 0
  0.734375   0.812500 0
  0.734375   0.796875 0
  0.796875   0.531250 0
  0.734375   0.781250 0
  0.734375   0.765625 0
  0.781250   0.750000 0
  0.718750   1.000000 0
  0.921875   1.000000 0
  0.781250   0.734375 0
  0.718750   0.984375 0
  0.781250   0.718750 0
  0.718750   0.968750 0
  0.781250   0.703125 0
  0.718750   0.953125 0
  0.859375   0.906250 0
  0.781250   0.687500 0
  0.718750   0.937500 0
  0.781250   0.671875 0
  0.718750   0.921875 0
  0.781250   0.656250 0
  0.718750   0.906250 0
  0.781250   0.640625 0
  0.718750   0.890625 0
  0.781250   0.625000 0
  0.718750   0.875000 0
  0.781250   0.609375 0
  0.718750   0.859375 0
  0.781250   0.593750 0
  0.718750   0.843750 0
  0.781250   0.578125 0
  0.718750   0.828125 0
  0.781250   0.562500 0
  0.718750   0.812500 0
  0.781250   0.546875 0
  0.718750   0.796875 0
  0.781250   0.531250 0
  0.718750   0.781250 0
  0.781250   0.515625 0
  0.718750   0.765625 0
  0.765625   0.750000 0
  0.703125   1.000000 0
  0.765625   0.734375 0
  0.703125   0.984375 0
  0.765625   0.718750 0
  0.703125   0.968750 0
  0.765625   0.703125 0
  0.703125   0.953125 0
  0.765625   0.687500 0
  0.703125   0.937500 0
  0.843750   0.890625 0
  0.703125   0.921875 0
  0.765625   0.656250 0
  0.703125   0.906250 0
  0.765625   0.640625 0
  0.703125   0.890625 0
  0.765625   0.625000 0
  0.703125   0.875000 0
  0.765625   0.609375 0
  0.703125   0.859375 0
  0.765625   0.593750 0
  0.703125   0.843750 0
  0.765625   0.578125 0
  0.703125   0.828125 0
  0.765625   0.562500 0
  0.703125   0.812500 0
  0.765625   0.546875 0
  0.703125   0.796875 0
  0.765625   0.531250 0
  0.703125   0.781250 0
  0.765625   0.515625 0
  0.703125   0.765625 0
  0.750000   0.750000 0
  0.687500   1.000000 0
  0.890625   1.000000 0
  0.750000   0.734375 0
  0.687500   0.984375 0
  0.750000   0.718750 0
  0.687500   0.968750 0
  0.578125   0.796875 0
  0.578125   0.781250 0
  0.578125   0.765625 0
  0.546875   0.953125 0
  0.546875   0.968750 0
  0.546875   0.718750 0
  0.546875   0.687500 0
  0.250000   0.609375 0
  0.937500   0.031250 0
  0.046875   0.703125 0
  0.734375   0.062500 0
  0.734375   0.078125 0
  0.734375   0.046875 0
  0.046875   0.593750 0
  0.046875   0.562500 0
  0.046875   0.531250 0
  0.718750   0.156250 0
  0.046875   0.609375 0
  0.734375   0.031250 0
  0.062500   0.609375 0
  0.234375   0.703125 0
  0.718750   0.125000 0
  0.046875   0.578125 0
  0.734375   0.000000 0
  0.062500   0.578125 0
  0.000000   0.828125 0
  0.234375   0.671875 0
  0.234375   0.625000 0
  0.718750   0.093750 0
  0.687500   0.156250 0
  0.062500   0.546875 0
  0.000000   0.796875 0
  0.718750   0.046875 0
  0.031250   0.687500 0
  0.687500   0.171875 0
  0.500000   1.000000 0
  0.078125   0.218750 0
  0.234375   0.593750 0
  0.718750   0.062500 0
  0.687500   0.125000 0
  0.000000   0.765625 0
  0.421875   0.500000 0
  0.031250   0.593750 0
  0.718750   0.015625 0
  0.687500   0.234375 0
  0.015625   0.812500 0
  0.703125   0.171875 0
  0.703125   0.187500 0
  0.703125   0.140625 0
  0.015625   0.781250 0
  0.437500   0.515625 0
  0.500000   0.796875 0
  0.078125   0.015625 0
  0.687500   0.203125 0
  0.250000   0.578125 0
  0.703125   0.109375 0
  0.000000   0.515625 0
  0.500000   0.765625 0
  0.062500   0.593750 0
  0.750000   0.015625 0
  0.015625   0.843750 0
  0.687500   0.000000 0
  0.500000   0.828125 0
  0.078125   0.046875 0
  0.015625   0.531250 0
  0.250000   0.546875 0
  0.703125   0.078125 0
  0.703125   0.031250 0
  0.015625   0.671875 0
  0.250000   0.515625 0
  0.000000   0.656250 0
  0.500000   0.906250 0
  0.078125   0.125000 0
  0.687500   0.015625 0
  0.031250   0.546875 0
  0.687500   0.031250 0
  0.500000   0.859375 0
  0.703125   0.000000 0
  0.703125   0.046875 0
  0.703125   0.015625 0
  0.500000   0.937500 0
  0.234375   0.531250 0
  0.031250   0.578125 0
  0.687500   0.062500 0
  0.500000   0.890625 0
  0.031250   0.796875 0
  0.453125   0.531250 0
  0.500000   0.968750 0
  0.078125   0.187500 0
  0.234375   0.562500 0
  0.031250   0.609375 0
  0.718750   0.031250 0
  0.687500   0.093750 0
  0.750000   0.046875 0
  0.000000   0.937500 0
  0.421875   0.671875 0
  0.718750   0.187500 0
  0.031250   0.828125 0
  0.765625   0.062500 0
  0.015625   0.953125 0
[...]
CELL_DATA 7648
SCALARS scalar_value float 1
LOOKUP_TABLE default
-0.00269811
-0.00214046
0.00283669
-0.00487312
0.00513353
0.00475154
-0.000232946
0.000601742
-0.00160923
5.85806e-05
0.00147272
0.00320297
0.00322803
0.061882
-0.00537177
-0.00165732
0.00406376
0.0109234
-0.00350276
1.0105e-05
0.00326994
-0.00265731
-0.000761874
-4.38971e-06
-0.00184476
-0.0023234
-0.00146879
0.00578936
-0.00179343
-0.00777575
0.00360813
-0.00175717
0.00324461
-0.000265485
-0.000235462
-5.31482e-05
-0.000197502
0.000123025
0.000418928
0.000820043
0.000165644
2.15892e-05
-0.00208961
-0.000137759
-1.39581e-05
8.82821e-06
0.000490124
-0.000810739
-0.000437574
0.00130699
-1.47081e-05
-6.01649e-05
0.000507202
0.00204621
0.00115716
0.0027886
0.00484639
-0.000731762
-0.00242909
0.000190506
-0.000354035
0.000452606
3.7687e-06
0.000205684
-0.00353587
0.000702621
0.00839806
0.00270065
0.00297065
0.000187638
0.000105391
4.91591e-05
1.39525e-05
-2.53679e-06
0.000820373
0.0137182
0.00552847
-0.00670458
-0.00620158
0.00333668
-3.45435e-05
0.00075732
0.019474
4.61096e-05
1.21715e-05
-0.000104953
0.000459362
-0.00119162
0.0144034
0.0130221
0.00582142
0.00295921
-0.000519062
-0.000176775
0.000358736
-0.000868353
0.000226386
8.05226e-05
0.0037309
0.0108647
0.0135456
4.27986e-05
0.00023144
0.00017185
0.00856848
0.00770771
3.97353e-05
0.00134627
-0.0103847
-0.00108876
-0.000304422
0.000432665
-0.00222437
0.000633729
-0.00278325
0.000382958
0.000542266
0.0329741
0.0474478
0.0176077
0.0516104
-0.000730899
-0.00306251
5.23199e-05
-6.92125e-06
9.98679e-05
-2.69981e-05
0.00352386
-0.00982768
-0.0114097
-0.0035983
-1.488e-05
0.00209671
-0.00244544
0.000309118
0.000567759
-0.00224914
-0.00121329
-0.000649914
0.0045981
-0.00284389
-2.30056e-05
0.000373419
0.000122256
-0.00499393
-0.00022863
7.06814e-06
0.000850941
2.79061e-05
0.000247956
0.000146559
0.000281109
-0.000758231
-0.0272709
0.000683388
0.0806705
-0.00183477
-0.00139783
0.00358491
0.00280868
-0.00242691
-0.00118633
0.000678278
-3.11821e-05
0.000360624
0.000689412
0.00212603
-0.00197354
-0.000739006
0.00322575
3.14064e-05
-0.000585678
-6.93419e-06
-1.0411e-05
0.000750137
-0.00667359
0.0038821
2.55168e-05
-3.67561e-05
0.00152858
8.01002e-05
-7.07277e-05
-7.85936e-05
0.000962593
0.00217413
0.00185889
-0.00142795
-8.6784e-05
-0.000106101
0.000236983
-0.0048925
0.00471391
-0.000589562
2.15942e-05
0.000116163
-0.000175368
0.000151636
-0.00513426
9.17001e-05
0.00246434
0.000301141
-0.00482395
-0.00334565
-0.00364867
0.000596327
0.000382454
0.000723673
0.00153045
0.00260278
-0.000534277
-0.000579709
0.001818
0.000288612
-0.00152719
0.00189196
-0.0011096
-0.00213712
-0.00400474
0.0031099
0.0036145
-7.19113e-06
6.83745e-05
-0.00173324
0.000588992
-5.03089e-05
-0.00083957
-0.00302747
-0.000463801
-0.000511395
-0.00132778
-0.00152522
-0.00361729
0.00450883
-0.000329118
0.000173302
0.00046841
-0.00038882
6.03842e-05
9.07949e-05
-0.00573729
4.89525e-05
-0.00172185
-0.00381161
-0.00294626
-0.0051445
-2.76756e-05
-0.0077829
0.00515127
-0.00916214
0.00115019
0.000496441
0.000883095
0.000594858
0.000576279
4.15602e-05
7.67054e-07
0.00022892
0.00502364
-0.00032099
-0.00112643
0.00159389
0.000227667
-0.0026882
-0.00423167
-0.00123144
-0.00117736
0.00473923
-0.00254218
-0.0248368
0.00763815
0.00588852
1.19526e-05
0.00323645
0.000848885
0.00374707
-0.000575495
-0.00108256
-0.0014668
-0.00260233
-0.000113365
-0.00473571
-0.00536532
-0.00439329
0.00334265
-0.000497452
-0.000250213
0.00124575
0.00165709
0.00788174
-0.001358
-0.000138896
0.0118361
0.00827266
-0.00084724
0.00204743
0.00314861
0.00389853
-0.00412084
-0.00592218
0.0111345
-0.00135495
0.0021414
-0.00153
0.00309883
-0.000114986
8.84263e-05
-4.22831e-05
0.00491486
-0.000125773
-0.00161756
-0.000312075
-0.00350783
0.00877833
0.00160245
-0.000979647
0.00526628
0.00301224
-0.00530803
-0.00829472
0.00403378
0.00012593
-6.20396e-05
0.000418915
0.000120605
1.89786e-05
-0.00393499
0.00020322
0.000304057
-6.49874e-05
0.000341334
-3.53702e-05
0.000330725
-5.59265e-05
-0.000352217
0.00147705
-0.000296483
0.000164459
-0.000115986
0.000288942
-0.000123629
-8.21152e-06
-0.00144306
0.000417865
0.000635134
-0.000441799
-0.0021002
-0.00297564
-0.00356658
2.47709e-05
-5.51954e-05
0.00275515
0.000755572
0.0014362
0.00339259
-0.000990144
5.44506e-05
0.000388305
0.000481582
-0.00367397
-0.00176337
0.00137463
-0.000115173
0.0213323
8.72665e-06
0.00244789
0.00183872
-0.000661219
0.00215633
0.00339974
0.000691572
-0.00320926
-2.70081e-05
0.000452044
2.42186e-05
0.00571144
-0.00106464
0.00131982
-0.00102735
0.00514951
-0.00081086
0.000760644
-0.00230786
-0.00130816
0.00102402
-0.00111743
-0.000397009
-0.000256158
0.00100919
-0.000918219
-0.00457167
1.2361e-06
0.000261307
0.00266913
0.00160482
-0.00320669
0.00396733
0.00392168
-0.00386063
0.00200952
0.00188365
-0.000521026
0.00468031
3.46553e-05
-7.59927e-05
-0.000262438
-9.96986e-05
-0.0010931
-0.00292078
-0.000660968
9.65186e-05
0.207685
-0.00220726
-2.35515e-05
0.00170684
-0.00265248
-0.0344975
7.52772e-05
0.000234586
-0.000410259
-0.000253848
0.00165393
-0.00132295
-0.000481214
-0.00598694
0.00128213
0.000794949
0.000630327
-0.0151942
0.00153077
0.0864263
0.0266461
-0.00196052
1.88686e-06
0.00683373
-0.000738159
-0.000684079
0.000262242
1.08903e-05
6.03597e-05
7.97329e-05
-0.00629233
0.000169507
-0.00365844
-0.00133885
-3.82684e-05
-2.92118e-05
-0.0041229
-0.00235257
3.86071e-05
-0.00279783
-4.24155e-06
0.000503299
0.00029902
-0.0015862
0.000351754
-8.91351e-06
-0.00229245
-0.00522066
-0.00477135
-0.00307869
-0.00797202
0.000542636
0.0142733
0.000288597
-4.63514e-05
-0.000108298
0.000168512
0.00042292
-2.11351e-05
-0.00219944
0.00162708
-0.00162989
0.00165654
5.10317e-05
-0.0120371
0.00288926
-0.00471039
-6.1456e-07
-0.00487208
0.00411146
8.12209e-07
0.00238993
0.00185142
-0.00120273
0.00148894
-0.00659037
-4.26704e-05
4.40293e-05
0.000603708
-0.000199229
-7.98833e-05
-0.000298501
-3.15429e-05
0.00199898
0.0719928
-0.00282269
-0.000293674
0.000124657
-0.000379877
7.07092e-05
-0.000687587
5.55737e-05
-2.27934e-05
0.000182867
-0.000242813
-0.000355068
0.000403002
4.367e-06
-0.000277039
3.18092e-05
-0.000576666
1.82283e-05
9.20997e-05
-0.00929794
0.00827436
0.0219242
-6.83614e-06
0.000925769
-0.00307329
0.0148716
0.00404924
0.0158818
-1.0577e-06
-0.00107943
-0.000504188
0.000154387
-0.000681442
4.17138e-06
-0.00176011
-0.00315605
0.00180975
-1.50198e-05
0.000437727
-0.00188213
-0.000287467
-7.74461e-06
-7.38763e-05
4.13206e-05
-0.0078555
-0.00720812
-0.00266079
0.000111675
-0.00317393
-0.000409446
-0.000680802
0.000928714
-0.0022893
0.00429622
0.00304013
-0.000366121
-0.00112619
0.000236021
-0.000950382
-0.000415679
-0.00223564
0.000663179
0.000120839
0.00161161
0.000614584
0.000916085
-0.00367822
0.00266847
-0.000451142
-0.000493861
0.000383875
-0.000432714
-0.00309791
-0.00142312
-0.00201355
0.000109016
-0.000109725
0.000139194
0.00273889
-0.0015653
0.000411618
-0.00116482
0.00194551
-2.65237e-05
-0.00252955
7.64829e-05
-0.00399805
0.00112669
-0.000390499
-0.00412972
0.000205021
0.000504996
-0.00571358
0.00084312
0.00127765
0.000125986
-0.000548969
-0.000145106
0.00132629
0.256167
-3.53263e-05
5.32219e-05
-0.00655689
0.193561
-0.00652198
0.0111071
0.0025684
-0.000310011
0.00113799
-5.48565e-05
0.0012779
-0.000991144
0.00261046
-0.00149942
-0.00258395
0.0055845
-0.00040387
0.00041525
0.000138205
0.00146844
-0.00179378
-0.00249586
-0.00120276
0.00213691
0.00195207
0.000786882
-0.00022946
-0.00478252
-0.00591288
-0.000186232
0.000888351
0.000528483
0.000902671
-6.77576e-05
0.000631505
0.00135103
0.000662383
-6.14317e-06
0.00253336
-0.000435779
-0.000109212
0.000232752
-0.00618437
0.0121001
-0.00829242
-0.000549987
0.000138989
0.00105223
0.000196513
-0.00147222
-0.00790403
-0.000476039
0.000199731
-0.00324518
0.00353951
0.000214457
0.00239614
0.00914033
0.000148245
-0.00175121
0.00235804
-0.000103685
-0.00799193
-0.00224474
0.00441475
0.00303903
0.000276255
-3.38588e-05
0.175515
0.0247473
-0.00586058
0.00347142
0.0452687
0.136655
0.000133446
-0.000746055
0.00357636
0.0091455
8.958e-06
-0.00785941
0.000180427
-0.000330674
-0.00455788
0.00363375
0.00100817
1.47285e-05
0.000214491
0.00120954
0.00581316
-0.00120755
0.000186587
-0.00175068
3.23546e-05
0.00217178
0.000177115
0.000109979
-0.00497214
-1.44872e-05
0.265583
0.00144792
-0.00103822
-0.0029515
-0.00226663
-0.00026439
0.000108575
6.67564e-06
-0.000852326
-3.68734e-05
0.00324283
-0.00108469
-0.0102354
0.000197854
-0.000691096
-2.23164e-05
-0.000646953
0.0252996
0.0018311
0.0172739
-0.000348772
0.0133544
0.000206812
-0.000267321
0.000951483
0.00724231
0.02074
0.000245222
0.0337106
0.0282167
-3.39836e-05
0.020911
0.000781178
-0.000601661
-0.00299826
-0.00354854
0.0468174
-0.00107637
0.000574941
-0.000420686
-5.07337e-05
-0.000464999
1.66367e-05
-0.000249041
-0.00172989
-0.00244692
-0.000565545
9.44421e-05
-0.00069939
0.000118519
0.00045568
0.00187068
-0.00146792
-0.000153493
-0.00490996
-0.00349978
1.71584e-05
0.0018645
1.99799e-05
0.0338892
-0.000159413
0.000240873
-0.0180175
0.000240123
-0.000993683
0.00112293
-0.00315402
-0.0416873
-0.00283653
1.69658e-05
0.000223402
0.000101735
6.13861e-05
0.000146157
-0.000589401
-4.50266e-05
-9.57654e-05
7.64751e-05
7.50273e-05
0.00183346
0.00028372
0.218134
-0.000151963
-0.00133243
-7.4456e-05
-0.00414835
0.00278897
0.00264179
7.07576e-05
4.79552e-05
2.1022e-05
-0.000301905
-0.000969561
0.000393441
-0.0011414
-0.00315905
-0.000141919
0.179251
0.00128641
-5.92079e-06
0.000119116
-0.000485048
-0.00634596
-0.00471415
-0.00296495
0.00276596
-0.00227851
0.000236173
-0.026898
0.00138926
0.00250715
-0.00329949
3.88741e-06
-0.00347221
-0.00277414
-0.00317655
-0.000968347
0.0232916
0.00258216
-0.00547357
0.00024252
0.0178769
0.00354233
0.0198032
0.00135113
0.11518
0.00322428
0.152509
0.184008
0.185637
-0.00128048
-0.00105915
-0.0499008
-0.00296807
2.89878e-05
-0.00892447
0.262415
0.00217671
0.000332881
0.00435772
-0.00128775
9.18875e-05
-0.00231054
-0.0041981
0.00151734
-0.0011185
-1.97563e-05
0.00106785
0.0179198
-0.000483676
-0.00425764
0.102998
0.00324855
0.000294108
-0.00512997
0.000365893
0.000716095
-7.12722e-05
0.000165196
0.130213
0.00214411
-0.00155239
0.000581687
0.000993702
0.00363137
0.00124878
0.000931003
0.00165858
0.000272452
0.00204009
0.00129406
0.000397208
0.000578246
0.000911311
-0.00370919
0.00194241
0.00159829
-0.0134297
0.000519779
0.00150971
-2.08437e-05
-0.0013203
-5.99641e-05
0.0369833
0.000232502
-0.0121729
0.00015759
0.132589
0.08344
0.000930475
0.00222023
1.38634e-05
1.93249e-05
0.00417938
0.00146106
0.00337462
0.00387362
0.00112258
-0.0048965
0.00421038
-5.92832e-05
-0.00346427
0.00116814
0.00370148
0.0112619
-2.59838e-05
-7.47215e-05
-0.00159035
-1.73876e-05
-0.000160177
0.00342504
0.000124452
9.69014e-05
-0.00264392
0.000127902
-0.000204067
-0.000239482
0.000689652
0.0054186
-0.00451883
-0.000178293
0.000163541
0.00047256
-0.000699985
0.00114366
1.54624e-05
-0.00437052
2.37001e-05
0.00152082
-2.89721e-05
0.335956
-0.000243713
-0.00799915
0.00367702
0.00173257
-0.00190774
0.001676
0.00161539
-0.00539931
0.0224513
0.000395666
0.000663907
0.0192199
-5.93218e-06
0.00284878
-0.004657
0.00450996
4.13592e-06
0.00817572
-5.67494e-06
0.00964786
0.0315708
4.18383e-06
0.00476823
-0.00035488
0.000288318
0.00206852
0.000210387
-0.0116673
-0.000190605
0.00237558
-0.00191174
-0.00112595
-0.00415775
4.67235e-05
-0.00421774
-0.000609959
8.31038e-05
-0.000246631
-0.000161667
-0.00114384
-0.000123461
-0.000260273
-0.00295067
0.00036945
0.000659169
-0.00197045
4.04416e-05
-9.6311e-05
-0.000511472
-0.00113127
-3.50054e-05
-0.00176504
0.015977
0.00798882
6.99344e-05
-0.00146059
0.00884109
-0.00182896
0.103282
-5.63053e-05
0.0369902
0.0751339
-0.00422534
-0.00435767
-0.00512365
0.000238728
0.00171715
-0.00152117
-0.0103527
-0.00573441
0.000169201
2.65619e-05
-0.000106052
-0.000705862
-7.23144e-05
-0.00130793
-0.00016263
0.0105839
-0.000369717
-4.40471e-05
-2.19988e-05
2.05811e-05
-0.0012931
-0.000685049
-0.00540935
-1.6483e-05
0.00166793
0.00152592
3.98424e-05
7.33021e-05
-0.00569196
0.0257876
0.0385926
-0.00207168
1.176e-05
-1.83343e-05
-0.00445273
-0.00011798
0.0262918
-0.00413341
0.00315975
0.09117
0.000101383
0.000167522
0.258678
0.00131022
0.000382595
0.0176432
-0.0282672
-9.36779e-05
-0.000973345
0.000224491
7.5789e-06
-0.00172546
-0.00153747
-8.88853e-05
0.00323032
-0.000481115
-0.00146946
0.000501592
0.000157237
-0.00143303
-0.00215913
-0.000713141
-0.000437508
0.00885207
0.00331995
0.000372822
-0.000637508
0.000514769
-2.74232e-05
-0.000337087
-0.00321506
-2.38184e-06
-8.5558e-05
3.12518e-05
2.43976e-05
0.000177701
-3.85666e-05
-0.000105646
0.000230789
-1.54487e-05
-6.46988e-05
0.00392133
-0.00104201
0.00263338
-5.51566e-05
-0.00113432
2.35502e-05
0.00180963
0.0301833
0.00692819
-0.000182119
-0.00025312
-0.0018635
0.00958874
-0.00507393
-0.00676883
-0.000118213
-0.000332866
4.94102e-05
0.000452656
0.00021371
0.00926939
6.16086e-05
0.000938861
-0.00443515
0.00345902
0.00342216
0.00667505
4.0929e-05
0.00269833
-0.00266657
-0.000409987
0.0031287
-2.39173e-05
0.000187735
-0.00796362
0.000282303
-0.00619291
-5.74614e-05
-0.00100153
0.382532
0.00196802
-0.00542251
0.00259931
-0.00110826
0.00310605
-0.000114822
0.00477958
0.00162299
-0.00345416
-0.00596573
-1.12099e-05
-0.00197041
7.19945e-05
-5.67037e-05
0.00349393
-0.00512899
-0.00293834
0.00284352
1.65152e-05
1.69133e-05
-6.7583e-05
5.72022e-06
0.0103291
-0.0015739
-0.00150194
0.002116
-1.5207e-05
2.33685e-05
2.184e-05
0.000219789
6.96409e-05
6.64896e-05
-0.000218723
0.000567722
-0.000235723
3.03986e-05
7.82835e-05
7.02344e-05
3.16995e-05
-0.00611884
0.00122954
0.000731172
0.0014193
-0.00377115
-0.00707849
-0.00959771
-0.00324996
0.00142131
0.00207386
0.00195694
-2.44009e-05
0.000276078
-1.46053e-05
0.000232278
-2.85502e-05
-0.000335417
1.25527e-05
0.000171327
0.006164
-2.50377e-06
0.00151924
0.0021578
0.00716143
0.0079211
0.0195909
-0.0124568
-0.000786738
-0.00062049
-0.00727599
0.00473549
-0.00124328
0.00678314
-0.00263519
3.37683e-05
0.00144162
0.00432705
-0.00908441
0.00444312
-0.00049757
0.005489
0.00159626
-0.000117546
0.000523749
5.61873e-05
0.000167524
0.000124383
0.00114139
4.62941e-05
0.000252934
-0.00396261
-0.00444964
0.000588161
0.00316536
0.00129901
-0.000479681
-0.0042864
-0.00110095
-0.000102214
-0.000105933
-0.0047478
0.0145004
1.06718e-05
0.00420072
0.00927806
0.000412665
0.00844134
-1.69209e-05
-0.00464508
-0.0551585
-0.00119813
-0.0595427
-0.0344458
-8.10961e-07
-0.00643342
0.000175169
-0.000375995
-0.000614162
-0.000590267
3.15721e-05
-2.2489e-07
0.000171068
0.00259337
-0.00041263
0.00140589
0.00354252
3.32729e-05
-6.23576e-05
-0.000393612
9.33111e-06
0.00281929
-0.00231734
-0.00111994
-0.00273711
5.26414e-05
1.15699e-05
0.00119925
0.000656874
5.11551e-05
1.70493e-06
-0.000114482
-0.000324812
0.00365795
0.00805513
-5.74662e-06
-0.00032787
0.00659977
-0.000887597
-0.000341224
-8.02674e-05
0.00160512
-7.08988e-06
-0.000349844
-0.000254848
-0.0030201
0.00592068
1.37248e-05
0.000140862
-6.03662e-05
0.000195525
4.16409e-05
-3.17052e-05
-1.25608e-05
-5.95627e-05
0.00188792
0.0025069
0.000923161
0.000325886
0.000946385
0.00231857
-0.00241642
-6.87352e-05
-0.00153721
0.000271463
-0.00468853
0.00700572
-0.00118309
0.000113377
8.44096e-05
-1.99321e-06
0.0125015
-7.20487e-06
-1.99455e-05
-0.00177675
-4.23713e-05
-0.000577524
-0.0026444
0.0013253
-4.34254e-05
-0.000844141
9.94119e-05
0.000365703
0.000167082
0.00363785
-0.00117145
-0.00340262
-0.00105317
-4.89892e-05
-0.0046589
-0.00515066
-0.000248219
-0.000345867
-0.000255057
-0.000196993
0.000153901
6.9044e-05
0.000243841
-0.00279398
0.00121382
-0.000199121
0.000688995
0.000776611
-0.00995745
0.00020723
-3.25187e-05
0.000158973
0.000274981
0.00243912
0.00113143
-0.00134265
9.4868e-05
-0.00107276
0.0465449
0.00140004
0.0219737
0.00297019
0.00118518
0.0015853
-5.13529e-06
-0.00221568
-0.00462192
0.0092803
0.00749999
0.000639154
0.000345864
-0.000313852
-0.000455211
0.00441613
0.00113831
0.00484637
0.00215913
-0.00266328
1.08114e-05
0.000106963
0.000999941
-0.00175956
-0.00266956
2.78851e-05
0.00396402
0.0640203
0.0112887
0.0233996
0.0056806
0.00497285
-0.0118946
-0.00590978
-0.00667445
0.00019002
-0.00316131
0.00164099
-0.000304183
-0.0028238
-0.0026383
-0.00192687
-1.23708e-05
0.00227123
-0.00219003
-3.59418e-05
-0.000961151
0.000936828
-0.000496091
-0.00487279
-0.000238801
0.000132971
-0.00330946
0.00338885
0.000127703
0.00416378
0.00409814
0.0155377
0.0341801
0.00283311
0.000120004
-9.37017e-05
-0.000559888
-7.94588e-05
-8.74216e-05
-0.000136863
0.0144297
-0.00510674
4.28514e-05
-5.93731e-06
2.8314e-05
-1.28594e-05
-0.000123188
-0.000146562
1.11859e-05
-0.00599898
0.0042357
-0.00369781
0.00322015
-0.00110508
7.81592e-05
0.00333511
0.00409233
-2.13298e-05
-0.000345855
-0.00142036
-0.000232809
0.000732612
0.00563135
0.00179721
0.00215991
0.00464894
9.10649e-05
-0.00043923
-0.000476698
-1.20797e-05
0.0019204
-0.00244511
0.0414903
0.00195234
4.56698e-06
0.000153074
-0.000585716
-0.000208333
-0.00297684
-0.000781777
-8.62984e-05
0.000505358
8.53813e-05
-2.81497e-05
0.00418812
-1.20264e-05
3.77948e-06
-0.000156864
-0.000156761
-0.000318098
-0.0021731
-0.00273658
0.00115954
0.000386076
-3.44356e-05
-0.00178916
-0.000128086
-4.9121e-05
0.00448674
-7.03613e-05
0.00295488
-0.00453854
-0.000434016
0.117538
0.0541516
0.0647238
-0.0457965
0.0181394
-0.00866471
-0.000105813
-0.000297312
-0.0217325
-0.0183933
0.00901534
0.000531185
0.000133931
-3.99141e-05
-3.86867e-05
0.00157457
0.0100164
-0.00399164
-6.27317e-05
-4.83602e-05
-0.0179988
-0.00861025
0.000637872
-5.05448e-05
0.000364889
0.00263456
-4.75798e-06
0.00580264
-2.19181e-05
0.000518515
-0.00269397
0.00327354
-0.0017287
-0.00209324
0.00233634
0.000489527
-0.0237964
-0.0180503
-0.0007253
-0.000921053
-0.00757089
-0.000624716
-0.00331615
0.00923875
0.00133716
-0.000503654
0.000175648
0.000537311
0.00150861
0.000178158
0.00020834
0.000248343
5.42987e-05
-0.00355367
2.00152e-05
-0.00120298
-0.00148599
-2.54856e-05
-0.000440492
0.000273328
5.78593e-05
0.00334319
-0.000140501
-0.000177087
-0.00160833
5.60669e-05
0.0022854
0.00337547
0.0284072
0.00213039
0.0200746
0.0227094
0.0135295
-0.0033137
-0.00205863
-0.00343527
-0.0042306
-0.00582094
1.51696e-05
0.0129018
0.00477892
0.00601483
-0.000294446
-0.00299047
-0.000677085
0.00430965
0.0333132
0.00668667
1.73056e-05
0.000857007
0.000605553
0.00183318
0.0012835
-0.0048343
9.26882e-05
-3.59794e-05
-1.65985e-05
2.04139e-05
-1.94591e-05
0.000586301
0.000413966
-9.58759e-06
0.000167857
0.000192255
-5.70005e-06
0.000130994
4.28826e-05
-0.000732207
-0.000455269
-0.000132551
-6.45731e-05
-0.000594077
2.10347e-05
1.95118e-06
-0.000966843
-0.000452134
-0.000219273
0.000128532
0.000112024
0.0165246
-0.00539841
3.53892e-05
0.0456699
0.0212165
0.0454503
0.0510356
-0.0115892
-0.057321
-4.5134e-05
-0.000756558
0.000274166
0.00118663
-0.00249475
0.00174038
-0.00567927
-0.00246158
-0.00525888
-0.000728262
-0.000442867
-0.000559806
-0.0032083
0.00162587
0.00502614
-0.00247055
0.0109743
-0.00281485
9.3794e-05
5.21129e-05
3.34222e-05
3.13179e-05
-1.21685e-05
-0.00271046
-0.00374172
-0.00288577
0.00188523
-0.00871827
0.0160091
-2.56552e-05
4.44232e-05
6.66874e-05
-1.87546e-05
-1.99395e-05
0.00709704
-0.00143694
0.00160833
-0.000272398
0.0159037
-0.0123133
0.00974985
6.53461e-07
0.0389577
0.0343579
0.000474541
-0.000616566
-0.000615067
-0.000135701
-0.000442271
-2.45538e-05
-0.00194653
0.00338229
0.000519426
0.00659475
-0.00302241
0.00253548
0.00787095
0.00242982
-0.00746065
-0.00357637
0.000191228
-0.000117212
0.00817758
-0.00766276
-0.00659584
-0.00356898
0.000814517
0.00199684
-0.000375405
-0.00115788
0.000100413
4.89175e-05
-0.00470353
0.00185332
0.0024069
0.00143293
0.00274412
-0.000193474
0.000317023
-0.00068621
-1.48034e-06
0.0181314
0.0314357
0.0382492
0.0187754
0.0240078
-6.40967e-06
0.0228325
-0.0196786
0.0965298
0.00971656
0.0884115
0.00736731
-0.0284516
0.07969
0.00973254
-0.019849
-0.0108013
0.00954294
-0.00218167
-0.00529889
-0.00151192
-0.00139159
0.00546071
-0.00375179
0.00364353
0.00179836
-0.000346886
-0.00364332
0.0202014
0.00785042
-0.00425501