# vtk DataFile Version 2.0
Unstructured Grid by M++
ASCII
DATASET UNSTRUCTURED_GRID
POINTS 4072 float
  0.875000   1.000000 0
  0.875000   0.984375 0
  0.875000   0.968750 0
  0.875000   0.953125 0
  0.875000   0.937500 0
  0.875000   0.921875 0
  0.875000   0.906250 0
  0.875000   0.890625 0
  0.875000   0.875000 0
  0.875000   0.859375 0
  0.875000   0.843750 0
  0.875000   0.828125 0
  0.875000   0.812500 0
  0.875000   0.796875 0
  0.875000   0.781250 0
  0.875000   0.765625 0
  0.859375   1.000000 0
  0.859375   0.984375 0
  0.859375   0.968750 0
  0.859375   0.953125 0
  0.859375   0.937500 0
  0.859375   0.921875 0
  0.859375   0.890625 0
  0.859375   0.875000 0
  0.859375   0.859375 0
  0.859375   0.843750 0
  0.859375   0.828125 0
  0.859375   0.812500 0
  0.859375   0.796875 0
  0.859375   0.781250 0
  0.859375   0.765625 0
  0.859375   0.671875 0
  0.859375   0.656250 0
  0.859375   0.640625 0
  0.843750   1.000000 0
  0.843750   0.984375 0
  0.843750   0.968750 0
  0.843750   0.953125 0
  0.843750   0.937500 0
  0.843750   0.921875 0
  0.843750   0.906250 0
  0.843750   0.875000 0
  0.843750   0.859375 0
  0.843750   0.843750 0
  0.843750   0.828125 0
  0.843750   0.812500 0
  0.843750   0.796875 0
  0.843750   0.781250 0
  0.843750   0.765625 0
  0.843750   0.671875 0
  0.843750   0.656250 0
  0.843750   0.640625 0
  0.828125   1.000000 0
  0.828125   0.984375 0
  0.828125   0.968750 0
  0.828125   0.953125 0
  0.828125   0.937500 0
  0.828125   0.921875 0
  0.875000   0.671875 0
  0.812500   0.921875 0
  0.890625   0.656250 0
  0.828125   0.906250 0
  0.875000   0.656250 0
  0.812500   0.906250 0
  0.890625   0.640625 0
  0.828125   0.890625 0
  0.875000   0.640625 0
  0.812500   0.890625 0
  0.890625   0.625000 0
  0.828125   0.875000 0
  0.890625   0.609375 0
  0.828125   0.859375 0
  0.890625   0.593750 0
  0.828125   0.843750 0
  0.890625   0.578125 0
  0.828125   0.828125 0
  0.890625   0.562500 0
  0.828125   0.812500 0
  0.828125   0.796875 0
  0.828125   0.781250 0
  0.828125   0.765625 0
  0.828125   0.671875 0
  0.828125   0.656250 0
  0.828125   0.640625 0
  0.875000   0.750000 0
  0.812500   1.000000 0
  0.875000   0.625000 0
  0.812500   0.875000 0
  0.875000   0.734375 0
  0.812500   0.984375 0
  0.875000   0.718750 0
  0.812500   0.968750 0
  0.875000   0.703125 0
  0.812500   0.953125 0
  0.875000   0.687500 0
  0.812500   0.937500 0
  0.875000   0.609375 0
  0.812500   0.859375 0
  0.875000   0.593750 0
  0.812500   0.843750 0
  0.875000   0.578125 0
  0.812500   0.828125 0
  0.812500   0.812500 0
  0.875000   0.546875 0
  0.812500   0.796875 0
  0.812500   0.781250 0
  0.812500   0.765625 0
  0.859375   0.750000 0
  0.796875   1.000000 0
  0.859375   0.625000 0
  0.796875   0.875000 0
  0.859375   0.734375 0
  0.796875   0.984375 0
  0.859375   0.718750 0
  0.796875   0.968750 0
  0.859375   0.703125 0
  0.796875   0.953125 0
  0.859375   0.687500 0
  0.796875   0.937500 0
  0.859375   0.609375 0
  0.796875   0.859375 0
  0.859375   0.593750 0
  0.796875   0.843750 0
  0.859375   0.578125 0
  0.796875   0.828125 0
  0.859375   0.562500 0
  0.796875   0.812500 0
  0.796875   0.796875 0
  0.859375   0.531250 0
  0.796875   0.781250 0
  0.796875   0.765625 0
  0.843750   0.750000 0
  0.781250   1.000000 0
  0.843750   0.625000 0
  0.781250   0.875000 0
  0.843750   0.734375 0
  0.781250   0.984375 0
  0.843750   0.718750 0
  0.781250   0.968750 0
  0.843750   0.703125 0
  0.781250   0.953125 0
  0.843750   0.687500 0
  0.781250   0.937500 0
  0.843750   0.609375 0
  0.781250   0.859375 0
  0.843750   0.593750 0
  0.781250   0.843750 0
  0.843750   0.578125 0
  0.781250   0.828125 0
  0.781250   0.812500 0
  0.843750   0.546875 0
  0.781250   0.796875 0
  0.781250   0.781250 0
  0.843750   0.515625 0
  0.781250   0.765625 0
  0.828125   0.750000 0
  0.765625   1.000000 0
  0.828125   0.625000 0
  0.765625   0.875000 0
  0.828125   0.734375 0
  0.765625   0.984375 0
  0.828125   0.718750 0
  0.765625   0.968750 0
  0.828125   0.703125 0
  0.765625   0.953125 0
  0.828125   0.687500 0
  0.765625   0.937500 0
  0.828125   0.609375 0
  0.765625   0.859375 0
  0.828125   0.593750 0
  0.765625   0.843750 0
  0.828125   0.578125 0
  0.765625   0.828125 0
  0.828125   0.562500 0
  0.765625   0.812500 0
  0.765625   0.796875 0
  0.828125   0.531250 0
  0.765625   0.781250 0
  0.765625   0.765625 0
  0.812500   0.750000 0
  0.750000   1.000000 0
  0.953125   1.000000 0
  0.812500   0.734375 0
  0.750000   0.984375 0
  0.812500   0.718750 0
  0.750000   0.968750 0
  0.812500   0.703125 0
  0.750000   0.953125 0
  0.812500   0.687500 0
  0.750000   0.937500 0
  0.812500   0.671875 0
  0.750000   0.921875 0
  0.812500   0.656250 0
  0.750000   0.906250 0
  0.812500   0.640625 0
  0.750000   0.890625 0
  0.812500   0.625000 0
  0.750000   0.875000 0
  0.812500   0.609375 0
  0.750000   0.859375 0
  0.812500   0.593750 0
  0.750000   0.843750 0
  0.812500   0.578125 0
  0.750000   0.828125 0
  0.750000   0.812500 0
  0.812500   0.546875 0
  0.750000   0.796875 0
  0.750000   0.781250 0
  0.812500   0.515625 0
  0.750000   0.765625 0
  0.796875   0.750000 0
  0.734375   1.000000 0
  0.796875   0.734375 0
  0.734375   0.984375 0
  0.796875   0.718750 0
  0.734375   0.968750 0
  0.796875   0.703125 0
  0.734375   0.953125 0
  0.796875   0.687500 0
  0.734375   0.937500 0
  0.796875   0.671875 0
  0.734375   0.921875 0
  0.796875   0.656250 0
  0.734375   0.906250 0
  0.796875   0.640625 0
  0.734375   0.890625 0
  0.796875   0.625000 0
  0.734375   0.875000 0
  0.796875   0.609375 0
  0.734375   0.859375 0
  0.796875   0.593750 0
  0.734375   0.843750 0
  0.796875   0.578125 0
  0.734375   0.828125 0
  0.734375   0.812500 0
  0.734375   0.796875 0
  0.796875   0.531250 0
  0.734375   0.781250 0
  0.734375   0.765625 0
  0.781250   0.750000 0
  0.718750   1.000000 0
  0.921875   1.000000 0
  0.781250   0.734375 0
  0.718750   0.984375 0
  0.781250   0.718750 0
  0.718750   0.968750 0
  0.781250   0.703125 0
  0.718750   0.953125 0
  0.859375   0.906250 0
  0.781250   0.687500 0
  0.718750   0.937500 0
  0.781250   0.671875 0
  0.718750   0.921875 0
  0.781250   0.656250 0
  0.718750   0.906250 0
  0.781250   0.640625 0
  0.718750   0.890625 0
  0.781250   0.625000 0
  0.718750   0.875000 0
  0.781250   0.609375 0
  0.718750   0.859375 0
  0.781250   0.593750 0
  0.718750   0.843750 0
  0.781250   0.578125 0
  0.718750   0.828125 0
  0.781250   0.562500 0
  0.718750   0.812500 0
  0.781250   0.546875 0
  0.718750   0.796875 0
  0.781250   0.531250 0
  0.718750   0.781250 0
  0.781250   0.515625 0
  0.718750   0.765625 0
  0.765625   0.750000 0
  0.703125   1.000000 0
  0.765625   0.734375 0
  0.703125   0.984375 0
  0.765625   0.718750 0
  0.703125   0.968750 0
  0.765625   0.703125 0
  0.703125   0.953125 0
  0.765625   0.687500 0
  0.703125   0.937500 0
  0.843750   0.890625 0
  0.703125   0.921875 0
  0.765625   0.656250 0
  0.703125   0.906250 0
  0.765625   0.640625 0
  0.703125   0.890625 0
  0.765625   0.625000 0
  0.703125   0.875000 0
  0.765625   0.609375 0
  0.703125   0.859375 0
  0.765625   0.593750 0
  0.703125   0.843750 0
  0.765625   0.578125 0
  0.703125   0.828125 0
  0.765625   0.562500 0
  0.703125   0.812500 0
  0.765625   0.546875 0
  0.703125   0.796875 0
  0.765625   0.531250 0
  0.703125   0.781250 0
  0.765625   0.515625 0
  0.703125   0.765625 0
  0.750000   0.750000 0
  0.687500   1.000000 0
  0.890625   1.000000 0
  0.750000   0.734375 0
  0.687500   0.984375 0
  0.750000   0.718750 0
  0.687500   0.968750 0
  0.578125   0.796875 0
  0.578125   0.781250 0
  0.578125   0.765625 0
  0.546875   0.953125 0
  0.546875   0.968750 0
  0.546875   0.718750 0
  0.546875   0.687500 0
  0.250000   0.609375 0
  0.937500   0.031250 0
  0.046875   0.703125 0
  0.734375   0.062500 0
  0.734375   0.078125 0
  0.734375   0.046875 0
  0.046875   0.593750 0
  0.046875   0.562500 0
  0.046875   0.531250 0
  0.718750   0.156250 0
  0.046875   0.609375 0
  0.734375   0.031250 0
  0.062500   0.609375 0
  0.234375   0.703125 0
  0.718750   0.125000 0
  0.046875   0.578125 0
  0.734375   0.000000 0
  0.062500   0.578125 0
  0.000000   0.828125 0
  0.234375   0.671875 0
  0.234375   0.625000 0
  0.718750   0.093750 0
  0.687500   0.156250 0
  0.062500   0.546875 0
  0.000000   0.796875 0
  0.718750   0.046875 0
  0.031250   0.687500 0
  0.687500   0.171875 0
  0.500000   1.000000 0
  0.078125   0.218750 0
  0.234375   0.593750 0
  0.718750   0.062500 0
  0.687500   0.125000 0
  0.000000   0.765625 0
  0.421875   0.500000 0
  0.031250   0.593750 0
  0.718750   0.015625 0
  0.687500   0.234375 0
  0.015625   0.812500 0
  0.703125   0.171875 0
  0.703125   0.187500 0
  0.703125   0.140625 0
  0.015625   0.781250 0
  0.437500   0.515625 0
  0.500000   0.796875 0
  0.078125   0.015625 0
  0.687500   0.203125 0
  0.250000   0.578125 0
  0.703125   0.109375 0
  0.000000   0.515625 0
  0.500000   0.765625 0
  0.062500   0.593750 0
  0.750000   0.015625 0
  0.015625   0.843750 0
  0.687500   0.000000 0
  0.500000   0.828125 0
  0.078125   0.046875 0
  0.015625   0.531250 0
  0.250000   0.546875 0
  0.703125   0.078125 0
  0.703125   0.031250 0
  0.015625   0.671875 0
  0.250000   0.515625 0
  0.000000   0.656250 0
  0.500000   0.906250 0
  0.078125   0.125000 0
  0.687500   0.015625 0
  0.031250   0.546875 0
  0.687500   0.031250 0
  0.500000   0.859375 0
  0.703125   0.000000 0
  0.703125   0.046875 0
  0.703125   0.015625 0
  0.500000   0.937500 0
  0.234375   0.531250 0
  0.031250   0.578125 0
  0.687500   0.062500 0
  0.500000   0.890625 0
  0.031250   0.796875 0
  0.453125   0.531250 0
  0.500000   0.968750 0
  0.078125   0.187500 0
  0.234375   0.562500 0
  0.031250   0.609375 0
  0.718750   0.031250 0
  0.687500   0.093750 0
  0.750000   0.046875 0
  0.000000   0.937500 0
  0.421875   0.671875 0
  0.718750   0.187500 0
  0.031250   0.828125 0
  0.765625   0.062500 0
  0.015625   0.953125 0
[...]
CELL_DATA 7648
SCALARS scalar_value float 1
LOOKUP_TABLE default
0.00168338
0.00208409
0.00266546
-0.00155508
0.00452183
0.00445142
-4.9417e-05
0.00177725
-0.00122299
-6.92585e-05
0.00170359
0.000314519
0.00394721
0.0234378
-0.000874023
-0.000499484
0.00536858
0.012643
-0.00354661
1.26845e-05
0.000999776
-0.00142365
-0.00124821
8.01587e-06
-0.00344565
-0.00301073
-0.00194836
0.00912553
-0.00304622
-0.00476475
0.00262981
-0.000856678
0.00340766
-0.00022199
-0.000255249
-0.000102456
-0.000209176
0.000129047
0.00022768
0.000930153
0.000245887
0.000510478
-0.000355262
-0.000224088
4.94313e-05
-0.000155484
0.00195967
0.000497584
-0.00117192
0.00103279
5.46153e-05
-5.98806e-05
-0.00219869
-0.000896856
0.00180159
0.000325719
0.00239695
0.000948547
-0.00285492
7.51458e-05
-0.000312024
0.000529665
0.000186984
-0.000273912
-0.0015365
0.000708708
0.0114636
0.00125826
0.00340417
0.000184497
0.000144185
0.000147587
1.7481e-05
7.25515e-06
0.00208513
0.00500439
0.00387217
-0.00580608
-0.00629454
0.00250917
2.81337e-05
-0.000780309
0.0119006
-2.92594e-05
1.27998e-05
-6.02842e-05
0.000311258
-0.00178149
0.0135261
0.0132117
0.00236737
0.00287136
-8.79057e-05
2.43636e-05
3.65488e-05
-0.000546257
0.000288879
4.06495e-05
0.00151478
0.00402699
0.0118514
-1.10588e-05
0.000273313
0.000311062
0.00132136
-0.00944212
-0.000111544
0.000435231
-0.00940118
-0.00243335
-9.37837e-05
0.000476529
-0.0026772
-0.000967805
-0.00192787
0.000865569
-0.000613319
0.0173024
0.0278667
0.0103942
0.0278325
-0.00133556
-0.00407058
1.06728e-06
-2.53883e-06
0.000209357
6.86089e-05
0.00102393
-0.00516646
-0.00811164
-0.00516135
-6.8796e-05
0.000143868
-0.00136814
0.000219525
0.000511981
-0.0018193
-0.00181128
-0.000404943
0.00536396
-0.00250779
-2.4598e-05
0.000269154
0.000108837
-0.00434625
2.75201e-05
1.64679e-05
0.000983193
4.44678e-05
-0.000855404
4.23266e-05
0.000342987
-0.000755783
-0.0173902
0.000825284
0.00259583
0.000659248
-0.000451501
0.00464341
0.00153802
-0.00186027
-0.000220913
0.00134545
-2.48256e-05
0.000698846
0.000131754
-2.91142e-05
-0.00290012
-0.00212679
0.00336802
-0.000160616
-0.00112442
-6.77969e-06
-1.71081e-05
0.00230908
-0.00486792
0.000901376
3.76527e-05
-9.67678e-05
0.000315163
-1.08537e-05
-3.82e-05
-9.7087e-05
3.38973e-05
0.00183844
0.000350468
-0.00266395
-0.000676264
-0.000108571
-0.00027328
-0.00484326
0.00420071
-0.00209147
2.60878e-05
0.000171857
-0.000170086
2.81506e-05
-0.00434236
0.000299115
0.00180181
0.000399752
-0.00345933
-0.00333447
-0.0023353
-0.000509984
0.000131339
-0.00105923
-0.000130362
0.00223828
-0.000603102
-0.000742844
-0.00129748
7.41697e-05
-0.00156406
0.000724254
-0.00253913
-0.00396209
-0.00255506
0.00293362
0.00159807
0.000645318
0.000184415
-0.00247567
0.000326583
-0.000239914
-0.00213965
-0.00336624
-0.000159988
-0.000379323
0.00143828
-0.00299985
0.000597328
0.00240766
-0.000379606
0.000187352
0.000460702
-0.00108487
-0.001119
0.000112563
-0.00451266
3.24487e-05
-0.000598818
-0.00204495
-0.00536714
-0.00520762
-2.54309e-05
-0.00386295
0.00647504
-0.00700995
-5.44848e-05
0.000878211
-0.000447481
-0.00028817
-0.000699271
0.000186456
8.51402e-06
3.44901e-05
0.00405597
-0.000375797
-0.000918465
-0.0033478
0.00424844
-0.00287908
-0.00347177
-0.00190861
-0.00291084
0.00160958
0.00106985
-0.00795846
0.00432036
0.00674921
1.41301e-05
0.00236997
-0.00132225
0.00606241
3.40512e-05
-0.00352766
0.000306684
-0.00136492
0.000391631
-0.00459178
-0.00374287
-0.00791801
0.00372846
0.00179012
0.00183085
0.00215989
0.00279111
0.00497794
-0.00122908
0.00236449
0.0142705
0.0149567
-0.00121466
0.00209549
-3.58842e-05
0.00409602
-0.00277629
-0.00137568
0.00949004
-0.00263721
0.00216685
-0.00173327
0.00197211
0.00233145
-0.00212883
8.42877e-05
0.00507186
-0.00051819
-0.0013604
-0.00028694
-0.00497703
0.00973368
-0.00361196
0.000256492
0.0061572
0.00491482
-0.00259385
-0.00779609
0.00316232
0.000128514
-7.25172e-05
0.000735477
0.000121812
2.1553e-05
-0.0052277
0.000286216
0.000274664
0.000130309
0.000320387
-0.00023013
0.00178293
-2.14393e-05
-0.00034795
0.0016029
-1.94948e-06
0.000257999
-4.13156e-05
8.29997e-05
-0.000126226
-0.000253652
-0.00462286
0.000416866
0.000970794
-0.000579805
-0.000845965
-0.00210367
-0.00310404
-8.26581e-06
-7.17829e-05
0.00168976
-0.00203517
0.00168741
0.00346919
-0.00268839
0.000165891
0.000334339
0.000338243
-0.00386378
-0.00180172
0.00196943
-0.000393492
0.0181475
1.0151e-05
0.0026227
0.00148922
-0.000630666
0.00183017
0.00121636
0.000228163
-0.00536337
-2.79569e-05
0.000399899
-0.00217848
0.00475966
-0.00254849
0.00088409
-0.00220693
0.0037875
0.000244277
0.00156625
-0.00113979
-0.000127379
0.00339007
0.00128902
0.000665001
-6.7987e-05
0.00103277
-0.000877912
-0.00273334
-0.00104288
2.94028e-05
0.0023811
0.00118284
-0.0022889
0.00343904
0.00384345
-0.0049737
0.000638186
0.00163094
0.00041004
0.0014247
9.81425e-05
-4.53505e-05
-2.50549e-05
-0.000100122
-0.000719416
-0.00380187
0.00069907
0.00014712
0.174261
-0.00392852
-1.86567e-05
-0.00105818
-0.00260407
-0.0174193
-0.00348786
0.00018798
7.82932e-05
0.000634003
0.000573031
-0.00151043
0.00058629
-0.00362203
0.000305794
0.00105083
0.00063809
0.00812441
0.000635841
0.05535
0.0146908
-0.00257505
-7.98479e-07
0.00553999
-0.000296776
-0.00134463
0.000201339
0.000102465
-9.40928e-05
3.25915e-05
-0.00536372
-9.36944e-05
-0.00447665
0.000281656
-4.69888e-05
-5.36108e-05
-0.00354782
-0.00152165
5.51724e-06
-0.00116859
-5.02054e-06
0.000152397
-0.000634152
-0.00357724
0.000526326
-3.6221e-05
-0.002098
-0.00532832
-0.00236511
-0.00537978
-0.00863024
0.0003143
0.00638499
0.000174186
-3.47385e-05
-4.85953e-05
-0.000119014
-7.22124e-05
0.000145505
-0.00117931
0.00182225
-0.00134227
0.00386657
6.66422e-05
-0.014582
-0.000312364
-0.00864337
-3.17131e-06
-0.000997316
0.00383738
2.27936e-05
-4.07919e-05
0.00184859
-0.00042179
0.000429629
-0.0062309
-6.37119e-05
9.64766e-05
0.000534039
3.50429e-05
-9.04824e-06
-3.42319e-05
-8.53714e-05
0.00125942
0.0648583
0.0275592
-0.000401161
8.25523e-05
-0.000257976
7.29192e-05
-0.000244543
6.25041e-05
3.74151e-05
-0.000410284
0.000248246
0.000453128
0.000224479
1.60569e-05
0.000380249
8.24483e-05
-0.000436366
8.39026e-05
3.59017e-05
-0.00523685
0.00191607
0.0207344
-6.88903e-06
0.00122944
-0.00243436
0.00812004
0.00545662
0.00978893
8.53908e-06
-0.000504366
-0.000584711
4.07e-05
-0.00225815
1.89776e-05
-0.00575544
-0.00606575
0.00291275
8.51244e-05
0.000448118
-0.00306745
0.000265668
-9.7755e-06
0.000113152
5.95521e-05
-0.0037217
-0.00567514
-0.0055747
0.000190466
-0.00268468
-0.000411249
-0.00320845
-0.00102266
-0.000376419
0.00435547
0.00124204
-0.000586577
0.000218363
-0.00327241
-0.000326939
0.000229118
-0.00307962
0.00102255
4.69322e-05
0.000609242
0.00203318
0.000753009
-0.00296838
0.00239686
-0.000349786
-0.000713036
0.0023162
-0.00033899
-0.00153471
-0.00117828
-0.00201976
3.03905e-05
-8.46472e-05
6.48594e-06
0.00201193
0.00115702
0.00123431
-0.000275223
-0.000648183
-2.62966e-05
-0.00403983
0.000120788
-0.00240507
-0.000317999
0.00321434
-0.00223707
0.000197358
-0.00164752
-0.0039134
0.000806303
-0.000659231
-0.000168229
-0.000463651
0.000254242
0.000607006
0.164811
-7.9599e-05
6.61467e-05
-0.00773003
0.107565
-0.00399537
0.00265409
0.00309344
-0.000128272
0.00146085
0.000927625
0.000771615
-0.000995955
0.00386121
0.00078577
-0.000995347
0.00397237
-0.000859096
0.000532088
3.61449e-05
-0.00124429
-0.00129325
-0.00242072
-0.000701834
0.00210998
0.000937067
-0.000919745
1.45025e-06
-0.00349225
-0.00812948
0.00032052
0.00139214
0.000682202
0.00144361
0.000123432
0.00157029
0.0021403
0.000622332
0.00024349
0.00182733
-0.000412033
-0.00042534
0.000227869
-0.00457807
0.00832401
-0.00369892
-0.000684961
9.8565e-05
-0.000540914
0.000163759
4.62671e-05
-0.00607329
-0.0002759
0.00031754
-0.00346448
0.00558001
0.000155079
0.000840129
0.00984912
0.00117611
0.00100739
0.00155916
-0.000137287
-0.00219459
-0.00265715
0.00314647
-0.00206592
0.000418285
0.000419608
0.121253
0.0262029
-0.00551141
-0.00123334
0.0449202
0.08887
0.000779215
-0.00162135
0.00264825
0.0106684
1.93554e-05
-0.00385644
-0.000494895
-0.000341774
-0.00275302
0.0032232
-0.000281658
2.28897e-05
0.0123722
0.000141975
0.00476941
0.000605948
9.84814e-05
-0.000105307
0.0017183
0.00877917
0.000125253
8.05271e-05
-0.00616899
0.000100276
0.165473
0.0013241
0.000203046
-0.00243752
-0.00101259
-0.000340421
-0.000160998
4.55019e-05
-0.00303364
-7.99856e-05
0.00571668
-0.000746166
-0.0121174
0.000380902
0.00170804
-7.16371e-05
-0.000581301
0.0410149
0.00322136
0.0202067
-0.00114344
0.0123414
-0.000170797
0.00055819
-9.75525e-05
0.00220834
0.0220271
0.000129593
0.0394607
0.0485385
0.00020871
0.0343528
0.00486742
0.00253385
-0.000742941
-0.00399221
0.0353079
-0.00032252
0.000480466
-0.000344146
-9.48385e-05
-0.000263506
2.27587e-05
2.59059e-05
-0.00317952
-0.00117227
-0.000409239
6.21013e-05
0.000593679
0.00065181
0.000988458
0.00258112
-0.000136853
9.59683e-05
-0.00551744
-0.00123254
-2.29337e-05
0.00017072
4.91588e-06
0.0403083
2.95344e-05
0.000185604
-0.00390628
0.000160168
-0.000398412
0.00254363
-0.00296219
-0.0191846
-0.00371196
1.89009e-05
0.000176431
-0.00096796
-0.000127865
0.000359372
-0.00324726
2.85258e-05
-0.000313955
6.44789e-05
0.000211091
0.00126231
-0.00101326
0.161021
-0.000177145
-0.00141527
1.86648e-05
-0.0053195
0.00223273
0.00100654
0.00024868
2.83195e-05
3.65986e-05
-0.000376856
-0.0010448
6.0962e-05
-0.00120833
-0.000579161
0.000865008
0.0990262
0.00291023
-1.53614e-06
-0.000682817
-0.000507675
-0.00329085
-0.00475594
-0.00349337
0.000504129
-0.0021839
4.7887e-05
-0.0177295
0.000567596
-8.71939e-05
-3.90603e-05
-0.0036332
-0.00294387
-0.0023839
-0.00266407
-0.00113755
0.033511
1.56983e-05
-0.00399184
0.000291116
0.0176153
0.00369977
0.00566996
-9.65593e-05
0.0623159
0.00413286
0.1091
0.141977
0.108996
-0.000598785
-3.12851e-05
-0.0389829
-0.00383482
4.37254e-05
-0.00663164
0.16971
0.00243731
3.55575e-05
0.00224954
-0.0010359
0.000186468
-0.00287134
-0.00542315
0.00136629
-0.000613039
-0.000108588
-0.00379229
0.0353312
-0.00072896
-0.00127208
0.0564596
-6.84904e-05
0.000377795
-0.00335073
0.000970027
-0.000464589
-8.07826e-05
6.68392e-05
0.0748988
0.000599035
-0.00443298
0.000394048
0.00320367
0.00249814
0.000644043
0.000830628
0.00123181
0.0012526
0.00212382
0.0012582
0.000414674
-0.00031145
0.00173532
-0.00436639
0.00185
0.0013188
-0.0116253
0.000511605
0.00129131
-7.71496e-05
-0.000419325
-1.12315e-05
0.00726603
0.000685457
-0.00266596
0.000127862
0.0635596
0.0339537
0.00234147
9.48984e-05
-4.50516e-05
0.000110246
-0.000512098
0.00297294
0.000797925
0.00492273
-0.000329884
-0.00665916
0.00553315
-2.70628e-05
-0.00124725
0.00146765
0.00361768
0.00819614
-1.44947e-05
-0.000106914
-0.00204311
-2.86913e-05
-7.4171e-05
0.00322132
5.33163e-05
7.58723e-05
-0.00303711
0.000597291
-0.00120333
-0.000332003
0.00018004
0.00259363
-0.00388273
-0.000310228
0.000436999
0.000126629
-0.000261864
0.00295681
1.83168e-05
-0.000610452
2.59642e-05
0.00127912
-2.20285e-05
0.248677
0.000312835
-0.00839858
0.00280107
0.00105238
-0.0141505
0.00124494
0.000710099
-0.00423184
0.0172565
8.98021e-05
0.000537188
0.0151722
-8.15228e-06
0.000852108
-0.00413677
0.00119699
3.72397e-06
0.00741213
-6.8146e-06
0.00351228
0.0204846
1.82576e-06
0.00408129
-0.000216591
0.000199818
0.000230645
0.000435923
-0.00785532
-9.40972e-05
0.00050287
-0.00169381
-0.000846039
-0.00615575
4.56712e-05
-0.000830037
-0.000841197
4.57207e-05
-0.000156039
-0.00012646
-0.00265371
-6.65727e-05
-0.000341385
-0.0046668
0.00012364
0.000640587
-0.000523922
5.315e-05
-6.20912e-05
-0.0008608
-0.00042258
-3.73561e-05
-0.00199584
0.0118622
0.0065788
7.96834e-05
-0.00180621
0.00548367
-0.00450422
0.0632145
-9.61917e-05
0.0203036
0.0431323
-0.00274896
-0.00311155
-0.00510878
0.000193752
0.00103009
-0.00679848
-0.00590902
-0.00611664
-3.01802e-05
2.75605e-05
-2.86188e-05
8.53856e-05
-0.000500977
0.00137974
-0.000347925
0.00606919
-0.00034831
0.000147346
-2.73514e-05
3.0828e-05
0.00155269
-0.000240389
-0.0039668
0.00126795
0.00157333
0.00398074
0.000393958
-2.86658e-05
-0.00327385
0.0186074
0.0274628
-0.000988506
1.01241e-05
-9.01655e-06
-0.00427242
0.00190316
0.0226463
-0.000890492
0.00186218
0.0459417
-5.05482e-05
4.54836e-05
0.205243
0.00117314
0.000210665
0.0108578
-0.0137529
-0.000319387
-0.00253804
0.000284856
-4.03578e-05
0.000716222
-0.00068699
0.000131678
0.00254676
0.000495692
-0.00260824
0.00071142
0.00306533
0.000992377
-0.000769439
-0.000112997
-0.000667941
0.000557575
0.0047846
0.000382215
-0.000503
0.000850201
3.85892e-05
-0.000544468
-0.0043409
-5.78893e-05
-1.56651e-05
3.36408e-05
1.57135e-05
0.000108532
-1.43732e-05
-0.000152456
0.000119288
-2.63778e-05
-4.04614e-05
0.00641286
-0.00616272
0.00245395
-3.60285e-05
-0.00108188
1.68274e-05
0.000720231
0.0233039
0.00393575
0.000562301
-0.00105371
-0.00111716
0.00876098
-0.00532091
-0.00447972
-5.34656e-05
-0.000443122
3.83596e-05
-0.00278244
0.00019764
0.00822945
8.37459e-05
0.000681983
0.00273438
0.00385827
0.00343566
0.00777839
0.000110263
0.00531751
-0.00252144
-0.00192978
0.00316373
0.000283115
-0.000334883
-0.00543732
0.000153032
-0.00681809
-2.25624e-05
0.000230986
0.334253
0.00268488
-0.00367862
0.00464327
0.000205896
0.000913555
-7.54683e-05
0.00335318
0.00106896
-0.00187984
-0.00555426
-6.99364e-05
-0.00148736
3.05962e-05
-0.00022337
0.004608
-0.00627998
-0.00284856
0.00460929
1.66714e-05
4.52774e-05
-3.07881e-05
0.000143264
0.00971293
0.00410934
-0.00297004
0.00300686
0.000118185
9.50279e-05
0.000144941
0.00012743
2.55992e-05
6.70705e-05
-0.000393994
0.000463079
-0.000342444
3.95669e-05
9.51826e-05
7.61592e-05
3.99975e-05
-0.00338673
0.00141838
0.000450469
0.00213918
-0.00502692
-0.00260541
-0.0046667
0.000953603
0.00239171
0.00171844
0.00297592
-4.08854e-06
-0.00044832
0.000107691
0.000200152
6.72693e-06
-0.000810901
9.54669e-06
0.000153214
0.00722817
0.00108255
0.00141857
0.00181648
0.00934047
0.00652115
0.0183598
-0.00622132
-0.000104178
5.73697e-05
-0.00304824
0.0063752
0.000190968
0.00326815
-0.000142426
0.000609389
0.00159212
0.00560183
-0.0094213
0.00546059
-0.00220752
0.00537789
0.00221223
0.000822289
0.00193541
0.000181358
0.000215106
3.64803e-05
0.000206393
1.84732e-05
0.00139005
-0.00409413
-0.00503116
0.000323159
0.000872336
0.000564808
-0.00119679
-0.00401008
-0.000877708
-7.67984e-05
-0.000506625
-0.00270327
0.00787637
0.00164002
0.0036943
0.00774546
0.00112123
0.00124238
-2.37597e-05
-0.00695118
-0.0573546
-0.00231248
-0.0549351
-0.017416
-7.41789e-06
-0.00740498
-0.000240512
-1.93269e-05
-0.00039283
-0.000554874
-2.44552e-05
-0.000141155
0.000232886
0.00114963
-0.000482555
0.000540151
0.00211461
-7.40072e-05
-9.64015e-05
-0.000299572
4.06065e-05
0.00507306
-0.00330587
0.00038277
-0.00337488
0.00053868
-9.79637e-06
0.000939886
0.000473298
0.000140137
-1.08507e-06
-0.000137656
-0.000273813
0.00337476
0.00337739
-6.39505e-06
0.000100199
0.00268787
0.00205844
-0.000336052
-7.9123e-05
0.00215163
1.59092e-05
0.00124952
0.00250937
-0.00165462
0.00516323
1.62877e-05
0.000195678
8.2411e-06
0.00022258
2.08101e-05
-6.44034e-05
-4.58597e-05
-7.84695e-05
0.00175927
0.00564661
0.00092223
-0.000197843
-0.00243523
0.00295047
-0.0023495
-7.33521e-05
-0.000746408
-0.00156187
-0.000824487
0.00607032
0.00128405
0.000107601
6.34684e-05
-3.07417e-05
0.00444155
-1.13991e-05
-5.33018e-05
-0.000652911
2.5853e-05
-0.000804818
-0.00278881
0.00185138
0.000137535
3.63075e-05
-0.000375123
0.000117194
0.000122689
0.00194272
-0.00161159
0.000302734
-0.00211885
-3.31374e-05
-0.00213837
-0.00628902
-0.000292131
-0.000511545
-0.000414975
-0.0003195
0.00027952
0.000133845
0.000378085
-0.00153134
-0.000209766
7.07903e-05
0.00114545
0.00134596
-0.00466689
0.000306096
-8.38014e-05
0.000233593
0.000291969
0.000972125
0.00332247
0.00139029
6.30689e-05
-0.00161166
0.0172218
-0.00363742
0.010243
0.00464107
0.000400166
0.000260464
-1.30166e-05
-0.00237503
-0.00388276
0.00453336
0.00773075
0.000654064
0.000150517
-0.000444004
-0.000476761
0.00343323
0.0016855
0.00306326
0.00126835
-0.00131558
0.000897381
-0.00152207
3.27869e-05
-0.00154527
-0.0019553
7.92257e-05
0.00690727
0.0397601
0.00489836
0.013072
0.00146389
0.00383694
-0.0136373
-0.00707512
-0.00473488
0.00022594
-0.00199682
0.000330786
-0.000225509
-0.00332901
-0.00164257
-0.000255649
4.1349e-05
0.00242454
-0.00306184
-7.54606e-05
0.000838677
0.00194268
0.000980107
-0.00167056
0.000818814
0.00104963
-0.00304311
0.00363064
0.000124109
0.00116672
0.00192601
0.00943283
0.0183944
0.00284058
-7.35984e-05
-0.00239469
-0.00150494
-0.000170967
-0.000189104
-0.000217411
0.00511692
-0.00542471
4.86422e-05
-1.66205e-05
9.49678e-06
-3.69923e-05
-7.53987e-05
-0.000150583
5.76334e-05
-0.00568739
0.00489419
-0.000898478
0.00422859
0.000918623
0.000397882
0.00358006
0.00405894
-0.000100056
-0.000205475
-0.0028887
-4.03153e-06
-0.000624686
0.00341012
0.00220731
0.00225986
0.00434295
0.000571542
-0.000185573
-0.000343308
-3.60098e-05
-0.000336398
-0.000589026
0.0159763
0.00107357
1.78797e-05
-1.09682e-05
-0.000409306
-0.00330974
-0.00328882
-0.000513512
4.08048e-05
0.000530541
0.00177527
-1.62252e-05
0.00498162
-2.80738e-05
3.06307e-05
-4.60512e-05
-0.000129018
-2.0324e-05
-0.00324357
-0.00430841
0.00105152
0.000519309
-6.18593e-05
-0.00599266
-0.000180892
-7.95271e-05
0.00490967
0.000221947
-0.000904121
-0.00469451
-0.000681656
0.0787058
0.0314782
0.034526
-0.0295327
0.0120793
-0.00216677
-0.00128591
0.00081101
-0.0124429
-0.0131175
0.0044218
0.000257849
-0.000520579
-6.72492e-05
-1.71095e-05
-0.0011428
0.00470362
-0.00366064
-6.05942e-05
-0.00101048
-0.0122647
-0.00373968
0.000639334
-5.22304e-05
0.000470914
0.00388319
1.43337e-06
0.00223494
2.39876e-06
-0.00175367
-0.00146456
0.00402739
-0.00501185
-0.00111246
0.0032989
-0.00187983
-0.0275465
0.00357869
2.20999e-05
-0.00355509
-0.00371873
-0.000386369
-0.000882152
0.00756872
0.00129439
-6.36251e-05
0.000647601
-5.81961e-05
0.00251474
-0.00105856
-0.0011444
0.000260947
-8.66342e-05
-0.00376445
3.09682e-05
0.00174689
-0.00461214
-1.80001e-05
0.00185961
7.34618e-05
0.00244525
0.00495363
-0.000199831
-0.000298571
0.000216262
7.10655e-05
0.00283853
0.00237466
-0.0150054
0.00176958
0.011985
0.0115844
0.0108226
-0.00304176
-0.00239483
-0.00235916
-0.00541631
-0.00558324
0.00223984
0.00741407
0.00210035
0.00148568
0.00150786
-0.00251354
0.000183377
0.00847207
0.0313171
0.012088
8.90002e-06
0.00238243
0.00110407
0.00373078
0.00286354
-0.0040125
0.000120914
3.16087e-05
-1.3575e-05
9.50608e-06
2.9056e-05
0.000725775
0.000683471
1.42614e-05
0.000197872
0.00017521
-1.78665e-05
0.000106259
6.62768e-05
-0.000786395
-0.000691367
-0.000313778
-0.000164825
-0.000453547
0.000123318
0.000266004
-0.00126715
-0.000823199
-0.00036075
9.64105e-05
-0.00413137
0.0247739
-0.0106192
-0.00048096
0.0494582
0.0202873
0.0359289
0.0432488
-0.00711584
-0.0350141
-1.97355e-05
0.000534622
0.000424554
0.000306021
-0.00901619
0.00528017
-0.00372776
-0.00201267
-0.00343983
-0.000797699
-0.000923569
-0.000831334
0.00688398
0.00314145
0.00392016
-0.00401757
0.00746037
-0.000136011
0.000130365
2.71291e-05
0.00109092
5.24855e-05
-2.02641e-05
-0.00195063
-0.00336553
-0.00334093
0.0022689
-0.00238503
-0.00158417
-2.47966e-05
6.77276e-05
7.74225e-05
-3.4431e-05
-3.86022e-05
0.00451999
-0.0047136
0.00139064
-0.000175453
0.0169474
-0.0110808
0.00813799
-1.26314e-05
0.037085
0.028205
-0.00089993
0.000964474
-2.8431e-05
-0.00052619
-0.00056732
-5.31963e-05
-0.000397117
0.0018472
-0.00356439
0.00334588
-0.0051429
0.00422815
0.00415369
0.00160997
-0.0100932
-0.00440531
0.000148763
-0.000598591
0.00600696
-0.0128237
-0.00829525
-0.00175467
0.00165702
0.00149525
0.000662336
-0.000210194
0.00015789
0.00204518
-0.00139064
0.00197281
0.00375528
-1.2839e-06
-0.0003519
-4.65959e-05
0.000350663
-0.000626061
-9.63686e-06
0.0174595
0.0235466
0.0283321
0.0176305
0.0230267
-7.67119e-06
0.0175686
-0.0157522
0.0683402
-0.020943
0.0926648
-0.00448913
-0.0161707
0.0110124
0.00260349
-0.0139099
-0.0149245
0.00735478
-0.000242096
-0.00169521
0.00154459
0.00680683
0.00264266
-0.00662536
-0.000647561
0.000183612
-0.00025797
-0.00563069
0.0308614