# vtk DataFile Version 2.0
Unstructured Grid by M++
ASCII
DATASET UNSTRUCTURED_GRID
POINTS 4072 float
  0.875000   1.000000 0
  0.875000   0.984375 0
  0.875000   0.968750 0
  0.875000   0.953125 0
  0.875000   0.937500 0
  0.875000   0.921875 0
  0.875000   0.906250 0
  0.875000   0.890625 0
  0.875000   0.875000 0
  0.875000   0.859375 0
  0.875000   0.843750 0
  0.875000   0.828125 0
  0.875000   0.812500 0
  0.875000   0.796875 0
  0.875000   0.781250 0
  0.875000   0.765625 0
  0.859375   1.000000 0
  0.859375   0.984375 0
  0.859375   0.968750 0
  0.859375   0.953125 0
  0.859375   0.937500 0
  0.859375   0.921875 0
  0.859375   0.890625 0
  0.859375   0.875000 0
  0.859375   0.859375 0
  0.859375   0.843750 0
  0.859375   0.828125 0
  0.859375   0.812500 0
  0.859375   0.796875 0
  0.859375   0.781250 0
  0.859375   0.765625 0
  0.859375   0.671875 0
  0.859375   0.656250 0
  0.859375   0.640625 0
  0.843750   1.000000 0
  0.843750   0.984375 0
  0.843750   0.968750 0
  0.843750   0.953125 0
  0.843750   0.937500 0
  0.843750   0.921875 0
  0.843750   0.906250 0
  0.843750   0.875000 0
  0.843750   0.859375 0
  0.843750   0.843750 0
  0.843750   0.828125 0
  0.843750   0.812500 0
  0.843750   0.796875 0
  0.843750   0.781250 0
  0.843750   0.765625 0
  0.843750   0.671875 0
  0.843750   0.656250 0
  0.843750   0.640625 0
  0.828125   1.000000 0
  0.828125   0.984375 0
  0.828125   0.968750 0
  0.828125   0.953125 0
  0.828125   0.937500 0
  0.828125   0.921875 0
  0.875000   0.671875 0
  0.812500   0.921875 0
  0.890625   0.656250 0
  0.828125   0.906250 0
  0.875000   0.656250 0
  0.812500   0.906250 0
  0.890625   0.640625 0
  0.828125   0.890625 0
  0.875000   0.640625 0
  0.812500   0.890625 0
  0.890625   0.625000 0
  0.828125   0.875000 0
  0.890625   0.609375 0
  0.828125   0.859375 0
  0.890625   0.593750 0
  0.828125   0.843750 0
  0.890625   0.578125 0
  0.828125   0.828125 0
  0.890625   0.562500 0
  0.828125   0.812500 0
  0.828125   0.796875 0
  0.828125   0.781250 0
  0.828125   0.765625 0
  0.828125   0.671875 0
  0.828125   0.656250 0
  0.828125   0.640625 0
  0.875000   0.750000 0
  0.812500   1.000000 0
  0.875000   0.625000 0
  0.812500   0.875000 0
  0.875000   0.734375 0
  0.812500   0.984375 0
  0.875000   0.718750 0
  0.812500   0.968750 0
  0.875000   0.703125 0
  0.812500   0.953125 0
  0.875000   0.687500 0
  0.812500   0.937500 0
  0.875000   0.609375 0
  0.812500   0.859375 0
  0.875000   0.593750 0
  0.812500   0.843750 0
  0.875000   0.578125 0
  0.812500   0.828125 0
  0.812500   0.812500 0
  0.875000   0.546875 0
  0.812500   0.796875 0
  0.812500   0.781250 0
  0.812500   0.765625 0
  0.859375   0.750000 0
  0.796875   1.000000 0
  0.859375   0.625000 0
  0.796875   0.875000 0
  0.859375   0.734375 0
  0.796875   0.984375 0
  0.859375   0.718750 0
  0.796875   0.968750 0
  0.859375   0.703125 0
  0.796875   0.953125 0
  0.859375   0.687500 0
  0.796875   0.937500 0
  0.859375   0.609375 0
  0.796875   0.859375 0
  0.859375   0.593750 0
  0.796875   0.843750 0
  0.859375   0.578125 0
  0.796875   0.828125 0
  0.859375   0.562500 0
  0.796875   0.812500 0
  0.796875   0.796875 0
  0.859375   0.531250 0
  0.796875   0.781250 0
  0.796875   0.765625 0
  0.843750   0.750000 0
  0.781250   1.000000 0
  0.843750   0.625000 0
  0.781250   0.875000 0
  0.843750   0.734375 0
  0.781250   0.984375 0
  0.843750   0.718750 0
  0.781250   0.968750 0
  0.843750   0.703125 0
  0.781250   0.953125 0
  0.843750   0.687500 0
  0.781250   0.937500 0
  0.843750   0.609375 0
  0.781250   0.859375 0
  0.843750   0.593750 0
  0.781250   0.843750 0
  0.843750   0.578125 0
  0.781250   0.828125 0
  0.781250   0.812500 0
  0.843750   0.546875 0
  0.781250   0.796875 0
  0.781250   0.781250 0
  0.843750   0.515625 0
  0.781250   0.765625 0
  0.828125   0.750000 0
  0.765625   1.000000 0
  0.828125   0.625000 0
  0.765625   0.875000 0
  0.828125   0.734375 0
  0.765625   0.984375 0
  0.828125   0.718750 0
  0.765625   0.968750 0
  0.828125   0.703125 0
  0.765625   0.953125 0
  0.828125   0.687500 0
  0.765625   0.937500 0
  0.828125   0.609375 0
  0.765625   0.859375 0
  0.828125   0.593750 0
  0.765625   0.843750 0
  0.828125   0.578125 0
  0.765625   0.828125 0
  0.828125   0.562500 0
  0.765625   0.812500 0
  0.765625   0.796875 0
  0.828125   0.531250 0
  0.765625   0.781250 0
  0.765625   0.765625 0
  0.812500   0.750000 0
  0.750000   1.000000 0
  0.953125   1.000000 0
  0.812500   0.734375 0
  0.750000   0.984375 0
  0.812500   0.718750 0
  0.750000   0.968750 0
  0.812500   0.703125 0
  0.750000   0.953125 0
  0.812500   0.687500 0
  0.750000   0.937500 0
  0.812500   0.671875 0
  0.750000   0.921875 0
  0.812500   0.656250 0
  0.750000   0.906250 0
  0.812500   0.640625 0
  0.750000   0.890625 0
  0.812500   0.625000 0
  0.750000   0.875000 0
  0.812500   0.609375 0
  0.750000   0.859375 0
  0.812500   0.593750 0
  0.750000   0.843750 0
  0.812500   0.578125 0
  0.750000   0.828125 0
  0.750000   0.812500 0
  0.812500   0.546875 0
  0.750000   0.796875 0
  0.750000   0.781250 0
  0.812500   0.515625 0
  0.750000   0.765625 0
  0.796875   0.750000 0
  0.734375   1.000000 0
  0.796875   0.734375 0
  0.734375   0.984375 0
  0.796875   0.718750 0
  0.734375   0.968750 0
  0.796875   0.703125 0
  0.734375   0.953125 0
  0.796875   0.687500 0
  0.734375   0.937500 0
  0.796875   0.671875 0
  0.734375   0.921875 0
  0.796875   0.656250 0
  0.734375   0.906250 0
  0.796875   0.640625 0
  0.734375   0.890625 0
  0.796875   0.625000 0
  0.734375   0.875000 0
  0.796875   0.609375 0
  0.734375   0.859375 0
  0.796875   0.593750 0
  0.734375   0.843750 0
  0.796875   0.578125 0
  0.734375   0.828125 0
  0.734375   0.812500 0
  0.734375   0.796875 0
  0.796875   0.531250 0
  0.734375   0.781250 0
  0.734375   0.765625 0
  0.781250   0.750000 0
  0.718750   1.000000 0
  0.921875   1.000000 0
  0.781250   0.734375 0
  0.718750   0.984375 0
  0.781250   0.718750 0
  0.718750   0.968750 0
  0.781250   0.703125 0
  0.718750   0.953125 0
  0.859375   0.906250 0
  0.781250   0.687500 0
  0.718750   0.937500 0
  0.781250   0.671875 0
  0.718750   0.921875 0
  0.781250   0.656250 0
  0.718750   0.906250 0
  0.781250   0.640625 0
  0.718750   0.890625 0
  0.781250   0.625000 0
  0.718750   0.875000 0
  0.781250   0.609375 0
  0.718750   0.859375 0
  0.781250   0.593750 0
  0.718750   0.843750 0
  0.781250   0.578125 0
  0.718750   0.828125 0
  0.781250   0.562500 0
  0.718750   0.812500 0
  0.781250   0.546875 0
  0.718750   0.796875 0
  0.781250   0.531250 0
  0.718750   0.781250 0
  0.781250   0.515625 0
  0.718750   0.765625 0
  0.765625   0.750000 0
  0.703125   1.000000 0
  0.765625   0.734375 0
  0.703125   0.984375 0
  0.765625   0.718750 0
  0.703125   0.968750 0
  0.765625   0.703125 0
  0.703125   0.953125 0
  0.765625   0.687500 0
  0.703125   0.937500 0
  0.843750   0.890625 0
  0.703125   0.921875 0
  0.765625   0.656250 0
  0.703125   0.906250 0
  0.765625   0.640625 0
  0.703125   0.890625 0
  0.765625   0.625000 0
  0.703125   0.875000 0
  0.765625   0.609375 0
  0.703125   0.859375 0
  0.765625   0.593750 0
  0.703125   0.843750 0
  0.765625   0.578125 0
  0.703125   0.828125 0
  0.765625   0.562500 0
  0.703125   0.812500 0
  0.765625   0.546875 0
  0.703125   0.796875 0
  0.765625   0.531250 0
  0.703125   0.781250 0
  0.765625   0.515625 0
  0.703125   0.765625 0
  0.750000   0.750000 0
  0.687500   1.000000 0
  0.890625   1.000000 0
  0.750000   0.734375 0
  0.687500   0.984375 0
  0.750000   0.718750 0
  0.687500   0.968750 0
  0.578125   0.796875 0
  0.578125   0.781250 0
  0.578125   0.765625 0
  0.546875   0.953125 0
  0.546875   0.968750 0
  0.546875   0.718750 0
  0.546875   0.687500 0
  0.250000   0.609375 0
  0.937500   0.031250 0
  0.046875   0.703125 0
  0.734375   0.062500 0
  0.734375   0.078125 0
  0.734375   0.046875 0
  0.046875   0.593750 0
  0.046875   0.562500 0
  0.046875   0.531250 0
  0.718750   0.156250 0
  0.046875   0.609375 0
  0.734375   0.031250 0
  0.062500   0.609375 0
  0.234375   0.703125 0
  0.718750   0.125000 0
  0.046875   0.578125 0
  0.734375   0.000000 0
  0.062500   0.578125 0
  0.000000   0.828125 0
  0.234375   0.671875 0
  0.234375   0.625000 0
  0.718750   0.093750 0
  0.687500   0.156250 0
  0.062500   0.546875 0
  0.000000   0.796875 0
  0.718750   0.046875 0
  0.031250   0.687500 0
  0.687500   0.171875 0
  0.500000   1.000000 0
  0.078125   0.218750 0
  0.234375   0.593750 0
  0.718750   0.062500 0
  0.687500   0.125000 0
  0.000000   0.765625 0
  0.421875   0.500000 0
  0.031250   0.593750 0
  0.718750   0.015625 0
  0.687500   0.234375 0
  0.015625   0.812500 0
  0.703125   0.171875 0
  0.703125   0.187500 0
  0.703125   0.140625 0
  0.015625   0.781250 0
  0.437500   0.515625 0
  0.500000   0.796875 0
  0.078125   0.015625 0
  0.687500   0.203125 0
  0.250000   0.578125 0
  0.703125   0.109375 0
  0.000000   0.515625 0
  0.500000   0.765625 0
  0.062500   0.593750 0
  0.750000   0.015625 0
  0.015625   0.843750 0
  0.687500   0.000000 0
  0.500000   0.828125 0
  0.078125   0.046875 0
  0.015625   0.531250 0
  0.250000   0.546875 0
  0.703125   0.078125 0
  0.703125   0.031250 0
  0.015625   0.671875 0
  0.250000   0.515625 0
  0.000000   0.656250 0
  0.500000   0.906250 0
  0.078125   0.125000 0
  0.687500   0.015625 0
  0.031250   0.546875 0
  0.687500   0.031250 0
  0.500000   0.859375 0
  0.703125   0.000000 0
  0.703125   0.046875 0
  0.703125   0.015625 0
  0.500000   0.937500 0
  0.234375   0.531250 0
  0.031250   0.578125 0
  0.687500   0.062500 0
  0.500000   0.890625 0
  0.031250   0.796875 0
  0.453125   0.531250 0
  0.500000   0.968750 0
  0.078125   0.187500 0
  0.234375   0.562500 0
  0.031250   0.609375 0
  0.718750   0.031250 0
  0.687500   0.093750 0
  0.750000   0.046875 0
  0.000000   0.937500 0
  0.421875   0.671875 0
  0.718750   0.187500 0
  0.031250   0.828125 0
  0.765625   0.062500 0
  0.015625   0.953125 0
[...]
CELL_DATA 7648
SCALARS scalar_value float 1
LOOKUP_TABLE default
0.00700205
0.00628822
-0.00624536
0.00630575
0.00231792
0.00285434
-0.000226682
0.0018502
-0.000676078
0.000901391
0.000426191
-0.00973813
0.00241796
-0.00491332
0.00245995
0.00081448
0.00959926
0.0103296
-0.00316184
3.62165e-06
-0.00336381
0.0014014
0.00126851
7.22568e-06
-0.00514031
-0.00246818
-0.00208468
0.0122992
-0.00341027
-0.00240571
-0.000322992
-0.00220686
0.00111935
-7.43258e-05
-0.000106866
-0.000106427
8.98438e-05
9.84355e-05
2.91001e-05
0.000640126
0.000140345
0.000142153
0.00271889
-0.000153671
4.15289e-05
-0.000153278
0.00260418
0.00324326
-0.00300795
0.00090995
0.000117831
-3.71774e-05
-0.00393557
-0.00555496
0.00126228
-0.00239664
-0.0025229
0.00262057
-0.00119212
1.88872e-05
0.000102157
0.000658192
0.000220778
-0.000611637
0.000973164
0.000370357
0.0116839
-0.00429007
0.00567918
0.000111673
9.31415e-05
0.00018028
3.29792e-05
1.55198e-05
0.002455
-0.00343221
-0.000191337
-0.00229203
-0.00367094
0.000816653
0.000107707
-0.00151766
-0.00113137
-0.000239719
-2.02407e-05
5.07257e-05
-0.00639483
-0.0019193
0.00954892
0.00958863
-7.84821e-05
0.00214565
0.000377843
0.000504762
-0.000192023
0.00016859
0.000972375
-7.51077e-05
-0.000192107
-0.00306094
0.00721701
-0.000242113
-3.15501e-05
0.000428884
-0.00364108
-0.000491113
-0.000165057
-0.000259561
-0.00291949
-0.00470217
0.000316453
0.000132035
-0.000985311
-0.00195398
0.00186161
-0.000919695
-0.00202559
0.00624931
0.00720478
0.00290659
0.00733728
-0.00372448
-0.00169211
-0.000102642
1.39138e-05
0.00024678
0.000184311
-0.00458205
0.00180581
-0.000394967
-0.00531583
-0.000128847
-0.00295955
-0.000316894
-0.000136492
0.00013943
0.000515602
-0.00109432
0.000410298
-0.00112427
0.00210122
-4.88633e-05
-0.000195156
4.06809e-05
-0.00108339
0.000260055
2.52698e-05
0.000126534
3.29424e-05
-0.00144021
-0.000253911
0.000264917
-0.000319682
-0.00477708
0.000704229
-0.037413
0.00522914
0.00226792
0.00442893
-0.00123122
0.00129164
0.00288505
0.00257587
-3.77691e-05
-4.49929e-05
-0.000825403
-0.00439508
-1.99035e-05
-0.00159553
-0.000269336
-0.000324152
0.000472234
1.11965e-05
-3.07134e-05
0.00217216
0.000137426
-0.00522607
-1.70856e-05
-1.80355e-05
-0.00147419
-0.000111025
7.9328e-05
-0.000416856
-0.000184509
0.000702708
-0.000569214
-0.00195594
-0.00182919
2.17044e-05
-0.0008877
-0.00469428
0.000747624
-0.00405593
2.96571e-05
0.000260678
-6.76503e-05
-0.000123707
-0.00347365
0.000622615
-0.00325645
7.05524e-05
-0.000253085
-0.000819436
0.000525434
-0.00084616
-0.000102225
-0.0020112
-0.00228272
0.00410942
-0.000303386
-0.00051013
-0.00468604
-0.000238997
-0.000830371
-0.000621751
-0.00239938
-0.00435852
-0.000120693
0.00167332
-0.00122577
0.000487364
0.000154214
-0.000321529
-0.000147135
-0.000475472
-0.00364212
0.00027373
0.00039425
0.000267555
0.00188709
-0.00433835
0.004886
-0.00127952
-0.000220355
-2.41215e-05
0.000372327
-0.00116284
-0.0016143
0.000138337
0.00171292
-8.44357e-05
0.00173876
0.00132284
-0.0073818
-0.00445744
-4.11491e-05
0.00111164
0.00570273
-0.0002345
-0.0012531
9.4088e-05
-0.00124092
0.00024264
-0.000879616
0.000218385
2.38325e-05
-8.1128e-05
0.00145752
-0.000434917
-5.01117e-05
-0.0111543
0.0061328
-0.000801944
0.000579258
-0.00119328
-0.00305058
-0.00276981
0.0018992
-0.00115486
-0.00267809
0.00299803
1.86363e-05
-0.00208612
-0.0031215
0.00472409
0.00221237
-0.00398358
0.00279454
0.000455633
0.000532023
-0.0018581
0.000942603
-0.0101101
0.00265637
0.00202871
0.00320083
0.00266071
0.00306535
-0.0014561
0.00246181
-0.000225666
0.00427364
0.010587
-0.00143505
0.00184061
-0.00240992
0.00509472
-0.00171866
0.00332917
-0.00151691
-0.000952044
0.00116115
-0.00167893
0.00293539
0.00195263
-0.00486924
0.000173877
0.00136526
-0.001745
-0.0020908
-7.92662e-05
0.00122666
0.00526119
-0.00109235
0.00018847
0.00472004
0.00519604
0.000921951
-0.00416973
0.00116417
0.000125848
2.67669e-05
0.000998828
5.67827e-05
4.73046e-05
-0.00365222
0.000241238
0.000104836
0.000280437
0.000110109
-0.000309491
0.00172559
0.000168357
-0.000267957
0.00124836
0.000405787
0.000155467
0.000142889
-0.00041935
6.85557e-05
-0.000318129
-0.00771473
-0.000179295
0.000712525
-0.000536169
0.0013827
-0.000352111
-0.00220823
-0.0001026
-5.70913e-05
-0.00229124
-0.00320416
0.00227425
0.00158227
-0.00276218
0.000256286
-0.000144017
0.000113364
-0.00191022
-0.00108311
0.00230072
-0.000537525
0.00319316
1.26981e-05
-0.00257292
-0.000137385
-0.000321664
0.00155933
-0.00324339
-0.000454104
-0.00489102
-2.99538e-05
-0.000131746
-0.00293944
-0.000301452
-0.0043912
2.54295e-05
-0.00335358
0.00189645
0.00237089
0.000213984
-0.000158445
0.00169165
0.00528226
0.00457768
0.00187244
0.000175205
0.000717324
0.00213461
0.00151049
0.00035443
-0.000355828
0.000988527
-0.000453288
-0.000870432
0.00140346
0.00276112
-0.00345408
-1.31777e-05
0.000869108
0.00205148
-0.00348678
0.000101419
5.76229e-05
0.000254776
1.99467e-05
5.10031e-05
-0.0032297
0.00137883
0.000198403
0.0962053
-0.00185006
-0.000102023
0.00140023
-0.0029239
0.00127877
-0.00555198
-0.0001207
0.000891819
0.00150661
-0.000555873
0.0018253
0.00140158
-0.00252476
-0.0108189
0.000174531
0.000360488
0.0520719
-0.00115891
0.0200761
0.000589537
-0.00336706
-2.56346e-05
-0.00109096
0.00289058
-0.00200416
1.25249e-05
0.00032813
-0.000246274
-0.000258884
-0.000657019
-0.000367822
-0.00315703
-0.000488241
8.33086e-07
-7.84225e-05
-0.00398306
-0.000309252
-9.11678e-05
0.00400412
-1.83945e-05
0.00334648
-0.00070024
-0.00210379
0.000359568
-6.95699e-05
0.00106676
-0.00451473
0.0111492
-0.00322603
-0.0047626
-0.000390988
-0.00305538
0.000181125
-0.000531425
0.000149626
-0.00050003
-0.000438208
0.00017363
0.00221351
0.00193287
0.000931286
0.00280799
0.000135489
-0.00603946
-0.00365923
-0.00746621
-2.68085e-05
0.0104759
0.00130834
5.54214e-05
-0.00429428
0.00137384
0.00075552
-0.00335119
-0.00172728
-7.19755e-05
0.000107668
-7.93028e-05
0.00200911
6.58511e-05
0.00044874
-0.000295123
-0.000278012
0.0512133
0.0569406
-0.00029002
2.1065e-05
5.69248e-05
-0.000172317
9.39488e-06
6.01827e-05
9.99913e-05
0.00073117
0.000964842
0.00115131
0.000156597
-2.32998e-05
0.00109368
4.48175e-05
0.000617642
8.10672e-05
-7.70077e-06
0.000144608
-0.00991361
0.00991537
-1.74691e-05
0.000991938
-0.00149864
-0.00139621
0.00631272
-0.00123781
3.23013e-05
0.00124836
-0.000335718
-7.71533e-05
-0.00179744
6.44814e-05
-0.00720052
-0.00623668
0.00493435
0.000510254
0.000141116
-0.00483959
0.00033782
-2.82276e-05
0.000267654
8.32465e-05
0.000972235
-0.0018934
-0.00433605
0.000177345
-0.000655612
-0.000210224
-0.00270641
-0.00205508
0.00192726
0.00272047
0.000514306
-0.000284693
0.00176262
-0.00734049
0.000362868
0.00458864
-0.000329044
0.00120468
0.000164246
-3.03695e-05
0.00477833
8.61799e-06
-0.000943685
0.00590617
-0.000425636
-0.00193217
0.00720789
-5.45912e-05
0.00121664
-0.000471327
-0.00102115
-5.3884e-05
5.19031e-05
-0.000542724
-0.00179199
0.00279861
0.00166077
0.000299391
-0.00307058
2.14129e-05
-0.00362751
0.000260724
-0.00222357
-0.00165072
0.00487595
6.47725e-05
0.000123492
-0.00361751
0.00355845
-0.000544955
-0.000865176
-0.000284566
0.000530317
0.000373705
-0.00322487
0.030452
-0.000111636
2.83553e-06
-0.00641634
0.0190008
-0.00166864
-0.00814127
0.00279838
-7.30798e-05
-0.000289089
0.000896004
-0.000945596
-0.000485384
0.0052373
0.00316257
0.00132928
-0.000500308
0.00101996
0.00153975
-0.000219273
-0.00690672
0.00136676
-0.00201423
0.000193831
0.00143957
-0.00062547
0.000480401
0.000477113
-0.000629184
-0.00584975
0.000731223
0.000190155
0.000735121
0.00221529
-0.000343312
0.00178462
0.00146144
-0.000128143
0.000432436
0.00159584
-0.00035615
-0.000578613
0.00017666
-0.000992476
0.00577613
-0.000300701
-0.000510709
1.43288e-05
-0.0018732
8.75497e-05
0.00284868
-0.000619614
4.13327e-05
0.000315807
-0.00160811
0.010525
-4.08606e-06
-0.00144266
0.0168581
0.00170655
0.00250891
-0.00158772
0.000200917
0.00792021
-0.00418769
0.000519764
-0.00051624
0.000386673
0.000873717
0.0450929
0.0218412
-0.00278047
-0.00340726
0.0244221
0.0298812
0.000471813
-0.00212336
0.00227352
0.00811302
1.64007e-05
-0.00269548
-0.00164531
0.000397948
0.000742405
0.00358864
-0.000839373
2.47396e-05
0.021539
-0.00211551
0.000503819
0.0037204
-2.55509e-05
0.000917679
6.09989e-05
0.0105677
8.62994e-05
6.15354e-05
-0.00449375
0.000235835
0.0396569
0.000648931
0.00387046
0.000238921
0.000595358
-0.000232084
-0.000539573
6.41175e-05
-0.00200985
-7.56409e-05
0.00573742
0.00219795
-0.0045287
0.00123719
0.00128282
-0.000101011
-0.000196936
0.0357053
0.00170825
0.0178199
-0.00135472
0.00881918
-0.00017999
0.000909393
-0.000389237
-0.00359431
0.0242746
1.32005e-05
0.0270038
0.0453753
0.000476981
0.0360126
0.00620877
0.00473935
0.000807904
-0.00303357
0.0241039
0.000234281
-0.000139129
-7.35309e-05
-0.000266631
0.000158498
4.15126e-05
0.00030264
-0.00544585
-0.000336158
-9.84587e-06
6.96621e-05
0.00155988
0.00052612
0.00168877
0.00282555
0.00215781
5.04788e-05
-0.00403563
0.00315333
-1.36846e-05
-0.00316637
-0.00011628
0.0274358
0.000260835
6.52326e-06
0.00876565
-3.75762e-05
-2.95073e-05
0.00242732
-0.00123438
-0.000667134
-0.00184244
2.31256e-05
-0.00018047
-0.00296846
-0.00048976
0.000272796
-0.00761568
6.20613e-05
-0.000317639
4.68351e-05
0.000234124
0.000443799
-0.00418697
0.0670057
-0.000108059
-0.00128042
0.000211793
-0.000227281
0.000327833
-0.00342778
0.000611006
-5.20755e-05
2.7122e-05
2.30525e-05
0.00090325
-0.000543086
-0.000775473
0.00315582
0.00156488
0.0328942
0.00384155
2.51665e-05
-0.00102133
-0.000896037
0.00304685
-0.00216412
-0.00211412
-0.00271752
-0.000765017
-0.000427083
-0.00252323
-0.000223901
-0.00299241
0.00367014
-0.0126074
-0.00264795
-1.42841e-05
-0.000552827
-0.000622066
0.035053
-0.00493361
0.000804174
0.000205834
0.00798982
0.00152113
-8.58634e-05
-0.00111917
0.0220499
0.000387633
0.0470221
0.0693302
0.0359742
-0.00129432
0.00165985
-0.0151563
-0.00498833
7.55221e-05
-0.00308399
0.0592917
-0.00219821
-0.000269805
0.00150864
-0.000313508
0.000207866
-0.00142797
0.0005106
0.000836578
-0.00203715
-1.24365e-05
-0.0135514
0.0362609
-0.000718352
-0.000175599
0.0199296
-0.00102785
0.00053325
0.00360183
0.000220201
-0.000699878
-2.80071e-05
8.68867e-05
0.00925875
0.000359002
-0.00484153
7.99979e-05
0.00624302
0.00155773
0.000617819
0.000480122
0.000446474
0.00183729
0.0021102
6.73001e-05
0.000627829
0.00314619
0.00159181
-0.00116497
0.000170035
-0.000194781
-0.00368493
0.00128307
0.00127325
-8.05853e-05
0.000674878
7.46012e-05
-0.00124456
0.00178182
-0.00289026
0.000765344
0.0113022
0.0112069
0.0043728
-0.00119758
-5.2179e-05
0.000371602
-0.00486019
0.00445505
-0.00324094
0.00218163
-0.00149292
-0.00721177
0.00528183
8.45735e-05
0.000242947
0.00285356
0.000126201
0.0023964
4.04624e-05
-3.82237e-05
-0.000220723
-4.55861e-06
5.7942e-05
0.00156882
-4.04465e-05
0.000171445
-0.00275103
-0.00103844
-0.000467018
0.000749943
-0.00100231
-0.00148543
-0.00097304
-0.000287545
0.00124454
0.000956041
0.0012074
-0.00203848
2.19236e-06
-0.00136009
-3.20615e-05
-0.00084888
-4.28819e-05
0.0668646
0.000788475
-0.00033345
-0.000605513
-0.00115468
0.0027194
-0.000883027
-0.00132156
0.00392272
0.00218058
0.00212711
0.000226045
0.00241685
4.37468e-06
-0.00452534
-0.00440847
-0.00204023
2.83793e-06
0.00232229
-6.66981e-06
-0.00583559
0.0194353
1.33711e-05
0.00430377
0.000145854
-3.91908e-05
-0.00496912
0.000252311
-0.00141463
-1.52395e-05
0.00202451
-0.00187971
-6.75207e-05
-0.00652743
0.000114103
0.00544073
-0.00083464
0.000137873
-3.91347e-05
1.3594e-06
-0.00307888
5.5689e-05
-0.000349832
-0.00293521
-0.000259364
0.000254383
0.000727248
0.000150503
6.56681e-05
-0.0011801
7.10943e-05
5.02996e-05
-0.00111798
0.00386492
0.0087504
0.000109388
0.00169481
-0.00152012
-0.00948768
0.0188916
-4.18169e-05
0.00733225
0.0114505
-0.000348471
-0.00263581
-0.0017018
-1.07697e-05
-0.000459908
-0.0101308
0.000257894
-0.00412902
-0.000357247
4.96319e-05
6.27782e-05
0.000899428
-0.000403923
-0.00599636
-0.000396442
0.00645888
-2.17016e-05
0.000207224
-2.66071e-05
6.25636e-05
0.0042933
-0.00259965
-0.00114544
0.000912543
0.0023179
0.00513504
0.000824969
-0.000297912
0.000420233
0.00449284
0.0219428
-5.61126e-05
-4.34441e-06
4.76665e-05
-0.0019444
0.00643655
0.0207121
0.00225156
-0.00253792
-0.00214749
-0.000229321
-0.000238524
0.0984175
0.000394791
-0.000336123
0.00402688
-0.00200687
0.000194581
-0.00457322
7.23163e-05
-0.000104041
0.00131827
-0.000251713
-3.72818e-05
-5.82294e-05
0.000776952
-0.00207128
-0.000509836
0.00478845
0.00339259
-0.000317256
0.00054905
-0.000463217
-0.00241731
0.00228952
5.58795e-05
-0.000121973
0.000813282
0.000229311
-0.000439827
-0.00423724
-9.19063e-05
8.22905e-06
9.18801e-05
0.000170816
6.70657e-05
0.000275185
-0.000146552
-8.38468e-05
-1.34429e-05
-2.6407e-05
0.0113278
-0.00525886
0.0016709
-3.40037e-05
-0.000967359
-3.66401e-05
-5.65105e-05
0.0147712
-0.00155796
0.00292745
-3.22336e-05
-0.00521872
0.00556358
-0.0054618
0.000465248
-1.97669e-05
-0.000184083
2.20095e-05
-0.00679144
7.45754e-05
0.00509109
0.000183984
-8.90828e-05
0.00835373
0.0023843
0.00104906
0.00398964
0.000346973
0.00430087
-0.000745642
-0.00411931
0.0020249
0.000771626
-0.000248474
-0.00049705
-5.49756e-05
-0.00669742
0.00017632
0.000875504
0.166622
0.00256481
0.00099931
0.00675774
0.000310966
-0.00250112
7.69941e-05
-0.00291292
-0.00193848
-0.000414251
0.0161312
-0.000140428
-0.000392372
-8.51793e-05
-0.000254316
0.00516975
-0.00243817
-0.00284489
0.0063311
-2.1666e-05
0.000285566
0.000155243
0.000417913
0.0028476
0.00398313
-0.000307749
0.00222079
0.00024095
0.000124749
7.93851e-05
-7.1096e-05
8.04096e-05
0.000166904
-0.000281516
-0.000134402
-0.000234882
7.12178e-05
0.000232915
0.000141838
6.52225e-05
0.000721072
0.00169802
0.000565565
0.00114284
-0.0044267
0.00183596
0.00106137
0.00318634
-0.00125896
0.000113218
0.00219174
4.5289e-05
-0.000913823
0.000489826
0.000169425
-3.87119e-05
0.00132826
-6.69995e-05
0.000148159
0.00567543
0.00199087
0.00168218
0.00104926
0.00332865
-0.00344255
0.0155957
0.000527534
0.000995472
0.00267606
0.00220837
0.00221889
0.00118034
-5.16276e-05
0.0018911
0.000821397
0.00370894
0.00348786
-0.00396735
0.00372556
-0.00331801
0.00268746
0.000171323
0.000616286
0.00156293
0.000223947
0.000128644
-0.000133015
-0.00114418
2.39373e-05
0.00381488
-0.001624
-0.00319623
-6.78016e-06
0.00189994
-0.000832127
-0.00139882
-0.00183468
-0.000540648
7.16275e-05
-0.00371311
-0.00160153
0.000125376
0.00331273
0.00369617
0.00627284
-0.00138473
-0.00175986
-6.58357e-06
-0.00553401
-0.0502451
0.00773602
-0.00656452
0.0364138
-3.28156e-05
-0.0037822
-0.000585452
0.000203689
-0.000220313
-6.59339e-06
-0.000109789
-0.000200303
0.000183657
-0.000446242
0.000147392
-0.000401108
-0.000169113
-0.000165468
-0.000425956
0.000144303
7.82678e-05
0.00695304
-0.00246018
0.000960805
-0.0024206
0.000765607
-8.63389e-05
0.000676632
-0.000973489
7.49921e-06
0.000115428
-0.000222837
-0.000509109
0.00141823
-0.00880061
-9.55381e-06
0.00157569
-0.0025536
0.00125923
-0.00079481
1.19278e-05
-0.000896799
3.66342e-05
0.00289277
0.00558416
0.00223516
0.00213391
1.5635e-05
0.000206779
0.000100741
0.000171709
7.26898e-05
-7.53497e-05
9.4371e-05
-9.07697e-06
0.000782545
0.00687565
0.000690574
0.00100323
-0.00602024
0.00535184
0.00302287
1.2834e-05
0.000751922
-0.00411947
0.00190407
0.00407501
0.00236899
6.09707e-05
3.13491e-05
-9.24358e-05
-0.00209155
-2.04826e-05
-9.84739e-05
0.0019727
0.000179189
0.00022955
-0.00196134
-0.000809255
0.00119124
0.00106108
-0.000500717
-0.000517775
5.67781e-05
0.00258042
-0.00281736
0.000642482
-0.00200599
-4.07063e-05
0.0016801
-0.00473664
-0.000352516
-0.000621629
-0.000635867
-0.000305087
0.000353194
7.67523e-06
0.000260307
0.00208598
-0.000489386
0.000673193
0.000359209
0.000188106
-0.00364862
0.000289574
-0.00017991
0.000174482
0.000158288
0.000687284
0.00541385
0.00361621
8.66202e-05
-0.00448607
0.013817
0.00924913
0.0161286
0.00220991
0.00214903
-0.000984892
-2.97043e-05
-0.000102768
0.000387613
-0.00411333
0.00637874
6.33799e-05
-0.000343302
-0.000219021
2.64717e-05
0.00160661
-0.000549622
-9.67569e-05
-0.00119124
0.00017181
0.000823681
-0.00261258
-0.00115088
-0.00201952
5.64746e-05
3.43569e-05
0.0053751
0.0127998
-0.000194884
0.00422088
6.05868e-05
0.00278074
-0.00693674
-0.00551506
-0.000830909
8.23039e-05
-0.000318471
-0.000334343
-0.000187457
-0.00316742
0.0011814
0.00153448
0.000270921
0.00227993
-0.00455811
-5.92903e-05
0.000308537
0.00242729
0.00326013
0.00249475
0.00215173
0.00310933
-0.0023376
-0.000988794
3.78976e-05
0.00135243
0.00104624
0.00113113
0.00429683
0.00523835
-0.00349595
-0.00401204
-0.00706997
-0.000337019
-0.000353364
-0.000198038
-0.00384577
-0.00307077
1.66532e-05
-7.03317e-05
-4.85555e-05
-8.65895e-05
6.18095e-05
-3.34893e-05
6.21932e-05
-0.00348015
0.00295171
0.000671474
0.00199394
0.000233728
0.000928677
0.00290994
0.00300812
-0.000131425
3.38594e-05
-0.004101
2.3655e-05
-0.000673445
-0.000725799
0.000983698
0.00119634
0.00205892
2.82716e-05
0.000211123
1.18194e-05
-2.15234e-05
-0.00345128
0.000243727
0.00364182
0.00019726
1.07056e-05
-3.98359e-05
7.59783e-05
-0.00667486
-0.00154321
5.92388e-05
0.000295267
0.000251911
0.00214539
4.01006e-05
0.00472127
-1.87411e-05
5.43853e-05
-0.00024477
-0.000422504
0.00193442
-0.00329264
-0.00527853
-0.000468162
0.000570295
-4.25451e-05
-0.00509676
-0.000135547
-4.16517e-05
0.00388501
0.000356441
-0.00318092
-0.00371446
-0.00279551
0.0306233
0.00855015
0.0135388
-0.00660622
0.00472586
-0.00154239
-0.00146701
0.000282879
-0.000250313
-0.00515614
-0.00177704
-0.000396079
-0.000225746
-7.44456e-05
0.00015088
-0.00227972
-0.00195208
-6.22039e-05
4.07212e-05
-0.000263598
-0.000971568
0.00207626
-0.000496044
-5.09597e-06
0.000300193
0.00363514
-3.93415e-05
-0.00270848
0.000166118
-0.00169704
0.00103086
0.0049741
-0.00605185
-0.00400253
0.00337024
-0.00850129
-0.0122481
0.0202864
0.00300537
-0.0045157
-0.000487956
-0.00110003
-0.00109974
0.0019697
-0.000466663
0.000875407
0.000241674
-0.00245008
-0.00112516
-0.00272087
-0.00240945
-1.21271e-05
-0.000280458
-0.00253674
3.98188e-05
0.00358529
-0.00675486
7.41542e-05
0.00111924
-0.000195114
0.00412973
0.00241293
-0.000543952
-0.000608974
0.00434764
9.94313e-05
0.000862839
-0.000319504
-0.041304
-0.000540832
0.00742216
0.00450363
0.00838263
-0.000543107
-0.00243621
0.000187031
-0.00425966
-0.00193807
0.00306279
0.00647229
-0.000826899
-0.00262508
0.00276655
-0.000636266
0.00136
0.0202052
0.028368
0.0259215
-5.6532e-05
-0.000973794
-0.00114195
0.00737606
0.00430208
0.00539528
8.3723e-05
6.714e-05
-4.06239e-05
1.57743e-05
7.72305e-05
0.000285547
0.000470134
-5.99602e-06
8.82532e-05
3.03479e-05
-3.35354e-05
3.20343e-05
6.12884e-05
-0.000438557
-0.000804498
-0.000113822
0.000166798
0.000132681
0.000405234
0.00051177
-0.00108024
-0.00120469
-0.000925754
-0.00012818
-0.00710265
0.0303261
-0.00966447
0.000464682
0.0332499
0.0186517
0.0215618
0.0272379
0.000557723
-0.00362728
0.000108297
0.000709314
3.84398e-05
-0.000498714
-0.0131948
0.00909961
-0.00172895
-0.000904136
-0.00109457
-0.000438128
-0.000847624
-0.000607914
0.0251274
0.00238712
-0.000916993
-0.00378551
-0.00247987
0.00231279
6.98306e-05
2.05406e-05
-0.00137816
3.85348e-05
-9.85681e-05
-0.0026959
-0.00397747
-0.0036069
0.000749142
0.000668374
0.00475376
-6.90811e-05
6.38056e-05
9.03455e-05
-0.000195111
-0.000132505
0.0036188
-0.0055701
-0.000280249
-2.83331e-05
0.0136485
-0.0030731
0.00233423
-1.94974e-05
0.0191436
0.0114915
-0.00538828
0.00707406
0.0015036
0.000163362
0.000129555
-5.84004e-05
0.00257053
-0.0024741
-0.00424128
0.00257498
-0.00293313
0.00412789
-0.00763731
-0.000627642
-0.00781519
-0.00137133
0.000477323
8.19652e-05
0.000476693
-0.0104989
-0.00434938
-0.00311767
0.000826203
0.00273194
-0.000768096
0.00128285
0.000119954
0.00106873
-0.00418168
0.00130242
0.00596923
-0.00065027
-0.00215099
0.000204111
0.000191106
-0.00015104
-3.63483e-05
0.0114944
0.0226189
0.0201538
0.00490448
0.0165265
-7.09457e-07
0.00791639
-0.00192337
0.0526537
-0.019534
0.0460558
-0.0274105
0.000381834
-0.0294261
0.00123538
-0.00299999
-0.00522321
-0.000488106
0.00274571
0.00474373
0.00308649