# vtk DataFile Version 2.0
Unstructured Grid by M++
ASCII
DATASET UNSTRUCTURED_GRID
POINTS 4072 float
  0.875000   1.000000 0
  0.875000   0.984375 0
  0.875000   0.968750 0
  0.875000   0.953125 0
  0.875000   0.937500 0
  0.875000   0.921875 0
  0.875000   0.906250 0
  0.875000   0.890625 0
  0.875000   0.875000 0
  0.875000   0.859375 0
  0.875000   0.843750 0
  0.875000   0.828125 0
  0.875000   0.812500 0
  0.875000   0.796875 0
  0.875000   0.781250 0
  0.875000   0.765625 0
  0.859375   1.000000 0
  0.859375   0.984375 0
  0.859375   0.968750 0
  0.859375   0.953125 0
  0.859375   0.937500 0
  0.859375   0.921875 0
  0.859375   0.890625 0
  0.859375   0.875000 0
  0.859375   0.859375 0
  0.859375   0.843750 0
  0.859375   0.828125 0
  0.859375   0.812500 0
  0.859375   0.796875 0
  0.859375   0.781250 0
  0.859375   0.765625 0
  0.859375   0.671875 0
  0.859375   0.656250 0
  0.859375   0.640625 0
  0.843750   1.000000 0
  0.843750   0.984375 0
  0.843750   0.968750 0
  0.843750   0.953125 0
  0.843750   0.937500 0
  0.843750   0.921875 0
  0.843750   0.906250 0
  0.843750   0.875000 0
  0.843750   0.859375 0
  0.843750   0.843750 0
  0.843750   0.828125 0
  0.843750   0.812500 0
  0.843750   0.796875 0
  0.843750   0.781250 0
  0.843750   0.765625 0
  0.843750   0.671875 0
  0.843750   0.656250 0
  0.843750   0.640625 0
  0.828125   1.000000 0
  0.828125   0.984375 0
  0.828125   0.968750 0
  0.828125   0.953125 0
  0.828125   0.937500 0
  0.828125   0.921875 0
  0.875000   0.671875 0
  0.812500   0.921875 0
  0.890625   0.656250 0
  0.828125   0.906250 0
  0.875000   0.656250 0
  0.812500   0.906250 0
  0.890625   0.640625 0
  0.828125   0.890625 0
  0.875000   0.640625 0
  0.812500   0.890625 0
  0.890625   0.625000 0
  0.828125   0.875000 0
  0.890625   0.609375 0
  0.828125   0.859375 0
  0.890625   0.593750 0
  0.828125   0.843750 0
  0.890625   0.578125 0
  0.828125   0.828125 0
  0.890625   0.562500 0
  0.828125   0.812500 0
  0.828125   0.796875 0
  0.828125   0.781250 0
  0.828125   0.765625 0
  0.828125   0.671875 0
  0.828125   0.656250 0
  0.828125   0.640625 0
  0.875000   0.750000 0
  0.812500   1.000000 0
  0.875000   0.625000 0
  0.812500   0.875000 0
  0.875000   0.734375 0
  0.812500   0.984375 0
  0.875000   0.718750 0
  0.812500   0.968750 0
  0.875000   0.703125 0
  0.812500   0.953125 0
  0.875000   0.687500 0
  0.812500   0.937500 0
  0.875000   0.609375 0
  0.812500   0.859375 0
  0.875000   0.593750 0
  0.812500   0.843750 0
  0.875000   0.578125 0
  0.812500   0.828125 0
  0.812500   0.812500 0
  0.875000   0.546875 0
  0.812500   0.796875 0
  0.812500   0.781250 0
  0.812500   0.765625 0
  0.859375   0.750000 0
  0.796875   1.000000 0
  0.859375   0.625000 0
  0.796875   0.875000 0
  0.859375   0.734375 0
  0.796875   0.984375 0
  0.859375   0.718750 0
  0.796875   0.968750 0
  0.859375   0.703125 0
  0.796875   0.953125 0
  0.859375   0.687500 0
  0.796875   0.937500 0
  0.859375   0.609375 0
  0.796875   0.859375 0
  0.859375   0.593750 0
  0.796875   0.843750 0
  0.859375   0.578125 0
  0.796875   0.828125 0
  0.859375   0.562500 0
  0.796875   0.812500 0
  0.796875   0.796875 0
  0.859375   0.531250 0
  0.796875   0.781250 0
  0.796875   0.765625 0
  0.843750   0.750000 0
  0.781250   1.000000 0
  0.843750   0.625000 0
  0.781250   0.875000 0
  0.843750   0.734375 0
  0.781250   0.984375 0
  0.843750   0.718750 0
  0.781250   0.968750 0
  0.843750   0.703125 0
  0.781250   0.953125 0
  0.843750   0.687500 0
  0.781250   0.937500 0
  0.843750   0.609375 0
  0.781250   0.859375 0
  0.843750   0.593750 0
  0.781250   0.843750 0
  0.843750   0.578125 0
  0.781250   0.828125 0
  0.781250   0.812500 0
  0.843750   0.546875 0
  0.781250   0.796875 0
  0.781250   0.781250 0
  0.843750   0.515625 0
  0.781250   0.765625 0
  0.828125   0.750000 0
  0.765625   1.000000 0
  0.828125   0.625000 0
  0.765625   0.875000 0
  0.828125   0.734375 0
  0.765625   0.984375 0
  0.828125   0.718750 0
  0.765625   0.968750 0
  0.828125   0.703125 0
  0.765625   0.953125 0
  0.828125   0.687500 0
  0.765625   0.937500 0
  0.828125   0.609375 0
  0.765625   0.859375 0
  0.828125   0.593750 0
  0.765625   0.843750 0
  0.828125   0.578125 0
  0.765625   0.828125 0
  0.828125   0.562500 0
  0.765625   0.812500 0
  0.765625   0.796875 0
  0.828125   0.531250 0
  0.765625   0.781250 0
  0.765625   0.765625 0
  0.812500   0.750000 0
  0.750000   1.000000 0
  0.953125   1.000000 0
  0.812500   0.734375 0
  0.750000   0.984375 0
  0.812500   0.718750 0
  0.750000   0.968750 0
  0.812500   0.703125 0
  0.750000   0.953125 0
  0.812500   0.687500 0
  0.750000   0.937500 0
  0.812500   0.671875 0
  0.750000   0.921875 0
  0.812500   0.656250 0
  0.750000   0.906250 0
  0.812500   0.640625 0
  0.750000   0.890625 0
  0.812500   0.625000 0
  0.750000   0.875000 0
  0.812500   0.609375 0
  0.750000   0.859375 0
  0.812500   0.593750 0
  0.750000   0.843750 0
  0.812500   0.578125 0
  0.750000   0.828125 0
  0.750000   0.812500 0
  0.812500   0.546875 0
  0.750000   0.796875 0
  0.750000   0.781250 0
  0.812500   0.515625 0
  0.750000   0.765625 0
  0.796875   0.750000 0
  0.734375   1.000000 0
  0.796875   0.734375 0
  0.734375   0.984375 0
  0.796875   0.718750 0
  0.734375   0.968750 0
  0.796875   0.703125 0
  0.734375   0.953125 0
  0.796875   0.687500 0
  0.734375   0.937500 0
  0.796875   0.671875 0
  0.734375   0.921875 0
  0.796875   0.656250 0
  0.734375   0.906250 0
  0.796875   0.640625 0
  0.734375   0.890625 0
  0.796875   0.625000 0
  0.734375   0.875000 0
  0.796875   0.609375 0
  0.734375   0.859375 0
  0.796875   0.593750 0
  0.734375   0.843750 0
  0.796875   0.578125 0
  0.734375   0.828125 0
  0.734375   0.812500 0
  0.734375   0.796875 0
  0.796875   0.531250 0
  0.734375   0.781250 0
  0.734375   0.765625 0
  0.781250   0.750000 0
  0.718750   1.000000 0
  0.921875   1.000000 0
  0.781250   0.734375 0
  0.718750   0.984375 0
  0.781250   0.718750 0
  0.718750   0.968750 0
  0.781250   0.703125 0
  0.718750   0.953125 0
  0.859375   0.906250 0
  0.781250   0.687500 0
  0.718750   0.937500 0
  0.781250   0.671875 0
  0.718750   0.921875 0
  0.781250   0.656250 0
  0.718750   0.906250 0
  0.781250   0.640625 0
  0.718750   0.890625 0
  0.781250   0.625000 0
  0.718750   0.875000 0
  0.781250   0.609375 0
  0.718750   0.859375 0
  0.781250   0.593750 0
  0.718750   0.843750 0
  0.781250   0.578125 0
  0.718750   0.828125 0
  0.781250   0.562500 0
  0.718750   0.812500 0
  0.781250   0.546875 0
  0.718750   0.796875 0
  0.781250   0.531250 0
  0.718750   0.781250 0
  0.781250   0.515625 0
  0.718750   0.765625 0
  0.765625   0.750000 0
  0.703125   1.000000 0
  0.765625   0.734375 0
  0.703125   0.984375 0
  0.765625   0.718750 0
  0.703125   0.968750 0
  0.765625   0.703125 0
  0.703125   0.953125 0
  0.765625   0.687500 0
  0.703125   0.937500 0
  0.843750   0.890625 0
  0.703125   0.921875 0
  0.765625   0.656250 0
  0.703125   0.906250 0
  0.765625   0.640625 0
  0.703125   0.890625 0
  0.765625   0.625000 0
  0.703125   0.875000 0
  0.765625   0.609375 0
  0.703125   0.859375 0
  0.765625   0.593750 0
  0.703125   0.843750 0
  0.765625   0.578125 0
  0.703125   0.828125 0
  0.765625   0.562500 0
  0.703125   0.812500 0
  0.765625   0.546875 0
  0.703125   0.796875 0
  0.765625   0.531250 0
  0.703125   0.781250 0
  0.765625   0.515625 0
  0.703125   0.765625 0
  0.750000   0.750000 0
  0.687500   1.000000 0
  0.890625   1.000000 0
  0.750000   0.734375 0
  0.687500   0.984375 0
  0.750000   0.718750 0
  0.687500   0.968750 0
  0.578125   0.796875 0
  0.578125   0.781250 0
  0.578125   0.765625 0
  0.546875   0.953125 0
  0.546875   0.968750 0
  0.546875   0.718750 0
  0.546875   0.687500 0
  0.250000   0.609375 0
  0.937500   0.031250 0
  0.046875   0.703125 0
  0.734375   0.062500 0
  0.734375   0.078125 0
  0.734375   0.046875 0
  0.046875   0.593750 0
  0.046875   0.562500 0
  0.046875   0.531250 0
  0.718750   0.156250 0
  0.046875   0.609375 0
  0.734375   0.031250 0
  0.062500   0.609375 0
  0.234375   0.703125 0
  0.718750   0.125000 0
  0.046875   0.578125 0
  0.734375   0.000000 0
  0.062500   0.578125 0
  0.000000   0.828125 0
  0.234375   0.671875 0
  0.234375   0.625000 0
  0.718750   0.093750 0
  0.687500   0.156250 0
  0.062500   0.546875 0
  0.000000   0.796875 0
  0.718750   0.046875 0
  0.031250   0.687500 0
  0.687500   0.171875 0
  0.500000   1.000000 0
  0.078125   0.218750 0
  0.234375   0.593750 0
  0.718750   0.062500 0
  0.687500   0.125000 0
  0.000000   0.765625 0
  0.421875   0.500000 0
  0.031250   0.593750 0
  0.718750   0.015625 0
  0.687500   0.234375 0
  0.015625   0.812500 0
  0.703125   0.171875 0
  0.703125   0.187500 0
  0.703125   0.140625 0
  0.015625   0.781250 0
  0.437500   0.515625 0
  0.500000   0.796875 0
  0.078125   0.015625 0
  0.687500   0.203125 0
  0.250000   0.578125 0
  0.703125   0.109375 0
  0.000000   0.515625 0
  0.500000   0.765625 0
  0.062500   0.593750 0
  0.750000   0.015625 0
  0.015625   0.843750 0
  0.687500   0.000000 0
  0.500000   0.828125 0
  0.078125   0.046875 0
  0.015625   0.531250 0
  0.250000   0.546875 0
  0.703125   0.078125 0
  0.703125   0.031250 0
  0.015625   0.671875 0
  0.250000   0.515625 0
  0.000000   0.656250 0
  0.500000   0.906250 0
  0.078125   0.125000 0
  0.687500   0.015625 0
  0.031250   0.546875 0
  0.687500   0.031250 0
  0.500000   0.859375 0
  0.703125   0.000000 0
  0.703125   0.046875 0
  0.703125   0.015625 0
  0.500000   0.937500 0
  0.234375   0.531250 0
  0.031250   0.578125 0
  0.687500   0.062500 0
  0.500000   0.890625 0
  0.031250   0.796875 0
  0.453125   0.531250 0
  0.500000   0.968750 0
  0.078125   0.187500 0
  0.234375   0.562500 0
  0.031250   0.609375 0
  0.718750   0.031250 0
  0.687500   0.093750 0
  0.750000   0.046875 0
  0.000000   0.937500 0
  0.421875   0.671875 0
  0.718750   0.187500 0
  0.031250   0.828125 0
  0.765625   0.062500 0
  0.015625   0.953125 0
[...]
CELL_DATA 7648
SCALARS scalar_value float 1
LOOKUP_TABLE default
-0.00363417
-0.00199598
-0.00036943
-0.00406792
0.000868175
0.000518571
0.000487244
0.000348616
-0.000230465
3.72883e-05
-0.000226108
-0.000699665
0.00140483
-0.00473131
0.00537864
-0.000176943
-0.00201906
-0.00013985
0.00294609
3.72746e-05
0.00160077
0.000206996
0.000692982
-3.02901e-05
0.00262293
-0.00193914
0.000412342
0.00100636
-0.00253983
0.00191752
-0.00124304
0.00415976
-0.000989589
-0.000122078
-9.36577e-05
1.44916e-05
-4.10883e-05
-3.31804e-05
-0.000143594
-2.20901e-05
7.32108e-05
-0.000153745
2.88639e-05
-3.20667e-05
0.000224988
4.80783e-05
0.000555328
0.000580004
-0.00391881
0.00252545
6.44167e-05
-6.03089e-05
-0.00161805
-0.00281159
-0.00024979
-0.0010114
-0.00122822
-0.000350261
0.00138448
0.000131106
-0.000248807
0.000604985
0.000123029
-0.000179168
-0.000539367
0.000745751
9.42166e-05
-0.00241102
-0.000811756
0.00012639
0.000173823
3.45002e-05
9.82885e-05
0.000168871
0.00119911
-0.00325511
0.000430363
0.00058266
0.000397606
0.000260803
6.91286e-05
0.000978748
-0.000501273
0.0005239
5.53749e-05
1.57439e-05
0.00586171
0.00637286
-1.64775e-05
3.54702e-05
-0.00591301
0.000388432
0.00031983
-0.000100724
-1.62694e-05
0.00031341
-0.000380541
6.65955e-05
0.00205413
-0.00531516
-0.00381578
-3.10899e-05
0.000242691
0.000137654
-0.000234474
-0.00919075
3.34894e-05
-0.000317544
0.00351431
0.00186243
-0.000167481
0.000284885
0.000373669
-0.00132972
-0.000546254
-0.00356717
-0.00128642
-0.00245572
-0.00295399
0.0043128
-0.000906283
0.00129362
0.00107528
4.55435e-05
0.000241151
-4.98064e-05
1.32913e-05
-0.00396513
0.00614688
0.0052255
0.00300284
4.62919e-05
-0.00545967
0.000534874
4.471e-06
-5.56785e-05
0.000836412
0.000882525
-0.00231726
0.0010759
0.0010138
0.000125553
0.000150107
4.11519e-05
0.00179999
0.000156468
0.000294953
-8.50995e-05
0.000485551
0.00119287
0.000116023
-6.8251e-06
0.000233864
0.00808872
1.1345e-05
0.0129734
0.00111207
-0.00129339
-0.000778036
-0.000407976
-0.000470718
0.000563436
0.000452657
-0.000295904
0.000409821
-8.2897e-05
-0.00115854
0.0013953
0.00178063
-0.00124358
0.000119692
-0.000190405
-1.89521e-05
5.57786e-05
-0.00129905
0.00140825
-0.00291988
9.51664e-05
5.55139e-05
0.00017475
5.66712e-05
4.84268e-05
-0.00075075
-0.000607947
-2.17302e-05
-0.00121193
-0.00294563
-0.000778702
3.34895e-05
0.000210678
0.00118424
0.000546838
-0.00328333
0.000119599
-8.42404e-05
2.00012e-05
-3.84617e-05
0.00123488
-0.000447048
-0.000387355
0.000126459
-0.00334639
0.000313313
0.000239778
-0.000333778
0.000107987
9.5506e-05
-0.000201192
0.00105798
-8.43215e-05
-0.000139179
-0.000783708
2.91678e-06
0.000202297
0.00016766
-0.00129977
-0.000257041
-0.000237812
-0.000601542
-0.000158785
-0.00110339
0.00024118
0.0012516
-0.000128172
0.000189963
-0.00276089
-0.00137064
-1.35308e-05
-0.000116429
0.00369843
0.00482109
-0.00269165
0.000199473
0.000153745
2.51618e-05
5.92387e-05
0.000358573
0.000229107
5.89064e-06
-0.000398147
9.96572e-05
0.0113189
-0.00100449
-0.0013675
0.000702817
0.000225741
-0.00559847
-0.00373913
-0.00500193
0.000207641
-7.51752e-05
-0.000143061
0.000293982
-0.00033011
-1.44464e-05
0.000271466
-8.20754e-06
0.000667296
-0.000258784
0.000924984
-0.00162132
-0.00232528
-0.00178519
-0.00255483
-0.00107106
7.33866e-05
-0.00442097
0.00575287
0.00102457
-0.00347887
-0.00137561
-0.0001194
0.000351783
8.8211e-05
-0.00160334
0.000844894
-0.00318205
-0.00210168
-0.000465766
0.000131314
-0.000961181
7.69684e-05
-0.00188964
-0.0022269
0.000510869
-0.00393697
0.00425729
0.000212057
0.0030337
-0.000880425
0.00377302
0.00404302
0.00365392
-0.000331193
0.000990658
0.000729999
-0.00222442
0.00360503
0.00498496
0.0044139
-3.98075e-05
0.000691742
-0.000323017
-0.00242534
0.00197086
0.00296819
0.000230676
0.00123889
0.000785131
0.000957004
8.69583e-05
-0.00305846
-0.0050443
-0.00267411
-0.000436226
0.00095017
0.000716513
-0.000728255
0.000689849
-0.000661752
-1.56684e-05
1.76593e-05
8.70521e-05
9.31754e-05
-0.000124407
-0.00420182
-1.77144e-05
-1.75559e-05
-2.0315e-05
3.7533e-05
-0.000399298
0.00131216
-0.000112745
-0.000313022
0.000712137
-0.000223165
3.73584e-05
0.000152682
0.000146506
7.09333e-05
-0.00032049
-0.00157705
-9.15976e-05
0.000139596
-0.000249717
0.00063121
0.00164455
0.00117087
9.63676e-05
6.82871e-05
0.000619204
-0.000140868
-0.00038378
0.000195786
-0.0011101
7.72029e-05
0.000250063
5.96284e-05
-0.000155535
-0.000704364
0.000788665
4.74516e-06
-0.00156421
6.14649e-06
0.00245713
-0.00118886
0.00106073
0.000484971
-0.00441165
-3.28471e-05
0.00211943
0.000243964
9.61865e-05
-3.89437e-06
-0.00142648
0.000853481
4.94086e-05
-0.000569004
0.00507361
-0.00168688
-0.00115481
-0.00258217
0.000498767
0.000436956
0.000318707
0.000151413
0.000131841
0.000122991
0.000224502
-0.00158983
-6.79168e-05
0.000213348
-0.000631337
-0.000905339
0.00083754
0.00042121
0.00633082
-0.000587462
0.000187722
-0.000798362
-0.00158941
0.00060067
9.39608e-05
9.81159e-06
0.000134963
1.30862e-06
0.000215902
-0.000848607
-0.000390713
-5.88908e-05
0.00391164
-0.000316082
0.000178332
0.000255296
-0.000810885
0.00941754
-0.00266146
0.000264464
0.000227519
-0.00142851
-0.000634605
-0.000164033
0.00359095
0.00201188
0.00182364
-0.00111356
-2.44688e-05
0.0174762
0.00110182
-0.000205915
0.00658912
0.00178705
9.0021e-05
-0.00281177
-0.00483884
-0.00233396
0.000147435
-2.95952e-05
0.000131602
0.000275648
-0.000832612
0.000125353
0.00185753
0.00086781
-4.68748e-07
0.000154536
0.00484226
0.000393367
3.50247e-05
0.00101813
9.82932e-05
0.00214194
-0.000199554
-0.00165417
7.92405e-05
3.81063e-05
0.00105987
0.00343719
0.0198088
-0.000536587
0.00191531
0.000277292
-0.00279817
0.000176353
-0.000417181
-6.34078e-07
0.000362876
-0.000655778
9.76627e-06
0.00108788
-0.00228103
0.0013695
-0.0011011
-0.000143333
0.00613174
-0.00267138
-0.00376395
4.85965e-05
-0.000267642
0.000804941
5.74299e-05
0.00155758
7.14885e-05
0.00040623
0.000144349
-0.00403712
0.000113235
7.98408e-05
0.000179874
-0.00159777
2.75961e-06
-0.000209384
0.000323335
-0.000863021
0.0194005
0.0134473
0.000448018
6.20284e-05
-0.000286365
0.000273162
-3.03105e-05
9.45982e-06
2.25481e-05
0.00132945
5.61014e-05
0.00130559
7.4845e-05
-5.83801e-05
0.00332524
1.76844e-05
-0.000862446
3.29269e-05
7.56368e-05
0.00319231
-0.000612101
-0.00211167
8.98112e-05
0.000292804
-0.000638045
0.000667563
-0.0022321
-0.00522199
-2.6689e-05
0.000505356
-0.000319485
6.45876e-05
0.00233251
-4.19628e-05
0.00158905
-0.0054065
7.21158e-05
-0.000100174
9.64458e-05
-0.00108998
0.00113461
8.91585e-05
9.81925e-05
-7.91387e-05
0.00465728
-0.000876757
-0.00206801
2.18091e-05
0.000201647
0.0003032
-0.000185104
0.00251965
3.25716e-05
0.00119572
0.0046175
8.7412e-05
0.000177693
0.00199557
0.000671463
0.00143651
0.00171392
6.68177e-05
4.5627e-06
-0.000421528
0.00125955
-0.000807001
2.29407e-05
0.00390053
0.00021376
-0.00230575
0.00341893
0.000178506
-0.00217563
7.2767e-05
-0.00332184
-8.1613e-05
2.76669e-05
-0.000283421
0.00152571
-4.18774e-05
-0.000159708
-0.000828851
0.00146386
-3.31429e-05
-4.24072e-05
-0.000154711
0.00114713
0.000847837
-0.00221121
-0.00082722
0.000192468
6.82103e-06
-0.00325872
-1.78653e-05
0.000776888
0.000376414
-0.000119011
0.000236587
-0.0018753
0.012743
3.66304e-05
3.50933e-05
0.00064414
0.00515317
0.000789079
-0.00244973
-0.000308214
-6.27264e-05
0.00254252
0.00404559
0.00038319
0.000184153
-0.000289276
-0.000653653
0.000264706
0.000718268
-0.00162025
-0.0003005
-0.000288535
0.00112589
-0.00127836
0.00197645
0.000536326
0.000705956
-0.000776884
0.000770555
-0.000185076
-0.00105641
0.00208272
0.000518965
8.89656e-06
9.72266e-06
0.00731973
0.000150588
-0.00028183
0.00120123
-0.00036237
-0.000123543
0.000744443
-0.000363808
0.000292731
1.12467e-05
0.000497252
0.0121993
0.00887244
0.000218221
8.307e-05
-0.000942046
0.000184402
0.00121318
-0.000555785
-0.000126801
-3.90997e-06
-0.000446974
0.00245027
1.00589e-05
-0.00120459
0.00390315
0.00171161
0.00110021
0.00227911
-5.45135e-05
-0.00912302
0.00546044
-3.07517e-05
-0.00163139
9.37589e-05
0.00017125
0.00651119
-0.00345501
0.000752644
-0.00166085
-0.000838235
0.00537131
0.00198827
-0.000380668
0.000305677
-0.000905599
2.71712e-05
-0.00806048
-0.000973984
-0.00158239
0.000262241
-0.00019235
0.000286609
0.000248149
-0.00554277
0.00206751
0.000915188
-0.00491095
0.000228668
-0.000957295
0.000693537
-0.00680588
0.000312933
8.79777e-05
-0.000325976
-1.99134e-05
0.00828928
-0.00101945
0.000774261
-0.00103414
0.00136783
-0.000239603
9.5173e-05
0.000119269
0.00044955
-2.35349e-05
0.00167436
-0.0017766
-0.00240159
-0.000103941
-0.0024844
-5.88226e-06
-8.20914e-05
0.00334389
-0.000209118
-0.00540444
-0.00127389
-0.000231916
-0.000474175
-0.00122669
-0.000352171
-0.00224826
0.0115393
6.40199e-05
-0.00508584
0.00308528
-4.36216e-05
-0.0055378
-0.00228535
0.000915288
-0.00113556
-0.000218428
-0.00337397
-0.000786637
0.000286552
0.000121771
-6.18155e-05
-1.82801e-05
3.65112e-05
-0.000244981
-0.000282682
0.000402423
-7.67775e-05
4.36857e-05
0.000404543
-0.000359476
-0.000611245
-0.000127131
0.00197889
0.000408587
7.38753e-05
0.000329899
9.57927e-05
0.00153848
0.000146776
0.000799934
-1.41324e-05
-5.53458e-05
0.0298153
-1.65012e-05
0.000694212
0.000525262
0.000335665
0.000888594
-0.000100454
-0.000169564
0.000305152
-0.000437949
0.000425184
-1.32882e-05
-0.000244273
0.000210434
0.000498661
1.64405e-05
9.26461e-05
-0.000328315
-0.00172571
0.00671831
3.15265e-05
3.88628e-05
-6.0118e-07
0.00294444
-0.000202752
-0.000923212
-0.000301707
5.9853e-05
6.58407e-05
-0.000308479
8.87032e-05
0.000236832
-0.000500886
-0.00526645
0.000634891
-0.00349312
-0.000887565
-2.49496e-05
-0.000995667
0.000301856
0.00827379
0.00189622
-0.000714416
0.000162004
0.00124445
0.00066919
0.00206009
-0.000149593
-0.000206886
-0.00127942
-0.00122765
0.0015166
-0.000506517
-0.000819244
0.000240086
0.00557452
-0.000786622
0.00115597
-4.15088e-05
-0.00112793
0.00121754
0.00635073
0.000678709
-0.00731074
-0.00250075
0.0033271
0.00436591
-0.00766762
0.000551281
-0.000879566
-0.00356824
0.00518722
8.59137e-05
0.00149634
-0.00487557
-0.00164842
4.40391e-05
0.00389292
0.000617713
-3.3039e-06
-0.00268145
-0.00226024
-0.000952715
0.000676412
2.56149e-05
0.00241542
0.00698129
-0.000235144
0.00303674
-0.000921214
-0.00392173
0.0019369
-0.000852841
-0.00178461
0.00137192
2.78997e-05
-1.62392e-05
0.00220585
0.00259539
0.00221018
-0.000102372
-0.000185208
0.000600919
-0.000473879
7.08323e-05
0.000622858
-9.84048e-05
0.000616742
-0.0017071
3.10412e-05
0.00212822
-7.35462e-05
-0.00323238
0.00136147
0.000865786
-0.00194483
-0.000496916
0.000509803
0.000294568
-0.00060074
1.79001e-05
-0.00527438
0.000290493
0.000401512
0.000587888
0.00365604
0.003525
0.000579179
-0.000349531
-7.34232e-07
0.000260711
-0.00692928
-0.00271564
-0.00168726
0.00105671
-0.00040534
-0.000562001
-0.0051086
5.30783e-06
0.00270327
-0.00106702
0.00186562
0.00112536
2.06005e-05
-5.8384e-06
0.000997092
-5.26174e-05
8.48115e-05
-0.000403198
-8.42869e-05
-5.79232e-05
0.00459367
0.0041569
-0.00038338
0.001218
0.000388478
0.00479988
0.00023119
0.00102653
0.000511074
-0.00181712
0.00152315
-0.000917333
-5.82946e-06
-0.000522911
0.000434961
0.00204087
3.52153e-06
0.00245156
-0.000680994
0.00282997
0.00206694
0.000523576
0.029188
0.00103261
0.000575143
-0.0035482
-0.00116478
-0.00358956
-1.6154e-05
-0.00368249
-2.25856e-05
0.00341357
0.000653533
-0.000625103
-6.22272e-05
-0.000140791
2.14029e-05
-0.000486691
0.0219302
-4.05301e-05
-0.00244785
-6.37793e-05
5.5065e-05
3.69113e-06
0.000153658
-0.00325598
-0.000119279
0.00297479
0.00192765
0.000518409
0.000196276
-0.000260432
-0.00144349
-0.000382513
-0.000138796
-0.000128151
5.35977e-06
-0.00380347
2.02995e-05
0.000951479
-0.00342697
-2.61765e-05
2.10607e-05
-0.000194688
-0.00047359
4.27141e-05
-0.000227775
0.000174707
-0.000111126
0.00061418
-0.00334298
-0.00527328
-0.000315961
-0.00352655
-0.00310022
-0.00261396
0.00337987
-7.4899e-06
0.000549998
0.00114082
0.000101521
0.00177536
-0.00623099
5.8506e-05
-0.00112477
-0.00277654
0.00529549
0.00121768
-0.000210309
-7.6958e-05
0.000110254
0.000603801
-1.43203e-05
0.000808493
1.64164e-05
0.0139441
-9.23257e-06
0.000245529
0.000193609
0.000190952
0.00820792
-0.00412761
-0.00450929
0.00308943
-0.00301045
0.000956629
-0.00011927
0.000252269
-0.000664316
-0.00162812
-0.00158172
0.000383836
-4.60895e-05
-3.66582e-05
-0.000184496
0.00598957
-0.00125068
0.00116751
0.00411363
-0.0019932
-8.93624e-07
1.06614e-05
0.00643678
-0.00101836
7.80554e-05
0.00936643
-0.00976374
-0.000112023
-0.00191829
5.47818e-05
5.75651e-06
0.00107752
0.00044176
0.000661222
-0.000204199
-7.92641e-06
-0.0009143
5.30252e-05
0.000454533
-0.00239552
-0.000497608
-0.000111389
6.75635e-05
-0.00190042
0.00057997
0.000184533
-7.83842e-05
0.000200056
-0.000122796
-6.11686e-05
0.00163575
-3.05696e-05
0.000106004
-0.000298084
-0.000446829
-9.51949e-05
-0.000423565
6.70548e-05
-7.3747e-05
-3.73538e-05
-4.16749e-05
-0.00346008
0.0103517
-0.00575157
-2.83434e-05
4.93624e-05
4.99612e-05
-0.000367066
-0.00299376
0.0011991
-0.000149474
-0.000311891
-0.000491808
0.000158038
0.00110501
-0.000278081
-8.33608e-05
-0.000254438
0.000135554
0.00252205
-1.00925e-05
0.00539625
-0.000480641
-0.00153313
0.0013732
0.00124138
0.000674065
-0.00128145
-0.00063811
-0.000551047
0.00755851
0.00022735
-0.000122123
0.00017611
-0.000413069
-4.97333e-05
4.70089e-05
0.000165293
6.49778e-05
-8.46083e-05
-0.00614343
-0.00397211
-0.00235978
-0.00072283
-0.00152752
0.000412861
3.64276e-05
-0.000975266
-0.000103039
0.000332203
0.0242091
5.88937e-05
0.000704853
0.000254894
0.0006764
-0.000167354
-0.00134856
0.00449168
-0.000706775
6.86481e-05
-0.000626061
-8.27642e-05
-0.000178069
-0.00502634
0.00271421
-0.000269807
-0.000269531
0.000220617
0.000221598
4.74198e-05
6.99538e-05
3.50642e-05
3.9282e-05
-0.000266388
6.81195e-05
-0.000290437
-0.000163705
-0.000255628
-0.000278123
-0.000180519
0.00122995
0.000122129
-0.000221724
0.000216155
-0.000238488
0.00383555
0.00674266
0.00952057
7.05176e-05
-0.000261405
9.7725e-05
2.25331e-05
0.0010266
-0.000523235
9.43129e-06
7.02718e-05
-0.00030073
5.35842e-05
1.22048e-05
-0.00502147
-0.000121818
0.00199808
0.00327354
-0.00428845
-0.00190168
-0.00254856
-0.00724923
0.0121081
-0.00237414
-0.00717866
-0.000348694
0.000879829
-0.0015299
-0.00101512
0.000628181
0.00332611
0.00274216
-0.000730787
-0.00137619
-0.00132975
-0.00109862
0.00191974
0.00100936
0.00251608
-0.000100673
-5.85498e-05
0.000124
5.55871e-06
8.03403e-05
-7.26418e-06
-0.000114591
-0.000234437
1.66582e-05
-0.00324851
3.94444e-05
0.000607309
-0.000498555
-0.000735659
-6.23067e-06
0.00146704
-0.00273909
-0.00282489
0.00274662
-0.00542443
-0.00476628
-0.00514783
-0.00258275
1.22379e-06
2.73475e-05
-0.00184448
0.00580906
0.0135242
0.0231887
0.000140159
0.000993833
0.000157769
0.000151678
5.18373e-05
-0.000186738
3.98826e-05
5.08513e-06
5.89638e-05
-0.000954431
-0.000213295
-0.00100737
-0.000714352
-0.000999334
-0.00120667
-7.51613e-05
-1.7466e-05
-0.00424253
-0.000604741
0.00123595
-0.000599575
-2.1332e-05
0.000205877
-0.000287083
-0.000670801
8.3511e-05
-0.000185405
0.00030768
-6.23876e-05
0.000686211
-0.000266762
6.32148e-05
-0.000731482
-0.0019129
-0.000304819
-0.000113198
-4.27386e-06
-0.00199666
3.94546e-05
0.00129552
0.00110666
-0.000988652
0.000594226
-7.59566e-05
0.000135209
4.42649e-05
0.000174655
-0.000162016
0.000302993
-0.000183178
0.000113219
0.000758868
-0.00543175
0.000258358
-0.000267239
-0.00488769
-0.00187891
0.000444647
1.1241e-06
1.83203e-05
-0.00179221
-0.00496789
-0.00552513
-0.003451
-2.93758e-05
-3.10239e-05
0.000210751
-0.00178566
0.000140907
0.000200221
-0.0002673
-4.40856e-05
-0.000591551
-0.00123194
0.000976757
0.000561468
0.000980008
0.00063485
2.83686e-05
0.000108956
-0.00230536
-0.00134401
0.00385971
-0.0015582
-2.16927e-05
0.00248141
0.00281051
0.000582893
-0.000115694
3.1643e-05
-5.94951e-05
0.0004074
0.000100268
0.000384267
-0.00191647
0.00102459
-0.000197128
0.000288362
0.00181357
0.03866
-7.49976e-05
0.000123655
3.30455e-05
-7.98319e-05
0.00749184
-0.000289219
0.000540285
2.04517e-05
-0.000522675
0.00385877
-0.00218354
0.0040149
0.00148986
-0.00209929
0.000191803
0.000159163
-0.000421571
0.0023871
-0.00182629
-0.00245327
0.000229328
0.000332582
-8.37762e-05
-0.000127767
0.000414914
-0.000875056
0.00127645
-0.000441974
-0.000839425
0.000998303
-0.00131394
-0.000209104
0.00185345
2.06744e-05
-2.07918e-05
-0.00207196
-0.00139285
0.00755189
0.00319134
0.00742659
-0.00622601
-0.000241566
-0.00138446
-0.000402566
0.000205586
-0.000688433
-0.000659836
-0.000196708
0.00151268
0.000430518
0.000425514
-0.000127984
0.000863006
0.00145303
-3.06417e-05
0.00281467
0.00761435
-0.0031171
-0.00685204
0.00994769
-0.00182958
-0.000346221
0.00170695
9.765e-05
0.00799329
0.00784912
0.00346873
-0.00447744
0.000184926
-0.00344632
-0.000385576
-0.000196213
0.000224355
4.98657e-05
8.23001e-05
-0.00094965
-0.00089159
0.000365917
0.000378023
0.000318882
0.000401167
6.90416e-05
3.84821e-05
-1.08184e-05
-0.000490903
0.000482484
-0.000769012
5.14404e-06
-0.00092511
0.00102811
-0.000291157
1.25005e-05
-2.20223e-05
0.000159112
-0.00259575
-0.000698259
-0.000675609
0.000689305
-4.18749e-05
0.000428128
0.000363081
0.000247865
0.000164058
-0.000215239
5.00107e-06
0.00340207
0.000204537
0.00271942
-0.000178161
3.93868e-05
-1.84304e-05
8.20403e-05
-0.000193687
0.000206822
-0.000198967
-1.7251e-06
0.000195189
-0.000492941
-6.10939e-06
0.000378143
-8.50294e-05
8.61938e-05
-0.000237479
-3.00624e-05
0.000299319
-0.00044433
-0.000256041
0.000354742
-4.59116e-05
-4.18865e-05
-0.000319432
2.34984e-05
1.09936e-05
0.00100342
0.00101705
0.000953379
0.00612598
0.000442542
0.00138275
0.00344957
-0.00371681
-0.00726617
0.00883325
0.00247225
0.00094596
0.000205961
-0.00405727
0.00128329
0.00517491
-4.34042e-05
-0.000127711
2.18022e-05
-0.000122994
-0.00244264
-0.00479171
-0.000388877
-6.04043e-06
-0.000435548
0.00512296
0.00435926
0.000186553
-1.72049e-05
0.000241199
0.00163154
0.000147676
0.00158064
-0.000176883
0.000410761
0.000636665
-0.00171704
-0.000398065
0.00354309
-0.00494659
0.0325158
0.0392961
0.0286634
0.000704145
-0.0023836
-0.00395196
-0.00219506
-0.00416437
0.0042829
0.000559751
-0.000809237
0.000846543
0.003548
0.000391555
0.00366905
0.00263149
6.61404e-05
0.00020864
-0.000681896
-2.23642e-05
-0.0035174
0.00111434
-0.000149299
-0.00213319
0.000210968
0.000706227
0.000447395
0.000114027
0.000131497
0.000352962
5.28754e-06
0.000275645
-0.000291984
-0.0377267
-0.0024897
-0.0032973
-0.00529685
-0.00376023
-0.00108074
-0.000320148
0.000882881
-0.00120026
-0.000480779
0.000780148
-0.00555107
0.00609532
0.00319868
0.000544804
-0.000267375
4.46228e-05
0.00799581
0.0310122
0.000832682
0.000154244
-0.00420015
0.00179897
0.00261501
-0.000342558
0.0249632
9.34141e-05
-9.61226e-06
-3.53821e-05
-3.00953e-05
2.29665e-05
-1.02447e-05
-2.85604e-05
-4.10458e-05
-2.65577e-05
-1.10124e-05
-1.61622e-05
7.95627e-05
-1.41686e-06
-9.54061e-05
0.000150383
0.000181097
-0.000182704
0.000572939
-0.000537162
-0.000116748
-0.00155156
-0.00109114
-0.000694566
0.000156732
-0.00486815
-0.0081823
-0.00275092
-0.00222647
-0.00266471
-0.00397064
-0.00141041
-0.00396014
0.00311734
-0.000143547
-8.5188e-05
8.16879e-05
-0.000549404
6.955e-05
0.00229502
-0.00484352
0.00142775
9.22409e-05
0.000591118
0.000225059
0.000361669
0.000268313
0.00850379
-0.00227395
-0.00767163
0.00316443
-0.00279876
0.00385974
0.000106904
-3.40144e-05
0.00153213
2.72522e-05
0.000149699
0.000691054
0.00315435
0.00245419
0.00447654
0.00459134
-0.00409047
-0.000197513
0.000139962
0.000306572
0.000303172
-5.44284e-05
-0.00420309
-0.00378473
0.000142498
-0.000619803
-0.00243145
-0.00176202
0.00223494
-5.72804e-05
-0.00307433
-0.00201218
0.00360252
0.00178554
0.00341787
-0.0002468
-0.00143104
3.57498e-06
-0.000315395
-0.00133084
-0.00762236
-0.00134403
-0.00737988
-0.00128027
-0.000818785
-0.00207515
-0.00119679
-0.000573646
0.000615253
-0.000619818
0.00085893
0.001336
-0.00423058
-0.00133614
-0.00354378
0.00174667
0.000336068
0.000543867
6.11823e-05
0.00538464
-0.00027543
0.00151688
-0.000903539
0.00236778
0.000645807
-1.11846e-05
2.77646e-05