# vtk DataFile Version 2.0
Unstructured Grid by M++
ASCII
DATASET UNSTRUCTURED_GRID
POINTS 4072 float
  0.875000   1.000000 0
  0.875000   0.984375 0
  0.875000   0.968750 0
  0.875000   0.953125 0
  0.875000   0.937500 0
  0.875000   0.921875 0
  0.875000   0.906250 0
  0.875000   0.890625 0
  0.875000   0.875000 0
  0.875000   0.859375 0
  0.875000   0.843750 0
  0.875000   0.828125 0
  0.875000   0.812500 0
  0.875000   0.796875 0
  0.875000   0.781250 0
  0.875000   0.765625 0
  0.859375   1.000000 0
  0.859375   0.984375 0
  0.859375   0.968750 0
  0.859375   0.953125 0
  0.859375   0.937500 0
  0.859375   0.921875 0
  0.859375   0.890625 0
  0.859375   0.875000 0
  0.859375   0.859375 0
  0.859375   0.843750 0
  0.859375   0.828125 0
  0.859375   0.812500 0
  0.859375   0.796875 0
  0.859375   0.781250 0
  0.859375   0.765625 0
  0.859375   0.671875 0
  0.859375   0.656250 0
  0.859375   0.640625 0
  0.843750   1.000000 0
  0.843750   0.984375 0
  0.843750   0.968750 0
  0.843750   0.953125 0
  0.843750   0.937500 0
  0.843750   0.921875 0
  0.843750   0.906250 0
  0.843750   0.875000 0
  0.843750   0.859375 0
  0.843750   0.843750 0
  0.843750   0.828125 0
  0.843750   0.812500 0
  0.843750   0.796875 0
  0.843750   0.781250 0
  0.843750   0.765625 0
  0.843750   0.671875 0
  0.843750   0.656250 0
  0.843750   0.640625 0
  0.828125   1.000000 0
  0.828125   0.984375 0
  0.828125   0.968750 0
  0.828125   0.953125 0
  0.828125   0.937500 0
  0.828125   0.921875 0
  0.875000   0.671875 0
  0.812500   0.921875 0
  0.890625   0.656250 0
  0.828125   0.906250 0
  0.875000   0.656250 0
  0.812500   0.906250 0
  0.890625   0.640625 0
  0.828125   0.890625 0
  0.875000   0.640625 0
  0.812500   0.890625 0
  0.890625   0.625000 0
  0.828125   0.875000 0
  0.890625   0.609375 0
  0.828125   0.859375 0
  0.890625   0.593750 0
  0.828125   0.843750 0
  0.890625   0.578125 0
  0.828125   0.828125 0
  0.890625   0.562500 0
  0.828125   0.812500 0
  0.828125   0.796875 0
  0.828125   0.781250 0
  0.828125   0.765625 0
  0.828125   0.671875 0
  0.828125   0.656250 0
  0.828125   0.640625 0
  0.875000   0.750000 0
  0.812500   1.000000 0
  0.875000   0.625000 0
  0.812500   0.875000 0
  0.875000   0.734375 0
  0.812500   0.984375 0
  0.875000   0.718750 0
  0.812500   0.968750 0
  0.875000   0.703125 0
  0.812500   0.953125 0
  0.875000   0.687500 0
  0.812500   0.937500 0
  0.875000   0.609375 0
  0.812500   0.859375 0
  0.875000   0.593750 0
  0.812500   0.843750 0
  0.875000   0.578125 0
  0.812500   0.828125 0
  0.812500   0.812500 0
  0.875000   0.546875 0
  0.812500   0.796875 0
  0.812500   0.781250 0
  0.812500   0.765625 0
  0.859375   0.750000 0
  0.796875   1.000000 0
  0.859375   0.625000 0
  0.796875   0.875000 0
  0.859375   0.734375 0
  0.796875   0.984375 0
  0.859375   0.718750 0
  0.796875   0.968750 0
  0.859375   0.703125 0
  0.796875   0.953125 0
  0.859375   0.687500 0
  0.796875   0.937500 0
  0.859375   0.609375 0
  0.796875   0.859375 0
  0.859375   0.593750 0
  0.796875   0.843750 0
  0.859375   0.578125 0
  0.796875   0.828125 0
  0.859375   0.562500 0
  0.796875   0.812500 0
  0.796875   0.796875 0
  0.859375   0.531250 0
  0.796875   0.781250 0
  0.796875   0.765625 0
  0.843750   0.750000 0
  0.781250   1.000000 0
  0.843750   0.625000 0
  0.781250   0.875000 0
  0.843750   0.734375 0
  0.781250   0.984375 0
  0.843750   0.718750 0
  0.781250   0.968750 0
  0.843750   0.703125 0
  0.781250   0.953125 0
  0.843750   0.687500 0
  0.781250   0.937500 0
  0.843750   0.609375 0
  0.781250   0.859375 0
  0.843750   0.593750 0
  0.781250   0.843750 0
  0.843750   0.578125 0
  0.781250   0.828125 0
  0.781250   0.812500 0
  0.843750   0.546875 0
  0.781250   0.796875 0
  0.781250   0.781250 0
  0.843750   0.515625 0
  0.781250   0.765625 0
  0.828125   0.750000 0
  0.765625   1.000000 0
  0.828125   0.625000 0
  0.765625   0.875000 0
  0.828125   0.734375 0
  0.765625   0.984375 0
  0.828125   0.718750 0
  0.765625   0.968750 0
  0.828125   0.703125 0
  0.765625   0.953125 0
  0.828125   0.687500 0
  0.765625   0.937500 0
  0.828125   0.609375 0
  0.765625   0.859375 0
  0.828125   0.593750 0
  0.765625   0.843750 0
  0.828125   0.578125 0
  0.765625   0.828125 0
  0.828125   0.562500 0
  0.765625   0.812500 0
  0.765625   0.796875 0
  0.828125   0.531250 0
  0.765625   0.781250 0
  0.765625   0.765625 0
  0.812500   0.750000 0
  0.750000   1.000000 0
  0.953125   1.000000 0
  0.812500   0.734375 0
  0.750000   0.984375 0
  0.812500   0.718750 0
  0.750000   0.968750 0
  0.812500   0.703125 0
  0.750000   0.953125 0
  0.812500   0.687500 0
  0.750000   0.937500 0
  0.812500   0.671875 0
  0.750000   0.921875 0
  0.812500   0.656250 0
  0.750000   0.906250 0
  0.812500   0.640625 0
  0.750000   0.890625 0
  0.812500   0.625000 0
  0.750000   0.875000 0
  0.812500   0.609375 0
  0.750000   0.859375 0
  0.812500   0.593750 0
  0.750000   0.843750 0
  0.812500   0.578125 0
  0.750000   0.828125 0
  0.750000   0.812500 0
  0.812500   0.546875 0
  0.750000   0.796875 0
  0.750000   0.781250 0
  0.812500   0.515625 0
  0.750000   0.765625 0
  0.796875   0.750000 0
  0.734375   1.000000 0
  0.796875   0.734375 0
  0.734375   0.984375 0
  0.796875   0.718750 0
  0.734375   0.968750 0
  0.796875   0.703125 0
  0.734375   0.953125 0
  0.796875   0.687500 0
  0.734375   0.937500 0
  0.796875   0.671875 0
  0.734375   0.921875 0
  0.796875   0.656250 0
  0.734375   0.906250 0
  0.796875   0.640625 0
  0.734375   0.890625 0
  0.796875   0.625000 0
  0.734375   0.875000 0
  0.796875   0.609375 0
  0.734375   0.859375 0
  0.796875   0.593750 0
  0.734375   0.843750 0
  0.796875   0.578125 0
  0.734375   0.828125 0
  0.734375   0.812500 0
  0.734375   0.796875 0
  0.796875   0.531250 0
  0.734375   0.781250 0
  0.734375   0.765625 0
  0.781250   0.750000 0
  0.718750   1.000000 0
  0.921875   1.000000 0
  0.781250   0.734375 0
  0.718750   0.984375 0
  0.781250   0.718750 0
  0.718750   0.968750 0
  0.781250   0.703125 0
  0.718750   0.953125 0
  0.859375   0.906250 0
  0.781250   0.687500 0
  0.718750   0.937500 0
  0.781250   0.671875 0
  0.718750   0.921875 0
  0.781250   0.656250 0
  0.718750   0.906250 0
  0.781250   0.640625 0
  0.718750   0.890625 0
  0.781250   0.625000 0
  0.718750   0.875000 0
  0.781250   0.609375 0
  0.718750   0.859375 0
  0.781250   0.593750 0
  0.718750   0.843750 0
  0.781250   0.578125 0
  0.718750   0.828125 0
  0.781250   0.562500 0
  0.718750   0.812500 0
  0.781250   0.546875 0
  0.718750   0.796875 0
  0.781250   0.531250 0
  0.718750   0.781250 0
  0.781250   0.515625 0
  0.718750   0.765625 0
  0.765625   0.750000 0
  0.703125   1.000000 0
  0.765625   0.734375 0
  0.703125   0.984375 0
  0.765625   0.718750 0
  0.703125   0.968750 0
  0.765625   0.703125 0
  0.703125   0.953125 0
  0.765625   0.687500 0
  0.703125   0.937500 0
  0.843750   0.890625 0
  0.703125   0.921875 0
  0.765625   0.656250 0
  0.703125   0.906250 0
  0.765625   0.640625 0
  0.703125   0.890625 0
  0.765625   0.625000 0
  0.703125   0.875000 0
  0.765625   0.609375 0
  0.703125   0.859375 0
  0.765625   0.593750 0
  0.703125   0.843750 0
  0.765625   0.578125 0
  0.703125   0.828125 0
  0.765625   0.562500 0
  0.703125   0.812500 0
  0.765625   0.546875 0
  0.703125   0.796875 0
  0.765625   0.531250 0
  0.703125   0.781250 0
  0.765625   0.515625 0
  0.703125   0.765625 0
  0.750000   0.750000 0
  0.687500   1.000000 0
  0.890625   1.000000 0
  0.750000   0.734375 0
  0.687500   0.984375 0
  0.750000   0.718750 0
  0.687500   0.968750 0
  0.578125   0.796875 0
  0.578125   0.781250 0
  0.578125   0.765625 0
  0.546875   0.953125 0
  0.546875   0.968750 0
  0.546875   0.718750 0
  0.546875   0.687500 0
  0.250000   0.609375 0
  0.937500   0.031250 0
  0.046875   0.703125 0
  0.734375   0.062500 0
  0.734375   0.078125 0
  0.734375   0.046875 0
  0.046875   0.593750 0
  0.046875   0.562500 0
  0.046875   0.531250 0
  0.718750   0.156250 0
  0.046875   0.609375 0
  0.734375   0.031250 0
  0.062500   0.609375 0
  0.234375   0.703125 0
  0.718750   0.125000 0
  0.046875   0.578125 0
  0.734375   0.000000 0
  0.062500   0.578125 0
  0.000000   0.828125 0
  0.234375   0.671875 0
  0.234375   0.625000 0
  0.718750   0.093750 0
  0.687500   0.156250 0
  0.062500   0.546875 0
  0.000000   0.796875 0
  0.718750   0.046875 0
  0.031250   0.687500 0
  0.687500   0.171875 0
  0.500000   1.000000 0
  0.078125   0.218750 0
  0.234375   0.593750 0
  0.718750   0.062500 0
  0.687500   0.125000 0
  0.000000   0.765625 0
  0.421875   0.500000 0
  0.031250   0.593750 0
  0.718750   0.015625 0
  0.687500   0.234375 0
  0.015625   0.812500 0
  0.703125   0.171875 0
  0.703125   0.187500 0
  0.703125   0.140625 0
  0.015625   0.781250 0
  0.437500   0.515625 0
  0.500000   0.796875 0
  0.078125   0.015625 0
  0.687500   0.203125 0
  0.250000   0.578125 0
  0.703125   0.109375 0
  0.000000   0.515625 0
  0.500000   0.765625 0
  0.062500   0.593750 0
  0.750000   0.015625 0
  0.015625   0.843750 0
  0.687500   0.000000 0
  0.500000   0.828125 0
  0.078125   0.046875 0
  0.015625   0.531250 0
  0.250000   0.546875 0
  0.703125   0.078125 0
  0.703125   0.031250 0
  0.015625   0.671875 0
  0.250000   0.515625 0
  0.000000   0.656250 0
  0.500000   0.906250 0
  0.078125   0.125000 0
  0.687500   0.015625 0
  0.031250   0.546875 0
  0.687500   0.031250 0
  0.500000   0.859375 0
  0.703125   0.000000 0
  0.703125   0.046875 0
  0.703125   0.015625 0
  0.500000   0.937500 0
  0.234375   0.531250 0
  0.031250   0.578125 0
  0.687500   0.062500 0
  0.500000   0.890625 0
  0.031250   0.796875 0
  0.453125   0.531250 0
  0.500000   0.968750 0
  0.078125   0.187500 0
  0.234375   0.562500 0
  0.031250   0.609375 0
  0.718750   0.031250 0
  0.687500   0.093750 0
  0.750000   0.046875 0
  0.000000   0.937500 0
  0.421875   0.671875 0
  0.718750   0.187500 0
  0.031250   0.828125 0
  0.765625   0.062500 0
  0.015625   0.953125 0
[...]
CELL_DATA 7648
SCALARS scalar_value float 1
LOOKUP_TABLE default
-0.000393239
0.000800449
-0.00817515
0.00191913
-0.000391393
-0.000221489
0.000304725
-0.000165907
0.000270348
-5.77514e-05
0.00023881
-0.00488834
-0.000182355
0.0108931
0.000885326
0.00010497
0.00576246
0.00472446
-0.0025602
-6.08907e-05
-0.00277374
0.0017992
0.00201831
-4.96368e-05
-0.000835964
-0.00377979
-0.00252927
0.00749022
-0.00340261
-0.000872775
0.000823363
-0.00384634
0.00175744
-2.23176e-06
2.63497e-06
5.07483e-05
0.000374338
1.00147e-05
0.000105811
-8.29361e-05
0.000167307
-0.000365808
-0.00103485
1.01179e-05
0.000106113
0.000331275
-0.000387886
-0.00031199
-0.00233721
0.0009639
2.12396e-05
-4.55112e-05
0.00136365
-0.000829642
0.000126952
-0.00154936
-0.002738
0.00156416
0.00472982
0.000461974
0.000201111
0.00245889
9.51652e-05
0.00130974
-0.00340454
0.0020308
0.00597566
-0.00171743
0.0024636
0.00020431
0.000152004
-7.42206e-05
7.20065e-05
0.000127013
0.000725143
-0.00320204
-0.00222582
0.000544859
0.000326058
0.000586078
3.04233e-05
0.000226597
0.000267649
0.00136249
-4.65494e-05
6.11111e-05
0.00227364
0.000986437
0.00125648
0.00339187
-0.00337775
0.000688983
0.000133465
-7.6956e-05
-0.000213156
0.000132827
0.00143352
-0.000115969
4.6349e-05
-0.00350419
0.00345978
-4.4132e-05
-0.000190718
-0.000198893
-0.00178395
-0.00308579
0.000169298
0.000826408
0.00241757
-0.00224568
0.000192312
-2.21763e-05
0.00123222
-0.000947495
-0.000176389
-0.00549373
-0.00239519
0.00693985
0.000366399
-0.00328901
0.00643245
-0.00169202
0.00287853
-7.33243e-05
5.21387e-05
1.318e-05
-5.0646e-05
-0.00717954
0.00301291
0.00220429
0.00022934
5.00938e-05
-0.00538569
0.000801491
-0.000192963
-0.000247248
0.00428407
-0.000244913
0.00114105
-0.00496313
0.0050929
0.000188201
-0.000254829
-8.8066e-05
0.00136215
4.10474e-05
9.2801e-05
-0.000241757
0.000177628
0.00090672
-3.83229e-05
-0.000123611
0.000233568
-0.0101798
9.54786e-06
-0.00194618
0.00254596
0.00233459
-0.00196835
-0.00173639
0.00366198
0.000808774
0.00116617
-0.000185445
-0.000435145
0.00110426
0.000684503
0.00591219
0.00403455
-0.00194716
0.000226079
0.001618
4.71033e-05
5.82991e-05
-0.000150899
0.00275684
-0.00681536
-0.00018301
7.39327e-05
0.00161954
-4.12153e-05
3.14195e-05
0.00078716
0.000793025
0.00128435
0.00142683
-0.00101308
-0.0010947
6.49459e-05
-0.000606113
-0.00170605
-0.000433601
0.0011776
0.000230775
-0.000343432
9.9582e-05
-0.00012925
-0.00153979
-0.000258425
-0.000823772
-0.000364616
-0.00331239
0.00165428
0.00147471
0.00256768
-0.000267677
-0.000821632
-0.000712435
0.00489154
0.000122045
0.000134422
0.0015294
-2.28266e-05
-0.000502731
-0.00108068
0.000277496
-0.00051138
-0.000811838
0.000727879
-0.000508585
-0.000928848
3.52577e-05
0.0038719
-0.000255286
0.000340688
-0.00321662
0.000407376
-2.22692e-05
0.000161004
0.00256045
0.00217184
-0.000933155
-0.00162686
0.000176377
-0.000124869
2.57317e-05
-2.19722e-06
-0.000426961
-4.17217e-05
0.00327952
-9.17936e-05
0.00511865
0.00151568
-0.00480903
-0.00474981
6.97895e-05
0.000898554
0.00252713
0.00176132
0.00173599
-0.00144576
0.00159371
0.000208776
0.00181694
-5.22802e-05
4.79021e-05
0.000218232
-8.19143e-05
0.000937814
0.000187792
-0.00216957
-0.00240179
-0.00231516
-0.000651573
-0.000877803
0.000325824
-0.00674486
0.00149353
-0.00367607
-0.00502149
-0.00284173
-6.30834e-05
-0.00158582
-0.00389424
-0.00300679
-0.00126407
-0.00338893
-0.00104342
-0.000634945
0.000577545
-0.000356693
0.00249074
-0.00244042
-0.000714379
0.00239805
-0.00547277
0.00829206
0.000894983
0.0011182
0.00432167
-0.00525159
-0.000919847
-0.00113385
-0.000843326
0.000218471
0.00200979
0.00303773
-0.00242649
0.00503872
2.00395e-05
0.00109985
0.000694155
-0.000803109
0.00014536
-0.000541816
0.00262411
-9.97911e-06
-0.000303362
0.00410026
0.00297064
0.000116494
0.00144972
-0.00704347
0.0033403
-0.000930408
0.00129906
0.00179437
-0.000525798
-0.00260464
-0.00243189
4.52942e-05
4.29506e-05
0.000113047
5.56212e-05
-0.000102725
-0.0061905
0.000122989
6.17115e-07
-2.53354e-05
1.44628e-05
-0.000610209
0.00134441
0.000107644
-0.000464364
0.00170799
-0.000187522
-0.000257859
-1.54769e-05
-0.000124299
1.67352e-05
-0.000392702
-0.00605131
-0.000440998
-0.000181711
0.000195578
0.0018653
0.00113236
0.00184141
-9.03017e-05
0.000167997
-4.08028e-05
-0.00111023
0.000952569
0.00054715
-0.00173821
-0.000346205
-0.000287021
0.000192546
0.000459225
-0.000634154
0.00365533
4.97108e-05
-0.00155103
-5.21147e-05
-0.00337453
-0.00150654
0.00239827
0.000404382
-0.00699548
-0.000829156
-0.00323292
-1.81505e-05
-0.000586099
0.000567241
-0.00302957
-0.00354653
-8.03702e-05
-0.00196652
0.00711949
0.0011772
0.00012985
-0.00371438
0.00146008
0.00205406
0.00211594
0.00112319
0.000148422
0.00042458
0.00159427
-0.0025491
0.00346922
0.000107278
-0.000239061
-0.000194073
0.000476642
-0.000310418
0.0072678
-0.000387975
0.000555856
-0.000388451
5.02475e-05
-0.000228969
2.72005e-05
3.89652e-05
-0.00019524
0.000127252
0.000299735
-0.000796325
0.000244032
6.46118e-06
0.0128497
-0.00460341
-0.000345815
-7.44684e-05
-0.00209929
0.011595
-0.000598417
0.000158921
-0.000225664
-0.000643636
-0.000488788
0.00236432
-0.000938295
0.000295931
-0.00545755
-0.0011772
2.21399e-05
0.0377359
0.00374218
0.000430926
0.0018286
0.00274597
-6.35887e-05
-0.00634228
-0.000374096
-0.00124254
0.000198531
-0.000170169
-0.000275777
7.83186e-05
-0.00198885
0.000363637
0.000890801
-0.00284995
7.80098e-05
9.0026e-05
-0.0016733
-0.000306662
-4.79465e-06
0.00379859
3.18411e-05
0.00723449
0.000781456
0.00116394
-0.000561332
9.04176e-05
0.00317591
-0.00292681
0.0338895
0.00150939
0.00267878
-0.000135362
-0.00253305
0.000137323
-0.0011334
0.000160016
-2.09407e-05
0.000281846
-0.000179614
0.00227215
-0.00130902
0.00165858
-0.00209916
-0.000140973
0.011752
-0.00502376
-0.000209201
5.91136e-05
-0.00365355
0.000541711
-9.84501e-06
-0.00174024
-0.000253853
0.00130385
-0.000918503
-0.0021341
0.000134732
2.05634e-05
-0.00017619
-0.00194927
5.83751e-05
-4.07752e-05
-2.54871e-05
0.00121662
-0.00184858
0.0340821
0.000269932
8.96055e-05
5.84701e-05
-2.14359e-05
0.000763655
-5.81399e-07
-3.64997e-05
-0.000426618
-0.000206907
-0.000749866
0.00016514
-2.73262e-05
-0.000912476
-2.84912e-05
-0.000435711
-3.4334e-05
8.58072e-05
-0.00403856
-0.00398872
-0.00338864
-2.2845e-05
0.000582229
-0.00163332
-0.00296108
0.00336086
-0.00344823
7.12955e-06
-0.000580341
0.000160865
6.274e-05
0.00585238
-3.41549e-05
0.000333552
-0.00495547
0.00367954
0.000365111
0.000195763
-0.00440525
-0.000113161
1.35712e-05
0.00019171
0.000200667
0.000695242
-0.000326701
-0.000937854
-0.000270104
0.00122063
0.000443683
0.00340266
0.00211369
-0.00098425
-0.000379801
0.00587189
-0.000710972
0.000699735
-0.000913844
0.000497288
0.00437528
0.00500438
0.000748387
0.000464398
0.000603063
0.00219475
-0.00100026
-0.000199561
0.00856867
-0.000484305
-0.00246477
0.00675274
0.000146637
-0.00179564
0.00031785
-0.00119508
-1.4448e-05
0.000107574
-0.000747463
-0.0027753
-0.000322156
0.000453421
-0.000625614
0.000125757
9.51786e-06
-0.000496828
-0.000204746
-0.000314297
0.00390202
-0.00261565
-0.000648825
7.74623e-05
2.50492e-05
0.000426913
-0.000844812
0.00233237
-0.000140652
0.00020339
0.000137166
-0.00320702
-0.0223182
0.000170777
-8.35457e-05
0.00192913
0.0173758
-0.00104372
-0.00314388
0.00105858
-0.000460767
0.00164703
-0.000459709
0.00151527
0.000396288
0.00268972
-0.000842086
0.00113531
0.000426694
0.00105264
-0.00164791
-0.000113852
-0.00394363
-1.87503e-05
0.000789918
0.000480617
0.000225227
-0.000129189
0.0017921
0.000495508
-0.000435777
0.0019093
0.000522894
-0.000762639
0.000113896
0.00678531
-0.000167417
0.000405403
0.00147631
-0.000297268
-0.000262311
8.23866e-05
-0.000508518
0.000166456
0.000122904
0.000593314
0.00593169
-0.00248471
0.000104578
5.20548e-05
-0.000255813
0.000102935
0.00144512
-0.000331311
0.000192275
2.65033e-06
-0.000512479
0.00876245
-3.94531e-05
2.35329e-05
0.00291687
-0.00135628
0.00196144
-0.00304299
0.0001865
-0.0010947
0.000121968
0.000562384
-0.00231133
-0.000437252
0.0015482
0.00555603
0.0106852
-0.000975733
0.000132005
0.0179603
0.00446417
-0.000424046
-0.00114922
0.00337854
-0.00647315
0.000217554
0.00222434
-0.000860047
-0.000285945
0.000590197
0.00311728
0.00411213
0.000159263
0.0076322
-0.000872563
-0.00118258
-0.00275923
0.000471228
0.000278557
-0.00238566
-0.00957566
0.000178706
0.000166235
-0.00310608
6.00074e-05
0.0157646
-0.000874489
0.00577888
0.00118814
0.00122675
0.000174926
-2.44357e-05
2.97058e-06
0.00139101
6.18424e-05
0.000689388
0.00051615
0.00100994
0.000754377
-0.0123014
7.16358e-05
0.000105098
0.0197389
0.00368831
-0.00242984
-0.00075221
-0.00112491
-0.000751681
-0.000868281
-0.000721537
0.000265761
0.0191445
0.00023819
0.0015915
0.0248678
-7.58431e-05
0.0046025
-0.000174034
0.00726468
-0.000694695
-0.000728239
0.00484085
-0.000333348
-0.000361799
0.000561886
-0.000116539
-0.000103871
9.29603e-05
-0.000356513
-0.00176686
-0.000222078
1.58347e-05
0.000172036
0.00112774
-0.00145974
-0.000637724
0.00137494
-0.00127112
-0.000767749
-0.000261429
0.00239837
0.000441426
0.000764644
-5.58617e-05
0.0212913
3.01088e-05
-8.04672e-05
0.00458704
9.10332e-05
-0.000368114
0.000822805
0.00232052
-0.00454607
0.000795383
2.73726e-05
0.000141523
0.000430034
0.000169536
-0.000363522
0.000385782
7.00539e-05
5.59674e-05
-9.3269e-06
0.000184803
0.00129808
0.000646174
0.00841172
0.00012326
-0.00064602
0.00011186
0.00108873
0.000779917
-0.00506127
2.47052e-05
-0.00010848
-0.000122656
0.000361868
0.000385585
4.62132e-05
-0.000329695
-0.00359195
0.00131253
0.00196077
-4.52116e-05
2.94959e-05
-0.000650773
-0.00289827
0.00354882
0.00108611
0.000102618
-0.000357185
0.000440188
-2.00705e-05
-0.00563443
-0.00282856
-0.00140273
0.000921361
-0.000368599
-0.00113488
0.0023744
-0.00161864
-0.00111837
0.00459242
-0.00455186
0.00464382
0.00010309
-0.00461293
-0.00102686
-0.00059428
-0.000135835
0.00311304
-0.00639394
0.00342626
0.0062767
0.00939202
-0.00253752
-0.00168239
0.00583952
0.00401432
0.000152517
-0.0018039
0.0145287
-0.00306995
9.0091e-05
0.0067816
0.000522386
-0.00020731
3.03788e-05
0.00629701
-0.000659911
-0.00120886
0.000103315
-0.00278894
0.0263951
-1.91707e-05
0.00203765
-0.0020403
0.00350251
0.00188239
0.00302744
-0.00125131
0.000522155
0.000190076
0.000197272
0.00616006
0.00046814
0.00254054
9.47677e-05
0.0052218
0.000633542
0.00098494
8.94628e-05
0.000837268
0.000788777
0.00223344
-0.00159712
0.000172253
0.00518685
-0.00131661
-0.000988465
0.000554495
0.000593058
-0.000920626
0.000235531
-0.000381199
0.000344071
-0.000235979
2.00314e-05
0.00870623
0.00186475
-0.00217963
0.00157048
0.0162754
0.0132655
0.00105612
-0.000587646
-8.09736e-05
0.000812939
-0.00120974
-0.00189349
-0.00144671
-0.00451567
-0.000275819
-0.00263042
0.00081847
-1.82389e-05
-0.00106705
0.00252012
-0.00413942
0.00349579
3.10772e-05
0.000135997
0.0016476
3.15542e-05
2.73118e-05
-0.000521083
-2.44186e-05
9.342e-05
0.00195676
-0.000122124
0.0012516
-0.000592373
-0.000600609
-0.000240969
-0.000271384
-0.000409073
2.33921e-05
0.00148898
-0.000833467
-0.0110258
-0.000126098
-0.0116805
0.000182724
0.00284359
-0.000344853
-0.0294795
-0.00133452
-0.00546441
-0.00196522
0.00110616
-0.00263193
0.000811671
0.00121299
0.00428098
-0.000706077
0.00118762
-0.000299645
-0.00312003
7.37173e-05
-0.000708867
0.000506333
-0.00414729
-4.99571e-05
-0.00295715
4.18168e-05
-0.0028753
0.026261
-0.000122411
0.00145704
0.000602005
5.39096e-05
-0.00536331
0.000169762
-0.00237338
-2.90474e-05
0.00618274
0.000178612
0.00042444
-0.000997764
0.000172359
0.00181156
-0.000530404
9.98897e-05
-1.38483e-05
8.18962e-05
0.000383971
5.4516e-05
-5.63962e-05
0.0014139
-0.000229377
-0.000233286
-0.000373427
0.000146881
3.05759e-05
0.000342113
0.000962849
8.25256e-05
0.00137081
0.00270002
0.00294739
0.000145774
0.000948939
-0.00582551
-0.00415348
0.00471657
5.11072e-05
-0.00329307
0.0055461
0.000514367
0.00126472
-0.00553952
-1.26975e-06
-0.00164554
-0.000575718
-2.51318e-05
-0.000253026
-0.000398712
0.000277826
-2.56458e-05
-0.000571511
0.000383075
-0.00874119
0.00042612
0.00888385
0.000451583
-0.000134378
-5.51023e-05
0.000111212
0.0120166
-0.00411133
-0.00735974
0.00517087
-0.000151016
0.00128504
0.000189705
0.000148048
-0.00208573
-0.00535928
0.00667155
0.000969351
7.3326e-06
5.25825e-05
-0.000204465
0.0106629
-0.0012161
0.00444042
0.00129891
0.0100012
-4.37708e-05
-0.000132702
0.0133143
-0.0010123
-0.000364284
0.010782
-0.00103175
0.000411875
-0.00107709
-0.000248822
4.74589e-05
-0.00258001
-0.000181289
-0.000201551
0.00124743
0.00122336
-0.000451135
0.000367603
-0.000736486
-0.00182311
-0.000869486
-0.000291143
0.000348059
-0.000295992
-0.000156758
-0.000333497
7.47021e-05
-0.000145699
-2.81394e-05
0.0001047
0.000519833
1.89238e-05
-2.00455e-05
0.000263966
0.000447704
0.00018017
0.000413611
6.3787e-05
-0.000132384
0.000262946
-2.10828e-05
0.00545375
0.00327399
-0.00590117
-1.31273e-05
-0.00113454
-0.000109753
0.000708661
-0.00299519
-0.00195138
0.00347453
0.00180578
-0.00546833
-0.00208691
-0.00287057
0.00190599
-3.69034e-05
0.00079682
0.000441592
-0.00109466
0.000200611
0.00124256
-0.000133044
-0.00167432
-0.00589053
2.94376e-05
0.000547733
-0.00225002
-2.76162e-05
-0.00386214
0.00557528
-0.00109426
-0.000688718
-0.00101928
0.0017807
0.000376073
8.79094e-05
0.000965017
0.000234941
-0.00055461
-0.0273034
-0.00107598
-0.012956
0.00400722
-0.000840316
-5.95343e-05
8.69623e-05
-0.00787079
-0.000785504
-0.000227001
0.037504
7.62701e-05
0.000560636
0.000583899
-0.000445432
0.00162461
-0.00153555
-0.00132564
0.00241491
-0.000125875
0.000264887
0.000358486
7.70129e-05
-0.00535497
-0.00627339
0.00421262
0.00273192
-0.00018688
4.00796e-05
-0.000156051
8.40545e-06
0.000182829
0.000168212
7.23861e-05
5.21341e-06
-9.33913e-06
-8.65034e-06
-8.82172e-05
-5.19242e-06
6.50908e-05
0.00161767
0.00128382
0.000208423
-0.000779289
-0.000537269
0.00805568
0.00952679
0.0103807
-0.00648927
-0.000330058
-0.000972665
-3.52389e-05
0.00106108
0.000148268
0.000114964
3.83693e-05
-0.000229618
8.42672e-05
8.20896e-05
-0.00611117
0.000482622
0.00414733
0.00398536
-0.0130846
-0.0116761
-0.00516224
-0.000664558
0.00281965
0.00417004
-0.00214622
-0.00699058
0.00102726
0.00407395
-0.00249411
-0.000504309
0.010767
-0.00336967
-0.000521118
-0.000503969
-0.00284284
-0.00142174
-0.000294406
-0.000496641
-0.00160002
8.75218e-05
0.000104596
-3.81962e-05
0.002408
9.27866e-05
0.00235771
0.000135975
-0.000318743
-0.000277523
-0.000368896
-9.02844e-05
-0.00112662
0.000411971
-0.00107336
0.000185421
-0.000532582
-0.00824869
0.00259543
0.0102126
-0.00376592
-0.00153385
0.000760915
0.00351239
8.44149e-05
0.00112546
-0.0218802
0.0358715
0.0409763
0.0376443
-4.75447e-05
0.00297249
0.000208609
-0.000154993
-3.16854e-05
0.000299694
1.34085e-05
1.01763e-05
0.000137697
0.00116233
0.000550612
0.00118463
0.00107592
0.000443778
0.000872087
-3.84344e-05
-3.84378e-05
0.0028988
-0.000851494
0.00116046
-0.00099587
-0.000375687
-6.57864e-05
1.28525e-05
-0.00171571
-0.000136862
0.000161255
0.000671392
0.000826607
5.90332e-05
-0.00673038
-3.88111e-05
-0.00113128
-0.00494565
-0.00272743
-0.00115266
0.000191565
-0.0033476
-7.27439e-05
0.000895759
0.00167502
-0.000385868
-0.00150364
-0.000101034
5.58801e-05
3.43601e-05
6.53666e-05
0.00050079
0.00022311
0.000494724
0.000364781
0.000929986
0.00211007
2.17458e-05
0.00013484
-0.00436942
0.00592968
0.00517834
6.17106e-05
0.00115846
0.00285894
-0.000729725
9.57431e-06
-0.00273199
-3.12635e-05
-5.70799e-05
-1.16425e-05
-0.00281292
4.51964e-06
5.24613e-05
0.00201976
-2.03061e-06
0.000818105
-0.00419564
-0.00200809
-0.000462042
-0.000852432
0.000567581
-0.000283041
0.000218824
0.00093161
0.00208866
0.00439695
0.00192237
-1.57394e-05
0.000951427
0.00155571
0.000427967
9.74455e-05
-9.13693e-05
0.000351294
-4.5031e-05
-0.000355662
-0.000170706
-0.000866348
0.00183921
1.91433e-05
-0.000206889
0.000372493
0.0125002
4.14995e-05
-6.96302e-05
-4.76492e-05
-2.85453e-05
0.00249665
0.00109707
0.0011747
0.000167921
0.000766801
0.00959846
0.000109792
0.00607429
-0.000413197
-0.000931421
-0.000395217
-2.28269e-05
0.00064378
0.00772448
-0.00126287
-0.00265253
-0.000140975
-0.000167495
0.00040505
0.000301329
0.00112655
-0.00121692
-0.000200702
-0.000900916
-0.000888162
6.86681e-05
0.000261742
-0.00158341
-0.00042274
0.00113129
-9.59343e-06
-0.0012227
-0.00037501
0.00316468
-0.00328187
0.00324751
-0.00295114
-0.00015283
-0.0016544
-0.000729096
0.000116093
0.000508899
0.000836463
0.000289345
-0.00291351
0.00147159
0.000808642
5.49074e-05
0.000743384
3.65487e-05
4.37885e-05
0.00567903
0.00997903
-0.00263482
-0.00378386
0.00815834
0.000136208
-0.00434497
-0.00130682
3.45837e-05
0.00375453
0.0035955
-0.00338029
0.00227701
0.00386017
-0.00619726
0.00212489
-0.00241741
0.000261455
2.07395e-05
0.000448118
0.000515064
-0.00178507
0.00031592
-3.86937e-05
0.000320237
6.49694e-05
-1.7056e-05
-3.23752e-05
3.46431e-05
-0.00254761
0.00141095
-0.00188792
-0.000710218
-0.00155451
-0.000404679
0.000673133
0.000211762
-6.85875e-06
0.000106878
-0.00774891
-0.000237702
0.00123495
0.000494265
0.000402137
0.00108605
0.00139763
-0.000370215
6.24588e-05
-0.000310621
-1.99377e-05
0.000948565
-0.00336298
0.00464677
0.000683445
-9.33247e-05
0.000195826
0.0001166
-0.00209825
0.000464319
0.000144023
-3.15815e-06
-0.000130878
-0.00102357
-1.62655e-05
0.000600087
0.000108602
-3.9894e-06
-0.000831206
-0.000704856
0.00414504
0.000736741
-0.000969879
0.00038066
-0.000218156
-5.2702e-05
-0.00157001
-2.44675e-05
7.62064e-05
-0.000165339
-0.000273948
-4.20217e-05
0.00324561
0.00014832
0.00199851
-0.00193687
-0.00192747
0.00352314
0.0058737
-0.00178247
-5.78221e-05
-0.000425554
0.00165139
0.0061295
0.00846571
0.000113802
-0.000809141
0.000213302
0.000113382
-0.00260486
-0.00425862
0.00318103
9.10518e-06
0.00246695
0.00108294
0.000805652
6.30084e-05
7.71938e-06
-0.000277404
-0.000459312
-0.000107138
0.00154873
0.000247972
0.00177807
0.00219961
0.000829126
0.001773
-0.00378319
-0.000448041
0.0207074
0.0125317
-0.00930101
-0.00161711
0.00233876
-0.0039758
-0.00292045
-0.00478858
0.00103043
0.000368653
-0.00111069
-0.000526633
0.00221667
-0.00268195
0.00480553
0.00347254
-0.000194103
0.000175148
-9.0113e-05
-0.000174212
-0.00442489
-0.000640769
0.000353416
-0.00469738
-0.000191689
-0.000330273
-0.000271672
-0.000514581
-0.000307811
0.000432347
0.000188085
0.000562534
0.00103848
-0.00806974
-0.000771661
0.00638221
0.0037207
0.00478521
-0.000804999
-0.000764995
0.00233427
0.000781072
0.00192264
0.00191502
0.0035756
0.00355472
0.00329351
0.00130584
0.000257528
0.00118126
0.0338261
0.0449951
0.0339043
-0.000110544
-0.00604085
0.00624412
0.0037182
0.00149594
0.0340884
3.21436e-05
5.18298e-05
7.61135e-06
-5.77889e-05
1.11108e-05
-5.07118e-06
-8.82815e-05
-3.53653e-05
-3.8409e-05
-4.5667e-05
-7.35915e-06
7.73371e-05
1.48199e-05
0.000165108
0.000224563
0.00040065
0.000212181
0.000764529
-0.000106282
0.000768638
-0.000711976
-0.000570294
-0.000533153
-6.81821e-05
-0.00120713
0.00453297
0.00245204
-0.000835816
0.0175153
-0.000415766
0.0129263
0.010985
0.00114861
-0.00447326
4.65034e-05
-0.000181095
-0.000309169
3.56187e-05
-0.00105572
0.00374973
-0.00318093
-0.00248075
0.000919096
0.000168473
0.000225097
0.000293425
0.0200865
-0.00588742
-0.0122657
0.0044607
-0.00610691
0.000241468
2.37952e-05
-6.06257e-05
-0.00227677
-0.000119892
3.7507e-05
-0.00358357
-0.000438177
-0.00105754
0.00332538
0.00333009
0.00461368
-0.000266877
7.10363e-05
5.39331e-05
-0.000244174
-0.000313732
-0.000921708
-0.00552031
-5.75916e-05
-0.000248636
-0.00463807
-0.00115587
0.000938356
2.84675e-05
-0.000948678
-0.00390133
-0.00227366
0.00593434
-0.00120041
9.09269e-05
0.000195999
9.326e-05
-0.000505659
-0.00407591
-0.00203875
0.00153134
-0.00358417
-0.000135062
-0.00962653
-0.00195473
-0.00120153
0.000412521
0.00176008
0.00145639
-0.00293484
-0.000197821
-0.000877572
-0.00761525
-0.00387958
0.00551301
-0.00144922
0.000485805
-0.000283432
0.00241995
-0.000622183
0.000677244
0.000693369
0.0048318
0.00185956
9.56127e-05
1.20378e-05
0.000135824
8.71279e-05
-0.00591957
0.00192523
-0.000248124
-0.00268288
-0.00309691
5.07719e-05
-0.00349307
-0.0103303
0.00633195