# vtk DataFile Version 2.0
Unstructured Grid by M++
ASCII
DATASET UNSTRUCTURED_GRID
POINTS 4072 float
  0.875000   1.000000 0
  0.875000   0.984375 0
  0.875000   0.968750 0
  0.875000   0.953125 0
  0.875000   0.937500 0
  0.875000   0.921875 0
  0.875000   0.906250 0
  0.875000   0.890625 0
  0.875000   0.875000 0
  0.875000   0.859375 0
  0.875000   0.843750 0
  0.875000   0.828125 0
  0.875000   0.812500 0
  0.875000   0.796875 0
  0.875000   0.781250 0
  0.875000   0.765625 0
  0.859375   1.000000 0
  0.859375   0.984375 0
  0.859375   0.968750 0
  0.859375   0.953125 0
  0.859375   0.937500 0
  0.859375   0.921875 0
  0.859375   0.890625 0
  0.859375   0.875000 0
  0.859375   0.859375 0
  0.859375   0.843750 0
  0.859375   0.828125 0
  0.859375   0.812500 0
  0.859375   0.796875 0
  0.859375   0.781250 0
  0.859375   0.765625 0
  0.859375   0.671875 0
  0.859375   0.656250 0
  0.859375   0.640625 0
  0.843750   1.000000 0
  0.843750   0.984375 0
  0.843750   0.968750 0
  0.843750   0.953125 0
  0.843750   0.937500 0
  0.843750   0.921875 0
  0.843750   0.906250 0
  0.843750   0.875000 0
  0.843750   0.859375 0
  0.843750   0.843750 0
  0.843750   0.828125 0
  0.843750   0.812500 0
  0.843750   0.796875 0
  0.843750   0.781250 0
  0.843750   0.765625 0
  0.843750   0.671875 0
  0.843750   0.656250 0
  0.843750   0.640625 0
  0.828125   1.000000 0
  0.828125   0.984375 0
  0.828125   0.968750 0
  0.828125   0.953125 0
  0.828125   0.937500 0
  0.828125   0.921875 0
  0.875000   0.671875 0
  0.812500   0.921875 0
  0.890625   0.656250 0
  0.828125   0.906250 0
  0.875000   0.656250 0
  0.812500   0.906250 0
  0.890625   0.640625 0
  0.828125   0.890625 0
  0.875000   0.640625 0
  0.812500   0.890625 0
  0.890625   0.625000 0
  0.828125   0.875000 0
  0.890625   0.609375 0
  0.828125   0.859375 0
  0.890625   0.593750 0
  0.828125   0.843750 0
  0.890625   0.578125 0
  0.828125   0.828125 0
  0.890625   0.562500 0
  0.828125   0.812500 0
  0.828125   0.796875 0
  0.828125   0.781250 0
  0.828125   0.765625 0
  0.828125   0.671875 0
  0.828125   0.656250 0
  0.828125   0.640625 0
  0.875000   0.750000 0
  0.812500   1.000000 0
  0.875000   0.625000 0
  0.812500   0.875000 0
  0.875000   0.734375 0
  0.812500   0.984375 0
  0.875000   0.718750 0
  0.812500   0.968750 0
  0.875000   0.703125 0
  0.812500   0.953125 0
  0.875000   0.687500 0
  0.812500   0.937500 0
  0.875000   0.609375 0
  0.812500   0.859375 0
  0.875000   0.593750 0
  0.812500   0.843750 0
  0.875000   0.578125 0
  0.812500   0.828125 0
  0.812500   0.812500 0
  0.875000   0.546875 0
  0.812500   0.796875 0
  0.812500   0.781250 0
  0.812500   0.765625 0
  0.859375   0.750000 0
  0.796875   1.000000 0
  0.859375   0.625000 0
  0.796875   0.875000 0
  0.859375   0.734375 0
  0.796875   0.984375 0
  0.859375   0.718750 0
  0.796875   0.968750 0
  0.859375   0.703125 0
  0.796875   0.953125 0
  0.859375   0.687500 0
  0.796875   0.937500 0
  0.859375   0.609375 0
  0.796875   0.859375 0
  0.859375   0.593750 0
  0.796875   0.843750 0
  0.859375   0.578125 0
  0.796875   0.828125 0
  0.859375   0.562500 0
  0.796875   0.812500 0
  0.796875   0.796875 0
  0.859375   0.531250 0
  0.796875   0.781250 0
  0.796875   0.765625 0
  0.843750   0.750000 0
  0.781250   1.000000 0
  0.843750   0.625000 0
  0.781250   0.875000 0
  0.843750   0.734375 0
  0.781250   0.984375 0
  0.843750   0.718750 0
  0.781250   0.968750 0
  0.843750   0.703125 0
  0.781250   0.953125 0
  0.843750   0.687500 0
  0.781250   0.937500 0
  0.843750   0.609375 0
  0.781250   0.859375 0
  0.843750   0.593750 0
  0.781250   0.843750 0
  0.843750   0.578125 0
  0.781250   0.828125 0
  0.781250   0.812500 0
  0.843750   0.546875 0
  0.781250   0.796875 0
  0.781250   0.781250 0
  0.843750   0.515625 0
  0.781250   0.765625 0
  0.828125   0.750000 0
  0.765625   1.000000 0
  0.828125   0.625000 0
  0.765625   0.875000 0
  0.828125   0.734375 0
  0.765625   0.984375 0
  0.828125   0.718750 0
  0.765625   0.968750 0
  0.828125   0.703125 0
  0.765625   0.953125 0
  0.828125   0.687500 0
  0.765625   0.937500 0
  0.828125   0.609375 0
  0.765625   0.859375 0
  0.828125   0.593750 0
  0.765625   0.843750 0
  0.828125   0.578125 0
  0.765625   0.828125 0
  0.828125   0.562500 0
  0.765625   0.812500 0
  0.765625   0.796875 0
  0.828125   0.531250 0
  0.765625   0.781250 0
  0.765625   0.765625 0
  0.812500   0.750000 0
  0.750000   1.000000 0
  0.953125   1.000000 0
  0.812500   0.734375 0
  0.750000   0.984375 0
  0.812500   0.718750 0
  0.750000   0.968750 0
  0.812500   0.703125 0
  0.750000   0.953125 0
  0.812500   0.687500 0
  0.750000   0.937500 0
  0.812500   0.671875 0
  0.750000   0.921875 0
  0.812500   0.656250 0
  0.750000   0.906250 0
  0.812500   0.640625 0
  0.750000   0.890625 0
  0.812500   0.625000 0
  0.750000   0.875000 0
  0.812500   0.609375 0
  0.750000   0.859375 0
  0.812500   0.593750 0
  0.750000   0.843750 0
  0.812500   0.578125 0
  0.750000   0.828125 0
  0.750000   0.812500 0
  0.812500   0.546875 0
  0.750000   0.796875 0
  0.750000   0.781250 0
  0.812500   0.515625 0
  0.750000   0.765625 0
  0.796875   0.750000 0
  0.734375   1.000000 0
  0.796875   0.734375 0
  0.734375   0.984375 0
  0.796875   0.718750 0
  0.734375   0.968750 0
  0.796875   0.703125 0
  0.734375   0.953125 0
  0.796875   0.687500 0
  0.734375   0.937500 0
  0.796875   0.671875 0
  0.734375   0.921875 0
  0.796875   0.656250 0
  0.734375   0.906250 0
  0.796875   0.640625 0
  0.734375   0.890625 0
  0.796875   0.625000 0
  0.734375   0.875000 0
  0.796875   0.609375 0
  0.734375   0.859375 0
  0.796875   0.593750 0
  0.734375   0.843750 0
  0.796875   0.578125 0
  0.734375   0.828125 0
  0.734375   0.812500 0
  0.734375   0.796875 0
  0.796875   0.531250 0
  0.734375   0.781250 0
  0.734375   0.765625 0
  0.781250   0.750000 0
  0.718750   1.000000 0
  0.921875   1.000000 0
  0.781250   0.734375 0
  0.718750   0.984375 0
  0.781250   0.718750 0
  0.718750   0.968750 0
  0.781250   0.703125 0
  0.718750   0.953125 0
  0.859375   0.906250 0
  0.781250   0.687500 0
  0.718750   0.937500 0
  0.781250   0.671875 0
  0.718750   0.921875 0
  0.781250   0.656250 0
  0.718750   0.906250 0
  0.781250   0.640625 0
  0.718750   0.890625 0
  0.781250   0.625000 0
  0.718750   0.875000 0
  0.781250   0.609375 0
  0.718750   0.859375 0
  0.781250   0.593750 0
  0.718750   0.843750 0
  0.781250   0.578125 0
  0.718750   0.828125 0
  0.781250   0.562500 0
  0.718750   0.812500 0
  0.781250   0.546875 0
  0.718750   0.796875 0
  0.781250   0.531250 0
  0.718750   0.781250 0
  0.781250   0.515625 0
  0.718750   0.765625 0
  0.765625   0.750000 0
  0.703125   1.000000 0
  0.765625   0.734375 0
  0.703125   0.984375 0
  0.765625   0.718750 0
  0.703125   0.968750 0
  0.765625   0.703125 0
  0.703125   0.953125 0
  0.765625   0.687500 0
  0.703125   0.937500 0
  0.843750   0.890625 0
  0.703125   0.921875 0
  0.765625   0.656250 0
  0.703125   0.906250 0
  0.765625   0.640625 0
  0.703125   0.890625 0
  0.765625   0.625000 0
  0.703125   0.875000 0
  0.765625   0.609375 0
  0.703125   0.859375 0
  0.765625   0.593750 0
  0.703125   0.843750 0
  0.765625   0.578125 0
  0.703125   0.828125 0
  0.765625   0.562500 0
  0.703125   0.812500 0
  0.765625   0.546875 0
  0.703125   0.796875 0
  0.765625   0.531250 0
  0.703125   0.781250 0
  0.765625   0.515625 0
  0.703125   0.765625 0
  0.750000   0.750000 0
  0.687500   1.000000 0
  0.890625   1.000000 0
  0.750000   0.734375 0
  0.687500   0.984375 0
  0.750000   0.718750 0
  0.687500   0.968750 0
  0.578125   0.796875 0
  0.578125   0.781250 0
  0.578125   0.765625 0
  0.546875   0.953125 0
  0.546875   0.968750 0
  0.546875   0.718750 0
  0.546875   0.687500 0
  0.250000   0.609375 0
  0.937500   0.031250 0
  0.046875   0.703125 0
  0.734375   0.062500 0
  0.734375   0.078125 0
  0.734375   0.046875 0
  0.046875   0.593750 0
  0.046875   0.562500 0
  0.046875   0.531250 0
  0.718750   0.156250 0
  0.046875   0.609375 0
  0.734375   0.031250 0
  0.062500   0.609375 0
  0.234375   0.703125 0
  0.718750   0.125000 0
  0.046875   0.578125 0
  0.734375   0.000000 0
  0.062500   0.578125 0
  0.000000   0.828125 0
  0.234375   0.671875 0
  0.234375   0.625000 0
  0.718750   0.093750 0
  0.687500   0.156250 0
  0.062500   0.546875 0
  0.000000   0.796875 0
  0.718750   0.046875 0
  0.031250   0.687500 0
  0.687500   0.171875 0
  0.500000   1.000000 0
  0.078125   0.218750 0
  0.234375   0.593750 0
  0.718750   0.062500 0
  0.687500   0.125000 0
  0.000000   0.765625 0
  0.421875   0.500000 0
  0.031250   0.593750 0
  0.718750   0.015625 0
  0.687500   0.234375 0
  0.015625   0.812500 0
  0.703125   0.171875 0
  0.703125   0.187500 0
  0.703125   0.140625 0
  0.015625   0.781250 0
  0.437500   0.515625 0
  0.500000   0.796875 0
  0.078125   0.015625 0
  0.687500   0.203125 0
  0.250000   0.578125 0
  0.703125   0.109375 0
  0.000000   0.515625 0
  0.500000   0.765625 0
  0.062500   0.593750 0
  0.750000   0.015625 0
  0.015625   0.843750 0
  0.687500   0.000000 0
  0.500000   0.828125 0
  0.078125   0.046875 0
  0.015625   0.531250 0
  0.250000   0.546875 0
  0.703125   0.078125 0
  0.703125   0.031250 0
  0.015625   0.671875 0
  0.250000   0.515625 0
  0.000000   0.656250 0
  0.500000   0.906250 0
  0.078125   0.125000 0
  0.687500   0.015625 0
  0.031250   0.546875 0
  0.687500   0.031250 0
  0.500000   0.859375 0
  0.703125   0.000000 0
  0.703125   0.046875 0
  0.703125   0.015625 0
  0.500000   0.937500 0
  0.234375   0.531250 0
  0.031250   0.578125 0
  0.687500   0.062500 0
  0.500000   0.890625 0
  0.031250   0.796875 0
  0.453125   0.531250 0
  0.500000   0.968750 0
  0.078125   0.187500 0
  0.234375   0.562500 0
  0.031250   0.609375 0
  0.718750   0.031250 0
  0.687500   0.093750 0
  0.750000   0.046875 0
  0.000000   0.937500 0
  0.421875   0.671875 0
  0.718750   0.187500 0
  0.031250   0.828125 0
  0.765625   0.062500 0
  0.015625   0.953125 0
[...]
CELL_DATA 7648
SCALARS scalar_value float 1
LOOKUP_TABLE default
0.00156152
-0.00143358
-0.00259742
0.00132559
-0.000563177
-0.000345011
-9.04574e-05
-0.000327718
0.000454624
0.000725952
-0.000579634
-0.00302823
-0.00101565
0.00241108
0.00222425
0.000626077
-0.00490878
0.00449309
0.00370933
-2.17176e-05
0.000140129
-0.000249909
9.87046e-05
-8.14214e-05
0.00260746
0.000483767
0.0048278
0.00249718
0.00124399
0.000280133
-5.3563e-05
0.000343384
-0.000476699
-5.38398e-05
-0.000115067
7.15754e-05
-0.000146344
-4.53947e-05
-0.000226669
-0.000109959
-0.000112952
-0.000149724
-0.000785168
-0.000131377
5.3745e-05
7.47492e-05
-0.000389824
-0.000161137
-0.000784585
-0.000131927
4.67027e-05
-7.3739e-05
-0.000644796
3.33041e-06
-0.00025916
-0.000876358
-0.000713429
-0.000565213
-0.00283236
-0.000364111
-2.57233e-05
0.000270035
-0.000116179
-0.000118393
0.00168409
5.99799e-05
0.00390037
-0.000386925
-0.000858293
4.91651e-05
2.9847e-05
5.77502e-05
-0.000192079
-0.000190622
-0.000143436
-0.00110455
0.000317112
-0.00040958
-0.000494423
-0.000521142
9.3956e-05
0.000834107
0.00131403
9.5474e-05
-1.69226e-05
2.0878e-05
0.0103194
0.00453313
0.0031703
0.00435155
-0.000653285
0.000652186
-1.45776e-05
0.000135199
0.000373517
7.82377e-05
0.00103735
7.09724e-06
0.000381849
0.000130333
-0.00381314
-0.000115045
-0.000237885
-0.000148006
0.00165016
0.00854612
-4.03214e-05
0.00026132
0.00280529
0.00282218
-7.53115e-05
8.04404e-06
-0.000104621
-0.00056826
-0.00103972
-0.00197009
-0.000661772
-0.00530013
-0.00508533
0.000896216
-0.00565701
0.000885752
-0.000783964
-1.39177e-05
-0.000164111
-5.52016e-05
5.84555e-05
-0.000151487
-0.000227213
0.00116497
0.00190415
6.42684e-05
-0.0039222
-3.82809e-06
-6.89157e-05
-2.88278e-05
-0.00133401
0.000712575
-0.000677446
0.00139447
0.000423358
-0.000114656
-8.82343e-05
3.13814e-05
0.000314874
-8.7933e-05
-0.000304457
-2.16631e-05
-0.000459758
0.000207906
3.72325e-05
1.83029e-05
0.00017772
-0.00516178
-0.000144174
0.0328438
0.000674444
-0.00196
-0.00105398
0.000184568
-0.00219833
0.000314664
0.00071187
-1.34948e-05
-0.000236996
0.000155754
-0.000919033
0.000497299
0.00119248
0.000224956
0.000148301
0.000164265
-6.62327e-05
1.03073e-05
-0.00108876
0.000265801
-0.000283451
3.2023e-05
9.51225e-06
-0.000381
5.86429e-06
0.000123686
-0.00116196
0.00338856
0.000228266
0.00164815
0.000638908
0.000234465
6.38847e-06
0.000344364
0.00232856
0.00116687
-0.000873175
-0.00049739
4.43487e-05
4.0994e-05
-6.91661e-05
0.00204076
0.000130819
-0.00133294
0.000260641
-0.00392373
-0.000183585
-0.000276859
0.000616105
0.000102618
-0.000104335
-0.000219569
-0.00109644
8.6072e-05
0.000171505
-0.00197613
-0.000103366
0.000202752
-0.000131393
0.000150735
-0.000584495
0.000174163
-0.000668717
-3.0218e-05
-0.000538123
8.38734e-06
0.00106424
-2.3497e-05
-5.97714e-05
0.00233942
-0.000325806
0.000198207
0.000236873
-0.00126505
-0.000312954
-0.00151256
-0.000315195
0.000101851
8.98089e-06
1.28083e-05
0.000275302
1.04493e-05
2.77753e-05
-0.00571265
-7.20741e-06
-0.00296889
0.000333471
0.000220983
0.00223832
-0.000115212
0.000880526
-0.00445918
-0.000186653
-0.000449402
-4.11084e-06
-0.000287206
0.00315504
-0.000399409
-4.25531e-05
-9.84964e-05
0.000207549
1.09002e-05
0.00042104
0.000667617
-0.00332454
0.000941349
0.00107918
0.000746801
0.000602484
-0.000289957
-0.000683204
0.000879826
-0.000679861
0.00229406
-0.000485874
0.000178666
-3.72065e-05
0.00346407
-0.000552248
0.00113735
0.00128037
0.000165324
0.00081955
0.000442729
-0.000372129
-2.43063e-05
0.00069213
0.000738945
-0.00516154
0.000884662
-0.0014411
0.000534523
3.97132e-05
-3.30291e-05
0.000908649
-0.00234754
-0.00269173
3.4457e-05
0.000482484
-0.000297797
1.79887e-05
7.80954e-05
-0.00123181
-0.0022952
-0.000575651
0.000760439
6.12058e-05
-0.000417065
0.000591875
-0.00190858
7.75718e-05
0.000241709
-0.000915928
-0.00097865
8.3392e-05
-0.000447564
2.27652e-05
-0.000915545
0.000460681
0.000839698
0.00112059
-0.000535431
0.000788841
0.000264653
-1.73401e-05
0.00011875
0.000417341
-6.69732e-06
0.000113018
0.00314313
-8.59691e-05
4.38831e-05
-3.4406e-05
2.46408e-05
-0.000408266
0.000855492
5.62192e-05
-0.000257084
0.000571396
0.000201965
-7.00599e-05
0.00011693
-6.55846e-05
0.000152652
-5.15488e-05
-0.00027211
-5.96272e-05
0.0001248
3.46407e-05
-0.000193098
-0.000274154
0.000533978
3.38051e-05
-3.63256e-05
-0.00167793
-0.000206314
0.000189085
-0.000164549
-0.000340474
7.12944e-05
0.000161556
0.000276556
-0.000381817
0.000524
-0.00136807
-1.35101e-05
-0.000209611
-4.0823e-06
0.000536503
-0.000364971
-0.00215163
0.00199454
-0.000324031
2.80953e-05
0.00545222
-5.31225e-05
-0.000107613
0.000687451
-0.000548026
0.00308858
-0.000244576
-0.000279202
0.00187847
-0.00162789
-0.000537527
-0.00362622
-0.000170491
0.00124537
0.00110604
-8.75147e-05
6.15385e-06
0.000275716
0.000203772
0.00162126
0.000435428
-3.70847e-05
-0.000239922
-0.000160615
0.000782958
0.000707779
0.00269001
-0.000621095
0.00095215
-0.000379811
-0.00132175
-0.00257093
7.47146e-05
-2.19567e-05
0.000309983
0.000115384
0.000439489
-0.000530269
3.00058e-05
3.79344e-05
-0.000175734
0.00205376
-5.18216e-05
0.00161139
0.00117261
-0.00518584
-0.000287777
7.06572e-06
-0.000302607
-0.00115858
4.20316e-05
0.000526392
-8.09614e-05
0.000160247
0.00351824
-0.000426763
-4.69744e-05
-0.00543271
0.000347392
-0.00578412
0.00614802
-0.00118056
0.000131491
-0.00111503
0.000307214
-0.00183989
-4.8974e-05
0.000296734
0.000382042
0.000107071
-0.00232645
-1.01086e-05
0.000827746
0.00105782
0.000120338
-4.17731e-05
0.00216396
-0.000534272
9.59802e-06
0.000472487
-0.000107368
-0.00505404
-0.00016797
-0.00049509
0.000158044
6.37393e-06
0.000858529
0.00392418
0.00339727
-0.00114307
0.00383371
-7.27595e-05
0.000204385
0.000234315
0.000451256
-1.88526e-05
-0.000142527
4.18234e-05
2.64709e-05
0.00059411
0.00122372
5.06321e-05
-0.000219201
0.000140871
0.00232105
0.00108921
-0.00359821
-8.79523e-05
0.00275718
-0.000439466
5.04017e-05
0.00194464
0.000165948
0.000376161
-0.00294059
-0.00390257
-4.38669e-05
2.47446e-05
-0.000173109
-0.000346411
3.87707e-05
9.47652e-05
-0.000289175
0.00276458
0.00286014
-0.00314003
-0.000134906
-3.60024e-05
2.83799e-05
0.000100623
-1.92889e-05
7.12666e-05
-5.01556e-05
0.00256775
-0.000257824
-0.000392874
0.000306617
-5.31259e-05
0.000277868
-2.93114e-05
-8.26731e-05
-5.32957e-05
-2.1367e-07
0.00787139
-0.00136058
-0.00187393
-6.71906e-07
0.000375513
-0.000613492
-0.000331852
-0.00493443
-0.000518448
-0.0001091
-0.000208895
0.000184437
1.51895e-05
0.000593251
8.51869e-06
-0.00140073
0.0018152
0.000849661
-0.000300539
0.000191841
0.00148055
0.000805708
-8.60177e-06
1.49465e-05
-0.000206859
-0.0040404
0.000584803
-0.00105659
-2.38317e-05
0.000294692
-0.000120205
0.00123491
0.000869328
-0.00205011
-0.00066609
-0.0011757
5.11377e-05
-0.000436247
0.00051476
-0.000166569
8.82996e-05
0.000171258
1.66182e-05
-0.00032564
-0.000195692
0.00432049
-0.000222182
5.16693e-05
-0.000926269
-5.86112e-05
0.00308999
0.00255664
0.000114195
0.000667615
-1.50752e-05
-0.000194572
9.11742e-05
0.000119486
-0.00013682
-0.0032847
0.000294915
-0.000153622
0.00101276
-0.000256624
0.000112442
-0.000462838
6.70896e-05
-0.000439214
-0.000274183
-0.000946536
-3.17551e-05
5.7242e-05
-0.000699816
-0.000837621
5.38147e-05
0.000548446
0.000149984
6.29362e-06
-1.12849e-05
-0.00164214
0.034668
5.59313e-05
-3.2521e-05
0.00379374
0.0043849
-0.00254434
-0.00148241
0.000524559
-0.000170084
0.000168317
-8.84469e-05
0.000408488
6.57011e-05
0.000932475
0.000476011
-0.000405933
-0.000782636
-0.000471289
0.00135601
0.00087786
0.000941889
-0.000166612
0.000579121
-2.73872e-05
0.000664498
-0.000442164
0.000649326
0.00020439
-0.000193302
-0.00123269
-0.000169911
2.08093e-06
-0.000117106
0.00333755
-0.000287266
-0.000312403
0.000815191
-0.000314774
0.000260111
0.000421987
-0.000364805
-0.000270308
-3.08607e-06
-0.000326361
0.00768978
-0.00284858
0.000195664
3.72753e-05
0.000398738
6.26246e-06
0.000287445
-0.000510096
-1.81529e-05
-3.995e-05
-0.000573664
0.000581529
2.46806e-05
0.000155036
-0.00263807
0.000308464
0.00113086
0.00142036
5.96261e-05
-0.0010798
0.000703377
0.00127235
0.00144
-8.89548e-05
-0.000804268
-0.00354872
-0.00174006
-0.000140359
0.00254951
-0.000329288
-0.00530906
-0.00040135
-0.000117343
-0.00188805
0.00112444
-0.000151633
-0.00298161
-0.000197849
0.000178348
-4.68834e-06
-0.00168423
0.00045386
-0.000453089
-0.00235943
0.000295168
0.000414595
0.000505722
-0.000354578
0.00292
0.00176878
-0.00105469
4.05001e-05
-6.71481e-05
0.00126646
-5.57206e-05
0.00407466
-0.00040374
0.000783491
-0.000544737
-0.000419759
-9.00709e-05
-4.55978e-05
7.37076e-05
5.72493e-05
7.26922e-05
0.0016703
-0.000596523
0.00301061
0.000478866
-0.00152497
7.20878e-05
0.000131441
-0.00102664
-0.00232298
-0.000883057
0.000405745
0.0014261
-0.000314049
-0.000802831
0.000141543
0.00184285
0.00835407
-4.89816e-05
-0.00325283
-0.00234987
2.197e-06
-0.00349415
-0.000827013
-0.00115498
-0.000539448
-0.000449529
-0.00338823
-0.000412317
1.40478e-05
-3.44427e-05
-0.000214094
0.000357378
-0.000188262
4.15075e-05
0.000121471
-0.000668216
0.000289104
-6.70566e-05
-7.24081e-05
2.75846e-05
0.000180378
0.000265723
0.000843831
0.000222253
-0.000503407
0.000668793
-0.000114517
-0.000721471
1.09929e-05
-0.000913361
-2.07687e-05
-9.68321e-07
0.00683783
-2.35503e-05
-0.00106204
-0.000326625
0.000322212
-0.000903821
0.000649278
4.24218e-05
-0.00118829
-0.000590842
-0.000105991
0.000297913
-0.000866655
7.91524e-05
-4.58328e-05
7.10815e-05
3.31982e-05
0.000249452
-0.00201669
-0.000879667
2.76945e-05
0.000121216
-2.77877e-05
0.00628338
0.00167083
0.000544241
0.000267084
5.08742e-05
6.09505e-05
8.9471e-05
9.4598e-05
-0.000150968
7.86478e-07
-0.0017557
-0.000689067
0.003658
-0.000501854
-9.42472e-05
-0.000693408
-0.000481155
0.00543141
0.000591155
0.000451001
-0.00082332
0.000116485
2.57763e-05
-0.0107695
-0.000174689
-0.000310687
0.000353657
9.97686e-06
0.00141337
-0.000269565
0.000522059
-0.000533883
0.00162425
-0.000236181
-7.55343e-05
-8.72125e-05
-0.00115238
-0.00291425
0.00749011
0.000831853
0.00158705
0.000115224
-0.00478366
-0.0029088
0.000240324
-0.000893638
-0.000739418
-0.00263267
0.00620061
-0.00029731
0.000505257
-0.00161011
-0.0013066
5.96751e-05
0.00118974
0.000316107
-3.02571e-05
-0.000557984
-0.00112761
-0.000473299
-0.00131188
0.000223053
0.00178382
-0.00264059
0.000239471
-0.00409327
0.00552193
-0.00384986
-0.00015171
-0.00228014
-0.000233726
-0.000164486
-2.91104e-05
-2.46079e-05
-0.00314049
6.15223e-05
5.47042e-05
-0.000253371
0.00135095
0.000849285
0.000179847
0.000147271
0.000682666
-0.00010296
0.000515701
-0.000331469
8.92988e-05
0.000349094
5.04708e-05
0.00110682
-0.000324176
-0.000344579
-0.00267211
-1.43201e-05
8.06955e-05
-0.000165601
0.00030555
-2.87372e-05
0.00387266
0.00108482
0.000259783
0.000649593
0.00349018
0.00162507
0.000332586
-0.00059886
-3.48785e-05
-0.000274317
-0.00417706
0.00346183
0.000444133
-0.00176184
0.000800156
0.00114184
-0.0026056
-3.65156e-05
0.000337
0.00252531
-0.00286434
-0.00439124
8.5772e-05
0.000102307
-0.000110396
9.71536e-05
5.23189e-05
-4.45763e-05
6.08006e-05
1.72532e-05
-0.00205499
0.00112706
-0.000288816
0.00126016
0.000174032
-0.00134904
1.79788e-05
-0.000560815
-0.000329807
-0.00122563
0.000279313
-0.00207944
0.000229807
0.00526493
-0.000259019
0.000247712
0.000108098
0.0130307
4.68989e-05
0.00624589
-0.00279036
-0.000384314
0.02525
-0.000535497
-0.000577935
0.000319367
0.000432729
-0.000566902
0.000236791
-0.00105176
-7.86688e-06
0.000658077
0.0014146
0.00368599
0.0001834
-0.00124247
-3.27239e-05
-0.00128328
0.0129454
0.000123505
-0.000165274
8.26273e-05
-1.02819e-05
0.000914372
7.96867e-05
-0.00278931
1.61157e-05
0.000694087
0.000782337
0.000145272
0.0013794
4.98653e-05
-0.0019927
-0.000900147
-4.1026e-05
-5.16092e-06
3.87417e-05
0.000112478
5.31143e-05
-0.000462219
0.000276543
1.8749e-06
-1.3364e-05
0.000392342
-0.000131689
4.22347e-05
-4.53657e-06
0.000103016
4.56524e-05
0.000105893
-0.00265525
-0.00437294
4.69186e-05
-0.00144894
-0.00132829
0.000689914
-0.00600223
8.44904e-05
0.00281915
-0.0059707
-0.000261498
0.000315904
-0.00263523
5.84454e-05
-0.000541788
-0.00348496
-0.00356434
0.00119872
-4.85881e-05
-0.000432184
3.4262e-05
-0.000342871
-0.000146036
0.00481924
2.57388e-05
0.00652377
-0.000183663
0.000179931
4.4002e-05
-0.000313362
0.00103598
-0.00128077
-0.00247257
0.000257248
-0.00309026
0.00122575
0.000273057
0.000119473
-0.00226184
-0.00253034
-0.00169827
0.000133864
-2.67457e-05
3.52673e-05
0.000412535
0.00110155
-0.00245801
0.00227573
-0.000390111
-0.000244374
-0.00015026
-0.000139697
0.00198381
-0.00030111
-0.00012822
0.00835694
-0.00834428
2.54345e-05
-0.00212178
-7.86635e-05
4.48801e-05
0.00151753
-0.00106661
-0.00126156
0.000417151
0.000249542
-0.000553677
3.92807e-05
4.39565e-06
-0.00267963
-0.000346627
0.000290952
-0.00028743
0.00132743
0.000188983
-3.46844e-05
0.00019829
0.00017828
-9.45189e-06
3.9917e-05
0.00107402
5.70344e-05
1.10282e-07
-0.000292235
-0.000245147
-7.95464e-05
0.000227679
7.81202e-06
-3.56571e-05
-4.54469e-05
1.68547e-05
-0.00621225
0.00900613
-0.000308769
3.00773e-05
0.00040727
7.4956e-05
-0.000332897
-0.00326989
-0.00254676
0.00146548
0.000422676
-0.00118626
0.000399389
0.00221328
-0.00122674
2.9117e-05
0.000191794
-0.000595533
0.00111878
-0.000106466
0.00234759
-1.10407e-05
-0.000662014
0.00210031
-0.00077324
-0.000414513
-0.000642147
3.27832e-06
-0.000321369
0.00330147
1.0104e-05
0.000226284
0.00506873
-0.000127629
-0.00463555
8.06077e-06
0.00291447
-6.99571e-05
-0.000903559
0.0110162
0.000319509
0.0047496
0.0015728
-0.000398672
0.000423566
0.000107306
0.0032871
-0.000477427
-0.000335955
0.0028442
6.47507e-05
0.000600991
-0.000207301
-0.000221073
0.000576815
-0.00186933
0.0036377
0.00143771
0.000200341
-7.93425e-05
0.000209208
0.000172066
0.000148864
0.00149831
0.000472878
-0.00100022
0.000132088
-2.38644e-05
6.3455e-05
3.17594e-05
0.000167092
0.000213628
0.000249258
-0.000100285
0.000244704
6.76766e-05
0.000101327
0.000128947
1.71646e-05
0.000937582
-0.000172257
-0.0004247
-5.25577e-05
0.000447763
0.00215378
0.00297055
0.00225363
0.000990108
-8.20957e-05
-7.13652e-05
0.000121838
-0.000281905
0.00023732
1.8116e-05
-1.55264e-05
0.00163896
-2.67006e-06
2.15726e-05
-0.000297905
-0.000380264
-0.0014194
-0.00117906
5.90168e-05
0.000576515
-0.00142222
-0.00448005
-0.00131951
0.00199593
-0.00285155
0.00112342
0.000228047
-0.00463459
0.00136508
4.57897e-05
-0.00544885
0.00121473
-0.000314974
0.000312783
0.00165696
0.000549359
-0.000477203
-0.000303092
-0.000340053
-4.19293e-05
-3.93613e-05
3.23638e-05
0.00061719
-1.55774e-05
0.00108995
0.000356152
0.000509948
0.00017563
-0.000546508
0.000323859
0.000361274
-0.000318082
0.000482823
-2.14775e-05
0.00134244
-0.00216406
-0.00201695
-0.00612521
-0.000811505
-0.002134
-0.00416855
-0.00162368
3.62643e-05
0.000196396
0.00806537
0.00357162
-0.00775009
0.000755076
5.02267e-05
-0.000848505
-0.000188337
7.61574e-05
-5.80477e-05
-0.000139062
1.96735e-05
-0.000128339
1.40028e-05
0.00335882
2.54555e-05
0.00330389
0.00257834
-0.000445085
-0.00108859
-0.0005196
-5.865e-06
-0.000719533
-0.000406862
0.000341022
-0.000591069
0.000105252
9.31464e-05
-0.000192048
8.7752e-05
0.00010092
4.88132e-05
-3.87996e-05
0.000419726
0.000289506
-0.00101755
2.96562e-05
-0.00174038
0.0034115
-0.00024877
0.000475098
-2.16511e-05
-0.0016341
0.000118014
7.6667e-06
0.00096172
-2.46364e-06
0.000419806
0.00022481
0.000153054
6.05273e-05
0.000107935
-0.000446972
7.64003e-05
8.33249e-05
0.000152287
0.000734581
-0.00623003
5.64619e-05
0.00145436
0.00082276
-0.00447106
-0.00547648
-1.31356e-05
0.000278058
0.00213968
0.00121388
-0.00343707
0.000982557
-4.51055e-05
-5.45864e-05
3.6759e-05
0.00038058
-8.91772e-05
-8.37469e-06
0.000343631
5.72755e-05
-3.11507e-05
2.636e-05
0.0015064
0.00072741
-0.000195432
0.000654795
-0.000230735
9.316e-05
-0.00298492
-0.000478077
0.000818194
-0.0004668
6.76825e-05
0.001302
0.00065411
-0.000148229
-0.000103131
-0.000209879
-0.000275873
0.000150748
-0.000162376
-0.000105848
-0.00155941
0.00156717
0.000351347
-0.000290006
-0.000110895
0.0160834
-6.06126e-05
1.86642e-05
6.16788e-05
-9.52043e-06
0.00522146
0.00112744
0.00107564
-6.29011e-05
0.00195265
-0.000363977
0.00348821
-0.00185021
0.000395223
-0.000337463
0.000972045
-3.10728e-05
-0.000572372
0.00159845
0.0016802
-0.00124544
0.000219166
1.64009e-05
0.000111605
0.000191865
0.00118644
-0.000655117
0.000819916
-0.000367547
0.000503211
-0.000284579
-0.000102325
-0.000302695
0.000995866
0.000281389
-3.13421e-05
-0.000488462
-0.00555081
0.00344619
0.00202241
0.000877626
-0.0020089
-0.00216422
0.00135811
0.000960625
-3.76377e-05
-6.35423e-05
0.00336335
-0.00111493
0.0042002
-0.000320419
-0.00039296
0.00040302
0.000450915
0.00135034
6.12679e-05
-0.00323398
-0.00287457
0.00200288
-0.00202771
-0.00338044
0.00234352
-0.000208175
0.000433869
5.79465e-05
-0.000632375
-0.00181107
-6.49024e-05
-0.00451302
-0.00115369
-0.000962315
0.00186573
-0.000866714
-0.000265327
-0.000376834
-0.000152292
0.00167308
0.000730522
-0.000607949
0.000104065
-0.000253719
5.10655e-05
5.24283e-05
6.98504e-05
5.50849e-05
0.00313031
0.00143962
-0.0017778
0.00123505
-0.00115571
-0.000861921
0.000540392
0.000191411
0.000115635
3.6523e-05
0.00180437
-0.000505666
0.000100147
0.000524458
-4.26839e-05
6.66271e-05
0.00138333
0.000296354
6.50019e-07
0.000320587
7.84686e-05
0.000362696
0.00139314
0.0143
-0.000408862
9.53971e-05
0.000258445
6.69623e-05
-0.000236241
-0.000338834
-4.51199e-05
-2.13396e-06
1.4071e-05
0.000734581
0.000116733
-0.000119009
1.41801e-05
5.7606e-05
-0.000102265
-0.000186537
0.00137824
0.000804804
0.000308271
7.43793e-05
0.000334346
-9.72763e-05
0.00306495
0.000100258
-1.4092e-06
-0.000725326
-0.000730601
0.000821567
0.00210396
-0.00119707
-0.00561716
0.00669684
0.00256543
-0.00572596
0.00382368
-0.00782961
0.000964467
-0.000459721
-0.00419496
0.0016898
0.00224041
-0.000105577
0.000116029
1.14085e-05
4.24175e-05
0.000309243
0.000104734
-0.000392392
-3.15349e-05
0.000390762
0.00237465
0.00375629
-6.3189e-05
-1.54514e-05
0.000129321
-0.00106816
6.51218e-06
-0.000132654
0.000389816
-0.000491335
-4.12603e-05
-0.000170913
-0.00106516
0.00177484
-0.000962399
0.0139519
0.0216562
0.0220863
0.00176278
-0.000914606
-0.00250924
-0.00290885
-0.00191765
0.000732791
-0.000281326
-1.67792e-05
-0.000370679
0.00117957
-0.00174256
0.00065341
0.00121569
-4.34974e-05
0.000127738
-0.000168378
8.2515e-05
9.18411e-05
0.00118925
0.000291303
-0.000695631
1.15641e-05
0.000233113
-0.000457331
-0.000236159
-0.000254185
0.000445495
-5.20796e-06
-0.000125276
0.000204305
-0.0284771
-0.00180039
-0.00500415
-0.00428158
-0.00467706
-0.000138829
0.000216731
6.48512e-06
-0.00166502
-0.000861262
0.000945234
-0.0046229
-0.00192753
-0.000424444
-0.000242866
0.000603003
0.000293578
-0.00370067
0.0124844
-0.0054759
0.000151353
-0.00195129
-0.00237377
0.00127652
-0.00048529
0.00532844
1.08854e-05
4.54349e-05
5.84281e-05
-8.69559e-05
-3.4859e-05
0.000308383
0.000159971
-6.9789e-05
5.65525e-05
5.36001e-05
7.18474e-05
-2.65664e-05
6.80184e-05
8.11157e-05
0.000109004
0.000226764
0.000351432
-0.000111162
8.02301e-05
5.8128e-05
-0.000524869
-0.00108122
-0.00103022
8.25667e-05
0.000797726
-0.00390069
0.00356363
-0.00133982
-0.00287494
-0.00160408
-0.00098688
-0.00315586
0.00505058
-0.00040723
5.87114e-05
0.000379395
-0.000422929
0.000224571
0.000100386
-0.00694081
0.00371469
0.000281928
0.000329188
0.000214248
0.000247111
0.000133437
-0.000741215
0.00193777
0.00066451
-0.000134411
0.00140536
5.73714e-05
7.06972e-05
-7.76077e-05
0.000875448
-1.44703e-05
-2.32482e-05
-0.000641165
0.000245895
0.0014968
-0.00074084
0.00133957
0.00404693
-6.40982e-05
0.000579649
0.000466309
-0.000204317
-0.000188851
-0.00149917
0.00110404
0.000356289
-0.000513535
0.000850278
0.00167635
-0.0036794
4.98746e-05
-0.00255824
-0.00259716
0.00120782
0.00326729
0.000593842
0.00113517
-0.000135968
0.000126724
-0.000988929
0.000153311
-0.00332445
-0.00283978
-0.00284704
-0.000162826
-5.99276e-05
0.0014809
0.000199794
-0.000917462
0.000792669
-5.25091e-05
-0.00200132
-0.00124392
-0.0037478
-0.00168809
-0.00269436
-0.000776892
-0.000384345