# vtk DataFile Version 2.0
Unstructured Grid by M++
ASCII
DATASET UNSTRUCTURED_GRID
POINTS 4072 float
  0.875000   1.000000 0
  0.875000   0.984375 0
  0.875000   0.968750 0
  0.875000   0.953125 0
  0.875000   0.937500 0
  0.875000   0.921875 0
  0.875000   0.906250 0
  0.875000   0.890625 0
  0.875000   0.875000 0
  0.875000   0.859375 0
  0.875000   0.843750 0
  0.875000   0.828125 0
  0.875000   0.812500 0
  0.875000   0.796875 0
  0.875000   0.781250 0
  0.875000   0.765625 0
  0.859375   1.000000 0
  0.859375   0.984375 0
  0.859375   0.968750 0
  0.859375   0.953125 0
  0.859375   0.937500 0
  0.859375   0.921875 0
  0.859375   0.890625 0
  0.859375   0.875000 0
  0.859375   0.859375 0
  0.859375   0.843750 0
  0.859375   0.828125 0
  0.859375   0.812500 0
  0.859375   0.796875 0
  0.859375   0.781250 0
  0.859375   0.765625 0
  0.859375   0.671875 0
  0.859375   0.656250 0
  0.859375   0.640625 0
  0.843750   1.000000 0
  0.843750   0.984375 0
  0.843750   0.968750 0
  0.843750   0.953125 0
  0.843750   0.937500 0
  0.843750   0.921875 0
  0.843750   0.906250 0
  0.843750   0.875000 0
  0.843750   0.859375 0
  0.843750   0.843750 0
  0.843750   0.828125 0
  0.843750   0.812500 0
  0.843750   0.796875 0
  0.843750   0.781250 0
  0.843750   0.765625 0
  0.843750   0.671875 0
  0.843750   0.656250 0
  0.843750   0.640625 0
  0.828125   1.000000 0
  0.828125   0.984375 0
  0.828125   0.968750 0
  0.828125   0.953125 0
  0.828125   0.937500 0
  0.828125   0.921875 0
  0.875000   0.671875 0
  0.812500   0.921875 0
  0.890625   0.656250 0
  0.828125   0.906250 0
  0.875000   0.656250 0
  0.812500   0.906250 0
  0.890625   0.640625 0
  0.828125   0.890625 0
  0.875000   0.640625 0
  0.812500   0.890625 0
  0.890625   0.625000 0
  0.828125   0.875000 0
  0.890625   0.609375 0
  0.828125   0.859375 0
  0.890625   0.593750 0
  0.828125   0.843750 0
  0.890625   0.578125 0
  0.828125   0.828125 0
  0.890625   0.562500 0
  0.828125   0.812500 0
  0.828125   0.796875 0
  0.828125   0.781250 0
  0.828125   0.765625 0
  0.828125   0.671875 0
  0.828125   0.656250 0
  0.828125   0.640625 0
  0.875000   0.750000 0
  0.812500   1.000000 0
  0.875000   0.625000 0
  0.812500   0.875000 0
  0.875000   0.734375 0
  0.812500   0.984375 0
  0.875000   0.718750 0
  0.812500   0.968750 0
  0.875000   0.703125 0
  0.812500   0.953125 0
  0.875000   0.687500 0
  0.812500   0.937500 0
  0.875000   0.609375 0
  0.812500   0.859375 0
  0.875000   0.593750 0
  0.812500   0.843750 0
  0.875000   0.578125 0
  0.812500   0.828125 0
  0.812500   0.812500 0
  0.875000   0.546875 0
  0.812500   0.796875 0
  0.812500   0.781250 0
  0.812500   0.765625 0
  0.859375   0.750000 0
  0.796875   1.000000 0
  0.859375   0.625000 0
  0.796875   0.875000 0
  0.859375   0.734375 0
  0.796875   0.984375 0
  0.859375   0.718750 0
  0.796875   0.968750 0
  0.859375   0.703125 0
  0.796875   0.953125 0
  0.859375   0.687500 0
  0.796875   0.937500 0
  0.859375   0.609375 0
  0.796875   0.859375 0
  0.859375   0.593750 0
  0.796875   0.843750 0
  0.859375   0.578125 0
  0.796875   0.828125 0
  0.859375   0.562500 0
  0.796875   0.812500 0
  0.796875   0.796875 0
  0.859375   0.531250 0
  0.796875   0.781250 0
  0.796875   0.765625 0
  0.843750   0.750000 0
  0.781250   1.000000 0
  0.843750   0.625000 0
  0.781250   0.875000 0
  0.843750   0.734375 0
  0.781250   0.984375 0
  0.843750   0.718750 0
  0.781250   0.968750 0
  0.843750   0.703125 0
  0.781250   0.953125 0
  0.843750   0.687500 0
  0.781250   0.937500 0
  0.843750   0.609375 0
  0.781250   0.859375 0
  0.843750   0.593750 0
  0.781250   0.843750 0
  0.843750   0.578125 0
  0.781250   0.828125 0
  0.781250   0.812500 0
  0.843750   0.546875 0
  0.781250   0.796875 0
  0.781250   0.781250 0
  0.843750   0.515625 0
  0.781250   0.765625 0
  0.828125   0.750000 0
  0.765625   1.000000 0
  0.828125   0.625000 0
  0.765625   0.875000 0
  0.828125   0.734375 0
  0.765625   0.984375 0
  0.828125   0.718750 0
  0.765625   0.968750 0
  0.828125   0.703125 0
  0.765625   0.953125 0
  0.828125   0.687500 0
  0.765625   0.937500 0
  0.828125   0.609375 0
  0.765625   0.859375 0
  0.828125   0.593750 0
  0.765625   0.843750 0
  0.828125   0.578125 0
  0.765625   0.828125 0
  0.828125   0.562500 0
  0.765625   0.812500 0
  0.765625   0.796875 0
  0.828125   0.531250 0
  0.765625   0.781250 0
  0.765625   0.765625 0
  0.812500   0.750000 0
  0.750000   1.000000 0
  0.953125   1.000000 0
  0.812500   0.734375 0
  0.750000   0.984375 0
  0.812500   0.718750 0
  0.750000   0.968750 0
  0.812500   0.703125 0
  0.750000   0.953125 0
  0.812500   0.687500 0
  0.750000   0.937500 0
  0.812500   0.671875 0
  0.750000   0.921875 0
  0.812500   0.656250 0
  0.750000   0.906250 0
  0.812500   0.640625 0
  0.750000   0.890625 0
  0.812500   0.625000 0
  0.750000   0.875000 0
  0.812500   0.609375 0
  0.750000   0.859375 0
  0.812500   0.593750 0
  0.750000   0.843750 0
  0.812500   0.578125 0
  0.750000   0.828125 0
  0.750000   0.812500 0
  0.812500   0.546875 0
  0.750000   0.796875 0
  0.750000   0.781250 0
  0.812500   0.515625 0
  0.750000   0.765625 0
  0.796875   0.750000 0
  0.734375   1.000000 0
  0.796875   0.734375 0
  0.734375   0.984375 0
  0.796875   0.718750 0
  0.734375   0.968750 0
  0.796875   0.703125 0
  0.734375   0.953125 0
  0.796875   0.687500 0
  0.734375   0.937500 0
  0.796875   0.671875 0
  0.734375   0.921875 0
  0.796875   0.656250 0
  0.734375   0.906250 0
  0.796875   0.640625 0
  0.734375   0.890625 0
  0.796875   0.625000 0
  0.734375   0.875000 0
  0.796875   0.609375 0
  0.734375   0.859375 0
  0.796875   0.593750 0
  0.734375   0.843750 0
  0.796875   0.578125 0
  0.734375   0.828125 0
  0.734375   0.812500 0
  0.734375   0.796875 0
  0.796875   0.531250 0
  0.734375   0.781250 0
  0.734375   0.765625 0
  0.781250   0.750000 0
  0.718750   1.000000 0
  0.921875   1.000000 0
  0.781250   0.734375 0
  0.718750   0.984375 0
  0.781250   0.718750 0
  0.718750   0.968750 0
  0.781250   0.703125 0
  0.718750   0.953125 0
  0.859375   0.906250 0
  0.781250   0.687500 0
  0.718750   0.937500 0
  0.781250   0.671875 0
  0.718750   0.921875 0
  0.781250   0.656250 0
  0.718750   0.906250 0
  0.781250   0.640625 0
  0.718750   0.890625 0
  0.781250   0.625000 0
  0.718750   0.875000 0
  0.781250   0.609375 0
  0.718750   0.859375 0
  0.781250   0.593750 0
  0.718750   0.843750 0
  0.781250   0.578125 0
  0.718750   0.828125 0
  0.781250   0.562500 0
  0.718750   0.812500 0
  0.781250   0.546875 0
  0.718750   0.796875 0
  0.781250   0.531250 0
  0.718750   0.781250 0
  0.781250   0.515625 0
  0.718750   0.765625 0
  0.765625   0.750000 0
  0.703125   1.000000 0
  0.765625   0.734375 0
  0.703125   0.984375 0
  0.765625   0.718750 0
  0.703125   0.968750 0
  0.765625   0.703125 0
  0.703125   0.953125 0
  0.765625   0.687500 0
  0.703125   0.937500 0
  0.843750   0.890625 0
  0.703125   0.921875 0
  0.765625   0.656250 0
  0.703125   0.906250 0
  0.765625   0.640625 0
  0.703125   0.890625 0
  0.765625   0.625000 0
  0.703125   0.875000 0
  0.765625   0.609375 0
  0.703125   0.859375 0
  0.765625   0.593750 0
  0.703125   0.843750 0
  0.765625   0.578125 0
  0.703125   0.828125 0
  0.765625   0.562500 0
  0.703125   0.812500 0
  0.765625   0.546875 0
  0.703125   0.796875 0
  0.765625   0.531250 0
  0.703125   0.781250 0
  0.765625   0.515625 0
  0.703125   0.765625 0
  0.750000   0.750000 0
  0.687500   1.000000 0
  0.890625   1.000000 0
  0.750000   0.734375 0
  0.687500   0.984375 0
  0.750000   0.718750 0
  0.687500   0.968750 0
  0.578125   0.796875 0
  0.578125   0.781250 0
  0.578125   0.765625 0
  0.546875   0.953125 0
  0.546875   0.968750 0
  0.546875   0.718750 0
  0.546875   0.687500 0
  0.250000   0.609375 0
  0.937500   0.031250 0
  0.046875   0.703125 0
  0.734375   0.062500 0
  0.734375   0.078125 0
  0.734375   0.046875 0
  0.046875   0.593750 0
  0.046875   0.562500 0
  0.046875   0.531250 0
  0.718750   0.156250 0
  0.046875   0.609375 0
  0.734375   0.031250 0
  0.062500   0.609375 0
  0.234375   0.703125 0
  0.718750   0.125000 0
  0.046875   0.578125 0
  0.734375   0.000000 0
  0.062500   0.578125 0
  0.000000   0.828125 0
  0.234375   0.671875 0
  0.234375   0.625000 0
  0.718750   0.093750 0
  0.687500   0.156250 0
  0.062500   0.546875 0
  0.000000   0.796875 0
  0.718750   0.046875 0
  0.031250   0.687500 0
  0.687500   0.171875 0
  0.500000   1.000000 0
  0.078125   0.218750 0
  0.234375   0.593750 0
  0.718750   0.062500 0
  0.687500   0.125000 0
  0.000000   0.765625 0
  0.421875   0.500000 0
  0.031250   0.593750 0
  0.718750   0.015625 0
  0.687500   0.234375 0
  0.015625   0.812500 0
  0.703125   0.171875 0
  0.703125   0.187500 0
  0.703125   0.140625 0
  0.015625   0.781250 0
  0.437500   0.515625 0
  0.500000   0.796875 0
  0.078125   0.015625 0
  0.687500   0.203125 0
  0.250000   0.578125 0
  0.703125   0.109375 0
  0.000000   0.515625 0
  0.500000   0.765625 0
  0.062500   0.593750 0
  0.750000   0.015625 0
  0.015625   0.843750 0
  0.687500   0.000000 0
  0.500000   0.828125 0
  0.078125   0.046875 0
  0.015625   0.531250 0
  0.250000   0.546875 0
  0.703125   0.078125 0
  0.703125   0.031250 0
  0.015625   0.671875 0
  0.250000   0.515625 0
  0.000000   0.656250 0
  0.500000   0.906250 0
  0.078125   0.125000 0
  0.687500   0.015625 0
  0.031250   0.546875 0
  0.687500   0.031250 0
  0.500000   0.859375 0
  0.703125   0.000000 0
  0.703125   0.046875 0
  0.703125   0.015625 0
  0.500000   0.937500 0
  0.234375   0.531250 0
  0.031250   0.578125 0
  0.687500   0.062500 0
  0.500000   0.890625 0
  0.031250   0.796875 0
  0.453125   0.531250 0
  0.500000   0.968750 0
  0.078125   0.187500 0
  0.234375   0.562500 0
  0.031250   0.609375 0
  0.718750   0.031250 0
  0.687500   0.093750 0
  0.750000   0.046875 0
  0.000000   0.937500 0
  0.421875   0.671875 0
  0.718750   0.187500 0
  0.031250   0.828125 0
  0.765625   0.062500 0
  0.015625   0.953125 0
[...]
CELL_DATA 7648
SCALARS scalar_value float 1
LOOKUP_TABLE default
-0.000534884
-0.0022268
-0.00129798
-0.00218945
0.000216573
0.000655002
-0.000603464
-4.79979e-05
-5.74028e-06
0.000746395
-0.000427967
-0.00219762
-0.000158965
-0.0044275
0.00565443
0.000265649
-0.00459823
0.00192986
0.00470249
3.73788e-05
0.00133726
-0.000193268
0.000507315
-5.93253e-05
0.00319741
5.27033e-05
0.00321859
-0.000185636
-7.60625e-05
0.00135642
-0.00131061
0.00386944
-0.00178805
-0.000143822
-0.00015619
1.65029e-05
-9.60133e-05
-2.31363e-05
-0.0002302
-0.000116913
-5.30684e-05
-0.00013304
0.000222182
-0.000113383
0.000150771
1.72397e-05
-0.000120051
0.000398935
-0.00348379
0.00111866
7.8721e-05
-0.000103937
-0.00154366
-0.00201439
-0.00034379
-0.000995063
-0.000931306
-0.000821923
-0.00146714
-0.000211783
-0.000224097
0.00033433
-4.71913e-06
-0.00048011
0.00110239
0.000189326
0.000793412
-0.00275663
-0.00145706
4.20689e-05
8.41546e-05
5.15989e-05
-3.29221e-05
-5.64493e-05
0.000412485
-0.00250526
0.000627291
-4.88619e-05
3.86567e-05
-0.000379302
0.000110306
0.00113609
-5.49959e-05
-0.000101216
1.70713e-05
-5.13413e-06
0.00938684
0.0065138
0.00267124
0.00277048
-0.00384989
0.000721716
0.000230219
-1.54126e-05
0.00034071
0.000349474
0.000376025
4.4635e-05
0.00197943
-0.00329723
-0.00489833
-0.000202782
5.62547e-05
0.000119793
0.000511492
0.000759223
-9.04273e-05
-0.000100584
0.00512571
0.00276918
-0.000148615
0.000155604
0.000119368
-0.000979594
-0.000325197
-0.0033691
-0.00114047
-0.0056455
-0.00575172
0.00396807
-0.00521687
0.00133502
-5.59748e-05
8.51858e-06
7.94678e-05
-8.30877e-05
5.71809e-05
-0.00183047
0.00368232
0.0051138
0.00313349
3.10109e-05
-0.00511765
1.94537e-06
8.08325e-06
-1.94194e-05
-0.00118699
0.00126705
-0.00236741
0.00207704
0.000862621
-6.27279e-05
6.67465e-05
5.65971e-05
0.00107442
7.18495e-05
0.00015355
-0.000337192
0.000187502
0.00093812
-8.83037e-06
1.24995e-05
0.000229867
0.00718821
-8.0207e-05
0.0285713
0.000737188
-0.00197607
-0.0013083
0.000221314
-0.00186624
0.000774884
0.00107166
-0.000142293
-0.000163435
-0.000369029
-0.00183833
0.000809411
0.00113857
-0.000417012
3.20004e-06
0.000254548
-3.09733e-05
-4.55168e-06
-0.00166888
0.000826439
-0.00118937
0.000134824
2.29124e-05
-0.000393392
6.21091e-05
0.000104887
-0.00165954
0.00186191
-0.000338038
-0.000165888
-0.00129776
-0.000249113
5.00667e-06
0.00014171
0.00201294
0.00146285
-0.00352931
-0.000239268
0.000106535
1.93385e-05
-4.47653e-07
0.00213037
6.03088e-05
-0.00180621
0.000298533
-0.00319138
5.51029e-05
0.000122852
9.70028e-05
0.000234413
-7.17641e-07
-0.000169262
-0.000172879
-5.25492e-05
1.38872e-05
-0.00258708
-4.10824e-05
0.000148681
0.000233821
-0.000893707
-0.000434808
0.000126897
-0.000881177
1.36799e-05
-0.000937223
0.000159213
0.0011673
-7.64958e-05
-5.97303e-05
-0.000160283
-0.000767868
0.000183365
6.06588e-05
0.00119914
0.00222359
-0.00204568
-4.61081e-05
0.000151863
1.84297e-05
8.63255e-05
0.000276599
1.81896e-05
4.84528e-05
-0.00294429
4.4195e-05
0.0050537
-0.000726271
0.000166998
0.00165941
6.37822e-05
-0.00328396
-0.00534291
-0.0048561
-0.000472839
7.69758e-05
-0.000395979
0.003084
-0.000699011
-1.92526e-05
0.000263744
6.32476e-06
-0.000477574
-0.000252149
0.000843074
-0.00306257
0.000976986
-0.000230194
-0.00114975
-0.000417406
-0.000138846
-0.00295825
0.00457553
-0.000236027
-0.00113623
-0.000766673
-1.84844e-05
-0.00023013
0.00226212
-0.000929145
0.00236103
-0.00127151
-0.00138778
0.000300719
0.000292641
-0.000834489
-0.000297457
-0.000692917
-0.00125781
-0.00304554
-0.000802965
0.000220353
0.00063581
0.00157092
-0.00091911
0.00455019
0.00112334
0.00100483
-0.00013211
0.000758618
1.27011e-05
-0.00160417
0.00267025
0.000984574
0.00101549
-0.000477482
0.000703063
-2.42406e-05
-0.00117467
0.00139394
-0.000301236
0.000216386
0.000883096
-0.000768546
-0.000699584
0.000127982
-0.00192616
-0.00297556
-0.00259932
0.000181252
0.00128762
0.00107443
-0.000953361
0.00173124
0.000505769
-2.22995e-06
6.27811e-05
0.000396621
5.59941e-05
2.93406e-05
-0.000608647
-6.95285e-05
-9.96807e-06
9.8382e-07
-3.63535e-06
-0.000381212
0.00101803
-2.11848e-05
-0.000284307
0.000562638
-4.2121e-05
5.17761e-05
0.00021443
1.8536e-05
0.000190876
-0.000246265
-0.000427212
-7.65014e-05
0.000211517
-0.000261967
0.000174959
0.000797311
0.000568091
9.74003e-05
-2.70485e-05
-0.00248243
3.94364e-05
-3.7212e-05
-8.73799e-05
-0.000531301
0.000274578
0.000331635
8.06375e-05
-0.000642457
-0.00016503
-0.00129681
-9.77583e-05
-0.00144333
4.03241e-05
0.00229316
-0.000806587
-0.00128695
0.00149633
-0.00244449
-2.54994e-06
0.00518578
0.00017388
2.16152e-05
0.000126965
-0.000854479
0.00241888
-4.66301e-05
-0.000740221
0.00329504
-0.00183247
-0.00109138
-0.00323635
0.000153873
0.000704852
0.000376104
-7.35882e-06
8.07012e-05
0.00016402
0.000666586
0.000355368
0.000317984
6.96231e-05
-0.000483988
-0.000582821
0.000906099
0.000750724
0.00451737
-0.000693841
0.000695575
-0.000627338
-0.001524
-0.00164615
0.000106832
8.34082e-06
0.000315833
5.80425e-05
0.000359435
-0.000950663
-0.000275116
-4.1798e-05
0.00511424
0.00135687
0.000262938
0.00101307
6.26018e-05
0.000144427
-0.001125
0.000156346
3.57807e-05
-0.00143875
-0.000287696
0.000449375
0.00246263
0.00101561
0.00396867
-0.000828809
-0.000100835
0.00393394
-7.91251e-05
-0.00307808
0.00810003
-0.000481494
0.00018955
-0.00149488
-0.00339812
-0.00337294
1.46103e-05
0.000277078
0.000965165
0.000181503
-0.000690376
1.30202e-05
0.00176624
0.00162804
6.14799e-05
4.75678e-05
0.00531592
0.000625601
-1.87498e-05
0.000854939
-1.35504e-05
-0.0011502
-0.000245254
-0.00113501
0.00025415
1.87022e-05
0.00124834
0.00566962
0.0104121
-0.000836682
0.00385454
0.000153305
-0.00218524
0.000296794
0.000191688
-2.49442e-06
0.000211187
-0.000522807
5.55815e-05
0.00125349
-0.000150809
0.000526172
-0.000784004
5.0212e-05
0.00653888
-0.000639851
-0.00385873
-6.47284e-05
0.00376231
-0.00053307
7.86767e-05
0.00188476
0.000211505
2.66684e-05
-0.00284374
-0.00339476
3.61855e-06
7.60145e-05
-9.24856e-05
-0.000457504
-1.13092e-07
-0.000123451
4.27537e-05
-0.000409164
0.0147149
0.000888889
0.000146804
8.93655e-06
-0.000196716
0.000218803
-5.82507e-05
4.59781e-05
9.77491e-06
0.00376223
6.39364e-05
0.000913182
0.000182302
-7.45004e-05
0.00288322
-3.21117e-05
-9.27999e-05
-1.4624e-05
4.64222e-05
0.00396616
-0.000803588
-0.00331686
7.50796e-05
0.000340182
-0.000471735
-0.000463167
-0.00487106
-0.00366469
-5.61928e-05
0.000496935
-0.00016534
5.31058e-05
0.000892272
9.65325e-06
0.000245756
-0.00253621
-0.000186489
-0.00032185
3.18169e-05
0.00020591
0.00150499
3.4967e-05
5.56223e-05
-0.000305703
0.000123959
-0.000534762
-0.000502919
0.000111652
6.09401e-05
-2.29151e-05
0.000325869
0.00154803
-0.000318469
4.67372e-05
0.00141992
0.000262419
-0.000108249
0.0012866
0.000309328
0.000793017
5.72334e-05
-0.000294034
-0.000309424
-0.000529718
0.00174345
-0.000538616
0.000584785
0.000195095
0.000273698
-0.000190252
0.00204156
0.000149465
-0.00071581
9.25799e-05
-0.00225014
-1.35183e-05
9.38714e-05
-7.24825e-05
-0.00128309
0.000562579
-0.000262332
0.000197721
0.000521246
4.22867e-05
-0.0005057
5.3143e-05
-0.000838619
-0.000183922
-0.00143214
-0.000602979
0.00018105
-0.000502813
-0.00197615
-8.56233e-05
0.000604098
0.000462925
0.000300941
0.000102884
-0.0017117
0.0217742
-3.32014e-05
3.42735e-06
0.00191041
0.00310594
-0.00143192
-0.00211221
-0.000134103
-7.26505e-05
0.000400701
0.00239257
-0.000452721
0.000134002
0.000234229
-0.000186948
6.69408e-05
-0.000157835
-0.00133442
0.00149729
0.000559086
0.0011924
-0.00114337
0.00144944
0.000381546
0.00066383
-0.000776906
0.000819114
-5.82267e-05
-0.00084214
0.000122403
6.47372e-05
-1.63599e-05
-8.40744e-06
0.00548934
2.48178e-05
-0.000468774
0.00097239
-0.000347781
7.36459e-05
0.00107377
-0.000368676
1.32865e-05
-1.80606e-05
-0.000212399
0.0144013
0.00597876
0.000216472
6.62424e-05
-0.000412871
0.000137995
0.00112568
-0.000701726
-8.00336e-05
-3.2167e-05
-0.000480032
-0.000484402
4.2611e-05
-0.000813009
0.00197104
0.00188791
0.00116301
0.00299759
-2.3803e-05
-0.00540289
0.00408745
-0.000828334
0.000457782
0.000172927
-0.000722067
0.00337245
-0.00187903
0.000439455
0.000484619
-0.00195307
0.0005663
0.000864629
0.000126735
-0.00129591
0.00118479
-0.000170276
-0.0088039
-0.000467893
-0.000847706
5.58877e-05
-0.00143358
-2.47257e-05
-2.69466e-05
-0.00296902
0.00162272
0.000897456
-0.00250168
-7.02688e-05
0.00021532
0.00172755
-0.00282807
0.0003019
-7.51693e-06
0.00153239
-4.56445e-05
0.00306011
-0.000874437
-0.000292351
-0.000833015
0.000495095
-0.000313902
-4.40521e-05
0.000106342
0.000108134
4.39592e-06
0.0021083
-0.00123921
-4.47948e-05
0.000941573
-0.000416281
-4.84116e-06
-8.78584e-06
-0.00178251
-0.00177061
-0.00234088
-0.000711165
0.00166668
-0.000312351
-0.00118179
-2.26905e-05
-0.000941855
0.00987621
-4.59197e-05
-0.00397639
-0.00239371
4.63069e-05
-0.00485325
-0.00181326
-0.00161299
-0.00117584
-0.000133355
-0.00263766
-0.000662146
0.000220738
-0.000135099
-0.000218302
0.000198626
-0.000122792
-6.07368e-05
-0.000231178
0.000167399
7.48772e-05
-3.77756e-05
3.4525e-05
8.97975e-05
-0.00021997
-0.000309828
0.00263598
0.000691337
2.78864e-05
0.000118815
-0.000273207
0.00031308
7.31763e-05
-0.00243508
1.01195e-05
-1.86802e-05
0.0180211
-1.26037e-05
0.000315342
-7.40102e-05
0.00010638
0.000809203
0.000362742
-0.000140432
-0.000808836
-0.00120645
0.000108823
0.000208275
-0.000899377
0.00016848
0.000336546
5.72917e-05
5.38117e-05
-0.000234942
-0.0036806
0.00547535
6.12015e-06
0.000251783
-5.50114e-06
0.00540074
-0.000970312
0.000128874
8.66858e-06
9.881e-05
0.000102873
-0.000280981
0.000684472
7.72129e-05
-0.000281028
-0.0037535
-3.66636e-05
-0.00131114
-0.000866452
-3.78732e-05
-0.000928606
0.000579302
0.00825033
0.00149876
-0.000309958
-0.000535988
0.000987152
0.000454805
-0.00336044
0.000666682
-0.000471581
-0.000298211
-0.00315589
0.00197411
-0.000531883
2.43593e-05
5.45894e-05
-0.000102698
-0.00012495
4.46035e-05
-7.041e-05
-0.00129361
-0.000321478
0.00646129
0.000862672
-0.00222409
3.97085e-05
0.000949718
0.00352215
-0.00566628
0.000107382
-0.00045468
-0.00519687
0.00587597
-0.000199756
0.00164309
-0.00745716
-0.00294618
4.89244e-05
0.0022827
0.00061979
7.49242e-05
-0.00263485
-0.00390312
-0.000821575
-0.000584696
0.000169673
0.00353027
-0.00106545
-0.000230972
-0.00202172
0.00210078
-0.00541682
0.000382209
-0.00184749
-0.0010844
0.000352478
-4.09235e-05
-7.76188e-05
-0.00522736
0.00169263
0.000769476
-0.000234929
-0.00018384
0.00121856
-0.000103493
0.000142434
0.000581481
-0.000180553
0.000543869
-0.00086425
6.58645e-05
0.0011597
0.000340419
-0.00106902
0.000434747
0.000162857
-0.00272885
-0.000159036
0.000606022
7.98395e-05
-7.88017e-05
1.28143e-05
-0.00170483
0.000754759
-0.0010118
0.0008059
0.00391036
0.00435628
0.00155316
-0.000307196
-1.68115e-05
-0.000110259
-0.00722888
0.00064831
-0.000821366
0.00157708
0.000100276
0.000987885
-0.00518962
2.78758e-05
0.00178471
-8.17233e-05
0.000411332
-0.00256674
7.94195e-05
1.75155e-05
0.000586814
1.72948e-06
8.44392e-05
-0.000228684
-4.54158e-05
-6.77754e-05
0.00181336
0.00467582
-0.000513535
0.00252731
0.000370905
0.00357666
0.00062993
0.000632045
0.00111926
-0.00256704
0.0021877
-0.000626482
0.000152398
0.00240331
0.000163751
0.000151804
0.000237757
0.00762075
-3.19553e-05
0.00335622
-0.0013341
-0.000249271
0.0340558
-4.81816e-05
-0.000360687
-0.00342585
-0.00105688
-0.00353514
0.000254925
-0.00361424
-4.29853e-05
0.00298039
-0.000321479
0.00176195
2.17791e-05
0.000368566
-1.60261e-05
-0.000748041
0.0191903
0.000100733
-0.00138931
-0.000163629
8.0771e-06
0.000691701
3.51293e-05
-0.00363438
-6.2487e-05
0.00162838
0.00166359
0.000475135
0.00104181
-0.000177802
-0.00218401
-0.000517148
-0.000101562
-0.000104358
2.25496e-05
-0.00255694
4.61648e-05
0.000108806
-0.0022341
-3.91418e-05
4.36158e-06
0.000133324
-0.000468931
8.54624e-05
-0.00014693
2.87161e-05
-4.84702e-05
8.59443e-05
-0.00411306
-0.0055778
-0.000232612
-0.00266264
-0.00245876
-0.00155315
-0.00211161
1.48132e-05
0.00414591
-0.00405918
-0.000356803
0.000786816
-0.00345872
7.04579e-05
-0.000556962
-0.00365548
0.00207976
0.00148461
-0.000177012
-0.000419607
9.59541e-05
0.000129049
-0.000212896
0.0035005
-0.000111139
0.0129986
-0.000201445
0.000293419
0.000234036
-3.71302e-05
0.00544829
-0.00412199
-0.00241802
0.00168314
-0.00300977
0.000520623
0.000200362
0.000138907
-0.00117821
-0.00178849
-0.000498507
4.33589e-05
-7.88398e-05
-1.1991e-05
0.000345253
0.00346422
-0.00175534
0.00128532
0.00228152
-0.00591174
-5.90979e-05
-2.9677e-05
0.00659526
-0.00079189
7.32415e-06
0.0095753
-0.0109992
-0.000134448
-0.00230021
6.30693e-06
-2.29689e-05
0.0014847
-6.09788e-05
-0.0002472
-0.00112699
3.54345e-05
-0.00103472
-0.000308502
0.000466893
-0.00257082
-0.000388923
0.000153691
-0.000233338
-1.47949e-05
0.000201109
0.000162532
2.17306e-05
0.000417311
-4.52947e-05
-9.56257e-05
0.00182201
-7.97476e-06
6.09025e-05
-0.000506084
-0.000646829
-0.000118047
-0.000271523
1.51225e-05
-1.03513e-05
-0.00014848
1.68607e-05
-0.00608467
0.0111119
-0.00293398
-2.50028e-05
0.000498735
0.000108287
-0.000662143
-0.00382459
-0.000526473
0.000572307
0.000482446
-0.00134566
0.000823056
0.00171359
-0.00109806
-1.55532e-05
-4.59105e-05
-0.000386192
0.00161408
-9.48502e-05
0.0046237
-0.000246499
-0.00108438
0.00433126
0.000206813
-0.000884694
-0.000158647
-0.000350988
0.00178369
0.00553898
0.000220901
9.18922e-05
0.00231487
-0.000516215
-0.00233605
1.29707e-05
0.000428635
9.01857e-05
-0.000405454
0.00506601
-0.0021075
0.00106921
0.000177148
-0.00122871
2.79327e-06
0.000107095
0.00139566
-0.000282283
0.000236701
0.0137956
6.73578e-06
0.000829754
2.22018e-05
0.0010128
0.000777322
-0.000370322
0.00534939
0.000485851
0.000200689
-0.000543434
4.96831e-05
0.000172628
-0.00336031
0.00459986
-6.98529e-05
-0.0018029
0.000281644
8.76406e-05
8.01141e-05
7.11659e-05
5.66848e-05
0.000105872
-6.68717e-05
-0.000158959
-0.000104565
-6.92937e-05
-3.60234e-05
-9.69359e-05
-0.000149489
0.000986043
-0.000226195
-0.000441992
4.97729e-05
-5.69046e-05
0.00294405
0.00495166
0.00722056
0.00147423
-0.000310019
0.000333889
9.21429e-05
0.000168573
-8.69658e-05
-2.83256e-06
1.55708e-05
0.0017814
1.00374e-05
1.83768e-05
-0.00296446
-0.000366622
-0.000464534
0.000562378
-0.00124698
0.000362205
-0.00169763
-0.00681319
0.00755391
-0.00147626
-0.00606564
0.00136467
0.000422367
-0.00432752
0.000464076
0.000519553
-0.00141664
0.00394781
-0.000420432
-0.000566066
0.000821552
4.93088e-05
0.000659904
0.000345464
0.00157756
-9.10543e-05
-6.61387e-05
0.000121068
-0.000247113
4.66723e-05
0.00119173
0.00061992
0.000106796
0.00022107
-0.00238576
0.000167362
0.000600462
-0.000776476
-4.24606e-05
-2.48722e-05
0.0016055
-0.00182143
-0.00362039
-0.00270042
-0.00359476
-0.00404855
-0.00651428
-0.00330809
-2.30631e-05
-0.000396564
0.00555075
0.00418293
0.00599319
0.0119453
0.000182531
-0.000743048
-4.95491e-05
0.000221877
-5.5374e-05
-0.00026648
1.01349e-05
-6.8769e-05
2.08208e-05
0.000495986
7.23434e-05
0.000624948
-0.00045506
-0.00140414
-0.00187687
-0.000422814
9.08375e-06
-0.00195383
-0.000681645
0.000548707
-0.000622901
0.000147932
0.000214604
-0.000209705
-0.000518454
0.000129815
-0.000119215
-6.33336e-05
-0.000563635
-0.000768552
-0.000173349
9.34957e-05
-0.000628936
0.000586721
5.98522e-05
0.000426781
-4.28294e-05
-0.00197061
0.000110482
0.000835948
0.000597714
-0.000484673
0.000689619
6.93382e-05
0.000185587
6.56432e-05
0.000192996
-0.000592304
8.9811e-05
-0.000352479
9.17654e-06
0.000702195
-0.00735625
0.000275957
0.00136837
-0.00293813
-0.00434664
-0.00223283
8.26581e-07
6.75946e-05
-0.00151675
-0.00144445
-0.00532721
-2.158e-06
-2.15663e-05
-2.84026e-05
0.000169857
-0.000952426
6.04339e-05
0.00011504
-5.83933e-05
3.21962e-05
-0.00021285
0.000202173
0.00171114
0.00145942
0.000792757
0.000734004
-0.000111157
4.01815e-05
-0.00279448
-0.00151009
0.00222478
-0.000972238
7.92232e-06
0.00266772
0.00207068
-0.000146143
-0.000280696
-0.000221913
-0.000288863
0.000483551
8.07999e-05
0.000364175
-0.00110929
0.0010219
0.000227338
-0.000394183
0.000112287
0.0311839
-0.000124885
8.42758e-05
4.2003e-05
-6.78919e-05
0.00731176
0.000547609
0.000762625
-4.07008e-05
-0.000490891
0.00393802
0.00273554
0.00295184
0.00107308
-0.000781663
0.000581628
0.000134706
-0.000542566
0.000656973
-0.00105151
-0.00119839
0.000272978
0.00030692
-9.21793e-05
-3.39225e-05
0.00108664
-0.000988941
0.00189291
-0.000410064
-0.000182167
0.000528452
-0.00121521
-2.83595e-05
0.00184539
3.6583e-05
-6.07312e-05
-0.00101926
-0.0044782
0.00799971
0.0047706
0.00638942
-0.00480681
-0.00132468
-0.000367245
0.000400915
8.1992e-05
-0.000550288
0.00153227
-0.000871169
0.00404137
0.000133833
-4.76045e-05
0.00017801
0.00077051
0.00178388
5.88483e-06
-0.00230916
0.000901544
-0.000256452
-0.00521177
0.00264448
7.77223e-06
0.000443638
0.00151273
8.20468e-05
0.00541311
0.00392724
0.00196789
-0.00635615
-0.000889016
-0.00311727
0.000128687
-0.00110588
-9.73516e-05
-0.000218784
-9.52036e-05
0.000254887
-0.000246925
-9.80375e-05
0.000363281
-7.0796e-05
0.000237391
9.89066e-05
0.000104394
1.39599e-05
0.00143634
0.000643003
-0.00148335
0.000851014
-0.00141111
0.00069106
0.000221029
0.000590391
6.23556e-05
0.000119196
0.000734998
-0.000686641
-0.00113674
0.000255032
-0.000146815
-0.00027806
0.000849982
0.000475875
0.00015857
0.000160784
5.40994e-05
0.00229477
0.00142202
0.00780323
-0.000625752
0.000111714
9.88371e-05
0.000160347
-0.000315951
-0.000342165
-0.000143684
4.07071e-05
0.0001127
0.000523581
7.14576e-05
0.00108684
-9.91751e-05
8.74782e-05
1.68425e-05
5.796e-05
4.14355e-05
-0.000105295
-0.000166311
-0.00052488
0.000354374
-8.87392e-05
0.00216397
0.000104556
8.01335e-06
0.000837745
-7.89531e-05
0.00077424
0.00415548
-0.00104314
-0.00139483
0.00584113
0.00157059
-0.00716351
0.00602369
-0.005355
0.00136368
-0.000122705
-0.00316558
0.00295044
0.000990546
-0.000187183
0.000145191
-6.94247e-05
-4.17513e-05
-0.00128246
-0.00251751
-0.0011929
3.00526e-05
-0.000236025
0.00451202
0.00595915
-0.000311661
2.63644e-05
0.000305545
0.000743803
0.000127283
0.000606558
5.0335e-05
-0.000259126
0.000187192
-0.00163749
-0.000810795
0.00400707
-0.00377412
0.0266586
0.0387599
0.0333423
0.00146381
-0.00284969
-0.00410581
-0.0034241
-0.00427312
0.0028303
-0.00012536
-0.000137607
0.000127465
0.00185985
-0.00130867
0.00135029
0.00133107
-2.01713e-05
9.9906e-05
-0.000635171
0.000110154
-0.00122239
0.000900662
-7.83641e-05
-0.000844535
0.000184036
0.000494403
0.000199932
1.33317e-05
-0.000101856
0.000749293
2.17697e-05
-0.000322911
-0.000286571
-0.0365313
-0.00300584
-0.00553169
-0.00625767
-0.00534787
-0.00051738
-0.000323588
0.000279354
-0.00180079
-0.00097953
0.00113965
-0.00610833
0.00223287
0.00153244
8.92598e-05
1.86959e-05
-3.11665e-05
-0.00142177
0.0255333
-0.0067105
0.000230266
-0.00354463
-0.00248941
0.00344224
0.000297964
0.0141408
7.16152e-05
3.40817e-06
4.10383e-06
-5.2268e-05
6.45491e-06
-8.14698e-05
-9.46352e-05
-6.90211e-05
2.14988e-05
4.40799e-05
3.11559e-05
3.05716e-05
3.16543e-05
8.11108e-06
-2.2126e-05
0.000161746
6.97257e-05
9.13846e-05
-0.000317585
-0.000240242
-0.00129966
-0.00145995
-0.00106701
0.000170233
-0.00345551
-0.00581845
-0.00102381
-0.00170937
-0.00342936
-0.00212898
-0.000607685
-0.0029795
0.005467
0.00141805
-5.36579e-06
0.000348206
-0.000519392
0.00019606
0.00223498
-0.00710681
0.00371182
0.000712009
0.000378457
0.000248677
0.000305188
0.000201194
0.00222245
0.00103153
-0.00390646
0.000652295
-0.00165014
0.00282158
9.95591e-05
-4.41294e-05
0.00180214
4.94223e-05
3.72618e-05
0.000578524
0.0019687
0.00233745
0.00174434
0.00288544
0.000937164
-4.12048e-05
0.000505356
0.000592463
0.000192119
5.20441e-06
-0.00359255
-0.000509382
0.000178801
-0.000674797
2.23096e-05
0.000323219
-0.000983087
-4.61341e-05
-0.00233489
-0.00178948
0.00287139
0.0019073
0.0036562
0.00107084
-0.000734924
2.87207e-05
-0.000490816
-0.000281432
-0.00621052
-0.00246178
-0.00482087
-0.000887954
0.000429328
-0.000303098
-0.000297262
-0.000783691
0.000751074
-0.000416597
0.000252262
0.00045052
-0.00370512
-0.00154887
-0.00331442
0.000511357
0.000223648
0.000376143
0.000148786
0.00312232
-0.00105427