# vtk DataFile Version 2.0
Unstructured Grid by M++
ASCII
DATASET UNSTRUCTURED_GRID
POINTS 4072 float
  0.875000   1.000000 0
  0.875000   0.984375 0
  0.875000   0.968750 0
  0.875000   0.953125 0
  0.875000   0.937500 0
  0.875000   0.921875 0
  0.875000   0.906250 0
  0.875000   0.890625 0
  0.875000   0.875000 0
  0.875000   0.859375 0
  0.875000   0.843750 0
  0.875000   0.828125 0
  0.875000   0.812500 0
  0.875000   0.796875 0
  0.875000   0.781250 0
  0.875000   0.765625 0
  0.859375   1.000000 0
  0.859375   0.984375 0
  0.859375   0.968750 0
  0.859375   0.953125 0
  0.859375   0.937500 0
  0.859375   0.921875 0
  0.859375   0.890625 0
  0.859375   0.875000 0
  0.859375   0.859375 0
  0.859375   0.843750 0
  0.859375   0.828125 0
  0.859375   0.812500 0
  0.859375   0.796875 0
  0.859375   0.781250 0
  0.859375   0.765625 0
  0.859375   0.671875 0
  0.859375   0.656250 0
  0.859375   0.640625 0
  0.843750   1.000000 0
  0.843750   0.984375 0
  0.843750   0.968750 0
  0.843750   0.953125 0
  0.843750   0.937500 0
  0.843750   0.921875 0
  0.843750   0.906250 0
  0.843750   0.875000 0
  0.843750   0.859375 0
  0.843750   0.843750 0
  0.843750   0.828125 0
  0.843750   0.812500 0
  0.843750   0.796875 0
  0.843750   0.781250 0
  0.843750   0.765625 0
  0.843750   0.671875 0
  0.843750   0.656250 0
  0.843750   0.640625 0
  0.828125   1.000000 0
  0.828125   0.984375 0
  0.828125   0.968750 0
  0.828125   0.953125 0
  0.828125   0.937500 0
  0.828125   0.921875 0
  0.875000   0.671875 0
  0.812500   0.921875 0
  0.890625   0.656250 0
  0.828125   0.906250 0
  0.875000   0.656250 0
  0.812500   0.906250 0
  0.890625   0.640625 0
  0.828125   0.890625 0
  0.875000   0.640625 0
  0.812500   0.890625 0
  0.890625   0.625000 0
  0.828125   0.875000 0
  0.890625   0.609375 0
  0.828125   0.859375 0
  0.890625   0.593750 0
  0.828125   0.843750 0
  0.890625   0.578125 0
  0.828125   0.828125 0
  0.890625   0.562500 0
  0.828125   0.812500 0
  0.828125   0.796875 0
  0.828125   0.781250 0
  0.828125   0.765625 0
  0.828125   0.671875 0
  0.828125   0.656250 0
  0.828125   0.640625 0
  0.875000   0.750000 0
  0.812500   1.000000 0
  0.875000   0.625000 0
  0.812500   0.875000 0
  0.875000   0.734375 0
  0.812500   0.984375 0
  0.875000   0.718750 0
  0.812500   0.968750 0
  0.875000   0.703125 0
  0.812500   0.953125 0
  0.875000   0.687500 0
  0.812500   0.937500 0
  0.875000   0.609375 0
  0.812500   0.859375 0
  0.875000   0.593750 0
  0.812500   0.843750 0
  0.875000   0.578125 0
  0.812500   0.828125 0
  0.812500   0.812500 0
  0.875000   0.546875 0
  0.812500   0.796875 0
  0.812500   0.781250 0
  0.812500   0.765625 0
  0.859375   0.750000 0
  0.796875   1.000000 0
  0.859375   0.625000 0
  0.796875   0.875000 0
  0.859375   0.734375 0
  0.796875   0.984375 0
  0.859375   0.718750 0
  0.796875   0.968750 0
  0.859375   0.703125 0
  0.796875   0.953125 0
  0.859375   0.687500 0
  0.796875   0.937500 0
  0.859375   0.609375 0
  0.796875   0.859375 0
  0.859375   0.593750 0
  0.796875   0.843750 0
  0.859375   0.578125 0
  0.796875   0.828125 0
  0.859375   0.562500 0
  0.796875   0.812500 0
  0.796875   0.796875 0
  0.859375   0.531250 0
  0.796875   0.781250 0
  0.796875   0.765625 0
  0.843750   0.750000 0
  0.781250   1.000000 0
  0.843750   0.625000 0
  0.781250   0.875000 0
  0.843750   0.734375 0
  0.781250   0.984375 0
  0.843750   0.718750 0
  0.781250   0.968750 0
  0.843750   0.703125 0
  0.781250   0.953125 0
  0.843750   0.687500 0
  0.781250   0.937500 0
  0.843750   0.609375 0
  0.781250   0.859375 0
  0.843750   0.593750 0
  0.781250   0.843750 0
  0.843750   0.578125 0
  0.781250   0.828125 0
  0.781250   0.812500 0
  0.843750   0.546875 0
  0.781250   0.796875 0
  0.781250   0.781250 0
  0.843750   0.515625 0
  0.781250   0.765625 0
  0.828125   0.750000 0
  0.765625   1.000000 0
  0.828125   0.625000 0
  0.765625   0.875000 0
  0.828125   0.734375 0
  0.765625   0.984375 0
  0.828125   0.718750 0
  0.765625   0.968750 0
  0.828125   0.703125 0
  0.765625   0.953125 0
  0.828125   0.687500 0
  0.765625   0.937500 0
  0.828125   0.609375 0
  0.765625   0.859375 0
  0.828125   0.593750 0
  0.765625   0.843750 0
  0.828125   0.578125 0
  0.765625   0.828125 0
  0.828125   0.562500 0
  0.765625   0.812500 0
  0.765625   0.796875 0
  0.828125   0.531250 0
  0.765625   0.781250 0
  0.765625   0.765625 0
  0.812500   0.750000 0
  0.750000   1.000000 0
  0.953125   1.000000 0
  0.812500   0.734375 0
  0.750000   0.984375 0
  0.812500   0.718750 0
  0.750000   0.968750 0
  0.812500   0.703125 0
  0.750000   0.953125 0
  0.812500   0.687500 0
  0.750000   0.937500 0
  0.812500   0.671875 0
  0.750000   0.921875 0
  0.812500   0.656250 0
  0.750000   0.906250 0
  0.812500   0.640625 0
  0.750000   0.890625 0
  0.812500   0.625000 0
  0.750000   0.875000 0
  0.812500   0.609375 0
  0.750000   0.859375 0
  0.812500   0.593750 0
  0.750000   0.843750 0
  0.812500   0.578125 0
  0.750000   0.828125 0
  0.750000   0.812500 0
  0.812500   0.546875 0
  0.750000   0.796875 0
  0.750000   0.781250 0
  0.812500   0.515625 0
  0.750000   0.765625 0
  0.796875   0.750000 0
  0.734375   1.000000 0
  0.796875   0.734375 0
  0.734375   0.984375 0
  0.796875   0.718750 0
  0.734375   0.968750 0
  0.796875   0.703125 0
  0.734375   0.953125 0
  0.796875   0.687500 0
  0.734375   0.937500 0
  0.796875   0.671875 0
  0.734375   0.921875 0
  0.796875   0.656250 0
  0.734375   0.906250 0
  0.796875   0.640625 0
  0.734375   0.890625 0
  0.796875   0.625000 0
  0.734375   0.875000 0
  0.796875   0.609375 0
  0.734375   0.859375 0
  0.796875   0.593750 0
  0.734375   0.843750 0
  0.796875   0.578125 0
  0.734375   0.828125 0
  0.734375   0.812500 0
  0.734375   0.796875 0
  0.796875   0.531250 0
  0.734375   0.781250 0
  0.734375   0.765625 0
  0.781250   0.750000 0
  0.718750   1.000000 0
  0.921875   1.000000 0
  0.781250   0.734375 0
  0.718750   0.984375 0
  0.781250   0.718750 0
  0.718750   0.968750 0
  0.781250   0.703125 0
  0.718750   0.953125 0
  0.859375   0.906250 0
  0.781250   0.687500 0
  0.718750   0.937500 0
  0.781250   0.671875 0
  0.718750   0.921875 0
  0.781250   0.656250 0
  0.718750   0.906250 0
  0.781250   0.640625 0
  0.718750   0.890625 0
  0.781250   0.625000 0
  0.718750   0.875000 0
  0.781250   0.609375 0
  0.718750   0.859375 0
  0.781250   0.593750 0
  0.718750   0.843750 0
  0.781250   0.578125 0
  0.718750   0.828125 0
  0.781250   0.562500 0
  0.718750   0.812500 0
  0.781250   0.546875 0
  0.718750   0.796875 0
  0.781250   0.531250 0
  0.718750   0.781250 0
  0.781250   0.515625 0
  0.718750   0.765625 0
  0.765625   0.750000 0
  0.703125   1.000000 0
  0.765625   0.734375 0
  0.703125   0.984375 0
  0.765625   0.718750 0
  0.703125   0.968750 0
  0.765625   0.703125 0
  0.703125   0.953125 0
  0.765625   0.687500 0
  0.703125   0.937500 0
  0.843750   0.890625 0
  0.703125   0.921875 0
  0.765625   0.656250 0
  0.703125   0.906250 0
  0.765625   0.640625 0
  0.703125   0.890625 0
  0.765625   0.625000 0
  0.703125   0.875000 0
  0.765625   0.609375 0
  0.703125   0.859375 0
  0.765625   0.593750 0
  0.703125   0.843750 0
  0.765625   0.578125 0
  0.703125   0.828125 0
  0.765625   0.562500 0
  0.703125   0.812500 0
  0.765625   0.546875 0
  0.703125   0.796875 0
  0.765625   0.531250 0
  0.703125   0.781250 0
  0.765625   0.515625 0
  0.703125   0.765625 0
  0.750000   0.750000 0
  0.687500   1.000000 0
  0.890625   1.000000 0
  0.750000   0.734375 0
  0.687500   0.984375 0
  0.750000   0.718750 0
  0.687500   0.968750 0
  0.578125   0.796875 0
  0.578125   0.781250 0
  0.578125   0.765625 0
  0.546875   0.953125 0
  0.546875   0.968750 0
  0.546875   0.718750 0
  0.546875   0.687500 0
  0.250000   0.609375 0
  0.937500   0.031250 0
  0.046875   0.703125 0
  0.734375   0.062500 0
  0.734375   0.078125 0
  0.734375   0.046875 0
  0.046875   0.593750 0
  0.046875   0.562500 0
  0.046875   0.531250 0
  0.718750   0.156250 0
  0.046875   0.609375 0
  0.734375   0.031250 0
  0.062500   0.609375 0
  0.234375   0.703125 0
  0.718750   0.125000 0
  0.046875   0.578125 0
  0.734375   0.000000 0
  0.062500   0.578125 0
  0.000000   0.828125 0
  0.234375   0.671875 0
  0.234375   0.625000 0
  0.718750   0.093750 0
  0.687500   0.156250 0
  0.062500   0.546875 0
  0.000000   0.796875 0
  0.718750   0.046875 0
  0.031250   0.687500 0
  0.687500   0.171875 0
  0.500000   1.000000 0
  0.078125   0.218750 0
  0.234375   0.593750 0
  0.718750   0.062500 0
  0.687500   0.125000 0
  0.000000   0.765625 0
  0.421875   0.500000 0
  0.031250   0.593750 0
  0.718750   0.015625 0
  0.687500   0.234375 0
  0.015625   0.812500 0
  0.703125   0.171875 0
  0.703125   0.187500 0
  0.703125   0.140625 0
  0.015625   0.781250 0
  0.437500   0.515625 0
  0.500000   0.796875 0
  0.078125   0.015625 0
  0.687500   0.203125 0
  0.250000   0.578125 0
  0.703125   0.109375 0
  0.000000   0.515625 0
  0.500000   0.765625 0
  0.062500   0.593750 0
  0.750000   0.015625 0
  0.015625   0.843750 0
  0.687500   0.000000 0
  0.500000   0.828125 0
  0.078125   0.046875 0
  0.015625   0.531250 0
  0.250000   0.546875 0
  0.703125   0.078125 0
  0.703125   0.031250 0
  0.015625   0.671875 0
  0.250000   0.515625 0
  0.000000   0.656250 0
  0.500000   0.906250 0
  0.078125   0.125000 0
  0.687500   0.015625 0
  0.031250   0.546875 0
  0.687500   0.031250 0
  0.500000   0.859375 0
  0.703125   0.000000 0
  0.703125   0.046875 0
  0.703125   0.015625 0
  0.500000   0.937500 0
  0.234375   0.531250 0
  0.031250   0.578125 0
  0.687500   0.062500 0
  0.500000   0.890625 0
  0.031250   0.796875 0
  0.453125   0.531250 0
  0.500000   0.968750 0
  0.078125   0.187500 0
  0.234375   0.562500 0
  0.031250   0.609375 0
  0.718750   0.031250 0
  0.687500   0.093750 0
  0.750000   0.046875 0
  0.000000   0.937500 0
  0.421875   0.671875 0
  0.718750   0.187500 0
  0.031250   0.828125 0
  0.765625   0.062500 0
  0.015625   0.953125 0
[...]
CELL_DATA 7648
SCALARS scalar_value float 1
LOOKUP_TABLE default
0.00156599
-0.00170069
-0.00239169
0.000741104
-0.000573012
-7.98082e-05
-0.000490198
-0.000326276
0.000369904
0.000860772
-0.000541655
-0.00294991
-0.00113018
0.000765605
0.00327833
0.000590361
-0.00509027
0.0041729
0.00419691
-9.30463e-06
0.000402002
-0.000272967
0.000228996
-8.18054e-05
0.00291904
0.000585052
0.00477667
0.00165994
0.00119553
0.000476901
-0.000386395
0.0012008
-0.000928894
-8.17606e-05
-0.000136768
5.43871e-05
-0.000142244
-3.72794e-05
-0.000230422
-0.000140779
-0.00010681
-0.000166728
-0.000501509
-0.00014172
7.11446e-05
5.45557e-05
-0.000424979
-8.31147e-05
-0.00149115
2.7789e-05
5.89567e-05
-9.12959e-05
-0.00081744
-0.000259705
-0.000304582
-0.000925593
-0.00073574
-0.000670504
-0.00274687
-0.000376596
-9.18777e-05
0.000320396
-9.65817e-05
-0.000199693
0.0017131
8.28223e-05
0.0032547
-0.00102081
-0.00112859
3.14472e-05
3.03622e-05
5.64575e-05
-0.000169929
-0.00018735
-0.000140126
-0.00153375
0.000415471
-0.000429813
-0.000428955
-0.000571581
0.000104068
0.000983307
0.000983421
1.15793e-05
-1.96503e-05
1.05313e-05
0.0104892
0.00510057
0.00336772
0.00433512
-0.00138316
0.000704011
3.63395e-05
9.34464e-05
0.000423997
0.000172846
0.00112693
1.13742e-05
0.000782385
-0.000587218
-0.00427261
-0.00018243
-0.000196099
-9.08538e-05
0.00129484
0.00833201
-6.72936e-05
0.000247794
0.00379221
0.00295425
-9.23735e-05
1.47061e-05
-9.28853e-05
-0.000605889
-0.000883057
-0.00256728
-0.000866246
-0.00566843
-0.00567909
0.0016177
-0.00595558
0.00100645
-0.000669005
-1.63012e-05
-0.000121671
-7.17381e-05
5.93037e-05
-0.000386791
0.00052383
0.00224322
0.00233814
4.905e-05
-0.00430299
-4.85643e-05
-4.26157e-05
-1.98847e-05
-0.00154619
0.000922228
-0.00119259
0.00181124
0.000529562
-0.000130678
-6.43981e-05
3.67395e-05
0.000428796
-5.24744e-05
-0.000180878
-0.00016616
-0.000308293
0.00037938
-5.58032e-07
1.44612e-05
0.000200397
-0.00213273
-0.000153887
0.0341647
0.000519178
-0.00199454
-0.00126271
0.000238747
-0.00220466
0.000455716
0.000985413
-1.98306e-05
-0.000324513
1.00519e-05
-0.00119583
0.000627014
0.00122762
0.000144521
9.11687e-05
0.000273272
-5.11638e-05
-6.37497e-06
-0.00128041
0.000378942
-0.000394793
6.05687e-05
7.45738e-06
-0.000422026
2.10194e-05
0.000128107
-0.00143259
0.00349448
7.25075e-05
0.00138341
0.000234624
0.000155254
2.30285e-06
0.000281003
0.0023874
0.00144014
-0.00163181
-0.000485699
9.3421e-05
3.71043e-05
-4.44848e-05
0.00220877
0.000179763
-0.00162977
0.000298429
-0.00388149
-9.73312e-05
-0.000150894
0.000639994
0.000161021
-0.000125764
-0.000229465
-0.000975426
5.09287e-05
0.000174982
-0.00239672
-9.33206e-05
0.000151034
-5.14325e-05
-0.000108547
-0.000569209
0.000203532
-0.000754576
3.09393e-05
-0.000642543
3.95446e-05
0.0011867
-3.1831e-05
-9.41174e-05
0.00198556
-0.000387025
0.000230839
0.000223706
-0.000752891
3.32667e-05
-0.00163692
-0.000276626
0.000118265
4.09992e-06
3.37301e-05
0.000274775
-2.58825e-05
3.56115e-05
-0.00528465
-7.30032e-06
-0.00149102
6.16402e-05
0.000357058
0.00210903
-9.06102e-05
0.000162727
-0.00487555
-0.00135895
-0.000510046
-1.37639e-06
-0.000338381
0.00367563
-0.000511807
-4.44822e-05
2.70955e-05
0.000158853
-0.00046107
0.000276962
0.000694866
-0.00333823
0.00151557
0.000843397
0.00038547
0.000356335
-0.000281077
-0.00121412
0.00177505
-0.00101039
0.0014393
-0.000527343
0.000133143
-0.000233086
0.00336683
-0.000643946
0.00165779
0.00069392
-0.00020053
0.000763516
0.000427755
-0.000525625
-0.000189447
0.000464339
0.000310359
-0.00503056
0.000830052
-0.00135581
0.000615248
0.000326862
-0.000247295
0.00197787
-0.00175403
-0.00197994
1.85405e-05
0.000514322
-0.000265745
-0.000285793
0.000611677
-0.00103376
-0.0018377
-0.000562252
0.000745483
6.0615e-05
-0.000443681
0.000745105
-0.00182335
0.000113818
0.000359357
-0.00102149
-0.00104954
0.000105916
-0.000669903
-0.000769439
-0.00131353
0.000481128
0.00102563
0.00121623
-0.000730871
0.00117931
0.000471778
-8.60727e-06
0.000112115
0.000436996
7.86304e-06
0.000115019
0.00251505
-8.07992e-05
2.94173e-05
-2.71214e-05
1.11026e-05
-0.000398796
0.000893784
5.24197e-05
-0.000268454
0.000592369
0.000148598
-5.14106e-05
0.00015274
-7.08281e-05
0.000182674
-0.000100428
-0.000286832
-8.27222e-05
0.000153368
-5.77746e-05
-0.000115876
-5.97452e-05
0.000524983
4.71787e-05
-4.39197e-05
-0.00241928
-9.19896e-05
0.000188264
-0.000167716
-0.000331852
0.000165408
0.000231616
0.000231051
-0.000516548
0.000393116
-0.00164321
-5.21697e-05
-0.00057273
1.33177e-05
0.000992866
-0.000454306
-0.00222838
0.00205087
-0.000709387
2.42711e-05
0.00593806
1.18976e-06
-8.12577e-05
0.000604338
-0.000563297
0.00309849
-0.00020384
-0.000478529
0.00213076
-0.00168281
-0.000679452
-0.00384253
-0.000109448
0.00118951
0.000929943
-8.72296e-05
2.40993e-05
0.000268601
0.000359956
0.00147839
0.000499087
-2.03911e-05
-0.000315201
-0.000247221
0.00085703
0.000767619
0.00305823
-0.000681393
0.000985346
-0.000460539
-0.00138993
-0.00262835
8.46283e-05
-1.1245e-05
0.000340668
0.000112033
0.00044351
-0.000683683
-5.97006e-05
1.75152e-05
0.0017628
0.00192664
5.55166e-05
0.00148872
0.000932195
-0.00441972
-9.42746e-05
4.19615e-05
-0.000210225
-0.00127122
-1.5551e-05
0.000612988
0.000309725
0.00026927
0.00406484
-0.000513871
-7.74981e-05
-0.00427326
0.000202948
-0.00555177
0.00716186
-0.00118934
0.000168135
-0.00123174
-0.000597632
-0.00249032
-4.92961e-05
0.000349075
0.000737087
0.000103674
-0.00192522
-1.69276e-05
0.00108587
0.00131783
0.00011646
-3.17962e-05
0.00315594
-0.000139529
-9.34143e-06
0.000466425
-0.000101786
-0.00418996
-0.000210562
-0.000574588
0.000199072
1.05162e-05
0.0010447
0.00483229
0.00481469
-0.0010876
0.00433089
-1.57148e-05
-0.000323799
0.000289203
0.000457489
-1.27639e-05
-5.72943e-05
-6.65138e-05
3.69625e-05
0.00080505
0.00113457
9.61699e-05
-0.000340099
0.000146988
0.00367409
0.000733238
-0.00355643
-0.00010299
0.00360194
-0.000766629
5.76427e-05
0.00190774
0.000176999
0.000257603
-0.00336684
-0.00373846
-4.49278e-05
4.065e-05
-0.000193176
-0.00024188
2.69033e-05
2.85658e-05
-0.000234268
0.00198435
0.00475325
-0.00318304
-0.000102466
-2.82108e-05
-2.51672e-05
0.000114939
-1.17373e-05
6.95269e-05
-4.06527e-05
0.00332025
-0.000196427
-0.000198954
0.00030521
-6.39679e-05
0.000858468
-3.9701e-05
1.90754e-05
-5.43426e-05
1.18033e-05
0.00679869
-0.00132634
-0.00255703
1.46268e-05
0.000384523
-0.000548009
-0.000474734
-0.00521453
-0.00122096
-9.98107e-05
-6.45067e-05
9.7075e-05
2.2923e-05
0.000676978
1.70855e-05
-0.00117181
0.000795367
0.000620637
-0.000353596
0.000130563
0.0011746
0.00108025
-1.00129e-05
2.3302e-05
-0.000269664
-0.00364781
0.000291223
-0.0005375
1.88447e-05
0.000228018
-0.000143487
0.00118147
0.00093078
-0.00163842
-0.000864714
-0.000870836
0.000155771
-0.000396116
0.000703401
-8.65742e-05
0.000282649
-2.28261e-05
-0.00013188
-0.000376389
-0.00028919
0.00353331
-0.000272341
0.000351483
-0.00114497
6.11881e-05
0.00236526
0.00201248
0.000122976
0.000439031
2.96545e-05
-0.000621161
7.30639e-05
0.000125546
-7.91928e-05
-0.00323087
0.00043348
-0.000196413
0.000920769
-0.000167523
0.000101775
-0.000560038
0.00010012
-0.000984663
-0.000317587
-0.00105009
-0.000172875
9.6562e-05
-0.000689301
-0.000999258
4.99165e-06
0.000611244
0.000256991
0.000173112
-1.38656e-05
-0.0016407
0.0317226
2.05392e-05
-3.26176e-05
0.0036589
0.00435275
-0.00268592
-0.00172546
0.000395901
-0.000164622
-8.09145e-06
0.000281645
0.00015505
9.38587e-05
0.000948642
0.000324925
-0.000294317
-0.000760603
-0.000652673
0.0016445
0.00101809
0.00103935
-0.000457422
0.000765775
7.11326e-05
0.000649917
-0.000494983
0.000759643
0.000166908
-0.000379827
-0.00117107
-0.00017945
-1.79727e-05
-9.68303e-05
0.00381986
-0.000205823
-0.000394182
0.000865542
-0.000333597
0.000226477
0.000646851
-0.000369348
-0.000230185
-1.00098e-05
-0.000397834
0.0100922
-0.000828588
0.000203475
4.75798e-05
0.000239356
4.04627e-05
0.0004822
-0.000646607
-2.11561e-05
-4.70942e-05
-0.000557671
-0.000119325
3.40529e-05
-5.62738e-05
-0.00157507
0.000743378
0.00120888
0.00193646
4.36185e-05
-0.00185762
0.0014697
0.000462827
0.0013074
-1.75221e-05
-0.000999205
-0.00193711
-0.00161991
-4.40631e-05
0.00224659
-0.000472755
-0.00430692
-0.00026034
-2.87735e-05
-0.00189332
0.00131135
-0.000186877
-0.00486526
-0.000190939
1.7635e-05
-2.16177e-05
-0.00174187
0.000389092
-0.000372086
-0.00220111
0.00059589
0.000537001
-4.43666e-05
-0.000312899
0.00212177
0.00187076
-0.00124389
0.000121972
-6.09505e-05
0.00161582
-6.05936e-05
0.00353305
-0.000541515
0.000415706
-0.000591088
-0.000234134
-0.000175373
-7.23353e-05
7.76244e-05
9.43616e-05
6.15901e-05
0.00180701
-0.000694775
0.00240859
0.000884598
-0.00112749
5.37463e-05
9.60348e-05
-0.00137125
-0.00227838
-0.000962364
0.000148207
0.00167932
-0.000292923
-0.000929066
0.000138853
0.00124208
0.0088056
-6.49591e-05
-0.00321985
-0.0025129
2.72901e-05
-0.00363744
-0.00101547
-0.00142027
-0.000743595
-0.00035233
-0.00319928
-0.000460041
7.35395e-05
-9.70211e-05
-0.000254713
0.000344153
-0.000196696
2.33614e-05
-1.19519e-05
-0.000435158
0.000244686
-6.68727e-05
-4.07391e-05
6.06499e-05
0.000113587
6.90312e-05
0.00142301
0.000385997
-0.000379593
0.000465503
-0.000228803
-0.000578353
9.44946e-06
-0.00135332
-1.00516e-05
2.32519e-06
0.00836054
-1.85313e-05
-0.000739074
-0.000346796
0.000298053
-0.000711229
0.00069442
-5.66873e-06
-0.00126824
-0.000846871
-8.81719e-05
0.000299134
-0.000875907
9.98073e-05
3.98066e-05
7.3617e-05
3.53234e-05
0.000176889
-0.00273198
0.00100266
2.19081e-05
0.000158439
-2.41517e-05
0.00641136
0.000718681
0.000459164
0.000243169
6.65521e-05
7.84027e-05
-9.62512e-06
0.000308154
-0.000108528
-3.45088e-05
-0.00214741
-0.00056604
0.00251388
-0.000617607
-7.66978e-05
-0.000817587
-0.00020188
0.00651999
0.000786469
0.00027252
-0.000815932
0.000327387
0.000122162
-0.00983391
0.000137852
-0.000419121
0.000327141
-0.00119311
0.00164809
-0.000294213
0.000453446
-0.000425092
0.0004884
-0.000212466
-0.000153376
-8.23558e-05
-0.0012604
-0.00233777
0.00734286
0.000898419
0.00144515
0.000315568
-0.00349323
-0.00110016
-0.000703601
-0.000743243
-0.000640489
-0.00309731
0.00657638
-0.00031902
0.000808663
-0.00322644
-0.00202811
6.3497e-05
0.00139213
0.000427151
4.16707e-07
-0.00113847
-0.00218975
-0.000586616
-0.00132611
0.000235763
0.00246981
-0.00264799
0.000135093
-0.00426818
0.00502943
-0.00449841
-0.000174158
-0.00229955
-0.000366543
-0.000203614
-3.67685e-05
-5.01666e-05
-0.00480668
0.000345877
0.000126118
-0.000258135
0.00100369
0.00106967
0.000169765
0.00016709
0.000651683
-0.000142411
0.00055703
-0.000373002
0.000114151
0.000558194
0.000189065
0.000690525
-0.00019889
-0.000264798
-0.00289566
-3.38608e-05
0.00022342
-0.000128105
0.000266033
-1.58426e-05
0.00300354
0.00114381
-0.000464107
0.000770833
0.0041935
0.00286935
0.000868124
-0.000491182
-3.72554e-05
-0.000256031
-0.00496598
0.00304767
0.0001757
-0.000860773
0.000680968
0.00132402
-0.00341455
-1.73702e-05
0.000609293
0.00191405
-0.00229926
-0.0043595
9.33802e-05
8.66055e-05
2.70911e-05
7.70041e-05
6.49737e-05
-9.13305e-05
3.6227e-05
-9.51634e-06
-0.00130428
0.00241413
-0.000377505
0.00182473
0.000215266
-7.74727e-05
0.000245389
-0.000352555
0.000168563
-0.00185298
0.000832963
-0.00175614
0.000231813
0.00484753
-0.000193954
7.81739e-05
0.000189381
0.0111368
7.60348e-05
0.00515244
-0.00301801
-0.000399293
0.0281773
-0.000510734
-0.000604416
-0.000662447
1.0071e-05
-0.00152071
0.000276866
-0.00179707
-2.00365e-05
0.00131054
0.00074258
0.0033568
0.000148053
-0.000674163
-2.95803e-05
-0.00114675
0.0144175
0.000139476
-0.000324259
1.10352e-05
-9.89023e-06
0.000879491
3.42504e-05
-0.00325383
4.67023e-06
0.000900036
0.00100465
0.000244613
0.00145339
1.41912e-06
-0.00217127
-0.000807088
-5.39921e-05
-2.87858e-05
3.77193e-05
-0.000500964
5.52531e-05
-0.000487165
-0.000316531
-1.6043e-05
-1.96531e-05
0.000367133
-0.000221671
5.90901e-05
-5.27031e-05
0.000100785
3.00598e-05
4.93892e-05
-0.0031954
-0.00486817
-2.22912e-05
-0.00162332
-0.0017525
0.000162794
-0.00562925
6.90461e-05
0.00358492
-0.00603715
-0.000325301
0.000355219
-0.00260287
6.65763e-05
-0.000505791
-0.00351142
-0.00257349
0.00131606
-9.19044e-05
-0.000486726
4.94057e-05
-0.000313204
-0.000201038
0.00494814
-3.17278e-05
0.00838541
-0.000212398
0.000223555
0.000107209
-0.000278605
0.00199817
-0.00219488
-0.00239839
0.000644836
-0.00308555
0.000939558
0.00031016
0.000102991
-0.00214671
-0.00241401
-0.0012404
0.000104172
-5.06751e-05
2.77897e-05
0.000542979
0.00129437
-0.00255428
0.00184587
0.000147194
-0.00223969
-0.000135738
-0.000113475
0.00370853
-0.00041969
-9.33834e-05
0.00896518
-0.00938429
-1.47017e-05
-0.0021997
-8.21065e-05
2.2167e-05
0.00157795
-0.000832479
-0.00114121
-0.000171804
0.000240707
-0.000716373
-9.21575e-05
0.000131332
-0.00267422
-0.000368914
0.000291701
-0.000313187
0.00112946
0.000100161
1.59487e-05
0.000153841
0.000264398
-1.08641e-05
-4.13404e-07
0.00133934
4.28664e-05
1.1872e-05
-0.000384061
-0.00038126
-9.24194e-05
0.000140435
4.84101e-06
-1.51711e-05
-8.98352e-05
3.25612e-05
-0.0064707
0.00966238
-0.0007803
1.47942e-05
0.000485805
9.22015e-05
-0.000450489
-0.00376693
-0.00222471
0.00146943
0.000583915
-0.00140723
0.000557932
0.00215601
-0.00123949
3.17101e-05
0.000204585
-0.000628356
0.00116295
-0.000110479
0.00296853
-3.94422e-05
-0.000777375
0.00313953
-0.000750445
-0.000868896
-0.00028256
-4.87013e-05
0.000590216
0.00378219
7.22032e-05
0.000203284
0.00456943
-0.000192039
-0.00439109
7.36974e-06
0.00236639
-1.70931e-05
-0.000840239
0.00969855
-0.000134863
0.00390384
0.00135832
-0.000585461
0.000240924
0.000121138
0.00274032
-0.000449741
-0.000168308
0.00515647
4.07571e-05
0.00071877
-0.000152212
0.000163521
0.000879233
-0.00128514
0.00419456
0.00133616
0.000219832
-0.000184551
0.000213462
0.000238044
-0.000889076
0.00261582
0.000415619
-0.00143746
0.000176609
-1.20606e-05
7.11032e-05
4.30117e-05
0.000138005
0.000192472
0.000200533
-0.000152544
0.000178666
4.39228e-05
0.000102361
9.24167e-05
-2.64752e-05
0.000985454
-0.000238074
-0.000444625
-7.15975e-05
0.000348759
0.00228469
0.00354329
0.00364114
0.0012123
-0.000140216
3.7144e-05
0.000120905
-0.000258306
0.000233348
1.36585e-05
-1.22829e-05
0.00201338
-2.35469e-06
2.53816e-05
-0.000932464
-0.000428481
-0.00146705
-0.00100342
-4.91929e-05
0.000781759
-0.00151232
-0.00523775
0.000628442
0.00106333
-0.00376637
0.00142068
0.000190055
-0.00493774
0.0012656
0.000153893
-0.00472582
0.00223632
-0.000354912
0.000154225
0.00176496
0.000552702
-0.00032549
-0.000211899
1.56812e-05
-5.45965e-05
-4.73338e-05
5.61997e-05
0.000480941
-1.36921e-06
0.00140935
0.000578406
0.000497111
0.000220922
-0.00100899
0.000301771
0.000375386
-0.000476503
0.000421465
-2.02548e-05
0.00151796
-0.00219188
-0.00260249
-0.00575599
-0.00147648
-0.00271122
-0.00519292
-0.00217395
1.6424e-05
-9.1502e-05
0.00803142
0.00409104
-0.00432614
0.00253448
9.80382e-05
-0.00103519
-0.000187692
0.000125112
-7.48983e-05
-0.000175786
8.81919e-06
-0.000126614
1.14489e-05
0.00287955
0.000117313
0.00293423
0.00177887
-0.000797905
-0.00142432
-0.000592635
1.19865e-06
-0.000780382
-0.00051723
0.000312668
-0.000599459
0.000134935
0.000129469
-0.000192439
-5.02165e-05
0.000117003
1.98391e-05
-7.17772e-05
6.42812e-05
-0.000437469
-0.000836488
5.22564e-05
-0.00149423
0.00279863
-0.000186346
0.000530294
-2.68096e-05
-0.0018108
0.000127067
0.000131809
0.000700514
-0.000114765
0.000499868
0.000201586
0.000175234
6.48393e-05
0.00014153
-0.000559824
4.88603e-05
-5.33055e-05
0.000116352
0.000722379
-0.00680452
0.000126003
0.00169696
-0.000202328
-0.00475496
-0.00481245
-6.30386e-06
0.00023582
0.00109584
0.000994101
-0.00401344
0.00109907
-3.83778e-05
-4.7843e-05
7.01075e-05
-2.55362e-05
-6.04969e-05
1.57239e-05
0.000340066
5.59643e-05
-2.4915e-05
0.000209538
0.0016434
0.00105341
2.10094e-05
0.000692467
-0.000217452
6.44862e-05
-0.00291925
-0.000631533
0.00117771
-0.00039356
5.21486e-05
0.00170321
0.000976159
-0.000264327
-0.000179561
-0.000254577
-0.00031152
0.000283843
-0.000105589
3.42135e-05
-0.00130476
0.00146478
0.000379848
-0.000470534
-0.000324105
0.0195713
-9.1635e-05
2.83367e-05
5.91216e-05
-2.28461e-05
0.00582411
0.00105813
0.00103619
-6.21893e-05
0.00138632
0.00103607
0.00399149
-0.000575082
0.000516363
-0.00027763
0.000935777
1.3876e-05
-0.000547638
0.00113867
0.00101569
-0.00122852
0.000233411
0.000107144
5.23017e-05
0.000146219
0.00131131
-0.000773498
0.00122396
-0.000404634
0.000381752
-0.000135991
-0.000398695
-0.000260799
0.00124663
0.000229019
-4.71735e-05
-0.000431908
-0.00577987
0.00502663
0.00289273
0.00249438
-0.00271482
-0.00214059
0.00101673
0.000913398
-1.99874e-05
-0.00017321
0.0033149
-0.00118474
0.00449806
-0.000206321
-0.000360553
0.00038989
0.000507977
0.00157363
5.41425e-05
-0.00366394
-0.0025792
0.00180399
-0.0027983
-0.00257285
0.00197005
2.95992e-05
0.000701959
6.56312e-05
0.000905829
-0.000532282
0.000274726
-0.00525763
-0.00122043
-0.00172176
0.00161406
-0.0010116
-0.000254722
-0.000375185
-0.000145995
0.00142005
0.000455254
-0.00053799
0.000164745
-0.000284812
6.78978e-05
6.88058e-05
8.85979e-05
4.58914e-05
0.00297243
0.0012945
-0.00188156
0.00130845
-0.00132781
-0.000590461
0.000590571
0.000434912
0.000115337
5.92574e-05
0.00182861
-0.000552079
-0.000293476
0.000373627
-4.66631e-05
-0.000110304
0.00136942
0.000396022
4.46091e-05
0.000335163
7.63991e-05
0.000750031
0.00155655
0.0136188
-0.000523842
0.000111874
0.000239976
0.000106387
-0.000339222
-0.000413388
-4.56167e-05
1.89496e-05
2.29036e-05
0.000787647
0.000112465
0.000330381
-1.6822e-05
6.18188e-05
-4.08031e-05
-0.000119019
0.00110295
0.000684916
0.000169806
-0.000195213
0.000391346
-0.000106629
0.00312264
0.000114158
4.2579e-06
-0.000442385
-0.000861348
0.000818609
0.00249567
-0.00135575
-0.00489131
0.00693798
0.00300224
-0.0058379
0.00408574
-0.0085726
0.0011615
-0.000431645
-0.0037884
0.00260958
0.00131237
-0.000144921
0.000175099
-2.40472e-05
3.71775e-05
-7.84409e-05
-0.000420744
-0.000643206
-6.22414e-06
0.000300921
0.00287713
0.00472391
-0.000199258
9.10471e-06
0.000190563
-0.000788279
3.28552e-05
-1.55232e-05
0.000327014
-0.000467087
7.11305e-06
-0.000593151
-0.000987593
0.00242665
-0.00164617
0.0174981
0.0267004
0.0253398
0.00175355
-0.00153276
-0.00321863
-0.00340907
-0.00281787
0.00119854
-0.000283052
6.1452e-06
-0.000375687
0.00118561
-0.00190412
0.000707511
0.00118898
-6.69982e-05
0.00010536
-0.000299475
0.000109145
-2.65697e-05
0.00114087
0.000197355
-0.000650652
6.01448e-05
0.000235354
-0.000310196
-0.000196938
-0.000256852
0.000584438
2.81556e-05
-0.000218683
0.000152356
-0.0297134
-0.00227138
-0.00535329
-0.00496544
-0.0050484
-0.000208953
7.26565e-05
4.70347e-05
-0.00177503
-0.000984016
0.00109401
-0.00519135
-0.00104364
0.000191992
-0.00020786
0.000466035
0.000176967
-0.00371168
0.0164496
-0.00630478
0.000184416
-0.00244906
-0.0029337
0.0022193
-0.000121567
0.00710898
2.70329e-05
3.45831e-05
4.73254e-05
-8.16714e-05
-2.47936e-05
0.000181844
6.51144e-05
-7.63208e-05
5.53978e-05
5.96015e-05
6.4731e-05
-1.50076e-05
6.15684e-05
9.1564e-05
5.29012e-05
0.000227578
0.000340439
-0.000138639
-1.20235e-05
-5.91181e-05
-0.000702503
-0.00125786
-0.00112217
0.000110593
-0.000301381
-0.00409161
0.0025097
-0.00143995
-0.00274439
-0.00168245
-0.000580981
-0.00286556
0.00567645
0.000154787
5.00499e-05
0.000425746
-0.000450659
0.000238791
0.000661999
-0.00725252
0.0040852
0.000514491
0.000329977
0.000233756
0.000274122
0.000160124
-0.00043103
0.00206553
-0.000407909
-0.000275428
0.000571422
0.000734371
7.83299e-05
-7.02262e-05
0.00115345
3.09069e-06
-2.84084e-05
-0.000353289
0.000590225
0.00171408
-0.00035635
0.00167985
0.00398035
-2.58204e-05
0.00062675
0.000539467
-0.00010712
-0.000119547
-0.00211515
0.0010647
0.000316944
-0.00055753
0.000793404
0.00155149
-0.00327368
2.20025e-05
-0.00239559
-0.00240872
0.00154547
0.00300748
0.00135308
0.00137471
-0.000185848
0.000105742
-0.000942673
8.85031e-05
-0.00382424
-0.00276199
-0.00302564
-0.000341469
0.000222024
0.00125852
0.000164855
-0.000922375
0.00085663
-9.69739e-05
-0.0014395
-0.000945046
-0.00360997
-0.00185685
-0.00304354