# vtk DataFile Version 2.0
Unstructured Grid by M++
ASCII
DATASET UNSTRUCTURED_GRID
POINTS 4072 float
  0.875000   1.000000 0
  0.875000   0.984375 0
  0.875000   0.968750 0
  0.875000   0.953125 0
  0.875000   0.937500 0
  0.875000   0.921875 0
  0.875000   0.906250 0
  0.875000   0.890625 0
  0.875000   0.875000 0
  0.875000   0.859375 0
  0.875000   0.843750 0
  0.875000   0.828125 0
  0.875000   0.812500 0
  0.875000   0.796875 0
  0.875000   0.781250 0
  0.875000   0.765625 0
  0.859375   1.000000 0
  0.859375   0.984375 0
  0.859375   0.968750 0
  0.859375   0.953125 0
  0.859375   0.937500 0
  0.859375   0.921875 0
  0.859375   0.890625 0
  0.859375   0.875000 0
  0.859375   0.859375 0
  0.859375   0.843750 0
  0.859375   0.828125 0
  0.859375   0.812500 0
  0.859375   0.796875 0
  0.859375   0.781250 0
  0.859375   0.765625 0
  0.859375   0.671875 0
  0.859375   0.656250 0
  0.859375   0.640625 0
  0.843750   1.000000 0
  0.843750   0.984375 0
  0.843750   0.968750 0
  0.843750   0.953125 0
  0.843750   0.937500 0
  0.843750   0.921875 0
  0.843750   0.906250 0
  0.843750   0.875000 0
  0.843750   0.859375 0
  0.843750   0.843750 0
  0.843750   0.828125 0
  0.843750   0.812500 0
  0.843750   0.796875 0
  0.843750   0.781250 0
  0.843750   0.765625 0
  0.843750   0.671875 0
  0.843750   0.656250 0
  0.843750   0.640625 0
  0.828125   1.000000 0
  0.828125   0.984375 0
  0.828125   0.968750 0
  0.828125   0.953125 0
  0.828125   0.937500 0
  0.828125   0.921875 0
  0.875000   0.671875 0
  0.812500   0.921875 0
  0.890625   0.656250 0
  0.828125   0.906250 0
  0.875000   0.656250 0
  0.812500   0.906250 0
  0.890625   0.640625 0
  0.828125   0.890625 0
  0.875000   0.640625 0
  0.812500   0.890625 0
  0.890625   0.625000 0
  0.828125   0.875000 0
  0.890625   0.609375 0
  0.828125   0.859375 0
  0.890625   0.593750 0
  0.828125   0.843750 0
  0.890625   0.578125 0
  0.828125   0.828125 0
  0.890625   0.562500 0
  0.828125   0.812500 0
  0.828125   0.796875 0
  0.828125   0.781250 0
  0.828125   0.765625 0
  0.828125   0.671875 0
  0.828125   0.656250 0
  0.828125   0.640625 0
  0.875000   0.750000 0
  0.812500   1.000000 0
  0.875000   0.625000 0
  0.812500   0.875000 0
  0.875000   0.734375 0
  0.812500   0.984375 0
  0.875000   0.718750 0
  0.812500   0.968750 0
  0.875000   0.703125 0
  0.812500   0.953125 0
  0.875000   0.687500 0
  0.812500   0.937500 0
  0.875000   0.609375 0
  0.812500   0.859375 0
  0.875000   0.593750 0
  0.812500   0.843750 0
  0.875000   0.578125 0
  0.812500   0.828125 0
  0.812500   0.812500 0
  0.875000   0.546875 0
  0.812500   0.796875 0
  0.812500   0.781250 0
  0.812500   0.765625 0
  0.859375   0.750000 0
  0.796875   1.000000 0
  0.859375   0.625000 0
  0.796875   0.875000 0
  0.859375   0.734375 0
  0.796875   0.984375 0
  0.859375   0.718750 0
  0.796875   0.968750 0
  0.859375   0.703125 0
  0.796875   0.953125 0
  0.859375   0.687500 0
  0.796875   0.937500 0
  0.859375   0.609375 0
  0.796875   0.859375 0
  0.859375   0.593750 0
  0.796875   0.843750 0
  0.859375   0.578125 0
  0.796875   0.828125 0
  0.859375   0.562500 0
  0.796875   0.812500 0
  0.796875   0.796875 0
  0.859375   0.531250 0
  0.796875   0.781250 0
  0.796875   0.765625 0
  0.843750   0.750000 0
  0.781250   1.000000 0
  0.843750   0.625000 0
  0.781250   0.875000 0
  0.843750   0.734375 0
  0.781250   0.984375 0
  0.843750   0.718750 0
  0.781250   0.968750 0
  0.843750   0.703125 0
  0.781250   0.953125 0
  0.843750   0.687500 0
  0.781250   0.937500 0
  0.843750   0.609375 0
  0.781250   0.859375 0
  0.843750   0.593750 0
  0.781250   0.843750 0
  0.843750   0.578125 0
  0.781250   0.828125 0
  0.781250   0.812500 0
  0.843750   0.546875 0
  0.781250   0.796875 0
  0.781250   0.781250 0
  0.843750   0.515625 0
  0.781250   0.765625 0
  0.828125   0.750000 0
  0.765625   1.000000 0
  0.828125   0.625000 0
  0.765625   0.875000 0
  0.828125   0.734375 0
  0.765625   0.984375 0
  0.828125   0.718750 0
  0.765625   0.968750 0
  0.828125   0.703125 0
  0.765625   0.953125 0
  0.828125   0.687500 0
  0.765625   0.937500 0
  0.828125   0.609375 0
  0.765625   0.859375 0
  0.828125   0.593750 0
  0.765625   0.843750 0
  0.828125   0.578125 0
  0.765625   0.828125 0
  0.828125   0.562500 0
  0.765625   0.812500 0
  0.765625   0.796875 0
  0.828125   0.531250 0
  0.765625   0.781250 0
  0.765625   0.765625 0
  0.812500   0.750000 0
  0.750000   1.000000 0
  0.953125   1.000000 0
  0.812500   0.734375 0
  0.750000   0.984375 0
  0.812500   0.718750 0
  0.750000   0.968750 0
  0.812500   0.703125 0
  0.750000   0.953125 0
  0.812500   0.687500 0
  0.750000   0.937500 0
  0.812500   0.671875 0
  0.750000   0.921875 0
  0.812500   0.656250 0
  0.750000   0.906250 0
  0.812500   0.640625 0
  0.750000   0.890625 0
  0.812500   0.625000 0
  0.750000   0.875000 0
  0.812500   0.609375 0
  0.750000   0.859375 0
  0.812500   0.593750 0
  0.750000   0.843750 0
  0.812500   0.578125 0
  0.750000   0.828125 0
  0.750000   0.812500 0
  0.812500   0.546875 0
  0.750000   0.796875 0
  0.750000   0.781250 0
  0.812500   0.515625 0
  0.750000   0.765625 0
  0.796875   0.750000 0
  0.734375   1.000000 0
  0.796875   0.734375 0
  0.734375   0.984375 0
  0.796875   0.718750 0
  0.734375   0.968750 0
  0.796875   0.703125 0
  0.734375   0.953125 0
  0.796875   0.687500 0
  0.734375   0.937500 0
  0.796875   0.671875 0
  0.734375   0.921875 0
  0.796875   0.656250 0
  0.734375   0.906250 0
  0.796875   0.640625 0
  0.734375   0.890625 0
  0.796875   0.625000 0
  0.734375   0.875000 0
  0.796875   0.609375 0
  0.734375   0.859375 0
  0.796875   0.593750 0
  0.734375   0.843750 0
  0.796875   0.578125 0
  0.734375   0.828125 0
  0.734375   0.812500 0
  0.734375   0.796875 0
  0.796875   0.531250 0
  0.734375   0.781250 0
  0.734375   0.765625 0
  0.781250   0.750000 0
  0.718750   1.000000 0
  0.921875   1.000000 0
  0.781250   0.734375 0
  0.718750   0.984375 0
  0.781250   0.718750 0
  0.718750   0.968750 0
  0.781250   0.703125 0
  0.718750   0.953125 0
  0.859375   0.906250 0
  0.781250   0.687500 0
  0.718750   0.937500 0
  0.781250   0.671875 0
  0.718750   0.921875 0
  0.781250   0.656250 0
  0.718750   0.906250 0
  0.781250   0.640625 0
  0.718750   0.890625 0
  0.781250   0.625000 0
  0.718750   0.875000 0
  0.781250   0.609375 0
  0.718750   0.859375 0
  0.781250   0.593750 0
  0.718750   0.843750 0
  0.781250   0.578125 0
  0.718750   0.828125 0
  0.781250   0.562500 0
  0.718750   0.812500 0
  0.781250   0.546875 0
  0.718750   0.796875 0
  0.781250   0.531250 0
  0.718750   0.781250 0
  0.781250   0.515625 0
  0.718750   0.765625 0
  0.765625   0.750000 0
  0.703125   1.000000 0
  0.765625   0.734375 0
  0.703125   0.984375 0
  0.765625   0.718750 0
  0.703125   0.968750 0
  0.765625   0.703125 0
  0.703125   0.953125 0
  0.765625   0.687500 0
  0.703125   0.937500 0
  0.843750   0.890625 0
  0.703125   0.921875 0
  0.765625   0.656250 0
  0.703125   0.906250 0
  0.765625   0.640625 0
  0.703125   0.890625 0
  0.765625   0.625000 0
  0.703125   0.875000 0
  0.765625   0.609375 0
  0.703125   0.859375 0
  0.765625   0.593750 0
  0.703125   0.843750 0
  0.765625   0.578125 0
  0.703125   0.828125 0
  0.765625   0.562500 0
  0.703125   0.812500 0
  0.765625   0.546875 0
  0.703125   0.796875 0
  0.765625   0.531250 0
  0.703125   0.781250 0
  0.765625   0.515625 0
  0.703125   0.765625 0
  0.750000   0.750000 0
  0.687500   1.000000 0
  0.890625   1.000000 0
  0.750000   0.734375 0
  0.687500   0.984375 0
  0.750000   0.718750 0
  0.687500   0.968750 0
  0.578125   0.796875 0
  0.578125   0.781250 0
  0.578125   0.765625 0
  0.546875   0.953125 0
  0.546875   0.968750 0
  0.546875   0.718750 0
  0.546875   0.687500 0
  0.250000   0.609375 0
  0.937500   0.031250 0
  0.046875   0.703125 0
  0.734375   0.062500 0
  0.734375   0.078125 0
  0.734375   0.046875 0
  0.046875   0.593750 0
  0.046875   0.562500 0
  0.046875   0.531250 0
  0.718750   0.156250 0
  0.046875   0.609375 0
  0.734375   0.031250 0
  0.062500   0.609375 0
  0.234375   0.703125 0
  0.718750   0.125000 0
  0.046875   0.578125 0
  0.734375   0.000000 0
  0.062500   0.578125 0
  0.000000   0.828125 0
  0.234375   0.671875 0
  0.234375   0.625000 0
  0.718750   0.093750 0
  0.687500   0.156250 0
  0.062500   0.546875 0
  0.000000   0.796875 0
  0.718750   0.046875 0
  0.031250   0.687500 0
  0.687500   0.171875 0
  0.500000   1.000000 0
  0.078125   0.218750 0
  0.234375   0.593750 0
  0.718750   0.062500 0
  0.687500   0.125000 0
  0.000000   0.765625 0
  0.421875   0.500000 0
  0.031250   0.593750 0
  0.718750   0.015625 0
  0.687500   0.234375 0
  0.015625   0.812500 0
  0.703125   0.171875 0
  0.703125   0.187500 0
  0.703125   0.140625 0
  0.015625   0.781250 0
  0.437500   0.515625 0
  0.500000   0.796875 0
  0.078125   0.015625 0
  0.687500   0.203125 0
  0.250000   0.578125 0
  0.703125   0.109375 0
  0.000000   0.515625 0
  0.500000   0.765625 0
  0.062500   0.593750 0
  0.750000   0.015625 0
  0.015625   0.843750 0
  0.687500   0.000000 0
  0.500000   0.828125 0
  0.078125   0.046875 0
  0.015625   0.531250 0
  0.250000   0.546875 0
  0.703125   0.078125 0
  0.703125   0.031250 0
  0.015625   0.671875 0
  0.250000   0.515625 0
  0.000000   0.656250 0
  0.500000   0.906250 0
  0.078125   0.125000 0
  0.687500   0.015625 0
  0.031250   0.546875 0
  0.687500   0.031250 0
  0.500000   0.859375 0
  0.703125   0.000000 0
  0.703125   0.046875 0
  0.703125   0.015625 0
  0.500000   0.937500 0
  0.234375   0.531250 0
  0.031250   0.578125 0
  0.687500   0.062500 0
  0.500000   0.890625 0
  0.031250   0.796875 0
  0.453125   0.531250 0
  0.500000   0.968750 0
  0.078125   0.187500 0
  0.234375   0.562500 0
  0.031250   0.609375 0
  0.718750   0.031250 0
  0.687500   0.093750 0
  0.750000   0.046875 0
  0.000000   0.937500 0
  0.421875   0.671875 0
  0.718750   0.187500 0
  0.031250   0.828125 0
  0.765625   0.062500 0
  0.015625   0.953125 0
[...]
CELL_DATA 7648
SCALARS scalar_value float 1
LOOKUP_TABLE default
-0.00109124
-0.00114893
-0.0030274
8.64315e-05
0.00117765
3.96908e-07
0.00161781
-6.89047e-05
0.000387977
-0.000169452
-0.000433676
-0.00329613
0.00109132
0.00379346
-0.000564021
0.000469885
-0.00375669
0.00354169
0.0018873
1.36575e-05
-0.000147055
-3.55997e-05
-0.000138972
-3.54679e-05
0.00103178
-0.000327795
0.00332169
0.00385679
0.000314125
0.000148214
0.000384998
-0.00086264
0.000452587
-8.89047e-06
-3.28155e-05
9.41763e-05
1.94838e-05
-5.5622e-05
-0.000238404
9.63547e-05
-8.40393e-05
8.18124e-05
-0.00135014
-3.94593e-05
8.31335e-05
5.46297e-05
-0.000148087
-7.98069e-05
0.000462998
-0.000210222
-3.76119e-06
-1.07766e-06
-0.000729482
-0.00188875
-3.21644e-05
-0.000384565
-0.000648769
-0.000195734
-0.00266418
-3.98694e-05
0.000216394
-7.48593e-05
-0.000131503
-0.000161255
0.000926276
-4.59604e-05
0.00395187
-0.000798221
0.000125226
0.000168188
0.000119017
3.81444e-05
-0.000110701
-3.44124e-05
0.000380966
0.00115658
-0.000105471
3.9075e-06
-0.000253827
-0.000137249
4.74151e-05
9.71304e-05
0.00225952
1.60592e-05
6.8265e-05
5.83956e-05
0.00818632
0.00258478
0.00159207
0.00282173
0.000842883
0.00061011
9.18024e-05
0.000271626
4.81375e-06
-9.77661e-05
-0.000654201
4.9406e-05
-2.91711e-05
0.000659364
-0.00142792
0.000217936
-5.40468e-05
-8.85233e-05
0.00282847
-0.00110924
1.3065e-05
-0.000204346
-0.000527612
0.00150172
3.19577e-05
0.000100202
7.18715e-05
-0.000794512
-0.000748945
0.0010973
0.000156354
-0.00310794
-0.00195465
-0.00102172
-0.00357524
0.00049151
-0.00091511
5.85497e-05
-0.000116152
3.69425e-06
4.64071e-05
3.10238e-06
-0.00128492
-0.00118282
0.00052922
0.000117001
-0.00278416
4.1055e-05
-0.000128629
-9.22777e-05
7.95111e-05
1.99522e-05
0.000813494
-0.000861739
0.00115751
3.15226e-05
-5.83984e-06
4.13847e-05
0.00036125
-0.000151552
-0.000470874
0.000297327
-0.000515819
4.31594e-05
0.000154915
1.46732e-05
4.14691e-05
-0.00817324
2.58824e-05
0.0179749
0.0019024
-0.00170608
-0.000257108
0.000159474
-0.00217769
-9.47347e-06
-0.000530347
-0.000191578
0.000210388
0.000215946
-0.000705098
0.000690085
0.000649866
0.000439003
0.000272197
-0.000217332
-0.000124903
8.61065e-05
-0.000441075
1.9626e-05
7.22676e-05
3.38227e-05
4.06257e-05
-9.3981e-05
-3.10121e-05
7.34772e-05
-0.000151137
0.000789772
0.00028209
0.000855115
0.00131541
0.000574757
3.35809e-05
0.000490237
0.00130818
1.53525e-05
0.00122238
-0.000220483
-8.01271e-05
3.50331e-05
-8.79243e-05
0.00100213
-0.000143308
-0.000622305
-2.04127e-05
-0.00176221
-0.000501777
-0.000507669
-2.27776e-05
-8.34131e-05
5.05067e-05
2.91117e-05
-0.000897401
0.000186757
-0.000113385
0.000171294
-4.1219e-05
0.00042047
-0.000201545
0.000795703
-0.000345593
6.06706e-05
-0.000337742
-0.000540632
-0.000282068
-6.80938e-06
0.000527729
-6.78949e-05
0.000158975
0.00169831
-0.000199091
2.29476e-05
8.26448e-05
-0.00222256
0.00051644
-0.000892192
-0.000276351
7.14916e-05
6.62388e-05
-1.1081e-05
0.0001318
9.93988e-05
2.08213e-05
-0.00450184
5.99762e-05
-0.00352444
0.000872082
-0.000274327
0.0019396
-3.13812e-05
0.000826435
-0.00245595
0.00121793
-0.000151869
6.13242e-05
9.32702e-07
0.000336619
-2.73227e-05
3.57696e-05
-0.000480786
0.000208771
0.00247235
0.000127552
0.000650676
-0.00351637
-0.00215584
0.00107776
0.00104512
0.00079638
-0.000178514
0.000138588
-0.000805321
0.0020431
0.00404223
-0.000461166
0.000215603
0.000686609
0.00251909
-0.000351214
-0.000388484
0.00204642
0.00067302
0.000688471
0.00031438
0.000152984
0.000698184
0.000598919
0.000837703
-0.00263415
-0.000100153
-0.00112466
0.00026683
-0.000505026
0.000107931
-0.00117604
-0.00223579
-0.00303692
4.63944e-05
0.00058619
-0.000497692
-1.59975e-05
-0.000502772
-0.00108811
-0.00176491
-0.000718726
0.000785358
9.59841e-05
-0.000877252
0.000407974
-0.00137639
7.17283e-06
8.67536e-06
-0.000375958
-0.000444741
2.79761e-06
-0.000473525
0.00365727
-0.000404984
0.000108216
0.000366944
0.000497016
0.000116089
-0.000271229
-0.000494455
-3.90729e-05
8.24004e-05
0.000384289
-4.27391e-05
1.48638e-05
0.00256311
-9.40911e-05
5.64199e-05
8.45292e-06
5.81582e-05
-0.000345617
0.00058843
3.16699e-05
-9.80817e-05
0.000334716
0.000252255
5.64865e-05
4.12699e-06
6.93104e-05
1.63126e-05
7.83527e-05
0.000144522
0.000105081
0.000118504
0.000319751
-0.000253035
-0.000510078
0.000272648
2.94972e-05
-1.3328e-05
0.00241851
-0.000773323
0.000236147
-0.000250512
-0.000587393
-0.000241598
-0.000147239
0.000205087
7.35695e-05
0.000541267
0.000160814
0.000118742
0.00111828
-2.24438e-05
-0.000614186
-0.000159601
-0.000653585
0.000711429
3.54146e-05
8.27524e-05
0.00149733
-8.97371e-05
-0.000117601
0.000295356
-0.000708992
0.00185963
-0.000205048
0.000316968
0.00111953
-0.00118312
-0.000219088
-0.000870614
-0.000158286
0.00079244
0.00103748
1.76724e-05
-1.68809e-05
6.47369e-05
-7.12931e-05
0.00125402
7.29477e-05
9.55921e-06
0.000140156
-0.000133958
0.000253111
0.000499492
0.00180797
-0.000155263
0.000229338
-4.60792e-05
-0.000841441
-0.00085321
3.00661e-05
-5.56039e-05
8.90813e-05
5.49802e-05
0.000257984
1.81108e-05
0.000287718
6.29127e-05
-0.00592217
0.0019329
-0.000345625
0.00129442
0.00150461
-0.00551675
-0.00275934
-6.59242e-05
-0.000676474
-0.000596284
-8.55031e-05
-2.85639e-05
0.000384821
0.000133702
0.000952929
-0.000239693
8.4228e-05
-0.00552724
0.000365847
-0.00377637
0.000413275
-0.000805036
-4.64791e-05
-7.82802e-05
0.00166033
0.000238245
2.70323e-05
-0.000137256
-0.000711119
0.000164811
-0.00205471
5.79326e-05
0.000303836
0.000294831
7.77605e-05
-2.37758e-05
-0.000219335
-0.00152629
7.40008e-05
0.00161606
-1.29427e-05
-0.00631538
6.88752e-05
-0.000553819
-4.54955e-05
-3.12115e-05
0.000431222
0.000199787
-0.000324979
-0.000787279
0.000592587
-0.000125924
-0.000135003
-3.17502e-05
0.000102859
-1.18322e-05
-0.000246671
2.26886e-05
6.09391e-06
0.000344706
0.000306328
-0.000149145
-5.36095e-05
2.9431e-05
-0.000557167
0.00213063
-0.00363173
3.0649e-05
-0.00125233
0.00135295
5.96372e-05
0.00169924
0.00019901
0.00050605
-0.000258039
-0.00265351
-1.65706e-05
-2.86517e-05
6.96799e-05
-0.000676425
7.37191e-05
0.000277667
-0.000253902
0.0026176
0.00589509
-0.00257133
1.05896e-06
-4.89826e-05
0.000135898
0.000156173
-9.24152e-05
3.85647e-05
-1.59605e-05
-4.86508e-05
-1.21005e-05
0.000263934
9.09117e-05
-2.05229e-06
-0.000186009
2.01647e-05
-0.00028509
7.537e-07
-2.96029e-05
0.00971166
-0.000214054
0.000657811
3.51483e-05
0.000178505
-0.000715163
-0.000997336
-0.00310676
0.00103517
-5.99377e-05
-0.000159029
0.000335713
2.33916e-05
0.000373746
-2.54164e-05
-0.000616164
0.00327423
0.000240124
8.96406e-05
0.000280237
0.0022368
6.65795e-06
7.01051e-05
7.77843e-06
7.84889e-05
-0.0010638
0.00107378
-0.00305916
-5.92427e-06
0.000427593
9.18316e-05
0.000450702
0.00083562
-0.00208359
0.00243149
-0.000326629
-0.000499345
-0.000172027
-0.000104941
-0.000121284
-0.00030117
0.000928631
0.000601543
5.31267e-05
-1.48007e-05
0.00582447
-0.000219855
-0.0013324
0.00122456
-0.000566932
0.00366267
0.00546759
5.19917e-05
0.000779523
-0.000133012
0.000331072
7.05948e-05
4.42628e-05
-0.000417673
-0.00128589
-9.24333e-05
-0.000118191
0.000766141
-1.9664e-05
0.000107682
5.34547e-05
-6.96297e-05
0.00217538
-0.000318308
-0.000667269
0.000119114
-5.29917e-05
-0.000504699
-0.000545041
6.65654e-05
-0.000124146
-0.000129213
-0.000327897
0.000216787
-0.00154791
0.0347407
0.000124593
3.5048e-05
0.00160222
0.000478829
-9.13447e-05
0.000263812
7.5128e-05
-2.31325e-05
0.000564958
0.000138349
0.00036514
-4.11985e-05
-0.000329569
0.000417256
-0.00041167
-0.000262068
-0.000258163
-0.000261173
-0.000518282
0.000146769
0.000456414
0.000235156
-0.000132208
0.000749821
-0.000562026
4.12499e-05
9.22157e-05
0.000228691
-0.000214078
0.000130237
-0.00018335
-5.19036e-05
0.00228347
-0.000566815
0.000121746
0.000505837
-0.000191001
0.000247617
-0.000192334
-0.000226753
-0.000199252
-3.92957e-06
7.10657e-05
-0.00013204
-0.00493441
0.000140268
-1.19591e-05
0.000319127
-6.02788e-05
0.000284956
0.000178788
2.93664e-05
3.2707e-05
-0.000358369
0.00290913
-1.88719e-05
0.000267997
-0.00426601
-0.00056485
0.000541664
6.85754e-05
-6.39571e-05
-4.12075e-05
-7.39024e-05
0.00311279
0.00154853
-0.000164991
0.00121715
-0.00578903
-0.00155737
-0.000171889
0.00225996
-0.00181039
-0.0053922
6.41378e-05
-1.3081e-05
-0.00144299
-0.000492288
3.76698e-05
0.00266538
-0.000310752
0.000127042
7.6219e-05
-0.00112576
0.000240723
-0.000367464
-0.00309747
-1.32148e-05
-8.3331e-05
0.000728075
-0.000204972
0.00502838
0.00105251
-0.00157273
-0.000108668
-5.54212e-05
-0.000289479
-6.48203e-06
0.00254178
-8.34772e-05
0.00156532
-0.000419194
-0.000662785
0.000228021
0.000104569
8.16686e-05
-0.000351317
4.32222e-05
0.00131145
-0.000441443
0.00379039
-0.000904873
-0.00247315
6.36685e-05
0.000227405
-0.0023711
-0.00191667
-0.00167735
0.000736818
0.000304323
-0.000361585
-0.000367469
-0.00016827
0.00251129
0.00624505
4.76769e-05
-0.00372779
-0.00317039
-6.18445e-05
-0.00394136
-0.00149448
-0.000423565
-0.000118185
-0.000462572
-0.00207242
-0.000137238
-0.000139384
0.000141168
0.000114453
0.000199074
-3.45524e-05
8.33369e-05
0.00044006
-0.00118955
0.000271984
-4.7024e-05
-0.000398764
4.2823e-05
-1.81582e-05
0.000430509
-0.0009316
-0.00018989
-0.000473964
0.00102587
0.000248974
-0.000448562
0.000105429
7.60547e-05
-8.12843e-06
-3.46851e-05
0.00425064
-3.8682e-05
-0.00124482
-0.000120172
9.09772e-05
0.00109425
0.000146662
9.42671e-05
-0.000335563
0.000186801
6.19967e-05
0.000122076
-0.000909381
6.22884e-05
-9.43616e-05
2.6686e-05
3.036e-05
0.00010604
0.000628837
-0.005544
3.12628e-05
0.000146215
-2.41605e-06
0.0031161
0.00348107
0.000535864
0.000169373
3.04309e-05
3.41813e-05
0.000258611
-0.000242217
-8.29795e-05
-0.000235444
-0.000921893
-0.000774579
0.00428492
0.000117264
-0.00011134
9.42499e-05
-0.000716319
0.000354551
0.000360051
0.000885305
-0.000507249
-0.000239537
-6.32468e-05
-0.0056519
-0.00082802
0.000139375
-7.35473e-05
0.00362536
0.000530773
-0.000310283
0.000523279
-0.000509781
0.00372324
0.000222161
0.000423845
-7.51558e-05
-0.000211067
-0.00372109
0.00473185
0.000304252
-0.00035357
-0.000211082
-0.00578852
-0.00622226
-0.000777432
-0.000509147
-0.000625758
-0.0041684
0.00120582
-2.79258e-05
6.9994e-06
-0.000434613
-2.69424e-05
-3.63341e-06
0.000406641
-4.1168e-05
2.04195e-05
0.000600751
0.00136689
-0.000126423
-0.000406745
7.66975e-05
5.64846e-05
-0.00211618
0.000122886
-0.000434101
0.00400507
-0.00140435
-4.41114e-05
-0.00149126
-0.000212517
0.000332363
-1.68053e-05
5.89544e-05
0.00358885
-3.06202e-05
0.000169104
-0.000247208
0.0016976
-1.79511e-05
6.28537e-05
-4.34298e-05
0.000571852
2.83779e-05
0.000214507
-0.000256478
-0.000290504
-0.000332949
-0.000374192
0.00162082
-0.000496572
-0.000346341
-0.000220142
3.42496e-05
-0.00031615
-9.14719e-05
9.796e-05
-5.6852e-05
0.00235873
-0.000114137
0.0025251
-0.000163082
-0.00175448
-0.00348344
-0.00101912
-0.000842231
1.46058e-05
-0.000373079
-0.00305615
0.00330064
0.000845233
-0.00277301
0.000542377
4.3686e-05
-2.10902e-05
-4.35366e-05
2.26895e-05
0.00239718
-0.00221506
-0.00199529
5.56169e-05
7.0156e-05
-0.000259281
0.00012113
-2.76367e-05
0.00025561
7.99199e-05
6.96751e-05
-0.00240773
-0.00280586
8.14984e-05
-0.000366703
7.61286e-05
-0.00345676
-0.000381072
0.000117575
-0.000436566
0.00161448
-4.95644e-05
-0.0027278
0.000121411
0.00360282
-3.31583e-06
0.00046178
-0.000272676
0.0207084
2.41728e-05
0.00944022
0.000835448
-0.000170068
0.0132135
-0.000316246
-0.000280902
0.000995232
0.00181462
0.00205555
5.22523e-06
0.00088942
1.28481e-05
-0.000584618
0.00268524
0.00347317
0.000168784
-0.00285652
-8.05979e-05
-0.00112531
0.00843334
1.40202e-05
-0.000445741
0.000138008
4.49535e-06
0.000479329
0.000284386
0.000588014
-4.55515e-05
-0.0001169
0.000265531
-6.38964e-05
0.000463477
1.69098e-05
-0.00119039
-0.00101394
-1.95761e-05
-1.05756e-05
2.23437e-05
0.001459
2.42041e-05
0.000492047
0.00154554
1.00765e-05
4.89529e-05
0.000146901
1.55431e-05
1.36618e-05
0.000509933
-2.06164e-05
5.83489e-05
0.000339106
-0.000384659
-0.00149193
0.000110571
-0.00155221
0.000381094
0.00127493
-0.00474686
7.68859e-05
0.000236155
-0.0041119
-2.43206e-05
0.000192333
-0.00208758
2.2503e-05
-0.000265221
-0.00366194
-0.00231926
0.000831208
0.000102097
-8.68492e-05
5.20652e-07
-2.96667e-05
2.31937e-05
0.00217897
0.000196192
0.000978517
-1.55688e-05
5.13266e-07
-0.00010917
-0.000155139
0.00120996
0.00113305
-0.00138487
-0.000942516
-0.00188678
0.00170016
2.90719e-05
0.000157755
-0.00127087
-0.00204085
-0.00186375
6.1486e-05
9.15937e-05
2.19083e-05
-0.000816952
0.00353598
-0.000420492
0.00487966
-0.000937819
0.00431134
-0.000102496
-0.000137717
-0.00444985
-9.81684e-05
-0.000117555
0.00518256
-0.00301088
-9.51868e-05
-0.00154467
9.49812e-05
7.23318e-05
0.000526584
-0.00120572
-0.000723461
0.00164263
6.59809e-05
-6.62028e-05
0.000279502
-0.000102335
-0.00158741
-9.41569e-05
0.000154771
-0.000119207
0.0016405
0.000793458
-5.50088e-05
0.000271245
1.2102e-05
-2.37277e-05
0.000150874
0.000339229
6.65381e-05
-1.7632e-05
-4.92467e-06
4.60203e-05
-3.12542e-05
6.65322e-05
2.6916e-05
-0.000102743
4.9293e-05
-9.1134e-05
-0.00418985
0.00531035
0.000648784
6.98646e-05
6.31241e-05
3.19342e-05
-1.55632e-05
-0.000281244
-0.00184749
-0.000147861
-0.000180236
-0.000246061
-0.000186431
0.00153691
-0.00100094
-7.43434e-05
-0.000263138
-0.000130241
0.000815971
-5.43501e-05
0.000690049
-2.68182e-05
-7.2462e-05
-0.00153354
0.000679943
0.00161942
-0.0026434
-3.59494e-05
-0.00276671
0.00227544
-0.000104782
0.00035924
0.00469069
-0.000174403
-0.00279232
4.51006e-06
0.00223918
-0.000111535
-0.000604316
0.0183134
0.0004794
0.00484422
0.00143545
-0.000230928
0.000669759
1.58288e-05
0.00612394
-0.000206986
-0.000896576
-0.00210939
9.81864e-05
4.4696e-05
-0.000312018
-0.000435782
-0.000621574
-0.00275528
0.00190203
0.00108237
7.22376e-05
2.31332e-05
-7.23304e-05
-0.000174965
0.0044019
-0.0014664
0.000192959
0.000379099
-1.04323e-05
-4.27051e-05
1.91809e-05
2.08947e-05
0.000206715
0.000190543
0.000142291
0.00016961
0.000200147
6.65023e-05
-6.14313e-05
5.04414e-05
7.71896e-05
0.000512032
5.15582e-05
-0.000389813
0.00015238
9.67257e-05
0.00360118
0.00225615
-0.000306603
0.000100553
-0.000209408
-0.000159518
8.85823e-05
-3.6302e-05
-7.08301e-05
2.55026e-06
-2.51554e-05
-0.000196551
-1.99725e-05
-6.34491e-06
0.00237752
6.34642e-05
-0.000159985
-0.000468584
-0.000637188
-0.000639144
-0.000850645
-0.0017008
-0.00388584
0.00345518
-0.000410049
-0.00108718
0.00131716
-0.0018938
0.00110756
-0.000127599
-0.00600767
-0.00211229
6.01129e-05
0.000362592
0.000110695
6.57708e-05
-0.000395267
-0.00044687
-0.000548555
-3.64324e-06
-9.40757e-06
-2.57381e-05
0.000182324
-3.32368e-05
-0.000797419
-0.000453033
-0.000286933
-5.54868e-05
0.000663282
0.000225457
0.000541883
0.000124664
0.000270295
-1.67435e-05
0.000348927
-0.000702849
6.03741e-05
-0.00452252
0.00127739
0.000386368
0.000934373
-0.000155122
6.70493e-05
0.00132556
0.00784347
0.00219001
-0.0116082
-0.000886443
-8.66561e-05
-7.92414e-05
-1.58778e-05
1.92513e-05
8.22702e-05
-6.78724e-05
9.5668e-05
-5.396e-05
1.47072e-05
0.00202326
-0.000344399
0.00157993
0.00284881
0.00036085
7.38084e-05
-1.04412e-05
-1.70143e-06
-0.000781972
-0.000277343
0.000434368
-0.000658407
5.11036e-05
-5.50852e-06
-0.000142803
0.000154188
1.76939e-05
-5.47867e-06
-8.78509e-05
0.000923255
0.00350211
-0.00054283
5.1698e-06
-0.00142768
0.00397043
0.000330122
8.5541e-05
-1.63985e-05
-0.000415134
5.04797e-05
0.00029778
0.0019185
0.000188
0.000102
0.000174061
1.33348e-05
2.81308e-05
-2.53388e-05
1.72321e-06
9.85114e-05
0.000200185
3.41534e-05
0.00067455
-0.00311159
-0.000113376
3.38875e-05
0.00366725
-0.00306011
-0.00561087
-5.09814e-05
0.000304954
0.0045055
0.000362944
-0.00123557
-1.41762e-05
-5.31806e-05
-5.68292e-05
-2.62765e-05
0.00230484
-6.05745e-05
-3.18716e-05
-0.000182775
5.29888e-05
-0.00013414
-0.000689497
0.000791052
-0.000314622
-0.000553587
0.000440994
-0.00010797
0.000215736
-0.00253067
-0.00109745
-0.000604866
-0.00127856
0.000110217
0.000446087
0.000441511
0.00035382
0.000236038
0.000111079
4.09613e-05
-0.000388493
-0.000127936
-0.000357631
-0.00216746
0.000980734
0.000131353
0.000431476
0.000653551
0.00657208
3.96965e-05
2.51715e-05
3.29428e-05
-8.93846e-06
0.00291647
0.000817105
0.00069454
-4.4438e-05
0.00172036
-0.00437774
-0.000527692
-0.00455158
0.000302503
-0.000882546
0.000573996
-9.0272e-05
-0.000648363
0.00241501
0.0026947
-0.00103496
0.000212673
-0.000229996
0.000185823
0.000144499
0.000242114
4.53496e-05
-5.85434e-05
0.000252968
0.000466403
-0.000264358
0.000568161
4.82245e-05
0.000291247
0.00033769
2.64697e-05
-0.00209391
-0.00268877
-0.00267747
-0.000501401
-0.0041599
-0.000143326
-0.000728386
0.000852263
0.00106384
-2.58159e-06
0.000126794
0.00108606
-0.000197025
0.00235359
-0.000423858
-0.000321259
7.91673e-05
0.000542877
0.000462274
3.54184e-05
0.000376057
-0.00138613
0.000209113
-0.000510367
-0.00226088
0.00106729
-0.000852735
-4.1332e-05
6.47778e-06
-0.00444294
-0.0044969
-0.00123525
-0.0014739
-0.000465891
0.00172406
0.000980665
-0.000560318
-0.000141002
-9.40004e-05
-7.57521e-05
0.00213436
0.00156949
-0.000325885
7.57724e-05
0.000169891
0.000104003
-1.22167e-06
-1.21745e-06
6.35555e-05
0.00143127
0.000973686
-0.000642814
0.000206287
-0.000227115
0.00058287
-0.000352606
-0.000501105
5.39148e-05
-2.18266e-05
0.00221864
-0.000369555
0.000845269
0.000886795
-0.000159623
0.000412448
0.000587504
-0.000120066
-0.000115436
4.25892e-05
6.45339e-05
0.00014573
0.000558132
0.00784612
2.57452e-06
2.81193e-05
0.000148798
-8.09906e-05
0.000541553
-8.38168e-06
-0.000113435
-8.08024e-05
-6.98637e-06
0.000337376
9.58971e-05
-0.000260762
6.06726e-05
7.36161e-05
-0.000228759
-0.000229822
0.000615015
4.9328e-05
0.000333226
0.000440671
6.07971e-05
-2.22466e-05
0.00177425
2.78212e-05
-4.61679e-05
0.000889291
0.0014992
0.000339124
0.00133419
-0.000203496
-0.00490771
0.00309293
0.000357178
-0.00578906
0.00440115
0.000635823
9.08263e-05
-0.000415586
-0.00481002
-0.00344432
0.00565354
9.08649e-05
-0.000355824
9.83749e-05
8.93734e-06
0.00151459
0.00146915
-0.000188695
-8.01842e-05
0.000143018
0.00087249
7.8256e-05
0.000236538
-9.87278e-05
-3.09323e-05
0.000198441
3.50545e-05
-0.000457306
0.000279452
-0.000665276
-0.000165604
0.000641882
-0.00100592
0.000121487
0.000294303
0.00301652
0.00725579
0.0136006
0.000867929
0.00101843
0.00132393
-0.000191293
0.00155954
-0.00023314
-0.000192481
6.99364e-07
0.000140989
0.00101914
-0.000691417
0.000296599
0.000820272
0.000130131
0.000143335
8.73072e-05
-7.09079e-07
-8.03702e-05
0.000736438
0.000401327
-0.000472818
-5.93514e-05
0.000493432
-0.000284557
-0.000134222
-1.64295e-05
-4.50423e-05
-0.000228797
-0.00026583
-0.000467331
-0.0328475
8.45765e-05
-0.0027002
-0.0013046
-0.00226696
2.3614e-06
0.000369331
-0.000145576
-0.000747319
8.77201e-05
0.000352408
-0.00152987
-0.00427109
-0.00371994
-7.9184e-05
0.00084581
0.000575377
-0.00351261
-0.00114267
-0.00335936
2.63968e-05
0.000735489
0.000435322
-0.00279937
-0.00173085
0.000422621
-3.61875e-05
7.00107e-05
7.6057e-05
-5.61944e-05
-4.33586e-05
0.000507006
0.000412476
-1.60288e-05
1.63677e-05
1.06487e-06
7.57936e-05
-5.07276e-05
5.67233e-05
-7.71392e-05
0.000183715
8.83945e-05
4.41313e-05
0.000451838
0.000123827
0.000599217
-0.000298033
-0.000506524
-0.000420541
-3.83593e-06
0.00349645
-0.00438857
0.00541245
-0.00107818
-0.00376955
-0.00110319
-0.00223352
-0.00312873
0.00111631
7.29332e-05
6.59446e-05
4.32576e-06
-0.000291085
6.84549e-05
-0.000528796
-0.00444266
0.000997677
-0.000986024
0.000184926
9.52075e-05
4.99182e-05
1.21182e-06
-0.000992477
0.000916225
0.00280579
0.00163168
0.00318257
-0.00157222
2.16379e-05
-6.43291e-05
0.000357018
-9.29538e-06
9.0176e-05
-0.00107049
-0.000271219
0.000861389
-0.000673587
-0.000141444
0.000722019
-0.000291766
0.000247483
0.000146159
-0.00033786
-0.000333434
0.000762144
0.000647807
0.000344323
-0.000434362
0.000106853
0.00133962
-0.00298516
0.000125882
-0.00272711
-0.00234634
0.000594969
0.00251359
2.75332e-05
-0.000271677
-0.000216448
0.000121859
-0.000510606
0.000288383
-0.00293828
-0.00286877
-0.00263444
0.0003155
-0.000713444
0.000613155
0.000129034