# vtk DataFile Version 2.0
Unstructured Grid by M++
ASCII
DATASET UNSTRUCTURED_GRID
POINTS 4072 float
  0.875000   1.000000 0
  0.875000   0.984375 0
  0.875000   0.968750 0
  0.875000   0.953125 0
  0.875000   0.937500 0
  0.875000   0.921875 0
  0.875000   0.906250 0
  0.875000   0.890625 0
  0.875000   0.875000 0
  0.875000   0.859375 0
  0.875000   0.843750 0
  0.875000   0.828125 0
  0.875000   0.812500 0
  0.875000   0.796875 0
  0.875000   0.781250 0
  0.875000   0.765625 0
  0.859375   1.000000 0
  0.859375   0.984375 0
  0.859375   0.968750 0
  0.859375   0.953125 0
  0.859375   0.937500 0
  0.859375   0.921875 0
  0.859375   0.890625 0
  0.859375   0.875000 0
  0.859375   0.859375 0
  0.859375   0.843750 0
  0.859375   0.828125 0
  0.859375   0.812500 0
  0.859375   0.796875 0
  0.859375   0.781250 0
  0.859375   0.765625 0
  0.859375   0.671875 0
  0.859375   0.656250 0
  0.859375   0.640625 0
  0.843750   1.000000 0
  0.843750   0.984375 0
  0.843750   0.968750 0
  0.843750   0.953125 0
  0.843750   0.937500 0
  0.843750   0.921875 0
  0.843750   0.906250 0
  0.843750   0.875000 0
  0.843750   0.859375 0
  0.843750   0.843750 0
  0.843750   0.828125 0
  0.843750   0.812500 0
  0.843750   0.796875 0
  0.843750   0.781250 0
  0.843750   0.765625 0
  0.843750   0.671875 0
  0.843750   0.656250 0
  0.843750   0.640625 0
  0.828125   1.000000 0
  0.828125   0.984375 0
  0.828125   0.968750 0
  0.828125   0.953125 0
  0.828125   0.937500 0
  0.828125   0.921875 0
  0.875000   0.671875 0
  0.812500   0.921875 0
  0.890625   0.656250 0
  0.828125   0.906250 0
  0.875000   0.656250 0
  0.812500   0.906250 0
  0.890625   0.640625 0
  0.828125   0.890625 0
  0.875000   0.640625 0
  0.812500   0.890625 0
  0.890625   0.625000 0
  0.828125   0.875000 0
  0.890625   0.609375 0
  0.828125   0.859375 0
  0.890625   0.593750 0
  0.828125   0.843750 0
  0.890625   0.578125 0
  0.828125   0.828125 0
  0.890625   0.562500 0
  0.828125   0.812500 0
  0.828125   0.796875 0
  0.828125   0.781250 0
  0.828125   0.765625 0
  0.828125   0.671875 0
  0.828125   0.656250 0
  0.828125   0.640625 0
  0.875000   0.750000 0
  0.812500   1.000000 0
  0.875000   0.625000 0
  0.812500   0.875000 0
  0.875000   0.734375 0
  0.812500   0.984375 0
  0.875000   0.718750 0
  0.812500   0.968750 0
  0.875000   0.703125 0
  0.812500   0.953125 0
  0.875000   0.687500 0
  0.812500   0.937500 0
  0.875000   0.609375 0
  0.812500   0.859375 0
  0.875000   0.593750 0
  0.812500   0.843750 0
  0.875000   0.578125 0
  0.812500   0.828125 0
  0.812500   0.812500 0
  0.875000   0.546875 0
  0.812500   0.796875 0
  0.812500   0.781250 0
  0.812500   0.765625 0
  0.859375   0.750000 0
  0.796875   1.000000 0
  0.859375   0.625000 0
  0.796875   0.875000 0
  0.859375   0.734375 0
  0.796875   0.984375 0
  0.859375   0.718750 0
  0.796875   0.968750 0
  0.859375   0.703125 0
  0.796875   0.953125 0
  0.859375   0.687500 0
  0.796875   0.937500 0
  0.859375   0.609375 0
  0.796875   0.859375 0
  0.859375   0.593750 0
  0.796875   0.843750 0
  0.859375   0.578125 0
  0.796875   0.828125 0
  0.859375   0.562500 0
  0.796875   0.812500 0
  0.796875   0.796875 0
  0.859375   0.531250 0
  0.796875   0.781250 0
  0.796875   0.765625 0
  0.843750   0.750000 0
  0.781250   1.000000 0
  0.843750   0.625000 0
  0.781250   0.875000 0
  0.843750   0.734375 0
  0.781250   0.984375 0
  0.843750   0.718750 0
  0.781250   0.968750 0
  0.843750   0.703125 0
  0.781250   0.953125 0
  0.843750   0.687500 0
  0.781250   0.937500 0
  0.843750   0.609375 0
  0.781250   0.859375 0
  0.843750   0.593750 0
  0.781250   0.843750 0
  0.843750   0.578125 0
  0.781250   0.828125 0
  0.781250   0.812500 0
  0.843750   0.546875 0
  0.781250   0.796875 0
  0.781250   0.781250 0
  0.843750   0.515625 0
  0.781250   0.765625 0
  0.828125   0.750000 0
  0.765625   1.000000 0
  0.828125   0.625000 0
  0.765625   0.875000 0
  0.828125   0.734375 0
  0.765625   0.984375 0
  0.828125   0.718750 0
  0.765625   0.968750 0
  0.828125   0.703125 0
  0.765625   0.953125 0
  0.828125   0.687500 0
  0.765625   0.937500 0
  0.828125   0.609375 0
  0.765625   0.859375 0
  0.828125   0.593750 0
  0.765625   0.843750 0
  0.828125   0.578125 0
  0.765625   0.828125 0
  0.828125   0.562500 0
  0.765625   0.812500 0
  0.765625   0.796875 0
  0.828125   0.531250 0
  0.765625   0.781250 0
  0.765625   0.765625 0
  0.812500   0.750000 0
  0.750000   1.000000 0
  0.953125   1.000000 0
  0.812500   0.734375 0
  0.750000   0.984375 0
  0.812500   0.718750 0
  0.750000   0.968750 0
  0.812500   0.703125 0
  0.750000   0.953125 0
  0.812500   0.687500 0
  0.750000   0.937500 0
  0.812500   0.671875 0
  0.750000   0.921875 0
  0.812500   0.656250 0
  0.750000   0.906250 0
  0.812500   0.640625 0
  0.750000   0.890625 0
  0.812500   0.625000 0
  0.750000   0.875000 0
  0.812500   0.609375 0
  0.750000   0.859375 0
  0.812500   0.593750 0
  0.750000   0.843750 0
  0.812500   0.578125 0
  0.750000   0.828125 0
  0.750000   0.812500 0
  0.812500   0.546875 0
  0.750000   0.796875 0
  0.750000   0.781250 0
  0.812500   0.515625 0
  0.750000   0.765625 0
  0.796875   0.750000 0
  0.734375   1.000000 0
  0.796875   0.734375 0
  0.734375   0.984375 0
  0.796875   0.718750 0
  0.734375   0.968750 0
  0.796875   0.703125 0
  0.734375   0.953125 0
  0.796875   0.687500 0
  0.734375   0.937500 0
  0.796875   0.671875 0
  0.734375   0.921875 0
  0.796875   0.656250 0
  0.734375   0.906250 0
  0.796875   0.640625 0
  0.734375   0.890625 0
  0.796875   0.625000 0
  0.734375   0.875000 0
  0.796875   0.609375 0
  0.734375   0.859375 0
  0.796875   0.593750 0
  0.734375   0.843750 0
  0.796875   0.578125 0
  0.734375   0.828125 0
  0.734375   0.812500 0
  0.734375   0.796875 0
  0.796875   0.531250 0
  0.734375   0.781250 0
  0.734375   0.765625 0
  0.781250   0.750000 0
  0.718750   1.000000 0
  0.921875   1.000000 0
  0.781250   0.734375 0
  0.718750   0.984375 0
  0.781250   0.718750 0
  0.718750   0.968750 0
  0.781250   0.703125 0
  0.718750   0.953125 0
  0.859375   0.906250 0
  0.781250   0.687500 0
  0.718750   0.937500 0
  0.781250   0.671875 0
  0.718750   0.921875 0
  0.781250   0.656250 0
  0.718750   0.906250 0
  0.781250   0.640625 0
  0.718750   0.890625 0
  0.781250   0.625000 0
  0.718750   0.875000 0
  0.781250   0.609375 0
  0.718750   0.859375 0
  0.781250   0.593750 0
  0.718750   0.843750 0
  0.781250   0.578125 0
  0.718750   0.828125 0
  0.781250   0.562500 0
  0.718750   0.812500 0
  0.781250   0.546875 0
  0.718750   0.796875 0
  0.781250   0.531250 0
  0.718750   0.781250 0
  0.781250   0.515625 0
  0.718750   0.765625 0
  0.765625   0.750000 0
  0.703125   1.000000 0
  0.765625   0.734375 0
  0.703125   0.984375 0
  0.765625   0.718750 0
  0.703125   0.968750 0
  0.765625   0.703125 0
  0.703125   0.953125 0
  0.765625   0.687500 0
  0.703125   0.937500 0
  0.843750   0.890625 0
  0.703125   0.921875 0
  0.765625   0.656250 0
  0.703125   0.906250 0
  0.765625   0.640625 0
  0.703125   0.890625 0
  0.765625   0.625000 0
  0.703125   0.875000 0
  0.765625   0.609375 0
  0.703125   0.859375 0
  0.765625   0.593750 0
  0.703125   0.843750 0
  0.765625   0.578125 0
  0.703125   0.828125 0
  0.765625   0.562500 0
  0.703125   0.812500 0
  0.765625   0.546875 0
  0.703125   0.796875 0
  0.765625   0.531250 0
  0.703125   0.781250 0
  0.765625   0.515625 0
  0.703125   0.765625 0
  0.750000   0.750000 0
  0.687500   1.000000 0
  0.890625   1.000000 0
  0.750000   0.734375 0
  0.687500   0.984375 0
  0.750000   0.718750 0
  0.687500   0.968750 0
  0.578125   0.796875 0
  0.578125   0.781250 0
  0.578125   0.765625 0
  0.546875   0.953125 0
  0.546875   0.968750 0
  0.546875   0.718750 0
  0.546875   0.687500 0
  0.250000   0.609375 0
  0.937500   0.031250 0
  0.046875   0.703125 0
  0.734375   0.062500 0
  0.734375   0.078125 0
  0.734375   0.046875 0
  0.046875   0.593750 0
  0.046875   0.562500 0
  0.046875   0.531250 0
  0.718750   0.156250 0
  0.046875   0.609375 0
  0.734375   0.031250 0
  0.062500   0.609375 0
  0.234375   0.703125 0
  0.718750   0.125000 0
  0.046875   0.578125 0
  0.734375   0.000000 0
  0.062500   0.578125 0
  0.000000   0.828125 0
  0.234375   0.671875 0
  0.234375   0.625000 0
  0.718750   0.093750 0
  0.687500   0.156250 0
  0.062500   0.546875 0
  0.000000   0.796875 0
  0.718750   0.046875 0
  0.031250   0.687500 0
  0.687500   0.171875 0
  0.500000   1.000000 0
  0.078125   0.218750 0
  0.234375   0.593750 0
  0.718750   0.062500 0
  0.687500   0.125000 0
  0.000000   0.765625 0
  0.421875   0.500000 0
  0.031250   0.593750 0
  0.718750   0.015625 0
  0.687500   0.234375 0
  0.015625   0.812500 0
  0.703125   0.171875 0
  0.703125   0.187500 0
  0.703125   0.140625 0
  0.015625   0.781250 0
  0.437500   0.515625 0
  0.500000   0.796875 0
  0.078125   0.015625 0
  0.687500   0.203125 0
  0.250000   0.578125 0
  0.703125   0.109375 0
  0.000000   0.515625 0
  0.500000   0.765625 0
  0.062500   0.593750 0
  0.750000   0.015625 0
  0.015625   0.843750 0
  0.687500   0.000000 0
  0.500000   0.828125 0
  0.078125   0.046875 0
  0.015625   0.531250 0
  0.250000   0.546875 0
  0.703125   0.078125 0
  0.703125   0.031250 0
  0.015625   0.671875 0
  0.250000   0.515625 0
  0.000000   0.656250 0
  0.500000   0.906250 0
  0.078125   0.125000 0
  0.687500   0.015625 0
  0.031250   0.546875 0
  0.687500   0.031250 0
  0.500000   0.859375 0
  0.703125   0.000000 0
  0.703125   0.046875 0
  0.703125   0.015625 0
  0.500000   0.937500 0
  0.234375   0.531250 0
  0.031250   0.578125 0
  0.687500   0.062500 0
  0.500000   0.890625 0
  0.031250   0.796875 0
  0.453125   0.531250 0
  0.500000   0.968750 0
  0.078125   0.187500 0
  0.234375   0.562500 0
  0.031250   0.609375 0
  0.718750   0.031250 0
  0.687500   0.093750 0
  0.750000   0.046875 0
  0.000000   0.937500 0
  0.421875   0.671875 0
  0.718750   0.187500 0
  0.031250   0.828125 0
  0.765625   0.062500 0
  0.015625   0.953125 0
[...]
CELL_DATA 7648
SCALARS scalar_value float 1
LOOKUP_TABLE default
-0.00253005
-0.00226754
-0.0032692
-0.0018972
0.00210278
0.00115105
0.00121165
-4.45768e-05
0.000116326
-0.000664724
1.08216e-05
-0.00331932
0.00181084
0.00106775
-0.000797611
0.00040424
-0.00267794
0.00213652
0.0011472
8.49749e-05
1.40595e-05
0.000253829
4.20791e-05
2.38838e-07
0.000635896
-0.000652325
0.00209714
0.00302415
-0.000293954
0.000185405
1.82939e-05
-0.000464283
8.99809e-05
-6.69254e-05
-4.18554e-05
5.86623e-05
0.000207956
-4.06582e-05
-0.000260436
0.000167203
-3.44067e-05
0.000254596
-0.00107088
-1.26646e-05
0.000158727
-9.64973e-05
-0.000350858
-0.00013298
0.000105488
-0.000275031
-2.95393e-05
2.1212e-05
-0.000872646
-0.00330297
-1.03876e-05
-7.79469e-05
-0.000462078
2.082e-05
-0.00279331
0.000169347
0.000254189
-0.000299078
-8.26164e-05
-0.000256908
0.000580695
-0.000103777
0.00267292
-0.00283437
0.000244075
0.000211054
0.000188673
1.08946e-05
1.48041e-05
5.22662e-05
0.000452641
0.00241599
-0.000190555
0.000177252
-5.51643e-05
3.13418e-06
6.77558e-06
-0.00024682
0.00239723
-0.00021458
0.000125358
6.79923e-05
0.00518084
0.00173479
0.000657924
0.00151684
0.00183227
0.000710096
0.0002887
0.000250756
-0.000148489
0.000105413
-0.000567579
0.000107158
0.000131314
0.000257995
0.000258143
0.000243223
0.000160405
0.000121572
0.00239135
-0.00752776
1.60558e-05
-0.000391305
-0.0013407
0.000735985
0.000170844
4.19784e-05
0.000234394
-0.000974823
-6.62736e-05
0.00208239
0.000226963
-0.00116579
-0.000565562
-0.00241249
-0.00177475
0.000280126
-0.000818739
0.000106865
1.36784e-05
-9.27962e-06
2.4081e-05
0.000223884
-0.00113811
-0.00139539
0.00056669
9.66136e-05
-0.00287006
-6.18811e-05
-7.62905e-05
-9.298e-05
0.000695358
-8.1674e-05
0.000957465
-0.00131041
0.00210791
5.06344e-05
9.21873e-05
8.23898e-05
0.000577189
-0.000116688
-0.000258786
6.88774e-05
-0.000174234
0.00016476
0.000102506
-1.63965e-05
-5.07419e-05
-0.00431826
0.000106977
0.00878255
0.00191908
-0.00119561
-7.16371e-05
0.000154339
-0.0019927
-5.686e-05
-0.000251304
-0.000307177
0.000158178
-1.57439e-05
-0.00105871
0.00174561
0.000652795
0.000679085
0.000181282
-0.000268274
-9.44234e-05
7.93699e-05
-0.000271595
-0.000153378
0.000519259
9.7454e-05
6.23495e-05
9.88085e-05
-4.2164e-05
3.05359e-05
4.13653e-05
-2.74152e-05
3.9077e-05
-0.000113908
0.000994492
0.000859641
5.4092e-05
0.000601337
0.000653755
5.62184e-05
0.001591
-2.17952e-05
3.35123e-05
1.7862e-05
-1.11708e-05
0.000501702
-0.000184299
-0.00100001
-0.000183352
0.000419327
-0.000417394
-0.000261988
-0.000175401
-3.71462e-05
-8.67289e-05
8.97731e-05
-0.000477588
0.000202174
-0.000262206
0.0010104
4.54471e-05
0.000433328
-0.000222709
0.000891511
-5.96467e-05
0.000144752
-0.000237272
-0.000835205
-0.000192925
4.12974e-05
0.000688103
-0.000150338
0.000194719
0.000699355
-0.000215391
4.49209e-05
1.69319e-05
-0.0019447
0.00158089
-0.000641417
-6.64574e-05
7.0376e-05
8.65472e-05
1.39535e-05
-1.80799e-05
4.92582e-06
5.01014e-05
-0.0020262
6.51178e-05
-0.00140734
0.000604541
-0.000231493
0.00105182
5.28402e-05
1.6477e-05
-0.00115278
0.000395376
6.69398e-05
4.71896e-05
0.000131766
4.44159e-05
7.95944e-05
9.32241e-05
-0.000399239
7.66698e-05
0.0023666
-0.000292203
0.00060151
-0.00317938
-0.00265374
0.000652368
0.000697589
0.000337388
-0.000151912
-2.50156e-06
-0.000575994
0.00226058
0.00302666
-0.000422118
0.00013424
0.000468826
0.00130926
-0.000465894
-0.000513152
0.00128875
0.000406882
0.000624403
9.03838e-05
0.000140802
0.000663391
0.000209618
4.2427e-05
6.837e-05
-0.000198182
-0.00121442
0.000354951
-0.000824464
-0.000242016
-0.000816457
-0.0013171
-0.00195009
0.000127765
0.000617067
-0.000674825
-0.000398634
-0.000262318
-0.000866831
-0.00101604
-0.000632075
0.000625776
0.000129192
-0.000904808
0.000283739
-0.00105626
2.68161e-05
-0.000244095
-0.000367039
-0.000280539
5.21512e-06
-0.000353608
0.00574028
-0.000430532
8.76071e-05
0.000378195
0.000377864
0.000100195
-0.000251093
-0.000455328
-2.64439e-05
3.64164e-05
0.000356822
-5.11455e-05
1.19353e-06
0.000770226
-6.11246e-05
2.22759e-05
6.69916e-05
4.10205e-05
-0.000176643
0.000349512
7.07611e-05
4.48911e-05
0.000216935
0.000148082
0.000155582
-2.3039e-06
0.000133736
-1.34571e-05
0.000142137
0.00053593
0.000202768
0.000202464
0.000303225
-8.01555e-05
-0.000282385
8.4615e-07
4.34774e-05
-1.01439e-05
0.00387893
-0.000891156
0.000571471
-0.000439876
-0.000771432
-0.000179567
-0.000219345
3.98072e-05
0.00014815
0.00026884
0.000291187
0.00015808
0.00205282
3.6198e-05
-0.000843233
-8.01748e-05
0.00039092
-0.000107511
8.26549e-05
0.000231335
-0.000262705
1.16274e-05
-3.18874e-05
2.39921e-05
-0.00063101
0.000752029
-7.14923e-05
0.000221535
0.000485682
-0.000632222
-0.000321756
0.0006661
-4.73838e-05
0.000488842
0.000603572
-3.70498e-06
-4.31641e-07
-0.000114471
-8.73213e-05
0.000788863
-5.33417e-05
5.12088e-05
0.000238396
-0.000430216
1.42201e-05
0.000476594
0.00115942
4.3261e-05
-0.000588483
-8.87341e-06
-0.000501003
0.000422437
-1.38355e-05
-4.59822e-05
-9.74415e-07
2.40711e-06
0.000104039
0.000101421
0.00030771
4.09743e-05
-0.00581519
0.00106084
-0.000299045
0.000328788
0.00118912
-0.0030721
-0.0031056
-6.1262e-05
-0.0006314
-0.000323772
-0.000430808
-0.000152294
0.00069522
7.92753e-05
0.000551306
-0.000154773
0.0001237
-0.00601893
0.000120568
-0.00165814
-0.00309961
-0.000597652
-8.13015e-05
0.000411077
0.000912895
0.000395253
6.22665e-05
-0.000310294
4.74139e-05
0.00012658
-0.000759174
8.82517e-06
0.000377446
0.000337179
5.90635e-05
-1.69921e-05
0.000205481
-0.00120712
5.46338e-05
0.00216214
4.8582e-05
-0.00522378
0.000122528
-0.000532528
-0.000130371
-6.03316e-05
0.00066997
-0.000439578
-0.000980505
-0.000240788
-0.000768552
-1.85218e-05
-0.00166095
-6.32729e-05
-8.45036e-05
1.11419e-05
-0.000144844
-0.000105141
-2.06333e-05
0.000616518
-0.000498283
-0.000421094
0.000233311
2.98852e-05
0.00102941
0.0023374
-0.00210038
6.49519e-05
-0.00218705
0.00133175
7.97703e-05
0.000966856
0.000325628
0.00033849
0.00107836
-0.000249726
-1.32548e-05
-5.00067e-05
0.000203036
-0.000469817
7.23889e-05
0.000245204
-4.73522e-05
0.000690483
0.00871844
-0.00354217
9.97593e-05
-4.10394e-05
9.61261e-05
0.000145267
-0.000122943
3.74698e-07
1.92226e-05
-8.16588e-05
0.000236432
0.000583158
-3.25805e-05
1.54728e-05
0.000214993
2.37588e-05
2.51722e-05
2.2814e-05
-2.84991e-05
0.00892174
0.00110418
0.00143459
9.63246e-05
5.5351e-06
-0.000504746
-0.00266242
-0.0017281
0.0016451
4.5372e-05
1.58884e-05
0.000211143
4.74501e-05
0.00119648
1.69847e-06
0.000262239
0.00196216
-0.000537136
0.000260492
0.000136954
0.00200523
4.01237e-05
0.000102557
1.19201e-06
0.000116475
0.00210553
0.000739917
-0.0024142
0.000113116
0.000371143
0.000109611
-0.000108877
0.000383463
-0.000826384
0.00357317
0.000534599
-0.000814969
0.000192073
-8.51098e-05
2.02128e-05
3.74446e-05
0.00105955
0.000777517
0.000208396
-3.18287e-05
0.00488446
-0.000227256
-0.00156537
0.00186094
-0.000836387
0.00252355
0.00574935
-1.32978e-05
0.000427563
-9.34482e-05
2.57391e-05
2.44335e-05
-3.73689e-06
-0.000490142
0.000395463
-0.000107139
-0.000248847
0.000458622
0.000262081
7.62649e-05
0.000185261
1.65833e-05
0.00214334
-0.000588589
-0.000778712
-7.79139e-06
-6.20407e-05
-0.000370757
-9.80086e-05
1.31251e-05
-0.000505918
-9.76211e-05
7.72816e-05
0.000299231
-0.00117885
0.0244657
7.01299e-05
7.60906e-05
-0.000219874
-0.00304693
0.000980304
0.00164999
-0.000543082
7.46469e-05
0.000229497
0.000451224
-8.59255e-05
-3.09368e-05
-0.000387519
2.56665e-06
-6.12529e-05
-8.25496e-05
-0.000213746
-0.00100275
-0.000533321
-0.000206076
0.000233096
0.000211619
-3.24304e-05
0.000646467
-0.000665872
-8.31091e-05
-1.91861e-05
0.000111436
0.000208067
0.000305814
-0.000521813
3.79524e-05
0.00184052
-0.00067612
0.000313271
0.000270511
-0.000148354
8.77758e-05
-0.000349985
-6.53518e-05
-7.53211e-05
-1.98632e-05
0.000237739
-0.00197621
-0.0022467
7.93902e-05
-2.87421e-05
-7.87438e-05
-5.4541e-05
0.000560808
0.000234944
0.000176456
6.83412e-05
-0.000140948
0.00281385
-4.22216e-05
-7.49315e-05
-0.00327092
-0.000447349
0.000336366
-4.30265e-05
-0.000243622
-0.000512383
0.000925488
0.00182637
0.000957027
-7.31025e-06
0.00226401
-0.00478109
-0.000779105
-0.000144278
0.00124187
-0.00196448
-0.00397048
0.000345667
0.000282323
-0.00100622
-0.00179438
3.66725e-05
0.00271811
-0.000205621
6.96332e-05
-2.08388e-05
-0.000670114
2.41267e-05
-0.000119777
-0.0032229
0.000230105
-0.000354683
0.000194354
5.50898e-05
0.00451958
0.000559756
-0.00208305
-5.17637e-05
-3.66234e-05
-0.000477134
-6.61144e-07
-0.00122151
-9.08869e-05
0.00139963
-0.000256029
-0.000516531
0.000260245
0.000156059
8.99547e-05
-0.000511003
4.74355e-06
0.00093719
-0.000352588
0.00330614
0.000411791
-0.00285975
1.40932e-05
0.000208311
-0.00399195
-0.0013557
-0.00284036
0.00044705
-9.49975e-05
-0.000204076
-0.000209803
-0.000522063
0.00180452
0.00507846
6.59631e-05
-0.00287614
-0.00331339
-1.86823e-05
-0.00341707
-0.00283251
-0.000222289
-0.00015287
-0.000265474
-0.000140275
0.000111595
-7.16085e-05
7.59658e-05
0.000250418
6.16307e-05
6.31329e-05
3.05251e-05
9.09061e-05
-0.00084646
0.000130635
-2.75722e-05
-0.000479011
5.54313e-05
-0.000315877
-0.000233738
-0.00132558
-0.000116668
-0.000257246
0.000661111
9.70513e-05
-7.50239e-05
0.000116575
0.000804354
4.93161e-05
-2.1287e-05
0.00178201
-4.24518e-05
-0.000632076
-0.000199148
-3.87326e-05
0.00229898
7.07627e-05
2.37741e-05
-6.37639e-05
0.000327462
0.00020771
-8.18676e-05
-0.000652067
0.000122414
2.69155e-05
-7.20561e-06
7.9245e-06
-4.14267e-05
0.00148021
-0.00543068
1.71877e-05
0.000204748
1.29534e-05
0.000155236
0.00182059
0.000155469
0.000106907
4.08285e-05
5.93094e-05
0.000194772
-6.98507e-05
1.38668e-05
-0.000440019
9.8548e-05
-0.000638575
0.00244925
0.000361361
-3.22986e-05
0.000203138
-0.000278437
-0.000980958
0.000500488
0.000883014
-0.000204392
-7.87239e-05
0.000105608
0.00111489
-0.000540993
0.000243214
-0.000253762
0.00412885
0.00025824
-0.000182142
0.000427976
-0.000152315
0.0017138
0.000750558
0.000498253
-3.37337e-05
0.000869164
-0.00245604
0.000180697
-4.33091e-05
-0.000444427
0.000141043
-0.00402398
-0.00502684
-0.00141489
4.27237e-05
-0.000342665
-0.0055017
-0.00330424
0.000114635
7.12568e-05
-0.00177733
-0.00184662
-4.35766e-05
-2.95439e-05
-2.60542e-05
0.000133306
0.000439629
0.000121743
-0.000107532
0.000163779
4.7705e-06
0.000298061
-0.0011051
-7.69209e-05
0.00197607
0.00164828
-0.000723523
-0.000266278
-0.00136366
-6.04092e-05
0.0001287
-6.36413e-06
6.05888e-05
0.00398655
-4.40605e-05
0.000416642
-0.000264029
0.0012679
-0.000258529
-1.53731e-05
-0.000150401
0.000273235
-7.29353e-05
8.34035e-05
0.000116028
-0.00054596
-0.000239442
-0.000336437
0.0012668
-0.000324351
-0.000112448
0.00236196
-8.55422e-05
-0.000431453
1.63477e-06
-0.000225781
-3.93914e-05
-0.00062545
-0.000528839
0.00176305
-0.000596928
-0.00430265
-0.00477125
3.44469e-05
-0.000672368
5.30513e-05
-0.000494335
-0.00273272
0.00298845
0.00027446
-0.00144226
8.75067e-05
-0.000305385
0.000354726
-4.27255e-06
3.50705e-05
8.96089e-05
-0.000494905
0.000196747
6.67531e-05
8.37003e-06
-0.000431506
9.17969e-05
-5.00703e-05
0.000376468
3.42106e-05
5.73421e-05
-0.00171348
-0.0024693
0.000147901
-0.000266316
0.000106824
-0.00281336
-0.000129836
0.00103265
0.00164574
0.00214554
0.000603874
-0.00308568
3.88102e-05
0.00175707
0.000231551
0.000190366
-0.000354685
0.0196353
5.17947e-05
0.00942798
0.0032622
4.29557e-05
0.00608869
-8.29941e-05
-1.74703e-05
-0.000931619
0.00245142
0.00180976
-8.05011e-05
0.00148801
-2.63151e-06
-0.000228878
0.00153982
0.00221328
4.30724e-05
-0.00221913
-0.000124357
-0.000219538
0.00494033
2.06652e-05
-0.000641632
2.37235e-05
1.63766e-05
-3.62079e-05
0.000228399
0.00299737
-0.00011846
-0.000293774
0.000164032
-2.75227e-06
-3.98613e-05
-6.593e-05
-0.00170426
-0.000829569
-2.26249e-05
-9.21459e-05
3.1689e-06
0.00142362
-2.47242e-06
0.000746579
0.00148223
-4.65795e-05
5.85062e-05
-0.000103285
-2.45086e-05
3.74569e-05
0.000939209
-8.88659e-05
4.74121e-05
0.000363463
0.000759025
0.000855769
-3.14004e-06
-0.00140777
0.000654897
0.000604282
-0.00314627
3.39998e-05
-0.000960376
-0.00240831
0.000152096
-5.20566e-06
-0.000529339
2.21785e-05
0.000219658
-0.00279028
0.000995556
0.000624858
0.000163304
1.95372e-05
-1.34079e-05
5.8209e-05
-7.32297e-05
0.00102419
0.00013919
-0.000910928
0.000107975
-5.6421e-05
-4.90523e-05
4.76546e-05
0.00350032
0.000964329
0.000112724
-0.00116836
0.000136274
0.000993716
-4.62567e-05
0.000110058
-0.000163739
-0.00099549
-0.00045251
-3.69386e-05
0.000134841
2.52848e-05
-0.00149354
0.0052227
0.000869572
0.00563951
-0.000506088
0.00281
-3.4556e-05
-5.63595e-05
-0.00569743
-0.000103274
8.08997e-06
0.0031749
-0.000301145
-0.000332298
-0.000809952
0.000151632
2.92919e-05
-0.000237277
-0.000563054
-0.000205672
0.000890514
4.20676e-05
-3.92876e-05
0.000260481
0.00021805
0.000335255
8.48336e-05
0.000133283
-2.65735e-06
0.00117124
0.00083231
5.75574e-05
0.000186385
-6.43014e-05
-2.22599e-05
0.000176519
0.00033395
3.99957e-05
-3.21945e-05
6.45787e-06
-1.49768e-05
-1.93459e-05
-0.000165775
3.35117e-05
-5.36686e-05
8.34142e-06
-0.000102003
-0.0020642
0.00193368
0.000824
7.59018e-05
1.90854e-05
4.31822e-05
2.22997e-05
0.00104174
-0.000373231
-0.000950815
-0.000143436
-0.000142816
-0.000331591
0.000818712
-0.000784154
-0.000121604
-0.000255395
4.46764e-05
0.000366573
-1.55189e-05
0.000294998
-2.26454e-05
0.000167767
-0.00184604
0.00135232
0.00146929
-0.0028826
-0.000111056
-0.00223969
0.00209236
-4.31e-06
0.000510278
0.00332416
-0.000281126
-0.000720112
-1.86582e-06
0.000366599
5.68747e-05
-0.000474729
0.0215011
-0.000204943
0.0027426
0.000850464
-0.000223699
0.000380737
-2.04805e-05
0.0063146
0.00012633
-0.00089662
-0.00304968
2.94399e-05
-5.944e-05
-0.000165728
0.000723099
0.000389117
-0.00154835
0.00121513
0.000480187
8.62105e-06
-7.12294e-05
-0.00018391
-0.000191894
0.00561906
-0.0013514
-0.000145145
0.000192009
-0.000108587
-0.000108053
-3.10194e-05
4.43645e-05
0.000134994
8.57573e-05
1.22283e-05
0.000235428
5.20309e-05
4.63734e-05
-5.27569e-05
-2.41446e-05
3.99606e-05
0.00035956
3.98778e-06
-0.000387776
0.000144993
-0.000636882
0.00536466
0.00399411
0.00138614
-0.000523763
-0.000421821
-9.21801e-05
5.87936e-05
0.000167917
-0.000209628
-7.88871e-06
-5.63824e-05
-0.000642549
-5.80657e-05
-4.73443e-06
0.00477167
0.000367471
0.000273794
0.000135044
-0.000894307
-0.000581083
-0.000132598
-0.000663218
-0.00234376
0.00166035
0.00013065
-0.00206709
0.00235401
-0.000321177
0.000665788
-0.000159809
-0.00517772
-0.00227132
0.000167557
5.27237e-05
-0.000451466
-0.000171253
-0.000156001
-0.00040923
-0.000201967
2.12643e-06
2.87035e-06
-4.2258e-05
-0.000159006
-2.12523e-05
-0.000702019
-0.000234343
-0.00110397
-7.55827e-05
0.00104691
2.65457e-05
0.000521207
0.000174105
2.31633e-05
5.66423e-06
8.80951e-05
0.000381914
0.000667015
-0.00282659
0.00329237
0.00201621
0.00272662
1.39767e-05
4.26177e-05
0.00121334
0.00774858
0.00364852
-0.00747743
-0.001744
-6.43223e-05
-0.000172716
6.90078e-06
0.000116083
0.000231105
5.24386e-05
0.000107401
-8.66253e-06
-5.80621e-06
0.000227542
-8.41288e-05
9.77256e-05
0.000952277
0.00013176
0.000254078
-6.14128e-05
4.92273e-05
-0.000766679
-0.000414513
0.000289421
-0.000642335
0.000129141
-2.56967e-05
-1.64359e-05
0.000141321
-2.56063e-05
-2.45378e-05
-0.000244243
0.000155099
0.00305447
0.000543886
6.5621e-05
-0.000693014
0.0025969
0.000913085
-4.31422e-05
-8.15802e-08
0.00034144
4.35e-05
0.00051307
0.00148119
-3.46001e-05
-1.34765e-05
8.19915e-05
-5.04758e-05
-2.98183e-06
-5.98101e-05
3.40073e-05
-5.82108e-05
-5.10167e-05
-0.000134559
0.000455957
-0.00109239
-9.16481e-05
-0.000396545
0.00349254
-0.00271611
-0.00365612
-5.44405e-05
0.000211251
0.00346847
-0.000266477
-0.0002334
-0.000464608
-3.51068e-05
-2.58369e-05
-3.10934e-05
0.00284518
1.34001e-05
-3.21218e-05
-0.000302002
3.42522e-05
-0.000199806
-0.000821188
0.000327502
-0.000395347
-0.000518399
0.00027411
8.66556e-06
0.00022585
-0.000891588
-0.00126551
-0.00111127
-0.00101435
0.000100378
0.000461229
0.000838391
0.000131966
0.000333205
0.00029747
0.000261402
-0.00042568
6.88897e-05
-0.000145147
-0.00148385
6.91384e-05
3.80547e-05
0.000199882
0.000295107
0.00232455
2.61707e-05
4.25977e-05
6.91941e-06
-1.95366e-05
0.00190777
0.000326716
0.000315491
-2.22647e-05
0.000406113
-0.00457999
-0.00223834
-0.00399952
0.000121507
-0.000801889
0.00015776
-2.908e-05
-0.00045702
0.00136044
0.0021507
-0.000981147
0.000209329
-0.000201249
8.02996e-05
3.28996e-05
-0.000145509
0.000630027
0.000145903
0.000646725
0.000133667
-1.55013e-05
0.000639491
0.000343456
0.000133321
0.000271145
2.73724e-05
-0.00310095
-0.000887526
-0.00484555
-0.00192269
-0.00499819
0.000514207
0.0014514
-0.000693242
0.0016113
4.90314e-05
0.000116293
-0.000196525
0.000158842
0.00142177
-0.000283996
-0.000358493
-0.000258278
0.000673423
0.000308046
1.05484e-05
0.00205313
-0.000391041
-0.00138757
-3.26342e-05
-0.000424752
-0.00114496
-0.000852116
-9.84905e-05
-2.54666e-05
-0.00442269
-0.00433906
-0.00270511
-0.000197419
-5.97014e-05
0.00183753
2.00943e-05
-0.000526177
6.2533e-05
0.000205456
9.80835e-05
0.0017987
0.00152495
-2.00559e-05
7.60156e-05
0.000213436
2.20531e-05
-2.02788e-05
-1.74449e-05
3.68827e-05
-0.000423585
0.000255171
0.000230524
-2.63875e-05
0.000482427
0.00242962
-0.000491901
0.000113767
1.88266e-05
-9.79679e-06
0.00376677
-0.000297001
0.000332551
0.000451957
-0.000178613
0.000186701
1.85419e-05
-0.000183204
-0.000127032
-9.29783e-05
3.84631e-05
0.000311059
0.000442459
0.000554048
8.10788e-05
4.03115e-05
2.82644e-05
-0.000135378
0.000793709
5.13257e-05
1.20181e-05
-7.91914e-05
-9.51928e-05
0.000111619
6.54785e-05
0.00168306
5.00048e-05
8.56206e-05
-0.000140267
-6.45731e-05
-0.000681769
-0.000513585
-0.00023432
2.7099e-05
-5.42547e-05
1.26245e-05
0.000473984
7.30309e-06
-6.29269e-05
0.00298475
0.00223707
-0.00018573
0.00143484
0.000184868
-0.00283165
-0.000180112
-8.75357e-05
-0.00461741
0.00488278
0.00506875
-0.000218422
-0.000603488
-0.00389977
-0.00571745
0.0049082
0.000164674
-0.000686605
7.06377e-05
5.11714e-05
0.00187751
0.00207171
-0.000431613
-4.36763e-05
-0.000115703
-0.000175349
-0.000849459
7.19227e-05
-7.70767e-05
3.15473e-05
0.00165082
0.000111926
-0.000765629
-7.48204e-05
-0.000674064
-8.32103e-05
0.000271136
-0.00049269
-0.000105393
-8.10787e-05
-0.000663628
0.00300895
0.00830477
-0.000148834
0.00137449
0.0029502
0.000563158
0.00214006
-0.000522118
-2.6924e-05
8.17242e-05
0.000252437
0.000652188
-0.000791062
0.00067228
0.000610673
0.000129996
0.00010152
-2.09811e-05
4.27344e-05
1.50324e-05
0.000177095
0.000143635
9.72915e-05
2.05182e-05
0.000549137
0.000246544
8.13061e-05
0.000213985
6.3e-06
-0.000271848
-0.00067336
-0.000861891
-0.0383176
0.000716809
-0.000603577
0.000334846
-0.000208697
-1.45238e-05
0.000160193
-0.000162135
-3.78599e-05
0.000496501
0.000354416
0.0006803
-0.00482325
-0.00528983
4.59098e-05
0.000721154
0.000462444
-0.00409675
-0.0061798
-0.00353842
-1.2302e-05
0.00249601
0.00118574
-0.00404841
-0.00192445
-0.000890389
-5.29646e-05
5.7004e-05
6.13427e-05
-1.21296e-05
-2.53299e-05
0.000266939
0.000301842
1.05812e-05
-2.23773e-05
-3.38998e-05
5.30083e-05
-4.99648e-05
2.00635e-05
-0.000139731
5.96871e-05
0.000100152
-8.00113e-05
0.000861642
-6.8935e-05
0.000675416
-0.000314495
-0.000507218
-0.000187906
-3.03681e-05
0.00377577
-0.00497964
0.00473977
-0.000552736
-0.00265758
-0.000470796
-0.00131125
-0.00135292
-0.000594512
0.00184304
4.60032e-05
-0.000130996
-0.000199188
-6.82896e-05
0.000306892
-0.00200194
-0.000430736
-0.00143911
1.02771e-05
1.45199e-05
-4.85568e-05
-2.26358e-05
-0.00114159
0.000717701
0.00236899
0.0020818
0.00284452
-0.00160368
-2.19768e-05
-2.04054e-05
0.000418455
4.35289e-05
0.000118943
-0.000847294
6.56887e-05
0.000520137
-6.72379e-05
-0.0009262
-0.00177359
-0.000275445
3.32091e-05
-0.000114609
-0.000184242
-0.000146907
0.00174065
0.00178831
0.000181691
-0.000430782
-0.00129426
0.00130309
-0.00099553
0.000118552
-0.00175054
-0.00125421
0.000418459
0.00160076
0.000597603
-0.000426993
1.15901e-05
7.75597e-05
9.13711e-05
0.000143715
-0.00216309
-0.00178337
-0.00136624
0.000228915
-0.000138302