# vtk DataFile Version 2.0
Unstructured Grid by M++
ASCII
DATASET UNSTRUCTURED_GRID
POINTS 4072 float
  0.875000   1.000000 0
  0.875000   0.984375 0
  0.875000   0.968750 0
  0.875000   0.953125 0
  0.875000   0.937500 0
  0.875000   0.921875 0
  0.875000   0.906250 0
  0.875000   0.890625 0
  0.875000   0.875000 0
  0.875000   0.859375 0
  0.875000   0.843750 0
  0.875000   0.828125 0
  0.875000   0.812500 0
  0.875000   0.796875 0
  0.875000   0.781250 0
  0.875000   0.765625 0
  0.859375   1.000000 0
  0.859375   0.984375 0
  0.859375   0.968750 0
  0.859375   0.953125 0
  0.859375   0.937500 0
  0.859375   0.921875 0
  0.859375   0.890625 0
  0.859375   0.875000 0
  0.859375   0.859375 0
  0.859375   0.843750 0
  0.859375   0.828125 0
  0.859375   0.812500 0
  0.859375   0.796875 0
  0.859375   0.781250 0
  0.859375   0.765625 0
  0.859375   0.671875 0
  0.859375   0.656250 0
  0.859375   0.640625 0
  0.843750   1.000000 0
  0.843750   0.984375 0
  0.843750   0.968750 0
  0.843750   0.953125 0
  0.843750   0.937500 0
  0.843750   0.921875 0
  0.843750   0.906250 0
  0.843750   0.875000 0
  0.843750   0.859375 0
  0.843750   0.843750 0
  0.843750   0.828125 0
  0.843750   0.812500 0
  0.843750   0.796875 0
  0.843750   0.781250 0
  0.843750   0.765625 0
  0.843750   0.671875 0
  0.843750   0.656250 0
  0.843750   0.640625 0
  0.828125   1.000000 0
  0.828125   0.984375 0
  0.828125   0.968750 0
  0.828125   0.953125 0
  0.828125   0.937500 0
  0.828125   0.921875 0
  0.875000   0.671875 0
  0.812500   0.921875 0
  0.890625   0.656250 0
  0.828125   0.906250 0
  0.875000   0.656250 0
  0.812500   0.906250 0
  0.890625   0.640625 0
  0.828125   0.890625 0
  0.875000   0.640625 0
  0.812500   0.890625 0
  0.890625   0.625000 0
  0.828125   0.875000 0
  0.890625   0.609375 0
  0.828125   0.859375 0
  0.890625   0.593750 0
  0.828125   0.843750 0
  0.890625   0.578125 0
  0.828125   0.828125 0
  0.890625   0.562500 0
  0.828125   0.812500 0
  0.828125   0.796875 0
  0.828125   0.781250 0
  0.828125   0.765625 0
  0.828125   0.671875 0
  0.828125   0.656250 0
  0.828125   0.640625 0
  0.875000   0.750000 0
  0.812500   1.000000 0
  0.875000   0.625000 0
  0.812500   0.875000 0
  0.875000   0.734375 0
  0.812500   0.984375 0
  0.875000   0.718750 0
  0.812500   0.968750 0
  0.875000   0.703125 0
  0.812500   0.953125 0
  0.875000   0.687500 0
  0.812500   0.937500 0
  0.875000   0.609375 0
  0.812500   0.859375 0
  0.875000   0.593750 0
  0.812500   0.843750 0
  0.875000   0.578125 0
  0.812500   0.828125 0
  0.812500   0.812500 0
  0.875000   0.546875 0
  0.812500   0.796875 0
  0.812500   0.781250 0
  0.812500   0.765625 0
  0.859375   0.750000 0
  0.796875   1.000000 0
  0.859375   0.625000 0
  0.796875   0.875000 0
  0.859375   0.734375 0
  0.796875   0.984375 0
  0.859375   0.718750 0
  0.796875   0.968750 0
  0.859375   0.703125 0
  0.796875   0.953125 0
  0.859375   0.687500 0
  0.796875   0.937500 0
  0.859375   0.609375 0
  0.796875   0.859375 0
  0.859375   0.593750 0
  0.796875   0.843750 0
  0.859375   0.578125 0
  0.796875   0.828125 0
  0.859375   0.562500 0
  0.796875   0.812500 0
  0.796875   0.796875 0
  0.859375   0.531250 0
  0.796875   0.781250 0
  0.796875   0.765625 0
  0.843750   0.750000 0
  0.781250   1.000000 0
  0.843750   0.625000 0
  0.781250   0.875000 0
  0.843750   0.734375 0
  0.781250   0.984375 0
  0.843750   0.718750 0
  0.781250   0.968750 0
  0.843750   0.703125 0
  0.781250   0.953125 0
  0.843750   0.687500 0
  0.781250   0.937500 0
  0.843750   0.609375 0
  0.781250   0.859375 0
  0.843750   0.593750 0
  0.781250   0.843750 0
  0.843750   0.578125 0
  0.781250   0.828125 0
  0.781250   0.812500 0
  0.843750   0.546875 0
  0.781250   0.796875 0
  0.781250   0.781250 0
  0.843750   0.515625 0
  0.781250   0.765625 0
  0.828125   0.750000 0
  0.765625   1.000000 0
  0.828125   0.625000 0
  0.765625   0.875000 0
  0.828125   0.734375 0
  0.765625   0.984375 0
  0.828125   0.718750 0
  0.765625   0.968750 0
  0.828125   0.703125 0
  0.765625   0.953125 0
  0.828125   0.687500 0
  0.765625   0.937500 0
  0.828125   0.609375 0
  0.765625   0.859375 0
  0.828125   0.593750 0
  0.765625   0.843750 0
  0.828125   0.578125 0
  0.765625   0.828125 0
  0.828125   0.562500 0
  0.765625   0.812500 0
  0.765625   0.796875 0
  0.828125   0.531250 0
  0.765625   0.781250 0
  0.765625   0.765625 0
  0.812500   0.750000 0
  0.750000   1.000000 0
  0.953125   1.000000 0
  0.812500   0.734375 0
  0.750000   0.984375 0
  0.812500   0.718750 0
  0.750000   0.968750 0
  0.812500   0.703125 0
  0.750000   0.953125 0
  0.812500   0.687500 0
  0.750000   0.937500 0
  0.812500   0.671875 0
  0.750000   0.921875 0
  0.812500   0.656250 0
  0.750000   0.906250 0
  0.812500   0.640625 0
  0.750000   0.890625 0
  0.812500   0.625000 0
  0.750000   0.875000 0
  0.812500   0.609375 0
  0.750000   0.859375 0
  0.812500   0.593750 0
  0.750000   0.843750 0
  0.812500   0.578125 0
  0.750000   0.828125 0
  0.750000   0.812500 0
  0.812500   0.546875 0
  0.750000   0.796875 0
  0.750000   0.781250 0
  0.812500   0.515625 0
  0.750000   0.765625 0
  0.796875   0.750000 0
  0.734375   1.000000 0
  0.796875   0.734375 0
  0.734375   0.984375 0
  0.796875   0.718750 0
  0.734375   0.968750 0
  0.796875   0.703125 0
  0.734375   0.953125 0
  0.796875   0.687500 0
  0.734375   0.937500 0
  0.796875   0.671875 0
  0.734375   0.921875 0
  0.796875   0.656250 0
  0.734375   0.906250 0
  0.796875   0.640625 0
  0.734375   0.890625 0
  0.796875   0.625000 0
  0.734375   0.875000 0
  0.796875   0.609375 0
  0.734375   0.859375 0
  0.796875   0.593750 0
  0.734375   0.843750 0
  0.796875   0.578125 0
  0.734375   0.828125 0
  0.734375   0.812500 0
  0.734375   0.796875 0
  0.796875   0.531250 0
  0.734375   0.781250 0
  0.734375   0.765625 0
  0.781250   0.750000 0
  0.718750   1.000000 0
  0.921875   1.000000 0
  0.781250   0.734375 0
  0.718750   0.984375 0
  0.781250   0.718750 0
  0.718750   0.968750 0
  0.781250   0.703125 0
  0.718750   0.953125 0
  0.859375   0.906250 0
  0.781250   0.687500 0
  0.718750   0.937500 0
  0.781250   0.671875 0
  0.718750   0.921875 0
  0.781250   0.656250 0
  0.718750   0.906250 0
  0.781250   0.640625 0
  0.718750   0.890625 0
  0.781250   0.625000 0
  0.718750   0.875000 0
  0.781250   0.609375 0
  0.718750   0.859375 0
  0.781250   0.593750 0
  0.718750   0.843750 0
  0.781250   0.578125 0
  0.718750   0.828125 0
  0.781250   0.562500 0
  0.718750   0.812500 0
  0.781250   0.546875 0
  0.718750   0.796875 0
  0.781250   0.531250 0
  0.718750   0.781250 0
  0.781250   0.515625 0
  0.718750   0.765625 0
  0.765625   0.750000 0
  0.703125   1.000000 0
  0.765625   0.734375 0
  0.703125   0.984375 0
  0.765625   0.718750 0
  0.703125   0.968750 0
  0.765625   0.703125 0
  0.703125   0.953125 0
  0.765625   0.687500 0
  0.703125   0.937500 0
  0.843750   0.890625 0
  0.703125   0.921875 0
  0.765625   0.656250 0
  0.703125   0.906250 0
  0.765625   0.640625 0
  0.703125   0.890625 0
  0.765625   0.625000 0
  0.703125   0.875000 0
  0.765625   0.609375 0
  0.703125   0.859375 0
  0.765625   0.593750 0
  0.703125   0.843750 0
  0.765625   0.578125 0
  0.703125   0.828125 0
  0.765625   0.562500 0
  0.703125   0.812500 0
  0.765625   0.546875 0
  0.703125   0.796875 0
  0.765625   0.531250 0
  0.703125   0.781250 0
  0.765625   0.515625 0
  0.703125   0.765625 0
  0.750000   0.750000 0
  0.687500   1.000000 0
  0.890625   1.000000 0
  0.750000   0.734375 0
  0.687500   0.984375 0
  0.750000   0.718750 0
  0.687500   0.968750 0
  0.578125   0.796875 0
  0.578125   0.781250 0
  0.578125   0.765625 0
  0.546875   0.953125 0
  0.546875   0.968750 0
  0.546875   0.718750 0
  0.546875   0.687500 0
  0.250000   0.609375 0
  0.937500   0.031250 0
  0.046875   0.703125 0
  0.734375   0.062500 0
  0.734375   0.078125 0
  0.734375   0.046875 0
  0.046875   0.593750 0
  0.046875   0.562500 0
  0.046875   0.531250 0
  0.718750   0.156250 0
  0.046875   0.609375 0
  0.734375   0.031250 0
  0.062500   0.609375 0
  0.234375   0.703125 0
  0.718750   0.125000 0
  0.046875   0.578125 0
  0.734375   0.000000 0
  0.062500   0.578125 0
  0.000000   0.828125 0
  0.234375   0.671875 0
  0.234375   0.625000 0
  0.718750   0.093750 0
  0.687500   0.156250 0
  0.062500   0.546875 0
  0.000000   0.796875 0
  0.718750   0.046875 0
  0.031250   0.687500 0
  0.687500   0.171875 0
  0.500000   1.000000 0
  0.078125   0.218750 0
  0.234375   0.593750 0
  0.718750   0.062500 0
  0.687500   0.125000 0
  0.000000   0.765625 0
  0.421875   0.500000 0
  0.031250   0.593750 0
  0.718750   0.015625 0
  0.687500   0.234375 0
  0.015625   0.812500 0
  0.703125   0.171875 0
  0.703125   0.187500 0
  0.703125   0.140625 0
  0.015625   0.781250 0
  0.437500   0.515625 0
  0.500000   0.796875 0
  0.078125   0.015625 0
  0.687500   0.203125 0
  0.250000   0.578125 0
  0.703125   0.109375 0
  0.000000   0.515625 0
  0.500000   0.765625 0
  0.062500   0.593750 0
  0.750000   0.015625 0
  0.015625   0.843750 0
  0.687500   0.000000 0
  0.500000   0.828125 0
  0.078125   0.046875 0
  0.015625   0.531250 0
  0.250000   0.546875 0
  0.703125   0.078125 0
  0.703125   0.031250 0
  0.015625   0.671875 0
  0.250000   0.515625 0
  0.000000   0.656250 0
  0.500000   0.906250 0
  0.078125   0.125000 0
  0.687500   0.015625 0
  0.031250   0.546875 0
  0.687500   0.031250 0
  0.500000   0.859375 0
  0.703125   0.000000 0
  0.703125   0.046875 0
  0.703125   0.015625 0
  0.500000   0.937500 0
  0.234375   0.531250 0
  0.031250   0.578125 0
  0.687500   0.062500 0
  0.500000   0.890625 0
  0.031250   0.796875 0
  0.453125   0.531250 0
  0.500000   0.968750 0
  0.078125   0.187500 0
  0.234375   0.562500 0
  0.031250   0.609375 0
  0.718750   0.031250 0
  0.687500   0.093750 0
  0.750000   0.046875 0
  0.000000   0.937500 0
  0.421875   0.671875 0
  0.718750   0.187500 0
  0.031250   0.828125 0
  0.765625   0.062500 0
  0.015625   0.953125 0
[...]
CELL_DATA 7648
SCALARS scalar_value float 1
LOOKUP_TABLE default
-0.000974006
-0.00265359
-0.00112336
-0.00178352
0.000158335
0.000619045
-0.000142602
-0.000360956
-0.000165322
-0.000978813
0.000279693
-7.89453e-05
-5.06755e-06
-0.00220495
-6.93902e-05
0.000479693
0.000207019
0.00055578
0.000942684
0.000118133
3.23256e-05
0.000607671
0.000146879
1.70016e-05
0.000999747
-0.000387085
0.000926539
0.000876333
-0.000342695
3.02864e-05
-0.000340582
-0.000382008
-0.000395495
-0.000122326
-0.000129756
-2.8394e-05
0.000253986
1.03194e-05
-0.000260687
0.000108054
7.12992e-07
0.000333425
0.00035212
-0.000124488
0.000148799
-0.000206285
-0.000363211
-0.00032455
-0.000767047
-0.000409949
-4.74774e-05
2.96418e-05
-0.000366442
-0.000833256
-0.000251183
-0.000186692
-0.000455532
0.000363475
-0.00165995
0.000139919
7.84546e-05
-0.000186858
8.28869e-07
-0.000259766
0.000370775
-0.000194113
0.00071846
-0.00179278
-0.000274631
8.34327e-05
0.000104199
9.91935e-06
4.5039e-05
-3.74795e-05
-4.31243e-05
0.00136763
9.1643e-05
0.00034005
0.00022432
2.0274e-05
-6.35388e-05
-0.000277478
0.000417285
-0.000300817
8.56642e-05
1.81718e-05
-7.13058e-05
0.00136601
-0.000139334
0.000318777
0.00457186
0.000399335
0.000177069
-7.84428e-05
-9.42878e-05
0.000322033
0.00314022
9.20116e-05
-0.000362664
0.00301381
0.00256032
8.68337e-06
7.4949e-05
0.000208696
0.000162567
-0.00459432
0.000251618
-0.000134253
-0.00109615
0.00100413
0.000212213
-0.00013908
0.00049144
-0.000775878
0.000477976
0.000361423
6.921e-05
0.0028992
0.000676099
-0.00415772
0.00202217
0.000211748
-0.000340057
3.93938e-05
-2.03979e-05
-1.75639e-05
1.28154e-05
0.000727613
-0.000587982
-0.000851557
0.000680452
-1.58498e-05
-0.00392569
-0.00011231
4.37986e-05
4.27301e-05
0.000402985
0.000221181
0.00033697
0.000104933
0.000976924
4.79411e-05
0.00014291
0.00011406
0.000701201
-9.35663e-06
1.72698e-05
-0.000123336
6.56053e-06
4.05365e-05
-3.27237e-05
-1.04209e-05
-5.86876e-05
0.00168921
9.44289e-05
0.00055928
0.000153921
-0.00030447
-0.000570413
-5.94239e-05
-0.000723996
-0.000109369
0.000879061
9.85114e-05
-2.62229e-05
1.44317e-05
-0.00068121
0.00153377
0.0010012
0.000310423
-9.46434e-05
-0.000150451
0.000115804
5.75544e-05
-0.000967765
-0.000393423
0.000796941
1.90409e-07
5.09237e-05
1.12316e-05
-2.24994e-05
-4.81711e-05
0.000166638
0.000577558
-0.000201778
-0.000527189
0.000572901
0.000773188
3.16777e-05
0.000474457
0.000408071
5.467e-05
0.000976762
-3.87607e-05
0.000107334
-2.74014e-05
2.4522e-05
0.000255913
0.00010826
-0.00101753
-9.72114e-05
0.000818581
0.000304875
0.000395786
-8.60887e-05
-6.40787e-06
-0.000254503
-0.000121313
-7.70978e-05
5.77653e-05
-8.02258e-05
0.000792946
-1.95845e-06
0.000487211
-0.000241881
0.0007137
-9.59684e-05
0.00025506
0.000132224
-0.000602339
-5.79568e-05
4.62685e-05
0.000767689
-0.000232438
3.72702e-05
4.01645e-05
0.000141781
6.62549e-05
6.79932e-05
-0.000929226
0.000894377
-0.000690859
0.000193676
-7.5979e-06
1.10356e-05
8.24283e-05
6.63874e-06
-4.33976e-05
9.52215e-05
0.000731264
-2.30089e-05
0.000241997
9.54824e-05
-0.000167864
0.000381915
2.99095e-05
-0.000854888
0.000375092
-0.000703708
1.7233e-05
8.51462e-05
-3.27399e-05
0.000498703
-0.000119061
5.58853e-05
-1.01673e-06
-6.72807e-05
-0.000215108
0.000332647
0.00016234
0.000971607
-0.000123272
0.000510277
-3.8327e-05
0.00013099
4.86673e-05
0.000296051
-0.000107873
-9.42626e-05
-3.03214e-05
-0.000271727
1.70907e-06
-8.89806e-06
0.000727036
-0.000525796
4.86702e-05
0.000484149
9.6621e-05
0.000591037
-0.000100526
-9.90273e-05
0.000153429
-9.70521e-06
-0.000298646
0.000745035
0.000582229
-0.00103716
0.000448852
-0.000759207
-0.000390514
-0.000367916
-0.000619258
-0.000601444
0.000173005
8.72382e-05
-0.000104794
-0.000289266
-0.000462476
-0.000426859
-0.000640382
-7.86827e-05
7.57019e-05
5.37201e-05
-0.000456908
-0.000250533
-0.000708895
4.52518e-05
-0.000368209
-0.000628422
-0.000409386
8.00657e-05
0.000391631
0.00287909
0.00040031
0.000384919
0.00025363
0.000443322
0.000195638
-1.30387e-05
0.000165968
1.5281e-07
-3.57014e-05
0.000178389
-1.73511e-05
8.31612e-05
-0.000772054
-1.57307e-05
-1.13526e-05
6.08514e-05
2.28505e-06
-5.59983e-05
4.96992e-05
6.02804e-05
3.83932e-05
0.000259577
-1.59827e-05
-3.98962e-06
5.05731e-05
0.000141462
5.9429e-05
0.000139592
0.000358174
0.000232814
0.000176719
4.85844e-05
-8.73884e-05
-3.52876e-06
8.25273e-05
5.40341e-05
1.16072e-05
0.00105631
-0.000673044
0.000875111
-0.000369911
-0.000616654
0.000160542
-2.18139e-05
-6.32535e-05
9.48798e-05
8.36617e-05
-0.000507329
0.000117957
0.00174321
0.000130833
-0.000276144
-0.00010141
0.000636156
5.08502e-05
0.000619462
0.000351025
0.000782705
4.08334e-05
-1.49342e-05
-4.63667e-06
-0.000438699
0.000714522
-3.34641e-05
2.51377e-05
0.00040327
-8.42576e-05
-0.000941897
0.000162965
-0.000270362
0.000560082
0.000467242
-0.000404102
-3.93136e-05
-0.000151274
-0.000231903
0.00032332
-0.000230299
-0.000142106
-6.52647e-05
-0.00105497
0.000259712
0.000255593
0.000395021
-0.000142251
-0.00160539
-0.000151688
-0.000198472
0.000781555
-6.11697e-05
-1.01039e-05
2.80641e-05
2.88414e-06
0.000106885
-0.00010461
0.000536202
3.3338e-07
-0.00244909
0.00019329
0.000191337
-0.000640326
0.00029972
0.00200891
-3.27171e-05
-1.38996e-05
0.000230961
-0.000121343
-0.00100383
0.000177979
4.69962e-06
-9.15116e-05
0.00220196
-8.62251e-05
6.97215e-05
-0.00600401
-0.000185707
-0.000289656
-0.00461294
-0.000442863
-1.69677e-06
8.93447e-05
-3.94585e-06
-0.000486764
5.14309e-05
5.68206e-05
0.00141122
0.000162799
0.00108172
-0.000169809
0.00071011
7.6824e-05
7.78987e-05
4.78477e-06
0.00152823
-5.48723e-05
3.00412e-07
0.000493108
5.09166e-05
-0.000760261
-1.96401e-05
-9.32063e-05
-7.70409e-06
-2.41924e-05
0.000518802
0.00116911
-0.000873471
-0.000108823
-0.00112862
-4.72958e-05
-0.000285086
-0.000143983
6.97617e-05
-6.57748e-06
0.000146898
-0.000113947
-0.000148295
0.000310263
-0.000566977
-0.000475131
0.00034368
0.00011081
0.00650424
0.00131396
0.0021993
4.34933e-05
-0.000893148
-0.000251193
9.26617e-05
0.000406835
0.000414641
-0.000133246
0.00133754
0.00153791
1.06949e-05
-4.69787e-05
8.17496e-05
-0.000354846
6.40096e-06
1.34425e-05
0.000298668
0.00036711
0.00567562
-0.00209592
-9.56315e-06
2.80189e-06
-7.37885e-05
0.000131338
-4.25007e-05
-1.38534e-05
3.8422e-06
0.000421009
-8.86745e-05
-0.00023826
-0.000101533
1.14509e-05
0.000112899
3.7358e-06
0.000103743
-9.87172e-07
-6.83545e-06
0.00309682
0.0015779
0.00169996
6.6507e-05
-3.83434e-05
-0.00041469
-0.0029398
0.000115662
0.00137372
0.000133035
-8.79189e-05
2.18294e-05
7.58531e-05
0.00202281
8.74283e-05
0.000179119
-0.000613596
0.00180797
3.7671e-07
-3.6202e-05
0.000798269
0.000525495
5.18411e-05
-3.69541e-05
-3.71731e-05
0.00305896
-0.000100605
0.000543906
5.54632e-05
0.000105332
-3.69075e-05
-0.000238586
-0.000270883
0.00100236
0.000438312
0.000669265
-0.000842937
0.000397869
0.000335129
0.000173839
0.000416732
0.000395737
0.00051821
9.28353e-05
0.000111143
0.00208593
-0.000135065
-0.000287005
0.000907734
-0.000690447
0.000916854
0.00291802
-2.04575e-06
-0.000290545
2.38904e-05
-0.000681554
2.1333e-05
2.63077e-05
-0.000242337
0.00141327
-1.6096e-05
-0.000334739
5.77652e-05
0.000324732
7.18846e-05
4.15263e-05
0.000121326
-0.000364825
-0.000710836
-0.000883335
0.000230811
-4.41893e-05
-0.000128132
0.000243707
8.7268e-05
-0.000484805
-1.13343e-06
0.000137068
6.46226e-05
-0.000433889
0.00651049
-2.99255e-05
5.16721e-05
-0.00133031
-0.00402692
-0.000387091
0.00148914
0.000160011
1.4822e-05
-8.92479e-05
4.97233e-06
-6.37847e-05
5.26347e-05
0.00249799
0.000410666
0.000403993
-0.000905372
0.000192099
-0.000667712
0.00160291
0.000198423
-0.000276099
0.000138395
0.000133419
1.54705e-05
-0.000551639
-4.16076e-05
-0.000135969
6.83838e-05
-0.000163837
0.000322509
-0.000772262
6.51438e-05
0.000698145
-0.000409956
0.000107778
4.76497e-05
-0.000199859
-0.00016083
-0.00025392
-3.64237e-05
0.000271206
1.90791e-05
0.000370419
-0.00293562
0.0012965
-2.08762e-05
-1.445e-05
-0.000484039
-2.82096e-05
0.000160005
9.35827e-05
0.000300137
1.92988e-05
1.16836e-05
0.000963876
-3.71877e-05
-0.000409231
-0.000520731
7.2867e-05
0.000533707
0.000220034
-0.000253768
-0.000998784
0.00135139
-0.000266769
-0.000223082
0.00017259
0.000790939
-0.00147065
0.00116278
-0.000307363
-0.00078559
0.00067112
-0.000472541
-5.03579e-05
0.000745334
-0.000231631
-0.000936396
-8.83396e-06
-0.000392114
0.000362788
2.09596e-05
-0.000135814
-2.48613e-05
-0.000208965
-3.08094e-06
-0.00148863
0.000462673
-0.000191928
0.000171796
0.000195204
0.00214265
-0.000234971
-0.000359189
-0.000154715
-3.6115e-06
-1.9622e-05
-1.70337e-05
-0.00444112
-0.000111107
0.00032904
5.46841e-05
-0.000361375
4.15507e-05
0.000135254
0.000122758
3.70118e-05
1.96313e-05
0.000168187
1.45107e-05
0.00212999
0.00295775
-0.00265004
8.25322e-06
2.595e-05
-0.00187173
-0.000199573
-0.00335231
4.72179e-05
-0.000504057
5.15581e-05
-4.69987e-05
-0.000948427
-0.000395811
0.00350705
5.8086e-05
0.000634752
-0.000385304
2.94897e-05
0.000757745
-0.00181007
0.000223733
0.000232485
9.47206e-05
0.00160482
0.000156272
-2.42356e-05
-4.99108e-05
2.05324e-05
8.46765e-05
2.35728e-05
-6.01318e-05
-0.00106532
0.00010123
5.82087e-05
9.55729e-07
-0.000240301
7.00447e-05
-0.000130301
-0.000301132
-0.000645006
0.000275916
0.000139478
0.000258613
-0.000186321
6.01826e-05
-5.22531e-05
0.0025848
8.13375e-05
7.48104e-05
-0.000851163
-1.91632e-05
-2.59591e-05
-0.000346701
0.000219031
0.000317157
4.15407e-05
4.03541e-05
-3.02801e-05
0.000276281
7.31021e-05
-0.000152635
-0.000172773
0.000181284
1.29573e-05
-9.84243e-06
-3.26339e-06
-0.000231402
0.00117044
-0.00252071
-3.52877e-05
0.00014467
-5.67501e-06
-0.000449126
8.3538e-05
0.000106825
-1.02591e-05
4.98477e-05
4.25627e-05
-6.15717e-05
-0.000104826
-4.61439e-05
1.84845e-05
0.00186325
-0.000502939
-0.00129588
-0.000107407
0.000141996
0.000120478
0.00040491
0.00158667
0.000690873
0.000681127
5.06408e-05
0.000249185
0.000146756
0.00366733
0.000216805
1.75389e-05
-0.000193597
0.00152296
0.000169498
0.000182984
0.000348607
0.000758633
0.000577207
0.000734808
3.2215e-05
-1.66098e-05
0.00248385
0.0010638
-0.00602129
-0.000324887
-0.00107533
0.000148034
-0.000861105
-0.00159813
-0.00017685
0.000534907
-0.00052096
-0.00310333
-0.00520877
-2.60872e-05
5.44596e-05
-0.000241061
-0.00270157
-3.03217e-05
0.000454654
0.000174596
4.13182e-05
-0.000403862
-0.00254309
-0.000154593
0.000440893
5.26598e-05
0.00312555
0.00140038
-7.42679e-05
0.00184481
-0.00307149
-0.000384424
-0.000603639
-0.00329811
0.000488731
-0.000484345
8.40457e-06
6.24792e-05
-0.00118993
-0.000456798
0.000400209
-0.000277868
0.000172494
-0.000316367
-0.000243803
-0.000205568
-1.95147e-05
-0.000403771
0.000182712
0.000486409
-0.000533296
0.000353738
7.17342e-05
0.000782372
-2.69673e-05
2.3365e-05
0.00406628
-0.000310564
-0.000106864
-3.41613e-05
-0.000238259
-1.57705e-05
-0.00207711
0.000748187
-0.000290929
-0.000117666
-0.00327119
-0.00237176
0.00162488
-0.000355729
7.64305e-05
-0.000399294
0.000428221
0.00305186
-0.000696803
0.00108082
-0.000401648
-0.000370915
-0.000403111
3.25956e-06
-0.000400058
-0.00241221
0.00134354
0.000875283
9.22477e-05
-2.40955e-05
-0.000526242
5.63389e-05
1.5808e-05
-3.35948e-05
1.81939e-06
4.35138e-05
-0.00183298
-0.000360107
-0.000173523
0.000177139
0.000304868
-0.00325613
-7.84766e-05
6.74423e-05
0.00199548
0.000224911
3.87288e-05
-0.00200849
-3.21889e-05
0.00132752
-0.000110355
-0.000140504
4.77714e-05
0.00586198
5.11828e-05
0.00492922
0.00203723
6.72309e-05
-0.000883568
0.000147
9.09388e-05
-0.0023468
0.00112433
6.04986e-05
4.64872e-05
0.00151737
4.37334e-05
-8.81961e-05
-0.00082768
0.000721296
-6.70327e-05
0.000276036
-1.04197e-05
0.000972773
-0.000421309
0.000113867
-0.000318044
-6.96333e-05
2.89774e-05
9.58856e-05
-3.60404e-06
0.00289854
-7.05735e-05
0.000393585
8.69885e-05
0.000157019
-0.000322783
0.000128069
-0.00320208
-0.000495671
-3.38637e-05
-0.000100364
-3.26571e-05
0.000795456
-3.9164e-05
-0.000237528
0.000783445
-7.91805e-05
2.775e-05
-0.000125438
-3.45012e-05
7.69772e-05
0.000868258
-8.31493e-06
-7.69278e-06
0.000148661
0.00193747
0.00467577
6.57105e-05
0.000324553
0.000233727
-7.57268e-05
0.000394202
-3.37006e-05
-0.00386099
0.00118124
0.000283138
-9.15046e-05
0.000959441
7.53208e-05
0.000274302
0.00180263
0.0033913
0.000146864
0.000158796
-6.14908e-05
-7.31959e-05
3.26241e-05
-4.22697e-05
0.00158834
3.34388e-05
-0.00329155
0.000213438
-3.44457e-05
5.92383e-05
2.9661e-05
0.00380916
-0.000370788
0.000534339
-0.000517297
0.00181295
-0.000135446
-0.000294308
0.000190281
0.00107707
0.00107064
0.00156896
-1.44632e-05
6.02927e-05
0.000116975
-0.000690499
0.00356883
0.00180501
0.00345965
0.000232498
-0.00192814
-7.887e-05
-1.45583e-05
-0.00348877
-9.12609e-05
-2.68782e-05
-0.0013227
0.000969225
-0.000295399
-0.000200687
-4.53509e-05
-4.6047e-06
-9.4533e-05
0.00013384
-6.05083e-05
-0.000519888
4.10314e-05
-0.000204411
0.000413273
0.000241751
0.00186892
7.26461e-05
0.000230428
0.000409053
-0.000581667
-0.000575023
0.000152982
1.92132e-05
-0.000465678
-6.5863e-05
8.97207e-05
0.000706068
2.09744e-05
-7.06287e-05
-5.36061e-05
-0.000127869
-1.83901e-05
-1.14428e-05
-9.13198e-06
4.29366e-05
9.87914e-05
-4.01424e-05
0.0008852
0.0016487
-0.000279779
2.92977e-05
0.000129229
6.14175e-05
0.000101916
0.00201228
0.000708756
0.00129821
-9.74813e-05
-0.000362786
-0.000488222
0.00046116
-0.000727706
-4.95802e-05
0.000332775
-0.000110683
-0.000213216
-5.60033e-06
-0.00049295
-9.03321e-05
8.91078e-05
-0.00064607
6.08657e-05
-0.000359414
-0.000205575
-4.18156e-05
0.000589784
0.00118893
2.23419e-05
0.000352825
0.00132992
-0.000262684
4.13069e-05
5.48072e-06
-0.00140666
0.000308123
-0.000812686
0.0113901
-0.000623824
0.0012935
-1.42495e-05
0.000329966
0.000160209
4.81305e-05
0.000789406
1.32744e-05
-1.48621e-05
-0.00406107
-5.30258e-05
0.000187174
0.000259145
0.000759549
0.00269059
0.000908943
0.00113739
-6.69933e-05
-4.28198e-05
-8.13142e-05
0.000162182
0.000217691
0.00174046
-0.000484769
-0.00029429
-0.000478364
-0.000224588
-0.000165352
-0.000110292
9.50755e-05
-3.52558e-05
-5.36608e-05
8.16912e-05
5.91916e-05
3.21988e-05
9.49795e-05
0.000148649
0.000110796
7.69947e-05
-7.42657e-05
0.000110639
-0.000231472
-0.000244129
-0.00125765
0.00459736
0.00527023
0.00350567
-0.000654096
-0.000519829
-9.59015e-05
0.000100336
0.000138612
8.00952e-05
1.60728e-05
-7.40543e-05
-0.000185808
-5.54955e-05
7.76242e-06
0.00391138
0.000321869
-0.000493161
-0.000442148
0.000635127
0.000657814
0.00204574
0.00147936
-0.00041962
-0.00183477
0.00142975
-0.000457284
0.00156539
-2.83141e-05
-0.000109277
-0.000151004
-0.00215955
-0.000835854
-4.99781e-06
-7.54888e-05
-2.32138e-05
0.000102387
0.000199765
3.81006e-06
0.000301556
-1.00246e-05
3.80607e-06
-3.05347e-05
-7.459e-05
-6.21249e-06
0.00168704
0.000194401
-0.00106967
4.78879e-05
0.00154202
-0.000206067
8.075e-05
7.86234e-05
3.58943e-05
-4.72021e-06
0.000553874
7.44104e-05
0.00130063
-0.00183983
0.00457773
0.00330079
0.000852414
0.0006673
8.54762e-05
0.000402368
0.00411982
0.00264009
-0.00258859
-0.00175116
1.91487e-05
-0.000387258
-2.57564e-05
0.000155397
0.000459372
0.0004066
-2.12666e-07
-0.000109901
1.95319e-05
0.000111077
0.000240214
0.000553675
-8.71422e-05
1.35688e-05
0.000194161
-0.000132032
0.000111593
-0.00114927
-0.000240605
0.000177227
-0.000509299
0.000189446
-5.22086e-05
0.000297832
0.000393329
-5.56106e-05
0.000150328
0.000190432
0.000134918
-2.79696e-06
0.0013502
9.02855e-05
-5.1769e-05
0.000201318
0.000532005
8.42102e-05
1.17646e-06
0.000332031
0.000109456
4.85399e-05
-3.75202e-05
0.000319086
-0.00013952
-1.59517e-05
-5.84991e-05
-4.20994e-05
-5.79081e-05
-0.000139211
-3.42543e-05
-0.000116538
6.22952e-05
8.97505e-05
-0.000256202
-7.61225e-05
-8.8187e-05
0.000229642
-0.000818239
0.000507484
-2.40537e-06
7.10856e-05
-0.000573208
-0.000949695
0.000672579
-0.000933282
3.12737e-05
3.84617e-05
-2.96628e-05
0.000979602
5.08047e-05
-1.28695e-05
0.000253581
6.22475e-06
-0.000108789
-0.000271332
-0.000327676
-6.13566e-05
-7.44499e-05
0.000458759
-7.12202e-05
5.92499e-05
0.0019446
0.000304486
-0.000811767
0.000545023
7.64916e-06
0.000316197
0.000440795
-8.24891e-05
9.44391e-05
0.000166012
0.000191035
0.000140222
0.000112303
0.000188703
0.000654934
-0.000246264
-2.40148e-05
-0.000235399
-0.000118279
0.00035155
-1.55358e-05
4.08825e-05
2.53935e-05
5.92323e-05
0.00104939
0.000104012
0.000381349
3.86091e-06
-0.000286624
-0.00153629
-0.00126374
-0.000890463
-0.000287193
-0.000436031
-0.000299418
3.8307e-05
-0.000150007
-0.000134407
-6.25339e-05
-0.00185857
7.0606e-05
5.46357e-05
5.39493e-05
6.99874e-05
-0.000336356
0.00032092
-0.000173191
1.80229e-05
-0.000120199
6.08615e-05
0.000474587
8.92324e-05
0.000114893
9.94309e-05
7.92836e-06
-0.000925728
-9.63079e-05
-0.00318624
-0.00416754
-0.00221652
0.000438035
0.00474709
-0.00171641
0.00175674
4.93379e-05
0.000103656
0.000211729
-1.42192e-05
0.000842654
-0.000197201
-0.00047014
-0.000140374
0.000273319
0.000644066
2.92724e-05
0.00116269
-0.000392324
-0.00111527
0.00142382
0.000224773
-0.00215493
-6.3926e-05
-0.000397461
-2.1772e-05
-0.00192863
-0.00274094
-0.00397728
0.00228878
-0.000157409
1.76644e-05
-0.000245347
-0.000296295
0.000285467
0.000212829
0.000294278
-0.000330447
0.000548503
-5.54749e-05
-0.00012405
-0.000187158
-0.000101493
-8.56291e-05
-6.92646e-05
-1.9075e-05
-0.000935633
-0.000259279
0.000915276
0.000263174
0.000640349
0.000784111
0.000615939
0.000815867
2.11833e-05
-3.84632e-06
0.00227867
-0.000232752
-0.00030211
-0.00147062
-0.000363155
-0.000162568
-0.000310439
-7.3499e-05
-3.52798e-05
7.47013e-05
-1.00281e-06
-0.000200935
0.000258003
-0.00388452
5.42787e-05
9.31965e-05
7.05166e-07
-7.93464e-05
0.000453904
3.68552e-05
0.000336916
-3.20561e-05
-0.00014801
-7.16371e-05
8.60318e-05
0.00224851
1.85964e-05
0.000103465
0.000202269
0.00028925
0.00059231
0.000350699
-0.00123139
-9.11745e-05
1.21133e-05
2.99294e-05
-0.00132232
-2.38192e-05
-3.43166e-06
0.00134348
-2.52053e-05
-5.42073e-05
0.00139017
0.000287497
-0.000416168
-0.00470779
-0.00270367
-0.000542633
0.00137342
0.00165917
-2.70327e-05
-0.000928937
0.000944849
-0.00222006
-0.00142067
8.04657e-05
-0.000910135
2.75899e-05
9.57924e-05
0.0011784
0.00144038
-0.000206841
-1.09163e-05
8.06804e-06
-0.00121362
-0.000167384
-1.64602e-06
-2.91862e-05
0.000165795
0.000550998
3.2061e-05
-0.00041474
-0.000314525
3.28937e-06
1.43579e-05
-0.000346116
-0.000106951
8.77277e-05
-0.000727124
-0.00410434
-0.000693557
0.000710993
-0.000427242
0.000777046
0.00158994
-0.000287608
0.000443577
-0.000851938
9.41254e-05
3.64472e-05
-5.18055e-05
0.00110652
-0.00127604
0.00226499
0.00113829
-6.60078e-05
0.000196419
-0.000109022
5.73271e-05
0.000453781
-0.000333682
-0.000385606
0.000458656
-8.22408e-05
-0.000109672
-9.81518e-05
0.000293809
0.000244663
0.000288324
-0.000161891
-0.000405329
-0.000517184
-0.0407848
0.000341087
0.00344782
0.00414465
0.00323212
6.89026e-05
-8.29623e-05
4.38883e-05
3.76212e-05
0.000143741
0.00051903
0.0050543
-0.00370457
-0.00323835
-0.000177446
0.000458626
0.000315512
-0.00513716
-0.00833529
-0.00470323
-5.55937e-05
0.00183722
0.000448823
-0.00194671
5.95652e-05
-0.000660849
-3.30345e-05
-9.38841e-06
1.66051e-06
1.79155e-05
-1.98948e-05
-0.000123772
-6.54422e-05
1.59303e-05
-4.44799e-05
-3.922e-05
-3.02158e-06
-7.85225e-06
-1.73203e-05
-9.3895e-05
-0.000146154
0.000413255
0.000204753
0.000530726
-9.18199e-05
-8.89234e-05
-7.77408e-05
-0.000439433
-0.00022678
-2.49412e-05
0.00329693
-0.00448289
0.00135381
0.00216124
0.000591903
0.00154592
0.00123506
0.00114968
-0.000390885
0.000907186
-9.87968e-06
-5.59275e-05
-0.000172786
-0.000140511
0.00409556
0.000293386
-0.000228282
-0.000691972
0.000100545
-5.70314e-05
2.22098e-06
3.6601e-05
-0.00108046
0.000533388
0.000906126
0.000577977
0.000867353
-0.000749319
-4.04407e-05
2.76111e-05
-5.96766e-05
5.22771e-05
-9.30597e-07
0.000200291
0.000935125
0.000282773
-0.000348089
-0.00105244
-0.00170372
0.00024555
-0.000427256
-0.000453509
0.000278899
0.000316282
0.00231537
0.00283868
-0.000147942
-0.0003635
-0.00169782
0.00176168
0.00103452
4.59023e-05
0.000850256
0.00103689
8.74288e-05
0.00129961
0.000227238
0.000173625
0.000199383