# vtk DataFile Version 2.0
Unstructured Grid by M++
ASCII
DATASET UNSTRUCTURED_GRID
POINTS 4072 float
  0.875000   1.000000 0
  0.875000   0.984375 0
  0.875000   0.968750 0
  0.875000   0.953125 0
  0.875000   0.937500 0
  0.875000   0.921875 0
  0.875000   0.906250 0
  0.875000   0.890625 0
  0.875000   0.875000 0
  0.875000   0.859375 0
  0.875000   0.843750 0
  0.875000   0.828125 0
  0.875000   0.812500 0
  0.875000   0.796875 0
  0.875000   0.781250 0
  0.875000   0.765625 0
  0.859375   1.000000 0
  0.859375   0.984375 0
  0.859375   0.968750 0
  0.859375   0.953125 0
  0.859375   0.937500 0
  0.859375   0.921875 0
  0.859375   0.890625 0
  0.859375   0.875000 0
  0.859375   0.859375 0
  0.859375   0.843750 0
  0.859375   0.828125 0
  0.859375   0.812500 0
  0.859375   0.796875 0
  0.859375   0.781250 0
  0.859375   0.765625 0
  0.859375   0.671875 0
  0.859375   0.656250 0
  0.859375   0.640625 0
  0.843750   1.000000 0
  0.843750   0.984375 0
  0.843750   0.968750 0
  0.843750   0.953125 0
  0.843750   0.937500 0
  0.843750   0.921875 0
  0.843750   0.906250 0
  0.843750   0.875000 0
  0.843750   0.859375 0
  0.843750   0.843750 0
  0.843750   0.828125 0
  0.843750   0.812500 0
  0.843750   0.796875 0
  0.843750   0.781250 0
  0.843750   0.765625 0
  0.843750   0.671875 0
  0.843750   0.656250 0
  0.843750   0.640625 0
  0.828125   1.000000 0
  0.828125   0.984375 0
  0.828125   0.968750 0
  0.828125   0.953125 0
  0.828125   0.937500 0
  0.828125   0.921875 0
  0.875000   0.671875 0
  0.812500   0.921875 0
  0.890625   0.656250 0
  0.828125   0.906250 0
  0.875000   0.656250 0
  0.812500   0.906250 0
  0.890625   0.640625 0
  0.828125   0.890625 0
  0.875000   0.640625 0
  0.812500   0.890625 0
  0.890625   0.625000 0
  0.828125   0.875000 0
  0.890625   0.609375 0
  0.828125   0.859375 0
  0.890625   0.593750 0
  0.828125   0.843750 0
  0.890625   0.578125 0
  0.828125   0.828125 0
  0.890625   0.562500 0
  0.828125   0.812500 0
  0.828125   0.796875 0
  0.828125   0.781250 0
  0.828125   0.765625 0
  0.828125   0.671875 0
  0.828125   0.656250 0
  0.828125   0.640625 0
  0.875000   0.750000 0
  0.812500   1.000000 0
  0.875000   0.625000 0
  0.812500   0.875000 0
  0.875000   0.734375 0
  0.812500   0.984375 0
  0.875000   0.718750 0
  0.812500   0.968750 0
  0.875000   0.703125 0
  0.812500   0.953125 0
  0.875000   0.687500 0
  0.812500   0.937500 0
  0.875000   0.609375 0
  0.812500   0.859375 0
  0.875000   0.593750 0
  0.812500   0.843750 0
  0.875000   0.578125 0
  0.812500   0.828125 0
  0.812500   0.812500 0
  0.875000   0.546875 0
  0.812500   0.796875 0
  0.812500   0.781250 0
  0.812500   0.765625 0
  0.859375   0.750000 0
  0.796875   1.000000 0
  0.859375   0.625000 0
  0.796875   0.875000 0
  0.859375   0.734375 0
  0.796875   0.984375 0
  0.859375   0.718750 0
  0.796875   0.968750 0
  0.859375   0.703125 0
  0.796875   0.953125 0
  0.859375   0.687500 0
  0.796875   0.937500 0
  0.859375   0.609375 0
  0.796875   0.859375 0
  0.859375   0.593750 0
  0.796875   0.843750 0
  0.859375   0.578125 0
  0.796875   0.828125 0
  0.859375   0.562500 0
  0.796875   0.812500 0
  0.796875   0.796875 0
  0.859375   0.531250 0
  0.796875   0.781250 0
  0.796875   0.765625 0
  0.843750   0.750000 0
  0.781250   1.000000 0
  0.843750   0.625000 0
  0.781250   0.875000 0
  0.843750   0.734375 0
  0.781250   0.984375 0
  0.843750   0.718750 0
  0.781250   0.968750 0
  0.843750   0.703125 0
  0.781250   0.953125 0
  0.843750   0.687500 0
  0.781250   0.937500 0
  0.843750   0.609375 0
  0.781250   0.859375 0
  0.843750   0.593750 0
  0.781250   0.843750 0
  0.843750   0.578125 0
  0.781250   0.828125 0
  0.781250   0.812500 0
  0.843750   0.546875 0
  0.781250   0.796875 0
  0.781250   0.781250 0
  0.843750   0.515625 0
  0.781250   0.765625 0
  0.828125   0.750000 0
  0.765625   1.000000 0
  0.828125   0.625000 0
  0.765625   0.875000 0
  0.828125   0.734375 0
  0.765625   0.984375 0
  0.828125   0.718750 0
  0.765625   0.968750 0
  0.828125   0.703125 0
  0.765625   0.953125 0
  0.828125   0.687500 0
  0.765625   0.937500 0
  0.828125   0.609375 0
  0.765625   0.859375 0
  0.828125   0.593750 0
  0.765625   0.843750 0
  0.828125   0.578125 0
  0.765625   0.828125 0
  0.828125   0.562500 0
  0.765625   0.812500 0
  0.765625   0.796875 0
  0.828125   0.531250 0
  0.765625   0.781250 0
  0.765625   0.765625 0
  0.812500   0.750000 0
  0.750000   1.000000 0
  0.953125   1.000000 0
  0.812500   0.734375 0
  0.750000   0.984375 0
  0.812500   0.718750 0
  0.750000   0.968750 0
  0.812500   0.703125 0
  0.750000   0.953125 0
  0.812500   0.687500 0
  0.750000   0.937500 0
  0.812500   0.671875 0
  0.750000   0.921875 0
  0.812500   0.656250 0
  0.750000   0.906250 0
  0.812500   0.640625 0
  0.750000   0.890625 0
  0.812500   0.625000 0
  0.750000   0.875000 0
  0.812500   0.609375 0
  0.750000   0.859375 0
  0.812500   0.593750 0
  0.750000   0.843750 0
  0.812500   0.578125 0
  0.750000   0.828125 0
  0.750000   0.812500 0
  0.812500   0.546875 0
  0.750000   0.796875 0
  0.750000   0.781250 0
  0.812500   0.515625 0
  0.750000   0.765625 0
  0.796875   0.750000 0
  0.734375   1.000000 0
  0.796875   0.734375 0
  0.734375   0.984375 0
  0.796875   0.718750 0
  0.734375   0.968750 0
  0.796875   0.703125 0
  0.734375   0.953125 0
  0.796875   0.687500 0
  0.734375   0.937500 0
  0.796875   0.671875 0
  0.734375   0.921875 0
  0.796875   0.656250 0
  0.734375   0.906250 0
  0.796875   0.640625 0
  0.734375   0.890625 0
  0.796875   0.625000 0
  0.734375   0.875000 0
  0.796875   0.609375 0
  0.734375   0.859375 0
  0.796875   0.593750 0
  0.734375   0.843750 0
  0.796875   0.578125 0
  0.734375   0.828125 0
  0.734375   0.812500 0
  0.734375   0.796875 0
  0.796875   0.531250 0
  0.734375   0.781250 0
  0.734375   0.765625 0
  0.781250   0.750000 0
  0.718750   1.000000 0
  0.921875   1.000000 0
  0.781250   0.734375 0
  0.718750   0.984375 0
  0.781250   0.718750 0
  0.718750   0.968750 0
  0.781250   0.703125 0
  0.718750   0.953125 0
  0.859375   0.906250 0
  0.781250   0.687500 0
  0.718750   0.937500 0
  0.781250   0.671875 0
  0.718750   0.921875 0
  0.781250   0.656250 0
  0.718750   0.906250 0
  0.781250   0.640625 0
  0.718750   0.890625 0
  0.781250   0.625000 0
  0.718750   0.875000 0
  0.781250   0.609375 0
  0.718750   0.859375 0
  0.781250   0.593750 0
  0.718750   0.843750 0
  0.781250   0.578125 0
  0.718750   0.828125 0
  0.781250   0.562500 0
  0.718750   0.812500 0
  0.781250   0.546875 0
  0.718750   0.796875 0
  0.781250   0.531250 0
  0.718750   0.781250 0
  0.781250   0.515625 0
  0.718750   0.765625 0
  0.765625   0.750000 0
  0.703125   1.000000 0
  0.765625   0.734375 0
  0.703125   0.984375 0
  0.765625   0.718750 0
  0.703125   0.968750 0
  0.765625   0.703125 0
  0.703125   0.953125 0
  0.765625   0.687500 0
  0.703125   0.937500 0
  0.843750   0.890625 0
  0.703125   0.921875 0
  0.765625   0.656250 0
  0.703125   0.906250 0
  0.765625   0.640625 0
  0.703125   0.890625 0
  0.765625   0.625000 0
  0.703125   0.875000 0
  0.765625   0.609375 0
  0.703125   0.859375 0
  0.765625   0.593750 0
  0.703125   0.843750 0
  0.765625   0.578125 0
  0.703125   0.828125 0
  0.765625   0.562500 0
  0.703125   0.812500 0
  0.765625   0.546875 0
  0.703125   0.796875 0
  0.765625   0.531250 0
  0.703125   0.781250 0
  0.765625   0.515625 0
  0.703125   0.765625 0
  0.750000   0.750000 0
  0.687500   1.000000 0
  0.890625   1.000000 0
  0.750000   0.734375 0
  0.687500   0.984375 0
  0.750000   0.718750 0
  0.687500   0.968750 0
  0.578125   0.796875 0
  0.578125   0.781250 0
  0.578125   0.765625 0
  0.546875   0.953125 0
  0.546875   0.968750 0
  0.546875   0.718750 0
  0.546875   0.687500 0
  0.250000   0.609375 0
  0.937500   0.031250 0
  0.046875   0.703125 0
  0.734375   0.062500 0
  0.734375   0.078125 0
  0.734375   0.046875 0
  0.046875   0.593750 0
  0.046875   0.562500 0
  0.046875   0.531250 0
  0.718750   0.156250 0
  0.046875   0.609375 0
  0.734375   0.031250 0
  0.062500   0.609375 0
  0.234375   0.703125 0
  0.718750   0.125000 0
  0.046875   0.578125 0
  0.734375   0.000000 0
  0.062500   0.578125 0
  0.000000   0.828125 0
  0.234375   0.671875 0
  0.234375   0.625000 0
  0.718750   0.093750 0
  0.687500   0.156250 0
  0.062500   0.546875 0
  0.000000   0.796875 0
  0.718750   0.046875 0
  0.031250   0.687500 0
  0.687500   0.171875 0
  0.500000   1.000000 0
  0.078125   0.218750 0
  0.234375   0.593750 0
  0.718750   0.062500 0
  0.687500   0.125000 0
  0.000000   0.765625 0
  0.421875   0.500000 0
  0.031250   0.593750 0
  0.718750   0.015625 0
  0.687500   0.234375 0
  0.015625   0.812500 0
  0.703125   0.171875 0
  0.703125   0.187500 0
  0.703125   0.140625 0
  0.015625   0.781250 0
  0.437500   0.515625 0
  0.500000   0.796875 0
  0.078125   0.015625 0
  0.687500   0.203125 0
  0.250000   0.578125 0
  0.703125   0.109375 0
  0.000000   0.515625 0
  0.500000   0.765625 0
  0.062500   0.593750 0
  0.750000   0.015625 0
  0.015625   0.843750 0
  0.687500   0.000000 0
  0.500000   0.828125 0
  0.078125   0.046875 0
  0.015625   0.531250 0
  0.250000   0.546875 0
  0.703125   0.078125 0
  0.703125   0.031250 0
  0.015625   0.671875 0
  0.250000   0.515625 0
  0.000000   0.656250 0
  0.500000   0.906250 0
  0.078125   0.125000 0
  0.687500   0.015625 0
  0.031250   0.546875 0
  0.687500   0.031250 0
  0.500000   0.859375 0
  0.703125   0.000000 0
  0.703125   0.046875 0
  0.703125   0.015625 0
  0.500000   0.937500 0
  0.234375   0.531250 0
  0.031250   0.578125 0
  0.687500   0.062500 0
  0.500000   0.890625 0
  0.031250   0.796875 0
  0.453125   0.531250 0
  0.500000   0.968750 0
  0.078125   0.187500 0
  0.234375   0.562500 0
  0.031250   0.609375 0
  0.718750   0.031250 0
  0.687500   0.093750 0
  0.750000   0.046875 0
  0.000000   0.937500 0
  0.421875   0.671875 0
  0.718750   0.187500 0
  0.031250   0.828125 0
  0.765625   0.062500 0
  0.015625   0.953125 0
[...]
CELL_DATA 7648
SCALARS scalar_value float 1
LOOKUP_TABLE default
-0.000600391
-0.00227686
-0.000538287
-0.0014373
-6.42932e-05
0.000360533
-3.64349e-05
-0.000383736
-0.000152576
-0.00097516
0.00021653
0.000559484
-0.000198524
-0.00212748
-9.04901e-05
0.000466034
0.00037917
0.000466907
0.00099212
0.000106904
2.24801e-06
0.000625578
0.000112971
1.64686e-05
0.000943968
-0.000289729
0.000917664
0.000722523
-0.000261418
2.65807e-05
-0.000351758
-0.000434386
-0.00038677
-0.000110868
-0.00012612
-3.62717e-05
0.000226513
1.6943e-05
-0.000255086
9.75378e-05
4.2905e-07
0.000318887
0.000431598
-0.000131768
0.00012692
-0.000193476
-0.000295798
-0.00029112
-0.000799838
-0.000430724
-4.43514e-05
2.83205e-05
-0.000236385
-0.000405098
-0.000265666
-0.000186263
-0.000464689
0.000419776
-0.0014218
0.000110857
5.49843e-05
-0.000101534
2.04394e-06
-0.000234842
0.000289056
-0.000154374
0.000610683
-0.00132204
-0.000304406
6.11266e-05
7.8848e-05
1.51927e-05
3.41826e-05
-2.97263e-05
-8.26521e-05
0.0011231
0.000114186
0.000355311
0.000254699
3.2378e-05
-6.55719e-05
-0.000246252
0.000144818
-0.000271899
7.08259e-05
8.94654e-06
-2.53426e-05
0.00130171
-0.00023365
0.000224685
0.00438592
0.000321018
0.000143964
-0.000102274
-8.34148e-05
0.000298131
0.00319203
7.95584e-05
-0.000416196
0.00326203
0.00270025
6.40118e-06
5.49405e-05
0.000178422
1.25743e-05
-0.00373972
0.000279433
-9.84486e-05
-0.00101428
0.00101493
0.000183982
-0.000130283
0.00050284
-0.000726775
0.000409697
0.000171363
9.08313e-05
0.00342469
0.0011034
-0.00410301
0.00255446
0.00020998
-0.000280882
2.33296e-05
-3.12852e-05
-6.91337e-06
1.62773e-05
0.000704312
-0.000525964
-0.000786134
0.000580591
-2.69492e-05
-0.0039811
-9.54509e-05
3.94029e-05
5.10413e-05
0.00033096
0.000233021
0.000300118
0.000198581
0.00070749
6.41188e-05
0.000140215
0.000108113
0.000663999
-5.20544e-06
1.10979e-05
-8.76505e-05
-1.94663e-05
1.68619e-05
-3.68453e-05
-5.25365e-06
-4.24179e-05
0.00196418
9.09638e-05
-0.000162846
3.47934e-05
-0.000269115
-0.000711473
-4.57749e-05
-0.000601706
-0.000138689
0.000811472
0.00016764
-6.8595e-06
4.37029e-05
-0.000551493
0.00124534
0.000921787
0.000236158
-0.000105855
-0.000100202
0.000130892
6.53998e-05
-0.00108537
-0.000364206
0.00072735
-2.16296e-05
4.27454e-05
-1.95208e-05
-1.81922e-05
-5.36336e-05
0.000178609
0.000538564
-0.000219546
-0.000472828
0.000577412
0.000739116
2.18099e-05
0.000399622
0.000414521
-3.65117e-05
0.000916103
-5.14402e-05
8.39764e-05
-3.20327e-05
9.61446e-06
0.000256412
0.000127578
-0.000896636
-6.50372e-05
0.000623441
0.00037669
0.000424182
-0.000103804
-3.70134e-05
-0.000224836
-0.000114102
-0.000112522
3.52885e-05
-4.66081e-05
0.000694894
-1.92644e-05
0.000505198
-0.000222948
0.000693638
-0.000126236
0.000242195
0.000198715
-0.000551791
-5.57504e-05
4.30634e-05
0.000661099
-0.000230883
3.67241e-05
6.9103e-05
0.000271335
4.56388e-05
5.31119e-05
-0.0007952
0.000717181
-0.000665796
0.000202821
-1.41175e-05
-1.73117e-06
8.66739e-05
2.41981e-05
-2.79497e-05
9.14475e-05
0.000684939
-2.4526e-05
0.000187676
0.000114212
-0.00020324
0.000404704
3.51859e-05
-0.000919706
0.000478191
-0.000789217
-3.45449e-05
9.0813e-05
-5.01391e-05
0.00043756
-0.000133668
4.24234e-05
1.23286e-05
-6.1558e-05
-0.000298531
0.000376778
0.00010221
0.00155414
0.000196124
0.000478469
-0.000101153
0.000147316
9.28396e-05
0.000338789
-0.000188638
-0.000219411
-0.000121189
-0.000289875
-5.81816e-06
-2.49402e-05
0.000828032
-0.000525447
0.000119053
0.000523518
7.45792e-05
0.000553228
-9.26969e-05
-6.94699e-05
0.000153781
1.49644e-06
-0.000240989
0.000527849
0.000597245
-0.000952242
0.000395048
-0.000622248
-0.000375074
-0.00040035
-0.000546029
-0.000511205
0.000159677
2.10783e-05
-1.69817e-05
-0.000251088
-0.000514057
-0.000341684
-0.00057164
-6.0665e-05
3.92375e-05
4.20843e-05
-0.000443415
-0.000266551
-0.000676201
4.16171e-05
-0.000335272
-0.000635157
-0.000433793
8.08812e-05
0.000376681
0.00218533
0.000448681
0.000383645
0.00022677
0.000426662
0.000241701
-5.53749e-06
0.000228037
5.20407e-06
-4.27438e-05
0.000149996
-1.10233e-05
7.57143e-05
-0.000727183
-2.01811e-05
-1.1203e-05
4.91503e-05
1.33276e-06
-6.78805e-05
4.61121e-05
4.27894e-05
2.60832e-05
0.000270979
-1.16776e-05
-2.83109e-05
4.97356e-05
0.000135874
6.40323e-05
0.000128942
0.000267976
0.000220089
0.000150756
4.55526e-05
-0.000139947
-5.03724e-06
0.000115225
5.05431e-05
9.72461e-06
0.000573084
-0.00066908
0.000838311
-0.000314478
-0.000590617
0.000159486
1.16524e-05
-7.96957e-05
9.44042e-05
9.89364e-05
-0.000518702
0.000100823
0.00144653
0.000128219
-0.000174405
-0.00010533
0.000551693
0.000130787
0.000634373
0.000326714
0.000972957
3.55904e-05
-2.68266e-05
-6.23308e-06
-0.000445659
0.000799423
-4.35908e-05
5.33965e-05
0.000488443
-7.35822e-05
-0.00101131
-3.53413e-06
-0.000318762
0.000559129
0.000480874
-0.000436158
-4.57838e-05
-0.000147575
-0.000216454
0.000255051
-0.000225774
-0.000154962
-0.000100474
-0.00109714
0.00029
0.000210148
0.000435198
-0.00014198
-0.00160061
-0.000159533
-0.000181086
0.000701979
-5.97609e-05
-1.07552e-05
2.94604e-05
1.30032e-05
0.000124733
-0.000104547
0.000553376
-2.16064e-06
-0.00207499
0.000232409
0.000239943
-0.000606314
0.000234293
0.00223553
0.000306532
-9.23589e-06
0.000292408
-0.000115736
-0.00102702
0.000198535
-5.52533e-05
-8.03566e-05
0.00266034
-8.90818e-05
5.66047e-05
-0.00558046
-0.000203505
-0.000198001
-0.00437694
-0.000448022
4.2593e-06
5.87782e-05
1.14932e-05
-0.000577604
5.51176e-05
0.000104595
0.00121402
0.000185337
0.0011487
-0.000164294
0.000716219
-4.89127e-06
8.29051e-05
8.01249e-06
0.00145491
-2.08857e-06
2.20111e-06
0.000295373
4.74394e-05
-0.000295414
-2.04178e-05
3.94375e-05
-4.77312e-06
-1.59985e-05
0.000414375
0.00124674
-0.00095073
-0.000122589
-0.00106206
-5.25315e-05
0.000206805
-0.000176381
8.82101e-05
-6.99942e-06
0.000186465
-8.48816e-05
-0.000153314
0.000221
-0.000461189
-0.000464975
0.000226049
0.000107876
0.00669729
0.0011819
0.00238247
3.91831e-05
-0.000780509
-0.000333145
9.2837e-05
0.000486764
0.000373398
-0.000193337
0.00125057
0.0013766
1.1464e-05
-4.12865e-05
6.33361e-05
-0.000389951
-1.0225e-06
1.71124e-06
0.000297065
0.000460375
0.00558652
-0.00169158
-2.19452e-05
7.3614e-06
-6.7687e-05
0.00015027
-2.41944e-05
-1.04789e-05
2.42061e-07
0.000373967
-0.000122211
-0.000255543
-0.000127923
9.23481e-06
5.698e-05
3.83351e-06
6.59432e-05
-2.63947e-06
-5.71799e-06
0.00220003
0.00141846
0.00156448
5.94301e-05
-3.33605e-05
-0.000433781
-0.00253972
0.00025795
0.00120419
0.000122683
-7.31524e-05
3.21218e-05
7.40207e-05
0.00180062
9.01254e-05
0.000107117
-0.000686962
0.00213509
-5.03037e-05
-4.66231e-05
0.000695404
0.000558917
5.23495e-05
-3.51006e-05
-2.53097e-05
0.00271481
-0.000170184
0.000786863
3.27419e-05
8.92083e-05
-4.15203e-05
-0.000224132
-0.000231946
0.0010254
0.000174502
0.000581582
-0.000784649
0.000356641
0.000325137
0.000178147
0.000378408
0.000293151
0.00045368
5.65494e-05
0.000146061
0.00184246
-0.000113413
-0.000152738
0.000734826
-0.000618106
0.000836222
0.00255206
1.40905e-05
-0.000347301
2.82233e-05
-0.000710347
2.19718e-05
3.91858e-05
-0.000190279
0.00136013
-1.92074e-05
-0.000315969
3.87501e-05
0.000301978
8.05738e-05
2.47623e-05
9.98728e-05
-0.000593869
-0.000684713
-0.000841519
0.000278789
-4.11682e-05
-6.98357e-05
0.000185954
9.21136e-05
-0.000460743
-7.42427e-06
4.96802e-05
4.1661e-05
-0.000420026
0.00534068
-3.28989e-05
4.59406e-05
-0.00130163
-0.0036891
-0.000601806
0.00126949
0.000275363
1.33115e-06
-9.62167e-05
-6.16633e-05
-5.05469e-05
5.44467e-05
0.002582
0.000459669
0.00039041
-0.000984619
0.000262103
-0.000562367
0.00160777
0.000234142
-0.00027863
0.000122879
0.000150404
-3.75113e-05
-0.000525027
-6.21791e-05
-0.000157941
0.000115317
-0.000188535
0.000295301
-0.000755542
6.03688e-05
0.000655322
-0.000357889
6.22551e-05
5.41018e-05
-0.000197458
-0.000154558
-0.000218353
-4.97136e-05
0.000312653
2.30564e-05
0.000377813
-0.00306975
0.00127307
-2.01149e-05
-1.20448e-05
-0.000520178
-2.43361e-05
8.84326e-05
0.000126544
0.000280649
1.02484e-05
6.36899e-05
0.00077344
-3.35549e-05
-0.00044043
-0.000298534
0.000112026
0.000526432
0.000227024
-0.000238729
-0.000869157
0.00118292
-0.000219028
-0.000212407
0.000150528
0.000507344
-0.000975871
0.00144609
-0.000318226
-0.000879764
0.000916081
3.38915e-06
-8.65383e-05
0.000808985
-0.000185568
-0.000622173
1.74648e-05
-0.000505708
0.000468305
1.20156e-05
-0.000118442
1.95037e-05
-0.000216106
-1.83741e-05
-0.00103032
0.000456234
-0.000153475
0.000201741
0.000169514
0.00192361
-0.000293904
-7.72382e-06
-0.000179041
-9.69119e-07
4.2591e-06
-1.0273e-05
-0.00426513
-0.000103132
0.000231322
6.15454e-05
-0.000349031
2.29988e-05
0.000123943
0.000124345
0.000135219
2.83803e-05
0.000141608
8.9647e-05
0.00201083
0.00266434
-0.00234276
1.84788e-05
1.16256e-05
-0.00140112
-0.000106627
-0.00302977
4.87711e-05
-0.000579238
4.45939e-05
-4.40727e-05
-0.000943465
-0.000583342
0.00327552
6.19839e-05
0.000934838
-6.43016e-05
2.37712e-05
0.00120035
-0.00139025
0.000281069
0.000279877
0.000153146
0.00170849
0.000156441
-3.94945e-05
-5.19425e-05
-6.47195e-06
8.84446e-05
1.97425e-05
-5.39657e-05
-0.00113786
0.00011243
6.46156e-05
3.31702e-06
-0.000244825
7.71379e-05
-6.33728e-05
-0.000152762
-0.000560203
0.000270656
0.000186434
0.000274352
-0.000159457
6.47593e-05
-6.4811e-05
0.00269826
7.22445e-05
8.26172e-05
-0.000876087
-1.3035e-05
-1.2888e-05
-0.000315002
0.000236539
8.38255e-05
4.3598e-05
5.50825e-05
1.28923e-05
0.000273324
5.40438e-05
-0.000126494
-0.000177061
0.000167835
-3.72236e-06
-6.97927e-06
4.41542e-06
-0.000249923
0.00108223
-0.00204003
-4.10447e-05
0.000131725
-1.61006e-06
-0.000173163
0.000183966
0.000137197
-2.37899e-05
4.79395e-05
4.09591e-05
-7.83852e-05
-0.000110937
-3.33769e-05
0.000103134
0.00183439
-0.000487516
-0.00186379
-0.0001493
0.000142589
0.000159565
0.000448143
0.00180396
0.000672826
0.00067377
7.99124e-05
0.000241342
0.000120711
0.00300917
0.000277131
-1.59252e-05
-0.000189146
0.00105248
0.000163535
0.000185136
0.000320377
0.000811669
0.000910757
0.000653536
1.69276e-05
-2.37876e-05
0.00241373
0.00119582
-0.00591991
-0.000316445
-0.00150452
0.00011159
-0.000646706
-0.0012845
-0.000359792
0.000551759
-0.000562493
-0.00242194
-0.00455019
-3.67621e-05
5.05066e-05
-0.000132205
-0.00228579
-3.02638e-05
0.000529181
0.000190525
1.67468e-05
-0.000473832
-0.00248951
-0.000151681
0.000439002
6.31512e-05
0.00365377
0.00161071
-7.31636e-05
0.00149795
-0.00359999
-0.000272478
-0.000600092
-0.0033117
0.000486141
-0.000488101
3.62648e-06
6.38223e-05
-0.00158372
-0.000488812
0.000331275
-0.000274317
0.000104615
-0.000295312
-0.000250356
-0.000208386
-2.23925e-05
-0.000408774
0.000194221
0.00044882
-0.000515711
0.000341733
0.000114506
0.000738286
-3.06161e-05
1.38614e-05
0.00382181
-0.000287863
-5.97529e-05
-4.33647e-05
-0.000166922
-1.72588e-05
-0.00188487
0.000802335
-0.000320576
-3.70278e-05
-0.00285753
-0.00195146
0.00143516
-0.000337082
7.27685e-05
-0.00034818
0.000762759
0.00291948
-0.000612561
0.00118532
-0.000432549
-0.00037859
-0.0004146
-7.92739e-07
-0.00043521
-0.00228762
0.00135503
0.000724295
9.45006e-05
-1.66117e-05
-0.00044774
6.32373e-05
1.912e-05
-8.98846e-05
5.01434e-06
4.1365e-05
-0.00176993
-0.000402865
-0.000186384
0.000159708
0.000310124
-0.00341339
-8.85096e-05
-8.83649e-05
0.00154263
4.22975e-05
-5.10865e-05
-0.00154768
-3.96216e-05
0.00146758
-0.000151699
-0.000160097
0.00011617
0.00438649
6.13543e-05
0.00399972
0.00152553
3.33134e-05
-0.00135472
0.000111912
3.64381e-05
-0.00211539
0.000806623
-1.18435e-05
4.76943e-05
0.00135291
5.79609e-05
-0.000127148
-0.000962056
0.000769626
-5.9028e-05
0.000381698
2.00851e-05
0.000951136
-0.000427538
0.000103715
-0.000289859
-7.72723e-05
2.67829e-05
0.000140053
-1.54104e-05
0.00258913
-6.16354e-05
0.000425635
7.80454e-05
0.000176331
-0.000339836
0.00014493
-0.00298751
-0.000486295
-4.12837e-05
-8.79073e-05
-3.64967e-05
0.000774253
-4.11132e-05
-0.000220622
0.000715877
-7.66357e-05
2.34862e-05
-0.00010909
-3.26625e-05
7.25813e-05
0.000808282
1.56898e-05
-1.10307e-05
0.000127409
0.0020375
0.00475423
8.8248e-05
0.00051276
0.000227666
-5.60591e-05
0.00085432
-4.07635e-05
-0.00407461
0.00166779
0.000287448
-6.29059e-05
0.000832272
8.27029e-05
0.000218023
0.00221707
0.00316479
0.000145949
0.000146949
-6.40235e-05
-7.48821e-05
6.75269e-05
-3.18976e-06
0.00188559
4.33549e-05
-0.00340898
0.000198113
-2.92231e-05
5.24607e-05
2.58148e-06
0.00348279
-0.000447191
0.000365115
-0.000397306
0.00161609
-0.000171324
-0.000327893
0.000210578
0.00106165
0.00121216
0.00169742
8.27864e-06
5.27178e-05
0.000121802
-0.000496605
0.00316491
0.00178423
0.00312608
0.000257484
-0.00206247
-9.95226e-05
-3.14038e-05
-0.0030538
-8.0166e-05
-4.08618e-05
-0.00187272
0.00107766
-0.000261716
-0.000242125
-6.58033e-05
2.0213e-06
1.01049e-05
0.000119157
-3.77499e-05
-0.000554664
2.29843e-05
-0.000190773
0.000410421
9.71114e-05
0.00171239
5.44708e-05
0.000221945
0.000439239
-0.000651803
-0.000799659
0.000152834
1.79665e-05
-0.000482416
-7.97817e-05
6.78959e-05
0.000731624
2.30508e-05
-6.4965e-05
-4.77118e-05
-0.000110786
-1.97823e-05
4.55394e-05
-1.85e-05
3.51813e-05
0.000115013
-3.94373e-05
0.000890908
0.00215202
-0.000387653
2.08536e-05
0.000128725
5.95976e-05
0.000130489
0.00204917
0.000665804
0.00150812
-0.000114208
-0.000368645
-0.000525905
0.000466861
-0.000747927
-4.50748e-05
0.000302269
-0.000127773
-0.000251712
-5.93563e-06
-0.000513978
-0.000103555
9.42172e-05
-0.000594653
-8.59128e-05
-0.00046374
2.29614e-05
-3.118e-05
0.000806
0.00107947
-1.11938e-05
0.000298677
0.00122522
-0.000221534
-0.000107864
3.45614e-06
-0.00143279
0.000294318
-0.000831616
0.00957425
-0.00053668
0.00133382
-4.5505e-05
0.000360864
0.000141653
6.02672e-05
0.000277305
-2.83653e-05
3.65543e-05
-0.0040181
-4.5629e-05
0.000205417
0.000259034
0.000496513
0.00248314
0.0010621
0.00115328
-6.99021e-05
-4.84581e-05
-5.88215e-05
0.000211983
0.00024816
0.00120866
-0.000481635
-0.000288652
-0.000469291
-0.000213312
-0.000149963
-0.000108622
9.67208e-05
-4.39428e-05
-5.9417e-05
9.49211e-05
4.5491e-05
4.8601e-05
9.95038e-05
0.000140795
0.000118573
8.80333e-05
-0.000145399
0.000139117
-0.000211726
-0.000281081
-0.00115889
0.00423442
0.00500299
0.00334844
-0.000545143
-0.000512676
-9.04568e-05
0.000109272
0.000107837
0.000126112
1.71692e-05
-6.27789e-05
-0.000109744
-4.48544e-05
9.76481e-06
0.00319215
0.000267228
-0.00053495
-0.000514768
0.000791439
0.00070078
0.00224397
0.00169223
-0.000410757
-0.00186504
0.00153507
-0.00021329
0.00124132
-4.84002e-05
-0.00018791
-0.000124543
-0.00166222
-0.000793249
7.99972e-06
-3.51115e-05
2.37195e-05
0.000159189
0.000197775
2.66051e-05
0.000318219
-9.45429e-06
4.77777e-06
-2.60364e-05
-8.01247e-05
-6.06785e-06
0.00168754
0.000152727
-0.000891595
2.77273e-05
0.00147301
-0.000198102
3.30312e-05
7.65501e-05
5.49691e-05
-8.5047e-06
0.000623793
-6.16761e-05
0.00139937
-0.00167871
0.00402572
0.00319545
0.00056015
0.000758277
9.55757e-05
0.00034343
0.00374498
0.00215608
-0.00212184
-0.00140277
2.33112e-05
-0.00035581
5.40267e-06
0.000145761
0.000461298
0.000407217
-1.50579e-05
-0.000126545
2.71045e-05
0.00019668
0.000170229
0.000575663
1.18984e-05
3.36149e-05
0.000177705
-9.43588e-05
0.000107434
-0.00125694
-0.000231484
0.000194281
-0.000504123
0.000168547
-4.89241e-05
0.000304728
0.00040737
-5.34147e-05
0.000149737
0.000256387
0.000261666
-3.26857e-05
0.00126038
8.04081e-05
3.66568e-06
0.000197303
0.0004552
9.39603e-05
-4.67013e-06
0.000253033
0.000112101
-5.89468e-06
-0.000100804
0.000422536
-0.000159065
-2.29523e-05
-5.62105e-05
-4.14681e-05
-5.54833e-05
-0.000138717
1.53823e-05
-6.6928e-05
0.000118133
7.6009e-05
-0.000316732
-8.2875e-05
-3.88604e-05
-8.30152e-05
-0.000526696
0.000697809
1.22936e-07
7.42783e-05
-0.00078499
-0.000976205
0.000651467
-0.000905277
3.65995e-05
4.12827e-05
-2.37804e-05
0.000757785
4.9719e-05
-6.38358e-06
0.000315435
8.35491e-06
-9.10227e-05
-0.000167087
-0.000351582
-4.31466e-05
-3.84539e-05
0.00049713
-7.76447e-05
4.07124e-05
0.00190589
0.000466701
-0.000684845
0.000634472
-2.27707e-06
0.000286104
0.000347025
2.03926e-05
7.30219e-05
0.000131255
0.000159869
0.000181386
8.07565e-05
0.000177462
0.000780304
-0.000164001
-1.42042e-05
-0.000179035
-9.08116e-05
0.000525496
-1.12577e-05
3.45567e-05
3.27869e-05
7.13327e-05
0.000929731
0.00011733
0.000396648
5.81598e-06
-0.000243284
-0.00115533
-0.00108857
-0.000580036
-0.000278498
-0.00044533
-0.00031642
4.02614e-05
-0.000164173
-0.000175156
-0.000325474
-0.00197179
5.0595e-05
9.04578e-05
6.1844e-05
6.79481e-05
-0.000334569
0.000218253
-0.000252549
-4.74671e-05
-0.000101278
3.30825e-05
0.00045961
3.66783e-05
0.000110063
9.20574e-05
8.7629e-06
-0.000573047
0.000123723
-0.00282212
-0.0042199
-0.00193462
0.000298894
0.00469861
-0.00153377
0.00153508
4.97503e-05
0.000103094
0.000265073
-1.08382e-05
0.000881992
-0.000193542
-0.000444379
-6.73506e-05
0.000192232
0.000691894
3.45618e-05
0.000840723
-0.0004415
-0.000898738
0.00148541
0.000131275
-0.00193024
3.90888e-05
-0.000398873
-1.85847e-05
-0.00177122
-0.00259903
-0.00377491
0.00285759
-0.000210348
-6.97341e-05
-0.000212562
-0.000283715
0.000276808
0.000169761
0.000286035
-0.000509073
0.000433564
-8.26318e-05
-0.000118372
-0.000194032
-7.01359e-05
-9.3195e-05
-8.16518e-05
-1.96897e-05
-0.000745406
-0.000282602
0.000834343
0.000192623
0.000528203
0.000436574
0.000613545
0.000656059
1.58184e-05
-1.04317e-05
0.00166233
-0.000231426
-0.000221809
-0.00160452
-0.000423335
-0.000183794
-0.000324529
-6.25582e-05
-2.60759e-05
0.000107441
-1.86992e-06
-0.00021949
0.000166504
-0.00371206
7.23005e-05
9.14315e-05
1.3515e-05
-6.75031e-05
0.000407933
3.5919e-05
0.000335849
-3.0554e-05
-0.000129386
-6.30205e-05
9.5013e-05
0.00182804
1.28406e-05
0.000104897
0.000230234
0.000292969
0.00094342
0.000431
-0.00122605
-5.82133e-05
3.03105e-05
3.01528e-05
-0.00132882
-3.59909e-05
2.54235e-06
0.000903024
-0.0001149
5.68719e-05
0.00128319
0.00028351
-0.000307277
-0.00490102
-0.00312678
1.81041e-05
0.000614227
0.000851257
5.99965e-06
-0.000916602
0.00151716
-0.00131994
-0.00198019
7.47846e-05
-0.000877617
2.28829e-05
7.84859e-05
0.00103157
0.00128471
-0.000144489
-1.3744e-05
4.54633e-05
-0.00121515
-0.000109578
2.52355e-05
-3.06109e-05
0.000165153
0.000277741
1.08293e-05
-0.000287478
-0.000258451
5.46262e-05
-2.60548e-05
-0.000328547
-0.000130053
9.37288e-05
-0.000669362
-0.00429679
-0.000871396
0.000924428
-0.000331687
0.000683865
0.00133062
-0.000410633
0.000283148
-0.00077109
7.1204e-05
4.19626e-05
-5.48492e-05
0.00115913
-0.00119123
0.00218726
0.00111963
-7.81641e-05
0.000209917
-9.19905e-05
3.79824e-05
0.000445669
-0.00036405
-0.000373462
0.00040866
-0.000111106
-0.000269358
-0.000281857
0.000272294
0.000208179
0.00022868
-0.000155941
-0.000341531
-0.000494274
-0.0407926
0.00026247
0.00386685
0.00467038
0.00348978
7.21723e-05
-6.26686e-05
3.70137e-05
-1.14029e-05
0.000117735
0.000477416
0.00535952
-0.00339253
-0.0026621
-0.000207613
0.000459089
0.00032854
-0.00519827
-0.00807545
-0.00480813
-5.7554e-05
0.00145833
0.000275676
-0.00151982
0.000421488
-0.000734158
-2.63686e-05
-1.35455e-05
-2.95867e-06
1.80465e-05
-2.07598e-05
-0.000130157
-8.59933e-05
1.46101e-05
-4.11492e-05
-3.52158e-05
-5.75135e-06
-2.28551e-06
-1.53251e-05
-7.98285e-05
-0.000148922
0.00042291
0.000231985
0.000401059
-5.57696e-05
-0.000154959
-5.33602e-05
-0.000389568
-0.000221661
-2.05319e-05
0.00324266
-0.00415478
0.00107865
0.00234572
0.000812573
0.0018214
0.00142619
0.00129781
-0.000271647
0.000594805
-9.05602e-06
-4.18876e-05
-0.000173751
-0.000127218
0.00453722
0.000254977
-8.37261e-05
-0.000583801
0.000122633
-5.14285e-05
1.34025e-05
3.93657e-05
-0.000926326
0.000476695
0.000736662
0.000455928
0.000561924
-0.00065775
-3.72624e-05
2.86378e-05
-0.000124506
4.74599e-05
-1.26851e-05
0.00028213
0.0009179
0.000298754
-0.000444664
-0.000953841
-0.00149007
0.000283073
-0.000449615
-0.000426451
0.000298701
0.000309476
0.00222476
0.00244015
-0.000155691
-0.000354099
-0.00139508
0.00167659
0.000953046
4.70679e-05
0.00106069
0.00121333
4.76573e-05
0.00122167
0.000130338
0.000172105
0.000149494
5.0795e-05