# vtk DataFile Version 2.0
Unstructured Grid by M++
ASCII
DATASET UNSTRUCTURED_GRID
POINTS 4072 float
  0.875000   1.000000 0
  0.875000   0.984375 0
  0.875000   0.968750 0
  0.875000   0.953125 0
  0.875000   0.937500 0
  0.875000   0.921875 0
  0.875000   0.906250 0
  0.875000   0.890625 0
  0.875000   0.875000 0
  0.875000   0.859375 0
  0.875000   0.843750 0
  0.875000   0.828125 0
  0.875000   0.812500 0
  0.875000   0.796875 0
  0.875000   0.781250 0
  0.875000   0.765625 0
  0.859375   1.000000 0
  0.859375   0.984375 0
  0.859375   0.968750 0
  0.859375   0.953125 0
  0.859375   0.937500 0
  0.859375   0.921875 0
  0.859375   0.890625 0
  0.859375   0.875000 0
  0.859375   0.859375 0
  0.859375   0.843750 0
  0.859375   0.828125 0
  0.859375   0.812500 0
  0.859375   0.796875 0
  0.859375   0.781250 0
  0.859375   0.765625 0
  0.859375   0.671875 0
  0.859375   0.656250 0
  0.859375   0.640625 0
  0.843750   1.000000 0
  0.843750   0.984375 0
  0.843750   0.968750 0
  0.843750   0.953125 0
  0.843750   0.937500 0
  0.843750   0.921875 0
  0.843750   0.906250 0
  0.843750   0.875000 0
  0.843750   0.859375 0
  0.843750   0.843750 0
  0.843750   0.828125 0
  0.843750   0.812500 0
  0.843750   0.796875 0
  0.843750   0.781250 0
  0.843750   0.765625 0
  0.843750   0.671875 0
  0.843750   0.656250 0
  0.843750   0.640625 0
  0.828125   1.000000 0
  0.828125   0.984375 0
  0.828125   0.968750 0
  0.828125   0.953125 0
  0.828125   0.937500 0
  0.828125   0.921875 0
  0.875000   0.671875 0
  0.812500   0.921875 0
  0.890625   0.656250 0
  0.828125   0.906250 0
  0.875000   0.656250 0
  0.812500   0.906250 0
  0.890625   0.640625 0
  0.828125   0.890625 0
  0.875000   0.640625 0
  0.812500   0.890625 0
  0.890625   0.625000 0
  0.828125   0.875000 0
  0.890625   0.609375 0
  0.828125   0.859375 0
  0.890625   0.593750 0
  0.828125   0.843750 0
  0.890625   0.578125 0
  0.828125   0.828125 0
  0.890625   0.562500 0
  0.828125   0.812500 0
  0.828125   0.796875 0
  0.828125   0.781250 0
  0.828125   0.765625 0
  0.828125   0.671875 0
  0.828125   0.656250 0
  0.828125   0.640625 0
  0.875000   0.750000 0
  0.812500   1.000000 0
  0.875000   0.625000 0
  0.812500   0.875000 0
  0.875000   0.734375 0
  0.812500   0.984375 0
  0.875000   0.718750 0
  0.812500   0.968750 0
  0.875000   0.703125 0
  0.812500   0.953125 0
  0.875000   0.687500 0
  0.812500   0.937500 0
  0.875000   0.609375 0
  0.812500   0.859375 0
  0.875000   0.593750 0
  0.812500   0.843750 0
  0.875000   0.578125 0
  0.812500   0.828125 0
  0.812500   0.812500 0
  0.875000   0.546875 0
  0.812500   0.796875 0
  0.812500   0.781250 0
  0.812500   0.765625 0
  0.859375   0.750000 0
  0.796875   1.000000 0
  0.859375   0.625000 0
  0.796875   0.875000 0
  0.859375   0.734375 0
  0.796875   0.984375 0
  0.859375   0.718750 0
  0.796875   0.968750 0
  0.859375   0.703125 0
  0.796875   0.953125 0
  0.859375   0.687500 0
  0.796875   0.937500 0
  0.859375   0.609375 0
  0.796875   0.859375 0
  0.859375   0.593750 0
  0.796875   0.843750 0
  0.859375   0.578125 0
  0.796875   0.828125 0
  0.859375   0.562500 0
  0.796875   0.812500 0
  0.796875   0.796875 0
  0.859375   0.531250 0
  0.796875   0.781250 0
  0.796875   0.765625 0
  0.843750   0.750000 0
  0.781250   1.000000 0
  0.843750   0.625000 0
  0.781250   0.875000 0
  0.843750   0.734375 0
  0.781250   0.984375 0
  0.843750   0.718750 0
  0.781250   0.968750 0
  0.843750   0.703125 0
  0.781250   0.953125 0
  0.843750   0.687500 0
  0.781250   0.937500 0
  0.843750   0.609375 0
  0.781250   0.859375 0
  0.843750   0.593750 0
  0.781250   0.843750 0
  0.843750   0.578125 0
  0.781250   0.828125 0
  0.781250   0.812500 0
  0.843750   0.546875 0
  0.781250   0.796875 0
  0.781250   0.781250 0
  0.843750   0.515625 0
  0.781250   0.765625 0
  0.828125   0.750000 0
  0.765625   1.000000 0
  0.828125   0.625000 0
  0.765625   0.875000 0
  0.828125   0.734375 0
  0.765625   0.984375 0
  0.828125   0.718750 0
  0.765625   0.968750 0
  0.828125   0.703125 0
  0.765625   0.953125 0
  0.828125   0.687500 0
  0.765625   0.937500 0
  0.828125   0.609375 0
  0.765625   0.859375 0
  0.828125   0.593750 0
  0.765625   0.843750 0
  0.828125   0.578125 0
  0.765625   0.828125 0
  0.828125   0.562500 0
  0.765625   0.812500 0
  0.765625   0.796875 0
  0.828125   0.531250 0
  0.765625   0.781250 0
  0.765625   0.765625 0
  0.812500   0.750000 0
  0.750000   1.000000 0
  0.953125   1.000000 0
  0.812500   0.734375 0
  0.750000   0.984375 0
  0.812500   0.718750 0
  0.750000   0.968750 0
  0.812500   0.703125 0
  0.750000   0.953125 0
  0.812500   0.687500 0
  0.750000   0.937500 0
  0.812500   0.671875 0
  0.750000   0.921875 0
  0.812500   0.656250 0
  0.750000   0.906250 0
  0.812500   0.640625 0
  0.750000   0.890625 0
  0.812500   0.625000 0
  0.750000   0.875000 0
  0.812500   0.609375 0
  0.750000   0.859375 0
  0.812500   0.593750 0
  0.750000   0.843750 0
  0.812500   0.578125 0
  0.750000   0.828125 0
  0.750000   0.812500 0
  0.812500   0.546875 0
  0.750000   0.796875 0
  0.750000   0.781250 0
  0.812500   0.515625 0
  0.750000   0.765625 0
  0.796875   0.750000 0
  0.734375   1.000000 0
  0.796875   0.734375 0
  0.734375   0.984375 0
  0.796875   0.718750 0
  0.734375   0.968750 0
  0.796875   0.703125 0
  0.734375   0.953125 0
  0.796875   0.687500 0
  0.734375   0.937500 0
  0.796875   0.671875 0
  0.734375   0.921875 0
  0.796875   0.656250 0
  0.734375   0.906250 0
  0.796875   0.640625 0
  0.734375   0.890625 0
  0.796875   0.625000 0
  0.734375   0.875000 0
  0.796875   0.609375 0
  0.734375   0.859375 0
  0.796875   0.593750 0
  0.734375   0.843750 0
  0.796875   0.578125 0
  0.734375   0.828125 0
  0.734375   0.812500 0
  0.734375   0.796875 0
  0.796875   0.531250 0
  0.734375   0.781250 0
  0.734375   0.765625 0
  0.781250   0.750000 0
  0.718750   1.000000 0
  0.921875   1.000000 0
  0.781250   0.734375 0
  0.718750   0.984375 0
  0.781250   0.718750 0
  0.718750   0.968750 0
  0.781250   0.703125 0
  0.718750   0.953125 0
  0.859375   0.906250 0
  0.781250   0.687500 0
  0.718750   0.937500 0
  0.781250   0.671875 0
  0.718750   0.921875 0
  0.781250   0.656250 0
  0.718750   0.906250 0
  0.781250   0.640625 0
  0.718750   0.890625 0
  0.781250   0.625000 0
  0.718750   0.875000 0
  0.781250   0.609375 0
  0.718750   0.859375 0
  0.781250   0.593750 0
  0.718750   0.843750 0
  0.781250   0.578125 0
  0.718750   0.828125 0
  0.781250   0.562500 0
  0.718750   0.812500 0
  0.781250   0.546875 0
  0.718750   0.796875 0
  0.781250   0.531250 0
  0.718750   0.781250 0
  0.781250   0.515625 0
  0.718750   0.765625 0
  0.765625   0.750000 0
  0.703125   1.000000 0
  0.765625   0.734375 0
  0.703125   0.984375 0
  0.765625   0.718750 0
  0.703125   0.968750 0
  0.765625   0.703125 0
  0.703125   0.953125 0
  0.765625   0.687500 0
  0.703125   0.937500 0
  0.843750   0.890625 0
  0.703125   0.921875 0
  0.765625   0.656250 0
  0.703125   0.906250 0
  0.765625   0.640625 0
  0.703125   0.890625 0
  0.765625   0.625000 0
  0.703125   0.875000 0
  0.765625   0.609375 0
  0.703125   0.859375 0
  0.765625   0.593750 0
  0.703125   0.843750 0
  0.765625   0.578125 0
  0.703125   0.828125 0
  0.765625   0.562500 0
  0.703125   0.812500 0
  0.765625   0.546875 0
  0.703125   0.796875 0
  0.765625   0.531250 0
  0.703125   0.781250 0
  0.765625   0.515625 0
  0.703125   0.765625 0
  0.750000   0.750000 0
  0.687500   1.000000 0
  0.890625   1.000000 0
  0.750000   0.734375 0
  0.687500   0.984375 0
  0.750000   0.718750 0
  0.687500   0.968750 0
  0.578125   0.796875 0
  0.578125   0.781250 0
  0.578125   0.765625 0
  0.546875   0.953125 0
  0.546875   0.968750 0
  0.546875   0.718750 0
  0.546875   0.687500 0
  0.250000   0.609375 0
  0.937500   0.031250 0
  0.046875   0.703125 0
  0.734375   0.062500 0
  0.734375   0.078125 0
  0.734375   0.046875 0
  0.046875   0.593750 0
  0.046875   0.562500 0
  0.046875   0.531250 0
  0.718750   0.156250 0
  0.046875   0.609375 0
  0.734375   0.031250 0
  0.062500   0.609375 0
  0.234375   0.703125 0
  0.718750   0.125000 0
  0.046875   0.578125 0
  0.734375   0.000000 0
  0.062500   0.578125 0
  0.000000   0.828125 0
  0.234375   0.671875 0
  0.234375   0.625000 0
  0.718750   0.093750 0
  0.687500   0.156250 0
  0.062500   0.546875 0
  0.000000   0.796875 0
  0.718750   0.046875 0
  0.031250   0.687500 0
  0.687500   0.171875 0
  0.500000   1.000000 0
  0.078125   0.218750 0
  0.234375   0.593750 0
  0.718750   0.062500 0
  0.687500   0.125000 0
  0.000000   0.765625 0
  0.421875   0.500000 0
  0.031250   0.593750 0
  0.718750   0.015625 0
  0.687500   0.234375 0
  0.015625   0.812500 0
  0.703125   0.171875 0
  0.703125   0.187500 0
  0.703125   0.140625 0
  0.015625   0.781250 0
  0.437500   0.515625 0
  0.500000   0.796875 0
  0.078125   0.015625 0
  0.687500   0.203125 0
  0.250000   0.578125 0
  0.703125   0.109375 0
  0.000000   0.515625 0
  0.500000   0.765625 0
  0.062500   0.593750 0
  0.750000   0.015625 0
  0.015625   0.843750 0
  0.687500   0.000000 0
  0.500000   0.828125 0
  0.078125   0.046875 0
  0.015625   0.531250 0
  0.250000   0.546875 0
  0.703125   0.078125 0
  0.703125   0.031250 0
  0.015625   0.671875 0
  0.250000   0.515625 0
  0.000000   0.656250 0
  0.500000   0.906250 0
  0.078125   0.125000 0
  0.687500   0.015625 0
  0.031250   0.546875 0
  0.687500   0.031250 0
  0.500000   0.859375 0
  0.703125   0.000000 0
  0.703125   0.046875 0
  0.703125   0.015625 0
  0.500000   0.937500 0
  0.234375   0.531250 0
  0.031250   0.578125 0
  0.687500   0.062500 0
  0.500000   0.890625 0
  0.031250   0.796875 0
  0.453125   0.531250 0
  0.500000   0.968750 0
  0.078125   0.187500 0
  0.234375   0.562500 0
  0.031250   0.609375 0
  0.718750   0.031250 0
  0.687500   0.093750 0
  0.750000   0.046875 0
  0.000000   0.937500 0
  0.421875   0.671875 0
  0.718750   0.187500 0
  0.031250   0.828125 0
  0.765625   0.062500 0
  0.015625   0.953125 0
[...]
CELL_DATA 7648
SCALARS scalar_value float 1
LOOKUP_TABLE default
-0.00185424
-0.00323103
-0.00229443
-0.00241874
0.00089946
0.00121181
-0.000153107
-0.000278441
-0.000154767
-0.000962667
0.000362042
-0.00153492
0.000610473
-0.00200226
-0.000175834
0.000480248
-0.000492503
0.000821553
0.000843242
0.000132185
8.69763e-05
0.000557313
0.000198975
1.67906e-05
0.000997078
-0.00058001
0.0010727
0.00138382
-0.000469741
6.88666e-05
-0.000310369
-0.000266665
-0.000382038
-0.000136133
-0.000119774
-5.51252e-06
0.000295543
-6.66725e-06
-0.000269981
0.000135258
-1.12588e-07
0.000349323
-2.67374e-06
-8.93268e-05
0.000185715
-0.000223042
-0.000502138
-0.000355223
-0.000602985
-0.000357176
-4.9311e-05
2.98233e-05
-0.000612048
-0.00194443
-0.000189636
-0.000149288
-0.00041327
0.000245425
-0.00223646
0.00019358
0.000144037
-0.000347915
-9.78744e-06
-0.000293531
0.000502399
-0.000229611
0.00108991
-0.00282448
-0.000139389
0.000140748
0.000159619
1.19041e-06
6.94653e-05
-2.12019e-05
8.54379e-05
0.00200072
1.63078e-05
0.000299854
0.000140554
1.23333e-05
-5.07998e-05
-0.000340111
0.00116956
-0.000332245
0.000117371
4.0889e-05
0.000602933
0.0014487
6.18471e-05
0.000542003
0.00430798
0.000575433
0.000261031
1.53615e-05
-0.000129482
0.000341658
0.00234797
0.000116567
-0.000191004
0.00201713
0.00206471
5.20355e-05
0.000142495
0.00025555
0.000695687
-0.00675629
0.000163813
-0.000227647
-0.00129104
0.000863866
0.000255929
-0.00012698
0.000447251
-0.000899661
0.000530324
0.000991312
5.60586e-05
0.00161703
2.98483e-05
-0.00400533
0.000812966
0.000201589
-0.000500324
7.62657e-05
2.13748e-05
-3.27054e-05
8.38636e-06
0.000686215
-0.000729096
-0.00103
0.000842364
1.65964e-05
-0.00367396
-0.000133477
3.09964e-05
4.67561e-06
0.000602727
0.000147172
0.000494423
-0.000276499
0.00165992
2.10954e-05
0.000142931
0.000120716
0.000742647
-2.95007e-05
-9.76468e-07
-0.000172306
4.41979e-05
0.000105126
-1.00362e-05
-2.3061e-05
-8.60828e-05
0.000602695
0.000104961
0.00246857
0.000607896
-0.000457924
-0.000279012
-4.06407e-05
-0.0011042
-7.56479e-05
0.000825351
-8.63805e-05
-3.88963e-05
-5.30167e-05
-0.000936976
0.00209559
0.00105345
0.000514286
-3.63811e-05
-0.00023954
5.78715e-05
4.72334e-05
-0.00067251
-0.00040286
0.000879261
5.66069e-05
6.52371e-05
9.26102e-05
-3.33678e-05
-2.93129e-05
0.000115123
0.000523597
-0.000151951
-0.000587889
0.000576585
0.000865866
5.11519e-05
0.000614032
0.000402676
0.00022811
0.00118019
-1.79954e-06
0.000141623
-1.40331e-05
4.59225e-05
0.000266531
2.12899e-05
-0.00122541
-0.000165233
0.00119211
8.45649e-05
0.00025728
-6.74481e-05
4.33463e-05
-0.000286907
-9.15921e-05
-6.17751e-05
0.000116254
-0.0001674
0.00100168
4.05914e-05
0.000450002
-0.000267244
0.000770616
-1.22146e-05
0.000264727
-3.21526e-05
-0.000736261
-7.83707e-05
5.66184e-05
0.0009318
-0.000227777
6.53519e-05
6.37909e-05
-0.000120382
0.000101029
7.6827e-05
-0.00125018
0.00136297
-0.000709586
0.000161305
1.85477e-05
4.31093e-05
6.48425e-05
-3.54767e-05
-6.85946e-05
9.55651e-05
0.000499596
-5.67893e-06
0.000205562
0.000120556
-0.000117314
0.000382156
3.51177e-05
-0.000652443
3.76669e-05
-0.000466175
0.000127252
6.54702e-05
3.71086e-05
0.000545287
-4.63209e-05
8.50851e-05
-7.66741e-05
-5.9737e-05
0.000302943
0.000100353
0.000327126
-0.000573421
-0.00102554
0.000520872
0.00014497
8.50868e-05
-5.01284e-05
0.000154704
-3.81162e-05
0.000456235
0.000542198
-0.000265345
2.62875e-05
5.15968e-05
0.000570687
-0.000536924
-0.000137852
0.000492138
0.000147061
0.000648412
-0.000101694
-0.000105665
0.00022543
-1.54742e-05
-0.000393312
0.00115551
0.000432137
-0.00121223
0.000517822
-0.000990554
-0.000424447
-0.00033334
-0.000745702
-0.000842248
0.000193949
0.000280858
-0.00036111
-0.000387529
-0.000321626
-0.000596055
-0.000740074
-0.000192131
0.000207268
8.644e-05
-0.000542887
-0.000146038
-0.000805539
5.16434e-05
-0.000420884
-0.000582552
-0.000349955
6.5148e-05
0.000301143
0.00455153
0.000157601
0.000339215
0.000324862
0.000457631
8.8996e-05
-4.40079e-05
-6.49242e-06
-8.74301e-06
-1.69993e-05
0.000242141
-3.27673e-05
7.77035e-05
-0.000707158
-1.45332e-05
-1.06244e-05
8.21499e-05
7.52989e-06
-4.19047e-05
9.34279e-05
9.39834e-05
6.98744e-05
0.000227319
-3.54179e-06
6.60827e-05
4.33567e-05
0.0001486
3.75575e-05
0.000161006
0.000547681
0.000250884
0.000226575
9.3821e-05
6.5164e-06
-2.48521e-05
-7.73477e-06
5.70344e-05
9.45461e-06
0.00232731
-0.000710681
0.000906467
-0.000480114
-0.000702674
0.00010854
-0.000101053
-4.12666e-05
0.000106414
6.48009e-05
-0.000376077
0.00014876
0.00229671
0.000121103
-0.000537884
-8.1727e-05
0.000786933
-0.000140997
0.000501344
0.000375702
0.000205769
5.83944e-05
1.30135e-05
4.13509e-06
-0.000436953
0.000487358
-1.35632e-05
-9.79046e-07
0.000221954
-0.000147704
-0.000750997
0.00057461
-0.000147495
0.000527865
0.000428755
-0.00028713
-1.97382e-05
-0.000162169
-0.000222863
0.000454853
-0.00020004
-8.09515e-05
3.94021e-05
-0.000909156
0.000158216
0.000359338
0.000410828
-8.91644e-05
-0.00149101
-0.000119464
-0.000256633
0.000903337
-5.81195e-05
-1.37626e-05
1.58785e-05
-1.48603e-05
6.91477e-05
-6.74013e-05
0.000454549
9.06524e-06
-0.00344675
0.000198524
3.66359e-05
-0.000599313
0.000518719
0.00101981
-0.00100816
-2.72621e-05
-8.86282e-06
-0.000151672
-0.000888265
7.8348e-05
0.000210666
-8.15903e-05
0.00134064
-8.46203e-05
9.86099e-05
-0.00664635
-0.000121793
-0.000387237
-0.00492159
-0.000453928
-2.22524e-05
0.000216989
4.42663e-05
-0.000213714
5.03272e-05
-9.31019e-05
0.00152823
0.000116909
0.000738794
-0.000152572
0.000646264
0.000269756
6.81442e-05
-5.57573e-06
0.0014564
-0.00028249
5.55728e-06
0.00111174
5.71696e-05
-0.00213217
1.12251e-05
-0.000334169
-4.29555e-05
-4.56779e-05
0.000731258
0.000744176
-0.000745559
-4.76228e-05
-0.00122774
-1.37167e-05
-0.0013987
-7.85908e-05
3.85834e-06
1.47052e-06
4.96909e-05
-0.000149832
-0.000117332
0.000526272
-0.000769406
-0.000510116
0.000528849
0.000103315
0.00535277
0.00168824
0.00128865
5.25029e-05
-0.00129426
0.000105912
9.10507e-05
0.000330037
0.000464258
2.11326e-05
0.00149619
0.00165834
3.38974e-06
-5.62897e-05
0.000141458
-0.000296838
2.87439e-05
6.7117e-05
0.000255396
8.7776e-05
0.00654873
-0.00304563
3.37381e-05
-1.03444e-05
-5.16867e-05
0.000103384
-8.77961e-05
-1.92631e-05
1.46787e-05
0.000437234
4.44834e-05
-5.23178e-05
-6.06845e-05
1.56471e-05
0.000243727
6.46304e-06
0.000188713
6.91433e-06
-1.19383e-05
0.00535393
0.00182229
0.00184773
8.9463e-05
-5.40709e-05
-0.000368416
-0.00356973
-0.000301016
0.00172385
0.000141746
-7.26997e-05
2.45796e-05
7.34171e-05
0.00226799
7.14551e-05
0.000359382
-0.000176088
0.000784612
0.000132302
-1.34785e-05
0.00111719
0.000402834
6.27816e-05
-3.26857e-05
-2.55975e-05
0.00356626
0.000103849
-0.000213451
0.000109855
0.000170647
-8.89452e-06
-0.000280539
-0.000258088
0.000751541
0.00144139
0.000808386
-0.000935856
0.000443935
0.000288173
0.000145916
0.000456714
0.000669709
0.000662957
0.000168266
2.83471e-05
0.00282952
-0.000175339
-0.000710793
0.00133257
-0.000836393
0.00121804
0.00389424
-3.29848e-05
-0.000117607
1.85738e-06
-0.000540181
1.50037e-05
-1.42276e-06
-0.000358629
0.00142409
-2.83655e-05
-0.00035901
0.0001407
0.000366239
5.72807e-05
9.63605e-05
0.000145309
0.000336899
-0.000748283
-0.000950756
0.000100042
-5.00725e-05
-0.000247975
0.000321371
6.76948e-05
-0.00054317
-1.88599e-06
0.000310898
0.000138308
-0.000555356
0.0102639
-1.28943e-05
6.67748e-05
-0.00127394
-0.00455641
0.000199812
0.00194816
-0.000211859
5.19031e-05
-6.84047e-05
0.000196944
-0.000131359
3.74791e-05
0.00180792
0.000194591
0.000365274
-0.000609957
2.48986e-05
-0.000932627
0.00117923
5.94161e-05
-0.000208806
0.000177884
8.68657e-05
0.000194925
-0.000618155
-1.70925e-05
-9.12865e-05
-1.2752e-05
-5.28242e-05
0.000364851
-0.000773545
7.34725e-05
0.000939302
-0.000538775
0.000220047
6.14964e-05
-0.000189057
-0.000137873
-0.000336265
-7.29793e-06
0.000154917
4.1542e-06
0.000352663
-0.00258841
0.000955766
-6.32286e-06
-2.13333e-05
-0.000396026
-3.69324e-05
0.00035588
5.57531e-05
0.000317687
4.33088e-05
-6.8718e-05
0.00152057
-4.50932e-05
-0.000344086
-0.00119451
-5.72336e-05
0.000488117
0.000165109
-0.000291721
-0.00113843
0.00162684
-0.0001403
-8.81855e-05
0.000187726
0.00152445
-0.00261395
0.000519794
-0.000259537
-0.000359845
-8.5011e-05
-0.00160903
8.87522e-05
0.000595473
-0.000394043
-0.00164668
-4.28846e-05
0.000230657
0.000134746
5.80527e-05
-0.000154475
-0.000161598
-0.000163061
1.95848e-05
-0.00240002
0.000446635
-0.000290732
8.45515e-05
0.000223532
0.0027739
-3.45129e-05
-0.00119744
-9.02399e-05
-1.14205e-05
-0.000116664
-2.31851e-05
-0.00440045
-0.000120533
0.000641017
-3.32237e-06
-0.000382834
0.000104869
0.000154454
0.00011345
-0.000202706
1.56688e-06
0.000305578
-0.000163137
0.00242288
0.00304842
-0.0030742
-8.61811e-06
7.62282e-05
-0.00301817
-0.000500414
-0.00377435
8.43957e-05
-0.000339126
3.50759e-05
-7.25481e-05
-0.000895097
0.000211335
0.00400563
5.28379e-05
-0.000304429
-0.00132501
3.54339e-05
-0.000547898
-0.00273268
5.98638e-05
7.7774e-05
-3.95071e-05
0.00131057
0.000173337
7.36018e-06
-3.72926e-05
0.000112118
6.2168e-05
4.64958e-05
-6.14019e-05
-0.000779183
-3.48146e-05
4.47711e-05
-5.46567e-06
-0.00027457
5.27314e-05
-0.000283584
-0.00058768
-0.00089379
0.000214109
1.28166e-05
0.000261619
-0.000189672
5.16218e-05
-4.10573e-06
0.0021801
9.25029e-05
4.82635e-05
-0.00057407
-3.17163e-05
-8.07589e-05
-0.000373961
0.00013223
0.00106996
5.71462e-05
5.65003e-06
-9.49552e-05
0.000297055
0.000140383
-0.000191647
-0.000212893
0.000192677
5.22068e-05
-1.61383e-05
-1.52244e-05
-0.000174065
0.00139572
-0.00358841
-1.90128e-05
0.000175793
-5.62307e-06
-0.000980883
9.37239e-06
2.48215e-05
3.02935e-05
5.06673e-05
5.24276e-05
8.91095e-06
-5.68799e-05
-4.06891e-05
-0.000201622
0.00166964
-0.000527579
-3.39108e-05
4.86064e-05
0.000116214
5.30507e-05
0.000264423
0.000774098
0.000689183
0.000711988
-1.15215e-05
0.0002208
0.000200036
0.00468674
3.86252e-05
0.000112652
-0.000214798
0.00267301
0.00017868
0.000123529
0.000387235
0.000549162
3.82976e-05
0.000893748
0.000145036
-5.56951e-06
0.0023389
0.00035456
-0.00531897
-0.00030979
-0.000310829
0.000243643
-0.00154868
-0.00249861
-0.000195118
0.000460784
-0.00040785
-0.00447905
-0.00607462
3.18583e-05
7.70106e-05
-0.000862405
-0.00334714
-3.70552e-05
0.000210917
0.00012882
0.00010336
-0.000174
-0.00226267
-0.000153258
0.000425966
2.32723e-05
0.00191314
0.000767098
-8.59354e-05
0.00248022
-0.00164494
-0.000562649
-0.000551304
-0.00284327
0.000412872
-0.000404417
1.36868e-05
5.71174e-05
0.000251309
-0.000354825
0.00052604
-0.000281148
0.000419814
-0.000345388
-0.000192364
-0.000196376
5.66693e-06
-0.000348417
0.00013632
0.000513361
-0.000574376
0.000292043
-4.92186e-05
0.00086489
-4.21723e-05
4.59555e-05
0.00431906
-0.000312453
-0.000242431
-8.46553e-06
-0.000367556
-1.4808e-05
-0.0023486
0.000407806
-7.4192e-06
-0.000367355
-0.00416863
-0.00341849
0.00173836
-0.000410754
7.93656e-05
-0.000495263
-0.000614324
0.00319357
-0.000695899
0.000609818
-0.000302622
-0.000360437
-0.000243966
1.18818e-05
-0.000265869
-0.00233788
0.00113766
0.00114094
8.66978e-05
-3.22836e-05
-0.000644869
5.04862e-05
-1.96486e-06
0.000123909
-2.95554e-06
4.62443e-05
-0.00180631
-0.000571328
-9.09821e-05
0.000161043
0.000264937
-0.00281154
-3.24549e-05
0.000589462
0.00283316
0.000833247
0.000333997
-0.00280749
-1.53929e-05
0.00116874
3.13672e-05
-8.15863e-05
-0.000123678
0.010043
3.42713e-05
0.00695051
0.0031447
0.000132691
0.000485913
0.000167893
0.000173221
-0.00256314
0.00187065
0.000406703
8.65114e-06
0.00177492
1.32201e-05
7.91875e-06
-0.000340958
0.000805727
-7.18643e-05
-0.00021996
-7.70867e-05
0.000869856
0.000340923
0.000111945
-0.000419644
-5.63395e-05
2.93122e-05
-3.17624e-05
3.78007e-05
0.00354167
-9.9606e-05
0.000213527
0.000110371
0.000111285
-0.000275526
5.66564e-05
-0.0032508
-0.000545753
-2.37083e-05
-0.000126764
-2.23162e-05
0.000904622
-3.15229e-05
-5.88911e-05
0.000968764
-8.27403e-05
3.69764e-05
-0.000162546
-4.32457e-05
7.78179e-05
0.00100034
-6.16628e-05
7.29572e-06
0.000218767
0.00165335
0.00396813
4.33512e-06
-0.000239453
0.000301481
-5.43818e-05
-0.0006933
-1.60223e-05
-0.00310142
7.75154e-05
0.000276195
-0.00013688
0.00100842
5.56725e-05
0.000388286
0.000445703
0.00351682
0.000226041
0.000180121
-3.71152e-05
-5.81148e-05
-1.68695e-05
-0.000120526
0.00113247
2.47013e-05
-0.00273777
0.000221914
-4.81211e-05
6.13939e-05
9.55621e-05
0.00438851
-8.11808e-05
0.000824583
-0.000822783
0.0019657
2.09308e-05
-0.000198938
0.000138416
0.000934352
0.000582873
0.00115274
-5.61853e-05
8.89172e-05
9.30984e-05
-0.00115921
0.00450259
0.00169211
0.0043052
9.05976e-05
-0.00108273
-3.56199e-05
6.96109e-06
-0.0044289
-0.000105914
2.0327e-05
0.000126486
0.000750571
-0.000371552
-0.000176668
2.03978e-05
-1.08784e-05
-0.000316381
0.000109542
-7.61303e-05
-0.000306121
7.06259e-05
-0.000193822
0.000382524
0.000444746
0.00197694
0.000113762
0.000222685
0.000292056
-0.000211723
-1.74292e-05
0.000146438
3.97274e-05
-0.000368497
-3.70327e-05
0.000136155
0.000606811
1.74922e-05
-7.07816e-05
-5.58311e-05
-0.000137071
-1.83395e-05
-0.000136644
1.16804e-05
4.14255e-05
4.74976e-05
-4.97106e-05
0.000527262
0.000659461
0.000103569
4.96641e-05
0.000114
6.10637e-05
4.6789e-05
0.0018176
0.000694187
0.000490989
-5.33721e-05
-0.000321018
-0.000399209
0.000466835
-0.000698057
-7.14085e-05
0.000277101
-4.90581e-05
-0.000103082
-4.66474e-06
-0.000303501
-5.44125e-05
0.00010992
-0.000893091
0.000531738
5.28712e-05
-0.000998297
-7.90191e-05
-0.000144271
0.00151594
7.92799e-05
0.000470336
0.00173903
-0.000333606
0.000270671
5.11558e-06
-0.00118194
0.00029197
-0.000720833
0.0158777
-0.000724131
0.00132751
0.000123199
0.000183944
0.000198309
1.4924e-05
0.0024801
0.000129596
-0.000247462
-0.0039085
-5.42562e-05
0.000122079
0.000190561
0.00128197
0.00266389
0.000366425
0.00105575
-2.85459e-05
-2.78252e-05
-0.000122637
2.17786e-05
9.75022e-05
0.00325649
-0.000578819
-0.000311652
-0.000426974
-0.000223439
-0.000181491
-0.000100705
8.4584e-05
-1.78994e-06
-3.24955e-05
3.83824e-05
0.000111942
2.60708e-08
7.59855e-05
0.000127143
6.87853e-05
4.86766e-05
0.000113815
2.97771e-05
-0.000290722
-0.000124006
-0.00132223
0.00535956
0.00559303
0.00354217
-0.000836811
-0.000524268
-9.58571e-05
7.7101e-05
0.000207571
-5.02448e-05
1.03304e-05
-8.89801e-05
-0.000379523
-7.50268e-05
5.41429e-06
0.0053024
0.000426948
-0.000281699
-0.000181798
0.000120358
0.000400872
0.00139836
0.000818043
-0.000593911
-0.00134887
0.00104871
-0.00115083
0.00223913
6.87238e-05
0.000103125
-0.000193656
-0.0033144
-0.00110369
7.81415e-06
-0.000138898
-0.000177776
-3.20297e-05
0.000141643
-0.000102754
0.000202831
-8.4487e-06
3.87421e-06
-4.01935e-05
-0.000100453
-7.71619e-06
0.00127178
0.000230062
-0.00138201
5.3421e-05
0.00154226
-0.000192583
0.000221413
9.60322e-05
-1.51076e-05
6.40119e-06
0.000372313
0.000402151
0.00104677
-0.00209071
0.00525761
0.00329452
0.00166898
0.000378767
5.87674e-05
0.000563501
0.00533845
0.00377861
-0.00360955
-0.00237249
4.73946e-06
-0.000418803
-6.70254e-05
0.000174305
0.000424149
0.000348499
3.85467e-05
-6.18909e-05
7.19616e-07
-0.00013244
0.000321527
0.000344209
-0.000241959
-3.57858e-05
0.000214263
-0.00020366
0.000110502
-0.000947491
-0.000301213
0.000157591
-0.000527547
0.000215014
-5.06709e-05
0.000237875
0.000340192
-5.48607e-05
0.000116094
-1.60426e-05
-0.000168947
0.000449798
0.00141996
0.000108042
-0.000181751
0.000517614
0.000747954
4.24649e-05
1.18211e-05
0.00049698
9.36086e-05
0.000212804
0.00024324
4.93609e-05
-9.06585e-05
1.75615e-06
-6.23585e-05
-3.75793e-05
-6.129e-05
-0.000107481
-0.00012223
-0.000194484
-6.37521e-05
0.00014937
-0.000146265
-6.20811e-05
-0.000225863
0.00120843
-0.00159224
-0.000363394
-1.54831e-05
8.15872e-05
0.00033035
-0.000803997
0.000574962
-0.000887701
1.34667e-05
2.6411e-05
-3.81463e-05
0.00164427
5.03705e-05
-2.71479e-05
7.48763e-05
6.83955e-06
-0.000167896
-0.000517874
-0.000199636
-0.000134509
-0.000203671
0.000341858
-3.18785e-05
0.00011512
0.00161495
-0.000203519
-0.00106265
0.000174286
3.67746e-05
0.000410529
0.0006833
-0.000237205
0.000176494
0.000256785
0.000263852
-1.80196e-05
0.000171387
0.000173618
0.000163816
-0.000382448
-3.35546e-05
-0.000279978
-0.000148256
7.77097e-05
-1.61488e-05
5.05858e-05
1.06428e-05
2.74492e-05
0.00131539
7.22887e-05
0.000308225
-1.21588e-06
-0.000339584
-0.00256093
-0.00177213
-0.00177706
-0.000254022
-0.000463183
-0.000220058
3.02704e-05
-0.000158169
3.883e-05
0.000653836
-0.0015208
0.000124295
-3.10137e-05
2.91714e-05
5.17817e-05
-0.000315235
0.000590388
3.68756e-05
0.000258361
-0.00013469
0.00010828
0.000528755
0.000229952
0.000117505
0.000135388
8.64237e-06
-0.00190606
-0.000295709
-0.00413597
-0.00378399
-0.00313745
0.000704051
0.0043754
-0.00190277
0.00207589
5.4134e-05
9.85154e-05
-7.72009e-06
1.4308e-05
0.000826373
-0.000199715
-0.000485109
-0.000293919
0.000471592
0.000514923
1.55921e-05
0.00184347
-0.000283419
-0.00157358
0.00109716
0.00035743
-0.00245824
-0.00034989
-0.00033188
-2.92715e-05
-0.0025358
-0.00313208
-0.00411412
0.00113347
-2.85723e-05
0.000430521
-0.000317372
-0.000350239
0.000275444
0.000299818
0.000282468
0.000274539
0.000855914
1.09135e-05
-9.08246e-05
-0.000106522
-0.000130836
-6.18344e-05
-4.22302e-05
-1.05149e-05
-0.00125123
-0.000189598
0.000966583
0.000318922
0.000843017
0.00179778
0.000402357
0.000993542
2.36648e-05
7.20889e-06
0.00361069
-0.00023735
-0.000377062
-0.000954788
-0.000246458
-9.87487e-05
-0.000258892
-0.000105397
-6.47045e-05
-1.26033e-05
5.10392e-06
-6.45132e-05
0.000432168
-0.00392685
3.92217e-05
8.73631e-05
-2.16478e-05
-0.000110602
0.000581127
4.21067e-05
0.000292706
-4.09189e-05
-0.000173234
-6.5434e-05
6.63828e-05
0.00296022
3.17631e-05
9.77042e-05
0.000104652
0.000229322
-0.000298876
2.29636e-05
-0.00108599
-0.000172194
-4.11379e-05
2.76619e-05
-0.00107878
-3.21705e-06
-2.45361e-05
0.00248146
0.00056339
-0.000269691
0.00157733
0.000294953
-0.000764681
-0.00383917
-0.00161385
-0.00190433
0.00307565
0.00370842
-0.000128685
-0.000905386
-0.000678233
-0.00425852
0.000403105
0.000107663
-0.000929196
3.62774e-05
0.000118715
0.00152332
0.00183195
-0.000350284
-7.80516e-06
-8.31901e-05
-0.0011008
-0.000431906
-5.01276e-05
-3.08488e-05
0.000153553
0.0012524
8.38635e-05
-0.000695847
-0.000377066
-0.000198873
5.92669e-05
-0.000309384
-7.65267e-05
4.03726e-05
-0.000726612
-0.00340713
1.72272e-05
0.00135055
-0.000589327
0.00101425
0.00228768
5.4207e-05
0.000956976
-0.000904268
0.000121106
4.16177e-05
5.00614e-06
0.000886245
-0.00134321
0.00209583
0.00103633
-1.76829e-05
0.000152269
-0.000138457
8.90039e-05
0.000402546
-0.000245072
-0.000323221
0.000513695
-6.05146e-06
0.0002088
0.000264999
0.000301669
0.000310989
0.000311875
-0.000188077
-0.000590055
-0.000619166
-0.0408032
0.000554924
0.0022831
0.00275891
0.00238614
3.36176e-05
-8.52743e-05
7.16821e-06
0.000160186
0.000271686
0.000551365
0.00388724
-0.00429436
-0.00446897
-8.64699e-05
0.000486165
0.000302095
-0.00490423
-0.00846806
-0.00435852
-4.38309e-05
0.00260379
0.000833833
-0.00297054
-0.000822689
-0.000646855
-4.69713e-05
7.38465e-06
1.75259e-05
1.59555e-05
-1.68736e-05
-7.09782e-05
1.09283e-05
1.77999e-05
-4.8059e-05
-4.66588e-05
8.76635e-06
-2.27286e-05
-1.67272e-05
-0.000123696
-0.000113766
0.000339783
0.000105601
0.000797781
-0.000151738
0.000148767
-0.000151643
-0.000535821
-0.000216585
-3.35191e-05
0.00341343
-0.00500294
0.0022683
0.00142059
-0.000120503
0.000848145
0.000649036
0.000703482
-0.000709703
0.00168975
-2.05999e-06
-9.15867e-05
-0.000164883
-0.000157546
0.00280929
0.000161447
-0.000563777
-0.00100339
3.16358e-05
-5.56729e-05
-2.89649e-05
2.2059e-05
-0.00128825
0.000648541
0.00129904
0.00101113
0.00157499
-0.000988734
-4.51192e-05
2.2032e-05
0.000146146
6.24836e-05
3.6413e-05
-9.64572e-05
0.000831196
0.000270962
-8.87955e-05
-0.00119374
-0.00219782
9.4896e-05
-0.000315511
-0.000438079
0.000177248
0.000255831
0.00235136
0.00333429
-9.02137e-05
-0.000387344
-0.00217953
0.00177322
0.000953616
5.70895e-05
0.000200148
0.000479043
0.00018081
0.00139863
0.000469323
8.76332e-05
0.00027672
4.36419e-05
0.000466012
9.51321e-05