# vtk DataFile Version 2.0
Unstructured Grid by M++
ASCII
DATASET UNSTRUCTURED_GRID
POINTS 4072 float
  0.875000   1.000000 0
  0.875000   0.984375 0
  0.875000   0.968750 0
  0.875000   0.953125 0
  0.875000   0.937500 0
  0.875000   0.921875 0
  0.875000   0.906250 0
  0.875000   0.890625 0
  0.875000   0.875000 0
  0.875000   0.859375 0
  0.875000   0.843750 0
  0.875000   0.828125 0
  0.875000   0.812500 0
  0.875000   0.796875 0
  0.875000   0.781250 0
  0.875000   0.765625 0
  0.859375   1.000000 0
  0.859375   0.984375 0
  0.859375   0.968750 0
  0.859375   0.953125 0
  0.859375   0.937500 0
  0.859375   0.921875 0
  0.859375   0.890625 0
  0.859375   0.875000 0
  0.859375   0.859375 0
  0.859375   0.843750 0
  0.859375   0.828125 0
  0.859375   0.812500 0
  0.859375   0.796875 0
  0.859375   0.781250 0
  0.859375   0.765625 0
  0.859375   0.671875 0
  0.859375   0.656250 0
  0.859375   0.640625 0
  0.843750   1.000000 0
  0.843750   0.984375 0
  0.843750   0.968750 0
  0.843750   0.953125 0
  0.843750   0.937500 0
  0.843750   0.921875 0
  0.843750   0.906250 0
  0.843750   0.875000 0
  0.843750   0.859375 0
  0.843750   0.843750 0
  0.843750   0.828125 0
  0.843750   0.812500 0
  0.843750   0.796875 0
  0.843750   0.781250 0
  0.843750   0.765625 0
  0.843750   0.671875 0
  0.843750   0.656250 0
  0.843750   0.640625 0
  0.828125   1.000000 0
  0.828125   0.984375 0
  0.828125   0.968750 0
  0.828125   0.953125 0
  0.828125   0.937500 0
  0.828125   0.921875 0
  0.875000   0.671875 0
  0.812500   0.921875 0
  0.890625   0.656250 0
  0.828125   0.906250 0
  0.875000   0.656250 0
  0.812500   0.906250 0
  0.890625   0.640625 0
  0.828125   0.890625 0
  0.875000   0.640625 0
  0.812500   0.890625 0
  0.890625   0.625000 0
  0.828125   0.875000 0
  0.890625   0.609375 0
  0.828125   0.859375 0
  0.890625   0.593750 0
  0.828125   0.843750 0
  0.890625   0.578125 0
  0.828125   0.828125 0
  0.890625   0.562500 0
  0.828125   0.812500 0
  0.828125   0.796875 0
  0.828125   0.781250 0
  0.828125   0.765625 0
  0.828125   0.671875 0
  0.828125   0.656250 0
  0.828125   0.640625 0
  0.875000   0.750000 0
  0.812500   1.000000 0
  0.875000   0.625000 0
  0.812500   0.875000 0
  0.875000   0.734375 0
  0.812500   0.984375 0
  0.875000   0.718750 0
  0.812500   0.968750 0
  0.875000   0.703125 0
  0.812500   0.953125 0
  0.875000   0.687500 0
  0.812500   0.937500 0
  0.875000   0.609375 0
  0.812500   0.859375 0
  0.875000   0.593750 0
  0.812500   0.843750 0
  0.875000   0.578125 0
  0.812500   0.828125 0
  0.812500   0.812500 0
  0.875000   0.546875 0
  0.812500   0.796875 0
  0.812500   0.781250 0
  0.812500   0.765625 0
  0.859375   0.750000 0
  0.796875   1.000000 0
  0.859375   0.625000 0
  0.796875   0.875000 0
  0.859375   0.734375 0
  0.796875   0.984375 0
  0.859375   0.718750 0
  0.796875   0.968750 0
  0.859375   0.703125 0
  0.796875   0.953125 0
  0.859375   0.687500 0
  0.796875   0.937500 0
  0.859375   0.609375 0
  0.796875   0.859375 0
  0.859375   0.593750 0
  0.796875   0.843750 0
  0.859375   0.578125 0
  0.796875   0.828125 0
  0.859375   0.562500 0
  0.796875   0.812500 0
  0.796875   0.796875 0
  0.859375   0.531250 0
  0.796875   0.781250 0
  0.796875   0.765625 0
  0.843750   0.750000 0
  0.781250   1.000000 0
  0.843750   0.625000 0
  0.781250   0.875000 0
  0.843750   0.734375 0
  0.781250   0.984375 0
  0.843750   0.718750 0
  0.781250   0.968750 0
  0.843750   0.703125 0
  0.781250   0.953125 0
  0.843750   0.687500 0
  0.781250   0.937500 0
  0.843750   0.609375 0
  0.781250   0.859375 0
  0.843750   0.593750 0
  0.781250   0.843750 0
  0.843750   0.578125 0
  0.781250   0.828125 0
  0.781250   0.812500 0
  0.843750   0.546875 0
  0.781250   0.796875 0
  0.781250   0.781250 0
  0.843750   0.515625 0
  0.781250   0.765625 0
  0.828125   0.750000 0
  0.765625   1.000000 0
  0.828125   0.625000 0
  0.765625   0.875000 0
  0.828125   0.734375 0
  0.765625   0.984375 0
  0.828125   0.718750 0
  0.765625   0.968750 0
  0.828125   0.703125 0
  0.765625   0.953125 0
  0.828125   0.687500 0
  0.765625   0.937500 0
  0.828125   0.609375 0
  0.765625   0.859375 0
  0.828125   0.593750 0
  0.765625   0.843750 0
  0.828125   0.578125 0
  0.765625   0.828125 0
  0.828125   0.562500 0
  0.765625   0.812500 0
  0.765625   0.796875 0
  0.828125   0.531250 0
  0.765625   0.781250 0
  0.765625   0.765625 0
  0.812500   0.750000 0
  0.750000   1.000000 0
  0.953125   1.000000 0
  0.812500   0.734375 0
  0.750000   0.984375 0
  0.812500   0.718750 0
  0.750000   0.968750 0
  0.812500   0.703125 0
  0.750000   0.953125 0
  0.812500   0.687500 0
  0.750000   0.937500 0
  0.812500   0.671875 0
  0.750000   0.921875 0
  0.812500   0.656250 0
  0.750000   0.906250 0
  0.812500   0.640625 0
  0.750000   0.890625 0
  0.812500   0.625000 0
  0.750000   0.875000 0
  0.812500   0.609375 0
  0.750000   0.859375 0
  0.812500   0.593750 0
  0.750000   0.843750 0
  0.812500   0.578125 0
  0.750000   0.828125 0
  0.750000   0.812500 0
  0.812500   0.546875 0
  0.750000   0.796875 0
  0.750000   0.781250 0
  0.812500   0.515625 0
  0.750000   0.765625 0
  0.796875   0.750000 0
  0.734375   1.000000 0
  0.796875   0.734375 0
  0.734375   0.984375 0
  0.796875   0.718750 0
  0.734375   0.968750 0
  0.796875   0.703125 0
  0.734375   0.953125 0
  0.796875   0.687500 0
  0.734375   0.937500 0
  0.796875   0.671875 0
  0.734375   0.921875 0
  0.796875   0.656250 0
  0.734375   0.906250 0
  0.796875   0.640625 0
  0.734375   0.890625 0
  0.796875   0.625000 0
  0.734375   0.875000 0
  0.796875   0.609375 0
  0.734375   0.859375 0
  0.796875   0.593750 0
  0.734375   0.843750 0
  0.796875   0.578125 0
  0.734375   0.828125 0
  0.734375   0.812500 0
  0.734375   0.796875 0
  0.796875   0.531250 0
  0.734375   0.781250 0
  0.734375   0.765625 0
  0.781250   0.750000 0
  0.718750   1.000000 0
  0.921875   1.000000 0
  0.781250   0.734375 0
  0.718750   0.984375 0
  0.781250   0.718750 0
  0.718750   0.968750 0
  0.781250   0.703125 0
  0.718750   0.953125 0
  0.859375   0.906250 0
  0.781250   0.687500 0
  0.718750   0.937500 0
  0.781250   0.671875 0
  0.718750   0.921875 0
  0.781250   0.656250 0
  0.718750   0.906250 0
  0.781250   0.640625 0
  0.718750   0.890625 0
  0.781250   0.625000 0
  0.718750   0.875000 0
  0.781250   0.609375 0
  0.718750   0.859375 0
  0.781250   0.593750 0
  0.718750   0.843750 0
  0.781250   0.578125 0
  0.718750   0.828125 0
  0.781250   0.562500 0
  0.718750   0.812500 0
  0.781250   0.546875 0
  0.718750   0.796875 0
  0.781250   0.531250 0
  0.718750   0.781250 0
  0.781250   0.515625 0
  0.718750   0.765625 0
  0.765625   0.750000 0
  0.703125   1.000000 0
  0.765625   0.734375 0
  0.703125   0.984375 0
  0.765625   0.718750 0
  0.703125   0.968750 0
  0.765625   0.703125 0
  0.703125   0.953125 0
  0.765625   0.687500 0
  0.703125   0.937500 0
  0.843750   0.890625 0
  0.703125   0.921875 0
  0.765625   0.656250 0
  0.703125   0.906250 0
  0.765625   0.640625 0
  0.703125   0.890625 0
  0.765625   0.625000 0
  0.703125   0.875000 0
  0.765625   0.609375 0
  0.703125   0.859375 0
  0.765625   0.593750 0
  0.703125   0.843750 0
  0.765625   0.578125 0
  0.703125   0.828125 0
  0.765625   0.562500 0
  0.703125   0.812500 0
  0.765625   0.546875 0
  0.703125   0.796875 0
  0.765625   0.531250 0
  0.703125   0.781250 0
  0.765625   0.515625 0
  0.703125   0.765625 0
  0.750000   0.750000 0
  0.687500   1.000000 0
  0.890625   1.000000 0
  0.750000   0.734375 0
  0.687500   0.984375 0
  0.750000   0.718750 0
  0.687500   0.968750 0
  0.578125   0.796875 0
  0.578125   0.781250 0
  0.578125   0.765625 0
  0.546875   0.953125 0
  0.546875   0.968750 0
  0.546875   0.718750 0
  0.546875   0.687500 0
  0.250000   0.609375 0
  0.937500   0.031250 0
  0.046875   0.703125 0
  0.734375   0.062500 0
  0.734375   0.078125 0
  0.734375   0.046875 0
  0.046875   0.593750 0
  0.046875   0.562500 0
  0.046875   0.531250 0
  0.718750   0.156250 0
  0.046875   0.609375 0
  0.734375   0.031250 0
  0.062500   0.609375 0
  0.234375   0.703125 0
  0.718750   0.125000 0
  0.046875   0.578125 0
  0.734375   0.000000 0
  0.062500   0.578125 0
  0.000000   0.828125 0
  0.234375   0.671875 0
  0.234375   0.625000 0
  0.718750   0.093750 0
  0.687500   0.156250 0
  0.062500   0.546875 0
  0.000000   0.796875 0
  0.718750   0.046875 0
  0.031250   0.687500 0
  0.687500   0.171875 0
  0.500000   1.000000 0
  0.078125   0.218750 0
  0.234375   0.593750 0
  0.718750   0.062500 0
  0.687500   0.125000 0
  0.000000   0.765625 0
  0.421875   0.500000 0
  0.031250   0.593750 0
  0.718750   0.015625 0
  0.687500   0.234375 0
  0.015625   0.812500 0
  0.703125   0.171875 0
  0.703125   0.187500 0
  0.703125   0.140625 0
  0.015625   0.781250 0
  0.437500   0.515625 0
  0.500000   0.796875 0
  0.078125   0.015625 0
  0.687500   0.203125 0
  0.250000   0.578125 0
  0.703125   0.109375 0
  0.000000   0.515625 0
  0.500000   0.765625 0
  0.062500   0.593750 0
  0.750000   0.015625 0
  0.015625   0.843750 0
  0.687500   0.000000 0
  0.500000   0.828125 0
  0.078125   0.046875 0
  0.015625   0.531250 0
  0.250000   0.546875 0
  0.703125   0.078125 0
  0.703125   0.031250 0
  0.015625   0.671875 0
  0.250000   0.515625 0
  0.000000   0.656250 0
  0.500000   0.906250 0
  0.078125   0.125000 0
  0.687500   0.015625 0
  0.031250   0.546875 0
  0.687500   0.031250 0
  0.500000   0.859375 0
  0.703125   0.000000 0
  0.703125   0.046875 0
  0.703125   0.015625 0
  0.500000   0.937500 0
  0.234375   0.531250 0
  0.031250   0.578125 0
  0.687500   0.062500 0
  0.500000   0.890625 0
  0.031250   0.796875 0
  0.453125   0.531250 0
  0.500000   0.968750 0
  0.078125   0.187500 0
  0.234375   0.562500 0
  0.031250   0.609375 0
  0.718750   0.031250 0
  0.687500   0.093750 0
  0.750000   0.046875 0
  0.000000   0.937500 0
  0.421875   0.671875 0
  0.718750   0.187500 0
  0.031250   0.828125 0
  0.765625   0.062500 0
  0.015625   0.953125 0
[...]
CELL_DATA 7648
SCALARS scalar_value float 1
LOOKUP_TABLE default
0.000994024
0.000170542
0.00335817
0.000784249
-1.40066e-06
-0.00023025
0.000432452
-0.000360691
-1.36489e-05
-0.000965429
-0.000211019
0.00330826
-0.000468443
-0.000913231
-0.000703641
0.000213609
0.000186226
-0.000322529
0.000803699
2.4046e-05
-0.000152201
0.000744384
-1.00247e-05
-3.76917e-08
0.000218492
0.000251889
0.000955496
-2.63749e-05
0.00039124
0.000105168
-0.000565036
-0.000586456
-0.000430418
-5.4421e-05
-5.73723e-05
-7.72221e-05
1.3914e-05
4.13576e-05
-0.000229949
3.58076e-05
-1.02091e-05
0.000162789
7.89208e-05
-6.58209e-05
-3.64656e-05
-0.00016577
-0.000182869
-0.000290574
-0.000406524
-0.000172198
3.91254e-06
-8.93641e-06
0.000766561
0.00141056
-0.000236918
-0.000145139
-0.000355443
0.000636986
-0.000497954
-8.93593e-05
4.88248e-06
5.96073e-05
-3.6751e-06
-0.000122686
-0.000186351
6.91334e-05
-0.000153542
0.00125134
-0.000147939
-2.21518e-05
-4.25014e-05
5.90285e-05
6.52062e-05
0.000140303
-0.000248144
0.000294451
0.000251542
0.000481285
0.00042143
0.000219837
-3.5525e-05
-0.000116949
-0.00064788
-1.22959e-05
3.59643e-05
-1.86081e-05
0.002885
0.000653736
-0.000628182
-0.00046139
-3.6231e-05
-6.22087e-05
-7.08087e-05
6.90556e-06
-7.73533e-05
1.1645e-05
0.000408503
-1.47864e-05
-0.000447298
0.00109462
0.00218818
0.00010864
0.00010148
2.22209e-05
-0.000310983
-0.00114325
0.000208551
0.000132169
-0.000387473
0.000362032
-3.15747e-05
3.38598e-05
0.000613334
-0.000598279
-0.000165355
3.21289e-05
0.00025929
0.00497373
0.00430648
-0.00161658
0.00543355
4.25881e-05
-0.000208899
-6.68447e-05
0.000104528
9.06271e-05
5.55246e-05
0.000122385
8.74611e-05
-0.00015498
1.25039e-05
-7.06093e-05
-0.00359816
3.95558e-05
-9.64228e-05
-5.27602e-05
0.00032088
0.000136039
0.000340349
0.000204294
-0.000127105
7.89283e-05
4.4552e-05
3.24341e-05
0.000247125
5.03018e-06
-6.45674e-05
1.85114e-05
-0.000127385
-0.000162964
-5.74438e-06
-2.54972e-05
5.04529e-05
0.00148879
6.45071e-05
-0.00224203
-0.000251266
-0.000224835
-0.00154297
0.000174656
-0.00028568
-0.000799421
-0.000116336
0.000187441
0.000178186
0.000203326
0.000684045
-8.65589e-05
3.38789e-05
9.33425e-05
4.60445e-06
5.94874e-06
8.99516e-05
0.000107618
-0.00152905
-3.15425e-05
8.37134e-05
-4.14278e-05
-1.26729e-05
-2.15701e-05
-5.18139e-06
-4.66553e-05
6.37981e-05
-2.82345e-05
-0.000214156
7.80502e-05
9.98091e-05
0.000704018
-2.64629e-05
1.34038e-05
0.000371424
-0.000430004
0.000509911
-2.21434e-05
-5.08323e-05
-3.95601e-05
-0.000109254
0.000176809
2.44283e-05
0.000431418
0.000177437
-0.000430106
0.000372787
0.000167841
-4.10769e-05
-0.000121095
-1.72216e-05
6.77e-05
-0.000330961
-4.9876e-05
1.29221e-05
-5.98846e-07
-3.17304e-05
0.000623628
-3.64301e-05
0.000424943
-6.89231e-07
0.000110111
0.000320474
-0.000318251
-4.26328e-05
7.31095e-05
-7.07405e-05
-0.000214745
3.78375e-05
0.000633324
0.000474501
-8.97059e-06
-6.33524e-05
-5.01869e-05
4.80161e-05
-0.00048032
0.000256504
3.79729e-05
-6.17151e-05
4.65105e-05
6.20605e-05
3.98619e-05
3.58804e-05
-0.000597365
4.80071e-05
-0.000685147
0.000295804
-0.000428259
0.000604028
9.39891e-05
-0.000562171
0.000323435
-0.000821441
-0.000141388
0.000190773
-5.54935e-06
-9.6764e-05
-2.42032e-05
-3.42608e-05
-5.95346e-05
3.08033e-05
0.000203704
-8.8052e-05
-1.2193e-05
0.00279987
0.00105804
-0.000142677
-0.000354096
-4.30812e-05
0.000424883
0.00017636
-0.000689505
-8.74643e-05
0.00088556
-0.000384665
-5.94162e-05
-4.87082e-05
0.000887557
-0.00053142
0.000238089
0.00104232
-8.48971e-05
0.000244917
-8.30374e-05
0.000237926
0.000313938
7.39117e-05
0.000190243
-0.000469103
1.92069e-05
-0.000319093
-9.5258e-05
0.000146246
-0.000269443
-0.000434826
0.000387444
0.00057905
7.2927e-05
-0.000124673
1.81226e-05
-9.79427e-05
-0.000611762
0.000146914
-1.04074e-05
-0.000132344
-4.82206e-05
-3.27483e-07
-0.000534064
-0.000124426
-0.000638884
5.98381e-05
-9.03819e-05
-0.000607104
-0.000551703
3.49517e-05
5.88491e-05
-0.000214829
0.000178154
0.000233489
0.00021333
0.000287539
0.000267906
0.000132687
0.000506697
5.66846e-05
-7.2547e-05
3.61745e-05
2.08594e-05
-3.97734e-05
-9.28431e-05
-6.56246e-05
-2.68123e-05
-3.59692e-05
-1.50621e-05
-9.45169e-05
0.000117166
-4.79839e-05
2.68433e-05
0.000236481
2.17785e-05
-6.68532e-05
4.14408e-05
1.63279e-05
4.15072e-05
7.84526e-05
-0.00018249
0.000115425
4.05767e-05
0.00013094
-0.000402061
6.39183e-05
2.33075e-05
-2.26505e-06
-1.81374e-05
-0.000845888
-0.000572322
0.00041975
-2.98768e-05
-0.000568907
3.33979e-05
0.000223957
-0.000277094
5.97303e-05
0.000109042
-0.000397366
-4.68711e-05
-0.000260982
3.61886e-05
6.52628e-05
-1.05363e-06
0.000238871
0.00044806
0.000204997
9.31149e-05
0.000755439
8.70899e-05
4.01972e-05
0.000121856
-0.000371052
0.00054104
-9.06601e-05
0.000274516
0.000547666
-9.95295e-05
-0.00113294
-0.000640839
-0.000400837
0.000361641
0.000372267
-0.000366928
-3.77312e-05
-0.000106233
-0.000254301
-0.000250933
-0.000143315
-5.69237e-05
-0.00013905
-0.000940965
0.000337723
6.67658e-06
0.000619133
0.000154791
-0.00113348
-8.07961e-05
-0.000146414
-4.03883e-05
-2.98693e-05
-1.45095e-05
-1.75434e-05
5.31849e-05
0.000197167
-5.9056e-05
0.000339072
-1.38574e-05
0.000412051
0.000597476
0.000203474
4.15261e-05
0.000169849
0.00184022
0.00135909
1.93336e-05
0.000141954
-0.000124991
-0.000703197
-0.000382046
-0.000219824
2.79305e-07
0.00554042
-3.90342e-05
-2.01382e-05
-0.00124947
-0.000101747
0.00314765
-0.00268342
-0.000500601
3.12331e-05
1.21421e-05
0.000166621
-0.000630499
7.96535e-05
9.93582e-05
-0.000152016
0.000208668
0.000608263
-8.46058e-05
0.000436978
-1.74654e-05
0.000114078
-1.19091e-05
0.000386439
0.000126472
5.73646e-05
-0.000173764
6.72324e-07
0.000478892
3.74822e-05
0.000680302
-3.15667e-05
-7.34165e-06
-0.00013944
0.000511161
-0.000325394
0.000152287
-0.000512267
0.000127301
0.0013417
-0.000262771
0.000105341
5.55262e-05
0.000300092
0.00034186
-4.06854e-05
-0.000196375
1.17424e-05
-0.000516646
-0.000338045
6.08261e-05
0.00335705
0.000692117
0.00121069
1.10018e-06
-0.000400138
-0.000179036
5.8319e-05
0.00127845
-1.34876e-05
-0.000436501
0.000675979
-5.52934e-05
-1.69995e-05
6.96496e-06
3.33298e-05
-0.000487484
-7.233e-06
2.70634e-06
0.000110512
0.000206004
0.00788796
0.00054189
-4.28573e-05
2.01665e-05
7.34037e-05
0.000227868
-6.13115e-06
4.404e-06
3.23027e-06
-0.000160186
1.50547e-05
7.33572e-05
-0.000294736
-1.10563e-05
-0.000122192
4.23829e-06
5.27244e-06
4.69222e-06
-7.06582e-06
5.22135e-05
0.000376622
0.000185514
8.08247e-05
-6.07655e-05
-0.000302755
0.000495079
0.000480889
0.000589611
5.39823e-05
0.000137542
0.000103688
1.18001e-05
2.63112e-05
6.03885e-05
-0.000182704
-9.04571e-05
0.00113018
-7.87895e-05
-0.000234754
0.00036897
0.000429613
9.74404e-05
8.98672e-07
0.000122156
-0.000464769
-0.000397974
0.00115709
-3.17083e-05
8.50933e-05
-6.28822e-05
-0.000322318
0.000282512
0.00045847
0.000282673
-0.000113902
-0.000278478
-4.2551e-05
0.000150598
9.17384e-05
0.000311637
9.63208e-06
0.000110669
-9.14146e-05
0.000224287
0.00108482
0.000116127
0.000129687
-9.31081e-05
-0.000174086
0.000922249
0.00104409
7.74263e-05
-0.000422339
2.2171e-05
-0.000442997
-4.03424e-05
6.35361e-05
0.00012712
0.000732606
-4.24014e-05
-0.000190517
0.000101011
0.000161663
0.000120976
5.09238e-06
-5.6804e-05
-0.00103616
-0.000436379
-0.000582224
0.000304587
-9.61809e-06
0.000347099
-0.00020518
0.000271147
-0.000278488
-4.45441e-05
-0.000118618
-0.000136298
-0.000499085
-0.000443129
1.31292e-05
4.59042e-05
-0.000697929
-0.00091016
-0.00117926
0.000315187
-6.88049e-05
4.91586e-05
-0.000207247
-0.000133009
-0.00012833
1.83431e-05
0.000396017
-4.80361e-05
7.20244e-06
-0.000406554
0.000280362
-0.000113549
-6.99223e-05
0.000276727
-9.09555e-06
0.000112782
0.000144332
-0.00010334
-0.000505481
-0.000169585
-0.000242923
0.000293131
-0.000179032
7.73661e-05
-0.000515282
1.87224e-05
0.000760378
-0.000129209
-0.000135117
0.000114136
-7.62942e-05
5.66513e-05
-4.67338e-05
-5.20502e-05
0.000308484
2.99109e-05
0.000447069
-0.00234427
-0.000512823
6.43494e-05
-7.90193e-06
-0.000689313
3.3272e-06
-0.000231369
0.000250524
3.80207e-05
-1.90463e-05
0.000396462
-2.06554e-05
-1.25812e-05
-0.000714538
0.000961244
4.86242e-05
8.34408e-05
5.05716e-05
-0.000213733
0.000471958
0.000234222
0.000273378
0.000364636
1.88697e-05
-0.000352174
0.00313248
0.00276223
-0.000259062
-0.000507491
0.00171232
0.00408203
2.37832e-05
0.00110072
0.00012491
0.000668329
0.000133094
-7.26866e-05
0.00110295
0.000157156
1.40283e-06
0.000260173
-9.06089e-05
-4.68671e-05
0.00208797
0.000246209
0.000118979
0.00014045
-9.67744e-05
0.00119337
-0.000158416
0.00135522
-0.00016801
1.6276e-05
0.000150051
7.41244e-05
-0.00155927
6.07224e-05
-2.6639e-05
-0.000192008
-7.24915e-05
2.73299e-05
-1.48471e-05
5.24031e-05
0.000490235
4.5701e-05
0.000208051
5.46511e-05
0.000590217
2.61084e-05
0.00193736
6.70727e-05
-2.0235e-05
0.00104722
0.000215425
0.000131607
0.000120698
-0.000625542
-4.27312e-05
-6.16655e-05
-0.000506076
-0.000679097
0.00133802
5.33622e-05
0.00191018
0.0015303
-2.04136e-05
0.00252346
0.000258521
0.000175012
0.000204037
0.000376775
0.00170111
0.000226627
5.4675e-05
-0.000106917
4.74174e-05
-7.29384e-06
9.36289e-05
-2.54221e-06
-0.000534023
2.97912e-05
1.11714e-05
2.2231e-05
-0.000348461
0.000141231
0.000187222
0.000116186
-0.00010043
-9.30894e-06
0.0003586
0.000319521
0.00022341
0.000101098
-5.01287e-06
0.00318736
-1.87996e-05
6.66503e-05
-0.00106782
3.00105e-05
0.000158509
2.4494e-05
-3.37203e-05
-0.000177639
0.000195692
3.0861e-05
0.000146759
0.000305577
5.05701e-05
0.000122768
-9.76432e-05
-1.34859e-05
-3.90271e-05
-5.69083e-07
4.00839e-05
-0.00016676
0.000616716
0.00207345
-5.53812e-05
3.82064e-05
7.44814e-05
0.00102903
0.00037067
0.000275122
-6.04755e-05
5.80942e-06
7.97463e-05
3.66148e-05
5.16763e-05
0.00018094
0.000265371
0.000320437
-0.000248777
-0.00516848
-0.0001693
6.51048e-05
0.000226391
0.000548439
0.00141924
0.00033129
0.000493359
0.000295713
0.00011351
5.02426e-05
-0.000834176
0.000487733
-5.78958e-05
-0.000138753
-0.000475158
9.16231e-05
-0.000149366
7.9157e-05
0.000848659
0.00242382
0.000149956
0.000276707
-6.60676e-05
0.000614655
0.000218672
-0.000840124
-0.000231876
-0.00360504
9.70844e-06
0.00194313
0.00117439
-0.00297041
0.000503805
-0.000602216
0.00228222
0.00102976
0.000101781
0.000165359
-0.00221453
0.000867315
-6.20486e-05
0.000427899
0.00024745
-5.4468e-05
-0.000487013
-0.000162425
-2.27804e-05
0.000354265
5.98903e-05
0.00524576
0.00290949
-0.000112109
-0.000993836
-0.00519586
0.000626978
-6.90754e-05
-0.000730286
0.000221044
-0.000155106
-1.54946e-05
1.726e-05
-0.0013873
-0.000353531
4.17585e-05
-0.00024415
-0.000140068
-0.000154081
-4.10844e-05
-0.000146479
-9.17194e-06
-0.000272216
0.000100013
0.000135501
-0.000285145
0.000226973
0.00018452
-5.23146e-05
1.21972e-05
1.69302e-05
0.0016107
4.72997e-05
0.000105955
-4.83188e-05
0.000187571
-1.05177e-05
-0.00075613
8.61996e-05
-7.6546e-05
-0.000265786
-0.00026721
0.000342031
-0.000360657
-0.000207193
2.22621e-05
1.05976e-05
0.000640474
0.00149557
0.000637723
0.000916556
-0.000459105
-0.000423352
0.000182542
-2.11954e-06
-0.000371016
-0.000256202
0.000814462
0.00012528
9.49665e-05
4.59213e-05
-4.56845e-05
0.000124086
-2.37144e-05
-0.000250731
-1.05639e-05
-4.36107e-06
-0.000542598
-0.000897904
-6.65061e-05
-4.29717e-05
0.000221562
-0.00277734
-0.000133027
0.000327505
0.000103167
-0.000130539
-5.75126e-05
0.00287084
-5.04585e-05
0.00454254
6.76109e-06
-0.000151282
0.000272765
-0.00190441
0.000114608
-0.000372159
-0.000853709
-2.95806e-05
-0.00337869
-0.000158742
-0.000176634
0.0004027
-0.000509351
0.000100348
-0.000124247
0.000329738
0.000112148
-1.31208e-05
-0.000854691
0.00108963
-1.10258e-06
5.31214e-05
0.000138263
0.000273028
0.00195036
-4.80116e-05
-0.000300465
-0.000169708
-1.37408e-05
0.000324093
-0.000186257
0.000872919
-5.99692e-05
0.00026982
8.75726e-05
0.000220575
-0.000361331
1.65588e-05
-0.000137043
-0.000402141
-8.9197e-05
-5.77498e-05
-4.1334e-05
0.000329396
-2.53826e-05
0.000404126
3.49182e-05
-7.33394e-05
-3.559e-05
-1.375e-05
-8.2116e-05
2.85003e-05
0.000377527
6.27249e-05
2.39753e-05
0.000120538
0.00173867
0.00180968
6.83545e-05
0.000762469
0.00013848
0.000130366
0.00485289
-8.7424e-05
-0.0032618
0.00535397
0.000336825
-1.20175e-05
-0.000416218
7.38945e-05
2.8754e-06
0.00203077
1.70469e-05
0.000401147
8.31784e-05
-1.47676e-05
4.51592e-06
0.000237854
0.00010952
0.0052808
1.35402e-05
-0.0016282
4.65513e-06
-9.97573e-06
6.60394e-05
4.98094e-05
0.0010025
-0.000291772
-0.00046084
-0.000234278
1.31693e-05
-0.000354861
-0.000288374
0.0001653
0.000379778
0.00108535
0.00118016
9.82145e-05
8.59586e-05
8.57487e-05
0.000165621
0.000976098
0.000333279
0.00145186
-3.61367e-05
-0.00110635
-0.000137857
-0.000142611
0.000964869
0.000109414
7.38747e-05
-0.00307279
0.00137144
-0.000140381
-0.000292415
-7.1947e-05
5.98912e-05
0.000668866
5.25059e-05
0.00017285
-0.00018714
-0.000131977
-2.17987e-05
0.000287513
-0.00123727
-6.62053e-05
1.98802e-06
6.5297e-05
0.00026061
-0.000144048
-0.00158979
9.15966e-05
8.49433e-06
-0.000209847
-9.90427e-05
-5.98536e-05
0.00055336
1.17016e-05
2.53556e-05
-4.06593e-05
3.44255e-05
-5.83432e-05
0.000197293
-6.30501e-05
-9.03097e-05
4.04167e-05
-2.53865e-05
0.000195177
0.00378669
-0.000179117
-1.1675e-05
0.00011759
1.20434e-05
0.000241431
0.00120521
-4.6992e-05
0.000480802
2.35598e-06
-0.000204753
-0.000384074
0.000534694
-0.0010331
-4.47925e-05
-0.000182012
-2.0309e-05
-0.000420893
-2.88304e-05
0.000185052
-8.78632e-05
0.000207097
-0.000345585
-0.000242262
-0.000340076
0.000137455
-7.82139e-05
0.00101324
0.000868893
-8.90215e-05
-3.33907e-05
0.00103046
-0.000173542
-0.000941115
-2.66863e-05
-0.000830907
3.74733e-05
-0.000644125
-8.76035e-05
9.13698e-05
0.00358204
-0.00023357
0.00020019
9.34543e-05
5.04353e-05
-0.000439052
1.31868e-05
-2.3798e-05
-0.00166754
6.12469e-05
0.000265293
-9.04943e-05
5.90798e-05
-8.35532e-05
0.000885106
0.000672928
-0.000189611
-2.89201e-05
-7.28982e-06
0.000197579
9.78169e-05
0.000117676
-0.000346899
-0.000332365
-0.000383956
-1.23561e-05
1.9433e-05
-1.67523e-05
4.51441e-05
-8.16631e-05
-8.26973e-05
5.36451e-05
8.70698e-06
8.09772e-05
5.66861e-05
-4.40397e-05
3.82139e-05
7.38279e-05
-0.000239018
3.2556e-05
-0.000160703
-0.000255704
3.6457e-05
0.00177871
0.00223317
0.00115384
9.3028e-05
-0.000496268
5.66361e-05
9.92837e-05
0.000100853
0.000110719
3.96486e-05
1.91921e-05
0.000195576
-1.29219e-07
5.91669e-05
-0.000404305
-7.79296e-05
-0.00042751
-0.000464634
0.000791014
0.00037508
0.00164493
0.00152036
-0.000752707
-0.00037723
0.0010232
0.000440191
-0.000449868
0.000412807
-0.000363308
-5.9854e-05
0.000565199
-0.000656422
0.000133816
0.000332337
0.000247828
0.000519692
-9.20713e-05
-0.000115614
-9.05097e-06
1.29932e-05
3.36241e-05
-6.44404e-06
-8.97979e-05
-3.21465e-06
-1.05765e-05
-0.000126823
0.000157451
-0.000145357
0.000540807
-7.59902e-05
2.48641e-05
1.16153e-05
8.24483e-05
2.29889e-05
0.000850657
-0.000394211
0.00108117
-0.000205817
-0.000560376
0.00119183
-0.000450788
0.000417827
0.000105442
-0.000251122
0.00384929
0.000835564
0.00247468
0.000641435
3.00982e-05
-6.18224e-05
0.000192119
0.000124097
0.000272121
0.000122817
-7.96475e-05
-9.65713e-05
4.26546e-05
0.000131535
-0.000177244
6.15467e-05
0.000227272
0.000102726
3.73583e-05
6.6435e-06
5.58058e-05
-0.00211196
-0.000263954
0.000299612
-0.000380936
2.02193e-05
3.23747e-06
0.000151759
0.00065259
-4.46177e-06
-1.50747e-05
1.22404e-05
0.000141312
0.000435308
0.000416723
6.47502e-05
0.00024406
0.0010108
0.000149603
9.82892e-05
-9.48873e-06
-0.000109407
4.44554e-05
-0.000243025
-0.000322289
0.000208555
-0.000103434
-6.19802e-05
-1.89137e-05
-2.10915e-06
-1.82049e-05
2.77401e-05
0.000315703
0.000244862
0.000283466
1.7469e-05
-4.08066e-05
-5.65315e-05
0.000117208
-0.000504017
0.000361631
-0.000176186
-8.65143e-06
8.2651e-05
-0.000316201
-0.000243081
5.61397e-06
4.9131e-05
3.71596e-05
3.4685e-05
2.76459e-06
3.35157e-05
7.37457e-06
-3.19684e-06
0.000460343
4.94345e-05
-0.000292602
0.000187044
-8.67275e-05
-1.07138e-05
-0.000113398
0.000353539
5.2023e-05
-1.98474e-05
0.000248366
0.000470685
-0.000177893
0.000248608
-1.27566e-05
0.000494096
-0.000123852
0.000237766
0.000123083
0.000100468
2.24022e-05
0.000134939
2.7608e-05
8.28312e-05
0.000591694
0.000379281
-5.9795e-05
7.19576e-05
-0.000169358
-0.000151256
7.59788e-05
-2.44612e-05
7.08593e-05
0.000105134
0.000565015
-2.34817e-05
0.000114146
2.50304e-05
-0.000209646
0.000799687
-0.000485976
0.00100522
-0.000118664
-0.000525759
-0.000278844
1.98608e-05
-0.0001925
-0.000774632
-0.000992634
-0.00224003
2.89823e-05
0.000267651
-2.75275e-05
-6.10483e-05
-0.000231139
4.6367e-05
-0.000461633
-4.10991e-05
2.30067e-05
1.17627e-05
0.00033373
-1.77445e-05
8.27517e-05
9.15476e-05
5.7999e-06
0.000222167
0.00376421
-0.00152353
-0.00249688
-0.00115966
-0.00018969
0.00251638
0.000358052
-0.000355687
8.11665e-05
-5.69543e-06
2.89947e-05
1.60996e-06
0.000893261
3.48166e-05
-1.32131e-05
0.000172049
-0.000132419
0.000697987
2.15976e-05
-0.000923604
-0.00061158
0.000153612
0.000604068
-0.000677325
-3.44933e-05
0.000166434
3.24268e-05
-7.62728e-06
-0.000969336
-0.000841255
-0.000613437
0.00449727
-0.000266042
0.000112816
-0.000272995
-0.000148479
9.85573e-05
-5.47596e-07
7.40058e-05
-0.000576226
-0.000166484
-8.17593e-05
0.000196856
0.000133205
0.000281621
-4.54591e-05
-9.63296e-05
2.46052e-07
0.000408277
-0.000326514
0.000225198
-0.00036057
0.000126312
0.000391699
-0.000250671
-0.000328272
-7.05275e-05
-3.72016e-05
-0.000915031
-0.000145746
-9.0996e-05
-0.00108694
-0.000800102
-0.000240308
-0.000285176
-3.32754e-05
1.15016e-05
0.000103512
1.10644e-05
0.000124483
-0.000116315
-0.00263612
0.000235778
1.43431e-05
6.15243e-05
-1.3101e-05
0.000186276
3.81986e-05
0.000102571
-3.61424e-05
1.31872e-05
4.16383e-05
0.000110139
-0.00020197
3.10726e-06
5.65521e-05
0.00016997
0.000113191
0.00101733
9.64124e-05
-0.000208059
-9.48796e-05
-7.81561e-05
2.5489e-06
-0.000503448
-0.00010263
-4.80239e-06
-1.10072e-05
0.000557369
0.00077663
0.000725505
0.000290788
0.00258951
-0.00429024
-0.00376611
0.00248574
-0.00303948
-0.00152734
6.55128e-05
-0.00055917
0.00255501
0.00252919
-0.00203701
3.84414e-05
-0.000385136
-8.5073e-06
-4.80555e-05
0.000195109
0.000808271
0.000218011
-1.12614e-05
5.66668e-05
-0.000503982
-0.00061518
0.000214271
-1.73431e-05
0.000127899
-0.000547658
-4.98802e-05
0.00011161
0.000183083
-5.46505e-05
-0.000395387
1.97517e-05
-2.2393e-06
-0.000151617
0.000119623
-0.00404934
-0.000992521
0.00331349
0.000390028
4.10738e-05
0.000320581
-0.000699771
-5.92156e-05
0.000128715
-1.81614e-05
9.56442e-05
0.000117073
0.000477421
7.1551e-05
0.000290994
0.000214445
-4.83512e-05
0.000108677
-0.000122556
-5.35108e-05
7.3707e-05
-0.000412681
0.000109279
-6.93688e-05
-8.28634e-05
-0.0014448
-0.00101213
8.83144e-05
8.41319e-05
-0.000969721
-9.51388e-05
-0.000122858
-0.000148087
-0.0424582
0.000100039
0.00403419
0.00399263
0.00293532
-0.00011006
0.000163397
-0.000317033
8.80918e-05
0.000304284
-4.09732e-05
0.00281724
-0.000317157
0.000591958
-0.000301584
0.000409236
0.000237326
-0.0037773
-0.00211222
-0.00315398
-9.58853e-06
-0.000662579
-0.000470236
0.000311886
0.00139933
-0.000711688
1.48222e-05
-2.4834e-06
-1.8104e-06
5.80837e-06
-2.99972e-06
-2.93389e-05
-0.000101369
-4.29242e-06
-1.90427e-05
-1.61882e-05
2.82043e-06
2.05029e-05
4.59653e-06
-3.01153e-05
-6.80069e-06
8.78484e-05
6.67742e-05
-0.000196943
0.000280644
5.00937e-05
9.0439e-05
1.48104e-05
-9.37831e-05
3.15796e-06
0.00162874
-0.000421854
0.000309964
0.00109885
0.00194687
0.00222005
0.0015967
0.00189805
-0.000434232
-0.000277845
4.75864e-05
7.61317e-06
-9.33514e-05
-4.79007e-05
0.00450583
9.53841e-05
0.000341829
-0.000238124
8.11142e-05
2.87611e-05
2.2602e-05
9.23025e-06
0.0010174
9.04849e-05
-0.000554617
-0.000134171
-0.00101723
-5.38659e-05
-1.69547e-05
2.02232e-05
0.000107536
3.78148e-05
-2.06757e-05
9.4958e-05
0.000349573
0.000218035
-0.00052701
-0.000190211
-0.000606974
7.51653e-05
-2.43117e-05
0.000168248
0.000140947
-1.04793e-05
0.00069426
-0.000800476
-6.42655e-05
-0.000228533
0.000574345
0.000106487
-0.000140026
0.000112342
0.00161132
0.00141547