# vtk DataFile Version 2.0
Unstructured Grid by M++
ASCII
DATASET UNSTRUCTURED_GRID
POINTS 4072 float
  0.875000   1.000000 0
  0.875000   0.984375 0
  0.875000   0.968750 0
  0.875000   0.953125 0
  0.875000   0.937500 0
  0.875000   0.921875 0
  0.875000   0.906250 0
  0.875000   0.890625 0
  0.875000   0.875000 0
  0.875000   0.859375 0
  0.875000   0.843750 0
  0.875000   0.828125 0
  0.875000   0.812500 0
  0.875000   0.796875 0
  0.875000   0.781250 0
  0.875000   0.765625 0
  0.859375   1.000000 0
  0.859375   0.984375 0
  0.859375   0.968750 0
  0.859375   0.953125 0
  0.859375   0.937500 0
  0.859375   0.921875 0
  0.859375   0.890625 0
  0.859375   0.875000 0
  0.859375   0.859375 0
  0.859375   0.843750 0
  0.859375   0.828125 0
  0.859375   0.812500 0
  0.859375   0.796875 0
  0.859375   0.781250 0
  0.859375   0.765625 0
  0.859375   0.671875 0
  0.859375   0.656250 0
  0.859375   0.640625 0
  0.843750   1.000000 0
  0.843750   0.984375 0
  0.843750   0.968750 0
  0.843750   0.953125 0
  0.843750   0.937500 0
  0.843750   0.921875 0
  0.843750   0.906250 0
  0.843750   0.875000 0
  0.843750   0.859375 0
  0.843750   0.843750 0
  0.843750   0.828125 0
  0.843750   0.812500 0
  0.843750   0.796875 0
  0.843750   0.781250 0
  0.843750   0.765625 0
  0.843750   0.671875 0
  0.843750   0.656250 0
  0.843750   0.640625 0
  0.828125   1.000000 0
  0.828125   0.984375 0
  0.828125   0.968750 0
  0.828125   0.953125 0
  0.828125   0.937500 0
  0.828125   0.921875 0
  0.875000   0.671875 0
  0.812500   0.921875 0
  0.890625   0.656250 0
  0.828125   0.906250 0
  0.875000   0.656250 0
  0.812500   0.906250 0
  0.890625   0.640625 0
  0.828125   0.890625 0
  0.875000   0.640625 0
  0.812500   0.890625 0
  0.890625   0.625000 0
  0.828125   0.875000 0
  0.890625   0.609375 0
  0.828125   0.859375 0
  0.890625   0.593750 0
  0.828125   0.843750 0
  0.890625   0.578125 0
  0.828125   0.828125 0
  0.890625   0.562500 0
  0.828125   0.812500 0
  0.828125   0.796875 0
  0.828125   0.781250 0
  0.828125   0.765625 0
  0.828125   0.671875 0
  0.828125   0.656250 0
  0.828125   0.640625 0
  0.875000   0.750000 0
  0.812500   1.000000 0
  0.875000   0.625000 0
  0.812500   0.875000 0
  0.875000   0.734375 0
  0.812500   0.984375 0
  0.875000   0.718750 0
  0.812500   0.968750 0
  0.875000   0.703125 0
  0.812500   0.953125 0
  0.875000   0.687500 0
  0.812500   0.937500 0
  0.875000   0.609375 0
  0.812500   0.859375 0
  0.875000   0.593750 0
  0.812500   0.843750 0
  0.875000   0.578125 0
  0.812500   0.828125 0
  0.812500   0.812500 0
  0.875000   0.546875 0
  0.812500   0.796875 0
  0.812500   0.781250 0
  0.812500   0.765625 0
  0.859375   0.750000 0
  0.796875   1.000000 0
  0.859375   0.625000 0
  0.796875   0.875000 0
  0.859375   0.734375 0
  0.796875   0.984375 0
  0.859375   0.718750 0
  0.796875   0.968750 0
  0.859375   0.703125 0
  0.796875   0.953125 0
  0.859375   0.687500 0
  0.796875   0.937500 0
  0.859375   0.609375 0
  0.796875   0.859375 0
  0.859375   0.593750 0
  0.796875   0.843750 0
  0.859375   0.578125 0
  0.796875   0.828125 0
  0.859375   0.562500 0
  0.796875   0.812500 0
  0.796875   0.796875 0
  0.859375   0.531250 0
  0.796875   0.781250 0
  0.796875   0.765625 0
  0.843750   0.750000 0
  0.781250   1.000000 0
  0.843750   0.625000 0
  0.781250   0.875000 0
  0.843750   0.734375 0
  0.781250   0.984375 0
  0.843750   0.718750 0
  0.781250   0.968750 0
  0.843750   0.703125 0
  0.781250   0.953125 0
  0.843750   0.687500 0
  0.781250   0.937500 0
  0.843750   0.609375 0
  0.781250   0.859375 0
  0.843750   0.593750 0
  0.781250   0.843750 0
  0.843750   0.578125 0
  0.781250   0.828125 0
  0.781250   0.812500 0
  0.843750   0.546875 0
  0.781250   0.796875 0
  0.781250   0.781250 0
  0.843750   0.515625 0
  0.781250   0.765625 0
  0.828125   0.750000 0
  0.765625   1.000000 0
  0.828125   0.625000 0
  0.765625   0.875000 0
  0.828125   0.734375 0
  0.765625   0.984375 0
  0.828125   0.718750 0
  0.765625   0.968750 0
  0.828125   0.703125 0
  0.765625   0.953125 0
  0.828125   0.687500 0
  0.765625   0.937500 0
  0.828125   0.609375 0
  0.765625   0.859375 0
  0.828125   0.593750 0
  0.765625   0.843750 0
  0.828125   0.578125 0
  0.765625   0.828125 0
  0.828125   0.562500 0
  0.765625   0.812500 0
  0.765625   0.796875 0
  0.828125   0.531250 0
  0.765625   0.781250 0
  0.765625   0.765625 0
  0.812500   0.750000 0
  0.750000   1.000000 0
  0.953125   1.000000 0
  0.812500   0.734375 0
  0.750000   0.984375 0
  0.812500   0.718750 0
  0.750000   0.968750 0
  0.812500   0.703125 0
  0.750000   0.953125 0
  0.812500   0.687500 0
  0.750000   0.937500 0
  0.812500   0.671875 0
  0.750000   0.921875 0
  0.812500   0.656250 0
  0.750000   0.906250 0
  0.812500   0.640625 0
  0.750000   0.890625 0
  0.812500   0.625000 0
  0.750000   0.875000 0
  0.812500   0.609375 0
  0.750000   0.859375 0
  0.812500   0.593750 0
  0.750000   0.843750 0
  0.812500   0.578125 0
  0.750000   0.828125 0
  0.750000   0.812500 0
  0.812500   0.546875 0
  0.750000   0.796875 0
  0.750000   0.781250 0
  0.812500   0.515625 0
  0.750000   0.765625 0
  0.796875   0.750000 0
  0.734375   1.000000 0
  0.796875   0.734375 0
  0.734375   0.984375 0
  0.796875   0.718750 0
  0.734375   0.968750 0
  0.796875   0.703125 0
  0.734375   0.953125 0
  0.796875   0.687500 0
  0.734375   0.937500 0
  0.796875   0.671875 0
  0.734375   0.921875 0
  0.796875   0.656250 0
  0.734375   0.906250 0
  0.796875   0.640625 0
  0.734375   0.890625 0
  0.796875   0.625000 0
  0.734375   0.875000 0
  0.796875   0.609375 0
  0.734375   0.859375 0
  0.796875   0.593750 0
  0.734375   0.843750 0
  0.796875   0.578125 0
  0.734375   0.828125 0
  0.734375   0.812500 0
  0.734375   0.796875 0
  0.796875   0.531250 0
  0.734375   0.781250 0
  0.734375   0.765625 0
  0.781250   0.750000 0
  0.718750   1.000000 0
  0.921875   1.000000 0
  0.781250   0.734375 0
  0.718750   0.984375 0
  0.781250   0.718750 0
  0.718750   0.968750 0
  0.781250   0.703125 0
  0.718750   0.953125 0
  0.859375   0.906250 0
  0.781250   0.687500 0
  0.718750   0.937500 0
  0.781250   0.671875 0
  0.718750   0.921875 0
  0.781250   0.656250 0
  0.718750   0.906250 0
  0.781250   0.640625 0
  0.718750   0.890625 0
  0.781250   0.625000 0
  0.718750   0.875000 0
  0.781250   0.609375 0
  0.718750   0.859375 0
  0.781250   0.593750 0
  0.718750   0.843750 0
  0.781250   0.578125 0
  0.718750   0.828125 0
  0.781250   0.562500 0
  0.718750   0.812500 0
  0.781250   0.546875 0
  0.718750   0.796875 0
  0.781250   0.531250 0
  0.718750   0.781250 0
  0.781250   0.515625 0
  0.718750   0.765625 0
  0.765625   0.750000 0
  0.703125   1.000000 0
  0.765625   0.734375 0
  0.703125   0.984375 0
  0.765625   0.718750 0
  0.703125   0.968750 0
  0.765625   0.703125 0
  0.703125   0.953125 0
  0.765625   0.687500 0
  0.703125   0.937500 0
  0.843750   0.890625 0
  0.703125   0.921875 0
  0.765625   0.656250 0
  0.703125   0.906250 0
  0.765625   0.640625 0
  0.703125   0.890625 0
  0.765625   0.625000 0
  0.703125   0.875000 0
  0.765625   0.609375 0
  0.703125   0.859375 0
  0.765625   0.593750 0
  0.703125   0.843750 0
  0.765625   0.578125 0
  0.703125   0.828125 0
  0.765625   0.562500 0
  0.703125   0.812500 0
  0.765625   0.546875 0
  0.703125   0.796875 0
  0.765625   0.531250 0
  0.703125   0.781250 0
  0.765625   0.515625 0
  0.703125   0.765625 0
  0.750000   0.750000 0
  0.687500   1.000000 0
  0.890625   1.000000 0
  0.750000   0.734375 0
  0.687500   0.984375 0
  0.750000   0.718750 0
  0.687500   0.968750 0
  0.578125   0.796875 0
  0.578125   0.781250 0
  0.578125   0.765625 0
  0.546875   0.953125 0
  0.546875   0.968750 0
  0.546875   0.718750 0
  0.546875   0.687500 0
  0.250000   0.609375 0
  0.937500   0.031250 0
  0.046875   0.703125 0
  0.734375   0.062500 0
  0.734375   0.078125 0
  0.734375   0.046875 0
  0.046875   0.593750 0
  0.046875   0.562500 0
  0.046875   0.531250 0
  0.718750   0.156250 0
  0.046875   0.609375 0
  0.734375   0.031250 0
  0.062500   0.609375 0
  0.234375   0.703125 0
  0.718750   0.125000 0
  0.046875   0.578125 0
  0.734375   0.000000 0
  0.062500   0.578125 0
  0.000000   0.828125 0
  0.234375   0.671875 0
  0.234375   0.625000 0
  0.718750   0.093750 0
  0.687500   0.156250 0
  0.062500   0.546875 0
  0.000000   0.796875 0
  0.718750   0.046875 0
  0.031250   0.687500 0
  0.687500   0.171875 0
  0.500000   1.000000 0
  0.078125   0.218750 0
  0.234375   0.593750 0
  0.718750   0.062500 0
  0.687500   0.125000 0
  0.000000   0.765625 0
  0.421875   0.500000 0
  0.031250   0.593750 0
  0.718750   0.015625 0
  0.687500   0.234375 0
  0.015625   0.812500 0
  0.703125   0.171875 0
  0.703125   0.187500 0
  0.703125   0.140625 0
  0.015625   0.781250 0
  0.437500   0.515625 0
  0.500000   0.796875 0
  0.078125   0.015625 0
  0.687500   0.203125 0
  0.250000   0.578125 0
  0.703125   0.109375 0
  0.000000   0.515625 0
  0.500000   0.765625 0
  0.062500   0.593750 0
  0.750000   0.015625 0
  0.015625   0.843750 0
  0.687500   0.000000 0
  0.500000   0.828125 0
  0.078125   0.046875 0
  0.015625   0.531250 0
  0.250000   0.546875 0
  0.703125   0.078125 0
  0.703125   0.031250 0
  0.015625   0.671875 0
  0.250000   0.515625 0
  0.000000   0.656250 0
  0.500000   0.906250 0
  0.078125   0.125000 0
  0.687500   0.015625 0
  0.031250   0.546875 0
  0.687500   0.031250 0
  0.500000   0.859375 0
  0.703125   0.000000 0
  0.703125   0.046875 0
  0.703125   0.015625 0
  0.500000   0.937500 0
  0.234375   0.531250 0
  0.031250   0.578125 0
  0.687500   0.062500 0
  0.500000   0.890625 0
  0.031250   0.796875 0
  0.453125   0.531250 0
  0.500000   0.968750 0
  0.078125   0.187500 0
  0.234375   0.562500 0
  0.031250   0.609375 0
  0.718750   0.031250 0
  0.687500   0.093750 0
  0.750000   0.046875 0
  0.000000   0.937500 0
  0.421875   0.671875 0
  0.718750   0.187500 0
  0.031250   0.828125 0
  0.765625   0.062500 0
  0.015625   0.953125 0
[...]
CELL_DATA 7648
SCALARS scalar_value float 1
LOOKUP_TABLE default
0.000788612
6.41475e-05
0.00299492
0.000875321
0.000233133
0.000175711
9.93773e-06
-0.000229817
-1.0856e-05
-0.000862138
-0.000141371
0.00227949
-0.000106466
-0.000655619
-0.000633342
0.000128705
0.00018782
-0.000306778
0.000487434
6.8362e-05
-0.000111142
0.000555911
0.000101023
-1.36848e-05
5.55904e-05
9.63122e-05
0.000573696
-0.000393254
0.000296453
-5.97738e-06
-0.00063924
-0.00056784
-0.000523782
-5.82156e-05
-5.78869e-05
-8.496e-05
-2.79041e-05
1.64144e-05
-0.000232073
1.94371e-05
-2.24521e-05
0.000114132
-7.33879e-05
-4.39378e-05
-5.22943e-05
-0.000177443
-5.83136e-05
-0.00038978
2.15089e-06
-6.22144e-06
2.19723e-05
-2.30492e-05
0.000488604
0.00116331
-0.000161765
-0.000162334
-0.000299271
0.000430603
-0.00048004
-2.76106e-05
1.33334e-09
-0.000379294
-1.21403e-05
-0.000311884
8.88061e-05
-0.000260002
-0.000391182
0.00136875
8.42248e-05
-4.86199e-05
-5.12204e-05
4.93843e-05
0.000104432
7.68869e-05
-0.000232846
0.00013243
0.000368919
0.000410146
0.000425836
0.000227952
-8.81592e-06
-5.87979e-05
-0.000429325
-0.000195135
0.000101588
-3.97162e-06
0.00300794
0.000673798
-0.000160898
-0.000171281
-0.0011116
-0.000133008
-0.000259698
8.50827e-05
2.19031e-05
-0.000225596
0.000155619
-5.22318e-05
-0.000133777
-0.000623791
0.00103904
7.09842e-05
7.42862e-05
6.28358e-06
-0.000259701
-0.00175259
9.74663e-06
0.000123047
2.30876e-05
0.000105211
-6.84005e-05
4.93925e-05
0.000530342
-0.000512629
-0.000301685
0.000212924
0.000227373
0.00251367
0.00234524
0.00018913
0.00351728
1.88452e-05
-0.000444478
-8.28106e-05
0.000123938
9.65631e-05
5.98388e-05
-0.000108201
0.000155112
0.000122001
-8.00633e-05
-7.90577e-05
-0.00305873
1.54152e-05
-9.75055e-05
-0.000113418
0.0004431
0.000185623
0.000339015
0.000157393
-0.000247166
-8.67632e-06
-7.94859e-05
-2.55811e-05
0.000105801
1.07805e-05
-1.82157e-05
-4.81738e-05
-6.72562e-06
-0.000278458
-1.82408e-06
-7.09805e-05
3.03049e-05
-0.000567344
3.62604e-05
-0.00108421
-0.000384754
-0.000207724
-0.00144187
0.000167078
-0.00031465
-0.00118341
-0.000189999
-2.51637e-05
0.000287041
0.000127494
0.000725388
-0.000161447
-0.000196491
0.00013603
7.09626e-05
-0.00038375
5.42478e-05
0.000101805
-0.00121497
-2.0996e-05
-6.26595e-05
4.9905e-05
-9.15814e-06
-7.74437e-05
-3.27604e-06
-1.5332e-05
9.92889e-05
-0.000146079
-5.57747e-05
0.000139014
-0.000211854
0.000791271
-1.41251e-05
7.14853e-05
0.000234974
-0.000318364
-4.60031e-05
-1.92899e-05
-7.45876e-06
-1.95559e-05
-9.86484e-05
0.000100162
3.99019e-05
0.000853861
0.000217282
-0.000363708
8.75893e-05
-6.19632e-05
-4.07069e-05
-1.45007e-05
-2.64878e-05
7.14743e-05
-0.000215858
-5.29281e-05
-6.75193e-05
-0.000298768
5.50503e-06
0.00056058
-1.26365e-05
0.00018797
0.000144382
8.71154e-05
0.000183596
-0.000227149
1.99976e-05
7.16234e-05
-0.000251761
-0.000210604
-5.63572e-05
0.000569844
3.57436e-06
6.27614e-05
9.66459e-06
0.000163608
-0.00032992
-0.000381636
0.000296583
6.33015e-05
-7.62811e-05
6.97657e-07
3.17844e-05
1.07847e-05
-1.37134e-05
-0.000649203
8.1999e-05
-0.000753938
0.000220302
-0.000353589
0.000604902
2.73815e-05
0.000117472
5.32308e-05
-0.000117184
-0.000114274
0.000397639
-0.000106514
-0.000189621
-9.51792e-05
-4.71874e-05
-4.27727e-05
3.92757e-05
0.000179081
-0.000126339
-1.0485e-05
0.00153234
0.000672493
-0.000134125
-0.000233044
-0.00015119
0.000512328
-9.56156e-05
-0.000545868
-0.000124722
0.00102742
-0.000366787
-4.74924e-05
4.29536e-05
0.000388563
-0.000463441
-2.37004e-05
0.00129072
-4.59671e-07
0.000145006
-8.10097e-05
0.000215203
0.000248505
6.81455e-05
0.000399517
-0.000258369
-0.000248935
2.0948e-05
-0.00016668
7.66662e-05
-0.000161897
-0.000441793
0.000354901
0.000813089
4.35177e-05
-9.17867e-05
-6.44355e-05
-0.000112463
-0.000508327
6.19277e-05
-0.000167204
-3.71876e-05
-3.80267e-05
-4.17127e-06
-0.000421836
-6.78879e-05
-0.000632234
7.68404e-05
3.47629e-05
-0.000579276
-0.000579041
2.24815e-05
1.87481e-06
0.000451103
0.000117276
0.000225157
0.000277884
0.000298418
9.10529e-05
0.000195477
0.000458714
4.95031e-05
-4.84694e-05
0.000155506
2.30096e-05
-2.13476e-05
-2.49115e-05
-7.38274e-05
-1.41615e-05
-5.05539e-05
-1.97175e-05
-3.72521e-05
8.03576e-05
-5.50983e-05
5.98746e-05
0.000163344
-2.7998e-05
-2.27483e-05
6.21885e-05
-8.30424e-05
4.90734e-05
9.01231e-05
-0.000163434
0.00010239
8.15955e-05
8.99781e-05
-0.000340766
0.000156942
-0.000167161
-2.93987e-05
9.28232e-06
-0.00034881
-0.000438765
0.000219124
-3.03013e-05
-0.00043471
8.65349e-05
0.000209222
-0.000244418
-4.41829e-05
8.01069e-05
-0.000377064
-8.69844e-05
-0.000371273
4.07114e-05
1.05995e-05
7.22797e-05
0.000402126
0.000363335
-0.000101966
1.57204e-05
0.000267052
5.97585e-05
0.000108033
0.00023156
-0.000305734
0.000202954
-9.63432e-05
0.000230685
0.000409917
-6.25424e-05
-0.000787909
-0.000362617
-0.000287579
0.000293106
0.000278299
-0.00025215
-6.50088e-06
-3.02758e-05
-0.000665819
-8.33949e-05
-0.000594488
-3.24605e-05
4.33929e-05
-0.000576729
0.000284005
-3.12932e-05
0.000456141
0.000214478
-0.000922668
9.4039e-05
-8.1488e-05
-0.00032739
-1.40377e-05
1.42247e-06
-3.48445e-05
1.29164e-05
0.000161904
-0.000143112
0.000236863
-2.62259e-05
0.00304016
0.000686286
6.1333e-05
0.000355419
0.000189752
0.0016712
0.000914248
3.63857e-06
-1.04447e-05
-6.43885e-05
-0.000370755
-0.00106693
-0.000163795
-0.000150669
0.00459781
3.97427e-05
-2.09387e-05
0.000760468
-0.00021816
0.00386332
-0.00162347
-0.000501236
1.00955e-05
-9.69035e-05
9.40171e-05
-0.000277384
2.86246e-05
6.8422e-05
0.000365955
4.19443e-05
0.000421134
-0.000123038
0.000238719
0.000348048
8.0557e-05
-1.39813e-05
0.000102937
0.000128018
4.91799e-05
-0.000331908
-8.145e-06
2.85582e-05
-2.76488e-05
0.000226129
9.87837e-05
-1.37046e-05
-0.000289982
0.000185474
0.000869055
0.000186977
-0.000114318
0.000164125
3.22573e-05
-0.000112739
0.000129088
9.08933e-05
0.00016262
0.000395302
4.46134e-05
-0.000304712
4.78749e-05
-0.000584635
-0.00019586
6.81333e-05
0.000665932
0.000601754
0.000350827
5.68247e-06
1.56846e-05
2.15642e-05
-3.86108e-06
0.00135815
-9.18442e-05
-0.000437528
0.000271897
-0.000265097
-3.95903e-06
1.8822e-05
1.92627e-05
-0.000328519
4.79555e-06
-3.50001e-05
2.83622e-05
-6.16529e-05
0.00713167
0.00163734
-7.71134e-05
1.689e-05
2.33888e-05
9.00195e-05
-4.33399e-05
-2.50135e-06
1.03038e-05
-0.000192174
-2.18881e-05
-0.000100868
-0.000189652
-1.58613e-05
-2.54569e-05
-1.44785e-06
9.14622e-05
6.12673e-06
-5.02452e-06
0.00197006
0.000266311
0.000159292
0.000100771
-4.08327e-05
-0.000150858
0.000426266
0.000117247
0.0007897
6.82986e-05
0.000137741
4.50783e-05
-1.31841e-05
-0.000109552
4.77751e-05
-0.000256642
0.000166118
-0.000169112
5.90367e-06
-0.0002756
0.000321004
0.000255788
0.000105134
1.41553e-05
6.1083e-05
-0.00101829
-0.000262591
0.000690783
-3.47425e-07
4.05117e-05
-0.000105664
-0.000341721
0.000409395
0.000246897
0.000314155
-0.000226697
-0.000137026
-0.000122196
0.000259856
2.60113e-05
0.000388862
1.28207e-05
2.60809e-05
-5.31571e-06
0.000202898
0.000636987
0.00019391
0.000121126
-0.00029982
-0.000100673
0.000864849
0.00058774
4.8822e-05
-0.000200162
4.81428e-05
-0.000177659
-6.56936e-05
6.54492e-06
0.000181691
0.000371585
8.26901e-05
-0.000191221
0.000106034
0.000152059
6.79218e-05
-5.98076e-05
-4.12208e-05
-0.00063222
-0.000266757
-0.000412886
0.000183464
6.52869e-06
0.000506395
-0.000347016
0.000458697
-5.997e-05
-7.04012e-07
3.14155e-05
-0.000286985
-0.000237531
-0.00184137
3.18763e-05
4.42914e-05
-0.00029105
0.000104673
-0.000649817
0.000232106
-0.000248744
0.000146948
-0.000140956
1.60875e-05
-4.37447e-06
2.47995e-05
-0.000248766
-0.000264594
-0.000138035
-9.15999e-05
-7.95528e-05
2.94608e-05
0.000115854
0.000372922
0.000187234
0.000111939
6.44461e-05
-6.03401e-05
-0.000546277
-4.23579e-05
-0.000148824
0.000190677
-0.000180743
1.50806e-05
-0.000454584
-6.68799e-06
0.000585795
-0.000128129
-0.000134975
6.5026e-05
-2.89982e-05
0.000153034
6.7599e-05
3.87654e-06
0.000116432
5.10951e-05
0.000305355
-0.000703189
-0.0014163
7.51529e-05
-7.29445e-06
-0.000586847
1.53031e-05
-0.000294984
0.000107931
-6.70592e-05
-1.43704e-05
0.000332262
-0.000352732
5.97643e-06
-0.000690747
0.00150352
-8.32412e-05
-0.000127403
-6.91717e-05
-0.000135654
0.000712728
-6.57027e-05
6.65208e-05
0.000647979
5.31857e-05
-7.39438e-05
0.00526911
0.00166768
-0.000190065
-0.000253749
0.000883253
0.00554659
0.000163356
0.00108713
0.000294677
0.000501604
1.62258e-05
3.51965e-05
0.00113084
0.000208533
1.42278e-05
0.000282743
-0.00039545
-7.64937e-06
0.0019587
0.000169724
0.000290756
-4.1831e-05
-6.61896e-05
0.00107175
0.000103249
0.00101663
-3.2971e-05
2.54679e-05
0.000251888
9.42787e-05
-0.000359194
0.000187655
-0.000116846
-0.000277472
3.6208e-05
5.01534e-05
-8.39406e-05
-3.32715e-05
0.000276736
1.02266e-05
0.000238134
-0.000201759
-0.000237316
0.000408165
0.00360692
2.87639e-05
-3.22532e-05
0.00117495
0.00047662
0.000814845
0.000102383
-0.000153485
-1.81239e-05
-7.81316e-06
-0.000231675
-0.000359979
0.000483317
-9.32319e-06
0.00161998
0.00184788
-3.02466e-05
0.00216283
-9.9188e-05
-3.36216e-06
6.1006e-05
0.000352722
0.000881555
0.000144964
0.000160254
-0.000131051
0.000102499
-6.51102e-05
9.31514e-05
8.09506e-05
8.6458e-05
3.00421e-05
-5.15669e-05
2.88533e-05
-0.000310048
0.000310731
3.44404e-05
-0.000247174
6.41985e-05
6.82182e-05
0.0003801
0.000244984
0.000209338
1.83967e-05
7.34454e-05
0.00243464
-4.5342e-05
1.90254e-05
-0.0015349
1.55531e-05
0.00010931
5.99112e-05
-0.000284329
-6.85094e-05
0.000328539
-3.11907e-05
4.6428e-05
0.000174438
-4.13941e-05
0.000198595
2.89934e-05
-6.25399e-05
-3.79453e-05
-2.97547e-06
4.23976e-05
1.74315e-05
0.000125013
0.00454497
-3.55881e-05
6.96792e-07
9.41266e-05
0.000701688
3.362e-05
0.000430461
-7.50936e-05
-2.48667e-05
7.27252e-05
1.6811e-05
-1.39495e-05
0.000139176
1.56591e-05
-0.000451341
-0.000213493
-0.004833
-9.02803e-05
5.54107e-05
0.000190066
0.000498717
0.000471246
0.000169058
0.000319712
0.000378561
0.000150491
-3.57912e-05
-0.000654447
0.000449168
2.02858e-05
8.69195e-06
-1.75253e-07
9.93976e-05
-0.000374714
7.46851e-05
0.000809177
0.00197529
7.5148e-06
0.000282163
-7.43278e-05
2.2744e-05
-0.00018189
0.000861038
-0.000213992
-0.00189525
-9.55824e-05
0.00452764
0.00402373
-0.00210524
0.000402112
-0.000486906
0.00239317
0.00137318
0.000101043
0.000142037
-0.00244541
0.00145467
-5.81014e-05
0.000384133
0.000170616
-2.75521e-05
-0.00027144
0.00080234
0.000128026
0.000214844
5.0411e-05
0.00373476
0.00304723
-0.00018078
-0.000998536
-0.0041049
0.000622451
-4.36519e-05
0.000215688
0.000190545
-1.89803e-05
2.59395e-05
-4.1032e-05
-0.000809858
-3.29681e-05
0.000135072
-0.000247969
-0.000240959
-2.37852e-05
9.68938e-05
-5.32046e-05
6.13292e-05
-0.000214702
3.49441e-05
0.000144164
-4.08841e-05
0.000374325
-9.39533e-05
-0.000246583
-0.000132042
-0.000150171
0.000955525
0.000106051
0.000101054
1.28027e-06
0.000197021
3.52178e-06
-0.000476683
-0.000177645
-0.0002298
-0.000577548
0.000644281
0.00117593
-0.000461319
-0.000175315
-1.6389e-07
-5.6351e-06
-0.000302645
0.00109177
0.00109234
0.000481022
-0.000369746
-0.000384458
0.000288395
1.00266e-05
-0.000264829
0.000360123
0.000430874
0.000217184
4.55251e-05
2.89383e-05
-0.000149105
9.49551e-05
-4.69416e-05
-9.89298e-05
-4.36886e-05
-4.12435e-05
-0.000239225
-0.00033783
-7.88226e-05
-7.2372e-05
0.000199535
-0.0020991
-0.000220667
0.000309244
0.000572902
0.000108098
-0.000101135
0.00349618
-8.30042e-06
0.00562378
0.000237278
-0.000134853
0.000108856
-0.00168507
0.000242751
0.00117421
-0.000592059
-2.6899e-05
-0.00334316
-0.000100272
-8.18052e-05
0.000894652
-0.000459103
0.000165533
-0.000101528
0.000494185
7.9895e-05
0.00016918
-0.000449266
0.000511067
2.12186e-05
-0.000415988
8.69918e-05
-6.16111e-05
0.00148412
-5.29298e-05
-0.000289235
-0.000150163
-1.82421e-05
0.000440231
-0.000291351
0.000652824
-3.16038e-05
0.000360456
0.000108706
0.000135999
-0.000303141
-7.00985e-05
0.000197864
-0.00027475
-4.11146e-05
-4.82455e-05
-1.74034e-05
-0.000180021
1.91783e-06
4.91457e-05
-0.000300123
-0.000105697
-6.23748e-05
1.2021e-05
-7.91179e-05
1.09083e-05
-3.18242e-05
-5.49227e-06
5.84362e-05
8.64853e-05
0.000919263
0.000120636
1.2345e-06
0.000372468
-5.97704e-05
0.000138381
0.00525894
-8.05684e-05
-0.00103733
0.00451135
0.000191586
-0.000167317
-0.000340976
1.53551e-05
8.94334e-05
0.000875495
-0.00101137
0.000385759
0.000103054
-4.72775e-05
3.79147e-05
0.000237989
-7.08654e-06
0.00528736
-5.68575e-05
0.000180692
-4.46058e-05
3.12586e-07
8.14488e-05
0.000120337
0.000346848
0.000199503
-0.000218196
-0.00039689
3.24633e-05
-0.000365472
-0.000103204
-4.63018e-06
0.000330255
0.000460608
-5.94156e-05
3.15218e-05
0.000109529
5.9137e-05
0.000110426
0.000473205
-0.000306472
0.0011624
-0.000121602
-0.00074151
-6.65944e-05
-8.82036e-05
0.00358375
0.000212517
0.000123682
-0.00108715
0.000539489
-0.000109812
2.84911e-05
-2.35795e-05
3.72403e-05
0.000725123
1.80386e-05
7.21613e-05
0.000109042
-0.000154949
-0.000114687
0.000192058
-0.0010898
-0.000416824
9.26932e-06
7.63844e-05
4.16134e-05
0.000320969
-0.00119809
-4.60798e-05
-2.91869e-05
4.40046e-06
-1.67243e-05
-7.54203e-05
0.000317401
-1.01096e-05
2.84423e-05
-7.61501e-05
-2.01147e-05
-4.47459e-05
5.87848e-05
-4.55152e-05
-0.00011292
-4.46102e-05
2.1944e-05
0.000298521
0.00248322
0.00015735
6.33153e-07
0.000123761
-1.9302e-05
0.00020275
0.000627359
-0.000373781
-0.000372635
-7.98588e-05
-3.50124e-05
-7.01142e-05
0.000456926
-0.00103364
-1.90305e-06
-6.14726e-05
4.69098e-05
-0.000251912
-3.50565e-05
0.000282162
-3.29326e-05
0.000179455
-5.0841e-05
-4.87775e-05
1.77769e-05
-0.000359616
-5.94551e-05
0.000560189
0.000730695
7.50139e-05
-5.0421e-05
0.000615638
-0.000440437
-0.000525849
-1.34794e-05
-0.000377357
-3.97523e-06
-0.000513252
-0.00178098
8.15894e-05
0.00549981
-0.000269429
0.000121293
0.000143133
-7.2148e-06
-9.84484e-05
9.81153e-05
1.11073e-05
0.000122992
6.92762e-05
0.000209764
-0.000135274
0.000451695
-9.75268e-05
0.000530632
0.000484375
-0.000182679
-1.18417e-06
-4.99259e-05
3.89012e-05
2.1551e-05
0.000702059
-0.00023211
-0.000265741
-0.00042428
6.68763e-05
6.93878e-05
3.07885e-05
-3.76531e-07
-7.49261e-05
-5.48893e-05
2.09458e-05
1.34037e-07
2.35058e-05
4.75119e-05
-6.58993e-05
1.48728e-05
3.31732e-05
-0.000188558
-4.71225e-05
-8.9667e-05
-0.000152275
0.000152608
0.00118536
0.00123198
0.000288476
0.000131505
-0.00056345
0.000165726
1.632e-05
0.000155104
2.88075e-05
6.82003e-05
4.59685e-06
-1.11862e-06
-1.29346e-05
7.46551e-05
5.42541e-05
-0.000117932
-0.000370059
-0.000385995
0.000528472
0.000304842
0.000568546
0.000317875
-0.000818328
0.000377473
1.82962e-05
0.000350318
-0.000350459
0.000584287
-0.00011049
-0.000138406
0.000383377
7.63533e-05
6.69185e-05
0.000397192
0.000359508
0.000501633
-9.25414e-05
-0.00011487
-9.59192e-05
3.21301e-05
3.47976e-05
-9.38117e-06
8.91216e-07
2.74066e-07
-0.000475844
-0.000267197
0.000122238
-5.61939e-05
0.000566605
-4.81136e-05
0.000161622
-6.93874e-05
0.000105265
6.79036e-05
0.000609197
-0.000122437
0.000555704
1.13666e-05
-0.000733509
0.000656335
-0.000318
0.000181922
8.59024e-05
-0.000345574
0.00457547
0.000729297
0.00422903
0.00142576
-5.67772e-06
4.13329e-06
8.4861e-05
0.000102882
6.91407e-05
-4.19704e-05
-8.57458e-05
-4.24415e-05
4.89497e-05
-0.000120544
2.04014e-06
-0.000107272
-4.11049e-05
0.000153114
0.000153205
-3.86963e-06
3.84213e-05
-0.00223528
-0.000223512
0.000245156
-0.000324727
6.18892e-05
-5.42223e-06
0.000127298
0.000880241
1.30087e-05
-6.77822e-05
-0.000204103
-0.000129955
0.000186044
0.000315039
9.21175e-05
0.000207375
0.000700337
0.000141091
0.000111715
3.83432e-05
-4.33928e-05
-2.16461e-05
-0.00026761
-0.00039232
-0.00015825
2.2329e-06
-2.68158e-05
2.74167e-06
2.15603e-05
1.60171e-06
1.9733e-05
0.000188205
0.000129852
0.000101807
2.97881e-05
0.000443755
-1.31241e-05
1.45045e-05
-0.000113868
0.000444513
-0.000601042
1.11273e-06
2.37421e-05
0.000240327
0.000249006
1.18337e-05
0.000261478
5.31992e-06
5.47753e-06
-1.37e-05
-0.000136045
-1.76566e-05
-1.51612e-05
0.000342474
6.25499e-05
-0.000458566
-3.19645e-05
6.31648e-05
-4.45016e-05
-0.00016078
0.00019184
0.000104266
-4.83721e-05
-1.67976e-05
1.95736e-05
-0.000373135
-9.72322e-05
2.1587e-05
0.000647843
-0.000270921
-0.000154248
0.000123161
0.000140429
5.19909e-06
-4.74552e-07
0.000111441
2.90235e-05
0.000253374
0.000435999
-0.000125297
-0.000123712
-0.000186452
-0.000769809
0.000102033
-3.63185e-05
3.77886e-05
6.00437e-05
0.00073976
-8.10344e-05
-6.33005e-05
3.09764e-05
-0.000371457
0.00153955
-5.30755e-05
0.00163953
-5.88631e-05
-0.000349995
-0.000244999
-1.67396e-05
-5.24973e-05
-0.00115814
-0.000598249
-0.0022936
8.3568e-05
0.000190444
-5.08151e-05
-3.05348e-05
-0.000120119
2.70931e-05
-0.000246614
-4.34565e-05
2.86786e-05
0.000154347
0.000126766
0.000151582
0.000112898
4.48502e-05
-2.04093e-07
-0.000247051
0.00316192
-0.000807264
-0.000374506
-0.000488705
3.34577e-05
0.00142698
0.00071308
-0.000460872
5.35269e-05
-5.09132e-05
-0.000165044
2.86262e-05
0.000531833
0.000235116
0.000162369
8.66206e-05
-0.000156674
0.000424442
-6.84029e-06
-0.000590442
-0.000210442
3.35337e-05
-0.000319452
-0.000508914
0.000236086
-6.88511e-05
0.000244047
-5.80905e-06
-0.000117278
0.000156616
0.000481923
0.00149092
-8.1141e-05
0.00022437
-0.000373004
-7.86812e-06
1.35054e-05
2.93197e-05
-5.18273e-06
-0.000153578
-0.000203161
3.89778e-05
0.000309558
0.00025562
0.000269066
1.64615e-05
-2.07857e-05
-3.1822e-07
0.000284986
-0.000276954
0.000237218
-0.000340005
0.000132172
0.000513371
-0.00014672
2.26035e-05
-5.73678e-05
-1.35654e-05
-0.00067739
-6.7039e-05
-0.000715247
-0.000635004
-0.000705354
-0.000126167
-0.000207978
-6.27213e-05
3.91249e-05
2.65042e-05
1.84319e-05
0.000295732
0.000228571
-0.00208235
0.000204514
-2.80571e-05
4.60045e-05
3.93615e-05
1.0053e-05
-1.2975e-05
-3.48681e-05
-3.03332e-05
2.12901e-05
7.2603e-05
4.01563e-05
0.000143042
3.19952e-05
-1.86754e-05
0.000163612
0.00014197
-0.000118228
-0.000195432
0.000158532
-3.82605e-05
-0.000136512
-2.08596e-05
-0.000196867
-4.10117e-05
-4.20238e-06
0.000310621
0.000271912
0.000738454
0.000687267
0.000167733
0.00440802
-0.00293731
-0.00161169
0.0016883
-0.00197369
-0.000690892
0.000149486
-0.00040371
0.00105163
0.00161713
-0.00029926
1.49636e-05
-0.000176558
-1.14792e-05
-6.18111e-05
5.65183e-05
0.000849575
0.000243477
1.04996e-05
-0.00034943
-0.000210959
-0.000716603
0.00028571
2.0203e-05
2.10453e-05
-0.000245114
7.88186e-06
1.28509e-05
0.000139512
-6.32668e-05
-0.000389913
0.000263891
9.39911e-05
-0.000250866
0.0001699
-0.00243725
-0.000528741
0.000369432
0.000575721
-0.000298223
0.00047432
-0.000314529
0.00034738
0.000126754
1.60441e-05
0.000193876
0.000240318
-3.30361e-05
0.000810232
-8.79055e-05
-0.000129625
-1.8953e-05
-3.73558e-05
-0.000203032
9.9201e-06
-0.000149521
-0.000259311
0.000186785
-0.000179494
6.13104e-06
-0.00144774
-0.000558321
0.00014812
0.000149263
-0.00135572
-1.2603e-06
0.000131904
0.000177852
-0.0435761
0.000211181
0.00171562
0.000701606
0.00122263
-8.21158e-05
0.00014292
-0.000410507
0.000232284
0.000281322
-0.000175293
0.000144773
0.000342743
0.000299292
-0.000263733
0.000265691
7.2558e-05
-0.0010355
0.00112033
-0.000270447
6.96824e-07
-0.000421646
-0.000149522
0.000189031
0.000431794
0.000481041
2.09321e-05
3.9384e-06
1.28616e-05
-1.24031e-05
6.80553e-06
-4.691e-05
-6.74522e-05
-1.38634e-05
-1.58634e-05
-6.91359e-06
1.52438e-05
1.96695e-05
-1.05002e-06
-2.24964e-05
5.44717e-05
-0.000113511
-0.000109034
0.000130654
0.000315879
0.000431303
7.39921e-05
0.000150515
5.70537e-05
-4.36068e-06
-0.000216858
0.00100051
-4.68819e-05
-0.000288746
0.00172024
0.00100192
0.000373311
0.0012478
-0.000740845
-8.20213e-05
7.05451e-05
-3.3686e-05
-5.02826e-05
-4.27403e-05
0.00286072
0.000524325
1.50219e-05
-6.53324e-05
3.91435e-05
2.82584e-05
6.91044e-06
6.58165e-06
0.00186272
-0.000180888
-0.00063381
-0.000590275
-0.000814987
0.000101867
-1.04861e-05
-3.12431e-06
0.000430191
5.644e-05
2.08216e-05
-4.92446e-05
0.000327097
-4.62665e-05
-0.000424147
-0.000315049
-0.000240184
-4.55641e-05
0.000287853
0.000267924
4.05213e-05
-1.79932e-05
0.000480506
-0.00122635
-4.32375e-05
-0.000110915
0.000540724