# vtk DataFile Version 2.0
Unstructured Grid by M++
ASCII
DATASET UNSTRUCTURED_GRID
POINTS 4072 float
  0.875000   1.000000 0
  0.875000   0.984375 0
  0.875000   0.968750 0
  0.875000   0.953125 0
  0.875000   0.937500 0
  0.875000   0.921875 0
  0.875000   0.906250 0
  0.875000   0.890625 0
  0.875000   0.875000 0
  0.875000   0.859375 0
  0.875000   0.843750 0
  0.875000   0.828125 0
  0.875000   0.812500 0
  0.875000   0.796875 0
  0.875000   0.781250 0
  0.875000   0.765625 0
  0.859375   1.000000 0
  0.859375   0.984375 0
  0.859375   0.968750 0
  0.859375   0.953125 0
  0.859375   0.937500 0
  0.859375   0.921875 0
  0.859375   0.890625 0
  0.859375   0.875000 0
  0.859375   0.859375 0
  0.859375   0.843750 0
  0.859375   0.828125 0
  0.859375   0.812500 0
  0.859375   0.796875 0
  0.859375   0.781250 0
  0.859375   0.765625 0
  0.859375   0.671875 0
  0.859375   0.656250 0
  0.859375   0.640625 0
  0.843750   1.000000 0
  0.843750   0.984375 0
  0.843750   0.968750 0
  0.843750   0.953125 0
  0.843750   0.937500 0
  0.843750   0.921875 0
  0.843750   0.906250 0
  0.843750   0.875000 0
  0.843750   0.859375 0
  0.843750   0.843750 0
  0.843750   0.828125 0
  0.843750   0.812500 0
  0.843750   0.796875 0
  0.843750   0.781250 0
  0.843750   0.765625 0
  0.843750   0.671875 0
  0.843750   0.656250 0
  0.843750   0.640625 0
  0.828125   1.000000 0
  0.828125   0.984375 0
  0.828125   0.968750 0
  0.828125   0.953125 0
  0.828125   0.937500 0
  0.828125   0.921875 0
  0.875000   0.671875 0
  0.812500   0.921875 0
  0.890625   0.656250 0
  0.828125   0.906250 0
  0.875000   0.656250 0
  0.812500   0.906250 0
  0.890625   0.640625 0
  0.828125   0.890625 0
  0.875000   0.640625 0
  0.812500   0.890625 0
  0.890625   0.625000 0
  0.828125   0.875000 0
  0.890625   0.609375 0
  0.828125   0.859375 0
  0.890625   0.593750 0
  0.828125   0.843750 0
  0.890625   0.578125 0
  0.828125   0.828125 0
  0.890625   0.562500 0
  0.828125   0.812500 0
  0.828125   0.796875 0
  0.828125   0.781250 0
  0.828125   0.765625 0
  0.828125   0.671875 0
  0.828125   0.656250 0
  0.828125   0.640625 0
  0.875000   0.750000 0
  0.812500   1.000000 0
  0.875000   0.625000 0
  0.812500   0.875000 0
  0.875000   0.734375 0
  0.812500   0.984375 0
  0.875000   0.718750 0
  0.812500   0.968750 0
  0.875000   0.703125 0
  0.812500   0.953125 0
  0.875000   0.687500 0
  0.812500   0.937500 0
  0.875000   0.609375 0
  0.812500   0.859375 0
  0.875000   0.593750 0
  0.812500   0.843750 0
  0.875000   0.578125 0
  0.812500   0.828125 0
  0.812500   0.812500 0
  0.875000   0.546875 0
  0.812500   0.796875 0
  0.812500   0.781250 0
  0.812500   0.765625 0
  0.859375   0.750000 0
  0.796875   1.000000 0
  0.859375   0.625000 0
  0.796875   0.875000 0
  0.859375   0.734375 0
  0.796875   0.984375 0
  0.859375   0.718750 0
  0.796875   0.968750 0
  0.859375   0.703125 0
  0.796875   0.953125 0
  0.859375   0.687500 0
  0.796875   0.937500 0
  0.859375   0.609375 0
  0.796875   0.859375 0
  0.859375   0.593750 0
  0.796875   0.843750 0
  0.859375   0.578125 0
  0.796875   0.828125 0
  0.859375   0.562500 0
  0.796875   0.812500 0
  0.796875   0.796875 0
  0.859375   0.531250 0
  0.796875   0.781250 0
  0.796875   0.765625 0
  0.843750   0.750000 0
  0.781250   1.000000 0
  0.843750   0.625000 0
  0.781250   0.875000 0
  0.843750   0.734375 0
  0.781250   0.984375 0
  0.843750   0.718750 0
  0.781250   0.968750 0
  0.843750   0.703125 0
  0.781250   0.953125 0
  0.843750   0.687500 0
  0.781250   0.937500 0
  0.843750   0.609375 0
  0.781250   0.859375 0
  0.843750   0.593750 0
  0.781250   0.843750 0
  0.843750   0.578125 0
  0.781250   0.828125 0
  0.781250   0.812500 0
  0.843750   0.546875 0
  0.781250   0.796875 0
  0.781250   0.781250 0
  0.843750   0.515625 0
  0.781250   0.765625 0
  0.828125   0.750000 0
  0.765625   1.000000 0
  0.828125   0.625000 0
  0.765625   0.875000 0
  0.828125   0.734375 0
  0.765625   0.984375 0
  0.828125   0.718750 0
  0.765625   0.968750 0
  0.828125   0.703125 0
  0.765625   0.953125 0
  0.828125   0.687500 0
  0.765625   0.937500 0
  0.828125   0.609375 0
  0.765625   0.859375 0
  0.828125   0.593750 0
  0.765625   0.843750 0
  0.828125   0.578125 0
  0.765625   0.828125 0
  0.828125   0.562500 0
  0.765625   0.812500 0
  0.765625   0.796875 0
  0.828125   0.531250 0
  0.765625   0.781250 0
  0.765625   0.765625 0
  0.812500   0.750000 0
  0.750000   1.000000 0
  0.953125   1.000000 0
  0.812500   0.734375 0
  0.750000   0.984375 0
  0.812500   0.718750 0
  0.750000   0.968750 0
  0.812500   0.703125 0
  0.750000   0.953125 0
  0.812500   0.687500 0
  0.750000   0.937500 0
  0.812500   0.671875 0
  0.750000   0.921875 0
  0.812500   0.656250 0
  0.750000   0.906250 0
  0.812500   0.640625 0
  0.750000   0.890625 0
  0.812500   0.625000 0
  0.750000   0.875000 0
  0.812500   0.609375 0
  0.750000   0.859375 0
  0.812500   0.593750 0
  0.750000   0.843750 0
  0.812500   0.578125 0
  0.750000   0.828125 0
  0.750000   0.812500 0
  0.812500   0.546875 0
  0.750000   0.796875 0
  0.750000   0.781250 0
  0.812500   0.515625 0
  0.750000   0.765625 0
  0.796875   0.750000 0
  0.734375   1.000000 0
  0.796875   0.734375 0
  0.734375   0.984375 0
  0.796875   0.718750 0
  0.734375   0.968750 0
  0.796875   0.703125 0
  0.734375   0.953125 0
  0.796875   0.687500 0
  0.734375   0.937500 0
  0.796875   0.671875 0
  0.734375   0.921875 0
  0.796875   0.656250 0
  0.734375   0.906250 0
  0.796875   0.640625 0
  0.734375   0.890625 0
  0.796875   0.625000 0
  0.734375   0.875000 0
  0.796875   0.609375 0
  0.734375   0.859375 0
  0.796875   0.593750 0
  0.734375   0.843750 0
  0.796875   0.578125 0
  0.734375   0.828125 0
  0.734375   0.812500 0
  0.734375   0.796875 0
  0.796875   0.531250 0
  0.734375   0.781250 0
  0.734375   0.765625 0
  0.781250   0.750000 0
  0.718750   1.000000 0
  0.921875   1.000000 0
  0.781250   0.734375 0
  0.718750   0.984375 0
  0.781250   0.718750 0
  0.718750   0.968750 0
  0.781250   0.703125 0
  0.718750   0.953125 0
  0.859375   0.906250 0
  0.781250   0.687500 0
  0.718750   0.937500 0
  0.781250   0.671875 0
  0.718750   0.921875 0
  0.781250   0.656250 0
  0.718750   0.906250 0
  0.781250   0.640625 0
  0.718750   0.890625 0
  0.781250   0.625000 0
  0.718750   0.875000 0
  0.781250   0.609375 0
  0.718750   0.859375 0
  0.781250   0.593750 0
  0.718750   0.843750 0
  0.781250   0.578125 0
  0.718750   0.828125 0
  0.781250   0.562500 0
  0.718750   0.812500 0
  0.781250   0.546875 0
  0.718750   0.796875 0
  0.781250   0.531250 0
  0.718750   0.781250 0
  0.781250   0.515625 0
  0.718750   0.765625 0
  0.765625   0.750000 0
  0.703125   1.000000 0
  0.765625   0.734375 0
  0.703125   0.984375 0
  0.765625   0.718750 0
  0.703125   0.968750 0
  0.765625   0.703125 0
  0.703125   0.953125 0
  0.765625   0.687500 0
  0.703125   0.937500 0
  0.843750   0.890625 0
  0.703125   0.921875 0
  0.765625   0.656250 0
  0.703125   0.906250 0
  0.765625   0.640625 0
  0.703125   0.890625 0
  0.765625   0.625000 0
  0.703125   0.875000 0
  0.765625   0.609375 0
  0.703125   0.859375 0
  0.765625   0.593750 0
  0.703125   0.843750 0
  0.765625   0.578125 0
  0.703125   0.828125 0
  0.765625   0.562500 0
  0.703125   0.812500 0
  0.765625   0.546875 0
  0.703125   0.796875 0
  0.765625   0.531250 0
  0.703125   0.781250 0
  0.765625   0.515625 0
  0.703125   0.765625 0
  0.750000   0.750000 0
  0.687500   1.000000 0
  0.890625   1.000000 0
  0.750000   0.734375 0
  0.687500   0.984375 0
  0.750000   0.718750 0
  0.687500   0.968750 0
  0.578125   0.796875 0
  0.578125   0.781250 0
  0.578125   0.765625 0
  0.546875   0.953125 0
  0.546875   0.968750 0
  0.546875   0.718750 0
  0.546875   0.687500 0
  0.250000   0.609375 0
  0.937500   0.031250 0
  0.046875   0.703125 0
  0.734375   0.062500 0
  0.734375   0.078125 0
  0.734375   0.046875 0
  0.046875   0.593750 0
  0.046875   0.562500 0
  0.046875   0.531250 0
  0.718750   0.156250 0
  0.046875   0.609375 0
  0.734375   0.031250 0
  0.062500   0.609375 0
  0.234375   0.703125 0
  0.718750   0.125000 0
  0.046875   0.578125 0
  0.734375   0.000000 0
  0.062500   0.578125 0
  0.000000   0.828125 0
  0.234375   0.671875 0
  0.234375   0.625000 0
  0.718750   0.093750 0
  0.687500   0.156250 0
  0.062500   0.546875 0
  0.000000   0.796875 0
  0.718750   0.046875 0
  0.031250   0.687500 0
  0.687500   0.171875 0
  0.500000   1.000000 0
  0.078125   0.218750 0
  0.234375   0.593750 0
  0.718750   0.062500 0
  0.687500   0.125000 0
  0.000000   0.765625 0
  0.421875   0.500000 0
  0.031250   0.593750 0
  0.718750   0.015625 0
  0.687500   0.234375 0
  0.015625   0.812500 0
  0.703125   0.171875 0
  0.703125   0.187500 0
  0.703125   0.140625 0
  0.015625   0.781250 0
  0.437500   0.515625 0
  0.500000   0.796875 0
  0.078125   0.015625 0
  0.687500   0.203125 0
  0.250000   0.578125 0
  0.703125   0.109375 0
  0.000000   0.515625 0
  0.500000   0.765625 0
  0.062500   0.593750 0
  0.750000   0.015625 0
  0.015625   0.843750 0
  0.687500   0.000000 0
  0.500000   0.828125 0
  0.078125   0.046875 0
  0.015625   0.531250 0
  0.250000   0.546875 0
  0.703125   0.078125 0
  0.703125   0.031250 0
  0.015625   0.671875 0
  0.250000   0.515625 0
  0.000000   0.656250 0
  0.500000   0.906250 0
  0.078125   0.125000 0
  0.687500   0.015625 0
  0.031250   0.546875 0
  0.687500   0.031250 0
  0.500000   0.859375 0
  0.703125   0.000000 0
  0.703125   0.046875 0
  0.703125   0.015625 0
  0.500000   0.937500 0
  0.234375   0.531250 0
  0.031250   0.578125 0
  0.687500   0.062500 0
  0.500000   0.890625 0
  0.031250   0.796875 0
  0.453125   0.531250 0
  0.500000   0.968750 0
  0.078125   0.187500 0
  0.234375   0.562500 0
  0.031250   0.609375 0
  0.718750   0.031250 0
  0.687500   0.093750 0
  0.750000   0.046875 0
  0.000000   0.937500 0
  0.421875   0.671875 0
  0.718750   0.187500 0
  0.031250   0.828125 0
  0.765625   0.062500 0
  0.015625   0.953125 0
[...]
CELL_DATA 7648
SCALARS scalar_value float 1
LOOKUP_TABLE default
0.000824021
0.000101803
0.00309699
0.000896229
0.00023461
0.000154194
3.69843e-05
-0.000241608
-1.2249e-05
-0.000879099
-0.000152005
0.00239805
-0.000137151
-0.000675778
-0.000648804
0.000130808
0.000172817
-0.000336897
0.000501896
6.25209e-05
-0.000117558
0.000579024
9.22247e-05
-1.28167e-05
6.36968e-05
0.000117664
0.000604899
-0.000379223
0.000318065
8.87035e-06
-0.000641473
-0.000571725
-0.000519398
-5.91927e-05
-5.78835e-05
-8.56955e-05
-2.54145e-05
1.98629e-05
-0.000232885
2.00093e-05
-2.22456e-05
0.000116163
-7.09316e-05
-4.42044e-05
-5.24922e-05
-0.000179613
-8.33344e-05
-0.000398816
-2.0892e-05
6.18698e-07
2.12554e-05
-2.29408e-05
0.000533588
0.00120671
-0.000169731
-0.000163126
-0.000304226
0.000449467
-0.000480097
-3.56064e-05
2.35586e-06
-0.000343297
-1.16083e-05
-0.000293887
5.6552e-05
-0.00022618
-0.000398356
0.00139603
6.42708e-05
-4.60054e-05
-5.04145e-05
5.184e-05
0.000104411
8.73551e-05
-0.000238368
0.000151305
0.000357794
0.000425139
0.000432945
0.000230677
-1.07815e-05
-6.76359e-05
-0.000453622
-0.000171313
9.59582e-05
-5.14406e-06
0.00307094
0.000666191
-0.000206256
-0.000215544
-0.00110303
-0.000127877
-0.000244345
8.39636e-05
9.19708e-06
-0.00020554
0.000114282
-4.9658e-05
-0.000160269
-0.000539688
0.00111936
7.72954e-05
8.03436e-05
8.39323e-06
-0.000265855
-0.0016925
2.71736e-05
0.000129723
-2.13683e-06
0.00011655
-6.84484e-05
5.19444e-05
0.00054637
-0.00052642
-0.000290326
0.000202834
0.000232902
0.00276207
0.00260342
8.97639e-05
0.00377465
1.53062e-05
-0.000425705
-8.19727e-05
0.00012977
9.875e-05
6.08671e-05
-9.76777e-05
0.000161052
0.000113267
-7.40403e-05
-7.90337e-05
-0.00310934
1.92043e-05
-0.000101142
-0.000112546
0.000441934
0.000177819
0.000343129
0.000160219
-0.000231166
-2.15932e-06
-6.9055e-05
-2.08965e-05
0.000112932
1.06512e-05
-2.22048e-05
-4.67121e-05
-1.79746e-05
-0.000270769
-6.81881e-07
-6.85308e-05
3.29851e-05
-0.000380049
3.86658e-05
-0.0011621
-0.000376995
-0.000212892
-0.00147072
0.000171852
-0.000314542
-0.00116698
-0.000196059
-1.44412e-05
0.000280007
0.000143333
0.000757243
-0.000150727
-0.000182235
0.000135513
6.80548e-05
-0.000349387
5.53791e-05
0.000102569
-0.0012552
-1.67419e-05
-5.6481e-05
4.23958e-05
-1.02249e-05
-6.56589e-05
-3.46177e-06
-1.81641e-05
9.16308e-05
-0.000141339
-7.11576e-05
0.000147791
-0.000206493
0.000783536
-1.56583e-05
6.34245e-05
0.000246913
-0.00033641
-1.87897e-06
-1.62942e-05
-1.30904e-05
-2.17699e-05
-0.000102518
0.000104548
3.45359e-05
0.000856209
0.000219443
-0.000389754
0.000109417
-4.85736e-05
-2.72772e-05
-2.2501e-05
-2.43489e-05
7.41597e-05
-0.000229125
-5.34795e-05
-6.37403e-05
-0.00027939
4.29102e-06
0.000571243
-1.10942e-05
0.000203465
0.000138391
8.77503e-05
0.000191532
-0.000233767
1.45347e-05
7.42931e-05
-0.000238884
-0.000211464
-4.95578e-05
0.000593256
3.32066e-05
5.78347e-05
1.25271e-06
0.000147404
-0.000294485
-0.00039256
0.000291248
6.35056e-05
-7.54879e-05
3.60711e-06
3.3345e-05
1.28206e-05
-9.07847e-06
-0.000678505
8.18059e-05
-0.000778455
0.000229711
-0.000365343
0.000612861
3.43262e-05
7.69741e-05
5.97039e-05
-0.000177519
-0.000111177
0.000379585
-9.38294e-05
-0.000188587
-8.40591e-05
-4.68984e-05
-4.73033e-05
3.92088e-05
0.000197575
-0.000139191
-6.26001e-06
0.00163714
0.00071406
-0.000154488
-0.000250286
-0.000151182
0.000513045
-7.67695e-05
-0.000558948
-0.000108467
0.00105513
-0.000366775
-5.07178e-05
3.44306e-05
0.000422554
-0.000468466
-6.09912e-06
0.00126812
-1.32722e-05
0.000151895
-8.41246e-05
0.000221252
0.000257366
6.79773e-05
0.000386601
-0.000292285
-0.000246622
-3.40191e-06
-0.000167426
8.35708e-05
-0.000170043
-0.000436847
0.000382577
0.000830793
4.56383e-05
-9.51967e-05
-6.59151e-05
-0.000113064
-0.000517703
7.0786e-05
-0.000147735
-4.80911e-05
-4.12128e-05
-4.68492e-06
-0.000440424
-6.86592e-05
-0.000633141
7.75768e-05
2.19364e-05
-0.000586093
-0.000578323
2.33972e-05
6.97651e-06
0.000391757
0.000118569
0.000223558
0.000275845
0.000296642
0.000104118
0.000196946
0.000464521
5.22849e-05
-5.17582e-05
0.00014647
2.31743e-05
-2.64122e-05
-1.7923e-05
-7.3072e-05
-1.63313e-05
-5.03417e-05
-2.02402e-05
-4.17278e-05
8.51639e-05
-5.52725e-05
5.85459e-05
0.000168313
-2.41228e-05
-2.53779e-05
6.1298e-05
-7.60646e-05
4.7649e-05
8.80973e-05
-0.000168107
0.000101876
7.83773e-05
9.69336e-05
-0.000347932
0.000155631
-0.000154001
-2.77842e-05
5.44508e-06
-0.000397173
-0.00044766
0.000231354
-2.79466e-05
-0.000451956
8.17828e-05
0.000215819
-0.000254078
-3.6182e-05
7.98594e-05
-0.000378267
-8.55112e-05
-0.000372946
3.68384e-05
8.60219e-06
6.92433e-05
0.000389669
0.000375598
-8.36128e-05
2.14841e-05
0.000290598
6.54021e-05
0.000105703
0.000221688
-0.000310023
0.00021955
-9.62341e-05
0.000239711
0.000410439
-6.98425e-05
-0.000821948
-0.000401061
-0.000296504
0.00029521
0.000282063
-0.000260061
-9.49371e-06
-3.68886e-05
-0.000638286
-0.000110599
-0.000546207
-3.09721e-05
2.49288e-05
-0.000605701
0.000291894
-2.57206e-05
0.00046286
0.000216793
-0.000935857
7.88054e-05
-9.00839e-05
-0.000310173
-1.52737e-05
1.68707e-07
-3.48758e-05
1.69795e-05
0.000166106
-0.000135984
0.000239664
-2.54641e-05
0.00277994
0.000684257
6.96032e-05
0.000337929
0.000193479
0.00166033
0.000956267
7.07158e-06
-3.94821e-06
-7.20435e-05
-0.000393511
-0.0010244
-0.000175359
-0.000135777
0.00473603
3.47328e-05
-2.20972e-05
0.000628672
-0.000186551
0.00395937
-0.00174078
-0.000497811
1.33228e-05
-8.79005e-05
0.000104582
-0.000306117
3.45265e-05
6.7631e-05
0.000327754
5.71282e-05
0.00042173
-0.000119228
0.00025123
0.000322853
8.56752e-05
-1.57013e-05
0.000126137
0.000133344
5.1929e-05
-0.000317454
-8.98143e-06
4.30956e-05
-2.22888e-05
0.000268024
8.63388e-05
-1.41876e-05
-0.000280255
0.000201629
0.000786721
0.000194245
-0.000146639
0.000168988
0.000140452
-0.000127846
0.000127064
8.95438e-05
0.000176084
0.000403356
4.0029e-05
-0.000299868
4.48746e-05
-0.000578188
-0.00020653
6.70743e-05
0.000820817
0.000611111
0.000398004
4.10835e-06
-1.53216e-05
8.73345e-06
1.59406e-06
0.00136952
-8.90821e-05
-0.000438616
0.000315079
-0.000270291
-6.9298e-06
1.84382e-05
1.93311e-05
-0.00034045
4.35901e-06
-3.11176e-05
3.23852e-05
-4.81465e-05
0.00731469
0.00155586
-7.36451e-05
1.71734e-05
2.94497e-05
0.000105149
-4.15433e-05
-1.96409e-06
9.96286e-06
-0.000200761
-1.04216e-05
-7.98024e-05
-0.00020362
-1.58924e-05
-3.47263e-05
-1.23383e-06
8.04431e-05
6.06489e-06
-5.26571e-06
0.00182921
0.000272356
0.000137238
9.97713e-05
-4.4279e-05
-0.000158997
0.000484006
0.00013781
0.000772235
6.64921e-05
0.000135955
5.20626e-05
-1.25558e-05
-0.000105621
4.81818e-05
-0.000251388
0.000163354
-0.000117983
6.99279e-06
-0.000279264
0.000329037
0.000264781
0.000105012
1.26156e-05
6.91069e-05
-0.00103165
-0.000277791
0.00071901
-2.61944e-06
4.5983e-05
-0.000103215
-0.000345287
0.000406865
0.000252314
0.000332344
-0.000223294
-0.000143367
-0.00012094
0.00024778
3.1737e-05
0.000390587
1.64587e-05
3.17973e-05
-1.08163e-05
0.000202172
0.000685626
0.000190812
0.000123088
-0.000284382
-0.000102553
0.000889412
0.000636949
5.16686e-05
-0.000218919
4.50174e-05
-0.000192502
-6.63038e-05
1.15782e-05
0.000180088
0.000407145
7.18288e-05
-0.000190739
0.000106874
0.00015143
7.47099e-05
-5.15683e-05
-4.5004e-05
-0.000663856
-0.000282981
-0.000427717
0.000191552
5.30447e-06
0.000499094
-0.000340191
0.000449246
-8.08097e-05
-4.13395e-06
2.974e-05
-0.000277702
-0.000265105
-0.00181416
3.22839e-05
4.61664e-05
-0.00032696
3.18582e-05
-0.000700451
0.000243762
-0.000261636
0.000141678
-0.00014503
8.29281e-06
-1.53948e-05
2.22013e-05
-0.000253734
-0.000260347
-0.000132195
-8.53285e-05
-5.57553e-05
1.88815e-05
6.35633e-05
0.000361684
0.000173253
0.00011383
7.1196e-05
-6.49268e-05
-0.000547435
-5.64964e-05
-0.000158844
0.000199841
-0.000180147
2.00182e-05
-0.000457054
-4.94628e-06
0.00060252
-0.000125414
-0.000137716
6.93503e-05
-3.00918e-05
0.000149069
6.02851e-05
3.57777e-07
0.000131744
4.92112e-05
0.000324363
-0.000834671
-0.0013861
7.65399e-05
-7.57003e-06
-0.000600023
1.43407e-05
-0.000294182
0.000122435
-6.21096e-05
-1.54475e-05
0.000340249
-0.00033054
4.20091e-06
-0.000702112
0.00148593
-7.80543e-05
-0.000116534
-6.31881e-05
-0.000146874
0.000714758
-3.43252e-05
8.98841e-05
0.000629407
5.15833e-05
-0.000100915
0.00516048
0.00179421
-0.000195113
-0.000263682
0.000991185
0.00553896
0.00015679
0.00109174
0.000287858
0.000524663
2.7125e-05
4.15925e-05
0.00113498
0.000207339
1.3785e-05
0.000284539
-0.000349203
-8.28744e-06
0.00202048
0.000172196
0.000276374
-2.67867e-05
-7.55044e-05
0.00109744
8.87725e-05
0.00105383
-4.45551e-05
2.497e-05
0.000247009
9.46222e-05
-0.000438634
0.00017944
-0.000109339
-0.000279926
3.59389e-05
5.10227e-05
-8.00172e-05
-2.72613e-05
0.000300104
1.31251e-05
0.000238359
-0.000191961
-0.000194632
0.000363043
0.00356716
3.282e-05
-3.17341e-05
0.00121339
0.000453922
0.0008035
0.000104513
-0.000188627
-2.14178e-05
-1.41574e-05
-0.000248194
-0.000376674
0.000546693
-3.47261e-06
0.00167124
0.00185845
-3.01468e-05
0.00221993
-5.50708e-05
1.1133e-06
6.77013e-05
0.00035504
0.000946554
0.000154808
0.000157773
-0.000131741
0.000102336
-6.28408e-05
9.66745e-05
7.04398e-05
5.78551e-05
3.18594e-05
-4.81648e-05
2.88366e-05
-0.000314898
0.000292654
5.48149e-05
-0.00023446
5.4504e-05
5.76266e-05
0.000381286
0.000249206
0.000221026
3.26424e-05
6.92633e-05
0.00255982
-4.40889e-05
2.27896e-05
-0.00153104
1.86058e-05
0.000118832
6.28746e-05
-0.000269034
-6.30317e-05
0.000317094
-2.86801e-05
5.00008e-05
0.000189827
-3.03992e-05
0.000196833
2.47407e-05
-6.17308e-05
-3.6305e-05
-3.08565e-06
4.14356e-05
3.68534e-06
0.000173512
0.00436978
-3.80088e-05
3.02879e-06
9.42703e-05
0.000749405
5.74681e-05
0.000418024
-7.56047e-05
-2.25338e-05
7.60515e-05
2.49084e-05
-6.03178e-06
0.00014957
3.76201e-05
-0.000422251
-0.000211662
-0.00493534
-9.63952e-05
5.47029e-05
0.00019096
0.000505532
0.000542757
0.00017858
0.00033199
0.000373665
0.000147542
-2.29217e-05
-0.000699844
0.000453024
1.33796e-05
-6.2204e-06
-3.76227e-05
9.80468e-05
-0.000364155
7.40912e-05
0.000815891
0.00205407
1.98335e-05
0.000292001
-7.34219e-05
4.68052e-05
-0.000180465
0.000826352
-0.000218918
-0.00210283
-8.63508e-05
0.00439069
0.00379623
-0.00227684
0.000414252
-0.00049423
0.00246464
0.00142773
0.000106839
0.00015206
-0.00253974
0.00145097
-5.91608e-05
0.000378613
0.000178871
-2.95767e-05
-0.000288559
0.000766938
0.000116498
0.000231446
4.95257e-05
0.00388303
0.00309376
-0.000175297
-0.00104377
-0.00425294
0.000638366
-2.06765e-05
0.000197542
0.000188142
-1.60587e-05
2.15388e-05
-3.65967e-05
-0.000835098
-4.81679e-05
0.000128802
-0.000248038
-0.000239296
-3.76695e-05
9.14067e-05
-6.00803e-05
5.36287e-05
-0.000217813
3.76227e-05
0.000139312
-6.01644e-05
0.000364798
-6.58679e-05
-0.000257069
-0.00011009
-0.000130055
0.000983657
0.000110015
0.000108123
-3.02575e-06
0.000195228
2.87152e-06
-0.000509219
-0.000172926
-0.000211229
-0.000562077
0.000573011
0.00111038
-0.000478195
-0.000177855
8.86744e-07
2.7815e-06
-0.000252261
0.00111048
0.0010711
0.000515992
-0.000376805
-0.000390449
0.000298147
9.41851e-06
-0.000269326
0.000342781
0.000463208
0.000211975
5.14082e-05
3.17097e-05
-0.000137812
0.000100194
-4.71354e-05
-0.000117729
-4.1737e-05
-3.87555e-05
-0.000248214
-0.000383562
-7.57279e-05
-7.36539e-05
0.000198326
-0.00212406
-0.000221604
0.000341615
0.00056005
9.27663e-05
-9.06978e-05
0.00354251
-1.11531e-05
0.00563415
0.00022621
-0.000121413
0.000121743
-0.00178612
0.000225805
0.000999181
-0.000635565
-1.98e-05
-0.00337688
-0.000104278
-8.64329e-05
0.000892643
-0.000471108
0.000166859
-0.000108574
0.000468879
8.30438e-05
0.000158168
-0.00047821
0.000563562
1.9671e-05
-0.000384089
9.17736e-05
-3.97153e-05
0.00158388
-5.65179e-05
-0.000298652
-0.000155038
-1.89261e-05
0.0004304
-0.000288341
0.000646695
-3.60076e-05
0.000348906
0.000108924
0.000143567
-0.00030766
-6.69616e-05
0.000217121
-0.000284975
-4.65024e-05
-5.09504e-05
-1.98418e-05
-0.000152523
-2.72411e-07
8.7728e-05
-0.00029123
-0.00010229
-6.16723e-05
1.14521e-05
-8.26042e-05
1.33013e-05
4.56671e-06
-9.02131e-07
5.65327e-05
9.26621e-05
0.000970418
0.000186125
4.07976e-06
0.000403066
-4.39983e-05
0.000137494
0.00536813
-8.29124e-05
-0.0012295
0.00471857
0.000208635
-0.000154399
-0.00036769
1.99842e-05
8.08893e-05
0.000952554
-0.000987506
0.000392321
0.000100174
-4.33026e-05
3.77403e-05
0.000236573
2.77885e-06
0.0053792
-5.48343e-05
6.22046e-05
-4.30165e-05
-4.76007e-07
8.38774e-05
0.000120444
0.000385822
0.000163991
-0.000246304
-0.000392305
1.55755e-05
-0.000367282
-0.000117831
8.16813e-06
0.000328731
0.000509807
2.74215e-05
3.72335e-05
0.000109523
6.13942e-05
0.000114407
0.000515479
-0.000290522
0.00118935
-0.000124088
-0.000756884
-7.11641e-05
-9.40546e-05
0.00337267
0.000207106
0.000123422
-0.00127962
0.000629134
-0.000115727
5.75656e-06
-2.59803e-05
4.05537e-05
0.00073388
2.10228e-05
8.10951e-05
9.3618e-05
-0.000156149
-0.00010438
0.000205753
-0.00113253
-0.000424057
9.58537e-06
7.14521e-05
5.67597e-05
0.000286755
-0.00124018
-3.22478e-05
-2.67618e-05
-8.62713e-06
-2.36677e-05
-7.54904e-05
0.000333935
-8.41117e-06
3.02154e-05
-7.51889e-05
-1.47991e-05
-4.77683e-05
6.73625e-05
-4.80312e-05
-0.000114382
-3.98903e-05
1.78044e-05
0.000280765
0.00261755
0.000134276
-8.59305e-07
0.000124553
-1.70092e-05
0.000204712
0.000651823
-0.000355938
-0.000337565
-6.30997e-05
-4.56059e-05
-8.84537e-05
0.000469947
-0.00104633
-6.80656e-06
-7.84968e-05
4.76927e-05
-0.00027198
-3.61297e-05
0.00029284
-3.67681e-05
0.000183325
-6.33227e-05
-6.23554e-05
-7.52239e-06
-0.000320084
-6.59565e-05
0.000600142
0.000749823
6.13685e-05
-5.68065e-05
0.000655952
-0.000419929
-0.000578768
-1.53849e-05
-0.000413701
-3.28e-06
-0.000518872
-0.00175894
8.64719e-05
0.00541442
-0.000276122
0.000122279
0.00013826
-3.12926e-06
-0.000107805
9.67353e-05
7.61085e-06
2.85319e-06
7.13074e-05
0.000217678
-0.000143696
0.000451804
-0.000132499
0.000542335
0.000485863
-0.000191048
-1.91426e-06
-4.9646e-05
4.69502e-05
2.18426e-05
0.000674317
-0.000229312
-0.000274563
-0.000420816
6.29965e-05
6.77563e-05
2.87565e-05
2.2677e-06
-7.72928e-05
-5.84467e-05
2.0987e-05
-1.26725e-06
2.70405e-05
4.62092e-05
-6.82499e-05
1.39012e-05
3.44658e-05
-0.000187262
-4.81939e-05
-9.80415e-05
-0.000158086
0.000160401
0.00121962
0.00128605
0.000335513
0.000128987
-0.000559681
0.000158296
2.38578e-05
0.000156324
2.93744e-05
6.69429e-05
6.82956e-06
1.94929e-05
-1.21098e-05
7.54893e-05
-1.26327e-05
-0.000118825
-0.000374481
-0.000391263
0.000540765
0.0003001
0.000636681
0.000422159
-0.000833152
0.000345056
9.56654e-05
0.000359254
-0.000376504
0.000584946
-0.000132444
-0.000135427
0.000403225
1.61593e-06
7.60934e-05
0.000400896
0.000353146
0.000509833
-9.66698e-05
-0.000121503
-9.86952e-05
3.09969e-05
3.61616e-05
-8.91206e-06
2.43705e-06
1.86539e-07
-0.00047165
-0.000260229
0.000130782
-6.59721e-05
0.000553068
-5.01887e-05
0.000155413
-6.51467e-05
0.00010199
6.49159e-05
0.00063597
-0.000144937
0.00057757
2.03903e-06
-0.000779721
0.000654847
-0.000338775
0.000184466
8.75764e-05
-0.0003503
0.00454149
0.000759745
0.00413525
0.00134001
-2.29968e-06
1.18732e-06
9.79789e-05
0.000107757
8.65184e-05
-3.21857e-05
-8.55368e-05
-4.45826e-05
4.75458e-05
-0.000105302
-1.00613e-05
-0.000100227
-2.04806e-05
0.000150617
0.000141088
-5.36444e-06
4.04717e-05
-0.00223516
-0.000226171
0.000251814
-0.000326867
5.66616e-05
-3.95833e-06
0.000125022
0.000865034
1.27456e-05
-6.65228e-05
-0.000203063
-0.000126622
0.000215367
0.000315642
9.03094e-05
0.000206144
0.0007489
0.00013844
0.000111264
3.39183e-05
-5.38278e-05
-1.74435e-05
-0.000269716
-0.000390828
-0.000142763
-3.37458e-07
-3.07242e-05
1.43609e-06
2.02783e-05
2.7272e-07
2.5319e-05
0.000205467
0.000143681
0.000117163
2.59167e-05
0.000418402
-1.50779e-05
2.54176e-05
-0.000135754
0.000432749
-0.000606373
-1.35987e-07
2.91394e-05
0.000208335
0.000235778
7.62006e-07
0.000271615
8.7089e-06
8.41805e-06
-1.28458e-05
-0.000122682
-1.71229e-05
-1.57077e-05
0.000350426
6.26446e-05
-0.000452207
-1.21954e-05
5.99348e-05
-4.06965e-05
-0.000164423
0.000203868
0.000101794
-4.62965e-05
-2.3405e-05
4.79197e-05
-0.0003599
-7.91612e-05
1.86718e-05
0.000645204
-0.000263574
-0.000132671
0.000127515
0.00014097
6.72006e-06
1.13244e-05
0.000107795
3.54367e-05
0.000272029
0.000439411
-0.000126834
-0.00011202
-0.0001967
-0.000780948
0.000103348
-3.63541e-05
4.20048e-05
6.52054e-05
0.000735959
-8.24331e-05
-5.50941e-05
3.11519e-05
-0.000362874
0.00148757
-9.55116e-05
0.00160507
-6.52514e-05
-0.000367665
-0.000247983
-1.45215e-05
-6.26721e-05
-0.0011372
-0.000630745
-0.00229728
8.06065e-05
0.000201094
-5.41702e-05
-3.79641e-05
-0.000134295
3.55549e-05
-0.000271933
-3.95554e-05
2.87388e-05
0.000146986
0.000142514
0.000140092
0.000111362
4.99869e-05
-1.35131e-07
-0.000202986
0.00335394
-0.000885766
-0.000529343
-0.000552985
1.28721e-05
0.00149316
0.000715661
-0.000482783
5.8054e-05
-5.07187e-05
-0.00015675
2.24715e-05
0.00055558
0.000223987
0.000155408
9.17867e-05
-0.000156043
0.000447456
-5.13756e-06
-0.000645685
-0.000254243
5.1209e-05
-0.000263155
-0.000549088
0.000240403
-5.5735e-05
0.000238805
-6.08923e-06
-0.000177636
0.000112002
0.000457895
0.00176621
-9.85623e-05
0.000218769
-0.000370148
-1.53182e-05
1.79711e-05
2.67263e-05
-1.81959e-06
-0.000189396
-0.000207954
3.27987e-05
0.000310806
0.00025746
0.000280869
1.33534e-05
-2.69854e-05
2.91637e-07
0.000312322
-0.00028346
0.000240156
-0.000350192
0.000140048
0.000537703
-0.000179197
-1.33863e-05
-6.16384e-05
-1.65249e-05
-0.000711375
-7.19698e-05
-0.000665843
-0.000647436
-0.00072248
-0.000139763
-0.000218572
-5.95913e-05
3.72154e-05
2.80474e-05
1.82359e-05
0.000288169
0.000197951
-0.00215076
0.000208262
-2.59087e-05
4.62965e-05
3.45706e-05
2.92333e-05
-7.46878e-06
-2.73504e-05
-3.09018e-05
2.23992e-05
6.84945e-05
4.75453e-05
0.000110209
2.92911e-05
-1.27511e-05
0.000157593
0.000134124
-4.73868e-05
-0.000175158
0.00015367
-5.07089e-05
-0.000138573
-1.97589e-05
-0.000212224
-4.80405e-05
-5.18342e-06
0.00030221
0.000311457
0.000756536
0.000691914
0.000184861
0.00439023
-0.00309045
-0.00182465
0.00180052
-0.00213091
-0.000767111
0.000138762
-0.000410058
0.00119764
0.00174101
-0.000433747
1.29554e-05
-0.000187663
-1.09406e-05
-6.20908e-05
5.88921e-05
0.000848438
0.000243842
9.12406e-06
-0.000309405
-0.000211768
-0.000726868
0.000285388
1.7446e-05
3.49731e-05
-0.000276814
2.06399e-06
1.5623e-05
0.000147481
-6.96064e-05
-0.00039634
0.000245561
9.49628e-05
-0.000255546
0.000177768
-0.00261186
-0.00058904
0.000648418
0.000570612
-0.000279529
0.000444137
-0.000353365
0.000307496
0.0001369
1.76304e-05
0.000178576
0.000232327
-5.97676e-06
0.000776452
-8.22793e-05
-0.000111998
-1.92411e-05
-2.86522e-05
-0.000200255
2.41459e-06
-0.000136383
-0.000272597
0.000191204
-0.000178199
2.03155e-06
-0.0014709
-0.000598026
0.000141624
0.000145731
-0.00135654
-8.02742e-06
0.000110564
0.000164806
-0.043502
0.000202516
0.00190933
0.000932806
0.00134989
-9.07965e-05
0.000148209
-0.000411242
0.000231009
0.000292757
-0.000171046
0.000289352
0.000346692
0.000367708
-0.000270689
0.000276448
8.07792e-05
-0.00127347
0.000966527
-0.000492971
1.50244e-06
-0.000472339
-0.000182589
0.000205097
0.000520039
0.00037946
2.08875e-05
4.126e-06
1.17551e-05
-1.10234e-05
6.69807e-06
-4.0072e-05
-6.83779e-05
-1.34033e-05
-1.65024e-05
-8.13899e-06
1.44369e-05
1.98851e-05
-2.86588e-07
-2.59636e-05
5.25484e-05
-0.000108937
-0.000102989
8.93203e-05
0.000320466
0.000405466
7.7597e-05
0.000149642
4.52621e-05
-3.04855e-06
-7.70868e-05
0.000935859
-1.35881e-05
-0.000209581
0.00177747
0.00110387
0.000484493
0.00132078
-0.000736137
-9.0597e-05
7.02148e-05
-2.89509e-05
-5.1782e-05
-4.37751e-05
0.00299331
0.000493272
4.46495e-05
-8.35567e-05
4.13182e-05
2.95612e-05
6.84256e-06
4.73609e-06
0.00182879
-0.000157359
-0.000651164
-0.000558613
-0.000851474
9.31948e-05
-1.10912e-05
-9.93734e-07
0.000414718
5.55538e-05
1.79102e-05
-5.1955e-05
0.000317714
-2.66868e-05
-0.000430098
-0.000296957
-0.00028256
-4.54086e-05
0.000278219
0.000277738
4.52692e-05
-2.48338e-05
0.000465033
-0.00122849
-4.38185e-05