# vtk DataFile Version 2.0
Unstructured Grid by M++
ASCII
DATASET UNSTRUCTURED_GRID
POINTS 4072 float
  0.875000   1.000000 0
  0.875000   0.984375 0
  0.875000   0.968750 0
  0.875000   0.953125 0
  0.875000   0.937500 0
  0.875000   0.921875 0
  0.875000   0.906250 0
  0.875000   0.890625 0
  0.875000   0.875000 0
  0.875000   0.859375 0
  0.875000   0.843750 0
  0.875000   0.828125 0
  0.875000   0.812500 0
  0.875000   0.796875 0
  0.875000   0.781250 0
  0.875000   0.765625 0
  0.859375   1.000000 0
  0.859375   0.984375 0
  0.859375   0.968750 0
  0.859375   0.953125 0
  0.859375   0.937500 0
  0.859375   0.921875 0
  0.859375   0.890625 0
  0.859375   0.875000 0
  0.859375   0.859375 0
  0.859375   0.843750 0
  0.859375   0.828125 0
  0.859375   0.812500 0
  0.859375   0.796875 0
  0.859375   0.781250 0
  0.859375   0.765625 0
  0.859375   0.671875 0
  0.859375   0.656250 0
  0.859375   0.640625 0
  0.843750   1.000000 0
  0.843750   0.984375 0
  0.843750   0.968750 0
  0.843750   0.953125 0
  0.843750   0.937500 0
  0.843750   0.921875 0
  0.843750   0.906250 0
  0.843750   0.875000 0
  0.843750   0.859375 0
  0.843750   0.843750 0
  0.843750   0.828125 0
  0.843750   0.812500 0
  0.843750   0.796875 0
  0.843750   0.781250 0
  0.843750   0.765625 0
  0.843750   0.671875 0
  0.843750   0.656250 0
  0.843750   0.640625 0
  0.828125   1.000000 0
  0.828125   0.984375 0
  0.828125   0.968750 0
  0.828125   0.953125 0
  0.828125   0.937500 0
  0.828125   0.921875 0
  0.875000   0.671875 0
  0.812500   0.921875 0
  0.890625   0.656250 0
  0.828125   0.906250 0
  0.875000   0.656250 0
  0.812500   0.906250 0
  0.890625   0.640625 0
  0.828125   0.890625 0
  0.875000   0.640625 0
  0.812500   0.890625 0
  0.890625   0.625000 0
  0.828125   0.875000 0
  0.890625   0.609375 0
  0.828125   0.859375 0
  0.890625   0.593750 0
  0.828125   0.843750 0
  0.890625   0.578125 0
  0.828125   0.828125 0
  0.890625   0.562500 0
  0.828125   0.812500 0
  0.828125   0.796875 0
  0.828125   0.781250 0
  0.828125   0.765625 0
  0.828125   0.671875 0
  0.828125   0.656250 0
  0.828125   0.640625 0
  0.875000   0.750000 0
  0.812500   1.000000 0
  0.875000   0.625000 0
  0.812500   0.875000 0
  0.875000   0.734375 0
  0.812500   0.984375 0
  0.875000   0.718750 0
  0.812500   0.968750 0
  0.875000   0.703125 0
  0.812500   0.953125 0
  0.875000   0.687500 0
  0.812500   0.937500 0
  0.875000   0.609375 0
  0.812500   0.859375 0
  0.875000   0.593750 0
  0.812500   0.843750 0
  0.875000   0.578125 0
  0.812500   0.828125 0
  0.812500   0.812500 0
  0.875000   0.546875 0
  0.812500   0.796875 0
  0.812500   0.781250 0
  0.812500   0.765625 0
  0.859375   0.750000 0
  0.796875   1.000000 0
  0.859375   0.625000 0
  0.796875   0.875000 0
  0.859375   0.734375 0
  0.796875   0.984375 0
  0.859375   0.718750 0
  0.796875   0.968750 0
  0.859375   0.703125 0
  0.796875   0.953125 0
  0.859375   0.687500 0
  0.796875   0.937500 0
  0.859375   0.609375 0
  0.796875   0.859375 0
  0.859375   0.593750 0
  0.796875   0.843750 0
  0.859375   0.578125 0
  0.796875   0.828125 0
  0.859375   0.562500 0
  0.796875   0.812500 0
  0.796875   0.796875 0
  0.859375   0.531250 0
  0.796875   0.781250 0
  0.796875   0.765625 0
  0.843750   0.750000 0
  0.781250   1.000000 0
  0.843750   0.625000 0
  0.781250   0.875000 0
  0.843750   0.734375 0
  0.781250   0.984375 0
  0.843750   0.718750 0
  0.781250   0.968750 0
  0.843750   0.703125 0
  0.781250   0.953125 0
  0.843750   0.687500 0
  0.781250   0.937500 0
  0.843750   0.609375 0
  0.781250   0.859375 0
  0.843750   0.593750 0
  0.781250   0.843750 0
  0.843750   0.578125 0
  0.781250   0.828125 0
  0.781250   0.812500 0
  0.843750   0.546875 0
  0.781250   0.796875 0
  0.781250   0.781250 0
  0.843750   0.515625 0
  0.781250   0.765625 0
  0.828125   0.750000 0
  0.765625   1.000000 0
  0.828125   0.625000 0
  0.765625   0.875000 0
  0.828125   0.734375 0
  0.765625   0.984375 0
  0.828125   0.718750 0
  0.765625   0.968750 0
  0.828125   0.703125 0
  0.765625   0.953125 0
  0.828125   0.687500 0
  0.765625   0.937500 0
  0.828125   0.609375 0
  0.765625   0.859375 0
  0.828125   0.593750 0
  0.765625   0.843750 0
  0.828125   0.578125 0
  0.765625   0.828125 0
  0.828125   0.562500 0
  0.765625   0.812500 0
  0.765625   0.796875 0
  0.828125   0.531250 0
  0.765625   0.781250 0
  0.765625   0.765625 0
  0.812500   0.750000 0
  0.750000   1.000000 0
  0.953125   1.000000 0
  0.812500   0.734375 0
  0.750000   0.984375 0
  0.812500   0.718750 0
  0.750000   0.968750 0
  0.812500   0.703125 0
  0.750000   0.953125 0
  0.812500   0.687500 0
  0.750000   0.937500 0
  0.812500   0.671875 0
  0.750000   0.921875 0
  0.812500   0.656250 0
  0.750000   0.906250 0
  0.812500   0.640625 0
  0.750000   0.890625 0
  0.812500   0.625000 0
  0.750000   0.875000 0
  0.812500   0.609375 0
  0.750000   0.859375 0
  0.812500   0.593750 0
  0.750000   0.843750 0
  0.812500   0.578125 0
  0.750000   0.828125 0
  0.750000   0.812500 0
  0.812500   0.546875 0
  0.750000   0.796875 0
  0.750000   0.781250 0
  0.812500   0.515625 0
  0.750000   0.765625 0
  0.796875   0.750000 0
  0.734375   1.000000 0
  0.796875   0.734375 0
  0.734375   0.984375 0
  0.796875   0.718750 0
  0.734375   0.968750 0
  0.796875   0.703125 0
  0.734375   0.953125 0
  0.796875   0.687500 0
  0.734375   0.937500 0
  0.796875   0.671875 0
  0.734375   0.921875 0
  0.796875   0.656250 0
  0.734375   0.906250 0
  0.796875   0.640625 0
  0.734375   0.890625 0
  0.796875   0.625000 0
  0.734375   0.875000 0
  0.796875   0.609375 0
  0.734375   0.859375 0
  0.796875   0.593750 0
  0.734375   0.843750 0
  0.796875   0.578125 0
  0.734375   0.828125 0
  0.734375   0.812500 0
  0.734375   0.796875 0
  0.796875   0.531250 0
  0.734375   0.781250 0
  0.734375   0.765625 0
  0.781250   0.750000 0
  0.718750   1.000000 0
  0.921875   1.000000 0
  0.781250   0.734375 0
  0.718750   0.984375 0
  0.781250   0.718750 0
  0.718750   0.968750 0
  0.781250   0.703125 0
  0.718750   0.953125 0
  0.859375   0.906250 0
  0.781250   0.687500 0
  0.718750   0.937500 0
  0.781250   0.671875 0
  0.718750   0.921875 0
  0.781250   0.656250 0
  0.718750   0.906250 0
  0.781250   0.640625 0
  0.718750   0.890625 0
  0.781250   0.625000 0
  0.718750   0.875000 0
  0.781250   0.609375 0
  0.718750   0.859375 0
  0.781250   0.593750 0
  0.718750   0.843750 0
  0.781250   0.578125 0
  0.718750   0.828125 0
  0.781250   0.562500 0
  0.718750   0.812500 0
  0.781250   0.546875 0
  0.718750   0.796875 0
  0.781250   0.531250 0
  0.718750   0.781250 0
  0.781250   0.515625 0
  0.718750   0.765625 0
  0.765625   0.750000 0
  0.703125   1.000000 0
  0.765625   0.734375 0
  0.703125   0.984375 0
  0.765625   0.718750 0
  0.703125   0.968750 0
  0.765625   0.703125 0
  0.703125   0.953125 0
  0.765625   0.687500 0
  0.703125   0.937500 0
  0.843750   0.890625 0
  0.703125   0.921875 0
  0.765625   0.656250 0
  0.703125   0.906250 0
  0.765625   0.640625 0
  0.703125   0.890625 0
  0.765625   0.625000 0
  0.703125   0.875000 0
  0.765625   0.609375 0
  0.703125   0.859375 0
  0.765625   0.593750 0
  0.703125   0.843750 0
  0.765625   0.578125 0
  0.703125   0.828125 0
  0.765625   0.562500 0
  0.703125   0.812500 0
  0.765625   0.546875 0
  0.703125   0.796875 0
  0.765625   0.531250 0
  0.703125   0.781250 0
  0.765625   0.515625 0
  0.703125   0.765625 0
  0.750000   0.750000 0
  0.687500   1.000000 0
  0.890625   1.000000 0
  0.750000   0.734375 0
  0.687500   0.984375 0
  0.750000   0.718750 0
  0.687500   0.968750 0
  0.578125   0.796875 0
  0.578125   0.781250 0
  0.578125   0.765625 0
  0.546875   0.953125 0
  0.546875   0.968750 0
  0.546875   0.718750 0
  0.546875   0.687500 0
  0.250000   0.609375 0
  0.937500   0.031250 0
  0.046875   0.703125 0
  0.734375   0.062500 0
  0.734375   0.078125 0
  0.734375   0.046875 0
  0.046875   0.593750 0
  0.046875   0.562500 0
  0.046875   0.531250 0
  0.718750   0.156250 0
  0.046875   0.609375 0
  0.734375   0.031250 0
  0.062500   0.609375 0
  0.234375   0.703125 0
  0.718750   0.125000 0
  0.046875   0.578125 0
  0.734375   0.000000 0
  0.062500   0.578125 0
  0.000000   0.828125 0
  0.234375   0.671875 0
  0.234375   0.625000 0
  0.718750   0.093750 0
  0.687500   0.156250 0
  0.062500   0.546875 0
  0.000000   0.796875 0
  0.718750   0.046875 0
  0.031250   0.687500 0
  0.687500   0.171875 0
  0.500000   1.000000 0
  0.078125   0.218750 0
  0.234375   0.593750 0
  0.718750   0.062500 0
  0.687500   0.125000 0
  0.000000   0.765625 0
  0.421875   0.500000 0
  0.031250   0.593750 0
  0.718750   0.015625 0
  0.687500   0.234375 0
  0.015625   0.812500 0
  0.703125   0.171875 0
  0.703125   0.187500 0
  0.703125   0.140625 0
  0.015625   0.781250 0
  0.437500   0.515625 0
  0.500000   0.796875 0
  0.078125   0.015625 0
  0.687500   0.203125 0
  0.250000   0.578125 0
  0.703125   0.109375 0
  0.000000   0.515625 0
  0.500000   0.765625 0
  0.062500   0.593750 0
  0.750000   0.015625 0
  0.015625   0.843750 0
  0.687500   0.000000 0
  0.500000   0.828125 0
  0.078125   0.046875 0
  0.015625   0.531250 0
  0.250000   0.546875 0
  0.703125   0.078125 0
  0.703125   0.031250 0
  0.015625   0.671875 0
  0.250000   0.515625 0
  0.000000   0.656250 0
  0.500000   0.906250 0
  0.078125   0.125000 0
  0.687500   0.015625 0
  0.031250   0.546875 0
  0.687500   0.031250 0
  0.500000   0.859375 0
  0.703125   0.000000 0
  0.703125   0.046875 0
  0.703125   0.015625 0
  0.500000   0.937500 0
  0.234375   0.531250 0
  0.031250   0.578125 0
  0.687500   0.062500 0
  0.500000   0.890625 0
  0.031250   0.796875 0
  0.453125   0.531250 0
  0.500000   0.968750 0
  0.078125   0.187500 0
  0.234375   0.562500 0
  0.031250   0.609375 0
  0.718750   0.031250 0
  0.687500   0.093750 0
  0.750000   0.046875 0
  0.000000   0.937500 0
  0.421875   0.671875 0
  0.718750   0.187500 0
  0.031250   0.828125 0
  0.765625   0.062500 0
  0.015625   0.953125 0
[...]
CELL_DATA 7648
SCALARS scalar_value float 1
LOOKUP_TABLE default
0.000997114
0.000182501
0.0033813
0.000799995
1.18944e-05
-0.000218201
0.000421787
-0.000357612
-1.31932e-05
-0.000965067
-0.000212228
0.00330009
-0.000459719
-0.00090136
-0.000707586
0.000209369
0.000179355
-0.000332576
0.000791972
2.41908e-05
-0.000152343
0.00074258
-7.76187e-06
-4.83088e-07
0.000210476
0.000252261
0.000947503
-4.00224e-05
0.000395015
0.000104518
-0.000569411
-0.000586527
-0.000433474
-5.46224e-05
-5.70016e-05
-7.77828e-05
1.1935e-05
4.11446e-05
-0.000230119
3.5048e-05
-1.06779e-05
0.000160609
6.97941e-05
-6.44306e-05
-3.78197e-05
-0.000166721
-0.000184236
-0.000296957
-0.00039264
-0.000162208
4.71496e-06
-9.68557e-06
0.000770186
0.00141563
-0.000235278
-0.000146031
-0.000353394
0.000633384
-0.000495355
-8.96847e-05
5.27104e-06
4.93568e-05
-3.87653e-06
-0.000125972
-0.000184047
6.40533e-05
-0.000167861
0.00127055
-0.00014183
-2.27436e-05
-4.30066e-05
5.93523e-05
6.7129e-05
0.000140998
-0.000249186
0.000290859
0.000254415
0.000482253
0.000423556
0.000221852
-3.46758e-05
-0.00011624
-0.000645076
-1.308e-05
3.73674e-05
-1.83159e-05
0.00291881
0.000649573
-0.000620877
-0.000462947
-0.000100899
-6.48813e-05
-7.56997e-05
1.07841e-05
-7.64166e-05
5.35656e-06
0.000370561
-1.61217e-05
-0.000440689
0.00102654
0.0021554
0.000109163
0.000102451
2.17281e-05
-0.000310467
-0.00115236
0.000203501
0.000134234
-0.00037411
0.000349968
-3.38041e-05
3.58548e-05
0.000614229
-0.000597877
-0.000170424
3.91293e-05
0.000259765
0.00493226
0.00429883
-0.00155269
0.005424
3.98221e-05
-0.000214589
-6.76107e-05
0.000107658
9.17084e-05
5.60781e-05
0.000112346
9.47798e-05
-0.000142486
8.55949e-06
-7.10067e-05
-0.00358399
4.00262e-05
-9.80968e-05
-5.57872e-05
0.000326458
0.000135407
0.000341834
0.000201967
-0.000128836
7.65883e-05
4.13628e-05
3.07703e-05
0.000241093
5.28507e-06
-6.39999e-05
1.61474e-05
-0.000125432
-0.000166741
-5.04227e-06
-2.69315e-05
5.05188e-05
0.00144239
6.37805e-05
-0.00221483
-0.000255464
-0.000225184
-0.00154768
0.000176412
-0.000286288
-0.000814684
-0.000124841
0.000180405
0.000181417
0.000204193
0.000698861
-9.01952e-05
2.38058e-05
9.50996e-05
7.52968e-06
-2.15553e-06
8.82977e-05
0.000107626
-0.0015262
-2.86562e-05
7.63619e-05
-3.92562e-05
-1.29769e-05
-2.05397e-05
-5.14831e-06
-4.58915e-05
6.24748e-05
-3.43333e-05
-0.000210917
8.47498e-05
8.54697e-05
0.000706046
-2.64385e-05
1.29264e-05
0.000368169
-0.000430125
0.000496194
-2.09169e-05
-5.07937e-05
-3.92107e-05
-0.00011014
0.00017405
2.27849e-05
0.000454864
0.000180447
-0.000436033
0.000365101
0.000159653
-3.72442e-05
-0.000118513
-1.63231e-05
6.93625e-05
-0.000329656
-5.02494e-05
1.04967e-05
-1.07339e-05
-3.02953e-05
0.000623931
-3.4255e-05
0.000417443
5.17748e-06
0.000108657
0.000316478
-0.000315305
-4.12741e-05
7.38524e-05
-7.75192e-05
-0.000214698
3.56097e-05
0.000639083
0.000460973
-7.21693e-06
-6.2755e-05
-4.28615e-05
3.94981e-05
-0.000478343
0.000257121
3.94689e-05
-6.22601e-05
4.50176e-05
6.11922e-05
3.93749e-05
3.46482e-05
-0.000612383
4.97442e-05
-0.00069738
0.000295508
-0.000428534
0.000606266
9.31084e-05
-0.000541195
0.000311174
-0.00080616
-0.000139292
0.000195513
-6.05747e-06
-0.000102196
-2.35917e-05
-3.49494e-05
-6.05299e-05
3.16399e-05
0.000210481
-9.6135e-05
-1.08292e-05
0.00277037
0.00105216
-0.000150151
-0.000353824
-4.8805e-05
0.000429822
0.000167945
-0.000687898
-8.30232e-05
0.000904744
-0.000383935
-5.99321e-05
-4.66997e-05
0.000873147
-0.000529766
0.000231371
0.00105005
-8.49346e-05
0.000241217
-8.37805e-05
0.000239635
0.00031415
7.38232e-05
0.000197281
-0.000470283
5.51365e-06
-0.000308285
-0.000100395
0.000147438
-0.000266467
-0.000433119
0.000397553
0.00059823
7.1936e-05
-0.00012387
1.3257e-05
-9.79574e-05
-0.000609739
0.00014727
-9.83951e-06
-0.00013161
-4.85672e-05
-6.65061e-07
-0.000534374
-0.000121292
-0.00063938
6.08248e-05
-8.69972e-05
-0.000607019
-0.000552746
3.43472e-05
5.65904e-05
-0.000205926
0.000173737
0.000231925
0.000215682
0.000286905
0.000263137
0.00013619
0.00050708
5.72077e-05
-7.23712e-05
3.8274e-05
2.1087e-05
-4.06516e-05
-8.59374e-05
-6.59877e-05
-2.69302e-05
-3.68343e-05
-1.54739e-05
-9.31774e-05
0.00011722
-4.85616e-05
2.80484e-05
0.00023422
2.07698e-05
-6.56139e-05
4.20087e-05
1.32308e-05
4.12508e-05
7.83454e-05
-0.000184144
0.000114394
4.11988e-05
0.000131269
-0.000401863
6.77435e-05
1.74196e-05
-3.24984e-06
-1.80058e-05
-0.000837616
-0.000568185
0.000412613
-2.85639e-05
-0.000567586
3.37125e-05
0.00022562
-0.000278811
5.71578e-05
0.000107505
-0.000396343
-4.87636e-05
-0.000271146
3.49951e-05
6.25119e-05
1.90442e-06
0.000242083
0.00044809
0.000193931
9.02863e-05
0.000736032
8.77276e-05
4.31573e-05
0.000125054
-0.000368511
0.000527704
-9.09568e-05
0.000275556
0.000540935
-9.98774e-05
-0.00112633
-0.000639548
-0.000397936
0.000358135
0.000368422
-0.000363116
-3.69519e-05
-0.000104464
-0.000264539
-0.000252395
-0.000149664
-5.48088e-05
-0.000135562
-0.000931117
0.000337152
5.84575e-06
0.000614276
0.0001595
-0.00112529
-7.66091e-05
-0.000145765
-5.13042e-05
-2.93555e-05
-1.41582e-05
-1.85585e-05
5.25346e-05
0.000196843
-6.06094e-05
0.000333941
-1.41853e-05
0.000468105
0.000601561
0.000198618
5.33751e-05
0.000172113
0.00182531
0.00135277
1.95448e-05
0.000135528
-0.000124359
-0.000692511
-0.00040358
-0.000220405
-2.21653e-06
0.00554301
-3.66531e-05
-2.06791e-05
-0.00117864
-9.89633e-05
0.00321658
-0.00266085
-0.00050006
3.12274e-05
9.84842e-06
0.000166417
-0.000621773
7.8976e-05
9.69716e-05
-0.000144854
0.000205157
0.000596037
-8.49001e-05
0.000429983
-7.17124e-06
0.000113922
-1.25243e-05
0.000375034
0.000128137
5.79568e-05
-0.000176844
-9.276e-08
0.000461973
3.65198e-05
0.000673404
-2.9368e-05
-7.77898e-06
-0.000144739
0.000495607
-0.000290471
0.000157359
-0.000501713
0.000130991
0.00131148
-0.000260021
0.000105623
5.70196e-05
0.00029763
0.000348049
-3.75342e-05
-0.000200739
1.34578e-05
-0.000518386
-0.000336089
6.06534e-05
0.00326088
0.000689149
0.00117735
7.75647e-07
-0.000390178
-0.000171968
5.68271e-05
0.00128729
-1.76772e-05
-0.000437313
0.0006672
-6.98546e-05
-1.72994e-05
7.55577e-06
3.29517e-05
-0.000483896
-6.78677e-06
2.23058e-06
0.000107086
0.000195093
0.00791154
0.000574071
-4.33719e-05
2.00995e-05
7.36421e-05
0.000225831
-7.44386e-06
4.29206e-06
3.52867e-06
-0.000165661
1.76892e-05
7.3547e-05
-0.000294122
-1.13401e-05
-0.000120707
4.05445e-06
6.90155e-06
4.81177e-06
-7.06268e-06
9.83873e-05
0.000369643
0.000173449
8.167e-05
-6.10511e-05
-0.000297253
0.000516958
0.000470262
0.000592998
5.3944e-05
0.00013827
0.00010306
1.05763e-05
1.46435e-05
5.9706e-05
-0.00018515
-7.67242e-05
0.00107778
-7.45177e-05
-0.000238163
0.000368047
0.000423282
9.79566e-05
1.29297e-06
0.000122142
-0.000503582
-0.000396339
0.00114364
-3.10466e-05
8.47114e-05
-6.41222e-05
-0.00032477
0.000289217
0.0004477
0.000291865
-0.000120535
-0.000272066
-4.71689e-05
0.000151398
8.96519e-05
0.000315386
1.04432e-05
0.00010757
-8.97104e-05
0.000223114
0.00107704
0.000119669
0.000129446
-0.000100182
-0.000170056
0.000927176
0.00103302
7.69856e-05
-0.000417357
2.24182e-05
-0.000433811
-4.18616e-05
6.22903e-05
0.000130079
0.00072277
-4.00128e-05
-0.000189974
0.000102256
0.000160594
0.000120421
4.51358e-06
-5.75608e-05
-0.00102623
-0.000431965
-0.000578037
0.000300884
-9.07957e-06
0.000353258
-0.000210387
0.000277536
-0.000273609
-4.37097e-05
-0.00011259
-0.000140978
-0.000495427
-0.000513524
1.42966e-05
4.63408e-05
-0.000686689
-0.000873399
-0.00116991
0.000312112
-8.29242e-05
5.24133e-05
-0.000206899
-0.000128607
-0.000126887
1.78088e-05
0.000354441
-5.97886e-05
6.32848e-07
-0.000387893
0.000270184
-0.000108916
-8.54599e-05
0.000277912
-2.64992e-06
0.000113467
0.000142178
-0.000102187
-0.000507618
-0.00016797
-0.000241502
0.000291275
-0.000178576
7.50507e-05
-0.00051215
1.79175e-05
0.000758318
-0.000127998
-0.000136126
0.000113327
-7.39454e-05
6.07284e-05
-4.3704e-05
-5.04043e-05
0.000303431
3.02944e-05
0.000445994
-0.00230039
-0.000551306
6.55995e-05
-7.95027e-06
-0.000688623
3.71523e-06
-0.000234704
0.000248037
3.38377e-05
-1.90988e-05
0.000396751
-3.06839e-05
-1.21784e-05
-0.00071718
0.000982778
4.34639e-05
7.47197e-05
4.60091e-05
-0.000213178
0.000488046
0.000226435
0.000271846
0.000374721
1.95583e-05
-0.000347834
0.00320878
0.00275063
-0.000256926
-0.000495842
0.00170495
0.00415401
2.87776e-05
0.00110175
0.000131663
0.000669438
0.000131038
-6.35208e-05
0.00110717
0.000160265
2.22257e-06
0.000262559
-9.1592e-05
-4.53545e-05
0.00210878
0.000242391
0.000123983
0.000135654
-9.90086e-05
0.00119258
-0.000149545
0.00135276
-0.000164687
1.65898e-05
0.000153637
7.53537e-05
-0.00151497
6.48844e-05
-2.86097e-05
-0.000197671
-6.66101e-05
2.86743e-05
-1.74355e-05
4.98518e-05
0.000487534
4.48639e-05
0.000209965
4.48667e-05
0.000559425
2.06059e-05
0.0020161
6.65548e-05
-2.0584e-05
0.00106811
0.000221307
0.000170332
0.000120762
-0.000613637
-4.28552e-05
-6.102e-05
-0.000496131
-0.000667813
0.00130867
5.2001e-05
0.00191139
0.0015503
-2.09132e-05
0.00252246
0.000256767
0.000167126
0.00019871
0.000376582
0.00168134
0.000225987
5.91667e-05
-0.000108372
5.02879e-05
-9.73719e-06
9.48973e-05
-1.32023e-06
-0.000510723
3.01252e-05
8.94585e-06
2.25585e-05
-0.000348396
0.000144262
0.000185916
0.000103743
-9.40346e-05
-1.04702e-05
0.000359817
0.000317404
0.000227411
0.000100922
-2.30687e-06
0.00318611
-1.99952e-05
6.53631e-05
-0.00108508
3.02581e-05
0.000159944
2.80817e-05
-4.21895e-05
-0.000170503
0.000199264
2.85399e-05
0.000143496
0.00030412
4.96705e-05
0.000126435
-9.26958e-05
-1.61771e-05
-3.85544e-05
-6.91218e-07
4.00485e-05
-0.000161727
0.000606566
0.00214994
-5.51117e-05
3.68056e-05
7.56656e-05
0.00102885
0.000361146
0.000278993
-6.1072e-05
4.86152e-06
8.04242e-05
3.88081e-05
5.23484e-05
0.000182596
0.000259979
0.000287953
-0.000245501
-0.00518658
-0.000167317
6.41277e-05
0.000224566
0.000547678
0.00139215
0.000325101
0.000487938
0.000298652
0.000113572
4.9701e-05
-0.000848865
0.000487402
-5.60085e-05
-0.000135905
-0.000466224
9.11673e-05
-0.000157948
7.77682e-05
0.000847996
0.00242359
0.000144967
0.000280753
-6.6319e-05
0.00058638
0.000195491
-0.000750872
-0.000231805
-0.00358796
7.67834e-06
0.00202541
0.00124502
-0.00298587
0.000501616
-0.000598829
0.00232005
0.00107831
0.00010405
0.000167345
-0.00225777
0.000901698
-6.23333e-05
0.00042293
0.000246344
-5.39524e-05
-0.000481275
-0.000118513
-1.85449e-05
0.000351778
5.90936e-05
0.00521802
0.00292918
-0.000113782
-0.0010139
-0.005184
0.000633783
-5.96587e-05
-0.000680397
0.000217849
-0.000147215
-1.48269e-05
1.55918e-05
-0.00136292
-0.000343355
4.33859e-05
-0.000244135
-0.000144229
-0.00015174
-3.55594e-05
-0.00014381
-7.99298e-06
-0.000269694
9.7217e-05
0.000133544
-0.000278443
0.000230341
0.000179579
-6.66723e-05
1.18286e-05
1.49495e-05
0.00158237
5.19475e-05
0.000107346
-4.72049e-05
0.000188515
-1.00243e-05
-0.000748257
7.16406e-05
-7.69529e-05
-0.000277743
-0.000236315
0.000368856
-0.000375528
-0.000205817
2.13661e-05
1.32398e-05
0.000608336
0.00147731
0.00065723
0.000903749
-0.00045681
-0.000423109
0.000192789
-1.69216e-06
-0.000367108
-0.000225565
0.000802608
0.00012691
9.42299e-05
4.61061e-05
-4.6435e-05
0.000124262
-2.49325e-05
-0.000248897
-1.16005e-05
-5.51026e-06
-0.000526038
-0.000887416
-6.53795e-05
-4.5094e-05
0.000219865
-0.00274848
-0.000136793
0.000339699
0.00011887
-0.00012303
-5.52383e-05
0.00292613
-4.93753e-05
0.00460516
1.48641e-05
-0.000148096
0.000268918
-0.00193717
0.000116169
-0.000362074
-0.000858899
-2.76675e-05
-0.00338878
-0.000158377
-0.000174138
0.000433202
-0.00051283
0.000104471
-0.000126038
0.000327455
0.000111664
-6.79771e-06
-0.000841761
0.0010788
-4.39677e-07
3.84988e-05
0.000137503
0.000260857
0.00196787
-4.96668e-05
-0.000302321
-0.000170462
-1.42876e-05
0.000327173
-0.000190645
0.000857457
-5.99177e-05
0.000269413
8.87391e-05
0.000218741
-0.000359783
1.27698e-05
-0.000106142
-0.000398806
-8.86544e-05
-5.79748e-05
-4.08747e-05
0.000312817
-2.46475e-05
0.000402069
2.04372e-05
-7.38859e-05
-3.68141e-05
-1.25496e-05
-8.30733e-05
2.81181e-05
0.000367647
6.08688e-05
2.51697e-05
0.000120871
0.00171398
0.00173795
6.58296e-05
0.000752367
0.000133313
0.000131208
0.00490943
-8.7817e-05
-0.00320807
0.00538129
0.000335129
-1.56603e-05
-0.000424325
7.24199e-05
4.01206e-06
0.0019938
-3.37046e-05
0.000403486
8.31685e-05
-1.47841e-05
6.33216e-06
0.000237718
0.000107109
0.00531789
1.08173e-05
-0.0015692
2.16305e-06
-9.75697e-06
6.74691e-05
5.34374e-05
0.000974068
-0.000278439
-0.000459486
-0.000240965
4.20694e-06
-0.000356577
-0.000283349
0.000160816
0.000373219
0.00106833
0.00114487
9.69882e-05
8.71489e-05
8.4832e-05
0.000164956
0.00095758
0.000302463
0.00143999
-4.23202e-05
-0.0010877
-0.000135895
-0.000142176
0.00104131
0.000113361
7.69392e-05
-0.00303459
0.00135726
-0.000140172
-0.000284147
-7.03339e-05
5.99636e-05
0.000675302
5.20926e-05
0.000171848
-0.000176339
-0.000133851
-2.23334e-05
0.000285949
-0.00124694
-8.95999e-05
2.36476e-06
6.38183e-05
0.000253569
-0.000129043
-0.00158481
8.87766e-05
7.42543e-06
-0.000202246
-9.71658e-05
-6.08796e-05
0.000546019
1.1078e-05
2.63426e-05
-4.18855e-05
3.41292e-05
-5.87128e-05
0.000193715
-6.30137e-05
-9.21062e-05
3.72911e-05
-2.43216e-05
0.000191624
0.00376478
-0.000167784
-1.15722e-05
0.000118016
1.10046e-05
0.000240492
0.00118148
-5.97781e-05
0.000444976
4.24815e-06
-0.000199307
-0.000374092
0.000534686
-0.00103736
-4.42048e-05
-0.000183565
-1.64907e-05
-0.000419198
-2.94623e-05
0.000196363
-8.61215e-05
0.000207354
-0.000335783
-0.000236289
-0.000329392
0.000124221
-7.93516e-05
0.00100218
0.000868146
-8.5317e-05
-3.65367e-05
0.00102346
-0.000180151
-0.000939023
-2.67473e-05
-0.00081649
3.459e-05
-0.000638625
-0.000181771
9.42198e-05
0.00365214
-0.000237347
0.00019594
9.46553e-05
4.87718e-05
-0.000425329
1.72347e-05
-2.40749e-05
-0.00160912
6.25388e-05
0.000265023
-9.62796e-05
7.72819e-05
-0.000103682
0.000869841
0.00066212
-0.000192151
-2.77402e-05
-8.95601e-06
0.000192055
9.32654e-05
0.000135301
-0.000340356
-0.00033202
-0.000384617
-9.03392e-06
2.17947e-05
-1.47847e-05
4.35699e-05
-8.20589e-05
-8.24619e-05
5.18686e-05
8.00395e-06
7.94196e-05
5.56769e-05
-4.63287e-05
3.64892e-05
7.22301e-05
-0.000236033
2.79511e-05
-0.000159726
-0.000252106
4.8814e-05
0.00175187
0.0021917
0.00111842
9.61789e-05
-0.000498052
6.0202e-05
9.74388e-05
0.000103829
0.000106609
4.05869e-05
1.94273e-05
0.000193433
-3.57005e-07
6.01913e-05
-0.000410914
-8.08726e-05
-0.000425294
-0.000461315
0.000780915
0.000368894
0.00160975
0.00149133
-0.000759966
-0.000345611
0.000995991
0.000438818
-0.000456653
0.000422993
-0.000357996
-6.24579e-05
0.000568325
-0.000643025
0.000133413
0.000337405
0.000251714
0.000522416
-9.50214e-05
-0.000118417
-1.587e-05
1.36009e-05
3.41188e-05
-6.42116e-06
-8.59971e-05
-3.08248e-06
-3.78952e-05
-0.000131162
0.000161335
-0.000144646
0.000534037
-7.47248e-05
2.95664e-05
8.89951e-06
8.24007e-05
2.43809e-05
0.000847287
-0.000388169
0.00106095
-0.000192275
-0.000595553
0.00115929
-0.00045206
0.000404922
0.000104865
-0.000259202
0.00387734
0.000838584
0.0025471
0.000660621
2.94506e-05
-5.83724e-05
0.000191294
0.000124266
0.000266629
0.000116709
-7.99994e-05
-9.43726e-05
4.25534e-05
0.000123112
-0.00017389
5.31486e-05
0.00022054
0.000104253
3.86239e-05
5.79029e-06
5.52843e-05
-0.00212038
-0.000263115
0.000299249
-0.000378295
2.01166e-05
3.52669e-06
0.000149249
0.000659875
-3.57087e-06
-1.78298e-05
1.27324e-06
0.00012793
0.000433843
0.000409016
6.5574e-05
0.000242974
0.00101401
0.000147712
9.86104e-05
-8.4745e-06
-0.000109918
4.2285e-05
-0.000245212
-0.000325856
0.00019378
-9.91779e-05
-6.16339e-05
-1.81207e-05
-1.23017e-06
-1.75004e-05
2.97843e-05
0.000315605
0.000244607
0.000279825
1.68442e-05
-2.44245e-05
-5.49249e-05
0.000115904
-0.000491451
0.000362959
-0.000201857
-8.63488e-06
8.13538e-05
-0.000295816
-0.000221425
-1.33693e-07
6.5675e-05
3.656e-05
3.41027e-05
2.39289e-06
2.83682e-05
6.26562e-06
-3.85815e-06
0.000457524
5.01623e-05
-0.000299377
0.000183356
-7.96399e-05
-1.11675e-05
-0.000117105
0.000347586
5.45351e-05
-2.05773e-05
0.00022727
0.000456265
-0.000181866
0.000234741
-1.19385e-05
0.000501521
-0.000129677
0.000226373
0.000124602
0.000102533
2.16525e-05
0.000131399
3.03864e-05
8.20062e-05
0.000579553
0.000384159
-6.3196e-05
6.72873e-05
-0.00017375
-0.000187065
7.76882e-05
-2.51868e-05
7.05885e-05
0.000104487
0.000570788
-2.74209e-05
0.000106716
2.53783e-05
-0.000215002
0.000823675
-0.000477502
0.00102728
-0.000116719
-0.000523055
-0.000277629
1.87718e-05
-0.000189022
-0.000789081
-0.000984044
-0.0022422
3.06499e-05
0.000267474
-2.98886e-05
-6.22213e-05
-0.000229238
4.82012e-05
-0.000458924
-3.9476e-05
2.35932e-05
1.61301e-05
0.000328451
-1.31501e-05
8.35132e-05
9.08553e-05
5.52478e-06
0.000212665
0.00380228
-0.00151045
-0.00243604
-0.00114653
-0.000185383
0.00247624
0.000381056
-0.000372589
8.12213e-05
-8.1158e-06
2.09994e-05
1.08963e-06
0.000883288
4.16686e-05
-5.52342e-06
0.00016987
-0.000133798
0.00069138
2.06479e-05
-0.000928544
-0.00060568
0.000155992
0.000574029
-0.00068301
-1.48022e-05
0.000159309
4.22124e-05
-7.60007e-06
-0.000945496
-0.000801732
-0.000559059
0.0044391
-0.000261822
0.000118187
-0.000277433
-0.000143792
9.5194e-05
-2.53125e-07
7.03325e-05
-0.000564947
-0.000171232
-7.7971e-05
0.000203217
0.000140439
0.000285325
-4.32655e-05
-9.4592e-05
4.83803e-07
0.000413255
-0.000325427
0.000224
-0.000363578
0.000127939
0.000407833
-0.000259001
-0.000325555
-7.13831e-05
-3.69156e-05
-0.000918348
-0.000143136
-0.000105695
-0.00106655
-0.000801477
-0.000238698
-0.000283628
-3.3728e-05
1.22645e-05
0.000100179
1.13973e-05
0.000131839
-0.000109483
-0.00262635
0.000236107
1.26599e-05
6.10523e-05
-1.19585e-05
0.000182753
3.7455e-05
9.74267e-05
-3.61178e-05
1.42903e-05
4.25191e-05
0.000108914
-0.000200509
3.70359e-06
5.45433e-05
0.000167505
0.000111394
0.000981968
8.60807e-05
-0.000187968
-9.64415e-05
-8.20212e-05
1.68367e-06
-0.000489391
-0.000101956
-5.13601e-06
1.40607e-06
0.000559693
0.00078164
0.000723473
0.000289853
0.00267265
-0.00426241
-0.00372446
0.00248411
-0.00304153
-0.00151241
6.63019e-05
-0.000552305
0.00252445
0.00252848
-0.00198941
3.69633e-05
-0.000376741
-8.61321e-06
-4.91067e-05
0.000187051
0.000809095
0.000220694
-1.06255e-05
4.89852e-05
-0.000487775
-0.000625861
0.000217451
-1.63463e-05
0.00012641
-0.000543356
-4.89319e-05
0.000108557
0.000184872
-5.78776e-05
-0.000398155
2.69464e-05
3.27556e-06
-0.000158036
0.000127256
-0.00401791
-0.000985851
0.00326854
0.000399005
2.94182e-05
0.000317297
-0.000693029
-5.22766e-05
0.000135327
-1.66464e-05
9.65073e-05
0.000120964
0.000457377
9.89515e-05
0.00026636
0.000199052
-4.68997e-05
0.000104062
-0.000125646
-5.28413e-05
6.57146e-05
-0.000409353
0.000116209
-7.54396e-05
-7.95013e-05
-0.00145466
-0.00100456
8.84718e-05
8.57902e-05
-0.000991626
-9.26113e-05
-0.000117468
-0.000136137
-0.0424986
0.000102794
0.0039792
0.00389919
0.00288815
-0.000112223
0.000164801
-0.000323024
9.50319e-05
0.000307412
-4.79452e-05
0.00272174
-0.000275111
0.000606627
-0.000301707
0.000405479
0.000231749
-0.00371055
-0.00198233
-0.00307622
-8.62934e-06
-0.000671203
-0.000466694
0.000315557
0.00138058
-0.000684577
1.52076e-05
-2.06593e-06
-1.39993e-06
5.31329e-06
-2.50208e-06
-2.77507e-05
-0.00010009
-4.66668e-06
-1.89702e-05
-1.60454e-05
3.21766e-06
2.05753e-05
4.63136e-06
-3.0445e-05
-3.73384e-06
7.88959e-05
5.98216e-05
-0.000194429
0.000284647
6.15934e-05
9.15495e-05
2.15842e-05
-9.0056e-05
3.19955e-06
0.0015767
-0.000361367
0.000302258
0.00105063
0.00195503
0.00219188
0.00157127
0.00189046
-0.00044873
-0.000272646
4.87225e-05
7.09296e-06
-9.14288e-05
-4.76599e-05
0.0044611
0.000105699
0.000335911
-0.000234755
7.91551e-05
2.94312e-05
2.18758e-05
8.52728e-06
0.00105215
8.36406e-05
-0.000567283
-0.000147681
-0.00102225
-4.70378e-05
-1.67598e-05
1.97078e-05
0.000119383
3.8319e-05
-1.95904e-05
8.63165e-05
0.00034356
0.000211033
-0.000522857
-0.000187858
-0.000599769
6.85293e-05
-1.12385e-05
0.000177423
0.000136765
-1.40851e-05
0.000673751
-0.000829938
-6.28712e-05
-0.000225088
0.000585472
8.16547e-05
-0.000148618
0.00011326