# vtk DataFile Version 2.0
Unstructured Grid by M++
ASCII
DATASET UNSTRUCTURED_GRID
POINTS 4072 float
  0.875000   1.000000 0
  0.875000   0.984375 0
  0.875000   0.968750 0
  0.875000   0.953125 0
  0.875000   0.937500 0
  0.875000   0.921875 0
  0.875000   0.906250 0
  0.875000   0.890625 0
  0.875000   0.875000 0
  0.875000   0.859375 0
  0.875000   0.843750 0
  0.875000   0.828125 0
  0.875000   0.812500 0
  0.875000   0.796875 0
  0.875000   0.781250 0
  0.875000   0.765625 0
  0.859375   1.000000 0
  0.859375   0.984375 0
  0.859375   0.968750 0
  0.859375   0.953125 0
  0.859375   0.937500 0
  0.859375   0.921875 0
  0.859375   0.890625 0
  0.859375   0.875000 0
  0.859375   0.859375 0
  0.859375   0.843750 0
  0.859375   0.828125 0
  0.859375   0.812500 0
  0.859375   0.796875 0
  0.859375   0.781250 0
  0.859375   0.765625 0
  0.859375   0.671875 0
  0.859375   0.656250 0
  0.859375   0.640625 0
  0.843750   1.000000 0
  0.843750   0.984375 0
  0.843750   0.968750 0
  0.843750   0.953125 0
  0.843750   0.937500 0
  0.843750   0.921875 0
  0.843750   0.906250 0
  0.843750   0.875000 0
  0.843750   0.859375 0
  0.843750   0.843750 0
  0.843750   0.828125 0
  0.843750   0.812500 0
  0.843750   0.796875 0
  0.843750   0.781250 0
  0.843750   0.765625 0
  0.843750   0.671875 0
  0.843750   0.656250 0
  0.843750   0.640625 0
  0.828125   1.000000 0
  0.828125   0.984375 0
  0.828125   0.968750 0
  0.828125   0.953125 0
  0.828125   0.937500 0
  0.828125   0.921875 0
  0.875000   0.671875 0
  0.812500   0.921875 0
  0.890625   0.656250 0
  0.828125   0.906250 0
  0.875000   0.656250 0
  0.812500   0.906250 0
  0.890625   0.640625 0
  0.828125   0.890625 0
  0.875000   0.640625 0
  0.812500   0.890625 0
  0.890625   0.625000 0
  0.828125   0.875000 0
  0.890625   0.609375 0
  0.828125   0.859375 0
  0.890625   0.593750 0
  0.828125   0.843750 0
  0.890625   0.578125 0
  0.828125   0.828125 0
  0.890625   0.562500 0
  0.828125   0.812500 0
  0.828125   0.796875 0
  0.828125   0.781250 0
  0.828125   0.765625 0
  0.828125   0.671875 0
  0.828125   0.656250 0
  0.828125   0.640625 0
  0.875000   0.750000 0
  0.812500   1.000000 0
  0.875000   0.625000 0
  0.812500   0.875000 0
  0.875000   0.734375 0
  0.812500   0.984375 0
  0.875000   0.718750 0
  0.812500   0.968750 0
  0.875000   0.703125 0
  0.812500   0.953125 0
  0.875000   0.687500 0
  0.812500   0.937500 0
  0.875000   0.609375 0
  0.812500   0.859375 0
  0.875000   0.593750 0
  0.812500   0.843750 0
  0.875000   0.578125 0
  0.812500   0.828125 0
  0.812500   0.812500 0
  0.875000   0.546875 0
  0.812500   0.796875 0
  0.812500   0.781250 0
  0.812500   0.765625 0
  0.859375   0.750000 0
  0.796875   1.000000 0
  0.859375   0.625000 0
  0.796875   0.875000 0
  0.859375   0.734375 0
  0.796875   0.984375 0
  0.859375   0.718750 0
  0.796875   0.968750 0
  0.859375   0.703125 0
  0.796875   0.953125 0
  0.859375   0.687500 0
  0.796875   0.937500 0
  0.859375   0.609375 0
  0.796875   0.859375 0
  0.859375   0.593750 0
  0.796875   0.843750 0
  0.859375   0.578125 0
  0.796875   0.828125 0
  0.859375   0.562500 0
  0.796875   0.812500 0
  0.796875   0.796875 0
  0.859375   0.531250 0
  0.796875   0.781250 0
  0.796875   0.765625 0
  0.843750   0.750000 0
  0.781250   1.000000 0
  0.843750   0.625000 0
  0.781250   0.875000 0
  0.843750   0.734375 0
  0.781250   0.984375 0
  0.843750   0.718750 0
  0.781250   0.968750 0
  0.843750   0.703125 0
  0.781250   0.953125 0
  0.843750   0.687500 0
  0.781250   0.937500 0
  0.843750   0.609375 0
  0.781250   0.859375 0
  0.843750   0.593750 0
  0.781250   0.843750 0
  0.843750   0.578125 0
  0.781250   0.828125 0
  0.781250   0.812500 0
  0.843750   0.546875 0
  0.781250   0.796875 0
  0.781250   0.781250 0
  0.843750   0.515625 0
  0.781250   0.765625 0
  0.828125   0.750000 0
  0.765625   1.000000 0
  0.828125   0.625000 0
  0.765625   0.875000 0
  0.828125   0.734375 0
  0.765625   0.984375 0
  0.828125   0.718750 0
  0.765625   0.968750 0
  0.828125   0.703125 0
  0.765625   0.953125 0
  0.828125   0.687500 0
  0.765625   0.937500 0
  0.828125   0.609375 0
  0.765625   0.859375 0
  0.828125   0.593750 0
  0.765625   0.843750 0
  0.828125   0.578125 0
  0.765625   0.828125 0
  0.828125   0.562500 0
  0.765625   0.812500 0
  0.765625   0.796875 0
  0.828125   0.531250 0
  0.765625   0.781250 0
  0.765625   0.765625 0
  0.812500   0.750000 0
  0.750000   1.000000 0
  0.953125   1.000000 0
  0.812500   0.734375 0
  0.750000   0.984375 0
  0.812500   0.718750 0
  0.750000   0.968750 0
  0.812500   0.703125 0
  0.750000   0.953125 0
  0.812500   0.687500 0
  0.750000   0.937500 0
  0.812500   0.671875 0
  0.750000   0.921875 0
  0.812500   0.656250 0
  0.750000   0.906250 0
  0.812500   0.640625 0
  0.750000   0.890625 0
  0.812500   0.625000 0
  0.750000   0.875000 0
  0.812500   0.609375 0
  0.750000   0.859375 0
  0.812500   0.593750 0
  0.750000   0.843750 0
  0.812500   0.578125 0
  0.750000   0.828125 0
  0.750000   0.812500 0
  0.812500   0.546875 0
  0.750000   0.796875 0
  0.750000   0.781250 0
  0.812500   0.515625 0
  0.750000   0.765625 0
  0.796875   0.750000 0
  0.734375   1.000000 0
  0.796875   0.734375 0
  0.734375   0.984375 0
  0.796875   0.718750 0
  0.734375   0.968750 0
  0.796875   0.703125 0
  0.734375   0.953125 0
  0.796875   0.687500 0
  0.734375   0.937500 0
  0.796875   0.671875 0
  0.734375   0.921875 0
  0.796875   0.656250 0
  0.734375   0.906250 0
  0.796875   0.640625 0
  0.734375   0.890625 0
  0.796875   0.625000 0
  0.734375   0.875000 0
  0.796875   0.609375 0
  0.734375   0.859375 0
  0.796875   0.593750 0
  0.734375   0.843750 0
  0.796875   0.578125 0
  0.734375   0.828125 0
  0.734375   0.812500 0
  0.734375   0.796875 0
  0.796875   0.531250 0
  0.734375   0.781250 0
  0.734375   0.765625 0
  0.781250   0.750000 0
  0.718750   1.000000 0
  0.921875   1.000000 0
  0.781250   0.734375 0
  0.718750   0.984375 0
  0.781250   0.718750 0
  0.718750   0.968750 0
  0.781250   0.703125 0
  0.718750   0.953125 0
  0.859375   0.906250 0
  0.781250   0.687500 0
  0.718750   0.937500 0
  0.781250   0.671875 0
  0.718750   0.921875 0
  0.781250   0.656250 0
  0.718750   0.906250 0
  0.781250   0.640625 0
  0.718750   0.890625 0
  0.781250   0.625000 0
  0.718750   0.875000 0
  0.781250   0.609375 0
  0.718750   0.859375 0
  0.781250   0.593750 0
  0.718750   0.843750 0
  0.781250   0.578125 0
  0.718750   0.828125 0
  0.781250   0.562500 0
  0.718750   0.812500 0
  0.781250   0.546875 0
  0.718750   0.796875 0
  0.781250   0.531250 0
  0.718750   0.781250 0
  0.781250   0.515625 0
  0.718750   0.765625 0
  0.765625   0.750000 0
  0.703125   1.000000 0
  0.765625   0.734375 0
  0.703125   0.984375 0
  0.765625   0.718750 0
  0.703125   0.968750 0
  0.765625   0.703125 0
  0.703125   0.953125 0
  0.765625   0.687500 0
  0.703125   0.937500 0
  0.843750   0.890625 0
  0.703125   0.921875 0
  0.765625   0.656250 0
  0.703125   0.906250 0
  0.765625   0.640625 0
  0.703125   0.890625 0
  0.765625   0.625000 0
  0.703125   0.875000 0
  0.765625   0.609375 0
  0.703125   0.859375 0
  0.765625   0.593750 0
  0.703125   0.843750 0
  0.765625   0.578125 0
  0.703125   0.828125 0
  0.765625   0.562500 0
  0.703125   0.812500 0
  0.765625   0.546875 0
  0.703125   0.796875 0
  0.765625   0.531250 0
  0.703125   0.781250 0
  0.765625   0.515625 0
  0.703125   0.765625 0
  0.750000   0.750000 0
  0.687500   1.000000 0
  0.890625   1.000000 0
  0.750000   0.734375 0
  0.687500   0.984375 0
  0.750000   0.718750 0
  0.687500   0.968750 0
  0.578125   0.796875 0
  0.578125   0.781250 0
  0.578125   0.765625 0
  0.546875   0.953125 0
  0.546875   0.968750 0
  0.546875   0.718750 0
  0.546875   0.687500 0
  0.250000   0.609375 0
  0.937500   0.031250 0
  0.046875   0.703125 0
  0.734375   0.062500 0
  0.734375   0.078125 0
  0.734375   0.046875 0
  0.046875   0.593750 0
  0.046875   0.562500 0
  0.046875   0.531250 0
  0.718750   0.156250 0
  0.046875   0.609375 0
  0.734375   0.031250 0
  0.062500   0.609375 0
  0.234375   0.703125 0
  0.718750   0.125000 0
  0.046875   0.578125 0
  0.734375   0.000000 0
  0.062500   0.578125 0
  0.000000   0.828125 0
  0.234375   0.671875 0
  0.234375   0.625000 0
  0.718750   0.093750 0
  0.687500   0.156250 0
  0.062500   0.546875 0
  0.000000   0.796875 0
  0.718750   0.046875 0
  0.031250   0.687500 0
  0.687500   0.171875 0
  0.500000   1.000000 0
  0.078125   0.218750 0
  0.234375   0.593750 0
  0.718750   0.062500 0
  0.687500   0.125000 0
  0.000000   0.765625 0
  0.421875   0.500000 0
  0.031250   0.593750 0
  0.718750   0.015625 0
  0.687500   0.234375 0
  0.015625   0.812500 0
  0.703125   0.171875 0
  0.703125   0.187500 0
  0.703125   0.140625 0
  0.015625   0.781250 0
  0.437500   0.515625 0
  0.500000   0.796875 0
  0.078125   0.015625 0
  0.687500   0.203125 0
  0.250000   0.578125 0
  0.703125   0.109375 0
  0.000000   0.515625 0
  0.500000   0.765625 0
  0.062500   0.593750 0
  0.750000   0.015625 0
  0.015625   0.843750 0
  0.687500   0.000000 0
  0.500000   0.828125 0
  0.078125   0.046875 0
  0.015625   0.531250 0
  0.250000   0.546875 0
  0.703125   0.078125 0
  0.703125   0.031250 0
  0.015625   0.671875 0
  0.250000   0.515625 0
  0.000000   0.656250 0
  0.500000   0.906250 0
  0.078125   0.125000 0
  0.687500   0.015625 0
  0.031250   0.546875 0
  0.687500   0.031250 0
  0.500000   0.859375 0
  0.703125   0.000000 0
  0.703125   0.046875 0
  0.703125   0.015625 0
  0.500000   0.937500 0
  0.234375   0.531250 0
  0.031250   0.578125 0
  0.687500   0.062500 0
  0.500000   0.890625 0
  0.031250   0.796875 0
  0.453125   0.531250 0
  0.500000   0.968750 0
  0.078125   0.187500 0
  0.234375   0.562500 0
  0.031250   0.609375 0
  0.718750   0.031250 0
  0.687500   0.093750 0
  0.750000   0.046875 0
  0.000000   0.937500 0
  0.421875   0.671875 0
  0.718750   0.187500 0
  0.031250   0.828125 0
  0.765625   0.062500 0
  0.015625   0.953125 0
[...]
CELL_DATA 7648
SCALARS scalar_value float 1
LOOKUP_TABLE default
0.000800638
7.70089e-05
0.00302976
0.000882708
0.000234042
0.000168989
1.85614e-05
-0.000233731
-1.13832e-05
-0.000867944
-0.000144908
0.00231902
-0.000116592
-0.000662527
-0.000638524
0.000129312
0.000182679
-0.000317279
0.000491946
6.64025e-05
-0.00011332
0.000563665
9.81739e-05
-1.34044e-05
5.82427e-05
0.000103454
0.000583855
-0.0003891
0.000303795
-9.74118e-07
-0.000640197
-0.000569184
-0.000522456
-5.85851e-05
-5.79112e-05
-8.52424e-05
-2.70768e-05
1.75857e-05
-0.000232375
1.96118e-05
-2.24093e-05
0.000114767
-7.26688e-05
-4.40134e-05
-5.23705e-05
-0.000178252
-6.68669e-05
-0.000393247
-5.18343e-06
-3.44795e-06
2.17496e-05
-2.30361e-05
0.000503713
0.00117792
-0.000164449
-0.000162646
-0.000300951
0.000436805
-0.000480096
-3.02455e-05
8.23619e-07
-0.000367473
-1.19758e-05
-0.000305942
7.80455e-05
-0.000248758
-0.000394192
0.00137839
7.76184e-05
-4.77525e-05
-5.09406e-05
5.0231e-05
0.000104506
8.04215e-05
-0.000234774
0.000138812
0.000365206
0.000415307
0.000428386
0.000228883
-9.46325e-06
-6.18283e-05
-0.000437475
-0.000187147
9.97389e-05
-4.35223e-06
0.00303009
0.000671316
-0.000175848
-0.00018617
-0.00111005
-0.000131321
-0.000254658
8.48255e-05
1.76313e-05
-0.000218969
0.000141275
-5.13847e-05
-0.000142413
-0.000597056
0.00106508
7.31094e-05
7.63361e-05
7.00358e-06
-0.000261771
-0.00173263
1.55337e-05
0.000125362
1.49756e-05
0.000108855
-6.84817e-05
5.03029e-05
0.000535824
-0.000517345
-0.000297869
0.000209635
0.000229249
0.00259619
0.00243188
0.000157481
0.00360395
1.75738e-05
-0.000438334
-8.25376e-05
0.000126013
9.73466e-05
6.02118e-05
-0.000104852
0.000157217
0.000119383
-7.80773e-05
-7.90715e-05
-0.00307573
1.66762e-05
-9.87597e-05
-0.000113212
0.000442945
0.000183022
0.000340449
0.000158348
-0.000241769
-6.54664e-06
-7.60427e-05
-2.40315e-05
0.000108096
1.07441e-05
-1.94983e-05
-4.7814e-05
-1.04132e-05
-0.000275952
-1.42788e-06
-7.02139e-05
3.12013e-05
-0.000505327
3.70564e-05
-0.00110911
-0.000382276
-0.000209545
-0.00145186
0.000168717
-0.000314724
-0.00117833
-0.00019214
-2.1816e-05
0.000284805
0.000132954
0.000736537
-0.000157698
-0.00019178
0.000135947
7.00331e-05
-0.000372443
5.45888e-05
0.000102065
-0.00122854
-1.95291e-05
-6.06651e-05
4.74429e-05
-9.52004e-06
-7.34211e-05
-3.33638e-06
-1.62745e-05
9.67016e-05
-0.00014457
-6.08892e-05
0.00014219
-0.000210573
0.000788719
-1.46363e-05
6.87908e-05
0.000238929
-0.000324519
-3.16063e-05
-1.82421e-05
-9.33663e-06
-2.03006e-05
-9.99838e-05
0.00010158
3.80916e-05
0.000855463
0.000218113
-0.000372747
9.47411e-05
-5.76488e-05
-3.59673e-05
-1.71042e-05
-2.57918e-05
7.23954e-05
-0.000220311
-5.31318e-05
-6.63692e-05
-0.000292493
5.15101e-06
0.00056421
-1.20759e-05
0.000192992
0.000142525
8.73261e-05
0.000186104
-0.000229329
1.82019e-05
7.25654e-05
-0.000247517
-0.000210906
-5.41726e-05
0.000577881
1.30816e-05
6.11858e-05
6.8677e-06
0.000158256
-0.000318164
-0.000385303
0.000294774
6.34139e-05
-7.60313e-05
1.638e-06
3.22644e-05
1.1423e-05
-1.21661e-05
-0.000659473
8.19953e-05
-0.000762683
0.000223444
-0.000357578
0.000607751
2.96861e-05
0.000104581
5.50531e-05
-0.000136966
-0.000113124
0.000391687
-0.000102286
-0.000189407
-9.14409e-05
-4.71076e-05
-4.43064e-05
3.92425e-05
0.000185436
-0.000130805
-9.00455e-06
0.00156682
0.000686409
-0.000141216
-0.000238862
-0.000151391
0.000512744
-8.94656e-05
-0.000550152
-0.000119145
0.00103726
-0.000366756
-4.85983e-05
4.01073e-05
0.000399605
-0.000465079
-1.8058e-05
0.0012831
-4.8066e-06
0.000147277
-8.21088e-05
0.000217248
0.000251459
6.80719e-05
0.000395358
-0.0002699
-0.000248612
1.29628e-05
-0.00016702
7.8843e-05
-0.000164569
-0.000440113
0.000364409
0.000819674
4.42148e-05
-9.29534e-05
-6.50916e-05
-0.000112769
-0.000511403
6.47888e-05
-0.000160766
-4.0803e-05
-3.91428e-05
-4.36296e-06
-0.000428157
-6.8091e-05
-0.000632497
7.71418e-05
3.04118e-05
-0.000581688
-0.00057887
2.27952e-05
3.59212e-06
0.000431803
0.000117703
0.000224618
0.000277313
0.000297856
9.53074e-05
0.000196138
0.000460616
5.04735e-05
-4.95842e-05
0.000152643
2.30689e-05
-2.30904e-05
-2.237e-05
-7.35679e-05
-1.48951e-05
-5.04996e-05
-1.99091e-05
-3.8708e-05
8.19575e-05
-5.51661e-05
5.94746e-05
0.000164963
-2.67479e-05
-2.35788e-05
6.19291e-05
-8.0764e-05
4.86003e-05
8.94348e-05
-0.000164988
0.000102191
8.0567e-05
9.23437e-05
-0.000343149
0.000156693
-0.000162869
-2.8878e-05
7.98417e-06
-0.000364872
-0.000441657
0.000223076
-2.94993e-05
-0.000440526
8.50138e-05
0.000211506
-0.000247751
-4.15775e-05
7.99706e-05
-0.000377465
-8.65312e-05
-0.000371909
3.93653e-05
9.76297e-06
7.13428e-05
0.000398115
0.000367476
-9.60236e-05
1.76359e-05
0.000274585
6.16789e-05
0.00010732
0.000228251
-0.000307162
0.000208253
-9.63178e-05
0.000233763
0.00040985
-6.50491e-05
-0.00079924
-0.000375604
-0.000290514
0.000293757
0.00027946
-0.000254751
-7.506e-06
-3.24579e-05
-0.000657067
-9.25865e-05
-0.000578469
-3.1913e-05
3.72334e-05
-0.000586271
0.000286705
-2.93755e-05
0.000458132
0.000215361
-0.000927004
8.90035e-05
-8.4394e-05
-0.000321804
-1.44478e-05
1.01541e-06
-3.48802e-05
1.42662e-05
0.000163312
-0.000140791
0.0002377
-2.59879e-05
0.00295352
0.00068577
6.39912e-05
0.000349801
0.000191082
0.00166725
0.000928037
4.82437e-06
-8.40746e-06
-6.69681e-05
-0.00037819
-0.00105329
-0.000167761
-0.000145735
0.00464447
3.81351e-05
-2.1344e-05
0.000717451
-0.000207158
0.00389851
-0.00166302
-0.000500012
1.11873e-05
-9.39662e-05
9.76031e-05
-0.000286819
3.06054e-05
6.81304e-05
0.000353868
4.69587e-05
0.000421192
-0.000121798
0.000242793
0.000339894
8.23046e-05
-1.45954e-05
0.000110795
0.00012989
5.01258e-05
-0.000327156
-8.45628e-06
3.27706e-05
-2.59291e-05
0.000239866
9.46857e-05
-1.38885e-05
-0.000286831
0.000190799
0.000842368
0.000189548
-0.000124937
0.000165901
6.78216e-05
-0.000117775
0.000128442
9.0482e-05
0.000167091
0.000398193
4.31501e-05
-0.000303205
4.68578e-05
-0.000582482
-0.000199254
6.7787e-05
0.000715731
0.000604958
0.000366016
5.13785e-06
5.69002e-06
1.73862e-05
-2.05693e-06
0.00136228
-9.09722e-05
-0.000437902
0.000286419
-0.000267287
-4.98135e-06
1.87045e-05
1.92376e-05
-0.000332374
4.66655e-06
-3.37209e-05
2.96479e-05
-5.73121e-05
0.0071946
0.00161075
-7.5969e-05
1.69845e-05
2.53689e-05
9.50747e-05
-4.27778e-05
-2.3297e-06
1.01935e-05
-0.000195216
-1.79875e-05
-9.39386e-05
-0.000194364
-1.58808e-05
-2.84933e-05
-1.38545e-06
8.76783e-05
6.10357e-06
-5.10391e-06
0.00192444
0.000268405
0.000151642
0.000100448
-4.19931e-05
-0.000153456
0.000446169
0.000123735
0.000783975
6.76993e-05
0.000137044
4.74212e-05
-1.30031e-05
-0.000108137
4.79078e-05
-0.000254928
0.000165581
-0.000153436
6.46116e-06
-0.00027697
0.000323796
0.000258651
0.000105099
1.3626e-05
6.37635e-05
-0.00102378
-0.000267672
0.000699783
-1.07343e-06
4.23454e-05
-0.000104895
-0.000343
0.000408709
0.000248487
0.000320525
-0.000225622
-0.000139044
-0.000121866
0.000255873
2.79392e-05
0.000389664
1.41212e-05
2.79485e-05
-7.03195e-06
0.000202601
0.000653214
0.000192942
0.000121838
-0.000294742
-0.000101228
0.00087337
0.000604321
4.97688e-05
-0.00020632
4.70967e-05
-0.000182386
-6.59579e-05
8.20663e-06
0.000181204
0.000383579
7.91413e-05
-0.000191074
0.000106285
0.000151841
7.02143e-05
-5.70418e-05
-4.25078e-05
-0.000642603
-0.000272199
-0.000417791
0.000186092
6.12196e-06
0.000504131
-0.000344897
0.000455746
-6.69052e-05
-1.80799e-06
3.11627e-05
-0.00028402
-0.000246682
-0.00183418
3.20517e-05
4.4953e-05
-0.000302997
8.0514e-05
-0.000666573
0.00023617
-0.000253567
0.000145279
-0.000142111
1.37091e-05
-7.91646e-06
2.38972e-05
-0.000251361
-0.000263405
-0.000136209
-8.88131e-05
-7.1887e-05
2.59724e-05
9.8317e-05
0.000369164
0.000182634
0.00011259
6.66941e-05
-6.19079e-05
-0.000546784
-4.70696e-05
-0.000152168
0.000193691
-0.000180568
1.67345e-05
-0.000455384
-6.1211e-06
0.000591258
-0.000127179
-0.000135947
6.64396e-05
-2.93076e-05
0.000151807
6.53032e-05
2.75031e-06
0.000121473
5.04811e-05
0.00031177
-0.000746483
-0.00140738
7.56487e-05
-7.39052e-06
-0.000591275
1.49824e-05
-0.000294812
0.000112763
-6.55057e-05
-1.47469e-05
0.000334909
-0.000345604
5.38715e-06
-0.000694702
0.00149848
-8.16526e-05
-0.0001239
-6.72781e-05
-0.000139464
0.000713756
-5.51218e-05
7.42832e-05
0.000641927
5.27078e-05
-8.28727e-05
0.00523517
0.00170995
-0.000191721
-0.000256887
0.000919648
0.00554704
0.000161345
0.00108874
0.00029258
0.000509337
1.98218e-05
3.75789e-05
0.0011323
0.000208145
1.40846e-05
0.000283374
-0.000379757
-7.78459e-06
0.00197984
0.000170495
0.000285971
-3.68662e-05
-6.93542e-05
0.0010807
9.86534e-05
0.00102896
-3.68016e-05
2.53117e-05
0.00025038
9.44392e-05
-0.000385352
0.00018499
-0.000114411
-0.000278471
3.62973e-05
5.05095e-05
-8.26772e-05
-3.13157e-05
0.000284527
1.11786e-05
0.000238249
-0.000198793
-0.000223778
0.000393543
0.00359589
3.01132e-05
-3.21012e-05
0.00118871
0.00046916
0.000811821
0.000103083
-0.000164899
-1.92168e-05
-9.9394e-06
-0.00023703
-0.000365291
0.000504341
-7.38015e-06
0.00163755
0.00185224
-3.0232e-05
0.0021824
-8.43979e-05
-2.10091e-06
6.3094e-05
0.000353496
0.000902796
0.000148254
0.000159595
-0.000131342
0.000102542
-6.44113e-05
9.43817e-05
7.73907e-05
7.75228e-05
3.06761e-05
-5.04831e-05
2.88622e-05
-0.00031167
0.000304686
4.13395e-05
-0.000243504
6.10409e-05
6.47529e-05
0.000380596
0.000246311
0.000213368
2.32908e-05
7.21243e-05
0.00247748
-4.49402e-05
2.02633e-05
-0.00153486
1.66015e-05
0.000112502
6.09834e-05
-0.0002794
-6.63782e-05
0.000324749
-3.04304e-05
4.74651e-05
0.000179579
-3.77226e-05
0.000198111
2.77419e-05
-6.23269e-05
-3.73628e-05
-3.02115e-06
4.20564e-05
1.29519e-05
0.000141139
0.00448792
-3.64058e-05
1.45828e-06
9.42115e-05
0.000717842
4.13966e-05
0.000426383
-7.53253e-05
-2.40977e-05
7.38871e-05
1.95726e-05
-1.13965e-05
0.000142738
2.28973e-05
-0.000442496
-0.00021284
-0.00486856
-9.22674e-05
5.5155e-05
0.000190341
0.000501071
0.000494702
0.000172149
0.000323733
0.000376998
0.000149583
-3.14147e-05
-0.000669691
0.000450449
1.79942e-05
3.72071e-06
-1.23326e-05
9.89643e-05
-0.000371414
7.45188e-05
0.00081152
0.00200256
1.16738e-05
0.00028561
-7.40207e-05
3.03912e-05
-0.000181991
0.000851402
-0.000215742
-0.00196491
-9.25705e-05
0.00448503
0.00394956
-0.00216381
0.000406259
-0.000489263
0.00241823
0.00139245
0.000103057
0.000145532
-0.00247909
0.00145429
-5.84584e-05
0.000382179
0.000173371
-2.82002e-05
-0.000277066
0.000791434
0.000124244
0.000220463
5.00873e-05
0.00378412
0.00306411
-0.00017899
-0.00101422
-0.00415537
0.000627975
-3.55533e-05
0.00021074
0.000189686
-1.76785e-05
2.44703e-05
-3.95773e-05
-0.000817861
-3.75988e-05
0.000133106
-0.000248017
-0.000240608
-2.84026e-05
9.52276e-05
-5.54544e-05
5.87513e-05
-0.000215722
3.57811e-05
0.000142515
-4.72236e-05
0.000371324
-8.46231e-05
-0.000250606
-0.000124588
-0.000143413
0.000964307
0.000107562
0.000103594
-1.39037e-07
0.00019636
3.32059e-06
-0.000487807
-0.000176347
-0.000223636
-0.000572632
0.000620558
0.00115423
-0.000467274
-0.000176182
1.65828e-07
-2.74115e-06
-0.000286699
0.00109774
0.00108558
0.00049263
-0.000372064
-0.000386514
0.000291939
9.83414e-06
-0.000266202
0.000354979
0.000441698
0.000215581
4.7509e-05
2.98747e-05
-0.000145357
9.67501e-05
-4.70599e-05
-0.000105276
-4.30679e-05
-4.04384e-05
-0.000242001
-0.000352673
-7.78009e-05
-7.28843e-05
0.000199074
-0.00210675
-0.000221219
0.000320406
0.000569418
0.000103141
-9.76446e-05
0.00351331
-9.215e-06
0.00562935
0.000233845
-0.000129933
0.000113067
-0.00171965
0.000237005
0.00111618
-0.000606722
-2.43752e-05
-0.0033551
-0.000101499
-8.32145e-05
0.000894634
-0.000463168
0.000166117
-0.000103924
0.000485692
8.09357e-05
0.000165619
-0.000458806
0.000528362
2.07224e-05
-0.000405618
8.85635e-05
-5.44349e-05
0.00151787
-5.41959e-05
-0.000292569
-0.000151835
-1.84867e-05
0.000436977
-0.000290504
0.00065033
-3.31014e-05
0.000356652
0.000108816
0.00013851
-0.00030463
-6.91429e-05
0.000204951
-0.000278115
-4.29097e-05
-4.91891e-05
-1.82184e-05
-0.000171382
1.19656e-06
6.18341e-05
-0.000297652
-0.000104561
-6.21741e-05
1.18722e-05
-8.03431e-05
1.17317e-05
-1.97773e-05
-4.01154e-06
5.78321e-05
8.8586e-05
0.00093566
0.000140753
2.10756e-06
0.000382511
-5.45849e-05
0.000138051
0.00529832
-8.13854e-05
-0.00110077
0.00458258
0.000197293
-0.000163068
-0.00035008
1.68705e-05
8.66189e-05
0.000900612
-0.0010047
0.000387989
0.000102081
-4.59671e-05
3.79087e-05
0.0002375
-3.85719e-06
0.00531941
-5.62959e-05
0.000142202
-4.41228e-05
6.30476e-08
8.23381e-05
0.000120509
0.000359721
0.000187986
-0.000227542
-0.000395574
2.67533e-05
-0.00036611
-0.000108021
-4.65014e-07
0.000329842
0.000476804
-3.12352e-05
3.33883e-05
0.000109578
5.99013e-05
0.000111715
0.000487442
-0.000301921
0.00117166
-0.000122581
-0.000746538
-6.80596e-05
-9.01346e-05
0.00351401
0.000210789
0.000123644
-0.0011511
0.00056953
-0.000111869
2.11485e-05
-2.43277e-05
3.8356e-05
0.000728299
1.89846e-05
7.50413e-05
0.00010417
-0.000155398
-0.000111291
0.000196761
-0.00110438
-0.000419924
9.39296e-06
7.46954e-05
4.65704e-05
0.000309694
-0.0012121
-4.14612e-05
-2.8409e-05
1.7962e-07
-1.90074e-05
-7.54708e-05
0.000322808
-9.55016e-06
2.90585e-05
-7.58996e-05
-1.83967e-05
-4.57779e-05
6.15056e-05
-4.63671e-05
-0.000113474
-4.30938e-05
2.05801e-05
0.000292647
0.00252804
0.000149773
1.3216e-07
0.000124057
-1.85444e-05
0.000203351
0.000634978
-0.000368037
-0.000361732
-7.41902e-05
-3.84235e-05
-7.59591e-05
0.000461382
-0.00103811
-3.54529e-06
-6.70945e-05
4.73021e-05
-0.000258626
-3.54474e-05
0.000285921
-3.41943e-05
0.000180748
-5.45918e-05
-5.32286e-05
9.53711e-06
-0.000346624
-6.17067e-05
0.00057346
0.000737134
7.05332e-05
-5.27072e-05
0.000628925
-0.000433749
-0.000543573
-1.41175e-05
-0.000389452
-3.7567e-06
-0.000515022
-0.00177592
8.32128e-05
0.00547354
-0.000271866
0.000121516
0.000141483
-5.88469e-06
-0.000101079
9.77795e-05
9.98653e-06
8.38865e-05
6.99963e-05
0.000212443
-0.000138275
0.000452525
-0.000109451
0.000534173
0.000484645
-0.000185589
-1.38974e-06
-4.99333e-05
4.14435e-05
2.15612e-05
0.000693591
-0.000230916
-0.000268711
-0.000423163
6.5641e-05
6.88991e-05
3.01562e-05
4.71403e-07
-7.57486e-05
-5.60869e-05
2.09066e-05
-3.85735e-07
2.46265e-05
4.7044e-05
-6.67517e-05
1.44969e-05
3.35469e-05
-0.000188016
-4.76396e-05
-9.24767e-05
-0.000154139
0.000155366
0.00119672
0.00124955
0.000303738
0.000130589
-0.000562282
0.000163297
1.88163e-05
0.000155642
2.88711e-05
6.78238e-05
5.34093e-06
5.67483e-06
-1.2677e-05
7.49861e-05
3.19875e-05
-0.000118305
-0.000371537
-0.000387754
0.000532348
0.000303093
0.000590627
0.000352328
-0.000823757
0.000367353
4.36099e-05
0.000353307
-0.000359302
0.000584795
-0.000117708
-0.000137524
0.000389743
5.14544e-05
7.00326e-05
0.000398587
0.000357475
0.000504422
-9.3893e-05
-0.000117149
-9.69506e-05
3.17709e-05
3.52818e-05
-9.22179e-06
1.69262e-06
2.51489e-07
-0.000475028
-0.000265082
0.000125055
-5.94304e-05
0.000562099
-4.88198e-05
0.000159713
-6.80553e-05
0.000104173
6.69358e-05
0.000618149
-0.000129819
0.000562447
8.20218e-06
-0.000749598
0.000655046
-0.000325014
0.00018248
8.6467e-05
-0.000347315
0.00456474
0.000739781
0.00419864
0.00139677
-4.56529e-06
3.15129e-06
8.92552e-05
0.000104581
7.49082e-05
-3.88019e-05
-8.56826e-05
-4.31032e-05
4.84687e-05
-0.000115635
-1.76397e-06
-0.00010501
-3.43639e-05
0.000152345
0.0001492
-4.41792e-06
3.91276e-05
-0.00223539
-0.000224356
0.000247384
-0.000325403
6.01611e-05
-4.94101e-06
0.00012648
0.000875292
1.29471e-05
-6.74188e-05
-0.000204133
-0.000129238
0.000195816
0.000315211
9.15295e-05
0.000206819
0.000716647
0.000140173
0.000111595
3.6877e-05
-4.69292e-05
-2.02851e-05
-0.000268396
-0.000391897
-0.000153419
1.5493e-06
-2.81114e-05
2.31724e-06
2.11513e-05
1.16478e-06
2.16394e-05
0.000193988
0.000134432
0.00010683
2.845e-05
0.000435785
-1.37309e-05
1.81232e-05
-0.000120816
0.000440537
-0.000603621
6.97552e-07
2.55375e-05
0.000230036
0.000245248
8.06536e-06
0.000265298
6.45573e-06
6.45817e-06
-1.34441e-05
-0.000131644
-1.75193e-05
-1.53856e-05
0.000345014
6.261e-05
-0.000456633
-2.54903e-05
6.23006e-05
-4.32316e-05
-0.000162137
0.000195898
0.000103463
-4.77049e-05
-1.93573e-05
2.87532e-05
-0.000368922
-9.13926e-05
2.06249e-05
0.000647184
-0.000268587
-0.000147491
0.000124692
0.000140705
5.72054e-06
3.43192e-06
0.000110334
3.11691e-05
0.000259343
0.000437277
-0.000125989
-0.000120057
-0.000190047
-0.000774843
0.000102556
-3.63506e-05
3.92069e-05
6.17765e-05
0.00073885
-8.15935e-05
-6.06874e-05
3.1052e-05
-0.000368742
0.00152262
-6.71148e-05
0.0016287
-6.10687e-05
-0.000355837
-0.000246019
-1.60356e-05
-5.57881e-05
-0.0011514
-0.000608912
-0.00229515
8.26399e-05
0.000194032
-5.20374e-05
-3.30735e-05
-0.000124931
3.00143e-05
-0.00025509
-4.21128e-05
2.87032e-05
0.000152059
0.000131895
0.000147884
0.000112429
4.65711e-05
-1.91077e-07
-0.000232425
0.003228
-0.000833552
-0.000424992
-0.000509987
2.66143e-05
0.00144843
0.000714495
-0.00046859
5.50698e-05
-5.0927e-05
-0.000162463
2.65149e-05
0.00053946
0.00023158
0.000160211
8.82689e-05
-0.000156504
0.00043203
-6.29185e-06
-0.000609048
-0.000225066
3.93782e-05
-0.000301397
-0.000522672
0.000237905
-6.47269e-05
0.000242587
-5.9052e-06
-0.000136873
0.00014266
0.000475292
0.00158175
-8.69481e-05
0.000222522
-0.000372174
-1.02155e-05
1.49403e-05
2.84825e-05
-4.10876e-06
-0.000165471
-0.00020485
3.70588e-05
0.000310219
0.000256487
0.000273171
1.54854e-05
-2.28156e-05
-1.08864e-07
0.000294257
-0.000279218
0.00023842
-0.000343547
0.000135001
0.000522
-0.000157765
1.07983e-05
-5.88389e-05
-1.45677e-05
-0.000688735
-6.86338e-05
-0.00069913
-0.000638595
-0.000711167
-0.00013075
-0.000211631
-6.16798e-05
3.85097e-05
2.69029e-05
1.83762e-05
0.000293351
0.000218498
-0.00210554
0.000205735
-2.73699e-05
4.60674e-05
3.77792e-05
1.6501e-05
-1.11428e-05
-3.24619e-05
-3.05146e-05
2.16823e-05
7.11782e-05
4.26259e-05
0.000132399
3.1099e-05
-1.67316e-05
0.000161501
0.00013931
-9.54204e-05
-0.000188765
0.000157345
-4.24889e-05
-0.000137331
-2.05165e-05
-0.000201886
-4.33558e-05
-4.54284e-06
0.000308311
0.00028506
0.000744708
0.000688901
0.000173528
0.00440567
-0.00298915
-0.00168255
0.00172627
-0.00202682
-0.000716051
0.000145887
-0.000405701
0.00110025
0.00165883
-0.000343432
1.41901e-05
-0.000180134
-1.12898e-05
-6.1925e-05
5.71786e-05
0.000849301
0.000243574
1.00586e-05
-0.000336143
-0.000210783
-0.000720273
0.000285778
1.93076e-05
2.57791e-05
-0.000255678
5.95232e-06
1.35972e-05
0.000142167
-6.54633e-05
-0.00039212
0.000257891
9.44952e-05
-0.000252724
0.00017264
-0.00249606
-0.000549236
0.000461088
0.000574244
-0.000292314
0.000464075
-0.00032744
0.0003342
0.00013013
1.67076e-05
0.000188631
0.00023776
-2.43092e-05
0.000799799
-8.62511e-05
-0.000123883
-1.9003e-05
-3.45881e-05
-0.000202219
7.40597e-06
-0.000145291
-0.000263685
0.000188402
-0.000179221
4.8457e-06
-0.00145581
-0.000571269
0.000145994
0.000148174
-0.00135667
-3.45397e-06
0.000124961
0.000173924
-0.0435517
0.000208342
0.00177932
0.00077672
0.00126416
-8.5067e-05
0.000144703
-0.000410893
0.000232109
0.000285267
-0.000173979
0.000190838
0.000345032
0.000322457
-0.000266126
0.000269197
7.51231e-05
-0.00111419
0.00107154
-0.00034335
9.87451e-07
-0.000438825
-0.000160446
0.000194217
0.000460907
0.000447636
2.09239e-05
4.01506e-06
1.24993e-05
-1.19522e-05
6.78481e-06
-4.45648e-05
-6.77092e-05
-1.37186e-05
-1.60885e-05
-7.32956e-06
1.49827e-05
1.97425e-05
-7.96878e-07
-2.37247e-05
5.38707e-05
-0.000112302
-0.000107253
0.000116759
0.00031752
0.000422937
7.51571e-05
0.000150465
5.32254e-05
-3.91136e-06
-0.000171086
0.000980083
-3.58812e-05
-0.000263385
0.00173988
0.00103545
0.000410022
0.00127211
-0.000739726
-8.45702e-05
7.04726e-05
-3.21011e-05
-5.07387e-05
-4.31104e-05
0.00290452
0.000514319
2.4749e-05
-7.14295e-05
3.98675e-05
2.87023e-05
6.84952e-06
5.92314e-06
0.00185238
-0.000173121
-0.000639925
-0.000579985
-0.000827287
9.9037e-05
-1.06897e-05
-2.41897e-06
0.00042535
5.6176e-05
1.98833e-05
-5.04519e-05
0.00032385
-3.9897e-05
-0.000426109
-0.000309072
-0.00025446
-4.57108e-05
0.00028507
0.000271541
4.2032e-05
-2.03623e-05
0.00047492
-0.00122766
-4.34334e-05
-0.000113756
0.000549673