# vtk DataFile Version 2.0
Unstructured Grid by M++
ASCII
DATASET UNSTRUCTURED_GRID
POINTS 4072 float
  0.875000   1.000000 0
  0.875000   0.984375 0
  0.875000   0.968750 0
  0.875000   0.953125 0
  0.875000   0.937500 0
  0.875000   0.921875 0
  0.875000   0.906250 0
  0.875000   0.890625 0
  0.875000   0.875000 0
  0.875000   0.859375 0
  0.875000   0.843750 0
  0.875000   0.828125 0
  0.875000   0.812500 0
  0.875000   0.796875 0
  0.875000   0.781250 0
  0.875000   0.765625 0
  0.859375   1.000000 0
  0.859375   0.984375 0
  0.859375   0.968750 0
  0.859375   0.953125 0
  0.859375   0.937500 0
  0.859375   0.921875 0
  0.859375   0.890625 0
  0.859375   0.875000 0
  0.859375   0.859375 0
  0.859375   0.843750 0
  0.859375   0.828125 0
  0.859375   0.812500 0
  0.859375   0.796875 0
  0.859375   0.781250 0
  0.859375   0.765625 0
  0.859375   0.671875 0
  0.859375   0.656250 0
  0.859375   0.640625 0
  0.843750   1.000000 0
  0.843750   0.984375 0
  0.843750   0.968750 0
  0.843750   0.953125 0
  0.843750   0.937500 0
  0.843750   0.921875 0
  0.843750   0.906250 0
  0.843750   0.875000 0
  0.843750   0.859375 0
  0.843750   0.843750 0
  0.843750   0.828125 0
  0.843750   0.812500 0
  0.843750   0.796875 0
  0.843750   0.781250 0
  0.843750   0.765625 0
  0.843750   0.671875 0
  0.843750   0.656250 0
  0.843750   0.640625 0
  0.828125   1.000000 0
  0.828125   0.984375 0
  0.828125   0.968750 0
  0.828125   0.953125 0
  0.828125   0.937500 0
  0.828125   0.921875 0
  0.875000   0.671875 0
  0.812500   0.921875 0
  0.890625   0.656250 0
  0.828125   0.906250 0
  0.875000   0.656250 0
  0.812500   0.906250 0
  0.890625   0.640625 0
  0.828125   0.890625 0
  0.875000   0.640625 0
  0.812500   0.890625 0
  0.890625   0.625000 0
  0.828125   0.875000 0
  0.890625   0.609375 0
  0.828125   0.859375 0
  0.890625   0.593750 0
  0.828125   0.843750 0
  0.890625   0.578125 0
  0.828125   0.828125 0
  0.890625   0.562500 0
  0.828125   0.812500 0
  0.828125   0.796875 0
  0.828125   0.781250 0
  0.828125   0.765625 0
  0.828125   0.671875 0
  0.828125   0.656250 0
  0.828125   0.640625 0
  0.875000   0.750000 0
  0.812500   1.000000 0
  0.875000   0.625000 0
  0.812500   0.875000 0
  0.875000   0.734375 0
  0.812500   0.984375 0
  0.875000   0.718750 0
  0.812500   0.968750 0
  0.875000   0.703125 0
  0.812500   0.953125 0
  0.875000   0.687500 0
  0.812500   0.937500 0
  0.875000   0.609375 0
  0.812500   0.859375 0
  0.875000   0.593750 0
  0.812500   0.843750 0
  0.875000   0.578125 0
  0.812500   0.828125 0
  0.812500   0.812500 0
  0.875000   0.546875 0
  0.812500   0.796875 0
  0.812500   0.781250 0
  0.812500   0.765625 0
  0.859375   0.750000 0
  0.796875   1.000000 0
  0.859375   0.625000 0
  0.796875   0.875000 0
  0.859375   0.734375 0
  0.796875   0.984375 0
  0.859375   0.718750 0
  0.796875   0.968750 0
  0.859375   0.703125 0
  0.796875   0.953125 0
  0.859375   0.687500 0
  0.796875   0.937500 0
  0.859375   0.609375 0
  0.796875   0.859375 0
  0.859375   0.593750 0
  0.796875   0.843750 0
  0.859375   0.578125 0
  0.796875   0.828125 0
  0.859375   0.562500 0
  0.796875   0.812500 0
  0.796875   0.796875 0
  0.859375   0.531250 0
  0.796875   0.781250 0
  0.796875   0.765625 0
  0.843750   0.750000 0
  0.781250   1.000000 0
  0.843750   0.625000 0
  0.781250   0.875000 0
  0.843750   0.734375 0
  0.781250   0.984375 0
  0.843750   0.718750 0
  0.781250   0.968750 0
  0.843750   0.703125 0
  0.781250   0.953125 0
  0.843750   0.687500 0
  0.781250   0.937500 0
  0.843750   0.609375 0
  0.781250   0.859375 0
  0.843750   0.593750 0
  0.781250   0.843750 0
  0.843750   0.578125 0
  0.781250   0.828125 0
  0.781250   0.812500 0
  0.843750   0.546875 0
  0.781250   0.796875 0
  0.781250   0.781250 0
  0.843750   0.515625 0
  0.781250   0.765625 0
  0.828125   0.750000 0
  0.765625   1.000000 0
  0.828125   0.625000 0
  0.765625   0.875000 0
  0.828125   0.734375 0
  0.765625   0.984375 0
  0.828125   0.718750 0
  0.765625   0.968750 0
  0.828125   0.703125 0
  0.765625   0.953125 0
  0.828125   0.687500 0
  0.765625   0.937500 0
  0.828125   0.609375 0
  0.765625   0.859375 0
  0.828125   0.593750 0
  0.765625   0.843750 0
  0.828125   0.578125 0
  0.765625   0.828125 0
  0.828125   0.562500 0
  0.765625   0.812500 0
  0.765625   0.796875 0
  0.828125   0.531250 0
  0.765625   0.781250 0
  0.765625   0.765625 0
  0.812500   0.750000 0
  0.750000   1.000000 0
  0.953125   1.000000 0
  0.812500   0.734375 0
  0.750000   0.984375 0
  0.812500   0.718750 0
  0.750000   0.968750 0
  0.812500   0.703125 0
  0.750000   0.953125 0
  0.812500   0.687500 0
  0.750000   0.937500 0
  0.812500   0.671875 0
  0.750000   0.921875 0
  0.812500   0.656250 0
  0.750000   0.906250 0
  0.812500   0.640625 0
  0.750000   0.890625 0
  0.812500   0.625000 0
  0.750000   0.875000 0
  0.812500   0.609375 0
  0.750000   0.859375 0
  0.812500   0.593750 0
  0.750000   0.843750 0
  0.812500   0.578125 0
  0.750000   0.828125 0
  0.750000   0.812500 0
  0.812500   0.546875 0
  0.750000   0.796875 0
  0.750000   0.781250 0
  0.812500   0.515625 0
  0.750000   0.765625 0
  0.796875   0.750000 0
  0.734375   1.000000 0
  0.796875   0.734375 0
  0.734375   0.984375 0
  0.796875   0.718750 0
  0.734375   0.968750 0
  0.796875   0.703125 0
  0.734375   0.953125 0
  0.796875   0.687500 0
  0.734375   0.937500 0
  0.796875   0.671875 0
  0.734375   0.921875 0
  0.796875   0.656250 0
  0.734375   0.906250 0
  0.796875   0.640625 0
  0.734375   0.890625 0
  0.796875   0.625000 0
  0.734375   0.875000 0
  0.796875   0.609375 0
  0.734375   0.859375 0
  0.796875   0.593750 0
  0.734375   0.843750 0
  0.796875   0.578125 0
  0.734375   0.828125 0
  0.734375   0.812500 0
  0.734375   0.796875 0
  0.796875   0.531250 0
  0.734375   0.781250 0
  0.734375   0.765625 0
  0.781250   0.750000 0
  0.718750   1.000000 0
  0.921875   1.000000 0
  0.781250   0.734375 0
  0.718750   0.984375 0
  0.781250   0.718750 0
  0.718750   0.968750 0
  0.781250   0.703125 0
  0.718750   0.953125 0
  0.859375   0.906250 0
  0.781250   0.687500 0
  0.718750   0.937500 0
  0.781250   0.671875 0
  0.718750   0.921875 0
  0.781250   0.656250 0
  0.718750   0.906250 0
  0.781250   0.640625 0
  0.718750   0.890625 0
  0.781250   0.625000 0
  0.718750   0.875000 0
  0.781250   0.609375 0
  0.718750   0.859375 0
  0.781250   0.593750 0
  0.718750   0.843750 0
  0.781250   0.578125 0
  0.718750   0.828125 0
  0.781250   0.562500 0
  0.718750   0.812500 0
  0.781250   0.546875 0
  0.718750   0.796875 0
  0.781250   0.531250 0
  0.718750   0.781250 0
  0.781250   0.515625 0
  0.718750   0.765625 0
  0.765625   0.750000 0
  0.703125   1.000000 0
  0.765625   0.734375 0
  0.703125   0.984375 0
  0.765625   0.718750 0
  0.703125   0.968750 0
  0.765625   0.703125 0
  0.703125   0.953125 0
  0.765625   0.687500 0
  0.703125   0.937500 0
  0.843750   0.890625 0
  0.703125   0.921875 0
  0.765625   0.656250 0
  0.703125   0.906250 0
  0.765625   0.640625 0
  0.703125   0.890625 0
  0.765625   0.625000 0
  0.703125   0.875000 0
  0.765625   0.609375 0
  0.703125   0.859375 0
  0.765625   0.593750 0
  0.703125   0.843750 0
  0.765625   0.578125 0
  0.703125   0.828125 0
  0.765625   0.562500 0
  0.703125   0.812500 0
  0.765625   0.546875 0
  0.703125   0.796875 0
  0.765625   0.531250 0
  0.703125   0.781250 0
  0.765625   0.515625 0
  0.703125   0.765625 0
  0.750000   0.750000 0
  0.687500   1.000000 0
  0.890625   1.000000 0
  0.750000   0.734375 0
  0.687500   0.984375 0
  0.750000   0.718750 0
  0.687500   0.968750 0
  0.578125   0.796875 0
  0.578125   0.781250 0
  0.578125   0.765625 0
  0.546875   0.953125 0
  0.546875   0.968750 0
  0.546875   0.718750 0
  0.546875   0.687500 0
  0.250000   0.609375 0
  0.937500   0.031250 0
  0.046875   0.703125 0
  0.734375   0.062500 0
  0.734375   0.078125 0
  0.734375   0.046875 0
  0.046875   0.593750 0
  0.046875   0.562500 0
  0.046875   0.531250 0
  0.718750   0.156250 0
  0.046875   0.609375 0
  0.734375   0.031250 0
  0.062500   0.609375 0
  0.234375   0.703125 0
  0.718750   0.125000 0
  0.046875   0.578125 0
  0.734375   0.000000 0
  0.062500   0.578125 0
  0.000000   0.828125 0
  0.234375   0.671875 0
  0.234375   0.625000 0
  0.718750   0.093750 0
  0.687500   0.156250 0
  0.062500   0.546875 0
  0.000000   0.796875 0
  0.718750   0.046875 0
  0.031250   0.687500 0
  0.687500   0.171875 0
  0.500000   1.000000 0
  0.078125   0.218750 0
  0.234375   0.593750 0
  0.718750   0.062500 0
  0.687500   0.125000 0
  0.000000   0.765625 0
  0.421875   0.500000 0
  0.031250   0.593750 0
  0.718750   0.015625 0
  0.687500   0.234375 0
  0.015625   0.812500 0
  0.703125   0.171875 0
  0.703125   0.187500 0
  0.703125   0.140625 0
  0.015625   0.781250 0
  0.437500   0.515625 0
  0.500000   0.796875 0
  0.078125   0.015625 0
  0.687500   0.203125 0
  0.250000   0.578125 0
  0.703125   0.109375 0
  0.000000   0.515625 0
  0.500000   0.765625 0
  0.062500   0.593750 0
  0.750000   0.015625 0
  0.015625   0.843750 0
  0.687500   0.000000 0
  0.500000   0.828125 0
  0.078125   0.046875 0
  0.015625   0.531250 0
  0.250000   0.546875 0
  0.703125   0.078125 0
  0.703125   0.031250 0
  0.015625   0.671875 0
  0.250000   0.515625 0
  0.000000   0.656250 0
  0.500000   0.906250 0
  0.078125   0.125000 0
  0.687500   0.015625 0
  0.031250   0.546875 0
  0.687500   0.031250 0
  0.500000   0.859375 0
  0.703125   0.000000 0
  0.703125   0.046875 0
  0.703125   0.015625 0
  0.500000   0.937500 0
  0.234375   0.531250 0
  0.031250   0.578125 0
  0.687500   0.062500 0
  0.500000   0.890625 0
  0.031250   0.796875 0
  0.453125   0.531250 0
  0.500000   0.968750 0
  0.078125   0.187500 0
  0.234375   0.562500 0
  0.031250   0.609375 0
  0.718750   0.031250 0
  0.687500   0.093750 0
  0.750000   0.046875 0
  0.000000   0.937500 0
  0.421875   0.671875 0
  0.718750   0.187500 0
  0.031250   0.828125 0
  0.765625   0.062500 0
  0.015625   0.953125 0
[...]
CELL_DATA 7648
SCALARS scalar_value float 1
LOOKUP_TABLE default
0.000961781
0.000230485
0.00344967
0.000932828
0.000180266
-6.21208e-06
0.000215442
-0.000300957
-1.2801e-05
-0.000940993
-0.000199171
0.00295028
-0.0002985
-0.000765224
-0.000711533
0.000155457
0.000129778
-0.000411908
0.000615322
3.71194e-05
-0.000142831
0.000680875
4.12211e-05
-7.42322e-06
0.00011526
0.000211191
0.000780394
-0.00024752
0.000396961
7.15887e-05
-0.00062546
-0.000583996
-0.000483257
-5.90077e-05
-5.59811e-05
-8.47959e-05
-1.14964e-05
3.36729e-05
-0.000233208
2.51732e-05
-1.81252e-05
0.000132165
-3.5497e-05
-4.88923e-05
-5.06879e-05
-0.000179719
-0.000170662
-0.000385358
-0.000177731
-3.14053e-05
1.53541e-05
-1.92102e-05
0.000719649
0.00138164
-0.000205263
-0.000159763
-0.000326523
0.000548556
-0.000478884
-7.35759e-05
8.42711e-06
-0.000147356
-7.84126e-06
-0.000202304
-9.18289e-05
-6.24402e-05
-0.000349967
0.00144112
-3.79789e-05
-3.34085e-05
-4.75235e-05
5.97799e-05
9.36683e-05
0.000129269
-0.000254156
0.000230655
0.000304408
0.000475459
0.000445051
0.000237692
-2.16118e-05
-9.98674e-05
-0.000564783
-6.73284e-05
6.58261e-05
-1.18755e-05
0.00320237
0.000632477
-0.00043727
-0.000398338
-0.000850521
-0.000100152
-0.000161328
6.19624e-05
-4.52069e-05
-0.000101382
3.91465e-05
-3.51852e-05
-0.000305841
6.47137e-05
0.00159911
0.000102813
0.000102792
1.61324e-05
-0.000292993
-0.00139455
0.000115285
0.000148196
-0.000163801
0.000197942
-5.98077e-05
5.49046e-05
0.000603262
-0.000577269
-0.000236255
0.000138532
0.000254418
0.00396974
0.0037233
-0.00059043
0.00486341
1.21596e-05
-0.000321468
-7.67456e-05
0.00013856
0.00010205
6.18834e-05
-2.06705e-05
0.00016475
2.63892e-05
-4.04802e-05
-7.64801e-05
-0.00334789
3.58814e-05
-0.000110809
-9.56441e-05
0.000405845
0.000144428
0.000353426
0.000175006
-0.000165655
3.51096e-05
-1.43718e-05
3.75358e-06
0.000161312
8.92309e-06
-4.54728e-05
-2.37287e-05
-7.71244e-05
-0.000225052
1.53428e-06
-5.06556e-05
4.49756e-05
0.000566037
5.11212e-05
-0.00166339
-0.000324593
-0.000226454
-0.00156084
0.000186594
-0.000302906
-0.00103306
-0.000200902
6.64947e-05
0.000234683
0.000196021
0.000826517
-0.000118882
-0.000101717
0.000122044
4.64465e-05
-0.000168451
6.63997e-05
0.000105844
-0.0014259
-6.23263e-06
-1.20816e-05
1.54822e-06
-1.40342e-05
-2.42782e-05
-4.43546e-06
-3.22368e-05
6.24957e-05
-0.000105914
-0.000146131
0.000153575
-0.000112727
0.000743732
-2.26752e-05
2.7543e-05
0.000308235
-0.000404499
0.000244626
-9.80542e-06
-3.83619e-05
-3.16537e-05
-0.000114391
0.000132988
1.53445e-05
0.000753504
0.000214491
-0.000466138
0.000231387
3.80246e-05
3.07483e-07
-6.9008e-05
-1.43488e-05
8.14959e-05
-0.000288967
-5.38207e-05
-3.228e-05
-0.000161928
-8.40449e-06
0.000611461
-1.20004e-05
0.000298201
8.89379e-05
9.30143e-05
0.000246684
-0.000270451
-1.43472e-05
8.0263e-05
-0.000168771
-0.000213926
-7.98761e-06
0.000667402
0.000224988
2.67163e-05
-3.81688e-05
6.12758e-05
-0.000118868
-0.000441091
0.000269989
5.78857e-05
-6.99842e-05
2.16864e-05
4.55141e-05
2.64911e-05
1.33208e-05
-0.000740531
7.25994e-05
-0.000816334
0.000272237
-0.000411561
0.000627568
6.81656e-05
-0.000194514
0.000141547
-0.000501604
-0.000112398
0.000285293
-3.66288e-05
-0.000165157
-3.80799e-05
-4.32285e-05
-6.3535e-05
3.87123e-05
0.000253074
-0.000166355
2.73994e-06
0.00220239
0.000906496
-0.000206525
-0.000321312
-0.000123305
0.000492176
3.34061e-05
-0.000630421
-5.78999e-05
0.00109164
-0.00037162
-6.13329e-05
-7.47084e-06
0.000627419
-0.000497908
0.000105494
0.00116352
-6.41019e-05
0.00019015
-9.08929e-05
0.00024401
0.000296948
6.98949e-05
0.00030472
-0.00042421
-0.000173405
-0.000141171
-0.000155145
0.000126896
-0.000215616
-0.000421262
0.000464323
0.000814536
5.74082e-05
-0.000109728
-4.86646e-05
-0.000106152
-0.000566881
0.000120075
-5.44335e-05
-9.98293e-05
-4.99878e-05
-4.60316e-06
-0.000510999
-8.28162e-05
-0.000639797
7.41075e-05
-3.39054e-05
-0.000604079
-0.000568243
2.75418e-05
2.98845e-05
6.2485e-05
0.000130262
0.000219482
0.000252941
0.000287032
0.00017953
0.000182407
0.000493869
6.00789e-05
-6.51727e-05
8.97356e-05
2.32134e-05
-4.29212e-05
-1.62979e-05
-7.00186e-05
-2.47672e-05
-4.67269e-05
-2.02079e-05
-6.72498e-05
0.000107024
-5.43587e-05
4.66756e-05
0.000197813
-1.24492e-06
-4.34972e-05
5.29155e-05
-3.56877e-05
4.16355e-05
8.04182e-05
-0.000187739
0.000103507
5.86617e-05
0.0001235
-0.000381927
0.000125885
-7.68777e-05
-1.75331e-05
-1.02492e-05
-0.000637268
-0.000501282
0.000308017
-2.05484e-05
-0.000524949
5.36232e-05
0.000235114
-0.000284628
9.47419e-06
8.67605e-05
-0.00038494
-7.28539e-05
-0.000362184
2.64669e-05
2.11179e-05
4.40225e-05
0.000314828
0.000426054
3.19668e-05
5.15997e-05
0.000459639
8.59609e-05
8.41117e-05
0.000174595
-0.000333699
0.000337872
-9.45248e-05
0.000272339
0.000447636
-9.50128e-05
-0.000987037
-0.000559909
-0.000345485
0.000314863
0.000313907
-0.00030519
-2.35228e-05
-7.13337e-05
-0.000459959
-0.000219298
-0.00031529
-3.24473e-05
-6.28983e-05
-0.000762249
0.000321541
-6.11779e-06
0.00052562
0.000209886
-0.00101311
7.02597e-08
-0.000125625
-0.000203653
-2.17257e-05
-7.03487e-06
-3.09452e-05
3.68037e-05
0.000185
-9.6297e-05
0.000269177
-2.01807e-05
0.0015346
0.000655864
0.000123818
0.000222447
0.000197196
0.00166752
0.00117707
1.82314e-05
4.71895e-05
-0.000104711
-0.000526323
-0.000750998
-0.000214414
-6.18048e-05
0.00530761
2.78268e-06
-2.48413e-05
-0.000148415
-9.36649e-05
0.00398385
-0.00225244
-0.000492146
2.61496e-05
-3.77724e-05
0.000146789
-0.000462104
6.0911e-05
7.10971e-05
7.88213e-05
0.00013484
0.000458555
-9.88137e-05
0.00032703
0.000170438
0.00010513
-1.86586e-05
0.000233359
0.000144427
6.06048e-05
-0.000241945
-8.59921e-06
0.000197811
9.55024e-06
0.000490702
2.26062e-05
-1.3415e-05
-0.00022139
0.00030403
0.000292984
0.000205162
-0.000320754
0.000170725
0.000726077
-0.000200295
0.000114978
7.7706e-05
0.000242412
0.000410477
8.61525e-06
-0.000261847
3.15667e-05
-0.000547493
-0.000274596
6.19474e-05
0.00183352
0.000649461
0.000708753
-6.86124e-07
-0.000200164
-6.82573e-05
2.96342e-05
0.00137665
-6.65867e-05
-0.00044202
0.000507926
-0.000232543
-1.68347e-05
1.48959e-05
2.47508e-05
-0.000411414
1.20157e-07
-1.17095e-05
6.07028e-05
4.46698e-05
0.00792384
0.00109451
-5.63721e-05
1.86405e-05
5.97976e-05
0.000175027
-2.78686e-05
1.3294e-06
7.60169e-06
-0.000214976
2.85758e-05
2.28154e-05
-0.000262556
-1.47817e-05
-8.27699e-05
8.92345e-07
3.7914e-05
5.85303e-06
-6.44096e-06
0.000992059
0.000301098
8.19363e-05
9.30062e-05
-5.80323e-05
-0.000215136
0.000653829
0.000283528
0.000677401
5.80459e-05
0.000137456
8.31362e-05
-5.21564e-06
-8.50789e-05
5.15322e-05
-0.000221417
9.51924e-05
0.000324209
-1.43062e-05
-0.000276791
0.000354862
0.000328393
0.000103329
6.69109e-06
0.000104864
-0.000938481
-0.000347922
0.00090805
-1.67803e-05
7.02786e-05
-8.58288e-05
-0.000349209
0.00037155
0.00031292
0.000371292
-0.000193877
-0.000189748
-0.000100801
0.00018854
5.88966e-05
0.000370741
2.19735e-05
6.4614e-05
-4.95964e-05
0.000206561
0.000910119
0.000165797
0.000127088
-0.000200873
-0.00012285
0.000958683
0.000851995
6.56728e-05
-0.00031987
3.1006e-05
-0.000293529
-6.09866e-05
3.77132e-05
0.000164713
0.000567612
1.27163e-05
-0.000187786
0.000110967
0.000150991
0.000103284
-1.58899e-05
-5.86216e-05
-0.000839833
-0.000358952
-0.000503872
0.000240376
-1.14987e-06
0.000441901
-0.000287677
0.000378239
-0.000182352
-2.45513e-05
-1.77045e-05
-0.000217162
-0.000398135
-0.00141342
2.85627e-05
5.03425e-05
-0.000505077
-0.000359508
-0.000955735
0.00028124
-0.000246364
0.000104297
-0.000180621
-5.21413e-05
-7.87822e-05
1.47531e-05
-0.000124597
-0.00020273
-8.52513e-05
-0.000152448
9.30744e-05
-3.90179e-05
-0.000136688
0.000311064
9.4928e-05
0.00011896
0.000105553
-8.39966e-05
-0.000537786
-0.000122407
-0.000206
0.000248323
-0.000176524
4.43381e-05
-0.000474943
5.31936e-06
0.000691691
-0.000118918
-0.000143789
9.29538e-05
-4.37748e-05
0.000116559
1.10316e-05
-2.24189e-05
0.000214732
3.90039e-05
0.000403508
-0.00154343
-0.00108751
7.77726e-05
-8.30556e-06
-0.000656977
9.44769e-06
-0.000276838
0.000191922
-2.49614e-05
-1.86714e-05
0.000378324
-0.000193209
-4.52015e-06
-0.000733623
0.00129911
-3.27114e-05
-4.339e-05
-1.99767e-05
-0.000191252
0.000667979
0.000103774
0.000201126
0.000519851
3.70552e-05
-0.000236747
0.00435756
0.00237344
-0.000223368
-0.000343475
0.00144631
0.00512397
0.000104631
0.00110544
0.00022951
0.000626039
8.32395e-05
3.34496e-05
0.0011419
0.000195486
1.05632e-05
0.000285535
-0.000168501
-2.11691e-05
0.00221912
0.000194506
0.000203435
5.2697e-05
-0.000107644
0.00117425
-1.13196e-05
0.0012346
-0.000104677
2.14211e-05
0.000208955
9.02343e-05
-0.000892082
0.000129324
-6.73504e-05
-0.00026496
8.47244e-06
4.6452e-05
-5.44915e-05
8.05165e-06
0.000409833
2.89072e-05
0.00023234
-0.000102979
0.000108178
0.000121323
0.00306226
5.22577e-05
-2.69221e-05
0.00126849
0.000333941
0.000627458
0.000115241
-0.000393702
-3.64834e-05
-4.24822e-05
-0.000351432
-0.000494744
0.000884406
2.56014e-05
0.0018555
0.0017971
-2.73371e-05
0.00243146
0.00014231
5.63978e-05
0.000119391
0.000366921
0.00130971
0.000199362
0.00012392
-0.00012684
8.79242e-05
-4.35309e-05
0.000105174
2.69261e-05
-0.000164427
3.54139e-05
-2.47022e-05
2.69716e-05
-0.000336811
0.000209155
0.000138682
-0.000102567
-5.38956e-06
6.1073e-06
0.000376277
0.000279414
0.000254419
8.29856e-05
3.95325e-05
0.00301706
-3.53124e-05
4.32621e-05
-0.00137243
2.903e-05
0.000156947
6.32242e-05
-0.000171797
-7.99276e-05
0.000258709
-6.63229e-06
8.68341e-05
0.000259561
1.92634e-05
0.000174127
-1.83382e-05
-4.88318e-05
-3.33542e-05
-2.53389e-06
3.93278e-05
-7.49584e-05
0.000407755
0.00335493
-4.83001e-05
1.70413e-05
8.98389e-05
0.000942839
0.000197297
0.000349614
-7.12652e-05
-9.8885e-06
8.49365e-05
5.09713e-05
3.57961e-05
0.000184909
0.00015249
-0.000163712
-0.000212897
-0.00524669
-0.000131282
5.47094e-05
0.000200758
0.000530838
0.000941542
0.000238213
0.000402309
0.000341719
0.000127275
2.68544e-05
-0.000880672
0.000472648
-2.16494e-05
-7.72642e-05
-0.000255744
9.11092e-05
-0.000283279
6.9958e-05
0.000837148
0.00232406
7.71776e-05
0.000314377
-6.96848e-05
0.000231274
-8.5013e-05
0.000357267
-0.000230972
-0.00301894
-3.62471e-05
0.00337465
0.00252876
-0.00289591
0.000463093
-0.000540981
0.00262359
0.0015075
0.000121581
0.000179643
-0.00268643
0.00130767
-6.31482e-05
0.000373276
0.000217691
-4.20024e-05
-0.000381671
0.000459509
5.25514e-05
0.000301341
4.98206e-05
0.00460652
0.00314536
-0.000144745
-0.00116173
-0.0048392
0.000681096
2.58681e-05
-6.10479e-05
0.000187382
-4.60433e-05
9.16847e-07
-1.2007e-05
-0.00102754
-0.000172597
8.58436e-05
-0.000246091
-0.000206513
-0.000102655
4.36225e-05
-9.91386e-05
1.84239e-05
-0.000237188
5.91683e-05
0.000123087
-0.00016497
0.000300252
7.02225e-05
-0.000232663
-2.42331e-05
-4.16967e-05
0.0012046
0.000103961
0.00012125
-2.56434e-05
0.000192798
-2.30809e-06
-0.000637432
-0.000104093
-0.000124093
-0.00045094
0.000206811
0.000767274
-0.000504457
-0.000189334
8.79332e-06
2.8474e-05
0.000105064
0.00124404
0.000917178
0.000698478
-0.000415622
-0.000412601
0.000298769
4.9548e-06
-0.000307619
0.000160838
0.000622716
0.000171546
7.67831e-05
4.2841e-05
-8.29266e-05
0.000119023
-4.11746e-05
-0.000197809
-2.85857e-05
-2.376e-05
-0.00033197
-0.000645225
-6.24047e-05
-6.89749e-05
0.000200822
-0.00234621
-0.000196242
0.000430606
0.000394361
-2.2646e-06
-5.01686e-05
0.00351126
-2.91579e-05
0.00538691
0.000140281
-0.000106466
0.000194323
-0.00210965
0.000156997
0.000159234
-0.00081492
-6.84394e-06
-0.00345755
-0.000133974
-0.000124759
0.000781246
-0.000517564
0.000153738
-0.000132967
0.000361072
9.89796e-05
8.85833e-05
-0.000640139
0.000837694
1.02414e-05
-0.000194314
0.000116915
8.76411e-05
0.00196274
-6.38457e-05
-0.000319352
-0.000171522
-1.96244e-05
0.00037959
-0.000253662
0.0006837
-5.30155e-05
0.000293677
0.000104119
0.000182233
-0.000332436
-3.87694e-05
0.000199987
-0.000340304
-7.16916e-05
-5.86854e-05
-3.13381e-05
4.54377e-05
-1.20577e-05
0.000281482
-0.000183392
-8.62358e-05
-5.34194e-05
3.48586e-06
-9.08651e-05
2.20771e-05
0.000189764
2.75711e-05
4.34115e-05
0.000115669
0.0013012
0.000748714
2.79216e-05
0.000571829
4.19963e-05
0.000136274
0.00549514
-8.96483e-05
-0.00222913
0.0054052
0.000285299
-8.49699e-05
-0.000458921
4.56498e-05
3.72959e-05
0.00141135
-0.00068605
0.000414862
8.83435e-05
-2.42921e-05
2.92464e-05
0.000233861
5.65667e-05
0.00560544
-3.08267e-05
-0.000653752
-2.832e-05
-5.31754e-06
8.46501e-05
0.000102147
0.000612516
-4.52732e-05
-0.000379008
-0.000339774
-4.35318e-05
-0.000370634
-0.000197148
8.15274e-05
0.000322683
0.000777138
0.000544406
6.86249e-05
0.000103077
7.19652e-05
0.000139641
0.000714634
-0.000100372
0.00130017
-0.000111456
-0.000864326
-0.000100651
-0.000123101
0.0022619
0.000169792
0.000112642
-0.00222598
0.00104012
-0.000134338
-0.000131906
-4.43258e-05
5.43962e-05
0.000740323
3.89433e-05
0.000132604
-1.62465e-05
-0.000154025
-5.34306e-05
0.00025603
-0.00127891
-0.000358696
8.18243e-06
5.58104e-05
0.000144278
9.90387e-05
-0.00144066
3.32581e-05
-1.12353e-05
-8.99891e-05
-6.08601e-05
-7.21497e-05
0.000429473
7.9146e-07
3.43517e-05
-6.24206e-05
1.46697e-05
-5.83756e-05
0.000125472
-5.82647e-05
-0.000112134
-8.52292e-06
-3.84626e-06
0.000201474
0.00325631
2.3691e-06
-7.49065e-06
0.000124133
-4.51273e-06
0.000220666
0.000848666
-0.000238188
-5.11434e-05
-6.76821e-07
-0.000112846
-0.000211936
0.000517653
-0.00107426
-2.89428e-05
-0.000157433
3.24016e-05
-0.000362401
-3.67133e-05
0.000303855
-5.86495e-05
0.000200608
-0.000174028
-0.000140316
-0.000155012
-0.00010518
-8.51567e-05
0.000802421
0.000829574
-1.25962e-05
-6.65395e-05
0.000860105
-0.000303179
-0.000812341
-2.35695e-05
-0.000599817
5.01937e-06
-0.00056274
-0.00131566
0.000106352
0.00471741
-0.00028036
0.000143023
0.000116121
2.08136e-05
-0.000219712
7.21787e-05
-1.2974e-05
-0.000710052
7.45119e-05
0.000249687
-0.000153778
0.000343129
-0.000238192
0.000655714
0.000531217
-0.000212388
-1.07665e-05
-3.60015e-05
0.000105866
3.89286e-05
0.000446251
-0.00025358
-0.000312218
-0.00040124
3.56083e-05
5.21533e-05
1.25197e-05
1.96544e-05
-8.41142e-05
-7.36996e-05
2.90995e-05
-1.255e-06
5.09285e-05
4.5215e-05
-6.91511e-05
1.70386e-05
4.82602e-05
-0.000197283
-3.04609e-05
-0.00013505
-0.000197012
0.000163114
0.00141836
0.00163497
0.000639351
0.000121391
-0.000531705
0.000114963
6.2051e-05
0.000144148
5.11921e-05
5.60157e-05
1.66309e-05
0.000122266
-6.28939e-06
7.28947e-05
-0.000312165
-0.000112231
-0.000396613
-0.000419166
0.000633399
0.000303876
0.00105868
0.000962292
-0.00084323
8.87331e-05
0.000527525
0.000402487
-0.00047204
0.000545962
-0.000249117
-0.000106616
0.000517481
-0.000354948
0.000113432
0.000394256
0.000310615
0.000536995
-0.000112867
-0.000139712
-8.92238e-05
2.33628e-05
3.87596e-05
-7.0649e-06
-2.41607e-05
-1.01788e-06
-0.00035924
-0.000204063
0.000169657
-0.000113648
0.000500809
-5.98953e-05
0.00010467
-3.42293e-05
8.78361e-05
4.6777e-05
0.000759223
-0.000267601
0.000760936
-5.27339e-05
-0.000878544
0.000773062
-0.000423599
0.000244138
9.5675e-05
-0.000343342
0.0042861
0.000852701
0.00352332
0.000971857
1.50021e-05
-1.7873e-05
0.000156496
0.000122482
0.000174954
2.92782e-05
-8.37706e-05
-6.28247e-05
4.28516e-05
-7.66098e-06
-9.2041e-05
-4.87492e-05
9.61251e-05
0.000130749
8.0933e-05
-5.4675e-06
4.8238e-05
-0.00221028
-0.000244021
0.00028175
-0.000344214
3.18977e-05
2.72387e-06
0.000124231
0.00077426
7.84817e-06
-5.16909e-05
-0.000145007
-5.1567e-05
0.000351777
0.000332318
7.93205e-05
0.000217723
0.000951534
0.000132397
0.000105751
1.16498e-05
-9.55355e-05
8.53698e-06
-0.000268553
-0.000371445
-1.76899e-05
-3.5196e-05
-4.94248e-05
-6.65942e-06
1.15371e-05
-7.33362e-06
4.26917e-05
0.00028045
0.000209267
0.000201394
1.41558e-05
0.000233973
-3.06622e-05
7.822e-05
-0.000287086
0.000386716
-0.000515246
-5.82203e-06
5.61078e-05
5.95353e-07
8.04337e-05
-3.50826e-05
0.000248745
2.42168e-05
2.24037e-05
-5.74523e-06
-5.1175e-05
-9.28372e-06
-1.31585e-05
0.000401526
5.94033e-05
-0.000395866
9.34851e-05
1.49977e-05
-2.31967e-05
-0.000160669
0.000264502
8.53448e-05
-3.37818e-05
9.96239e-06
0.00022524
-0.000273136
4.18206e-05
3.31844e-06
0.000600822
-0.000211263
2.4627e-05
0.000137367
0.000131006
1.31206e-05
7.12938e-05
7.64804e-05
6.36394e-05
0.000398137
0.000434956
-0.000111044
-2.8356e-05
-0.000216648
-0.000646817
9.89078e-05
-3.36679e-05
6.01582e-05
8.82721e-05
0.000673967
-7.31181e-05
5.02369e-06
2.98539e-05
-0.000301355
0.00118728
-0.00030481
0.0013614
-9.03858e-05
-0.000455392
-0.000261209
3.51084e-07
-0.000123495
-0.000997581
-0.000808791
-0.00228175
5.90357e-05
0.000245944
-5.57106e-05
-6.36483e-05
-0.000191397
6.02149e-05
-0.00038488
-2.83446e-05
2.82628e-05
9.10351e-05
0.000232663
6.88029e-05
9.88887e-05
7.35646e-05
1.61005e-06
1.67601e-05
0.00396112
-0.00124161
-0.00142021
-0.000873885
-9.09588e-05
0.00190331
0.000642873
-0.000519968
7.51873e-05
-3.89528e-05
-9.04642e-05
1.9237e-06
0.000706044
0.000147434
9.76672e-05
0.000126971
-0.00014882
0.000569345
5.8405e-06
-0.000870627
-0.000457746
0.000132891
0.000100699
-0.00068649
0.000196188
3.78448e-05
0.000173831
-7.09298e-06
-0.000535618
-0.000236256
0.000140237
0.00318666
-0.000183354
0.000183716
-0.000338811
-6.91048e-05
4.82209e-05
1.16982e-05
2.33049e-05
-0.000372815
-0.00021417
-1.42945e-05
0.000284072
0.000230586
0.000312069
-9.65292e-06
-6.09942e-05
2.08006e-06
0.000414005
-0.000306822
0.000232076
-0.000379667
0.000151522
0.000570106
-0.000291447
-0.000199351
-7.50297e-05
-2.89472e-05
-0.000863522
-0.000102736
-0.000387831
-0.000787853
-0.000787619
-0.000198621
-0.000257124
-4.47812e-05
2.55294e-05
5.18496e-05
1.5937e-05
0.000230558
3.65733e-05
-0.00243269
0.000227701
-1.09415e-05
5.19055e-05
1.01339e-05
0.00011486
1.85672e-05
2.32364e-05
-3.41429e-05
2.39119e-05
5.40989e-05
8.19703e-05
-7.36362e-05
1.57486e-05
1.97641e-05
0.000144926
0.000106054
0.000404237
-6.17932e-05
5.94012e-05
-9.54873e-05
-0.000128864
-1.12618e-05
-0.000311934
-8.05376e-05
-7.73195e-06
0.000195391
0.000490737
0.000809982
0.000706201
0.000254286
0.00384776
-0.00374467
-0.00285624
0.0022626
-0.00277443
-0.00116324
9.25701e-05
-0.00046079
0.00190676
0.0022705
-0.0011746
1.64142e-05
-0.000261595
-9.46047e-06
-6.00149e-05
9.3631e-05
0.00083154
0.000243599
2.54853e-07
-0.000113715
-0.000283815
-0.000732617
0.000263425
1.34142e-06
9.11587e-05
-0.000428293
-2.64175e-05
5.15339e-05
0.000182059
-8.47453e-05
-0.000415616
0.000143049
7.32554e-05
-0.00023853
0.000191949
-0.0033914
-0.000832172
0.00210194
0.000514227
-0.00014923
0.000331773
-0.000541402
0.000108216
0.000174193
8.97315e-06
0.000122681
0.000182178
0.000175153
0.00050745
-4.38683e-07
2.2221e-06
-2.73678e-05
2.9462e-05
-0.00017237
-3.12466e-05
-5.18702e-05
-0.000342884
0.000187063
-0.000149283
-2.95881e-05
-0.00152883
-0.000816268
0.00010823
0.000118672
-0.00126377
-4.80709e-05
-7.85402e-06
4.77955e-05
-0.0430788
0.000154117
0.00294755
0.00230428
0.00207712
-0.00012079
0.000168277
-0.000392283
0.00019032
0.000326542
-0.000132396
0.00128618
0.00021021
0.000623776
-0.00029483
0.000338258
0.000143058
-0.00250267
-0.000159652
-0.00173115
1.39139e-06
-0.000664027
-0.000347899
0.000291379
0.000976149
-0.000161503
1.95208e-05
2.97008e-06
5.54716e-06
-3.23284e-06
4.012e-06
-1.89067e-05
-7.98805e-05
-9.99322e-06
-1.82544e-05
-1.30353e-05
9.48122e-06
2.07287e-05
3.2105e-06
-3.38514e-05
3.48943e-05
-4.56706e-05
-4.28469e-05
-9.02553e-05
0.000324253
0.00024947
9.40773e-05
0.00011214
-2.19019e-05
1.73932e-06
0.000704693
0.000453211
0.000154194
0.000317138
0.00196766
0.00165133
0.00105566
0.00166113
-0.000647705
-0.000168688
6.36173e-05
-7.49979e-06
-6.55555e-05
-4.61443e-05
0.00369854
0.000305237
0.000200854
-0.000167685
5.45554e-05
3.36628e-05
1.12805e-05
1.58828e-06
0.00153826
-3.57955e-05
-0.00068025
-0.00037068
-0.0009981
3.96826e-05
-1.38842e-05
9.7957e-06
0.000297196
4.79074e-05
1.45704e-07
-2.16716e-05
0.000295497
8.67627e-05
-0.000465896
-0.000212501
-0.000464865
-1.55328e-05
0.000175128
0.000276045
7.96517e-05
-4.20096e-05
0.000467558
-0.0011457
-4.83556e-05
-0.000168652
0.000648977
-0.000213996
-0.000207702