# vtk DataFile Version 2.0
Unstructured Grid by M++
ASCII
DATASET UNSTRUCTURED_GRID
POINTS 4072 float
  0.875000   1.000000 0
  0.875000   0.984375 0
  0.875000   0.968750 0
  0.875000   0.953125 0
  0.875000   0.937500 0
  0.875000   0.921875 0
  0.875000   0.906250 0
  0.875000   0.890625 0
  0.875000   0.875000 0
  0.875000   0.859375 0
  0.875000   0.843750 0
  0.875000   0.828125 0
  0.875000   0.812500 0
  0.875000   0.796875 0
  0.875000   0.781250 0
  0.875000   0.765625 0
  0.859375   1.000000 0
  0.859375   0.984375 0
  0.859375   0.968750 0
  0.859375   0.953125 0
  0.859375   0.937500 0
  0.859375   0.921875 0
  0.859375   0.890625 0
  0.859375   0.875000 0
  0.859375   0.859375 0
  0.859375   0.843750 0
  0.859375   0.828125 0
  0.859375   0.812500 0
  0.859375   0.796875 0
  0.859375   0.781250 0
  0.859375   0.765625 0
  0.859375   0.671875 0
  0.859375   0.656250 0
  0.859375   0.640625 0
  0.843750   1.000000 0
  0.843750   0.984375 0
  0.843750   0.968750 0
  0.843750   0.953125 0
  0.843750   0.937500 0
  0.843750   0.921875 0
  0.843750   0.906250 0
  0.843750   0.875000 0
  0.843750   0.859375 0
  0.843750   0.843750 0
  0.843750   0.828125 0
  0.843750   0.812500 0
  0.843750   0.796875 0
  0.843750   0.781250 0
  0.843750   0.765625 0
  0.843750   0.671875 0
  0.843750   0.656250 0
  0.843750   0.640625 0
  0.828125   1.000000 0
  0.828125   0.984375 0
  0.828125   0.968750 0
  0.828125   0.953125 0
  0.828125   0.937500 0
  0.828125   0.921875 0
  0.875000   0.671875 0
  0.812500   0.921875 0
  0.890625   0.656250 0
  0.828125   0.906250 0
  0.875000   0.656250 0
  0.812500   0.906250 0
  0.890625   0.640625 0
  0.828125   0.890625 0
  0.875000   0.640625 0
  0.812500   0.890625 0
  0.890625   0.625000 0
  0.828125   0.875000 0
  0.890625   0.609375 0
  0.828125   0.859375 0
  0.890625   0.593750 0
  0.828125   0.843750 0
  0.890625   0.578125 0
  0.828125   0.828125 0
  0.890625   0.562500 0
  0.828125   0.812500 0
  0.828125   0.796875 0
  0.828125   0.781250 0
  0.828125   0.765625 0
  0.828125   0.671875 0
  0.828125   0.656250 0
  0.828125   0.640625 0
  0.875000   0.750000 0
  0.812500   1.000000 0
  0.875000   0.625000 0
  0.812500   0.875000 0
  0.875000   0.734375 0
  0.812500   0.984375 0
  0.875000   0.718750 0
  0.812500   0.968750 0
  0.875000   0.703125 0
  0.812500   0.953125 0
  0.875000   0.687500 0
  0.812500   0.937500 0
  0.875000   0.609375 0
  0.812500   0.859375 0
  0.875000   0.593750 0
  0.812500   0.843750 0
  0.875000   0.578125 0
  0.812500   0.828125 0
  0.812500   0.812500 0
  0.875000   0.546875 0
  0.812500   0.796875 0
  0.812500   0.781250 0
  0.812500   0.765625 0
  0.859375   0.750000 0
  0.796875   1.000000 0
  0.859375   0.625000 0
  0.796875   0.875000 0
  0.859375   0.734375 0
  0.796875   0.984375 0
  0.859375   0.718750 0
  0.796875   0.968750 0
  0.859375   0.703125 0
  0.796875   0.953125 0
  0.859375   0.687500 0
  0.796875   0.937500 0
  0.859375   0.609375 0
  0.796875   0.859375 0
  0.859375   0.593750 0
  0.796875   0.843750 0
  0.859375   0.578125 0
  0.796875   0.828125 0
  0.859375   0.562500 0
  0.796875   0.812500 0
  0.796875   0.796875 0
  0.859375   0.531250 0
  0.796875   0.781250 0
  0.796875   0.765625 0
  0.843750   0.750000 0
  0.781250   1.000000 0
  0.843750   0.625000 0
  0.781250   0.875000 0
  0.843750   0.734375 0
  0.781250   0.984375 0
  0.843750   0.718750 0
  0.781250   0.968750 0
  0.843750   0.703125 0
  0.781250   0.953125 0
  0.843750   0.687500 0
  0.781250   0.937500 0
  0.843750   0.609375 0
  0.781250   0.859375 0
  0.843750   0.593750 0
  0.781250   0.843750 0
  0.843750   0.578125 0
  0.781250   0.828125 0
  0.781250   0.812500 0
  0.843750   0.546875 0
  0.781250   0.796875 0
  0.781250   0.781250 0
  0.843750   0.515625 0
  0.781250   0.765625 0
  0.828125   0.750000 0
  0.765625   1.000000 0
  0.828125   0.625000 0
  0.765625   0.875000 0
  0.828125   0.734375 0
  0.765625   0.984375 0
  0.828125   0.718750 0
  0.765625   0.968750 0
  0.828125   0.703125 0
  0.765625   0.953125 0
  0.828125   0.687500 0
  0.765625   0.937500 0
  0.828125   0.609375 0
  0.765625   0.859375 0
  0.828125   0.593750 0
  0.765625   0.843750 0
  0.828125   0.578125 0
  0.765625   0.828125 0
  0.828125   0.562500 0
  0.765625   0.812500 0
  0.765625   0.796875 0
  0.828125   0.531250 0
  0.765625   0.781250 0
  0.765625   0.765625 0
  0.812500   0.750000 0
  0.750000   1.000000 0
  0.953125   1.000000 0
  0.812500   0.734375 0
  0.750000   0.984375 0
  0.812500   0.718750 0
  0.750000   0.968750 0
  0.812500   0.703125 0
  0.750000   0.953125 0
  0.812500   0.687500 0
  0.750000   0.937500 0
  0.812500   0.671875 0
  0.750000   0.921875 0
  0.812500   0.656250 0
  0.750000   0.906250 0
  0.812500   0.640625 0
  0.750000   0.890625 0
  0.812500   0.625000 0
  0.750000   0.875000 0
  0.812500   0.609375 0
  0.750000   0.859375 0
  0.812500   0.593750 0
  0.750000   0.843750 0
  0.812500   0.578125 0
  0.750000   0.828125 0
  0.750000   0.812500 0
  0.812500   0.546875 0
  0.750000   0.796875 0
  0.750000   0.781250 0
  0.812500   0.515625 0
  0.750000   0.765625 0
  0.796875   0.750000 0
  0.734375   1.000000 0
  0.796875   0.734375 0
  0.734375   0.984375 0
  0.796875   0.718750 0
  0.734375   0.968750 0
  0.796875   0.703125 0
  0.734375   0.953125 0
  0.796875   0.687500 0
  0.734375   0.937500 0
  0.796875   0.671875 0
  0.734375   0.921875 0
  0.796875   0.656250 0
  0.734375   0.906250 0
  0.796875   0.640625 0
  0.734375   0.890625 0
  0.796875   0.625000 0
  0.734375   0.875000 0
  0.796875   0.609375 0
  0.734375   0.859375 0
  0.796875   0.593750 0
  0.734375   0.843750 0
  0.796875   0.578125 0
  0.734375   0.828125 0
  0.734375   0.812500 0
  0.734375   0.796875 0
  0.796875   0.531250 0
  0.734375   0.781250 0
  0.734375   0.765625 0
  0.781250   0.750000 0
  0.718750   1.000000 0
  0.921875   1.000000 0
  0.781250   0.734375 0
  0.718750   0.984375 0
  0.781250   0.718750 0
  0.718750   0.968750 0
  0.781250   0.703125 0
  0.718750   0.953125 0
  0.859375   0.906250 0
  0.781250   0.687500 0
  0.718750   0.937500 0
  0.781250   0.671875 0
  0.718750   0.921875 0
  0.781250   0.656250 0
  0.718750   0.906250 0
  0.781250   0.640625 0
  0.718750   0.890625 0
  0.781250   0.625000 0
  0.718750   0.875000 0
  0.781250   0.609375 0
  0.718750   0.859375 0
  0.781250   0.593750 0
  0.718750   0.843750 0
  0.781250   0.578125 0
  0.718750   0.828125 0
  0.781250   0.562500 0
  0.718750   0.812500 0
  0.781250   0.546875 0
  0.718750   0.796875 0
  0.781250   0.531250 0
  0.718750   0.781250 0
  0.781250   0.515625 0
  0.718750   0.765625 0
  0.765625   0.750000 0
  0.703125   1.000000 0
  0.765625   0.734375 0
  0.703125   0.984375 0
  0.765625   0.718750 0
  0.703125   0.968750 0
  0.765625   0.703125 0
  0.703125   0.953125 0
  0.765625   0.687500 0
  0.703125   0.937500 0
  0.843750   0.890625 0
  0.703125   0.921875 0
  0.765625   0.656250 0
  0.703125   0.906250 0
  0.765625   0.640625 0
  0.703125   0.890625 0
  0.765625   0.625000 0
  0.703125   0.875000 0
  0.765625   0.609375 0
  0.703125   0.859375 0
  0.765625   0.593750 0
  0.703125   0.843750 0
  0.765625   0.578125 0
  0.703125   0.828125 0
  0.765625   0.562500 0
  0.703125   0.812500 0
  0.765625   0.546875 0
  0.703125   0.796875 0
  0.765625   0.531250 0
  0.703125   0.781250 0
  0.765625   0.515625 0
  0.703125   0.765625 0
  0.750000   0.750000 0
  0.687500   1.000000 0
  0.890625   1.000000 0
  0.750000   0.734375 0
  0.687500   0.984375 0
  0.750000   0.718750 0
  0.687500   0.968750 0
  0.578125   0.796875 0
  0.578125   0.781250 0
  0.578125   0.765625 0
  0.546875   0.953125 0
  0.546875   0.968750 0
  0.546875   0.718750 0
  0.546875   0.687500 0
  0.250000   0.609375 0
  0.937500   0.031250 0
  0.046875   0.703125 0
  0.734375   0.062500 0
  0.734375   0.078125 0
  0.734375   0.046875 0
  0.046875   0.593750 0
  0.046875   0.562500 0
  0.046875   0.531250 0
  0.718750   0.156250 0
  0.046875   0.609375 0
  0.734375   0.031250 0
  0.062500   0.609375 0
  0.234375   0.703125 0
  0.718750   0.125000 0
  0.046875   0.578125 0
  0.734375   0.000000 0
  0.062500   0.578125 0
  0.000000   0.828125 0
  0.234375   0.671875 0
  0.234375   0.625000 0
  0.718750   0.093750 0
  0.687500   0.156250 0
  0.062500   0.546875 0
  0.000000   0.796875 0
  0.718750   0.046875 0
  0.031250   0.687500 0
  0.687500   0.171875 0
  0.500000   1.000000 0
  0.078125   0.218750 0
  0.234375   0.593750 0
  0.718750   0.062500 0
  0.687500   0.125000 0
  0.000000   0.765625 0
  0.421875   0.500000 0
  0.031250   0.593750 0
  0.718750   0.015625 0
  0.687500   0.234375 0
  0.015625   0.812500 0
  0.703125   0.171875 0
  0.703125   0.187500 0
  0.703125   0.140625 0
  0.015625   0.781250 0
  0.437500   0.515625 0
  0.500000   0.796875 0
  0.078125   0.015625 0
  0.687500   0.203125 0
  0.250000   0.578125 0
  0.703125   0.109375 0
  0.000000   0.515625 0
  0.500000   0.765625 0
  0.062500   0.593750 0
  0.750000   0.015625 0
  0.015625   0.843750 0
  0.687500   0.000000 0
  0.500000   0.828125 0
  0.078125   0.046875 0
  0.015625   0.531250 0
  0.250000   0.546875 0
  0.703125   0.078125 0
  0.703125   0.031250 0
  0.015625   0.671875 0
  0.250000   0.515625 0
  0.000000   0.656250 0
  0.500000   0.906250 0
  0.078125   0.125000 0
  0.687500   0.015625 0
  0.031250   0.546875 0
  0.687500   0.031250 0
  0.500000   0.859375 0
  0.703125   0.000000 0
  0.703125   0.046875 0
  0.703125   0.015625 0
  0.500000   0.937500 0
  0.234375   0.531250 0
  0.031250   0.578125 0
  0.687500   0.062500 0
  0.500000   0.890625 0
  0.031250   0.796875 0
  0.453125   0.531250 0
  0.500000   0.968750 0
  0.078125   0.187500 0
  0.234375   0.562500 0
  0.031250   0.609375 0
  0.718750   0.031250 0
  0.687500   0.093750 0
  0.750000   0.046875 0
  0.000000   0.937500 0
  0.421875   0.671875 0
  0.718750   0.187500 0
  0.031250   0.828125 0
  0.765625   0.062500 0
  0.015625   0.953125 0
[...]
CELL_DATA 7648
SCALARS scalar_value float 1
LOOKUP_TABLE default
0.000239013
-0.00119606
0.0010693
-0.000496049
-0.000340009
-0.000162646
0.000312825
-0.000412867
-9.56669e-05
-0.000961474
2.66932e-05
0.00206669
-0.000506639
-0.00170755
-0.000281869
0.000399489
0.000517899
0.000225684
0.00106481
7.02739e-05
-7.51032e-05
0.00068045
2.54822e-05
1.3458e-05
0.000699857
-3.21251e-05
0.000974799
0.000437934
-7.26677e-06
4.83508e-05
-0.000398939
-0.000536235
-0.000368486
-7.86155e-05
-0.000102202
-5.26369e-05
0.000143555
3.13755e-05
-0.000240035
7.33403e-05
-5.21035e-07
0.000268289
0.000451052
-0.000127207
6.26813e-05
-0.000163239
-0.000166949
-0.000205451
-0.000788149
-0.000443105
-3.09872e-05
2.04529e-05
0.000159775
0.000517032
-0.000276805
-0.000160192
-0.00045196
0.000562273
-0.000913202
2.60533e-05
1.30264e-05
9.77393e-05
1.25122e-06
-0.000157457
4.98891e-05
-1.73811e-05
0.000381419
-0.000187751
-0.000313142
1.58834e-05
1.84616e-05
3.13483e-05
1.91458e-05
2.47087e-05
-0.000159571
0.000642541
0.000159764
0.000396774
0.000319711
8.80073e-05
-6.27359e-05
-0.000175234
-0.000375106
-0.000165094
3.7227e-05
-1.03234e-05
0.00075083
0.00106515
-0.00048179
-4.78552e-05
0.00320928
0.000137991
7.20316e-05
-0.000115267
-7.21344e-05
0.000216132
0.00261179
4.5836e-05
-0.000504472
0.00325591
0.00285703
3.34701e-05
4.05082e-05
9.82829e-05
-0.000217518
-0.00204151
0.000312591
-1.01841e-05
-0.000818844
0.000894512
0.000101026
-8.18444e-05
0.000532283
-0.0006349
0.000179878
-8.96232e-05
0.000164521
0.00461125
0.00249886
-0.00364995
0.00393993
0.000176468
-0.00016946
-1.56178e-05
-2.37668e-05
2.71629e-05
2.82601e-05
0.00055676
-0.00033236
-0.000615344
0.000317492
-4.85559e-05
-0.00398939
-4.01626e-05
4.49857e-06
4.6406e-05
0.000219897
0.000218601
0.000272127
0.000291083
0.000181881
0.000100995
0.000125261
8.76573e-05
0.000532069
-1.07171e-06
-2.36051e-05
1.73879e-06
-8.92773e-05
-3.7394e-05
-3.56215e-05
2.24353e-06
2.48185e-06
0.00228808
8.38339e-05
-0.00167241
-0.000125393
-0.000225742
-0.00107532
2.83215e-05
-0.00038941
-0.000275944
0.000493241
0.000285809
5.68425e-05
0.00011175
-0.000155024
0.000545388
0.000617495
0.000108081
-9.96614e-05
2.85602e-05
0.000142471
8.74017e-05
-0.0013433
-0.000247072
0.000498502
-6.11993e-05
1.93708e-05
-6.41134e-05
-9.86406e-06
-6.0686e-05
0.00016764
0.00034554
-0.000251905
-0.000288919
0.000534927
0.000683935
-3.13988e-06
0.000205697
0.000426535
-0.000251433
0.000810478
-6.49129e-05
1.82944e-05
-4.04521e-05
-3.62169e-05
0.000252271
0.00012636
-0.000517366
2.16009e-05
0.0001383
0.000487562
0.000418055
-0.000137796
-0.000112148
-0.000133671
-5.78073e-05
-0.000230345
-1.08337e-05
1.89925e-05
0.000439999
-5.01409e-05
0.000553848
-0.000160089
0.000638147
-0.000156978
0.000196634
0.000327913
-0.000448524
-5.85158e-05
4.32161e-05
0.00035661
-0.00022339
5.18821e-05
0.000230153
0.000555768
-3.86049e-06
-1.60989e-06
-0.000473251
0.000379455
-0.000585112
0.000224749
-1.43226e-05
-2.97199e-05
8.70223e-05
5.8672e-05
1.19191e-05
7.61489e-05
0.000318081
-1.38165e-05
-6.13045e-05
0.00019635
-0.000306724
0.000479517
6.37416e-05
-0.000995542
0.000611512
-0.000958707
-0.000139173
0.000101774
-5.46455e-05
0.000235265
-0.000121142
9.37668e-06
8.02815e-06
-3.13622e-05
-0.000243983
0.000328088
-4.29403e-06
0.00267888
0.000795412
0.000308999
-0.00023269
0.000144243
0.000206935
0.000379189
-0.000447076
-0.00031299
-9.87284e-06
-0.000348985
-2.3797e-05
-5.7236e-05
0.0010499
-0.000537583
0.000261539
0.000686471
8.27517e-06
0.000438743
-7.29822e-05
4.83929e-05
0.000206763
3.78994e-05
-8.68755e-05
6.83752e-06
0.000514402
-0.000733183
0.000219055
-0.000247334
-0.000344292
-0.000468028
-0.000267934
-0.000231198
0.000123903
-9.25016e-05
0.000113561
-0.000169277
-0.000603439
-0.000109218
-0.000337594
-7.29893e-05
-1.56712e-05
2.01354e-05
-0.000454639
-0.000251807
-0.000626275
3.63226e-05
-0.000244013
-0.000630007
-0.000489375
7.03324e-05
0.000258779
0.000711289
0.000431818
0.000342095
0.00018147
0.00036987
0.000325556
1.86507e-05
0.000365954
2.2038e-05
-5.87902e-05
7.81284e-05
3.43739e-06
3.75497e-05
-0.000514334
-3.74136e-05
-1.36274e-05
1.6322e-05
-1.11067e-06
-9.73393e-05
6.55604e-05
-9.8589e-08
6.34734e-06
0.000285475
1.09056e-05
-7.03034e-05
4.20687e-05
0.000111733
6.33057e-05
0.000103453
4.88992e-05
0.000180731
8.65103e-05
6.87372e-05
-0.000276489
-1.29081e-05
0.00015577
3.63434e-05
-9.72271e-07
-0.000381662
-0.000665458
0.000709498
-0.000177496
-0.000562136
0.000114237
9.65345e-05
-0.00014341
9.85673e-05
0.000131386
-0.000483737
4.94725e-05
0.000671218
0.000105484
2.0969e-05
-9.54716e-05
0.000346792
0.000303927
0.000578476
0.000243885
0.00121805
3.88831e-05
-3.92794e-05
1.11583e-05
-0.000450531
0.000895262
-6.69595e-05
0.00014481
0.000645419
-7.01284e-05
-0.00114812
-0.000360215
-0.000409655
0.00051742
0.000486043
-0.00046694
-5.40259e-05
-0.000140911
-0.000153392
4.93048e-05
-0.000171659
-0.000150108
-0.000162258
-0.00114446
0.000333159
0.000104899
0.000577567
-7.88444e-05
-0.0014896
-0.000164237
-0.00015525
0.000455655
-5.15017e-05
-1.50713e-05
2.24703e-05
3.93336e-05
0.000166122
-7.83129e-05
0.000536393
-6.27111e-06
-0.001224
0.00037222
0.000304944
-0.000432956
0.000137375
0.00240479
0.000973976
1.44342e-06
0.000340287
-0.000116123
-0.00101077
0.000164503
-0.00015111
-2.89813e-05
0.00396243
-9.15594e-05
2.35731e-05
-0.00421858
-0.000215501
0.000419622
-0.00369651
-0.000476399
1.61811e-05
3.24777e-05
8.38152e-05
-0.000728196
6.97497e-05
0.000166723
0.000524414
0.000234608
0.00112162
-0.000130485
0.00067549
-0.000154132
9.72972e-05
9.75598e-06
0.00109528
6.34627e-05
1.67558e-05
-1.92584e-05
3.50565e-05
0.000497858
3.02891e-06
0.00040671
-2.26915e-05
-1.96488e-06
0.000163401
0.00118069
-0.00105792
-8.95897e-05
-0.000873686
-2.78421e-05
0.00123658
-0.000251104
0.000109194
2.71567e-06
0.000272939
3.19611e-05
-0.000141778
2.93483e-05
-0.000209851
-0.000462133
-8.86234e-05
9.04483e-05
0.00639584
0.000924238
0.00236916
2.59143e-05
-0.000615753
-0.000393895
9.04033e-05
0.000760667
0.000235187
-0.000322269
0.00102518
0.000838268
6.09601e-06
-2.4093e-05
3.87709e-05
-0.000477009
-1.27943e-05
-5.36893e-06
0.000254469
0.000542411
0.00605165
-0.000774543
-3.75473e-05
1.60551e-05
-1.96229e-05
0.000203678
8.80837e-06
-1.71106e-06
-4.33679e-06
0.000191892
-0.000133237
-0.000168987
-0.000207759
2.58645e-06
-6.14918e-05
5.57295e-06
-1.94027e-06
-2.52786e-06
-5.162e-06
0.000378849
0.000968011
0.00107705
5.36055e-05
-3.30243e-05
-0.00044897
-0.00134001
0.000525312
0.000816987
8.98929e-05
6.38125e-06
7.0022e-05
6.07241e-05
0.00107831
8.75936e-05
-3.88707e-05
-0.000640723
0.00248194
-0.000139096
-9.01177e-05
0.000505114
0.000588999
6.46622e-05
-2.34974e-05
3.36663e-05
0.00162783
-0.000310833
0.0012055
-1.34952e-05
7.47677e-05
-4.33353e-05
-0.000220666
-6.55235e-05
0.00092449
-8.54801e-05
0.000316625
-0.000606839
0.000217686
0.000252756
0.000167693
0.000285676
9.74989e-05
0.000299966
-3.4419e-05
0.000215033
0.00141096
-4.36366e-05
6.14993e-05
0.000347651
-0.000431899
0.000747373
0.00178658
5.31399e-05
-0.000449414
2.91893e-05
-0.000705862
1.35718e-05
6.6941e-05
-5.91233e-05
0.00115827
-4.23123e-05
-0.000260187
3.16171e-05
0.000242453
0.000104001
3.23378e-06
3.30111e-05
-0.000999995
-0.000604422
-0.000735768
0.00035693
-3.16146e-05
8.25385e-05
2.89093e-05
0.000111292
-0.000405859
-3.08711e-05
-0.00013539
-5.7492e-06
-0.000453023
0.00297721
-2.90876e-05
3.65497e-05
-0.0011363
-0.00269222
-0.00102755
0.000762068
0.00038142
-1.72593e-05
-0.000131271
-0.000173023
-6.6679e-05
4.85633e-05
0.00223732
0.000426202
0.000294274
-0.00100784
0.000399872
-0.00034711
0.00119544
0.000272635
-0.000231063
9.74802e-05
0.0001787
-0.000112688
-0.00047727
-0.000124291
-0.000213344
0.000231428
-0.000207362
0.000212723
-0.000682144
4.72353e-05
0.000666034
-0.000244333
-3.67938e-05
8.64173e-05
-0.000171811
-0.000105314
-0.000143596
-7.41233e-05
0.000381231
2.69439e-05
0.000405555
-0.00324002
0.000901139
-1.12303e-06
-8.0117e-06
-0.000608489
-1.42251e-05
-5.60935e-05
0.000216512
0.000209428
-7.27619e-06
0.000219273
0.000404751
-2.52458e-05
-0.000535938
0.000163027
0.000162336
0.000433486
0.000204354
-0.000215207
-0.000418645
0.000743856
1.30303e-05
-6.62889e-05
7.88785e-05
-5.87868e-05
0.000328357
0.00216402
-0.000321234
-0.000916612
0.00139118
0.00126542
-0.000113718
0.000956716
-9.47266e-05
8.32563e-05
9.32518e-05
-0.000508557
0.000741962
2.5447e-05
-6.65786e-05
0.000115622
-0.000193489
-5.42648e-05
0.000238666
0.000408386
-6.28418e-05
0.000238458
7.85693e-05
0.0014885
-0.00036112
0.000770682
-0.00021846
4.9176e-06
4.52688e-05
1.54016e-05
-0.00348228
-6.94291e-05
7.10784e-05
2.70361e-05
-0.000291819
-1.4791e-06
8.56571e-05
0.000118417
0.000352406
4.77501e-05
0.000131171
0.000222489
0.00165268
0.00154496
-0.00120615
4.66005e-05
-8.84749e-06
-0.000328851
4.83232e-05
-0.00195531
7.59072e-05
-0.000738744
8.89194e-06
-5.08057e-05
-0.000860065
-0.000857482
0.00262479
7.10779e-05
0.00148585
0.000590268
6.5389e-06
0.00201858
-0.000446265
0.000358478
0.000333878
0.000284137
0.00191457
0.000180009
-5.70506e-05
-5.94099e-05
-3.40518e-05
7.73219e-05
2.9838e-05
-3.44813e-05
-0.00116308
7.85393e-05
6.93761e-05
9.28546e-06
-0.000286002
9.06379e-05
8.50071e-05
0.000169129
-0.000383069
0.000186909
0.000278856
0.000322123
-4.08623e-05
7.86424e-05
-7.37575e-05
0.00290937
4.175e-05
9.2192e-05
-0.000834605
3.86439e-06
3.2658e-05
-0.000199025
0.000218449
-0.000259507
7.5088e-05
7.81146e-05
0.000124636
0.000284099
3.69704e-05
-4.49398e-05
-0.000197085
0.000114774
-3.55986e-05
-1.18847e-06
2.45616e-05
-0.000270724
0.00090003
-0.000731546
-5.2064e-05
9.91334e-05
1.8863e-05
0.000479154
0.000425629
0.000187773
-4.50433e-05
3.8441e-05
4.61972e-05
-7.74355e-05
-7.57975e-05
3.41808e-05
0.000265299
0.00151903
-0.000422943
-0.00331728
-0.000199955
0.000123597
0.000238928
0.00052333
0.00202608
0.000584157
0.000646873
0.000159728
0.000190872
6.93628e-05
0.00121119
0.000399548
-7.20066e-05
-0.000184114
5.80083e-05
0.000139756
0.000132384
0.000225082
0.000870507
0.00174442
0.000444149
5.85988e-05
-4.34854e-05
0.00194482
0.00114556
-0.00476107
-0.000277066
-0.00265574
5.25529e-05
-0.000136808
-0.000598946
-0.0012277
0.000563539
-0.000635204
-0.000549097
-0.00244497
-1.9981e-05
6.5644e-05
-0.000372145
-0.00108409
-3.80836e-05
0.000605996
0.000226896
-3.20457e-05
-0.000574844
-0.0019682
-0.000132911
0.00042101
7.84582e-05
0.00483005
0.00206322
-7.70952e-05
0.000518424
-0.00465641
7.55453e-05
-0.000502945
-0.00283098
0.000415335
-0.000434877
-1.0822e-05
6.06103e-05
-0.0020263
-0.000535486
0.000159451
-0.000261494
-2.43856e-06
-0.00023648
-0.000223891
-0.000207969
-2.38504e-05
-0.00038358
0.000193757
0.00032241
-0.000466121
0.000264083
0.000198654
0.000553282
-3.25815e-05
9.24951e-06
0.00303135
-0.00018811
2.6427e-05
-5.93622e-05
1.39107e-05
-2.0229e-05
-0.0013662
0.000713097
-0.000256226
4.82939e-05
-0.00182467
-0.000990133
0.000757054
-0.000289452
5.85582e-05
-0.000205184
0.00123953
0.00244524
-0.000245113
0.0012584
-0.000482472
-0.000401726
-0.000304838
-8.29307e-06
-0.000468044
-0.00169822
0.0012526
0.000364112
9.99028e-05
8.81644e-06
-0.000233255
8.74652e-05
1.61758e-05
-0.000199286
1.01844e-05
3.17512e-05
-0.00142151
-0.0006889
-0.000166738
8.64448e-05
0.000297033
-0.00356979
-8.5673e-05
-0.000209753
0.000496894
-0.000220877
-0.000158425
-9.46311e-05
-5.67273e-05
0.00212734
-0.000189788
-0.000196668
0.000254685
0.00132107
8.47379e-05
0.00170055
0.000312747
-3.86598e-05
-0.00235539
-1.40417e-05
-0.00010635
-0.00128089
0.000104351
-5.67746e-05
8.63023e-06
0.000879904
9.14346e-05
-0.000172734
-0.00113051
0.000993736
-3.45428e-05
0.000443837
9.13998e-05
0.000778987
0.000210028
5.61091e-05
-0.000254602
-0.000106546
1.57127e-05
0.00021995
-4.92045e-05
0.00184167
-5.15422e-05
0.000407322
6.34499e-05
0.000219738
-0.000372758
0.000144348
-0.00206225
-0.000473759
-6.5696e-05
-6.29183e-05
-4.40334e-05
0.000725154
-4.21824e-05
8.32442e-06
0.000536523
-7.04912e-05
9.1124e-06
-7.10708e-05
-3.85639e-05
5.53443e-05
0.000665861
6.644e-05
-1.02531e-05
0.000100385
0.00219102
0.00434462
0.000120643
0.000825784
0.000231681
2.31852e-05
0.00212641
-5.86908e-05
-0.00430239
0.00302579
0.000311042
5.53332e-06
0.00035687
9.55132e-05
8.81767e-05
0.00277207
0.00226066
0.000212634
0.000115485
-5.15816e-05
-6.36784e-05
0.00016276
8.56232e-05
0.00295332
6.41698e-05
-0.00331757
0.000136552
-1.89577e-05
3.66992e-05
-3.63866e-05
0.00255826
-0.000538487
-7.23716e-05
-0.000178895
0.000954103
-0.00023972
-0.000378057
0.000242546
0.000867843
0.00139902
0.00186507
6.6522e-05
4.85372e-05
0.000120245
-9.03388e-05
0.00219782
0.00151142
0.00236167
0.000229061
-0.00196836
-0.000144759
-8.47371e-05
-0.0018214
-3.49846e-05
-4.16453e-05
-0.00297493
0.00135337
-0.000189621
-0.000356301
-9.61083e-05
2.55732e-05
0.000274744
7.42228e-05
5.59517e-05
-0.000529874
-3.08555e-05
-0.000122012
0.000372093
-0.000387828
0.00113882
1.66677e-05
0.000174542
0.000453878
-0.000634848
-0.00128615
0.000147103
2.25575e-05
-0.000457169
-0.000110664
1.26295e-05
0.000743775
2.57696e-05
-3.77317e-05
-3.03787e-05
-4.64875e-05
-2.92595e-05
0.000171687
-4.12442e-05
-9.55707e-07
0.00012786
-4.1093e-05
0.000673489
0.00330196
-0.000490317
2.12827e-06
0.000119309
4.92281e-05
0.000201067
0.00197497
0.000473508
0.0016089
-0.000118729
-0.000353711
-0.000582737
0.000490704
-0.000823276
-4.38994e-05
0.000127341
-0.000136808
-0.000342668
-8.45075e-06
-0.000393787
-0.000122938
0.000134815
-0.00054041
-0.000305465
-0.000575609
0.000333571
-2.5639e-05
0.00112436
0.000905843
-9.26191e-05
0.000163611
0.0011045
-0.000123558
-0.00052064
-7.0482e-06
-0.00134778
0.000216676
-0.000824614
0.00542161
-0.000263282
0.00163624
-9.83407e-05
0.000363074
9.77986e-05
7.92105e-05
-0.000492092
-8.42512e-05
6.09721e-05
-0.00358133
-1.32637e-05
0.000237486
0.00018737
-5.14362e-05
0.00157839
0.00124761
0.00109559
-8.32734e-05
-5.61275e-05
-7.52785e-06
0.000291377
0.000261162
0.000258967
-0.000496245
-0.000294843
-0.000420051
-0.000158619
-9.54167e-05
-8.99896e-05
9.17436e-05
-5.88971e-05
-7.14179e-05
0.000106864
2.79497e-05
8.50279e-05
9.78619e-05
8.76915e-05
0.000111392
0.000105177
-0.000267751
0.000167441
-0.000180399
-0.000330234
-0.000765762
0.00328532
0.00411702
0.00270778
-0.000250728
-0.000489257
-6.01146e-05
0.000124739
5.20697e-05
0.000195298
1.91931e-05
-2.7425e-05
6.1977e-05
-1.83839e-05
2.01223e-05
0.00138615
0.000123002
-0.000542541
-0.00058502
0.000999566
0.000670213
0.00246399
0.00199797
-0.000474219
-0.00159383
0.00162374
0.000229468
0.000437247
5.77112e-06
-0.000346334
-5.82178e-05
-0.000499702
-0.000792114
6.65218e-05
8.60048e-05
0.000109591
0.000302666
0.000125376
2.38454e-05
0.00028122
-5.12259e-06
1.10278e-05
-1.55476e-05
-0.000117464
-6.0109e-06
0.00130498
3.6652e-05
-0.000406253
-5.16287e-05
0.00115427
-0.000156946
-4.43106e-05
7.34137e-05
8.4804e-05
-1.09968e-05
0.000774492
-0.000334966
0.00153664
-0.00114239
0.00223946
0.00267355
-1.35098e-05
0.00083374
0.000112446
0.00016641
0.00324864
0.00121271
-0.000703552
-0.000496267
3.17588e-05
-0.00025246
9.9224e-05
0.000126416
0.000433494
0.00035266
-4.72433e-05
-0.000148352
4.09046e-05
0.000310859
-3.38759e-05
0.000475477
0.000227866
6.6145e-05
0.000113494
-1.52423e-05
8.93324e-05
-0.00157507
-0.000242175
0.000246123
-0.000481087
0.0001023
-3.15584e-05
0.000278545
0.000447982
-4.1528e-05
0.000112885
0.000319222
0.00045036
0.000131129
0.000947979
5.93075e-05
0.000141104
0.000432294
0.000304148
0.000101283
-1.78627e-05
6.57595e-05
0.0001063
-0.000112635
-0.000188402
0.000562383
-0.000189443
-4.21441e-05
-4.75035e-05
-3.3612e-05
-4.58285e-05
-0.000101172
0.000153823
7.8013e-05
0.000244032
5.38026e-05
-0.000399466
-9.25333e-05
5.95873e-05
-0.000581788
3.34242e-05
0.000753895
-3.0295e-07
8.98324e-05
-0.000937357
-0.000913388
0.000462481
-0.000693811
4.44462e-05
4.42438e-05
-7.02294e-06
0.000357174
4.27088e-05
6.01258e-06
0.000433432
1.89122e-05
-9.1272e-05
6.44462e-05
-0.000333895
-1.74581e-05
-2.78731e-06
0.000531332
-5.94975e-05
8.29664e-06
0.00145954
0.000708917
-0.00037126
0.000682355
-1.94616e-05
0.000269963
0.000147796
0.000273479
5.8058e-05
7.25227e-05
9.0813e-05
0.000221596
1.23303e-05
0.000133137
0.000903491
5.92243e-05
7.1366e-06
-7.18398e-06
-4.48612e-05
0.000779565
9.2814e-06
1.43714e-05
5.24259e-05
9.6111e-05
0.000655886
0.000117539
0.000371323
1.13232e-05
-0.000147903
-0.000326154
-0.000774639
7.2253e-05
-0.000226063
-0.000495535
-0.00032552
4.19728e-05
-0.000212343
-0.000295024
-0.000835167
-0.00215316
1.42394e-05
0.000177842
5.97955e-05
3.49463e-05
-0.000306776
4.51287e-05
-0.000402669
-0.000114646
-4.39509e-05
-3.03059e-05
0.000436713
-5.77702e-05
9.16016e-05
8.93067e-05
1.10222e-05
6.3392e-05
0.00114907
-0.00211521
-0.0040651
-0.00149996
-2.80848e-05
0.00416966
-0.000897696
0.000831829
5.83881e-05
8.54637e-05
0.000287182
9.27738e-06
0.000994284
-0.000161579
-0.000331262
9.71442e-05
1.84824e-05
0.000777486
4.2035e-05
2.20877e-05
-0.000564794
-0.000375223
0.00143667
-0.000164213
-0.0012322
0.000221392
-0.000325592
-1.20383e-05
-0.0015337
-0.00218385
-0.00292748
0.00424865
-0.00030565
-0.000113051
-0.000165584
-0.000261645
0.000231382
7.04745e-05
0.000234344
-0.000755916
0.000173774
-0.000132208
-5.29675e-05
-0.000142703
4.52005e-05
-9.95522e-05
-0.000108417
-1.52866e-05
-0.000226516
-0.000327433
0.000556716
-4.27802e-05
0.000265978
-4.25822e-05
0.000394318
0.000164274
-9.63911e-06
-2.71277e-05
0.000255149
-0.000220503
-3.71125e-06
-0.00169615
-0.000586926
-0.000227824
-0.000335486
-4.11888e-05
-1.03503e-05
0.000161202
-4.85038e-07
-0.000169369
-5.42239e-05
-0.00319789
0.000139336
7.58516e-05
4.52186e-05
-4.45388e-05
0.000312413
3.81616e-05
0.00029012
-3.10556e-05
-7.2391e-05
-2.43218e-05
0.000114603
0.000741883
7.38602e-07
0.000102712
0.000257113
0.000252574
0.00154073
0.000460123
-0.00103215
-1.74828e-05
4.33418e-05
2.72802e-05
-0.0011499
-7.13727e-05
8.38926e-06
9.81518e-05
1.02752e-05
0.000354914
0.0010058
0.000280628
0.000131802
-0.0050102
-0.0039487
0.0013167
-0.00121808
-0.000763078
5.44209e-05
-0.000834403
0.00254841
0.000754245
-0.002788
6.96291e-05
-0.000741097
8.62223e-06
2.67342e-05
0.000680842
0.000976794
8.92026e-06
-2.01342e-05
0.000121736
-0.00110123
-0.000136985
9.35303e-05
-3.43201e-05
0.000156975
-0.00026475
-3.32433e-05
-1.14995e-05
-7.44489e-05
9.01727e-05
-0.000164523
-0.000234763
-0.000158595
6.55008e-05
-0.000411121
-0.0045456
-0.00107796
0.00218757
-6.43603e-05
0.00046409
0.000804458
-0.00064843
4.75722e-06
-0.000450433
6.9915e-06
6.54381e-05
-2.11622e-05
0.00112692
-0.000868366
0.00166175
0.000910577
-8.88028e-05
0.000219008
-6.20282e-05
-1.35314e-05
0.000364311
-0.000425437
-0.000254389
0.000244616
-0.000153541
-0.000721483
-0.000735269
0.000191185
0.000120472
-6.12693e-05
-0.000146999
-0.000237961
-0.000447275
-0.0410517
0.000119886
0.00462598
0.00554218
0.00382869
3.7431e-05
2.03483e-05
-4.19065e-05
-7.82151e-05
0.00012951
0.000315773
0.00545265
-0.00241603
-0.00119502
-0.000261493
0.000469471
0.000351252
-0.00518104
-0.00678501
-0.00484291
-5.14607e-05
0.000488426
-0.000141833
-0.000559968
0.00118194
-0.000972631
-9.3765e-06
-1.65143e-05
-9.11938e-06
1.70821e-05
-1.95632e-05
-0.000115552
-0.000115831
9.75319e-06
-3.08569e-05
-2.55107e-05
-7.6375e-06
9.51994e-06
-7.1746e-06
-4.68216e-05
-0.000126849
0.000382573
0.00024924
7.87479e-05
5.66839e-05
-0.000217702
1.04237e-06
-0.000255951
-0.000192186
-9.18644e-06
0.00299617
-0.00304477
0.0006332
0.00241827
0.00127685
0.00237389
0.00178181
0.00163745
-0.000102443
-1.67779e-05
2.77787e-06
-1.09058e-05
-0.00016248
-8.90045e-05
0.0052228
8.06183e-05
0.000221828
-0.000389072
0.000144969
-2.49103e-05
3.18918e-05
3.73795e-05
-0.000375614
0.000333486
0.000265568
0.00025118
-0.000185067
-0.000428702
-2.8552e-05
2.9337e-05
-0.000189542
3.69494e-05
-3.1778e-05
0.000357386
0.000754749
0.000333674
-0.000595909
-0.000636756
-0.00103412
0.00029702
-0.000420739
-0.00027435
0.000291492
0.000223897
0.00179823
0.00118198
-0.000140946
-0.000326866
-0.000539592
0.00125958
0.000568616
6.31219e-05
0.00145224
0.00151117
-6.6895e-05
0.000968809
-7.78831e-05
0.000110156
3.15535e-05