# vtk DataFile Version 2.0
Unstructured Grid by M++
ASCII
DATASET UNSTRUCTURED_GRID
POINTS 4072 float
  0.875000   1.000000 0
  0.875000   0.984375 0
  0.875000   0.968750 0
  0.875000   0.953125 0
  0.875000   0.937500 0
  0.875000   0.921875 0
  0.875000   0.906250 0
  0.875000   0.890625 0
  0.875000   0.875000 0
  0.875000   0.859375 0
  0.875000   0.843750 0
  0.875000   0.828125 0
  0.875000   0.812500 0
  0.875000   0.796875 0
  0.875000   0.781250 0
  0.875000   0.765625 0
  0.859375   1.000000 0
  0.859375   0.984375 0
  0.859375   0.968750 0
  0.859375   0.953125 0
  0.859375   0.937500 0
  0.859375   0.921875 0
  0.859375   0.890625 0
  0.859375   0.875000 0
  0.859375   0.859375 0
  0.859375   0.843750 0
  0.859375   0.828125 0
  0.859375   0.812500 0
  0.859375   0.796875 0
  0.859375   0.781250 0
  0.859375   0.765625 0
  0.859375   0.671875 0
  0.859375   0.656250 0
  0.859375   0.640625 0
  0.843750   1.000000 0
  0.843750   0.984375 0
  0.843750   0.968750 0
  0.843750   0.953125 0
  0.843750   0.937500 0
  0.843750   0.921875 0
  0.843750   0.906250 0
  0.843750   0.875000 0
  0.843750   0.859375 0
  0.843750   0.843750 0
  0.843750   0.828125 0
  0.843750   0.812500 0
  0.843750   0.796875 0
  0.843750   0.781250 0
  0.843750   0.765625 0
  0.843750   0.671875 0
  0.843750   0.656250 0
  0.843750   0.640625 0
  0.828125   1.000000 0
  0.828125   0.984375 0
  0.828125   0.968750 0
  0.828125   0.953125 0
  0.828125   0.937500 0
  0.828125   0.921875 0
  0.875000   0.671875 0
  0.812500   0.921875 0
  0.890625   0.656250 0
  0.828125   0.906250 0
  0.875000   0.656250 0
  0.812500   0.906250 0
  0.890625   0.640625 0
  0.828125   0.890625 0
  0.875000   0.640625 0
  0.812500   0.890625 0
  0.890625   0.625000 0
  0.828125   0.875000 0
  0.890625   0.609375 0
  0.828125   0.859375 0
  0.890625   0.593750 0
  0.828125   0.843750 0
  0.890625   0.578125 0
  0.828125   0.828125 0
  0.890625   0.562500 0
  0.828125   0.812500 0
  0.828125   0.796875 0
  0.828125   0.781250 0
  0.828125   0.765625 0
  0.828125   0.671875 0
  0.828125   0.656250 0
  0.828125   0.640625 0
  0.875000   0.750000 0
  0.812500   1.000000 0
  0.875000   0.625000 0
  0.812500   0.875000 0
  0.875000   0.734375 0
  0.812500   0.984375 0
  0.875000   0.718750 0
  0.812500   0.968750 0
  0.875000   0.703125 0
  0.812500   0.953125 0
  0.875000   0.687500 0
  0.812500   0.937500 0
  0.875000   0.609375 0
  0.812500   0.859375 0
  0.875000   0.593750 0
  0.812500   0.843750 0
  0.875000   0.578125 0
  0.812500   0.828125 0
  0.812500   0.812500 0
  0.875000   0.546875 0
  0.812500   0.796875 0
  0.812500   0.781250 0
  0.812500   0.765625 0
  0.859375   0.750000 0
  0.796875   1.000000 0
  0.859375   0.625000 0
  0.796875   0.875000 0
  0.859375   0.734375 0
  0.796875   0.984375 0
  0.859375   0.718750 0
  0.796875   0.968750 0
  0.859375   0.703125 0
  0.796875   0.953125 0
  0.859375   0.687500 0
  0.796875   0.937500 0
  0.859375   0.609375 0
  0.796875   0.859375 0
  0.859375   0.593750 0
  0.796875   0.843750 0
  0.859375   0.578125 0
  0.796875   0.828125 0
  0.859375   0.562500 0
  0.796875   0.812500 0
  0.796875   0.796875 0
  0.859375   0.531250 0
  0.796875   0.781250 0
  0.796875   0.765625 0
  0.843750   0.750000 0
  0.781250   1.000000 0
  0.843750   0.625000 0
  0.781250   0.875000 0
  0.843750   0.734375 0
  0.781250   0.984375 0
  0.843750   0.718750 0
  0.781250   0.968750 0
  0.843750   0.703125 0
  0.781250   0.953125 0
  0.843750   0.687500 0
  0.781250   0.937500 0
  0.843750   0.609375 0
  0.781250   0.859375 0
  0.843750   0.593750 0
  0.781250   0.843750 0
  0.843750   0.578125 0
  0.781250   0.828125 0
  0.781250   0.812500 0
  0.843750   0.546875 0
  0.781250   0.796875 0
  0.781250   0.781250 0
  0.843750   0.515625 0
  0.781250   0.765625 0
  0.828125   0.750000 0
  0.765625   1.000000 0
  0.828125   0.625000 0
  0.765625   0.875000 0
  0.828125   0.734375 0
  0.765625   0.984375 0
  0.828125   0.718750 0
  0.765625   0.968750 0
  0.828125   0.703125 0
  0.765625   0.953125 0
  0.828125   0.687500 0
  0.765625   0.937500 0
  0.828125   0.609375 0
  0.765625   0.859375 0
  0.828125   0.593750 0
  0.765625   0.843750 0
  0.828125   0.578125 0
  0.765625   0.828125 0
  0.828125   0.562500 0
  0.765625   0.812500 0
  0.765625   0.796875 0
  0.828125   0.531250 0
  0.765625   0.781250 0
  0.765625   0.765625 0
  0.812500   0.750000 0
  0.750000   1.000000 0
  0.953125   1.000000 0
  0.812500   0.734375 0
  0.750000   0.984375 0
  0.812500   0.718750 0
  0.750000   0.968750 0
  0.812500   0.703125 0
  0.750000   0.953125 0
  0.812500   0.687500 0
  0.750000   0.937500 0
  0.812500   0.671875 0
  0.750000   0.921875 0
  0.812500   0.656250 0
  0.750000   0.906250 0
  0.812500   0.640625 0
  0.750000   0.890625 0
  0.812500   0.625000 0
  0.750000   0.875000 0
  0.812500   0.609375 0
  0.750000   0.859375 0
  0.812500   0.593750 0
  0.750000   0.843750 0
  0.812500   0.578125 0
  0.750000   0.828125 0
  0.750000   0.812500 0
  0.812500   0.546875 0
  0.750000   0.796875 0
  0.750000   0.781250 0
  0.812500   0.515625 0
  0.750000   0.765625 0
  0.796875   0.750000 0
  0.734375   1.000000 0
  0.796875   0.734375 0
  0.734375   0.984375 0
  0.796875   0.718750 0
  0.734375   0.968750 0
  0.796875   0.703125 0
  0.734375   0.953125 0
  0.796875   0.687500 0
  0.734375   0.937500 0
  0.796875   0.671875 0
  0.734375   0.921875 0
  0.796875   0.656250 0
  0.734375   0.906250 0
  0.796875   0.640625 0
  0.734375   0.890625 0
  0.796875   0.625000 0
  0.734375   0.875000 0
  0.796875   0.609375 0
  0.734375   0.859375 0
  0.796875   0.593750 0
  0.734375   0.843750 0
  0.796875   0.578125 0
  0.734375   0.828125 0
  0.734375   0.812500 0
  0.734375   0.796875 0
  0.796875   0.531250 0
  0.734375   0.781250 0
  0.734375   0.765625 0
  0.781250   0.750000 0
  0.718750   1.000000 0
  0.921875   1.000000 0
  0.781250   0.734375 0
  0.718750   0.984375 0
  0.781250   0.718750 0
  0.718750   0.968750 0
  0.781250   0.703125 0
  0.718750   0.953125 0
  0.859375   0.906250 0
  0.781250   0.687500 0
  0.718750   0.937500 0
  0.781250   0.671875 0
  0.718750   0.921875 0
  0.781250   0.656250 0
  0.718750   0.906250 0
  0.781250   0.640625 0
  0.718750   0.890625 0
  0.781250   0.625000 0
  0.718750   0.875000 0
  0.781250   0.609375 0
  0.718750   0.859375 0
  0.781250   0.593750 0
  0.718750   0.843750 0
  0.781250   0.578125 0
  0.718750   0.828125 0
  0.781250   0.562500 0
  0.718750   0.812500 0
  0.781250   0.546875 0
  0.718750   0.796875 0
  0.781250   0.531250 0
  0.718750   0.781250 0
  0.781250   0.515625 0
  0.718750   0.765625 0
  0.765625   0.750000 0
  0.703125   1.000000 0
  0.765625   0.734375 0
  0.703125   0.984375 0
  0.765625   0.718750 0
  0.703125   0.968750 0
  0.765625   0.703125 0
  0.703125   0.953125 0
  0.765625   0.687500 0
  0.703125   0.937500 0
  0.843750   0.890625 0
  0.703125   0.921875 0
  0.765625   0.656250 0
  0.703125   0.906250 0
  0.765625   0.640625 0
  0.703125   0.890625 0
  0.765625   0.625000 0
  0.703125   0.875000 0
  0.765625   0.609375 0
  0.703125   0.859375 0
  0.765625   0.593750 0
  0.703125   0.843750 0
  0.765625   0.578125 0
  0.703125   0.828125 0
  0.765625   0.562500 0
  0.703125   0.812500 0
  0.765625   0.546875 0
  0.703125   0.796875 0
  0.765625   0.531250 0
  0.703125   0.781250 0
  0.765625   0.515625 0
  0.703125   0.765625 0
  0.750000   0.750000 0
  0.687500   1.000000 0
  0.890625   1.000000 0
  0.750000   0.734375 0
  0.687500   0.984375 0
  0.750000   0.718750 0
  0.687500   0.968750 0
  0.578125   0.796875 0
  0.578125   0.781250 0
  0.578125   0.765625 0
  0.546875   0.953125 0
  0.546875   0.968750 0
  0.546875   0.718750 0
  0.546875   0.687500 0
  0.250000   0.609375 0
  0.937500   0.031250 0
  0.046875   0.703125 0
  0.734375   0.062500 0
  0.734375   0.078125 0
  0.734375   0.046875 0
  0.046875   0.593750 0
  0.046875   0.562500 0
  0.046875   0.531250 0
  0.718750   0.156250 0
  0.046875   0.609375 0
  0.734375   0.031250 0
  0.062500   0.609375 0
  0.234375   0.703125 0
  0.718750   0.125000 0
  0.046875   0.578125 0
  0.734375   0.000000 0
  0.062500   0.578125 0
  0.000000   0.828125 0
  0.234375   0.671875 0
  0.234375   0.625000 0
  0.718750   0.093750 0
  0.687500   0.156250 0
  0.062500   0.546875 0
  0.000000   0.796875 0
  0.718750   0.046875 0
  0.031250   0.687500 0
  0.687500   0.171875 0
  0.500000   1.000000 0
  0.078125   0.218750 0
  0.234375   0.593750 0
  0.718750   0.062500 0
  0.687500   0.125000 0
  0.000000   0.765625 0
  0.421875   0.500000 0
  0.031250   0.593750 0
  0.718750   0.015625 0
  0.687500   0.234375 0
  0.015625   0.812500 0
  0.703125   0.171875 0
  0.703125   0.187500 0
  0.703125   0.140625 0
  0.015625   0.781250 0
  0.437500   0.515625 0
  0.500000   0.796875 0
  0.078125   0.015625 0
  0.687500   0.203125 0
  0.250000   0.578125 0
  0.703125   0.109375 0
  0.000000   0.515625 0
  0.500000   0.765625 0
  0.062500   0.593750 0
  0.750000   0.015625 0
  0.015625   0.843750 0
  0.687500   0.000000 0
  0.500000   0.828125 0
  0.078125   0.046875 0
  0.015625   0.531250 0
  0.250000   0.546875 0
  0.703125   0.078125 0
  0.703125   0.031250 0
  0.015625   0.671875 0
  0.250000   0.515625 0
  0.000000   0.656250 0
  0.500000   0.906250 0
  0.078125   0.125000 0
  0.687500   0.015625 0
  0.031250   0.546875 0
  0.687500   0.031250 0
  0.500000   0.859375 0
  0.703125   0.000000 0
  0.703125   0.046875 0
  0.703125   0.015625 0
  0.500000   0.937500 0
  0.234375   0.531250 0
  0.031250   0.578125 0
  0.687500   0.062500 0
  0.500000   0.890625 0
  0.031250   0.796875 0
  0.453125   0.531250 0
  0.500000   0.968750 0
  0.078125   0.187500 0
  0.234375   0.562500 0
  0.031250   0.609375 0
  0.718750   0.031250 0
  0.687500   0.093750 0
  0.750000   0.046875 0
  0.000000   0.937500 0
  0.421875   0.671875 0
  0.718750   0.187500 0
  0.031250   0.828125 0
  0.765625   0.062500 0
  0.015625   0.953125 0
[...]
CELL_DATA 7648
SCALARS scalar_value float 1
LOOKUP_TABLE default
-0.000142697
-0.000123393
0.000741063
-0.000230345
-3.1308e-05
9.2341e-05
-4.03273e-05
-3.05675e-05
3.15941e-05
-0.000363816
-4.01158e-06
0.000603797
-0.000155384
-0.000330691
2.13844e-05
6.75712e-05
-0.000332063
0.000254246
0.000324496
-4.43274e-05
3.8536e-05
0.000236133
9.52273e-05
1.03688e-05
-0.000170671
7.55895e-05
0.000351517
0.000192619
0.000145374
-9.55499e-05
-0.000215428
-0.000218072
-0.000133253
-6.06265e-06
3.37276e-06
2.32916e-05
5.36094e-05
-4.81615e-06
-8.06992e-05
3.63503e-05
-4.9046e-06
0.000126131
-0.000374146
6.99872e-06
3.13508e-05
-3.12388e-06
-0.000136409
-0.000181987
1.82506e-05
-0.000328345
-3.75794e-06
2.24211e-05
-9.61284e-05
-7.49576e-05
-6.28502e-05
-5.5653e-05
-0.000154652
0.000230587
-4.2511e-05
5.62594e-05
5.03904e-05
-0.000106184
-4.20871e-07
-4.91497e-05
-5.57928e-05
-0.00012478
0.000250709
-0.000155391
0.000203347
1.1708e-05
7.00248e-06
2.75297e-06
2.44614e-05
-4.70788e-05
-0.000323056
0.000422252
0.000181658
-9.79996e-06
-3.42062e-05
0.000110494
-1.56865e-05
4.75396e-05
-6.65066e-05
-0.000105135
-4.56906e-05
1.22069e-05
-0.000437346
0.000343038
9.52272e-05
0.000206945
4.54928e-05
0.000126827
6.86438e-05
2.10908e-05
-2.51298e-05
7.35583e-05
-0.000151635
5.0745e-05
-0.000418912
0.000105334
0.000336547
8.80027e-06
8.99191e-06
-5.2078e-05
9.10159e-06
-0.000298982
-5.35637e-05
-0.000105377
0.000193345
-0.000169144
1.01227e-05
-5.60581e-05
0.000238868
-0.000119669
-0.000238242
5.81568e-05
-3.29401e-05
0.000246412
-0.00019728
0.000120357
0.000233868
4.59395e-05
-0.000166583
2.51296e-05
-4.53065e-05
-1.48488e-05
1.50875e-05
-6.93995e-05
0.000348974
0.000271065
-0.000188635
1.43883e-05
0.00033591
8.69624e-05
6.96896e-05
3.03776e-05
-0.000130417
0.000109021
7.83897e-05
0.000218934
-0.00011108
-6.10032e-05
3.61563e-05
3.18356e-05
1.90285e-05
1.88902e-06
7.10677e-05
5.70072e-05
9.02781e-05
-0.000270756
-8.13475e-06
-3.00616e-05
-7.61608e-05
-0.000387107
1.71723e-05
0.000215479
-0.000360958
5.66835e-05
2.99268e-05
0.00019182
2.02596e-05
-0.000553599
-2.10019e-05
2.21167e-05
2.44698e-05
-0.000141021
-0.000105922
-3.85087e-05
4.06229e-05
9.17207e-05
-4.97587e-05
-0.000315402
-2.46501e-05
-5.30831e-05
-0.000260619
-0.000144387
-6.16245e-05
5.422e-08
4.59535e-06
-0.000163292
-1.35357e-05
-9.38263e-06
0.000522725
-0.000723478
-0.000341426
-0.000246868
0.000122796
0.000383244
1.95539e-05
-5.50794e-05
-6.276e-05
-0.000414024
0.000204398
8.14234e-05
5.35053e-05
1.03101e-05
3.47557e-05
-1.05279e-05
-0.000100209
-0.00010391
1.73739e-05
3.96479e-05
8.73714e-05
6.32e-05
-0.00029452
-2.58725e-06
4.78281e-05
5.08537e-05
0.000141883
-3.38214e-05
8.15998e-05
-0.000155678
-3.00703e-05
0.000148255
0.000162008
2.60203e-05
-9.51745e-07
0.000136156
9.68936e-05
-0.000144588
2.09218e-05
2.38358e-05
1.15864e-05
-6.58587e-05
-2.02273e-05
0.00026055
-0.000122261
-4.74079e-05
-4.57298e-05
0.000355711
-0.000605194
-0.000111941
0.000178589
-6.38319e-05
-1.93741e-05
8.23601e-05
0.000125235
0.000121508
-8.72241e-06
8.81534e-05
-3.25452e-06
0.000269515
-5.08214e-05
0.000178811
-1.78976e-05
-6.59271e-05
4.34347e-05
0.000524969
7.70687e-05
-0.000121612
0.000283544
-0.000137816
-0.000800013
-0.000108341
1.36102e-06
6.25593e-05
-8.79872e-05
-0.000259845
9.5305e-05
-9.03738e-06
0.000467069
-5.05578e-05
4.86083e-05
-0.000206453
2.06948e-05
0.000246962
-0.000149633
7.45143e-05
-0.000238927
-0.000259963
-0.000247301
7.95687e-05
0.000251798
-0.000207945
-0.000198382
-0.000412652
0.00155964
0.000259558
8.12635e-05
-1.37281e-05
-1.99272e-07
2.59192e-05
-0.000208015
9.46931e-05
-4.13459e-05
9.58034e-05
9.95884e-05
5.43689e-05
-0.000183432
0.000302659
-0.000296648
-7.41033e-05
5.95462e-05
-4.59187e-08
6.08294e-05
-9.23507e-05
0.000188567
-0.000115318
0.000444545
-0.000183609
-4.41171e-05
8.43214e-06
2.91048e-05
-4.56574e-05
0.000105501
-0.000290884
7.05835e-06
0.000172863
-0.000111279
-0.000184941
2.50006e-05
7.22756e-05
-0.000381574
0.000165863
-1.70518e-06
-3.77265e-05
-5.32819e-05
5.55838e-05
-0.000143658
0.000108273
-1.38433e-05
2.81647e-07
-0.000392959
-5.71023e-06
3.9032e-06
0.000249529
-1.24061e-05
-1.15142e-06
-2.28162e-06
-1.3488e-05
-3.55932e-05
-5.71733e-05
-1.08489e-05
4.63662e-05
2.34131e-07
4.3717e-05
-1.8177e-05
-4.07261e-06
1.47138e-05
-4.80465e-06
7.01299e-05
0.000157053
9.36442e-05
2.37435e-06
-7.38153e-05
-6.75815e-05
9.36362e-05
-3.6723e-05
1.29277e-05
-1.21108e-05
-3.94154e-05
-0.000272182
0.000267074
-2.3501e-05
-7.3252e-05
-1.38385e-05
2.47235e-05
-1.52943e-05
2.63463e-06
6.21768e-05
7.15481e-05
4.77793e-06
0.000201169
-3.62616e-05
-0.000129657
5.56061e-05
6.45705e-05
-0.000185532
-0.00013565
-4.11013e-05
-0.000503387
-6.28551e-05
-9.02434e-05
0.000281944
-0.000216887
-0.000164147
0.000126181
-2.85716e-05
-4.9338e-05
6.58913e-05
-0.000299337
-2.58299e-05
-6.16186e-05
-4.18468e-05
-2.20345e-05
-6.7704e-05
-5.73555e-05
-2.65787e-05
-0.000408682
-0.000123536
-0.000514666
-2.22481e-05
0.0002224
-0.000277582
-9.29301e-05
9.39872e-05
2.97567e-05
-3.3838e-06
-0.00053654
0.0001713
1.93737e-06
-0.000193766
-1.44794e-05
-7.93152e-06
9.71215e-07
8.28266e-06
-4.34239e-05
4.69553e-05
0.000232729
4.22822e-06
-0.000447025
-1.07046e-05
-5.7802e-06
6.90976e-05
0.000151842
0.000699387
5.33072e-05
1.79988e-05
-3.97079e-05
8.66529e-06
-0.000207017
-0.000611163
-0.000241187
-8.00862e-05
0.000477745
3.08259e-05
6.30152e-05
0.00144424
-0.000532138
-0.00028012
0.000221409
-0.000252257
6.66244e-05
-0.000123587
-1.29267e-05
-0.000160548
3.33717e-05
-2.34783e-05
-0.000153192
-3.91261e-05
0.000310353
-2.79745e-05
2.42186e-05
-3.53154e-05
-2.14846e-05
-3.18642e-06
-0.000584958
0.000471832
-6.60822e-06
-0.000228891
-9.69743e-06
-0.000230433
-3.63074e-05
-9.63099e-05
-3.14045e-05
-6.0487e-06
-6.08972e-05
-0.000530719
0.000115852
7.16607e-05
0.000100847
3.77114e-05
7.14506e-05
-4.3275e-05
4.62941e-05
5.91385e-07
3.21149e-05
0.000140116
-3.26112e-05
-0.000149675
-0.000143567
-0.000431619
-0.000233936
7.68157e-05
0.000274444
-5.76438e-05
0.000259177
-1.37289e-05
-0.00030802
-0.000153627
-1.5084e-05
0.00030216
-1.84985e-05
-0.000349895
0.000245916
0.000108461
-9.59121e-06
6.71797e-07
-8.28133e-05
-0.00012477
5.31031e-06
3.68475e-05
5.18329e-05
-0.000646833
0.000653647
0.00134375
1.02264e-05
-3.697e-06
1.16274e-05
-1.36295e-05
-2.45772e-05
4.26326e-06
7.8867e-07
-0.000831596
0.000149857
0.000133558
-3.50866e-05
7.7034e-06
-0.000544309
3.28146e-06
0.000119961
2.35623e-06
-1.08893e-05
-0.000319459
0.000477723
0.000237004
-6.61944e-05
-4.34578e-05
-1.65153e-05
4.21985e-05
0.000543521
0.000287455
-4.06389e-05
-0.000129924
-6.10165e-05
-2.59647e-06
-3.16401e-05
-2.24884e-05
0.000270462
0.000326826
-8.91063e-05
5.99878e-05
5.65762e-06
5.13149e-05
-0.000113839
-6.2315e-05
-7.59013e-05
5.83704e-06
0.000107972
0.000307014
0.000181863
1.23389e-06
-1.1607e-05
9.27402e-06
0.000190873
7.65963e-05
0.000205738
-0.000207971
-0.000125168
-9.54934e-05
1.85965e-05
-0.000159045
-1.7926e-05
2.7546e-06
-0.000108208
4.5885e-05
4.35777e-05
8.85815e-05
0.000379326
0.000122888
0.000391266
-4.07839e-05
-9.46972e-05
0.000385943
0.000318661
-6.9929e-05
-0.000179994
8.48359e-05
-0.000130428
-6.99065e-06
1.20461e-05
0.000104167
0.000233208
0.000147614
-5.16703e-05
0.000171517
-4.75805e-05
-1.01295e-05
1.40407e-05
3.29116e-05
0.000129055
-3.77954e-05
-0.000135673
1.54196e-06
-3.87809e-06
0.000218442
-1.09222e-05
0.000203504
3.11891e-05
-1.05692e-05
0.000158303
6.26253e-05
-3.27771e-05
0.00107744
-1.84638e-05
-1.34769e-05
7.12684e-05
0.000592797
0.000215339
0.000648142
7.69461e-05
3.58472e-05
-0.000288914
-0.000544504
-9.68418e-05
0.000107913
-5.39193e-05
-0.000245681
3.32239e-05
-0.000131235
-0.000279125
-4.91259e-05
-0.000124786
-9.42219e-05
0.000393744
7.27218e-06
-2.82588e-05
4.79963e-05
-0.000156489
7.14398e-05
-2.58549e-05
-5.11064e-06
0.000331582
1.47051e-05
-0.00011788
2.46079e-05
0.000146785
-8.36291e-05
-2.72631e-05
-7.26653e-05
-2.03408e-05
1.41223e-05
-0.000389827
3.16555e-05
3.86046e-05
-3.00087e-05
1.8516e-05
0.000686107
0.000153283
-6.13533e-05
-1.72493e-05
-0.000228431
-3.80698e-06
-0.000229293
1.70749e-05
5.18897e-05
-2.01268e-06
6.40703e-05
8.35179e-05
-1.33052e-05
-0.000252719
0.000401999
-0.000333282
9.54965e-05
-0.000174452
2.27988e-05
3.65393e-05
-0.000597686
-0.000530029
6.6196e-05
-9.6886e-05
7.90039e-05
0.00062262
-0.000366599
4.57981e-05
-0.000311744
0.000511155
0.000523776
-0.00028616
0.000494044
0.000224688
7.44883e-05
-3.82347e-05
6.63665e-06
0.000526087
0.000403925
-9.68809e-06
7.00766e-05
-0.000545045
7.67359e-05
1.3237e-05
-8.95164e-05
0.00017925
3.62444e-05
8.21677e-05
0.000443878
-0.000149053
6.77761e-05
-3.6095e-05
-2.50629e-06
-0.000134889
-1.84545e-06
0.00052908
0.000120482
-2.99502e-05
2.91365e-06
6.70407e-05
4.66478e-05
9.99577e-06
-1.88151e-06
0.000123644
8.58901e-07
0.000122576
-0.000298206
0.00010242
-0.000123164
0.000884432
1.09371e-06
-4.18635e-05
0.000768105
0.000677473
1.01761e-05
6.96801e-05
5.21586e-06
-9.1075e-05
2.28686e-05
-0.000147789
-0.000271244
-0.00244139
2.86859e-05
-2.72266e-05
0.00106622
1.5407e-05
-0.000154392
-0.000140207
0.000507512
5.98175e-05
1.17809e-05
0.000555679
1.78386e-05
1.7213e-05
3.38986e-06
2.16004e-05
-2.24846e-05
8.84168e-06
-2.43025e-05
0.000111973
0.000380151
-4.60768e-05
-2.42769e-06
-6.87543e-05
0.000309539
-0.000117506
4.56818e-05
2.05986e-05
3.46036e-05
-3.02906e-05
1.59524e-06
2.88463e-05
-0.000206679
-1.00033e-05
-0.000674266
-1.10767e-05
4.28227e-05
0.000497731
2.14617e-05
0.000501629
8.56015e-05
-2.0456e-05
-0.000240761
0.000338891
1.19132e-05
0.000433105
1.92941e-06
-1.35474e-05
1.6416e-05
-6.46234e-05
3.31526e-05
-3.03807e-08
2.32632e-06
-4.66855e-05
-0.000304563
0.000233299
0.00059036
-8.51856e-06
1.73892e-05
1.57853e-06
-0.000170358
-0.000560071
8.76161e-05
-9.87186e-05
3.92307e-06
2.38581e-05
-5.51124e-05
-0.000197481
5.97412e-05
0.000148859
3.56725e-05
1.1327e-06
-0.000411549
2.92513e-05
-3.42735e-05
0.000189093
3.47217e-05
-7.57476e-05
2.65526e-05
6.60921e-05
0.000184835
0.000108208
-1.25877e-05
-0.000105692
6.20708e-05
0.0001211
0.000247268
0.000140441
6.72506e-09
-9.84141e-06
5.71771e-05
0.000366946
-0.000802609
-0.00016736
-0.00024631
-1.43153e-05
0.000158687
0.000104535
0.000725635
-1.78978e-06
-0.000373666
-8.44883e-05
-0.000279495
-0.00031301
-0.000603093
1.68654e-05
-0.000127136
0.000292203
0.000746373
6.35496e-06
-0.000119397
-0.000728341
-0.000149839
-7.61226e-06
-6.26201e-05
-4.5562e-05
-8.15639e-06
-0.000215294
-0.000371838
0.000137049
7.75024e-07
-1.48184e-05
0.000427578
-0.000374735
-2.71285e-05
0.000125041
-0.000216863
7.73312e-05
-0.000249752
-0.000223138
6.14298e-05
-0.000191324
-1.17839e-05
2.84093e-05
-0.000351188
-0.000390218
-0.000164807
-8.59846e-05
2.1536e-05
-0.000515385
-0.00027696
-1.47833e-05
-2.29812e-05
-7.10966e-05
-7.12509e-05
4.9417e-05
-3.9709e-05
-2.67262e-05
7.43697e-06
1.6153e-05
-0.000147538
-8.34967e-05
0.000590629
-0.000193459
-0.000204487
-2.50718e-05
0.000383915
-2.24913e-06
-0.000290738
4.34835e-06
-0.000213556
-7.42201e-05
0.000679396
0.00072505
-8.85685e-05
-0.000191811
3.42002e-05
-0.000100169
0.000220868
0.00102201
0.000805451
0.000125484
-0.000151038
1.85242e-05
-0.000181676
2.31956e-06
4.66456e-06
0.000167976
0.000191945
-1.90175e-05
-1.89088e-05
4.24918e-06
-6.09818e-05
-1.73047e-05
1.11438e-05
0.000240944
-2.43008e-05
2.11879e-05
0.000293513
-5.65806e-05
-1.78543e-05
-0.000584408
2.15709e-05
-0.000671977
2.03911e-05
-0.000105666
-8.74975e-05
1.14144e-05
-5.81212e-05
0.000845175
8.99071e-05
0.000785347
1.53632e-05
-0.000468719
-2.52545e-05
-0.000641635
0.000344094
-0.000216139
-6.53197e-05
-0.000148651
0.00102003
-0.000144157
-0.00011311
-0.000309615
2.63617e-05
-3.556e-05
-2.9394e-05
0.000283656
-4.80563e-05
0.000258654
7.33281e-05
-0.000241049
7.82593e-05
-0.000241413
-1.53325e-06
0.000131207
0.000121478
-4.5614e-06
6.76038e-05
-6.28299e-06
1.72828e-05
-7.18762e-07
3.51248e-05
0.00054636
-6.66991e-06
-5.13332e-05
1.30596e-05
-3.29312e-05
-0.000141522
2.04017e-05
-0.000147688
-0.000130486
1.02685e-06
-1.11698e-05
9.28431e-06
0.000168619
6.6515e-06
-4.27943e-05
-5.54012e-05
-6.67494e-05
-1.82827e-05
1.04138e-05
5.24883e-05
-1.03112e-05
-0.000135851
-1.92527e-05
-8.24105e-07
-3.77776e-05
0.000354398
-1.06671e-06
5.35739e-05
0.000194458
-0.000164478
-0.000219638
0.000378725
1.35976e-05
8.47273e-05
0.00027529
2.64361e-05
-6.06502e-05
6.16519e-05
8.97503e-06
2.36951e-05
0.000351429
9.01381e-05
-0.00014184
0.000117028
8.32061e-05
-7.58436e-06
-0.00013598
9.44287e-05
0.000607295
-3.03082e-05
0.000664351
-7.78002e-06
1.23681e-05
-5.70085e-05
1.99207e-05
0.000160193
0.000188899
-2.31999e-05
-9.80721e-05
0.000383329
-0.000569482
-5.05288e-05
-5.61497e-05
0.000295607
3.07905e-05
0.000456217
4.37943e-05
-3.59311e-05
-3.10279e-05
0.000301427
0.000236366
0.000378342
0.000451577
-0.000152103
-0.000356157
1.03755e-05
4.92111e-05
0.00043311
0.000120795
-4.77043e-05
0.000691769
-0.000119558
7.5525e-05
-2.44013e-05
-2.64934e-05
-2.48391e-06
0.000155401
0.000470728
0.000473455
-0.000218286
-9.47971e-05
9.10574e-06
-0.000145766
-0.000261387
2.89869e-05
0.000145344
3.33975e-05
4.49457e-05
0.000185207
-0.000381895
6.3437e-05
-4.92595e-05
-6.99659e-05
-4.63867e-06
-1.56474e-05
3.70515e-05
-5.53346e-06
-1.24364e-06
7.70711e-05
8.04064e-05
7.85313e-06
-1.60979e-08
-4.35724e-06
4.48473e-05
-4.1744e-05
-7.65991e-06
-0.000345589
-0.000219885
0.000211356
5.82696e-06
1.62883e-05
1.28047e-05
8.5865e-05
0.000254111
-0.000225675
-3.68296e-05
-0.000275238
-0.000164435
-2.4466e-05
-6.2206e-05
-0.000545216
-3.38221e-06
0.000147611
0.000109439
-0.00012426
3.78897e-06
-6.61757e-05
-1.15819e-05
-3.65006e-06
-0.000337517
-0.000109306
-0.000192047
-0.000216795
-5.10396e-06
4.15457e-05
0.000229089
3.70096e-05
0.000276276
0.000379865
-5.26355e-05
0.000199219
1.37276e-05
7.8548e-05
7.83176e-06
-0.00012449
-0.000711818
-0.000187474
0.000966093
3.49204e-05
5.97067e-05
0.000235196
1.21869e-05
-0.000299313
7.10855e-05
0.000269298
0.000475032
-2.87486e-07
-5.52226e-05
0.000102296
-0.000145958
-2.16707e-05
0.000273153
0.000332307
2.94249e-05
8.18155e-05
3.89881e-05
-1.28444e-05
-5.80085e-05
-0.000395214
-0.000338659
0.000274852
-2.74794e-05
-3.79422e-06
-9.36392e-07
-3.71853e-05
1.42291e-05
3.32362e-05
1.82854e-05
-7.39734e-06
-6.45275e-05
1.72071e-05
5.82756e-05
5.40536e-05
7.67689e-05
3.83757e-05
-0.000307884
-1.25118e-05
-8.01403e-05
-1.24234e-05
0.000179203
0.000437153
0.00039565
8.72469e-05
-7.22819e-05
-0.000143624
0.000205313
2.91551e-06
-2.49042e-05
-4.77266e-05
-3.70553e-05
-1.53551e-05
-0.000302235
-2.05709e-05
-2.66445e-05
-0.000286277
5.38698e-06
0.000139493
0.000167256
3.99876e-05
0.000137276
-7.9803e-05
3.63442e-05
0.000317851
0.000185705
3.32703e-05
0.000159047
0.000130033
1.74169e-05
-0.000182504
-0.000212473
-0.000274684
4.47475e-05
-6.01689e-05
0.000145394
-7.97616e-05
0.000148145
-0.000325743
0.000176564
-0.000377922
3.55495e-05
2.52872e-05
-1.34629e-05
-0.000234284
-1.11706e-05
-7.09399e-05
-1.93646e-05
0.00023003
-3.72025e-06
0.000303244
3.64954e-05
-4.93567e-06
3.16187e-05
7.49269e-05
-5.365e-06
7.24396e-05
-0.000101495
0.000329935
-0.000157311
-0.00011516
0.000139396
0.000102258
0.00025907
-4.18795e-05
-0.000476262
0.00235922
0.000588227
0.00148342
0.00167513
4.49538e-05
0.000413275
7.88838e-05
-3.70244e-05
2.3821e-05
4.05161e-05
2.70115e-06
2.45654e-06
-2.10173e-05
-0.000878388
0.000164593
-0.0006847
-0.000752709
0.000502841
0.000613721
0.000374536
-2.18842e-05
-0.000949311
-5.562e-05
0.000146043
-0.000151307
1.19195e-05
4.45537e-05
4.75762e-05
0.000462202
-2.95183e-05
-5.39473e-06
8.71756e-05
1.93923e-05
-0.000399466
0.000310325
-6.0698e-05
0.00066403
-0.000227671
0.000235185
3.09375e-05
-1.06622e-05
0.000368083
1.54545e-05
-0.000286909
-0.000479854
-0.000175548
1.45149e-05
8.95636e-05
8.08375e-07
-9.0146e-06
-9.10987e-06
0.000104708
-1.62063e-05
2.51015e-05
-3.55706e-06
-2.26289e-05
-0.000163275
-2.51832e-05
-0.000323395
0.00032564
-0.000237577
-6.72059e-05
-6.90392e-06
6.51579e-06
-6.6209e-05
2.18057e-05
0.000466781
1.98704e-05
2.13566e-06
2.01643e-06
2.76222e-05
6.72825e-05
2.59602e-06
8.53585e-06
4.09582e-05
8.07929e-06
-2.85517e-05
5.80905e-05
-0.000134413
-0.000267044
0.000162496
-0.000259276
5.11911e-06
3.38689e-05
0.000442963
-0.000358255
-0.000158863
-0.000314887
-1.97609e-05
0.000455538
-0.000304624
2.95821e-05
-7.95777e-05
-7.32881e-05
8.4598e-05
2.53322e-06
-1.15696e-06
1.67646e-05
0.000233704
-2.50332e-05
-9.23074e-05
0.000181244
1.46335e-05
0.000525561
-9.97639e-05
2.71765e-05
-1.64347e-05
6.61351e-06
0.000248943
4.19971e-05
7.11637e-05
-3.45604e-06
-4.86987e-05
0.000684459
-0.000274487
0.000564401
0.000156404
-0.000106829
-6.58279e-05
2.18219e-05
-2.41662e-05
-0.000824856
-0.000204977
-0.00101216
3.44589e-05
3.00845e-05
-3.62888e-05
-3.99903e-05
-0.000594198
8.6001e-05
-0.000428792
-5.96323e-07
4.63033e-05
6.19664e-05
1.33973e-05
3.76331e-06
-1.1819e-06
-3.84559e-06
6.96854e-06
-0.000178088
-0.000245344
0.000167708
0.00013912
7.00122e-05
0.000375585
0.000578648
0.000244897
0.00017583
3.48378e-05
1.97867e-05
-0.000889932
0.000516431
0.000328844
0.000143642
0.000161369
-2.52623e-05
9.0756e-05
6.28256e-05
-2.82001e-06
0.000140023
0.000168574
8.4906e-05
2.58463e-05
0.000228259
0.00011677
8.02924e-05
-5.73749e-05
-1.68679e-05
1.20051e-05
-4.36057e-05
7.24813e-05
-0.000129731
0.000193464
-7.06044e-05
7.40931e-05
-0.000130629
7.3201e-05
7.1833e-05
6.90931e-05
9.75698e-05
7.03422e-05
0.000101729
-4.67009e-05
2.15126e-05
-3.44552e-05
-1.73341e-05
6.10187e-07
7.77286e-06
0.000226587
-0.000648214
0.000242811
-0.000375688
0.000168809
-6.53485e-05
0.000106034
0.00012238
2.64415e-05
-6.02007e-06
6.20483e-05
-1.67614e-05
-0.000352471
-0.000458772
-0.000281662
-0.000351046
-0.000638377
-2.65475e-05
-1.62336e-05
5.19965e-05
-4.1803e-06
0.000176284
-3.51149e-05
0.000577253
0.000104096
1.83976e-05
-5.68962e-05
-4.20924e-05
-0.00010181
-4.70625e-06
0.000108812
-2.12753e-05
-1.98928e-05
0.000212503
-3.61038e-06
-1.47558e-05
-7.20026e-06
-1.0463e-05
-6.72702e-05
-6.20113e-05
1.23834e-05
-2.60052e-05
0.000141557
4.8001e-05
-7.24524e-05
2.98848e-05
-0.000233909
2.3281e-05
6.69344e-07
-6.88644e-05
-5.94219e-05
0.000229584
0.000263762
-5.66359e-06
-0.000287771
6.35983e-05
-0.000105768
0.000106794
0.0004939
4.75617e-05
8.73021e-05
-0.000116798
0.000171313
0.000535246
0.000443068
-3.3386e-05
-0.000107726
-3.50578e-05
-1.4428e-05
-4.33896e-05
7.33536e-05
0.000314829
5.78828e-07
-0.000374058
-0.000253524
-3.76638e-05
-1.25902e-05
-6.96556e-06
4.78791e-05
-0.000121455
-2.22394e-05
-0.000128431
-1.36675e-05
-7.86007e-05
-6.86091e-05
0.000167909
1.21729e-05
1.12762e-05
-0.000176136
-0.000403716
0.000540506
0.000527222
0.000110806
-0.000112116
0.000456711
-9.1661e-05
0.000336161
-0.000171586
-5.95182e-05
0.000335254
-5.3662e-05
-5.82879e-05
-7.66653e-05
-8.94921e-05
1.3555e-05
-2.65423e-05
-6.33316e-05
4.55525e-05
3.81044e-06
9.8891e-05
-0.000164168
4.60836e-06
0.00024076
-1.02712e-05
-0.0004626
-0.000163131
-7.20862e-05
-7.13572e-05
-0.000505295
-4.60302e-05
-0.000221174
-0.000189444
-0.0461067
0.000291869
0.000284822
-5.56684e-05
0.000314306
2.44996e-05
1.7352e-05
-7.65338e-05
-1.60421e-05
1.56793e-05
9.90813e-05
-1.65001e-05
-7.99193e-05
-5.41872e-05
-2.93496e-05
0.000118504
9.54239e-05
-0.000172332
-0.000379879
-0.000275731
6.47184e-05
9.30822e-05
0.000116334
6.75073e-05
0.0001223
0.00012245
-1.11849e-06
4.85363e-06
-3.14631e-06
7.65945e-06
-3.81441e-06
-9.21181e-05
-4.22935e-05
8.45712e-06
-1.02485e-05
-1.35206e-05
-4.26345e-06
-4.32466e-06
5.36265e-06
4.11985e-05
8.16212e-05
-0.000125098
-0.000213093
-0.000120679
-5.66025e-05
-0.000317647
0.000261537
0.000623205
0.000450382
-2.75528e-05
0.000149682
-5.1203e-05
7.95756e-05
0.000140102
0.000847262
-0.000195296
0.000451743
0.000697259
-9.84287e-05
-0.000236418
2.14707e-06
-3.38061e-05
-5.3927e-05
1.659e-06
0.000453928
-0.000252157
0.000165193
0.000168464
-0.000250829
-6.59734e-05
0.000116932
0.000118984
-0.000198652
-4.67531e-05
-8.4746e-05
-0.000667113
-0.000202658
0.000131432
-1.34396e-05
2.1555e-06
-5.63753e-05
-1.01875e-05
-3.3079e-05
0.000146307
0.000234417