# vtk DataFile Version 2.0
Unstructured Grid by M++
ASCII
DATASET UNSTRUCTURED_GRID
POINTS 4072 float
  0.875000   1.000000 0
  0.875000   0.984375 0
  0.875000   0.968750 0
  0.875000   0.953125 0
  0.875000   0.937500 0
  0.875000   0.921875 0
  0.875000   0.906250 0
  0.875000   0.890625 0
  0.875000   0.875000 0
  0.875000   0.859375 0
  0.875000   0.843750 0
  0.875000   0.828125 0
  0.875000   0.812500 0
  0.875000   0.796875 0
  0.875000   0.781250 0
  0.875000   0.765625 0
  0.859375   1.000000 0
  0.859375   0.984375 0
  0.859375   0.968750 0
  0.859375   0.953125 0
  0.859375   0.937500 0
  0.859375   0.921875 0
  0.859375   0.890625 0
  0.859375   0.875000 0
  0.859375   0.859375 0
  0.859375   0.843750 0
  0.859375   0.828125 0
  0.859375   0.812500 0
  0.859375   0.796875 0
  0.859375   0.781250 0
  0.859375   0.765625 0
  0.859375   0.671875 0
  0.859375   0.656250 0
  0.859375   0.640625 0
  0.843750   1.000000 0
  0.843750   0.984375 0
  0.843750   0.968750 0
  0.843750   0.953125 0
  0.843750   0.937500 0
  0.843750   0.921875 0
  0.843750   0.906250 0
  0.843750   0.875000 0
  0.843750   0.859375 0
  0.843750   0.843750 0
  0.843750   0.828125 0
  0.843750   0.812500 0
  0.843750   0.796875 0
  0.843750   0.781250 0
  0.843750   0.765625 0
  0.843750   0.671875 0
  0.843750   0.656250 0
  0.843750   0.640625 0
  0.828125   1.000000 0
  0.828125   0.984375 0
  0.828125   0.968750 0
  0.828125   0.953125 0
  0.828125   0.937500 0
  0.828125   0.921875 0
  0.875000   0.671875 0
  0.812500   0.921875 0
  0.890625   0.656250 0
  0.828125   0.906250 0
  0.875000   0.656250 0
  0.812500   0.906250 0
  0.890625   0.640625 0
  0.828125   0.890625 0
  0.875000   0.640625 0
  0.812500   0.890625 0
  0.890625   0.625000 0
  0.828125   0.875000 0
  0.890625   0.609375 0
  0.828125   0.859375 0
  0.890625   0.593750 0
  0.828125   0.843750 0
  0.890625   0.578125 0
  0.828125   0.828125 0
  0.890625   0.562500 0
  0.828125   0.812500 0
  0.828125   0.796875 0
  0.828125   0.781250 0
  0.828125   0.765625 0
  0.828125   0.671875 0
  0.828125   0.656250 0
  0.828125   0.640625 0
  0.875000   0.750000 0
  0.812500   1.000000 0
  0.875000   0.625000 0
  0.812500   0.875000 0
  0.875000   0.734375 0
  0.812500   0.984375 0
  0.875000   0.718750 0
  0.812500   0.968750 0
  0.875000   0.703125 0
  0.812500   0.953125 0
  0.875000   0.687500 0
  0.812500   0.937500 0
  0.875000   0.609375 0
  0.812500   0.859375 0
  0.875000   0.593750 0
  0.812500   0.843750 0
  0.875000   0.578125 0
  0.812500   0.828125 0
  0.812500   0.812500 0
  0.875000   0.546875 0
  0.812500   0.796875 0
  0.812500   0.781250 0
  0.812500   0.765625 0
  0.859375   0.750000 0
  0.796875   1.000000 0
  0.859375   0.625000 0
  0.796875   0.875000 0
  0.859375   0.734375 0
  0.796875   0.984375 0
  0.859375   0.718750 0
  0.796875   0.968750 0
  0.859375   0.703125 0
  0.796875   0.953125 0
  0.859375   0.687500 0
  0.796875   0.937500 0
  0.859375   0.609375 0
  0.796875   0.859375 0
  0.859375   0.593750 0
  0.796875   0.843750 0
  0.859375   0.578125 0
  0.796875   0.828125 0
  0.859375   0.562500 0
  0.796875   0.812500 0
  0.796875   0.796875 0
  0.859375   0.531250 0
  0.796875   0.781250 0
  0.796875   0.765625 0
  0.843750   0.750000 0
  0.781250   1.000000 0
  0.843750   0.625000 0
  0.781250   0.875000 0
  0.843750   0.734375 0
  0.781250   0.984375 0
  0.843750   0.718750 0
  0.781250   0.968750 0
  0.843750   0.703125 0
  0.781250   0.953125 0
  0.843750   0.687500 0
  0.781250   0.937500 0
  0.843750   0.609375 0
  0.781250   0.859375 0
  0.843750   0.593750 0
  0.781250   0.843750 0
  0.843750   0.578125 0
  0.781250   0.828125 0
  0.781250   0.812500 0
  0.843750   0.546875 0
  0.781250   0.796875 0
  0.781250   0.781250 0
  0.843750   0.515625 0
  0.781250   0.765625 0
  0.828125   0.750000 0
  0.765625   1.000000 0
  0.828125   0.625000 0
  0.765625   0.875000 0
  0.828125   0.734375 0
  0.765625   0.984375 0
  0.828125   0.718750 0
  0.765625   0.968750 0
  0.828125   0.703125 0
  0.765625   0.953125 0
  0.828125   0.687500 0
  0.765625   0.937500 0
  0.828125   0.609375 0
  0.765625   0.859375 0
  0.828125   0.593750 0
  0.765625   0.843750 0
  0.828125   0.578125 0
  0.765625   0.828125 0
  0.828125   0.562500 0
  0.765625   0.812500 0
  0.765625   0.796875 0
  0.828125   0.531250 0
  0.765625   0.781250 0
  0.765625   0.765625 0
  0.812500   0.750000 0
  0.750000   1.000000 0
  0.953125   1.000000 0
  0.812500   0.734375 0
  0.750000   0.984375 0
  0.812500   0.718750 0
  0.750000   0.968750 0
  0.812500   0.703125 0
  0.750000   0.953125 0
  0.812500   0.687500 0
  0.750000   0.937500 0
  0.812500   0.671875 0
  0.750000   0.921875 0
  0.812500   0.656250 0
  0.750000   0.906250 0
  0.812500   0.640625 0
  0.750000   0.890625 0
  0.812500   0.625000 0
  0.750000   0.875000 0
  0.812500   0.609375 0
  0.750000   0.859375 0
  0.812500   0.593750 0
  0.750000   0.843750 0
  0.812500   0.578125 0
  0.750000   0.828125 0
  0.750000   0.812500 0
  0.812500   0.546875 0
  0.750000   0.796875 0
  0.750000   0.781250 0
  0.812500   0.515625 0
  0.750000   0.765625 0
  0.796875   0.750000 0
  0.734375   1.000000 0
  0.796875   0.734375 0
  0.734375   0.984375 0
  0.796875   0.718750 0
  0.734375   0.968750 0
  0.796875   0.703125 0
  0.734375   0.953125 0
  0.796875   0.687500 0
  0.734375   0.937500 0
  0.796875   0.671875 0
  0.734375   0.921875 0
  0.796875   0.656250 0
  0.734375   0.906250 0
  0.796875   0.640625 0
  0.734375   0.890625 0
  0.796875   0.625000 0
  0.734375   0.875000 0
  0.796875   0.609375 0
  0.734375   0.859375 0
  0.796875   0.593750 0
  0.734375   0.843750 0
  0.796875   0.578125 0
  0.734375   0.828125 0
  0.734375   0.812500 0
  0.734375   0.796875 0
  0.796875   0.531250 0
  0.734375   0.781250 0
  0.734375   0.765625 0
  0.781250   0.750000 0
  0.718750   1.000000 0
  0.921875   1.000000 0
  0.781250   0.734375 0
  0.718750   0.984375 0
  0.781250   0.718750 0
  0.718750   0.968750 0
  0.781250   0.703125 0
  0.718750   0.953125 0
  0.859375   0.906250 0
  0.781250   0.687500 0
  0.718750   0.937500 0
  0.781250   0.671875 0
  0.718750   0.921875 0
  0.781250   0.656250 0
  0.718750   0.906250 0
  0.781250   0.640625 0
  0.718750   0.890625 0
  0.781250   0.625000 0
  0.718750   0.875000 0
  0.781250   0.609375 0
  0.718750   0.859375 0
  0.781250   0.593750 0
  0.718750   0.843750 0
  0.781250   0.578125 0
  0.718750   0.828125 0
  0.781250   0.562500 0
  0.718750   0.812500 0
  0.781250   0.546875 0
  0.718750   0.796875 0
  0.781250   0.531250 0
  0.718750   0.781250 0
  0.781250   0.515625 0
  0.718750   0.765625 0
  0.765625   0.750000 0
  0.703125   1.000000 0
  0.765625   0.734375 0
  0.703125   0.984375 0
  0.765625   0.718750 0
  0.703125   0.968750 0
  0.765625   0.703125 0
  0.703125   0.953125 0
  0.765625   0.687500 0
  0.703125   0.937500 0
  0.843750   0.890625 0
  0.703125   0.921875 0
  0.765625   0.656250 0
  0.703125   0.906250 0
  0.765625   0.640625 0
  0.703125   0.890625 0
  0.765625   0.625000 0
  0.703125   0.875000 0
  0.765625   0.609375 0
  0.703125   0.859375 0
  0.765625   0.593750 0
  0.703125   0.843750 0
  0.765625   0.578125 0
  0.703125   0.828125 0
  0.765625   0.562500 0
  0.703125   0.812500 0
  0.765625   0.546875 0
  0.703125   0.796875 0
  0.765625   0.531250 0
  0.703125   0.781250 0
  0.765625   0.515625 0
  0.703125   0.765625 0
  0.750000   0.750000 0
  0.687500   1.000000 0
  0.890625   1.000000 0
  0.750000   0.734375 0
  0.687500   0.984375 0
  0.750000   0.718750 0
  0.687500   0.968750 0
  0.578125   0.796875 0
  0.578125   0.781250 0
  0.578125   0.765625 0
  0.546875   0.953125 0
  0.546875   0.968750 0
  0.546875   0.718750 0
  0.546875   0.687500 0
  0.250000   0.609375 0
  0.937500   0.031250 0
  0.046875   0.703125 0
  0.734375   0.062500 0
  0.734375   0.078125 0
  0.734375   0.046875 0
  0.046875   0.593750 0
  0.046875   0.562500 0
  0.046875   0.531250 0
  0.718750   0.156250 0
  0.046875   0.609375 0
  0.734375   0.031250 0
  0.062500   0.609375 0
  0.234375   0.703125 0
  0.718750   0.125000 0
  0.046875   0.578125 0
  0.734375   0.000000 0
  0.062500   0.578125 0
  0.000000   0.828125 0
  0.234375   0.671875 0
  0.234375   0.625000 0
  0.718750   0.093750 0
  0.687500   0.156250 0
  0.062500   0.546875 0
  0.000000   0.796875 0
  0.718750   0.046875 0
  0.031250   0.687500 0
  0.687500   0.171875 0
  0.500000   1.000000 0
  0.078125   0.218750 0
  0.234375   0.593750 0
  0.718750   0.062500 0
  0.687500   0.125000 0
  0.000000   0.765625 0
  0.421875   0.500000 0
  0.031250   0.593750 0
  0.718750   0.015625 0
  0.687500   0.234375 0
  0.015625   0.812500 0
  0.703125   0.171875 0
  0.703125   0.187500 0
  0.703125   0.140625 0
  0.015625   0.781250 0
  0.437500   0.515625 0
  0.500000   0.796875 0
  0.078125   0.015625 0
  0.687500   0.203125 0
  0.250000   0.578125 0
  0.703125   0.109375 0
  0.000000   0.515625 0
  0.500000   0.765625 0
  0.062500   0.593750 0
  0.750000   0.015625 0
  0.015625   0.843750 0
  0.687500   0.000000 0
  0.500000   0.828125 0
  0.078125   0.046875 0
  0.015625   0.531250 0
  0.250000   0.546875 0
  0.703125   0.078125 0
  0.703125   0.031250 0
  0.015625   0.671875 0
  0.250000   0.515625 0
  0.000000   0.656250 0
  0.500000   0.906250 0
  0.078125   0.125000 0
  0.687500   0.015625 0
  0.031250   0.546875 0
  0.687500   0.031250 0
  0.500000   0.859375 0
  0.703125   0.000000 0
  0.703125   0.046875 0
  0.703125   0.015625 0
  0.500000   0.937500 0
  0.234375   0.531250 0
  0.031250   0.578125 0
  0.687500   0.062500 0
  0.500000   0.890625 0
  0.031250   0.796875 0
  0.453125   0.531250 0
  0.500000   0.968750 0
  0.078125   0.187500 0
  0.234375   0.562500 0
  0.031250   0.609375 0
  0.718750   0.031250 0
  0.687500   0.093750 0
  0.750000   0.046875 0
  0.000000   0.937500 0
  0.421875   0.671875 0
  0.718750   0.187500 0
  0.031250   0.828125 0
  0.765625   0.062500 0
  0.015625   0.953125 0
[...]
CELL_DATA 7648
SCALARS scalar_value float 1
LOOKUP_TABLE default
-7.97014e-05
-0.00012302
0.000628376
-0.000158392
-0.000129239
6.73623e-05
-7.13905e-05
-3.58786e-05
2.50922e-05
-0.00031607
-5.62391e-06
0.000498709
-0.000196346
-0.000346387
7.72886e-05
6.54753e-05
-0.000335267
0.000218371
0.000305555
-4.53333e-05
5.10212e-05
0.000233661
0.000102897
1.18855e-05
-0.000161887
7.1276e-05
0.000344981
0.00021139
0.000136698
-7.4396e-05
-0.000194627
-0.000209662
-0.000123133
-8.7783e-06
-4.4098e-06
1.83778e-05
3.7887e-05
-2.06891e-06
-7.37263e-05
3.73247e-05
-1.81485e-06
0.000122309
-0.00036824
-3.10329e-06
3.05721e-05
6.85846e-06
-0.000128564
-0.000162111
1.66859e-05
-0.000248181
-4.24075e-06
1.67572e-05
-7.45926e-05
4.79142e-05
-5.76922e-05
-2.81274e-05
-0.000134594
0.00021681
-4.3923e-05
3.60871e-05
4.2487e-05
-6.67836e-05
3.44225e-06
-3.66699e-05
-6.39265e-05
-9.30419e-05
0.00024372
-8.30313e-05
0.000173055
1.8724e-05
1.33807e-05
1.22342e-06
1.15546e-05
-4.30996e-05
-0.00036552
0.000389709
0.00017978
1.35826e-05
-1.34603e-05
9.92067e-05
-1.91979e-05
6.46977e-05
-9.44692e-05
-7.44325e-05
-4.25551e-05
1.06734e-05
-0.000382726
0.000288275
3.35461e-05
0.000148198
1.43773e-05
0.000107206
5.1813e-05
1.77429e-05
-8.34099e-06
7.54612e-05
-0.000126262
4.31561e-05
-0.000344654
0.000120266
0.000293825
2.74669e-06
5.68382e-06
-5.62736e-05
-3.08343e-05
-0.000237011
-5.50482e-05
-7.55015e-05
0.000242522
-0.000166372
8.99147e-06
-5.70256e-05
0.000239801
-0.000116893
-0.00022187
-5.68391e-06
-3.3224e-05
0.00017925
-0.000156865
9.80314e-05
0.000148989
3.53354e-05
-0.000142185
1.51983e-05
-4.79559e-05
-9.16319e-06
1.02442e-05
-8.88114e-06
0.000378448
0.000316055
-0.00018248
8.90117e-06
0.000446434
7.06358e-05
6.4433e-05
4.72715e-05
-0.000151756
0.00010327
6.79857e-05
0.000241129
-0.00023034
-5.16248e-05
3.38228e-05
3.45526e-05
2.51724e-05
5.02761e-06
7.57073e-05
2.3015e-05
9.91214e-05
-0.000266358
-1.36569e-05
-2.20258e-05
-7.39926e-05
-0.000311928
2.08136e-05
0.00021854
-0.000492396
5.73475e-05
-4.08554e-06
0.000195162
2.54535e-05
-0.000506419
-3.71647e-05
3.00525e-05
1.17257e-05
-0.000142918
-8.9994e-05
-0.000111975
9.81814e-06
9.16885e-05
-7.80955e-05
-0.000284591
-3.06835e-05
-4.43559e-05
-0.000281206
-0.000148696
-1.39181e-05
-1.82325e-06
6.40733e-06
-0.000156688
-1.03887e-05
-1.2568e-05
0.000459542
-0.000639875
-0.00032162
-0.000228037
7.10812e-05
0.000355541
1.9263e-05
-6.44764e-05
-6.52433e-05
-0.000372967
0.000123596
8.27647e-05
2.05269e-05
9.60717e-06
2.17232e-05
-9.54622e-06
-0.000128277
-0.000105846
2.27281e-05
8.45117e-05
7.15595e-05
4.30111e-05
-0.00031077
-7.60161e-06
4.47533e-05
3.90112e-05
0.000144419
-4.15236e-05
9.31324e-05
-0.00018645
-3.4459e-05
0.000122584
0.00016774
3.32807e-05
-6.45691e-06
0.000145124
8.20909e-05
-0.000153577
2.84117e-05
3.00699e-05
-6.47875e-05
-6.06207e-05
-2.84664e-05
0.000248732
-0.000112562
-4.94387e-05
-4.63358e-05
0.000303497
-0.00055467
-0.000119345
0.000183725
-6.69837e-05
-2.26358e-05
8.52444e-05
0.000118559
0.000115182
2.80318e-06
0.000100678
-3.73991e-06
0.00020574
-7.00925e-05
0.000223032
-1.83579e-05
-6.30024e-05
1.12874e-05
0.000492834
3.94757e-05
-0.000108914
0.000256397
-0.000123088
-0.000675945
-8.38728e-05
9.85067e-07
6.97812e-05
-8.24398e-05
-0.000414611
0.000103473
-1.27491e-05
0.000394872
-4.17268e-06
1.59924e-05
-0.000195477
5.27357e-06
0.000242858
-0.000116356
0.000125795
-0.000194526
-0.000282636
-0.000229913
8.80956e-05
0.000254799
-0.000220152
-0.000192657
-0.000413273
0.00148467
0.000285281
8.35183e-05
-1.75785e-05
-3.46425e-06
5.25564e-06
-0.000195231
7.65262e-05
-2.57256e-05
0.000136388
3.82514e-05
4.27731e-05
-0.000169534
0.000275154
-0.000271802
-4.21927e-05
6.40961e-05
7.30387e-06
3.90312e-05
-7.75681e-05
0.00017199
-0.000125427
0.00044711
-0.000136682
-3.67597e-05
-1.01647e-05
3.43539e-05
-2.80127e-05
8.18101e-05
-0.000259386
2.03475e-05
0.000167484
-8.58883e-05
-0.000163638
1.48164e-05
5.97428e-05
-0.000437942
0.000162647
-5.93274e-06
-3.63003e-05
-5.32036e-05
5.4201e-05
-0.000119778
0.000103427
-9.31322e-06
-4.72689e-06
-0.000317666
-5.07893e-06
3.08809e-06
0.000213926
-1.72742e-05
-3.33907e-07
-1.98517e-06
-1.28789e-05
-3.05317e-05
-7.33503e-05
-3.62615e-06
4.49664e-05
-1.02131e-05
3.18432e-05
-2.69585e-05
1.18162e-05
8.14326e-06
1.02552e-05
6.25167e-05
0.000189563
8.90708e-05
1.25875e-06
-6.22324e-05
-6.50385e-05
7.58954e-05
-2.05071e-05
1.01407e-05
-1.13596e-05
-1.52078e-05
-0.000259466
0.000267381
-3.80338e-05
-6.86636e-05
-7.95948e-06
2.74702e-05
-3.29301e-05
7.37935e-06
5.19976e-05
6.96192e-05
-6.30322e-06
0.000194544
-4.25481e-05
-0.000145212
6.14881e-05
3.85927e-05
-0.00020672
-7.83788e-05
-3.32712e-05
-0.000498461
-6.5048e-05
-5.46294e-05
0.00029696
-0.000202192
-0.000177129
0.000131166
-2.64345e-05
-5.28165e-05
6.4437e-05
-0.00029992
2.12107e-05
-5.83891e-05
-4.58395e-05
-3.29013e-05
-6.35816e-05
-6.19835e-05
-2.82523e-05
-0.000372644
-0.000126387
-0.000488953
-2.53753e-05
0.000207947
-0.000264041
-7.14052e-05
8.20239e-05
3.56433e-06
-6.14601e-06
-0.000509446
0.000160678
7.75398e-06
-0.000218253
-1.78228e-05
-8.02992e-06
1.35877e-05
1.17455e-05
-4.43321e-05
6.7025e-05
0.000228083
-1.80242e-07
-0.000266722
-9.75028e-06
1.94662e-05
7.47046e-05
0.000125901
0.000600173
0.000188337
1.62799e-05
-1.82412e-05
1.53806e-05
-0.000190978
-0.000535796
-0.000238922
-5.91542e-05
0.000397465
3.81126e-05
6.10921e-05
0.0014783
-0.00055743
-0.000259675
0.000154701
-0.000231918
5.10242e-05
-0.000121957
-1.83234e-05
-0.000130101
3.03813e-05
-1.99496e-05
-0.000147803
-6.0197e-05
0.000351498
-2.38154e-05
2.52473e-05
-4.11902e-05
-1.6739e-05
-9.8249e-06
-0.000546397
0.000529716
-4.71701e-06
-0.00036693
-1.38322e-05
-0.000226189
-2.41594e-05
-7.9132e-05
-8.70661e-06
-5.10176e-06
-0.000162116
-0.000516687
0.00017979
6.69494e-05
0.000147961
4.73407e-05
9.48893e-05
-4.83994e-05
2.11929e-05
1.5658e-06
2.84202e-05
0.000128878
-3.19447e-05
-0.000252392
-0.00010333
-0.000410502
-0.000226179
6.58685e-05
0.00024639
-8.53591e-05
0.000259583
-1.3318e-05
-0.000293849
-0.000189614
-1.00243e-05
0.00029488
-1.99161e-05
-0.000338576
0.000173147
0.000145019
-1.2093e-05
-1.27192e-07
-6.1338e-05
-0.00010466
4.03423e-06
2.44719e-05
7.36442e-05
-0.000714377
0.00056883
0.00125758
1.07961e-05
-3.20229e-06
-1.25387e-05
-4.44857e-05
-2.84095e-05
3.96592e-06
2.03495e-06
-0.000697752
0.000145226
0.000122826
-4.548e-05
7.54348e-06
-0.000474449
3.74276e-06
0.000133061
2.73279e-06
-8.8865e-06
-0.000400034
0.000513113
0.000175207
-6.3288e-05
-4.30538e-05
-1.38998e-05
5.05101e-05
0.000523105
0.000261215
-3.97526e-05
-0.000125747
-4.06149e-05
-7.62568e-08
-4.19467e-05
-1.89456e-05
0.000291379
0.000311294
-5.68561e-05
3.56825e-05
-1.87401e-05
2.41609e-05
-0.000134332
-5.48564e-05
-6.69083e-05
1.84178e-05
0.000125171
0.000309275
0.000297267
-1.97034e-05
3.84536e-06
4.84155e-06
0.000209386
5.02663e-05
0.000191864
-0.000377292
-0.000114713
-7.62648e-05
4.29726e-06
-0.000159287
-1.07179e-05
2.78577e-05
-7.52614e-05
3.77455e-05
1.92596e-05
8.33709e-05
0.000388737
0.000121922
0.000462025
-1.35097e-05
-7.215e-05
0.000370466
0.000324257
-6.52092e-05
-0.000171144
8.01994e-05
-0.000124835
7.14985e-08
1.16926e-05
0.000107022
0.000178773
0.000134812
-4.70289e-05
0.000140718
-4.38171e-05
-2.28526e-06
1.74917e-05
1.45498e-05
9.87676e-05
-1.76528e-05
-0.000146007
-1.69721e-06
-3.95454e-06
0.000217728
-1.91802e-05
0.000173828
4.2281e-05
5.42404e-06
0.000164547
3.4612e-05
-4.40752e-05
0.000954373
-5.97573e-06
-1.39889e-05
9.33925e-05
0.000611298
0.000163662
0.000643681
0.000117459
-9.67117e-07
-0.000349168
-0.000521901
-0.00016616
9.99201e-05
-2.0306e-05
-0.000238496
1.43674e-05
-0.000125423
-0.000250044
-1.54304e-05
-0.000151041
-0.000111713
0.000410411
1.43505e-05
-1.8057e-05
2.66658e-05
-0.000147111
8.31437e-05
-2.97677e-05
-8.47416e-06
0.000343671
1.53628e-05
-0.000116254
2.75916e-05
9.75937e-05
-6.20085e-05
-3.01081e-05
-8.47839e-05
-1.78643e-05
1.40629e-05
-0.000308352
3.18619e-05
3.34466e-05
-2.20967e-05
3.73469e-05
0.000588924
0.000172027
-6.46998e-05
-1.66749e-05
-0.000196314
-3.04747e-06
-0.00031695
1.93647e-05
4.76752e-05
8.6089e-07
5.54016e-05
0.000115731
-1.27496e-05
-0.000223209
0.000334595
-0.000327393
9.09923e-05
-0.000178245
3.55183e-05
-1.64761e-05
-0.000546856
-0.000685468
7.35747e-05
-8.95592e-05
5.27324e-05
0.00064085
-0.000317694
6.16308e-05
-0.000295634
0.000575011
0.000456045
-0.00027306
0.000467549
0.000196538
0.000129641
-2.60455e-05
2.58591e-05
0.000506788
0.000345572
-1.46565e-05
5.4387e-05
-0.000546511
8.05929e-05
2.00883e-05
-9.62091e-05
0.000175232
3.73773e-05
7.26831e-05
0.000421486
-0.000126257
0.000142229
-3.91837e-05
-1.3858e-06
-0.000112493
-2.19332e-07
0.000547034
0.000117528
1.93556e-06
6.30374e-06
4.63846e-05
4.39748e-05
-2.46974e-07
3.0777e-06
0.000116715
1.80093e-06
0.000105564
-0.000263323
0.000124139
-8.87785e-05
0.000856114
2.09108e-06
-4.73502e-05
0.000854483
0.000621168
4.02205e-05
6.50229e-05
-3.3742e-05
-8.18415e-05
2.96076e-05
-0.000131617
-0.000285481
-0.00262411
2.38182e-05
-2.05389e-05
0.000997658
2.28266e-05
-9.99975e-05
-0.000166347
0.000476854
5.67404e-05
1.1492e-05
0.000444335
1.57219e-05
3.0423e-05
-3.85586e-06
2.19837e-05
-1.25165e-05
5.04347e-06
-2.9552e-05
0.000133987
0.000429633
-4.20434e-05
-7.79925e-07
-5.28079e-05
0.00028568
-8.73973e-05
8.00067e-05
3.49256e-05
3.01974e-05
-1.84169e-05
-1.63696e-05
2.25915e-05
-0.000223873
-7.13487e-06
-0.000593657
-1.01433e-05
4.3436e-05
0.000177949
1.66609e-05
0.000521702
6.55043e-05
-7.68157e-06
-0.000220633
0.00035325
5.69268e-06
0.000385089
5.81107e-06
-2.65712e-05
2.09679e-05
-5.53322e-05
3.06093e-05
7.80206e-06
2.41923e-06
-3.39902e-05
-0.000271534
0.000151299
0.000712723
-8.02103e-06
2.58966e-05
1.38839e-06
-0.000133356
-0.000709809
5.60844e-05
-9.07621e-05
5.59396e-06
4.44949e-06
-8.18425e-05
-0.000183835
6.74516e-05
0.000135406
7.86166e-05
-1.12145e-05
-0.000334755
6.37908e-06
-3.75512e-05
0.000198479
3.4078e-05
-4.54509e-05
3.12387e-05
6.73705e-05
0.00019205
9.64504e-05
-1.56104e-05
-8.28333e-05
6.14455e-05
0.000133839
0.000232922
0.000103356
-1.04013e-06
1.5941e-08
5.64515e-05
0.000347888
-0.000591757
-0.000146543
-0.000263665
-2.06531e-05
0.000234344
9.09582e-05
0.00073629
2.38609e-05
-0.000197156
-8.24583e-05
-0.000243302
-0.000211271
-0.000444381
1.73338e-05
-0.000107163
0.000277818
0.000651766
4.77292e-06
-9.7478e-05
-0.000640675
-0.000158049
-1.10667e-05
-5.11748e-05
-3.06135e-05
-1.99464e-05
-0.000195169
-0.000315308
0.000130748
4.49009e-06
2.18786e-07
0.000424072
-0.000341583
-2.23068e-05
0.000132532
-0.000116022
9.17822e-05
-0.00017959
-0.000144479
4.90893e-05
-0.000146709
-8.79211e-06
2.26442e-05
-0.000369887
-0.000305804
-0.000144756
-7.9774e-05
4.27774e-05
-0.000437087
-0.000243585
-1.43323e-05
-4.78845e-05
-6.50033e-05
-7.88698e-05
3.29698e-05
-2.7026e-05
-4.58618e-06
2.7751e-05
-2.51311e-05
-0.000104088
-6.44369e-05
0.000603418
-0.000162581
-0.000141819
-2.97723e-05
0.000394262
-5.15135e-07
-0.000305673
-1.14966e-05
-0.000145869
-3.74128e-05
0.000669168
0.000672278
-8.97385e-05
-0.000189837
3.15077e-05
-9.11044e-05
0.000202565
0.000986885
0.000751265
0.000123092
-0.000120906
5.77337e-05
-0.00021045
3.7593e-06
-1.92034e-05
0.000128652
0.000162128
2.49862e-05
-1.56911e-05
1.13403e-05
-4.96447e-05
-8.13017e-06
-1.18698e-06
0.000231223
-1.22699e-05
1.64448e-05
0.000285282
1.10857e-05
-8.47809e-07
-0.000482659
1.09755e-05
-0.00060972
3.44397e-05
-5.75396e-05
-6.6127e-05
-1.20125e-05
-1.05799e-05
0.000760591
8.27507e-05
0.00060007
1.8701e-05
-0.000510825
-8.40516e-06
-0.000523654
0.000322626
-0.000318415
-2.97381e-05
-0.000153784
0.00053138
-0.000136089
-0.000105629
-0.000238945
-7.02958e-07
-4.60272e-05
-2.10457e-05
0.000241114
-4.17107e-05
0.000237542
5.19209e-05
-0.000245753
8.56111e-05
-0.000275828
-1.11261e-05
0.000170396
0.000243233
-8.33759e-06
7.11247e-05
-1.36997e-05
1.65732e-05
-2.85021e-05
6.36462e-06
0.000537628
-6.6919e-06
-3.29151e-05
1.39067e-05
-2.02431e-05
-0.000115466
2.87817e-05
-0.000109958
-0.000126807
2.90048e-06
-1.06994e-05
6.80123e-06
9.8215e-05
4.49781e-06
5.52061e-06
-9.57901e-05
-6.04901e-05
-7.21108e-06
-1.09395e-06
2.21359e-05
-5.62703e-06
-0.000155717
-2.60812e-05
2.45257e-06
-2.09821e-05
0.000332329
-5.22828e-05
7.19487e-05
0.000198834
-0.000155089
-0.000218006
0.0002739
7.7862e-06
0.000136786
0.000171866
3.3832e-05
-4.11425e-05
6.72332e-06
1.31675e-05
7.61573e-06
0.000318948
0.000112985
-0.00015434
0.000107857
7.77876e-05
-8.47945e-06
-0.000139805
9.78276e-05
0.000456807
-3.19658e-05
0.000519463
-1.39254e-05
2.15093e-05
-6.13136e-05
8.70458e-06
0.000135329
0.000183788
-7.26407e-05
-5.69138e-05
0.000324024
-0.00064576
-4.78143e-05
-6.83403e-05
0.00030693
5.93254e-05
0.000416847
3.06016e-05
-2.68931e-05
-2.60414e-05
0.000361265
0.000224653
0.000296525
0.000411354
-0.00015725
-0.000372052
-2.27002e-06
3.46392e-05
0.000619669
0.00011903
-8.27278e-06
0.000635504
-0.000116829
8.63047e-05
-3.34967e-05
-2.9732e-05
1.85307e-07
0.000154757
0.000509825
0.000451806
-0.000239653
-8.32312e-05
1.74302e-05
-0.000147374
-0.000221609
6.31409e-05
0.000144843
2.82237e-05
3.95237e-05
0.000192224
-0.000418389
7.11821e-05
-5.05912e-05
-6.31088e-05
-2.86988e-06
-2.4867e-05
3.63738e-05
-2.55e-06
-1.64942e-06
6.04279e-05
4.46723e-05
9.08958e-06
-3.53439e-05
-8.02009e-06
3.55629e-05
-2.91308e-05
-8.01577e-06
-0.00032775
-9.89793e-05
0.000143045
4.12654e-06
-3.11453e-06
1.43847e-05
8.24229e-05
0.000179113
-0.000248301
-6.0454e-05
-0.00026809
-0.000164509
-3.81698e-05
-6.55657e-05
-0.000528028
-3.84107e-06
0.000154774
0.000105753
-0.000141184
5.01192e-06
-0.000102077
-4.35846e-05
-7.23969e-06
-0.00030997
-0.00014101
-0.000230341
-0.000257442
-4.53272e-05
6.55359e-05
0.000168928
2.67763e-05
0.000272471
0.000381449
-3.98555e-05
0.000163157
1.21561e-05
6.67312e-05
1.64621e-06
-0.000108314
-0.000567371
-0.000166503
0.000789853
4.4049e-05
5.28295e-05
0.000252679
1.02861e-05
-0.000301357
4.89498e-05
0.000316325
0.000587166
5.50475e-06
-3.74379e-05
0.000111556
-0.000111729
-4.86786e-06
0.00035218
0.000301313
3.32653e-05
6.89704e-05
-4.5157e-06
-2.21723e-05
-7.48623e-05
-0.000412911
-0.000306189
0.000264247
-2.64267e-05
1.77399e-05
1.01791e-05
-3.66433e-05
1.54704e-05
2.67484e-05
1.08313e-05
-1.09558e-05
-4.64079e-05
1.68244e-05
6.75358e-05
4.23902e-05
7.99209e-05
5.56436e-05
-0.000329274
-1.27633e-05
-8.00157e-05
-1.11991e-05
0.000207954
0.000383078
0.00035265
6.85308e-05
-9.75612e-05
-0.00013616
0.000179984
8.27622e-06
-1.47467e-05
-8.68067e-05
-3.08661e-05
-1.39284e-05
-0.000282578
-1.92777e-05
-2.07435e-05
-0.000372526
-4.11395e-06
0.000143274
0.000183265
0.000142124
0.000225723
3.42453e-05
2.78812e-05
0.000261529
0.000146799
5.19749e-05
0.000192636
0.000116479
4.13783e-05
-0.000168576
-0.000200403
-0.000302126
4.26152e-05
-5.09502e-05
0.000122494
-6.65474e-05
0.000133727
-0.000317932
0.000187367
-0.000377737
3.5327e-05
2.20223e-05
-1.05915e-05
-0.000278772
-8.89097e-06
-7.79587e-05
-1.02015e-05
0.000271749
-7.16576e-06
0.000287813
3.76958e-05
-1.39497e-05
3.86887e-05
5.37702e-05
-2.96818e-06
5.9873e-05
-0.00013665
0.000330431
-0.000182151
-0.000192146
0.000101914
0.000145032
0.00026596
-3.41751e-05
-0.000498338
0.00201088
0.000762145
0.00137459
0.00162248
2.76955e-05
0.000415745
8.37204e-05
-4.02235e-05
1.58801e-05
3.91747e-05
-4.90592e-06
-8.20907e-06
-1.04291e-05
-0.000900991
0.000166608
-0.00066788
-0.000853406
0.000445815
0.000540743
0.000385314
-2.05763e-05
-0.000917898
-4.31873e-05
0.000122214
-0.000136521
9.48817e-06
2.6655e-05
4.23501e-05
0.000433349
-2.75805e-05
-4.8996e-07
0.000115181
1.17747e-05
-0.000592058
0.000379999
-6.55116e-05
0.000699846
-0.000244186
0.000227704
8.55823e-06
-7.01996e-06
0.000376489
1.86712e-05
-0.000352424
-0.000587869
-0.000170041
8.53274e-06
9.02532e-05
-3.20759e-06
-1.00946e-05
-1.15124e-05
8.49625e-05
-3.77197e-06
3.54046e-06
-3.83095e-08
-4.14949e-05
-0.000207748
-1.65375e-05
-0.00033422
0.000364852
-0.000276582
-3.74678e-05
-7.10394e-06
1.3555e-05
-6.68273e-05
1.0543e-06
0.000415279
1.19584e-05
5.63993e-06
6.01907e-06
1.21842e-05
1.67382e-05
-7.32278e-06
-2.62277e-06
2.32017e-05
5.75051e-06
-2.99211e-05
5.48066e-05
-0.000107769
-0.000266268
0.000195523
-0.000184019
4.4227e-05
3.5381e-05
0.000395282
-0.000318166
-0.000120248
-0.00028458
-2.0046e-05
0.000437181
-0.000300141
7.09533e-05
-7.59665e-05
-7.43745e-05
7.44655e-05
2.99571e-05
2.83147e-06
2.6715e-05
0.000224846
-5.18985e-05
-6.87305e-05
0.000134551
-5.60558e-05
0.000462528
-8.40291e-05
2.04827e-05
-1.33393e-05
1.17179e-05
0.000171425
4.93649e-05
7.71521e-05
-1.64235e-06
2.34865e-05
0.000599892
-0.000275098
0.000475676
0.000143208
-8.61078e-05
-3.72548e-05
6.83821e-06
-1.59121e-05
-0.000780007
-0.000257088
-0.000979581
2.98849e-05
2.9095e-05
-3.43697e-05
-3.8023e-05
-0.000535412
7.23997e-05
-0.000370467
-4.15787e-06
4.0548e-05
6.21695e-05
1.87866e-05
-8.77262e-06
-4.10716e-06
6.14357e-06
7.6469e-06
-0.000217477
-0.000213561
6.10531e-05
0.000136791
-2.36281e-05
0.000304481
0.000621531
0.000203537
0.00016094
3.46971e-05
1.97531e-05
-0.000847112
0.000516435
0.000316554
0.000129208
0.000133413
-3.0192e-05
6.85884e-05
5.81898e-05
-1.03836e-06
0.000119165
9.07672e-05
9.20937e-05
6.51981e-05
0.000154357
9.48052e-05
7.24272e-05
-2.12369e-05
-1.61675e-05
-6.64808e-05
-0.00010198
5.88577e-05
-9.206e-05
0.00017565
-0.000114574
0.000123694
-0.000121539
8.41649e-05
6.90652e-05
6.73164e-05
8.58217e-05
7.12063e-05
0.000107747
-3.86081e-05
2.45303e-05
-2.09113e-05
-1.79733e-05
-3.61712e-06
6.14201e-06
0.000198115
-0.0006534
0.000235485
-0.000349924
0.000153649
-7.47368e-05
0.000147586
0.000146667
2.26126e-05
-2.44985e-05
1.52846e-05
-1.77158e-05
-0.000317585
-0.00049992
-0.00027086
-0.000350844
-0.000609089
-2.94187e-05
-1.35692e-05
5.46544e-05
-2.51205e-06
0.000151325
-4.41668e-05
0.000629714
0.000100025
2.02014e-05
-4.09082e-05
-4.43334e-05
-0.000110248
-7.75666e-06
0.000108624
-1.79472e-05
-1.32112e-05
0.000182615
3.15476e-06
-4.25e-05
-1.34986e-06
-5.11683e-06
-7.48478e-05
-6.35104e-05
-2.80499e-05
-4.29288e-05
0.000164563
-2.44468e-05
-4.55766e-05
2.27377e-05
-0.000204161
1.61454e-05
1.57207e-06
-0.000168011
-9.37347e-05
0.000229413
0.000215342
-4.80603e-07
-0.000273404
9.77339e-05
2.55411e-05
4.89835e-05
0.000499362
8.00939e-05
9.19461e-05
-0.000110252
8.11993e-05
0.000381306
0.000406082
-1.04769e-05
-9.13176e-05
-2.2085e-05
-9.90737e-06
-4.30018e-05
5.17168e-05
0.000308842
4.93059e-07
-0.000339128
-0.000237486
2.06944e-05
-2.54393e-05
-7.8258e-06
7.90458e-05
-0.000149598
-2.28749e-05
-0.000111248
-2.83262e-05
-6.68937e-05
-6.71219e-05
0.000137957
1.51438e-05
-1.48646e-05
-0.000190027
-0.000492275
0.000439649
0.000622004
0.000116337
-0.000149287
0.000442442
-5.01191e-05
0.000326399
-0.000174962
-7.63062e-05
0.000320005
-5.90402e-05
5.03459e-06
-0.000102777
-3.82901e-05
3.56101e-05
-2.66942e-05
-6.93809e-05
6.40366e-05
2.28792e-06
0.000107154
-0.00016154
-1.22976e-05
0.000249119
-1.57012e-05
-0.000450084
-0.000157723
-7.15269e-05
-7.27536e-05
-0.000430352
-3.83784e-05
-0.000199246
-0.000132666
-0.0460933
0.000296351
0.000226659
-3.73815e-05
0.000261521
2.16885e-05
1.60066e-05
-7.30518e-05
-2.87165e-05
-2.20289e-06
8.62188e-05
-3.14431e-05
-0.00011758
-7.20257e-05
-3.36626e-05
0.000112994
9.16591e-05
-0.000258794
-0.000609967
-0.00030925
4.73635e-05
0.000157103
7.92881e-05
2.84297e-05
0.00010808
0.000155457
-9.32532e-07
3.06502e-06
-4.07657e-06
8.68501e-06
-1.26542e-06
-9.72563e-05
-5.70936e-05
9.46083e-06
-1.31069e-05
-1.40367e-05
-4.29346e-06
-4.01416e-06
4.64994e-06
1.41472e-05
3.9835e-05
-0.000124177
-0.000144592
-0.000243487
-6.80776e-05
-0.000387893
0.000144333
0.000544352
0.000385746
-2.49146e-05
0.000203875
-3.58092e-05
9.29796e-05
0.00015707
0.000758665
-0.000101408
0.000454139
0.00058881
-4.07677e-05
-0.000231869
2.78043e-06
-3.8004e-05
-5.05745e-05
7.03101e-06
0.00050265
-0.000270303
0.00014458
0.00015268
-0.000227821
-6.80133e-05
0.000108828
0.000109749
-0.000165231
-2.85331e-05
-0.000122597
-0.000625588
-0.000255979
0.000112684
-1.42859e-05
4.24301e-06
-5.1528e-05
-1.06165e-05
-2.74124e-05
0.00013428