# vtk DataFile Version 2.0
Unstructured Grid by M++
ASCII
DATASET UNSTRUCTURED_GRID
POINTS 4072 float
  0.875000   1.000000 0
  0.875000   0.984375 0
  0.875000   0.968750 0
  0.875000   0.953125 0
  0.875000   0.937500 0
  0.875000   0.921875 0
  0.875000   0.906250 0
  0.875000   0.890625 0
  0.875000   0.875000 0
  0.875000   0.859375 0
  0.875000   0.843750 0
  0.875000   0.828125 0
  0.875000   0.812500 0
  0.875000   0.796875 0
  0.875000   0.781250 0
  0.875000   0.765625 0
  0.859375   1.000000 0
  0.859375   0.984375 0
  0.859375   0.968750 0
  0.859375   0.953125 0
  0.859375   0.937500 0
  0.859375   0.921875 0
  0.859375   0.890625 0
  0.859375   0.875000 0
  0.859375   0.859375 0
  0.859375   0.843750 0
  0.859375   0.828125 0
  0.859375   0.812500 0
  0.859375   0.796875 0
  0.859375   0.781250 0
  0.859375   0.765625 0
  0.859375   0.671875 0
  0.859375   0.656250 0
  0.859375   0.640625 0
  0.843750   1.000000 0
  0.843750   0.984375 0
  0.843750   0.968750 0
  0.843750   0.953125 0
  0.843750   0.937500 0
  0.843750   0.921875 0
  0.843750   0.906250 0
  0.843750   0.875000 0
  0.843750   0.859375 0
  0.843750   0.843750 0
  0.843750   0.828125 0
  0.843750   0.812500 0
  0.843750   0.796875 0
  0.843750   0.781250 0
  0.843750   0.765625 0
  0.843750   0.671875 0
  0.843750   0.656250 0
  0.843750   0.640625 0
  0.828125   1.000000 0
  0.828125   0.984375 0
  0.828125   0.968750 0
  0.828125   0.953125 0
  0.828125   0.937500 0
  0.828125   0.921875 0
  0.875000   0.671875 0
  0.812500   0.921875 0
  0.890625   0.656250 0
  0.828125   0.906250 0
  0.875000   0.656250 0
  0.812500   0.906250 0
  0.890625   0.640625 0
  0.828125   0.890625 0
  0.875000   0.640625 0
  0.812500   0.890625 0
  0.890625   0.625000 0
  0.828125   0.875000 0
  0.890625   0.609375 0
  0.828125   0.859375 0
  0.890625   0.593750 0
  0.828125   0.843750 0
  0.890625   0.578125 0
  0.828125   0.828125 0
  0.890625   0.562500 0
  0.828125   0.812500 0
  0.828125   0.796875 0
  0.828125   0.781250 0
  0.828125   0.765625 0
  0.828125   0.671875 0
  0.828125   0.656250 0
  0.828125   0.640625 0
  0.875000   0.750000 0
  0.812500   1.000000 0
  0.875000   0.625000 0
  0.812500   0.875000 0
  0.875000   0.734375 0
  0.812500   0.984375 0
  0.875000   0.718750 0
  0.812500   0.968750 0
  0.875000   0.703125 0
  0.812500   0.953125 0
  0.875000   0.687500 0
  0.812500   0.937500 0
  0.875000   0.609375 0
  0.812500   0.859375 0
  0.875000   0.593750 0
  0.812500   0.843750 0
  0.875000   0.578125 0
  0.812500   0.828125 0
  0.812500   0.812500 0
  0.875000   0.546875 0
  0.812500   0.796875 0
  0.812500   0.781250 0
  0.812500   0.765625 0
  0.859375   0.750000 0
  0.796875   1.000000 0
  0.859375   0.625000 0
  0.796875   0.875000 0
  0.859375   0.734375 0
  0.796875   0.984375 0
  0.859375   0.718750 0
  0.796875   0.968750 0
  0.859375   0.703125 0
  0.796875   0.953125 0
  0.859375   0.687500 0
  0.796875   0.937500 0
  0.859375   0.609375 0
  0.796875   0.859375 0
  0.859375   0.593750 0
  0.796875   0.843750 0
  0.859375   0.578125 0
  0.796875   0.828125 0
  0.859375   0.562500 0
  0.796875   0.812500 0
  0.796875   0.796875 0
  0.859375   0.531250 0
  0.796875   0.781250 0
  0.796875   0.765625 0
  0.843750   0.750000 0
  0.781250   1.000000 0
  0.843750   0.625000 0
  0.781250   0.875000 0
  0.843750   0.734375 0
  0.781250   0.984375 0
  0.843750   0.718750 0
  0.781250   0.968750 0
  0.843750   0.703125 0
  0.781250   0.953125 0
  0.843750   0.687500 0
  0.781250   0.937500 0
  0.843750   0.609375 0
  0.781250   0.859375 0
  0.843750   0.593750 0
  0.781250   0.843750 0
  0.843750   0.578125 0
  0.781250   0.828125 0
  0.781250   0.812500 0
  0.843750   0.546875 0
  0.781250   0.796875 0
  0.781250   0.781250 0
  0.843750   0.515625 0
  0.781250   0.765625 0
  0.828125   0.750000 0
  0.765625   1.000000 0
  0.828125   0.625000 0
  0.765625   0.875000 0
  0.828125   0.734375 0
  0.765625   0.984375 0
  0.828125   0.718750 0
  0.765625   0.968750 0
  0.828125   0.703125 0
  0.765625   0.953125 0
  0.828125   0.687500 0
  0.765625   0.937500 0
  0.828125   0.609375 0
  0.765625   0.859375 0
  0.828125   0.593750 0
  0.765625   0.843750 0
  0.828125   0.578125 0
  0.765625   0.828125 0
  0.828125   0.562500 0
  0.765625   0.812500 0
  0.765625   0.796875 0
  0.828125   0.531250 0
  0.765625   0.781250 0
  0.765625   0.765625 0
  0.812500   0.750000 0
  0.750000   1.000000 0
  0.953125   1.000000 0
  0.812500   0.734375 0
  0.750000   0.984375 0
  0.812500   0.718750 0
  0.750000   0.968750 0
  0.812500   0.703125 0
  0.750000   0.953125 0
  0.812500   0.687500 0
  0.750000   0.937500 0
  0.812500   0.671875 0
  0.750000   0.921875 0
  0.812500   0.656250 0
  0.750000   0.906250 0
  0.812500   0.640625 0
  0.750000   0.890625 0
  0.812500   0.625000 0
  0.750000   0.875000 0
  0.812500   0.609375 0
  0.750000   0.859375 0
  0.812500   0.593750 0
  0.750000   0.843750 0
  0.812500   0.578125 0
  0.750000   0.828125 0
  0.750000   0.812500 0
  0.812500   0.546875 0
  0.750000   0.796875 0
  0.750000   0.781250 0
  0.812500   0.515625 0
  0.750000   0.765625 0
  0.796875   0.750000 0
  0.734375   1.000000 0
  0.796875   0.734375 0
  0.734375   0.984375 0
  0.796875   0.718750 0
  0.734375   0.968750 0
  0.796875   0.703125 0
  0.734375   0.953125 0
  0.796875   0.687500 0
  0.734375   0.937500 0
  0.796875   0.671875 0
  0.734375   0.921875 0
  0.796875   0.656250 0
  0.734375   0.906250 0
  0.796875   0.640625 0
  0.734375   0.890625 0
  0.796875   0.625000 0
  0.734375   0.875000 0
  0.796875   0.609375 0
  0.734375   0.859375 0
  0.796875   0.593750 0
  0.734375   0.843750 0
  0.796875   0.578125 0
  0.734375   0.828125 0
  0.734375   0.812500 0
  0.734375   0.796875 0
  0.796875   0.531250 0
  0.734375   0.781250 0
  0.734375   0.765625 0
  0.781250   0.750000 0
  0.718750   1.000000 0
  0.921875   1.000000 0
  0.781250   0.734375 0
  0.718750   0.984375 0
  0.781250   0.718750 0
  0.718750   0.968750 0
  0.781250   0.703125 0
  0.718750   0.953125 0
  0.859375   0.906250 0
  0.781250   0.687500 0
  0.718750   0.937500 0
  0.781250   0.671875 0
  0.718750   0.921875 0
  0.781250   0.656250 0
  0.718750   0.906250 0
  0.781250   0.640625 0
  0.718750   0.890625 0
  0.781250   0.625000 0
  0.718750   0.875000 0
  0.781250   0.609375 0
  0.718750   0.859375 0
  0.781250   0.593750 0
  0.718750   0.843750 0
  0.781250   0.578125 0
  0.718750   0.828125 0
  0.781250   0.562500 0
  0.718750   0.812500 0
  0.781250   0.546875 0
  0.718750   0.796875 0
  0.781250   0.531250 0
  0.718750   0.781250 0
  0.781250   0.515625 0
  0.718750   0.765625 0
  0.765625   0.750000 0
  0.703125   1.000000 0
  0.765625   0.734375 0
  0.703125   0.984375 0
  0.765625   0.718750 0
  0.703125   0.968750 0
  0.765625   0.703125 0
  0.703125   0.953125 0
  0.765625   0.687500 0
  0.703125   0.937500 0
  0.843750   0.890625 0
  0.703125   0.921875 0
  0.765625   0.656250 0
  0.703125   0.906250 0
  0.765625   0.640625 0
  0.703125   0.890625 0
  0.765625   0.625000 0
  0.703125   0.875000 0
  0.765625   0.609375 0
  0.703125   0.859375 0
  0.765625   0.593750 0
  0.703125   0.843750 0
  0.765625   0.578125 0
  0.703125   0.828125 0
  0.765625   0.562500 0
  0.703125   0.812500 0
  0.765625   0.546875 0
  0.703125   0.796875 0
  0.765625   0.531250 0
  0.703125   0.781250 0
  0.765625   0.515625 0
  0.703125   0.765625 0
  0.750000   0.750000 0
  0.687500   1.000000 0
  0.890625   1.000000 0
  0.750000   0.734375 0
  0.687500   0.984375 0
  0.750000   0.718750 0
  0.687500   0.968750 0
  0.578125   0.796875 0
  0.578125   0.781250 0
  0.578125   0.765625 0
  0.546875   0.953125 0
  0.546875   0.968750 0
  0.546875   0.718750 0
  0.546875   0.687500 0
  0.250000   0.609375 0
  0.937500   0.031250 0
  0.046875   0.703125 0
  0.734375   0.062500 0
  0.734375   0.078125 0
  0.734375   0.046875 0
  0.046875   0.593750 0
  0.046875   0.562500 0
  0.046875   0.531250 0
  0.718750   0.156250 0
  0.046875   0.609375 0
  0.734375   0.031250 0
  0.062500   0.609375 0
  0.234375   0.703125 0
  0.718750   0.125000 0
  0.046875   0.578125 0
  0.734375   0.000000 0
  0.062500   0.578125 0
  0.000000   0.828125 0
  0.234375   0.671875 0
  0.234375   0.625000 0
  0.718750   0.093750 0
  0.687500   0.156250 0
  0.062500   0.546875 0
  0.000000   0.796875 0
  0.718750   0.046875 0
  0.031250   0.687500 0
  0.687500   0.171875 0
  0.500000   1.000000 0
  0.078125   0.218750 0
  0.234375   0.593750 0
  0.718750   0.062500 0
  0.687500   0.125000 0
  0.000000   0.765625 0
  0.421875   0.500000 0
  0.031250   0.593750 0
  0.718750   0.015625 0
  0.687500   0.234375 0
  0.015625   0.812500 0
  0.703125   0.171875 0
  0.703125   0.187500 0
  0.703125   0.140625 0
  0.015625   0.781250 0
  0.437500   0.515625 0
  0.500000   0.796875 0
  0.078125   0.015625 0
  0.687500   0.203125 0
  0.250000   0.578125 0
  0.703125   0.109375 0
  0.000000   0.515625 0
  0.500000   0.765625 0
  0.062500   0.593750 0
  0.750000   0.015625 0
  0.015625   0.843750 0
  0.687500   0.000000 0
  0.500000   0.828125 0
  0.078125   0.046875 0
  0.015625   0.531250 0
  0.250000   0.546875 0
  0.703125   0.078125 0
  0.703125   0.031250 0
  0.015625   0.671875 0
  0.250000   0.515625 0
  0.000000   0.656250 0
  0.500000   0.906250 0
  0.078125   0.125000 0
  0.687500   0.015625 0
  0.031250   0.546875 0
  0.687500   0.031250 0
  0.500000   0.859375 0
  0.703125   0.000000 0
  0.703125   0.046875 0
  0.703125   0.015625 0
  0.500000   0.937500 0
  0.234375   0.531250 0
  0.031250   0.578125 0
  0.687500   0.062500 0
  0.500000   0.890625 0
  0.031250   0.796875 0
  0.453125   0.531250 0
  0.500000   0.968750 0
  0.078125   0.187500 0
  0.234375   0.562500 0
  0.031250   0.609375 0
  0.718750   0.031250 0
  0.687500   0.093750 0
  0.750000   0.046875 0
  0.000000   0.937500 0
  0.421875   0.671875 0
  0.718750   0.187500 0
  0.031250   0.828125 0
  0.765625   0.062500 0
  0.015625   0.953125 0
[...]
CELL_DATA 7648
SCALARS scalar_value float 1
LOOKUP_TABLE default
-3.01963e-05
-0.000180198
0.000472072
-7.71674e-05
-0.00033446
-4.70493e-05
-0.000132087
-4.13091e-05
1.65258e-05
-0.000236334
-1.92077e-05
0.000404211
-0.000260619
-0.000363434
0.000157096
6.36087e-05
-0.000329039
0.000118993
0.000255892
-4.09495e-05
7.58345e-05
0.000232047
9.96479e-05
1.25956e-05
-0.000148217
6.44877e-05
0.000315309
0.000193014
0.000124856
-4.28999e-05
-0.000150403
-0.000190807
-9.84181e-05
-7.46957e-06
-1.03622e-05
9.03682e-06
1.07006e-05
1.89857e-06
-6.06788e-05
3.89601e-05
3.52749e-06
0.000111442
-0.000375693
-1.37421e-05
2.95294e-05
2.48757e-05
-9.45752e-05
-0.000131396
5.57659e-06
-0.000151505
-4.73731e-06
1.11125e-05
-2.2965e-05
0.000267555
-4.7176e-05
4.45566e-06
-0.000105354
0.000201536
-3.68929e-05
-1.57792e-06
2.95998e-05
-1.39384e-05
8.66164e-06
-2.79827e-05
-6.67571e-05
-5.08092e-05
0.000178539
0.000125197
0.000128864
2.87376e-05
2.54553e-05
1.93713e-06
6.56336e-06
-2.45289e-05
-0.000391775
0.000319303
0.000182051
4.43834e-05
2.09195e-05
8.44506e-05
-2.19208e-05
7.12529e-05
-0.000114594
-3.79598e-05
-3.31703e-05
7.95063e-06
-0.000223633
0.00019649
-5.79652e-05
3.66819e-05
-6.55237e-05
7.02097e-05
8.34251e-06
1.01422e-05
2.08215e-05
4.85119e-05
-7.46735e-05
2.38117e-05
-0.000230474
9.97028e-05
0.000224831
-6.27086e-06
-6.83199e-06
-5.119e-05
-5.56329e-05
-0.000142645
-6.34281e-05
-3.90766e-05
0.00030201
-0.000150952
8.03359e-06
-5.48852e-05
0.00023733
-0.000110564
-0.000209627
-7.76414e-05
-2.49314e-05
0.000115381
-7.14638e-05
4.5706e-05
7.97186e-05
2.40584e-05
-0.000124737
-2.89427e-08
-4.11562e-05
3.81816e-06
2.27907e-06
7.47862e-05
0.000377127
0.000346154
-0.000185042
1.9817e-06
0.00061357
4.89534e-05
3.97407e-05
5.75531e-05
-0.000177387
8.00368e-05
4.30948e-05
0.000264429
-0.000448515
-3.21365e-05
2.12296e-05
2.98144e-05
3.61751e-05
8.97629e-06
8.15171e-05
-2.23593e-05
0.000107509
-0.000259639
-2.07495e-05
-8.99441e-06
-6.69377e-05
-0.000154778
2.54919e-05
0.000252841
-0.000650907
6.27588e-05
-6.99111e-05
0.00019371
3.88391e-05
-0.00046728
-7.18784e-05
4.04455e-05
-1.28549e-05
-0.000123312
-3.54607e-05
-0.000308986
-0.000129409
8.9585e-05
-9.77251e-05
-0.000234373
-3.60669e-05
-3.20321e-05
-0.000297095
-0.000163323
4.07378e-05
-1.8795e-06
7.17882e-06
-0.000123549
-4.75337e-06
-1.67221e-05
0.000362278
-0.000449634
-0.000269003
-0.000175887
9.27017e-06
0.000304801
1.58426e-05
-8.42168e-05
-5.96117e-05
-0.000292006
2.08584e-05
7.2617e-05
-2.74459e-05
8.05919e-06
-2.36865e-07
-1.60627e-06
-0.000134239
-6.6852e-05
2.38277e-05
0.000141922
3.5445e-05
1.25996e-05
-0.000290737
-1.58375e-05
3.8874e-05
2.5395e-05
0.000124173
-5.11572e-05
8.73387e-05
-0.000213444
-3.97067e-05
8.47594e-05
0.000166229
4.90506e-05
-9.52077e-06
0.000154434
6.24314e-05
-0.000159011
3.99391e-05
2.85862e-05
-0.00024126
-5.07041e-05
-3.33147e-05
0.000231584
-8.54824e-05
-5.34415e-05
-4.95188e-05
0.000216029
-0.000492455
-0.000126398
0.000196478
-6.68005e-05
-2.92476e-05
8.52788e-05
0.000105884
0.000101537
1.66713e-05
7.42634e-05
-3.25785e-06
9.51747e-05
-0.00011246
0.000271698
-1.67019e-05
-4.96031e-05
-1.56564e-05
0.000421119
-7.63107e-06
-8.44936e-05
0.000208926
-8.38025e-05
-0.000488568
-3.62011e-05
-2.1199e-06
7.73271e-05
-5.24088e-05
-0.000632754
0.000121366
-1.78837e-05
0.000366855
1.0096e-05
-2.44979e-05
-0.000167569
-1.37952e-05
0.00023016
-4.06049e-05
0.000193463
-7.98106e-05
-0.000323171
-0.000193358
8.83231e-05
0.000270346
-0.000224679
-0.000177709
-0.000404962
0.00135083
0.000312585
8.76471e-05
-1.96753e-05
-6.6064e-06
-1.93131e-05
-0.000161646
6.13337e-05
-1.19028e-05
0.00019264
-3.08981e-05
2.62432e-05
-0.000134358
0.000216561
-0.000231768
2.2618e-05
9.75399e-05
1.75724e-05
-1.78133e-06
-4.93365e-05
0.000148629
-0.000126732
0.000414525
-6.19127e-05
-1.93018e-05
-4.29357e-05
3.65604e-05
-9.5692e-06
7.32179e-05
-0.00021666
3.08922e-05
0.000173207
-4.66699e-05
-0.000124694
-3.25755e-06
2.87541e-05
-0.000471364
0.000132508
-1.30663e-05
-3.72312e-05
-4.92696e-05
4.92303e-05
-8.5957e-05
0.000101254
-2.44375e-06
-1.27785e-05
-0.000179228
-3.32069e-06
1.41606e-06
0.00016157
-2.96405e-05
-1.16222e-06
-3.73528e-06
-1.46508e-05
-2.31936e-05
-8.8951e-05
3.85977e-06
4.13566e-05
-1.80199e-05
1.21272e-05
-3.001e-05
3.05692e-05
-5.78002e-06
3.11617e-05
5.0252e-05
0.000228738
7.76389e-05
5.85092e-07
-3.3608e-05
-6.04596e-05
4.96209e-05
-7.67214e-06
4.36088e-06
-5.99724e-06
-6.30366e-06
-0.000235576
0.000276772
-4.92009e-05
-6.2647e-05
8.13787e-06
2.37989e-05
-4.50779e-05
1.69686e-05
2.77785e-05
6.27496e-05
-2.35588e-05
0.000148885
-4.43934e-05
-0.000158888
6.81425e-05
1.00287e-05
-0.000234009
1.86591e-05
-1.82316e-05
-0.000461667
-6.07523e-05
7.10516e-06
0.000320876
-0.000171662
-0.00018008
0.000129614
-1.8062e-05
-4.06711e-05
6.91103e-05
-0.000282315
7.01209e-05
-5.25673e-05
-4.43304e-05
-4.16202e-05
-5.60397e-05
-5.49593e-05
-2.21334e-05
-0.00030997
-0.000116933
-0.000412393
-2.15708e-05
0.000183693
-0.000229338
-3.58857e-05
5.65049e-05
-1.35228e-05
-8.69278e-06
-0.00042683
0.000146598
2.24508e-05
-0.000237476
-1.98638e-05
-5.75208e-06
2.44732e-05
1.12589e-05
-4.0323e-05
9.48553e-05
0.000214728
-6.97639e-06
-0.000136613
-8.22879e-06
5.93218e-05
0.000102431
8.42192e-05
0.000493084
0.00037038
1.06149e-05
-6.83366e-07
2.78472e-05
-0.000157453
-0.00042902
-0.000330197
-2.94207e-05
0.000424345
4.85051e-05
5.89829e-05
0.00146033
-0.000539948
-0.000200569
1.09263e-05
-0.00019924
2.24304e-05
-0.000120631
-2.17548e-05
-0.000103526
2.18506e-05
1.1961e-07
-9.31646e-05
-7.39707e-05
0.000354138
-9.15657e-06
2.92463e-05
-3.83617e-05
-9.11754e-06
-1.15531e-05
-0.00046123
0.000577095
-2.18026e-06
-0.000567644
-1.2404e-05
-0.000214828
7.28368e-07
-4.00954e-05
2.10967e-05
-4.89819e-06
-0.000337153
-0.000460805
0.000360221
6.0571e-05
0.000232605
5.78602e-05
0.000109686
-4.27534e-05
-1.50853e-05
1.1044e-06
1.89284e-05
0.000129102
-2.93994e-05
-0.000398371
-3.76881e-05
-0.000365119
-0.000217974
2.99855e-05
0.000210189
-0.000132117
0.000305367
-7.03973e-06
-0.000258929
-0.00024169
4.89498e-08
0.000286297
-1.64051e-05
-0.000308557
5.283e-05
0.000204386
-9.18752e-06
-1.16452e-06
-2.33448e-05
-8.62807e-05
2.61368e-06
5.35216e-06
8.55922e-05
-0.000661368
0.000460616
0.00104474
4.65038e-06
-1.59883e-06
-2.00687e-05
-6.8465e-05
-3.10506e-05
3.66928e-06
4.24023e-06
-0.00053777
0.000113478
5.75722e-05
-4.60216e-05
6.87321e-06
-0.00044457
3.88243e-06
0.00015499
2.87674e-06
-6.86645e-06
-0.000453717
0.00051167
0.000114418
-5.14927e-05
-3.56442e-05
-1.04049e-05
6.16287e-05
0.000466246
0.000224901
-3.17375e-05
-0.000127486
-3.98673e-06
3.02338e-06
-0.000174183
-1.71547e-05
0.000321148
0.000269303
-6.61269e-06
3.90345e-06
-4.37312e-05
-2.43766e-05
-0.000159397
-4.08848e-05
-4.23969e-05
5.18331e-05
0.000129432
0.000294699
0.000416349
-3.9739e-05
2.02294e-05
-5.32159e-06
0.000190046
1.53193e-05
0.000169238
-0.000686395
-7.68133e-05
-4.33688e-05
-1.11695e-05
-0.000129885
-1.48322e-06
6.44949e-05
-2.06355e-05
2.36529e-05
-1.60579e-05
7.34783e-05
0.000400407
0.000120429
0.000560713
3.35889e-05
-3.64682e-05
0.000353766
0.000357893
-5.61529e-05
-0.000147129
7.43248e-05
-0.000112182
5.12304e-06
6.28359e-06
0.000108716
6.8769e-05
0.000114158
-4.0148e-05
9.53014e-05
-2.90669e-05
7.86065e-06
2.94422e-05
-1.85951e-05
6.41122e-05
2.51558e-06
-0.000157737
-6.27804e-06
-3.59386e-06
0.000212352
-3.03947e-05
0.000133105
4.24296e-05
2.43863e-05
0.000158963
-1.38289e-05
-5.80151e-05
0.000680368
1.29936e-05
-1.35382e-05
0.000163334
0.000579179
7.10568e-05
0.000587156
0.000188698
-3.64076e-05
-0.000429165
-0.000552555
-0.000228428
8.89805e-05
1.16201e-06
-0.000211611
-8.21751e-06
-0.00010528
-0.000206459
9.58392e-06
-0.000136061
-0.000115572
0.000433109
3.60584e-05
-4.02011e-06
-1.2168e-05
-0.00013004
8.30702e-05
-2.4974e-05
-1.23002e-05
0.000357825
1.42589e-05
-0.00011874
3.11221e-05
4.55443e-05
-3.01269e-05
-3.02099e-05
-9.4546e-05
-1.10208e-05
1.25759e-05
-0.000195099
3.07674e-05
2.34089e-05
-1.35517e-05
5.61456e-05
0.000370897
0.000172616
-6.44598e-05
-1.42531e-05
-0.000138329
-2.24549e-06
-0.000421699
2.24488e-05
4.24373e-05
3.36652e-06
4.96286e-05
0.000141502
-9.36124e-06
-0.000166009
0.000266789
-0.00031161
7.04152e-05
-0.000175334
5.30713e-05
-1.90814e-05
-0.000460896
-0.000819074
9.12189e-05
-6.01028e-05
-2.97405e-06
0.000499472
-0.000193942
8.21105e-05
-0.000229805
0.000588894
0.000269638
-0.00028333
0.000409751
0.000177131
0.000213433
-2.68226e-06
7.625e-05
0.000489828
0.000283157
-2.5267e-05
4.99624e-05
-0.000492216
8.15293e-05
0.000128015
-9.68611e-05
0.000175182
4.29607e-05
4.08248e-05
0.000414504
-8.37187e-05
0.000321356
-3.34055e-05
4.51479e-07
-7.88675e-05
4.41002e-06
0.000560946
0.0001164
3.50845e-05
5.97179e-06
1.64858e-05
3.98509e-05
-1.77474e-05
1.17182e-05
8.52949e-05
1.50066e-08
8.61649e-05
-0.000223342
0.000151798
-7.04145e-05
0.000706729
8.18991e-07
-5.30382e-05
0.000921465
0.000548572
0.000107555
4.69053e-05
-7.64105e-05
-6.7027e-05
4.04824e-05
-0.000100675
-0.000254923
-0.00289024
1.44407e-05
-2.52839e-05
0.000833258
3.1006e-05
-4.29287e-05
-0.000240078
0.000409667
4.64918e-05
2.20372e-05
0.000278647
5.41118e-06
4.44509e-05
-1.31758e-05
2.45038e-05
-1.51286e-06
1.89802e-05
-2.01101e-05
0.000170335
0.000489058
-3.41307e-05
1.44967e-06
-2.4713e-05
0.000241932
-3.8219e-05
0.000147433
1.49882e-05
-1.69597e-06
9.07214e-06
-3.56865e-05
-7.34434e-06
-0.000238673
2.5969e-06
-0.000465444
-1.03667e-05
3.7124e-05
-0.000148424
9.66921e-06
0.000498899
4.01843e-05
-2.33806e-06
-0.00013768
0.000365826
1.99463e-06
0.000295926
1.2192e-05
-3.8949e-05
2.2937e-05
-4.14698e-05
2.45037e-05
1.23813e-05
3.02046e-06
-1.38748e-05
-0.000212837
3.42597e-05
0.000705936
-3.83308e-06
2.90717e-05
8.91402e-07
-9.49343e-05
-0.00080519
1.34534e-05
-7.65198e-05
7.59078e-06
-1.98505e-05
-8.8794e-05
-0.00016639
7.53788e-05
0.000104428
0.000156652
-2.75368e-05
-0.00014154
-1.62224e-05
-3.6856e-05
0.000196975
3.23495e-05
-4.56881e-05
3.98354e-05
7.26701e-05
0.000203821
7.37169e-05
-2.23882e-05
-2.30678e-05
6.04611e-05
0.000152322
0.000204839
7.24901e-05
6.28217e-06
3.0438e-06
5.46237e-05
0.000293728
-0.000243381
-0.000126253
-0.000293069
-3.33972e-05
0.000290812
8.1567e-05
0.000591567
5.19443e-05
2.92578e-05
-8.59572e-05
-0.000263175
-0.000195705
-0.000166064
2.15001e-05
-8.59846e-05
0.000140842
0.000392482
2.48851e-05
-6.62874e-05
-0.000383914
-2.17599e-05
-1.63645e-05
-2.02051e-05
-1.20307e-05
-2.88531e-05
-0.000166856
-0.000204253
0.000125064
1.63626e-05
2.53218e-05
0.000524665
-0.000279511
-2.17616e-05
0.00012226
1.399e-05
0.000107817
-9.31725e-05
-9.94008e-05
2.39056e-05
-8.5802e-05
-2.85469e-06
1.14674e-05
-0.000396919
-0.00019133
-9.07108e-05
-6.73386e-05
4.96238e-05
-0.000304911
-0.000194046
-7.61008e-06
-8.55161e-05
-5.52217e-05
-8.27703e-05
8.92384e-06
-7.02871e-06
3.25448e-05
3.52627e-05
-6.51519e-05
-5.84554e-05
-4.63649e-05
0.000566259
-0.000117604
-6.87359e-05
-2.85675e-05
0.000405525
2.6606e-06
-0.000316257
-4.22475e-05
-1.94871e-05
-2.9136e-07
0.000579393
0.000537463
-0.000112099
-0.000182802
2.34155e-05
-8.88753e-05
0.000136481
0.000922407
0.000669732
6.63208e-05
-7.11428e-05
0.000102986
-0.000211346
7.13591e-06
-3.23685e-05
8.33579e-05
7.45885e-05
7.83897e-05
-8.79139e-06
1.60202e-05
-2.12949e-05
4.36638e-06
-1.9535e-05
0.000211001
4.52078e-06
6.98782e-06
0.000245998
4.2702e-05
2.89675e-05
-0.000342694
-4.734e-06
-0.000542972
5.6779e-05
-4.09528e-06
-0.000114896
-5.1828e-05
-2.00191e-05
0.000578682
5.99657e-05
0.000384798
2.23612e-05
-0.000535938
3.09991e-05
-0.000360142
0.000282047
-0.000431488
4.94681e-06
-0.000136819
-6.37211e-05
-0.000124504
-9.22788e-05
-0.000134498
-4.47723e-05
-5.99687e-05
-1.25697e-05
0.000197364
-3.09447e-05
0.000206854
5.65065e-05
-0.000250349
8.14881e-05
-0.000305579
-2.36196e-05
0.000224862
0.000452428
-1.28242e-05
7.51317e-05
-1.79734e-05
1.37583e-05
-5.85135e-05
-3.20598e-05
0.000487272
-6.19727e-06
4.74542e-06
2.55657e-05
-4.20888e-06
-7.52552e-05
2.08612e-05
-0.000125927
-0.000117877
6.88669e-06
-7.27259e-06
2.63103e-06
1.46527e-05
1.31958e-06
4.58931e-05
-0.000128062
-5.2725e-05
7.54719e-06
-1.89493e-05
-3.10549e-05
1.706e-06
-0.000183922
-3.13637e-05
3.69411e-06
2.08741e-06
0.000293227
-0.000162902
7.59932e-05
0.000196149
-0.000127088
-0.000194521
0.000118322
-2.56197e-06
0.00013361
6.76396e-05
3.40829e-05
-1.86261e-05
-8.03822e-05
1.88493e-05
-8.25876e-06
0.000339304
0.000130424
-0.000143635
9.01799e-05
5.14487e-05
-7.7341e-06
-0.000144636
0.000103997
0.000362869
-3.02874e-05
0.000252904
-1.78263e-05
2.69384e-05
-6.44412e-05
7.36147e-06
0.000137685
0.000159131
-0.000139134
3.03415e-06
0.000214429
-0.000693642
-3.29162e-05
-7.60624e-05
0.00027749
0.000106049
0.000319989
1.57871e-05
-1.01762e-05
-2.2052e-05
0.000470185
0.000253203
0.000188287
0.000395942
-0.000145319
-0.000395502
-2.00058e-05
4.5256e-06
0.000780146
0.00011851
4.59717e-05
0.000460548
-5.86322e-05
0.000105545
-4.33758e-05
-2.617e-05
1.9193e-06
0.00014549
0.000538476
0.000378943
-0.000235999
-5.99903e-05
2.88261e-05
-0.000141114
-0.000210868
0.000112767
0.000139587
1.96569e-05
3.00609e-05
0.000215813
-0.000472922
6.41513e-05
-4.88364e-05
-4.53415e-05
-1.17862e-06
-3.74577e-05
3.8879e-05
9.97753e-07
-8.46571e-07
1.71348e-05
-2.6573e-05
1.27626e-05
-8.53435e-05
-1.07785e-05
1.40433e-05
-1.34409e-05
-4.82865e-06
-0.000306361
4.6651e-05
6.18652e-05
2.94638e-06
-2.46291e-05
1.56148e-05
7.51504e-05
8.44886e-05
-0.000261438
-7.10441e-05
-0.000236548
-0.000156253
-4.42212e-05
-6.01429e-05
-0.00048101
-3.23057e-06
0.000160578
7.18112e-05
-0.0001524
8.04471e-06
-0.000121538
-7.49899e-05
-1.01491e-05
-0.000260804
-0.000197883
-0.000265209
-0.000308286
-8.99869e-05
4.36617e-05
9.21456e-05
2.03331e-05
0.000262146
0.000366943
-3.19099e-05
7.25974e-05
8.80982e-06
9.5977e-05
-7.79468e-06
-9.32602e-05
-0.000392254
-0.000100125
0.000501996
3.34177e-05
3.4204e-05
0.000286705
2.53337e-06
-0.000280519
1.892e-05
0.000389896
0.00081738
1.183e-05
-1.16796e-05
9.97589e-05
-4.68865e-05
-5.1581e-05
0.000406351
0.000234014
2.06115e-05
4.15452e-05
-6.94195e-05
-3.66534e-05
-8.25242e-05
-0.000408107
-0.000254167
0.000214567
-2.13577e-05
4.04032e-05
1.97972e-05
-3.40738e-05
1.4173e-05
1.35936e-05
-5.29271e-07
-2.04665e-05
-1.67081e-05
9.9326e-06
6.12072e-05
5.62731e-06
5.65619e-05
6.89576e-05
-0.000349525
-1.47199e-05
-8.06613e-05
-7.82926e-06
0.000270603
0.000339023
0.000285555
4.80193e-05
-0.000129139
-0.000124594
0.000145102
1.47069e-05
5.72702e-06
-0.000121539
-2.18709e-05
-8.41965e-06
-0.000251393
-1.49003e-05
-1.18827e-05
-0.000459919
-1.29416e-05
0.000136741
0.000188949
0.000316903
0.000349519
0.000201908
7.88086e-05
0.000150008
9.94978e-05
0.00012726
0.000238278
6.62389e-05
7.06949e-05
-0.000136345
-0.000173477
-0.000322782
4.81604e-05
-3.36557e-05
0.000104879
-4.29204e-05
0.000123608
-0.000297583
0.000175096
-0.000378846
3.25874e-05
1.62626e-05
-5.34228e-06
-0.000292818
-6.65115e-06
-8.35835e-05
6.24359e-06
0.000360798
-1.45869e-05
0.000251208
3.64456e-05
-2.01894e-05
4.57335e-05
1.73688e-05
-7.5844e-07
4.34729e-05
-0.000175037
0.000315552
-0.000212388
-0.000302301
4.79041e-05
0.000166846
0.000250608
-2.56401e-05
-0.000546298
0.00139468
0.00102223
0.00118925
0.00141018
2.77892e-06
0.000409507
8.87823e-05
-4.64325e-05
1.84377e-06
3.56776e-05
-1.18223e-05
-2.01131e-05
-8.62704e-09
-0.000793068
0.000160402
-0.000517675
-0.000856768
0.00035037
0.000414805
0.000362992
-1.9938e-05
-0.000863834
-2.58966e-05
8.79438e-05
-0.000111547
5.41171e-06
3.07988e-06
3.22782e-05
0.000395423
-2.41947e-05
-4.43779e-06
0.000128942
1.10689e-05
-0.000834896
0.000435711
-6.07208e-05
0.000730167
-0.000276126
0.000232843
-2.0079e-05
-1.73095e-06
0.000390352
2.03925e-05
-0.000415608
-0.000692721
-0.000147696
1.23907e-06
7.76416e-05
-5.29369e-06
-9.93112e-06
-1.14388e-05
2.59438e-05
8.90899e-06
-4.32903e-05
-3.5685e-06
-7.28359e-05
-0.000272913
-1.09208e-06
-0.000340667
0.000381183
-0.000318687
-1.98242e-05
-5.72675e-06
1.6529e-05
-7.33059e-05
-4.26495e-06
0.000318902
2.32437e-05
9.19722e-06
1.00879e-05
-4.58961e-06
-4.15299e-05
-1.42968e-05
-1.08026e-05
-4.25637e-06
-5.12476e-07
-4.06533e-05
4.50503e-05
-6.4966e-05
-0.000264216
0.000202617
-8.56847e-05
9.04017e-05
3.195e-05
0.000300539
-0.000273182
-5.27967e-05
-0.000252815
-1.54415e-05
0.000386023
-0.000309263
0.000102226
-5.7896e-05
-6.73421e-05
4.85791e-05
5.99839e-05
1.22953e-05
2.64025e-05
0.000203603
-8.89426e-05
-2.78568e-05
5.99233e-05
-0.000172451
0.000415102
-4.85898e-05
7.82714e-06
-2.89893e-06
1.80357e-05
6.60862e-05
4.64366e-05
7.30697e-05
1.00417e-06
9.66917e-05
0.000455577
-0.000259808
0.000359627
0.000146942
-6.79224e-05
3.67632e-06
-9.91894e-06
3.96964e-06
-0.000741648
-0.00028387
-0.000921743
2.24635e-05
2.12643e-05
-3.21307e-05
-3.83512e-05
-0.00040702
4.42305e-05
-0.000269048
-1.05237e-05
2.2885e-05
6.87981e-05
2.84771e-05
-1.63266e-05
2.11451e-06
1.37811e-05
8.17669e-06
-0.000286476
-0.000128518
-8.72946e-05
8.36106e-05
-0.000128255
0.000198349
0.000626462
0.000148971
0.000109659
2.63865e-05
9.57707e-06
-0.000682384
0.000471043
0.000278073
9.84844e-05
8.85773e-05
-1.63854e-05
2.83347e-05
5.37145e-05
-9.50287e-07
7.98272e-05
-1.55981e-05
0.000118182
0.000154072
3.93506e-05
8.11178e-05
5.06467e-05
2.80658e-05
-1.32586e-05
-0.000144615
-0.000154583
3.71477e-05
-3.92167e-05
0.000135511
-0.000149761
0.000148683
-0.000105547
7.68943e-05
5.39127e-05
4.73053e-05
9.05481e-05
6.0641e-05
9.96565e-05
-1.56649e-05
1.49411e-05
2.21379e-06
-1.50341e-05
-9.44152e-06
4.13552e-06
0.000156778
-0.000592572
0.000192617
-0.000291192
0.000112424
-0.000183603
0.000198626
0.000133959
8.48699e-06
-4.41373e-05
-4.10392e-05
-1.72486e-05
-0.000230527
-0.000507116
-0.000248986
-0.000318508
-0.000506055
-3.05332e-05
-6.18556e-06
4.18264e-05
5.22589e-07
0.000117917
-4.87538e-05
0.000645874
9.23973e-05
1.99847e-05
-4.8845e-06
-3.64111e-05
-0.000115599
-6.59654e-06
0.000106777
-1.50332e-05
-6.13089e-06
0.00013657
1.16086e-05
-0.000196215
5.52367e-06
5.09726e-06
-7.8101e-05
-6.48642e-05
-6.15069e-05
-4.51566e-05
0.000208921
-0.000111795
-1.06812e-05
1.42848e-05
-0.000134824
3.00495e-07
1.49546e-06
-0.000431607
-0.000208222
0.000210148
0.000142945
1.11285e-05
-0.000260485
7.70982e-05
0.000137323
-4.51717e-05
0.000448976
0.000131077
7.75235e-05
-0.000109627
1.70571e-05
0.000138101
0.000296767
1.89866e-05
-6.10652e-05
-5.2939e-07
-5.88698e-06
-4.88722e-05
1.61317e-05
0.00029009
2.95688e-06
-0.000261149
-0.000195302
0.000109148
-3.62587e-05
-4.86653e-06
0.000100122
-0.000218952
-1.7321e-05
-7.83295e-05
-3.20054e-05
-4.36256e-05
-6.30523e-05
0.00010378
1.97775e-05
-5.97063e-05
-0.000160712
-0.00053001
0.000332622
0.000634667
0.000123389
-0.000180014
0.000399163
-1.43149e-05
0.000294057
-0.000152665
-7.93759e-05
0.000283428
-8.36013e-05
2.53275e-05
-9.73416e-05
-7.43051e-05
-3.07698e-05
-2.09843e-05
-7.46935e-05
8.05187e-05
-5.68602e-07
0.000122999
-0.000144543
-3.39481e-05
0.000264955
-2.07153e-05
-0.00046987
-0.000170843
-7.01009e-05
-7.15049e-05
-0.000363714
-2.96527e-05
-0.000131049
-3.20619e-05
-0.0460643
0.000301162
0.00014856
-4.65248e-05
0.000176811
1.62573e-05
1.45136e-05
-6.89965e-05
-4.59745e-05
-2.63546e-05
5.7895e-05
-0.000105299
-0.000141849
-7.08587e-05
-3.76253e-05
0.000103006
8.30607e-05
-0.000339011
-0.000840032
-0.000310277
1.90114e-05
0.000222493
3.75683e-05
-4.53325e-06
9.95232e-05
0.000303518
-1.61701e-07
9.82817e-07
-3.53291e-06
9.11169e-06
2.45892e-06
-7.73787e-05
-6.17244e-05
9.82169e-06
-1.47362e-05
-1.17232e-05
-2.26907e-06
-2.73344e-06
3.99878e-06
-2.65415e-05
-2.25038e-05
-0.000127196
-5.14702e-05
-0.000408018
-6.37355e-05
-0.000425248
-4.43632e-05
0.000384576
0.000249782
-1.97308e-05
0.000292437
1.56934e-05
0.00012613
0.000192309
0.000582587
7.3467e-05
0.000393596
0.000405408
5.2497e-05
-0.000187238
5.69423e-07
-4.17105e-05
-4.16391e-05
1.2276e-05
0.000610396
-0.000304576
0.00010873
0.000126027
-0.00018075
-6.55818e-05
9.59574e-05
9.6297e-05
-6.72156e-05
-7.63095e-06
-0.000132493
-0.000598289
-0.00029615
5.02749e-05
-1.33992e-05
6.34414e-06
-3.09813e-05
-1.2631e-05
-1.10742e-05
9.77714e-05