# vtk DataFile Version 2.0
Unstructured Grid by M++
ASCII
DATASET UNSTRUCTURED_GRID
POINTS 1072 float
  0.718750   0.687500 0
  0.906250   0.906250 0
  0.562500   0.843750 0
  0.562500   0.812500 0
  0.812500   0.781250 0
  0.750000   1.000000 0
  0.750000   0.968750 0
  0.718750   0.656250 0
  0.687500   0.656250 0
  0.843750   0.781250 0
  0.968750   0.906250 0
  0.625000   0.656250 0
  0.937500   0.843750 0
  0.593750   0.593750 0
  0.531250   0.875000 0
  0.718750   0.968750 0
  0.718750   0.937500 0
  0.968750   0.875000 0
  0.625000   0.625000 0
  0.812500   0.718750 0
  0.562500   0.906250 0
  0.781250   1.000000 0
  0.968750   0.593750 0
  0.968750   0.562500 0
  0.937500   0.593750 0
  0.531250   0.843750 0
  0.531250   0.812500 0
  0.656250   0.625000 0
  0.656250   0.656250 0
  1.000000   0.906250 0
  0.843750   0.750000 0
  0.937500   0.906250 0
  0.812500   0.750000 0
  0.593750   0.875000 0
  0.593750   0.843750 0
  0.875000   0.781250 0
  0.531250   0.531250 0
  0.843750   0.812500 0
  0.812500   0.812500 0
  0.875000   0.843750 0
  0.843750   0.843750 0
  0.562500   0.875000 0
  0.562500   0.531250 0
  0.906250   0.718750 0
  0.625000   0.906250 0
  0.531250   0.562500 0
  0.875000   0.812500 0
  1.000000   0.625000 0
  0.593750   0.906250 0
  0.625000   0.593750 0
  0.656250   0.968750 0
  0.562500   0.562500 0
  0.906250   0.812500 0
  0.656250   0.718750 0
  1.000000   0.968750 0
  0.593750   0.937500 0
  0.687500   0.687500 0
  0.906250   0.875000 0
  0.593750   0.531250 0
  0.625000   0.937500 0
  0.937500   0.562500 0
  1.000000   0.937500 0
  0.656250   0.687500 0
  0.937500   0.531250 0
  0.968750   0.937500 0
  0.562500   0.593750 0
  0.687500   0.968750 0
  0.875000   0.875000 0
  0.625000   0.875000 0
  0.937500   0.875000 0
  0.593750   0.625000 0
  0.718750   0.531250 0
  1.000000   0.687500 0
  0.968750   0.625000 0
  0.656250   0.593750 0
  0.687500   1.000000 0
  0.687500   0.937500 0
  0.687500   0.625000 0
  0.937500   0.625000 0
  0.593750   0.562500 0
  0.968750   0.656250 0
  0.750000   0.687500 0
  0.656250   0.906250 0
  0.656250   0.937500 0
  0.625000   0.562500 0
  0.781250   0.687500 0
  0.750000   0.718750 0
  0.781250   0.718750 0
  0.750000   0.750000 0
  0.531250   0.781250 0
  0.781250   0.750000 0
  1.000000   0.656250 0
  0.906250   0.500000 0
  0.906250   0.593750 0
  0.718750   1.000000 0
  0.843750   0.531250 0
  0.875000   0.531250 0
  0.875000   0.562500 0
  0.781250   0.781250 0
  0.718750   0.718750 0
  0.906250   0.562500 0
  0.781250   0.843750 0
  1.000000   0.593750 0
  0.125000   0.875000 0
  0.750000   0.625000 0
  0.250000   0.375000 0
  0.687500   0.875000 0
  0.187500   0.625000 0
  0.312500   0.781250 0
  0.500000   0.031250 0
  0.375000   0.531250 0
  0.437500   0.281250 0
  0.062500   0.781250 0
  0.687500   0.531250 0
  0.187500   0.281250 0
  0.625000   0.781250 0
  0.125000   0.531250 0
  0.718750   0.906250 0
  0.218750   0.656250 0
  0.156250   0.906250 0
  0.781250   0.656250 0
  0.281250   0.406250 0
  0.156250   0.875000 0
  0.718750   0.875000 0
  0.218750   0.625000 0
  0.781250   0.625000 0
  0.281250   0.375000 0
  0.406250   0.875000 0
  0.468750   0.625000 0
  0.593750   0.125000 0
  0.562500   0.937500 0
  0.062500   0.687500 0
  0.625000   0.687500 0
  0.125000   0.437500 0
  0.000000   0.937500 0
  0.062500   0.625000 0
  0.125000   0.375000 0
  0.187500   0.125000 0
  0.000000   0.875000 0
  0.093750   0.781250 0
  0.656250   0.781250 0
  0.156250   0.531250 0
  0.437500   0.968750 0
  0.625000   0.218750 0
  0.187500   0.843750 0
  0.437500   0.843750 0
  0.625000   0.093750 0
  0.093750   0.593750 0
  0.218750   0.093750 0
  0.156250   0.343750 0
  0.031250   0.843750 0
  0.812500   0.937500 0
  0.312500   0.687500 0
  0.875000   0.687500 0
  0.375000   0.437500 0
  0.250000   0.937500 0
  0.281250   0.531250 0
  0.406250   0.031250 0
  0.343750   0.281250 0
  0.218750   0.781250 0
  0.031250   0.531250 0
  0.093750   0.281250 0
  0.156250   0.031250 0
  0.375000   0.781250 0
  0.937500   0.781250 0
  0.437500   0.531250 0
  0.562500   0.031250 0
  0.187500   0.875000 0
  0.750000   0.875000 0
  0.250000   0.625000 0
  0.812500   0.625000 0
  0.312500   0.375000 0
  0.437500   0.875000 0
  0.625000   0.125000 0
  0.093750   0.625000 0
  0.218750   0.125000 0
  0.156250   0.375000 0
  0.031250   0.875000 0
  0.000000   0.906250 0
  0.125000   0.406250 0
  0.187500   0.156250 0
  0.062500   0.656250 0
  0.000000   0.968750 0
  0.625000   0.718750 0
  0.125000   0.468750 0
  0.562500   0.968750 0
  0.062500   0.718750 0
  0.687500   0.812500 0
  0.187500   0.562500 0
  0.125000   0.812500 0
  0.750000   0.562500 0
  0.250000   0.312500 0
  0.406250   1.000000 0
  0.968750   1.000000 0
  0.468750   0.750000 0
  0.656250   0.000000 0
  0.593750   0.250000 0
  0.531250   0.500000 0
  0.562500   1.000000 0
  0.062500   0.750000 0
  0.000000   1.000000 0
  0.625000   0.750000 0
  0.125000   0.500000 0
  0.406250   0.937500 0
  0.468750   0.687500 0
  0.593750   0.187500 0
  0.187500   0.906250 0
  0.750000   0.906250 0
  0.250000   0.656250 0
  0.812500   0.656250 0
  0.312500   0.406250 0
  0.750000   0.937500 0
  0.250000   0.687500 0
  0.812500   0.687500 0
  0.312500   0.437500 0
  0.187500   0.937500 0
  0.468750   1.000000 0
  0.718750   0.000000 0
  0.812500   1.000000 0
  0.312500   0.750000 0
  0.250000   1.000000 0
  0.875000   0.750000 0
  0.375000   0.500000 0
  0.093750   0.812500 0
  0.718750   0.562500 0
  0.218750   0.312500 0
  0.656250   0.812500 0
  0.156250   0.562500 0
  0.687500   0.125000 0
  0.656250   0.875000 0
  0.156250   0.625000 0
  0.093750   0.875000 0
  0.718750   0.625000 0
  0.218750   0.375000 0
  0.125000   1.000000 0
  0.250000   0.500000 0
  0.312500   0.250000 0
  0.375000   0.000000 0
  0.187500   0.750000 0
  0.250000   0.906250 0
  0.156250   0.968750 0
  0.218750   0.718750 0
  0.343750   0.218750 0
  0.281250   0.468750 0
  0.625000   0.843750 0
  0.125000   0.593750 0
  0.062500   0.843750 0
  0.687500   0.593750 0
  0.187500   0.343750 0
  0.468750   0.843750 0
  0.312500   0.812500 0
  0.437500   0.312500 0
  0.500000   0.062500 0
  0.375000   0.562500 0
  0.062500   0.812500 0
  0.687500   0.562500 0
  0.187500   0.312500 0
  0.625000   0.812500 0
  0.125000   0.562500 0
  0.125000   0.625000 0
  0.250000   0.125000 0
  0.187500   0.375000 0
  0.062500   0.875000 0
  0.468750   0.875000 0
  0.656250   0.125000 0
  0.062500   0.937500 0
  0.250000   0.187500 0
  0.187500   0.437500 0
  0.125000   0.687500 0
  0.062500   1.000000 0
  0.687500   0.750000 0
  0.187500   0.500000 0
  0.625000   1.000000 0
  0.125000   0.750000 0
  0.218750   0.875000 0
  0.781250   0.875000 0
  0.281250   0.625000 0
  0.843750   0.625000 0
  0.343750   0.375000 0
  0.281250   0.656250 0
  0.843750   0.656250 0
  0.343750   0.406250 0
  0.718750   0.843750 0
  0.218750   0.593750 0
  0.781250   0.593750 0
  0.281250   0.343750 0
  0.156250   0.843750 0
  0.093750   0.968750 0
  0.218750   0.468750 0
  0.281250   0.218750 0
  0.156250   0.718750 0
  0.031250   0.906250 0
  0.156250   0.406250 0
  0.218750   0.156250 0
  0.093750   0.656250 0
  0.031250   0.968750 0
  0.593750   0.968750 0
  0.093750   0.718750 0
  0.718750   0.812500 0
  0.218750   0.562500 0
  0.781250   0.562500 0
  0.281250   0.312500 0
  0.156250   0.812500 0
  0.125000   0.968750 0
  0.250000   0.468750 0
  0.312500   0.218750 0
  0.187500   0.718750 0
  0.062500   0.906250 0
  0.250000   0.156250 0
  0.187500   0.406250 0
  0.125000   0.656250 0
  0.062500   0.968750 0
  0.687500   0.718750 0
  0.187500   0.468750 0
  0.625000   0.968750 0
  0.125000   0.718750 0
  0.500000   0.781250 0
  0.625000   0.281250 0
  0.687500   0.031250 0
  0.156250   0.937500 0
  0.281250   0.437500 0
  0.218750   0.687500 0
  0.187500   0.968750 0
  0.250000   0.718750 0
  0.375000   0.218750 0
  0.312500   0.468750 0
  0.312500   0.531250 0
  0.375000   0.281250 0
  0.437500   0.031250 0
  0.250000   0.781250 0
  0.812500   0.843750 0
  0.312500   0.593750 0
  0.875000   0.593750 0
  0.375000   0.343750 0
  0.250000   0.843750 0
  0.656250   0.843750 0
  0.156250   0.593750 0
  0.718750   0.593750 0
  0.218750   0.343750 0
  0.500000   0.843750 0
  0.687500   0.093750 0
  0.625000   0.343750 0
  0.218750   0.968750 0
  0.781250   0.968750 0
  0.281250   0.718750 0
  0.843750   0.718750 0
  0.343750   0.468750 0
  0.218750   1.000000 0
  0.281250   0.750000 0
  0.468750   0.000000 0
  0.343750   0.500000 0
  0.406250   0.250000 0
  0.125000   0.906250 0
  0.750000   0.656250 0
  0.250000   0.406250 0
  0.687500   0.906250 0
  0.187500   0.656250 0
  0.250000   0.750000 0
  0.312500   0.500000 0
  0.437500   0.000000 0
  0.375000   0.250000 0
  0.187500   1.000000 0
  0.156250   0.656250 0
  0.281250   0.156250 0
  0.218750   0.406250 0
  0.093750   0.906250 0
  0.687500   0.156250 0
  0.812500   0.968750 0
  0.312500   0.718750 0
  0.250000   0.968750 0
  0.875000   0.718750 0
  0.375000   0.468750 0
  0.781250   0.937500 0
  0.281250   0.687500 0
  0.218750   0.937500 0
  0.843750   0.687500 0
  0.343750   0.437500 0
  0.687500   0.843750 0
  0.187500   0.593750 0
  0.750000   0.593750 0
  0.250000   0.343750 0
  0.125000   0.843750 0
  0.562500   0.750000 0
  0.062500   0.500000 0
  0.343750   1.000000 0
  0.968750   0.750000 0
  0.468750   0.500000 0
  0.906250   1.000000 0
  0.406250   0.750000 0
  0.593750   0.000000 0
  0.531250   0.250000 0
  0.031250   0.781250 0
  0.156250   0.281250 0
  0.593750   0.781250 0
  0.093750   0.531250 0
  0.031250   0.812500 0
  0.656250   0.562500 0
  0.156250   0.312500 0
  0.593750   0.812500 0
  0.093750   0.562500 0
  0.312500   0.968750 0
  0.937500   0.718750 0
  0.437500   0.468750 0
  0.875000   0.968750 0
  0.375000   0.718750 0
  0.312500   1.000000 0
  0.875000   1.000000 0
  0.375000   0.750000 0
  0.937500   0.750000 0
  0.437500   0.500000 0
  0.562500   0.000000 0
  0.281250   0.968750 0
[...]
POINT_DATA 1072
SCALARS scalar_value float 1
LOOKUP_TABLE default
0.00193823
3.79118e-05
-0.00218861
0.00429762
0.000471118
0
-0.000219696
-0.00596217
-0.0122056
0.000786651
-4.09011e-05
-0.0111089
-7.0141e-05
0.000411054
0.000758566
3.35845e-05
-0.000222874
0.000162065
0.000192703
0.000611461
-0.00168666
0
0.000405685
-0.00363689
0.000687772
0.00198909
-0.00032019
0.0101776
-0.00698228
7.1967e-05
-0.000622453
-0.000249312
0.00108131
0.00301114
-0.00153354
-0.00053315
-0.000293333
-0.000634718
0.000954106
-0.000536025
0.000149593
0.00520883
-0.00148096
0.000438393
0.000403513
0.00141465
0.000435431
0.00119435
0.000420943
-0.00520867
0.000437812
-0.00104168
-0.000505086
-0.00267789
-2.36082e-05
0.000976135
0.00933714
-0.000379346
0.00430924
0.000445645
0.00449973
3.0115e-05
0.00710324
-0.0111007
2.26914e-05
0.00254992
9.13877e-05
0.00022529
0.00188693
4.4978e-05
-0.000774324
-0.00731829
-0.000620035
0.00149076
0.000569038
0
0.000200547
0.0151713
-0.000808668
-0.00713285
-0.0015855
0.000704424
0.00096536
6.99608e-05
0.00112505
0.000182832
-0.00156072
3.10952e-05
0.00200641
0.00303097
-0.00111901
0.000310483
0.0306302
-0.000922291
0
-0.000972424
-0.00476893
0.00127662
0.00112776
0.00128534
-0.00324602
0.000303126
-0.00336173
-2.35211e-05
0.0070751
0.043469
0.000333197
0.00273735
0.000714213
0.910346
-0.0011116
0.0931742
-0.000582095
-0.0163082
0.0104076
-0.00778868
-0.00183438
0.000264707
0.00490004
3.54534e-05
0.000730548
-0.0411526
7.73025e-05
-4.61346e-05
-0.0088537
-0.001417
0.049456
0.000147073
-0.000822682
2.07054
0.0024688
0.00136101
0.00801614
0.00244367
3.85976e-05
0.00107639
0.00021327
0.0119258
0.000156014
-0.000662708
-0.000220079
0.0121824
-0.000800781
0.854506
5.77494e-05
-0.000555654
1.67282
0.00271058
0.156974
-0.00301447
1.42444e-05
0.000229287
0.00091564
0.000107186
0.0260514
1.56826e-05
-0.0161738
2.11164
-0.0689075
3.9886e-05
0.00111712
0.00179126
0.00397175
-0.000479048
-6.2912e-05
0.000527118
1.8126
0.000164418
-3.99613e-05
0.0113982
0.00413134
0.0378654
0.000390874
1.25229
-0.00296008
0.11169
-0.00119496
1.40691e-05
-8.28844e-05
0.00185331
0.00402821
-0.00130642
-7.11236e-06
-0.014067
0.00242156
9.86879e-05
-0.00110513
0.00118518
0.0021958
0.000237337
0.0191909
0.0116908
0
0
0.00378047
2.27344
1.09181
-0.00116085
0
0.000705156
0
0.0139642
0.00193584
-0.000125121
0.00286092
1.83878
-0.000132964
0.000157824
-0.000345692
-0.00176004
-0.0170471
0.00030381
-0.00307358
0.0019895
0.00948403
0.000158907
0
1.0228
0
0.000436089
0
-0.000165116
0.00499581
0.00111007
0.00589811
0.020331
0.000715741
-0.00804918
1.49219
5.33185e-05
-0.00402259
0.000148822
0.0100254
0.0238067
0
0.0133275
0.0452077
2.56285
-0.000566594
2.03716e-05
2.72111e-05
2.01756e-05
0.0356787
-0.0112309
-0.00181056
-0.00324706
-0.000184357
-0.0159016
-0.00564834
0.00107047
-0.00130437
0.108027
0.627681
0.00678173
0.00030455
0.0213944
0.00330799
0.0052317
0.00276278
0.00255401
0.139629
-0.00744326
0.000267217
-0.000602716
2.77256
7.51239e-05
0.0434044
0.00946742
0.000684826
0
0.00565303
0.0335373
0
0.000111179
-0.000138722
-0.00250456
-0.00167181
-0.0010422
0.0111717
-0.00420914
0.00139858
-0.00498224
0.000518591
0.00643512
0.00072213
-0.0470018
-0.000144905
-0.000100188
-0.00148368
0.0415933
0.000663158
-3.41647e-05
0.000531597
0.0963334
0.00222246
-3.31695e-05
0.000788539
0.000292646
-0.00100449
0.00357967
0.00509346
0.0418859
0.000120341
-0.000146594
-0.0459176
0.0306807
0.00032159
-0.00012452
0.0987732
-0.0172836
-0.00154512
-0.000108514
-0.00732167
-0.0575261
0.000540072
4.44423e-05
-0.00252428
0.115572
1.39604
-8.30214e-05
0.0154644
-0.00171159
3.97783e-06
0.00266418
0.280952
-0.0112928
-0.00683935
0.123295
2.04048
0.00038115
0.000412655
-0.0029775
7.12266e-05
0.0351417
5.60779e-05
0.000718172
0.00559405
-0.00979695
0.0114993
-0.00250918
1.65158
0.0326983
3.4473e-05
9.69625e-05
0.000365582
0.00099786
-0.0130447
0
-0.00163308
3.51749
0.00287221
0.450969
-1.54671e-06
-0.00258639
-0.0489287
8.75835e-05
-0.00179045
-0.00133042
0.0152001
2.54183
0.3216
0
0.00263491
0.098681
-0.00930512
-4.33035e-05
0.37882
-0.000170597
-0.00153905
-0.000217417
-0.00082105
0.00753707
0.000335753
0.00207674
0.000256327
-0.00118624
0.0132716
0.000134143
-0.00170863
-0.0139914
-0.0232841
5.90721e-05
0.000427916
-0.000927903
0
-0.000600661
0.00175324
0
0.00350222
3.24279
0.0776158
4.05847e-06
-0.000215337
-0.001173
0.00112131
8.14851e-05
0.00596595
-0.00612796
0.00409432
-0.00240391
-0.000292841
-0.000930232
0.0301389
-8.3781e-05
0.000203821
0
0
-0.00177749
0.000575946
0.0179795
2.26637
0.000137372
2.66765e-05
0.000314833
0
0
0.000919718
0.00202067
0.0896008
-9.73911e-05
0.034226
1.67657
-0.000287613
0.00297652
0.00189241
0.000376742
8.15055e-05
0.00149103
-0.0114124
0.331567
3.11316
0
-0.000469335
-0.0255968
0
0.000237731
-0.00010688
-0.00376391
0.000455923
0.0216734
0.00348718
-0.00105676
0.000898644
0.182199
-0.00852943
0.000297413
0.000829292
0.126095
4.93888e-05
0.000206447
0.000120029
-0.00385085
-0.000211728
0
0.000269635
0.373116
0.000340204
-0.00372322
0
0
0.00140812
0.349415
3.15161
-0.000768852
-0.00261293
4.94259e-05
-0.00434512
0.000150568
0.305876
0.000200478
0.00433266
-0.000146724
-0.00364834
9.38938e-05
0.455233
-0.00125833
0.00055787
2.28701
6.63756e-05
-0.00501268
0.0018368
-0.000965443
0.113168
0.000647273
2.63685
0
0.000291933
0.00233491
0.0457405
-0.000188688
-0.00191371
0.0596903
-0.00182557
0.0176016
6.21919e-05
0.00121602
0.0211473
0.0025498
0.0734272
-0.000206198
-0.00385719
-0.000141923
-0.00721166
0.00395592
0.000108621
0.00274086
-0.000892247
0.283359
2.52022
0.00660156
-0.000731405
0.000384388
0.181522
7.96099e-05
0.00465569
6.04546e-05
0.00208763
-0.00099253
0.0995972
1.69264
0.00884377
4.8176e-05
-4.20291e-05
0.0327149
0.000353511
-0.00407824
-0.000111545
-0.00631944
0.0380393
0.000909117
0.679706
-0.000164535
-0.00511711
-1.11466e-05
0.00524959
-3.85025e-05
0.00466139
0.000653651
-0.00281144
-0.000862729
0.0306119
-0.00310897
-0.000514572
-0.00349425
-0.00183532
2.21353
-0.00142765
-0.0259551
0.000423907
0.00184864
0.00227758
-0.000149232
-7.2503e-05
1.37121
-0.000104485
-0.00179169
0.00434806
2.16475e-05
0.00958745
0.000230286
0.000726398
0.927209
0
0.00316085
0
1.61444
0.563692
0.00536279
0.0173537
0.0658287
-0.00133247
0.000329942
-0.00213473
0.00224158
0.00438747
0.0346481
0.0463456
1.50899e-05
0.000602677
-0.0124588
-0.00581403
-5.64751e-05
0.00228762
-0.0128509
0.00231915
0.000243959
0.0511695
-0.00223936
0.000172929
0.000234423
-0.00247175
-0.00054254
-0.00138447
0.00720373
-0.000601112
0.00259498
-0.000212916
0.225671
0.00280906
0.00122734
0.00100774
-0.00274987
0.0246226
0
-0.000164342
0
-0.00161939
-0.000130422
-0.00175472
-0.00055182
-0.00104893
0.0235238
2.37885
0.00268168
0.0273059
-0.000154445
-0.00055324
-0.000384504
-0.000905358
0.0435513
0.0391762
-0.0013426
4.2801e-05
-0.000878904
0.148664
-1.05394e-05
-0.000934669
-4.90967e-05
0.00381206
0.0187873
-0.000101488
-0.000591217
1.11697
-0.0011513
-0.0011792
0.000694473
0.000716177
-0.0186126
0.0129147
0.000122031
-0.00273301
-0.0104477
0.0294163
-0.00276784
-0.000650276
0.000509394
-0.00297826
0.00175772
0.000918624
-0.017177
-0.00392339
-4.90033e-06
0.0036507
0.000239362
2.65069
-0.00276929
-2.96264e-05
0.00120918
0.000193409
0.0004304
0.00122276
0.0008634
0.0648883
0.00214776
0.000530418
-0.000835354
0.000298086
-0.00227863
0.000389201
0.00193993
0.00127503
0.00111547
-0.00358044
0.00130582
-0.00271535
0.000615857
0.000883537
-0.00167761
0.0165802
-0.000822169
0.00188199
-1.30028e-05
-0.00259095
0.002977
-0.00063909
0.0213992
0.00576234
-0.00121235
0.211933
0.000379931
0.00981686
-0.00013882
0.00515998
-0.000553311
0.204657
0.735478
0.0204214
0.00210531
-0.000169031
-0.000809809
-0.0177089
-0.000844449
0.0109877
-0.0072476
0.000791469
0.326024
0.000251234
-0.0023095
-0.000133272
-0.00568727
0.000357474
0.023285
-0.00227269
-0.00150684
0.0507912
0.0006765
0.00073864
0.00143863
-0.000361914
-0.000345104
0.000368676
0.00170273
0.000428012
-0.000995724
0.581703
0.00355422
0.0186707
0.439721
0.0234797
0.00763364
-0.000554486
0.00108239
0.0157656
9.64413e-05
0.00167276
7.07546e-06
-0.00396752
-0.0379705
-0.00204161
-0.0394376
0.000558086
0.000156491
0.00334796
0.00169277
-0.000321241
0.750534
-0.00107905
0.0021979
-0.00336512
-0.00636947
-0.00157018
-0.00144944
0.00167382
-0.0034322
-0.00133945
-0.00212534
0.00773759
-0.00145317
0.0196822
-0.00476359
0.000538895
0.46375
1.62187e-05
-0.0010348
1.01013
-0.0112684
4.02322e-05
0.000136907
0.00515506
-0.000634786
0.000504586
0
-0.00597272
-0.0104104
0.459182
0.0730015
0.168561
0.00171618
0.309242
0.00393344
0.00905347
-0.000386011
0.00213082
-0.000513691
-0.0278198
2.91937
0.000746754
2.76435
0.0909481
-0.00307388
0.0918804
2.39967
0.00437791
0.0852094
1.61598
-7.23605e-06
0.681044
0.0106745
-0.00454112
-0.000836278
-0.00320837
-0.00599986
0.0057615
0.237638
0.00137661
1.0884
0.0107381
0.00114437
-3.83748e-05
-0.00453857
0.0127898
0.285479
0.000265747
-0.00607026
2.87859
-0.000818586
0.0616329
4.14567e-05
0.260918
0.00237436
0.0180943
0.334644
0.0476633
1.5151
0.00340825
0.00393452
0.0192397
0.0189965
0.00187274
1.89671
-0.015595
-0.0168678
-0.00324992
-0.0221732
0.0282868
0.0173001
-0.032847
-0.00631926
0.931795
-0.0311697
0.0601369
0.958804
0.0660122
0.0367254
0.00879712
0.0536986
0.669176
-0.0710288
0.163472
0.669181
0.0653585
0.00160987
0.00681293
0.0541186
0.423006
0.0504353
0.0936344
0.489475
-0.0416476
-0.00951682
0.0158537
-0.0122493
1.28373
-0.00797174
0.0750244
-0.0143201
-0.0159857
0.0126932
0.00183705
-0.00117172
0.000441966
0.0458594
0.271311
-0.0202746
-0.10531
-0.00375121
-0.0138924
0.00119595
1.24947
0.0013472
0.0463657
0.146414
0.000815404
0.00537925
0.00942766
0.00962865
0.126834
-0.0108951
0.00166564
-0.00463705
-0.00276264
0.000967411
-0.000736449
1.59347
-0.000740671
-0.000988385
2.12946
0.0112163
0.000971045
-0.00182641
0.0211094
-0.013252
0.00661958
1.14679
0.00675723
-0.00339667
1.42187
0.00316121
-0.0467865
-0.00276812
-0.0207062
-0.000239417
0.305434
0.00104459
0.00510646
0.0298851
0.057507
0.209474
0.000837602
0.0656508
-0.0127762
0.276052
0.0624843
0.100129
0.529601
-0.036753
-0.00208405
0.0146653
0.00173548
0.0077173
0.00682074
0.00590032
0.0477307
0.334594
0.002249
0.24835
0.00441958
0.0373959
1.72111
2.00882e-06
-0.00233689
0.405448
0.00343921
0.00138234
-0.0125527
-0.00154059
0.00142204
-0.000292129
-0.0160204
0.0434421
0.00259574
0.343103
0.00502498
0.0367842
-0.00684636
0.0130612
0.61358
0.0472193
0.00295524
0.00354951
0.191068
0.0164876
0.00403484
-0.000842986
-0.000450024
0.00363049
1.66186
0.0046971
0.214408
0.0110798
0.268742
-0.00236902
0.00060191
0.0521209
0.497543
0.401233
-0.0505639
0.00262078
0.00101077
-0.00109167
0.0076516
0.00593571
-0.000615661
0.00446524
0.000211171
0.012976
0.215579
0.0265048
0.865011
-0.032656
0.00429595
0.00703629
0.575145
0.036174
0.00317616
0.000995598
0.0011334
0.370734
-0.0289584
-0.00118119
0.165333
0.672895
0.0083902
0.000146429
-0.000888978
-0.00199531
1.11227
0.0228322
-0.00154146
0.0652035
0.204845
1.03539
-0.00105886
4.94496e-05
0.0438939
-0.00536938
1.05421
-0.00413901
0.00087076
-0.000149326
0.16362
-0.00344821
0.0256825
-0.0186588
0.00509615
-0.00432771
0.198385
-0.00318048
0.0559062
0.00569581
0.105745
0.817481
1.66186
-0.00314324
-0.000314336
0.268975
0.0151463
0.134503
-0.0208252
0.0235672
0.000965489
0.144314
0.0942351
0.00063064
0.00306704
0.230571
0.00321151
0.0186091
-0.019646
0.0185025
0.866013
0.0125184
0.000279873
-0.00103821
0.733578
-0.0118109
0.0228503
0.00603296
0.0168149
-0.00055208
-0.000202204
1.25835
0.00788638
-0.000133362
0.682829
0.0293736
-0.00394949
0.842147
-0.023153
-0.00332499
-0.021573
-0.000623151
