# vtk DataFile Version 2.0
Unstructured Grid by M++
ASCII
DATASET UNSTRUCTURED_GRID
POINTS 1072 float
  0.718750   0.687500 0
  0.906250   0.906250 0
  0.562500   0.843750 0
  0.562500   0.812500 0
  0.812500   0.781250 0
  0.750000   1.000000 0
  0.750000   0.968750 0
  0.718750   0.656250 0
  0.687500   0.656250 0
  0.843750   0.781250 0
  0.968750   0.906250 0
  0.625000   0.656250 0
  0.937500   0.843750 0
  0.593750   0.593750 0
  0.531250   0.875000 0
  0.718750   0.968750 0
  0.718750   0.937500 0
  0.968750   0.875000 0
  0.625000   0.625000 0
  0.812500   0.718750 0
  0.562500   0.906250 0
  0.781250   1.000000 0
  0.968750   0.593750 0
  0.968750   0.562500 0
  0.937500   0.593750 0
  0.531250   0.843750 0
  0.531250   0.812500 0
  0.656250   0.625000 0
  0.656250   0.656250 0
  1.000000   0.906250 0
  0.843750   0.750000 0
  0.937500   0.906250 0
  0.812500   0.750000 0
  0.593750   0.875000 0
  0.593750   0.843750 0
  0.875000   0.781250 0
  0.531250   0.531250 0
  0.843750   0.812500 0
  0.812500   0.812500 0
  0.875000   0.843750 0
  0.843750   0.843750 0
  0.562500   0.875000 0
  0.562500   0.531250 0
  0.906250   0.718750 0
  0.625000   0.906250 0
  0.531250   0.562500 0
  0.875000   0.812500 0
  1.000000   0.625000 0
  0.593750   0.906250 0
  0.625000   0.593750 0
  0.656250   0.968750 0
  0.562500   0.562500 0
  0.906250   0.812500 0
  0.656250   0.718750 0
  1.000000   0.968750 0
  0.593750   0.937500 0
  0.687500   0.687500 0
  0.906250   0.875000 0
  0.593750   0.531250 0
  0.625000   0.937500 0
  0.937500   0.562500 0
  1.000000   0.937500 0
  0.656250   0.687500 0
  0.937500   0.531250 0
  0.968750   0.937500 0
  0.562500   0.593750 0
  0.687500   0.968750 0
  0.875000   0.875000 0
  0.625000   0.875000 0
  0.937500   0.875000 0
  0.593750   0.625000 0
  0.718750   0.531250 0
  1.000000   0.687500 0
  0.968750   0.625000 0
  0.656250   0.593750 0
  0.687500   1.000000 0
  0.687500   0.937500 0
  0.687500   0.625000 0
  0.937500   0.625000 0
  0.593750   0.562500 0
  0.968750   0.656250 0
  0.750000   0.687500 0
  0.656250   0.906250 0
  0.656250   0.937500 0
  0.625000   0.562500 0
  0.781250   0.687500 0
  0.750000   0.718750 0
  0.781250   0.718750 0
  0.750000   0.750000 0
  0.531250   0.781250 0
  0.781250   0.750000 0
  1.000000   0.656250 0
  0.906250   0.500000 0
  0.906250   0.593750 0
  0.718750   1.000000 0
  0.843750   0.531250 0
  0.875000   0.531250 0
  0.875000   0.562500 0
  0.781250   0.781250 0
  0.718750   0.718750 0
  0.906250   0.562500 0
  0.781250   0.843750 0
  1.000000   0.593750 0
  0.125000   0.875000 0
  0.750000   0.625000 0
  0.250000   0.375000 0
  0.687500   0.875000 0
  0.187500   0.625000 0
  0.312500   0.781250 0
  0.500000   0.031250 0
  0.375000   0.531250 0
  0.437500   0.281250 0
  0.062500   0.781250 0
  0.687500   0.531250 0
  0.187500   0.281250 0
  0.625000   0.781250 0
  0.125000   0.531250 0
  0.718750   0.906250 0
  0.218750   0.656250 0
  0.156250   0.906250 0
  0.781250   0.656250 0
  0.281250   0.406250 0
  0.156250   0.875000 0
  0.718750   0.875000 0
  0.218750   0.625000 0
  0.781250   0.625000 0
  0.281250   0.375000 0
  0.406250   0.875000 0
  0.468750   0.625000 0
  0.593750   0.125000 0
  0.562500   0.937500 0
  0.062500   0.687500 0
  0.625000   0.687500 0
  0.125000   0.437500 0
  0.000000   0.937500 0
  0.062500   0.625000 0
  0.125000   0.375000 0
  0.187500   0.125000 0
  0.000000   0.875000 0
  0.093750   0.781250 0
  0.656250   0.781250 0
  0.156250   0.531250 0
  0.437500   0.968750 0
  0.625000   0.218750 0
  0.187500   0.843750 0
  0.437500   0.843750 0
  0.625000   0.093750 0
  0.093750   0.593750 0
  0.218750   0.093750 0
  0.156250   0.343750 0
  0.031250   0.843750 0
  0.812500   0.937500 0
  0.312500   0.687500 0
  0.875000   0.687500 0
  0.375000   0.437500 0
  0.250000   0.937500 0
  0.281250   0.531250 0
  0.406250   0.031250 0
  0.343750   0.281250 0
  0.218750   0.781250 0
  0.031250   0.531250 0
  0.093750   0.281250 0
  0.156250   0.031250 0
  0.375000   0.781250 0
  0.937500   0.781250 0
  0.437500   0.531250 0
  0.562500   0.031250 0
  0.187500   0.875000 0
  0.750000   0.875000 0
  0.250000   0.625000 0
  0.812500   0.625000 0
  0.312500   0.375000 0
  0.437500   0.875000 0
  0.625000   0.125000 0
  0.093750   0.625000 0
  0.218750   0.125000 0
  0.156250   0.375000 0
  0.031250   0.875000 0
  0.000000   0.906250 0
  0.125000   0.406250 0
  0.187500   0.156250 0
  0.062500   0.656250 0
  0.000000   0.968750 0
  0.625000   0.718750 0
  0.125000   0.468750 0
  0.562500   0.968750 0
  0.062500   0.718750 0
  0.687500   0.812500 0
  0.187500   0.562500 0
  0.125000   0.812500 0
  0.750000   0.562500 0
  0.250000   0.312500 0
  0.406250   1.000000 0
  0.968750   1.000000 0
  0.468750   0.750000 0
  0.656250   0.000000 0
  0.593750   0.250000 0
  0.531250   0.500000 0
  0.562500   1.000000 0
  0.062500   0.750000 0
  0.000000   1.000000 0
  0.625000   0.750000 0
  0.125000   0.500000 0
  0.406250   0.937500 0
  0.468750   0.687500 0
  0.593750   0.187500 0
  0.187500   0.906250 0
  0.750000   0.906250 0
  0.250000   0.656250 0
  0.812500   0.656250 0
  0.312500   0.406250 0
  0.750000   0.937500 0
  0.250000   0.687500 0
  0.812500   0.687500 0
  0.312500   0.437500 0
  0.187500   0.937500 0
  0.468750   1.000000 0
  0.718750   0.000000 0
  0.812500   1.000000 0
  0.312500   0.750000 0
  0.250000   1.000000 0
  0.875000   0.750000 0
  0.375000   0.500000 0
  0.093750   0.812500 0
  0.718750   0.562500 0
  0.218750   0.312500 0
  0.656250   0.812500 0
  0.156250   0.562500 0
  0.687500   0.125000 0
  0.656250   0.875000 0
  0.156250   0.625000 0
  0.093750   0.875000 0
  0.718750   0.625000 0
  0.218750   0.375000 0
  0.125000   1.000000 0
  0.250000   0.500000 0
  0.312500   0.250000 0
  0.375000   0.000000 0
  0.187500   0.750000 0
  0.250000   0.906250 0
  0.156250   0.968750 0
  0.218750   0.718750 0
  0.343750   0.218750 0
  0.281250   0.468750 0
  0.625000   0.843750 0
  0.125000   0.593750 0
  0.062500   0.843750 0
  0.687500   0.593750 0
  0.187500   0.343750 0
  0.468750   0.843750 0
  0.312500   0.812500 0
  0.437500   0.312500 0
  0.500000   0.062500 0
  0.375000   0.562500 0
  0.062500   0.812500 0
  0.687500   0.562500 0
  0.187500   0.312500 0
  0.625000   0.812500 0
  0.125000   0.562500 0
  0.125000   0.625000 0
  0.250000   0.125000 0
  0.187500   0.375000 0
  0.062500   0.875000 0
  0.468750   0.875000 0
  0.656250   0.125000 0
  0.062500   0.937500 0
  0.250000   0.187500 0
  0.187500   0.437500 0
  0.125000   0.687500 0
  0.062500   1.000000 0
  0.687500   0.750000 0
  0.187500   0.500000 0
  0.625000   1.000000 0
  0.125000   0.750000 0
  0.218750   0.875000 0
  0.781250   0.875000 0
  0.281250   0.625000 0
  0.843750   0.625000 0
  0.343750   0.375000 0
  0.281250   0.656250 0
  0.843750   0.656250 0
  0.343750   0.406250 0
  0.718750   0.843750 0
  0.218750   0.593750 0
  0.781250   0.593750 0
  0.281250   0.343750 0
  0.156250   0.843750 0
  0.093750   0.968750 0
  0.218750   0.468750 0
  0.281250   0.218750 0
  0.156250   0.718750 0
  0.031250   0.906250 0
  0.156250   0.406250 0
  0.218750   0.156250 0
  0.093750   0.656250 0
  0.031250   0.968750 0
  0.593750   0.968750 0
  0.093750   0.718750 0
  0.718750   0.812500 0
  0.218750   0.562500 0
  0.781250   0.562500 0
  0.281250   0.312500 0
  0.156250   0.812500 0
  0.125000   0.968750 0
  0.250000   0.468750 0
  0.312500   0.218750 0
  0.187500   0.718750 0
  0.062500   0.906250 0
  0.250000   0.156250 0
  0.187500   0.406250 0
  0.125000   0.656250 0
  0.062500   0.968750 0
  0.687500   0.718750 0
  0.187500   0.468750 0
  0.625000   0.968750 0
  0.125000   0.718750 0
  0.500000   0.781250 0
  0.625000   0.281250 0
  0.687500   0.031250 0
  0.156250   0.937500 0
  0.281250   0.437500 0
  0.218750   0.687500 0
  0.187500   0.968750 0
  0.250000   0.718750 0
  0.375000   0.218750 0
  0.312500   0.468750 0
  0.312500   0.531250 0
  0.375000   0.281250 0
  0.437500   0.031250 0
  0.250000   0.781250 0
  0.812500   0.843750 0
  0.312500   0.593750 0
  0.875000   0.593750 0
  0.375000   0.343750 0
  0.250000   0.843750 0
  0.656250   0.843750 0
  0.156250   0.593750 0
  0.718750   0.593750 0
  0.218750   0.343750 0
  0.500000   0.843750 0
  0.687500   0.093750 0
  0.625000   0.343750 0
  0.218750   0.968750 0
  0.781250   0.968750 0
  0.281250   0.718750 0
  0.843750   0.718750 0
  0.343750   0.468750 0
  0.218750   1.000000 0
  0.281250   0.750000 0
  0.468750   0.000000 0
  0.343750   0.500000 0
  0.406250   0.250000 0
  0.125000   0.906250 0
  0.750000   0.656250 0
  0.250000   0.406250 0
  0.687500   0.906250 0
  0.187500   0.656250 0
  0.250000   0.750000 0
  0.312500   0.500000 0
  0.437500   0.000000 0
  0.375000   0.250000 0
  0.187500   1.000000 0
  0.156250   0.656250 0
  0.281250   0.156250 0
  0.218750   0.406250 0
  0.093750   0.906250 0
  0.687500   0.156250 0
  0.812500   0.968750 0
  0.312500   0.718750 0
  0.250000   0.968750 0
  0.875000   0.718750 0
  0.375000   0.468750 0
  0.781250   0.937500 0
  0.281250   0.687500 0
  0.218750   0.937500 0
  0.843750   0.687500 0
  0.343750   0.437500 0
  0.687500   0.843750 0
  0.187500   0.593750 0
  0.750000   0.593750 0
  0.250000   0.343750 0
  0.125000   0.843750 0
  0.562500   0.750000 0
  0.062500   0.500000 0
  0.343750   1.000000 0
  0.968750   0.750000 0
  0.468750   0.500000 0
  0.906250   1.000000 0
  0.406250   0.750000 0
  0.593750   0.000000 0
  0.531250   0.250000 0
  0.031250   0.781250 0
  0.156250   0.281250 0
  0.593750   0.781250 0
  0.093750   0.531250 0
  0.031250   0.812500 0
  0.656250   0.562500 0
  0.156250   0.312500 0
  0.593750   0.812500 0
  0.093750   0.562500 0
  0.312500   0.968750 0
  0.937500   0.718750 0
  0.437500   0.468750 0
  0.875000   0.968750 0
  0.375000   0.718750 0
  0.312500   1.000000 0
  0.875000   1.000000 0
  0.375000   0.750000 0
  0.937500   0.750000 0
  0.437500   0.500000 0
  0.562500   0.000000 0
  0.281250   0.968750 0
[...]
POINT_DATA 1072
SCALARS scalar_value float 1
LOOKUP_TABLE default
0.00117598
0.000140194
-0.00167192
-0.00160577
-0.00133718
0
6.23016e-05
-0.00155792
-0.000924836
-0.000851344
3.46981e-05
-0.000276098
0.000173693
0.00234646
-0.00125699
-6.29878e-06
0.00031141
3.62302e-05
0.000339467
-0.000779673
-0.00159
0
-0.000559499
-0.000949684
-0.00293881
-0.00182827
-0.00173024
0.000646504
-0.00013487
-6.06161e-06
0.000956006
-1.23782e-05
0.000112858
8.0117e-05
-0.00164427
-0.000603145
-0.000487884
0.00079187
0.000357857
-0.000155186
-0.000147239
-0.000715476
0.00136535
-0.00124607
-0.000911015
-0.0007514
0.000332824
0.00109259
-0.00126835
0.000468594
-0.000486094
0.0011007
0.000576205
-0.00107878
-0.000108061
0.000104315
0.000797194
9.74191e-05
0.00264267
-1.70084e-05
0.00525404
-2.9373e-05
0.00019355
-0.00650359
-6.96843e-05
0.000707224
-0.000395283
0.000154327
0.00019897
4.67145e-05
0.00266756
0.000584434
-0.000216167
0.00115528
0.00093209
0
0.000145255
0.000449593
0.00163904
0.00237282
-0.000960552
0.00108491
-0.000632133
-0.000151408
0.00118512
0.00055492
-0.000704583
-4.49706e-06
0.000356647
-0.00239285
0.000352105
-0.000230256
0.0218695
-0.00125328
0
-0.0014114
-0.00175873
-0.000153023
-4.19162e-05
-0.00133982
-0.00100744
-0.000439124
-0.00257204
-3.88276e-05
0.001752
0.00137386
5.16852e-06
0.000130281
-2.41774e-05
-0.0144209
-0.000407109
0.00183289
-8.68497e-05
0.000776792
0.0034931
-0.00186926
-0.000121538
-0.000363977
0.000210907
-5.21244e-06
-0.00091732
0.000544734
2.18502e-06
0.000163115
-0.000388141
0.00141334
0.00381517
6.44159e-05
-0.000171809
0.0954948
-6.72044e-05
4.69682e-06
-0.000138797
0.000721553
1.9714e-06
6.60049e-05
0.00119288
0.00376802
7.90804e-06
-8.42759e-05
-0.00134721
0.000739431
-0.000250734
0.0211992
-5.41485e-05
-4.79456e-05
0.121768
-6.18749e-05
0.00640693
-0.00123284
-1.24153e-05
0.000160935
1.59842e-05
0.00143765
-0.00157887
-3.35889e-05
0.00202364
0.0785988
-0.00315917
-0.000131928
-9.65476e-05
-0.000126628
-0.000246276
0.000327123
3.82688e-05
-0.000111201
0.0598454
-7.70022e-06
0.000414602
0.000490119
0.000304449
0.00216608
0.000108207
0.0398696
-2.26805e-05
0.00692718
0.000794666
-9.52147e-06
-8.1601e-06
-0.00011105
0.00289678
-0.000190768
-1.04115e-06
-0.000906693
6.81891e-05
-0.00114571
-0.000131886
0.000357021
0.000174225
-3.48831e-05
0.00131114
0.00103569
0
0
9.30178e-05
0.913751
0.0326235
-8.18286e-05
0
-1.93442e-05
0
0.000404556
0.000121161
-1.90439e-06
-0.000242402
0.0800463
-1.26329e-05
-0.000325957
-0.000112108
-0.000788035
0.000478852
-0.000274221
-0.000140623
-0.000391203
-0.000429397
1.89394e-06
0
0.0544913
0
-5.04935e-06
0
0.00126977
-0.000719098
5.31121e-05
0.000209518
0.00827298
0.000278961
-0.00045532
0.101239
1.02364e-05
-6.51336e-05
-5.79642e-05
0.00108502
0.0016025
0
-8.97602e-05
0.00215936
0.137673
7.73727e-05
-3.55818e-05
3.11676e-06
-9.38607e-05
-0.00116667
0.0023137
-0.00146044
-0.000458542
-5.06394e-05
0.000235168
-0.000887606
0.00019734
-3.31034e-05
-9.21756e-05
0.000882381
-0.000244316
-2.11967e-05
0.00164117
0.00362742
0.000346849
0.000398985
0.000373515
-0.00312646
-0.000987434
-1.28868e-05
0.000193866
0.27948
-1.62722e-06
-0.00273447
0.000204969
0.000100986
0
0.000903581
0.00139978
0
-1.34061e-05
0.000152128
0.00254648
-0.00012185
-0.000174119
-0.00130091
-0.00019046
-0.000231993
0.000185714
-0.000224999
0.000225359
-0.00176533
-0.000733801
-1.74639e-05
-1.2213e-05
0.000201427
-0.000929191
-0.000149636
-8.33642e-06
-0.000150151
0.00609473
6.94836e-06
-3.92075e-06
-0.000676707
-5.30955e-05
-6.9852e-06
0.000186767
0.00154289
0.00143772
5.75212e-06
-1.0068e-05
-0.00213071
-0.000458837
-0.000199506
-2.25903e-05
-0.00299732
-0.00126649
-0.000296939
-1.10368e-05
-0.00163059
-0.00318282
-0.000472743
-0.000101408
-0.001057
0.00109657
0.0815413
-3.63174e-06
0.00227644
-4.39553e-05
-4.52233e-06
5.83944e-05
0.00476444
0.000118887
7.0819e-05
0.00213372
0.0944489
-8.39065e-05
-0.00136917
-0.000283665
0.000356148
0.000439846
-0.000104244
-0.00116283
0.000190204
-0.00040915
0.00110121
-0.000855136
0.131695
-0.00092263
-1.44296e-05
-0.00023801
-4.31819e-05
-0.000991467
-6.64049e-05
0
-8.14755e-05
0.293225
-0.000560126
0.00808321
-1.15299e-05
-0.00151814
-0.00265452
-0.000290356
-0.000195178
-2.27171e-05
-0.00075255
0.157082
0.007922
0
-0.000145044
-0.00401653
-0.000567746
-1.95258e-05
-0.0179858
-8.69254e-05
-4.42746e-05
-1.82634e-05
-0.00107505
-0.00103922
-0.000196141
2.93027e-05
2.6446e-05
0.000337538
-0.00123479
-0.000620115
-5.58333e-05
-0.00150437
-0.00277173
-5.62569e-05
-0.000597079
0.00039789
0
-0.000108721
-5.86944e-05
0
0.000748583
0.219373
0.00410422
-2.38132e-05
9.00946e-05
-0.00135561
-0.000184362
-1.25424e-05
0.00318737
-0.000268381
-0.000485878
0.00023157
-0.000104491
-0.000657515
-0.00101193
-9.55584e-05
0.000257077
0
0
0.000478202
0.000161197
-0.000549324
0.111003
2.05046e-05
-5.06285e-06
0.000101127
0
0
0.00013562
0.00143855
-4.04841e-06
0.000577449
-0.00155757
0.0307726
-2.70617e-05
0.00144885
0.000338764
-0.00171969
-0.000293354
-1.17212e-06
0.00021846
0.00729414
0.203057
0
-1.44304e-05
-0.00171826
0
-3.04225e-05
3.01151e-05
-0.00106525
2.51126e-05
0.00186641
-0.000139442
7.95114e-05
0.000307143
0.00368882
0.000188704
-5.92656e-05
-0.00177492
0.00236079
6.12662e-05
4.92728e-05
-5.60374e-05
0.000598048
0.000240207
0
1.24821e-06
-0.0102222
-7.91264e-05
-0.000289849
0
0
0.000436496
-0.00177789
0.332243
-0.000267321
-0.00124409
-2.64687e-05
0.000588921
-7.2158e-05
-0.00280075
4.98296e-05
4.25541e-05
-2.94075e-05
0.000542169
-0.000170065
0.0133493
-0.000202586
0.000128427
0.0963646
5.84024e-05
7.33457e-05
0.000168798
0.000392924
0.00384698
0.00111174
0.125607
0
0.000141103
0.0013311
0.000953791
9.45179e-05
0.000835242
0.00352508
-0.00326757
0.003198
-0.00018708
0.000308762
0.000857979
0.00139608
0.00480806
2.67781e-06
0.00141746
-0.000158527
0.00175187
-0.0001364
-0.000151151
-0.00122612
0.00026679
0.00344938
0.133816
-0.000340999
-2.0894e-05
0.00138695
0.000762814
-3.08871e-05
6.51479e-05
5.55853e-05
0.00196767
-0.000149802
0.000306087
0.0597753
-0.000228258
0.000110824
0.000508255
-0.00168472
0.000316537
-7.97461e-05
5.84553e-05
0.000364927
0.00149894
-5.62449e-05
0.021936
-0.000164526
0.000394289
-0.00155444
-0.000147384
-9.59571e-05
-0.00177202
2.24766e-05
-0.00168001
0.000170323
0.00239998
0.000255945
0.000139034
0.000318702
0.000461281
0.0571813
-0.00042235
-0.000413031
-6.95264e-05
-0.00155302
-8.03527e-05
0.00155734
-8.74409e-05
0.0465413
-0.000152767
0.000213096
0.00368169
-0.000250585
0.00173755
0.00037043
5.34018e-06
0.0352014
0
-0.00133584
0
0.148148
0.00737167
0.0017308
0.00145436
0.00592614
-7.25359e-05
-0.00160382
0.00030557
0.00196886
-0.000240607
0.00105462
-0.00155941
-1.02976e-05
0.000154709
-0.0014977
-0.00117959
-5.80543e-05
-0.000499993
-0.000431962
-0.00222365
-2.07919e-05
0.00431815
0.000602895
0.000176896
6.98077e-06
0.00026013
4.77711e-05
-0.000771019
0.00118651
-6.72713e-05
-0.00215478
0.000133618
0.00579704
-0.000155486
0.00257943
6.0722e-05
0.000406681
0.00104148
0
2.86473e-05
0
-1.59044e-05
-9.36361e-05
-0.00012851
0.00020324
-0.000220536
0.00310205
0.0712959
0.000579196
0.00392119
-1.52068e-05
-0.000222507
-0.00185516
5.23973e-05
-0.0021761
0.00202217
7.39846e-05
-6.78488e-06
0.00118818
-0.000545441
-0.000139855
0.000234538
3.83295e-05
0.00020022
0.00244344
-0.000644786
-0.000417451
0.0245738
7.03466e-05
-0.00076023
-0.000148625
-7.1575e-05
-0.000337556
0.000182342
-5.60242e-05
-0.0014821
-0.000536996
-0.00192984
0.000285102
-7.19287e-05
1.44075e-05
0.000414238
-0.00132706
8.44698e-06
-0.000887639
8.08662e-05
4.8477e-05
-3.82783e-05
0.000724244
0.132733
0.000710075
-0.000178042
3.86045e-05
0.000612887
-6.33939e-05
-0.000905465
0.000132828
0.00276829
2.25291e-05
-9.49505e-05
0.00195372
-0.000318502
-0.00147224
-5.09759e-06
-7.49579e-05
0.000161029
-2.66282e-05
-0.000474136
-0.000288412
0.000613495
-2.76763e-05
-0.000147906
0.000268665
0.00238438
0.000356171
-0.000500487
-4.34858e-05
-8.32636e-06
9.93926e-07
-7.03793e-05
0.000612404
0.000206493
-6.51486e-05
0.00122589
0.000404186
0.000222016
-4.42783e-05
0.000507148
-1.5218e-05
0.00103049
0.0134749
-0.000857738
-0.000124018
-3.29753e-05
9.97688e-05
0.000828602
-0.000246462
4.16412e-06
0.000712704
-3.36937e-05
0.00952078
-3.9851e-05
6.38087e-06
0.000146464
0.000713831
-4.41891e-05
-0.00619911
-0.000167502
0.000168201
0.00242956
9.65844e-05
-0.000548322
6.39327e-05
0.000119031
-0.000387614
6.81283e-05
-9.1185e-05
-0.00143118
-0.000105429
-0.0296486
-0.00023109
0.00257455
-0.00351646
-0.00105057
3.4066e-05
7.07661e-06
0.000913317
-0.000581988
0.000141718
0.000365263
4.25637e-05
-0.00237619
-0.00121038
-0.000319315
-0.00176817
-0.000110711
-0.000237785
0.00178225
0.00038607
-1.3457e-05
0.00709143
-0.000839104
-6.16072e-05
5.27777e-05
0.000375678
-0.000849458
-0.000103193
-0.00018004
-0.000221906
-6.10414e-05
0.000254405
0.000144885
1.55734e-05
0.00170657
0.000269049
1.17138e-05
-0.00246238
0.000333541
3.82513e-05
0.0353462
0.00127163
-0.0002164
4.83663e-05
0.000314818
-4.74502e-05
1.83785e-05
0
0.000988486
0.00129234
0.00170776
0.00522989
0.00955855
0.000473449
-0.0124268
-0.000468334
0.0027171
-0.000111969
-0.000474835
0.0003133
-0.00338582
0.14719
0.000155857
0.642164
0.00208144
0.000380483
-0.00254176
0.731533
-0.000762282
-0.00117709
0.134342
9.62952e-05
0.0200375
-0.000559603
0.00192694
-7.53762e-05
-0.000871482
0.000623867
0.00211452
-0.00159606
0.00025546
0.0354303
0.00233006
6.27772e-05
-0.000274065
0.000642712
0.00210804
0.00305201
6.62075e-05
9.42873e-05
0.190463
-0.000102149
0.00092559
3.38775e-07
-0.0042031
0.000193685
0.00164359
0.0103536
0.00585547
0.0658262
-0.00218357
-0.00138401
-0.000743496
0.00035354
2.31875e-05
0.0954662
0.0049455
-0.0015218
2.05561e-05
-0.000480534
-0.00290773
-0.00224358
-0.000659713
-0.000865095
0.0187923
-0.00710209
8.21884e-05
0.00268787
0.0114251
0.00177133
0.000553186
7.22365e-05
-0.00354729
-0.0123014
-0.00108072
0.00332726
0.0140677
0.00470989
0.0021008
0.000364882
-0.00532843
0.0103509
0.000115091
-0.000771469
-0.00904948
-0.00046565
0.000447603
0.000337889
0.0339406
0.00708621
0.00474396
0.000694636
-0.00439611
0.00246394
-0.00326634
0.000868374
-0.00103904
0.000471974
-0.00637808
-0.00669371
-0.0173158
0.00339614
0.000624936
-0.00113274
0.0336683
0.0015733
0.00397537
-0.00576615
0.0047993
0.00687535
0.00283126
0.000802031
-0.00163523
-0.00534444
-0.00369457
-0.0032154
0.00173373
-0.00126036
-0.00022059
0.0521706
0.000565889
0.000102984
0.097223
-0.00608502
-0.00115127
0.00307896
0.000357869
0.000209114
-0.00283686
0.0442602
0.008026
-0.00092497
0.0505746
-0.00848104
-0.000786952
-0.00199412
-0.000849298
-0.000445949
0.00595469
-0.00103867
0.00692215
0.00306735
-0.000739002
0.00729162
0.0053989
-0.0142752
-0.000640643
-0.00390019
0.00445482
-0.00557968
0.011694
-0.00361567
0.00072336
-0.000349102
2.46442e-05
-0.00782418
0.00420635
0.00376938
0.00208763
-0.00200386
0.00539621
0.0223148
0.000143256
0.00195683
0.0709355
-0.0012209
-0.000530192
0.00703982
-0.000625901
-0.000955499
-0.000755756
-0.000774151
-9.17085e-05
-0.000451504
0.00162356
-0.000506775
-0.00105057
0.00409525
0.00557359
0.011655
0.00317487
0.00133439
0.00926881
0.0111595
-0.0019743
-0.00522042
0.00424665
0.00729332
-0.00285693
0.000810487
-0.000142336
-0.000628773
0.0184702
-0.00110777
0.00186273
0.00597957
0.00566073
-0.00389294
-0.00100282
0.0017736
0.00136302
0.0036233
-0.00907391
-0.00219707
-0.00126353
0.00176509
0.00286403
-0.00271573
-0.000209112
0.000980583
0.00306984
-0.000167277
4.1029e-05
0.00761606
0.0288452
-0.00603978
-0.00364293
-0.0042918
0.0181259
0.0104249
-0.00517611
-0.00141055
-0.00470257
0.0100414
-0.00523476
0.000335457
-0.0001032
0.0415669
-0.00223503
-3.60255e-05
0.00357717
-0.00131031
0.0353387
0.00247148
0.000610903
0.000333315
-0.0100089
0.0299531
0.00464636
-5.04086e-05
0.000849211
0.00508466
0.0311248
0.00403622
-0.00104396
-0.000955747
0.00132922
0.00159424
0.00169884
0.0123971
-0.000615885
-0.00191679
0.0011772
0.000901818
0.00330666
-0.00232579
-0.00262559
0.0353914
0.0467428
0.000434905
-0.000202879
0.00802442
-0.00369181
-0.00390947
-0.00446374
-0.000209505
0.000213648
-0.00454059
0.00652273
-0.000626212
-0.0011854
-0.00357601
-0.0044306
0.00178961
-0.00291749
-0.00378903
0.0230693
0.00903671
0.00053101
0.000266757
0.0159222
-0.00274537
-0.0176309
-0.00025695
-0.000183609
-0.00323469
-0.000149762
0.0399372
-0.00172317
-0.000725172
0.0203823
0.0033116
-0.00125007
0.0247672
-0.0111428
0.000376371
-0.0106504
0.000711705
