# vtk DataFile Version 2.0
Unstructured Grid by M++
ASCII
DATASET UNSTRUCTURED_GRID
POINTS 15808 float
  0.718750   0.625000 0
  0.718750   0.953125 0
  0.960938   0.882812 0
  0.734375   0.937500 0
  0.953125   0.882812 0
  0.726562   0.937500 0
  0.953125   0.875000 0
  0.507812   0.593750 0
  0.742188   0.531250 0
  0.945312   0.781250 0
  0.750000   0.726562 0
  0.960938   0.578125 0
  0.718750   0.640625 0
  0.726562   0.648438 0
  0.718750   0.648438 0
  0.789062   0.601562 0
  0.671875   0.914062 0
  0.765625   0.523438 0
  0.960938   0.804688 0
  0.734375   0.859375 0
  0.718750   0.867188 0
  0.726562   0.859375 0
  0.953125   0.796875 0
  0.515625   0.507812 0
  0.507812   0.515625 0
  0.945312   0.703125 0
  0.515625   0.531250 0
  0.515625   0.539062 0
  0.507812   0.546875 0
  0.945312   0.734375 0
  1.000000   0.671875 0
  0.765625   0.726562 0
  0.757812   0.734375 0
  0.750000   0.734375 0
  0.515625   0.796875 0
  0.515625   1.000000 0
  0.750000   0.937500 0
  0.523438   0.992188 0
  0.640625   0.679688 0
  0.523438   0.507812 0
  0.742188   0.632812 0
  0.867188   0.515625 0
  0.671875   0.851562 0
  0.789062   0.796875 0
  0.781250   0.796875 0
  0.789062   0.804688 0
  0.742188   0.671875 0
  0.507812   0.734375 0
  0.968750   0.617188 0
  0.734375   0.687500 0
  0.664062   0.648438 0
  0.578125   0.960938 0
  0.781250   0.531250 0
  0.773438   0.531250 0
  0.546875   0.789062 0
  0.750000   0.585938 0
  0.835938   0.562500 0
  0.812500   0.601562 0
  0.578125   0.867188 0
  0.804688   0.757812 0
  0.507812   0.992188 0
  0.742188   0.929688 0
  0.851562   0.976562 0
  0.851562   0.968750 0
  0.632812   0.617188 0
  0.789062   0.945312 0
  0.789062   0.937500 0
  0.781250   0.937500 0
  0.804688   0.531250 0
  0.640625   0.617188 0
  0.812500   0.929688 0
  0.804688   0.835938 0
  0.796875   0.835938 0
  0.773438   0.554688 0
  0.859375   0.867188 0
  0.835938   0.585938 0
  0.843750   0.593750 0
  0.812500   0.632812 0
  0.578125   0.898438 0
  0.570312   0.898438 0
  0.695312   0.585938 0
  0.984375   0.570312 0
  0.773438   0.507812 0
  0.789062   0.687500 0
  0.546875   0.960938 0
  0.867188   0.671875 0
  0.875000   0.664062 0
  0.875000   0.656250 0
  0.882812   0.585938 0
  0.796875   0.859375 0
  0.804688   0.867188 0
  0.867188   0.898438 0
  0.859375   0.898438 0
  0.625000   0.960938 0
  0.835938   0.617188 0
  0.812500   0.960938 0
  0.804688   0.585938 0
  0.804688   0.609375 0
  0.804688   0.617188 0
  0.921875   0.875000 0
  0.687500   0.929688 0
  0.914062   0.875000 0
  0.507812   0.765625 0
  0.742188   0.703125 0
  0.945312   0.953125 0
  0.835938   0.875000 0
  0.625000   0.523438 0
  0.867188   0.960938 0
  0.859375   0.960938 0
  0.835938   0.703125 0
  0.804688   0.640625 0
  0.804688   0.851562 0
  0.578125   0.906250 0
  0.953125   0.593750 0
  0.507812   0.796875 0
  0.945312   0.984375 0
  0.992188   0.718750 0
  0.828125   0.921875 0
  0.835938   0.906250 0
  0.601562   0.968750 0
  0.625000   0.554688 0
  0.585938   0.820312 0
  0.578125   0.820312 0
  0.820312   0.828125 0
  0.820312   0.835938 0
  0.835938   0.710938 0
  0.796875   0.757812 0
  0.554688   0.820312 0
  0.773438   0.664062 0
  0.546875   0.929688 0
  0.507812   0.695312 0
  0.820312   0.609375 0
  0.734375   1.000000 0
  0.976562   0.929688 0
  0.742188   0.984375 0
  0.507812   0.726562 0
  0.531250   0.601562 0
  0.945312   0.914062 0
  0.750000   0.539062 0
  0.515625   0.601562 0
  0.507812   0.804688 0
  0.789062   0.710938 0
  0.781250   0.710938 0
  0.781250   0.703125 0
  0.515625   0.703125 0
  0.523438   0.703125 0
  0.960938   0.890625 0
  0.867188   0.937500 0
  0.632812   1.000000 0
  0.984375   0.515625 0
  0.750000   0.570312 0
  0.515625   0.632812 0
  0.742188   0.578125 0
  0.851562   0.773438 0
  0.843750   0.765625 0
  0.789062   0.742188 0
  0.789062   0.734375 0
  0.781250   0.734375 0
  0.523438   0.734375 0
  0.750000   0.984375 0
  0.984375   0.906250 0
  0.507812   0.703125 0
  0.742188   0.640625 0
  0.945312   0.890625 0
  0.531250   0.578125 0
  0.859375   0.734375 0
  0.867188   0.734375 0
  0.859375   0.976562 0
  0.867188   0.968750 0
  0.507812   0.820312 0
  0.742188   0.757812 0
  0.507812   0.812500 0
  0.843750   0.796875 0
  0.851562   0.804688 0
  0.843750   0.804688 0
  0.585938   0.796875 0
  0.789062   0.773438 0
  0.804688   0.648438 0
  0.789062   0.765625 0
  0.781250   0.765625 0
  0.804688   0.593750 0
  0.804688   0.671875 0
  0.796875   0.671875 0
  0.804688   0.679688 0
  0.796875   0.687500 0
  0.671875   1.000000 0
  0.679688   1.000000 0
  0.921875   0.937500 0
  0.921875   0.929688 0
  0.570312   0.945312 0
  0.562500   0.945312 0
  0.742188   0.562500 0
  0.507812   0.625000 0
  0.976562   0.507812 0
  0.734375   0.781250 0
  0.507812   0.835938 0
  0.523438   0.710938 0
  0.734375   0.773438 0
  0.507812   0.828125 0
  0.820312   0.546875 0
  0.812500   0.546875 0
  0.820312   0.750000 0
  0.515625   0.726562 0
  0.882812   0.601562 0
  0.875000   0.601562 0
  0.828125   0.945312 0
  0.625000   0.585938 0
  0.820312   0.523438 0
  0.976562   0.539062 0
  0.507812   0.867188 0
  0.523438   0.742188 0
  0.734375   0.804688 0
  0.507812   0.859375 0
  0.843750   0.851562 0
  0.828125   0.562500 0
  0.820312   0.570312 0
  0.820312   0.578125 0
  0.828125   0.578125 0
  0.781250   0.828125 0
  0.781250   0.820312 0
  0.757812   0.539062 0
  0.515625   0.757812 0
  0.828125   0.976562 0
  0.625000   0.617188 0
  0.804688   0.726562 0
  0.796875   0.726562 0
  0.804688   0.718750 0
  0.796875   0.718750 0
  0.570312   0.585938 0
  0.781250   0.648438 0
  0.523438   0.765625 0
  0.984375   0.546875 0
  0.742188   0.609375 0
  0.742188   0.617188 0
  0.507812   0.679688 0
  0.734375   0.625000 0
  0.976562   0.617188 0
  0.765625   0.554688 0
  0.773438   0.593750 0
  0.976562   0.843750 0
  0.835938   0.992188 0
  0.835938   0.984375 0
  0.828125   0.984375 0
  0.507812   0.898438 0
  0.734375   0.835938 0
  0.851562   0.882812 0
  0.843750   0.882812 0
  0.820312   0.601562 0
  0.796875   0.734375 0
  0.796875   0.843750 0
  0.781250   0.843750 0
  0.789062   0.851562 0
  0.992188   0.914062 0
  0.781250   0.851562 0
  0.523438   0.843750 0
  0.750000   0.531250 0
  0.765625   0.515625 0
  0.757812   0.515625 0
  0.523438   0.578125 0
  0.515625   0.789062 0
  0.523438   0.781250 0
  0.757812   0.718750 0
  0.960938   0.968750 0
  0.859375   0.585938 0
  0.664062   0.609375 0
  0.804688   0.750000 0
  0.796875   0.750000 0
  0.859375   0.781250 0
  0.867188   0.789062 0
  0.859375   0.789062 0
  0.750000   0.640625 0
  0.734375   0.640625 0
  0.742188   0.648438 0
  0.507812   0.710938 0
  0.968750   0.585938 0
  0.734375   0.656250 0
  0.507812   0.906250 0
  0.742188   0.843750 0
  0.828125   0.617188 0
  0.828125   0.609375 0
  0.820312   0.625000 0
  0.812500   0.625000 0
  0.585938   0.890625 0
  0.585938   0.882812 0
  0.812500   0.828125 0
  0.757812   0.593750 0
  0.992188   0.523438 0
  0.750000   0.593750 0
  0.515625   0.656250 0
  0.828125   0.718750 0
  0.828125   0.710938 0
  0.820312   0.718750 0
  0.796875   0.867188 0
  1.000000   0.921875 0
  0.789062   0.578125 0
  0.992188   0.828125 0
  0.539062   0.695312 0
  0.531250   0.687500 0
  0.570312   0.750000 0
  0.750000   0.710938 0
  0.515625   0.773438 0
  0.742188   0.718750 0
  0.515625   0.976562 0
  0.625000   0.664062 0
  0.734375   0.867188 0
  0.851562   0.914062 0
  0.859375   0.906250 0
  0.625000   0.968750 0
  0.843750   0.914062 0
  0.609375   0.976562 0
  0.843750   0.906250 0
  0.523438   0.875000 0
  0.546875   0.757812 0
  0.750000   0.562500 0
  0.515625   0.625000 0
  0.765625   0.546875 0
  0.968750   0.609375 0
  0.757812   0.546875 0
  0.523438   0.609375 0
  0.523438   0.820312 0
  0.515625   0.820312 0
  0.960938   1.000000 0
  0.523438   0.812500 0
  0.515625   0.812500 0
  0.835938   0.531250 0
  0.882812   0.695312 0
  0.882812   0.687500 0
  0.859375   0.617188 0
  0.617188   0.687500 0
  0.875000   0.992188 0
  0.664062   0.632812 0
  0.898438   0.570312 0
  0.664062   0.640625 0
  0.804688   0.781250 0
  0.796875   0.781250 0
  0.804688   0.789062 0
  0.515625   0.828125 0
  0.750000   0.765625 0
  0.523438   0.835938 0
  0.757812   0.773438 0
  0.515625   0.835938 0
  0.515625   0.843750 0
  0.859375   0.812500 0
  0.867188   0.820312 0
  0.859375   0.820312 0
  0.507812   0.937500 0
  0.742188   0.875000 0
  0.828125   0.648438 0
  0.820312   0.656250 0
  0.812500   0.656250 0
  0.585938   0.914062 0
  0.710938   0.601562 0
  0.703125   0.601562 0
  1.000000   0.562500 0
  0.757812   0.625000 0
  0.523438   0.687500 0
  0.992188   0.554688 0
  0.750000   0.625000 0
  0.515625   0.687500 0
  0.523438   0.882812 0
  0.648438   0.570312 0
  0.640625   0.570312 0
  0.882812   0.500000 0
  0.789062   0.609375 0
  0.992188   0.859375 0
  0.507812   0.843750 0
  0.742188   0.781250 0
  0.531250   0.718750 0
  0.515625   0.851562 0
  0.750000   0.789062 0
  0.539062   0.726562 0
  0.539062   0.718750 0
  0.976562   0.906250 0
  0.742188   0.500000 0
  0.507812   0.562500 0
  0.570312   0.789062 0
  0.671875   0.945312 0
  0.960938   0.929688 0
  0.546875   0.617188 0
  0.851562   0.945312 0
  0.843750   0.937500 0
  0.609375   1.000000 0
  0.570312   0.554688 0
  0.523438   0.906250 0
  0.843750   0.773438 0
  0.828125   0.890625 0
  0.820312   0.890625 0
  0.617188   1.000000 0
  0.796875   0.523438 0
  0.914062   0.781250 0
  0.687500   0.835938 0
  0.750000   0.875000 0
  0.515625   0.937500 0
  0.781250   0.742188 0
  0.992188   0.804688 0
  0.765625   0.859375 0
  0.750000   0.867188 0
  0.968750   0.921875 0
  0.757812   0.859375 0
  0.523438   0.921875 0
  0.984375   0.796875 0
  0.976562   0.703125 0
  0.804688   0.539062 0
  0.914062   0.789062 0
  0.921875   0.789062 0
  0.687500   0.843750 0
  0.804688   0.820312 0
  0.820312   0.695312 0
  0.804688   0.812500 0
  0.796875   0.812500 0
  0.750000   0.703125 0
  0.515625   0.765625 0
[...]
CELL_DATA 30592
VECTORS vector_value float
0.00252745 -0.876337 0
0.0260304 -0.89984 0
0.00120823 -0.89984 0
0.0187712 -0.917403 0
0.0187712 -0.907099 0
0.0344469 -0.922775 0
0.0469434 -0.907099 0
0.000310618 -0.917403 0
0.0133992 -0.930492 0
-0.000229709 -0.930492 0
0.0133992 -0.922775 0
0.0469434 -0.903111 0
0.0634286 -0.919596 0
0.0634286 -0.925286 0
-0.301383 -0.718511 0
-0.370476 -0.718511 0
-0.429683 -0.659304 0
-0.340618 -0.234324 0
-0.184513 -0.234324 0
-0.418838 0 0
0.00554311 -1.4432 0
0.00554311 -1.40341 0
0.0151184 -1.41299 0
-0.0347451 -1.40341 0
-0.0832448 -1.25954 0
-0.0574094 -1.28538 0
-0.105003 -1.25954 0
0.419226 -0.476987 0
0.209074 -0.266834 0
0.509554 -0.266834 0
0.209074 -0.43351 0
-0.141339 -1.42473 0
-0.207249 -1.42473 0
-0.207249 -1.31919 0
-0.245057 -1.38692 0
0.0210144 -1.03061 0
0.0333263 -1.04293 0
0.0109361 -1.04293 0
0.0447047 -1.05472 0
0.055347 -1.06536 0
0.055347 -1.0667 0
0.153752 -1.06196 0
0.153752 -1.08714 0
0.141368 -1.07476 0
0.147572 -1.08714 0
0.147572 -1.10895 0
0.131969 -1.09334 0
0.141368 -1.09334 0
0.186828 -1.05495 0
0.178962 -1.05495 0
0.178962 -1.01627 0
0.152458 -1.01533 0
0.126088 -1.01533 0
0.152458 -1.04278 0
0.0375489 -1.11427 0
0.0375489 -1.08992 0
0.0273876 -1.10411 0
0.00748907 -1.13247 0
0.00748907 -1.12584 0
0.00340826 -1.12839 0
0.0223287 -1.4946 0
0.0482039 -1.57655 0
0.0700985 -1.51649 0
0.108261 -1.51649 0
0.108261 -1.68481 0
0 -1.57655 0
0 -1.68481 0
-0.0257955 -0.955184 0
0.0260304 -0.886186 0
-0.020622 -0.960357 0
-0.0176663 -0.960357 0
-0.020622 -0.947663 0
-0.0141048 -0.963919 0
-0.0141048 -0.95384 0
0.0344469 -0.919596 0
-0.00990374 -0.958041 0
-0.0144451 -0.95384 0
-0.0103114 -0.963919 0
-0.00822703 -0.966003 0
-0.00339051 -0.966003 0
-0.00822703 -0.958041 0
-0.0144451 -0.942442 0
-0.00758905 -0.949299 0
-0.00990374 -0.949299 0
-0.00758905 -0.939877 0
0.266823 -0.513467 0
0.188217 -0.625123 0
0.378479 -0.68815 0
0.43663 -0.746301 0
0.257301 -0.746301 0
0.257301 -0.694207 0
0.00794237 -0.203691 0
-0.164728 -0.203691 0
-0.164728 -0.415745 0
0.00749082 -0.37591 0
-0.252578 -0.415745 0
-0.124892 -0.543431 0
-0.176275 -0.543431 0
-0.124892 -0.37591 0
-0.252578 -0.619734 0
-0.24481 -0.619734 0
-0.24481 -0.770381 0
-0.176275 -0.688268 0
0.00670584 -0.507508 0
-0.0889694 -0.507508 0
-0.0889694 -0.630737 0
0.00749303 -1.20322 0
0.00749303 -1.20138 0
0.00481762 -1.19871 0
0.0016958 -1.20138 0
0 -1.19059 0
0.00504605 -1.19059 0
0.00504605 -1.1866 0
0 -1.18555 0
0.111538 -1.08453 0
0.111538 -1.08895 0
0.103166 -1.08058 0
0.121096 -1.08453 0
0.11549 -1.07892 0
0.121295 -1.07892 0
-0.0359532 -1.10189 0
-0.0302031 -1.10189 0
-0.0302031 -1.10485 0
-0.0316627 -1.10043 0
-0.0245527 -1.10804 0
-0.01908 -1.10804 0
-0.01908 -1.11127 0
-0.0271318 -1.09908 0
-0.0212304 -1.09908 0
-0.0212304 -1.10253 0
-0.0224146 -1.09789 0
-0.00588207 -1.10966 0
-0.00195586 -1.10923 0
-0.00631435 -1.10543 0
-0.0156842 -1.10253 0
-0.0112114 -1.10163 0
-0.0165906 -1.09789 0
-0.134819 0 0
-0.134819 -0.269227 0
-0.404046 0 0
-0.31363 -0.269227 0
-0.404046 -0.359644 0
-0.533431 -0.359644 0
-0.533431 -0.762561 0
-0.31363 -0.579446 0
-0.350316 -0.83872 0
-0.426475 -0.762561 0
-0.275186 -0.83872 0
-0.0947995 -1.15724 0
-0.100115 -1.15724 0
-0.100115 -1.14374 0
0.0037112 -0.830415 0
-0.0788371 -0.747867 0
-0.0393722 -0.830415 0
-0.0507243 -0.981959 0
-0.0764182 -0.956266 0
-0.0466802 -0.981959 0
1.31051 -0.539864 0
0.553162 -0.539864 0
0.553162 -0.513467 0
0.701449 -0.68815 0
0.0342086 -0.880522 0
0.0342086 -0.93935 0
-0.0128822 -0.892259 0
0.0913378 -0.880522 0
0.0224714 -0.811655 0
0.0949527 -0.811655 0
-0.0427307 -1.02439 0
-0.031599 -1.03552 0
-0.0466453 -1.03552 0
-0.031599 -1.02967 0
0.0807982 -0.973127 0
0.0406146 -0.932944 0
0.0406146 -0.975605 0
-0.0297937 -1.03965 0
-0.0315358 -1.03791 0
-0.0211754 -1.03791 0
-0.0315358 -1.03018 0
-0.0223182 -1.03677 0
-0.0223182 -1.02869 0
-0.0232571 -1.02775 0
-0.0126588 -1.03677 0
-0.0133046 -1.03612 0
-0.00421149 -1.03612 0
-0.0133046 -1.02775 0
-0.0330189 -1.01998 0
-0.0340627 -1.01893 0
-0.0232571 -1.01893 0
-0.117282 -1.09864 0
-0.116456 -1.09947 0
-0.125662 -1.09947 0
-0.116456 -1.10612 0
-0.134657 -1.10104 0
-0.131899 -1.1038 0
-0.131899 -1.10885 0
-0.0655639 -0.87208 0
-0.370476 -0.500852 0
-0.112805 -0.87208 0
-0.112805 -0.877915 0
-0.0843362 -0.900549 0
-0.161485 -0.868786 0
-0.184513 0 0
-0.221039 -0.868786 0
-0.196661 -0.893164 0
-0.085954 -1.10456 0
-0.0942679 -1.0978 0
-0.0936949 -1.10514 0
0.0272693 -1.3657 0
0.0272693 -1.30137 0
0.0393695 -1.31347 0
-0.102 -1.09076 0
-0.109469 -1.09076 0
-0.109432 -1.0908 0
-0.139836 -1.11174 0
-0.139836 -1.10825 0
-0.135424 -1.11615 0
0.18436 -0.720836 0
0.18436 -0.638167 0
0.300708 -0.754515 0
0.382186 -0.638167 0
-0.113974 -1.02311 0
-0.113974 -1.02701 0
-0.115111 -1.02587 0
-0.114818 -1.02701 0
-0.0215375 -0.89033 0
-0.0215375 -0.809533 0
0.0503136 -0.881385 0
-0.118409 -1.02898 0
-0.118409 -1.02972 0
-0.121064 -1.02706 0
-0.12515 -1.02972 0
0.00590751 -0.530849 0
0.154138 -0.530849 0
0.0137145 -0.390426 0
0.390034 -0.333349 0
0.81182 -0.333349 0
0.81182 0 0
-0.0277029 -1.11353 0
-0.0277029 -1.11042 0
-0.0289092 -1.10921 0
-0.0331781 -1.11042 0
-0.0222062 -1.11353 0
-0.0179997 -1.11235 0
-0.0233854 -1.10921 0
-0.0331781 -1.10743 0
-0.0344611 -1.10615 0
-0.0289092 -1.10615 0
0.150467 -1.04002 0
0.150467 -1.0112 0
0.150792 -1.01153 0
0.166549 -1.04002 0
0.178956 -1.05242 0
0.187829 -1.05242 0
0.0144562 -1.48673 0
0.0144562 -1.52835 0
0 -1.52835 0
-0.051159 -1.20476 0
-0.051159 -1.18369 0
-0.0532219 -1.2027 0
-0.212842 -1.23791 0
-0.189951 -1.23791 0
-0.189951 -1.19144 0
-0.23199 -1.19587 0
-0.0293242 -1.32833 0
-0.0680718 -1.32833 0
-0.0680718 -1.28295 0
-0.0746434 -1.32176 0
0.103631 -1.1748 0
0.125357 -1.19652 0
0.141769 -1.1748 0
0.17367 -1.19121 0
0.17367 -1.16494 0
0.141769 -1.15931 0
0.179305 -1.12596 0
0.218287 -1.16494 0
0.205457 -1.12596 0
-0.0459118 -1.51398 0
-0.0459118 -1.5266 0
0 -1.57251 0
0 -1.5266 0
0.336768 -1.15116 0
0.270011 -1.0844 0
0.280497 -1.0844 0
0.270011 -1.16485 0
0.336768 -1.02813 0
0.314307 -1.02813 0
0.314307 -0.921422 0
0.218287 -1.11313 0
0.241285 -1.11313 0
0.241285 -1.04519 0
0.205457 -1.0773 0
0.196836 -1.26317 0
0.282568 -1.26317 0
0.282568 -1.17536 0
0.213087 -1.19369 0
0.312562 -1.04173 0
0.312562 -0.923603 0
0.273975 -1.00315 0
0.208216 -1.13766 0
0.230255 -1.13766 0
0.190196 -1.09761 0
0.262939 -1.25094 0
0.376439 -1.36444 0
0.383487 -1.25094 0
0.229627 -0.982543 0
0.187726 -0.942148 0
0.187429 -0.982246 0
-0.101176 -1.10557 0
-0.10898 -1.10557 0
-0.10898 -1.09864 0
-0.108425 -1.10612 0
-0.191729 -0.969195 0
-0.191729 -1.02394 0
-0.174655 -0.986269 0
0.0228989 -1.074 0
0.0227752 -1.07308 0
0.024419 -1.0732 0
0.0214654 -1.07353 0
0.0214654 -1.07714 0
0.022105 -1.07714 0
0.125065 -1.06542 0
0.126834 -1.06719 0
0.133062 -1.06719 0
-0.016498 -1.163 0
-0.028792 -1.15842 0
-0.024947 -1.16684 0
-0.039287 -1.15842 0
-0.0473202 -1.16049 0
-0.0372176 -1.16684 0
-0.039287 -1.15245 0
-0.0480491 -1.14573 0
-0.0473202 -1.15318 0
-0.0345094 -1.16955 0
-0.0462819 -1.16955 0
-0.0462819 -1.16153 0
0.130995 -1.108 0
0.130995 -1.09289 0
0.140755 -1.09289 0
0.16612 -1.1055 0
0.187829 -1.09541 0
0.166549 -1.0737 0
0.139827 -1.07395 0
0.139827 -1.05419 0
0.146098 -1.06047 0
0.12755 -1.05419 0
0.129969 -1.12492 0
0.105916 -1.12492 0
0.129969 -1.10903 0
0.0952814 -1.14417 0
0.178956 -1.01153 0
0.115414 -1.16431 0
0.0808098 -1.16431 0
0.115414 -1.15392 0
0 -1.12072 0
0.00589113 -1.12072 0
0.00589113 -1.11422 0
0 -1.11483 0
0.00527594 -1.10893 0
0.00930035 -1.10893 0
0.00527594 -1.11483 0
0 -1.10956 0
0.00464922 -1.10428 0
0 -1.10491 0
0.00490161 -0.591885 0
0.165597 -0.591885 0
0.165597 -0.476987 0
0.00722209 -0.43351 0
0.866716 -0.357162 0
0.866716 0 0
0.509554 0 0
0.149834 -1.12984 0
0.175428 -1.12984 0
0.175428 -1.09593 0
0.151054 -1.10546 0
0.131382 -1.12444 0
0.131382 -1.10895 0
0.115297 -1.10836 0
-0.127643 -1.22253 0
-0.144407 -1.24105 0
-0.11613 -1.25782 0
-0.166421 -1.26408 0
-0.166421 -1.32294 0
-0.195086 -1.29428 0
-0.144658 -1.32294 0
-0.0975685 -1.18257 0
-0.0917312 -1.1884 0
-0.0844667 -1.1884 0
0.11869 -1.09508 0
0.130234 -1.09508 0
0.130234 -1.08221 0
0.120389 -1.08523 0
0.133916 -1.06771 0
0.128569 -1.06771 0
0.128569 -1.0537 0
0.121096 -1.07912 0
0.123588 -1.07912 0
0.123588 -1.07296 0
0.121295 -1.07683 0
0.064054 -1.12727 0
0.0525602 -1.13215 0
0.0549005 -1.14365 0
0.0406191 -1.12033 0
0.0406191 -1.12275 0
0.0520492 -1.13418 0
-0.0193664 -1.16 0
-0.0193664 -1.1488 0
-0.0147603 -1.1646 0
-0.000407525 -1.22766 0
-0.000407525 -1.25094 0
0.00476285 -1.25611 0
-0.0880967 -1.4471 0
-0.097329 -1.43787 0
-0.0386577 -1.43787 0
-0.097329 -1.38657 0
-0.123309 -1.03661 0
-0.123309 -1.04021 0
-0.129435 -1.03408 0
-0.133484 -1.04021 0
-0.0446777 -1.11756 0
-0.0446777 -1.11388 0
-0.0451465 -1.11341 0
-0.0385099 -1.10482 0
-0.0385099 -1.10743 0
-0.0399444 -1.10338 0
0.266823 -0.546516 0
0.100516 -0.603324 0
0.188217 -0.634216 0
-0.0554732 -1.10254 0
-0.0554732 -1.10523 0
-0.0573555 -1.10523 0
-0.0529231 -1.10584 0
-0.0542541 -1.10775 0
-0.0494415 -1.10908 0
-0.364057 -0.821388 0
-0.435524 -0.821388 0
-0.435524 -0.568496 0
0.0780764 -1.31969 0
0.0548258 -1.29644 0
0.289923 -0.778924 0
0.12239 -1.29644 0
0.0548258 -1.28457 0
0.273426 -1.1353 0
0.254051 -1.1353 0
0.254051 -1.23862 0
0.21885 -1.08072 0
0.166923 -1.11857 0
0.185936 -1.1705 0
0.274162 -1.2185 0
0.274162 -1.32006 0
0.192723 -1.23862 0
0.178982 -1.32006 0
0.194373 -0.874475 0
0.125057 -0.870029 0
0.189927 -0.955939 0
0.121871 -1.30631 0
0.192723 -1.30631 0
0.121871 -1.34198 0
0.131813 -1.2454 0
0.0826139 -1.24717 0
0.0762599 -1.29637 0
-0.0245527 -1.10485 0
-0.0257795 -1.10363 0
-0.0201368 -1.10363 0
-0.0257795 -1.10043 0
0.185936 -1.2454 0
0.130045 -1.18951 0
0.166923 -1.18951 0
0.130045 -1.24717 0
-0.124772 -0.384555 0
-0.124772 -0.549718 0
-0.257128 -0.417362 0
-0.0708508 -1.2995 0
-0.0914934 -1.27886 0
-0.100951 -1.27886 0
-0.0914934 -1.33969 0
-0.113806 -1.31738 0
-0.130015 -1.31738 0
-0.165676 -1.28172 0
-0.0098732 -1.07811 0
-0.0507243 -0.918749 0
-0.0174433 -1.07811 0
-0.0174433 -1.06782 0
-0.0170144 -1.07854 0
-0.0267917 -1.05096 0
0.0037112 -0.720414 0
-0.0371653 -1.05096 0
-0.0371653 -1.02401 0
-0.0422886 -1.04583 0
-0.0262202 -1.08048 0
-0.0421858 -1.08048 0
-0.0421858 -1.06656 0
-0.0379716 -1.08469 0
0.459717 -0.99472 0
0.459717 -1.08792 0
0.489689 -1.08792 0
0.421006 -1.11681 0
0.408895 -1.13967 0
0.400662 -1.15178 0
0.432978 -1.19031 0
0.432978 -1.24126 0
0.336848 -1.24126 0
0.809513 -1.03148 0
0.612103 -1.15602 0
1.45256 -1.22889 0
-0.088277 -1.03546 0
-0.088277 -1.0422 0
-0.0940792 -1.0422 0
0.0966525 -1.09428 0
0.0966525 -1.10061 0
0.119902 -1.12386 0
-0.0992707 -1.04846 0
-0.0992707 -1.05495 0
-0.105147 -1.04907 0
-0.103987 -1.05495 0
0.0528213 -1.15552 0
0.0366896 -1.14046 0
0.0329687 -1.1518 0
0.031568 -1.13019 0
0.0356251 -1.12366 0
0.0275054 -1.12207 0
0.0162149 -1.14265 0
0.0169579 -1.14265 0
0.0169579 -1.12371 0
0.00372802 -1.20731 0
0.00264705 -1.20623 0
0.00264705 -1.20233 0
-0.187386 -0.815659 0
-0.143103 -0.859942 0
-0.18292 -0.815659 0
-0.144361 -1.14498 0
-0.107438 -1.09127 0
-0.160727 -1.09169 0
-0.0282107 -1.15079 0
-0.00576156 -1.13764 0
-0.0098042 -1.11519 0
-0.0353587 -1.09025 0
-0.0353587 -1.06344 0
-0.00308915 -1.06344 0
-0.0897457 -1.07777 0
-0.0897457 -1.07304 0
-0.0895407 -1.07324 0
-0.093513 -1.07304 0
0.0016958 -1.19913 0
0.000827636 -1.19826 0
0.00481762 -1.19826 0
-0.0188943 -1.02607 0
-0.0188943 -1.01082 0
0.00712948 -1.03685 0
0.0215035 -1.01082 0
0.0151664 -0.966534 0
0.0151664 -0.960665 0
0.0400122 -0.985511 0
0.0630945 -0.960665 0
-0.146772 -0.967903 0
-0.147639 -0.967903 0
-0.147639 -0.905047 0
-0.133663 -0.817927 0
-0.0890541 -0.817927 0
-0.0890541 -0.70963 0
-0.00769421 -1.09565 0
-0.00769421 -1.10831 0
0.00300362 -1.11901 0
0.03319 -1.10831 0
0.112939 -1.0305 0
0.098849 -1.0305 0
0.098849 -0.972507 0
0.0665796 -0.972507 0
0.0218023 -0.964314 0
0.0583873 -1.01297 0
0.04883 -1.00341 0
0.0192907 -1.00341 0
-0.0867668 -0.998588 0
-0.0838208 -1.00927 0
-0.111757 -1.03796 0
-0.111757 -1.04346 0
-0.11744 -1.03777 0
-0.118421 -1.04346 0
-0.127084 -1.04963 0
-0.127084 -1.05775 0
-0.136716 -1.04812 0
-0.138391 -1.05775 0
-0.0201368 -1.10698 0
-0.0440015 -1.09417 0
-0.0504229 -1.09417 0
-0.0504229 -1.09437 0
-0.0474947 -1.09709 0
-0.0468487 -1.09132 0
-0.0468487 -1.09059 0
-0.0503911 -1.08705 0
-0.0531494 -1.09822 0
-0.0570041 -1.09437 0
-0.0585942 -1.09822 0
-0.0375609 -1.22286 0
-0.0134772 -1.22286 0
-0.0375609 -1.2091 0
0.00496206 -1.21559 0
0.0206183 -1.20518 0
-0.00545225 -1.2003 0
0.0860827 -1.07798 0
0.0860827 -1.07876 0
0.103403 -1.07876 0
0.095502 -1.08666 0
0.111117 -1.08666 0
0.111117 -1.08347 0
0.115639 -1.07894 0
0.115639 -1.07832 0
0.121211 -1.07832 0
-0.111781 -1.17944 0
-0.113293 -1.17944 0
-0.113293 -1.16012 0
-0.124278 -1.16845 0
-0.0503911 -1.08678 0
-0.0589768 -1.08678 0
-0.0589768 -1.08847 0
-0.0541987 -1.09156 0
-0.062074 -1.09498 0
-0.0705997 -1.09498 0
-0.062074 -1.09156 0
-0.0685868 -1.09297 0
-0.0795624 -1.09297 0
-0.0795624 -1.10161 0
0.0944119 -1.03452 0
0.0944119 -1.04222 0
0.114727 -1.04222 0
-0.0398009 -1.11756 0
-0.0405255 -1.11684 0
-0.0353195 -1.11684 0
0.0638677 -0.881374 0
0.115914 -0.881374 0
0.0870436 -0.852504 0
0.21885 -1.1705 0
0.0856041 -0.903111 0
0.0856041 -0.911684 0
0.0992061 -0.925286 0
0.132965 -0.911684 0
0.158043 -0.852504 0
0.158043 -0.87328 0
0.179397 -0.894633 0
0.178982 -1.36343 0
0.244977 -0.87328 0
-0.127643 -1.25782 0
-0.122259 -1.14793 0
-0.122259 -1.15924 0
-0.130162 -1.15133 0
-0.125378 -1.15924 0
-0.128564 -1.19507 0
-0.141857 -1.18178 0
-0.13028 -1.19507 0
-0.0731162 -1.06763 0
-0.0798881 -1.06763 0
-0.0731162 -1.06748 0
-0.0420135 -1.11522 0
-0.0430853 -1.12397 0
-0.0291421 -1.12504 0
-0.0468815 -1.13519 0
-0.0468815 -1.15637 0
-0.0541817 -1.14907 0
-0.0329329 -1.15637 0
-0.509218 -0.940382 0
-0.350393 -0.940382 0
-0.350393 -1.0003 0
-0.363933 -0.926842 0
0 -1.13611 0
-0.018824 -1.15044 0
0 -1.15493 0
-0.0466514 -1.16427 0
-0.0855809 -1.17885 0
-0.0561645 -1.19368 0
0 -1.17824 0
-0.0277765 -1.17824 0
-0.0277765 -1.20217 0
0 -1.20602 0
-0.0907188 -1.00393 0
-0.0685046 -1.02615 0
-0.07826 -1.02615 0
-0.0595282 -1.04488 0
-0.0595282 -1.01717 0
-0.0369808 -1.03972 0
-0.0408062 -1.01717 0
-0.0466514 -1.15044 0
-0.023313 -1.17378 0
-0.0561645 -1.17378 0
-0.023313 -1.15493 0
-0.0699608 -1.04488 0
-0.0543675 -1.06047 0
-0.064584 -1.06047 0
-0.0543675 -1.03972 0
-0.0408062 -0.981297 0
-0.00875796 -1.01335 0
-0.00875796 -0.981267 0
-0.123723 -0.990952 0
-0.0926673 -0.975044 0
-0.108697 -0.943988 0
-0.204117 -1.08228 0
-0.232898 -1.0535 0
-0.185198 -1.0535 0
-0.203714 -1.02431 0
-0.218045 -1.00998 0
-0.259501 -1.02431 0
-0.167499 -1.03498 0
-0.178713 -1.02377 0
-0.152111 -1.02377 0
-0.178713 -1.00998 0
-0.259501 -1.0003 0
-0.276939 -0.982858 0
-0.276939 -0.926842 0
-0.140044 -1.17885 0
-0.100416 -1.21848 0
-0.1601 -1.21848 0
-0.100416 -1.19368 0
-0.168986 -1.26719 0
-0.114651 -1.32152 0
-0.158463 -1.32152 0
-0.114651 -1.27045 0
-0.0316287 -1.23519 0
-0.0703886 -1.23519 0
-0.0316287 -1.20602 0
0.0320001 -1.13357 0
0.0321909 -1.14427 0
0.0348437 -1.13622 0
0.0424972 -1.15369 0
0.0614265 -1.15369 0
0.0541698 -1.14644 0
0.0382176 -1.13419 0
0.0480705 -1.13419 0
0.0480705 -1.13592 0
0.0421883 -1.12831 0
-0.0766733 -1.08178 0
-0.084075 -1.08178 0
-0.0766733 -1.08541 0
-0.0743146 -1.09218 0
-0.0810956 -1.09455 0
-0.0719417 -1.09981 0
-0.0565938 -1.08895 0
-0.0675478 -1.08895 0
-0.0565938 -1.09254 0
-0.1396 -1.06418 0
-0.153972 -1.0498 0
-0.133071 -1.0498 0
-0.153972 -1.05268 0
-0.1396 -1.05633 0
-0.122146 -1.05633 0
-0.122146 -1.04831 0
-0.133071 -1.04541 0
-0.167499 -1.03916 0
-0.143324 -1.03916 0
-0.143324 -1.03955 0
-0.152111 -1.03037 0
0.677046 -1.03562 0
0.524551 -1.15545 0
0.498491 -1.30794 0
-0.0552565 -1.34307 0
-0.0266735 -1.37166 0
-0.0402527 -1.37166 0
-0.0266735 -1.33791 0
-0.0861278 -1.06565 0
-0.0845633 -1.06721 0
-0.0868654 -1.06721 0
-0.0845633 -1.06754 0
0.0326313 -0.964762 0
0.0326313 -0.973907 0
0.0328951 -0.974171 0
0.0328951 -0.985483 0
0.0415844 -0.985483 0
0.0444712 -0.98837 0
0.0309515 -0.996116 0
0.0270869 -0.992251 0
0.0361858 -0.996116 0
0.0547289 -0.98837 0
0.0547289 -1.00897 0
0.0472684 -1.00151 0
0.0607713 -1.00897 0
-0.244718 -1.13746 0
-0.213801 -1.16838 0
-0.258386 -1.16838 0
-0.213801 -1.14844 0
-0.0604203 -1.24948 0
-0.0564241 -1.24948 0
-0.0564241 -1.28304 0
-0.0450054 -1.2609 0
-0.0342827 -1.29124 0
-0.0133196 -1.29124 0
-0.0424785 -1.3204 0
-0.0161649 -1.3204 0
-0.0161649 -1.35885 0
-0.0133196 -1.32324 0
-0.0274418 -1.26774 0
-0.0107862 -1.26774 0
-0.0107862 -1.29377 0
-0.00865923 -1.26987 0
-0.195086 -1.37337 0
-0.157859 -1.37337 0
-0.157859 -1.4471 0
0.0573954 -0.949793 0
0.0573954 -0.954211 0
0.0322665 -0.929082 0
-0.00988875 -0.965486 0
-0.00988875 -0.979583 0
-0.0302971 -0.959175 0
0.50435 0 0
0.4113 -0.349657 0
0.854008 0 0
0.495953 -1.02874 0
0.341703 -0.962919 0
0.430128 -1.16434 0
0.419226 -0.357162 0
-0.133663 -0.905047 0
-0.183204 -0.855506 0
-0.171241 -0.855506 0
-0.183204 -0.940612 0
-0.228095 -0.830644 0
-0.178026 -0.856796 0
-0.180405 -0.828265 0
-0.133692 -0.857894 0
-0.0906744 -0.843987 0
-0.116791 -0.831777 0
0.00416765 -1.1173 0
0.00416765 -1.1076 0
0.00280713 -1.11594 0
-0.0138974 -1.12658 0
-0.0138974 -1.12466 0
-0.0194908 -1.12466 0
0.321575 -0.942791 0
0.321575 -1.07147 0
0.337256 -1.07147 0
-0.0168289 -1.11932 0
-0.0179997 -1.11538 0
-0.0222062 -1.11655 0
-0.0252219 -1.12211 0
-0.0252219 -1.1191 0
-0.0308794 -1.1191 0
-0.058767 -1.10194 0
-0.0541817 -1.17762 0
-0.0401149 -1.17762 0
-0.0401149 -1.21492 0
-0.0329329 -1.1848 0
-0.0154893 -1.21492 0
-0.00999047 -1.22042 0
0.0240123 -1.22042 0
0.0214654 -1.25992 0
0.0240123 -1.26247 0
-0.0229933 -1.48731 0
-0.0229933 -1.49918 0
-0.0386577 -1.47164 0
0.0151184 -1.35355 0
-0.0249091 -1.35355 0
-0.0249091 -1.28538 0
-0.0347451 -1.34371 0
-0.102 -1.0978 0
-0.101606 -1.09819 0
-0.109432 -1.09819 0
-0.101606 -1.10514 0
-0.121679 -1.13156 0
-0.121679 -1.13587 0
-0.119948 -1.1333 0
-0.112894 -1.12671 0
-0.109393 -1.12671 0
-0.109393 -1.13448 0
-0.107086 -1.12902 0
-0.197833 -1.11283 0
-0.165775 -1.11283 0
-0.165775 -1.11467 0
-0.177509 -1.1011 0
-0.017559 -1.09692 0
-0.0118887 -1.09692 0
-0.0118887 -1.10095 0
-0.145385 -1.11467 0
-0.13589 -1.10786 0
-0.1522 -1.1011 0
-0.15839 -1.09491 0
-0.139249 -1.09491 0
-0.139249 -1.1045 0
0.153401 -0.988019 0
0.117097 -0.988019 0
0.117097 -0.973238 0
-0.0818462 -0.913443 0
-0.0818462 -0.86987 0
-0.0573537 -0.894363 0
-0.0759907 -0.86987 0
-0.0277533 -0.880833 0
-0.0277533 -0.842456 0
0.00432784 -0.874537 0
0.00665755 -0.842456 0
0.0212462 -0.959607 0
0.0116627 -0.959607 0
0.0116627 -0.957034 0
0.0141143 -0.962059 0
0.00467472 -0.955835 0
0.000733881 -0.955835 0
0.000733881 -0.955146 0
0.00151255 -0.956614 0
0.0080602 -0.963481 0
0.00215414 -0.963481 0
0.00215414 -0.959639 0
0.0304417 -1.17932 0
0.0304417 -1.17067 0
0.0416761 -1.19056 0
0.00323718 -1.17067 0
0.0105586 -1.178 0
-0.0147603 -1.178 0
0.0186746 -1.19867 0
-0.0101192 -1.19867 0
-0.00536012 -1.20343 0
-0.161934 -1.0568 0
-0.141231 -1.0568 0
-0.141231 -1.07819 0
-0.136955 -1.06108 0
-0.0770272 -0.913443 0
-0.0598155 -0.927704 0
-0.0627659 -0.894363 0
-0.0483655 -0.939154 0
-0.0483655 -0.913304 0
-0.0438245 -0.913304 0
-0.0371591 -0.948203 0
-0.0351231 -0.948203 0
-0.0371591 -0.927948 0
-0.0438245 -0.880833 0
-0.0214567 -0.903201 0
-0.0337217 -0.903201 0
-0.0214567 -0.874537 0
0.0346753 -1.25659 0
0.0181593 -1.24007 0
0.0590207 -1.24007 0
0.0181593 -1.23403 0
-0.145856 -1.0142 0
-0.219422 -1.0142 0
-0.159997 -1.07363 0
-0.335655 -1.16944 0
-0.569239 -1.16944 0
-0.329339 -1.40934 0
-0.0337256 -1.24311 0
-0.00439899 -1.24311 0
-0.00439899 -1.25659 0
0.661522 -1.24286 0
0.779838 -1.24286 0
0.661522 -1.61165 0
0.565726 -1.02874 0
0.391418 -1.16434 0
0.388527 -1.33865 0
-0.015491 -1.12066 0
-0.0209369 -1.12066 0
-0.0209369 -1.11782 0
-0.0308794 -1.11586 0
-0.0320143 -1.11473 0
-0.0265026 -1.11473 0
-0.0320143 -1.11158 0
0.388527 -1.46583 0