# vtk DataFile Version 2.0
Unstructured Grid by M++
ASCII
DATASET UNSTRUCTURED_GRID
POINTS 15808 float
  0.718750   0.625000 0
  0.718750   0.953125 0
  0.960938   0.882812 0
  0.734375   0.937500 0
  0.953125   0.882812 0
  0.726562   0.937500 0
  0.953125   0.875000 0
  0.507812   0.593750 0
  0.742188   0.531250 0
  0.945312   0.781250 0
  0.750000   0.726562 0
  0.960938   0.578125 0
  0.718750   0.640625 0
  0.726562   0.648438 0
  0.718750   0.648438 0
  0.789062   0.601562 0
  0.671875   0.914062 0
  0.765625   0.523438 0
  0.960938   0.804688 0
  0.734375   0.859375 0
  0.718750   0.867188 0
  0.726562   0.859375 0
  0.953125   0.796875 0
  0.515625   0.507812 0
  0.507812   0.515625 0
  0.945312   0.703125 0
  0.515625   0.531250 0
  0.515625   0.539062 0
  0.507812   0.546875 0
  0.945312   0.734375 0
  1.000000   0.671875 0
  0.765625   0.726562 0
  0.757812   0.734375 0
  0.750000   0.734375 0
  0.515625   0.796875 0
  0.515625   1.000000 0
  0.750000   0.937500 0
  0.523438   0.992188 0
  0.640625   0.679688 0
  0.523438   0.507812 0
  0.742188   0.632812 0
  0.867188   0.515625 0
  0.671875   0.851562 0
  0.789062   0.796875 0
  0.781250   0.796875 0
  0.789062   0.804688 0
  0.742188   0.671875 0
  0.507812   0.734375 0
  0.968750   0.617188 0
  0.734375   0.687500 0
  0.664062   0.648438 0
  0.578125   0.960938 0
  0.781250   0.531250 0
  0.773438   0.531250 0
  0.546875   0.789062 0
  0.750000   0.585938 0
  0.835938   0.562500 0
  0.812500   0.601562 0
  0.578125   0.867188 0
  0.804688   0.757812 0
  0.507812   0.992188 0
  0.742188   0.929688 0
  0.851562   0.976562 0
  0.851562   0.968750 0
  0.632812   0.617188 0
  0.789062   0.945312 0
  0.789062   0.937500 0
  0.781250   0.937500 0
  0.804688   0.531250 0
  0.640625   0.617188 0
  0.812500   0.929688 0
  0.804688   0.835938 0
  0.796875   0.835938 0
  0.773438   0.554688 0
  0.859375   0.867188 0
  0.835938   0.585938 0
  0.843750   0.593750 0
  0.812500   0.632812 0
  0.578125   0.898438 0
  0.570312   0.898438 0
  0.695312   0.585938 0
  0.984375   0.570312 0
  0.773438   0.507812 0
  0.789062   0.687500 0
  0.546875   0.960938 0
  0.867188   0.671875 0
  0.875000   0.664062 0
  0.875000   0.656250 0
  0.882812   0.585938 0
  0.796875   0.859375 0
  0.804688   0.867188 0
  0.867188   0.898438 0
  0.859375   0.898438 0
  0.625000   0.960938 0
  0.835938   0.617188 0
  0.812500   0.960938 0
  0.804688   0.585938 0
  0.804688   0.609375 0
  0.804688   0.617188 0
  0.921875   0.875000 0
  0.687500   0.929688 0
  0.914062   0.875000 0
  0.507812   0.765625 0
  0.742188   0.703125 0
  0.945312   0.953125 0
  0.835938   0.875000 0
  0.625000   0.523438 0
  0.867188   0.960938 0
  0.859375   0.960938 0
  0.835938   0.703125 0
  0.804688   0.640625 0
  0.804688   0.851562 0
  0.578125   0.906250 0
  0.953125   0.593750 0
  0.507812   0.796875 0
  0.945312   0.984375 0
  0.992188   0.718750 0
  0.828125   0.921875 0
  0.835938   0.906250 0
  0.601562   0.968750 0
  0.625000   0.554688 0
  0.585938   0.820312 0
  0.578125   0.820312 0
  0.820312   0.828125 0
  0.820312   0.835938 0
  0.835938   0.710938 0
  0.796875   0.757812 0
  0.554688   0.820312 0
  0.773438   0.664062 0
  0.546875   0.929688 0
  0.507812   0.695312 0
  0.820312   0.609375 0
  0.734375   1.000000 0
  0.976562   0.929688 0
  0.742188   0.984375 0
  0.507812   0.726562 0
  0.531250   0.601562 0
  0.945312   0.914062 0
  0.750000   0.539062 0
  0.515625   0.601562 0
  0.507812   0.804688 0
  0.789062   0.710938 0
  0.781250   0.710938 0
  0.781250   0.703125 0
  0.515625   0.703125 0
  0.523438   0.703125 0
  0.960938   0.890625 0
  0.867188   0.937500 0
  0.632812   1.000000 0
  0.984375   0.515625 0
  0.750000   0.570312 0
  0.515625   0.632812 0
  0.742188   0.578125 0
  0.851562   0.773438 0
  0.843750   0.765625 0
  0.789062   0.742188 0
  0.789062   0.734375 0
  0.781250   0.734375 0
  0.523438   0.734375 0
  0.750000   0.984375 0
  0.984375   0.906250 0
  0.507812   0.703125 0
  0.742188   0.640625 0
  0.945312   0.890625 0
  0.531250   0.578125 0
  0.859375   0.734375 0
  0.867188   0.734375 0
  0.859375   0.976562 0
  0.867188   0.968750 0
  0.507812   0.820312 0
  0.742188   0.757812 0
  0.507812   0.812500 0
  0.843750   0.796875 0
  0.851562   0.804688 0
  0.843750   0.804688 0
  0.585938   0.796875 0
  0.789062   0.773438 0
  0.804688   0.648438 0
  0.789062   0.765625 0
  0.781250   0.765625 0
  0.804688   0.593750 0
  0.804688   0.671875 0
  0.796875   0.671875 0
  0.804688   0.679688 0
  0.796875   0.687500 0
  0.671875   1.000000 0
  0.679688   1.000000 0
  0.921875   0.937500 0
  0.921875   0.929688 0
  0.570312   0.945312 0
  0.562500   0.945312 0
  0.742188   0.562500 0
  0.507812   0.625000 0
  0.976562   0.507812 0
  0.734375   0.781250 0
  0.507812   0.835938 0
  0.523438   0.710938 0
  0.734375   0.773438 0
  0.507812   0.828125 0
  0.820312   0.546875 0
  0.812500   0.546875 0
  0.820312   0.750000 0
  0.515625   0.726562 0
  0.882812   0.601562 0
  0.875000   0.601562 0
  0.828125   0.945312 0
  0.625000   0.585938 0
  0.820312   0.523438 0
  0.976562   0.539062 0
  0.507812   0.867188 0
  0.523438   0.742188 0
  0.734375   0.804688 0
  0.507812   0.859375 0
  0.843750   0.851562 0
  0.828125   0.562500 0
  0.820312   0.570312 0
  0.820312   0.578125 0
  0.828125   0.578125 0
  0.781250   0.828125 0
  0.781250   0.820312 0
  0.757812   0.539062 0
  0.515625   0.757812 0
  0.828125   0.976562 0
  0.625000   0.617188 0
  0.804688   0.726562 0
  0.796875   0.726562 0
  0.804688   0.718750 0
  0.796875   0.718750 0
  0.570312   0.585938 0
  0.781250   0.648438 0
  0.523438   0.765625 0
  0.984375   0.546875 0
  0.742188   0.609375 0
  0.742188   0.617188 0
  0.507812   0.679688 0
  0.734375   0.625000 0
  0.976562   0.617188 0
  0.765625   0.554688 0
  0.773438   0.593750 0
  0.976562   0.843750 0
  0.835938   0.992188 0
  0.835938   0.984375 0
  0.828125   0.984375 0
  0.507812   0.898438 0
  0.734375   0.835938 0
  0.851562   0.882812 0
  0.843750   0.882812 0
  0.820312   0.601562 0
  0.796875   0.734375 0
  0.796875   0.843750 0
  0.781250   0.843750 0
  0.789062   0.851562 0
  0.992188   0.914062 0
  0.781250   0.851562 0
  0.523438   0.843750 0
  0.750000   0.531250 0
  0.765625   0.515625 0
  0.757812   0.515625 0
  0.523438   0.578125 0
  0.515625   0.789062 0
  0.523438   0.781250 0
  0.757812   0.718750 0
  0.960938   0.968750 0
  0.859375   0.585938 0
  0.664062   0.609375 0
  0.804688   0.750000 0
  0.796875   0.750000 0
  0.859375   0.781250 0
  0.867188   0.789062 0
  0.859375   0.789062 0
  0.750000   0.640625 0
  0.734375   0.640625 0
  0.742188   0.648438 0
  0.507812   0.710938 0
  0.968750   0.585938 0
  0.734375   0.656250 0
  0.507812   0.906250 0
  0.742188   0.843750 0
  0.828125   0.617188 0
  0.828125   0.609375 0
  0.820312   0.625000 0
  0.812500   0.625000 0
  0.585938   0.890625 0
  0.585938   0.882812 0
  0.812500   0.828125 0
  0.757812   0.593750 0
  0.992188   0.523438 0
  0.750000   0.593750 0
  0.515625   0.656250 0
  0.828125   0.718750 0
  0.828125   0.710938 0
  0.820312   0.718750 0
  0.796875   0.867188 0
  1.000000   0.921875 0
  0.789062   0.578125 0
  0.992188   0.828125 0
  0.539062   0.695312 0
  0.531250   0.687500 0
  0.570312   0.750000 0
  0.750000   0.710938 0
  0.515625   0.773438 0
  0.742188   0.718750 0
  0.515625   0.976562 0
  0.625000   0.664062 0
  0.734375   0.867188 0
  0.851562   0.914062 0
  0.859375   0.906250 0
  0.625000   0.968750 0
  0.843750   0.914062 0
  0.609375   0.976562 0
  0.843750   0.906250 0
  0.523438   0.875000 0
  0.546875   0.757812 0
  0.750000   0.562500 0
  0.515625   0.625000 0
  0.765625   0.546875 0
  0.968750   0.609375 0
  0.757812   0.546875 0
  0.523438   0.609375 0
  0.523438   0.820312 0
  0.515625   0.820312 0
  0.960938   1.000000 0
  0.523438   0.812500 0
  0.515625   0.812500 0
  0.835938   0.531250 0
  0.882812   0.695312 0
  0.882812   0.687500 0
  0.859375   0.617188 0
  0.617188   0.687500 0
  0.875000   0.992188 0
  0.664062   0.632812 0
  0.898438   0.570312 0
  0.664062   0.640625 0
  0.804688   0.781250 0
  0.796875   0.781250 0
  0.804688   0.789062 0
  0.515625   0.828125 0
  0.750000   0.765625 0
  0.523438   0.835938 0
  0.757812   0.773438 0
  0.515625   0.835938 0
  0.515625   0.843750 0
  0.859375   0.812500 0
  0.867188   0.820312 0
  0.859375   0.820312 0
  0.507812   0.937500 0
  0.742188   0.875000 0
  0.828125   0.648438 0
  0.820312   0.656250 0
  0.812500   0.656250 0
  0.585938   0.914062 0
  0.710938   0.601562 0
  0.703125   0.601562 0
  1.000000   0.562500 0
  0.757812   0.625000 0
  0.523438   0.687500 0
  0.992188   0.554688 0
  0.750000   0.625000 0
  0.515625   0.687500 0
  0.523438   0.882812 0
  0.648438   0.570312 0
  0.640625   0.570312 0
  0.882812   0.500000 0
  0.789062   0.609375 0
  0.992188   0.859375 0
  0.507812   0.843750 0
  0.742188   0.781250 0
  0.531250   0.718750 0
  0.515625   0.851562 0
  0.750000   0.789062 0
  0.539062   0.726562 0
  0.539062   0.718750 0
  0.976562   0.906250 0
  0.742188   0.500000 0
  0.507812   0.562500 0
  0.570312   0.789062 0
  0.671875   0.945312 0
  0.960938   0.929688 0
  0.546875   0.617188 0
  0.851562   0.945312 0
  0.843750   0.937500 0
  0.609375   1.000000 0
  0.570312   0.554688 0
  0.523438   0.906250 0
  0.843750   0.773438 0
  0.828125   0.890625 0
  0.820312   0.890625 0
  0.617188   1.000000 0
  0.796875   0.523438 0
  0.914062   0.781250 0
  0.687500   0.835938 0
  0.750000   0.875000 0
  0.515625   0.937500 0
  0.781250   0.742188 0
  0.992188   0.804688 0
  0.765625   0.859375 0
  0.750000   0.867188 0
  0.968750   0.921875 0
  0.757812   0.859375 0
  0.523438   0.921875 0
  0.984375   0.796875 0
  0.976562   0.703125 0
  0.804688   0.539062 0
  0.914062   0.789062 0
  0.921875   0.789062 0
  0.687500   0.843750 0
  0.804688   0.820312 0
  0.820312   0.695312 0
  0.804688   0.812500 0
  0.796875   0.812500 0
  0.750000   0.703125 0
  0.515625   0.765625 0
[...]
CELL_DATA 30592
SCALARS scalar_value float 1
LOOKUP_TABLE default
0
0
0
0
0
0
0
0
0
0
0
0
0
0
0.0030602
0.00259253
0.00231723
0.00194471
0.00161268
0.00151268
0.00058876
0.000563266
0.000498485
0.00063029
0.000561785
0.000490491
0.000610566
1.02443e-05
7.76339e-06
5.3748e-06
8.7365e-06
0.00138426
0.00123309
0.0012587
0.00111428
0.0382433
0.0361804
0.0315543
0.040182
0.0376003
0.0398003
0.112663
0.113484
0.107133
0.121385
0.120378
0.11364
0.106564
0.131991
0.12242
0.118325
0.103189
0.0938351
0.107249
3.65815e-08
3.13537e-08
3.04042e-08
2.88289e-08
2.56914e-08
2.37032e-08
0.00229863
0.00245487
0.00216116
0.00213442
0.00228659
0.00238409
0.00221089
0
0
0
0
0
0
0
0
0
0
0
0
0
0
0
0
0
0
8.56779e-08
5.65255e-08
1.3212e-07
1.18448e-07
7.894e-08
5.32035e-08
4.13373e-08
4.01477e-08
6.46808e-08
3.01261e-08
5.70847e-08
4.02417e-08
3.40526e-08
2.72774e-08
8.53622e-08
6.846e-08
9.01664e-08
4.89055e-08
2.18937e-08
1.85273e-08
2.45361e-08
3.93256e-05
2.6906e-05
2.48544e-05
2.32588e-05
1.42965e-05
1.50376e-05
1.81988e-05
1.47795e-05
0.0832804
0.0798495
0.0741596
0.0779735
0.0723759
0.0673071
3.56987e-08
2.73982e-08
2.86324e-08
2.16311e-08
2.23873e-08
1.69172e-08
1.70613e-08
1.30047e-08
9.88357e-09
1.0281e-08
7.75825e-09
4.50254e-09
2.79076e-09
3.52451e-09
7.75844e-09
4.5813e-09
5.86889e-09
1.00393e-07
1.0336e-07
9.07233e-08
1.44066e-07
9.46709e-08
1.29157e-07
1.39001e-07
1.55988e-07
2.24869e-07
1.86857e-07
2.92998e-07
0.00193438
0.00162227
0.001523
8.94321e-07
7.22715e-07
1.13447e-06
1.20763e-06
9.97252e-07
1.45014e-06
3.19348e-07
2.09366e-07
1.30013e-07
1.99714e-07
2.26978e-06
2.10429e-06
1.72496e-06
1.82965e-06
1.47833e-06
1.16044e-06
0.0196775
0.0186274
0.0161044
0.0210306
4.11198e-06
3.38207e-06
3.09758e-06
6.51095e-10
5.15328e-10
3.75842e-10
5.32664e-10
2.96403e-10
3.05501e-10
2.39757e-10
2.16685e-10
1.71536e-10
1.30941e-10
1.74999e-10
4.2925e-10
3.36019e-10
2.44514e-10
0.00063124
0.000573937
0.00045973
0.000664794
0.000332195
0.000300476
0.00034958
0.0027659
0.00252947
0.00266487
0.00318775
0.00232793
0.00340776
0.00158156
0.00311253
0.00275484
0.00200381
0.00142709
0.00150202
0.000399144
0.000352538
0.000304305
0.00100047
0.000809086
0.000738864
0.000250662
0.000214974
0.000225504
3.03582e-05
3.4884e-05
3.36372e-05
4.37247e-05
0.0565032
0.0554262
0.0598185
0.0493444
3.58022e-05
2.73579e-05
2.25476e-05
0.0428332
0.0419039
0.0454702
0.0370021
0.00470157
0.00382536
0.00329072
0.00289069
0.00236579
0.00250256
4.71295e-08
4.66599e-08
3.71605e-08
6.12135e-08
3.56588e-08
2.14466e-08
2.8202e-08
5.94291e-08
4.72371e-08
3.61326e-08
0.025774
0.0245359
0.0222338
0.0235792
0.0212727
0.0193515
0.00242309
0.0026236
0.00255371
0.00414273
0.0040596
0.00371908
0.00110794
0.000953349
0.000946243
0.000849692
0.00288843
0.00256671
0.00263722
0.0022977
0.167368
0.174034
0.161618
0.171193
0.172509
0.164475
0.157958
0.16465
0.149509
0.00267823
0.00298294
0.00311312
0.00291173
0.17365
0.16738
0.156951
0.170154
0.168585
0.156716
0.147886
0.163659
0.154323
0.150821
0.147867
0.00107714
0.00105202
0.00118088
0.000953019
0.00113869
0.00119894
0.00103946
0.000832082
0.000797183
0.000719167
0.198054
0.203834
0.189571
0.134087
0.114371
0.117779
0.0011168
0.000906053
0.000783892
0.0008237
0.00015435
0.000164344
0.000128018
5.39227e-05
4.1477e-05
5.316e-05
3.14552e-05
2.73484e-05
3.01559e-05
0.0449426
0.041093
0.0378582
4.66815e-07
6.72906e-07
7.31285e-07
8.81673e-07
1.36878e-06
9.58033e-07
9.57679e-07
1.34542e-06
1.48637e-06
1.13593e-06
1.48187e-06
1.62244e-06
0.0307967
0.0298971
0.0328408
0.0235674
0.0202929
0.0247385
0.0344696
0.0328895
0.0298715
0.0356876
0.0252939
0.0227861
0.0245742
0.0185216
0.0202884
0.0167377
0.0149714
0.0162834
7.86527e-06
7.3261e-06
8.14028e-06
6.71535e-06
6.84947e-06
6.41908e-06
6.1966e-06
5.64652e-06
5.68041e-06
4.67812e-06
2.3847e-05
1.66398e-05
1.51396e-05
1.31461e-05
6.82362e-06
7.67827e-06
5.47488e-06
0.150457
0.142814
0.142823
0.135953
0.124487
0.127444
0.117538
9.86611e-06
9.51384e-06
6.56528e-06
9.01465e-06
7.54412e-06
8.40036e-06
5.89857e-06
9.89986e-06
8.58373e-06
6.67211e-06
0.104639
0.0983957
0.100174
0.092097
0.0935151
0.0862166
0.0850602
0.0801624
0.074358
0.0753268
0.0690298
0.000128123
8.95547e-05
0.000101811
0.0192605
0.0198574
0.0181492
0.00796268
0.00763838
0.00721459
0.00546144
0.00538056
0.00482506
3.64984e-06
3.27519e-06
2.61063e-06
3.88734e-06
0.02794
0.0272715
0.029816
0.0237988
3.28052e-07
3.23868e-07
2.61318e-07
7.3621e-08
7.73318e-08
5.84529e-08
4.97751e-08
1.98514e-08
3.43231e-08
1.54641e-07
1.44651e-07
1.8201e-07
3.70518e-07
2.79224e-07
4.24197e-07
2.13885e-05
1.52356e-05
1.2444e-05
9.2667e-07
8.04593e-07
6.94262e-08
6.20636e-07
9.35146e-07
4.70493e-10
6.33831e-10
6.21795e-10
3.66268e-10
2.86217e-10
4.85297e-10
1.07813e-09
1.02977e-09
8.07037e-10
1.3082e-09
5.46132e-08
3.17644e-08
5.93826e-08
9.5125e-10
7.5461e-10
8.70979e-10
5.95741e-10
4.42609e-10
6.98366e-10
2.18006e-08
1.72225e-08
1.30537e-08
1.65195e-08
4.64053e-10
3.64654e-10
2.79319e-10
3.46378e-10
0.00298741
0.00312353
0.00274373
0.278671
0.273638
0.266771
0.273353
0.268462
0.261805
0.256554
1.51379e-06
1.31351e-06
1.33105e-06
1.56006e-06
1.10929e-06
1.57157e-06
9.27013e-07
1.35244e-06
1.5366e-06
1.1226e-06
8.05792e-07
6.99648e-07
8.10666e-07
5.80775e-07
4.0638e-05
4.25107e-05
5.32847e-05
2.74329e-05
2.04511e-05
3.11075e-05
6.32239e-05
5.7946e-05
6.83447e-05
2.49636e-05
2.58138e-05
1.47751e-05
0.0162874
0.0164135
0.0143232
4.10327e-06
4.47747e-06
3.81306e-06
0.0124318
0.0123442
0.0137387
0.0106467
0.0603198
0.0697448
0.0589173
0.0794277
0.0886298
0.0752673
0.0569874
0.057383
0.0639239
4.04513e-05
3.72646e-05
2.5031e-05
0.103264
0.0947044
0.1093
0.0296827
0.0321213
0.02844
0.0405563
0.0468321
0.0441294
0.0359198
0.0387645
0.0376749
0.00173792
0.0015424
0.00169415
0.00127034
1.61988e-05
1.54656e-05
1.76683e-05
0.0300604
0.0319123
0.0340824
0.0303728
0.0236088
0.0246885
0.0266425
0.0229857
0.000113279
8.79482e-05
7.91561e-05
5.45482e-05
4.07226e-05
3.66783e-05
0.00104404
0.00102147
0.00117228
0.000847526
5.2877e-08
3.78608e-08
3.08719e-08
2.18281e-08
1.36671e-08
2.26638e-08
1.91267e-08
1.42708e-08
0.0349255
0.0283902
0.024244
0.0237821
0.026102
0.0207195
0.0175623
0.0171007
0.0188244
0.0147618
1.3386e-08
3.02538e-08
3.88926e-08
3.69932e-08
4.86922e-08
2.40967e-08
2.30273e-08
1.846e-08
5.88547e-08
4.74978e-08
7.50707e-08
1.79553e-06
1.38102e-06
2.03658e-06
9.06231e-07
5.88414e-07
8.75003e-07
0.0432211
0.0442142
0.0490979
0.0411866
0.0455781
0.0452457
0.0543892
0.0539047
0.0588359
0.0016753
0.00141695
0.00136208
0.00126201
1.81128e-08
2.35943e-08
2.37854e-08
2.91113e-08
3.79636e-08
4.93388e-08
3.76936e-08
3.20983e-08
4.20608e-08
4.40227e-08
0.0647241
0.0679881
0.0752831
2.52439e-07
2.04315e-07
1.5656e-07
0
0
1.09108e-10
3.67214e-10
0
0
0
0
1.56e-10
1.98476e-10
1.63342e-10
1.19668e-09
2.89032e-10
8.43616e-06
4.4487e-05
3.97996e-05
4.53475e-05
3.1251e-05
1.88486e-05
2.13772e-05
1.46885e-05
0.0045279
0.00382399
0.00499486
5.06496e-07
4.27939e-07
6.41302e-07
3.75836e-07
3.96029e-07
3.32939e-07
5.05546e-07
0.187644
0.176806
0.178973
0.166642
1.32648e-07
1.18258e-07
9.48116e-08
1.11747e-07
1.08739e-07
7.97158e-08
6.7544e-08
5.64035e-08
6.01455e-08
4.80286e-08
3.56004e-05
2.87727e-05
2.4057e-05
1.94365e-05
1.63639e-05
1.31384e-05
1.92407e-05
1.00373e-07
8.44135e-08
7.15716e-08
7.92501e-08
1.61891e-05
1.30759e-05
1.08465e-05
1.1109e-05
1.55423e-05
1.25303e-05
1.03866e-05
0.000129833
0.000137192
9.19457e-05
0.179331
0.17219
0.160655
0.155287
0.147419
0.16683
0.142055
0.134798
0.124028
0.136301
0.167468
0.158685
0.156074
9.31605e-08
7.75492e-08
6.65035e-08
6.81826e-08
4.76463e-08
3.97654e-08
3.42266e-08
3.48236e-08
4.28324e-08
3.63374e-08
4.01007e-08
0.120996
0.134601
0.116084
0.145189
0.143193
0.136394
0.110292
0.109681
0.119945
0.103732
0.00290502
0.00240436
0.00333992
0.00356279
0.00272556
0.00377363
0.00553002
0.00461938
0.00631013
0.151
0.143987
0.133144
0.146654
0.148538
0.137752
0.135798
0.130816
0.139632
0.128769
0.126346
0.121955
9.63283e-05
8.13765e-05
0.000122088
1.31506e-08
1.10113e-08
9.32674e-09
1.02416e-08
0.00315686
0.00283014
0.00238173
0.00299029
0
0
0
0
0
0
0
0
0
0
0
0
0
3.56177e-05
3.20743e-05
2.4701e-05
3.85229e-05
0.00026259
0.000317216
0.000460918
0.000298865
0.000496716
0.000557261
0.00073794
0.000814421
0.00107926
0.000758706
0.000326684
0.000371916
0.000518233
0.000345411
6.97098e-06
5.48139e-06
4.57734e-06
0.071548
0.0634392
0.0653935
0.0433431
0.0385791
0.0402214
1.00181e-09
9.9016e-10
2.03582e-09
1.14707e-09
6.34777e-10
1.01667e-09
9.69947e-06
6.04597e-05
5.19198e-05
3.8841e-05
5.86304e-05
0.0148729
0.0148336
0.0129677
0.0144144
0.013694
0.0122831
1.28722e-08
1.19854e-08
1.1315e-08
3.61974e-08
3.8227e-08
5.10561e-08
5.07112e-10
5.7186e-10
7.91785e-10
2.59048e-08
2.12589e-08
3.53575e-08
7.06229e-08
7.24353e-08
9.55904e-08
1.17474e-07
3.47676e-07
4.42403e-07
4.50748e-07
5.27851e-07
5.65971e-07
6.79082e-07
8.48805e-07
6.85753e-07
8.2869e-07
2.53433e-06
2.29875e-06
2.25557e-06
0.000456986
0.000507567
0.00044769
0.000577834
0.00116151
0.00106201
0.000859775
0.00122498
0.000122386
0.000112385
0.000107043
6.48926e-05
5.1778e-05
4.83206e-05
4.47296e-05
0.000350713
0.000290246
0.000281938
0.000253784
4.5941e-09
3.46204e-09
3.5906e-09
0.000231698
0.000165077
0.000208522
0.000181345
0.000148074
0.000143397
0.102503
0.0926011
0.0856006
7.56828e-10
5.91329e-10
4.29981e-10
7.44828e-10
2.26677e-10
1.60725e-10
1.18011e-10
1.92853e-10
0
0
0
0
0
0
0
0
0
0
0
0.0107723
0.0107214
0.00972636
0.00939199
0.00849536
0.00740647
0.00772059
0.00676611
0.00609203
0.000138133
0.000112822
0.000112456
9.58794e-05
5.82362e-10
3.29254e-10
3.38837e-10
2.4261e-10
1.92932e-10
2.4656e-10
1.36115e-10
1.03317e-10
1.09155e-10
1.83287e-10
1.32731e-10
1.06155e-10
0
9.35978e-07
8.05186e-07
6.15552e-07
9.2665e-07
0.00133916
0.00125701
0.00110624
0.00143997
0.00130884
0.00118836
1.82074e-06
1.40328e-06
1.21706e-06
2.9327e-09
2.09112e-09
3.02761e-09
1.63802e-09
1.38567e-09
2.36691e-09
3.22012e-08
4.29366e-08
4.40411e-08
9.63505e-08
7.74412e-08
5.88405e-08
7.66107e-08
2.26743e-09
1.38385e-09
1.65529e-09
0.0011678
0.000960406
0.000872728
0.00348279
0.00312799
0.00266765
0.00335274
0.00284558
0.00269132
0.00255713
0.00287441
0.00246352
0.00239108
0.00220386
9.106e-07
7.95917e-07
6.27808e-07
8.6298e-08
9.15392e-07
0.000143329
0.00012948
9.60515e-05
0.000131105
8.64268e-05
6.62524e-05
8.49484e-05
7.10616e-05
7.05384e-05
0.000117888
7.48628e-05
4.8554e-05
6.5433e-05
0.10705
0.157341
0.0993409
0.103094
0.0890936
0.000441184
0.000476125
0.000581396
0.000265422
0.000216007
0.000203132
0.00375937
6.44187e-07
0.00322028
0.000152546
0.00183366
0.00180448
0.00156215
2.98976e-05
2.03389e-05
3.26672e-05
1.05274e-05
6.98248e-06
1.21945e-05
1.39056e-05
1.26549e-05
9.70463e-06
1.5574e-05
0.0163029
0.0147418
0.0127189
0.0150324
8.61789e-07
7.41666e-07
7.94784e-07
6.45237e-07
0.276728
0.26131
0.274469
0.276112
0.271949
0.24975
0.244124
0.240335
4.18786e-07
4.16369e-07
3.03301e-07
2.55594e-07
2.15413e-07
2.29453e-07
1.84698e-07
0.187772
0.15335
0.17295
0.159501
0.176075
0.00202181
0.00200575
0.00180556
2.96205e-05
2.75972e-05
3.48028e-05
1.96329e-05
0.000630888
1.59572e-06
2.66446e-05
0
0
0
0
1.13659e-09
0.212051
0.215932
0.00058603
0.000188996
0.00048708
3.45069e-06
0.000540968
2.2532e-10
3.40058e-10
2.86854e-08
2.68371e-10
2.43123e-05
2.14065e-05
0.000237196
2.1663e-05
0.00106011
7.02396e-05
6.32847e-05
0.000437558
6.25413e-05
0.00215751
0
0
0
0.00159642
7.74015e-05
8.356e-05
0.00174723
0.000416885
3.92244e-10
3.972e-10
5.10826e-08
1.05429e-08
6.83807e-08
5.26699e-10
5.27259e-09
3.20682e-05
2.44659e-05
1.66611e-05
3.20288e-05
0.00187659
0.00152656
3.73031e-05
0.00181255
4.18092e-05
2.94496e-05
3.72015e-05
0.000637552
0.0486136
0.000453031
0.0511567
0.0253941
0.232585
1.55102e-07
2.40093e-05
1.65963e-05
0.23367
1.65123e-07
0.237409
0.223522
0.000988124
4.24101e-06
0.00110139
7.97376e-06
0.000853657
1.14e-05
1.83745e-07
1.18161e-07
0.0385962
1.52619e-07
0.208427
0.0371994
0.214722
2.71443e-07
5.24671e-05
2.89338e-05
5.11386e-05
0.0463156
0.000110651
0.0398528
0.0400719
0.037213
7.05422e-05
0.0426149
9.0646e-06
6.20086e-07
5.34876e-07
2.04741e-07
2.59233e-07
1.07355e-05
0.0331092
0.0364975
0.0354322
0.0667989
9.40459e-06
0.0340284
1.38522e-05
4.78205e-07
3.51095e-07
8.19135e-07
1.73621e-05
1.10488e-05
1.22131e-05
1.42479e-05
0
1.28173e-10
2.33648e-09
7.22132e-09
5.498e-09
0.000405757
0.017705
0.0290997
0.0168602
4.32455e-05
1.19465e-08
8.1522e-07
9.87334e-09
1.41327e-08
1.04198e-06
0.0851726
0.0812177
0.000118423
0.000528245
0.000443954
0.000508582
0.000520262
0.000368222
0.000483936
0.000109679
6.23546e-06
9.48076e-06
3.00516e-06
0.000358439
0.000259659
0.000578428
3.87829e-06
2.74473e-06
0.0159215
0.0171616
0.0136295
0.0160019
0.0148041
0.012416
0.0155016
0.0257716
0
0
0
0.00113984
0.000843519
7.97274e-05
0
1.35526e-10
0.00965836
0.0128508
0.0100711
2.02053e-06
2.85084e-08
2.69095e-08
2.52569e-06
2.63644e-10
0
4.49912e-09
1.62725e-10
2.94665e-09
0.00744041
0.00998437
0.00643009
0.00423487
0.011156
2.1117e-10
2.0718e-10
3.57888e-09
9.17908e-09
0.00998847
0.00895507
0.00619373
0.00773483
0.00769809
0.00690216
0.00572164
0.00692207
0.00512346
0.00530363
0.00730309
0.00818355
0
1.65183e-10
0.00737389
1.26964e-10
0.00013224
0.000118628
0.000144736
0.00014865
0.000139669
2.07203e-05
0.00738179
0.00352907
0.00512241
0.005749
0
0
0.00434043
0.00292706
0
0.0052267
0
1.86272e-08
1.47929e-08
9.29415e-07
1.55999e-08
7.18918e-07
4.45972e-07
0.0386759
0.197533
0.0101924
2.54856e-05
0.00866179
1.7892e-05
7.60124e-05
0.0066877
0.00971712
0.000255346
0.00024452
3.25747e-06
0.000199331
3.35202e-06
0.00916125
0.0585794
0.0271979
0.0522577
1.31278e-05
0.0511781
0.0296852
0.0368602
0.0483015
0.0788589
0.0263882
1.73378e-05
0.0021224
0.0935248
0.143733
0.177449
1.35242e-06
1.45911e-07
0.00232802
0.00213309
0.000122646
9.69421e-05
0.00176669
0.000112486
0.000106029
0.008708
0.00802996
0.000333192
0.000444636
0.0102323
0.000525859
5.28002e-10
2.65966e-08
4.18594e-10
2.04632e-08
7.53141e-09
5.70928e-06
4.33634e-06
0.017493
3.82168e-05
0.0141936
0.0118215
0.0151587
2.0792e-06
1.74774e-06
6.12481e-08
3.00379e-05
2.66921e-05
5.02727e-06
5.7897e-09
1.29585e-10
2.98283e-06
3.60809e-06
0.00200059
0.00207056
0.0806256
0.0030945
0.000454859
0.000912827
0.00158812
1.01264e-05
1.40517e-06
9.53058e-06
9.11637e-06
8.52866e-06
0.00247054
0
1.18433e-05
0.00213659
0.179
0.107687
0.141683
0
3.42866e-09
0
2.58687e-09
0
5.57226e-05
0.00203295
0.00425448
3.51275e-07
1.23799e-08
2.53367e-07
9.19551e-05
0.00210102
0.000164629
0.0643167
0.0696067
0.000234319
9.6801e-05
0.000259369
0.058496
1.92054e-06
1.49782e-06
5.573e-06
1.75173e-06
2.49528e-08
1.86771e-05
2.26386e-05
0.0484693
3.43639e-05
0.0466986
2.11677e-05
0.0405332
0.00689111
0.00509419
0.00614484
0.00812981
1.11589e-08
9.06017e-09
2.65562e-05
1.59085e-05
3.26674e-09
1.23435e-08
9.7021e-09
7.38654e-09
2.45055e-09
1.92279e-09
1.87057e-09
2.01865e-09
1.09467e-05
4.15848e-06
3.2579e-06
1.33467e-05
3.45943e-05
1.5556e-06
4.69877e-06
1.88439e-06
3.75936e-06
7.85302e-06
4.27645e-06
3.65974e-06
4.16007e-06
0.100363
0.0189878
0.091197
0.00318802
0.183374
1.22308e-05
2.89654e-06
1.26815e-05
1.7332e-06
2.07828e-06
2.63513e-06
2.66187e-06
1.84281e-05
0.000398935
0.000388752
2.82033e-06
4.13696e-06
0.000441728
0.000321737
3.59945e-06
4.54444e-05
4.93052e-06
3.09895e-05
3.59029e-06
5.68664e-06
7.61833e-05
0.0193329
0.00471808
0.00295012
0.00418193
0.00564909
0.00353801
0.00260108
0.00423625
0.00191844
0.162164
0.0218671
0.157921
0.00298393
0.0178456
0.0428789
1.79047e-07
2.71952e-06
2.55878e-07
2.65604e-07
1.9002e-05
4.03065e-06
0.0516069
1.301e-05
0.0560228
0.102487
0.0482395
1.25583e-05
1.2195e-05
0.00469757
3.52566e-07
2.00725e-05
1.39081e-05
0.0104671
0.0133205
0.00935954
0.011459
0.0081492
0.0104969
1.35057e-05
0.00730556
1.03307e-08
0.153716
0.0325183
0.0671223
0.0107635
7.76736e-05
1.45995e-08
6.24242e-09
6.33795e-08
4.47438e-05
6.29543e-08
0.0108481
5.26685e-05
0.00963618
5.13081e-07
5.97552e-06
3.88706e-07
2.4162e-05
0.0891382
0.165322
0.182248
0.176008
2.27322e-05
8.39437e-05
2.75061e-05
0.0358869
0.0186152
0.0176566
0.0320493
0.0188056
0.0326276
0.0161207
0.029016
0.0165593
0.0126894
0.0183024
0.0164038
0.0256152
0.0133671
0.0254982
0.0177713
0.0231732
0.0155817
0.000531094
3.68796e-09
9.38119e-08
4.35006e-08
0.000485378
0.00119549
8.97167e-09
5.68231e-06
1.209e-05
5.79168e-06
0.000423499
0.00679967
1.86644e-07
6.25222e-09
1.55359e-07
3.83046e-09
4.60463e-09
0.00438647
0.00813675
0.00206904
1.04968e-05
0.00180258
0.00101444
0.0020298
1.85801e-05
0.240779
0.239257
0.244575
0.0378692
0.230476
0.000234991
1.07631e-06
9.46287e-07
0.000193895
7.79829e-05
0.000222388
0.0022123
0.00233664
2.29828e-07
1.60931e-07
0.0529317
0.00044592
6.54597e-05
2.76689e-07
2.32008e-07
0.0028242
3.30608e-07
7.96042e-08
4.65859e-07
2.7432e-07
1.03259e-09
1.28998e-09
1.40794e-07
5.63441e-08
1.04288e-07
1.64727e-07
8.77344e-08
1.09836e-05
1.09516e-07
3.45657e-07
1.42089e-07
2.23904e-07
1.34094e-06
2.20833e-07
1.70832e-08
2.00081e-08
1.85389e-08
0.0140238
0.0172685
0.176392
0.21672
2.20458e-09
5.38102e-09
9.40934e-05
4.5112e-09
0.00015835
0.000123868
0.000119188
0.00038101
0.241575
0.236239
0.000451547
0.000366904
0.000363275
0.000997449
0.000311538
0.000821847
3.73341e-06
0.00117996
4.1448e-06
0.00108926
0.000664632
4.2869e-06
0.00103577
0.000867453
5.7643e-06
6.43322e-06
8.27381e-06
4.40936e-07
0.00959255
0.0448835
0.0417826
0.039777
0.00275761
2.08148e-05
0.0389754
0.0631054
0.00288329
0.000852503
0.00052436
0.00255764
0.000631766
0.00221886
0.000502979
0.0023627
0.000382443
0.00108798
4.15573e-06
0.00081708
1.1689e-05
0.00453226
0.000589616
0.000352819
0.162213
0.134314
0.000705637
0.00585469
0.00428682
0.000432352
0.111718
0.0939411
0.113901
0.113689
7.81788e-05
1.33632e-05
0.000105119
2.59703e-07
4.39444e-07
1.39503e-08
0.000149104
0.00015947
1.28269e-08
1.44992e-10
8.09349e-09
1.12573e-08
7.66276e-05
0.000406356
0.00027728
0.000594208
3.72586e-05
0.000934017
3.71971e-05
0.000326134
4.88786e-05
0.000315264
0.0012645
3.66855e-09
0.153794
0.15083
0.133202
0.000524295
2.30024e-06
0.000459699
0.000111397
0.000383707
0.000202151
0.000445701
1.65048e-06
0.104194
0.0903835
0.0994459
0.00140793
4.14343e-06
6.54385e-05
1.15865e-05
4.56568e-06
4.0011e-06
1.76919e-05
7.79294e-06
5.56465e-06
9.97599e-08
1.08736e-06
1.65316e-06
0.00132405
0.0031392
0.000917651
6.03348e-06
4.6672e-06
5.17932e-06
0.00263414
7.44887e-06
4.0679e-05
2.02476e-07
0
1.49157e-07
2.04485e-05
6.51126e-10
1.26891e-08
0.0182469
0.00960323
0.0124937
0.00821346
9.51427e-07
7.777e-07
0.0016569
0.00164249
0.0413158
0.0451705
3.83113e-08
0.0319915
0.190508
0.0383265
0.0829554
0.000116337
1.20727e-05
7.85522e-05
0.0121846
0.0157332
0.0265724
0.18508
0.0140526
6.93053e-05
1.53077e-05
0.0126968
6.98083e-05
0.0133789
6.076e-06
0.00113806
4.10038e-06
1.52347e-05
0.0112917
5.35346e-05
5.27652e-05
0.0267868
0.166748
2.31341e-08
4.71315e-05
0.0107024
0.00867283
8.4861e-09
6.13609e-05
1.02829e-05
9.06733e-06
0
0.147532
0.0980613
0.0278215
1.69956e-05
0.00465858
1.68579e-05
0.0041242
0.00420477
1.48982e-05
0.00334112
0.00031418
1.68577e-06
0.0210962
0.035003
0.000642169
3.41581e-06
0.018986
0.00700912
0.00901105
0.00712655
1.52538e-05
1.92975e-06
1.66891e-05
0.00697085
1.32681e-05
0.00582345
0.00541656
2.44939e-05
0.00557874
0.00627471
2.80296e-05
0.00607398
0.00697624
2.4626e-05
0.00601188
1.91573e-05
0.00527046
1.57959e-09
2.14262e-05
6.58079e-05
0.00658299
1.90828e-05
3.15884e-05
0.00761203
3.10148e-05
8.98149e-09
1.18747e-08
0.00806264
0.000339652
0.00792859
0.000199154
0.0101055
0.00023537
0.0102776
0.000309699
0.0111703
0.142304
0.00675455
0.0128026
0.00920745
0.141559
0.0080644
0.00991455
0.00609166
0.124406
9.49422e-06
0.000277903
0.00625336
0.000247185
0.013446
6.15081e-06
2.55448e-05
0.000229953
0.0118314
0.00483216
0.0148097
3.85343e-05
7.42723e-06
0.0134743
5.06034e-06
1.07868e-05
0.000240578
0.00265163
0.00839755
0.000260681
0.00972989
5.69412e-06
0.00362263
0.000236293
0.000351091
7.66601e-06
0.000292288
0.00348064
0.0514831
0.0106734
0.0101117