# vtk DataFile Version 2.0
Unstructured Grid by M++
ASCII
DATASET UNSTRUCTURED_GRID
POINTS 15808 float
  0.718750   0.625000 0
  0.718750   0.953125 0
  0.960938   0.882812 0
  0.734375   0.937500 0
  0.953125   0.882812 0
  0.726562   0.937500 0
  0.953125   0.875000 0
  0.507812   0.593750 0
  0.742188   0.531250 0
  0.945312   0.781250 0
  0.750000   0.726562 0
  0.960938   0.578125 0
  0.718750   0.640625 0
  0.726562   0.648438 0
  0.718750   0.648438 0
  0.789062   0.601562 0
  0.671875   0.914062 0
  0.765625   0.523438 0
  0.960938   0.804688 0
  0.734375   0.859375 0
  0.718750   0.867188 0
  0.726562   0.859375 0
  0.953125   0.796875 0
  0.515625   0.507812 0
  0.507812   0.515625 0
  0.945312   0.703125 0
  0.515625   0.531250 0
  0.515625   0.539062 0
  0.507812   0.546875 0
  0.945312   0.734375 0
  1.000000   0.671875 0
  0.765625   0.726562 0
  0.757812   0.734375 0
  0.750000   0.734375 0
  0.515625   0.796875 0
  0.515625   1.000000 0
  0.750000   0.937500 0
  0.523438   0.992188 0
  0.640625   0.679688 0
  0.523438   0.507812 0
  0.742188   0.632812 0
  0.867188   0.515625 0
  0.671875   0.851562 0
  0.789062   0.796875 0
  0.781250   0.796875 0
  0.789062   0.804688 0
  0.742188   0.671875 0
  0.507812   0.734375 0
  0.968750   0.617188 0
  0.734375   0.687500 0
  0.664062   0.648438 0
  0.578125   0.960938 0
  0.781250   0.531250 0
  0.773438   0.531250 0
  0.546875   0.789062 0
  0.750000   0.585938 0
  0.835938   0.562500 0
  0.812500   0.601562 0
  0.578125   0.867188 0
  0.804688   0.757812 0
  0.507812   0.992188 0
  0.742188   0.929688 0
  0.851562   0.976562 0
  0.851562   0.968750 0
  0.632812   0.617188 0
  0.789062   0.945312 0
  0.789062   0.937500 0
  0.781250   0.937500 0
  0.804688   0.531250 0
  0.640625   0.617188 0
  0.812500   0.929688 0
  0.804688   0.835938 0
  0.796875   0.835938 0
  0.773438   0.554688 0
  0.859375   0.867188 0
  0.835938   0.585938 0
  0.843750   0.593750 0
  0.812500   0.632812 0
  0.578125   0.898438 0
  0.570312   0.898438 0
  0.695312   0.585938 0
  0.984375   0.570312 0
  0.773438   0.507812 0
  0.789062   0.687500 0
  0.546875   0.960938 0
  0.867188   0.671875 0
  0.875000   0.664062 0
  0.875000   0.656250 0
  0.882812   0.585938 0
  0.796875   0.859375 0
  0.804688   0.867188 0
  0.867188   0.898438 0
  0.859375   0.898438 0
  0.625000   0.960938 0
  0.835938   0.617188 0
  0.812500   0.960938 0
  0.804688   0.585938 0
  0.804688   0.609375 0
  0.804688   0.617188 0
  0.921875   0.875000 0
  0.687500   0.929688 0
  0.914062   0.875000 0
  0.507812   0.765625 0
  0.742188   0.703125 0
  0.945312   0.953125 0
  0.835938   0.875000 0
  0.625000   0.523438 0
  0.867188   0.960938 0
  0.859375   0.960938 0
  0.835938   0.703125 0
  0.804688   0.640625 0
  0.804688   0.851562 0
  0.578125   0.906250 0
  0.953125   0.593750 0
  0.507812   0.796875 0
  0.945312   0.984375 0
  0.992188   0.718750 0
  0.828125   0.921875 0
  0.835938   0.906250 0
  0.601562   0.968750 0
  0.625000   0.554688 0
  0.585938   0.820312 0
  0.578125   0.820312 0
  0.820312   0.828125 0
  0.820312   0.835938 0
  0.835938   0.710938 0
  0.796875   0.757812 0
  0.554688   0.820312 0
  0.773438   0.664062 0
  0.546875   0.929688 0
  0.507812   0.695312 0
  0.820312   0.609375 0
  0.734375   1.000000 0
  0.976562   0.929688 0
  0.742188   0.984375 0
  0.507812   0.726562 0
  0.531250   0.601562 0
  0.945312   0.914062 0
  0.750000   0.539062 0
  0.515625   0.601562 0
  0.507812   0.804688 0
  0.789062   0.710938 0
  0.781250   0.710938 0
  0.781250   0.703125 0
  0.515625   0.703125 0
  0.523438   0.703125 0
  0.960938   0.890625 0
  0.867188   0.937500 0
  0.632812   1.000000 0
  0.984375   0.515625 0
  0.750000   0.570312 0
  0.515625   0.632812 0
  0.742188   0.578125 0
  0.851562   0.773438 0
  0.843750   0.765625 0
  0.789062   0.742188 0
  0.789062   0.734375 0
  0.781250   0.734375 0
  0.523438   0.734375 0
  0.750000   0.984375 0
  0.984375   0.906250 0
  0.507812   0.703125 0
  0.742188   0.640625 0
  0.945312   0.890625 0
  0.531250   0.578125 0
  0.859375   0.734375 0
  0.867188   0.734375 0
  0.859375   0.976562 0
  0.867188   0.968750 0
  0.507812   0.820312 0
  0.742188   0.757812 0
  0.507812   0.812500 0
  0.843750   0.796875 0
  0.851562   0.804688 0
  0.843750   0.804688 0
  0.585938   0.796875 0
  0.789062   0.773438 0
  0.804688   0.648438 0
  0.789062   0.765625 0
  0.781250   0.765625 0
  0.804688   0.593750 0
  0.804688   0.671875 0
  0.796875   0.671875 0
  0.804688   0.679688 0
  0.796875   0.687500 0
  0.671875   1.000000 0
  0.679688   1.000000 0
  0.921875   0.937500 0
  0.921875   0.929688 0
  0.570312   0.945312 0
  0.562500   0.945312 0
  0.742188   0.562500 0
  0.507812   0.625000 0
  0.976562   0.507812 0
  0.734375   0.781250 0
  0.507812   0.835938 0
  0.523438   0.710938 0
  0.734375   0.773438 0
  0.507812   0.828125 0
  0.820312   0.546875 0
  0.812500   0.546875 0
  0.820312   0.750000 0
  0.515625   0.726562 0
  0.882812   0.601562 0
  0.875000   0.601562 0
  0.828125   0.945312 0
  0.625000   0.585938 0
  0.820312   0.523438 0
  0.976562   0.539062 0
  0.507812   0.867188 0
  0.523438   0.742188 0
  0.734375   0.804688 0
  0.507812   0.859375 0
  0.843750   0.851562 0
  0.828125   0.562500 0
  0.820312   0.570312 0
  0.820312   0.578125 0
  0.828125   0.578125 0
  0.781250   0.828125 0
  0.781250   0.820312 0
  0.757812   0.539062 0
  0.515625   0.757812 0
  0.828125   0.976562 0
  0.625000   0.617188 0
  0.804688   0.726562 0
  0.796875   0.726562 0
  0.804688   0.718750 0
  0.796875   0.718750 0
  0.570312   0.585938 0
  0.781250   0.648438 0
  0.523438   0.765625 0
  0.984375   0.546875 0
  0.742188   0.609375 0
  0.742188   0.617188 0
  0.507812   0.679688 0
  0.734375   0.625000 0
  0.976562   0.617188 0
  0.765625   0.554688 0
  0.773438   0.593750 0
  0.976562   0.843750 0
  0.835938   0.992188 0
  0.835938   0.984375 0
  0.828125   0.984375 0
  0.507812   0.898438 0
  0.734375   0.835938 0
  0.851562   0.882812 0
  0.843750   0.882812 0
  0.820312   0.601562 0
  0.796875   0.734375 0
  0.796875   0.843750 0
  0.781250   0.843750 0
  0.789062   0.851562 0
  0.992188   0.914062 0
  0.781250   0.851562 0
  0.523438   0.843750 0
  0.750000   0.531250 0
  0.765625   0.515625 0
  0.757812   0.515625 0
  0.523438   0.578125 0
  0.515625   0.789062 0
  0.523438   0.781250 0
  0.757812   0.718750 0
  0.960938   0.968750 0
  0.859375   0.585938 0
  0.664062   0.609375 0
  0.804688   0.750000 0
  0.796875   0.750000 0
  0.859375   0.781250 0
  0.867188   0.789062 0
  0.859375   0.789062 0
  0.750000   0.640625 0
  0.734375   0.640625 0
  0.742188   0.648438 0
  0.507812   0.710938 0
  0.968750   0.585938 0
  0.734375   0.656250 0
  0.507812   0.906250 0
  0.742188   0.843750 0
  0.828125   0.617188 0
  0.828125   0.609375 0
  0.820312   0.625000 0
  0.812500   0.625000 0
  0.585938   0.890625 0
  0.585938   0.882812 0
  0.812500   0.828125 0
  0.757812   0.593750 0
  0.992188   0.523438 0
  0.750000   0.593750 0
  0.515625   0.656250 0
  0.828125   0.718750 0
  0.828125   0.710938 0
  0.820312   0.718750 0
  0.796875   0.867188 0
  1.000000   0.921875 0
  0.789062   0.578125 0
  0.992188   0.828125 0
  0.539062   0.695312 0
  0.531250   0.687500 0
  0.570312   0.750000 0
  0.750000   0.710938 0
  0.515625   0.773438 0
  0.742188   0.718750 0
  0.515625   0.976562 0
  0.625000   0.664062 0
  0.734375   0.867188 0
  0.851562   0.914062 0
  0.859375   0.906250 0
  0.625000   0.968750 0
  0.843750   0.914062 0
  0.609375   0.976562 0
  0.843750   0.906250 0
  0.523438   0.875000 0
  0.546875   0.757812 0
  0.750000   0.562500 0
  0.515625   0.625000 0
  0.765625   0.546875 0
  0.968750   0.609375 0
  0.757812   0.546875 0
  0.523438   0.609375 0
  0.523438   0.820312 0
  0.515625   0.820312 0
  0.960938   1.000000 0
  0.523438   0.812500 0
  0.515625   0.812500 0
  0.835938   0.531250 0
  0.882812   0.695312 0
  0.882812   0.687500 0
  0.859375   0.617188 0
  0.617188   0.687500 0
  0.875000   0.992188 0
  0.664062   0.632812 0
  0.898438   0.570312 0
  0.664062   0.640625 0
  0.804688   0.781250 0
  0.796875   0.781250 0
  0.804688   0.789062 0
  0.515625   0.828125 0
  0.750000   0.765625 0
  0.523438   0.835938 0
  0.757812   0.773438 0
  0.515625   0.835938 0
  0.515625   0.843750 0
  0.859375   0.812500 0
  0.867188   0.820312 0
  0.859375   0.820312 0
  0.507812   0.937500 0
  0.742188   0.875000 0
  0.828125   0.648438 0
  0.820312   0.656250 0
  0.812500   0.656250 0
  0.585938   0.914062 0
  0.710938   0.601562 0
  0.703125   0.601562 0
  1.000000   0.562500 0
  0.757812   0.625000 0
  0.523438   0.687500 0
  0.992188   0.554688 0
  0.750000   0.625000 0
  0.515625   0.687500 0
  0.523438   0.882812 0
  0.648438   0.570312 0
  0.640625   0.570312 0
  0.882812   0.500000 0
  0.789062   0.609375 0
  0.992188   0.859375 0
  0.507812   0.843750 0
  0.742188   0.781250 0
  0.531250   0.718750 0
  0.515625   0.851562 0
  0.750000   0.789062 0
  0.539062   0.726562 0
  0.539062   0.718750 0
  0.976562   0.906250 0
  0.742188   0.500000 0
  0.507812   0.562500 0
  0.570312   0.789062 0
  0.671875   0.945312 0
  0.960938   0.929688 0
  0.546875   0.617188 0
  0.851562   0.945312 0
  0.843750   0.937500 0
  0.609375   1.000000 0
  0.570312   0.554688 0
  0.523438   0.906250 0
  0.843750   0.773438 0
  0.828125   0.890625 0
  0.820312   0.890625 0
  0.617188   1.000000 0
  0.796875   0.523438 0
  0.914062   0.781250 0
  0.687500   0.835938 0
  0.750000   0.875000 0
  0.515625   0.937500 0
  0.781250   0.742188 0
  0.992188   0.804688 0
  0.765625   0.859375 0
  0.750000   0.867188 0
  0.968750   0.921875 0
  0.757812   0.859375 0
  0.523438   0.921875 0
  0.984375   0.796875 0
  0.976562   0.703125 0
  0.804688   0.539062 0
  0.914062   0.789062 0
  0.921875   0.789062 0
  0.687500   0.843750 0
  0.804688   0.820312 0
  0.820312   0.695312 0
  0.804688   0.812500 0
  0.796875   0.812500 0
  0.750000   0.703125 0
  0.515625   0.765625 0
[...]
CELL_DATA 30592
SCALARS scalar_value float 1
LOOKUP_TABLE default
0
0
0
0
0
0
0
0
0
0
0
0
0
0
0.00103698
0.000840596
0.000732403
0.000578206
0.000455424
0.000420671
0.000134749
0.000128489
0.000110953
0.000147795
0.000133402
0.000113625
0.000148985
7.30333e-07
5.3513e-07
3.51832e-07
6.14787e-07
0.000284092
0.000244188
0.000244073
0.000216552
0.0143946
0.0133828
0.0112416
0.0152806
0.0140219
0.0151354
0.061982
0.0634845
0.0587499
0.070265
0.0707144
0.0654215
0.0593063
0.0766517
0.0686474
0.0650021
0.0536986
0.0470842
0.0569773
1.29715e-09
1.09358e-09
1.05301e-09
9.9261e-10
8.70386e-10
7.97557e-10
0.00185397
0.00194193
0.00167979
0.00162551
0.00174451
0.00184939
0.00165187
0
0
0
0
0
0
0
0
0
0
0
0
0
0
0
0
0
0
3.59589e-09
2.26101e-09
5.71861e-09
5.03517e-09
3.22188e-09
2.10031e-09
1.47271e-09
1.41993e-09
2.38321e-09
1.04151e-09
2.06497e-09
1.40715e-09
1.16405e-09
9.26864e-10
3.19864e-09
2.49539e-09
3.36728e-09
1.72439e-09
7.36643e-10
6.07167e-10
8.13169e-10
2.27647e-05
1.54245e-05
1.38758e-05
1.37225e-05
7.01246e-06
7.15851e-06
8.74465e-06
6.85428e-06
0.0445467
0.0431384
0.0392001
0.0403236
0.0366153
0.0329066
1.41191e-09
1.0469e-09
1.089e-09
8.05457e-10
8.17445e-10
5.96531e-10
5.9686e-10
4.55988e-10
3.34859e-10
3.46592e-10
2.56202e-10
1.34835e-10
0
1.03733e-10
2.52695e-10
1.40517e-10
1.87284e-10
8.05974e-09
8.42163e-09
7.24224e-09
1.23987e-08
7.67116e-09
1.10319e-08
1.20871e-08
1.36887e-08
2.1015e-08
1.70198e-08
2.85807e-08
0.000356972
0.000288538
0.000266459
9.92561e-08
7.80293e-08
1.31414e-07
1.4854e-07
1.19277e-07
1.85615e-07
1.52394e-08
9.5651e-09
5.69179e-09
9.01229e-09
2.85883e-07
2.68564e-07
2.14212e-07
2.20836e-07
1.73645e-07
1.30535e-07
0.00609602
0.00571012
0.00474326
0.00672188
5.69748e-07
4.56383e-07
4.23489e-07
0
0
0
0
0
0
0
0
0
0
0
0
0
0
9.48288e-05
8.46174e-05
6.51914e-05
0.000100484
4.44597e-05
3.94541e-05
4.70246e-05
0.00104718
0.000809062
0.000980562
0.0011889
0.00083331
0.00124402
0.000440747
0.00109802
0.00094541
0.000374426
0.000250027
0.000264936
8.60523e-05
7.53778e-05
6.34124e-05
0.000163757
0.000127293
0.000114256
3.18056e-05
2.66357e-05
2.80417e-05
3.74742e-06
4.65275e-06
4.50827e-06
6.14754e-06
0.0206168
0.0199673
0.0220325
0.0171373
4.0301e-06
3.04014e-06
2.46172e-06
0.0141889
0.0137601
0.0152865
0.0117325
0.00165577
0.00128248
0.00107353
0.000880347
0.000686757
0.000722706
1.86003e-09
1.85664e-09
1.44147e-09
2.52299e-09
1.35837e-09
7.69243e-10
1.0563e-09
2.46447e-09
1.90885e-09
1.41019e-09
0.0106235
0.0103054
0.00916565
0.00937506
0.00829158
0.00727619
0.00198591
0.00214984
0.00205254
0.000918697
0.000886506
0.000807338
0.000202417
0.000167663
0.000162806
0.000146611
0.000657997
0.000564297
0.000567993
0.000495763
0.118316
0.125204
0.110786
0.117657
0.116641
0.111092
0.101694
0.10787
0.0931512
0.00235177
0.00261317
0.00276418
0.00250522
0.113467
0.107559
0.0975064
0.111403
0.107945
0.0968535
0.0890863
0.105349
0.0961084
0.092107
0.0904811
0.000700513
0.000664435
0.000743472
0.000587299
0.00065166
0.000662523
0.000581378
0.000484125
0.000447955
0.00039395
0.13981
0.14602
0.12995
0.0773122
0.0619012
0.0643665
0.000185909
0.000145141
0.000122439
0.000129381
2.0651e-05
2.192e-05
1.66383e-05
1.33048e-05
1.00947e-05
1.38211e-05
7.50747e-06
6.55261e-06
7.49933e-06
0.0202933
0.0181529
0.0161523
2.26961e-08
3.44729e-08
3.77049e-08
4.68333e-08
7.7117e-08
5.12066e-08
5.17373e-08
7.67068e-08
8.51731e-08
6.21121e-08
8.40042e-08
9.3492e-08
0.0117106
0.0115009
0.0130815
0.00878088
0.00750738
0.00968096
0.0143874
0.0139065
0.012367
0.0156297
0.00908127
0.00790047
0.00892795
0.0060652
0.0080599
0.00536084
0.00463158
0.00528123
2.15258e-06
1.93957e-06
2.17007e-06
1.72828e-06
1.71609e-06
1.55651e-06
1.54226e-06
1.36591e-06
1.33697e-06
1.06322e-06
1.89456e-06
1.26418e-06
1.13143e-06
9.72092e-07
4.59619e-07
5.2487e-07
3.57351e-07
0.0966825
0.0888264
0.0873818
0.082976
0.0765604
0.0773928
0.0708268
7.44448e-07
7.18836e-07
4.69105e-07
6.79939e-07
5.55809e-07
6.30019e-07
4.19525e-07
7.35944e-07
6.23949e-07
4.67802e-07
0.0597518
0.0543343
0.0546113
0.0497862
0.0485364
0.043204
0.0419203
0.0409895
0.0367339
0.036734
0.033364
5.446e-05
3.68273e-05
4.4404e-05
0.00602169
0.00630524
0.00563815
0.00200782
0.00189614
0.00177982
0.00132033
0.00132175
0.00116135
2.4193e-07
2.13609e-07
1.64653e-07
2.60431e-07
0.00822399
0.00796066
0.00891363
0.00670653
1.65093e-08
1.6444e-08
1.29337e-08
3.17494e-09
3.3208e-09
2.45599e-09
1.98753e-09
7.10424e-10
1.31264e-09
7.77689e-09
7.38325e-09
9.64626e-09
2.09522e-08
1.56889e-08
2.5264e-08
1.76208e-06
1.20058e-06
9.45258e-07
5.02964e-08
4.27574e-08
2.7786e-09
3.18582e-08
5.0631e-08
0
0
0
0
0
0
0
0
0
0
2.11114e-09
1.15547e-09
2.29662e-09
0
0
0
0
0
0
8.00906e-10
6.16641e-10
4.51507e-10
5.94323e-10
0
0
0
0
0.000970481
0.00103578
0.000885501
0.209515
0.202841
0.192479
0.205608
0.19915
0.188996
0.18261
2.24349e-07
1.60337e-07
1.90411e-07
2.24126e-07
1.54013e-07
2.18128e-07
1.01437e-07
1.80848e-07
2.05256e-07
1.45828e-07
1.0481e-07
8.78291e-08
1.02129e-07
7.07799e-08
5.73146e-06
6.0576e-06
7.88277e-06
3.68304e-06
2.66061e-06
4.31767e-06
9.69118e-06
8.84223e-06
1.07589e-05
1.97587e-06
2.04418e-06
1.09904e-06
0.00437378
0.00438179
0.00368895
3.90725e-07
4.38277e-07
3.64548e-07
0.00306528
0.0030178
0.00344173
0.00250859
0.0491128
0.0534081
0.0458457
0.0578183
0.0618098
0.0523065
0.042335
0.04117
0.0446549
2.53562e-05
2.27737e-05
1.51621e-05
0.0493059
0.0439404
0.0535127
0.021827
0.0219491
0.0198144
0.0289234
0.0326458
0.0292607
0.0230949
0.0240972
0.0225348
0.000310208
0.000264935
0.000294985
0.000209568
9.45737e-06
8.78795e-06
9.75452e-06
0.01736
0.0178385
0.0193328
0.0163221
0.0121991
0.0123626
0.013552
0.0110578
1.17525e-05
8.75555e-06
7.65017e-06
4.92797e-06
3.52729e-06
3.1052e-06
0.000149324
0.000145576
0.000171623
0.00011676
1.99003e-09
1.37295e-09
1.09711e-09
7.46653e-10
4.40155e-10
7.73375e-10
6.37642e-10
4.58639e-10
0.0116145
0.0089127
0.00695663
0.00674949
0.0075828
0.00566842
0.00458905
0.00443351
0.00499953
0.00369463
4.60168e-10
1.23046e-09
1.63948e-09
1.58352e-09
2.10054e-09
9.57698e-10
9.29439e-10
7.29295e-10
2.67173e-09
2.11093e-09
3.53835e-09
1.04797e-07
7.78118e-08
1.20718e-07
4.81762e-08
2.95059e-08
4.61519e-08
0.0169937
0.0176649
0.0203305
0.0163375
0.0187322
0.0188372
0.0236729
0.0237675
0.0268655
0.000306127
0.000249537
0.000235845
0.000217604
7.31339e-10
9.9062e-10
1.02523e-09
1.24724e-09
1.7381e-09
2.3524e-09
1.67964e-09
1.47996e-09
2.01954e-09
2.16608e-09
0.0285515
0.0306073
0.035143
1.22536e-08
9.67387e-09
7.15123e-09
0
0
0
0
0
0
0
0
0
0
0
0
0
6.2457e-07
4.16099e-06
3.66091e-06
4.2645e-06
2.77058e-06
1.55663e-06
1.80379e-06
1.16983e-06
0.000962738
0.00078155
0.00110357
3.22308e-08
2.76473e-08
4.40373e-08
2.45722e-08
2.65797e-08
2.18532e-08
3.53096e-08
0.113475
0.103464
0.104574
0.095014
1.31722e-08
1.13965e-08
8.84159e-09
1.04804e-08
9.92526e-09
7.02729e-09
5.91868e-09
4.77987e-09
5.11968e-09
3.95751e-09
3.78042e-06
2.96573e-06
2.39699e-06
1.88059e-06
1.56732e-06
1.22236e-06
1.90222e-06
9.35484e-09
7.64259e-09
6.26944e-09
7.14427e-09
1.5142e-06
1.18814e-06
9.52734e-07
1.00094e-06
1.51724e-06
1.19135e-06
9.90451e-07
1.37003e-05
1.43518e-05
9.05614e-06
0.102529
0.0966767
0.0870567
0.0837089
0.0778106
0.0932067
0.0728436
0.0677455
0.0601069
0.0693944
0.094484
0.0874966
0.0861002
8.22427e-09
6.65769e-09
5.52624e-09
5.81734e-09
3.7325e-09
3.03265e-09
2.5318e-09
2.63703e-09
3.43087e-09
2.81931e-09
3.19715e-09
0.0980475
0.105743
0.0898636
0.110286
0.105664
0.0986883
0.0814867
0.0787613
0.08562
0.0730695
0.000583693
0.000464091
0.000695181
0.000753117
0.000544625
0.000805678
0.00128523
0.00103265
0.00150861
0.0779758
0.0729511
0.0651434
0.0754719
0.0756746
0.0678622
0.066249
0.0631574
0.0704943
0.0627192
0.0606116
0.05823
1.5661e-05
1.28959e-05
2.06867e-05
8.57081e-10
6.98459e-10
5.74513e-10
6.45763e-10
0.000594472
0.000523352
0.000423988
0.000568375
0
0
0
0
0
0
0
0
0
0
0
0
0
3.31812e-06
2.93775e-06
2.17746e-06
3.62613e-06
0.000226821
0.000265752
0.000385744
0.000245159
0.000396492
0.000433374
0.00060104
0.000646916
0.000858203
0.000591133
0.00025509
0.000282679
0.00039492
0.000257017
5.09112e-07
3.86566e-07
3.13819e-07
0.0329251
0.0281324
0.0293206
0.0169737
0.0144108
0.0151375
0
0
0
0
0
0
6.84322e-07
5.60562e-06
4.72647e-06
3.38919e-06
5.50619e-06
0.00859415
0.0082101
0.00701161
0.00755474
0.00674698
0.00603006
3.99748e-10
3.68037e-10
3.45059e-10
1.32605e-09
1.42165e-09
1.96819e-09
0
0
0
9.31511e-10
7.54954e-10
1.33325e-09
2.86181e-09
2.97221e-09
4.06566e-09
5.87175e-09
2.32729e-08
3.07636e-08
3.17833e-08
3.75874e-08
4.13854e-08
5.08972e-08
6.59554e-08
5.24233e-08
6.4964e-08
1.58307e-07
1.40801e-07
1.38598e-07
0.000101055
0.00011536
0.000100911
0.000134636
0.000195723
0.000175702
0.000136808
0.000207929
1.35374e-05
1.22221e-05
1.15812e-05
6.56004e-06
5.03922e-06
4.6183e-06
4.25932e-06
5.0686e-05
4.03119e-05
3.83245e-05
3.45233e-05
1.42905e-10
1.04062e-10
1.07339e-10
3.0281e-05
2.03148e-05
2.72599e-05
2.32096e-05
1.82139e-05
1.72781e-05
0.0530711
0.0461959
0.041597
0
0
0
0
0
0
0
0
0
0
0
0
0
0
0
0
0
0
0
0.00300093
0.00294586
0.00265085
0.00249087
0.0022041
0.00185456
0.00198795
0.00168193
0.00148194
1.75176e-05
1.37515e-05
1.34902e-05
1.14031e-05
0
0
0
0
0
0
0
0
0
0
0
0
0
5.04394e-08
4.24248e-08
3.13155e-08
4.96239e-08
0.000404669
0.000368537
0.000316248
0.000413058
0.000363876
0.000323631
1.06984e-07
7.9615e-08
6.79185e-08
1.46097e-10
1.00355e-10
1.51034e-10
0
0
1.14513e-10
1.18594e-09
1.6389e-09
1.70173e-09
4.14195e-09
3.24707e-09
2.38092e-09
3.23914e-09
1.09217e-10
0
0
0.00019356
0.000153352
0.000136905
0.000733597
0.000644784
0.000530276
0.000695239
0.000568944
0.00052948
0.000500277
0.000589313
0.000487091
0.000465165
0.00042663
4.92895e-08
4.2273e-08
3.22676e-08
3.60006e-09
4.9674e-08
1.45706e-05
1.30076e-05
9.17024e-06
1.83111e-05
1.15202e-05
8.55453e-06
1.13692e-05
1.09701e-05
1.09147e-05
1.99066e-05
1.16829e-05
7.05279e-06
9.99791e-06
0.0563748
0.102964
0.0509505
0.0536995
0.0439831
6.09077e-05
6.68508e-05
8.47516e-05
3.40761e-05
2.66953e-05
2.46549e-05
0.000696251
4.95669e-08
0.000582786
1.75203e-05
0.000294181
0.000290799
0.000242556
2.68689e-06
1.73165e-06
2.99649e-06
8.04536e-07
5.0453e-07
9.60272e-07
1.12294e-06
1.0083e-06
7.44512e-07
1.28235e-06
0.00419957
0.00370827
0.00308461
0.00382006
1.25539e-07
1.04335e-07
1.12333e-07
8.81534e-08
0.231879
0.185818
0.225812
0.226481
0.220513
0.18247
0.173527
0.16953
5.06394e-08
4.89812e-08
3.43954e-08
2.88167e-08
2.34591e-08
2.50947e-08
1.95394e-08
0.114704
0.081519
0.102282
0.0912874
0.105342
0.000397248
0.000386914
0.000347771
2.41646e-06
2.22e-06
2.88338e-06
1.51303e-06
0.000563576
2.00263e-07
2.297e-06
0
0
0
0
0
0.213985
0.211196
9.77607e-05
2.28592e-05
7.64128e-05
5.82245e-07
8.46725e-05
0
0
1.00443e-09
0
4.91325e-06
4.1503e-06
2.94553e-05
4.43602e-06
0.000176113
1.63023e-05
1.40567e-05
6.11631e-05
1.48754e-05
0.000406899
0
0
0
0.000281757
2.20666e-05
1.84234e-05
0.000313913
5.80068e-05
0
0
1.92804e-09
3.19353e-10
2.67545e-09
0
2.84156e-10
6.92686e-06
5.21529e-06
4.14766e-06
7.29592e-06
0.000350229
0.000270078
8.26176e-06
0.00033271
9.65227e-06
8.07956e-06
8.69994e-06
9.42676e-05
0.0212095
0.000263897
0.023361
0.0280432
0.158933
1.58524e-08
2.44532e-06
1.45547e-06
0.161095
1.69481e-08
0.164547
0.148197
0.000181183
9.31658e-07
0.000205745
1.63611e-06
0.000150636
9.01368e-07
1.83742e-08
1.00279e-08
0.0379443
1.48268e-08
0.129759
0.0361853
0.135814
3.0582e-08
5.94073e-06
2.72195e-06
5.89578e-06
0.0229905
6.65599e-05
0.0187268
0.0198493
0.0149881
4.10721e-05
0.0207414
5.72451e-06
3.17174e-08
2.68679e-08
1.30814e-08
1.93275e-08
6.39772e-06
0.0201846
0.0168139
0.0208971
0.0255178
5.78134e-06
0.0215866
8.32805e-06
6.12744e-08
4.21959e-08
9.41074e-08
1.40233e-06
1.13087e-06
1.07635e-06
1.6186e-06
0
0
0
2.43655e-10
1.79167e-10
0.000136462
0.00923936
0.00894359
0.00819684
5.58807e-06
7.33574e-10
4.68027e-08
5.90573e-10
8.92879e-10
6.20226e-08
0.0352254
0.0333355
1.21495e-05
7.57409e-05
9.61239e-05
7.12375e-05
0.000115792
4.88127e-05
6.90089e-05
1.97317e-05
6.64174e-07
1.07674e-06
2.63758e-07
5.29347e-05
3.60696e-05
9.44359e-05
6.78242e-07
5.3144e-07
0.00406246
0.00919176
0.00537522
0.00840094
0.00744824
0.00298381
0.00830984
0.00779667
0
0
0
0.000190177
0.000132691
7.45546e-06
0
0
0.00495407
0.00322917
0.00531693
1.29961e-07
2.14033e-09
1.85274e-09
1.70168e-07
0
0
1.33438e-10
0
0
0.00300766
0.00236182
0.00248531
0.00080027
0.00270409
0
0
1.04506e-10
3.17336e-10
0.00238253
0.00208751
0.00283867
0.00173929
0.00171448
0.00312796
0.00215818
0.00152191
0.00191804
0.00187071
0.00157921
0.00181355
0
0
0.00160857
0
1.48395e-05
1.312e-05
2.752e-05
2.60045e-05
1.60163e-05
1.67299e-06
0.00303754
0.00108662
0.00101109
0.00116297
0
0
0.000826371
0.000862568
0
0.0010407
0
7.1427e-10
5.54324e-10
5.02066e-08
5.11083e-10
3.73193e-08
2.97602e-08
0.0362421
0.118923
0.00303994
1.04407e-05
0.00257461
7.03912e-06
2.84985e-05
0.00163834
0.00294479
3.3372e-05
3.13239e-05
5.66764e-07
2.45716e-05
4.82256e-07
0.00264065
0.0213237
0.0206321
0.0183548
1.08486e-05
0.0178154
0.0209749
0.019017
0.0165849
0.0330469
0.0189635
1.41564e-05
0.00184249
0.0472004
0.0874696
0.118116
8.71974e-08
5.84502e-09
0.000443548
0.000399223
2.79593e-05
2.95128e-05
0.00031854
2.45952e-05
2.49164e-05
0.00222486
0.00201084
0.000142858
0.000136583
0.00271319
0.000172254
0
1.0295e-09
0
7.65303e-10
2.37258e-10
4.38735e-07
3.25308e-07
0.00697357
1.62863e-05
0.00534999
0.00354812
0.00608479
1.25766e-07
1.03383e-07
4.80671e-09
2.68994e-06
2.34145e-06
6.62968e-07
1.87386e-10
0
2.36684e-07
2.91883e-07
0.00171051
0.00173309
0.0385861
0.000634015
0.000155664
0.000247215
0.00136091
8.02617e-06
9.95171e-08
2.70207e-06
2.50314e-06
2.40064e-06
0.000564255
0
1.01966e-05
0.00192271
0.123051
0.0573052
0.085712
0
1.04572e-10
0
0
0
1.62193e-05
0.000377205
0.000988735
1.71859e-08
7.75523e-10
1.17595e-08
2.11805e-05
0.000391746
0.000113073
0.0296375
0.0387832
0.000161773
2.07511e-05
0.00017435
0.0256445
2.06344e-07
1.54758e-07
3.90261e-07
1.90562e-07
9.71244e-10
1.2327e-05
1.44967e-05
0.0226539
2.21779e-05
0.0267673
1.32033e-05
0.0235064
0.00145851
0.00171801
0.00126914
0.00353654
4.24628e-10
3.46217e-10
1.91713e-05
1.11269e-05
1.00358e-10
4.34846e-10
3.33262e-10
2.4516e-10
0
0
0
0
1.28985e-06
2.77919e-07
1.89001e-07
1.62741e-06
3.19696e-06
8.10675e-08
4.87798e-07
1.58123e-07
3.7944e-07
8.98145e-07
2.88943e-07
2.15863e-07
4.48973e-07
0.0449392
0.0177109
0.0393612
0.00287868
0.123712
9.57883e-07
3.37316e-07
9.9189e-07
1.65919e-07
2.39266e-07
2.59001e-07
2.70251e-07
1.52628e-06
5.88375e-05
5.60986e-05
5.17719e-07
6.74872e-07
6.50464e-05
4.46419e-05
5.65469e-07
4.29321e-06
3.41911e-07
2.77088e-06
3.88328e-07
6.55027e-07
7.04444e-06
0.00568316
0.000924869
0.000917431
0.000799846
0.00225181
0.000652263
0.000803452
0.000817763
0.000308658
0.0866641
0.0234993
0.0841963
0.00295748
0.0190897
0.0351003
1.51456e-08
1.69243e-07
2.28176e-08
2.41203e-08
1.56064e-06
2.64143e-07
0.0348339
9.66691e-06
0.035531
0.044815
0.0309884
4.37082e-06
4.11166e-06
0.00125816
3.25369e-08
1.65794e-06
4.7275e-06
0.00419612
0.00669338
0.0035051
0.00271326
0.00306772
0.00244998
4.98409e-06
0.00341562
4.39685e-10
0.0790865
0.0327187
0.0491225
0.00337526
3.00874e-05
4.67593e-10
2.49579e-10
2.43078e-09
4.24022e-06
2.40167e-09
0.00310317
2.19968e-05
0.00266258
5.05043e-08
4.14893e-07
3.71294e-08
2.05951e-06
0.0372048
0.140634
0.15649
0.144325
1.91905e-06
1.36174e-05
2.41288e-06
0.0119274
0.0110961
0.0100891
0.0102936
0.00502503
0.0104511
0.0104702
0.00908622
0.00925908
0.00762954
0.0102276
0.00820512
0.0075907
0.0032655
0.00749144
0.0112918
0.00669899
0.0095282
0.000432484
1.00476e-10
4.84656e-09
1.78787e-09
0.000133295
0.000199301
3.34432e-10
5.7923e-07
1.47344e-06
4.09645e-07
0.000124311
0.00164061
8.5271e-09
3.57287e-10
7.01916e-09
1.96761e-10
2.53649e-10
0.0019065
0.00188193
0.00042168
2.81976e-06
0.000354197
0.000165645
0.000422449
4.48396e-06
0.167008
0.163439
0.169462
0.0409439
0.152771
3.34842e-05
1.53772e-07
1.30583e-07
2.65491e-05
8.33478e-06
3.18099e-05
0.000487685
0.000544841
1.04339e-08
9.29719e-09
0.0239103
0.00026714
4.23685e-05
1.28038e-08
1.0496e-08
0.00049323
2.3527e-08
2.91418e-09
2.30248e-08
1.27539e-08
0
0
5.9431e-09
3.00023e-09
6.57448e-09
7.07704e-09
4.96678e-09
6.37516e-06
6.49055e-09
1.63179e-08
9.46699e-09
1.00236e-08
7.4983e-08
9.8331e-09
7.42613e-10
8.67676e-10
6.34224e-10
0.015363
0.0192512
0.0991677
0.142767
0
2.06029e-10
3.54409e-05
1.71383e-10
1.64569e-05
1.23781e-05
1.17887e-05
6.15704e-05
0.204126
0.202701
5.54686e-05
4.3482e-05
4.29789e-05
0.000193503
3.58998e-05
0.000115982
2.69482e-07
0.000329584
3.32049e-07
0.000295554
9.19687e-05
3.59768e-07
0.000287479
0.000128323
3.95144e-07
4.48014e-07
5.97486e-07
4.48974e-08
0.00253147
0.0248206
0.0227323
0.0208661
0.000641699
5.52288e-06
0.0217715
0.0234907
0.000581499
0.000224427
6.69241e-05
0.000503692
8.83801e-05
0.000422096
0.000157175
0.000457865
0.000122362
0.000958229
3.35998e-06
0.00022667
1.37526e-06
0.00100538
0.000160037
0.000134134
0.116167
0.0778364
0.000202483
0.00137445
0.000942093
0.000162358
0.0514425
0.0892402
0.10976
0.105153
1.23727e-05
1.03921e-06
1.15929e-05
1.63791e-08
2.15061e-08
4.8087e-10
1.74034e-05
1.88541e-05
4.08541e-10
0
2.43378e-10
3.56178e-10
7.50391e-06
5.621e-05
5.51415e-05
8.83228e-05
7.26714e-06
0.000148423
7.74943e-06
4.30368e-05
1.01723e-05
4.15658e-05
0.000213173
1.0357e-10
0.141375
0.132485
0.120238
8.72449e-05
3.8571e-07
7.47256e-05
1.08592e-05
5.98834e-05
2.58746e-05
7.29715e-05
2.66335e-07
0.055346
0.0454384
0.0526734
0.00102748
4.89029e-07
6.52844e-06
9.05844e-07
5.68381e-07
4.17641e-07
1.46598e-06
1.02022e-06
7.21506e-07
3.85205e-09
6.82432e-08
1.30603e-07
0.000378851
0.000639766
0.000134504
5.11886e-07
3.49263e-07
4.42988e-07
0.0023584
6.48023e-07
5.10236e-06
1.96838e-08
0
1.40698e-08
1.88472e-06
0
4.24433e-10
0.00499403
0.00217348
0.00589763
0.00179374
6.36199e-08
5.00916e-08
0.00121273
0.00117483
0.0159588
0.0451441
1.38385e-09
0.0353816
0.108608
0.0395163
0.0631748
1.9544e-05
9.01509e-07
3.40095e-05
0.00351523
0.00559639
0.0297613
0.104595
0.00490186
2.91949e-05
6.88875e-06
0.00427535
2.85073e-05
0.00475679
4.66377e-06
0.000960785
6.42323e-07
6.47853e-06
0.00372987
2.003e-05
1.91161e-05
0.0286562
0.0895341
7.82558e-10
1.85641e-05
0.003603
0.00234545
3.56181e-10
2.43715e-05
3.17737e-06
2.63753e-06
0
0.0785365
0.0423862
0.0246056
5.66537e-06
0.00145415
5.44728e-06
0.00124332
0.00101014
4.67417e-06
0.000981493
4.54353e-05
2.87385e-07
0.0110689
0.0111958
0.00010454
6.85386e-07
0.0100884
0.0025266
0.0020272
0.00250959
5.50137e-06
2.52267e-07
6.19365e-06
0.00196512
4.7451e-06
0.00164293
0.00164209
8.23824e-06
0.00178015
0.00129065
1.00138e-05
0.0015448
0.002229
8.54728e-06
0.0018851
6.57558e-06
0.00133662
0
7.80682e-06
2.18953e-05
0.00176204
6.75419e-06
1.19783e-05
0.00204553
1.21254e-05
3.88096e-10
5.32816e-10
0.00201748
0.000106769
0.00197784
8.17212e-05
0.00267073
0.000102735
0.002724
0.000138632
0.00302245
0.0785092
0.00141675
0.00323992
0.00405412
0.0776782
0.00177064
0.0046127
0.00214837
0.0655261
1.12288e-06
0.000111676
0.00147859
9.68051e-05
0.00391261
6.82993e-07
2.24008e-06
8.65626e-05
0.00332325
0.00107858
0.00440572
3.58094e-06
1.04667e-06
0.003974
5.23977e-07
8.38545e-07
7.97762e-05
0.000524767
0.00213027
9.05302e-05
0.00255907
6.11315e-07
0.000762426
8.40042e-05
8.92478e-05
8.45605e-07
0.00010377
0.000729371
0.0493135
0.00286871
0.00270126
0.000117401
9.49179e-05
9.12222e-05
0.00342877
0.00688514
0.00360821
0.000109096
0.00321165
6.34228e-05
0.00426972
0.000122697
7.66916e-05
0.00508685
0.000172325
0.0045604
0.000111082
0.00383439
9.24898e-05
5.69192e-06
6.48798e-06
4.8124e-06
7.24811e-05
1.18968e-05
6.43924e-05
6.2478e-06
6.31517e-05
4.64708e-06
0.000134366
2.0283e-05
0.000136935
1.57151e-05
1.83996e-05
0.000154999
2.3066e-05
0.00114208
0.00100747
0.00118478
0.00107513
8.54859e-05
5.71067e-05
4.35809e-05
4.81826e-05
2.91221e-06
2.22788e-05
5.26713e-05
5.20544e-05
7.13977e-05
4.64569e-05
4.74306e-05
8.25488e-05
2.28822e-07
2.28357e-07
1.666e-07
1.14556e-06
1.44257e-07
2.21214e-07
0.000621554
1.5217e-07