# vtk DataFile Version 2.0
Unstructured Grid by M++
ASCII
DATASET UNSTRUCTURED_GRID
POINTS 15808 float
  0.718750   0.625000 0
  0.718750   0.953125 0
  0.960938   0.882812 0
  0.734375   0.937500 0
  0.953125   0.882812 0
  0.726562   0.937500 0
  0.953125   0.875000 0
  0.507812   0.593750 0
  0.742188   0.531250 0
  0.945312   0.781250 0
  0.750000   0.726562 0
  0.960938   0.578125 0
  0.718750   0.640625 0
  0.726562   0.648438 0
  0.718750   0.648438 0
  0.789062   0.601562 0
  0.671875   0.914062 0
  0.765625   0.523438 0
  0.960938   0.804688 0
  0.734375   0.859375 0
  0.718750   0.867188 0
  0.726562   0.859375 0
  0.953125   0.796875 0
  0.515625   0.507812 0
  0.507812   0.515625 0
  0.945312   0.703125 0
  0.515625   0.531250 0
  0.515625   0.539062 0
  0.507812   0.546875 0
  0.945312   0.734375 0
  1.000000   0.671875 0
  0.765625   0.726562 0
  0.757812   0.734375 0
  0.750000   0.734375 0
  0.515625   0.796875 0
  0.515625   1.000000 0
  0.750000   0.937500 0
  0.523438   0.992188 0
  0.640625   0.679688 0
  0.523438   0.507812 0
  0.742188   0.632812 0
  0.867188   0.515625 0
  0.671875   0.851562 0
  0.789062   0.796875 0
  0.781250   0.796875 0
  0.789062   0.804688 0
  0.742188   0.671875 0
  0.507812   0.734375 0
  0.968750   0.617188 0
  0.734375   0.687500 0
  0.664062   0.648438 0
  0.578125   0.960938 0
  0.781250   0.531250 0
  0.773438   0.531250 0
  0.546875   0.789062 0
  0.750000   0.585938 0
  0.835938   0.562500 0
  0.812500   0.601562 0
  0.578125   0.867188 0
  0.804688   0.757812 0
  0.507812   0.992188 0
  0.742188   0.929688 0
  0.851562   0.976562 0
  0.851562   0.968750 0
  0.632812   0.617188 0
  0.789062   0.945312 0
  0.789062   0.937500 0
  0.781250   0.937500 0
  0.804688   0.531250 0
  0.640625   0.617188 0
  0.812500   0.929688 0
  0.804688   0.835938 0
  0.796875   0.835938 0
  0.773438   0.554688 0
  0.859375   0.867188 0
  0.835938   0.585938 0
  0.843750   0.593750 0
  0.812500   0.632812 0
  0.578125   0.898438 0
  0.570312   0.898438 0
  0.695312   0.585938 0
  0.984375   0.570312 0
  0.773438   0.507812 0
  0.789062   0.687500 0
  0.546875   0.960938 0
  0.867188   0.671875 0
  0.875000   0.664062 0
  0.875000   0.656250 0
  0.882812   0.585938 0
  0.796875   0.859375 0
  0.804688   0.867188 0
  0.867188   0.898438 0
  0.859375   0.898438 0
  0.625000   0.960938 0
  0.835938   0.617188 0
  0.812500   0.960938 0
  0.804688   0.585938 0
  0.804688   0.609375 0
  0.804688   0.617188 0
  0.921875   0.875000 0
  0.687500   0.929688 0
  0.914062   0.875000 0
  0.507812   0.765625 0
  0.742188   0.703125 0
  0.945312   0.953125 0
  0.835938   0.875000 0
  0.625000   0.523438 0
  0.867188   0.960938 0
  0.859375   0.960938 0
  0.835938   0.703125 0
  0.804688   0.640625 0
  0.804688   0.851562 0
  0.578125   0.906250 0
  0.953125   0.593750 0
  0.507812   0.796875 0
  0.945312   0.984375 0
  0.992188   0.718750 0
  0.828125   0.921875 0
  0.835938   0.906250 0
  0.601562   0.968750 0
  0.625000   0.554688 0
  0.585938   0.820312 0
  0.578125   0.820312 0
  0.820312   0.828125 0
  0.820312   0.835938 0
  0.835938   0.710938 0
  0.796875   0.757812 0
  0.554688   0.820312 0
  0.773438   0.664062 0
  0.546875   0.929688 0
  0.507812   0.695312 0
  0.820312   0.609375 0
  0.734375   1.000000 0
  0.976562   0.929688 0
  0.742188   0.984375 0
  0.507812   0.726562 0
  0.531250   0.601562 0
  0.945312   0.914062 0
  0.750000   0.539062 0
  0.515625   0.601562 0
  0.507812   0.804688 0
  0.789062   0.710938 0
  0.781250   0.710938 0
  0.781250   0.703125 0
  0.515625   0.703125 0
  0.523438   0.703125 0
  0.960938   0.890625 0
  0.867188   0.937500 0
  0.632812   1.000000 0
  0.984375   0.515625 0
  0.750000   0.570312 0
  0.515625   0.632812 0
  0.742188   0.578125 0
  0.851562   0.773438 0
  0.843750   0.765625 0
  0.789062   0.742188 0
  0.789062   0.734375 0
  0.781250   0.734375 0
  0.523438   0.734375 0
  0.750000   0.984375 0
  0.984375   0.906250 0
  0.507812   0.703125 0
  0.742188   0.640625 0
  0.945312   0.890625 0
  0.531250   0.578125 0
  0.859375   0.734375 0
  0.867188   0.734375 0
  0.859375   0.976562 0
  0.867188   0.968750 0
  0.507812   0.820312 0
  0.742188   0.757812 0
  0.507812   0.812500 0
  0.843750   0.796875 0
  0.851562   0.804688 0
  0.843750   0.804688 0
  0.585938   0.796875 0
  0.789062   0.773438 0
  0.804688   0.648438 0
  0.789062   0.765625 0
  0.781250   0.765625 0
  0.804688   0.593750 0
  0.804688   0.671875 0
  0.796875   0.671875 0
  0.804688   0.679688 0
  0.796875   0.687500 0
  0.671875   1.000000 0
  0.679688   1.000000 0
  0.921875   0.937500 0
  0.921875   0.929688 0
  0.570312   0.945312 0
  0.562500   0.945312 0
  0.742188   0.562500 0
  0.507812   0.625000 0
  0.976562   0.507812 0
  0.734375   0.781250 0
  0.507812   0.835938 0
  0.523438   0.710938 0
  0.734375   0.773438 0
  0.507812   0.828125 0
  0.820312   0.546875 0
  0.812500   0.546875 0
  0.820312   0.750000 0
  0.515625   0.726562 0
  0.882812   0.601562 0
  0.875000   0.601562 0
  0.828125   0.945312 0
  0.625000   0.585938 0
  0.820312   0.523438 0
  0.976562   0.539062 0
  0.507812   0.867188 0
  0.523438   0.742188 0
  0.734375   0.804688 0
  0.507812   0.859375 0
  0.843750   0.851562 0
  0.828125   0.562500 0
  0.820312   0.570312 0
  0.820312   0.578125 0
  0.828125   0.578125 0
  0.781250   0.828125 0
  0.781250   0.820312 0
  0.757812   0.539062 0
  0.515625   0.757812 0
  0.828125   0.976562 0
  0.625000   0.617188 0
  0.804688   0.726562 0
  0.796875   0.726562 0
  0.804688   0.718750 0
  0.796875   0.718750 0
  0.570312   0.585938 0
  0.781250   0.648438 0
  0.523438   0.765625 0
  0.984375   0.546875 0
  0.742188   0.609375 0
  0.742188   0.617188 0
  0.507812   0.679688 0
  0.734375   0.625000 0
  0.976562   0.617188 0
  0.765625   0.554688 0
  0.773438   0.593750 0
  0.976562   0.843750 0
  0.835938   0.992188 0
  0.835938   0.984375 0
  0.828125   0.984375 0
  0.507812   0.898438 0
  0.734375   0.835938 0
  0.851562   0.882812 0
  0.843750   0.882812 0
  0.820312   0.601562 0
  0.796875   0.734375 0
  0.796875   0.843750 0
  0.781250   0.843750 0
  0.789062   0.851562 0
  0.992188   0.914062 0
  0.781250   0.851562 0
  0.523438   0.843750 0
  0.750000   0.531250 0
  0.765625   0.515625 0
  0.757812   0.515625 0
  0.523438   0.578125 0
  0.515625   0.789062 0
  0.523438   0.781250 0
  0.757812   0.718750 0
  0.960938   0.968750 0
  0.859375   0.585938 0
  0.664062   0.609375 0
  0.804688   0.750000 0
  0.796875   0.750000 0
  0.859375   0.781250 0
  0.867188   0.789062 0
  0.859375   0.789062 0
  0.750000   0.640625 0
  0.734375   0.640625 0
  0.742188   0.648438 0
  0.507812   0.710938 0
  0.968750   0.585938 0
  0.734375   0.656250 0
  0.507812   0.906250 0
  0.742188   0.843750 0
  0.828125   0.617188 0
  0.828125   0.609375 0
  0.820312   0.625000 0
  0.812500   0.625000 0
  0.585938   0.890625 0
  0.585938   0.882812 0
  0.812500   0.828125 0
  0.757812   0.593750 0
  0.992188   0.523438 0
  0.750000   0.593750 0
  0.515625   0.656250 0
  0.828125   0.718750 0
  0.828125   0.710938 0
  0.820312   0.718750 0
  0.796875   0.867188 0
  1.000000   0.921875 0
  0.789062   0.578125 0
  0.992188   0.828125 0
  0.539062   0.695312 0
  0.531250   0.687500 0
  0.570312   0.750000 0
  0.750000   0.710938 0
  0.515625   0.773438 0
  0.742188   0.718750 0
  0.515625   0.976562 0
  0.625000   0.664062 0
  0.734375   0.867188 0
  0.851562   0.914062 0
  0.859375   0.906250 0
  0.625000   0.968750 0
  0.843750   0.914062 0
  0.609375   0.976562 0
  0.843750   0.906250 0
  0.523438   0.875000 0
  0.546875   0.757812 0
  0.750000   0.562500 0
  0.515625   0.625000 0
  0.765625   0.546875 0
  0.968750   0.609375 0
  0.757812   0.546875 0
  0.523438   0.609375 0
  0.523438   0.820312 0
  0.515625   0.820312 0
  0.960938   1.000000 0
  0.523438   0.812500 0
  0.515625   0.812500 0
  0.835938   0.531250 0
  0.882812   0.695312 0
  0.882812   0.687500 0
  0.859375   0.617188 0
  0.617188   0.687500 0
  0.875000   0.992188 0
  0.664062   0.632812 0
  0.898438   0.570312 0
  0.664062   0.640625 0
  0.804688   0.781250 0
  0.796875   0.781250 0
  0.804688   0.789062 0
  0.515625   0.828125 0
  0.750000   0.765625 0
  0.523438   0.835938 0
  0.757812   0.773438 0
  0.515625   0.835938 0
  0.515625   0.843750 0
  0.859375   0.812500 0
  0.867188   0.820312 0
  0.859375   0.820312 0
  0.507812   0.937500 0
  0.742188   0.875000 0
  0.828125   0.648438 0
  0.820312   0.656250 0
  0.812500   0.656250 0
  0.585938   0.914062 0
  0.710938   0.601562 0
  0.703125   0.601562 0
  1.000000   0.562500 0
  0.757812   0.625000 0
  0.523438   0.687500 0
  0.992188   0.554688 0
  0.750000   0.625000 0
  0.515625   0.687500 0
  0.523438   0.882812 0
  0.648438   0.570312 0
  0.640625   0.570312 0
  0.882812   0.500000 0
  0.789062   0.609375 0
  0.992188   0.859375 0
  0.507812   0.843750 0
  0.742188   0.781250 0
  0.531250   0.718750 0
  0.515625   0.851562 0
  0.750000   0.789062 0
  0.539062   0.726562 0
  0.539062   0.718750 0
  0.976562   0.906250 0
  0.742188   0.500000 0
  0.507812   0.562500 0
  0.570312   0.789062 0
  0.671875   0.945312 0
  0.960938   0.929688 0
  0.546875   0.617188 0
  0.851562   0.945312 0
  0.843750   0.937500 0
  0.609375   1.000000 0
  0.570312   0.554688 0
  0.523438   0.906250 0
  0.843750   0.773438 0
  0.828125   0.890625 0
  0.820312   0.890625 0
  0.617188   1.000000 0
  0.796875   0.523438 0
  0.914062   0.781250 0
  0.687500   0.835938 0
  0.750000   0.875000 0
  0.515625   0.937500 0
  0.781250   0.742188 0
  0.992188   0.804688 0
  0.765625   0.859375 0
  0.750000   0.867188 0
  0.968750   0.921875 0
  0.757812   0.859375 0
  0.523438   0.921875 0
  0.984375   0.796875 0
  0.976562   0.703125 0
  0.804688   0.539062 0
  0.914062   0.789062 0
  0.921875   0.789062 0
  0.687500   0.843750 0
  0.804688   0.820312 0
  0.820312   0.695312 0
  0.804688   0.812500 0
  0.796875   0.812500 0
  0.750000   0.703125 0
  0.515625   0.765625 0
[...]
CELL_DATA 30592
SCALARS scalar_value float 1
LOOKUP_TABLE default
0
0
0
0
0
0
0
0
0
0
0
0
0
0
2.16016e-08
1.3668e-08
1.0115e-08
6.04054e-09
3.4487e-09
2.80643e-09
2.28687e-10
2.12982e-10
1.57752e-10
2.90608e-10
2.83715e-10
2.0829e-10
3.76015e-10
0
0
0
0
2.98992e-10
2.08576e-10
1.80873e-10
1.65388e-10
5.16064e-07
4.24264e-07
2.84616e-07
5.55844e-07
4.47735e-07
5.44764e-07
2.39921e-05
2.75796e-05
2.22876e-05
3.82291e-05
4.27488e-05
3.4439e-05
2.49605e-05
4.25782e-05
3.03746e-05
2.5201e-05
1.4583e-05
1.01542e-05
1.76547e-05
0
0
0
0
0
0
8.67483e-06
7.79903e-06
5.89698e-06
4.88566e-06
5.30812e-06
6.38684e-06
4.33323e-06
0
0
0
0
0
0
0
0
0
0
0
0
0
0
0
0
0
0
0
0
0
0
0
0
0
0
0
0
0
0
0
0
0
0
0
0
0
0
0
1.14451e-08
7.4179e-09
5.61181e-09
8.09458e-09
1.24195e-09
1.03659e-09
1.32694e-09
8.36005e-10
1.44152e-05
1.49737e-05
1.17433e-05
1.04571e-05
8.18998e-06
5.8956e-06
0
0
0
0
0
0
0
0
0
0
0
0
0
0
0
0
0
0
0
0
0
0
0
0
0
0
0
0
1.62343e-10
1.06616e-10
0
0
0
0
0
0
0
0
0
0
0
0
0
0
0
0
0
8.29909e-08
7.13562e-08
4.68511e-08
1.03945e-07
0
0
0
0
0
0
0
0
0
0
0
0
0
0
0
0
0
0
0
0
0
0
0
0
4.05265e-08
1.2487e-08
3.15328e-08
4.15938e-08
2.26592e-08
3.85883e-08
3.06768e-09
2.76873e-08
1.99943e-08
1.95338e-10
0
0
1.00587e-10
0
0
0
0
0
0
0
0
0
0
0
0
5.70791e-07
4.89905e-07
6.15651e-07
3.33146e-07
0
0
0
1.97459e-07
1.77166e-07
2.26716e-07
1.22546e-07
4.91708e-08
2.88175e-08
2.03713e-08
1.13205e-08
6.50766e-09
6.48744e-09
0
0
0
0
0
0
0
0
0
0
7.20877e-07
8.30753e-07
6.67603e-07
5.05057e-07
4.0093e-07
2.79649e-07
1.0546e-05
1.13937e-05
9.34651e-06
1.2308e-09
1.07245e-09
9.55537e-10
1.03492e-10
0
0
0
1.20148e-09
8.32908e-10
7.13637e-10
6.59263e-10
0.000255064
0.000305883
0.000192752
0.000207232
0.000182223
0.00017297
0.000113245
0.000135849
8.32294e-05
2.16689e-05
2.37098e-05
2.80636e-05
1.9648e-05
0.000141762
0.00011909
8.64505e-05
0.000139831
0.000118851
8.49212e-05
6.75876e-05
0.000117208
8.57726e-05
7.22446e-05
7.13618e-05
6.86059e-07
5.3806e-07
6.02337e-07
4.02312e-07
3.22433e-07
2.92381e-07
2.43331e-07
2.28684e-07
1.715e-07
1.27047e-07
0.000298014
0.000347892
0.000226227
4.21303e-05
2.30353e-05
2.45999e-05
0
0
0
0
0
0
0
0
0
0
0
0
0
2.2038e-06
1.71949e-06
1.22519e-06
0
0
0
0
0
0
0
0
0
0
0
0
4.17679e-07
4.46563e-07
6.32559e-07
2.88497e-07
2.48245e-07
4.50241e-07
9.54264e-07
1.03147e-06
8.11921e-07
1.45266e-06
2.26138e-07
1.58446e-07
2.42857e-07
8.54383e-08
4.63233e-07
6.59263e-08
4.60351e-08
7.15325e-08
0
0
0
0
0
0
0
0
0
0
0
0
0
0
0
0
0
0.00010671
7.86616e-05
6.88033e-05
6.44771e-05
6.34704e-05
5.84219e-05
5.09895e-05
0
0
0
0
0
0
0
0
0
0
2.98939e-05
2.17672e-05
1.99757e-05
1.72589e-05
1.28016e-05
9.08295e-06
7.87863e-06
9.82619e-06
7.04193e-06
6.44461e-06
5.52507e-06
3.30125e-09
1.82283e-09
3.18959e-09
6.31045e-08
7.27706e-08
5.66249e-08
5.69183e-09
4.88916e-09
4.411e-09
2.99799e-09
3.39525e-09
2.65944e-09
0
0
0
0
5.62293e-08
5.07949e-08
6.5606e-08
3.48141e-08
0
0
0
0
0
0
0
0
0
0
0
0
0
0
0
0
0
0
0
0
0
0
0
0
0
0
0
0
0
0
0
0
0
0
0
0
0
0
0
0
0
0
0
0
0
0
0
0
0
0
1.75416e-08
2.07083e-08
1.49387e-08
0.000675087
0.000597357
0.000458422
0.000720479
0.000636971
0.000488514
0.000430303
0
0
0
0
0
0
0
0
0
0
0
0
0
0
0
0
0
0
0
0
0
0
0
0
0
0
1.9684e-08
1.88127e-08
1.27597e-08
0
0
0
8.08343e-09
7.45622e-09
9.8352e-09
4.97158e-09
0.00032105
0.000220041
0.000220798
0.000161198
0.000124988
0.000106132
0.000149385
0.000114453
9.8967e-05
2.19291e-08
1.66349e-08
1.06368e-08
8.77109e-06
6.48606e-06
1.13551e-05
6.77158e-05
4.42492e-05
4.33302e-05
8.02005e-05
7.77635e-05
5.01664e-05
3.25231e-05
2.70857e-05
1.97554e-05
1.53158e-10
1.06585e-10
1.29312e-10
0
5.30346e-09
4.12543e-09
3.73989e-09
1.21924e-05
1.00959e-05
1.20392e-05
7.18827e-06
4.19441e-06
3.46294e-06
4.20392e-06
2.40774e-06
0
0
0
0
0
0
0
0
0
0
0
0
0
0
0
0
0
0
1.96255e-07
1.05602e-07
4.39295e-08
3.86245e-08
4.97126e-08
2.59154e-08
1.54764e-08
1.40766e-08
1.83267e-08
9.57801e-09
0
0
0
0
0
0
0
0
0
0
0
0
0
0
0
0
0
7.47541e-07
8.61664e-07
1.24058e-06
7.60003e-07
1.08845e-06
1.19252e-06
1.98678e-06
2.17506e-06
3.07274e-06
1.35143e-10
0
0
0
0
0
0
0
0
0
0
0
0
0
2.65494e-06
3.23149e-06
4.66224e-06
0
0
0
0
0
0
0
0
0
0
0
0
0
0
0
0
0
0
0
0
0
0
0
0
1.34092e-09
8.6542e-10
1.93056e-09
0
0
0
0
0
0
0
9.59768e-05
6.96369e-05
6.83864e-05
5.38096e-05
0
0
0
0
0
0
0
0
0
0
0
0
0
0
0
0
0
0
0
0
0
0
0
0
0
0
0
0
0
0
0
5.42643e-05
4.55099e-05
3.21575e-05
3.09581e-05
2.50629e-05
4.39117e-05
1.86605e-05
1.52701e-05
1.06281e-05
1.75577e-05
4.86601e-05
3.86748e-05
3.88687e-05
0
0
0
0
0
0
0
0
0
0
0
0.000590325
0.000505135
0.000384821
0.000408764
0.000317879
0.000257595
0.000247957
0.000195538
0.000203484
0.000157764
5.40871e-10
3.4483e-10
7.61169e-10
8.54678e-10
4.43064e-10
9.28292e-10
2.53184e-09
1.63622e-09
3.41175e-09
1.86306e-05
1.55606e-05
1.09585e-05
1.88181e-05
1.56392e-05
1.1176e-05
9.84244e-06
9.22664e-06
1.56267e-05
1.09138e-05
9.07195e-06
8.97221e-06
0
0
0
0
0
0
0
3.67988e-10
2.96615e-10
1.9253e-10
3.9826e-10
0
0
0
0
0
0
0
0
0
0
0
0
0
0
0
0
0
1.75118e-06
1.65303e-06
2.37964e-06
1.31192e-06
1.73237e-06
1.56221e-06
3.03493e-06
2.7111e-06
3.61443e-06
2.148e-06
9.56823e-07
8.70123e-07
1.22869e-06
6.7995e-07
0
0
0
4.57033e-06
3.25795e-06
3.75686e-06
9.84102e-07
6.4855e-07
7.27701e-07
0
0
0
0
0
0
0
0
0
0
0
4.99411e-06
3.69802e-06
2.67108e-06
2.47652e-06
1.54656e-06
1.30817e-06
0
0
0
0
0
0
0
0
0
0
0
0
0
0
0
0
0
0
0
0
0
0
0
0
0
0
0
0
1.37874e-10
1.8632e-10
1.55916e-10
2.53496e-10
0
0
0
0
0
0
0
0
0
0
0
0
0
0
0
0
0
0
0
0
0
0
0
0
1.42181e-05
9.81206e-06
7.62614e-06
0
0
0
0
0
0
0
0
0
0
0
0
0
0
0
0
0
0
0
1.55884e-08
1.3972e-08
1.20536e-08
9.56561e-09
7.39852e-09
5.04509e-09
6.42914e-09
4.413e-09
3.41873e-09
0
0
0
0
0
0
0
0
0
0
0
0
0
0
0
0
0
0
0
0
0
3.83632e-09
2.89156e-09
2.12858e-09
2.91883e-09
2.13075e-09
1.64871e-09
0
0
0
0
0
0
0
0
0
0
0
0
0
0
0
0
0
0
0
0
0
0
7.20415e-10
5.57803e-10
3.72482e-10
6.19131e-10
4.11272e-10
3.47504e-10
3.18074e-10
5.01266e-10
3.36293e-10
2.88344e-10
2.61249e-10
0
0
0
0
0
0
0
0
0
0
0
0
0
0
0
0
0
0
1.70712e-05
0.00012908
1.33015e-05
1.57771e-05
9.08129e-06
0
0
0
0
0
0
3.26251e-10
0
2.5196e-10
0
0
0
0
0
0
0
0
0
0
0
0
0
0
1.34092e-08
1.03167e-08
6.8905e-09
1.16093e-08
0
0
0
0
0.0024731
0.000403757
0.00203987
0.00192581
0.00175685
0.000601774
0.000455686
0.000422188
0
0
0
0
0
0
0
0.000105839
2.66295e-05
7.72945e-05
5.60868e-05
8.72744e-05
2.80932e-10
2.38603e-10
2.20749e-10
0
0
0
0
5.59763e-06
0
0
0
0
0
0
0
0.00593816
0.00471989
0
0
0
0
0
0
0
0
0
0
0
0
0
0
0
0
0
0
2.10101e-10
0
0
0
1.00118e-10
1.29509e-10
0
1.23208e-10
0
0
0
0
0
0
0
0
0
0
0
0
1.74037e-10
0
0
1.48038e-10
0
0
0
0
1.81523e-06
1.22526e-07
2.6938e-06
0.00125289
0.000309749
0
0
0
0.000338645
0
0.000356383
0.00023223
0
0
1.22906e-10
0
0
0
0
0
0.00084348
0
0.00012368
0.000739567
0.000143822
0
0
0
0
4.87541e-06
4.11313e-08
2.81516e-06
4.42e-06
7.6849e-07
2.07689e-08
3.92298e-06
5.57579e-09
0
0
0
0
4.21034e-09
2.0119e-05
2.25797e-06
1.67056e-05
9.0136e-07
4.70307e-09
2.76257e-05
5.74047e-09
0
0
0
0
0
0
0
0
0
0
0
0
3.27341e-09
3.16101e-06
9.0121e-08
1.84923e-06
0
0
0
0
0
0
2.02946e-06
1.93446e-06
0
0
1.15307e-10
0
1.65229e-10
0
0
0
0
0
0
0
0
0
0
0
1.1932e-08
3.62302e-06
3.29713e-07
2.87803e-06
1.97406e-06
6.16384e-09
3.1789e-06
7.24174e-08
0
0
0
0
0
0
0
0
1.3277e-06
9.63501e-09
1.7208e-06
0
0
0
0
0
0
0
0
0
2.00447e-07
4.92124e-09
1.27346e-07
4.11754e-10
6.50642e-09
0
0
0
0
5.31377e-09
4.09405e-09
3.68811e-07
2.75349e-09
2.50711e-09
3.79827e-07
9.42096e-08
2.13078e-09
7.76156e-08
5.71739e-08
1.88487e-09
2.49959e-09
0
0
2.05061e-09
0
0
0
0
0
0
0
2.216e-07
1.47581e-08
6.80118e-10
9.00035e-10
0
0
4.50929e-10
8.88173e-09
0
7.51537e-10
0
0
0
0
0
0
0
0.000587942
8.94577e-05
2.60002e-08
5.40161e-10
2.28516e-08
2.88192e-10
7.92296e-10
3.90307e-09
2.90542e-08
0
0
0
0
0
1.82707e-08
5.30428e-07
7.55998e-05
3.64626e-07
6.16482e-08
3.26058e-07
5.1031e-05
5.93236e-06
2.88577e-07
2.39442e-06
4.89592e-05
7.47095e-08
1.53546e-05
1.17686e-05
8.98003e-05
0.000197314
0
0
2.43977e-10
1.98678e-10
0
2.53788e-10
1.28652e-10
0
0
7.07315e-09
5.62212e-09
9.88065e-09
2.01071e-09
1.07057e-08
3.79141e-09
0
0
0
0
0
0
0
4.3664e-07
1.05835e-09
2.3771e-07
3.01675e-08
4.15765e-07
0
0
0
0
0
0
0
0
0
0
1.26178e-05
1.08407e-05
6.78057e-06
6.2102e-10
4.26405e-09
1.19074e-09
1.01603e-05
3.49941e-08
0
0
0
0
1.09126e-09
0
7.41345e-08
2.12831e-05
0.000216465
2.02959e-05
8.67222e-05
0
0
0
0
0
1.00029e-10
1.76678e-10
1.83612e-09
0
0
0
0
1.89353e-10
1.73492e-07
3.59597e-06
1.6766e-05
2.53775e-07
0
2.25212e-07
2.25611e-06
0
0
0
0
0
1.57004e-08
1.49063e-08
3.07159e-06
2.36281e-08
1.62785e-05
1.14092e-08
1.63475e-05
1.50327e-09
4.07409e-08
1.1357e-09
3.532e-07
0
0
4.432e-08
2.10686e-08
0
0
0
0
0
0
0
0
0
0
0
0
0
0
0
0
0
0
0
0
0
4.77246e-06
0.00023425
3.28664e-06
3.35797e-05
0.000191489
0
0
0
0
0
0
0
0
0
0
0
0
0
0
0
0
0
0
0
0
0
5.31778e-08
6.22054e-10
1.34694e-08
4.66935e-10
1.27236e-07
3.07852e-10
1.1238e-08
5.11693e-10
0
2.6234e-05
0.000872116
2.6733e-05
7.30773e-05
0.000695028
0.000239376
0
0
0
0
0
0
6.50334e-05
2.7537e-08
4.15751e-05
3.33336e-06
4.18109e-05
0
0
6.31519e-09
0
0
0
2.86816e-07
1.70088e-06
1.57616e-07
5.27723e-09
1.41667e-07
4.49811e-09
1.38105e-10
5.05979e-07
0
1.65359e-05
0.000811569
0.000148813
4.12956e-08
1.02453e-09
0
0
0
0
0
1.91976e-08
1.22984e-09
1.33502e-08
0
0
0
0
2.14373e-06
0.001194
0.00139522
0.000919772
0
0
0
1.98741e-07
8.21841e-06
5.78588e-06
1.38495e-07
2.00339e-08
1.37368e-07
1.27579e-05
1.04476e-07
4.57205e-06
5.83733e-06
5.20896e-06
2.17257e-06
6.11055e-08
7.32998e-09
5.6279e-08
1.20491e-05
4.63022e-08
7.8622e-06
2.18566e-06
0
0
0
8.97736e-10
0
0
0
0
0
1.38103e-09
3.70009e-09
0
0
0
0
0
1.76882e-07
3.73401e-09
3.85692e-10
0
2.61645e-10
0
4.53708e-10
0
0.000356205
0.000301432
0.000344577
0.00168915
0.000225366
0
0
0
0
0
0
7.62798e-10
1.2279e-09
0
0
2.554e-06
1.50141e-07
4.46764e-08
0
0
1.65879e-10
0
0
0
0
0
0
0
0
0
0
0
3.51531e-09
0
0
0
0
0
0
0
0
0
0.000701048
0.000950209
4.48481e-05
0.000219289
0
0
1.01273e-09
0
0
0
0
0
0.00175102
0.00186281
0
0
0
1.46651e-10
0
0
0
1.92389e-09
0
1.44547e-09
0
0
1.60824e-09
0
0
0
0
0
1.09693e-08
1.18753e-05
9.91561e-06
7.14934e-06
1.38186e-09
0
1.18357e-05
6.66026e-07
4.78964e-10
9.0439e-10
0
3.96862e-10
0
2.82644e-10
2.59531e-09
3.22509e-10
2.23386e-09
8.71659e-06
1.60622e-08
1.32425e-09
0
1.43586e-09
9.03024e-10
5.34741e-09
0.00027707
4.29965e-05
1.62938e-09
2.75192e-09
1.32757e-09
6.81263e-09
6.22366e-06
0.00177043
0.00256145
0.00175341
0
0
0
0
0
0
0
0
0
0
0
0
0
0
0
0
0
0
0
0
0
0
0
0
0.00219929
0.00145869
0.00165888
0
0
0
0
0
0
0
0
1.70634e-05
9.76531e-06
1.59361e-05
2.26444e-06
0
0
0
0
0
0
0
0
0
0
0
2.57941e-09
6.57019e-10
0
0
0
0
2.53676e-05
0
0
0
0
0
0
0
0
2.49447e-08
3.16347e-09
1.04535e-06
2.12074e-09
0
0
2.72089e-06
2.23721e-06
6.97908e-07
0.00115997
0
0.00163853
4.44524e-05
0.00119884
0.000241122
0
0
2.35394e-09
2.25495e-08
1.54001e-07
0.00147136
4.27264e-05
1.21432e-07
1.70214e-09
6.87634e-10
8.46223e-08
1.36116e-09
1.39668e-07
1.64211e-08
6.35912e-06
0
4.46266e-10
6.65592e-08
5.54379e-10
4.32624e-10
0.00103872
2.60742e-05
0
7.16061e-10
7.59929e-08
1.03561e-08
0
9.79632e-10
0
0
0
2.73766e-05
3.06659e-06
0.000247615
0
2.09484e-08
0
1.43989e-08
2.39578e-09
0
9.71891e-09
0
0
4.10987e-06
1.41615e-07
0
0
3.92532e-06
8.993e-08
2.98921e-09
7.69995e-08
1.30352e-10
0
1.75006e-10
1.27003e-08
1.07746e-10
1.12938e-08
1.90691e-08
1.2107e-10
2.92856e-08
1.07984e-09
2.13596e-10
4.89144e-09
3.58379e-08
1.53092e-10
2.71097e-08
1.11624e-10
4.35896e-09
0
1.92201e-10
2.94015e-10
7.90681e-09
1.3943e-10
3.70659e-10
8.9734e-09
4.57098e-10
0
0
5.53695e-09
1.70964e-09
5.28104e-09
4.04624e-09
1.00915e-08
7.44952e-09
1.05684e-08
1.20081e-08
1.33722e-08
3.93371e-05
1.35491e-09
1.02359e-08
4.49899e-07
3.69817e-05
2.26678e-09
7.00932e-07
6.63851e-08
2.44376e-05
0
5.22965e-09
2.93323e-09
3.83005e-09
2.63001e-08
0
0
2.74553e-09
1.80631e-08
1.52026e-09
3.39953e-08
0
0
2.91897e-08
0
0
1.43658e-09
3.82551e-10
6.28252e-09
2.07232e-09
9.33834e-09
0
7.75131e-10
2.04856e-09
3.72896e-10
0
2.77765e-09
7.43815e-10
0.000970066
1.19858e-08
1.08391e-08
3.99494e-09
2.91058e-09
7.99472e-09
1.77474e-08
1.31822e-07
2.05395e-08
3.94154e-09
1.59409e-08
4.56473e-09
3.01059e-08
5.57222e-09
8.01278e-09
4.29056e-08
1.02499e-08
3.35513e-08
1.41549e-08
2.27411e-08
0
0
0
0
0
0
0
0
0
0
0
0
0
0
0
0
0
1.32376e-09
1.06286e-09
2.81526e-08
1.38801e-09
1.13695e-10
3.17455e-10
1.64819e-10
0
0
0
0
0
0
0
0
0
0
0
0
0
0
0
4.79938e-10
0
0
0
0
9.35908e-07
0
0
9.83501e-06
1.18939e-07
4.87585e-05
9.49341e-06
7.81234e-06
1.30075e-08
0
0
0.00222406
0.00165647
0.00166322
6.49837e-08
7.14552e-07
0
0
3.03795e-08
0
1.6951e-10
0
1.27866e-10
1.60555e-09
0
0
2.5569e-09
8.40385e-09
6.06538e-08
1.42626e-09
0.000501195
0.0004937
0.000597343
5.52077e-09
1.43274e-08
0.000381834
0.000778871
0.00076637
0.000639362
0
0
0
0
0.000781008
0.000274227
0.000957956
0.000622173
0
1.80336e-05
1.52259e-05
5.6233e-06
0
0
3.02637e-05
1.63286e-05
0
0
0
0
0
3.48711e-05
0
0
0
0
0
0
0
0
0
0
0
0
0
0
0
0
0
0
0
0
0
0
0
0
0
0
0
0
0
0
0
4.92082e-10
0
6.15154e-07
7.17863e-10
2.74777e-09
2.36578e-09
1.30422e-08
0
0
0
0
0
0
0
0
0
0
0
0
0
3.93094e-09
0
3.43414e-06
2.37589e-06
7.38868e-08
1.96404e-06
1.75438e-05
1.92393e-06
9.7581e-06
6.90218e-06
6.36257e-07
2.68435e-08
5.87802e-06
2.09486e-07
5.62964e-06
1.69534e-05
0
0
0
0
0
0
0
0
0
0
0
0
0
2.55943e-10
0
0
0
0
0
2.59045e-10
1.08938e-10
0
0
0
0
0
0
0
0
0
0
0
0
0
2.54745e-10
0
0
0
0
0
0
0
0
0
0
0
0
0
0
0
0
0
0
0
5.57521e-10
0
0
0
0
0
2.17807e-09
0
1.96581e-09
0
0
0
0
0
0
0
0
0
0
0
1.16802e-09
1.66179e-10
0
0
3.44653e-09
8.90932e-10
2.88297e-09
0.000157877
0
0
6.0959e-10
1.90017e-09
9.53754e-10
1.82981e-10
3.66447e-09
3.51599e-09
1.88421e-09
0.00136804
0.00140196
0.0010492
1.46069e-05
0
0
0
0
0
0
1.60521e-06
0
0
1.28322e-06
3.08369e-09
1.28123e-08
1.08447e-08
9.0489e-07
1.46234e-07
1.47099e-06
1.95051e-09
6.0908e-07
0
0
0
0
1.61344e-09
5.37049e-07
4.38666e-08
0
0
8.73044e-06
1.05092e-06
3.38741e-08
6.80989e-06
0
0
0
0.00117191
0
0
0
0
0
0
0
0
0
0
0
0
0
0
0
0
0
1.21822e-08
6.8432e-09
0
0
0
1.21509e-06
0
0
5.86178e-09
0
0
0
0
0
0
0
0
0
0
0
0
0
0
0
0
0
0
0
0
4.88273e-10
0
0
0
0
0
0
0
0
0
0
0
0
0
0
7.66996e-07
2.72274e-07
1.46245e-06
9.88153e-07
1.45509e-06
1.41878e-06
0
1.31884e-09
2.80952e-10
1.54687e-09
0
3.71266e-08
0
0
0
0
0
1.12391e-07
7.88685e-08
4.46482e-07
9.79814e-08
9.39672e-07
6.48368e-07
1.40608e-06
4.10092e-08
9.90511e-07
2.7954e-08
3.75849e-09
1.02412e-06
0.00183731
2.29762e-08
7.2901e-07
3.6455e-07
0
0
3.8971e-10
0
0
0
0
0
0
0
0
0
0
0
3.27568e-09
0
0
1.69848e-09
2.02233e-10
2.97475e-09
5.43902e-10
0
0
0.00275997
0.00305956
0.00219721
0.00568858
0.00383511
0.0040755
0
0
0
0
0
0
0
0
0
0
0
0
0
0
0
0
0
0
0
0
0
0
0
0
0
0
0
0
0
0
0
4.18223e-10
0
0
0
0
0
0
0
0
1.86432e-07
1.76526e-10
0
0
0
0
0
0
0
0
3.0882e-10
2.02517e-08
0
2.64962e-09
1.93976e-10
1.3852e-09
1.02531e-10
2.33549e-09
8.75567e-10
0
0
0
4.48607e-10
0
0
0
7.99976e-10
0.00133933
0.00104799
0
0.000871235
0.000929422
0.00043918
0.000387972
0.00038433
0
1.12474e-06
0
0
0
0
0
6.67996e-10
0
0
4.8468e-10
0
4.63326e-10
3.84838e-10
3.94891e-09
5.53584e-10
0
0
7.20002e-09
3.13899e-09
0
6.15907e-09
0
0
0
0
0
0
0
0
0
0
0
0
0
0
0
0
1.69132e-06
0
2.66764e-07
8.17749e-10
0
0
0
0
0
8.86673e-07
2.6823e-09
0
3.03165e-10
0
0
0
0
0
0
0
0
8.81292e-06
1.24101e-05
0
0
0
0
6.29963e-06
0.000105044
0
6.38655e-06
9.45797e-06
4.74015e-06
0
0
0
0
0
0
0
0
0
0
0
0
0
0
0
0
0
0
0
0
0
0.000310714
0.00142031
0
0
0.000232999
0.00115643
0.00019576
0
0
0.000201136
0
3.6144e-09
0
0
0
0
0
0
3.17732e-07
7.09583e-06
0
1.56074e-07
9.62553e-06
0
0
1.25976e-06
4.58324e-06
1.0449e-06
1.214e-06
3.08304e-06
0.000731996
0.000143222
9.93955e-05
0.000513738
1.6448e-08
6.32099e-10
9.44577e-10
1.31333e-06
0
1.1378e-10
0
1.34922e-06
0
7.36941e-10
7.38712e-07
7.49649e-08
0
0
0
0
3.29917e-10
0
2.59607e-10
0
0
1.84882e-10
0
0
0
2.73601e-10
0
0
0
0
0
0
0
0
0
0
0
0
0
0
0
0.00497815
0
0.00400348
5.19282e-06
0
0
0
0.00387056
0.00337234
0
0
7.52615e-09
3.16366e-07
4.93619e-08
0
5.48165e-09
1.73479e-09
0
0
0
9.24021e-09
0
0
3.48514e-07
1.26997e-09
0
0
3.34095e-06
0
0
0
0
0
0
0
0
0
0
0
0
0
0
0
0
0
0
2.36958e-10
0
0
0
2.15743e-10
0
0
0
2.93264e-10
0
2.66808e-10
5.21071e-08
0
0
0
0
2.30333e-06
2.02636e-07
0
4.34292e-05
0.0012259
0.000337649
1.10008e-07
8.88249e-10
0
0
0
0
2.28389e-10
0
0
1.33524e-05
1.66425e-08
0
0
0
0
0.00133988
0.000268513
0.00145824
0
0
0.00032595
0
0.000306508
0
0
0.000201444
0.00106712
0
0
0
0.000736334
0.000645053
0.000111518
0.000524622
8.47286e-05
0
0
0.000126623
0
0
0
3.40424e-08
1.2502e-09
0
0
0
0
0
0
0
0.000256717
0
0
0
0.000195027
0.000987307
0.000168541
0
0
0.000295127
0.00133002
0
0
0
0
0.000304631
0.00138394
0
0
0
0
0
0
0
0
0
0
0
0
2.38329e-10
1.81148e-09
1.43434e-08
0
0
0
0
0
7.82337e-08
0
0
0
0
2.20495e-08
0
0
0
0
0
0
0
0
0
0
1.02623e-07
3.51793e-09
0
0
0
0
0
0
0
0
0
0
0
0
0
0
0
0
0
0
0
0
0
0
0
0
0
0
0
0
0
0
0
0
0
0
0
0
0
0
0
0
0
0
0
0
0
0
0
0
0
0.00251586
0
0
0
0
0
0
0
0
0
0
0
0
0
0
0
0
0
0
0
0
0
0
0
0
0
0
0
0
0
0
2.00357e-07
3.2871e-06
4.34605e-07
0
0
0
0
0
0
0
0
0
9.73602e-05
5.11954e-06
3.56893e-10
4.15772e-10
1.84247e-09
8.1424e-06
7.19832e-05
4.52354e-06
0.000105667
3.80117e-06
8.76334e-09
0
0
0
0
0
0
0
0
0.00014739
0
0
0
0
0
2.50347e-09
9.71882e-05
4.86286e-09
0.000122126
0
0
0
6.65197e-09
8.75931e-09
7.85483e-08
0
0
0
0
0
1.2476e-10
0
1.10933e-10
3.25714e-06
4.56576e-06
0
0
0
5.02943e-10
4.06686e-06
0
1.93359e-10
0.00673373
0
0
1.38258e-06
5.52302e-06
3.88303e-07
4.43459e-06
6.08206e-07
0
0
0
0
0
4.22905e-09
2.92897e-08
6.94476e-09
0
0
3.77128e-06
0
0
0
4.34111e-06
5.00255e-06
0
0
0
0
5.19938e-09
9.77067e-05
9.50345e-06
0
0
5.51184e-10
0
0
0
0
0
0
0
0
0
0
0
0
8.07846e-07
0
0.000631585
0
0
0
0
0
0
0
0
2.67771e-07
0.000234124
0
4.29243e-07
0.000509726
0
0
0
0
0
3.43596e-07
3.93337e-06
0.00180743
0
0
0
0
0
0
0
0
0
0
0
3.85244e-08
1.37693e-10
0
0
0
1.70844e-08
0
0
0
9.67974e-09
0
0
0
0
3.40446e-06
2.45348e-06
8.90124e-07
2.69541e-06
4.63229e-10
0
3.85817e-09
2.14801e-10
0
0
4.80508e-08
1.67917e-10
1.05433e-07
3.39152e-10
0
0
0
2.97884e-06
2.49793e-05
0.00014835
2.39955e-08
2.56532e-07
9.40526e-10
1.27348e-09
3.95164e-06
0
0
3.18134e-06
0.000195251
0
0
0
1.48155e-06
1.15512e-10
0
0
0
2.91831e-06
0
0
0
0
1.50544e-09
5.89571e-05
0
2.52891e-06
1.36062e-05
2.27193e-06
0
0
1.68175e-06
2.26565e-06
0
0
8.35074e-09
0
0.00223956
0
2.94826e-08
1.1323e-10
0.00421996
0
0.000378201
1.27962e-07
0.00357296
0
0
1.47819e-06
8.51847e-07
0
0
0
0
0
0
0.00438255
0.000819506
0
0.00602404
0
0
0.00538878
0
0
0
3.7469e-05
4.7285e-06
1.88852e-06
0.00436574
0
0
0
8.25178e-06
5.59286e-06
4.62323e-06
3.1461e-06
1.81109e-06
0
0
0
2.01439e-05
0
0
5.10841e-05
0.000118381
0.000489653
7.05358e-05
0
0
7.36744e-05
0.000108659
0.000759978
0.00012997
0.000768293
0
0.000112328
0
8.22671e-05
0
0.000136966
0.000823475
0.000285757
0.00021347
0
1.1428e-09
1.36437e-07
0
0
0.000106177
0.000656536
0
0
0
0
0
0
0
0.00257905
1.37672e-06
4.66948e-07
2.02648e-10
0
0
0.00140644
0
0.00206742
3.19304e-08
9.29007e-07
3.09931e-07
7.92925e-05
5.37879e-06
5.93645e-07
0
0
1.31533e-08
0
0
8.8025e-10
4.73086e-08
2.5332e-06
0
2.64831e-10
1.68574e-07
5.19096e-06
6.62291e-07
0
3.26139e-09
2.47097e-06
4.15045e-07
2.85019e-06
2.33014e-07
0
8.81572e-09
0
2.06921e-08
2.51807e-08
1.72313e-07
0
0
6.21216e-08
6.94123e-08
3.66952e-07
0
4.61707e-10
0
4.62647e-08
0.000436201
6.34111e-06
0.00603113
0
0
0
1.32852e-08
5.2042e-06
6.72073e-05
0.000315151
0
0
0
3.99622e-09
4.21168e-08
0.00314081
0
0
0
6.9215e-07
1.72625e-06
0
5.35878e-06
0.000358239
0
0
0
3.98992e-05
1.20946e-06
0
0
8.83968e-07
3.66871e-05
0
0
0
0
1.38065e-08
3.71074e-07
0
0
0
3.25183e-10
1.43293e-08
1.15497e-07
0
0
0
3.27707e-08
2.62482e-05
0
1.21263e-08
7.21573e-10
4.97374e-09
0
0
0
0.000498282
0
0
8.45681e-05
7.54548e-07
0.000136347
1.54838e-06
9.50419e-05
8.39656e-07
4.30555e-06
0
0
1.41146e-06
0.000119424
2.76505e-05
0
0
0
1.87959e-05
0
0
0
0
0.00160414
0
0.00012081
1.06844e-06
0
0
0.000103564
7.74917e-06
0
0.000122634
1.89134e-05
0.000103039
0.000186414
0.000123801
0
0
0.00388165
0.000181069
1.89951e-06
0
9.09573e-06
1.97466e-06
3.30718e-05
0
0
0
0
6.76262e-08
7.92974e-09
2.56192e-10
0.000271674
2.63591e-05
0
0
0.00226632
0
2.82028e-06
0.000193574
4.41023e-05
0
0
0
0
0