# vtk DataFile Version 2.0
Unstructured Grid by M++
ASCII
DATASET UNSTRUCTURED_GRID
POINTS 15808 float
  0.718750   0.625000 0
  0.718750   0.953125 0
  0.960938   0.882812 0
  0.734375   0.937500 0
  0.953125   0.882812 0
  0.726562   0.937500 0
  0.953125   0.875000 0
  0.507812   0.593750 0
  0.742188   0.531250 0
  0.945312   0.781250 0
  0.750000   0.726562 0
  0.960938   0.578125 0
  0.718750   0.640625 0
  0.726562   0.648438 0
  0.718750   0.648438 0
  0.789062   0.601562 0
  0.671875   0.914062 0
  0.765625   0.523438 0
  0.960938   0.804688 0
  0.734375   0.859375 0
  0.718750   0.867188 0
  0.726562   0.859375 0
  0.953125   0.796875 0
  0.515625   0.507812 0
  0.507812   0.515625 0
  0.945312   0.703125 0
  0.515625   0.531250 0
  0.515625   0.539062 0
  0.507812   0.546875 0
  0.945312   0.734375 0
  1.000000   0.671875 0
  0.765625   0.726562 0
  0.757812   0.734375 0
  0.750000   0.734375 0
  0.515625   0.796875 0
  0.515625   1.000000 0
  0.750000   0.937500 0
  0.523438   0.992188 0
  0.640625   0.679688 0
  0.523438   0.507812 0
  0.742188   0.632812 0
  0.867188   0.515625 0
  0.671875   0.851562 0
  0.789062   0.796875 0
  0.781250   0.796875 0
  0.789062   0.804688 0
  0.742188   0.671875 0
  0.507812   0.734375 0
  0.968750   0.617188 0
  0.734375   0.687500 0
  0.664062   0.648438 0
  0.578125   0.960938 0
  0.781250   0.531250 0
  0.773438   0.531250 0
  0.546875   0.789062 0
  0.750000   0.585938 0
  0.835938   0.562500 0
  0.812500   0.601562 0
  0.578125   0.867188 0
  0.804688   0.757812 0
  0.507812   0.992188 0
  0.742188   0.929688 0
  0.851562   0.976562 0
  0.851562   0.968750 0
  0.632812   0.617188 0
  0.789062   0.945312 0
  0.789062   0.937500 0
  0.781250   0.937500 0
  0.804688   0.531250 0
  0.640625   0.617188 0
  0.812500   0.929688 0
  0.804688   0.835938 0
  0.796875   0.835938 0
  0.773438   0.554688 0
  0.859375   0.867188 0
  0.835938   0.585938 0
  0.843750   0.593750 0
  0.812500   0.632812 0
  0.578125   0.898438 0
  0.570312   0.898438 0
  0.695312   0.585938 0
  0.984375   0.570312 0
  0.773438   0.507812 0
  0.789062   0.687500 0
  0.546875   0.960938 0
  0.867188   0.671875 0
  0.875000   0.664062 0
  0.875000   0.656250 0
  0.882812   0.585938 0
  0.796875   0.859375 0
  0.804688   0.867188 0
  0.867188   0.898438 0
  0.859375   0.898438 0
  0.625000   0.960938 0
  0.835938   0.617188 0
  0.812500   0.960938 0
  0.804688   0.585938 0
  0.804688   0.609375 0
  0.804688   0.617188 0
  0.921875   0.875000 0
  0.687500   0.929688 0
  0.914062   0.875000 0
  0.507812   0.765625 0
  0.742188   0.703125 0
  0.945312   0.953125 0
  0.835938   0.875000 0
  0.625000   0.523438 0
  0.867188   0.960938 0
  0.859375   0.960938 0
  0.835938   0.703125 0
  0.804688   0.640625 0
  0.804688   0.851562 0
  0.578125   0.906250 0
  0.953125   0.593750 0
  0.507812   0.796875 0
  0.945312   0.984375 0
  0.992188   0.718750 0
  0.828125   0.921875 0
  0.835938   0.906250 0
  0.601562   0.968750 0
  0.625000   0.554688 0
  0.585938   0.820312 0
  0.578125   0.820312 0
  0.820312   0.828125 0
  0.820312   0.835938 0
  0.835938   0.710938 0
  0.796875   0.757812 0
  0.554688   0.820312 0
  0.773438   0.664062 0
  0.546875   0.929688 0
  0.507812   0.695312 0
  0.820312   0.609375 0
  0.734375   1.000000 0
  0.976562   0.929688 0
  0.742188   0.984375 0
  0.507812   0.726562 0
  0.531250   0.601562 0
  0.945312   0.914062 0
  0.750000   0.539062 0
  0.515625   0.601562 0
  0.507812   0.804688 0
  0.789062   0.710938 0
  0.781250   0.710938 0
  0.781250   0.703125 0
  0.515625   0.703125 0
  0.523438   0.703125 0
  0.960938   0.890625 0
  0.867188   0.937500 0
  0.632812   1.000000 0
  0.984375   0.515625 0
  0.750000   0.570312 0
  0.515625   0.632812 0
  0.742188   0.578125 0
  0.851562   0.773438 0
  0.843750   0.765625 0
  0.789062   0.742188 0
  0.789062   0.734375 0
  0.781250   0.734375 0
  0.523438   0.734375 0
  0.750000   0.984375 0
  0.984375   0.906250 0
  0.507812   0.703125 0
  0.742188   0.640625 0
  0.945312   0.890625 0
  0.531250   0.578125 0
  0.859375   0.734375 0
  0.867188   0.734375 0
  0.859375   0.976562 0
  0.867188   0.968750 0
  0.507812   0.820312 0
  0.742188   0.757812 0
  0.507812   0.812500 0
  0.843750   0.796875 0
  0.851562   0.804688 0
  0.843750   0.804688 0
  0.585938   0.796875 0
  0.789062   0.773438 0
  0.804688   0.648438 0
  0.789062   0.765625 0
  0.781250   0.765625 0
  0.804688   0.593750 0
  0.804688   0.671875 0
  0.796875   0.671875 0
  0.804688   0.679688 0
  0.796875   0.687500 0
  0.671875   1.000000 0
  0.679688   1.000000 0
  0.921875   0.937500 0
  0.921875   0.929688 0
  0.570312   0.945312 0
  0.562500   0.945312 0
  0.742188   0.562500 0
  0.507812   0.625000 0
  0.976562   0.507812 0
  0.734375   0.781250 0
  0.507812   0.835938 0
  0.523438   0.710938 0
  0.734375   0.773438 0
  0.507812   0.828125 0
  0.820312   0.546875 0
  0.812500   0.546875 0
  0.820312   0.750000 0
  0.515625   0.726562 0
  0.882812   0.601562 0
  0.875000   0.601562 0
  0.828125   0.945312 0
  0.625000   0.585938 0
  0.820312   0.523438 0
  0.976562   0.539062 0
  0.507812   0.867188 0
  0.523438   0.742188 0
  0.734375   0.804688 0
  0.507812   0.859375 0
  0.843750   0.851562 0
  0.828125   0.562500 0
  0.820312   0.570312 0
  0.820312   0.578125 0
  0.828125   0.578125 0
  0.781250   0.828125 0
  0.781250   0.820312 0
  0.757812   0.539062 0
  0.515625   0.757812 0
  0.828125   0.976562 0
  0.625000   0.617188 0
  0.804688   0.726562 0
  0.796875   0.726562 0
  0.804688   0.718750 0
  0.796875   0.718750 0
  0.570312   0.585938 0
  0.781250   0.648438 0
  0.523438   0.765625 0
  0.984375   0.546875 0
  0.742188   0.609375 0
  0.742188   0.617188 0
  0.507812   0.679688 0
  0.734375   0.625000 0
  0.976562   0.617188 0
  0.765625   0.554688 0
  0.773438   0.593750 0
  0.976562   0.843750 0
  0.835938   0.992188 0
  0.835938   0.984375 0
  0.828125   0.984375 0
  0.507812   0.898438 0
  0.734375   0.835938 0
  0.851562   0.882812 0
  0.843750   0.882812 0
  0.820312   0.601562 0
  0.796875   0.734375 0
  0.796875   0.843750 0
  0.781250   0.843750 0
  0.789062   0.851562 0
  0.992188   0.914062 0
  0.781250   0.851562 0
  0.523438   0.843750 0
  0.750000   0.531250 0
  0.765625   0.515625 0
  0.757812   0.515625 0
  0.523438   0.578125 0
  0.515625   0.789062 0
  0.523438   0.781250 0
  0.757812   0.718750 0
  0.960938   0.968750 0
  0.859375   0.585938 0
  0.664062   0.609375 0
  0.804688   0.750000 0
  0.796875   0.750000 0
  0.859375   0.781250 0
  0.867188   0.789062 0
  0.859375   0.789062 0
  0.750000   0.640625 0
  0.734375   0.640625 0
  0.742188   0.648438 0
  0.507812   0.710938 0
  0.968750   0.585938 0
  0.734375   0.656250 0
  0.507812   0.906250 0
  0.742188   0.843750 0
  0.828125   0.617188 0
  0.828125   0.609375 0
  0.820312   0.625000 0
  0.812500   0.625000 0
  0.585938   0.890625 0
  0.585938   0.882812 0
  0.812500   0.828125 0
  0.757812   0.593750 0
  0.992188   0.523438 0
  0.750000   0.593750 0
  0.515625   0.656250 0
  0.828125   0.718750 0
  0.828125   0.710938 0
  0.820312   0.718750 0
  0.796875   0.867188 0
  1.000000   0.921875 0
  0.789062   0.578125 0
  0.992188   0.828125 0
  0.539062   0.695312 0
  0.531250   0.687500 0
  0.570312   0.750000 0
  0.750000   0.710938 0
  0.515625   0.773438 0
  0.742188   0.718750 0
  0.515625   0.976562 0
  0.625000   0.664062 0
  0.734375   0.867188 0
  0.851562   0.914062 0
  0.859375   0.906250 0
  0.625000   0.968750 0
  0.843750   0.914062 0
  0.609375   0.976562 0
  0.843750   0.906250 0
  0.523438   0.875000 0
  0.546875   0.757812 0
  0.750000   0.562500 0
  0.515625   0.625000 0
  0.765625   0.546875 0
  0.968750   0.609375 0
  0.757812   0.546875 0
  0.523438   0.609375 0
  0.523438   0.820312 0
  0.515625   0.820312 0
  0.960938   1.000000 0
  0.523438   0.812500 0
  0.515625   0.812500 0
  0.835938   0.531250 0
  0.882812   0.695312 0
  0.882812   0.687500 0
  0.859375   0.617188 0
  0.617188   0.687500 0
  0.875000   0.992188 0
  0.664062   0.632812 0
  0.898438   0.570312 0
  0.664062   0.640625 0
  0.804688   0.781250 0
  0.796875   0.781250 0
  0.804688   0.789062 0
  0.515625   0.828125 0
  0.750000   0.765625 0
  0.523438   0.835938 0
  0.757812   0.773438 0
  0.515625   0.835938 0
  0.515625   0.843750 0
  0.859375   0.812500 0
  0.867188   0.820312 0
  0.859375   0.820312 0
  0.507812   0.937500 0
  0.742188   0.875000 0
  0.828125   0.648438 0
  0.820312   0.656250 0
  0.812500   0.656250 0
  0.585938   0.914062 0
  0.710938   0.601562 0
  0.703125   0.601562 0
  1.000000   0.562500 0
  0.757812   0.625000 0
  0.523438   0.687500 0
  0.992188   0.554688 0
  0.750000   0.625000 0
  0.515625   0.687500 0
  0.523438   0.882812 0
  0.648438   0.570312 0
  0.640625   0.570312 0
  0.882812   0.500000 0
  0.789062   0.609375 0
  0.992188   0.859375 0
  0.507812   0.843750 0
  0.742188   0.781250 0
  0.531250   0.718750 0
  0.515625   0.851562 0
  0.750000   0.789062 0
  0.539062   0.726562 0
  0.539062   0.718750 0
  0.976562   0.906250 0
  0.742188   0.500000 0
  0.507812   0.562500 0
  0.570312   0.789062 0
  0.671875   0.945312 0
  0.960938   0.929688 0
  0.546875   0.617188 0
  0.851562   0.945312 0
  0.843750   0.937500 0
  0.609375   1.000000 0
  0.570312   0.554688 0
  0.523438   0.906250 0
  0.843750   0.773438 0
  0.828125   0.890625 0
  0.820312   0.890625 0
  0.617188   1.000000 0
  0.796875   0.523438 0
  0.914062   0.781250 0
  0.687500   0.835938 0
  0.750000   0.875000 0
  0.515625   0.937500 0
  0.781250   0.742188 0
  0.992188   0.804688 0
  0.765625   0.859375 0
  0.750000   0.867188 0
  0.968750   0.921875 0
  0.757812   0.859375 0
  0.523438   0.921875 0
  0.984375   0.796875 0
  0.976562   0.703125 0
  0.804688   0.539062 0
  0.914062   0.789062 0
  0.921875   0.789062 0
  0.687500   0.843750 0
  0.804688   0.820312 0
  0.820312   0.695312 0
  0.804688   0.812500 0
  0.796875   0.812500 0
  0.750000   0.703125 0
  0.515625   0.765625 0
[...]
CELL_DATA 30592
SCALARS scalar_value float 1
LOOKUP_TABLE default
4.45248e-07
3.63324e-07
3.2046e-07
2.60982e-07
2.24044e-07
1.8736e-07
2.61647e-07
2.27846e-07
1.8517e-07
1.6015e-07
1.59491e-07
2.52455e-07
2.17013e-07
2.27365e-07
0.0201897
0.0194541
0.0185702
0.0188895
0.0178341
0.0172786
0.0104738
0.0100828
0.00948957
0.0105149
0.00899305
0.00836547
0.00910248
0.00470489
0.00396874
0.00320366
0.00423105
0.0323348
0.0316624
0.0338366
0.0301566
0.179167
0.176264
0.170722
0.175753
0.172417
0.171742
0.183009
0.176021
0.174658
0.17219
0.164172
0.163014
0.166914
0.187639
0.191105
0.196385
0.19734
0.198264
0.192717
0.000130167
0.000117694
0.000116007
0.000112402
0.00010482
9.9231e-05
0.0013054
0.00146012
0.00133861
0.00139009
0.00148593
0.00148622
0.00152552
6.01565e-07
3.11051e-07
4.83501e-07
4.036e-07
4.06185e-07
3.24205e-07
2.73242e-07
1.78829e-07
2.18061e-07
3.24062e-07
2.71491e-07
2.19434e-07
1.89996e-07
1.8429e-07
2.64666e-07
2.10534e-07
1.79234e-07
1.69845e-07
0.000203815
0.000155045
0.00028133
0.000264532
0.000200052
0.000150626
0.000150821
0.000149234
0.000209739
0.000121597
0.000195275
0.000153478
0.000138887
0.000115351
0.000260412
0.000227084
0.000276782
0.000180289
9.74971e-05
8.866e-05
0.000110696
5.11193e-05
3.60559e-05
3.56824e-05
2.9056e-05
2.88571e-05
3.27359e-05
3.85385e-05
3.44077e-05
0.143637
0.134171
0.131736
0.146822
0.144125
0.14656
9.81454e-05
8.36494e-05
8.85596e-05
7.13911e-05
7.82679e-05
6.57973e-05
6.77917e-05
5.15311e-05
4.35059e-05
4.59059e-05
3.69139e-05
2.88185e-05
2.12838e-05
2.38431e-05
3.85105e-05
2.73409e-05
3.10271e-05
3.50833e-05
3.45884e-05
3.18766e-05
4.12402e-05
3.17512e-05
3.72099e-05
3.75321e-05
4.1768e-05
4.89319e-05
4.36383e-05
5.57804e-05
0.0569207
0.0529271
0.0521716
0.000121863
0.000106134
0.000136103
0.000117698
0.000104773
0.000125331
0.000507643
0.000380452
0.000271079
0.000373777
0.000218048
0.000192525
0.000169715
0.000198956
0.000173015
0.000154157
0.16463
0.160344
0.153989
0.162064
0.000303529
0.000267706
0.000233361
4.22768e-06
3.58644e-06
2.95037e-06
3.50899e-06
2.49618e-06
2.43736e-06
2.05822e-06
2.05884e-06
1.74873e-06
1.49052e-06
1.69297e-06
2.90401e-06
2.45124e-06
2.0065e-06
0.0361567
0.0344144
0.0308752
0.0366521
0.0261846
0.0248258
0.0266027
0.0129137
0.0199342
0.0134176
0.0155537
0.0126015
0.0177806
0.0180955
0.017872
0.0169881
0.0615118
0.0533372
0.053939
0.00821909
0.00740376
0.00683281
0.0459515
0.0416418
0.0396615
0.0224384
0.0208749
0.0212365
0.00321695
0.00300358
0.00283064
0.00322178
0.263495
0.26406
0.268079
0.258381
0.00466097
0.00372318
0.00324771
0.251651
0.250798
0.255485
0.243348
0.0288124
0.0269714
0.0250575
0.0261697
0.0242026
0.0256425
0.00012972
0.000125691
0.000108111
0.000148212
0.000109295
7.89676e-05
9.12806e-05
0.00014156
0.000121617
0.000103393
0.0897944
0.0823636
0.0788581
0.090261
0.0862202
0.0861704
0.0013266
0.00143829
0.00146388
0.0735473
0.0751673
0.0699302
0.0346148
0.0330505
0.0344964
0.0311261
0.0492638
0.0481017
0.051666
0.0454338
0.143119
0.142626
0.149296
0.157434
0.165515
0.157798
0.171457
0.171238
0.176661
0.00125269
0.00140571
0.0014242
0.00142922
0.184179
0.184761
0.189714
0.178128
0.190181
0.195044
0.200246
0.17853
0.183618
0.18993
0.183659
0.00104438
0.00111182
0.0012869
0.00107266
0.00177778
0.00218599
0.00170913
0.00110276
0.00117944
0.00113465
0.172202
0.171207
0.17785
0.199169
0.205509
0.201414
0.0469736
0.0425828
0.0401038
0.0406261
0.0120917
0.0129043
0.0109055
0.000802483
0.000617444
0.000656948
0.00047734
0.000400673
0.000394934
0.12048
0.116756
0.117847
0.000639053
0.000791853
0.000839173
0.000931072
0.00121184
0.000987043
0.000968466
0.00116872
0.00125987
0.00109349
0.00128095
0.00134246
0.129382
0.121995
0.122217
0.10525
0.0933092
0.097792
0.113787
0.105497
0.101534
0.104399
0.123675
0.122234
0.116672
0.115614
0.0792528
0.110797
0.108711
0.10455
7.34723e-05
7.49092e-05
8.17396e-05
7.41279e-05
8.14649e-05
8.35391e-05
7.49734e-05
7.38145e-05
8.01854e-05
7.25709e-05
0.00789462
0.00632076
0.00599814
0.00544959
0.00370534
0.00398042
0.00326239
0.163596
0.168857
0.176496
0.168453
0.15077
0.159547
0.149784
0.00382806
0.00374788
0.00303038
0.00364785
0.00331849
0.00353548
0.00288204
0.00387215
0.00357516
0.00309209
0.152916
0.15683
0.165255
0.154874
0.175754
0.177799
0.183881
0.155584
0.157947
0.165758
0.155014
0.000369818
0.000280757
0.000272619
0.137678
0.135603
0.131083
0.100545
0.101051
0.0964343
0.0768415
0.0728492
0.0691072
0.00225475
0.00210893
0.00185192
0.00229399
0.225483
0.224229
0.229877
0.215384
0.000434059
0.000419123
0.000364996
0.000155977
0.00016575
0.000133888
0.000140113
7.94403e-05
0.000109787
0.000208519
0.000188444
0.000212458
0.000352678
0.000274225
0.000350952
0.00689763
0.00561995
0.00504549
0.000970459
0.000890933
0.000185488
0.000762097
0.000969673
1.14709e-06
1.38773e-06
1.36462e-06
9.78141e-07
8.3464e-07
1.16595e-06
1.9434e-06
1.87263e-06
1.60443e-06
2.16581e-06
0.000160514
0.000111972
0.000172279
1.74962e-06
1.523e-06
1.6354e-06
1.31287e-06
1.08172e-06
1.42728e-06
7.49459e-05
6.4e-05
5.39189e-05
6.05565e-05
1.12645e-06
9.67715e-07
8.19256e-07
9.3158e-07
0.0229933
0.0226012
0.0213509
0.209248
0.213151
0.220358
0.209258
0.212998
0.220244
0.223843
7.9722e-05
0.000133009
7.77888e-05
9.10634e-05
7.04097e-05
0.000103066
0.000132821
9.9195e-05
0.000114858
8.90817e-05
6.16769e-05
5.95065e-05
6.9036e-05
5.3622e-05
0.0026702
0.0026905
0.00302631
0.0020333
0.00165381
0.0020964
0.00323347
0.00299718
0.00324365
0.00822578
0.00847704
0.00591569
0.179602
0.182336
0.174764
0.000875466
0.000862179
0.000779602
0.168704
0.169859
0.176694
0.161496
0.0369234
0.0492773
0.0404726
0.0631835
0.0781226
0.0672894
0.044069
0.048379
0.057014
4.29884e-05
4.22732e-05
2.92069e-05
0.262446
0.25946
0.261824
0.0243173
0.0320463
0.0269699
0.0357854
0.0432456
0.0464387
0.0416724
0.0485119
0.0520363
0.0640182
0.0624418
0.0657882
0.057424
2.09143e-05
2.14193e-05
2.62589e-05
0.0464488
0.0530063
0.0542254
0.0558639
0.0492428
0.0551821
0.0568368
0.0570501
0.0182058
0.015905
0.0153024
0.01262
0.0106658
0.0101408
0.0614267
0.0607165
0.0646906
0.0554866
0.00016218
0.000130241
0.000113634
9.04262e-05
6.75139e-05
9.35675e-05
8.43486e-05
7.02105e-05
0.221434
0.209321
0.214016
0.214039
0.22022
0.205471
0.195657
0.194102
0.200194
0.184626
5.62432e-05
7.70791e-05
8.90181e-05
8.15734e-05
0.000103855
6.58876e-05
6.06172e-05
5.19085e-05
0.000108798
9.37093e-05
0.000124213
0.00143553
0.0012271
0.00154862
0.000954811
0.000736403
0.000937803
0.168748
0.164769
0.166263
0.155635
0.1567
0.150109
0.160937
0.153918
0.153174
0.0505374
0.0473626
0.047664
0.044714
4.81469e-05
5.58009e-05
5.22833e-05
6.47552e-05
6.96931e-05
8.01624e-05
7.45931e-05
5.74711e-05
6.64776e-05
6.40063e-05
0.190883
0.18837
0.189076
0.000372069
0.000324574
0.000277027
3.53557e-07
4.2964e-07
4.91307e-07
9.77867e-07
3.06341e-07
3.26351e-07
2.83784e-07
4.08279e-07
5.98994e-07
6.66125e-07
5.86151e-07
2.01979e-06
8.40728e-07
0.00350223
0.00893311
0.00841748
0.00902885
0.00736389
0.00554123
0.00593549
0.00480884
0.10114
0.0948649
0.102234
0.000350502
0.000284565
0.000357305
0.000238458
0.000228976
0.000204262
0.000258238
0.256226
0.261239
0.262525
0.263854
2.13744e-05
2.08753e-05
1.83248e-05
2.15178e-05
2.29164e-05
1.83774e-05
1.56374e-05
1.44042e-05
1.52208e-05
1.32951e-05
0.00541573
0.00476971
0.00438949
0.00385978
0.0033518
0.00292577
0.00360344
1.95547e-05
1.78578e-05
1.6694e-05
1.69136e-05
0.00353995
0.00310831
0.00284037
0.00270976
0.0030249
0.00263379
0.00219068
0.0197417
0.0208582
0.0167211
0.268154
0.270301
0.274643
0.273611
0.274875
0.269579
0.279164
0.27979
0.281457
0.277523
0.267299
0.269247
0.267593
2.17079e-05
1.95391e-05
1.84885e-05
1.73298e-05
1.57302e-05
1.41485e-05
1.3347e-05
1.25274e-05
1.29368e-05
1.20636e-05
1.22286e-05
0.0738663
0.088625
0.0791176
0.103784
0.109906
0.10981
0.0842195
0.0898418
0.0997447
0.0890812
0.0773776
0.0716048
0.0802712
0.0806086
0.0717493
0.0812835
0.0964878
0.0899536
0.100382
0.281549
0.282675
0.28482
0.28055
0.283343
0.285613
0.286612
0.286273
0.281428
0.283389
0.285155
0.28342
0.00424673
0.00381438
0.00475398
7.25307e-06
6.56258e-06
6.06371e-06
6.18708e-06
0.0931394
0.0882768
0.0822653
0.0882981
5.69455e-08
6.05605e-08
5.15008e-08
5.45717e-08
6.92077e-08
8.1469e-08
4.85663e-08
4.10332e-08
6.14439e-08
1.02921e-07
1.07631e-07
9.13447e-08
1.34792e-07
0.00810112
0.00761064
0.00657514
0.00832857
0.000123524
0.0001614
0.000235691
0.00016023
0.000285504
0.000341549
0.000404827
0.000475094
0.000629275
0.00046355
0.000197975
0.000240901
0.000333694
0.000235733
0.00321389
0.00280239
0.00256488
0.204642
0.204606
0.206698
0.19758
0.19825
0.202208
1.97751e-06
1.91212e-06
2.89614e-06
2.01341e-06
1.37991e-06
1.87535e-06
0.00457257
0.013182
0.0120187
0.0101796
0.0126306
0.0229923
0.0259544
0.0239947
0.0294497
0.0332397
0.0299644
6.81683e-05
6.54152e-05
6.31444e-05
0.000121704
0.000123718
0.000148149
1.19867e-06
1.29705e-06
1.60074e-06
9.3701e-05
8.0356e-05
0.000111282
0.000177394
0.000176262
0.0002087
0.000163174
0.000197747
0.000223479
0.000215254
0.000250069
0.000241752
0.000270971
0.00030342
0.00025398
0.000286008
0.00185982
0.00178057
0.00173006
0.00882114
0.00912588
0.00819978
0.00975785
0.0485604
0.0464105
0.0420484
0.0491324
0.015131
0.0145873
0.0140834
0.0104615
0.00931153
0.0091054
0.00857443
0.0211774
0.0195912
0.0200106
0.0182085
2.62543e-05
2.19936e-05
2.31742e-05
0.0183688
0.0155496
0.0167324
0.0154905
0.0141484
0.0143771
0.202035
0.202413
0.204143
3.27757e-06
2.6881e-06
2.15286e-06
3.08202e-06
1.32923e-06
9.984e-07
7.96276e-07
1.09897e-06
4.31051e-08
3.45012e-08
3.46867e-08
2.91356e-08
3.08406e-08
2.66941e-08
3.17559e-08
2.28324e-08
1.98747e-08
1.66059e-08
1.76937e-08
0.103432
0.106912
0.0989521
0.103093
0.098777
0.094859
0.0914805
0.0881963
0.0841261
0.0124057
0.0113341
0.0117119
0.0103457
2.79396e-06
1.92245e-06
1.86627e-06
1.5549e-06
1.28743e-06
1.49403e-06
1.06038e-06
8.9199e-07
8.82335e-07
1.17489e-06
9.34102e-07
8.18554e-07
7.1421e-07
0.000968766
0.000886376
0.000753137
0.000964599
0.0113771
0.0115972
0.0108948
0.0144379
0.0142953
0.0136262
0.00144238
0.00123477
0.00113425
3.68431e-06
2.95473e-06
3.76394e-06
2.53826e-06
2.28863e-06
3.2177e-06
0.000108207
0.000129407
0.000128646
0.000204716
0.000177439
0.000150145
0.000171776
3.10803e-06
2.27846e-06
2.51359e-06
0.046794
0.0427886
0.0411324
0.0712274
0.0677696
0.0639069
0.0717072
0.0673469
0.0668316
0.0641093
0.0631768
0.0598337
0.0606935
0.0567018
0.00098969
0.000909425
0.000789048
0.000207339
0.000975206
0.0224557
0.0211445
0.018071
0.00934654
0.00707035
0.0059271
0.00688853
0.0039138
0.00383029
0.00480521
0.00372192
0.00295301
0.00340531
0.202988
0.163584
0.205634
0.206553
0.205446
0.0291851
0.029979
0.0329074
0.0215576
0.0195518
0.0192823
0.108305
0.000233097
0.100259
0.0169255
0.0788858
0.077531
0.0734894
0.0077263
0.00615829
0.00789628
0.00436751
0.00342897
0.00466035
0.00491724
0.00463479
0.00398221
0.00513676
0.190222
0.183713
0.174764
0.183895
4.63278e-05
4.40566e-05
4.6717e-05
4.16182e-05
0.176964
0.224149
0.182554
0.183748
0.186841
0.215768
0.223066
0.224697
3.87016e-05
4.20507e-05
3.3712e-05
2.85609e-05
2.66196e-05
2.81019e-05
2.47902e-05
0.253362
0.276106
0.256223
0.258396
0.254442
0.0503893
0.0522795
0.047589
0.00902246
0.00869918
0.0100176
0.00705676
0.000275299
0.000150082
0.00674889
7.68474e-08
2.15079e-07
1.50242e-07
1.84938e-07
9.75119e-06
0.0755007
0.0833452
0.0241493
0.0181959
0.0235749
0.000127738
0.0260111
1.09823e-06
1.43517e-06
0.000108756
1.17565e-06
0.000629067
0.000625133
0.0216893
0.000527715
0.0416737
0.00130744
0.00132816
0.029769
0.0010733
0.0599135
1.57939e-07
4.62502e-08
1.28956e-07
0.0543903
0.000744082
0.00178597
0.0562521
0.0293291
1.50091e-06
1.27317e-06
0.000155062
6.02711e-05
0.000186071
1.42608e-06
5.20484e-06
0.000690356
0.000528404
0.00020611
0.000574305
0.053426
0.0503848
0.000755339
0.0539798
0.00074858
0.000281594
0.000625078
0.0353985
0.14241
0.000572669
0.13294
0.00679329
0.232703
2.30162e-05
0.00412806
0.00427036
0.230364
2.42895e-05
0.229402
0.23974
0.0309796
7.22864e-05
0.0327391
0.000169648
0.0297116
0.00384198
2.97837e-05
3.40472e-05
0.0145733
2.6826e-05
0.253759
0.0144178
0.250785
3.05668e-05
0.00664799
0.00600791
0.00618556
0.0979099
0.000128946
0.0974356
0.0862544
0.13436
8.96564e-05
0.0950961
9.67454e-06
0.000757373
0.00069591
0.00012846
0.000104687
1.32569e-05
0.044257
0.0942876
0.050992
0.272627
1.07511e-05
0.0410103
1.66486e-05
3.70326e-05
3.26576e-05
9.72153e-05
0.00530091
0.00196642
0.00315932
0.00191355
2.23481e-07
4.99236e-07
1.88979e-05
3.22911e-05
2.73413e-05
0.00288513
0.0367615
0.220205
0.0421712
0.00397806
8.052e-06
0.000731919
7.16278e-06
8.76217e-06
0.000840723
0.281471
0.278198
0.019157
0.0358409
0.00907173
0.0365429
0.00993366
0.0309561
0.0313316
0.00366785
0.00089167
0.00112974
0.000828494
0.0205853
0.0177487
0.0250642
0.00012922
6.63797e-05
0.189353
0.0332561
0.0572689
0.0326933
0.0339961
0.173821
0.0298591
0.207279
3.54887e-07
1.24494e-07
4.26867e-07
0.0442544
0.0385809
0.016106
1.57704e-07
1.15942e-06
0.0204162
0.167788
0.0197292
0.00128918
1.03554e-05
1.32085e-05
0.00141433
7.8253e-07
3.62323e-07
2.9536e-05
5.80031e-07
2.26389e-05
0.031001
0.153303
0.0303813
0.114662
0.16013
6.82087e-07
6.72792e-07
2.47276e-05
3.81006e-05
0.15133
0.144721
0.0175699
0.137472
0.139079
0.0202583
0.0288854
0.131137
0.0262492
0.0321537
0.139982
0.146514
1.9661e-07
5.87351e-07
0.139199
4.96701e-07
0.0179331
0.0167695
0.00417681
0.00531052
0.0178163
0.00692998
0.0291955
0.0304219
0.123634
0.129605
3.82032e-07
3.26351e-07
0.115597
0.0282669
2.61777e-07
0.12403
3.36506e-07
5.67218e-05
4.83496e-05
0.00102226
7.67979e-05
0.000884789
0.000267933
0.0166273
0.260058
0.0826725
8.093e-05
0.0719355
6.34686e-05
0.000306638
0.0907306
0.0763361
0.0200116
0.0201213
0.000109019
0.0182931
0.000213775
0.0812979
0.268133
0.0203781
0.2626
6.93646e-06
0.261974
0.027131
0.0727122
0.258231
0.268691
0.0229357
9.45461e-06
0.00101464
0.208546
0.209487
0.194991
0.000868586
0.000363902
0.0638243
0.0618955
0.00237278
0.000773449
0.056981
0.00241335
0.00192006
0.111149
0.107633
0.00103929
0.00391983
0.117709
0.00393944
1.19272e-06
7.81006e-05
1.03819e-06
6.67174e-05
4.11182e-05
0.00218617
0.00178735
0.0692325
0.000108936
0.0655345
0.0934394
0.060346
0.00151345
0.00136136
2.08301e-05
0.00716416
0.0067158
0.000429126
2.93233e-05
5.03062e-07
0.00107117
0.0012209
0.000989855
0.00107718
0.206448
0.0772326
0.0030918
0.0103718
0.00077864
5.9883e-06
0.000701002
8.09728e-05
8.44958e-05
7.38617e-05
0.0425789
4.23022e-07
5.57901e-06
0.000939549
0.164992
0.209087
0.211344
3.6511e-07
2.08364e-05
3.03811e-07
1.74796e-05
3.6426e-07
0.000471005
0.0592561
0.0669568
0.000494274
7.80158e-06
0.000413878
0.00175511
0.0609195
0.000137316
0.16399
0.108173
0.000192604
0.00219507
0.000227663
0.170607
0.000285572
0.000248301
0.00276582
0.000254457
7.22214e-05
1.76097e-05
2.29791e-05
0.118714
3.40105e-05
0.0696191
2.29972e-05
0.0597636
0.138397
0.0344729
0.132118
0.0273896
3.54685e-05
2.85944e-05
1.98508e-05
1.29616e-05
1.94695e-05
4.82673e-05
4.09663e-05
3.46484e-05
1.52973e-05
1.28904e-05
1.2042e-05
1.47312e-05
0.00117171
0.00252821
0.00263346
0.00129635
0.00783001
0.00171871
0.000720684
0.000578519
0.000624568
0.000917218
0.00252042
0.00281226
0.000579637
0.280053
0.00777441
0.278873
0.0014047
0.178706
0.00432831
0.000346544
0.00442102
0.000339732
0.000259521
0.000474187
0.000441483
0.00545837
0.022698
0.0232733
7.97885e-05
0.000174509
0.024927
0.0215001
0.000170005
0.00902507
0.0026286
0.00729666
0.000502712
0.000665188
0.0157957
0.176795
0.117945
0.0254863
0.111997
0.023887
0.104643
0.0230528
0.111546
0.0812055
0.278167
0.00627843
0.277273
0.00105969
0.00517919
0.0263846
5.45881e-05
0.00182481
6.72364e-05
6.63311e-05
0.00553856
0.00230205
0.0510892
9.09119e-06
0.0640842
0.28716
0.0543266
6.16469e-05
6.51213e-05
0.052727
8.37699e-05
0.00574904
7.26213e-05
0.0438316
0.0305772
0.0464521
0.168262
0.0406225
0.161882
5.68184e-05
0.0197227
2.21076e-05
0.283189
0.0114043
0.0531802
0.0773487
0.000286207
7.18917e-05
1.61675e-05
0.000182425
0.00893257
0.000182237
0.0970734
0.000157929
0.0946162
0.000100887
0.00288867
8.33551e-05
0.00631971
0.283955
0.0898953
0.0967778
0.104513
0.00695575
0.00366731
0.0075994
0.226071
0.0268071
0.028596
0.220317
0.199065
0.224032
0.0180943
0.213588
0.0283835
0.0177158
0.0315657
0.0382166
0.212971
0.178494
0.214659
0.0212322
0.206184
0.0205794
0.000290802
3.1229e-05
0.000120334
0.000106563
0.0054743
0.0532191
3.03625e-05
0.000965564
0.0011789
0.00300691
0.00416413
0.101171
0.000325881
5.098e-06
0.00028259
4.35974e-06
4.15001e-06
0.0142697
0.13657
0.0471647
0.000103387
0.0453628
0.0417761
0.0441895
0.000254449
0.229673
0.23368
0.230359
0.0109904
0.240767
0.0152927
6.22569e-05
6.05839e-05
0.0141131
0.0109128
0.0144124
0.0418431
0.0386823
0.000418034
0.000146909
0.141491
0.000523369
6.38183e-05
0.000473343
0.00042255
0.0957648
0.000149801
0.000259529
0.000662723
0.000467166
4.9295e-06
5.93993e-06
0.000303884
6.09315e-05
6.75499e-05
0.000334853
7.89434e-05
1.45037e-05
8.50931e-05
0.000530844
7.86858e-05
0.000406685
0.00120979
0.000402557
3.60308e-05
4.30348e-05
7.85802e-05
0.00387158
0.00451564
0.271196
0.240349
8.37703e-06
1.6401e-05
0.000377767
1.38563e-05
0.0234736
0.0205718
0.0202618
0.0176065
0.138034
0.128781
0.0408623
0.0367943
0.0365975
0.0273644
0.0338521
0.0524587
0.00171604
0.0124885
0.00142508
0.0124748
0.0460245
0.00131032
0.0110529
0.0509501
0.00284681
0.00302985
0.00350087
7.58578e-05
0.120126
0.0733081
0.071525
0.0747558
0.0450538
0.000215588
0.0632325
0.271767
0.0724096
0.01045
0.0432479
0.0713742
0.0435707
0.0685755
0.00422068
0.0685341
0.00309227
0.000496333
2.30923e-06
0.00869916
0.00125799
0.0875659
0.00672251
0.00172151
0.134252
0.193877
0.00696095
0.0971869
0.0868662
0.00227049
0.28399
0.0391433
0.0463382
0.050764
0.00366283
0.00515852
0.0148099
0.000180406
0.000639191
6.25583e-05
0.0178998
0.0181352
6.51164e-05
8.25419e-07
4.88561e-05
5.88786e-05
0.0146302
0.0303115
0.0070365
0.0357607
0.00110359
0.0418354
0.000913783
0.0255551
0.001219
0.0252258
0.0480957
2.91388e-05
0.0697222
0.0760953
0.0630784
0.0219741
8.45936e-05
0.0206037
0.0196445
0.0192725
0.0170404
0.0197148
6.71312e-05
0.185767
0.185953
0.177624
0.00101255
0.000469339
0.0110112
0.00421115
0.000452676
0.000606853
0.00533533
0.000662051
0.000493701
0.000279728
0.000755689
0.000617149
0.013197
0.0806374
0.0538839
0.00175822
0.00193147
0.00149282
0.00117793
0.00201616
0.00402725
3.66189e-05
8.53258e-07
2.89686e-05
0.00459431
1.35444e-06
5.76207e-05
0.189367
0.158374
0.0341159
0.14934
0.000560949
0.000510134
0.00118668
0.00125219
0.184672
0.016403
0.000131963
0.00861938
0.270987
0.0127007
0.0589595
0.00470671
0.00504108
0.000214106
0.106475
0.0814518
0.00685197
0.271923
0.0770366
0.000203126
3.84736e-05
0.0763028
0.000222363
0.0707994
3.91118e-06
0.000575272
0.00019896
4.42972e-05
0.0718154
0.000215595
0.000232089
0.00784083
0.27848
9.62163e-05
0.000165147
0.0657788
0.0902094
1.87299e-05
0.000210431
6.92781e-05
7.18443e-05
1.52648e-07
0.272653
0.285677
0.0137002
9.3321e-05
0.0375855
0.000100592
0.0363692
0.0611659
9.62733e-05
0.031916
0.0191841
5.81978e-05
0.042829
0.234652
0.0276918
7.5015e-05
0.0375383
0.0393021
0.153287
0.0419947
6.80724e-05
0.000160648
6.9015e-05
0.0667943
6.06207e-05
0.056821
0.0456015
0.00013112
0.0419813
0.134498
0.000127574
0.0749385
0.050821
0.000121153
0.0464541
9.7215e-05
0.0662013
7.10361e-06
9.27252e-05
0.000372216
0.0714691
8.92752e-05
0.000122608
0.0809595
0.000111078
1.79293e-05
2.11053e-05
0.106626
0.00287742
0.104459
0.000656982
0.114053
0.000652989
0.116516
0.000821893
0.120311
0.257061
0.138027
0.165434
0.0302608
0.25812
0.146788
0.0278318
0.0364545
0.254219
0.00100937
0.00104566
0.0977684
0.000990729
0.115053
0.00078239
0.00656066
0.00104483
0.11139
0.0882173
0.119652
0.00823292
0.000527925
0.111111
0.000782943
0.00407769
0.0017189
0.0696682
0.105074
0.00162196
0.110233
0.000793719
0.078937
0.00132879
0.00485758
0.000990748
0.00172818
0.0783704
0.0209197
0.114395
0.109369
0.00162179
0.00125705
0.000505367
0.119478
0.110795
0.11823
0.00133185