# vtk DataFile Version 2.0
Unstructured Grid by M++
ASCII
DATASET UNSTRUCTURED_GRID
POINTS 15808 float
  0.718750   0.625000 0
  0.718750   0.953125 0
  0.960938   0.882812 0
  0.734375   0.937500 0
  0.953125   0.882812 0
  0.726562   0.937500 0
  0.953125   0.875000 0
  0.507812   0.593750 0
  0.742188   0.531250 0
  0.945312   0.781250 0
  0.750000   0.726562 0
  0.960938   0.578125 0
  0.718750   0.640625 0
  0.726562   0.648438 0
  0.718750   0.648438 0
  0.789062   0.601562 0
  0.671875   0.914062 0
  0.765625   0.523438 0
  0.960938   0.804688 0
  0.734375   0.859375 0
  0.718750   0.867188 0
  0.726562   0.859375 0
  0.953125   0.796875 0
  0.515625   0.507812 0
  0.507812   0.515625 0
  0.945312   0.703125 0
  0.515625   0.531250 0
  0.515625   0.539062 0
  0.507812   0.546875 0
  0.945312   0.734375 0
  1.000000   0.671875 0
  0.765625   0.726562 0
  0.757812   0.734375 0
  0.750000   0.734375 0
  0.515625   0.796875 0
  0.515625   1.000000 0
  0.750000   0.937500 0
  0.523438   0.992188 0
  0.640625   0.679688 0
  0.523438   0.507812 0
  0.742188   0.632812 0
  0.867188   0.515625 0
  0.671875   0.851562 0
  0.789062   0.796875 0
  0.781250   0.796875 0
  0.789062   0.804688 0
  0.742188   0.671875 0
  0.507812   0.734375 0
  0.968750   0.617188 0
  0.734375   0.687500 0
  0.664062   0.648438 0
  0.578125   0.960938 0
  0.781250   0.531250 0
  0.773438   0.531250 0
  0.546875   0.789062 0
  0.750000   0.585938 0
  0.835938   0.562500 0
  0.812500   0.601562 0
  0.578125   0.867188 0
  0.804688   0.757812 0
  0.507812   0.992188 0
  0.742188   0.929688 0
  0.851562   0.976562 0
  0.851562   0.968750 0
  0.632812   0.617188 0
  0.789062   0.945312 0
  0.789062   0.937500 0
  0.781250   0.937500 0
  0.804688   0.531250 0
  0.640625   0.617188 0
  0.812500   0.929688 0
  0.804688   0.835938 0
  0.796875   0.835938 0
  0.773438   0.554688 0
  0.859375   0.867188 0
  0.835938   0.585938 0
  0.843750   0.593750 0
  0.812500   0.632812 0
  0.578125   0.898438 0
  0.570312   0.898438 0
  0.695312   0.585938 0
  0.984375   0.570312 0
  0.773438   0.507812 0
  0.789062   0.687500 0
  0.546875   0.960938 0
  0.867188   0.671875 0
  0.875000   0.664062 0
  0.875000   0.656250 0
  0.882812   0.585938 0
  0.796875   0.859375 0
  0.804688   0.867188 0
  0.867188   0.898438 0
  0.859375   0.898438 0
  0.625000   0.960938 0
  0.835938   0.617188 0
  0.812500   0.960938 0
  0.804688   0.585938 0
  0.804688   0.609375 0
  0.804688   0.617188 0
  0.921875   0.875000 0
  0.687500   0.929688 0
  0.914062   0.875000 0
  0.507812   0.765625 0
  0.742188   0.703125 0
  0.945312   0.953125 0
  0.835938   0.875000 0
  0.625000   0.523438 0
  0.867188   0.960938 0
  0.859375   0.960938 0
  0.835938   0.703125 0
  0.804688   0.640625 0
  0.804688   0.851562 0
  0.578125   0.906250 0
  0.953125   0.593750 0
  0.507812   0.796875 0
  0.945312   0.984375 0
  0.992188   0.718750 0
  0.828125   0.921875 0
  0.835938   0.906250 0
  0.601562   0.968750 0
  0.625000   0.554688 0
  0.585938   0.820312 0
  0.578125   0.820312 0
  0.820312   0.828125 0
  0.820312   0.835938 0
  0.835938   0.710938 0
  0.796875   0.757812 0
  0.554688   0.820312 0
  0.773438   0.664062 0
  0.546875   0.929688 0
  0.507812   0.695312 0
  0.820312   0.609375 0
  0.734375   1.000000 0
  0.976562   0.929688 0
  0.742188   0.984375 0
  0.507812   0.726562 0
  0.531250   0.601562 0
  0.945312   0.914062 0
  0.750000   0.539062 0
  0.515625   0.601562 0
  0.507812   0.804688 0
  0.789062   0.710938 0
  0.781250   0.710938 0
  0.781250   0.703125 0
  0.515625   0.703125 0
  0.523438   0.703125 0
  0.960938   0.890625 0
  0.867188   0.937500 0
  0.632812   1.000000 0
  0.984375   0.515625 0
  0.750000   0.570312 0
  0.515625   0.632812 0
  0.742188   0.578125 0
  0.851562   0.773438 0
  0.843750   0.765625 0
  0.789062   0.742188 0
  0.789062   0.734375 0
  0.781250   0.734375 0
  0.523438   0.734375 0
  0.750000   0.984375 0
  0.984375   0.906250 0
  0.507812   0.703125 0
  0.742188   0.640625 0
  0.945312   0.890625 0
  0.531250   0.578125 0
  0.859375   0.734375 0
  0.867188   0.734375 0
  0.859375   0.976562 0
  0.867188   0.968750 0
  0.507812   0.820312 0
  0.742188   0.757812 0
  0.507812   0.812500 0
  0.843750   0.796875 0
  0.851562   0.804688 0
  0.843750   0.804688 0
  0.585938   0.796875 0
  0.789062   0.773438 0
  0.804688   0.648438 0
  0.789062   0.765625 0
  0.781250   0.765625 0
  0.804688   0.593750 0
  0.804688   0.671875 0
  0.796875   0.671875 0
  0.804688   0.679688 0
  0.796875   0.687500 0
  0.671875   1.000000 0
  0.679688   1.000000 0
  0.921875   0.937500 0
  0.921875   0.929688 0
  0.570312   0.945312 0
  0.562500   0.945312 0
  0.742188   0.562500 0
  0.507812   0.625000 0
  0.976562   0.507812 0
  0.734375   0.781250 0
  0.507812   0.835938 0
  0.523438   0.710938 0
  0.734375   0.773438 0
  0.507812   0.828125 0
  0.820312   0.546875 0
  0.812500   0.546875 0
  0.820312   0.750000 0
  0.515625   0.726562 0
  0.882812   0.601562 0
  0.875000   0.601562 0
  0.828125   0.945312 0
  0.625000   0.585938 0
  0.820312   0.523438 0
  0.976562   0.539062 0
  0.507812   0.867188 0
  0.523438   0.742188 0
  0.734375   0.804688 0
  0.507812   0.859375 0
  0.843750   0.851562 0
  0.828125   0.562500 0
  0.820312   0.570312 0
  0.820312   0.578125 0
  0.828125   0.578125 0
  0.781250   0.828125 0
  0.781250   0.820312 0
  0.757812   0.539062 0
  0.515625   0.757812 0
  0.828125   0.976562 0
  0.625000   0.617188 0
  0.804688   0.726562 0
  0.796875   0.726562 0
  0.804688   0.718750 0
  0.796875   0.718750 0
  0.570312   0.585938 0
  0.781250   0.648438 0
  0.523438   0.765625 0
  0.984375   0.546875 0
  0.742188   0.609375 0
  0.742188   0.617188 0
  0.507812   0.679688 0
  0.734375   0.625000 0
  0.976562   0.617188 0
  0.765625   0.554688 0
  0.773438   0.593750 0
  0.976562   0.843750 0
  0.835938   0.992188 0
  0.835938   0.984375 0
  0.828125   0.984375 0
  0.507812   0.898438 0
  0.734375   0.835938 0
  0.851562   0.882812 0
  0.843750   0.882812 0
  0.820312   0.601562 0
  0.796875   0.734375 0
  0.796875   0.843750 0
  0.781250   0.843750 0
  0.789062   0.851562 0
  0.992188   0.914062 0
  0.781250   0.851562 0
  0.523438   0.843750 0
  0.750000   0.531250 0
  0.765625   0.515625 0
  0.757812   0.515625 0
  0.523438   0.578125 0
  0.515625   0.789062 0
  0.523438   0.781250 0
  0.757812   0.718750 0
  0.960938   0.968750 0
  0.859375   0.585938 0
  0.664062   0.609375 0
  0.804688   0.750000 0
  0.796875   0.750000 0
  0.859375   0.781250 0
  0.867188   0.789062 0
  0.859375   0.789062 0
  0.750000   0.640625 0
  0.734375   0.640625 0
  0.742188   0.648438 0
  0.507812   0.710938 0
  0.968750   0.585938 0
  0.734375   0.656250 0
  0.507812   0.906250 0
  0.742188   0.843750 0
  0.828125   0.617188 0
  0.828125   0.609375 0
  0.820312   0.625000 0
  0.812500   0.625000 0
  0.585938   0.890625 0
  0.585938   0.882812 0
  0.812500   0.828125 0
  0.757812   0.593750 0
  0.992188   0.523438 0
  0.750000   0.593750 0
  0.515625   0.656250 0
  0.828125   0.718750 0
  0.828125   0.710938 0
  0.820312   0.718750 0
  0.796875   0.867188 0
  1.000000   0.921875 0
  0.789062   0.578125 0
  0.992188   0.828125 0
  0.539062   0.695312 0
  0.531250   0.687500 0
  0.570312   0.750000 0
  0.750000   0.710938 0
  0.515625   0.773438 0
  0.742188   0.718750 0
  0.515625   0.976562 0
  0.625000   0.664062 0
  0.734375   0.867188 0
  0.851562   0.914062 0
  0.859375   0.906250 0
  0.625000   0.968750 0
  0.843750   0.914062 0
  0.609375   0.976562 0
  0.843750   0.906250 0
  0.523438   0.875000 0
  0.546875   0.757812 0
  0.750000   0.562500 0
  0.515625   0.625000 0
  0.765625   0.546875 0
  0.968750   0.609375 0
  0.757812   0.546875 0
  0.523438   0.609375 0
  0.523438   0.820312 0
  0.515625   0.820312 0
  0.960938   1.000000 0
  0.523438   0.812500 0
  0.515625   0.812500 0
  0.835938   0.531250 0
  0.882812   0.695312 0
  0.882812   0.687500 0
  0.859375   0.617188 0
  0.617188   0.687500 0
  0.875000   0.992188 0
  0.664062   0.632812 0
  0.898438   0.570312 0
  0.664062   0.640625 0
  0.804688   0.781250 0
  0.796875   0.781250 0
  0.804688   0.789062 0
  0.515625   0.828125 0
  0.750000   0.765625 0
  0.523438   0.835938 0
  0.757812   0.773438 0
  0.515625   0.835938 0
  0.515625   0.843750 0
  0.859375   0.812500 0
  0.867188   0.820312 0
  0.859375   0.820312 0
  0.507812   0.937500 0
  0.742188   0.875000 0
  0.828125   0.648438 0
  0.820312   0.656250 0
  0.812500   0.656250 0
  0.585938   0.914062 0
  0.710938   0.601562 0
  0.703125   0.601562 0
  1.000000   0.562500 0
  0.757812   0.625000 0
  0.523438   0.687500 0
  0.992188   0.554688 0
  0.750000   0.625000 0
  0.515625   0.687500 0
  0.523438   0.882812 0
  0.648438   0.570312 0
  0.640625   0.570312 0
  0.882812   0.500000 0
  0.789062   0.609375 0
  0.992188   0.859375 0
  0.507812   0.843750 0
  0.742188   0.781250 0
  0.531250   0.718750 0
  0.515625   0.851562 0
  0.750000   0.789062 0
  0.539062   0.726562 0
  0.539062   0.718750 0
  0.976562   0.906250 0
  0.742188   0.500000 0
  0.507812   0.562500 0
  0.570312   0.789062 0
  0.671875   0.945312 0
  0.960938   0.929688 0
  0.546875   0.617188 0
  0.851562   0.945312 0
  0.843750   0.937500 0
  0.609375   1.000000 0
  0.570312   0.554688 0
  0.523438   0.906250 0
  0.843750   0.773438 0
  0.828125   0.890625 0
  0.820312   0.890625 0
  0.617188   1.000000 0
  0.796875   0.523438 0
  0.914062   0.781250 0
  0.687500   0.835938 0
  0.750000   0.875000 0
  0.515625   0.937500 0
  0.781250   0.742188 0
  0.992188   0.804688 0
  0.765625   0.859375 0
  0.750000   0.867188 0
  0.968750   0.921875 0
  0.757812   0.859375 0
  0.523438   0.921875 0
  0.984375   0.796875 0
  0.976562   0.703125 0
  0.804688   0.539062 0
  0.914062   0.789062 0
  0.921875   0.789062 0
  0.687500   0.843750 0
  0.804688   0.820312 0
  0.820312   0.695312 0
  0.804688   0.812500 0
  0.796875   0.812500 0
  0.750000   0.703125 0
  0.515625   0.765625 0
[...]
CELL_DATA 30592
SCALARS scalar_value float 1
LOOKUP_TABLE default
3.78939e-08
3.03395e-08
2.58625e-08
2.06504e-08
1.82043e-08
1.49986e-08
2.21949e-08
1.74198e-08
1.38717e-08
1.15902e-08
1.22418e-08
2.24507e-08
1.90195e-08
2.07931e-08
0.0139133
0.012895
0.0120833
0.011586
0.0105551
0.0101438
0.00548608
0.00527462
0.00488153
0.00560931
0.00486283
0.00444491
0.00502221
0.000957131
0.000780745
0.00060169
0.000845212
0.0158465
0.0151065
0.0159614
0.014167
0.137798
0.134243
0.126055
0.139094
0.134759
0.136897
0.193035
0.188273
0.184283
0.188915
0.182224
0.178449
0.178226
0.20515
0.203349
0.204958
0.197809
0.192989
0.197041
1.43053e-05
1.27127e-05
1.24861e-05
1.20365e-05
1.10727e-05
1.03968e-05
0.00187838
0.00207486
0.00188213
0.0019273
0.00206014
0.00208502
0.00207523
4.71386e-08
2.67449e-08
3.68267e-08
2.97651e-08
3.06473e-08
2.32413e-08
1.9422e-08
1.49511e-08
1.50651e-08
2.37629e-08
1.88427e-08
1.4812e-08
1.24661e-08
1.23393e-08
1.91961e-08
1.48518e-08
1.22636e-08
1.18875e-08
2.48156e-05
1.80804e-05
3.55515e-05
3.2982e-05
2.39812e-05
1.74204e-05
1.63596e-05
1.61063e-05
2.36596e-05
1.27673e-05
2.16812e-05
1.64642e-05
1.46018e-05
1.19529e-05
2.99901e-05
2.54931e-05
3.18446e-05
1.95788e-05
9.90916e-06
8.82726e-06
1.12699e-05
5.86588e-05
4.09892e-05
3.9783e-05
3.36698e-05
2.92062e-05
3.2443e-05
3.85093e-05
3.34635e-05
0.149521
0.140729
0.136052
0.149089
0.14409
0.142856
1.15568e-05
9.53923e-06
1.00638e-05
7.94939e-06
8.57143e-06
6.97397e-06
7.14326e-06
5.42519e-06
4.43479e-06
4.66102e-06
3.67389e-06
2.62238e-06
1.83656e-06
2.1315e-06
3.78488e-06
2.53888e-06
2.9895e-06
7.61917e-06
7.60775e-06
6.92129e-06
9.49569e-06
6.99268e-06
8.57095e-06
8.83183e-06
9.82443e-06
1.22946e-05
1.07425e-05
1.46112e-05
0.0262736
0.0236979
0.023005
3.50586e-05
2.98792e-05
4.06895e-05
3.76408e-05
3.28004e-05
4.15825e-05
7.01403e-05
5.04338e-05
3.43943e-05
4.91663e-05
6.94748e-05
6.23089e-05
5.38009e-05
6.11007e-05
5.20139e-05
4.46235e-05
0.106518
0.102852
0.0959074
0.107145
0.000104416
9.02737e-05
7.99591e-05
3.80143e-07
3.15883e-07
2.50233e-07
3.1487e-07
2.0731e-07
2.0616e-07
1.70313e-07
1.64665e-07
1.36973e-07
1.12888e-07
1.34942e-07
2.59079e-07
2.13787e-07
1.68635e-07
0.0134613
0.012655
0.0109741
0.0138483
0.00888177
0.00831393
0.00915038
0.00992457
0.0130034
0.0100907
0.0117914
0.00928426
0.0131959
0.010611
0.0128918
0.01201
0.0275669
0.0224982
0.0231019
0.00414001
0.00371085
0.00336141
0.0182062
0.0159506
0.0150171
0.00736034
0.00666813
0.00687056
0.000991173
0.000979081
0.000929561
0.00109963
0.207132
0.206708
0.213619
0.196976
0.00136797
0.00107624
0.000921912
0.185939
0.184456
0.191337
0.174202
0.0202367
0.0181688
0.0164922
0.0164487
0.0147002
0.0156065
1.52983e-05
1.49099e-05
1.25253e-05
1.81633e-05
1.24724e-05
8.51834e-06
1.0236e-05
1.74245e-05
1.4618e-05
1.20327e-05
0.0763954
0.0706909
0.06657
0.0747686
0.0702189
0.0683312
0.00192716
0.00208823
0.00210058
0.039362
0.0397254
0.0368165
0.0156632
0.0145116
0.0149468
0.0134439
0.0265713
0.0252577
0.0268276
0.0234804
0.18078
0.182224
0.184602
0.194771
0.20228
0.193008
0.2025
0.204593
0.203691
0.00189583
0.0021223
0.00216641
0.00213521
0.218143
0.21652
0.216514
0.212161
0.220872
0.219974
0.219632
0.210299
0.210976
0.214418
0.208597
0.00129471
0.00134118
0.00153005
0.00127114
0.00186042
0.00216355
0.0017652
0.00124285
0.00128201
0.00121156
0.215765
0.216492
0.218064
0.213771
0.207801
0.207636
0.0192186
0.0168529
0.0154441
0.0158712
0.00414356
0.00442482
0.00364423
0.000439362
0.000340251
0.000382475
0.000263392
0.000224564
0.000229205
0.110763
0.105575
0.103832
9.4202e-05
0.000122157
0.000130501
0.000148431
0.000203786
0.000158604
0.00015631
0.00019731
0.000214518
0.000179332
0.000217043
0.000230408
0.104693
0.0995357
0.102371
0.0836389
0.0734311
0.0803786
0.098584
0.0920893
0.0871508
0.0935447
0.095842
0.0922439
0.091168
0.0835559
0.0650982
0.07875
0.0752441
0.0749433
4.80849e-05
4.77533e-05
5.2363e-05
4.62212e-05
4.96802e-05
4.96161e-05
4.55137e-05
4.38169e-05
4.65174e-05
4.09818e-05
0.00177612
0.00136268
0.00127787
0.00114282
0.000716619
0.000781019
0.000613567
0.1933
0.19487
0.201042
0.191939
0.173092
0.181413
0.16958
0.000815881
0.000792143
0.000611333
0.000761859
0.00067439
0.000727203
0.000567387
0.000830277
0.000752792
0.000630397
0.166643
0.166774
0.173955
0.162274
0.178161
0.175502
0.178901
0.156584
0.154936
0.160892
0.149729
0.000337902
0.000250948
0.000255081
0.0953419
0.0952642
0.0906679
0.0592374
0.0586665
0.0559179
0.043992
0.0421512
0.0393391
0.000412576
0.000381365
0.000325416
0.000426075
0.152107
0.150533
0.157204
0.140641
6.40079e-05
6.21663e-05
5.2893e-05
1.98876e-05
2.10693e-05
1.66695e-05
1.61531e-05
8.21186e-06
1.21764e-05
3.04149e-05
2.77181e-05
3.22896e-05
5.716e-05
4.39079e-05
5.91717e-05
0.00154474
0.00120786
0.00105619
0.000152794
0.000138098
2.19025e-05
0.000114498
0.000153597
1.42287e-07
1.77978e-07
1.75113e-07
1.18064e-07
9.82507e-08
1.45614e-07
2.64419e-07
2.54417e-07
2.1225e-07
3.02822e-07
1.844e-05
1.21724e-05
1.99093e-05
2.37334e-07
2.00798e-07
2.2072e-07
1.68596e-07
1.34816e-07
1.87811e-07
8.24549e-06
6.8751e-06
5.6072e-06
6.5295e-06
1.40414e-07
1.17439e-07
9.63928e-08
1.12729e-07
0.0150736
0.0150909
0.0139582
0.272289
0.274548
0.279684
0.270085
0.272193
0.277373
0.279061
3.11725e-05
4.19374e-05
2.94654e-05
3.44085e-05
2.60427e-05
3.74586e-05
3.7607e-05
3.48324e-05
3.99678e-05
3.05867e-05
2.15739e-05
2.01534e-05
2.33051e-05
1.7735e-05
0.000961168
0.000981121
0.00113995
0.000709443
0.000562835
0.000752638
0.00125754
0.00116234
0.00128983
0.00185813
0.00191815
0.0012569
0.109501
0.111121
0.103734
0.000219931
0.000224169
0.000199408
0.0973341
0.0977708
0.103737
0.0904224
0.0510463
0.0655978
0.0541932
0.0815098
0.0980384
0.0840531
0.0570977
0.0612197
0.0711528
5.21738e-05
5.03741e-05
3.45021e-05
0.240532
0.232755
0.243733
0.0307644
0.0383527
0.032707
0.0444694
0.0532004
0.0550604
0.0479098
0.0547229
0.0571082
0.0270675
0.0257608
0.0275004
0.0229515
2.39901e-05
2.40885e-05
2.89679e-05
0.0491897
0.0551376
0.0571494
0.0564713
0.047817
0.0526828
0.0550451
0.0528773
0.00504645
0.0042572
0.00402727
0.00315518
0.00256849
0.00240702
0.0232576
0.0229187
0.0249529
0.0203542
1.85146e-05
1.4352e-05
1.22512e-05
9.4004e-06
6.66061e-06
9.7572e-06
8.62874e-06
6.94942e-06
0.157619
0.142774
0.140253
0.139711
0.14648
0.13047
0.120278
0.118724
0.124767
0.109787
5.8214e-06
9.26592e-06
1.1054e-05
1.02259e-05
1.31807e-05
7.74922e-06
7.19922e-06
6.03972e-06
1.43908e-05
1.21469e-05
1.69851e-05
0.000247945
0.000205253
0.000271911
0.000151786
0.000111184
0.000148586
0.138824
0.137534
0.14267
0.129575
0.134054
0.1298
0.143663
0.138876
0.141901
0.0231939
0.0210923
0.0209391
0.0195801
5.68672e-06
6.8272e-06
6.52916e-06
8.07453e-06
9.19173e-06
1.09698e-05
9.63417e-06
7.63344e-06
9.17308e-06
9.06869e-06
0.169147
0.170307
0.175911
5.31012e-05
4.52731e-05
3.73959e-05
3.34554e-08
4.27267e-08
4.94801e-08
1.18296e-07
2.8593e-08
3.18342e-08
2.71631e-08
4.16985e-08
6.34898e-08
7.39954e-08
6.38945e-08
2.81091e-07
9.78311e-08
0.000729636
0.00233837
0.00216695
0.00236469
0.00183494
0.00128736
0.00140119
0.00108135
0.0496807
0.0452351
0.0513189
6.21245e-05
5.09268e-05
6.7405e-05
4.33093e-05
4.28569e-05
3.75938e-05
5.02212e-05
0.280537
0.280045
0.282589
0.277258
6.04015e-06
5.73389e-06
4.90435e-06
5.74613e-06
5.93869e-06
4.64976e-06
3.96506e-06
3.54593e-06
3.75339e-06
3.19553e-06
0.00152234
0.00130668
0.00116907
0.00100224
0.000861758
0.000733617
0.000951129
5.21271e-06
4.64641e-06
4.21657e-06
4.39348e-06
0.000893459
0.000765123
0.00067945
0.00066148
0.000788639
0.000670861
0.000555959
0.00556953
0.00590814
0.00448625
0.288882
0.287175
0.285199
0.280961
0.27769
0.283337
0.27894
0.275183
0.270204
0.273776
0.281276
0.278383
0.275245
5.45397e-06
4.79903e-06
4.40515e-06
4.25551e-06
3.5596e-06
3.13324e-06
2.87365e-06
2.77195e-06
3.02549e-06
2.74121e-06
2.85462e-06
0.102421
0.120375
0.106498
0.137827
0.143151
0.141195
0.109926
0.115037
0.12717
0.112606
0.0358766
0.0321423
0.0383413
0.0392631
0.0334576
0.0402984
0.0506786
0.0457436
0.0542843
0.286966
0.283898
0.279452
0.283216
0.287451
0.283227
0.283109
0.279559
0.279865
0.275172
0.275509
0.270902
0.0017189
0.00151975
0.00199915
1.41579e-06
1.25216e-06
1.12683e-06
1.17694e-06
0.0426107
0.0397015
0.035937
0.0402093
4.24998e-09
4.61047e-09
3.82682e-09
4.10719e-09
5.40436e-09
6.52762e-09
3.59187e-09
2.95594e-09
4.7089e-09
8.55502e-09
9.01104e-09
7.44712e-09
1.16899e-08
0.00199936
0.0018563
0.00154867
0.00209266
0.000188095
0.000240369
0.000350285
0.000235218
0.000410881
0.000482923
0.000589618
0.000680394
0.000900806
0.000655681
0.000280958
0.00033566
0.00046556
0.00032381
0.000642189
0.000542847
0.0004831
0.179921
0.17323
0.175788
0.151424
0.14717
0.151161
2.56576e-07
2.5006e-07
4.19466e-07
2.74692e-07
1.76304e-07
2.5274e-07
0.000923528
0.00334668
0.00299384
0.0024427
0.00320522
0.0241828
0.0263159
0.0239548
0.0285333
0.0306407
0.0275725
6.6515e-06
6.32628e-06
6.06736e-06
1.35655e-05
1.39347e-05
1.72532e-05
1.49436e-07
1.64102e-07
2.0993e-07
1.01838e-05
8.60613e-06
1.2608e-05
2.1564e-05
2.16111e-05
2.64484e-05
2.35283e-05
3.73512e-05
4.37986e-05
4.30407e-05
4.99122e-05
5.00384e-05
5.71955e-05
6.62569e-05
5.50321e-05
6.3257e-05
0.000323584
0.000305155
0.000297131
0.00452312
0.00477341
0.00427014
0.00519243
0.0198108
0.0187095
0.016391
0.0203596
0.00458279
0.00435242
0.00418891
0.00292919
0.00252365
0.00243478
0.00228004
0.00789474
0.00706846
0.0071241
0.00644999
2.46969e-06
2.00251e-06
2.10067e-06
0.00632996
0.00509108
0.00573518
0.00521039
0.00460437
0.00461961
0.199995
0.194297
0.190402
3.37623e-07
2.72762e-07
2.12025e-07
3.21856e-07
1.24662e-07
9.19433e-08
7.14521e-08
1.03883e-07
2.99866e-09
2.29775e-09
2.23136e-09
1.90267e-09
1.84413e-09
1.54156e-09
1.81442e-09
1.30257e-09
1.21884e-09
9.79672e-10
1.0195e-09
0.0660656
0.0675164
0.062177
0.0633164
0.0596906
0.0557346
0.055021
0.0516003
0.0484176
0.00409505
0.00361987
0.00370668
0.00323386
2.78885e-07
1.80612e-07
1.78502e-07
1.41934e-07
1.16062e-07
1.38742e-07
9.11261e-08
7.42537e-08
7.49668e-08
1.07223e-07
8.2818e-08
7.05641e-08
6.23506e-08
0.00015402
0.000138473
0.000113936
0.000153534
0.00736468
0.00732788
0.00675957
0.00886321
0.00855994
0.00805575
0.00024917
0.000206608
0.000186168
5.57169e-07
4.30725e-07
5.71785e-07
3.60136e-07
3.19196e-07
4.76018e-07
1.20312e-05
1.48755e-05
1.49144e-05
2.61339e-05
2.21334e-05
1.81236e-05
2.1552e-05
4.59159e-07
3.18492e-07
3.60596e-07
0.0196736
0.0174312
0.0164533
0.036565
0.0342243
0.0313373
0.0363075
0.0331002
0.0323539
0.0310003
0.0317908
0.0292428
0.0292748
0.0272569
0.000153486
0.000139038
0.000117266
2.52049e-05
0.000152369
0.00635634
0.00590608
0.00484195
0.00327364
0.00237439
0.00193783
0.002318
0.00146069
0.00143734
0.00197791
0.0014526
0.00108614
0.00131512
0.202915
0.195649
0.199687
0.202133
0.193162
0.0106188
0.0110765
0.012549
0.00739738
0.00649707
0.00631898
0.050486
5.09272e-05
0.0455969
0.00529445
0.0326967
0.0320936
0.0296823
0.00183376
0.00139315
0.00191109
0.000901297
0.000672202
0.000983643
0.00106132
0.000990097
0.000821935
0.00113275
0.115264
0.109201
0.101019
0.109742
1.81502e-05
1.67542e-05
1.78074e-05
1.54478e-05
0.237111
0.281523
0.242151
0.24389
0.245748
0.267542
0.272868
0.272959
1.2871e-05
1.35834e-05
1.06108e-05
9.0027e-06
8.14113e-06
8.60975e-06
7.39842e-06
0.277561
0.282475
0.27284
0.268046
0.272614
0.0244323
0.0250349
0.0226996
0.00208335
0.00199002
0.00235705
0.0015501
0.000427092
4.8323e-05
0.0016499
6.08186e-09
2.00857e-08
1.32188e-08
1.68314e-08
8.08239e-07
0.12108
0.130651
0.0100403
0.00593752
0.00936633
5.52199e-05
0.0103743
1.08571e-07
1.48328e-07
1.1715e-05
1.19878e-07
0.000293343
0.000281236
0.00712784
0.000251341
0.0176998
0.000666747
0.000654715
0.0105905
0.000560737
0.0281126
1.39971e-08
3.39301e-09
1.10583e-08
0.0239088
0.000465844
0.000877797
0.0251865
0.0102941
1.5955e-07
1.41944e-07
1.78647e-05
5.74821e-06
2.21668e-05
1.67313e-07
8.47867e-07
0.000339522
0.000261039
0.000123312
0.000299623
0.0249322
0.0225086
0.000377695
0.0248548
0.000388374
0.000181139
0.000331877
0.0134993
0.127644
0.000661997
0.123307
0.0119266
0.277967
6.66483e-06
0.00111785
0.00103184
0.275957
7.04551e-06
0.276645
0.281218
0.0139752
3.97085e-05
0.0150047
8.64415e-05
0.0130049
0.000860594
8.34443e-06
7.86586e-06
0.0230312
7.34093e-06
0.288883
0.0226213
0.288857
9.59871e-06
0.00197279
0.00155066
0.00185861
0.0961587
0.000152775
0.0918038
0.0841331
0.113508
0.000103638
0.0919404
1.16841e-05
0.000114301
0.000102862
2.37499e-05
2.21029e-05
1.53777e-05
0.0488612
0.08742
0.0552701
0.222991
1.2738e-05
0.0466115
1.9473e-05
1.30193e-05
1.08721e-05
2.9319e-05
0.00122712
0.00052128
0.000759077
0.000548282
2.10475e-08
5.40555e-08
1.60207e-06
3.2711e-06
2.68097e-06
0.00193218
0.0355139
0.15003
0.0386832
0.00128078
1.4702e-06
0.000121284
1.28033e-06
1.6405e-06
0.00014387
0.244486
0.238632
0.00532182
0.0126604
0.00457566
0.012731
0.0051028
0.0102922
0.0112971
0.00161094
0.000256256
0.000342637
0.000192459
0.00777567
0.00636734
0.0102848
5.76879e-05
3.29105e-05
0.114217
0.0327372
0.0456579
0.031688
0.0318516
0.10002
0.0294267
0.138246
3.61019e-08
1.05527e-08
4.48432e-08
0.0188551
0.0156688
0.0042161
1.35268e-08
9.67291e-08
0.0196359
0.0976409
0.0193913
0.000237099
2.29395e-06
2.64139e-06
0.000270213
9.20101e-08
3.69253e-08
2.66931e-06
6.44824e-08
1.95145e-06
0.0243955
0.0851612
0.0230356
0.0544815
0.0907277
7.81737e-08
7.70276e-08
2.19797e-06
3.94942e-06
0.0842404
0.0790411
0.0155464
0.0730894
0.0737291
0.017737
0.0214743
0.0684136
0.0194317
0.0227095
0.0732418
0.0782092
1.7643e-08
6.51503e-08
0.0730409
5.35911e-08
0.00516826
0.00477126
0.00191302
0.00228882
0.00521887
0.00154093
0.0233243
0.0194795
0.0606976
0.0649115
3.93255e-08
3.27141e-08
0.0551585
0.0175269
2.53113e-08
0.0611277
3.39146e-08
6.45681e-06
5.38438e-06
0.000157942
7.54669e-06
0.000132303
4.94313e-05
0.025312
0.290035
0.055356
7.21946e-05
0.0477415
5.48396e-05
0.000254487
0.0524498
0.0515059
0.00692956
0.00687401
4.87376e-05
0.006051
7.71874e-05
0.0530617
0.212689
0.0264573
0.202885
1.02239e-05
0.20149
0.0332583
0.0724937
0.195969
0.228841
0.0285158
1.38119e-05
0.00152827
0.197028
0.220902
0.224687
0.000158873
4.45594e-05
0.0299399
0.028504
0.00120305
0.000511876
0.0254286
0.00118984
0.000988482
0.0645576
0.0617071
0.000905366
0.00248491
0.070504
0.00261233
1.52449e-07
9.00834e-06
1.28945e-07
7.45318e-06
3.93231e-06
0.00046773
0.000373703
0.0564579
0.00010025
0.0510894
0.0631036
0.0489274
0.000269565
0.000237525
4.63434e-06
0.00176228
0.00162783
0.000141671
2.86134e-06
5.44947e-08
0.000231838
0.000269198
0.00147781
0.0015868
0.18756
0.0365091
0.00209795
0.00617788
0.00116628
8.54398e-06
0.00013755
5.44475e-05
5.53938e-05
4.94062e-05
0.0228328
4.44136e-08
8.50626e-06
0.00144668
0.203823
0.205454
0.221168
3.73423e-08
1.92221e-06
3.00952e-08
1.56071e-06
3.72577e-08
0.000310992
0.0273841
0.0370953
7.18346e-05
1.45659e-06
5.75624e-05
0.000889899
0.0281361
0.000178508
0.152688
0.115986
0.000251419
0.00106461
0.000291866
0.152732
8.04339e-05
6.77486e-05
0.000544584
7.20047e-05
8.3612e-06
2.20589e-05
2.82126e-05
0.111972
4.20867e-05
0.0751916
2.76996e-05
0.0645547
0.0715858
0.0236617
0.0669852
0.0229489
3.96694e-06
3.1989e-06
2.65477e-05
1.69069e-05
1.80555e-06
5.09977e-06
4.22735e-06
3.46183e-06
1.39668e-06
1.15105e-06
1.08705e-06
1.28441e-06
0.000367147
0.00046535
0.000455726
0.000418041
0.00194287
0.00027089
0.000203097
0.000130471
0.000171932
0.000280108
0.000467667
0.000494256
0.000167804
0.253603
0.0121242
0.246282
0.00215741
0.216905
0.000945127
0.00010388
0.000973388
8.89158e-05
7.66213e-05
0.00012746
0.00012139
0.00126092
0.00861414
0.00871374
3.76795e-05
7.19793e-05
0.00949931
0.00779387
6.77276e-05
0.00235931
0.000503306
0.00180832
0.000145099
0.000202501
0.00410686
0.112624
0.057168
0.0162021
0.0531957
0.0187553
0.0483054
0.0145149
0.0531636
0.0338616
0.289974
0.0108059
0.286452
0.0017227
0.00889318
0.0362884
1.23338e-05
0.000331133
1.58664e-05
1.5879e-05
0.00130025
0.000439421
0.0617751
1.23763e-05
0.0745974
0.262028
0.0633466
4.85508e-05
5.00652e-05
0.0319816
2.03815e-05
0.00135603
5.61877e-05
0.0346834
0.0286355
0.0351009
0.0953934
0.0305266
0.0903439
4.67606e-05
0.0176895
2.81009e-06
0.290486
0.018441
0.0685871
0.0535205
0.00024405
7.12808e-06
1.9383e-06
2.12598e-05
0.00232403
2.12469e-05
0.0632935
0.000143239
0.060067
2.59678e-05
0.000579336
2.09004e-05
0.00153263
0.24967
0.128501
0.139203
0.145867
0.00157661
0.0014936
0.00177182
0.161491
0.0287564
0.0296402
0.153621
0.124019
0.156537
0.0208872
0.146006
0.0289413
0.0191627
0.0321412
0.0357142
0.141335
0.104159
0.142215
0.0240719
0.134152
0.0226671
0.00042404
2.60831e-06
1.76856e-05
1.29914e-05
0.00326049
0.0212763
3.33049e-06
0.000260959
0.000379692
0.000579099
0.00256411
0.0562361
4.42761e-05
8.83655e-07
3.78666e-05
6.80312e-07
6.99429e-07
0.0121504
0.0735659
0.023437
6.65381e-05
0.0219074
0.0175001
0.0222181
0.000147134
0.278433
0.28207
0.280874
0.0187612
0.285675
0.0055437
2.37445e-05
2.24045e-05
0.00495069
0.00318021
0.00522405
0.0218569
0.0209284
5.55645e-05
2.39223e-05
0.130174
0.000618234
7.9392e-05
6.41362e-05
5.62156e-05
0.0425656
3.06306e-05
2.93224e-05
9.48275e-05
6.33018e-05
4.90839e-07
5.96698e-07
3.86414e-05
9.54869e-06
1.242e-05
4.34229e-05
1.30834e-05
1.65128e-05
1.4781e-05
7.49048e-05
1.51493e-05
5.44483e-05
0.000201835
5.39709e-05
4.55978e-06
5.40687e-06
8.07717e-06
0.00673366
0.00798369
0.290573
0.278431
8.92771e-07
1.8597e-06
0.000313248
1.57198e-06
0.00674449
0.00571333
0.00559353
0.00704144
0.193269
0.18292
0.0136259
0.0119011
0.0118223
0.0127837
0.0106916
0.0192555
0.000347575
0.00757285
0.000313543
0.00739297
0.0164248
0.000297525
0.00669904
0.0190109
0.000569772
0.000615589
0.000734665
2.04022e-05
0.0693043
0.0771869
0.0742658
0.0756185
0.024547
0.000135934
0.0665056
0.219397
0.0343488
0.00608956
0.0147887
0.0326529
0.0154991
0.0304533
0.00271569
0.0310218
0.00199959
0.000759068
3.35857e-06
0.00528391
0.000393331
0.0448365
0.00400116
0.00128772
0.171161
0.210543
0.00431628
0.0519752
0.0437101
0.00165523
0.264884
0.0601402
0.07154
0.0765026
0.00146094
0.00109222
0.00421323
3.19518e-05
9.09207e-05
6.24296e-06
0.00533928
0.00550748
6.41137e-06
7.77932e-08
4.56405e-06
5.73622e-06
0.00384862
0.0104034
0.00334344
0.013087
0.000493578
0.0170521
0.000430938
0.00875687
0.000572352
0.00855936
0.0205606
2.46278e-06
0.104602
0.110978
0.0935573
0.00907424
3.68836e-05
0.00833948
0.00536919
0.00754484
0.00576494
0.00800003
2.84763e-05
0.190765
0.183372
0.182588
0.0013681
0.000143431
0.00303073
0.000908674
0.000143422
0.000171556
0.00122122
0.000220052
0.000161502
3.30102e-05
0.00013497
0.000131093
0.00813471
0.0377848
0.0201937
0.000406389
0.000403669
0.000345258
0.00180389
0.000476584
0.00127177
9.86236e-06
6.91587e-08
7.66648e-06
0.00115421
1.7746e-07
5.83241e-06
0.117719
0.0869099
0.0303895
0.0796671
0.000104702
9.22804e-05
0.00160371
0.00166064
0.143369
0.0262018
1.45665e-05
0.0150686
0.298462
0.020849
0.0784499
0.00195142
0.00104931
0.000199475
0.0698833
0.0618357
0.0121561
0.296399
0.057487
0.000185364
3.66255e-05
0.0554797
0.000198054
0.0532423
5.4463e-06
0.000855618
7.83263e-05
4.04764e-05
0.0513316
0.00017945
0.000188209
0.0133981
0.293073
1.00512e-05
0.000143221
0.0473563
0.0563337
2.36451e-06
0.000183512
4.98259e-05
4.93118e-05
1.25679e-08
0.275487
0.257509
0.0201029
7.11562e-05
0.0246873
7.48769e-05
0.0233028
0.0346162
7.0036e-05
0.0199345
0.00711401
2.59847e-05
0.0417724
0.165964
0.0114013
3.8226e-05
0.0367976
0.0285429
0.0831856
0.0301521
5.50897e-05
5.36749e-05
5.70827e-05
0.0425396
4.87295e-05
0.035883
0.0298019
0.000100663
0.0282005
0.0684007
0.000102647
0.0445328
0.0346566
9.53226e-05
0.0310911
7.58257e-05
0.039086
7.16906e-07
7.57115e-05
0.000278872
0.0440059
7.12813e-05
0.000103284
0.0502098
9.57576e-05
2.34185e-06
2.85758e-06
0.0615853
0.00183537
0.0605765
0.00057148
0.0691431
0.000598353
0.0703363
0.000758417
0.0736373
0.257903
0.0711171
0.0963923
0.0255237
0.258487
0.078095
0.0245923
0.0259387
0.24612
0.000316882
0.000860275
0.0536305
0.000801386
0.0759124
0.000232965
0.00157444
0.000811807
0.0714894
0.0462829