# vtk DataFile Version 2.0
Unstructured Grid by M++
ASCII
DATASET UNSTRUCTURED_GRID
POINTS 15808 float
  0.718750   0.625000 0
  0.718750   0.953125 0
  0.960938   0.882812 0
  0.734375   0.937500 0
  0.953125   0.882812 0
  0.726562   0.937500 0
  0.953125   0.875000 0
  0.507812   0.593750 0
  0.742188   0.531250 0
  0.945312   0.781250 0
  0.750000   0.726562 0
  0.960938   0.578125 0
  0.718750   0.640625 0
  0.726562   0.648438 0
  0.718750   0.648438 0
  0.789062   0.601562 0
  0.671875   0.914062 0
  0.765625   0.523438 0
  0.960938   0.804688 0
  0.734375   0.859375 0
  0.718750   0.867188 0
  0.726562   0.859375 0
  0.953125   0.796875 0
  0.515625   0.507812 0
  0.507812   0.515625 0
  0.945312   0.703125 0
  0.515625   0.531250 0
  0.515625   0.539062 0
  0.507812   0.546875 0
  0.945312   0.734375 0
  1.000000   0.671875 0
  0.765625   0.726562 0
  0.757812   0.734375 0
  0.750000   0.734375 0
  0.515625   0.796875 0
  0.515625   1.000000 0
  0.750000   0.937500 0
  0.523438   0.992188 0
  0.640625   0.679688 0
  0.523438   0.507812 0
  0.742188   0.632812 0
  0.867188   0.515625 0
  0.671875   0.851562 0
  0.789062   0.796875 0
  0.781250   0.796875 0
  0.789062   0.804688 0
  0.742188   0.671875 0
  0.507812   0.734375 0
  0.968750   0.617188 0
  0.734375   0.687500 0
  0.664062   0.648438 0
  0.578125   0.960938 0
  0.781250   0.531250 0
  0.773438   0.531250 0
  0.546875   0.789062 0
  0.750000   0.585938 0
  0.835938   0.562500 0
  0.812500   0.601562 0
  0.578125   0.867188 0
  0.804688   0.757812 0
  0.507812   0.992188 0
  0.742188   0.929688 0
  0.851562   0.976562 0
  0.851562   0.968750 0
  0.632812   0.617188 0
  0.789062   0.945312 0
  0.789062   0.937500 0
  0.781250   0.937500 0
  0.804688   0.531250 0
  0.640625   0.617188 0
  0.812500   0.929688 0
  0.804688   0.835938 0
  0.796875   0.835938 0
  0.773438   0.554688 0
  0.859375   0.867188 0
  0.835938   0.585938 0
  0.843750   0.593750 0
  0.812500   0.632812 0
  0.578125   0.898438 0
  0.570312   0.898438 0
  0.695312   0.585938 0
  0.984375   0.570312 0
  0.773438   0.507812 0
  0.789062   0.687500 0
  0.546875   0.960938 0
  0.867188   0.671875 0
  0.875000   0.664062 0
  0.875000   0.656250 0
  0.882812   0.585938 0
  0.796875   0.859375 0
  0.804688   0.867188 0
  0.867188   0.898438 0
  0.859375   0.898438 0
  0.625000   0.960938 0
  0.835938   0.617188 0
  0.812500   0.960938 0
  0.804688   0.585938 0
  0.804688   0.609375 0
  0.804688   0.617188 0
  0.921875   0.875000 0
  0.687500   0.929688 0
  0.914062   0.875000 0
  0.507812   0.765625 0
  0.742188   0.703125 0
  0.945312   0.953125 0
  0.835938   0.875000 0
  0.625000   0.523438 0
  0.867188   0.960938 0
  0.859375   0.960938 0
  0.835938   0.703125 0
  0.804688   0.640625 0
  0.804688   0.851562 0
  0.578125   0.906250 0
  0.953125   0.593750 0
  0.507812   0.796875 0
  0.945312   0.984375 0
  0.992188   0.718750 0
  0.828125   0.921875 0
  0.835938   0.906250 0
  0.601562   0.968750 0
  0.625000   0.554688 0
  0.585938   0.820312 0
  0.578125   0.820312 0
  0.820312   0.828125 0
  0.820312   0.835938 0
  0.835938   0.710938 0
  0.796875   0.757812 0
  0.554688   0.820312 0
  0.773438   0.664062 0
  0.546875   0.929688 0
  0.507812   0.695312 0
  0.820312   0.609375 0
  0.734375   1.000000 0
  0.976562   0.929688 0
  0.742188   0.984375 0
  0.507812   0.726562 0
  0.531250   0.601562 0
  0.945312   0.914062 0
  0.750000   0.539062 0
  0.515625   0.601562 0
  0.507812   0.804688 0
  0.789062   0.710938 0
  0.781250   0.710938 0
  0.781250   0.703125 0
  0.515625   0.703125 0
  0.523438   0.703125 0
  0.960938   0.890625 0
  0.867188   0.937500 0
  0.632812   1.000000 0
  0.984375   0.515625 0
  0.750000   0.570312 0
  0.515625   0.632812 0
  0.742188   0.578125 0
  0.851562   0.773438 0
  0.843750   0.765625 0
  0.789062   0.742188 0
  0.789062   0.734375 0
  0.781250   0.734375 0
  0.523438   0.734375 0
  0.750000   0.984375 0
  0.984375   0.906250 0
  0.507812   0.703125 0
  0.742188   0.640625 0
  0.945312   0.890625 0
  0.531250   0.578125 0
  0.859375   0.734375 0
  0.867188   0.734375 0
  0.859375   0.976562 0
  0.867188   0.968750 0
  0.507812   0.820312 0
  0.742188   0.757812 0
  0.507812   0.812500 0
  0.843750   0.796875 0
  0.851562   0.804688 0
  0.843750   0.804688 0
  0.585938   0.796875 0
  0.789062   0.773438 0
  0.804688   0.648438 0
  0.789062   0.765625 0
  0.781250   0.765625 0
  0.804688   0.593750 0
  0.804688   0.671875 0
  0.796875   0.671875 0
  0.804688   0.679688 0
  0.796875   0.687500 0
  0.671875   1.000000 0
  0.679688   1.000000 0
  0.921875   0.937500 0
  0.921875   0.929688 0
  0.570312   0.945312 0
  0.562500   0.945312 0
  0.742188   0.562500 0
  0.507812   0.625000 0
  0.976562   0.507812 0
  0.734375   0.781250 0
  0.507812   0.835938 0
  0.523438   0.710938 0
  0.734375   0.773438 0
  0.507812   0.828125 0
  0.820312   0.546875 0
  0.812500   0.546875 0
  0.820312   0.750000 0
  0.515625   0.726562 0
  0.882812   0.601562 0
  0.875000   0.601562 0
  0.828125   0.945312 0
  0.625000   0.585938 0
  0.820312   0.523438 0
  0.976562   0.539062 0
  0.507812   0.867188 0
  0.523438   0.742188 0
  0.734375   0.804688 0
  0.507812   0.859375 0
  0.843750   0.851562 0
  0.828125   0.562500 0
  0.820312   0.570312 0
  0.820312   0.578125 0
  0.828125   0.578125 0
  0.781250   0.828125 0
  0.781250   0.820312 0
  0.757812   0.539062 0
  0.515625   0.757812 0
  0.828125   0.976562 0
  0.625000   0.617188 0
  0.804688   0.726562 0
  0.796875   0.726562 0
  0.804688   0.718750 0
  0.796875   0.718750 0
  0.570312   0.585938 0
  0.781250   0.648438 0
  0.523438   0.765625 0
  0.984375   0.546875 0
  0.742188   0.609375 0
  0.742188   0.617188 0
  0.507812   0.679688 0
  0.734375   0.625000 0
  0.976562   0.617188 0
  0.765625   0.554688 0
  0.773438   0.593750 0
  0.976562   0.843750 0
  0.835938   0.992188 0
  0.835938   0.984375 0
  0.828125   0.984375 0
  0.507812   0.898438 0
  0.734375   0.835938 0
  0.851562   0.882812 0
  0.843750   0.882812 0
  0.820312   0.601562 0
  0.796875   0.734375 0
  0.796875   0.843750 0
  0.781250   0.843750 0
  0.789062   0.851562 0
  0.992188   0.914062 0
  0.781250   0.851562 0
  0.523438   0.843750 0
  0.750000   0.531250 0
  0.765625   0.515625 0
  0.757812   0.515625 0
  0.523438   0.578125 0
  0.515625   0.789062 0
  0.523438   0.781250 0
  0.757812   0.718750 0
  0.960938   0.968750 0
  0.859375   0.585938 0
  0.664062   0.609375 0
  0.804688   0.750000 0
  0.796875   0.750000 0
  0.859375   0.781250 0
  0.867188   0.789062 0
  0.859375   0.789062 0
  0.750000   0.640625 0
  0.734375   0.640625 0
  0.742188   0.648438 0
  0.507812   0.710938 0
  0.968750   0.585938 0
  0.734375   0.656250 0
  0.507812   0.906250 0
  0.742188   0.843750 0
  0.828125   0.617188 0
  0.828125   0.609375 0
  0.820312   0.625000 0
  0.812500   0.625000 0
  0.585938   0.890625 0
  0.585938   0.882812 0
  0.812500   0.828125 0
  0.757812   0.593750 0
  0.992188   0.523438 0
  0.750000   0.593750 0
  0.515625   0.656250 0
  0.828125   0.718750 0
  0.828125   0.710938 0
  0.820312   0.718750 0
  0.796875   0.867188 0
  1.000000   0.921875 0
  0.789062   0.578125 0
  0.992188   0.828125 0
  0.539062   0.695312 0
  0.531250   0.687500 0
  0.570312   0.750000 0
  0.750000   0.710938 0
  0.515625   0.773438 0
  0.742188   0.718750 0
  0.515625   0.976562 0
  0.625000   0.664062 0
  0.734375   0.867188 0
  0.851562   0.914062 0
  0.859375   0.906250 0
  0.625000   0.968750 0
  0.843750   0.914062 0
  0.609375   0.976562 0
  0.843750   0.906250 0
  0.523438   0.875000 0
  0.546875   0.757812 0
  0.750000   0.562500 0
  0.515625   0.625000 0
  0.765625   0.546875 0
  0.968750   0.609375 0
  0.757812   0.546875 0
  0.523438   0.609375 0
  0.523438   0.820312 0
  0.515625   0.820312 0
  0.960938   1.000000 0
  0.523438   0.812500 0
  0.515625   0.812500 0
  0.835938   0.531250 0
  0.882812   0.695312 0
  0.882812   0.687500 0
  0.859375   0.617188 0
  0.617188   0.687500 0
  0.875000   0.992188 0
  0.664062   0.632812 0
  0.898438   0.570312 0
  0.664062   0.640625 0
  0.804688   0.781250 0
  0.796875   0.781250 0
  0.804688   0.789062 0
  0.515625   0.828125 0
  0.750000   0.765625 0
  0.523438   0.835938 0
  0.757812   0.773438 0
  0.515625   0.835938 0
  0.515625   0.843750 0
  0.859375   0.812500 0
  0.867188   0.820312 0
  0.859375   0.820312 0
  0.507812   0.937500 0
  0.742188   0.875000 0
  0.828125   0.648438 0
  0.820312   0.656250 0
  0.812500   0.656250 0
  0.585938   0.914062 0
  0.710938   0.601562 0
  0.703125   0.601562 0
  1.000000   0.562500 0
  0.757812   0.625000 0
  0.523438   0.687500 0
  0.992188   0.554688 0
  0.750000   0.625000 0
  0.515625   0.687500 0
  0.523438   0.882812 0
  0.648438   0.570312 0
  0.640625   0.570312 0
  0.882812   0.500000 0
  0.789062   0.609375 0
  0.992188   0.859375 0
  0.507812   0.843750 0
  0.742188   0.781250 0
  0.531250   0.718750 0
  0.515625   0.851562 0
  0.750000   0.789062 0
  0.539062   0.726562 0
  0.539062   0.718750 0
  0.976562   0.906250 0
  0.742188   0.500000 0
  0.507812   0.562500 0
  0.570312   0.789062 0
  0.671875   0.945312 0
  0.960938   0.929688 0
  0.546875   0.617188 0
  0.851562   0.945312 0
  0.843750   0.937500 0
  0.609375   1.000000 0
  0.570312   0.554688 0
  0.523438   0.906250 0
  0.843750   0.773438 0
  0.828125   0.890625 0
  0.820312   0.890625 0
  0.617188   1.000000 0
  0.796875   0.523438 0
  0.914062   0.781250 0
  0.687500   0.835938 0
  0.750000   0.875000 0
  0.515625   0.937500 0
  0.781250   0.742188 0
  0.992188   0.804688 0
  0.765625   0.859375 0
  0.750000   0.867188 0
  0.968750   0.921875 0
  0.757812   0.859375 0
  0.523438   0.921875 0
  0.984375   0.796875 0
  0.976562   0.703125 0
  0.804688   0.539062 0
  0.914062   0.789062 0
  0.921875   0.789062 0
  0.687500   0.843750 0
  0.804688   0.820312 0
  0.820312   0.695312 0
  0.804688   0.812500 0
  0.796875   0.812500 0
  0.750000   0.703125 0
  0.515625   0.765625 0
[...]
CELL_DATA 30592
SCALARS scalar_value float 1
LOOKUP_TABLE default
0.0017213
0.00156546
0.00160384
0.00145947
0.00118376
0.00108064
0.0011494
0.00148564
0.00135198
0.00136793
0.00110504
0.000936217
0.000861758
0.000723106
0.00683293
0.00791516
0.00818047
0.0106403
0.011463
0.0114531
0.0104057
0.0100291
0.0100408
0.00970461
0.00772771
0.00767548
0.00720935
0.221846
0.221622
0.22113
0.221485
0.0278291
0.0303123
0.0335439
0.0308648
0.0357835
0.0362558
0.0400642
0.0282012
0.0286524
0.0250586
0.0076578
0.00671114
0.00696708
0.00585221
0.00519115
0.00540262
0.00616427
0.00710019
0.0082706
0.00971664
0.0116443
0.013516
0.00992087
0.125646
0.12565
0.122298
0.109391
0.110613
0.106321
1.05895e-05
1.25609e-05
1.20147e-05
1.37699e-05
1.52374e-05
1.38198e-05
1.97762e-05
0.00338761
0.00125902
0.00312586
0.00307047
0.00272768
0.00282802
0.00246668
0.000885519
0.00226054
0.00250293
0.00277551
0.00255529
0.00251721
0.00222531
0.0021473
0.00196067
0.00194166
0.00165364
0.14777
0.139837
0.159374
0.158157
0.148789
0.139302
0.147648
0.147884
0.159528
0.141712
0.158427
0.150633
0.148658
0.140924
0.169501
0.16635
0.17464
0.158494
0.13573
0.133832
0.141577
8.55949e-07
6.23391e-07
6.65703e-07
4.6561e-07
7.82754e-07
9.67717e-07
1.10963e-06
1.09679e-06
0.00550011
0.0049145
0.0051014
0.00623631
0.00646903
0.00732247
0.0599738
0.0596197
0.0635675
0.0572748
0.0665936
0.0656304
0.0690127
0.0543977
0.0537195
0.0571958
0.0513849
0.0599358
0.0565176
0.0546666
0.0562477
0.0528032
0.0505852
0.00192658
0.00182303
0.00176383
0.00180372
0.00166604
0.00162362
0.00148333
0.00166855
0.00142382
0.00139096
0.00131997
0.0716981
0.0769826
0.0841523
0.00185161
0.00178884
0.00173648
0.00111187
0.00108282
0.00100148
0.178557
0.168672
0.156608
0.169153
0.00204618
0.00171997
0.00166521
0.00218695
0.00210633
0.00222237
0.0591804
0.0605473
0.0645718
0.0568686
0.0020306
0.00196265
0.00162905
0.013556
0.0127381
0.0125867
0.0114604
0.0118033
0.0106284
0.00996105
0.0116361
0.0109025
0.0107671
0.0098128
0.0096931
0.00909996
0.00897522
0.145775
0.146694
0.152661
0.139357
0.159264
0.159916
0.152593
0.00250466
0.00872831
0.00285553
0.00321839
0.00292597
0.00410707
0.0119186
0.00473162
0.00491039
0.112057
0.125329
0.119146
0.00935263
0.00853457
0.00845496
0.138104
0.144137
0.14541
0.158726
0.165987
0.159046
0.030838
0.0255348
0.0240051
0.0233545
0.0296628
0.0297185
0.0280055
0.0321889
0.0452
0.0404538
0.0390432
0.03504
0.0353425
0.0334436
0.0382398
0.00821079
0.00940095
0.0098884
0.0117096
0.0125038
0.012695
0.0762526
0.0724127
0.0699129
0.0729997
0.0753302
0.071625
0.0691242
0.0688651
0.0664704
0.0660004
0.0074033
0.00660952
0.00680741
0.00829783
0.00852093
0.00949695
1.04259e-05
1.13689e-05
1.20786e-05
0.0451902
0.0503768
0.0456715
0.0407635
0.04446
0.0493148
0.0449561
0.0273156
0.0298426
0.0335311
0.0301986
0.00274411
0.0026362
0.00311084
0.0033425
0.00375003
0.00347929
0.00446346
0.00428726
0.00513316
8.68378e-06
9.87635e-06
9.80636e-06
1.03556e-05
0.00520765
0.00540923
0.00638061
0.00468512
0.00617376
0.00743201
0.00918241
0.00487454
0.00566258
0.00660362
0.00588132
2.03535e-05
2.79499e-05
4.1078e-05
2.94279e-05
0.000137805
0.00021758
0.000138693
4.30573e-05
6.05369e-05
6.24888e-05
0.00370548
0.00356151
0.00427136
0.0093447
0.0134674
0.0113074
0.126223
0.132408
0.139702
0.133225
0.0519017
0.0541875
0.052815
0.000836545
0.000622151
0.000529181
0.000461284
0.000345862
0.000287268
0.00730512
0.00754054
0.00847563
0.136306
0.133568
0.140059
0.134134
0.136667
0.140778
0.129807
0.12509
0.131991
0.143242
0.143518
0.138906
0.0135906
0.0121705
0.0109034
0.0114733
0.0105562
0.00925027
0.00872986
0.00781411
0.00804443
0.0069477
0.0154916
0.0171947
0.0138753
0.0194164
0.00764553
0.019777
0.0218112
0.0176976
1.37436e-05
1.59665e-05
1.76554e-05
1.7441e-05
2.22698e-05
2.63533e-05
2.01626e-05
2.19453e-05
2.78457e-05
2.73721e-05
0.219566
0.221086
0.221483
0.221438
0.221718
0.221865
0.221381
0.00412629
0.00471598
0.00534045
0.00491089
0.00406815
0.00455208
0.00423796
0.186604
0.193258
0.192441
0.199361
0.203403
0.204758
0.203733
0.164721
0.163076
0.164501
0.00501517
0.00570285
0.00640539
0.00592717
0.0082699
0.00945722
0.010817
0.00698761
0.00792718
0.00892332
0.00820812
2.42988e-05
1.83707e-05
1.38802e-05
0.0330497
0.0293227
0.029813
0.0452429
0.0505066
0.0458035
0.0338859
0.0301599
0.03053
0.20997
0.208555
0.207604
0.206423
0.0454266
0.0458278
0.0435381
0.0493445
0.0872514
0.0826037
0.0804396
0.0647381
0.0691281
0.0624579
0.137426
0.125691
0.130666
0.0487641
0.0439297
0.042925
0.0501918
0.0434064
0.0436991
0.217175
0.218627
0.219691
0.188038
0.185183
0.146995
0.182654
0.182886
0.000607018
0.000618016
0.000584933
0.000579679
0.000527472
0.00055972
0.000659195
0.000619745
0.000592559
0.000625218
0.143346
0.132513
0.146078
0.000556268
0.000554358
0.00051703
0.000533097
0.000485431
0.000501374
0.0629109
0.0604604
0.059642
0.0567473
0.00052843
0.000508305
0.000501492
0.000482073
0.00957441
0.00880065
0.00919038
0.00363739
0.00384665
0.00416069
0.00380264
0.00401334
0.00433761
0.00457405
0.000238456
0.00134579
0.000275066
0.000348389
0.000271756
0.000505479
0.00213545
0.000575326
0.000720744
0.000563049
0.000307605
0.000351377
0.000440064
0.000346114
0.013495
0.0122829
0.0117636
0.0107172
0.00950177
0.00952276
0.0105558
0.00977383
0.00947124
0.219084
0.218573
0.221233
0.0632422
0.0626577
0.0663239
0.0233632
0.01989
0.0191758
0.0697443
0.0694413
0.0662605
0.0735859
0.000482235
0.000728016
0.000592264
0.00103863
0.00141869
0.00124213
0.00072602
0.000865814
0.00106268
5.77543e-07
6.09485e-07
4.34384e-07
0.0204645
0.0222185
0.0194753
0.000478122
0.000763664
0.00062776
0.000713876
0.000875072
0.00107984
0.00112076
0.00137408
0.00163265
0.128253
0.132021
0.129489
0.137618
3.48217e-07
3.84952e-07
5.0905e-07
0.00173429
0.00207385
0.00199938
0.00244014
0.00263746
0.00308042
0.00296469
0.00358258
0.197449
0.202152
0.204535
0.210769
0.214429
0.215898
0.14291
0.143364
0.139297
0.148792
0.141954
0.135994
0.133148
0.127006
0.119825
0.126993
0.124125
0.119995
0.0437955
0.0489453
0.0500602
0.0501081
0.0475806
0.0536795
0.0577891
0.0583225
0.0556548
0.0624541
0.0630928
0.0452727
0.0449967
0.0407948
0.0469154
0.043339
0.0393685
0.0376064
0.0420372
0.0403009
0.0413723
0.170447
0.169515
0.166313
0.165428
0.160707
0.159213
0.0199355
0.0175279
0.0155659
0.0158714
0.0141291
0.0125553
0.012194
0.010831
0.00959792
0.0599109
0.0646574
0.0711428
0.0651252
0.0339271
0.0335701
0.0300288
0.0351382
0.0308808
0.0302249
0.0346255
0.0261966
0.0255783
0.0225394
0.0189588
0.0163389
0.0142989
0.087338
0.085049
0.0848529
0.000982155
0.000942857
0.00102249
0.000550799
0.000904989
0.000758934
0.000707402
0.000739495
0.000974718
0.000820708
0.000768722
0.000578478
0.000795583
0.191667
0.150304
0.157496
0.158308
0.160986
0.177076
0.178309
0.179317
0.100794
0.105787
0.097933
0.0372502
0.0313019
0.0310825
0.0261029
0.0225082
0.0216861
0.0213869
0.00901882
0.00990837
0.00952945
0.0109709
0.000215136
0.000250557
0.000238515
0.000317821
0.000425834
0.000350561
0.00026275
0.000280077
0.00030436
0.000287608
0.0585105
0.0582399
0.0604457
0.0599462
0.0556218
0.0547192
0.0535946
0.000274559
0.000276997
0.000302566
0.000255128
0.0621111
0.0614038
0.0635098
0.0567354
0.0489219
0.0477681
0.042368
0.19512
0.19475
0.202245
0.00918322
0.00978671
0.0107744
0.0114757
0.0123648
0.0104109
0.0126627
0.0135574
0.0148766
0.0135887
0.0105161
0.0114525
0.0119851
0.000477088
0.000468194
0.000521931
0.000388542
0.000564031
0.000549023
0.000598877
0.000457226
0.000332206
0.000360009
0.000305458
0.000952156
0.00123922
0.00112928
0.001589
0.00180677
0.00188231
0.00133839
0.00153088
0.00173935
0.00158549
0.11242
0.118089
0.107151
0.102554
0.109674
0.097076
0.0899637
0.095585
0.0836639
0.011429
0.012156
0.0133182
0.0119912
0.011586
0.0126765
0.0128168
0.0134839
0.0127797
0.014019
0.0141745
0.0149547
0.0125493
0.0115322
0.0113136
0.000434881
0.000430691
0.000452879
0.000399037
0.111215
0.114469
0.119599
0.112953
0.000447785
0.000401261
0.000376251
0.000347037
0.00035619
0.000376634
0.000309207
0.000293002
0.000320138
0.000385692
0.000365558
0.000348047
0.000376579
0.200559
0.200199
0.202931
0.194849
7.26176e-07
1.04582e-06
1.56866e-06
1.093e-06
2.14588e-06
2.75288e-06
2.97052e-06
3.72057e-06
5.00357e-06
3.78373e-06
1.53852e-06
2.01492e-06
2.81597e-06
2.07338e-06
0.208122
0.208204
0.210545
0.0248801
0.0287871
0.0285018
0.0388611
0.0419411
0.0409744
0.00125703
0.00117443
0.000966002
0.000787858
0.000748861
0.000714087
0.221958
0.208824
0.21062
0.214159
0.208286
0.00112729
0.00144269
0.00147363
0.00192852
0.0026094
0.00247522
0.10581
0.107132
0.103694
0.0921161
0.0892587
0.0908323
0.000712051
0.00067025
0.000680602
0.0807356
0.0749057
0.0788413
0.088773
0.0851419
0.085965
0.0422478
0.0186659
0.0177059
0.0151875
0.0183429
0.0143711
0.0148648
0.0140631
0.0116449
0.0120499
0.210326
0.210972
0.208911
0.00939355
0.00899173
0.00815165
0.00902425
0.131464
0.132558
0.138685
0.125336
0.12248
0.130139
0.122272
0.111406
0.115624
0.122676
0.115164
0.0589416
0.0632583
0.0687533
0.0637805
0.0482887
0.0474124
0.0504537
0.073306
0.0781616
0.0680876
0.0685511
0.0727922
0.0784386
0.0135209
0.0157122
0.0187011
0.0047649
0.00419251
0.00388616
0.00418178
0.00304603
0.00251625
0.00229006
0.00245582
0.00051181
0.000511011
0.000601405
0.000470191
0.000715569
0.000714477
0.00085315
0.000651064
0.000430168
0.000427679
0.000501469
0.0300381
0.0336897
0.0304745
0.0369379
0.0374486
0.040964
0.0338634
0.0370509
0.0375276
0.0607754
0.0643556
0.0686439
0.0649263
0.00474864
0.00440449
0.00388648
0.00409759
0.00358466
0.00359424
0.00376541
0.00371909
0.00328944
0.00307034
0.00281434
0.00282708
0.00233479
0.177341
0.174416
0.172196
0.171494
0.00465476
0.00530086
0.00535322
0.00782053
0.0085988
0.00856302
0.176869
0.175768
0.179076
0.000849377
0.000834811
0.000818643
0.000795115
0.000727569
0.000780062
0.0834651
0.0848797
0.0814889
0.0819942
0.0795085
0.0788043
0.0754467
0.000736944
0.0006917
0.000653972
0.0974559
0.103372
0.111326
0.0546986
0.0552217
0.0597986
0.0606341
0.0655152
0.0721505
0.0660652
0.0501576
0.0544279
0.0603163
0.0549108
0.1968
0.194219
0.191496
0.148695
0.192706
0.193818
0.195262
0.201825
0.0417441
0.0396535
0.0380849
0.0387748
0.0197898
0.0189908
0.0148111
0.0132905
0.013826
0.0119977
0.0132715
0.00396119
0.0159636
0.0157772
0.0184759
0.108657
0.100892
0.095313
0.0924306
0.0975219
0.104847
0.10374
0.00995934
0.108844
0.1175
0.125841
0.126545
0.130668
0.209498
0.211758
0.20546
0.217809
0.217778
0.215883
0.213017
0.212449
0.213378
0.209177
0.0602565
0.0631767
0.0672972
0.0630802
9.95302e-05
0.000109681
0.000119462
0.00011545
0.00299767
0.00439771
0.00319215
0.00319228
0.00335904
0.00468962
0.00504008
0.00522969
0.000203147
0.000276855
0.000229183
0.000171529
0.000185547
0.000201279
0.000192769
0.00928622
0.0115151
0.0109597
0.0125401
0.0107292
0.0447146
0.0498478
0.0451348
0.218208
0.218856
0.216997
0.220738
1.59078e-06
0.00138575
0.152055
0.00040737
0.000368136
0.000344165
0.000352698
0.0346509
0.000620212
0.000750983
0.0417528
0.0976366
0.0494829
0.000271824
0.0535764
0.00206325
0.00217669
0.0977925
0.00195381
0.0012288
0.00139967
0.143849
0.000956892
0.0700603
0.00167956
0.00192082
0.146724
0.00130337
0.0711634
0.000342088
0.000327347
0.000329357
0.098179
0.000448113
0.00247572
0.090509
0.153458
0.00204423
0.00155751
0.100527
0.100028
0.102441
0.00143218
0.000815536
0.00109454
0.000826585
9.72679e-05
0.000721699
0.0594323
0.070654
0.00111865
0.0656355
0.000963092
0.000105561
0.000734906
0.117795
0.00996042
1.23506e-05
0.0079088
3.43958e-05
0.00570011
0.000207695
0.0543376
0.0857955
0.00563456
0.000225276
0.00542487
0.00624483
0.0371837
3.13199e-05
0.0366699
0.000170676
0.0406328
0.108953
0.000390488
0.00144918
0.000120217
0.000385045
0.00715474
0.000122191
0.00676478
0.000197873
0.0562979
0.0886701
0.0512496
0.00450875
1.95415e-06
0.00529611
0.00410028
0.0118492
1.47856e-06
0.00466193
1.32358e-07
0.17759
0.179491
0.0124515
0.00500732
2.11443e-07
0.00139698
0.00547018
0.0016907
0.0257897
1.58214e-07
0.00116121
2.57141e-07
0.000132793
0.000151509
0.00119472
0.146112
0.0348016
0.0680966
0.0276039
0.000446402
0.000413233
0.0544624
0.0427953
0.0423705
0.00118686
0.00222826
0.0468378
0.00306215
0.0308019
0.000767614
0.085419
0.000738001
0.00074681
0.0844497
0.0209617
0.0221992
0.197438
0.159532
0.0103494
0.161842
0.0106189
0.169612
0.146111
0.00709405
0.0113297
0.0112645
0.0292156
0.0541875
0.0589352
0.0455683
0.000232552
4.69159e-05
0.0605758
0.00192411
0.00676138
0.0020473
0.00245295
0.0676616
0.00179589
0.0510217
0.000414667
0.000516742
0.000424088
0.0763304
0.0821016
0.206019
0.000684227
0.00494796
0.00153679
0.0694761
0.00136953
0.0915585
0.000330768
0.000903586
0.0849249
0.000448526
0.000534059
0.0627259
0.00043162
0.0594881
0.00517502
0.0766803
0.00605918
0.100109
0.0733971
0.000437777
0.000428626
0.0575361
0.0448727
0.0769877
0.0801985
0.00189112
0.0844033
0.0842532
0.00225591
0.00643469
0.0877094
0.00617572
0.00841122
0.0848168
0.0813203
0.000672392
0.000474016
0.0849701
0.000438588
0.190738
0.192039
0.00682781
0.0114331
0.187295
0.218439
0.00466323
0.0116956
0.0945586
0.0909653
0.000500894
0.000477763
0.0996003
0.0125218
0.000468779
0.094307
0.000454757
0.0434459
0.0415081
0.200225
0.129199
0.198223
0.0271097
0.000158326
0.00785794
0.0182728
3.94369e-06
0.016597
3.43018e-06
3.10133e-05
0.0414871
0.016387
0.0791372
0.0857148
0.000180403
0.0906269
0.00120475
0.020022
0.0281826
0.000366874
0.0305764
4.2941e-08
0.0308426
0.000601446
0.00321483
0.0323727
0.0243133
0.000492616
6.09488e-08
7.04313e-06
0.0190173
0.0129077
0.00804957
0.0663737
0.177594
0.084157
0.0916298
0.00280052
0.000369123
0.0975701
0.00314518
0.00222777
0.0660587
0.066761
0.000155182
0.00185594
0.0610139
0.0015698
0.000463897
0.0535852
0.000462656
0.0533427
0.0666794
0.0785463
0.0724648
0.00705628
4.82807e-06
0.00813146
0.0201301
0.00653689
0.126515
0.124562
0.000933985
0.183912
0.18295
0.00316709
0.0457344
0.00042046
0.0428044
0.0441989
7.04373e-06
8.01899e-06
0.0219521
0.108627
0.00119297
0.00604585
5.41119e-06
4.24723e-08
0.0435694
1.38796e-05
1.65966e-05
1.25376e-05
0.0247148
0.000412307
2.95742e-08
6.08453e-06
0.00360489
0.0163122
0.0133673
0.000400795
0.0429175
0.000390999
0.0421833
0.000395142
0.000195287
0.0780829
0.0333669
0.104964
0.000644318
0.108446
0.00218388
0.0847516
1.45363e-06
0.0104605
0.00354882
2.03048e-06
0.00307951
2.59165e-06
0.0134141
0.00407358
0.00409149
0.196712
0.00365154
0.04949
2.08777e-07
2.94331e-07
0.00647684
4.23312e-07
0.00224018
3.17147e-07
0.00195765
0.0859113
0.00964931
0.0894682
0.00358034
0.0325613
0.0278659
1.8292e-07
1.31436e-07
0.0397905
0.0507065
0.0484813
0.0479356
0.0348074
0.032981
0.0301891
0.0400995
0.00976542
0.215102
0.223868
0.00945173
0.194337
0.220914
0.00964363
0.0244982
0.00922051
0.00842777
0.213314
0.224086
0.00675562
0.0186852
6.13785e-05
0.0203838
9.41152e-06
0.0044474
0.19192
0.00379215
0.18508
0.00624097
0.00317093
0.00767958
0.00648925
0.184414
0.058391
0.0637754
8.25082e-05
0.00052231
0.0633147
0.0683297
0.000598837
0.166236
0.206804
0.176526
0.00599935
0.00624
0.206803
0.0593938
0.0979118
0.0112083
0.101668
0.00431551
0.106706
0.011056
0.101632
0.124432
0.0104288
3.38992e-05
0.0109204
5.92392e-06
2.72343e-05
0.000362743
0.00243029
0.179984
0.00248562
0.00234536
0.139477
0.175616
0.00108515
7.79721e-08
0.0015467
0.0173153
0.00132325
4.88567e-06
5.78384e-06
0.0183565
0.0026555
0.147271
6.43184e-06
0.00598384
0.00231123
0.00747131
0.0704017
0.00717736
0.0735061
3.6969e-06
0.0019903
0.0131017
0.0110176
8.52169e-05
0.00087983
0.0149656
2.42269e-05
0.119128
0.0127239
0.143488
0.173984
0.140568
0.0247596
8.03409e-06
0.0271758
0.00249685
0.177119
0.00236526
0.136333
0.0198891
0.00107231
0.00114661
0.00137312
0.215347
0.00969964
0.212679
0.0428169
0.00112145
0.00137704
0.0454939
0.0564067
0.0446115
0.000638076
0.0480963
0.00148248
0.000864028
0.00159015
0.00265593
0.049973
0.065298
0.0495435
0.000744017
0.0527446
0.000849537
2.09084e-06
0.108968
0.0320798
0.0558709
0.00315974
0.138228
0.0309889
0.0186613
0.00855783
0.214684
0.00218188
0.0720294
0.0955695
0.000545019
0.0890437
0.000833637
0.00047684
0.00181327
0.0832342
0.037008
2.41602e-05
0.0403933
0.0767907
0.0330021
0.000158495
0.00527827
0.00539223
0.00512537
6.63782e-05
0.00586688
0.0499006
0.000189339
0.000217463
0.0532265
0.0934293
0.0479471
0.0269579
0.0222644
0.174387
0.0263125
0.00884623
9.65704e-06
7.83984e-07
0.178424
0.174686
0.112593
0.00842717
0.175214
0.188771
0.177566
0.00940964
0.0110715
0.157381
0.0130324
0.00583457
0.157106
0.0129039
2.48411e-07
0.0106589
0.168111
0.00556001
0.165504
0.163086
0.161085
0.0215957
0.0255122
0.122767
1.87662e-05
2.0945e-05
0.00934548
0.00683588
0.0116942
0.0170331
4.25641e-05
0.0144289
0.192716
0.197889
0.198635
0.0388477
0.00196651
0.00172823
0.166719
0.172195
0.172156
0.0290799
0.176454
0.15057
0.0793876
0.00692875
0.049798
0.007638
0.156239
0.0422704
0.00602853
0.148703
0.162653
0.15708
0.155535
0.00160086
0.0759165
0.00259908
0.00268774
0.00310775
0.0243586
7.88178e-05
0.00229151
0.026579
0.104027
0.00669223
0.161819
0.114441
0.157323
0.119893
0.00186379
0.115915
0.00142729
3.13989e-06
1.48333e-08
0.0045946
0.0108206
0.0912538
0.00384966
0.000518716
0.00245686
0.00803778
0.0033654
0.0846192
0.0967722
0.000720746
0.016377
0.000353121
0.000415377
0.000491897
0.0107805
0.218577
0.188372
0.0227505
0.187789
0.119203
0.182858
0.17749
0.0901298
0.0019509
0.0856216
0.0853991
0.204094
0.163264
0.0100282
0.151391
0.00232558
0.0960463
0.00164355
0.145713
0.00212598
0.153071
0.089812
0.105298
0.000698109
0.000837617
0.000649781
0.0396923
0.000141419
0.0408529
0.199465
0.0442416
0.0736686
0.0393125
0.000115097
0.00883032
0.0104926
0.00798381
1.07458e-05
0.00453614
0.154957
0.198236
0.00384919
0.00784509
0.191363
0.00442325
0.00367347
0.168283
0.0647365
0.0314365
0.00688848
0.110612
0.1473
0.0492118
0.0774964
0.043642
7.8666e-06
0.0505043
0.0327211
0.000665479
0.00412488
0.000530677
0.078075
0.000473691
0.0708141
0.0596463
0.0751908
0.00310128
0.0798265
0.0437657
0.0453474
1.32628e-05
1.68804e-05
0.0362137
0.000129733
0.134428
4.61003e-05
0.00815506
9.01799e-05
0.000868494
0.012733
0.220486
1.03295e-05
0.0273397
0.0107749
3.33518e-05
0.00857193
0.0109994
1.0689e-05
1.34167e-06
0.0121146
1.36201e-05
0.00995897
3.0566e-08
4.01605e-06
0.000761016
1.83455e-06
0.0123268
1.84391e-05
2.34256e-05
4.5242e-05
0.00995947
0.123946
1.05542e-05
0.0111964
0.0275546
0.0111743
1.40642e-05
8.32642e-06
1.07407e-05
0.000814079
0.0125824
0.018226
0.000150257
9.39528e-06
0.0116329
1.15781e-05
0.0124646
0.0274621
1.21534e-05
0.0128204
0.0548803
6.77181e-05
0.00235068
0.041373
0.0494359
4.92788e-05
0.00211135
0.00814635
0.0778893
0.00875911
4.90306e-06
0.00126051
4.54402e-06
0.0183479
4.39852e-06
0.0166646
0.0128752
1.41549e-05
0.0112544
0.0879927
1.08987e-05
0.0275804
0.011681
1.13338e-05
0.0119376
8.92697e-06
0.0248341
0.013057
6.83901e-06
7.17568e-05
0.0224522
7.21425e-06
8.34513e-06
0.0248874
6.64064e-06
0.00850917
0.00831988
0.0610523
0.0014183
0.0556015
7.8289e-05
0.0504664
5.84367e-05
0.0555927
8.15555e-05
0.0549567
0.0149493
0.0861223
0.0699289
0.00371541
0.0149705
0.0812917
0.00284072
0.0085742
0.0174804
0.00818707
0.000204034
0.072749
0.000205193
0.0302006
0.0080261
0.189986
0.000263139
0.0332022
0.0789568
0.0297302
0.1807
0.00309368
0.0269168
0.0109028
0.203876
0.000787197
0.105013
0.0499154
0.000640636
0.0457246
0.0092931
0.0918403
0.000464528
0.00355739
0.010858
0.000644155
0.0980641
0.000185132
0.045139
0.0408362
0.000516939
0.000369611
3.16236e-05
0.0412129
0.0157176
0.0367226
0.000370009
0.037253
2.35811e-05
0.033399
0.00028998
1.76156e-05
0.0364516
0.000410535
0.03699
2.33692e-05
0.0406476
0.110152
0.00307407
0.000547718
0.00336244
0.116026
0.176644
0.1241
0.000843737
0.116327
0.000633358
0.126196
0.00113842
0.118832
0.000850753
0.00454573
0.118263
0.17772
0.0951331
0.0983079
0.0072499
0.0972705
0.00809005
0.00225753
0.00255612
0.0114599
0.215923
0.184164
0.0109092
0.167015
0.0106445
0.168662
0.00480961
0.0103532
0.204796
0.00569122
0.0134969
0.186506
0.205956
0.00668149