# vtk DataFile Version 2.0
Unstructured Grid by M++
ASCII
DATASET UNSTRUCTURED_GRID
POINTS 15808 float
  0.718750   0.625000 0
  0.718750   0.953125 0
  0.960938   0.882812 0
  0.734375   0.937500 0
  0.953125   0.882812 0
  0.726562   0.937500 0
  0.953125   0.875000 0
  0.507812   0.593750 0
  0.742188   0.531250 0
  0.945312   0.781250 0
  0.750000   0.726562 0
  0.960938   0.578125 0
  0.718750   0.640625 0
  0.726562   0.648438 0
  0.718750   0.648438 0
  0.789062   0.601562 0
  0.671875   0.914062 0
  0.765625   0.523438 0
  0.960938   0.804688 0
  0.734375   0.859375 0
  0.718750   0.867188 0
  0.726562   0.859375 0
  0.953125   0.796875 0
  0.515625   0.507812 0
  0.507812   0.515625 0
  0.945312   0.703125 0
  0.515625   0.531250 0
  0.515625   0.539062 0
  0.507812   0.546875 0
  0.945312   0.734375 0
  1.000000   0.671875 0
  0.765625   0.726562 0
  0.757812   0.734375 0
  0.750000   0.734375 0
  0.515625   0.796875 0
  0.515625   1.000000 0
  0.750000   0.937500 0
  0.523438   0.992188 0
  0.640625   0.679688 0
  0.523438   0.507812 0
  0.742188   0.632812 0
  0.867188   0.515625 0
  0.671875   0.851562 0
  0.789062   0.796875 0
  0.781250   0.796875 0
  0.789062   0.804688 0
  0.742188   0.671875 0
  0.507812   0.734375 0
  0.968750   0.617188 0
  0.734375   0.687500 0
  0.664062   0.648438 0
  0.578125   0.960938 0
  0.781250   0.531250 0
  0.773438   0.531250 0
  0.546875   0.789062 0
  0.750000   0.585938 0
  0.835938   0.562500 0
  0.812500   0.601562 0
  0.578125   0.867188 0
  0.804688   0.757812 0
  0.507812   0.992188 0
  0.742188   0.929688 0
  0.851562   0.976562 0
  0.851562   0.968750 0
  0.632812   0.617188 0
  0.789062   0.945312 0
  0.789062   0.937500 0
  0.781250   0.937500 0
  0.804688   0.531250 0
  0.640625   0.617188 0
  0.812500   0.929688 0
  0.804688   0.835938 0
  0.796875   0.835938 0
  0.773438   0.554688 0
  0.859375   0.867188 0
  0.835938   0.585938 0
  0.843750   0.593750 0
  0.812500   0.632812 0
  0.578125   0.898438 0
  0.570312   0.898438 0
  0.695312   0.585938 0
  0.984375   0.570312 0
  0.773438   0.507812 0
  0.789062   0.687500 0
  0.546875   0.960938 0
  0.867188   0.671875 0
  0.875000   0.664062 0
  0.875000   0.656250 0
  0.882812   0.585938 0
  0.796875   0.859375 0
  0.804688   0.867188 0
  0.867188   0.898438 0
  0.859375   0.898438 0
  0.625000   0.960938 0
  0.835938   0.617188 0
  0.812500   0.960938 0
  0.804688   0.585938 0
  0.804688   0.609375 0
  0.804688   0.617188 0
  0.921875   0.875000 0
  0.687500   0.929688 0
  0.914062   0.875000 0
  0.507812   0.765625 0
  0.742188   0.703125 0
  0.945312   0.953125 0
  0.835938   0.875000 0
  0.625000   0.523438 0
  0.867188   0.960938 0
  0.859375   0.960938 0
  0.835938   0.703125 0
  0.804688   0.640625 0
  0.804688   0.851562 0
  0.578125   0.906250 0
  0.953125   0.593750 0
  0.507812   0.796875 0
  0.945312   0.984375 0
  0.992188   0.718750 0
  0.828125   0.921875 0
  0.835938   0.906250 0
  0.601562   0.968750 0
  0.625000   0.554688 0
  0.585938   0.820312 0
  0.578125   0.820312 0
  0.820312   0.828125 0
  0.820312   0.835938 0
  0.835938   0.710938 0
  0.796875   0.757812 0
  0.554688   0.820312 0
  0.773438   0.664062 0
  0.546875   0.929688 0
  0.507812   0.695312 0
  0.820312   0.609375 0
  0.734375   1.000000 0
  0.976562   0.929688 0
  0.742188   0.984375 0
  0.507812   0.726562 0
  0.531250   0.601562 0
  0.945312   0.914062 0
  0.750000   0.539062 0
  0.515625   0.601562 0
  0.507812   0.804688 0
  0.789062   0.710938 0
  0.781250   0.710938 0
  0.781250   0.703125 0
  0.515625   0.703125 0
  0.523438   0.703125 0
  0.960938   0.890625 0
  0.867188   0.937500 0
  0.632812   1.000000 0
  0.984375   0.515625 0
  0.750000   0.570312 0
  0.515625   0.632812 0
  0.742188   0.578125 0
  0.851562   0.773438 0
  0.843750   0.765625 0
  0.789062   0.742188 0
  0.789062   0.734375 0
  0.781250   0.734375 0
  0.523438   0.734375 0
  0.750000   0.984375 0
  0.984375   0.906250 0
  0.507812   0.703125 0
  0.742188   0.640625 0
  0.945312   0.890625 0
  0.531250   0.578125 0
  0.859375   0.734375 0
  0.867188   0.734375 0
  0.859375   0.976562 0
  0.867188   0.968750 0
  0.507812   0.820312 0
  0.742188   0.757812 0
  0.507812   0.812500 0
  0.843750   0.796875 0
  0.851562   0.804688 0
  0.843750   0.804688 0
  0.585938   0.796875 0
  0.789062   0.773438 0
  0.804688   0.648438 0
  0.789062   0.765625 0
  0.781250   0.765625 0
  0.804688   0.593750 0
  0.804688   0.671875 0
  0.796875   0.671875 0
  0.804688   0.679688 0
  0.796875   0.687500 0
  0.671875   1.000000 0
  0.679688   1.000000 0
  0.921875   0.937500 0
  0.921875   0.929688 0
  0.570312   0.945312 0
  0.562500   0.945312 0
  0.742188   0.562500 0
  0.507812   0.625000 0
  0.976562   0.507812 0
  0.734375   0.781250 0
  0.507812   0.835938 0
  0.523438   0.710938 0
  0.734375   0.773438 0
  0.507812   0.828125 0
  0.820312   0.546875 0
  0.812500   0.546875 0
  0.820312   0.750000 0
  0.515625   0.726562 0
  0.882812   0.601562 0
  0.875000   0.601562 0
  0.828125   0.945312 0
  0.625000   0.585938 0
  0.820312   0.523438 0
  0.976562   0.539062 0
  0.507812   0.867188 0
  0.523438   0.742188 0
  0.734375   0.804688 0
  0.507812   0.859375 0
  0.843750   0.851562 0
  0.828125   0.562500 0
  0.820312   0.570312 0
  0.820312   0.578125 0
  0.828125   0.578125 0
  0.781250   0.828125 0
  0.781250   0.820312 0
  0.757812   0.539062 0
  0.515625   0.757812 0
  0.828125   0.976562 0
  0.625000   0.617188 0
  0.804688   0.726562 0
  0.796875   0.726562 0
  0.804688   0.718750 0
  0.796875   0.718750 0
  0.570312   0.585938 0
  0.781250   0.648438 0
  0.523438   0.765625 0
  0.984375   0.546875 0
  0.742188   0.609375 0
  0.742188   0.617188 0
  0.507812   0.679688 0
  0.734375   0.625000 0
  0.976562   0.617188 0
  0.765625   0.554688 0
  0.773438   0.593750 0
  0.976562   0.843750 0
  0.835938   0.992188 0
  0.835938   0.984375 0
  0.828125   0.984375 0
  0.507812   0.898438 0
  0.734375   0.835938 0
  0.851562   0.882812 0
  0.843750   0.882812 0
  0.820312   0.601562 0
  0.796875   0.734375 0
  0.796875   0.843750 0
  0.781250   0.843750 0
  0.789062   0.851562 0
  0.992188   0.914062 0
  0.781250   0.851562 0
  0.523438   0.843750 0
  0.750000   0.531250 0
  0.765625   0.515625 0
  0.757812   0.515625 0
  0.523438   0.578125 0
  0.515625   0.789062 0
  0.523438   0.781250 0
  0.757812   0.718750 0
  0.960938   0.968750 0
  0.859375   0.585938 0
  0.664062   0.609375 0
  0.804688   0.750000 0
  0.796875   0.750000 0
  0.859375   0.781250 0
  0.867188   0.789062 0
  0.859375   0.789062 0
  0.750000   0.640625 0
  0.734375   0.640625 0
  0.742188   0.648438 0
  0.507812   0.710938 0
  0.968750   0.585938 0
  0.734375   0.656250 0
  0.507812   0.906250 0
  0.742188   0.843750 0
  0.828125   0.617188 0
  0.828125   0.609375 0
  0.820312   0.625000 0
  0.812500   0.625000 0
  0.585938   0.890625 0
  0.585938   0.882812 0
  0.812500   0.828125 0
  0.757812   0.593750 0
  0.992188   0.523438 0
  0.750000   0.593750 0
  0.515625   0.656250 0
  0.828125   0.718750 0
  0.828125   0.710938 0
  0.820312   0.718750 0
  0.796875   0.867188 0
  1.000000   0.921875 0
  0.789062   0.578125 0
  0.992188   0.828125 0
  0.539062   0.695312 0
  0.531250   0.687500 0
  0.570312   0.750000 0
  0.750000   0.710938 0
  0.515625   0.773438 0
  0.742188   0.718750 0
  0.515625   0.976562 0
  0.625000   0.664062 0
  0.734375   0.867188 0
  0.851562   0.914062 0
  0.859375   0.906250 0
  0.625000   0.968750 0
  0.843750   0.914062 0
  0.609375   0.976562 0
  0.843750   0.906250 0
  0.523438   0.875000 0
  0.546875   0.757812 0
  0.750000   0.562500 0
  0.515625   0.625000 0
  0.765625   0.546875 0
  0.968750   0.609375 0
  0.757812   0.546875 0
  0.523438   0.609375 0
  0.523438   0.820312 0
  0.515625   0.820312 0
  0.960938   1.000000 0
  0.523438   0.812500 0
  0.515625   0.812500 0
  0.835938   0.531250 0
  0.882812   0.695312 0
  0.882812   0.687500 0
  0.859375   0.617188 0
  0.617188   0.687500 0
  0.875000   0.992188 0
  0.664062   0.632812 0
  0.898438   0.570312 0
  0.664062   0.640625 0
  0.804688   0.781250 0
  0.796875   0.781250 0
  0.804688   0.789062 0
  0.515625   0.828125 0
  0.750000   0.765625 0
  0.523438   0.835938 0
  0.757812   0.773438 0
  0.515625   0.835938 0
  0.515625   0.843750 0
  0.859375   0.812500 0
  0.867188   0.820312 0
  0.859375   0.820312 0
  0.507812   0.937500 0
  0.742188   0.875000 0
  0.828125   0.648438 0
  0.820312   0.656250 0
  0.812500   0.656250 0
  0.585938   0.914062 0
  0.710938   0.601562 0
  0.703125   0.601562 0
  1.000000   0.562500 0
  0.757812   0.625000 0
  0.523438   0.687500 0
  0.992188   0.554688 0
  0.750000   0.625000 0
  0.515625   0.687500 0
  0.523438   0.882812 0
  0.648438   0.570312 0
  0.640625   0.570312 0
  0.882812   0.500000 0
  0.789062   0.609375 0
  0.992188   0.859375 0
  0.507812   0.843750 0
  0.742188   0.781250 0
  0.531250   0.718750 0
  0.515625   0.851562 0
  0.750000   0.789062 0
  0.539062   0.726562 0
  0.539062   0.718750 0
  0.976562   0.906250 0
  0.742188   0.500000 0
  0.507812   0.562500 0
  0.570312   0.789062 0
  0.671875   0.945312 0
  0.960938   0.929688 0
  0.546875   0.617188 0
  0.851562   0.945312 0
  0.843750   0.937500 0
  0.609375   1.000000 0
  0.570312   0.554688 0
  0.523438   0.906250 0
  0.843750   0.773438 0
  0.828125   0.890625 0
  0.820312   0.890625 0
  0.617188   1.000000 0
  0.796875   0.523438 0
  0.914062   0.781250 0
  0.687500   0.835938 0
  0.750000   0.875000 0
  0.515625   0.937500 0
  0.781250   0.742188 0
  0.992188   0.804688 0
  0.765625   0.859375 0
  0.750000   0.867188 0
  0.968750   0.921875 0
  0.757812   0.859375 0
  0.523438   0.921875 0
  0.984375   0.796875 0
  0.976562   0.703125 0
  0.804688   0.539062 0
  0.914062   0.789062 0
  0.921875   0.789062 0
  0.687500   0.843750 0
  0.804688   0.820312 0
  0.820312   0.695312 0
  0.804688   0.812500 0
  0.796875   0.812500 0
  0.750000   0.703125 0
  0.515625   0.765625 0
[...]
CELL_DATA 30592
SCALARS scalar_value float 1
LOOKUP_TABLE default
0.00252077
0.00231915
0.00240592
0.00221509
0.00179898
0.00165895
0.00172184
0.00228453
0.00210371
0.00215764
0.00172142
0.00139343
0.00129272
0.00106858
0.00430754
0.00507243
0.00527855
0.00698737
0.00759791
0.00761101
0.00714396
0.00688624
0.00692679
0.00662561
0.00524676
0.00523758
0.00486402
0.204376
0.207424
0.210747
0.206151
0.0180051
0.0197815
0.021969
0.0202479
0.0216326
0.0219763
0.0245112
0.0167669
0.017069
0.0147314
0.00401372
0.00347086
0.00361239
0.00299036
0.002625
0.00273962
0.00315995
0.00370888
0.00438345
0.00523703
0.00637627
0.00750339
0.00534386
0.156469
0.157906
0.153491
0.135413
0.138177
0.132626
4.58575e-06
5.49077e-06
5.28718e-06
6.20232e-06
6.94445e-06
6.14596e-06
9.54388e-06
0.00512058
0.00186783
0.00478674
0.00477474
0.00419073
0.00445371
0.00389673
0.00135188
0.00361716
0.00389647
0.00443422
0.00413007
0.00411255
0.00361005
0.00335803
0.00310663
0.00312005
0.0026329
0.180335
0.17447
0.188439
0.187707
0.181078
0.174024
0.182199
0.18248
0.191036
0.177807
0.190527
0.184894
0.183663
0.177339
0.198402
0.196662
0.202488
0.191183
0.173208
0.171827
0.178221
3.83699e-07
2.79214e-07
2.9989e-07
2.06949e-07
3.61694e-07
4.51043e-07
5.17853e-07
5.14573e-07
0.00279562
0.00248162
0.00258481
0.00320023
0.00333048
0.00380768
0.0693207
0.0699027
0.0745764
0.0678978
0.0794054
0.0794402
0.0837436
0.0661629
0.0663043
0.0706431
0.0641429
0.0776577
0.0747635
0.0714334
0.0705187
0.0679425
0.0640867
0.0019266
0.00182024
0.00176842
0.00177542
0.0016658
0.00160089
0.0014525
0.00163258
0.00135693
0.00133713
0.00123425
0.0495825
0.0539492
0.0596739
0.00164637
0.0016082
0.00151983
0.000954588
0.000937763
0.000848292
0.200209
0.194347
0.18644
0.194809
0.00173248
0.00145559
0.00142267
0.00187679
0.00182697
0.00195744
0.0365076
0.0375453
0.0402957
0.0352599
0.00166684
0.0016258
0.0013494
0.0190495
0.0180988
0.0181709
0.0162355
0.0172271
0.0154728
0.0146589
0.0172384
0.0163153
0.0162969
0.0146628
0.0138322
0.0131284
0.013166
0.110447
0.111813
0.117686
0.105666
0.124977
0.126271
0.119813
0.00150167
0.00562494
0.00172498
0.00193837
0.00178119
0.0024979
0.00790474
0.00291499
0.00304971
0.0800428
0.0908987
0.0864527
0.00648836
0.00592713
0.0059043
0.101568
0.107108
0.108736
0.126897
0.13348
0.127908
0.0254071
0.0210533
0.0198589
0.0190933
0.0160752
0.0160761
0.0150574
0.0175399
0.03663
0.033256
0.0324197
0.0192265
0.0193947
0.0182461
0.0211584
0.00504256
0.00588712
0.00627167
0.00746374
0.00806669
0.0081414
0.0879509
0.0833045
0.0812705
0.0827552
0.0882021
0.086018
0.0815563
0.0779475
0.0760388
0.0766029
0.00394275
0.00350986
0.00363525
0.00445872
0.00460282
0.00517643
4.50165e-06
4.91286e-06
5.24496e-06
0.0290902
0.0328394
0.0295068
0.0271628
0.030001
0.0335544
0.0305002
0.017056
0.0188226
0.0212818
0.0191496
0.00132954
0.00127444
0.00151813
0.0016384
0.00185315
0.00170975
0.00223536
0.0021413
0.00260172
3.72296e-06
4.23953e-06
4.20663e-06
4.45129e-06
0.00265756
0.00276729
0.00331687
0.00236163
0.00320884
0.00393135
0.00495501
0.00246379
0.00290216
0.00343969
0.00302161
1.03335e-05
1.47892e-05
2.24937e-05
1.57256e-05
8.09758e-05
0.000128997
8.18674e-05
2.40032e-05
3.46943e-05
3.60304e-05
0.00183173
0.0017549
0.00214014
0.00503575
0.00748831
0.00619176
0.0930757
0.0987216
0.104689
0.0998771
0.0386467
0.0402206
0.0397729
0.000596111
0.000445328
0.000372936
0.000331071
0.000246993
0.000202733
0.00382222
0.00396113
0.00449413
0.147046
0.140709
0.147897
0.139254
0.138904
0.146523
0.133545
0.125706
0.13292
0.148109
0.146283
0.14026
0.00749445
0.00665351
0.00590038
0.00627844
0.00577429
0.00498954
0.00464777
0.00413858
0.00427979
0.00364688
0.00866433
0.00972337
0.00769217
0.0111378
0.00411956
0.0113813
0.0126932
0.0100917
7.85687e-06
9.27735e-06
1.0364e-05
1.02324e-05
1.34185e-05
1.61837e-05
1.20238e-05
1.32134e-05
1.72177e-05
1.69121e-05
0.191365
0.197551
0.199007
0.200976
0.208697
0.20752
0.210572
0.00205195
0.00236976
0.00271389
0.0024744
0.0020206
0.00227863
0.002111
0.17702
0.183528
0.186208
0.189439
0.194542
0.194658
0.19721
0.155114
0.154454
0.157945
0.00252857
0.0029037
0.00329271
0.00302698
0.00435223
0.00504064
0.00584829
0.00361661
0.00414752
0.00471958
0.00430724
1.37569e-05
1.02408e-05
7.4841e-06
0.0200709
0.0175677
0.0179032
0.0287642
0.0325311
0.029206
0.0210238
0.0185209
0.0188286
0.206599
0.20645
0.207685
0.20329
0.0256486
0.0258853
0.0244426
0.0281198
0.0912695
0.0861706
0.0847396
0.0722034
0.0771348
0.0704132
0.172975
0.164365
0.167637
0.0518515
0.046835
0.0452256
0.0510525
0.044753
0.0441146
0.192142
0.197752
0.200901
0.199579
0.198021
0.179807
0.197787
0.194517
0.000736466
0.000735948
0.000690875
0.000709364
0.000644464
0.000666906
0.000765396
0.000715398
0.000689801
0.00071261
0.177087
0.168617
0.179006
0.000636969
0.000642549
0.000590348
0.000623082
0.000570205
0.000577043
0.0748971
0.0727681
0.0728565
0.0682545
0.000626
0.000607451
0.000608234
0.000573625
0.00612051
0.00560232
0.00590529
0.00172978
0.00183413
0.00198837
0.00181673
0.0019222
0.00208189
0.00220091
0.000186481
0.00115848
0.000218364
0.000279089
0.00021705
0.000413445
0.00190304
0.000476934
0.000600392
0.000470136
0.000250984
0.000291071
0.000367581
0.000288603
0.0107514
0.00965833
0.00909918
0.00848971
0.00756339
0.00742149
0.00800371
0.00739817
0.00709671
0.19009
0.188457
0.199241
0.0379445
0.0374046
0.0398561
0.0212873
0.0180073
0.0174662
0.0420346
0.0417141
0.0395111
0.0445509
0.000224839
0.000342009
0.000278154
0.00049145
0.000676273
0.000592285
0.000343599
0.000411957
0.000506904
2.54016e-07
2.69488e-07
1.92016e-07
0.0111085
0.0121613
0.0105514
0.000230114
0.000371826
0.000305766
0.000342713
0.000420048
0.000523257
0.000549258
0.000675209
0.000807993
0.0898636
0.0924706
0.0900551
0.097261
1.54834e-07
1.72122e-07
2.29282e-07
0.000870478
0.00104333
0.0010012
0.0012375
0.00136122
0.00159264
0.00152415
0.00186905
0.157071
0.163133
0.165566
0.174172
0.1806
0.182853
0.098441
0.0989072
0.0953824
0.103786
0.174508
0.170184
0.168507
0.163673
0.157712
0.163038
0.160519
0.157256
0.0252946
0.0286176
0.0286987
0.0286789
0.0270514
0.0309748
0.0336253
0.0339621
0.0322062
0.0367124
0.0771912
0.052338
0.0513313
0.0466209
0.0529372
0.0506615
0.0460923
0.0445175
0.0469165
0.0454627
0.0455957
0.175467
0.176845
0.169817
0.176101
0.174649
0.169258
0.0114355
0.00991284
0.00869388
0.00887551
0.00780612
0.00685499
0.00663974
0.00582954
0.0051077
0.0407499
0.044583
0.0496472
0.0450945
0.0402125
0.0392568
0.0351406
0.0406535
0.0352914
0.0340918
0.0395377
0.0302366
0.029123
0.0256163
0.0108452
0.00920932
0.00795513
0.092688
0.0911224
0.092247
0.0014256
0.00134353
0.00144783
0.000667007
0.00132306
0.00109071
0.00102277
0.00103873
0.00135382
0.0011142
0.00104837
0.000657246
0.00105254
0.183141
0.130483
0.138067
0.138021
0.143073
0.162356
0.16253
0.166604
0.0664799
0.0703026
0.0646925
0.0373216
0.0317029
0.0308663
0.0266513
0.0229175
0.0222552
0.0214986
0.00454438
0.00501664
0.00479102
0.00560504
0.000182145
0.000216507
0.000206716
0.000281734
0.000387781
0.000317997
0.000233066
0.000251909
0.000275435
0.00026102
0.047345
0.0476573
0.0499363
0.0500684
0.0468369
0.0465838
0.0447594
0.000241004
0.00024498
0.000271792
0.000224246
0.0523868
0.0523489
0.0546915
0.0487202
0.0412867
0.0407457
0.0364997
0.153803
0.152346
0.162094
0.00456847
0.00488986
0.00541134
0.00580703
0.00629556
0.00523984
0.00642679
0.00691889
0.00763626
0.00695738
0.00531492
0.00583049
0.00615128
0.000441593
0.000436139
0.000493893
0.000358163
0.000544782
0.000533169
0.00058923
0.000439827
0.000307465
0.000338149
0.000281012
0.000444256
0.000582245
0.000530437
0.000752581
0.000860241
0.000898295
0.000633136
0.000727836
0.000829342
0.000755733
0.0773762
0.0819875
0.0736464
0.0706859
0.0767105
0.0669627
0.0605871
0.0649494
0.0561034
0.00573505
0.00612614
0.00674932
0.00604759
0.00581167
0.00639338
0.00646306
0.0068305
0.00647584
0.00714452
0.0072169
0.00766088
0.0095104
0.00871286
0.00835769
0.000433509
0.000432088
0.00045961
0.000398666
0.073594
0.0763154
0.0803886
0.0754905
0.000717928
0.000630529
0.000595498
0.000538005
0.000539366
0.000565966
0.000474023
0.000453014
0.000479842
0.000566081
0.00052675
0.000505825
0.000530827
0.176272
0.177156
0.182071
0.171343
3.03092e-07
4.40273e-07
6.63322e-07
4.61603e-07
9.15509e-07
1.1815e-06
1.2683e-06
1.59698e-06
2.15382e-06
1.62876e-06
6.56255e-07
8.65045e-07
1.21249e-06
8.93335e-07
0.199145
0.20154
0.204985
0.014459
0.0168398
0.0166263
0.023094
0.0249208
0.0242329
0.00160312
0.00149713
0.00116001
0.000947621
0.000931382
0.000846645
0.204994
0.171824
0.175106
0.181378
0.172373
0.000594469
0.000763697
0.00079177
0.00102968
0.00140906
0.00134988
0.136896
0.139366
0.134651
0.10965
0.105574
0.105786
0.000890572
0.000819479
0.000813603
0.0967698
0.0902739
0.0926462
0.10125
0.0966482
0.0961274
0.0455123
0.0190574
0.017828
0.0151779
0.0183347
0.0141538
0.0145369
0.0135548
0.0112049
0.0115121
0.209903
0.211083
0.209813
0.00648367
0.00616954
0.00559698
0.00616205
0.096341
0.0977033
0.103316
0.0919285
0.0993365
0.106684
0.099671
0.0916299
0.0964779
0.103428
0.0966353
0.0423777
0.046123
0.0505494
0.0467964
0.0618766
0.0616552
0.0656382
0.0546681
0.0594785
0.050665
0.0513419
0.0552924
0.0600556
0.00751529
0.00884581
0.0106727
0.00632894
0.00560713
0.00527067
0.00552096
0.0042276
0.00352706
0.0032518
0.0034064
0.000851596
0.000866472
0.00102863
0.000803822
0.00124563
0.00125679
0.0014945
0.00115293
0.000753723
0.000759135
0.000893315
0.0181547
0.0206202
0.0184754
0.0228888
0.0232741
0.0257792
0.0208477
0.0230934
0.0234699
0.0457293
0.0490719
0.0525519
0.0499302
0.00640175
0.0061096
0.00534208
0.00576018
0.00506486
0.00500884
0.00544612
0.00546276
0.00477853
0.0043131
0.00400758
0.00407714
0.0033532
0.188841
0.187066
0.187148
0.182665
0.0029773
0.00342345
0.00347746
0.00512863
0.00568481
0.00567929
0.182271
0.183503
0.188246
0.000963642
0.000970767
0.000918573
0.000931053
0.000845213
0.000882959
0.0990879
0.0992275
0.0948231
0.091342
0.0894506
0.0899867
0.0846566
0.000829683
0.000796232
0.000739543
0.0707936
0.0760618
0.082739
0.0361243
0.0365982
0.0401582
0.0405542
0.0443918
0.0494873
0.0449234
0.0329538
0.0362365
0.0406549
0.0367007
0.207434
0.206272
0.20575
0.180972
0.203922
0.149779
0.151917
0.159766
0.0317433
0.0308955
0.0300687
0.0302633
0.0158061
0.0151706
0.0113732
0.0102745
0.010957
0.00920901
0.00736798
0.00196459
0.00899547
0.00887993
0.0105286
0.0826696
0.0759105
0.0707296
0.0702804
0.0752194
0.0817599
0.066434
0.00950926
0.0705592
0.0939612
0.0841422
0.084932
0.0881341
0.183879
0.190251
0.180449
0.202134
0.206525
0.199163
0.19569
0.196299
0.199901
0.191707
0.0353002
0.0372648
0.040038
0.0372582
7.31326e-05
8.17807e-05
8.97514e-05
8.68746e-05
0.00143664
0.00210725
0.00153213
0.00153061
0.00161462
0.00227624
0.00244978
0.00254832
0.000164214
0.000230011
0.000189545
0.000138556
0.000152035
0.000165996
0.000159421
0.00472111
0.00581206
0.00567118
0.00657183
0.00555217
0.0293453
0.0330666
0.0297567
0.187331
0.18865
0.184034
0.194875
6.67905e-07
0.00118208
0.135307
0.000625212
0.000485596
0.000466426
0.000468706
0.0473224
0.000283244
0.000345531
0.0286595
0.0756925
0.0346235
0.000207925
0.0375424
0.00282728
0.00292492
0.11896
0.00265337
0.000916018
0.00105248
0.11522
0.000713163
0.0491869
0.0011976
0.00137979
0.113839
0.000930516
0.0490303
0.000459807
0.000511395
0.000449686
0.0705684
0.000309125
0.00176294
0.0643944
0.119026
0.00272654
0.00207982
0.118458
0.12968
0.118854
0.00188907
0.000887106
0.000803566
0.000610383
6.58401e-05
0.000524667
0.0402612
0.0491095
0.000815948
0.0450079
0.000696542
7.05565e-05
0.000530983
0.0890701
0.00532342
6.15486e-06
0.00414963
1.49902e-05
0.00278388
0.000174225
0.0448736
0.0731725
0.00275456
0.000190173
0.00264299
0.003061
0.024755
1.96659e-05
0.0242812
0.000123011
0.0273769
0.0966713
0.00034512
0.001428
5.45434e-05
0.000342622
0.00351495
5.55387e-05
0.00331295
0.000161972
0.044614
0.0737931
0.0407116
0.00229763
8.78792e-07
0.00273287
0.00209171
0.00644291
6.66632e-07
0.0023859
5.78143e-08
0.192751
0.195896
0.0128093
0.00481503
9.34605e-08
0.00069254
0.00283549
0.000840257
0.0137685
6.9477e-08
0.000571352
1.13563e-07
0.000102322
0.000119534
0.00104993
0.131979
0.0300194
0.058376
0.0236992
0.000615652
0.00050954
0.0725317
0.0532964
0.0535352
0.000769093
0.0011702
0.0268534
0.00162716
0.024924
0.000802859
0.0850094
0.000776041
0.000774164
0.0829001
0.0109877
0.0117208
0.155933
0.11947
0.00718084
0.120412
0.0073311
0.128517
0.112715
0.00513569
0.00972863
0.0094648
0.0269581
0.0386826
0.0429442
0.0314606
0.00017539
3.09854e-05
0.0354778
0.00100978
0.00371612
0.00108314
0.00131281
0.0402511
0.000950418
0.0298043
0.00053045
0.000780624
0.000533936
0.0540013
0.0591377
0.165491
0.00103949
0.00728765
0.000848642
0.0420659
0.000752981
0.0872721
0.000311043
0.000922988
0.0796401
0.000536761
0.000723164
0.0814423
0.000528302
0.0786069
0.0030145
0.0471025
0.00359381
0.0635714
0.0447469
0.000528697
0.000516688
0.0752715
0.0552452
0.0474948
0.0498452
0.00107837
0.0528235
0.0525224
0.001285
0.00386578
0.0553046
0.00374423
0.00509715
0.0525429
0.0500014
0.00100022
0.000589502
0.0527843
0.000546974
0.153242
0.155513
0.00487697
0.00837484
0.151209
0.193105
0.00271245
0.00731729
0.0594491
0.0567821
0.000664539
0.000638917
0.0632137
0.00793534
0.000641481
0.0593297
0.00059862
0.0514827
0.0497427
0.209988
0.167949
0.21022
0.0274496
7.25131e-05
0.00387639
0.0105813
1.97947e-06
0.0096199
1.71823e-06
1.82805e-05
0.0261896
0.00944508
0.0592376
0.0648144
0.000134578
0.069519
0.000985636
0.0117096
0.0151407
0.000175727
0.0165497
1.76658e-08
0.0166942
0.000291796
0.00163013
0.017626
0.0131113
0.000238968
2.51963e-08
3.01567e-06
0.010834
0.00711656
0.00431619
0.0635984
0.202693
0.0589069
0.0648038
0.00196292
0.000250626
0.0698387
0.00221953
0.00156514
0.0434439
0.0440583
9.6807e-05
0.00120815
0.0397104
0.00100861
0.000537069
0.0626471
0.000542008
0.0632492
0.0845434
0.0703633
0.0656188
0.00382013
2.43359e-06
0.00447629
0.0116885
0.00356304
0.124438
0.123358
0.00092417
0.164752
0.164884
0.00259749
0.0577517
0.000519568
0.0392125
0.0401014
3.01888e-06
3.44651e-06
0.0126456
0.0750852
0.000768303
0.00398239
2.31308e-06
1.766e-08
0.0414262
7.93673e-06
9.67369e-06
7.09873e-06
0.0154868
0.000516808
1.1987e-08
2.59629e-06
0.0017767
0.0091879
0.00737473
0.000507375
0.0556358
0.000502488
0.0554892
0.000498982
0.000132203
0.0544467
0.0208203
0.111126
0.000664803
0.117358
0.00154422
0.059549
6.32992e-07
0.00561353
0.00176686
8.86575e-07
0.00218742
1.1421e-06
0.00738267
0.00353683
0.00360236
0.191599
0.0031792
0.0579146
9.05361e-08
1.28511e-07
0.00335815
1.84829e-07
0.00110976
1.39207e-07
0.000971253
0.0531779
0.00585576
0.0557878
0.0020483
0.0395579
0.0342474
7.79526e-08
5.62984e-08
0.0516109
0.0616801
0.0596473
0.0598398
0.0457177
0.0438306
0.0401573
0.0533552
0.00804458
0.209062
0.213519
0.00768692
0.172017
0.217997
0.00829049
0.023149
0.00799152
0.00698821
0.20761
0.212793
0.00571975
0.00976826
2.75545e-05
0.0107218
4.03296e-06
0.002235
0.179949
0.00321461
0.173317
0.00551171
0.00272599
0.00670072
0.0056132
0.169425
0.0417288
0.045965
5.78636e-05
0.000410349
0.0453781
0.0499486
0.000476167
0.145446
0.201381
0.157852
0.00509401
0.0051818
0.166418
0.0360192
0.0621544
0.00715022
0.065034
0.00255772
0.0688621
0.00712994
0.0651581
0.082791
0.00520623
1.48057e-05
0.00547819
2.51561e-06
1.18028e-05
0.000169982
0.00237571
0.181907
0.00239198
0.00225242
0.124708
0.173859
0.000522307
3.29514e-08
0.000750837
0.00891832
0.000642906
2.52893e-06
3.03764e-06
0.0110314
0.00251672
0.13229
3.40438e-06
0.00336172
0.00124855
0.00424921
0.0421754
0.00414428
0.0444054
1.87092e-06
0.00112581
0.0158849
0.00550268
3.83902e-05
0.000416389
0.00854767
1.39424e-05
0.155648
0.0158394
0.174734
0.152626
0.171128
0.0146704
4.19842e-06
0.0162881
0.00231502
0.172002
0.00222517
0.120173
0.0103639
0.000499801
0.00053537
0.000645509
0.190495
0.00720729
0.186593
0.024558
0.000576031
0.000714853
0.0262309
0.0327691
0.0255607
0.000332616
0.027941
0.000775978
0.000465851
0.000825568
0.00141021
0.0288392
0.0386278
0.028476
0.000380804
0.030667
0.000444414
8.89658e-07
0.150699
0.0350255
0.0637101
0.00208124
0.0990804
0.0380667
0.0166725
0.00694732
0.205872
0.00143011
0.0480392
0.103856
0.000571442
0.0971773
0.000923161
0.000500884
0.00105082
0.0523296
0.0238817
1.46178e-05
0.0263851
0.0545533
0.0211508
0.000110419
0.00256407
0.00261704
0.00248148
2.94732e-05
0.00285552
0.0362185
0.00014722
0.000171804
0.0391285
0.0747137
0.034903
0.0170368
0.0139643
0.198176
0.0280119
0.00467826
4.66766e-06
3.43396e-07
0.200347
0.198088
0.0733509
0.0082332
0.203552
0.205891
0.199977
0.0127809
0.0149479
0.18388
0.0143978
0.00589339
0.182209
0.0139129
1.10385e-07
0.0112191
0.187844
0.00551999
0.188813
0.169884
0.184061
0.0257491
0.0301589
0.160609
8.0213e-06
8.97245e-06
0.00464529
0.00339067
0.0153625
0.0215187
2.56117e-05
0.0183479
0.1484
0.154639
0.155411
0.0273695
0.000936323
0.00081949
0.120475
0.125931
0.125976
0.0191297
0.130269
0.106257
0.0727161
0.00454924
0.044864
0.00505436
0.112233
0.0380403
0.00395052
0.105884
0.157092
0.150291
0.146759
0.00147554
0.0495421
0.0012967
0.00134656
0.00156871
0.0151739
5.217e-05
0.00114518
0.0141976
0.0728213
0.00444164
0.11647
0.0798223
0.114033
0.0837598
0.00120558
0.0813206
0.000931238
1.33166e-06
6.09181e-09
0.00300097
0.00896171
0.0623388
0.00253165
0.000334018
0.00118405
0.00426052
0.00218286
0.0569982
0.0660908
0.0004616
0.00844011
0.000160766
0.00018913
0.00022509
0.0081036
0.199447
0.15571
0.0236531
0.205247
0.158807
0.148206
0.144262
0.113956
0.00273015
0.110343
0.108099
0.166255
0.125109
0.00707917
0.114427
0.00171906
0.0702087
0.00120767
0.114932
0.00154887
0.120891
0.0645264
0.146968
0.000320986
0.000387561
0.000298851
0.0273293
0.000104709
0.0283625
0.156461
0.0311182
0.0552663
0.0273329
8.44869e-05
0.00469129
0.00566184
0.00419154
4.85317e-06
0.00378993
0.132546
0.186014
0.00318654
0.00670634
0.176035
0.00357493
0.00300662
0.196761
0.0626742
0.0298156
0.00450183
0.0756683
0.103916
0.0435176
0.0700937
0.0388983
3.36637e-06
0.0442007
0.0265057
0.000608845
0.00614742
0.00048477
0.0655228
0.000543898
0.0875439
0.0353398
0.045447
0.00169596
0.0487063
0.0424285
0.044407
6.09727e-06
8.1076e-06
0.0218051
5.86782e-05
0.167952
2.02561e-05
0.00400351
4.05037e-05
0.000408001
0.00958889
0.201663
5.45567e-06
0.0163276
0.00595942
1.45009e-05
0.00422513
0.00612013
5.68954e-06
6.35525e-07
0.00680118
7.4312e-06
0.00553496
1.27864e-08
1.7137e-06
0.00060731
8.84483e-07
0.0069651
1.0456e-05
1.36044e-05
1.99497e-05
0.00495044
0.15844
5.68682e-06
0.00632651
0.0165727
0.0135968
7.7295e-06
4.52335e-06
5.98435e-06
0.00125331
0.00643942
0.00943525
6.95039e-05
5.13523e-06
0.00707203
6.46014e-06
0.00764543
0.0168825
6.82495e-06
0.00801166
0.03944
4.69832e-05
0.0012188
0.0232755
0.0341739
3.26399e-05
0.00110071
0.00478113
0.0474513
0.00512408
2.53254e-06
0.00106132
2.32966e-06
0.0107932
2.25665e-06
0.00986804
0.00767632
7.99388e-06
0.00672112
0.0545755
5.98024e-06
0.0167457
0.00681805
6.26052e-06
0.00706177
4.84664e-06
0.0150337
0.0175148
3.6141e-06
4.54817e-05
0.0133886
3.839e-06
4.44871e-06
0.0148825
3.46592e-06
0.0101501
0.00974703
0.0400273
0.000931132
0.0361535
4.80595e-05
0.0323374
3.49547e-05
0.0359321
4.93864e-05
0.0354149
0.00799079
0.0532648
0.0425379
0.00210329
0.00799183
0.0498851
0.0015864
0.00511066
0.00949462
0.0067104
0.000129654
0.0486957
0.000131078
0.0182094
0.00671906
0.171428
0.000170106
0.0202651
0.0536229
0.0178782
0.15975
0.00248624
0.0160275
0.00942987
0.191425
0.000521088
0.0738739
0.032058
0.00042072
0.0290116
0.0078876
0.0635436
0.000304597
0.00238875
0.00919125
0.000420586
0.0679675
8.4294e-05
0.0285619
0.0255702
0.000334765
0.000240089
1.8074e-05
0.0257644
0.00883678
0.0226534
0.00023903
0.0230409
1.32572e-05
0.0203526
0.00018545
9.56622e-06
0.0224042
0.000260654
0.0227896
1.29044e-05
0.0253458
0.0828354
0.00230103
0.000397189
0.00253682
0.0884093
0.147491
0.0955027
0.000619088
0.0890491
0.000466775
0.094486
0.000801377
0.088711
0.000602537
0.00326436
0.0878661
0.142306
0.0610926
0.0635958
0.00455403
0.063123