# vtk DataFile Version 2.0
Unstructured Grid by M++
ASCII
DATASET UNSTRUCTURED_GRID
POINTS 15808 float
  0.718750   0.625000 0
  0.718750   0.953125 0
  0.960938   0.882812 0
  0.734375   0.937500 0
  0.953125   0.882812 0
  0.726562   0.937500 0
  0.953125   0.875000 0
  0.507812   0.593750 0
  0.742188   0.531250 0
  0.945312   0.781250 0
  0.750000   0.726562 0
  0.960938   0.578125 0
  0.718750   0.640625 0
  0.726562   0.648438 0
  0.718750   0.648438 0
  0.789062   0.601562 0
  0.671875   0.914062 0
  0.765625   0.523438 0
  0.960938   0.804688 0
  0.734375   0.859375 0
  0.718750   0.867188 0
  0.726562   0.859375 0
  0.953125   0.796875 0
  0.515625   0.507812 0
  0.507812   0.515625 0
  0.945312   0.703125 0
  0.515625   0.531250 0
  0.515625   0.539062 0
  0.507812   0.546875 0
  0.945312   0.734375 0
  1.000000   0.671875 0
  0.765625   0.726562 0
  0.757812   0.734375 0
  0.750000   0.734375 0
  0.515625   0.796875 0
  0.515625   1.000000 0
  0.750000   0.937500 0
  0.523438   0.992188 0
  0.640625   0.679688 0
  0.523438   0.507812 0
  0.742188   0.632812 0
  0.867188   0.515625 0
  0.671875   0.851562 0
  0.789062   0.796875 0
  0.781250   0.796875 0
  0.789062   0.804688 0
  0.742188   0.671875 0
  0.507812   0.734375 0
  0.968750   0.617188 0
  0.734375   0.687500 0
  0.664062   0.648438 0
  0.578125   0.960938 0
  0.781250   0.531250 0
  0.773438   0.531250 0
  0.546875   0.789062 0
  0.750000   0.585938 0
  0.835938   0.562500 0
  0.812500   0.601562 0
  0.578125   0.867188 0
  0.804688   0.757812 0
  0.507812   0.992188 0
  0.742188   0.929688 0
  0.851562   0.976562 0
  0.851562   0.968750 0
  0.632812   0.617188 0
  0.789062   0.945312 0
  0.789062   0.937500 0
  0.781250   0.937500 0
  0.804688   0.531250 0
  0.640625   0.617188 0
  0.812500   0.929688 0
  0.804688   0.835938 0
  0.796875   0.835938 0
  0.773438   0.554688 0
  0.859375   0.867188 0
  0.835938   0.585938 0
  0.843750   0.593750 0
  0.812500   0.632812 0
  0.578125   0.898438 0
  0.570312   0.898438 0
  0.695312   0.585938 0
  0.984375   0.570312 0
  0.773438   0.507812 0
  0.789062   0.687500 0
  0.546875   0.960938 0
  0.867188   0.671875 0
  0.875000   0.664062 0
  0.875000   0.656250 0
  0.882812   0.585938 0
  0.796875   0.859375 0
  0.804688   0.867188 0
  0.867188   0.898438 0
  0.859375   0.898438 0
  0.625000   0.960938 0
  0.835938   0.617188 0
  0.812500   0.960938 0
  0.804688   0.585938 0
  0.804688   0.609375 0
  0.804688   0.617188 0
  0.921875   0.875000 0
  0.687500   0.929688 0
  0.914062   0.875000 0
  0.507812   0.765625 0
  0.742188   0.703125 0
  0.945312   0.953125 0
  0.835938   0.875000 0
  0.625000   0.523438 0
  0.867188   0.960938 0
  0.859375   0.960938 0
  0.835938   0.703125 0
  0.804688   0.640625 0
  0.804688   0.851562 0
  0.578125   0.906250 0
  0.953125   0.593750 0
  0.507812   0.796875 0
  0.945312   0.984375 0
  0.992188   0.718750 0
  0.828125   0.921875 0
  0.835938   0.906250 0
  0.601562   0.968750 0
  0.625000   0.554688 0
  0.585938   0.820312 0
  0.578125   0.820312 0
  0.820312   0.828125 0
  0.820312   0.835938 0
  0.835938   0.710938 0
  0.796875   0.757812 0
  0.554688   0.820312 0
  0.773438   0.664062 0
  0.546875   0.929688 0
  0.507812   0.695312 0
  0.820312   0.609375 0
  0.734375   1.000000 0
  0.976562   0.929688 0
  0.742188   0.984375 0
  0.507812   0.726562 0
  0.531250   0.601562 0
  0.945312   0.914062 0
  0.750000   0.539062 0
  0.515625   0.601562 0
  0.507812   0.804688 0
  0.789062   0.710938 0
  0.781250   0.710938 0
  0.781250   0.703125 0
  0.515625   0.703125 0
  0.523438   0.703125 0
  0.960938   0.890625 0
  0.867188   0.937500 0
  0.632812   1.000000 0
  0.984375   0.515625 0
  0.750000   0.570312 0
  0.515625   0.632812 0
  0.742188   0.578125 0
  0.851562   0.773438 0
  0.843750   0.765625 0
  0.789062   0.742188 0
  0.789062   0.734375 0
  0.781250   0.734375 0
  0.523438   0.734375 0
  0.750000   0.984375 0
  0.984375   0.906250 0
  0.507812   0.703125 0
  0.742188   0.640625 0
  0.945312   0.890625 0
  0.531250   0.578125 0
  0.859375   0.734375 0
  0.867188   0.734375 0
  0.859375   0.976562 0
  0.867188   0.968750 0
  0.507812   0.820312 0
  0.742188   0.757812 0
  0.507812   0.812500 0
  0.843750   0.796875 0
  0.851562   0.804688 0
  0.843750   0.804688 0
  0.585938   0.796875 0
  0.789062   0.773438 0
  0.804688   0.648438 0
  0.789062   0.765625 0
  0.781250   0.765625 0
  0.804688   0.593750 0
  0.804688   0.671875 0
  0.796875   0.671875 0
  0.804688   0.679688 0
  0.796875   0.687500 0
  0.671875   1.000000 0
  0.679688   1.000000 0
  0.921875   0.937500 0
  0.921875   0.929688 0
  0.570312   0.945312 0
  0.562500   0.945312 0
  0.742188   0.562500 0
  0.507812   0.625000 0
  0.976562   0.507812 0
  0.734375   0.781250 0
  0.507812   0.835938 0
  0.523438   0.710938 0
  0.734375   0.773438 0
  0.507812   0.828125 0
  0.820312   0.546875 0
  0.812500   0.546875 0
  0.820312   0.750000 0
  0.515625   0.726562 0
  0.882812   0.601562 0
  0.875000   0.601562 0
  0.828125   0.945312 0
  0.625000   0.585938 0
  0.820312   0.523438 0
  0.976562   0.539062 0
  0.507812   0.867188 0
  0.523438   0.742188 0
  0.734375   0.804688 0
  0.507812   0.859375 0
  0.843750   0.851562 0
  0.828125   0.562500 0
  0.820312   0.570312 0
  0.820312   0.578125 0
  0.828125   0.578125 0
  0.781250   0.828125 0
  0.781250   0.820312 0
  0.757812   0.539062 0
  0.515625   0.757812 0
  0.828125   0.976562 0
  0.625000   0.617188 0
  0.804688   0.726562 0
  0.796875   0.726562 0
  0.804688   0.718750 0
  0.796875   0.718750 0
  0.570312   0.585938 0
  0.781250   0.648438 0
  0.523438   0.765625 0
  0.984375   0.546875 0
  0.742188   0.609375 0
  0.742188   0.617188 0
  0.507812   0.679688 0
  0.734375   0.625000 0
  0.976562   0.617188 0
  0.765625   0.554688 0
  0.773438   0.593750 0
  0.976562   0.843750 0
  0.835938   0.992188 0
  0.835938   0.984375 0
  0.828125   0.984375 0
  0.507812   0.898438 0
  0.734375   0.835938 0
  0.851562   0.882812 0
  0.843750   0.882812 0
  0.820312   0.601562 0
  0.796875   0.734375 0
  0.796875   0.843750 0
  0.781250   0.843750 0
  0.789062   0.851562 0
  0.992188   0.914062 0
  0.781250   0.851562 0
  0.523438   0.843750 0
  0.750000   0.531250 0
  0.765625   0.515625 0
  0.757812   0.515625 0
  0.523438   0.578125 0
  0.515625   0.789062 0
  0.523438   0.781250 0
  0.757812   0.718750 0
  0.960938   0.968750 0
  0.859375   0.585938 0
  0.664062   0.609375 0
  0.804688   0.750000 0
  0.796875   0.750000 0
  0.859375   0.781250 0
  0.867188   0.789062 0
  0.859375   0.789062 0
  0.750000   0.640625 0
  0.734375   0.640625 0
  0.742188   0.648438 0
  0.507812   0.710938 0
  0.968750   0.585938 0
  0.734375   0.656250 0
  0.507812   0.906250 0
  0.742188   0.843750 0
  0.828125   0.617188 0
  0.828125   0.609375 0
  0.820312   0.625000 0
  0.812500   0.625000 0
  0.585938   0.890625 0
  0.585938   0.882812 0
  0.812500   0.828125 0
  0.757812   0.593750 0
  0.992188   0.523438 0
  0.750000   0.593750 0
  0.515625   0.656250 0
  0.828125   0.718750 0
  0.828125   0.710938 0
  0.820312   0.718750 0
  0.796875   0.867188 0
  1.000000   0.921875 0
  0.789062   0.578125 0
  0.992188   0.828125 0
  0.539062   0.695312 0
  0.531250   0.687500 0
  0.570312   0.750000 0
  0.750000   0.710938 0
  0.515625   0.773438 0
  0.742188   0.718750 0
  0.515625   0.976562 0
  0.625000   0.664062 0
  0.734375   0.867188 0
  0.851562   0.914062 0
  0.859375   0.906250 0
  0.625000   0.968750 0
  0.843750   0.914062 0
  0.609375   0.976562 0
  0.843750   0.906250 0
  0.523438   0.875000 0
  0.546875   0.757812 0
  0.750000   0.562500 0
  0.515625   0.625000 0
  0.765625   0.546875 0
  0.968750   0.609375 0
  0.757812   0.546875 0
  0.523438   0.609375 0
  0.523438   0.820312 0
  0.515625   0.820312 0
  0.960938   1.000000 0
  0.523438   0.812500 0
  0.515625   0.812500 0
  0.835938   0.531250 0
  0.882812   0.695312 0
  0.882812   0.687500 0
  0.859375   0.617188 0
  0.617188   0.687500 0
  0.875000   0.992188 0
  0.664062   0.632812 0
  0.898438   0.570312 0
  0.664062   0.640625 0
  0.804688   0.781250 0
  0.796875   0.781250 0
  0.804688   0.789062 0
  0.515625   0.828125 0
  0.750000   0.765625 0
  0.523438   0.835938 0
  0.757812   0.773438 0
  0.515625   0.835938 0
  0.515625   0.843750 0
  0.859375   0.812500 0
  0.867188   0.820312 0
  0.859375   0.820312 0
  0.507812   0.937500 0
  0.742188   0.875000 0
  0.828125   0.648438 0
  0.820312   0.656250 0
  0.812500   0.656250 0
  0.585938   0.914062 0
  0.710938   0.601562 0
  0.703125   0.601562 0
  1.000000   0.562500 0
  0.757812   0.625000 0
  0.523438   0.687500 0
  0.992188   0.554688 0
  0.750000   0.625000 0
  0.515625   0.687500 0
  0.523438   0.882812 0
  0.648438   0.570312 0
  0.640625   0.570312 0
  0.882812   0.500000 0
  0.789062   0.609375 0
  0.992188   0.859375 0
  0.507812   0.843750 0
  0.742188   0.781250 0
  0.531250   0.718750 0
  0.515625   0.851562 0
  0.750000   0.789062 0
  0.539062   0.726562 0
  0.539062   0.718750 0
  0.976562   0.906250 0
  0.742188   0.500000 0
  0.507812   0.562500 0
  0.570312   0.789062 0
  0.671875   0.945312 0
  0.960938   0.929688 0
  0.546875   0.617188 0
  0.851562   0.945312 0
  0.843750   0.937500 0
  0.609375   1.000000 0
  0.570312   0.554688 0
  0.523438   0.906250 0
  0.843750   0.773438 0
  0.828125   0.890625 0
  0.820312   0.890625 0
  0.617188   1.000000 0
  0.796875   0.523438 0
  0.914062   0.781250 0
  0.687500   0.835938 0
  0.750000   0.875000 0
  0.515625   0.937500 0
  0.781250   0.742188 0
  0.992188   0.804688 0
  0.765625   0.859375 0
  0.750000   0.867188 0
  0.968750   0.921875 0
  0.757812   0.859375 0
  0.523438   0.921875 0
  0.984375   0.796875 0
  0.976562   0.703125 0
  0.804688   0.539062 0
  0.914062   0.789062 0
  0.921875   0.789062 0
  0.687500   0.843750 0
  0.804688   0.820312 0
  0.820312   0.695312 0
  0.804688   0.812500 0
  0.796875   0.812500 0
  0.750000   0.703125 0
  0.515625   0.765625 0
[...]
CELL_DATA 30592
SCALARS scalar_value float 1
LOOKUP_TABLE default
0.00140152
0.00126801
0.00129149
0.00116904
0.000948022
0.00086154
0.000926789
0.00118275
0.00107058
0.00107638
0.000874924
0.000757676
0.000695016
0.00058766
0.00819806
0.00942412
0.00970883
0.0125224
0.0134306
0.0134027
0.0119932
0.0115586
0.0115466
0.0112149
0.00895437
0.00887286
0.00837874
0.222401
0.220555
0.218206
0.220987
0.0328945
0.0356873
0.0394337
0.0362473
0.0437857
0.0443121
0.0487457
0.0348058
0.0353308
0.031095
0.0100191
0.00883167
0.00915712
0.00774273
0.00689895
0.00717023
0.00814162
0.00930619
0.0107696
0.012557
0.0149383
0.0172293
0.0128233
0.109789
0.109314
0.106486
0.095896
0.0965586
0.0928716
1.50774e-05
1.78184e-05
1.7e-05
1.93118e-05
2.12744e-05
1.94768e-05
2.6985e-05
0.00271646
0.00101958
0.00249172
0.00243019
0.00217128
0.00222535
0.00193849
0.00070824
0.00176607
0.00198039
0.00216944
0.00198666
0.00194715
0.00172744
0.00169563
0.001539
0.00151417
0.00129526
0.130363
0.122127
0.142566
0.141214
0.131374
0.12158
0.129536
0.129739
0.141858
0.123372
0.140583
0.132435
0.13029
0.12251
0.152215
0.148687
0.157418
0.140392
0.117239
0.115267
0.12303
1.19779e-06
8.72293e-07
9.29003e-07
6.53663e-07
1.07902e-06
1.32904e-06
1.52376e-06
1.50188e-06
0.0072864
0.00652865
0.00676562
0.00822622
0.0085195
0.00960019
0.054124
0.0534514
0.0569803
0.0510868
0.0592561
0.0579976
0.0609256
0.0479486
0.0470317
0.0500637
0.0447528
0.0513271
0.0479301
0.0466229
0.0488961
0.0453528
0.0437568
0.00187025
0.00177122
0.00171044
0.00176431
0.00161787
0.00158713
0.00145488
0.00163686
0.00141418
0.00137611
0.0013226
0.0824053
0.0879327
0.0955927
0.00189702
0.00182371
0.00179196
0.00115839
0.00112374
0.00105003
0.163558
0.152654
0.139712
0.153088
0.002143
0.00180224
0.00173745
0.00227625
0.00218189
0.00228602
0.0715778
0.0730572
0.0776698
0.068647
0.002157
0.00207626
0.00172389
0.0112021
0.0104741
0.0102728
0.00944064
0.00958617
0.00864616
0.00806396
0.00938417
0.00875268
0.00859739
0.00788704
0.00796277
0.007439
0.00728002
0.160128
0.160704
0.166336
0.153104
0.172096
0.172319
0.16493
0.00307615
0.0103646
0.00349465
0.00394387
0.00356814
0.00500993
0.0139595
0.00573772
0.00593237
0.126631
0.14054
0.13365
0.0107273
0.00978446
0.00966819
0.153774
0.159695
0.160648
0.170119
0.177344
0.170011
0.0326334
0.0270244
0.0253697
0.0248214
0.0380256
0.0381234
0.0360285
0.0411484
0.0481615
0.0428277
0.0411427
0.044639
0.0450184
0.0427163
0.0485181
0.00996619
0.0113093
0.0118264
0.0139688
0.0148322
0.0150996
0.0689183
0.0655154
0.0629462
0.0664941
0.0676162
0.0635394
0.0618125
0.062764
0.0602824
0.0594583
0.00958206
0.00856491
0.0087977
0.0106955
0.0109551
0.0121591
1.48626e-05
1.62011e-05
1.71784e-05
0.0536764
0.0595064
0.0541509
0.0475568
0.0515745
0.0570059
0.0520151
0.0328389
0.0357128
0.0400237
0.0360466
0.00371827
0.00357582
0.00420144
0.004506
0.00503755
0.00468489
0.00596037
0.00573229
0.00681855
1.24211e-05
1.41186e-05
1.40237e-05
1.47933e-05
0.00689885
0.00715773
0.00838309
0.00623977
0.00811245
0.00968813
0.0118596
0.00648396
0.00748606
0.00866794
0.00776638
2.7176e-05
3.66371e-05
5.29786e-05
3.84027e-05
0.000171471
0.00026933
0.000172226
5.50844e-05
7.64031e-05
7.86469e-05
0.00497798
0.00479138
0.00570456
0.0120777
0.0171503
0.0145059
0.140519
0.146623
0.154269
0.147166
0.057477
0.060096
0.0581847
0.000949796
0.000705381
0.000604483
0.000522741
0.000393143
0.000328483
0.00954148
0.00982963
0.0110015
0.127346
0.126168
0.132158
0.127562
0.131262
0.133731
0.123957
0.12074
0.127304
0.136488
0.137664
0.133822
0.0173371
0.0155812
0.0140238
0.0146721
0.0134959
0.0119046
0.0113087
0.0101442
0.0104201
0.00905675
0.0196321
0.0216821
0.0176482
0.0243207
0.00983968
0.0247311
0.0271371
0.022215
1.72912e-05
1.99478e-05
2.19732e-05
2.16955e-05
2.73972e-05
3.21539e-05
2.49038e-05
2.69877e-05
3.38627e-05
3.32764e-05
0.225707
0.224738
0.224582
0.223506
0.220067
0.220864
0.218652
0.0055264
0.00628709
0.00708515
0.00653851
0.00544907
0.00607701
0.00566867
0.18474
0.191147
0.188699
0.197051
0.200391
0.20228
0.199594
0.163848
0.161789
0.162162
0.00667116
0.00755258
0.0084486
0.00783814
0.0107962
0.0122762
0.0139536
0.009184
0.0103685
0.0116177
0.0107201
3.08887e-05
2.35075e-05
1.80235e-05
0.0403822
0.0360499
0.0366093
0.0540926
0.0600257
0.0546843
0.0409174
0.0365753
0.0369462
0.204073
0.202134
0.200223
0.200573
0.0570939
0.0575832
0.0548626
0.0617422
0.0825176
0.0782065
0.0758074
0.0593988
0.0634199
0.0570205
0.119541
0.107389
0.11267
0.0457434
0.0411626
0.0404449
0.0480655
0.0413133
0.0420033
0.221696
0.220961
0.220943
0.17655
0.173287
0.129475
0.169928
0.171613
0.000539518
0.000553866
0.000526022
0.000513144
0.000467025
0.000501292
0.00059758
0.000563211
0.000536394
0.000571493
0.125666
0.114627
0.128493
0.000507328
0.000502752
0.000472153
0.000481583
0.00043745
0.000456145
0.0560123
0.0535581
0.0524736
0.0502795
0.000474429
0.000454492
0.000445392
0.000431834
0.0114104
0.0105096
0.0109276
0.00496534
0.00524439
0.00566589
0.00518026
0.00546073
0.00589544
0.00620927
0.000260178
0.00139989
0.000297966
0.000375642
0.000293557
0.00053937
0.00218516
0.000609944
0.00076202
0.000594987
0.00032894
0.000373038
0.0004652
0.000366346
0.0145281
0.0133012
0.0128342
0.0115627
0.0102269
0.0103495
0.0116193
0.0107659
0.0104811
0.225698
0.225772
0.224121
0.077358
0.0768051
0.0810368
0.0235993
0.0201608
0.0193837
0.0850693
0.0848132
0.0812059
0.0895381
0.000664788
0.000999955
0.000813603
0.00142173
0.00193526
0.00169402
0.000993655
0.00118193
0.00144894
8.15094e-07
8.58059e-07
6.11396e-07
0.0262837
0.0284268
0.0250392
0.000649183
0.00103104
0.000847475
0.000970343
0.0011895
0.00146118
0.00150837
0.0018469
0.002187
0.145953
0.150222
0.147823
0.155916
4.88587e-07
5.38716e-07
7.10125e-07
0.00230758
0.00275632
0.00266323
0.0032308
0.00346326
0.00404145
0.00390004
0.00468032
0.211533
0.215146
0.217365
0.221895
0.223821
0.224797
0.163612
0.164019
0.15993
0.169363
0.12467
0.118477
0.115407
0.109182
0.102011
0.109355
0.106529
0.102354
0.0545767
0.0606376
0.0624883
0.0625868
0.0596148
0.0667869
0.0716083
0.072238
0.0691365
0.0770123
0.0554768
0.0408521
0.0408546
0.0370127
0.0428125
0.0389077
0.0353212
0.0335698
0.0385607
0.0367865
0.0381751
0.162584
0.160694
0.159292
0.155368
0.149507
0.149679
0.0250198
0.0221383
0.0197729
0.0201418
0.0180294
0.0161025
0.0156652
0.0139833
0.0124546
0.0693558
0.0743833
0.0814057
0.0747691
0.0302729
0.0301433
0.0269611
0.031706
0.0280321
0.0276064
0.0314359
0.0236803
0.0232706
0.0205314
0.0238301
0.0206797
0.0182074
0.0820529
0.0795445
0.078831
0.000804183
0.000778855
0.000846937
0.000489716
0.000738687
0.000624829
0.000580855
0.000615419
0.000814869
0.000693838
0.000648574
0.000529519
0.000680745
0.189052
0.155311
0.161965
0.163201
0.16449
0.178195
0.179906
0.179329
0.118
0.123391
0.114602
0.0359421
0.0300626
0.0301292
0.0249877
0.0215843
0.0207217
0.0206356
0.0119846
0.0131358
0.0126711
0.0144849
0.000226135
0.000260891
0.000247985
0.000327017
0.000432631
0.000356843
0.00027024
0.000286203
0.000310146
0.000292662
0.0623427
0.0617323
0.0637822
0.0629342
0.0581804
0.0569459
0.056281
0.000283799
0.000285308
0.000309393
0.000263526
0.0649067
0.0638479
0.0657258
0.0588014
0.0511336
0.0496806
0.0438705
0.209917
0.210235
0.215907
0.0122648
0.0130442
0.0143242
0.0152058
0.0163376
0.0138315
0.0167503
0.017888
0.0195733
0.0179059
0.0139472
0.0151388
0.0157883
0.000481008
0.00047065
0.000520804
0.000392539
0.000557416
0.000541215
0.000586711
0.000452782
0.000334982
0.000360524
0.000308862
0.00131238
0.00170258
0.00155154
0.00217518
0.00246718
0.00256741
0.00183261
0.00209123
0.00237301
0.00216312
0.129087
0.135027
0.123165
0.117784
0.12509
0.11151
0.104476
0.110523
0.097398
0.0151958
0.0161293
0.0176236
0.0159069
0.0154059
0.0168113
0.0169975
0.0178448
0.0169151
0.018504
0.0187154
0.0196913
0.013824
0.0127176
0.012605
0.000423468
0.000418117
0.00043727
0.000388141
0.129897
0.133234
0.13866
0.13135
0.00035062
0.000317164
0.000296399
0.000275934
0.000286238
0.000303775
0.000246963
0.000233069
0.000258289
0.0003144
0.000300335
0.000284782
0.00031244
0.205436
0.20444
0.205903
0.19961
1.05119e-06
1.50786e-06
2.25728e-06
1.57343e-06
3.07497e-06
3.93414e-06
4.25571e-06
5.31736e-06
7.14222e-06
5.40059e-06
2.20449e-06
2.87869e-06
4.01837e-06
2.95736e-06
0.204951
0.203928
0.205645
0.0310085
0.0357517
0.0354406
0.0478707
0.0516502
0.0505675
0.00109301
0.00102167
0.000864169
0.000703874
0.000659015
0.000641664
0.222257
0.220276
0.22113
0.222974
0.219139
0.00146822
0.00187455
0.00190256
0.00249481
0.00335709
0.00317105
0.0908628
0.0917563
0.0888922
0.0821448
0.0798134
0.0817999
0.000624936
0.000594024
0.00060922
0.0717208
0.0663547
0.0706639
0.080699
0.0775509
0.0788431
0.0393975
0.0178869
0.0170801
0.0147078
0.0177536
0.0140139
0.0145425
0.0138529
0.0114828
0.0119213
0.203053
0.203427
0.201097
0.0108
0.0103671
0.00939581
0.0104282
0.146685
0.147523
0.153551
0.139866
0.130673
0.138144
0.130143
0.118053
0.121711
0.12853
0.120904
0.0663928
0.0708013
0.0766781
0.0711714
0.0415506
0.0405199
0.0431128
0.0812262
0.0857976
0.0754903
0.0757683
0.0799386
0.0858486
0.0172246
0.0198951
0.0235226
0.00405469
0.00355686
0.00327598
0.00356907
0.00254111
0.00208991
0.00189086
0.00204974
0.000393692
0.000389577
0.000456381
0.000357137
0.000538233
0.000534729
0.000639539
0.00048581
0.000322983
0.000319113
0.000373363
0.0367423
0.040984
0.0372174
0.0446821
0.0452323
0.049195
0.0410613
0.0446745
0.0451724
0.0669868
0.0705002
0.0750744
0.0708406
0.00401321
0.00367395
0.00325602
0.00339724
0.00296539
0.00299233
0.0030813
0.0030218
0.00268671
0.00254708
0.00232025
0.00231711
0.00191761
0.166389
0.16312
0.160056
0.160954
0.00554727
0.00628881
0.00633362
0.00921137
0.0100892
0.010032
0.168554
0.166492
0.16903
0.000778718
0.000757173
0.000753997
0.000718782
0.00065968
0.00071558
0.0744811
0.0762812
0.0733748
0.0753168
0.0726957
0.0715609
0.069054
0.000677554
0.000629566
0.000599971
0.109445
0.115387
0.123652
0.0642248
0.0647277
0.0696668
0.0707873
0.0760245
0.0832504
0.0765327
0.0590077
0.0636444
0.0701449
0.0640867
0.185266
0.182208
0.178697
0.131328
0.181126
0.210373
0.211296
0.21666
0.0458356
0.0430614
0.0411056
0.0420768
0.021273
0.0204148
0.0162232
0.0145091
0.0149219
0.0131368
0.0169158
0.00531196
0.020201
0.0199748
0.0232537
0.119427
0.111477
0.105993
0.101596
0.106488
0.113919
0.122895
0.00985699
0.128226
0.126188
0.146113
0.146695
0.151096
0.214639
0.214656
0.210472
0.217554
0.215349
0.216203
0.213741
0.212604
0.212175
0.210133
0.0744362
0.0777953
0.0825312
0.0776384
0.000111774
0.000122341
0.000132807
0.000128221
0.00408056
0.00598101
0.00434194
0.00434404
0.00456554
0.00634248
0.00681102
0.00705908
0.000218258
0.000293624
0.0002436
0.000184301
0.000198042
0.000214205
0.000204859
0.0122944
0.0152735
0.0143965
0.0163777
0.0140945
0.0525869
0.0583556
0.0529632
0.225839
0.226104
0.225821
0.225618
2.29744e-06
0.00144736
0.155332
0.000325494
0.00031435
0.000290248
0.000300074
0.0289489
0.000864207
0.00104278
0.0480209
0.106354
0.0564272
0.000299575
0.0610773
0.00173226
0.00184412
0.0863818
0.00164744
0.00136555
0.0015489
0.154213
0.001064
0.079926
0.00190422
0.00216996
0.159491
0.00147739
0.0819356
0.000289516
0.000259328
0.000276745
0.110776
0.0005171
0.0028074
0.102636
0.166747
0.00173813
0.00132442
0.0901006
0.0858138
0.0924743
0.00122524
0.000761796
0.00122518
0.000923297
0.000113682
0.000812178
0.0689374
0.0810019
0.00125587
0.0757205
0.00108576
0.000124084
0.000829346
0.129784
0.0128941
1.66125e-05
0.0103211
4.89754e-05
0.00768465
0.000219262
0.0573593
0.0892328
0.00759353
0.00023714
0.00732217
0.00840378
0.043383
3.78048e-05
0.042894
0.00019355
0.0471499
0.111373
0.000402281
0.00141726
0.000167953
0.000395439
0.00961459
0.000170564
0.00910423
0.000211325
0.0605734
0.0933145
0.0550958
0.0059588
2.73438e-06
0.00695811
0.00541515
0.015215
2.06546e-06
0.00614842
1.8718e-07
0.165103
0.1664
0.0119011
0.00494112
2.97384e-07
0.0018698
0.00717104
0.0022602
0.0332906
2.23183e-07
0.00155982
3.61882e-07
0.000145861
0.000164593
0.00123142
0.148251
0.03603
0.0706199
0.0286582
0.000374345
0.000363988
0.0460391
0.03731
0.0366942
0.00140693
0.00290306
0.0585043
0.00396706
0.0328748
0.000730467
0.0826616
0.000700529
0.000713689
0.0822418
0.0272939
0.0288118
0.212204
0.175955
0.0118693
0.178985
0.0122067
0.185982
0.159233
0.00797711
0.0117784
0.0118289
0.029317
0.0612223
0.0659566
0.0522807
0.000258062
5.53478e-05
0.0748325
0.00250803
0.00862117
0.00265884
0.00316855
0.0829739
0.00233255
0.0632108
0.00035924
0.000415916
0.000370072
0.0867905
0.0925729
0.219696
0.000548954
0.00401341
0.00196075
0.084592
0.00175131
0.0904187
0.000331038
0.00086937
0.0844839
0.000400661
0.000451892
0.0536713
0.000381532
0.0504802
0.00643384
0.0927258
0.00747198
0.119057
0.0890673
0.000389386
0.000381556
0.049048
0.039329
0.0929324
0.0964739
0.00237742
0.10119
0.101174
0.00283636
0.0078897
0.104789
0.00754198
0.0102698
0.102096
0.0982283
0.00054485
0.000416178
0.102166
0.000384434
0.203518
0.204171
0.00772616
0.0127881
0.199457
0.22308
0.0058021
0.0140703
0.112994
0.109064
0.000427571
0.000406282
0.118489
0.0149752
0.000394579
0.11267
0.000389291
0.0387583
0.0368383
0.188896
0.110647
0.186045
0.02605
0.000220185
0.0105378
0.0227565
5.25811e-06
0.0206522
4.57166e-06
3.86968e-05
0.0497461
0.0204457
0.0875705
0.0944292
0.000201301
0.0991846
0.00128286
0.0248231
0.0362654
0.000499318
0.0392056
6.24718e-08
0.0395432
0.000813473
0.00425722
0.0413937
0.0312751
0.000666383
8.84858e-08
1.00799e-05
0.0239313
0.0164903
0.0104249
0.0653472
0.161375
0.096168
0.104177
0.00319879
0.000429246
0.110297
0.0035808
0.00254233
0.077693
0.0783971
0.000187956
0.00219459
0.0721215
0.00186775
0.000420859
0.0481008
0.000417416
0.0475725
0.0576916
0.07981
0.073253
0.00906013
6.43396e-06
0.0103599
0.0250518
0.00836676
0.123343
0.121045
0.000912153
0.186966
0.185487
0.00336365
0.039618
0.000370011
0.0430599
0.0446617
1.00757e-05
1.14553e-05
0.0274779
0.124541
0.00141819
0.00710647
7.74987e-06
6.14794e-08
0.0430698
1.7474e-05
2.07253e-05
1.5842e-05
0.0296574
0.000360461
4.33162e-08
8.72326e-06
0.00484847
0.0206392
0.0170705
0.000348777
0.03673
0.000337909
0.0358586
0.000344218
0.000227832
0.0894006
0.0401666
0.0988114
0.000617181
0.101087
0.00248487
0.0966784
2.06284e-06
0.0135287
0.00474302
2.87875e-06
0.00349547
3.66037e-06
0.0171559
0.00421471
0.00420662
0.192239
0.00377373
0.0444048
2.96408e-07
4.16599e-07
0.00849491
5.99333e-07
0.00299963
4.47768e-07
0.00261928
0.103427
0.0117715
0.107341
0.00448906
0.0287248
0.0244587
2.61884e-07
1.87672e-07
0.0340455
0.0446905
0.0425053
0.041746
0.0296119
0.0279072
0.0255369
0.0339069
0.0103467
0.210245
0.220579
0.0100732
0.1985
0.21421
0.010019
0.024323
0.00954333
0.00890159
0.208368
0.221269
0.00706739
0.0243737
8.61498e-05
0.0265102
1.34667e-05
0.0059317
0.190963
0.00396656
0.18435
0.00640449
0.00329632
0.00792372
0.00672263
0.185317
0.0659634
0.0717859
9.47815e-05
0.000567692
0.0714598
0.0764178
0.000647064
0.17102
0.202005
0.179694
0.00626835
0.00658631
0.220352
0.072365
0.116503
0.0133667
0.120543
0.00532576
0.125984
0.0131202
0.120392
0.14479
0.013901
4.82082e-05
0.0145243
8.51576e-06
3.88544e-05
0.000498871
0.00238362
0.173067
0.00245572
0.00231957
0.142199
0.170563
0.00147314
1.1203e-07
0.00209122
0.022731
0.00178831
6.41493e-06
7.54832e-06
0.0224611
0.00264189
0.14981
8.37195e-06
0.00755648
0.0029736
0.00938124
0.0860606
0.00895318
0.0895177
4.90081e-06
0.0025109
0.0116012
0.0146792
0.000119463
0.00120419
0.01875
3.05604e-05
0.101761
0.0111302
0.126573
0.178687
0.12404
0.0305436
1.05574e-05
0.0333504
0.00250922
0.173561
0.00236144
0.139917
0.0259669
0.00147918
0.00158062
0.00188672
0.219837
0.0107755
0.217925
0.0535167
0.00147706
0.00180459
0.0567142
0.0699593
0.0557628
0.000836813
0.0597495
0.00193548
0.00111601
0.00208327
0.00344251
0.0622211
0.0802807
0.0617888
0.000982499
0.0654451
0.00111129
2.99995e-06
0.0906562
0.0297447
0.0507347
0.00371478
0.155642
0.0271998
0.0190366
0.00912735
0.211163
0.00257152
0.0841544
0.0888515
0.000518158
0.0825945
0.00077232
0.000452953
0.00226294
0.0996152
0.0438372
2.97087e-05
0.047585
0.0871402
0.0392036
0.000182611
0.00713361
0.00728994
0.0069373
9.37085e-05
0.00792004
0.0559185
0.00020719
0.00023617
0.0592954
0.100246
0.0536573
0.0322223
0.0267053
0.158698
0.0246999
0.0115065
1.31529e-05
1.10892e-06
0.16322
0.15909
0.13232
0.00825283
0.157722
0.174994
0.162267
0.0079116
0.0093295
0.141457
0.0120494
0.00562641
0.141716
0.0120665
3.4851e-07
0.0100825
0.154244
0.00540491
0.150373
0.154767
0.146301
0.019239
0.0228078
0.104861
2.6929e-05
3.00401e-05
0.012485
0.00915211
0.00997899
0.014782
5.26022e-05
0.0124914
0.209517
0.213694
0.214376
0.044147
0.00268652
0.00236572
0.186656
0.191717
0.191629
0.0341018
0.195601
0.170523
0.0798333
0.00815651
0.0504754
0.00895813
0.175521
0.0428806
0.00710334
0.167789
0.159914
0.155143
0.154617
0.00161407
0.0894792
0.00346857
0.00357966
0.0041244
0.0293112
9.31115e-05
0.00305541
0.034294
0.118667
0.00783816
0.181572
0.130633
0.176038
0.136701
0.00221036
0.131969
0.00168631
4.51375e-06
2.15849e-08
0.00542233
0.011438
0.105317
0.00452892
0.000617402
0.00333688
0.0104671
0.00398494
0.0983135
0.111641
0.000859535
0.0215013
0.00049241
0.000579202
0.000684273
0.0119144
0.220027
0.198494
0.0216037
0.173879
0.10098
0.194451
0.188579
0.0781952
0.0016221
0.0736164
0.0740308
0.216284
0.178216
0.0114084
0.166401
0.00259206
0.10756
0.00183777
0.15726
0.0023858
0.165015
0.101396
0.0872514
0.00096911
0.0011593
0.000901788
0.0455769
0.000158386
0.0467292
0.215018
0.0503031
0.0813946
0.0449367
0.000129411
0.0114833
0.0135483
0.0104352
1.50514e-05
0.00477549
0.161169
0.197097
0.00406988
0.00817091
0.192097
0.00472804
0.00390456
0.151281
0.0634288
0.0311351
0.00812689
0.127366
0.166889
0.0503202
0.0783882
0.0444699
1.12629e-05
0.0518907
0.0349007
0.000674229
0.00332858
0.000538224
0.0817928
0.000431421
0.0619935
0.0733696
0.0915198
0.00396674
0.096731
0.0428717
0.0442095
1.84514e-05
2.30763e-05
0.0443803
0.000181515
0.117211
6.54041e-05
0.0109565
0.000126608
0.00119296
0.0140684
0.22174
1.35252e-05
0.0336239
0.013701
4.75448e-05
0.0114953
0.0139465
1.39468e-05
1.82974e-06
0.0152974
1.75856e-05
0.0126326
4.41099e-08
5.75601e-06
0.000820474
2.48298e-06
0.0155179
2.34023e-05
2.94181e-05
6.40682e-05
0.0133016
0.106966
1.3689e-05
0.014094
0.0337555
0.0098831
1.80981e-05
1.07093e-05
1.36649e-05
0.00064869
0.0165896
0.0238708
0.000207967
1.20779e-05
0.0141752
1.47564e-05
0.0151266
0.0332658
1.54416e-05
0.0154285
0.0618081
7.81017e-05
0.00308028
0.0521217
0.0567058
5.80938e-05
0.00276001
0.0100878
0.0944753
0.0108607
6.44868e-06
0.00132463
5.997e-06
0.0226752
5.7978e-06
0.0205301
0.0158204
1.79685e-05
0.0138229
0.10581
1.40098e-05
0.033619
0.0144906
1.45229e-05
0.0147213
1.15128e-05
0.0302971
0.011029
8.92246e-06
8.65088e-05
0.0275829
9.38115e-06
1.08613e-05
0.0305511
8.71831e-06
0.00760093
0.00749408
0.071941
0.00167091
0.0657866
9.57411e-05
0.0601256
7.23689e-05
0.0659513
0.000100332
0.0652856
0.0193511
0.103709
0.0849782
0.0046796
0.0193888
0.0982693
0.00360095
0.010545
0.0224616
0.00869334
0.000244877
0.0848568
0.000245684
0.0369981
0.00844006
0.192423
0.000313151
0.0404484
0.0914679
0.0364714
0.184847
0.00331655
0.0331543
0.0112965
0.202582
0.000924564
0.119528
0.0594049
0.000755423
0.0547286
0.00971156
0.105413
0.000548489
0.00414466
0.0113625
0.000761577
0.112405
0.000258179
0.0540988
0.0491744
0.000613707
0.000438511
4.00298e-05
0.0496739
0.0198605
0.0445322
0.000440073
0.0451164
3.00738e-05
0.0407317
0.000346678
2.28168e-05
0.0442896
0.000492006
0.0448914
3.00515e-05
0.0490535
0.121712
0.00340544
0.000617493
0.00371098
0.127407
0.185457
0.13561
0.000945175
0.127469
0.000708531
0.13956
0.00129909
0.131661
0.000968608
0.00513213
0.13131
0.190074
0.112704
0.11607
0.00871228
0.114704
0.00930186
0.00261818
0.00294632
0.0129709
0.224186
0.198356
0.0123826
0.182667
0.0121463
0.183856
0.00551951
0.0118461
0.198427
0.00588551
0.0135625
0.186271
0.19805
0.00689011
0.0897224
0.194242
0.00548478
0.029648
0.000312428
7.14634e-07
0.103089
0.000378001
0.00556479
2.74998e-06
0.00173822