# vtk DataFile Version 2.0
Unstructured Grid by M++
ASCII
DATASET UNSTRUCTURED_GRID
POINTS 15808 float
  0.718750   0.625000 0
  0.718750   0.953125 0
  0.960938   0.882812 0
  0.734375   0.937500 0
  0.953125   0.882812 0
  0.726562   0.937500 0
  0.953125   0.875000 0
  0.507812   0.593750 0
  0.742188   0.531250 0
  0.945312   0.781250 0
  0.750000   0.726562 0
  0.960938   0.578125 0
  0.718750   0.640625 0
  0.726562   0.648438 0
  0.718750   0.648438 0
  0.789062   0.601562 0
  0.671875   0.914062 0
  0.765625   0.523438 0
  0.960938   0.804688 0
  0.734375   0.859375 0
  0.718750   0.867188 0
  0.726562   0.859375 0
  0.953125   0.796875 0
  0.515625   0.507812 0
  0.507812   0.515625 0
  0.945312   0.703125 0
  0.515625   0.531250 0
  0.515625   0.539062 0
  0.507812   0.546875 0
  0.945312   0.734375 0
  1.000000   0.671875 0
  0.765625   0.726562 0
  0.757812   0.734375 0
  0.750000   0.734375 0
  0.515625   0.796875 0
  0.515625   1.000000 0
  0.750000   0.937500 0
  0.523438   0.992188 0
  0.640625   0.679688 0
  0.523438   0.507812 0
  0.742188   0.632812 0
  0.867188   0.515625 0
  0.671875   0.851562 0
  0.789062   0.796875 0
  0.781250   0.796875 0
  0.789062   0.804688 0
  0.742188   0.671875 0
  0.507812   0.734375 0
  0.968750   0.617188 0
  0.734375   0.687500 0
  0.664062   0.648438 0
  0.578125   0.960938 0
  0.781250   0.531250 0
  0.773438   0.531250 0
  0.546875   0.789062 0
  0.750000   0.585938 0
  0.835938   0.562500 0
  0.812500   0.601562 0
  0.578125   0.867188 0
  0.804688   0.757812 0
  0.507812   0.992188 0
  0.742188   0.929688 0
  0.851562   0.976562 0
  0.851562   0.968750 0
  0.632812   0.617188 0
  0.789062   0.945312 0
  0.789062   0.937500 0
  0.781250   0.937500 0
  0.804688   0.531250 0
  0.640625   0.617188 0
  0.812500   0.929688 0
  0.804688   0.835938 0
  0.796875   0.835938 0
  0.773438   0.554688 0
  0.859375   0.867188 0
  0.835938   0.585938 0
  0.843750   0.593750 0
  0.812500   0.632812 0
  0.578125   0.898438 0
  0.570312   0.898438 0
  0.695312   0.585938 0
  0.984375   0.570312 0
  0.773438   0.507812 0
  0.789062   0.687500 0
  0.546875   0.960938 0
  0.867188   0.671875 0
  0.875000   0.664062 0
  0.875000   0.656250 0
  0.882812   0.585938 0
  0.796875   0.859375 0
  0.804688   0.867188 0
  0.867188   0.898438 0
  0.859375   0.898438 0
  0.625000   0.960938 0
  0.835938   0.617188 0
  0.812500   0.960938 0
  0.804688   0.585938 0
  0.804688   0.609375 0
  0.804688   0.617188 0
  0.921875   0.875000 0
  0.687500   0.929688 0
  0.914062   0.875000 0
  0.507812   0.765625 0
  0.742188   0.703125 0
  0.945312   0.953125 0
  0.835938   0.875000 0
  0.625000   0.523438 0
  0.867188   0.960938 0
  0.859375   0.960938 0
  0.835938   0.703125 0
  0.804688   0.640625 0
  0.804688   0.851562 0
  0.578125   0.906250 0
  0.953125   0.593750 0
  0.507812   0.796875 0
  0.945312   0.984375 0
  0.992188   0.718750 0
  0.828125   0.921875 0
  0.835938   0.906250 0
  0.601562   0.968750 0
  0.625000   0.554688 0
  0.585938   0.820312 0
  0.578125   0.820312 0
  0.820312   0.828125 0
  0.820312   0.835938 0
  0.835938   0.710938 0
  0.796875   0.757812 0
  0.554688   0.820312 0
  0.773438   0.664062 0
  0.546875   0.929688 0
  0.507812   0.695312 0
  0.820312   0.609375 0
  0.734375   1.000000 0
  0.976562   0.929688 0
  0.742188   0.984375 0
  0.507812   0.726562 0
  0.531250   0.601562 0
  0.945312   0.914062 0
  0.750000   0.539062 0
  0.515625   0.601562 0
  0.507812   0.804688 0
  0.789062   0.710938 0
  0.781250   0.710938 0
  0.781250   0.703125 0
  0.515625   0.703125 0
  0.523438   0.703125 0
  0.960938   0.890625 0
  0.867188   0.937500 0
  0.632812   1.000000 0
  0.984375   0.515625 0
  0.750000   0.570312 0
  0.515625   0.632812 0
  0.742188   0.578125 0
  0.851562   0.773438 0
  0.843750   0.765625 0
  0.789062   0.742188 0
  0.789062   0.734375 0
  0.781250   0.734375 0
  0.523438   0.734375 0
  0.750000   0.984375 0
  0.984375   0.906250 0
  0.507812   0.703125 0
  0.742188   0.640625 0
  0.945312   0.890625 0
  0.531250   0.578125 0
  0.859375   0.734375 0
  0.867188   0.734375 0
  0.859375   0.976562 0
  0.867188   0.968750 0
  0.507812   0.820312 0
  0.742188   0.757812 0
  0.507812   0.812500 0
  0.843750   0.796875 0
  0.851562   0.804688 0
  0.843750   0.804688 0
  0.585938   0.796875 0
  0.789062   0.773438 0
  0.804688   0.648438 0
  0.789062   0.765625 0
  0.781250   0.765625 0
  0.804688   0.593750 0
  0.804688   0.671875 0
  0.796875   0.671875 0
  0.804688   0.679688 0
  0.796875   0.687500 0
  0.671875   1.000000 0
  0.679688   1.000000 0
  0.921875   0.937500 0
  0.921875   0.929688 0
  0.570312   0.945312 0
  0.562500   0.945312 0
  0.742188   0.562500 0
  0.507812   0.625000 0
  0.976562   0.507812 0
  0.734375   0.781250 0
  0.507812   0.835938 0
  0.523438   0.710938 0
  0.734375   0.773438 0
  0.507812   0.828125 0
  0.820312   0.546875 0
  0.812500   0.546875 0
  0.820312   0.750000 0
  0.515625   0.726562 0
  0.882812   0.601562 0
  0.875000   0.601562 0
  0.828125   0.945312 0
  0.625000   0.585938 0
  0.820312   0.523438 0
  0.976562   0.539062 0
  0.507812   0.867188 0
  0.523438   0.742188 0
  0.734375   0.804688 0
  0.507812   0.859375 0
  0.843750   0.851562 0
  0.828125   0.562500 0
  0.820312   0.570312 0
  0.820312   0.578125 0
  0.828125   0.578125 0
  0.781250   0.828125 0
  0.781250   0.820312 0
  0.757812   0.539062 0
  0.515625   0.757812 0
  0.828125   0.976562 0
  0.625000   0.617188 0
  0.804688   0.726562 0
  0.796875   0.726562 0
  0.804688   0.718750 0
  0.796875   0.718750 0
  0.570312   0.585938 0
  0.781250   0.648438 0
  0.523438   0.765625 0
  0.984375   0.546875 0
  0.742188   0.609375 0
  0.742188   0.617188 0
  0.507812   0.679688 0
  0.734375   0.625000 0
  0.976562   0.617188 0
  0.765625   0.554688 0
  0.773438   0.593750 0
  0.976562   0.843750 0
  0.835938   0.992188 0
  0.835938   0.984375 0
  0.828125   0.984375 0
  0.507812   0.898438 0
  0.734375   0.835938 0
  0.851562   0.882812 0
  0.843750   0.882812 0
  0.820312   0.601562 0
  0.796875   0.734375 0
  0.796875   0.843750 0
  0.781250   0.843750 0
  0.789062   0.851562 0
  0.992188   0.914062 0
  0.781250   0.851562 0
  0.523438   0.843750 0
  0.750000   0.531250 0
  0.765625   0.515625 0
  0.757812   0.515625 0
  0.523438   0.578125 0
  0.515625   0.789062 0
  0.523438   0.781250 0
  0.757812   0.718750 0
  0.960938   0.968750 0
  0.859375   0.585938 0
  0.664062   0.609375 0
  0.804688   0.750000 0
  0.796875   0.750000 0
  0.859375   0.781250 0
  0.867188   0.789062 0
  0.859375   0.789062 0
  0.750000   0.640625 0
  0.734375   0.640625 0
  0.742188   0.648438 0
  0.507812   0.710938 0
  0.968750   0.585938 0
  0.734375   0.656250 0
  0.507812   0.906250 0
  0.742188   0.843750 0
  0.828125   0.617188 0
  0.828125   0.609375 0
  0.820312   0.625000 0
  0.812500   0.625000 0
  0.585938   0.890625 0
  0.585938   0.882812 0
  0.812500   0.828125 0
  0.757812   0.593750 0
  0.992188   0.523438 0
  0.750000   0.593750 0
  0.515625   0.656250 0
  0.828125   0.718750 0
  0.828125   0.710938 0
  0.820312   0.718750 0
  0.796875   0.867188 0
  1.000000   0.921875 0
  0.789062   0.578125 0
  0.992188   0.828125 0
  0.539062   0.695312 0
  0.531250   0.687500 0
  0.570312   0.750000 0
  0.750000   0.710938 0
  0.515625   0.773438 0
  0.742188   0.718750 0
  0.515625   0.976562 0
  0.625000   0.664062 0
  0.734375   0.867188 0
  0.851562   0.914062 0
  0.859375   0.906250 0
  0.625000   0.968750 0
  0.843750   0.914062 0
  0.609375   0.976562 0
  0.843750   0.906250 0
  0.523438   0.875000 0
  0.546875   0.757812 0
  0.750000   0.562500 0
  0.515625   0.625000 0
  0.765625   0.546875 0
  0.968750   0.609375 0
  0.757812   0.546875 0
  0.523438   0.609375 0
  0.523438   0.820312 0
  0.515625   0.820312 0
  0.960938   1.000000 0
  0.523438   0.812500 0
  0.515625   0.812500 0
  0.835938   0.531250 0
  0.882812   0.695312 0
  0.882812   0.687500 0
  0.859375   0.617188 0
  0.617188   0.687500 0
  0.875000   0.992188 0
  0.664062   0.632812 0
  0.898438   0.570312 0
  0.664062   0.640625 0
  0.804688   0.781250 0
  0.796875   0.781250 0
  0.804688   0.789062 0
  0.515625   0.828125 0
  0.750000   0.765625 0
  0.523438   0.835938 0
  0.757812   0.773438 0
  0.515625   0.835938 0
  0.515625   0.843750 0
  0.859375   0.812500 0
  0.867188   0.820312 0
  0.859375   0.820312 0
  0.507812   0.937500 0
  0.742188   0.875000 0
  0.828125   0.648438 0
  0.820312   0.656250 0
  0.812500   0.656250 0
  0.585938   0.914062 0
  0.710938   0.601562 0
  0.703125   0.601562 0
  1.000000   0.562500 0
  0.757812   0.625000 0
  0.523438   0.687500 0
  0.992188   0.554688 0
  0.750000   0.625000 0
  0.515625   0.687500 0
  0.523438   0.882812 0
  0.648438   0.570312 0
  0.640625   0.570312 0
  0.882812   0.500000 0
  0.789062   0.609375 0
  0.992188   0.859375 0
  0.507812   0.843750 0
  0.742188   0.781250 0
  0.531250   0.718750 0
  0.515625   0.851562 0
  0.750000   0.789062 0
  0.539062   0.726562 0
  0.539062   0.718750 0
  0.976562   0.906250 0
  0.742188   0.500000 0
  0.507812   0.562500 0
  0.570312   0.789062 0
  0.671875   0.945312 0
  0.960938   0.929688 0
  0.546875   0.617188 0
  0.851562   0.945312 0
  0.843750   0.937500 0
  0.609375   1.000000 0
  0.570312   0.554688 0
  0.523438   0.906250 0
  0.843750   0.773438 0
  0.828125   0.890625 0
  0.820312   0.890625 0
  0.617188   1.000000 0
  0.796875   0.523438 0
  0.914062   0.781250 0
  0.687500   0.835938 0
  0.750000   0.875000 0
  0.515625   0.937500 0
  0.781250   0.742188 0
  0.992188   0.804688 0
  0.765625   0.859375 0
  0.750000   0.867188 0
  0.968750   0.921875 0
  0.757812   0.859375 0
  0.523438   0.921875 0
  0.984375   0.796875 0
  0.976562   0.703125 0
  0.804688   0.539062 0
  0.914062   0.789062 0
  0.921875   0.789062 0
  0.687500   0.843750 0
  0.804688   0.820312 0
  0.820312   0.695312 0
  0.804688   0.812500 0
  0.796875   0.812500 0
  0.750000   0.703125 0
  0.515625   0.765625 0
[...]
CELL_DATA 30592
SCALARS scalar_value float 1
LOOKUP_TABLE default
0.000636535
0.000566351
0.000565648
0.000503395
0.000408682
0.000366154
0.000408865
0.000499026
0.000443997
0.0004371
0.000363265
0.000339281
0.000307922
0.000267663
0.0132688
0.0148713
0.0151582
0.0189905
0.0200579
0.0199355
0.0169595
0.016344
0.016206
0.0160029
0.0128975
0.012679
0.0121913
0.195711
0.189461
0.182206
0.191455
0.0499663
0.0534956
0.0588549
0.0538761
0.0757732
0.076409
0.0827317
0.0621487
0.0628937
0.0565314
0.0216611
0.0194307
0.0200576
0.0173247
0.0156441
0.0161813
0.0180944
0.0202647
0.0229712
0.0261519
0.0303714
0.0343018
0.0267026
0.062018
0.0608403
0.059465
0.0547531
0.0543869
0.0523893
4.24224e-05
4.96258e-05
4.70195e-05
5.22019e-05
5.68589e-05
5.33329e-05
6.78048e-05
0.00117164
0.000455943
0.00105409
0.00100428
0.000914482
0.000902334
0.00078284
0.000304979
0.000699585
0.000817815
0.000860343
0.000774099
0.000745865
0.000669896
0.000695776
0.000619261
0.000596339
0.00051774
0.0759984
0.0689194
0.0867452
0.085362
0.0766816
0.0684441
0.0739464
0.0740289
0.0844904
0.0686589
0.0831076
0.076009
0.0739765
0.0678352
0.0933762
0.0897838
0.0975319
0.0823873
0.0635759
0.0618992
0.0679665
3.15834e-06
2.29601e-06
2.42317e-06
1.73823e-06
2.69615e-06
3.28249e-06
3.76766e-06
3.67403e-06
0.0162937
0.0147185
0.0151624
0.0181418
0.0186806
0.0207477
0.0336277
0.0325008
0.0346328
0.0305431
0.0351729
0.0336585
0.0352582
0.0275727
0.0264535
0.0281421
0.0247419
0.0268694
0.0242844
0.024067
0.0268736
0.023959
0.0236567
0.00151414
0.00143877
0.00138074
0.00146629
0.00131285
0.0013172
0.0012218
0.00137446
0.0012381
0.0011895
0.00119192
0.115502
0.120759
0.128945
0.00183201
0.001734
0.00177196
0.00118535
0.00113568
0.00109783
0.107246
0.0964097
0.0843943
0.0965975
0.00222024
0.00187244
0.00178082
0.00231034
0.00218121
0.00223366
0.118026
0.119544
0.125682
0.11267
0.00234023
0.00222312
0.00185024
0.00526932
0.00485026
0.00464003
0.00440604
0.00426291
0.00387309
0.003557
0.00407551
0.00374662
0.00361289
0.00339582
0.00369147
0.00339549
0.00323768
0.191469
0.190527
0.193575
0.183582
0.194811
0.193358
0.187271
0.00538109
0.0162071
0.00604043
0.00684427
0.00609574
0.00856257
0.0208161
0.00961847
0.00982455
0.166973
0.180165
0.171902
0.0149263
0.0135952
0.0133179
0.192083
0.196087
0.195482
0.187824
0.193439
0.186149
0.0346343
0.0287628
0.0268986
0.0268273
0.0754079
0.0757334
0.0722559
0.0807654
0.0520744
0.0453797
0.0429359
0.0865526
0.087223
0.0835291
0.0927574
0.0167151
0.0184246
0.0189061
0.022114
0.0230421
0.0236582
0.0430926
0.0410826
0.0388379
0.0426278
0.041336
0.0373696
0.0372965
0.040297
0.0380745
0.036743
0.0197049
0.0176756
0.0179894
0.0216938
0.0220241
0.0241083
4.19759e-05
4.57053e-05
4.81808e-05
0.0836838
0.0912293
0.0838791
0.0692978
0.0737823
0.0807174
0.0737532
0.0528375
0.0566117
0.0629789
0.0566438
0.00898131
0.00866902
0.0100412
0.0107126
0.0118477
0.0110934
0.0137558
0.0132857
0.0154792
3.55024e-05
4.02745e-05
4.00638e-05
4.20878e-05
0.015559
0.0160815
0.0184187
0.0142975
0.0178412
0.0207702
0.0246687
0.0147954
0.0167588
0.0189831
0.0173188
6.40023e-05
8.16122e-05
0.000111997
8.43534e-05
0.000318656
0.000489583
0.000318035
0.000113469
0.000150258
0.000153263
0.0117226
0.0113338
0.0131942
0.0251771
0.0340247
0.0295044
0.176196
0.180518
0.18784
0.17979
0.0703544
0.0739013
0.0700153
0.00129094
0.000957059
0.0008418
0.000710349
0.000541251
0.000461992
0.0202916
0.0207584
0.0229101
0.0896945
0.0920944
0.0961978
0.0952066
0.101237
0.0995171
0.0937127
0.0944694
0.0994836
0.102621
0.105802
0.104293
0.0341829
0.0310375
0.0283578
0.0290431
0.0266515
0.0240392
0.0233808
0.0211029
0.0215084
0.0191
0.0378622
0.04115
0.0343924
0.0451375
0.0198409
0.045614
0.0492426
0.0414168
3.26391e-05
3.68682e-05
4.02444e-05
3.95448e-05
4.8404e-05
5.54156e-05
4.44259e-05
4.74716e-05
5.76931e-05
5.64635e-05
0.215218
0.206808
0.205032
0.201034
0.187382
0.189919
0.18312
0.0128617
0.0144209
0.0160164
0.0149308
0.0126599
0.013979
0.0131058
0.156946
0.161583
0.155039
0.165912
0.166718
0.169768
0.162972
0.142005
0.139034
0.136419
0.0151442
0.0169054
0.0186855
0.0174528
0.0231349
0.0258361
0.0288116
0.0200409
0.0222785
0.0246259
0.0229103
6.21109e-05
4.80957e-05
3.85451e-05
0.0695909
0.0633391
0.0640351
0.0865478
0.0942295
0.0870391
0.0671704
0.0607912
0.0609509
0.161971
0.158982
0.154911
0.159199
0.10575
0.106534
0.102479
0.112615
0.0599249
0.0569618
0.0543708
0.0389728
0.041606
0.0367989
0.0665857
0.0563059
0.0610026
0.0323053
0.0289827
0.029012
0.0363488
0.0306432
0.0321906
0.206626
0.199477
0.196328
0.125391
0.121776
0.074954
0.11714
0.121858
0.000327163
0.000344764
0.000330683
0.000306937
0.000278907
0.000310811
0.000386082
0.000366496
0.000344446
0.000379006
0.0715973
0.0625798
0.0739301
0.000333698
0.000324604
0.000311763
0.000306843
0.000276218
0.000297379
0.0333007
0.0313122
0.0300007
0.0294104
0.000296234
0.000279871
0.000268337
0.000267342
0.018041
0.0167359
0.0171551
0.0122328
0.0128646
0.0138378
0.0126797
0.0133111
0.0143108
0.0150096
0.000313023
0.00142303
0.00034984
0.000433948
0.000341403
0.000600607
0.00210009
0.000664252
0.00082098
0.000641139
0.000369702
0.000409144
0.000502627
0.000397772
0.0164468
0.0153379
0.0151579
0.013154
0.0115344
0.0120493
0.0141119
0.0130987
0.0129465
0.216774
0.218525
0.204092
0.131488
0.131347
0.137024
0.0215154
0.018636
0.0177606
0.142825
0.142925
0.138411
0.148947
0.00169627
0.00251906
0.00205056
0.00353979
0.00476243
0.00416392
0.00247208
0.00291415
0.00355786
2.20942e-06
2.30658e-06
1.64018e-06
0.052995
0.0565932
0.0506919
0.00157235
0.00244776
0.00201221
0.00235739
0.00288976
0.00349412
0.00354049
0.0043152
0.00505028
0.19531
0.200672
0.199585
0.205196
1.29528e-06
1.41541e-06
1.84722e-06
0.005208
0.0061961
0.00603239
0.00716856
0.00747298
0.00869331
0.00846523
0.00992346
0.230391
0.229299
0.230497
0.228235
0.223994
0.22321
0.221552
0.22162
0.21867
0.224997
0.0713747
0.0660957
0.0633243
0.0583424
0.0527976
0.0587557
0.0566174
0.053308
0.0990219
0.107828
0.113233
0.113583
0.109316
0.119602
0.126429
0.127327
0.123067
0.133722
0.0316662
0.0253845
0.0259102
0.0234319
0.0276036
0.0237763
0.0215532
0.0201507
0.0253102
0.0237621
0.0255542
0.122461
0.118559
0.121727
0.111186
0.103708
0.107582
0.0471745
0.0425715
0.0387299
0.0392582
0.0357653
0.032423
0.0317753
0.0287806
0.0260549
0.099251
0.104306
0.112278
0.104097
0.0181629
0.0184679
0.0165336
0.0197348
0.0178234
0.0179206
0.0199721
0.0148786
0.0149421
0.0132618
0.0452577
0.0401747
0.0360791
0.058307
0.0556799
0.053984
0.000374349
0.000373702
0.000409728
0.000296617
0.000340581
0.000297112
0.000273868
0.000303362
0.000406928
0.000360244
0.000334522
0.000352656
0.000367756
0.158432
0.152808
0.156754
0.159214
0.155809
0.160102
0.162983
0.157787
0.173554
0.179167
0.168536
0.0279418
0.0230584
0.0238363
0.0190045
0.0165468
0.0157048
0.0161589
0.0269954
0.0293439
0.0285563
0.0319349
0.000238969
0.000267496
0.000252766
0.000322768
0.000409723
0.000339853
0.000265755
0.000275537
0.000296059
0.000277805
0.0671808
0.0653921
0.0665408
0.0645626
0.0590017
0.056789
0.0578504
0.000284114
0.000282205
0.000298862
0.000262894
0.0655567
0.063431
0.0642642
0.0578211
0.0517927
0.0495059
0.0431281
0.231772
0.23462
0.232337
0.0279976
0.0295721
0.0321853
0.0338113
0.0359908
0.0310415
0.0369945
0.0391721
0.0424426
0.0390714
0.0311498
0.0334487
0.0345287
0.000444146
0.000430287
0.000464596
0.000364717
0.000481451
0.000463448
0.000492047
0.000393512
0.000308812
0.000324921
0.000287132
0.00334919
0.00429951
0.0039159
0.00542771
0.00610521
0.00632723
0.00457125
0.00517458
0.00584906
0.00532861
0.178464
0.183955
0.171152
0.163586
0.169711
0.155304
0.150728
0.157045
0.141934
0.0341132
0.0359581
0.038919
0.0354479
0.0345843
0.0373913
0.0377965
0.0394086
0.0374126
0.0405317
0.0410224
0.0427835
0.0168683
0.0155536
0.0159361
0.000347409
0.000339452
0.000348593
0.000317016
0.188936
0.191584
0.196698
0.188489
0.000141436
0.000131923
0.000121886
0.000116764
0.000125285
0.000134654
0.0001057
9.83617e-05
0.000114131
0.000144127
0.000140859
0.000131697
0.000151133
0.194153
0.191344
0.188648
0.189031
3.11662e-06
4.41189e-06
6.56609e-06
4.57836e-06
8.8175e-06
1.11816e-05
1.22032e-05
1.51255e-05
2.02429e-05
1.5295e-05
6.3145e-06
8.16767e-06
1.13643e-05
8.34445e-06
0.170059
0.166191
0.165934
0.0570457
0.064872
0.0645451
0.0842246
0.0906397
0.0893534
0.000621007
0.000581975
0.000539969
0.00043651
0.000389445
0.000404079
0.194843
0.228018
0.225468
0.221341
0.224997
0.00310842
0.00392819
0.00391164
0.00514332
0.00678777
0.00633246
0.0484684
0.0485169
0.0471354
0.0493445
0.0483313
0.0506965
0.000365815
0.000357956
0.00037865
0.0424413
0.0388656
0.0430185
0.0515274
0.0498001
0.051784
0.0273103
0.0137135
0.0133962
0.0117037
0.0140746
0.011416
0.0119723
0.0116722
0.00971435
0.0101955
0.157526
0.157128
0.154515
0.0151485
0.0146803
0.013294
0.0148799
0.184826
0.184366
0.188534
0.176706
0.142968
0.148661
0.141249
0.125975
0.127082
0.132248
0.125076
0.0861797
0.0900168
0.0964669
0.0895584
0.0220777
0.0210545
0.022392
0.100058
0.102455
0.0930283
0.0923799
0.0954406
0.101479
0.0342255
0.0387315
0.0447458
0.00212282
0.00184442
0.00166389
0.00188756
0.00124783
0.00101195
0.000898223
0.00100881
0.00014953
0.000143565
0.000165277
0.000130063
0.000188786
0.000184358
0.000221385
0.000165898
0.000113146
0.0001094
0.000126845
0.0631603
0.0693127
0.0636028
0.0741926
0.0746935
0.0797366
0.06852
0.0732114
0.0735686
0.0807385
0.0832847
0.0882723
0.0825669
0.00205441
0.00180217
0.0016205
0.00163385
0.00141612
0.00145914
0.00142006
0.00136059
0.00123075
0.00122792
0.00109619
0.00107377
0.000895104
0.11831
0.114816
0.110383
0.114755
0.00878177
0.0098071
0.00978722
0.0140203
0.0151567
0.0149941
0.126382
0.122339
0.122613
0.000523716
0.000492647
0.000513823
0.00046232
0.000427238
0.000481168
0.0447482
0.0468995
0.0453641
0.049684
0.0472175
0.0454538
0.0449821
0.000458561
0.000412265
0.000402851
0.142097
0.146787
0.154633
0.0965577
0.0967168
0.102051
0.104537
0.110058
0.118332
0.110134
0.0890695
0.0942034
0.102102
0.0942157
0.132366
0.128756
0.124085
0.0768078
0.128896
0.238789
0.237497
0.237219
0.0548359
0.0497241
0.0465252
0.0484903
0.0239321
0.0229832
0.0194671
0.0172003
0.0170375
0.0157041
0.0336702
0.012416
0.0392262
0.0388422
0.0443157
0.14431
0.137041
0.133097
0.12243
0.12559
0.132284
0.186588
0.00844224
0.191201
0.141092
0.207497
0.207339
0.211635
0.202545
0.195695
0.198702
0.189016
0.18099
0.189454
0.188499
0.185877
0.181637
0.186131
0.130123
0.134557
0.140776
0.134134
0.000146928
0.000157319
0.000169158
0.000162517
0.0099921
0.0145433
0.0106011
0.0106202
0.0111167
0.015162
0.0162291
0.0167561
0.000248728
0.000320866
0.000267841
0.000209429
0.00022019
0.000236098
0.00022448
0.027404
0.0340533
0.0313086
0.0349633
0.0306702
0.0789913
0.0864802
0.0789382
0.220038
0.219057
0.223891
0.211299
6.77374e-06
0.00149053
0.147144
0.0001402
0.000165926
0.000147074
0.000156377
0.0139647
0.00229665
0.00273906
0.0666224
0.124376
0.0761929
0.000372839
0.0825102
0.000870133
0.000954321
0.0504114
0.00083979
0.0017245
0.00192716
0.171129
0.00134911
0.109006
0.00256264
0.00288372
0.184654
0.00199011
0.115556
0.000148263
0.000108356
0.000138433
0.146022
0.000745521
0.00377282
0.137663
0.192379
0.000910743
0.000696152
0.0551286
0.0455946
0.057916
0.000658032
0.00054342
0.0015859
0.00118988
0.000172963
0.00107393
0.0993432
0.112478
0.00164112
0.107314
0.0014402
0.000192587
0.00110644
0.157971
0.0267165
3.97726e-05
0.0219234
0.000139725
0.0181548
0.000235096
0.0599795
0.088806
0.0179246
0.000252087
0.0173689
0.0197246
0.0631479
6.27476e-05
0.0629878
0.000265665
0.0674302
0.105096
0.000399045
0.00117887
0.0004494
0.000388175
0.0224279
0.000455006
0.0213476
0.000235761
0.0674332
0.0966914
0.0612457
0.0131573
7.24287e-06
0.015058
0.01192
0.0306635
5.43147e-06
0.0134774
5.08873e-07
0.113744
0.113444
0.00907878
0.00419093
7.93709e-07
0.00430641
0.0154001
0.00518327
0.0675495
6.01569e-07
0.00363746
9.68646e-07
0.000178263
0.000193965
0.00121639
0.13731
0.035478
0.0695109
0.0285713
0.00018807
0.00021276
0.0230735
0.0207012
0.0199186
0.00219579
0.00611095
0.10652
0.00818876
0.0359107
0.000554965
0.0647265
0.000527696
0.000550095
0.0657479
0.0570318
0.0595862
0.233457
0.211976
0.0165068
0.217228
0.017109
0.219373
0.185847
0.0103919
0.0118675
0.0123188
0.0260614
0.0801805
0.0837121
0.0720032
0.000328868
8.5406e-05
0.130778
0.00529237
0.0168547
0.00554461
0.00648953
0.141459
0.0048708
0.112225
0.00019913
0.000183702
0.000210004
0.117253
0.121624
0.235474
0.000239585
0.00179553
0.0038897
0.141388
0.00350365
0.0757732
0.000297429
0.000685498
0.0724757
0.000245545
0.000234465
0.0280281
0.000225783
0.0256345
0.0116561
0.15141
0.0131889
0.183103
0.147137
0.000235209
0.000231028
0.0252862
0.0222022
0.150986
0.154953
0.00449317
0.160624
0.161326
0.00535448
0.0136775
0.164432
0.012918
0.0175375
0.163784
0.159412
0.000245871
0.000241449
0.163399
0.000221461
0.219291
0.217461
0.0102793
0.0163777
0.213849
0.208217
0.010545
0.0228799
0.176631
0.172399
0.000227673
0.000213526
0.182451
0.0238811
0.00020081
0.176069
0.000208522
0.0231964
0.0216786
0.135802
0.0583418
0.131483
0.0200547
0.000579774
0.0244005
0.0412097
1.19433e-05
0.0372459
1.03229e-05
7.32244e-05
0.0801733
0.0372129
0.107586
0.114469
0.000261405
0.117681
0.00140862
0.044303
0.0727627
0.00121982
0.077705
1.87023e-07
0.0783269
0.00194381
0.00945292
0.0812813
0.0630025
0.00159405
2.63244e-07
2.88555e-05
0.0455311
0.0329708
0.0218692
0.0541208
0.102958
0.132353
0.140883
0.00440096
0.000635844
0.146287
0.00487164
0.00349081
0.117659
0.118135
0.000320534
0.00339079
0.111134
0.00294683
0.000271634
0.0293638
0.000264481
0.0284273
0.0312625
0.073414
0.0662254
0.0181213
1.46655e-05
0.020192
0.0453531
0.0165621
0.0997736
0.0968269
0.000756585
0.17332
0.1705
0.00363787
0.0215208
0.000215697
0.0384231
0.0404394
2.87865e-05
3.25736e-05
0.0513316
0.171653
0.00223392
0.0107428
2.22296e-05
1.80935e-07
0.0362446
3.31613e-05
3.84026e-05
3.03159e-05
0.0474008
0.000205643
1.32526e-07
2.51347e-05
0.0114493
0.0400091
0.0340681
0.000195905
0.0191751
0.00018556
0.0183089
0.000193933
0.000343522
0.123819
0.0651509
0.0709189
0.000479478
0.0703145
0.00337896
0.13228
5.71541e-06
0.0280557
0.0108891
7.96046e-06
0.00470849
1.00077e-05
0.0343702
0.00418285
0.00409096
0.155988
0.00373328
0.0270712
8.17997e-07
1.13842e-06
0.0183143
1.64102e-06
0.00691853
1.21308e-06
0.00602413
0.16584
0.020026
0.170167
0.00836908
0.0166013
0.0139238
7.44091e-07
5.27899e-07
0.0177632
0.0256902
0.0240165
0.0230748
0.0151704
0.0140488
0.0128508
0.0170137
0.0110865
0.169911
0.182368
0.011
0.186245
0.167814
0.0100657
0.0209176
0.00946828
0.00943522
0.168087
0.184332
0.00725867
0.0513422
0.000233749
0.0552655
3.8558e-05
0.0136602
0.164699
0.004079
0.159845
0.00617848
0.00332534
0.00777891
0.00668813
0.165429
0.0864783
0.0931094
0.000135074
0.000671675
0.0935553
0.0970685
0.000750034
0.165492
0.163181
0.167627
0.00641295
0.00696471
0.235539
0.121925
0.179702
0.0211501
0.18375
0.00944384
0.18931
0.0204366
0.183082
0.207005
0.0314846
0.000136823
0.0326649
2.48059e-05
0.000111261
0.00126277
0.00199412
0.133639
0.00210482
0.0019959
0.133775
0.136325
0.00356253
3.21741e-07
0.00498725
0.0488069
0.00425772
1.37908e-05
1.59387e-05
0.0383138
0.00231597
0.139949
1.75847e-05
0.0143421
0.00601927
0.0174685
0.145226
0.0163448
0.149249
1.08471e-05
0.00479626
0.0068731
0.0331691
0.000323473
0.00299618
0.0345934
5.98157e-05
0.0532664
0.00633562
0.0735331
0.171648
0.0722098
0.0538319
2.32091e-05
0.0578049
0.0022737
0.142848
0.00209556
0.134533
0.0547321
0.00379072
0.00404421
0.00477349
0.204913
0.0134813
0.205625
0.0979664
0.00323208
0.00388158
0.102855
0.123974
0.101927
0.00182375
0.107116
0.00411315
0.00231674
0.00447218
0.00712262
0.112027
0.138018
0.11177
0.00217694
0.11649
0.00239285
8.64144e-06
0.0433939
0.0202852
0.0321691
0.00562309
0.201036
0.0154659
0.01799
0.00998786
0.174316
0.00392819
0.124604
0.0611071
0.000392211
0.0563101
0.000536193
0.000341645
0.00417753
0.157455
0.0672632
5.27605e-05
0.0717354
0.116908
0.0606492
0.000264563
0.0169919
0.017375
0.0166024
0.000260027
0.0187749
0.0711597
0.000251507
0.000279553
0.0740079
0.111133
0.0679928
0.0508333
0.0426291
0.10175
0.017596
0.0242096
3.25972e-05
3.0322e-06
0.106336
0.102182
0.195609
0.00682559
0.0971315
0.118989
0.105461
0.0039647
0.00469957
0.0872909
0.00823394
0.0044192
0.088552
0.00856057
9.22354e-07
0.00743719
0.10185
0.0043599
0.0960684
0.114729
0.09348
0.0115474
0.0138169
0.0549558
7.84165e-05
8.75105e-05
0.0285138
0.0211494
0.00523762
0.00816018
9.66402e-05
0.00685733
0.239114
0.238559
0.238847
0.0589127
0.00667487
0.00591897
0.234646
0.236606
0.236328
0.0504204
0.237918
0.223113
0.0709529
0.0123923
0.0461301
0.0134401
0.223762
0.0393563
0.0108262
0.217297
0.133364
0.131412
0.133818
0.00148217
0.135685
0.00790919
0.00810565
0.00922714
0.0472868
0.000146892
0.00694457
0.0694315
0.161434
0.0117066
0.230224
0.177318
0.221683
0.184544
0.00344832
0.177639
0.00260092
1.31112e-05
6.45414e-08
0.00830888
0.0121697
0.149105
0.00686856
0.000981969
0.00811937
0.0223475
0.00617623
0.142369
0.15749
0.00137204
0.0462445
0.00130771
0.00153816
0.00180231
0.0146639
0.196067
0.205866
0.0160261
0.117713
0.0514972
0.207852
0.201391
0.0429961
0.000789177
0.0392605
0.0405463
0.227337
0.207787
0.0154424
0.198942
0.00329134
0.138349
0.00236332
0.178132
0.00309996
0.185836
0.134002
0.0412646
0.00253652
0.00300329
0.00235694
0.0628545
0.000207989
0.0636268
0.238613
0.0671599
0.0992782
0.0610559
0.000171741
0.0243542
0.0280759
0.0224587
4.04893e-05
0.0050114
0.161922
0.169256
0.00433429
0.00827189
0.170556
0.00521492
0.00423098
0.0933202
0.0516999
0.0264651
0.0124389
0.17767
0.218894
0.0473601
0.0710253
0.0414154
3.23051e-05
0.0496177
0.0380156
0.000632274
0.00146508
0.000506837
0.0833059
0.000282158
0.0349246
0.126932
0.15215
0.00786747
0.158417
0.0349968
0.0355079
4.87916e-05
5.82124e-05
0.077094
0.000488146
0.0655996
0.000184533
0.0254879
0.000344632
0.00300612
0.0173428
0.197064
2.95578e-05
0.0588207
0.0265448
0.00013622
0.0265798
0.0267578
3.0132e-05
4.42037e-06
0.0289528
3.68614e-05
0.0242649
1.28389e-07
1.6543e-05
0.000942082
5.85845e-06
0.0290696
4.65128e-05
5.66342e-05
0.000179503
0.0303214
0.0579396
2.8952e-05
0.0263951
0.0581284
0.00584378
3.75158e-05
2.16246e-05
2.66913e-05
0.000276127
0.0363231
0.0508652
0.000538594
2.45628e-05
0.0239879
2.92777e-05
0.0252557
0.0549501
3.0305e-05
0.025087
0.0800772
0.00011203
0.00660351
0.0975361
0.0781478
8.97256e-05
0.00587388
0.0179915
0.155367
0.0194349
1.39767e-05
0.00139256
1.31466e-05
0.0399763
1.26175e-05
0.0358167
0.0274336
3.54248e-05
0.0239742
0.168869
2.86931e-05
0.0568043
0.0259039
2.94207e-05
0.0258344
2.36743e-05
0.051237
0.0055865
1.89952e-05
0.000146336
0.0477364
1.97494e-05
2.30875e-05
0.0528421
1.89927e-05
0.00465314
0.00471469
0.109781
0.00255319
0.101801
0.000169766
0.0952424
0.000133963
0.102969
0.000181292
0.102391
0.0401578
0.166376
0.141246
0.00884285
0.040295
0.159797
0.0069549
0.0184098
0.0455081
0.00937497
0.000404195
0.124989
0.000402474
0.0640562
0.00881698
0.175934
0.000501532
0.068771
0.131632
0.0634701
0.174983
0.00369885
0.0583327
0.0112543
0.173348
0.00140373
0.161482
0.0937111
0.00116371
0.0879854
0.00994442
0.146787
0.000851102
0.0060866
0.0116962
0.00118315
0.155501
0.000686231
0.0873826
0.0805884
0.000968103
0.00069266
7.96087e-05
0.0817576
0.0378587
0.0747196
0.000700629
0.0753348
6.11222e-05
0.0696216
0.00056269
4.86323e-05
0.0749195
0.000801708
0.0756154
6.2808e-05
0.0810992
0.149674
0.00423192
0.000823587
0.00455307
0.153447
0.190895
0.160587
0.00122937
0.152459
0.000920005
0.171495
0.00179054
0.163081
0.00132826
0.0067825
0.163762
0.207156
0.172032
0.175187
0.0141712
0.172591
0.0130526
0.00379172
0.00417916
0.0172655
0.220582
0.220459
0.0166336
0.213976
0.0166075
0.213079
0.00770216
0.0163467
0.15606
0.00582384
0.0122119
0.162884
0.151772
0.00675253
0.126644
0.148703
0.00525223
0.0146089
0.000166561
2.11844e-06
0.137432
0.000547685
0.0125476
7.4812e-06
0.00416188
0.0140303
0.0128855
3.56118e-07
0.00172428
0.232381
0.00676825
0.00777555
0.00736278
0.121203
0.0045787