# vtk DataFile Version 2.0
Unstructured Grid by M++
ASCII
DATASET UNSTRUCTURED_GRID
POINTS 15808 float
  0.718750   0.625000 0
  0.718750   0.953125 0
  0.960938   0.882812 0
  0.734375   0.937500 0
  0.953125   0.882812 0
  0.726562   0.937500 0
  0.953125   0.875000 0
  0.507812   0.593750 0
  0.742188   0.531250 0
  0.945312   0.781250 0
  0.750000   0.726562 0
  0.960938   0.578125 0
  0.718750   0.640625 0
  0.726562   0.648438 0
  0.718750   0.648438 0
  0.789062   0.601562 0
  0.671875   0.914062 0
  0.765625   0.523438 0
  0.960938   0.804688 0
  0.734375   0.859375 0
  0.718750   0.867188 0
  0.726562   0.859375 0
  0.953125   0.796875 0
  0.515625   0.507812 0
  0.507812   0.515625 0
  0.945312   0.703125 0
  0.515625   0.531250 0
  0.515625   0.539062 0
  0.507812   0.546875 0
  0.945312   0.734375 0
  1.000000   0.671875 0
  0.765625   0.726562 0
  0.757812   0.734375 0
  0.750000   0.734375 0
  0.515625   0.796875 0
  0.515625   1.000000 0
  0.750000   0.937500 0
  0.523438   0.992188 0
  0.640625   0.679688 0
  0.523438   0.507812 0
  0.742188   0.632812 0
  0.867188   0.515625 0
  0.671875   0.851562 0
  0.789062   0.796875 0
  0.781250   0.796875 0
  0.789062   0.804688 0
  0.742188   0.671875 0
  0.507812   0.734375 0
  0.968750   0.617188 0
  0.734375   0.687500 0
  0.664062   0.648438 0
  0.578125   0.960938 0
  0.781250   0.531250 0
  0.773438   0.531250 0
  0.546875   0.789062 0
  0.750000   0.585938 0
  0.835938   0.562500 0
  0.812500   0.601562 0
  0.578125   0.867188 0
  0.804688   0.757812 0
  0.507812   0.992188 0
  0.742188   0.929688 0
  0.851562   0.976562 0
  0.851562   0.968750 0
  0.632812   0.617188 0
  0.789062   0.945312 0
  0.789062   0.937500 0
  0.781250   0.937500 0
  0.804688   0.531250 0
  0.640625   0.617188 0
  0.812500   0.929688 0
  0.804688   0.835938 0
  0.796875   0.835938 0
  0.773438   0.554688 0
  0.859375   0.867188 0
  0.835938   0.585938 0
  0.843750   0.593750 0
  0.812500   0.632812 0
  0.578125   0.898438 0
  0.570312   0.898438 0
  0.695312   0.585938 0
  0.984375   0.570312 0
  0.773438   0.507812 0
  0.789062   0.687500 0
  0.546875   0.960938 0
  0.867188   0.671875 0
  0.875000   0.664062 0
  0.875000   0.656250 0
  0.882812   0.585938 0
  0.796875   0.859375 0
  0.804688   0.867188 0
  0.867188   0.898438 0
  0.859375   0.898438 0
  0.625000   0.960938 0
  0.835938   0.617188 0
  0.812500   0.960938 0
  0.804688   0.585938 0
  0.804688   0.609375 0
  0.804688   0.617188 0
  0.921875   0.875000 0
  0.687500   0.929688 0
  0.914062   0.875000 0
  0.507812   0.765625 0
  0.742188   0.703125 0
  0.945312   0.953125 0
  0.835938   0.875000 0
  0.625000   0.523438 0
  0.867188   0.960938 0
  0.859375   0.960938 0
  0.835938   0.703125 0
  0.804688   0.640625 0
  0.804688   0.851562 0
  0.578125   0.906250 0
  0.953125   0.593750 0
  0.507812   0.796875 0
  0.945312   0.984375 0
  0.992188   0.718750 0
  0.828125   0.921875 0
  0.835938   0.906250 0
  0.601562   0.968750 0
  0.625000   0.554688 0
  0.585938   0.820312 0
  0.578125   0.820312 0
  0.820312   0.828125 0
  0.820312   0.835938 0
  0.835938   0.710938 0
  0.796875   0.757812 0
  0.554688   0.820312 0
  0.773438   0.664062 0
  0.546875   0.929688 0
  0.507812   0.695312 0
  0.820312   0.609375 0
  0.734375   1.000000 0
  0.976562   0.929688 0
  0.742188   0.984375 0
  0.507812   0.726562 0
  0.531250   0.601562 0
  0.945312   0.914062 0
  0.750000   0.539062 0
  0.515625   0.601562 0
  0.507812   0.804688 0
  0.789062   0.710938 0
  0.781250   0.710938 0
  0.781250   0.703125 0
  0.515625   0.703125 0
  0.523438   0.703125 0
  0.960938   0.890625 0
  0.867188   0.937500 0
  0.632812   1.000000 0
  0.984375   0.515625 0
  0.750000   0.570312 0
  0.515625   0.632812 0
  0.742188   0.578125 0
  0.851562   0.773438 0
  0.843750   0.765625 0
  0.789062   0.742188 0
  0.789062   0.734375 0
  0.781250   0.734375 0
  0.523438   0.734375 0
  0.750000   0.984375 0
  0.984375   0.906250 0
  0.507812   0.703125 0
  0.742188   0.640625 0
  0.945312   0.890625 0
  0.531250   0.578125 0
  0.859375   0.734375 0
  0.867188   0.734375 0
  0.859375   0.976562 0
  0.867188   0.968750 0
  0.507812   0.820312 0
  0.742188   0.757812 0
  0.507812   0.812500 0
  0.843750   0.796875 0
  0.851562   0.804688 0
  0.843750   0.804688 0
  0.585938   0.796875 0
  0.789062   0.773438 0
  0.804688   0.648438 0
  0.789062   0.765625 0
  0.781250   0.765625 0
  0.804688   0.593750 0
  0.804688   0.671875 0
  0.796875   0.671875 0
  0.804688   0.679688 0
  0.796875   0.687500 0
  0.671875   1.000000 0
  0.679688   1.000000 0
  0.921875   0.937500 0
  0.921875   0.929688 0
  0.570312   0.945312 0
  0.562500   0.945312 0
  0.742188   0.562500 0
  0.507812   0.625000 0
  0.976562   0.507812 0
  0.734375   0.781250 0
  0.507812   0.835938 0
  0.523438   0.710938 0
  0.734375   0.773438 0
  0.507812   0.828125 0
  0.820312   0.546875 0
  0.812500   0.546875 0
  0.820312   0.750000 0
  0.515625   0.726562 0
  0.882812   0.601562 0
  0.875000   0.601562 0
  0.828125   0.945312 0
  0.625000   0.585938 0
  0.820312   0.523438 0
  0.976562   0.539062 0
  0.507812   0.867188 0
  0.523438   0.742188 0
  0.734375   0.804688 0
  0.507812   0.859375 0
  0.843750   0.851562 0
  0.828125   0.562500 0
  0.820312   0.570312 0
  0.820312   0.578125 0
  0.828125   0.578125 0
  0.781250   0.828125 0
  0.781250   0.820312 0
  0.757812   0.539062 0
  0.515625   0.757812 0
  0.828125   0.976562 0
  0.625000   0.617188 0
  0.804688   0.726562 0
  0.796875   0.726562 0
  0.804688   0.718750 0
  0.796875   0.718750 0
  0.570312   0.585938 0
  0.781250   0.648438 0
  0.523438   0.765625 0
  0.984375   0.546875 0
  0.742188   0.609375 0
  0.742188   0.617188 0
  0.507812   0.679688 0
  0.734375   0.625000 0
  0.976562   0.617188 0
  0.765625   0.554688 0
  0.773438   0.593750 0
  0.976562   0.843750 0
  0.835938   0.992188 0
  0.835938   0.984375 0
  0.828125   0.984375 0
  0.507812   0.898438 0
  0.734375   0.835938 0
  0.851562   0.882812 0
  0.843750   0.882812 0
  0.820312   0.601562 0
  0.796875   0.734375 0
  0.796875   0.843750 0
  0.781250   0.843750 0
  0.789062   0.851562 0
  0.992188   0.914062 0
  0.781250   0.851562 0
  0.523438   0.843750 0
  0.750000   0.531250 0
  0.765625   0.515625 0
  0.757812   0.515625 0
  0.523438   0.578125 0
  0.515625   0.789062 0
  0.523438   0.781250 0
  0.757812   0.718750 0
  0.960938   0.968750 0
  0.859375   0.585938 0
  0.664062   0.609375 0
  0.804688   0.750000 0
  0.796875   0.750000 0
  0.859375   0.781250 0
  0.867188   0.789062 0
  0.859375   0.789062 0
  0.750000   0.640625 0
  0.734375   0.640625 0
  0.742188   0.648438 0
  0.507812   0.710938 0
  0.968750   0.585938 0
  0.734375   0.656250 0
  0.507812   0.906250 0
  0.742188   0.843750 0
  0.828125   0.617188 0
  0.828125   0.609375 0
  0.820312   0.625000 0
  0.812500   0.625000 0
  0.585938   0.890625 0
  0.585938   0.882812 0
  0.812500   0.828125 0
  0.757812   0.593750 0
  0.992188   0.523438 0
  0.750000   0.593750 0
  0.515625   0.656250 0
  0.828125   0.718750 0
  0.828125   0.710938 0
  0.820312   0.718750 0
  0.796875   0.867188 0
  1.000000   0.921875 0
  0.789062   0.578125 0
  0.992188   0.828125 0
  0.539062   0.695312 0
  0.531250   0.687500 0
  0.570312   0.750000 0
  0.750000   0.710938 0
  0.515625   0.773438 0
  0.742188   0.718750 0
  0.515625   0.976562 0
  0.625000   0.664062 0
  0.734375   0.867188 0
  0.851562   0.914062 0
  0.859375   0.906250 0
  0.625000   0.968750 0
  0.843750   0.914062 0
  0.609375   0.976562 0
  0.843750   0.906250 0
  0.523438   0.875000 0
  0.546875   0.757812 0
  0.750000   0.562500 0
  0.515625   0.625000 0
  0.765625   0.546875 0
  0.968750   0.609375 0
  0.757812   0.546875 0
  0.523438   0.609375 0
  0.523438   0.820312 0
  0.515625   0.820312 0
  0.960938   1.000000 0
  0.523438   0.812500 0
  0.515625   0.812500 0
  0.835938   0.531250 0
  0.882812   0.695312 0
  0.882812   0.687500 0
  0.859375   0.617188 0
  0.617188   0.687500 0
  0.875000   0.992188 0
  0.664062   0.632812 0
  0.898438   0.570312 0
  0.664062   0.640625 0
  0.804688   0.781250 0
  0.796875   0.781250 0
  0.804688   0.789062 0
  0.515625   0.828125 0
  0.750000   0.765625 0
  0.523438   0.835938 0
  0.757812   0.773438 0
  0.515625   0.835938 0
  0.515625   0.843750 0
  0.859375   0.812500 0
  0.867188   0.820312 0
  0.859375   0.820312 0
  0.507812   0.937500 0
  0.742188   0.875000 0
  0.828125   0.648438 0
  0.820312   0.656250 0
  0.812500   0.656250 0
  0.585938   0.914062 0
  0.710938   0.601562 0
  0.703125   0.601562 0
  1.000000   0.562500 0
  0.757812   0.625000 0
  0.523438   0.687500 0
  0.992188   0.554688 0
  0.750000   0.625000 0
  0.515625   0.687500 0
  0.523438   0.882812 0
  0.648438   0.570312 0
  0.640625   0.570312 0
  0.882812   0.500000 0
  0.789062   0.609375 0
  0.992188   0.859375 0
  0.507812   0.843750 0
  0.742188   0.781250 0
  0.531250   0.718750 0
  0.515625   0.851562 0
  0.750000   0.789062 0
  0.539062   0.726562 0
  0.539062   0.718750 0
  0.976562   0.906250 0
  0.742188   0.500000 0
  0.507812   0.562500 0
  0.570312   0.789062 0
  0.671875   0.945312 0
  0.960938   0.929688 0
  0.546875   0.617188 0
  0.851562   0.945312 0
  0.843750   0.937500 0
  0.609375   1.000000 0
  0.570312   0.554688 0
  0.523438   0.906250 0
  0.843750   0.773438 0
  0.828125   0.890625 0
  0.820312   0.890625 0
  0.617188   1.000000 0
  0.796875   0.523438 0
  0.914062   0.781250 0
  0.687500   0.835938 0
  0.750000   0.875000 0
  0.515625   0.937500 0
  0.781250   0.742188 0
  0.992188   0.804688 0
  0.765625   0.859375 0
  0.750000   0.867188 0
  0.968750   0.921875 0
  0.757812   0.859375 0
  0.523438   0.921875 0
  0.984375   0.796875 0
  0.976562   0.703125 0
  0.804688   0.539062 0
  0.914062   0.789062 0
  0.921875   0.789062 0
  0.687500   0.843750 0
  0.804688   0.820312 0
  0.820312   0.695312 0
  0.804688   0.812500 0
  0.796875   0.812500 0
  0.750000   0.703125 0
  0.515625   0.765625 0
[...]
CELL_DATA 30592
SCALARS scalar_value float 1
LOOKUP_TABLE default
0.00316833
0.00294193
0.00308126
0.00286348
0.00233011
0.00216643
0.00220621
0.00298298
0.00277292
0.00287378
0.00227303
0.00177906
0.0016613
0.00135954
0.00279809
0.00333677
0.0034906
0.00468117
0.00512541
0.00514433
0.00495028
0.0047723
0.00481756
0.00457199
0.00360592
0.00361342
0.00332705
0.176623
0.18146
0.186932
0.179574
0.0118708
0.0131305
0.0146302
0.0134929
0.0136039
0.0138506
0.0155521
0.0104303
0.0106353
0.00908987
0.00226548
0.0019374
0.00202019
0.00165281
0.00143804
0.00150397
0.0017502
0.00208861
0.00249735
0.00302349
0.00372669
0.00443169
0.0030835
0.171506
0.174245
0.169295
0.147999
0.15206
0.145816
2.21389e-06
2.67512e-06
2.59311e-06
3.11269e-06
3.52502e-06
3.04621e-06
5.10264e-06
0.00658275
0.00237439
0.00621722
0.00627552
0.00545932
0.0059123
0.00518774
0.00176023
0.00486439
0.0051291
0.00595131
0.0055939
0.00561556
0.00490606
0.00443764
0.0041481
0.00421137
0.00353027
0.194814
0.191798
0.198294
0.198042
0.195001
0.191464
0.19845
0.198721
0.203119
0.196157
0.203187
0.20041
0.200035
0.196061
0.206925
0.206654
0.209321
0.204189
0.193586
0.192927
0.197
1.90019e-07
1.38022e-07
1.4892e-07
1.01609e-07
1.83036e-07
2.29993e-07
2.64656e-07
2.63828e-07
0.00153527
0.00135506
0.00141491
0.0017711
0.00184751
0.00212935
0.0714613
0.0728683
0.077799
0.07138
0.0839234
0.0849514
0.0897643
0.0709535
0.0719245
0.0766916
0.070187
0.0875604
0.0856321
0.0810325
0.0774554
0.0761388
0.0709398
0.00179767
0.00169679
0.00165382
0.00163717
0.00155492
0.00147866
0.00133485
0.00149891
0.00122107
0.00121153
0.00109432
0.0346087
0.0380403
0.0424486
0.00140048
0.00138036
0.00127678
0.000790975
0.00078253
0.00069571
0.201799
0.20033
0.197443
0.200617
0.00141662
0.00119041
0.00117243
0.00155093
0.00152287
0.00165165
0.0232145
0.0239715
0.0258441
0.0225263
0.0013299
0.00130666
0.00108515
0.0229375
0.021987
0.0223447
0.0196964
0.0213704
0.0191747
0.0183247
0.0216277
0.0206353
0.020788
0.0185424
0.016898
0.0161801
0.0164342
0.082134
0.0835518
0.0886803
0.0787127
0.0954607
0.0969323
0.0916593
0.000938502
0.00371581
0.00108423
0.00121535
0.00112628
0.00157794
0.00533426
0.00186001
0.00195829
0.0569994
0.0654082
0.0622995
0.00453223
0.00414388
0.00414534
0.0737825
0.0784025
0.0799947
0.098428
0.10391
0.0996899
0.0202504
0.0168021
0.0158938
0.0151462
0.00920844
0.00919261
0.00856984
0.0100836
0.0287874
0.0264345
0.0259692
0.011107
0.0112028
0.0104928
0.0122971
0.00320719
0.00380193
0.00409067
0.00488473
0.00532802
0.00535221
0.0906478
0.0856481
0.0842215
0.0841119
0.0919817
0.0914798
0.0855053
0.0791005
0.0777905
0.0792592
0.00223726
0.00198643
0.00206592
0.00254768
0.00264014
0.0029901
2.16742e-06
2.36702e-06
2.53863e-06
0.0192073
0.0219043
0.0195331
0.0183499
0.0204719
0.0230616
0.0208962
0.0109519
0.0121838
0.0138531
0.0124451
0.000703737
0.000673439
0.000808243
0.000875626
0.00099718
0.000915557
0.00121609
0.00116244
0.00142946
1.78269e-06
2.03194e-06
2.01532e-06
2.13541e-06
0.00146912
0.00153279
0.00186113
0.00129215
0.0018004
0.00223662
0.0028623
0.00135095
0.00160959
0.00193308
0.001679
5.76715e-06
8.52655e-06
1.32946e-05
9.13695e-06
5.01834e-05
8.03305e-05
5.09211e-05
1.43908e-05
2.12081e-05
2.21287e-05
0.00098625
0.000942366
0.00116539
0.00290667
0.00442487
0.00361815
0.0678968
0.0726041
0.0772224
0.0737795
0.0284118
0.0294965
0.0294974
0.000427013
0.000320535
0.000265359
0.000239168
0.000178021
0.000144923
0.00214365
0.00222786
0.00254647
0.144446
0.135727
0.142894
0.132815
0.130328
0.139997
0.12648
0.116896
0.123831
0.140786
0.137525
0.130936
0.00438589
0.00386416
0.00339891
0.00364354
0.00334652
0.00286099
0.00264109
0.00234073
0.00242841
0.00204815
0.00512614
0.0058036
0.00451563
0.00672136
0.00235746
0.00688319
0.00774551
0.00605401
4.78089e-06
5.72314e-06
6.45487e-06
6.36132e-06
8.53589e-06
1.04566e-05
7.57693e-06
8.39035e-06
1.11816e-05
1.09648e-05
0.158223
0.166645
0.168625
0.171641
0.183374
0.181465
0.186494
0.00110947
0.00129235
0.00149411
0.00135221
0.0010905
0.00123797
0.00114172
0.156712
0.162458
0.167246
0.167641
0.172949
0.172228
0.176942
0.136955
0.13701
0.14157
0.00138079
0.00159839
0.00182745
0.0016699
0.00246304
0.00288198
0.00338301
0.00201647
0.00233288
0.00267937
0.00242781
8.38072e-06
6.16301e-06
4.38482e-06
0.0126937
0.010994
0.0112224
0.0188328
0.0215117
0.0191633
0.0134749
0.0117657
0.0119977
0.187609
0.188353
0.191015
0.184774
0.0151397
0.015281
0.0143624
0.016711
0.0872391
0.0821514
0.0813884
0.0724114
0.0774074
0.0711997
0.19148
0.187328
0.188372
0.0501007
0.0453536
0.0434019
0.0476748
0.0422406
0.040971
0.160686
0.168335
0.172524
0.192355
0.192
0.19436
0.193651
0.187921
0.000801597
0.000788842
0.000735275
0.000777222
0.000704498
0.000714599
0.000803902
0.000747636
0.000725628
0.000737253
0.192813
0.187978
0.193489
0.000661347
0.000673507
0.000611615
0.000657328
0.000603775
0.000601491
0.0790345
0.0774308
0.0784291
0.0725711
0.000667463
0.000652074
0.000660653
0.000613545
0.00401714
0.00366569
0.00389178
0.000900012
0.000956193
0.00103815
0.000948818
0.00100577
0.00109081
0.00115532
0.000144755
0.000961211
0.000171369
0.000220277
0.000171166
0.000330987
0.00162114
0.000385603
0.000486699
0.00038233
0.00020113
0.000235868
0.000299437
0.000235105
0.0083735
0.00744327
0.00692128
0.00657656
0.00587909
0.0056738
0.00599012
0.00552827
0.00526069
0.156661
0.154475
0.169185
0.0235357
0.0230983
0.0247295
0.0183375
0.0154505
0.0150582
0.0261184
0.0258415
0.0243376
0.027758
0.000115365
0.000176469
0.000143486
0.000254958
0.000352849
0.000309039
0.000178253
0.000214566
0.000264528
1.23804e-07
1.31897e-07
9.38765e-08
0.00640962
0.0070625
0.0060812
0.000120894
0.000197004
0.000162068
0.00017968
0.000220204
0.000276236
0.000292401
0.000360171
0.000433297
0.0628026
0.0645672
0.0625337
0.0683628
7.59758e-08
8.4821e-08
1.13712e-07
0.00047174
0.000566407
0.000541656
0.000675892
0.000753363
0.000882605
0.000841053
0.00104291
0.120701
0.126772
0.128965
0.137918
0.145217
0.147704
0.0676169
0.0680247
0.0652267
0.0719897
0.189003
0.186961
0.186798
0.184074
0.180307
0.182777
0.180977
0.179146
0.0152658
0.0174289
0.0171505
0.0171107
0.016057
0.0185929
0.0203048
0.020517
0.0193633
0.0223371
0.0832236
0.0539427
0.052364
0.0476311
0.0535458
0.0526665
0.0479808
0.0467419
0.047064
0.0459868
0.0452988
0.165746
0.168758
0.159513
0.170722
0.172079
0.164072
0.00692495
0.00593573
0.00515493
0.00526438
0.00458572
0.00398686
0.00385658
0.0033528
0.00291094
0.0280671
0.0310359
0.034891
0.0314896
0.0422741
0.0408448
0.0365975
0.0419453
0.0360874
0.0345147
0.0403858
0.0311791
0.029722
0.0261258
0.00655362
0.00550351
0.00470662
0.0895994
0.0887208
0.0908446
0.00178529
0.00165965
0.00177892
0.000724158
0.00166687
0.00135824
0.00128002
0.00127136
0.00163986
0.00132799
0.00125425
0.000678288
0.00122998
0.162922
0.108288
0.115366
0.114818
0.120795
0.140159
0.139641
0.145277
0.0443688
0.0471781
0.0432532
0.0344807
0.029554
0.0283459
0.0250212
0.0214886
0.0209979
0.0199681
0.00247269
0.00273907
0.00260006
0.00308258
0.000150486
0.000181652
0.000173856
0.000240921
0.000338246
0.000276752
0.000199515
0.000217938
0.000239377
0.000227374
0.0371127
0.0376815
0.0397688
0.0402106
0.0378598
0.0379733
0.0359592
0.000204628
0.000209213
0.000234869
0.000190631
0.0423854
0.0427047
0.0449577
0.0399728
0.0334476
0.0332813
0.030052
0.117342
0.115518
0.125272
0.00245639
0.00263788
0.00293004
0.00316382
0.00344656
0.00284373
0.00350706
0.00379171
0.00420239
0.00382417
0.00289529
0.00319456
0.00339393
0.000389946
0.000387081
0.000443545
0.000315517
0.00049692
0.000488397
0.000545027
0.000400204
0.000271823
0.000302305
0.000247333
0.000228153
0.000300665
0.000273782
0.000391087
0.000448854
0.000469498
0.000328533
0.00037912
0.000433032
0.000394384
0.0534112
0.0569538
0.0508209
0.0489322
0.0536932
0.0464333
0.0412267
0.0444813
0.0380854
0.00310089
0.00332306
0.00367582
0.00328316
0.00314077
0.00346871
0.00350546
0.00371805
0.00352832
0.00390872
0.00394433
0.00420782
0.00712284
0.00650559
0.00613032
0.000405379
0.000406023
0.000435622
0.000373498
0.0491554
0.0512686
0.0543286
0.0508361
0.000974549
0.000843175
0.00080082
0.000711782
0.000700378
0.000730663
0.00062101
0.000597271
0.000617321
0.000717182
0.000657069
0.000635029
0.000650436
0.146709
0.148246
0.153997
0.142758
1.42058e-07
2.07724e-07
3.14099e-07
2.18297e-07
4.3648e-07
5.66024e-07
6.05139e-07
7.65215e-07
1.03452e-06
7.82309e-07
3.12752e-07
4.14441e-07
5.82421e-07
4.29247e-07
0.177036
0.180764
0.184643
0.00882072
0.0103155
0.0101613
0.0142961
0.0154149
0.0149349
0.00181651
0.00169681
0.00125637
0.00102675
0.00103667
0.000905551
0.177507
0.13559
0.139325
0.146481
0.136651
0.000335807
0.000432105
0.000453699
0.000585982
0.000808519
0.00078111
0.154722
0.158128
0.152619
0.1161
0.111182
0.110066
0.000995436
0.000898647
0.000875741
0.102875
0.0963118
0.0969326
0.103593
0.0984709
0.0967959
0.0444295
0.0179263
0.0165978
0.0140613
0.0169711
0.0129699
0.0132472
0.0122186
0.0100932
0.0103122
0.19267
0.194119
0.193526
0.00451144
0.00427366
0.00387938
0.00425285
0.0698535
0.0711687
0.0758512
0.0667714
0.0783321
0.0847896
0.0789068
0.073043
0.0777679
0.0840416
0.0782265
0.0303759
0.0334286
0.0368971
0.0340748
0.0690948
0.0696401
0.0741777
0.0403523
0.0445928
0.0373035
0.0379843
0.0413632
0.0452296
0.00444181
0.00527846
0.00643068
0.00735343
0.00655304
0.00622856
0.00638843
0.00508962
0.00428101
0.00398756
0.00410154
0.00118782
0.0012258
0.00146305
0.00114475
0.00179323
0.00182338
0.00215968
0.00168177
0.00109372
0.00111209
0.00131077
0.0114193
0.0131058
0.0116456
0.0146882
0.0149668
0.0167399
0.0132972
0.0148737
0.0151524
0.0339043
0.0367637
0.0395127
0.0376481
0.00752397
0.00734299
0.00637847
0.00699675
0.00617932
0.00604617
0.00676455
0.00686683
0.00595809
0.00524104
0.00492244
0.00505718
0.0041479
0.182765
0.182105
0.184056
0.176993
0.00195571
0.00226542
0.0023114
0.00343334
0.0038288
0.00383432
0.172142
0.175037
0.180391
0.000995047
0.00102336
0.00093928
0.000986658
0.000888837
0.00090912
0.104581
0.103474
0.0984775
0.0916632
0.0904371
0.0920438
0.0853767
0.000850278
0.00083066
0.000760437
0.051263
0.0556099
0.0609149
0.0243397
0.0247229
0.0274061
0.0275953
0.0305077
0.0343222
0.0309561
0.0220991
0.024554
0.0278207
0.0249394
0.198647
0.198723
0.200025
0.195033
0.195967
0.112467
0.114698
0.12226
0.0237778
0.0235902
0.0231944
0.023142
0.0123268
0.0118351
0.00861279
0.00781786
0.00849957
0.00696366
0.00435039
0.00106003
0.00536888
0.00529431
0.00633568
0.0620511
0.0565114
0.0521032
0.0527419
0.0570762
0.0625684
0.0431574
0.00851767
0.0462847
0.0732984
0.056514
0.0572319
0.0595887
0.152777
0.161014
0.150035
0.175545
0.182381
0.172127
0.168542
0.169826
0.174812
0.164811
0.0214331
0.0227453
0.0245954
0.0227725
5.42504e-05
6.13476e-05
6.77207e-05
6.56232e-05
0.000753183
0.0011024
0.000804047
0.000802552
0.000848213
0.00120375
0.00129652
0.00135132
0.00013092
0.000187069
0.000153753
0.000110453
0.00012252
0.000134415
0.000129379
0.00258924
0.003159
0.00315541
0.00369361
0.00308992
0.0196319
0.0223222
0.0199735
0.153015
0.154606
0.148856
0.162825
3.1472e-07
0.000973585
0.114473
0.000820853
0.000562651
0.000552053
0.000546002
0.0555009
0.000143328
0.000175849
0.019788
0.0576567
0.0242839
0.000158487
0.0263832
0.00337443
0.00343832
0.128215
0.0031458
0.000678797
0.000784863
0.0897269
0.000528883
0.0347189
0.000856435
0.00099208
0.0863211
0.000666531
0.0341265
0.000540394
0.000680531
0.000535068
0.0506512
0.000216441
0.00125835
0.0458916
0.0901325
0.00318769
0.00243708
0.124538
0.146833
0.123451
0.00219414
0.000884788
0.000588639
0.000449669
4.58692e-05
0.00038203
0.0276481
0.0344098
0.000594627
0.0312084
0.000504522
4.86385e-05
0.000384723
0.0664433
0.00304158
3.38191e-06
0.00233457
7.31528e-06
0.00147831
0.000142932
0.035741
0.0597839
0.00146414
0.000156748
0.00140096
0.00162959
0.0166977
1.29172e-05
0.016312
8.97301e-05
0.0186433
0.0816032
0.000294163
0.00131877
2.74397e-05
0.000293613
0.001873
2.79772e-05
0.00176126
0.000130409
0.0344189
0.0592115
0.0314843
0.00126098
4.37794e-07
0.0015142
0.00114834
0.00372971
3.32423e-07
0.00131353
2.79454e-08
0.189204
0.193018
0.0121444
0.00434164
4.56007e-08
0.000371847
0.00157624
0.000452013
0.00779575
3.37204e-08
0.000305067
5.54047e-08
7.86965e-05
9.35981e-05
0.000886098
0.113026
0.024759
0.0478196
0.0194963
0.000742415
0.000559985
0.0834907
0.058195
0.0591166
0.000511012
0.000656662
0.0160749
0.000921145
0.0195987
0.000777369
0.0781594
0.000754552
0.000744589
0.0754095
0.00613592
0.00658389
0.11913
0.0878108
0.005016
0.0879997
0.00510144
0.0952398
0.0850745
0.0037072
0.00802656
0.00767824
0.0234186
0.0275572
0.0310844
0.0218322
0.00013234
2.1177e-05
0.0215312
0.000566539
0.00215868
0.000611601
0.000747914
0.0247188
0.000537046
0.018122
0.000600431
0.00101192
0.000596755
0.0383531
0.0425837
0.128119
0.00135105
0.00916721
0.000497654
0.026253
0.000440298
0.0776612
0.000278365
0.000877326
0.0699419
0.000576532
0.000860383
0.092006
0.000577424
0.0899844
0.00183823
0.0297155
0.00222347
0.0410292
0.0280652
0.000571853
0.000558016
0.0854871
0.0597877
0.0300774
0.0317478
0.000648415
0.0338135
0.0335025
0.000771381
0.00241664
0.0356066
0.0023583
0.00320681
0.0333139
0.0315199
0.00127956
0.000653127
0.0335527
0.000606894
0.118792
0.121307
0.00348444
0.00610264
0.117728
0.161416
0.00165251
0.00471898
0.0380847
0.0361765
0.000777226
0.000751768
0.0407866
0.00516863
0.000769018
0.0380366
0.000694788
0.0540871
0.0527178
0.200257
0.19041
0.202231
0.0256023
3.67316e-05
0.00207156
0.00641301
1.08264e-06
0.0058291
9.35381e-07
1.14872e-05
0.0170442
0.00569942
0.0438835
0.0484131
0.000100833
0.0525104
0.000785781
0.00715344
0.00860963
9.20053e-05
0.00946302
8.15851e-09
0.00954381
0.000154206
0.000890492
0.0101241
0.00750204
0.0001263
1.16851e-08
1.44249e-06
0.0065139
0.00417136
0.00247968
0.056728
0.207363
0.041465
0.0459466
0.0013838
0.00017346
0.0499591
0.00157262
0.00110581
0.0291266
0.029622
6.29293e-05
0.000804979
0.0264219
0.000665423
0.000562366
0.0651386
0.000572712
0.0664905
0.0937942
0.0596369
0.0560582
0.00219332
1.33969e-06
0.00260342
0.00710793
0.00205632
0.113821
0.113418
0.000857321
0.13951
0.140309
0.00206869
0.0637483
0.000572043
0.0338237
0.0343343
1.44499e-06
1.65317e-06
0.00766597
0.0520472
0.000508044
0.0026751
1.10493e-06
8.22182e-09
0.0367561
4.83778e-06
5.99299e-06
4.28593e-06
0.00996627
0.000575395
5.47e-09
1.23898e-06
0.000954022
0.00547777
0.004324
0.000569205
0.0626761
0.000570458
0.0632243
0.000558597
9.16524e-05
0.038238
0.0133918
0.107435
0.000637432
0.115463
0.00109652
0.042044
3.06674e-07
0.00322354
0.00095311
4.30755e-07
0.00155774
5.59636e-07
0.00432777
0.00294627
0.00303479
0.172862
0.00265483
0.0602565
4.35714e-08
6.21985e-08
0.00186981
8.95205e-08
0.000595706
6.76486e-08
0.000521858
0.0336757
0.00368693
0.0355289
0.0012318
0.0423898
0.0370489
3.70302e-08
2.68319e-08
0.0581643
0.0661395
0.0645234
0.0654695
0.0520299
0.0503409
0.0461631
0.0613312
0.00642419
0.188059
0.189068
0.00607667
0.144076
0.198081
0.0068451
0.0204956
0.00664009
0.00560803
0.186945
0.187836
0.00466608
0.0054509
1.37424e-05
0.00600956
1.9308e-06
0.00121998
0.157749
0.00262732
0.151931
0.00464932
0.0022539
0.00559695
0.00465757
0.146335
0.029777
0.0330375
4.14538e-05
0.00031817
0.0324809
0.0363032
0.000372436
0.121199
0.181464
0.133625
0.00416563
0.00416335
0.12902
0.022578
0.0401372
0.00468331
0.0422451
0.00158266
0.0450276
0.00470991
0.0424153
0.0553779
0.00280459
7.23383e-06
0.00296266
1.19703e-06
5.72749e-06
8.75506e-05
0.00217697
0.16921
0.00216545
0.00203626
0.105998
0.159301
0.000274371
1.55397e-08
0.000396973
0.00491319
0.000340081
1.41358e-06
1.72002e-06
0.00687341
0.002251
0.112796
1.94373e-06
0.00198845
0.000716965
0.00253757
0.0260466
0.00250649
0.02761
1.02527e-06
0.000672379
0.0170882
0.00296369
1.92127e-05
0.000216025
0.00512067
8.60261e-06
0.176907
0.0173923
0.187857
0.1273
0.184017
0.00907395
2.39051e-06
0.0101673
0.0020352
0.155256
0.00197924
0.101035
0.00576013
0.000256637
0.000275348
0.000333695
0.159264
0.00530801
0.154974
0.0147336
0.000318118
0.000397946
0.0157952
0.0197725
0.0153081
0.000186857
0.0169233
0.000434831
0.000268862
0.000459396
0.000798063
0.0173452
0.0236165
0.0170644
0.000210162
0.0185518
0.000249839
4.23297e-07
0.179132
0.0345776
0.0649765
0.00139852
0.0704569
0.041148
0.0141662
0.00548329
0.183298
0.000957731
0.0325484
0.102372
0.000554878
0.0960351
0.000933791
0.000487215
0.000640032
0.0336438
0.0157484
9.34997e-06
0.0175695
0.038867
0.0138628
7.84452e-05
0.00135591
0.00138262
0.00130867
1.45939e-05
0.00151147
0.0261042
0.00011391
0.000134501
0.0284839
0.0582287
0.0252133
0.0110372
0.00899202
0.201663
0.0271504
0.0026503
2.4965e-06
1.66947e-07
0.201804
0.201092
0.0482845
0.00750876
0.210513
0.202709
0.202078
0.0150407
0.0174867
0.191268
0.0144178
0.00551726
0.188505
0.013674
5.40811e-08
0.0108327
0.188698
0.00509967
0.192696
0.162083
0.188205
0.0272516
0.0316788
0.183009
3.84599e-06
4.31411e-06
0.00249541
0.00182329
0.0175914
0.023845
1.63364e-05
0.0204585
0.111113
0.117128
0.117822
0.0192843
0.000488934
0.000426637
0.0858538
0.0905779
0.0906581
0.0127694
0.0943819
0.0744274
0.062692
0.00304829
0.0381923
0.00340677
0.079729
0.0323739
0.0026433
0.0747578
0.141475
0.134454
0.129911
0.00129254
0.0329166
0.0006998
0.000728956
0.000854082
0.00972137
3.57542e-05
0.000618684
0.00803827
0.0510591
0.00300066
0.0828222
0.0556961
0.0816073
0.0584709
0.000799325
0.057003
0.000621825
6.32382e-07
2.80568e-09
0.00200309
0.00718829
0.0429232
0.00169884
0.000221325
0.000623991
0.00242781
0.0014495
0.0388326
0.0454472
0.000304255
0.00465607
8.10448e-05
9.53531e-05
0.000113909
0.00602427
0.170948
0.123553
0.0225333
0.202282
0.183641
0.115825
0.113087
0.126528
0.00331222
0.124295
0.120073
0.130162
0.0936594
0.00501071
0.0848499
0.00126321
0.0511068
0.000884099
0.0883563
0.00112564
0.0929219
0.046356
0.176015
0.000163089
0.000197851
0.000151839
0.0189054
7.80958e-05
0.019746
0.11886
0.0218879
0.0409736
0.01905
6.26385e-05
0.00267688
0.00327053
0.00236796
2.44111e-06
0.00306103
0.108654
0.163032
0.00255568
0.00551213
0.152048
0.00281275
0.00238996
0.205292
0.0563471
0.0264383
0.00300594
0.051982
0.0728127
0.0365269
0.0598426
0.0328593
1.60991e-06
0.0368064
0.020855
0.000531956
0.00781076
0.00042347
0.0528407
0.000565938
0.0952526
0.0216964
0.0282487
0.000982805
0.0304914
0.0382057
0.0402915
3.11987e-06
4.31706e-06
0.0136607
2.94506e-05
0.184296
9.95106e-06
0.00212948
2.02261e-05
0.000210535
0.00714762
0.173232
3.13959e-06
0.0101734
0.00348101
7.06471e-06
0.00225451
0.00359079
3.29455e-06
3.28638e-07
0.00401853
4.39319e-06
0.00324367
5.97732e-09
8.17433e-07
0.000475762
4.64522e-07
0.00413547
6.3749e-06
8.45224e-06
9.8237e-06
0.00265764
0.177089
3.32296e-06
0.00375566
0.0103697
0.0146842
4.59562e-06
2.63642e-06
3.56377e-06
0.00164328
0.00354146
0.0052189
3.54663e-05
3.0217e-06
0.00445637
3.86984e-06
0.00485136
0.0107189
4.10787e-06
0.00516012
0.0282376
3.3358e-05
0.000676991
0.0137225
0.0237582
2.2375e-05
0.000614125
0.00293004
0.0296892
0.00313105
1.41554e-06
0.000865427
1.29446e-06
0.00661576
1.25194e-06
0.00607819
0.00475814
4.84696e-06
0.00417419
0.0345946
3.54109e-06
0.0105416
0.00415444
3.72574e-06
0.00435044
2.83756e-06
0.0094312
0.0203609
2.06773e-06
3.01348e-05
0.00830124
2.2081e-06
2.57103e-06
0.00925867
1.96588e-06
0.0108139
0.0102409
0.0268024
0.000624761
0.0240726
3.10067e-05
0.0212951
2.21371e-05
0.0238038
3.14984e-05
0.0234046
0.00456273
0.0337003
0.0266571
0.00125369
0.00455819
0.0313874
0.00093583
0.00317183
0.00548965
0.00533611
8.53913e-05
0.0330907
8.66952e-05
0.0114414
0.00543251
0.145868
0.000113416
0.012855
0.0368389
0.0112127
0.133928
0.00194875
0.00996643
0.00782344
0.167756
0.000352377
0.0520028
0.0211524
0.000282924
0.0189672
0.00644737
0.0442237
0.000204829
0.00162888
0.00749899
0.000281542
0.0473115
4.25094e-05
0.0186345
0.0165488
0.000222818
0.000160412
1.10832e-05
0.0166563
0.00524386
0.0144954
0.000159006
0.0147713
8.03206e-06
0.0129011
0.000122521
5.64023e-06
0.0142991
0.000170947
0.0145713
7.70813e-06
0.016354
0.0615861
0.0017064
0.000289021
0.00189248
0.0663832
0.118185
0.072204