# vtk DataFile Version 2.0
Unstructured Grid by M++
ASCII
DATASET UNSTRUCTURED_GRID
POINTS 15808 float
  0.718750   0.625000 0
  0.718750   0.953125 0
  0.960938   0.882812 0
  0.734375   0.937500 0
  0.953125   0.882812 0
  0.726562   0.937500 0
  0.953125   0.875000 0
  0.507812   0.593750 0
  0.742188   0.531250 0
  0.945312   0.781250 0
  0.750000   0.726562 0
  0.960938   0.578125 0
  0.718750   0.640625 0
  0.726562   0.648438 0
  0.718750   0.648438 0
  0.789062   0.601562 0
  0.671875   0.914062 0
  0.765625   0.523438 0
  0.960938   0.804688 0
  0.734375   0.859375 0
  0.718750   0.867188 0
  0.726562   0.859375 0
  0.953125   0.796875 0
  0.515625   0.507812 0
  0.507812   0.515625 0
  0.945312   0.703125 0
  0.515625   0.531250 0
  0.515625   0.539062 0
  0.507812   0.546875 0
  0.945312   0.734375 0
  1.000000   0.671875 0
  0.765625   0.726562 0
  0.757812   0.734375 0
  0.750000   0.734375 0
  0.515625   0.796875 0
  0.515625   1.000000 0
  0.750000   0.937500 0
  0.523438   0.992188 0
  0.640625   0.679688 0
  0.523438   0.507812 0
  0.742188   0.632812 0
  0.867188   0.515625 0
  0.671875   0.851562 0
  0.789062   0.796875 0
  0.781250   0.796875 0
  0.789062   0.804688 0
  0.742188   0.671875 0
  0.507812   0.734375 0
  0.968750   0.617188 0
  0.734375   0.687500 0
  0.664062   0.648438 0
  0.578125   0.960938 0
  0.781250   0.531250 0
  0.773438   0.531250 0
  0.546875   0.789062 0
  0.750000   0.585938 0
  0.835938   0.562500 0
  0.812500   0.601562 0
  0.578125   0.867188 0
  0.804688   0.757812 0
  0.507812   0.992188 0
  0.742188   0.929688 0
  0.851562   0.976562 0
  0.851562   0.968750 0
  0.632812   0.617188 0
  0.789062   0.945312 0
  0.789062   0.937500 0
  0.781250   0.937500 0
  0.804688   0.531250 0
  0.640625   0.617188 0
  0.812500   0.929688 0
  0.804688   0.835938 0
  0.796875   0.835938 0
  0.773438   0.554688 0
  0.859375   0.867188 0
  0.835938   0.585938 0
  0.843750   0.593750 0
  0.812500   0.632812 0
  0.578125   0.898438 0
  0.570312   0.898438 0
  0.695312   0.585938 0
  0.984375   0.570312 0
  0.773438   0.507812 0
  0.789062   0.687500 0
  0.546875   0.960938 0
  0.867188   0.671875 0
  0.875000   0.664062 0
  0.875000   0.656250 0
  0.882812   0.585938 0
  0.796875   0.859375 0
  0.804688   0.867188 0
  0.867188   0.898438 0
  0.859375   0.898438 0
  0.625000   0.960938 0
  0.835938   0.617188 0
  0.812500   0.960938 0
  0.804688   0.585938 0
  0.804688   0.609375 0
  0.804688   0.617188 0
  0.921875   0.875000 0
  0.687500   0.929688 0
  0.914062   0.875000 0
  0.507812   0.765625 0
  0.742188   0.703125 0
  0.945312   0.953125 0
  0.835938   0.875000 0
  0.625000   0.523438 0
  0.867188   0.960938 0
  0.859375   0.960938 0
  0.835938   0.703125 0
  0.804688   0.640625 0
  0.804688   0.851562 0
  0.578125   0.906250 0
  0.953125   0.593750 0
  0.507812   0.796875 0
  0.945312   0.984375 0
  0.992188   0.718750 0
  0.828125   0.921875 0
  0.835938   0.906250 0
  0.601562   0.968750 0
  0.625000   0.554688 0
  0.585938   0.820312 0
  0.578125   0.820312 0
  0.820312   0.828125 0
  0.820312   0.835938 0
  0.835938   0.710938 0
  0.796875   0.757812 0
  0.554688   0.820312 0
  0.773438   0.664062 0
  0.546875   0.929688 0
  0.507812   0.695312 0
  0.820312   0.609375 0
  0.734375   1.000000 0
  0.976562   0.929688 0
  0.742188   0.984375 0
  0.507812   0.726562 0
  0.531250   0.601562 0
  0.945312   0.914062 0
  0.750000   0.539062 0
  0.515625   0.601562 0
  0.507812   0.804688 0
  0.789062   0.710938 0
  0.781250   0.710938 0
  0.781250   0.703125 0
  0.515625   0.703125 0
  0.523438   0.703125 0
  0.960938   0.890625 0
  0.867188   0.937500 0
  0.632812   1.000000 0
  0.984375   0.515625 0
  0.750000   0.570312 0
  0.515625   0.632812 0
  0.742188   0.578125 0
  0.851562   0.773438 0
  0.843750   0.765625 0
  0.789062   0.742188 0
  0.789062   0.734375 0
  0.781250   0.734375 0
  0.523438   0.734375 0
  0.750000   0.984375 0
  0.984375   0.906250 0
  0.507812   0.703125 0
  0.742188   0.640625 0
  0.945312   0.890625 0
  0.531250   0.578125 0
  0.859375   0.734375 0
  0.867188   0.734375 0
  0.859375   0.976562 0
  0.867188   0.968750 0
  0.507812   0.820312 0
  0.742188   0.757812 0
  0.507812   0.812500 0
  0.843750   0.796875 0
  0.851562   0.804688 0
  0.843750   0.804688 0
  0.585938   0.796875 0
  0.789062   0.773438 0
  0.804688   0.648438 0
  0.789062   0.765625 0
  0.781250   0.765625 0
  0.804688   0.593750 0
  0.804688   0.671875 0
  0.796875   0.671875 0
  0.804688   0.679688 0
  0.796875   0.687500 0
  0.671875   1.000000 0
  0.679688   1.000000 0
  0.921875   0.937500 0
  0.921875   0.929688 0
  0.570312   0.945312 0
  0.562500   0.945312 0
  0.742188   0.562500 0
  0.507812   0.625000 0
  0.976562   0.507812 0
  0.734375   0.781250 0
  0.507812   0.835938 0
  0.523438   0.710938 0
  0.734375   0.773438 0
  0.507812   0.828125 0
  0.820312   0.546875 0
  0.812500   0.546875 0
  0.820312   0.750000 0
  0.515625   0.726562 0
  0.882812   0.601562 0
  0.875000   0.601562 0
  0.828125   0.945312 0
  0.625000   0.585938 0
  0.820312   0.523438 0
  0.976562   0.539062 0
  0.507812   0.867188 0
  0.523438   0.742188 0
  0.734375   0.804688 0
  0.507812   0.859375 0
  0.843750   0.851562 0
  0.828125   0.562500 0
  0.820312   0.570312 0
  0.820312   0.578125 0
  0.828125   0.578125 0
  0.781250   0.828125 0
  0.781250   0.820312 0
  0.757812   0.539062 0
  0.515625   0.757812 0
  0.828125   0.976562 0
  0.625000   0.617188 0
  0.804688   0.726562 0
  0.796875   0.726562 0
  0.804688   0.718750 0
  0.796875   0.718750 0
  0.570312   0.585938 0
  0.781250   0.648438 0
  0.523438   0.765625 0
  0.984375   0.546875 0
  0.742188   0.609375 0
  0.742188   0.617188 0
  0.507812   0.679688 0
  0.734375   0.625000 0
  0.976562   0.617188 0
  0.765625   0.554688 0
  0.773438   0.593750 0
  0.976562   0.843750 0
  0.835938   0.992188 0
  0.835938   0.984375 0
  0.828125   0.984375 0
  0.507812   0.898438 0
  0.734375   0.835938 0
  0.851562   0.882812 0
  0.843750   0.882812 0
  0.820312   0.601562 0
  0.796875   0.734375 0
  0.796875   0.843750 0
  0.781250   0.843750 0
  0.789062   0.851562 0
  0.992188   0.914062 0
  0.781250   0.851562 0
  0.523438   0.843750 0
  0.750000   0.531250 0
  0.765625   0.515625 0
  0.757812   0.515625 0
  0.523438   0.578125 0
  0.515625   0.789062 0
  0.523438   0.781250 0
  0.757812   0.718750 0
  0.960938   0.968750 0
  0.859375   0.585938 0
  0.664062   0.609375 0
  0.804688   0.750000 0
  0.796875   0.750000 0
  0.859375   0.781250 0
  0.867188   0.789062 0
  0.859375   0.789062 0
  0.750000   0.640625 0
  0.734375   0.640625 0
  0.742188   0.648438 0
  0.507812   0.710938 0
  0.968750   0.585938 0
  0.734375   0.656250 0
  0.507812   0.906250 0
  0.742188   0.843750 0
  0.828125   0.617188 0
  0.828125   0.609375 0
  0.820312   0.625000 0
  0.812500   0.625000 0
  0.585938   0.890625 0
  0.585938   0.882812 0
  0.812500   0.828125 0
  0.757812   0.593750 0
  0.992188   0.523438 0
  0.750000   0.593750 0
  0.515625   0.656250 0
  0.828125   0.718750 0
  0.828125   0.710938 0
  0.820312   0.718750 0
  0.796875   0.867188 0
  1.000000   0.921875 0
  0.789062   0.578125 0
  0.992188   0.828125 0
  0.539062   0.695312 0
  0.531250   0.687500 0
  0.570312   0.750000 0
  0.750000   0.710938 0
  0.515625   0.773438 0
  0.742188   0.718750 0
  0.515625   0.976562 0
  0.625000   0.664062 0
  0.734375   0.867188 0
  0.851562   0.914062 0
  0.859375   0.906250 0
  0.625000   0.968750 0
  0.843750   0.914062 0
  0.609375   0.976562 0
  0.843750   0.906250 0
  0.523438   0.875000 0
  0.546875   0.757812 0
  0.750000   0.562500 0
  0.515625   0.625000 0
  0.765625   0.546875 0
  0.968750   0.609375 0
  0.757812   0.546875 0
  0.523438   0.609375 0
  0.523438   0.820312 0
  0.515625   0.820312 0
  0.960938   1.000000 0
  0.523438   0.812500 0
  0.515625   0.812500 0
  0.835938   0.531250 0
  0.882812   0.695312 0
  0.882812   0.687500 0
  0.859375   0.617188 0
  0.617188   0.687500 0
  0.875000   0.992188 0
  0.664062   0.632812 0
  0.898438   0.570312 0
  0.664062   0.640625 0
  0.804688   0.781250 0
  0.796875   0.781250 0
  0.804688   0.789062 0
  0.515625   0.828125 0
  0.750000   0.765625 0
  0.523438   0.835938 0
  0.757812   0.773438 0
  0.515625   0.835938 0
  0.515625   0.843750 0
  0.859375   0.812500 0
  0.867188   0.820312 0
  0.859375   0.820312 0
  0.507812   0.937500 0
  0.742188   0.875000 0
  0.828125   0.648438 0
  0.820312   0.656250 0
  0.812500   0.656250 0
  0.585938   0.914062 0
  0.710938   0.601562 0
  0.703125   0.601562 0
  1.000000   0.562500 0
  0.757812   0.625000 0
  0.523438   0.687500 0
  0.992188   0.554688 0
  0.750000   0.625000 0
  0.515625   0.687500 0
  0.523438   0.882812 0
  0.648438   0.570312 0
  0.640625   0.570312 0
  0.882812   0.500000 0
  0.789062   0.609375 0
  0.992188   0.859375 0
  0.507812   0.843750 0
  0.742188   0.781250 0
  0.531250   0.718750 0
  0.515625   0.851562 0
  0.750000   0.789062 0
  0.539062   0.726562 0
  0.539062   0.718750 0
  0.976562   0.906250 0
  0.742188   0.500000 0
  0.507812   0.562500 0
  0.570312   0.789062 0
  0.671875   0.945312 0
  0.960938   0.929688 0
  0.546875   0.617188 0
  0.851562   0.945312 0
  0.843750   0.937500 0
  0.609375   1.000000 0
  0.570312   0.554688 0
  0.523438   0.906250 0
  0.843750   0.773438 0
  0.828125   0.890625 0
  0.820312   0.890625 0
  0.617188   1.000000 0
  0.796875   0.523438 0
  0.914062   0.781250 0
  0.687500   0.835938 0
  0.750000   0.875000 0
  0.515625   0.937500 0
  0.781250   0.742188 0
  0.992188   0.804688 0
  0.765625   0.859375 0
  0.750000   0.867188 0
  0.968750   0.921875 0
  0.757812   0.859375 0
  0.523438   0.921875 0
  0.984375   0.796875 0
  0.976562   0.703125 0
  0.804688   0.539062 0
  0.914062   0.789062 0
  0.921875   0.789062 0
  0.687500   0.843750 0
  0.804688   0.820312 0
  0.820312   0.695312 0
  0.804688   0.812500 0
  0.796875   0.812500 0
  0.750000   0.703125 0
  0.515625   0.765625 0
[...]
CELL_DATA 30592
SCALARS scalar_value float 1
LOOKUP_TABLE default
4.42497e-06
3.6872e-06
3.36572e-06
2.80098e-06
2.35084e-06
1.99811e-06
2.62869e-06
2.53181e-06
2.10379e-06
1.88457e-06
1.77493e-06
2.41985e-06
2.11001e-06
2.10733e-06
0.0246561
0.0247283
0.0240357
0.0259547
0.0253419
0.0247335
0.016607
0.0159991
0.0152954
0.016378
0.0137981
0.0130484
0.0136952
0.0189054
0.0165219
0.0139828
0.0173521
0.0534978
0.0537589
0.0580073
0.0520025
0.194493
0.192931
0.192795
0.183651
0.182155
0.177396
0.143231
0.135696
0.136359
0.129466
0.121932
0.122644
0.128666
0.1422
0.148849
0.156344
0.163466
0.169244
0.156087
0.000984052
0.000907116
0.000895371
0.000867729
0.000821011
0.000783345
0.000741651
0.000839495
0.000777048
0.000818417
0.000875818
0.000865265
0.000919925
6.4955e-06
3.07907e-06
5.37759e-06
4.64384e-06
4.56085e-06
3.84221e-06
3.26612e-06
1.82704e-06
2.68513e-06
3.74897e-06
3.32819e-06
2.7685e-06
2.46757e-06
2.3447e-06
3.09665e-06
2.53618e-06
2.22924e-06
2.06414e-06
0.00141477
0.00112551
0.00187177
0.00178306
0.00140603
0.00110141
0.00115794
0.00115085
0.00154039
0.000967075
0.00145701
0.00118834
0.00109745
0.000928937
0.00186688
0.00167123
0.00198329
0.0013748
0.000803619
0.000745493
0.000905617
3.57991e-05
2.5489e-05
2.57037e-05
2.01727e-05
2.28296e-05
2.64257e-05
3.08583e-05
2.82839e-05
0.113155
0.104875
0.104496
0.118488
0.118037
0.123036
0.000692781
0.00061034
0.00064804
0.000534024
0.000594623
0.000517116
0.000535608
0.000408592
0.000356708
0.000377653
0.000310332
0.000265224
0.000206825
0.000223741
0.000327717
0.000246852
0.00026978
0.000134958
0.000131452
0.000122595
0.000149824
0.000120395
0.000134958
0.000133042
0.000148425
0.000162148
0.000147564
0.00017691
0.0998406
0.0957454
0.0960136
0.000352646
0.000313869
0.000378755
0.000304913
0.000277082
0.0003126
0.00307568
0.00240877
0.00180055
0.00238291
0.000569346
0.000494962
0.000445314
0.000538943
0.000478835
0.000443215
0.211543
0.207972
0.205371
0.204687
0.000734382
0.000660665
0.000566828
4.00975e-05
3.47376e-05
2.97345e-05
3.32926e-05
2.56995e-05
2.45919e-05
2.12322e-05
2.20488e-05
1.91244e-05
1.68689e-05
1.81653e-05
2.76523e-05
2.38818e-05
2.03328e-05
0.0803997
0.0774328
0.0719068
0.0801301
0.0639002
0.0613258
0.0638623
0.0140317
0.0257716
0.0148956
0.0171472
0.0142725
0.020058
0.0259261
0.0207573
0.0201228
0.113462
0.10471
0.104051
0.0135027
0.0122126
0.0114716
0.0960751
0.0900566
0.0867629
0.056479
0.0540643
0.0541482
0.00867976
0.00772267
0.00723174
0.00792492
0.27237
0.273662
0.272995
0.274655
0.0130161
0.0105879
0.00942067
0.275428
0.275585
0.275816
0.274551
0.0344292
0.0336346
0.0320232
0.0348193
0.0332926
0.0351082
0.000911675
0.000878805
0.0007747
0.00100198
0.000794704
0.000608791
0.000676564
0.000953447
0.00083964
0.000738029
0.0860647
0.0783682
0.076307
0.0887889
0.0862739
0.0884905
0.000747299
0.000810855
0.000834122
0.111048
0.115051
0.107277
0.0617475
0.0607436
0.064194
0.0581617
0.0738589
0.0740283
0.0803105
0.071049
0.0940227
0.0927321
0.100087
0.105604
0.112417
0.106957
0.120311
0.11889
0.126922
0.000680369
0.000765497
0.000770548
0.000785575
0.129552
0.131215
0.13843
0.124283
0.136782
0.144658
0.153374
0.125829
0.132672
0.13994
0.134108
0.0006877
0.000755901
0.000895653
0.000742211
0.00144765
0.00189635
0.00140775
0.000806811
0.000900885
0.000881481
0.114561
0.112951
0.120912
0.154971
0.170662
0.16311
0.094815
0.0889036
0.0861788
0.085848
0.0286918
0.0305567
0.0265543
0.0012323
0.000937677
0.000944404
0.000719225
0.000590851
0.000561024
0.106913
0.105284
0.108991
0.00354781
0.00419366
0.0044108
0.00476697
0.00587495
0.00501597
0.00489606
0.00564336
0.00602992
0.00544422
0.00616694
0.00637552
0.130083
0.121623
0.11875
0.107662
0.0964364
0.0968452
0.10697
0.098484
0.0963688
0.0950107
0.129695
0.131578
0.121323
0.12982
0.0787551
0.126427
0.127335
0.11828
8.91199e-05
9.32942e-05
0.000101395
9.43696e-05
0.000106164
0.000111843
9.8055e-05
9.87135e-05
0.000109871
0.000102034
0.0285346
0.0239015
0.022948
0.0212276
0.0156814
0.0165921
0.0142046
0.114579
0.120998
0.128229
0.122141
0.108303
0.115756
0.108999
0.0148418
0.0147078
0.0124592
0.0145317
0.0136068
0.0143283
0.0122055
0.0147597
0.0138684
0.0123997
0.115403
0.121206
0.129093
0.121366
0.142633
0.148148
0.155677
0.12674
0.131935
0.140031
0.131384
0.000326164
0.000252193
0.000233771
0.162394
0.15736
0.154342
0.138651
0.141691
0.134993
0.108417
0.1017
0.0980364
0.0102734
0.00972558
0.00878931
0.0103057
0.269737
0.2694
0.271228
0.265925
0.00242123
0.00232617
0.00207519
0.00101382
0.00107992
0.000892053
0.00103234
0.000654324
0.000842004
0.00118509
0.00106447
0.0011613
0.00179878
0.00142095
0.001725
0.0252998
0.0215189
0.0198163
0.00513834
0.0047888
0.00132303
0.00422854
0.00509121
7.60406e-06
8.88246e-06
8.71352e-06
6.66356e-06
5.81918e-06
7.65004e-06
1.17099e-05
1.1281e-05
9.9256e-06
1.26658e-05
0.00117631
0.000868908
0.00125261
1.05281e-05
9.4383e-06
9.87497e-06
8.35318e-06
7.08165e-06
8.83962e-06
0.000567109
0.000496501
0.000432614
0.00046832
7.3924e-06
6.52396e-06
5.70461e-06
6.2888e-06
0.0295649
0.0285484
0.0275519
0.13446
0.138291
0.144824
0.135722
0.139446
0.14604
0.14985
0.000164818
0.0003503
0.000166316
0.000196035
0.00015404
0.000232142
0.00039054
0.000231661
0.000271812
0.00021256
0.00014283
0.000142593
0.000166675
0.000131472
0.00612057
0.00607113
0.00660523
0.00478041
0.00398128
0.00478502
0.00682388
0.0063383
0.00669097
0.0295404
0.0303528
0.0226864
0.239791
0.243098
0.238957
0.00291181
0.0027631
0.00253672
0.236655
0.238452
0.243192
0.232854
0.0222581
0.0307386
0.0251428
0.0405586
0.0514491
0.0445252
0.0282419
0.0316937
0.037797
2.8532e-05
2.85559e-05
1.99047e-05
0.238063
0.240385
0.234199
0.0160761
0.0223205
0.0185857
0.0239609
0.0291654
0.032447
0.0300804
0.035587
0.0391819
0.124716
0.12419
0.128998
0.117788
1.46714e-05
1.53144e-05
1.91193e-05
0.0363295
0.0420844
0.0424757
0.045587
0.041959
0.0476808
0.0483832
0.0507271
0.0534814
0.0483993
0.0472535
0.0409854
0.0360037
0.034696
0.1302
0.129096
0.134626
0.12142
0.00118942
0.000990983
0.000885355
0.000731742
0.000575773
0.000753196
0.000691832
0.000595465
0.255081
0.251269
0.264042
0.264766
0.267368
0.261063
0.256405
0.255563
0.258777
0.249968
0.000453138
0.000534657
0.00059733
0.000543324
0.000681046
0.000467704
0.000426955
0.000373687
0.000685577
0.000603328
0.000756841
0.00683803
0.00604163
0.00723891
0.00494793
0.00401982
0.00486239
0.168233
0.161606
0.158637
0.152677
0.149636
0.141688
0.147459
0.139407
0.135179
0.0888423
0.0858245
0.0876426
0.0823691
0.000342256
0.000382733
0.000352164
0.000435249
0.000443812
0.00049179
0.000483858
0.00036431
0.000405298
0.000379985
0.178414
0.172067
0.167774
0.0021463
0.00191742
0.0016926
3.17856e-06
3.66449e-06
4.14176e-06
6.63329e-06
2.7904e-06
2.82727e-06
2.50272e-06
3.36356e-06
4.7818e-06
5.03592e-06
4.50943e-06
1.18478e-05
6.03873e-06
0.0139304
0.0277845
0.0266824
0.0281548
0.0241389
0.01961
0.0206924
0.0176011
0.168963
0.163062
0.167826
0.0016451
0.00132851
0.00158172
0.00109898
0.00102311
0.000927817
0.00110902
0.194861
0.202595
0.202385
0.208744
6.06231e-05
6.10636e-05
5.49375e-05
6.5013e-05
7.17366e-05
5.86756e-05
4.95367e-05
4.70429e-05
4.9707e-05
4.44804e-05
0.0157246
0.0142189
0.0134586
0.0121459
0.0106662
0.00955282
0.0111717
5.90181e-05
5.52077e-05
5.32369e-05
5.22915e-05
0.01146
0.010324
0.00970826
0.00908684
0.00951034
0.00848322
0.00710496
0.056908
0.0596824
0.0505879
0.205563
0.210024
0.217938
0.219926
0.224528
0.212071
0.229751
0.233869
0.240624
0.231752
0.210435
0.2157
0.215918
7.02313e-05
6.46208e-05
6.31569e-05
5.71095e-05
5.6641e-05
5.20152e-05
5.05501e-05
4.59183e-05
4.45975e-05
4.28596e-05
4.21623e-05
0.044348
0.0542586
0.0488169
0.0649165
0.0700078
0.0707768
0.0534716
0.0580758
0.0647592
0.058275
0.138137
0.131937
0.139402
0.13734
0.127611
0.135843
0.152595
0.146903
0.154055
0.226552
0.230721
0.237584
0.228191
0.228752
0.235546
0.237074
0.239601
0.232281
0.239153
0.241443
0.242895
0.00865226
0.00787235
0.00929999
3.00769e-05
2.78316e-05
2.64291e-05
2.62767e-05
0.1654
0.159575
0.152964
0.158149
6.48107e-07
6.71883e-07
5.85338e-07
6.09598e-07
7.4275e-07
8.51936e-07
5.50358e-07
4.77657e-07
6.70073e-07
1.03429e-06
1.07052e-06
9.33419e-07
1.29095e-06
0.0272918
0.0259437
0.0232304
0.0275363
6.60791e-05
8.82519e-05
0.000129259
8.8807e-05
0.000161435
0.000196411
0.000226599
0.000270223
0.000358353
0.000266669
0.000113324
0.000140338
0.00019428
0.000139167
0.0134137
0.0120691
0.0113529
0.196156
0.203853
0.205158
0.216404
0.223182
0.225855
1.2835e-05
1.22998e-05
1.65965e-05
1.21903e-05
8.94397e-06
1.14511e-05
0.0185006
0.042225
0.0392893
0.0345798
0.0406159
0.018364
0.0214858
0.0201851
0.0254796
0.0301679
0.0272989
0.000579631
0.000561548
0.000544985
0.000902905
0.000908834
0.00105129
7.95695e-06
8.45292e-06
1.00423e-05
0.000715278
0.000623555
0.000814456
0.00120544
0.00118836
0.00135985
0.000941417
0.000872743
0.000948803
0.000892417
0.00104317
0.000966402
0.00106282
0.00114829
0.000965132
0.00106521
0.00889842
0.00863691
0.0083893
0.0142517
0.0144658
0.0130409
0.0152214
0.098589
0.0952982
0.0893182
0.0980077
0.0404574
0.0396542
0.0383285
0.030196
0.0277818
0.0275503
0.0260747
0.0458705
0.0438493
0.0453549
0.0415236
0.000234091
0.000202869
0.00021458
0.043021
0.0383497
0.0394399
0.0372206
0.0351439
0.0361403
0.170299
0.17612
0.183514
2.65985e-05
2.21582e-05
1.8307e-05
2.46605e-05
1.18945e-05
9.10958e-06
7.4673e-06
9.76332e-06
5.31292e-07
4.45648e-07
4.65095e-07
3.83728e-07
4.45019e-07
3.98755e-07
4.78038e-07
3.45455e-07
2.79421e-07
2.43021e-07
2.65409e-07
0.13121
0.137313
0.127515
0.136146
0.132474
0.130852
0.123065
0.12196
0.118186
0.0304739
0.028778
0.0299718
0.0268545
2.343e-05
1.71724e-05
1.63591e-05
1.43117e-05
1.20027e-05
1.35052e-05
1.03945e-05
9.04062e-06
8.7503e-06
1.08143e-05
8.86158e-06
7.995e-06
6.88903e-06
0.0050523
0.00470067
0.00412823
0.00500828
0.0146473
0.0153003
0.0146269
0.019694
0.0199877
0.0192726
0.00689292
0.00609757
0.00572494
2.00357e-05
1.6707e-05
2.0337e-05
1.47366e-05
1.34798e-05
1.78481e-05
0.000806574
0.000931885
0.000919205
0.00132515
0.0011766
0.00102994
0.00113322
1.72369e-05
1.33647e-05
1.43296e-05
0.0905737
0.0855315
0.0839499
0.112257
0.108501
0.105399
0.114753
0.111069
0.112114
0.107379
0.101355
0.0988454
0.101699
0.0951913
0.00532538
0.0049643
0.00443171
0.00143956
0.00520946
0.0638469
0.0609729
0.0543402
0.0218631
0.0172911
0.0149051
0.0168248
0.00879558
0.00855502
0.00970421
0.00787646
0.00663342
0.00725554
0.169714
0.113296
0.177697
0.177437
0.183529
0.065045
0.0656813
0.0698141
0.0506944
0.0474992
0.0475373
0.186764
0.000876479
0.177466
0.0437892
0.152942
0.150716
0.146162
0.0269805
0.0226014
0.027104
0.0175217
0.0145029
0.0183232
0.0189469
0.0180548
0.0160646
0.0193991
0.253049
0.249099
0.243518
0.248658
9.42363e-05
9.23897e-05
9.78772e-05
8.94279e-05
0.111528
0.148778
0.116103
0.116752
0.119751
0.145861
0.152561
0.154752
9.34622e-05
0.000105076
8.61145e-05
7.24703e-05
6.96751e-05
7.35339e-05
6.65054e-05
0.193125
0.222317
0.201231
0.208399
0.198801
0.0837922
0.0880288
0.0804301
0.0317223
0.0308591
0.0344949
0.02613
0.000145111
0.000387277
0.0224671
8.17165e-07
1.8954e-06
1.40908e-06
1.67268e-06
9.9432e-05
0.0397137
0.0448193
0.0470003
0.0450093
0.0479489
0.000240151
0.0526328
9.34333e-06
1.1659e-05
0.000834585
9.70489e-06
0.00112989
0.00116309
0.0540404
0.00092672
0.079171
0.00215198
0.00225691
0.0690423
0.00172828
0.103458
1.4685e-06
5.30166e-07
1.24129e-06
0.101092
0.000996032
0.0030321
0.102379
0.0691297
1.18666e-05
9.66043e-06
0.0011104
0.000523776
0.00128703
1.0287e-05
2.61811e-05
0.00117731
0.000894242
0.000278202
0.000920877
0.092406
0.0911561
0.00126814
0.0947207
0.00121171
0.000355108
0.000986238
0.0757613
0.129664
0.000400435
0.116999
0.00324118
0.162645
6.36934e-05
0.0124667
0.0143704
0.160713
6.72055e-05
0.158906
0.170354
0.0555116
0.000104518
0.057735
0.000269795
0.0548481
0.0139148
8.61768e-05
0.000122842
0.00775274
7.94182e-05
0.184861
0.00772324
0.180666
7.80511e-05
0.0182749
0.0188796
0.0168223
0.0815298
8.75359e-05
0.0844801
0.0723811
0.129538
6.23198e-05
0.0804181
6.46737e-06
0.00417373
0.00392264
0.000574349
0.00040703
9.20814e-06
0.0332319
0.0830613
0.0388877
0.270796
7.31966e-06
0.0299526
1.14667e-05
8.40884e-05
7.8382e-05
0.000267223
0.0186025
0.00615055
0.0107389
0.00558491
1.97009e-06
3.76876e-06
0.000187003
0.000267156
0.000233952
0.00363946
0.031739
0.262813
0.0382123
0.0102484
3.60973e-05
0.00362479
3.27732e-05
3.82918e-05
0.00402907
0.26376
0.26434
0.0559509
0.083674
0.0148975
0.086118
0.0160418
0.0764987
0.0717622
0.00686725
0.00254777
0.00305799
0.00297753
0.0440511
0.040007
0.049364
0.000234783
0.000106421
0.252836
0.0282445
0.0590405
0.0282161
0.0303384
0.243128
0.0253889
0.253637
2.86581e-06
1.23891e-06
3.33244e-06
0.083934
0.0767562
0.0496935
1.5631e-06
1.17441e-05
0.0178278
0.234005
0.0168687
0.0057315
3.76636e-05
5.42866e-05
0.00605528
5.43124e-06
2.95356e-06
0.000273468
4.26531e-06
0.000219937
0.0330259
0.223744
0.0336097
0.193825
0.229128
4.85891e-06
4.79432e-06
0.000233183
0.000307677
0.220814
0.215268
0.0166449
0.20984
0.212509
0.0194002
0.0326256
0.20404
0.0298201
0.0380623
0.215807
0.221399
1.85539e-06
4.34604e-06
0.214308
3.77373e-06
0.0512766
0.0486245
0.00750913
0.0101439
0.0503028
0.0255226
0.0306705
0.0395324
0.202432
0.208034
3.07236e-06
2.6955e-06
0.194666
0.0379135
2.24743e-06
0.202479
2.75721e-06
0.000416342
0.000363216
0.00551437
0.000657149
0.00492815
0.00121545
0.00917399
0.193017
0.100032
7.23623e-05
0.0879277
5.85321e-05
0.000297458
0.127111
0.0917658
0.0466164
0.0475069
0.00019692
0.0446237
0.000492009
0.100854
0.273966
0.0131449
0.275203
3.8223e-06
0.275594
0.0184931
0.0598532
0.275423
0.25905
0.015443
5.2552e-06
0.00055286
0.186241
0.169495
0.143739
0.00390013
0.00244921
0.110921
0.109863
0.00389714
0.000978783
0.104439
0.00406783
0.00311879
0.157835
0.154632
0.000998476
0.00518054
0.162012
0.00498872
7.59604e-06
0.000563799
6.81136e-06
0.000497795
0.000359034
0.00834777
0.00699512
0.0694748
9.45178e-05
0.0687893
0.112058
0.0611139
0.00691818
0.00635538
7.71428e-05
0.0240609
0.0228678
0.00107694
0.000251906
3.7985e-06
0.00408498
0.00456443
0.000543552
0.000598816
0.191487
0.135521
0.00384799
0.0144928
0.000425884
3.4075e-06
0.00295252
9.56943e-05
0.000102457
8.76779e-05
0.0643496
3.30039e-06
2.9712e-06
0.00050184
0.110968
0.179727
0.172332
2.92603e-06
0.000189798
2.51786e-06
0.000164719
2.91712e-06
0.000587314
0.104089
0.0975658
0.00278885
3.4088e-05
0.00244111
0.00289498
0.10742
8.53403e-05
0.144236
0.0827266
0.000119263
0.00376169
0.000143424
0.156208
0.000836643
0.000750932
0.0116787
0.000743605
0.000519922
1.13517e-05
1.50955e-05
0.10275
2.21631e-05
0.0530111
1.53886e-05
0.0456021
0.215402
0.0418062
0.209779
0.0274409
0.000266765
0.000215741
1.20139e-05
8.03928e-06
0.000176581
0.000381613
0.000332004
0.000290356
0.000141284
0.000121898
0.000112828
0.000142331
0.00306428
0.011405
0.0123578
0.00329324
0.0262032
0.00886353
0.00209605
0.00214361
0.00185913
0.00245969
0.0113033
0.0129921
0.00164088
0.253315
0.004154
0.258248
0.000753613
0.122619
0.0164251
0.000955182
0.0165757
0.0010643
0.000728514
0.00144505
0.00131619
0.0195038
0.0482803
0.0501409
0.000135043
0.000347863
0.0527544
0.047849
0.000351445
0.0282974
0.0114519
0.0242288
0.0014289
0.00179199
0.0490363
0.228326
0.196013
0.0336138
0.189951
0.0255504
0.182506
0.0307925
0.188807
0.156327
0.219212
0.00305231
0.220752
0.000539962
0.00251973
0.0160374
0.000201557
0.00830139
0.000237792
0.000231514
0.0191413
0.00991894
0.0349647
5.41279e-06
0.0453986
0.256154
0.038498
6.2239e-05
6.7334e-05
0.0706173
0.000286981
0.0198082
7.46544e-05
0.0459277
0.0273616
0.0507916
0.239019
0.0448818
0.233848
5.49379e-05
0.018443
0.000145724
0.226041
0.00592591
0.0341761
0.0907372
0.000269747
0.000607276
0.000113232
0.00130816
0.0282509
0.0013032
0.120527
0.000139169
0.120616
0.000326684
0.0118451
0.000277407
0.0211271
0.262641
0.0525491
0.0562864
0.0624967
0.0252941
0.00739
0.0269239
0.259022
0.0209506
0.0231198
0.258243
0.257749
0.261562
0.0131958
0.255341
0.0233353
0.0138121
0.025933
0.0340866
0.260627
0.246182
0.262662
0.0157302
0.257344
0.0157061
0.000162443
0.000315055
0.00068586
0.000726346
0.00764535
0.109763
0.000233147
0.00297202
0.00299758
0.012987
0.00565222
0.149986
0.00197348
2.39117e-05
0.00173805
2.29159e-05
1.9966e-05
0.0140306
0.206503
0.0765766
0.000127976
0.0757606
0.0805453
0.0709873
0.000357958
0.158144
0.161344
0.157553
0.00541604
0.168795
0.0342344
0.000131346
0.000132041
0.0326482
0.0302571
0.0323133
0.0648583
0.0580941
0.00263209
0.000756377
0.125574
0.000357779
4.13558e-05
0.00292074
0.00265629
0.173144
0.000601388
0.00189369
0.00386603
0.00288464
4.17514e-05
4.99871e-05
0.00199308
0.000323079
0.000301247
0.00214946
0.00039507
1.02553e-05
0.000404338
0.00312717
0.000335172
0.00253197
0.00595399
0.00249677
0.000240207
0.000288823
0.000646084
0.00186001
0.00213521
0.208651
0.173337
6.62949e-05
0.000122327
0.000368313
0.000103063
0.0658368
0.0597278
0.0591415
0.0358211
0.0829349
0.0762595
0.0983931
0.0913656
0.0909875
0.0475201
0.0861091
0.115399
0.00692876
0.0171908
0.00532287
0.0175693
0.104522
0.00476063
0.0151925
0.111051
0.0116218
0.0121607
0.0135919
0.000234862
0.173369
0.0571933
0.0565868
0.0606442
0.067004
0.000275775
0.0494916
0.272935
0.126383
0.0149233
0.101722
0.129355
0.0996605
0.127786
0.00549389
0.125531
0.00402761
0.000265853
1.28818e-06
0.0119065
0.00330065
0.141667
0.00938377
0.00195991
0.0873758
0.14842
0.00933676
0.150668
0.143284
0.0026505
0.249021
0.0213801
0.0252263
0.0282395
0.00754198
0.0200821
0.0431774
0.000852664
0.00375129
0.000534896
0.0497375
0.049511
0.000548565
7.37916e-06
0.000434271
0.000501913
0.0453607
0.0730868
0.0122205
0.0809475
0.00205861
0.0833168
0.00162376
0.0613063
0.0021702
0.0613324
0.0913495
0.000292554
0.0389805
0.0436515
0.0356194
0.0431262
0.00015593
0.0412726
0.0578734
0.0399112
0.040662
0.0394446
0.000126689
0.149333
0.155499
0.142294
0.000609758
0.00126497
0.032669
0.0162233
0.00118005
0.00175821
0.0193124
0.00164117
0.00124733
0.00195899
0.00347752
0.00242356
0.0178898
0.142369
0.116487
0.00624719
0.00755491
0.00531772
0.000632965
0.00699842
0.0105497
0.000111372
8.89924e-06
8.92198e-05
0.0148824
8.41322e-06
0.000474221
0.247519
0.232138
0.0320313
0.225095
0.00248573
0.0023318
0.00071566
0.000771312
0.199338
0.0086366
0.00100021
0.00413992
0.202363
0.00650851
0.0367666
0.00937403
0.0198655
0.000184023
0.131472
0.0873209
0.00323616
0.205246
0.0840431
0.000178161
3.22858e-05
0.085367
0.00019997
0.0767978
2.27944e-06
0.000316267
0.000417971
3.86772e-05
0.0817633
0.000207486
0.000229539
0.00384738
0.217205
0.000769585
0.000152194
0.0745208
0.116849
0.000123943
0.00019319
7.65064e-05
8.311e-05
1.58352e-06
0.223138
0.258064
0.00782876
9.74393e-05
0.0472766
0.000107619
0.0468528
0.0873256
0.000105345
0.0422978
0.0418319
0.000103721
0.0364703
0.269308
0.0542837
0.000117191
0.0319176
0.0449334
0.227556
0.0484024
6.69418e-05
0.000399205
6.64376e-05
0.0850266
5.99883e-05
0.073136
0.0571975
0.000136264
0.0514969
0.212548
0.000126491
0.101899
0.0610483
0.000122793
0.0569562
9.92706e-05
0.0906528
5.96508e-05
9.04772e-05
0.000403149
0.093904
8.90442e-05
0.000116125
0.105558
0.000102787
0.00011395
0.000129149
0.151404
0.00380064
0.147146
0.000619671
0.153803
0.000582813
0.158434
0.000734909
0.161569
0.214774
0.215458
0.230858
0.0300852
0.215885
0.222263
0.0264323
0.042628
0.22016
0.00263293
0.00106693
0.146675
0.00102653
0.141556
0.00215189
0.022646
0.00113133
0.140889
0.138265
0.144986
0.0267122
0.00125677
0.13506
0.00228755
0.0159859
0.00217982
0.122944
0.145229
0.00197551
0.147948
0.00224307
0.131115
0.00155986
0.00717865
0.00274412
0.00207831
0.132385
0.0113514
0.151359
0.144372
0.00186953
0.00141228
0.000431014
0.153543
0.120175
0.149459
0.0014762
0.146037
0.000337317
0.150576
0.00132887
0.000313291
0.161438
0.00182843
0.15839
0.000401272
0.156792
0.0743941
0.00234073
0.000754397
0.00235952
0.0696119
0.0412731
0.0679317
0.000961576
0.0667631
0.000734714
0.0855199
0.00174956
0.0849549
0.00131646
0.00485769
0.0880137
0.0543555
0.189668
0.183836
0.0267592
0.181532