# vtk DataFile Version 2.0
Unstructured Grid by M++
ASCII
DATASET UNSTRUCTURED_GRID
POINTS 15808 float
  0.718750   0.625000 0
  0.718750   0.953125 0
  0.960938   0.882812 0
  0.734375   0.937500 0
  0.953125   0.882812 0
  0.726562   0.937500 0
  0.953125   0.875000 0
  0.507812   0.593750 0
  0.742188   0.531250 0
  0.945312   0.781250 0
  0.750000   0.726562 0
  0.960938   0.578125 0
  0.718750   0.640625 0
  0.726562   0.648438 0
  0.718750   0.648438 0
  0.789062   0.601562 0
  0.671875   0.914062 0
  0.765625   0.523438 0
  0.960938   0.804688 0
  0.734375   0.859375 0
  0.718750   0.867188 0
  0.726562   0.859375 0
  0.953125   0.796875 0
  0.515625   0.507812 0
  0.507812   0.515625 0
  0.945312   0.703125 0
  0.515625   0.531250 0
  0.515625   0.539062 0
  0.507812   0.546875 0
  0.945312   0.734375 0
  1.000000   0.671875 0
  0.765625   0.726562 0
  0.757812   0.734375 0
  0.750000   0.734375 0
  0.515625   0.796875 0
  0.515625   1.000000 0
  0.750000   0.937500 0
  0.523438   0.992188 0
  0.640625   0.679688 0
  0.523438   0.507812 0
  0.742188   0.632812 0
  0.867188   0.515625 0
  0.671875   0.851562 0
  0.789062   0.796875 0
  0.781250   0.796875 0
  0.789062   0.804688 0
  0.742188   0.671875 0
  0.507812   0.734375 0
  0.968750   0.617188 0
  0.734375   0.687500 0
  0.664062   0.648438 0
  0.578125   0.960938 0
  0.781250   0.531250 0
  0.773438   0.531250 0
  0.546875   0.789062 0
  0.750000   0.585938 0
  0.835938   0.562500 0
  0.812500   0.601562 0
  0.578125   0.867188 0
  0.804688   0.757812 0
  0.507812   0.992188 0
  0.742188   0.929688 0
  0.851562   0.976562 0
  0.851562   0.968750 0
  0.632812   0.617188 0
  0.789062   0.945312 0
  0.789062   0.937500 0
  0.781250   0.937500 0
  0.804688   0.531250 0
  0.640625   0.617188 0
  0.812500   0.929688 0
  0.804688   0.835938 0
  0.796875   0.835938 0
  0.773438   0.554688 0
  0.859375   0.867188 0
  0.835938   0.585938 0
  0.843750   0.593750 0
  0.812500   0.632812 0
  0.578125   0.898438 0
  0.570312   0.898438 0
  0.695312   0.585938 0
  0.984375   0.570312 0
  0.773438   0.507812 0
  0.789062   0.687500 0
  0.546875   0.960938 0
  0.867188   0.671875 0
  0.875000   0.664062 0
  0.875000   0.656250 0
  0.882812   0.585938 0
  0.796875   0.859375 0
  0.804688   0.867188 0
  0.867188   0.898438 0
  0.859375   0.898438 0
  0.625000   0.960938 0
  0.835938   0.617188 0
  0.812500   0.960938 0
  0.804688   0.585938 0
  0.804688   0.609375 0
  0.804688   0.617188 0
  0.921875   0.875000 0
  0.687500   0.929688 0
  0.914062   0.875000 0
  0.507812   0.765625 0
  0.742188   0.703125 0
  0.945312   0.953125 0
  0.835938   0.875000 0
  0.625000   0.523438 0
  0.867188   0.960938 0
  0.859375   0.960938 0
  0.835938   0.703125 0
  0.804688   0.640625 0
  0.804688   0.851562 0
  0.578125   0.906250 0
  0.953125   0.593750 0
  0.507812   0.796875 0
  0.945312   0.984375 0
  0.992188   0.718750 0
  0.828125   0.921875 0
  0.835938   0.906250 0
  0.601562   0.968750 0
  0.625000   0.554688 0
  0.585938   0.820312 0
  0.578125   0.820312 0
  0.820312   0.828125 0
  0.820312   0.835938 0
  0.835938   0.710938 0
  0.796875   0.757812 0
  0.554688   0.820312 0
  0.773438   0.664062 0
  0.546875   0.929688 0
  0.507812   0.695312 0
  0.820312   0.609375 0
  0.734375   1.000000 0
  0.976562   0.929688 0
  0.742188   0.984375 0
  0.507812   0.726562 0
  0.531250   0.601562 0
  0.945312   0.914062 0
  0.750000   0.539062 0
  0.515625   0.601562 0
  0.507812   0.804688 0
  0.789062   0.710938 0
  0.781250   0.710938 0
  0.781250   0.703125 0
  0.515625   0.703125 0
  0.523438   0.703125 0
  0.960938   0.890625 0
  0.867188   0.937500 0
  0.632812   1.000000 0
  0.984375   0.515625 0
  0.750000   0.570312 0
  0.515625   0.632812 0
  0.742188   0.578125 0
  0.851562   0.773438 0
  0.843750   0.765625 0
  0.789062   0.742188 0
  0.789062   0.734375 0
  0.781250   0.734375 0
  0.523438   0.734375 0
  0.750000   0.984375 0
  0.984375   0.906250 0
  0.507812   0.703125 0
  0.742188   0.640625 0
  0.945312   0.890625 0
  0.531250   0.578125 0
  0.859375   0.734375 0
  0.867188   0.734375 0
  0.859375   0.976562 0
  0.867188   0.968750 0
  0.507812   0.820312 0
  0.742188   0.757812 0
  0.507812   0.812500 0
  0.843750   0.796875 0
  0.851562   0.804688 0
  0.843750   0.804688 0
  0.585938   0.796875 0
  0.789062   0.773438 0
  0.804688   0.648438 0
  0.789062   0.765625 0
  0.781250   0.765625 0
  0.804688   0.593750 0
  0.804688   0.671875 0
  0.796875   0.671875 0
  0.804688   0.679688 0
  0.796875   0.687500 0
  0.671875   1.000000 0
  0.679688   1.000000 0
  0.921875   0.937500 0
  0.921875   0.929688 0
  0.570312   0.945312 0
  0.562500   0.945312 0
  0.742188   0.562500 0
  0.507812   0.625000 0
  0.976562   0.507812 0
  0.734375   0.781250 0
  0.507812   0.835938 0
  0.523438   0.710938 0
  0.734375   0.773438 0
  0.507812   0.828125 0
  0.820312   0.546875 0
  0.812500   0.546875 0
  0.820312   0.750000 0
  0.515625   0.726562 0
  0.882812   0.601562 0
  0.875000   0.601562 0
  0.828125   0.945312 0
  0.625000   0.585938 0
  0.820312   0.523438 0
  0.976562   0.539062 0
  0.507812   0.867188 0
  0.523438   0.742188 0
  0.734375   0.804688 0
  0.507812   0.859375 0
  0.843750   0.851562 0
  0.828125   0.562500 0
  0.820312   0.570312 0
  0.820312   0.578125 0
  0.828125   0.578125 0
  0.781250   0.828125 0
  0.781250   0.820312 0
  0.757812   0.539062 0
  0.515625   0.757812 0
  0.828125   0.976562 0
  0.625000   0.617188 0
  0.804688   0.726562 0
  0.796875   0.726562 0
  0.804688   0.718750 0
  0.796875   0.718750 0
  0.570312   0.585938 0
  0.781250   0.648438 0
  0.523438   0.765625 0
  0.984375   0.546875 0
  0.742188   0.609375 0
  0.742188   0.617188 0
  0.507812   0.679688 0
  0.734375   0.625000 0
  0.976562   0.617188 0
  0.765625   0.554688 0
  0.773438   0.593750 0
  0.976562   0.843750 0
  0.835938   0.992188 0
  0.835938   0.984375 0
  0.828125   0.984375 0
  0.507812   0.898438 0
  0.734375   0.835938 0
  0.851562   0.882812 0
  0.843750   0.882812 0
  0.820312   0.601562 0
  0.796875   0.734375 0
  0.796875   0.843750 0
  0.781250   0.843750 0
  0.789062   0.851562 0
  0.992188   0.914062 0
  0.781250   0.851562 0
  0.523438   0.843750 0
  0.750000   0.531250 0
  0.765625   0.515625 0
  0.757812   0.515625 0
  0.523438   0.578125 0
  0.515625   0.789062 0
  0.523438   0.781250 0
  0.757812   0.718750 0
  0.960938   0.968750 0
  0.859375   0.585938 0
  0.664062   0.609375 0
  0.804688   0.750000 0
  0.796875   0.750000 0
  0.859375   0.781250 0
  0.867188   0.789062 0
  0.859375   0.789062 0
  0.750000   0.640625 0
  0.734375   0.640625 0
  0.742188   0.648438 0
  0.507812   0.710938 0
  0.968750   0.585938 0
  0.734375   0.656250 0
  0.507812   0.906250 0
  0.742188   0.843750 0
  0.828125   0.617188 0
  0.828125   0.609375 0
  0.820312   0.625000 0
  0.812500   0.625000 0
  0.585938   0.890625 0
  0.585938   0.882812 0
  0.812500   0.828125 0
  0.757812   0.593750 0
  0.992188   0.523438 0
  0.750000   0.593750 0
  0.515625   0.656250 0
  0.828125   0.718750 0
  0.828125   0.710938 0
  0.820312   0.718750 0
  0.796875   0.867188 0
  1.000000   0.921875 0
  0.789062   0.578125 0
  0.992188   0.828125 0
  0.539062   0.695312 0
  0.531250   0.687500 0
  0.570312   0.750000 0
  0.750000   0.710938 0
  0.515625   0.773438 0
  0.742188   0.718750 0
  0.515625   0.976562 0
  0.625000   0.664062 0
  0.734375   0.867188 0
  0.851562   0.914062 0
  0.859375   0.906250 0
  0.625000   0.968750 0
  0.843750   0.914062 0
  0.609375   0.976562 0
  0.843750   0.906250 0
  0.523438   0.875000 0
  0.546875   0.757812 0
  0.750000   0.562500 0
  0.515625   0.625000 0
  0.765625   0.546875 0
  0.968750   0.609375 0
  0.757812   0.546875 0
  0.523438   0.609375 0
  0.523438   0.820312 0
  0.515625   0.820312 0
  0.960938   1.000000 0
  0.523438   0.812500 0
  0.515625   0.812500 0
  0.835938   0.531250 0
  0.882812   0.695312 0
  0.882812   0.687500 0
  0.859375   0.617188 0
  0.617188   0.687500 0
  0.875000   0.992188 0
  0.664062   0.632812 0
  0.898438   0.570312 0
  0.664062   0.640625 0
  0.804688   0.781250 0
  0.796875   0.781250 0
  0.804688   0.789062 0
  0.515625   0.828125 0
  0.750000   0.765625 0
  0.523438   0.835938 0
  0.757812   0.773438 0
  0.515625   0.835938 0
  0.515625   0.843750 0
  0.859375   0.812500 0
  0.867188   0.820312 0
  0.859375   0.820312 0
  0.507812   0.937500 0
  0.742188   0.875000 0
  0.828125   0.648438 0
  0.820312   0.656250 0
  0.812500   0.656250 0
  0.585938   0.914062 0
  0.710938   0.601562 0
  0.703125   0.601562 0
  1.000000   0.562500 0
  0.757812   0.625000 0
  0.523438   0.687500 0
  0.992188   0.554688 0
  0.750000   0.625000 0
  0.515625   0.687500 0
  0.523438   0.882812 0
  0.648438   0.570312 0
  0.640625   0.570312 0
  0.882812   0.500000 0
  0.789062   0.609375 0
  0.992188   0.859375 0
  0.507812   0.843750 0
  0.742188   0.781250 0
  0.531250   0.718750 0
  0.515625   0.851562 0
  0.750000   0.789062 0
  0.539062   0.726562 0
  0.539062   0.718750 0
  0.976562   0.906250 0
  0.742188   0.500000 0
  0.507812   0.562500 0
  0.570312   0.789062 0
  0.671875   0.945312 0
  0.960938   0.929688 0
  0.546875   0.617188 0
  0.851562   0.945312 0
  0.843750   0.937500 0
  0.609375   1.000000 0
  0.570312   0.554688 0
  0.523438   0.906250 0
  0.843750   0.773438 0
  0.828125   0.890625 0
  0.820312   0.890625 0
  0.617188   1.000000 0
  0.796875   0.523438 0
  0.914062   0.781250 0
  0.687500   0.835938 0
  0.750000   0.875000 0
  0.515625   0.937500 0
  0.781250   0.742188 0
  0.992188   0.804688 0
  0.765625   0.859375 0
  0.750000   0.867188 0
  0.968750   0.921875 0
  0.757812   0.859375 0
  0.523438   0.921875 0
  0.984375   0.796875 0
  0.976562   0.703125 0
  0.804688   0.539062 0
  0.914062   0.789062 0
  0.921875   0.789062 0
  0.687500   0.843750 0
  0.804688   0.820312 0
  0.820312   0.695312 0
  0.804688   0.812500 0
  0.796875   0.812500 0
  0.750000   0.703125 0
  0.515625   0.765625 0
[...]
CELL_DATA 30592
SCALARS scalar_value float 1
LOOKUP_TABLE default
1.98427e-06
1.64069e-06
1.47932e-06
1.22132e-06
1.03284e-06
8.72612e-07
1.17303e-06
1.09026e-06
8.98563e-07
7.94817e-07
7.63382e-07
1.09801e-06
9.52558e-07
9.68365e-07
0.02345
0.0231804
0.0223863
0.0236618
0.0228322
0.0222269
0.0144044
0.0138742
0.0131915
0.0142959
0.0121113
0.0113872
0.0121048
0.0117779
0.0101611
0.00845412
0.0107287
0.0458584
0.0456619
0.0491097
0.0439252
0.19311
0.191025
0.188762
0.18507
0.182876
0.179616
0.160163
0.152589
0.152661
0.146889
0.138967
0.13915
0.144726
0.160778
0.166641
0.173601
0.178955
0.183274
0.172327
0.000487737
0.000446384
0.000440513
0.000427223
0.000402069
0.000382589
0.000931691
0.00105017
0.000968821
0.00101517
0.00108576
0.00107756
0.00113041
2.82726e-06
1.38158e-06
2.31565e-06
1.97513e-06
1.95729e-06
1.61675e-06
1.37014e-06
8.10115e-07
1.11433e-06
1.59152e-06
1.38335e-06
1.13881e-06
1.00448e-06
9.6157e-07
1.30925e-06
1.06097e-06
9.21791e-07
8.60683e-07
0.00072154
0.000564757
0.000969874
0.000919654
0.000714166
0.000551287
0.000570726
0.000566377
0.000771917
0.000470517
0.000726025
0.00058415
0.000535551
0.000449982
0.000944107
0.00083719
0.00100336
0.000679789
0.000385873
0.000355445
0.000436327
4.18167e-05
2.96736e-05
2.97249e-05
2.36343e-05
2.55389e-05
2.93517e-05
3.43739e-05
3.12145e-05
0.126357
0.117445
0.116417
0.131184
0.13001
0.13433
0.000352056
0.000306464
0.000325085
0.00026573
0.000294291
0.000252805
0.000261371
0.000199061
0.000171687
0.000181564
0.000148011
0.000122455
9.36363e-05
0.000102563
0.000155635
0.000114738
0.000127107
8.51407e-05
8.32812e-05
7.73479e-05
9.64557e-05
7.63434e-05
8.6945e-05
8.64299e-05
9.6319e-05
0.000107935
9.75184e-05
0.000119658
0.0837949
0.0794684
0.0791799
0.000246464
0.000217656
0.000268461
0.000221814
0.000200101
0.000230547
0.00164905
0.00127083
0.000933254
0.0012542
0.000412909
0.000360933
0.000322369
0.000385756
0.000340095
0.000310521
0.197902
0.193891
0.189604
0.192559
0.000547326
0.000488902
0.000421818
1.82632e-05
1.57025e-05
1.32482e-05
1.51641e-05
1.13627e-05
1.0954e-05
9.38233e-06
9.61017e-06
8.27303e-06
7.20791e-06
7.91308e-06
1.25818e-05
1.07772e-05
9.04481e-06
0.0618085
0.0592793
0.0543705
0.0619876
0.0475136
0.0454031
0.0477758
0.0139284
0.0240103
0.0146729
0.016931
0.0139593
0.0196387
0.0232929
0.0201103
0.0193593
0.0932766
0.0841702
0.0841828
0.0115687
0.0104494
0.00975461
0.075511
0.0699304
0.0670952
0.041541
0.0393534
0.0396465
0.006224
0.0056278
0.00528099
0.00586574
0.276236
0.277338
0.278398
0.275863
0.0092359
0.00746121
0.00659031
0.273826
0.273613
0.275568
0.270043
0.0330207
0.0317649
0.029973
0.0321466
0.030375
0.032096
0.000464191
0.000448247
0.000391633
0.000517337
0.000399677
0.000299745
0.000337864
0.000492896
0.000430181
0.000373582
0.0896546
0.0818384
0.0792046
0.091643
0.088504
0.0899452
0.000941548
0.00102131
0.00104673
0.0983798
0.101412
0.0945068
0.0515468
0.0501704
0.0527882
0.0477533
0.0656058
0.0651475
0.0704323
0.0621682
0.111889
0.11075
0.118259
0.124732
0.13218
0.125874
0.139843
0.138702
0.14629
0.000868057
0.000975714
0.000984323
0.000998116
0.150345
0.15177
0.158552
0.144701
0.157416
0.16462
0.172437
0.145989
0.152559
0.159747
0.153648
0.000819227
0.000889534
0.00104381
0.000867934
0.00158866
0.00203304
0.00153884
0.000923971
0.00101488
0.000987105
0.135632
0.134116
0.142038
0.17338
0.186395
0.179892
0.0754783
0.0699178
0.0670701
0.0672296
0.0216059
0.0230314
0.0198102
0.00107932
0.000824881
0.000847249
0.000634949
0.000526031
0.000506367
0.114476
0.112094
0.115002
0.00196806
0.00236655
0.00249553
0.00272321
0.00342286
0.00287277
0.00280989
0.00329299
0.00352966
0.00314098
0.00360144
0.00374202
0.133227
0.124947
0.123118
0.109603
0.0978093
0.0997286
0.112217
0.10357
0.100749
0.100825
0.130857
0.131524
0.122786
0.127833
0.0809777
0.123787
0.123517
0.116171
8.56089e-05
8.87715e-05
9.66038e-05
8.90925e-05
9.93705e-05
0.000103669
9.16772e-05
9.156e-05
0.000101003
9.29516e-05
0.0184771
0.0152235
0.0145553
0.0133742
0.00958806
0.010201
0.00859672
0.133298
0.139628
0.147224
0.140369
0.124917
0.133029
0.125153
0.00934921
0.00922097
0.0076819
0.00905917
0.00839447
0.00887653
0.00744284
0.00936747
0.00874758
0.00772772
0.130816
0.136238
0.144533
0.135758
0.157508
0.16206
0.169287
0.139838
0.144275
0.152491
0.142941
0.000350443
0.000269345
0.000253901
0.156952
0.153022
0.149328
0.126794
0.128764
0.122802
0.0984235
0.0926805
0.0888332
0.00610402
0.00575326
0.00514615
0.00615296
0.259827
0.259116
0.26256
0.253302
0.00134041
0.00128999
0.0011408
0.000530846
0.000565024
0.000462909
0.000515058
0.000313635
0.000414023
0.000651025
0.000585868
0.000646743
0.00102758
0.00080676
0.000998229
0.0162781
0.0136305
0.0124394
0.00289218
0.00268107
0.000668489
0.00234047
0.0028749
3.95556e-06
4.67992e-06
4.59608e-06
3.43266e-06
2.9738e-06
3.9961e-06
6.30542e-06
6.07642e-06
5.29586e-06
6.89598e-06
0.000588637
0.000425866
0.000628733
5.67531e-06
5.03388e-06
5.31783e-06
4.41339e-06
3.70436e-06
4.71732e-06
0.000281054
0.000243842
0.000209889
0.00023024
3.86216e-06
3.37575e-06
2.91731e-06
3.2532e-06
0.0276031
0.0268217
0.0256865
0.161153
0.165187
0.172226
0.162112
0.166014
0.173106
0.177028
0.000130405
0.000253278
0.000129982
0.000152738
0.000119415
0.00017781
0.000271406
0.000175115
0.000204389
0.000159465
0.000108477
0.000106952
0.000124604
9.7815e-05
0.00465501
0.00464516
0.00511513
0.00360573
0.00297817
0.00364826
0.00534982
0.004966
0.00528916
0.019178
0.0197299
0.0143776
0.221841
0.225066
0.219271
0.00193534
0.0018615
0.00169992
0.215249
0.216867
0.22275
0.209779
0.0273065
0.0372669
0.030522
0.0486855
0.0612078
0.0528811
0.0339118
0.037765
0.0448559
3.39658e-05
3.37832e-05
2.3474e-05
0.252324
0.252866
0.249428
0.0190735
0.0260034
0.0217278
0.0283176
0.0343907
0.0377853
0.0346169
0.0407313
0.0444357
0.100629
0.0995128
0.103907
0.0933559
1.71252e-05
1.77558e-05
2.20258e-05
0.0406334
0.0468337
0.0474999
0.0502422
0.0455175
0.0514843
0.0525263
0.0542204
0.0373004
0.0333309
0.0323795
0.0275838
0.0238942
0.0229176
0.102245
0.101264
0.106415
0.0942642
0.000595389
0.000489475
0.000433513
0.000353404
0.000272894
0.000364542
0.00033262
0.000282863
0.248579
0.241318
0.251493
0.251983
0.256164
0.246111
0.239095
0.23792
0.242496
0.230404
0.000219537
0.000273283
0.000308991
0.000281727
0.000355265
0.000237054
0.000216948
0.000188369
0.000362697
0.000316683
0.000405265
0.00400343
0.00349513
0.00426826
0.00281033
0.00224095
0.00276228
0.172614
0.166834
0.165397
0.157661
0.156018
0.148368
0.156021
0.148134
0.144978
0.0745455
0.0712319
0.0723486
0.0679662
0.000173251
0.000196248
0.000181687
0.000224838
0.000233663
0.000262413
0.000253162
0.00019204
0.000216664
0.00020506
0.187094
0.182004
0.179331
0.00117388
0.00103969
0.000906671
1.47608e-06
1.73466e-06
1.96862e-06
3.42329e-06
1.28982e-06
1.33146e-06
1.17129e-06
1.61367e-06
2.31845e-06
2.492e-06
2.21797e-06
6.44509e-06
3.04536e-06
0.00869232
0.0189764
0.0180943
0.0192031
0.0161718
0.0127712
0.0135471
0.0113239
0.144116
0.13769
0.143973
0.00096736
0.000782199
0.00094924
0.000649812
0.000611687
0.000551467
0.000672615
0.219986
0.227161
0.227458
0.232385
4.28857e-05
4.27068e-05
3.80933e-05
4.49173e-05
4.8899e-05
3.97384e-05
3.36719e-05
3.16254e-05
3.34088e-05
2.96448e-05
0.0110097
0.00986107
0.00924034
0.00826119
0.00722436
0.00641041
0.00763756
4.08084e-05
3.78478e-05
3.6086e-05
3.58565e-05
0.0077159
0.00688692
0.00641004
0.00603983
0.00646771
0.00571881
0.00477581
0.0399659
0.0420422
0.0349245
0.231616
0.235513
0.2426
0.243647
0.247321
0.236717
0.25249
0.255598
0.260915
0.253314
0.234778
0.239154
0.238724
4.72976e-05
4.31818e-05
4.17058e-05
3.82324e-05
3.66985e-05
3.34555e-05
3.21616e-05
2.95818e-05
2.93945e-05
2.79404e-05
2.7795e-05
0.0544903
0.0662099
0.0594128
0.0786177
0.0842447
0.084822
0.0644317
0.0695402
0.0774202
0.069489
0.114922
0.10854
0.117087
0.116126
0.106259
0.115667
0.132498
0.126103
0.135217
0.251056
0.254391
0.259972
0.251872
0.253228
0.258813
0.26024
0.261899
0.255058
0.260571
0.2628
0.263202
0.006865
0.00621975
0.00748974
1.85447e-05
1.70237e-05
1.60062e-05
1.60682e-05
0.138188
0.132465
0.125714
0.131665
2.76659e-07
2.89662e-07
2.50187e-07
2.62343e-07
3.24396e-07
3.7556e-07
2.35747e-07
2.02636e-07
2.91105e-07
4.62675e-07
4.80869e-07
4.15231e-07
5.8798e-07
0.018072
0.0171062
0.0151207
0.0183564
8.48673e-05
0.000112461
0.000164519
0.000112632
0.000203273
0.000245843
0.000286294
0.000339488
0.000449964
0.000333703
0.000142099
0.000174883
0.00024213
0.000172619
0.00822316
0.00731595
0.00681572
0.203428
0.208499
0.210109
0.214114
0.218787
0.222057
6.70553e-06
6.44719e-06
9.08237e-06
6.54575e-06
4.68531e-06
6.13358e-06
0.0114977
0.0285538
0.0263716
0.0228902
0.0274168
0.0203447
0.0235039
0.021951
0.0274418
0.0319484
0.0288613
0.000275534
0.000265999
0.000257703
0.000451002
0.000455548
0.000533603
4.13323e-06
4.42223e-06
5.32735e-06
0.000353521
0.00030632
0.000408686
0.000621459
0.000614337
0.000711729
0.00051415
0.000524247
0.000578027
0.000548564
0.000639495
0.000601993
0.000666525
0.000729576
0.000612602
0.000680973
0.0051965
0.00501999
0.00487534
0.0122821
0.0125508
0.0113026
0.0132808
0.0783015
0.075384
0.0697994
0.0783438
0.0291926
0.0284371
0.0274835
0.0212076
0.0192804
0.0190218
0.0179728
0.0357179
0.0337446
0.0347483
0.0317405
0.000109288
9.35529e-05
9.88261e-05
0.0325743
0.028503
0.029792
0.0279218
0.0260513
0.0266774
0.185152
0.189289
0.19485
1.28431e-05
1.06388e-05
8.69101e-06
1.19686e-05
5.54324e-06
4.21527e-06
3.42097e-06
4.56143e-06
2.20155e-07
1.81524e-07
1.86882e-07
1.55222e-07
1.74189e-07
1.54165e-07
1.84378e-07
1.32938e-07
1.10388e-07
9.46258e-08
1.02426e-07
0.12369
0.128848
0.119543
0.126483
0.122407
0.119691
0.113617
0.111491
0.107439
0.0226726
0.0211582
0.0219769
0.0195873
1.11792e-05
8.00775e-06
7.68126e-06
6.60162e-06
5.51105e-06
6.27085e-06
4.68627e-06
4.02667e-06
3.92857e-06
4.98858e-06
4.0432e-06
3.60948e-06
3.12412e-06
0.00286076
0.00264599
0.00229619
0.00284147
0.0136841
0.0141688
0.0134619
0.0180116
0.0181194
0.0174017
0.00402913
0.00352221
0.00328015
1.11866e-05
9.19599e-06
1.13842e-05
8.03579e-06
7.31566e-06
9.89797e-06
0.000402109
0.000470426
0.00046529
0.000695144
0.000611842
0.000529046
0.000590316
9.56165e-06
7.26583e-06
7.87301e-06
0.0733255
0.0684425
0.0666545
0.0979135
0.0941137
0.0904516
0.0995205
0.0952861
0.0955692
0.091621
0.0878725
0.0847992
0.0867896
0.0812002
0.00298042
0.00276396
0.00244231
0.000734243
0.00292278
0.0451148
0.0428631
0.037629
0.0165312
0.0128631
0.0109762
0.0125208
0.00672397
0.0065548
0.00771581
0.00616366
0.00508083
0.00566682
0.185018
0.13232
0.191344
0.191429
0.195265
0.0500878
0.0509021
0.054737
0.0383238
0.0354894
0.0353265
0.157887
0.000558616
0.148604
0.0319748
0.123984
0.122043
0.117414
0.0176482
0.0145193
0.0178318
0.010907
0.00885698
0.0114852
0.0119586
0.0113499
0.00997252
0.0123292
0.234687
0.229453
0.222148
0.229243
7.51578e-05
7.28771e-05
7.72148e-05
6.99267e-05
0.134477
0.176316
0.139552
0.140383
0.143551
0.171649
0.178821
0.180938
7.00135e-05
7.76994e-05
6.32151e-05
5.33686e-05
5.07363e-05
5.35395e-05
4.80014e-05
0.21777
0.246195
0.224446
0.230224
0.222122
0.0717355
0.0750222
0.0684597
0.02075
0.0201219
0.0227382
0.0167732
0.000187264
0.000282055
0.0149766
3.57857e-07
8.90498e-07
6.47211e-07
7.78575e-07
4.4199e-05
0.051079
0.0571955
0.0380205
0.0334137
0.0381855
0.000196434
0.0419979
4.43256e-06
5.62447e-06
0.000411852
4.65359e-06
0.000936126
0.000951667
0.0399309
0.000774054
0.0646067
0.00183955
0.00190786
0.0522971
0.00148846
0.0873102
6.76725e-07
2.26056e-07
5.64848e-07
0.0829953
0.00091652
0.0025653
0.084717
0.0520489
5.7798e-06
4.77091e-06
0.000561852
0.000247097
0.000659466
5.17249e-06
1.50389e-05
0.000993506
0.000756884
0.000256486
0.00079455
0.0779837
0.0756812
0.00107607
0.0795112
0.00104163
0.000335242
0.000855753
0.0591396
0.13755
0.000467502
0.125635
0.00432078
0.189206
4.54577e-05
0.00860415
0.00954792
0.187063
4.79561e-05
0.18544
0.197039
0.0462601
9.42586e-05
0.0483896
0.000234415
0.0452241
0.00900661
6.04271e-05
7.93057e-05
0.00993576
5.52379e-05
0.21203
0.00987385
0.208035
5.73267e-05
0.0130494
0.012859
0.0120555
0.089288
0.000103379
0.0912015
0.0790437
0.13466
7.29887e-05
0.0875884
7.67777e-06
0.00231629
0.00215903
0.000343755
0.000256385
1.0785e-05
0.0377119
0.0891629
0.0439
0.278592
8.6337e-06
0.0343239
1.34711e-05
6.44561e-05
5.88922e-05
0.000190301
0.0121719
0.00418441
0.00710569
0.00389038
9.24312e-07
1.87307e-06
8.41091e-05
0.00012812
0.000110836
0.00342001
0.0342343
0.253144
0.0405269
0.00747349
2.16101e-05
0.00209469
1.94796e-05
2.31354e-05
0.00235606
0.277013
0.276205
0.0391199
0.0632648
0.0127642
0.0649323
0.013825
0.0567015
0.054597
0.00561879
0.00179174
0.00219274
0.00192546
0.0344471
0.0307059
0.0397681
0.00019446
9.24733e-05
0.234197
0.0306351
0.0598657
0.030426
0.0323269
0.221508
0.0275167
0.242021
1.38947e-06
5.55366e-07
1.63573e-06
0.0685179
0.0615948
0.0340853
7.00987e-07
5.23052e-06
0.0191277
0.213209
0.0182342
0.00344416
2.4355e-05
3.35072e-05
0.00368806
2.78224e-06
1.42488e-06
0.000126002
2.13979e-06
9.95981e-05
0.0330115
0.200593
0.0331413
0.165045
0.206883
2.46586e-06
2.43303e-06
0.000106715
0.000148862
0.197937
0.191637
0.0173476
0.185107
0.187437
0.0201412
0.0319268
0.178755
0.0291132
0.0366477
0.189833
0.196155
8.47217e-07
2.17426e-06
0.188573
1.87052e-06
0.0360577
0.0340165
0.00623298
0.00823872
0.035515
0.016403
0.0308057
0.036832
0.174338
0.180441
1.49015e-06
1.29494e-06
0.165979
0.0349262
1.06447e-06
0.174547
1.32889e-06
0.000208488
0.00018035
0.00308414
0.000311205
0.00272509
0.000722794
0.0116062
0.219955
0.0959256
7.75013e-05
0.084002
6.20075e-05
0.000308897
0.115637
0.0881944
0.0353655
0.0358665
0.00016355
0.0332961
0.000373302
0.0958596
0.279091
0.0157304
0.277848
4.8595e-06
0.277886
0.0217052
0.0657969
0.276336
0.269039
0.0182001
6.66069e-06
0.000704689
0.198072
0.186536
0.163626
0.00233402
0.00126719
0.0933116
0.0916921
0.0033373
0.000918999
0.0861606
0.00345209
0.00268009
0.142538
0.139087
0.00103482
0.00479228
0.147965
0.00468481
4.01405e-06
0.00028415
3.56085e-06
0.000247903
0.000168978
0.0052979
0.00439952
0.0711654
0.00010231
0.069337
0.107802
0.0623725
0.0041175
0.00375397
4.94072e-05
0.0159575
0.0150932
0.000792716
0.000119189
1.88752e-06
0.00259015
0.0029153
0.000690991
0.000757997
0.200935
0.113403
0.00363365
0.0131498
0.00054222
4.28279e-06
0.00180637
9.27718e-05
9.84099e-05
8.48766e-05
0.0569815
1.62062e-06
3.82404e-06
0.000644084
0.130921
0.193753
0.189135
1.42296e-06
8.79111e-05
1.2096e-06
7.53612e-05
1.41911e-06
0.000555542
0.087281
0.087564
0.00153812
2.06052e-05
0.00132502
0.00247405
0.08991
0.000103972
0.154841
0.0933717
0.00014548
0.00317336
0.000173889
0.165267
0.000582883
0.000517241
0.00713059
0.000518402
0.00026226
1.36522e-05
1.80346e-05
0.110998
2.65549e-05
0.0599096
1.82652e-05
0.051486
0.188877
0.0399274
0.182634
0.0280323
0.000132304
0.000106826
1.47749e-05
9.80095e-06
8.19054e-05
0.000186091
0.000160447
0.000138629
6.50859e-05
5.56725e-05
5.16892e-05
6.45283e-05
0.00222511
0.00680472
0.00728919
0.00241647
0.0173925
0.00505384
0.00146513
0.00137072
0.00128882
0.00177029
0.00675624
0.00770641
0.00115823
0.269245
0.00532078
0.272235
0.000965471
0.143584
0.0104233
0.000680086
0.0105689
0.000724417
0.000515112
0.000993447
0.000911942
0.0126523
0.0378405
0.0391214
0.000114985
0.000278201
0.0414248
0.0369004
0.00027737
0.0192534
0.00691304
0.0161417
0.00100703
0.00128747
0.033563
0.213489
0.167873
0.0311215
0.161499
0.0254915
0.153635
0.0283684
0.160615
0.127066
0.244697
0.00404233
0.245489
0.000704215
0.00333696
0.0196099
0.00012907
0.00493879
0.000154635
0.000151242
0.0125959
0.00601982
0.0410245
6.69492e-06
0.0526327
0.273807
0.0446184
6.38457e-05
6.84852e-05
0.0652799
0.000188795
0.0130455
7.60817e-05
0.0462502
0.0291164
0.050394
0.216548
0.0443376
0.210568
5.72317e-05
0.0193107
7.5768e-05
0.251255
0.00765908
0.0410041
0.0879661
0.000283116
0.000288972
5.7594e-05
0.000660258
0.0191529
0.00065859
0.114517
0.000149774
0.113527
0.000219295
0.00731754
0.000184367
0.0140706
0.277152
0.0651566
0.069906
0.0768719
0.0163183
0.00589051
0.0175281
0.252967
0.0234015
0.0255142
0.250199
0.241352
0.253833
0.0150975
0.245648
0.0255964
0.015425
0.0284625
0.0363433
0.248832
0.225423
0.25084
0.0179034
0.24397
0.0176836
0.000205411
0.000140622
0.000375854
0.000373772
0.00693925
0.0867598
0.000114755
0.00203176
0.00219895
0.00786851
0.00518024
0.13339
0.00106079
1.40987e-05
0.000928893
1.29561e-05
1.16703e-05
0.0144311
0.182699
0.0661209
0.00012197
0.0647593
0.0653708
0.0615223
0.000324807
0.184958
0.188544
0.184725
0.00713316
0.196215
0.0263298
0.000103241
0.00010256
0.0248162
0.0215619
0.0248343
0.0569198
0.0515425
0.0013919
0.000429756
0.134431
0.000421185
4.96501e-05
0.00155594
0.00140557
0.143916
0.000374454
0.000951856
0.00210196
0.00153623
1.98284e-05
2.37873e-05
0.0010389
0.000181788
0.000180682
0.00112931
0.000227
1.19362e-05
0.00023683
0.0016946
0.000204357
0.00134474
0.00344634
0.0013282
0.000124308
0.00014914
0.00031009
0.00247455
0.00285656
0.234833
0.199373
3.22587e-05
6.07861e-05
0.000381537
5.12746e-05
0.0467415
0.041879
0.0413921
0.0285004
0.10174
0.0940397
0.0738115
0.067786
0.0674766
0.0400317
0.0633351
0.0893603
0.00430971
0.0156766
0.00340219
0.0158911
0.0799846
0.0030716
0.0138647
0.0862057
0.00719735
0.00757925
0.00857373
0.000160199
0.155515
0.0640843
0.0630888
0.0670161
0.0596759
0.000259242
0.0553786
0.279749
0.10596
0.0134354
0.0769381
0.107005
0.0760339
0.104693
0.00511014
0.103445
0.003743
0.00034103
1.63077e-06
0.0108853
0.00239356
0.122039
0.0085196
0.00190813
0.104331
0.167125
0.00859793
0.131779
0.122562
0.00255824
0.267684
0.0271499
0.0320668
0.0356305
0.00596474
0.0126427
0.0301217
0.000499576
0.00203508
0.000252908
0.0353043
0.0353602
0.000261704
3.43844e-06
0.000203211
0.000238408
0.0310247
0.0545955
0.0102671
0.0618372
0.00168387
0.0667885
0.00135063
0.0458967
0.00180465
0.0456786
0.0744803
0.000130694
0.0490902
0.0544848
0.0447059
0.0347758
0.000128661
0.0330363
0.040374
0.0315686
0.0305822
0.0315815
0.000103719
0.165389
0.169818
0.157844
0.000750554
0.000908251
0.0226833
0.0102367
0.000857189
0.00123084
0.0124651
0.00121418
0.000916214
0.000998867
0.0020627
0.00151848
0.0164019
0.118926
0.0907322
0.00406539
0.00475315
0.00345596
0.000810568
0.00459304
0.00764994
7.6601e-05
3.92222e-06
6.11302e-05
0.0100231
4.48588e-06
0.000228037
0.230791
0.207994
0.0335134
0.199684
0.00149322
0.00138533
0.000880227
0.000941128
0.198245
0.011109
0.00049484
0.005504
0.230245
0.0084529
0.0445836
0.00749722
0.0124584
0.000199767
0.125141
0.0874049
0.00432963
0.232628
0.0835967
0.000192014
3.53712e-05
0.0841574
0.000213564
0.0765299
2.84066e-06
0.000402016
0.000327818
4.17811e-05
0.0800982
0.000216255
0.000236858
0.00507698
0.243372
0.000373538
0.000161178
0.0731144
0.109361
6.43771e-05
0.000204812
7.60052e-05
8.12044e-05
6.98305e-07
0.245564
0.274597
0.00978231
9.87302e-05
0.0446048
0.00010809
0.0438323
0.0789451
0.000104961
0.0391561
0.0324907
8.67562e-05
0.0395546
0.263117
0.0438106
0.000102757
0.0346197
0.0438466
0.202927
0.047114
6.93117e-05
0.000294712
6.93132e-05
0.0800627
6.19779e-05
0.0685731
0.0540731
0.00013825
0.049043
0.185395
0.000130522
0.093739
0.0586206
0.000125719
0.0542793
0.000101386
0.0831815
2.84001e-05
9.3923e-05
0.000401922
0.0874436
9.1716e-05
0.000121814
0.0985698
0.00010873
6.00999e-05
6.90644e-05
0.13683
0.00351422
0.133435
0.000648195
0.141656
0.000622136
0.145409
0.000783
0.148924
0.234221
0.188747
0.21025
0.0308249
0.235367
0.196808
0.0275262
0.0412505
0.237012
0.00191388
0.00108177
0.129912
0.00103528
0.134878
0.00153479
0.0148682
0.00112262
0.132917
0.120569
0.138887
0.0179386
0.0009427
0.129269
0.00159606
0.0100226
0.00204281
0.10268
0.132642
0.00187791
0.136563
0.00158422
0.111937
0.00150255
0.00638612
0.00195169
0.00198453
0.112302
0.0144475
0.140408
0.134098
0.00181217
0.00138209
0.000468326
0.143937
0.119814
0.140979
0.00145145
0.137041
0.000364986
0.143484
0.00132828
0.000344881
0.15442
0.00181637
0.150773
0.000443933
0.147706
0.0582106
0.00187693
0.000656853
0.0018735
0.0538288
0.0290302
0.0521261