# vtk DataFile Version 2.0
Unstructured Grid by M++
ASCII
DATASET UNSTRUCTURED_GRID
POINTS 15808 float
  0.718750   0.625000 0
  0.718750   0.953125 0
  0.960938   0.882812 0
  0.734375   0.937500 0
  0.953125   0.882812 0
  0.726562   0.937500 0
  0.953125   0.875000 0
  0.507812   0.593750 0
  0.742188   0.531250 0
  0.945312   0.781250 0
  0.750000   0.726562 0
  0.960938   0.578125 0
  0.718750   0.640625 0
  0.726562   0.648438 0
  0.718750   0.648438 0
  0.789062   0.601562 0
  0.671875   0.914062 0
  0.765625   0.523438 0
  0.960938   0.804688 0
  0.734375   0.859375 0
  0.718750   0.867188 0
  0.726562   0.859375 0
  0.953125   0.796875 0
  0.515625   0.507812 0
  0.507812   0.515625 0
  0.945312   0.703125 0
  0.515625   0.531250 0
  0.515625   0.539062 0
  0.507812   0.546875 0
  0.945312   0.734375 0
  1.000000   0.671875 0
  0.765625   0.726562 0
  0.757812   0.734375 0
  0.750000   0.734375 0
  0.515625   0.796875 0
  0.515625   1.000000 0
  0.750000   0.937500 0
  0.523438   0.992188 0
  0.640625   0.679688 0
  0.523438   0.507812 0
  0.742188   0.632812 0
  0.867188   0.515625 0
  0.671875   0.851562 0
  0.789062   0.796875 0
  0.781250   0.796875 0
  0.789062   0.804688 0
  0.742188   0.671875 0
  0.507812   0.734375 0
  0.968750   0.617188 0
  0.734375   0.687500 0
  0.664062   0.648438 0
  0.578125   0.960938 0
  0.781250   0.531250 0
  0.773438   0.531250 0
  0.546875   0.789062 0
  0.750000   0.585938 0
  0.835938   0.562500 0
  0.812500   0.601562 0
  0.578125   0.867188 0
  0.804688   0.757812 0
  0.507812   0.992188 0
  0.742188   0.929688 0
  0.851562   0.976562 0
  0.851562   0.968750 0
  0.632812   0.617188 0
  0.789062   0.945312 0
  0.789062   0.937500 0
  0.781250   0.937500 0
  0.804688   0.531250 0
  0.640625   0.617188 0
  0.812500   0.929688 0
  0.804688   0.835938 0
  0.796875   0.835938 0
  0.773438   0.554688 0
  0.859375   0.867188 0
  0.835938   0.585938 0
  0.843750   0.593750 0
  0.812500   0.632812 0
  0.578125   0.898438 0
  0.570312   0.898438 0
  0.695312   0.585938 0
  0.984375   0.570312 0
  0.773438   0.507812 0
  0.789062   0.687500 0
  0.546875   0.960938 0
  0.867188   0.671875 0
  0.875000   0.664062 0
  0.875000   0.656250 0
  0.882812   0.585938 0
  0.796875   0.859375 0
  0.804688   0.867188 0
  0.867188   0.898438 0
  0.859375   0.898438 0
  0.625000   0.960938 0
  0.835938   0.617188 0
  0.812500   0.960938 0
  0.804688   0.585938 0
  0.804688   0.609375 0
  0.804688   0.617188 0
  0.921875   0.875000 0
  0.687500   0.929688 0
  0.914062   0.875000 0
  0.507812   0.765625 0
  0.742188   0.703125 0
  0.945312   0.953125 0
  0.835938   0.875000 0
  0.625000   0.523438 0
  0.867188   0.960938 0
  0.859375   0.960938 0
  0.835938   0.703125 0
  0.804688   0.640625 0
  0.804688   0.851562 0
  0.578125   0.906250 0
  0.953125   0.593750 0
  0.507812   0.796875 0
  0.945312   0.984375 0
  0.992188   0.718750 0
  0.828125   0.921875 0
  0.835938   0.906250 0
  0.601562   0.968750 0
  0.625000   0.554688 0
  0.585938   0.820312 0
  0.578125   0.820312 0
  0.820312   0.828125 0
  0.820312   0.835938 0
  0.835938   0.710938 0
  0.796875   0.757812 0
  0.554688   0.820312 0
  0.773438   0.664062 0
  0.546875   0.929688 0
  0.507812   0.695312 0
  0.820312   0.609375 0
  0.734375   1.000000 0
  0.976562   0.929688 0
  0.742188   0.984375 0
  0.507812   0.726562 0
  0.531250   0.601562 0
  0.945312   0.914062 0
  0.750000   0.539062 0
  0.515625   0.601562 0
  0.507812   0.804688 0
  0.789062   0.710938 0
  0.781250   0.710938 0
  0.781250   0.703125 0
  0.515625   0.703125 0
  0.523438   0.703125 0
  0.960938   0.890625 0
  0.867188   0.937500 0
  0.632812   1.000000 0
  0.984375   0.515625 0
  0.750000   0.570312 0
  0.515625   0.632812 0
  0.742188   0.578125 0
  0.851562   0.773438 0
  0.843750   0.765625 0
  0.789062   0.742188 0
  0.789062   0.734375 0
  0.781250   0.734375 0
  0.523438   0.734375 0
  0.750000   0.984375 0
  0.984375   0.906250 0
  0.507812   0.703125 0
  0.742188   0.640625 0
  0.945312   0.890625 0
  0.531250   0.578125 0
  0.859375   0.734375 0
  0.867188   0.734375 0
  0.859375   0.976562 0
  0.867188   0.968750 0
  0.507812   0.820312 0
  0.742188   0.757812 0
  0.507812   0.812500 0
  0.843750   0.796875 0
  0.851562   0.804688 0
  0.843750   0.804688 0
  0.585938   0.796875 0
  0.789062   0.773438 0
  0.804688   0.648438 0
  0.789062   0.765625 0
  0.781250   0.765625 0
  0.804688   0.593750 0
  0.804688   0.671875 0
  0.796875   0.671875 0
  0.804688   0.679688 0
  0.796875   0.687500 0
  0.671875   1.000000 0
  0.679688   1.000000 0
  0.921875   0.937500 0
  0.921875   0.929688 0
  0.570312   0.945312 0
  0.562500   0.945312 0
  0.742188   0.562500 0
  0.507812   0.625000 0
  0.976562   0.507812 0
  0.734375   0.781250 0
  0.507812   0.835938 0
  0.523438   0.710938 0
  0.734375   0.773438 0
  0.507812   0.828125 0
  0.820312   0.546875 0
  0.812500   0.546875 0
  0.820312   0.750000 0
  0.515625   0.726562 0
  0.882812   0.601562 0
  0.875000   0.601562 0
  0.828125   0.945312 0
  0.625000   0.585938 0
  0.820312   0.523438 0
  0.976562   0.539062 0
  0.507812   0.867188 0
  0.523438   0.742188 0
  0.734375   0.804688 0
  0.507812   0.859375 0
  0.843750   0.851562 0
  0.828125   0.562500 0
  0.820312   0.570312 0
  0.820312   0.578125 0
  0.828125   0.578125 0
  0.781250   0.828125 0
  0.781250   0.820312 0
  0.757812   0.539062 0
  0.515625   0.757812 0
  0.828125   0.976562 0
  0.625000   0.617188 0
  0.804688   0.726562 0
  0.796875   0.726562 0
  0.804688   0.718750 0
  0.796875   0.718750 0
  0.570312   0.585938 0
  0.781250   0.648438 0
  0.523438   0.765625 0
  0.984375   0.546875 0
  0.742188   0.609375 0
  0.742188   0.617188 0
  0.507812   0.679688 0
  0.734375   0.625000 0
  0.976562   0.617188 0
  0.765625   0.554688 0
  0.773438   0.593750 0
  0.976562   0.843750 0
  0.835938   0.992188 0
  0.835938   0.984375 0
  0.828125   0.984375 0
  0.507812   0.898438 0
  0.734375   0.835938 0
  0.851562   0.882812 0
  0.843750   0.882812 0
  0.820312   0.601562 0
  0.796875   0.734375 0
  0.796875   0.843750 0
  0.781250   0.843750 0
  0.789062   0.851562 0
  0.992188   0.914062 0
  0.781250   0.851562 0
  0.523438   0.843750 0
  0.750000   0.531250 0
  0.765625   0.515625 0
  0.757812   0.515625 0
  0.523438   0.578125 0
  0.515625   0.789062 0
  0.523438   0.781250 0
  0.757812   0.718750 0
  0.960938   0.968750 0
  0.859375   0.585938 0
  0.664062   0.609375 0
  0.804688   0.750000 0
  0.796875   0.750000 0
  0.859375   0.781250 0
  0.867188   0.789062 0
  0.859375   0.789062 0
  0.750000   0.640625 0
  0.734375   0.640625 0
  0.742188   0.648438 0
  0.507812   0.710938 0
  0.968750   0.585938 0
  0.734375   0.656250 0
  0.507812   0.906250 0
  0.742188   0.843750 0
  0.828125   0.617188 0
  0.828125   0.609375 0
  0.820312   0.625000 0
  0.812500   0.625000 0
  0.585938   0.890625 0
  0.585938   0.882812 0
  0.812500   0.828125 0
  0.757812   0.593750 0
  0.992188   0.523438 0
  0.750000   0.593750 0
  0.515625   0.656250 0
  0.828125   0.718750 0
  0.828125   0.710938 0
  0.820312   0.718750 0
  0.796875   0.867188 0
  1.000000   0.921875 0
  0.789062   0.578125 0
  0.992188   0.828125 0
  0.539062   0.695312 0
  0.531250   0.687500 0
  0.570312   0.750000 0
  0.750000   0.710938 0
  0.515625   0.773438 0
  0.742188   0.718750 0
  0.515625   0.976562 0
  0.625000   0.664062 0
  0.734375   0.867188 0
  0.851562   0.914062 0
  0.859375   0.906250 0
  0.625000   0.968750 0
  0.843750   0.914062 0
  0.609375   0.976562 0
  0.843750   0.906250 0
  0.523438   0.875000 0
  0.546875   0.757812 0
  0.750000   0.562500 0
  0.515625   0.625000 0
  0.765625   0.546875 0
  0.968750   0.609375 0
  0.757812   0.546875 0
  0.523438   0.609375 0
  0.523438   0.820312 0
  0.515625   0.820312 0
  0.960938   1.000000 0
  0.523438   0.812500 0
  0.515625   0.812500 0
  0.835938   0.531250 0
  0.882812   0.695312 0
  0.882812   0.687500 0
  0.859375   0.617188 0
  0.617188   0.687500 0
  0.875000   0.992188 0
  0.664062   0.632812 0
  0.898438   0.570312 0
  0.664062   0.640625 0
  0.804688   0.781250 0
  0.796875   0.781250 0
  0.804688   0.789062 0
  0.515625   0.828125 0
  0.750000   0.765625 0
  0.523438   0.835938 0
  0.757812   0.773438 0
  0.515625   0.835938 0
  0.515625   0.843750 0
  0.859375   0.812500 0
  0.867188   0.820312 0
  0.859375   0.820312 0
  0.507812   0.937500 0
  0.742188   0.875000 0
  0.828125   0.648438 0
  0.820312   0.656250 0
  0.812500   0.656250 0
  0.585938   0.914062 0
  0.710938   0.601562 0
  0.703125   0.601562 0
  1.000000   0.562500 0
  0.757812   0.625000 0
  0.523438   0.687500 0
  0.992188   0.554688 0
  0.750000   0.625000 0
  0.515625   0.687500 0
  0.523438   0.882812 0
  0.648438   0.570312 0
  0.640625   0.570312 0
  0.882812   0.500000 0
  0.789062   0.609375 0
  0.992188   0.859375 0
  0.507812   0.843750 0
  0.742188   0.781250 0
  0.531250   0.718750 0
  0.515625   0.851562 0
  0.750000   0.789062 0
  0.539062   0.726562 0
  0.539062   0.718750 0
  0.976562   0.906250 0
  0.742188   0.500000 0
  0.507812   0.562500 0
  0.570312   0.789062 0
  0.671875   0.945312 0
  0.960938   0.929688 0
  0.546875   0.617188 0
  0.851562   0.945312 0
  0.843750   0.937500 0
  0.609375   1.000000 0
  0.570312   0.554688 0
  0.523438   0.906250 0
  0.843750   0.773438 0
  0.828125   0.890625 0
  0.820312   0.890625 0
  0.617188   1.000000 0
  0.796875   0.523438 0
  0.914062   0.781250 0
  0.687500   0.835938 0
  0.750000   0.875000 0
  0.515625   0.937500 0
  0.781250   0.742188 0
  0.992188   0.804688 0
  0.765625   0.859375 0
  0.750000   0.867188 0
  0.968750   0.921875 0
  0.757812   0.859375 0
  0.523438   0.921875 0
  0.984375   0.796875 0
  0.976562   0.703125 0
  0.804688   0.539062 0
  0.914062   0.789062 0
  0.921875   0.789062 0
  0.687500   0.843750 0
  0.804688   0.820312 0
  0.820312   0.695312 0
  0.804688   0.812500 0
  0.796875   0.812500 0
  0.750000   0.703125 0
  0.515625   0.765625 0
[...]
CELL_DATA 30592
SCALARS scalar_value float 1
LOOKUP_TABLE default
0.000213695
0.000186663
0.000182186
0.000159121
0.000129751
0.000114487
0.000133467
0.000154028
0.000134456
0.000129162
0.000110463
0.000113212
0.000101599
9.14852e-05
0.0191487
0.0208412
0.0209821
0.0253577
0.0262826
0.0259999
0.0208513
0.0200945
0.0197485
0.0198914
0.0162167
0.0157916
0.0155164
0.135688
0.127785
0.11888
0.130414
0.0651209
0.0686354
0.0751646
0.0684231
0.118624
0.119152
0.126487
0.101179
0.101984
0.0938618
0.0438016
0.0399774
0.0410253
0.0363039
0.0332154
0.0341424
0.0375394
0.041436
0.0459319
0.0510041
0.0576243
0.0635526
0.0519639
0.0262562
0.0253153
0.0248445
0.0233871
0.0228946
0.0220542
0.000113375
0.000131364
0.000123667
0.00013477
0.000145582
0.000139211
0.000165117
0.000370425
0.000150997
0.000325984
0.000302423
0.000281319
0.000265872
0.000229567
9.72411e-05
0.000200667
0.000245995
0.000247094
0.000217829
0.000205703
0.000187499
0.000207743
0.000180826
0.000169918
0.000150077
0.0333662
0.0291855
0.0398131
0.0388634
0.0336299
0.0288907
0.031464
0.0314643
0.0376087
0.0283804
0.0366452
0.0324481
0.0311691
0.027859
0.0427993
0.0403956
0.0450546
0.0359384
0.0255137
0.0245488
0.0277851
7.70502e-06
5.57861e-06
5.82284e-06
4.27146e-06
6.13853e-06
7.37747e-06
8.49518e-06
8.16583e-06
0.0338275
0.0308
0.0314868
0.037075
0.0378901
0.0413982
0.0155638
0.014676
0.015632
0.0135289
0.0154569
0.0144174
0.0150604
0.0116833
0.01093
0.0116193
0.0100244
0.0102303
0.00889831
0.00901406
0.0108149
0.00921581
0.00934386
0.000989049
0.000944522
0.000899896
0.000989512
0.00086178
0.000888558
0.000836591
0.000939818
0.000889686
0.00084257
0.000885511
0.139939
0.142948
0.149725
0.00146454
0.00136288
0.00145561
0.00101785
0.000961792
0.000967342
0.0533559
0.0460934
0.0385121
0.0460804
0.00191839
0.00162666
0.00152407
0.00194885
0.00180955
0.0018051
0.171661
0.172402
0.178668
0.163585
0.00213146
0.00199531
0.00166925
0.00181437
0.00164203
0.00152574
0.00150959
0.00137819
0.00126656
0.00114375
0.00128123
0.00115929
0.00109324
0.00106118
0.00125948
0.00113894
0.00105371
0.191256
0.188582
0.187326
0.184657
0.182532
0.179472
0.176733
0.00849848
0.0224622
0.00940511
0.0107014
0.00936447
0.0131511
0.0272076
0.0144516
0.0145588
0.188001
0.195493
0.187936
0.0180046
0.0163737
0.0158753
0.201361
0.201282
0.198712
0.171563
0.173732
0.168513
0.0302458
0.0253394
0.0236371
0.024129
0.133988
0.134722
0.129988
0.141573
0.0460652
0.0393006
0.036553
0.149381
0.150338
0.145563
0.157321
0.0249894
0.0266597
0.0267881
0.0308939
0.0314875
0.0326174
0.0201109
0.0192263
0.0178396
0.0204574
0.0188035
0.0162631
0.0167023
0.0193665
0.0179569
0.0169029
0.036702
0.0330437
0.033257
0.0397538
0.0399214
0.0429912
0.000112659
0.00012253
0.000128375
0.114084
0.122337
0.113385
0.0861995
0.0898923
0.0973547
0.0888906
0.073758
0.0776877
0.0858139
0.0769182
0.0205179
0.0198985
0.0226597
0.0240635
0.0263183
0.0247944
0.0299207
0.0290497
0.0330794
9.68008e-05
0.000109563
0.000109237
0.00011407
0.0331556
0.0341111
0.0381549
0.0309325
0.0370507
0.0419582
0.0481961
0.0318486
0.0353531
0.0391618
0.0363554
0.000146013
0.000176633
0.000229833
0.000179889
0.000557864
0.00082828
0.000553003
0.000226131
0.000284135
0.000286783
0.0261402
0.0253988
0.02888
0.0492549
0.0628804
0.0561106
0.18693
0.187297
0.191825
0.184989
0.071356
0.0753116
0.0696453
0.00154366
0.00114774
0.00104293
0.000857482
0.000665943
0.000584059
0.0395028
0.0400503
0.0434894
0.0487844
0.0521073
0.0543662
0.0552526
0.0610472
0.0576817
0.0551058
0.0576718
0.0608038
0.0602295
0.063676
0.0636964
0.0611234
0.0560284
0.0520755
0.0518454
0.0473439
0.0438619
0.0439751
0.0399252
0.0402943
0.0367203
0.0659478
0.0703908
0.0604811
0.0751905
0.0360762
0.0753482
0.0798676
0.0690908
5.49549e-05
6.07494e-05
6.59726e-05
6.41571e-05
7.63621e-05
8.52868e-05
7.04946e-05
7.41496e-05
8.75344e-05
8.48504e-05
0.162974
0.150665
0.148075
0.142811
0.125078
0.128225
0.119867
0.0281832
0.0311008
0.0340447
0.0320181
0.0275816
0.0301553
0.0283731
0.105946
0.108142
0.10043
0.110194
0.108965
0.112016
0.104194
0.0985453
0.0955294
0.0914482
0.0320879
0.0352575
0.0385186
0.0361504
0.0461502
0.0505327
0.0552925
0.0405415
0.0442974
0.0483302
0.0452278
0.000118344
9.25966e-05
7.75467e-05
0.107982
0.100259
0.100721
0.122622
0.130872
0.122452
0.0967563
0.0885839
0.0879809
0.0997762
0.0969487
0.0926605
0.098275
0.17276
0.173733
0.169039
0.180542
0.0332134
0.0316581
0.0296819
0.0191987
0.0204941
0.0177877
0.0277865
0.0218582
0.0246603
0.0173562
0.0155395
0.0159007
0.0211342
0.0174577
0.0190487
0.152601
0.142243
0.137551
0.0683629
0.0656384
0.0325533
0.0617476
0.0666145
0.000152677
0.00016554
0.000160194
0.000140868
0.000127258
0.000148067
0.00019344
0.000184801
0.00017091
0.000195304
0.0305191
0.025456
0.0318175
0.00016997
0.000161824
0.000159311
0.000150523
0.000133807
0.000149615
0.0146575
0.0135202
0.012629
0.0127064
0.000141996
0.000131915
0.000123388
0.000126589
0.025277
0.0236637
0.0238656
0.0283957
0.0297039
0.0317625
0.0292243
0.0305231
0.0326281
0.0340442
0.000326832
0.00120987
0.00035509
0.000432615
0.000342415
0.000572923
0.0016669
0.000616854
0.000751546
0.000588096
0.00035611
0.000383092
0.000462715
0.000367865
0.0156989
0.0149254
0.0151455
0.0125683
0.010896
0.0118045
0.0145277
0.0135015
0.0135764
0.165507
0.16803
0.147069
0.195583
0.196471
0.202078
0.0158453
0.0140031
0.0132157
0.208429
0.209235
0.205337
0.21462
0.00411658
0.00601429
0.00489908
0.00832889
0.0110487
0.00964078
0.00580998
0.00677154
0.00822472
5.56684e-06
5.75276e-06
4.07427e-06
0.0976342
0.102751
0.0939395
0.00358183
0.00543389
0.00447241
0.00538092
0.00659277
0.00781559
0.00774233
0.00937894
0.0108182
0.220288
0.225319
0.226802
0.226216
3.16649e-06
3.42211e-06
4.4163e-06
0.0108536
0.0128441
0.0126196
0.0146247
0.0147529
0.0170865
0.0168172
0.0191684
0.202499
0.19658
0.196346
0.187803
0.178815
0.176644
0.249687
0.249166
0.249325
0.248016
0.0305683
0.0275043
0.0258597
0.0231319
0.0201816
0.023442
0.0223107
0.0205213
0.159868
0.169869
0.180531
0.181253
0.176584
0.187799
0.195045
0.195976
0.191646
0.20217
0.0133079
0.011772
0.0123034
0.0111189
0.0133534
0.0108213
0.0098062
0.00900162
0.0125179
0.0115436
0.0129328
0.0721358
0.0681783
0.0729695
0.0617318
0.0555525
0.0600754
0.0814406
0.0749769
0.069626
0.069928
0.064966
0.0597395
0.0592447
0.0544146
0.0501634
0.122366
0.125708
0.133077
0.12431
0.00812426
0.00846579
0.00760603
0.00920608
0.00854659
0.00880753
0.009544
0.00706504
0.00728148
0.00652976
0.0792847
0.0721527
0.0662621
0.0315265
0.0295809
0.0279729
0.000130699
0.000135345
0.000149653
0.000137674
0.000117726
0.000106754
9.7449e-05
0.000113634
0.000154458
0.000143312
0.000132014
0.000182382
0.000153025
0.105045
0.122869
0.123659
0.126766
0.119879
0.115607
0.118769
0.111174
0.218581
0.222055
0.212748
0.0168649
0.0137569
0.014748
0.0112799
0.00995122
0.00932716
0.00997418
0.0563869
0.0606537
0.0595329
0.0650469
0.000211163
0.000228941
0.000214312
0.000265479
0.000322439
0.000268277
0.000216267
0.000218915
0.000233432
0.000217087
0.0588426
0.0561621
0.0561155
0.0534078
0.0482206
0.0455287
0.048061
0.0002368
0.000231775
0.000239078
0.000217564
0.0532321
0.0505374
0.050241
0.0455754
0.0423723
0.0397539
0.0341674
0.206866
0.211771
0.201197
0.0590813
0.0618916
0.0666081
0.0691882
0.0728602
0.0642625
0.0749703
0.0785945
0.0841171
0.0781575
0.0642079
0.0681086
0.069609
0.000339672
0.000325095
0.000341373
0.000280062
0.000340618
0.000324361
0.000336166
0.000279598
0.000233911
0.00023996
0.000219145
0.00813899
0.010322
0.0093848
0.0128529
0.014312
0.0147522
0.0107952
0.0121003
0.0136228
0.0123883
0.210153
0.212691
0.203389
0.19504
0.196777
0.186481
0.18823
0.192415
0.179916
0.0703981
0.0735833
0.0787073
0.0725479
0.0713357
0.0762398
0.0770153
0.0796617
0.0758848
0.0812236
0.0822185
0.0849137
0.0175324
0.0161669
0.0171972
0.000229822
0.000221655
0.00022288
0.000208138
0.233457
0.233628
0.235892
0.229714
4.20421e-05
4.05325e-05
3.69259e-05
3.6394e-05
4.0502e-05
4.42219e-05
3.31665e-05
3.03344e-05
3.7062e-05
4.90778e-05
4.898e-05
4.50089e-05
5.43276e-05
0.146705
0.143083
0.137599
0.143631
8.80969e-06
1.22824e-05
1.81768e-05
1.26556e-05
2.39856e-05
3.0103e-05
3.32459e-05
4.08171e-05
5.4441e-05
4.10486e-05
1.71261e-05
2.19101e-05
3.04061e-05
2.22307e-05
0.110527
0.105751
0.104219
0.0959775
0.107019
0.106865
0.133103
0.142349
0.141394
0.000273377
0.000257382
0.000265286
0.000211162
0.000178607
0.000197673
0.134495
0.189025
0.183799
0.175154
0.184941
0.00609274
0.00757817
0.00740666
0.00970606
0.0124941
0.0115219
0.0191673
0.0190002
0.0184985
0.0221124
0.0218308
0.0235086
0.000165717
0.000166736
0.000182287
0.0186344
0.0168458
0.019489
0.0246887
0.0239936
0.0255962
0.0143886
0.00828241
0.008316
0.00740406
0.00884238
0.00742462
0.00788132
0.00789614
0.00660345
0.00701886
0.0943745
0.0935945
0.0915682
0.0184483
0.0180835
0.0163618
0.0184971
0.196342
0.194136
0.194273
0.189008
0.129756
0.13252
0.126929
0.110396
0.108653
0.111387
0.105714
0.0937841
0.0956908
0.101488
0.0940204
0.00854989
0.00794811
0.00844688
0.102794
0.101528
0.0953791
0.0934987
0.0943251
0.0993148
0.0633388
0.069981
0.078621
0.000835903
0.000718436
0.000633059
0.000751937
0.00045697
0.000364851
0.000316942
0.000370664
4.14331e-05
3.83876e-05
4.31707e-05
3.43185e-05
4.73065e-05
4.5234e-05
5.44548e-05
4.02782e-05
2.85155e-05
2.68506e-05
3.07203e-05
0.096537
0.104294
0.0964418
0.109363
0.109278
0.114242
0.101034
0.105793
0.105434
0.0804033
0.0810495
0.0855082
0.0790901
0.000788637
0.000659174
0.000602459
0.000584362
0.000502358
0.000530039
0.000483954
0.00045165
0.000416477
0.000440294
0.000384148
0.000368103
0.000309508
0.0649535
0.06234
0.0585309
0.063341
0.0123514
0.0135541
0.0133817
0.0188338
0.0200413
0.0197049
0.0739342
0.0699025
0.0689013
0.000276515
0.000251245
0.0002746
0.000232388
0.000215385
0.000253083
0.019999
0.0215158
0.0209248
0.0246617
0.0230186
0.0216034
0.0219898
0.000242579
0.000209945
0.000210747
0.15797
0.159349
0.164523
0.126671
0.125858
0.129868
0.134657
0.138597
0.146135
0.137623
0.116834
0.120893
0.128864
0.11985
0.0722746
0.0694636
0.0656145
0.0338186
0.0702346
0.219285
0.215718
0.209084
0.0546767
0.0476967
0.0436342
0.0464407
0.022656
0.0218018
0.019931
0.0173193
0.0164349
0.015919
0.0624545
0.0273544
0.070654
0.0700706
0.0780193
0.147285
0.142502
0.141797
0.123618
0.12376
0.128298
0.240728
0.00581763
0.241708
0.131266
0.247536
0.246202
0.248363
0.152045
0.141325
0.149551
0.129139
0.119004
0.130728
0.13112
0.128052
0.12212
0.130327
0.19851
0.202722
0.208556
0.201973
0.000166498
0.000173984
0.000185642
0.00017672
0.0231553
0.0332015
0.0244671
0.0245416
0.0255634
0.0340093
0.0362282
0.037238
0.0002415
0.000298084
0.000249505
0.000201086
0.000206303
0.000219549
0.000206764
0.0567085
0.0698309
0.0631045
0.0690355
0.0619022
0.102368
0.110627
0.101304
0.170587
0.168783
0.176895
0.156932
1.91004e-05
0.00128562
0.113184
4.47636e-05
6.51715e-05
5.51259e-05
6.04432e-05
0.00484871
0.00590253
0.00694278
0.0780886
0.121274
0.0866662
0.000406582
0.0940864
0.000327852
0.000372081
0.0219374
0.000322144
0.00188387
0.00206558
0.158132
0.00148629
0.127199
0.00299981
0.00332188
0.178395
0.00233969
0.141123
5.61584e-05
3.32461e-05
5.10521e-05
0.165314
0.000963685
0.00439198
0.159061
0.184446
0.000360609
0.00027811
0.0252978
0.0179078
0.0272884
0.000270258
0.0003059
0.00178551
0.00133872
0.000239683
0.00124728
0.123584
0.134474
0.00186734
0.13129
0.00167095
0.000274288
0.00129788
0.162817
0.0507168
9.09649e-05
0.0427281
0.000389211
0.0400806
0.000211309
0.0508182
0.0708878
0.0395564
0.000224881
0.0385387
0.0431798
0.0783251
9.21408e-05
0.0789579
0.000325897
0.0819702
0.0793444
0.000331528
0.000798252
0.00115995
0.000318399
0.0486352
0.00116993
0.046588
0.00022253
0.0613525
0.0810168
0.05576
0.0267145
1.78792e-05
0.029837
0.0240905
0.0562768
1.32598e-05
0.0271163
1.28027e-06
0.0600853
0.0590911
0.00547619
0.00285065
1.95308e-06
0.00919982
0.0302241
0.0110099
0.123275
1.49766e-06
0.00789171
2.39421e-06
0.000185983
0.00019414
0.0010027
0.102752
0.028286
0.0547265
0.023262
7.09661e-05
9.39322e-05
0.00834621
0.00843089
0.00791153
0.00305684
0.0117559
0.171479
0.0153696
0.0324462
0.000336973
0.0391052
0.000317025
0.000339845
0.0406777
0.107819
0.111371
0.207346
0.211239
0.0198952
0.21769
0.0208128
0.212629
0.18112
0.0115987
0.00987155
0.0106439
0.0185162
0.0880362
0.088636
0.0837594
0.000368831
0.00011582
0.199331
0.0102271
0.0295848
0.0105745
0.0121153
0.209338
0.00932237
0.175985
8.29334e-05
6.05774e-05
8.9805e-05
0.135765
0.136319
0.202761
7.79313e-05
0.000591902
0.00710524
0.205719
0.0064728
0.0495524
0.00021825
0.000435701
0.0486511
0.000114701
9.22973e-05
0.0106438
0.000101234
0.0094179
0.0189906
0.214194
0.0208777
0.239762
0.210984
0.000107989
0.000106294
0.00945655
0.00922013
0.212649
0.215346
0.00776454
0.219966
0.221785
0.00921853
0.0212393
0.222188
0.0198268
0.0266936
0.22604
0.223
8.31594e-05
0.000106293
0.22495
9.64248e-05
0.191384
0.187383
0.0117632
0.0179416
0.186103
0.154001
0.0172652
0.0328885
0.235888
0.23328
9.18339e-05
8.47426e-05
0.239318
0.0335705
7.69986e-05
0.235188
8.41883e-05
0.0103063
0.00945128
0.0745431
0.022681
0.0707363
0.0120622
0.00146631
0.0524124
0.0661633
2.47523e-05
0.0594132
2.11182e-05
0.00013029
0.113992
0.0600199
0.110499
0.11602
0.000299099
0.116424
0.00130985
0.0699612
0.130883
0.0028108
0.137704
5.28855e-07
0.138645
0.00435337
0.0192971
0.142456
0.114799
0.003579
7.3956e-07
7.87662e-05
0.0798847
0.0612538
0.0431596
0.034876
0.0493941
0.157652
0.1644
0.00526017
0.000850492
0.166816
0.00574254
0.00417022
0.157016
0.156747
0.000510155
0.00464877
0.151475
0.00414313
0.00013485
0.0133238
0.000128495
0.0125873
0.0123932
0.0534127
0.0472246
0.0326322
3.07338e-05
0.0352754
0.0730029
0.029484
0.0633218
0.0606171
0.000511338
0.129357
0.126092
0.00328521
0.00854985
9.49968e-05
0.0271678
0.029069
7.83516e-05
8.81233e-05
0.0880645
0.202179
0.00314253
0.0143114
6.07679e-05
5.0125e-07
0.0239218
5.64427e-05
6.38531e-05
5.18258e-05
0.0656288
8.83547e-05
3.84044e-07
6.92213e-05
0.0255582
0.071823
0.0630978
8.26336e-05
0.00728157
7.62808e-05
0.00677805
8.2028e-05
0.000473136
0.148309
0.092281
0.0389559
0.00029871
0.0373264
0.00399214
0.15644
1.48616e-05
0.0536779
0.0232128
2.06871e-05
0.00548687
2.57012e-05
0.0634373
0.00341883
0.00326843
0.0993664
0.00304337
0.0122711
2.10045e-06
2.89023e-06
0.0362244
4.18187e-06
0.014796
3.0471e-06
0.0128377
0.228418
0.0302842
0.231267
0.0141201
0.00711574
0.00588384
1.98141e-06
1.38681e-06
0.00674515
0.010884
0.00997816
0.00934947
0.00564897
0.00512987
0.00469697
0.0061754
0.00987895
0.106674
0.116557
0.0100135
0.14012
0.10063
0.00833037
0.0143642
0.00772104
0.00829372
0.105386
0.118944
0.00615137
0.098299
0.00061128
0.104451
0.000105471
0.0297508
0.112864
0.00347243
0.110526
0.00487565
0.00277458
0.00626133
0.00546576
0.118286
0.0952512
0.101478
0.000169937
0.000688192
0.103139
0.103333
0.000749198
0.130395
0.102837
0.126352
0.00541203
0.00610341
0.202162
0.180853
0.236587
0.029562
0.238596
0.015094
0.241594
0.0280921
0.237299
0.248711
0.0657008
0.000378106
0.0676242
6.94607e-05
0.000309723
0.00303615
0.00134998
0.0808673
0.00146595
0.0013977
0.101797
0.0859964
0.00807961
8.66326e-07
0.011116
0.0952692
0.00946998
2.66367e-05
3.02254e-05
0.0572919
0.00165419
0.105825
3.32916e-05
0.0244316
0.0111155
0.0290804
0.212444
0.0266846
0.215418
2.161e-05
0.00837875
0.00309887
0.0689393
0.000847292
0.00704231
0.0566773
0.000110072
0.0206297
0.00272912
0.0320393
0.133839
0.0315772
0.0842716
4.72955e-05
0.0888163
0.00168727
0.0932144
0.0015199
0.104958
0.104491
0.00928405
0.00989874
0.0115204
0.151414
0.0143493
0.154121
0.159546
0.00653789
0.00768972
0.165511
0.192273
0.165257
0.00373316
0.170072
0.00803996
0.00449538
0.00882213
0.0134241
0.17784
0.20622
0.178167
0.0044972
0.182477
0.00480203
2.36458e-05
0.0150617
0.0105452
0.0152432
0.00750864
0.21761
0.006511
0.0138898
0.00910681
0.112266
0.00531001
0.161843
0.0318937
0.00023624
0.0290539
0.000292522
0.000204437
0.00703304
0.215127
0.0890155
8.46616e-05
0.0930721
0.134169
0.0809015
0.000347092
0.0378751
0.0387322
0.0371997
0.000702351
0.0415511
0.0754451
0.000264215
0.000285457
0.0767242
0.101219
0.0717757
0.0693061
0.0589809
0.0492828
0.00967296
0.0467601
7.68175e-05
7.73371e-06
0.0523808
0.0495606
0.244577
0.00451453
0.0444577
0.0614419
0.0518655
0.00148144
0.00176171
0.0406805
0.00437461
0.00274655
0.0419147
0.00474875
2.24642e-06
0.00431712
0.0513125
0.00279499
0.0465328
0.066397
0.0453859
0.00522472
0.0062917
0.0213601
0.000221713
0.000248402
0.0601646
0.0455706
0.00205716
0.00336963
0.00016736
0.00282487
0.221058
0.215063
0.214787
0.0661532
0.0158118
0.0141443
0.242413
0.239259
0.238794
0.0636172
0.236561
0.242282
0.0496036
0.0166094
0.0334519
0.0177451
0.236105
0.028768
0.0145633
0.234012
0.0884945
0.088757
0.0926522
0.00112222
0.179739
0.0166798
0.0169472
0.019011
0.0661967
0.000212287
0.0145859
0.126242
0.188491
0.0153723
0.240666
0.204909
0.230988
0.211246
0.0047803
0.203425
0.00356615
3.63761e-05
1.8176e-07
0.0112478
0.0107708
0.182718
0.00918761
0.00141264
0.0186942
0.0448214
0.00847616
0.179245
0.191464
0.00197121
0.0906336
0.00333835
0.00392745
0.00455462
0.0153326
0.137799
0.173005
0.00927203
0.0604533
0.0193803
0.180855
0.175692
0.0174656
0.000286645
0.0153775
0.0163629
0.1919
0.199986
0.0180234
0.197921
0.00358925
0.151987
0.00262579
0.168248
0.00347527
0.173833
0.151969
0.0141639
0.0063701
0.00744627
0.0059027
0.0731207
0.000239876
0.0729342
0.213539
0.0752587
0.100762
0.0698451
0.000199139
0.0482316
0.0541546
0.0450655
0.000103763
0.0043599
0.133398
0.115057
0.0038392
0.00689651
0.12084
0.0048041
0.00382423
0.0431887
0.0327097
0.0178057
0.0168199
0.211289
0.238835
0.0355523
0.0507741
0.0307759
8.85055e-05
0.037926
0.0341829
0.000493308
0.000474111
0.000397087
0.0682391
0.000142333
0.0144773
0.192442
0.218513
0.0141605
0.223477
0.0222902
0.0221779
0.000123488
0.000141744
0.120993
0.00126775
0.0274189
0.000508312
0.0549273
0.000908935
0.00718111
0.0182517
0.138103
6.03748e-05
0.0916795
0.0460498
0.000381551
0.0568781
0.0458766
6.07429e-05
9.69114e-06
0.0488552
7.22624e-05
0.0416557
3.50667e-07
4.52772e-05
0.000928163
1.25128e-05
0.0484588
8.6253e-05
0.000101833
0.000489636
0.0637423
0.0233574
5.67766e-05
0.0439977
0.088548
0.00263492
7.25885e-05
3.90935e-05
4.65934e-05
8.69677e-05
0.0731208
0.0984192
0.00133442
4.5334e-05
0.0359349
5.27892e-05
0.0372518
0.0792194
5.39031e-05
0.0359737
0.0867937
0.000140116
0.0129516
0.161884
0.0911392
0.00012252
0.0114405
0.0286274
0.220548
0.0309871
2.73458e-05
0.00123116
2.60702e-05
0.0620973
2.47038e-05
0.0549792
0.0420301
6.40894e-05
0.036851
0.231034
5.39756e-05
0.0843127
0.041038
5.46058e-05
0.0401372
4.42937e-05
0.0759188
0.00210018
3.68296e-05
0.000231003
0.0726667
3.77754e-05
4.50993e-05
0.0806078
3.79519e-05
0.00218638
0.00228457
0.147936
0.00346379
0.139335
0.000284393
0.134046
0.000235875
0.142613
0.000310573
0.142598
0.0768925
0.229149
0.204487
0.0151132
0.0772452
0.22386
0.0122082
0.0286433
0.0848115
0.00840403
0.00061719
0.161371
0.000609377
0.0990876
0.00762053
0.128923
0.000736901
0.104239
0.165287
0.0988877
0.133865
0.00346102
0.0916354
0.00923623
0.117012
0.00190441
0.187136
0.130999
0.00160994
0.125704
0.00840855
0.176872
0.00119389
0.00784154
0.00996637
0.00165216
0.185363
0.00175523
0.125633
0.117461
0.00138021
0.000995399
0.000151057
0.120112
0.0648471
0.111986
0.00101559
0.112155
0.000117925
0.106557
0.000837333
9.84039e-05
0.113801
0.00118959
0.114186
0.000125421
0.119874
0.156113
0.00448892
0.000970372
0.00475477
0.156214
0.160316
0.160263
0.00139748
0.153924
0.0010485
0.178198
0.00216524
0.171403
0.00160405
0.00771171
0.17345
0.184488
0.225235
0.226403
0.0205535
0.222638
0.0159071
0.00481781
0.00517897
0.019764
0.172833
0.199411
0.0192379
0.206354
0.0196146
0.203091
0.00933485
0.0195198
0.095374
0.0047328
0.00892602
0.113671
0.0898238
0.00542421
0.155437
0.0881097
0.00411362
0.00519886
6.60766e-05
5.97428e-06
0.157623
0.000715698
0.0261674
1.90607e-05
0.00932202
0.0290952
0.026649
9.31924e-07
0.001591
0.193854
0.0160181
0.0182255
0.0173218
0.177583
0.00812423
0.196915