# vtk DataFile Version 2.0
Unstructured Grid by M++
ASCII
DATASET UNSTRUCTURED_GRID
POINTS 15808 float
  0.718750   0.625000 0
  0.718750   0.953125 0
  0.960938   0.882812 0
  0.734375   0.937500 0
  0.953125   0.882812 0
  0.726562   0.937500 0
  0.953125   0.875000 0
  0.507812   0.593750 0
  0.742188   0.531250 0
  0.945312   0.781250 0
  0.750000   0.726562 0
  0.960938   0.578125 0
  0.718750   0.640625 0
  0.726562   0.648438 0
  0.718750   0.648438 0
  0.789062   0.601562 0
  0.671875   0.914062 0
  0.765625   0.523438 0
  0.960938   0.804688 0
  0.734375   0.859375 0
  0.718750   0.867188 0
  0.726562   0.859375 0
  0.953125   0.796875 0
  0.515625   0.507812 0
  0.507812   0.515625 0
  0.945312   0.703125 0
  0.515625   0.531250 0
  0.515625   0.539062 0
  0.507812   0.546875 0
  0.945312   0.734375 0
  1.000000   0.671875 0
  0.765625   0.726562 0
  0.757812   0.734375 0
  0.750000   0.734375 0
  0.515625   0.796875 0
  0.515625   1.000000 0
  0.750000   0.937500 0
  0.523438   0.992188 0
  0.640625   0.679688 0
  0.523438   0.507812 0
  0.742188   0.632812 0
  0.867188   0.515625 0
  0.671875   0.851562 0
  0.789062   0.796875 0
  0.781250   0.796875 0
  0.789062   0.804688 0
  0.742188   0.671875 0
  0.507812   0.734375 0
  0.968750   0.617188 0
  0.734375   0.687500 0
  0.664062   0.648438 0
  0.578125   0.960938 0
  0.781250   0.531250 0
  0.773438   0.531250 0
  0.546875   0.789062 0
  0.750000   0.585938 0
  0.835938   0.562500 0
  0.812500   0.601562 0
  0.578125   0.867188 0
  0.804688   0.757812 0
  0.507812   0.992188 0
  0.742188   0.929688 0
  0.851562   0.976562 0
  0.851562   0.968750 0
  0.632812   0.617188 0
  0.789062   0.945312 0
  0.789062   0.937500 0
  0.781250   0.937500 0
  0.804688   0.531250 0
  0.640625   0.617188 0
  0.812500   0.929688 0
  0.804688   0.835938 0
  0.796875   0.835938 0
  0.773438   0.554688 0
  0.859375   0.867188 0
  0.835938   0.585938 0
  0.843750   0.593750 0
  0.812500   0.632812 0
  0.578125   0.898438 0
  0.570312   0.898438 0
  0.695312   0.585938 0
  0.984375   0.570312 0
  0.773438   0.507812 0
  0.789062   0.687500 0
  0.546875   0.960938 0
  0.867188   0.671875 0
  0.875000   0.664062 0
  0.875000   0.656250 0
  0.882812   0.585938 0
  0.796875   0.859375 0
  0.804688   0.867188 0
  0.867188   0.898438 0
  0.859375   0.898438 0
  0.625000   0.960938 0
  0.835938   0.617188 0
  0.812500   0.960938 0
  0.804688   0.585938 0
  0.804688   0.609375 0
  0.804688   0.617188 0
  0.921875   0.875000 0
  0.687500   0.929688 0
  0.914062   0.875000 0
  0.507812   0.765625 0
  0.742188   0.703125 0
  0.945312   0.953125 0
  0.835938   0.875000 0
  0.625000   0.523438 0
  0.867188   0.960938 0
  0.859375   0.960938 0
  0.835938   0.703125 0
  0.804688   0.640625 0
  0.804688   0.851562 0
  0.578125   0.906250 0
  0.953125   0.593750 0
  0.507812   0.796875 0
  0.945312   0.984375 0
  0.992188   0.718750 0
  0.828125   0.921875 0
  0.835938   0.906250 0
  0.601562   0.968750 0
  0.625000   0.554688 0
  0.585938   0.820312 0
  0.578125   0.820312 0
  0.820312   0.828125 0
  0.820312   0.835938 0
  0.835938   0.710938 0
  0.796875   0.757812 0
  0.554688   0.820312 0
  0.773438   0.664062 0
  0.546875   0.929688 0
  0.507812   0.695312 0
  0.820312   0.609375 0
  0.734375   1.000000 0
  0.976562   0.929688 0
  0.742188   0.984375 0
  0.507812   0.726562 0
  0.531250   0.601562 0
  0.945312   0.914062 0
  0.750000   0.539062 0
  0.515625   0.601562 0
  0.507812   0.804688 0
  0.789062   0.710938 0
  0.781250   0.710938 0
  0.781250   0.703125 0
  0.515625   0.703125 0
  0.523438   0.703125 0
  0.960938   0.890625 0
  0.867188   0.937500 0
  0.632812   1.000000 0
  0.984375   0.515625 0
  0.750000   0.570312 0
  0.515625   0.632812 0
  0.742188   0.578125 0
  0.851562   0.773438 0
  0.843750   0.765625 0
  0.789062   0.742188 0
  0.789062   0.734375 0
  0.781250   0.734375 0
  0.523438   0.734375 0
  0.750000   0.984375 0
  0.984375   0.906250 0
  0.507812   0.703125 0
  0.742188   0.640625 0
  0.945312   0.890625 0
  0.531250   0.578125 0
  0.859375   0.734375 0
  0.867188   0.734375 0
  0.859375   0.976562 0
  0.867188   0.968750 0
  0.507812   0.820312 0
  0.742188   0.757812 0
  0.507812   0.812500 0
  0.843750   0.796875 0
  0.851562   0.804688 0
  0.843750   0.804688 0
  0.585938   0.796875 0
  0.789062   0.773438 0
  0.804688   0.648438 0
  0.789062   0.765625 0
  0.781250   0.765625 0
  0.804688   0.593750 0
  0.804688   0.671875 0
  0.796875   0.671875 0
  0.804688   0.679688 0
  0.796875   0.687500 0
  0.671875   1.000000 0
  0.679688   1.000000 0
  0.921875   0.937500 0
  0.921875   0.929688 0
  0.570312   0.945312 0
  0.562500   0.945312 0
  0.742188   0.562500 0
  0.507812   0.625000 0
  0.976562   0.507812 0
  0.734375   0.781250 0
  0.507812   0.835938 0
  0.523438   0.710938 0
  0.734375   0.773438 0
  0.507812   0.828125 0
  0.820312   0.546875 0
  0.812500   0.546875 0
  0.820312   0.750000 0
  0.515625   0.726562 0
  0.882812   0.601562 0
  0.875000   0.601562 0
  0.828125   0.945312 0
  0.625000   0.585938 0
  0.820312   0.523438 0
  0.976562   0.539062 0
  0.507812   0.867188 0
  0.523438   0.742188 0
  0.734375   0.804688 0
  0.507812   0.859375 0
  0.843750   0.851562 0
  0.828125   0.562500 0
  0.820312   0.570312 0
  0.820312   0.578125 0
  0.828125   0.578125 0
  0.781250   0.828125 0
  0.781250   0.820312 0
  0.757812   0.539062 0
  0.515625   0.757812 0
  0.828125   0.976562 0
  0.625000   0.617188 0
  0.804688   0.726562 0
  0.796875   0.726562 0
  0.804688   0.718750 0
  0.796875   0.718750 0
  0.570312   0.585938 0
  0.781250   0.648438 0
  0.523438   0.765625 0
  0.984375   0.546875 0
  0.742188   0.609375 0
  0.742188   0.617188 0
  0.507812   0.679688 0
  0.734375   0.625000 0
  0.976562   0.617188 0
  0.765625   0.554688 0
  0.773438   0.593750 0
  0.976562   0.843750 0
  0.835938   0.992188 0
  0.835938   0.984375 0
  0.828125   0.984375 0
  0.507812   0.898438 0
  0.734375   0.835938 0
  0.851562   0.882812 0
  0.843750   0.882812 0
  0.820312   0.601562 0
  0.796875   0.734375 0
  0.796875   0.843750 0
  0.781250   0.843750 0
  0.789062   0.851562 0
  0.992188   0.914062 0
  0.781250   0.851562 0
  0.523438   0.843750 0
  0.750000   0.531250 0
  0.765625   0.515625 0
  0.757812   0.515625 0
  0.523438   0.578125 0
  0.515625   0.789062 0
  0.523438   0.781250 0
  0.757812   0.718750 0
  0.960938   0.968750 0
  0.859375   0.585938 0
  0.664062   0.609375 0
  0.804688   0.750000 0
  0.796875   0.750000 0
  0.859375   0.781250 0
  0.867188   0.789062 0
  0.859375   0.789062 0
  0.750000   0.640625 0
  0.734375   0.640625 0
  0.742188   0.648438 0
  0.507812   0.710938 0
  0.968750   0.585938 0
  0.734375   0.656250 0
  0.507812   0.906250 0
  0.742188   0.843750 0
  0.828125   0.617188 0
  0.828125   0.609375 0
  0.820312   0.625000 0
  0.812500   0.625000 0
  0.585938   0.890625 0
  0.585938   0.882812 0
  0.812500   0.828125 0
  0.757812   0.593750 0
  0.992188   0.523438 0
  0.750000   0.593750 0
  0.515625   0.656250 0
  0.828125   0.718750 0
  0.828125   0.710938 0
  0.820312   0.718750 0
  0.796875   0.867188 0
  1.000000   0.921875 0
  0.789062   0.578125 0
  0.992188   0.828125 0
  0.539062   0.695312 0
  0.531250   0.687500 0
  0.570312   0.750000 0
  0.750000   0.710938 0
  0.515625   0.773438 0
  0.742188   0.718750 0
  0.515625   0.976562 0
  0.625000   0.664062 0
  0.734375   0.867188 0
  0.851562   0.914062 0
  0.859375   0.906250 0
  0.625000   0.968750 0
  0.843750   0.914062 0
  0.609375   0.976562 0
  0.843750   0.906250 0
  0.523438   0.875000 0
  0.546875   0.757812 0
  0.750000   0.562500 0
  0.515625   0.625000 0
  0.765625   0.546875 0
  0.968750   0.609375 0
  0.757812   0.546875 0
  0.523438   0.609375 0
  0.523438   0.820312 0
  0.515625   0.820312 0
  0.960938   1.000000 0
  0.523438   0.812500 0
  0.515625   0.812500 0
  0.835938   0.531250 0
  0.882812   0.695312 0
  0.882812   0.687500 0
  0.859375   0.617188 0
  0.617188   0.687500 0
  0.875000   0.992188 0
  0.664062   0.632812 0
  0.898438   0.570312 0
  0.664062   0.640625 0
  0.804688   0.781250 0
  0.796875   0.781250 0
  0.804688   0.789062 0
  0.515625   0.828125 0
  0.750000   0.765625 0
  0.523438   0.835938 0
  0.757812   0.773438 0
  0.515625   0.835938 0
  0.515625   0.843750 0
  0.859375   0.812500 0
  0.867188   0.820312 0
  0.859375   0.820312 0
  0.507812   0.937500 0
  0.742188   0.875000 0
  0.828125   0.648438 0
  0.820312   0.656250 0
  0.812500   0.656250 0
  0.585938   0.914062 0
  0.710938   0.601562 0
  0.703125   0.601562 0
  1.000000   0.562500 0
  0.757812   0.625000 0
  0.523438   0.687500 0
  0.992188   0.554688 0
  0.750000   0.625000 0
  0.515625   0.687500 0
  0.523438   0.882812 0
  0.648438   0.570312 0
  0.640625   0.570312 0
  0.882812   0.500000 0
  0.789062   0.609375 0
  0.992188   0.859375 0
  0.507812   0.843750 0
  0.742188   0.781250 0
  0.531250   0.718750 0
  0.515625   0.851562 0
  0.750000   0.789062 0
  0.539062   0.726562 0
  0.539062   0.718750 0
  0.976562   0.906250 0
  0.742188   0.500000 0
  0.507812   0.562500 0
  0.570312   0.789062 0
  0.671875   0.945312 0
  0.960938   0.929688 0
  0.546875   0.617188 0
  0.851562   0.945312 0
  0.843750   0.937500 0
  0.609375   1.000000 0
  0.570312   0.554688 0
  0.523438   0.906250 0
  0.843750   0.773438 0
  0.828125   0.890625 0
  0.820312   0.890625 0
  0.617188   1.000000 0
  0.796875   0.523438 0
  0.914062   0.781250 0
  0.687500   0.835938 0
  0.750000   0.875000 0
  0.515625   0.937500 0
  0.781250   0.742188 0
  0.992188   0.804688 0
  0.765625   0.859375 0
  0.750000   0.867188 0
  0.968750   0.921875 0
  0.757812   0.859375 0
  0.523438   0.921875 0
  0.984375   0.796875 0
  0.976562   0.703125 0
  0.804688   0.539062 0
  0.914062   0.789062 0
  0.921875   0.789062 0
  0.687500   0.843750 0
  0.804688   0.820312 0
  0.820312   0.695312 0
  0.804688   0.812500 0
  0.796875   0.812500 0
  0.750000   0.703125 0
  0.515625   0.765625 0
[...]
CELL_DATA 30592
SCALARS scalar_value float 1
LOOKUP_TABLE default
4.05238e-05
4.13235e-05
4.63258e-05
4.7346e-05
4.11608e-05
4.17816e-05
3.61135e-05
5.30418e-05
5.42828e-05
6.0721e-05
4.74565e-05
3.00587e-05
3.03072e-05
2.4496e-05
7.73524e-08
1.01946e-07
1.10875e-07
1.63361e-07
1.87433e-07
1.90693e-07
2.18425e-07
2.10758e-07
2.18276e-07
1.95801e-07
1.49886e-07
1.54419e-07
1.33586e-07
3.24535e-05
3.66965e-05
4.19645e-05
3.50142e-05
3.21802e-07
3.77014e-07
4.34485e-07
3.99656e-07
2.21182e-07
2.30304e-07
2.69039e-07
1.67015e-07
1.73486e-07
1.41122e-07
1.70966e-08
1.3025e-08
1.38299e-08
9.95695e-09
7.75731e-09
8.28572e-09
1.07119e-08
1.53701e-08
2.04724e-08
2.75906e-08
3.75985e-08
4.83265e-08
2.82833e-08
0.00024007
0.000259015
0.000251522
0.000223013
0.000237252
0.000233249
0
0
0
0
0
0
0
7.99237e-05
3.56902e-05
8.38761e-05
9.22588e-05
7.95494e-05
9.62051e-05
9.11124e-05
3.51758e-05
9.45484e-05
8.30236e-05
0.000104586
0.000107946
0.000114437
0.000102632
7.79323e-05
8.07798e-05
8.8688e-05
7.45571e-05
0.000391814
0.000450297
0.000287003
0.000284932
0.000354631
0.000446717
0.000448886
0.000447574
0.000369604
0.000488351
0.000374375
0.000427479
0.000439661
0.000495665
0.000298557
0.000313393
0.00025487
0.00036597
0.000532391
0.000550123
0.000492281
0
0
0
0
0
0
0
0
8.16189e-09
6.61368e-09
7.05578e-09
1.03434e-08
1.10025e-08
1.39387e-08
8.05467e-05
9.01968e-05
9.69994e-05
9.47861e-05
0.000116795
0.00013053
0.000140419
0.000111323
0.000124321
0.00013363
0.000130366
0.000207568
0.00022924
0.000202282
0.00014885
0.000172619
0.000145174
1.40614e-06
1.32121e-06
1.32297e-06
1.16649e-06
1.22864e-06
1.07221e-06
9.29974e-07
1.03166e-06
7.0206e-07
7.43963e-07
5.43814e-07
1.40589e-06
1.65195e-06
1.91178e-06
4.36322e-07
4.77287e-07
3.44615e-07
1.87847e-07
2.01536e-07
1.49277e-07
0.000178433
0.000235859
0.000325387
0.000222974
2.79113e-07
2.36898e-07
2.54513e-07
3.43595e-07
3.7333e-07
4.66807e-07
3.64854e-07
3.89366e-07
4.29739e-07
3.74992e-07
2.0189e-07
2.14245e-07
1.81082e-07
0.000101371
0.000105472
0.00011796
9.57977e-05
0.000122233
0.000111761
0.000115911
0.000134792
0.000138414
0.000148271
0.000127941
9.07218e-05
9.46671e-05
0.000106123
3.97419e-06
4.21977e-06
4.71774e-06
4.00146e-06
5.60729e-06
5.95717e-06
5.65208e-06
1.8274e-08
1.17275e-07
2.21341e-08
2.42914e-08
2.4199e-08
3.38812e-08
1.95306e-07
4.37666e-08
4.85977e-08
2.12851e-06
2.53209e-06
2.52731e-06
2.11941e-07
1.95119e-07
2.01374e-07
2.94537e-06
3.27496e-06
3.48919e-06
6.72505e-06
7.09251e-06
7.12358e-06
3.29225e-06
2.76663e-06
2.67423e-06
2.392e-06
4.72603e-08
4.51066e-08
4.03034e-08
5.09619e-08
4.09931e-06
4.15222e-06
4.32147e-06
5.62382e-08
5.56131e-08
5.02657e-08
6.3409e-08
7.41529e-08
1.00137e-07
1.16768e-07
1.42192e-07
1.66084e-07
1.60674e-07
0.000101757
9.4442e-05
9.92944e-05
8.42252e-05
0.00011398
0.000133837
0.000111183
7.82603e-05
8.23394e-05
9.22655e-05
1.46206e-08
1.23518e-08
1.32814e-08
1.79681e-08
1.91503e-08
2.34167e-08
0
0
0
5.36471e-07
6.52875e-07
5.57978e-07
6.20662e-07
7.54692e-07
9.03303e-07
7.95867e-07
2.39759e-07
2.866e-07
3.44395e-07
3.0243e-07
2.4498e-09
2.29661e-09
3.03949e-09
3.48129e-09
4.35372e-09
3.73247e-09
6.11446e-09
5.69718e-09
8.1009e-09
0
0
0
0
8.90693e-09
9.49722e-09
1.31322e-08
6.98275e-09
1.26296e-08
1.77332e-08
2.5434e-08
7.48551e-09
1.01329e-08
1.38696e-08
1.07877e-08
0
1.39552e-10
2.38828e-10
1.57822e-10
1.06778e-09
1.69929e-09
1.11834e-09
2.91775e-10
4.66672e-10
5.05393e-10
4.34344e-09
3.99913e-09
5.943e-09
2.6087e-08
4.66054e-08
3.57885e-08
3.00108e-06
3.36959e-06
3.55685e-06
3.56437e-06
2.09205e-06
2.06902e-06
2.36575e-06
2.6545e-08
2.13549e-08
1.62768e-08
1.7053e-08
1.29655e-08
1.00974e-08
1.35778e-08
1.43947e-08
1.79036e-08
8.60506e-05
7.19773e-05
7.35104e-05
6.44309e-05
5.48747e-05
6.59521e-05
5.97256e-05
4.91196e-05
5.07653e-05
6.27923e-05
5.62899e-05
5.228e-05
4.46443e-08
3.5804e-08
2.8895e-08
3.1948e-08
2.78129e-08
2.14804e-08
1.89211e-08
1.554e-08
1.6476e-08
1.25555e-08
5.75839e-08
7.0886e-08
4.62117e-08
9.02945e-08
1.63405e-08
9.37105e-08
1.14367e-07
7.52494e-08
1.96122e-10
2.58593e-10
3.03986e-10
3.05214e-10
4.64717e-10
6.23857e-10
3.98186e-10
4.6721e-10
6.99195e-10
7.04028e-10
1.90946e-05
2.45793e-05
2.60587e-05
2.82651e-05
3.84903e-05
3.67971e-05
4.1444e-05
5.13183e-09
6.66852e-09
8.65817e-09
7.13849e-09
4.83006e-09
6.01952e-09
5.17014e-09
3.14417e-05
3.20138e-05
3.72504e-05
3.27261e-05
3.51242e-05
3.36749e-05
3.88222e-05
2.97401e-05
3.1226e-05
3.48764e-05
7.0264e-09
8.97819e-09
1.14016e-08
9.56969e-09
1.90421e-08
2.46215e-08
3.20798e-08
1.30052e-08
1.6606e-08
2.12025e-08
1.75767e-08
2.4469e-10
1.77575e-10
1.07295e-10
2.44062e-07
1.98457e-07
2.05899e-07
4.76235e-07
5.72546e-07
4.9492e-07
2.98659e-07
2.40503e-07
2.51039e-07
4.61397e-05
4.7908e-05
5.17844e-05
4.5319e-05
8.92916e-08
8.84385e-08
8.00101e-08
1.0095e-07
5.20051e-05
4.82026e-05
5.0828e-05
6.4935e-05
6.97718e-05
6.83418e-05
0.000485155
0.000603081
0.00054233
3.33209e-05
3.08127e-05
2.74966e-05
2.42308e-05
2.34974e-05
2.01126e-05
2.05526e-05
2.57611e-05
2.89132e-05
7.63142e-05
8.03897e-05
0.000357576
8.86278e-05
7.6685e-05
3.58409e-06
2.8732e-06
2.36025e-06
3.71762e-06
3.11932e-06
2.46813e-06
2.25302e-06
1.90774e-06
1.99119e-06
1.65109e-06
0.000357111
0.000437193
0.00030247
1.52763e-06
1.73876e-06
1.38226e-06
1.81917e-06
1.71607e-06
1.44752e-06
0.000108557
0.000114024
0.000127384
0.000106028
2.10941e-06
2.2145e-06
2.61261e-06
1.9587e-06
1.20627e-07
1.07611e-07
1.20677e-07
2.37824e-09
2.5623e-09
2.79707e-09
2.59402e-09
2.7867e-09
3.03629e-09
3.25831e-09
2.3908e-08
2.28147e-07
3.02873e-08
3.85482e-08
3.20148e-08
6.14208e-08
5.12603e-07
7.72397e-08
9.64414e-08
8.17721e-08
4.29187e-08
5.44289e-08
6.88015e-08
5.77447e-08
1.10625e-06
8.74332e-07
7.12958e-07
7.73162e-07
6.93174e-07
5.73343e-07
5.10047e-07
4.54835e-07
3.99993e-07
1.89853e-05
1.7594e-05
2.72375e-05
2.62258e-07
2.40204e-07
2.6203e-07
5.31999e-06
4.39415e-06
4.45061e-06
2.64759e-07
2.465e-07
2.20492e-07
2.72337e-07
2.77825e-10
4.44932e-10
3.60765e-10
6.75749e-10
9.9132e-10
8.62153e-10
4.69525e-10
5.84658e-10
7.3485e-10
0
0
0
4.83403e-08
5.63393e-08
4.59313e-08
3.54519e-10
6.17709e-10
5.11534e-10
5.15925e-10
6.32509e-10
8.42648e-10
9.5604e-10
1.20234e-09
1.51974e-09
1.78398e-06
1.77646e-06
1.64452e-06
1.95167e-06
0
0
0
1.80908e-09
2.21856e-09
2.05923e-09
2.80782e-09
3.53098e-09
4.20715e-09
3.85377e-09
5.3341e-09
6.40388e-06
7.49753e-06
7.83381e-06
1.01044e-05
1.26686e-05
1.37013e-05
1.33319e-06
1.38125e-06
1.27038e-06
1.58573e-06
0.000253767
0.0002949
0.000339199
0.000390002
0.000437351
0.000349957
0.000358892
0.000392702
1.49617e-07
1.81199e-07
1.19448e-07
1.13827e-07
1.01992e-07
1.27956e-07
1.41124e-07
1.40436e-07
1.27338e-07
1.60577e-07
0.000136952
6.05179e-05
5.39965e-05
4.98107e-05
5.14996e-05
6.34387e-05
5.85058e-05
6.12183e-05
4.24157e-05
4.4373e-05
3.77971e-05
5.97215e-05
6.59995e-05
5.63192e-05
7.67457e-05
8.94478e-05
7.63561e-05
9.57873e-08
7.58125e-08
6.08028e-08
6.23589e-08
4.99207e-08
3.9354e-08
3.7931e-08
2.98065e-08
2.357e-08
1.08668e-06
1.29693e-06
1.53576e-06
1.35386e-06
5.61051e-05
4.98459e-05
4.52837e-05
4.77365e-05
3.84605e-05
3.40122e-05
4.24018e-05
3.59809e-05
3.16448e-05
2.80261e-05
8.5432e-08
6.70892e-08
5.32676e-08
5.85789e-05
6.16872e-05
6.93892e-05
2.56119e-05
2.1715e-05
2.17619e-05
2.98504e-06
2.57107e-05
2.04314e-05
2.05388e-05
1.69248e-05
1.8249e-05
1.38628e-05
1.37982e-05
1.46795e-06
1.11014e-05
3.35656e-05
1.48273e-05
1.60992e-05
1.53098e-05
1.81477e-05
2.35586e-05
2.23958e-05
2.63662e-05
9.04989e-07
9.89355e-07
9.15882e-07
1.64188e-05
1.52499e-05
1.30534e-05
1.3829e-05
1.19249e-05
1.22734e-05
1.03516e-05
1.02106e-08
1.15739e-08
9.98094e-09
1.41949e-08
5.35655e-08
7.07409e-08
7.14425e-08
1.04054e-07
1.64214e-07
1.39063e-07
9.46979e-08
1.1236e-07
1.24904e-07
1.24455e-07
4.78739e-06
5.23578e-06
5.79293e-06
6.28938e-06
6.35697e-06
6.82675e-06
5.81173e-06
8.6983e-08
9.43626e-08
1.15712e-07
8.51186e-08
6.96759e-06
7.51989e-06
8.34283e-06
7.49257e-06
5.8651e-06
6.22333e-06
6.03865e-06
5.81612e-06
5.37803e-06
7.02779e-06
8.09081e-09
8.95469e-09
1.01669e-08
1.19407e-08
1.37194e-08
1.04743e-08
1.29298e-08
1.45942e-08
1.65706e-08
1.55865e-08
1.13966e-08
1.34576e-08
1.59048e-08
2.08965e-07
2.19123e-07
2.75621e-07
1.73929e-07
3.5265e-07
3.62189e-07
4.34875e-07
2.89831e-07
1.63417e-07
1.97529e-07
1.46784e-07
5.59189e-10
7.79759e-10
7.01695e-10
1.08541e-09
1.30024e-09
1.38079e-09
8.8402e-10
1.05987e-09
1.24843e-09
1.11995e-09
1.45448e-06
1.60609e-06
1.4163e-06
1.44022e-06
1.70418e-06
1.43108e-06
1.08795e-06
1.21718e-06
1.01481e-06
1.02189e-08
1.12292e-08
1.26977e-08
1.13309e-08
1.01989e-08
1.15011e-08
1.14813e-08
1.26303e-08
1.25694e-08
1.42555e-08
1.4021e-08
1.59145e-08
6.62941e-07
5.61985e-07
4.44852e-07
3.82005e-07
4.00769e-07
4.58227e-07
3.66732e-07
9.27168e-07
1.01398e-06
1.10808e-06
1.05187e-06
3.43792e-05
2.80503e-05
2.84966e-05
2.31573e-05
1.94492e-05
1.90323e-05
1.9277e-05
1.97816e-05
1.61741e-05
1.58255e-05
1.26805e-05
1.30711e-05
1.04577e-05
1.67096e-05
1.77353e-05
2.03294e-05
1.65122e-05
0
0
0
0
0
0
0
0
0
0
0
0
0
0
3.62822e-05
3.99025e-05
4.25685e-05
1.12864e-07
1.33228e-07
1.28446e-07
1.92666e-07
2.03029e-07
1.90969e-07
1.11318e-05
1.06185e-05
5.65374e-06
4.67858e-06
6.22055e-06
3.4317e-06
3.32269e-05
9.48084e-06
1.06238e-05
1.32093e-05
9.93264e-06
2.42638e-09
2.94065e-09
3.73565e-09
4.04198e-09
5.96106e-09
6.53482e-09
0.000294204
0.000305672
0.000298993
0.000155811
0.000144771
0.000129588
6.2388e-06
4.56478e-06
3.53638e-06
0.000147893
0.000144069
0.000122843
0.000107292
9.93749e-05
8.85717e-05
3.22206e-05
1.04025e-05
8.93999e-06
7.41478e-06
8.70558e-06
6.31123e-06
6.14775e-06
5.22974e-06
4.37199e-06
4.25526e-06
5.18281e-05
5.31548e-05
5.39122e-05
2.05102e-07
1.88101e-07
1.71489e-07
1.82319e-07
2.82778e-06
3.00021e-06
3.35107e-06
2.83853e-06
7.87043e-06
8.747e-06
8.2556e-06
8.74058e-06
1.00817e-05
1.12606e-05
1.05785e-05
1.687e-06
2.03144e-06
2.35805e-06
2.15509e-06
0.000151914
0.000168249
0.000179985
2.81429e-06
3.5257e-06
2.57972e-06
2.7387e-06
3.25803e-06
3.72208e-06
4.79169e-08
6.07868e-08
7.79216e-08
3.73167e-05
3.71063e-05
3.95408e-05
3.38187e-05
4.05888e-05
3.83443e-05
3.95249e-05
3.48398e-05
4.78874e-05
5.44883e-05
6.35935e-05
5.49231e-05
7.99334e-05
8.55509e-05
9.34133e-05
8.41701e-05
6.12551e-05
6.6163e-05
7.43222e-05
2.18244e-07
2.7076e-07
2.26285e-07
3.25865e-07
3.38324e-07
4.06238e-07
2.83935e-07
3.42671e-07
3.56065e-07
2.55046e-06
3.00774e-06
3.29382e-06
3.26459e-06
4.14778e-05
4.93298e-05
4.35092e-05
5.25082e-05
5.08595e-05
4.61222e-05
6.17719e-05
6.85139e-05
5.92766e-05
4.45472e-05
4.65962e-05
5.13054e-05
4.36608e-05
7.68811e-05
8.09876e-05
8.9425e-05
7.69094e-05
5.78107e-08
7.10949e-08
7.49832e-08
1.18608e-07
1.38237e-07
1.40725e-07
6.01007e-05
6.62639e-05
6.98238e-05
2.50525e-06
3.42432e-06
1.96134e-06
3.45856e-06
2.67423e-06
2.05706e-06
0.000141
0.00012615
0.000116978
8.20369e-05
8.62895e-05
9.68023e-05
8.00512e-05
1.74605e-06
2.15929e-06
1.58991e-06
2.52559e-06
2.90992e-06
3.24582e-06
7.78602e-07
8.10198e-07
9.64088e-07
9.30577e-07
1.09865e-06
1.28735e-06
1.14465e-06
6.97496e-07
8.36107e-07
1.00408e-06
8.71076e-07
7.46955e-05
7.88149e-05
8.70765e-05
0.000377187
7.57067e-05
5.02875e-06
5.57262e-06
6.57671e-06
2.40731e-06
2.81311e-06
2.98782e-06
2.80339e-06
1.72143e-06
1.65644e-06
9.42889e-07
8.52704e-07
1.09538e-06
6.87206e-07
4.63274e-08
4.78372e-09
6.07883e-08
5.91313e-08
7.55899e-08
4.14588e-06
3.66432e-06
3.15045e-06
3.93505e-06
4.60514e-06
5.24433e-06
5.38608e-07
3.57737e-06
6.55894e-07
6.84187e-06
9.75328e-07
1.06385e-06
1.08146e-06
1.73941e-05
2.19739e-05
1.69951e-05
3.17168e-05
3.78324e-05
2.92067e-05
2.70849e-05
2.8228e-05
3.20572e-05
2.55211e-05
1.60164e-07
1.78146e-07
2.00068e-07
1.86068e-07
8.62883e-09
1.04923e-08
1.16227e-08
1.18615e-08
2.1874e-09
3.01189e-09
2.34708e-09
2.32224e-09
2.49162e-09
3.66768e-09
3.94901e-09
4.19649e-09
3.15026e-08
4.88631e-08
4.25151e-08
2.97096e-08
3.56456e-08
3.92523e-08
3.99739e-08
1.2138e-08
1.13749e-08
1.75398e-08
2.27731e-08
1.73361e-08
6.16207e-07
7.50008e-07
6.44215e-07
1.62994e-05
1.71893e-05
1.44018e-05
2.21021e-05
0
2.12381e-07
1.84868e-05
2.36816e-05
4.37632e-06
5.49564e-06
4.39157e-06
0.000181472
3.19158e-10
4.11964e-10
7.99864e-07
4.82876e-06
1.1258e-06
2.07571e-08
1.24306e-06
2.78648e-05
2.50385e-05
0.000190399
2.4963e-05
5.456e-08
6.59199e-08
6.91971e-06
4.37256e-08
1.61154e-06
5.01197e-08
6.02632e-08
5.03329e-06
4.01042e-08
1.34819e-06
4.79695e-06
2.36208e-05
5.50152e-06
2.24898e-06
1.17478e-08
7.128e-08
1.99769e-06
5.01085e-06
2.25529e-05
1.84713e-05
0.000152231
0.000293147
0.000136478
1.58198e-05
1.30794e-06
4.32783e-08
3.5604e-08
3.24827e-09
2.77057e-08
1.04204e-06
1.47177e-06
4.17652e-08
1.24268e-06
3.40587e-08
3.00164e-09
2.66789e-08
3.89464e-06
2.48266e-08
0
1.58155e-08
0
4.6098e-09
4.78627e-08
5.38209e-06
9.85681e-06
4.64712e-09
5.27781e-08
4.30116e-09
5.16931e-09
5.533e-07
9.0046e-10
5.23217e-07
8.5757e-09
6.71845e-07
1.65207e-05
1.14412e-07
9.58802e-07
0
1.21567e-07
5.82384e-09
0
5.37977e-09
3.58974e-08
3.9247e-06
8.28988e-06
3.81369e-06
5.95683e-09
0
7.88637e-09
5.29466e-09
3.43123e-08
0
6.36118e-09
0
8.91109e-05
9.37211e-05
7.88565e-06
2.15365e-06
0
1.31117e-09
8.41816e-09
1.62807e-09
3.56227e-08
0
1.02285e-09
0
1.61959e-08
2.19885e-08
2.57137e-07
2.1123e-05
5.10749e-06
8.48871e-06
3.98819e-06
1.01432e-05
2.32592e-06
0.000232403
0.000105655
0.000117991
1.67405e-08
3.63325e-09
1.28142e-07
5.55257e-09
2.90575e-06
8.89298e-07
3.40276e-05
8.99772e-07
8.07565e-07
3.01315e-05
2.51981e-08
2.92178e-08
5.95992e-06
3.53367e-06
2.3452e-07
3.2957e-06
2.32004e-07
3.9458e-06
4.75415e-06
2.23219e-07
1.66679e-06
1.37688e-06
7.13403e-06
1.45811e-06
1.88114e-06
9.23755e-07
1.63455e-08
1.92279e-09
1.56294e-07
3.18272e-09
1.72472e-08
3.72511e-09
5.02613e-09
1.95823e-07
3.38327e-09
1.77362e-07
3.71266e-06
2.40334e-05
3.14137e-06
1.81417e-06
2.23221e-06
7.48132e-06
2.91708e-05
7.99758e-05
5.55926e-09
2.92671e-07
4.90345e-09
2.56711e-05
1.8918e-07
8.40099e-07
2.09995e-05
1.89435e-06
1.01034e-05
0.000220333
2.29616e-06
0.000238579
2.80255e-08
3.5564e-07
3.95098e-08
4.78889e-07
3.19354e-07
2.01765e-06
1.92292e-06
0.000214681
0.000100797
3.83396e-07
4.24737e-07
9.10524e-09
4.62203e-07
4.31243e-07
1.03786e-08
4.76793e-08
5.10844e-07
5.0043e-08
6.67793e-08
3.73344e-07
3.35572e-07
2.4705e-05
3.28439e-06
3.97017e-07
2.9649e-06
7.0082e-06
7.57475e-06
1.93704e-07
4.19088e-07
7.33706e-06
2.08994e-05
2.50177e-08
1.21479e-07
4.27084e-07
3.86619e-07
7.77758e-06
7.99262e-06
4.80867e-07
1.44118e-07
9.88791e-06
4.39095e-07
6.28952e-06
7.10915e-05
7.45028e-05
7.29342e-05
0.000586348
8.17615e-05
1.34121e-05
0
6.53982e-09
8.40526e-08
0
7.4469e-08
0
4.1722e-10
4.22014e-07
7.02455e-08
3.09705e-06
3.58282e-06
1.25609e-08
4.21595e-06
1.2321e-07
1.01535e-07
3.92924e-08
2.63616e-10
4.45916e-08
0
4.41113e-08
4.74274e-10
3.80191e-09
4.95751e-08
4.51994e-08
3.91279e-10
0
0
7.57817e-08
3.9385e-08
2.06039e-08
1.97986e-05
0.000259354
1.65247e-06
1.86967e-06
7.07257e-08
8.6983e-09
2.14595e-06
8.33448e-08
5.79613e-08
7.64231e-07
7.99173e-07
2.02542e-09
2.66236e-08
6.62915e-07
2.04091e-08
1.4191e-06
7.87284e-05
1.58451e-06
8.81236e-05
0.00019438
1.35731e-05
1.37763e-05
1.54092e-08
0
2.10458e-08
9.89221e-08
1.52049e-08
4.15873e-05
4.36441e-05
6.64173e-07
1.92481e-05
2.02881e-05
3.02483e-07
0.000127044
2.45331e-06
9.53655e-06
9.13902e-06
0
0
9.44624e-08
1.50658e-06
1.60035e-08
9.40209e-08
0
0
1.2764e-05
1.95535e-10
2.68998e-10
1.65136e-10
2.21767e-07
2.81949e-06
0
0
4.05145e-09
6.00712e-08
4.07536e-08
3.01954e-06
0.000147935
3.49941e-06
0.000163829
2.84732e-06
5.14868e-09
1.56988e-06
3.04084e-07
6.73125e-05
6.88911e-07
8.18986e-05
5.98802e-08
1.72718e-06
0
2.85116e-08
3.84828e-09
0
8.59845e-08
0
4.63157e-08
7.10624e-07
8.37136e-07
3.96834e-05
6.61314e-07
7.31313e-05
0
0
1.08846e-08
0
2.14831e-09
0
1.87601e-09
3.5505e-07
7.67912e-08
3.9385e-07
1.62417e-08
6.59315e-05
6.2771e-05
0
0
0.000137582
0.000103484
0.000108576
0.000121233
0.000133424
0.000139283
0.000128897
0.000170645
9.785e-07
4.39462e-05
4.02829e-05
8.37769e-07
1.7491e-05
5.19437e-05
1.41487e-06
7.2855e-06
1.45263e-06
8.79588e-07
4.35599e-05
3.92937e-05
8.60115e-07
2.42981e-08
0
2.74218e-08
0
6.40692e-09
2.87102e-05
5.07454e-07
2.81954e-05
1.22241e-06
4.99544e-07
1.29595e-06
1.02773e-06
2.39741e-05
1.59202e-06
1.86372e-06
4.50772e-09
4.27171e-08
1.76851e-06
2.23578e-06
5.31178e-08
1.56938e-05
4.147e-05
1.89506e-05
7.93531e-07
6.57387e-07
7.70429e-06
3.05152e-07
5.07115e-07
1.37546e-07
5.61979e-07
2.82149e-08
6.22701e-07
1.47938e-07
5.91449e-07
8.81614e-07
9.06316e-09
0
1.0007e-08
0
0
2.18194e-10
1.44986e-06
5.18572e-05
1.29769e-06
1.20797e-06
1.93213e-05
4.41869e-05
8.04e-10
0
1.24067e-09
1.77416e-08
1.0599e-09
0
0
1.15596e-07
1.20443e-06
2.01293e-05
0
2.04496e-08
5.44259e-09
2.90257e-08
2.2213e-07
3.39353e-08
2.57541e-07
0
8.73637e-09
3.06335e-05
9.3054e-09
0
5.70444e-10
5.8483e-08
2.86268e-10
0.000360396
3.70861e-05
0.000225618
1.59831e-05
0.000215359
1.49574e-07
0
1.81555e-07
9.16204e-07
3.79272e-05
1.00496e-06
1.70298e-05
2.23352e-08
6.38411e-10
6.99663e-10
8.88196e-10
1.99357e-05
3.82114e-07
1.78847e-05
1.33675e-07
1.57638e-09
2.12266e-09
1.45005e-07
1.42572e-07
1.2982e-07
1.53521e-09
1.63477e-07
2.52298e-09
2.90489e-09
2.37153e-09
4.84776e-09
1.40863e-07
1.76839e-07
1.29325e-07
1.19005e-09
1.58925e-07
1.86491e-09
0
0.000795553
2.77924e-05
6.68961e-05
4.90799e-08
2.26927e-06
6.88811e-05
3.75282e-06
7.3473e-07
3.93027e-05
3.28784e-08
9.18861e-07
7.71478e-05
6.90606e-07
7.4979e-05
1.64887e-06
6.34831e-07
1.01611e-08
4.99902e-07
4.37169e-07
4.89891e-10
5.30015e-07
1.89487e-06
3.63152e-07
5.85407e-09
4.06416e-09
4.0871e-09
3.82123e-09
0
4.50191e-09
1.57246e-06
1.99626e-08
2.52919e-08
1.86051e-06
6.18432e-06
1.59214e-06
2.59913e-07
2.02392e-07
0.000172143
1.91935e-05
1.97297e-08
0
0
0.000140913
0.000150273
6.81652e-07
3.73554e-06
0.000236394
0.000119162
0.000164967
6.08991e-05
6.44028e-05
0.00016075
1.4441e-05
3.58734e-06
0.000148338
1.17939e-05
0
8.32895e-06
0.000110675
3.00357e-06
0.000132717
6.55551e-05
0.000131402
3.95275e-05
4.2513e-05
0.000515732
0
0
8.0518e-09
6.74105e-09
5.37964e-05
5.18228e-05
6.13512e-10
4.81468e-05
4.56995e-06
5.41291e-06
5.52509e-06
1.0329e-06
1.40613e-09
1.20185e-09
2.29931e-06
2.63752e-06
2.70377e-06
3.81267e-07
2.91346e-06
1.81708e-06
1.63587e-05
1.05596e-07
9.63265e-06
1.23307e-07
2.23835e-06
8.27629e-06
9.02965e-08
2.07372e-06
3.66153e-05
3.40802e-05
3.04371e-05
5.62111e-07
7.33777e-07
2.6676e-09
2.85155e-09
3.54666e-09
2.08264e-07
2.28909e-09
2.34773e-09
3.53647e-08
1.69848e-06
1.10098e-07
2.48605e-06
1.67283e-06
2.49126e-06
1.7173e-06
2.54134e-08
1.78008e-06
2.10736e-08
0
0
6.68516e-08
1.15914e-06
1.27052e-06
5.89622e-08
7.39461e-09
2.0499e-09
1.97985e-08
4.63758e-08
1.06889e-06
1.28821e-06
9.53847e-09
1.8051e-08
1.68548e-10
1.98359e-10
2.44779e-10
4.85534e-07
2.77568e-05
9.20288e-06
1.41249e-05
0.000107981
0.00066695
7.61387e-06
7.82586e-06
0.000240858
3.13605e-05
0.000266308
0.000235498
8.28705e-06
4.43959e-06
2.58572e-07
3.88305e-06
9.08556e-08
2.69835e-06
6.28229e-08
5.93214e-06
7.42558e-08
5.98583e-06
2.22369e-06
0.000834207
3.66703e-10
4.63931e-10
3.39122e-10
7.80172e-07
1.02504e-08
8.67838e-07
5.82463e-06
1.05223e-06
2.96995e-06
8.63144e-07
8.6149e-09
2.24034e-08
3.05792e-08
1.80122e-08
0
5.15412e-07
1.2886e-05
2.9344e-05
4.00184e-07
1.08898e-06
2.44004e-05
3.60897e-07
3.41274e-07
0.000315967
2.09667e-05
9.34173e-06
1.01567e-07
1.36047e-06
1.85203e-06
8.31061e-06
1.44787e-05
7.93367e-06
0
7.86826e-06
3.09947e-06
2.40496e-07
7.98124e-05
1.98566e-07
7.96285e-06
1.34245e-06
0.000168129
2.1434e-07
2.45082e-07
8.13525e-09
2.78055e-07
1.48209e-05
1.65119e-05
0
0
2.11509e-07
0
0.000272677
0
6.21778e-09
0
5.3261e-10
6.46297e-07
2.94627e-05
0
1.80096e-07
3.03899e-08
0
6.78678e-09
3.25497e-08
0
0
3.93341e-08
1.18077e-10
2.86967e-08
0
0
6.64542e-08
0
4.23779e-08
2.09786e-10
3.06353e-10
0
8.29021e-09
0.000301678
0
3.82721e-08
1.88349e-07
2.81858e-05
1.29611e-10
0
1.23873e-10
3.55794e-05
1.52526e-08
1.96921e-08
0
0
9.21187e-08
1.30796e-10
1.06683e-07