# vtk DataFile Version 2.0
Unstructured Grid by M++
ASCII
DATASET UNSTRUCTURED_GRID
POINTS 15808 float
  0.718750   0.625000 0
  0.718750   0.953125 0
  0.960938   0.882812 0
  0.734375   0.937500 0
  0.953125   0.882812 0
  0.726562   0.937500 0
  0.953125   0.875000 0
  0.507812   0.593750 0
  0.742188   0.531250 0
  0.945312   0.781250 0
  0.750000   0.726562 0
  0.960938   0.578125 0
  0.718750   0.640625 0
  0.726562   0.648438 0
  0.718750   0.648438 0
  0.789062   0.601562 0
  0.671875   0.914062 0
  0.765625   0.523438 0
  0.960938   0.804688 0
  0.734375   0.859375 0
  0.718750   0.867188 0
  0.726562   0.859375 0
  0.953125   0.796875 0
  0.515625   0.507812 0
  0.507812   0.515625 0
  0.945312   0.703125 0
  0.515625   0.531250 0
  0.515625   0.539062 0
  0.507812   0.546875 0
  0.945312   0.734375 0
  1.000000   0.671875 0
  0.765625   0.726562 0
  0.757812   0.734375 0
  0.750000   0.734375 0
  0.515625   0.796875 0
  0.515625   1.000000 0
  0.750000   0.937500 0
  0.523438   0.992188 0
  0.640625   0.679688 0
  0.523438   0.507812 0
  0.742188   0.632812 0
  0.867188   0.515625 0
  0.671875   0.851562 0
  0.789062   0.796875 0
  0.781250   0.796875 0
  0.789062   0.804688 0
  0.742188   0.671875 0
  0.507812   0.734375 0
  0.968750   0.617188 0
  0.734375   0.687500 0
  0.664062   0.648438 0
  0.578125   0.960938 0
  0.781250   0.531250 0
  0.773438   0.531250 0
  0.546875   0.789062 0
  0.750000   0.585938 0
  0.835938   0.562500 0
  0.812500   0.601562 0
  0.578125   0.867188 0
  0.804688   0.757812 0
  0.507812   0.992188 0
  0.742188   0.929688 0
  0.851562   0.976562 0
  0.851562   0.968750 0
  0.632812   0.617188 0
  0.789062   0.945312 0
  0.789062   0.937500 0
  0.781250   0.937500 0
  0.804688   0.531250 0
  0.640625   0.617188 0
  0.812500   0.929688 0
  0.804688   0.835938 0
  0.796875   0.835938 0
  0.773438   0.554688 0
  0.859375   0.867188 0
  0.835938   0.585938 0
  0.843750   0.593750 0
  0.812500   0.632812 0
  0.578125   0.898438 0
  0.570312   0.898438 0
  0.695312   0.585938 0
  0.984375   0.570312 0
  0.773438   0.507812 0
  0.789062   0.687500 0
  0.546875   0.960938 0
  0.867188   0.671875 0
  0.875000   0.664062 0
  0.875000   0.656250 0
  0.882812   0.585938 0
  0.796875   0.859375 0
  0.804688   0.867188 0
  0.867188   0.898438 0
  0.859375   0.898438 0
  0.625000   0.960938 0
  0.835938   0.617188 0
  0.812500   0.960938 0
  0.804688   0.585938 0
  0.804688   0.609375 0
  0.804688   0.617188 0
  0.921875   0.875000 0
  0.687500   0.929688 0
  0.914062   0.875000 0
  0.507812   0.765625 0
  0.742188   0.703125 0
  0.945312   0.953125 0
  0.835938   0.875000 0
  0.625000   0.523438 0
  0.867188   0.960938 0
  0.859375   0.960938 0
  0.835938   0.703125 0
  0.804688   0.640625 0
  0.804688   0.851562 0
  0.578125   0.906250 0
  0.953125   0.593750 0
  0.507812   0.796875 0
  0.945312   0.984375 0
  0.992188   0.718750 0
  0.828125   0.921875 0
  0.835938   0.906250 0
  0.601562   0.968750 0
  0.625000   0.554688 0
  0.585938   0.820312 0
  0.578125   0.820312 0
  0.820312   0.828125 0
  0.820312   0.835938 0
  0.835938   0.710938 0
  0.796875   0.757812 0
  0.554688   0.820312 0
  0.773438   0.664062 0
  0.546875   0.929688 0
  0.507812   0.695312 0
  0.820312   0.609375 0
  0.734375   1.000000 0
  0.976562   0.929688 0
  0.742188   0.984375 0
  0.507812   0.726562 0
  0.531250   0.601562 0
  0.945312   0.914062 0
  0.750000   0.539062 0
  0.515625   0.601562 0
  0.507812   0.804688 0
  0.789062   0.710938 0
  0.781250   0.710938 0
  0.781250   0.703125 0
  0.515625   0.703125 0
  0.523438   0.703125 0
  0.960938   0.890625 0
  0.867188   0.937500 0
  0.632812   1.000000 0
  0.984375   0.515625 0
  0.750000   0.570312 0
  0.515625   0.632812 0
  0.742188   0.578125 0
  0.851562   0.773438 0
  0.843750   0.765625 0
  0.789062   0.742188 0
  0.789062   0.734375 0
  0.781250   0.734375 0
  0.523438   0.734375 0
  0.750000   0.984375 0
  0.984375   0.906250 0
  0.507812   0.703125 0
  0.742188   0.640625 0
  0.945312   0.890625 0
  0.531250   0.578125 0
  0.859375   0.734375 0
  0.867188   0.734375 0
  0.859375   0.976562 0
  0.867188   0.968750 0
  0.507812   0.820312 0
  0.742188   0.757812 0
  0.507812   0.812500 0
  0.843750   0.796875 0
  0.851562   0.804688 0
  0.843750   0.804688 0
  0.585938   0.796875 0
  0.789062   0.773438 0
  0.804688   0.648438 0
  0.789062   0.765625 0
  0.781250   0.765625 0
  0.804688   0.593750 0
  0.804688   0.671875 0
  0.796875   0.671875 0
  0.804688   0.679688 0
  0.796875   0.687500 0
  0.671875   1.000000 0
  0.679688   1.000000 0
  0.921875   0.937500 0
  0.921875   0.929688 0
  0.570312   0.945312 0
  0.562500   0.945312 0
  0.742188   0.562500 0
  0.507812   0.625000 0
  0.976562   0.507812 0
  0.734375   0.781250 0
  0.507812   0.835938 0
  0.523438   0.710938 0
  0.734375   0.773438 0
  0.507812   0.828125 0
  0.820312   0.546875 0
  0.812500   0.546875 0
  0.820312   0.750000 0
  0.515625   0.726562 0
  0.882812   0.601562 0
  0.875000   0.601562 0
  0.828125   0.945312 0
  0.625000   0.585938 0
  0.820312   0.523438 0
  0.976562   0.539062 0
  0.507812   0.867188 0
  0.523438   0.742188 0
  0.734375   0.804688 0
  0.507812   0.859375 0
  0.843750   0.851562 0
  0.828125   0.562500 0
  0.820312   0.570312 0
  0.820312   0.578125 0
  0.828125   0.578125 0
  0.781250   0.828125 0
  0.781250   0.820312 0
  0.757812   0.539062 0
  0.515625   0.757812 0
  0.828125   0.976562 0
  0.625000   0.617188 0
  0.804688   0.726562 0
  0.796875   0.726562 0
  0.804688   0.718750 0
  0.796875   0.718750 0
  0.570312   0.585938 0
  0.781250   0.648438 0
  0.523438   0.765625 0
  0.984375   0.546875 0
  0.742188   0.609375 0
  0.742188   0.617188 0
  0.507812   0.679688 0
  0.734375   0.625000 0
  0.976562   0.617188 0
  0.765625   0.554688 0
  0.773438   0.593750 0
  0.976562   0.843750 0
  0.835938   0.992188 0
  0.835938   0.984375 0
  0.828125   0.984375 0
  0.507812   0.898438 0
  0.734375   0.835938 0
  0.851562   0.882812 0
  0.843750   0.882812 0
  0.820312   0.601562 0
  0.796875   0.734375 0
  0.796875   0.843750 0
  0.781250   0.843750 0
  0.789062   0.851562 0
  0.992188   0.914062 0
  0.781250   0.851562 0
  0.523438   0.843750 0
  0.750000   0.531250 0
  0.765625   0.515625 0
  0.757812   0.515625 0
  0.523438   0.578125 0
  0.515625   0.789062 0
  0.523438   0.781250 0
  0.757812   0.718750 0
  0.960938   0.968750 0
  0.859375   0.585938 0
  0.664062   0.609375 0
  0.804688   0.750000 0
  0.796875   0.750000 0
  0.859375   0.781250 0
  0.867188   0.789062 0
  0.859375   0.789062 0
  0.750000   0.640625 0
  0.734375   0.640625 0
  0.742188   0.648438 0
  0.507812   0.710938 0
  0.968750   0.585938 0
  0.734375   0.656250 0
  0.507812   0.906250 0
  0.742188   0.843750 0
  0.828125   0.617188 0
  0.828125   0.609375 0
  0.820312   0.625000 0
  0.812500   0.625000 0
  0.585938   0.890625 0
  0.585938   0.882812 0
  0.812500   0.828125 0
  0.757812   0.593750 0
  0.992188   0.523438 0
  0.750000   0.593750 0
  0.515625   0.656250 0
  0.828125   0.718750 0
  0.828125   0.710938 0
  0.820312   0.718750 0
  0.796875   0.867188 0
  1.000000   0.921875 0
  0.789062   0.578125 0
  0.992188   0.828125 0
  0.539062   0.695312 0
  0.531250   0.687500 0
  0.570312   0.750000 0
  0.750000   0.710938 0
  0.515625   0.773438 0
  0.742188   0.718750 0
  0.515625   0.976562 0
  0.625000   0.664062 0
  0.734375   0.867188 0
  0.851562   0.914062 0
  0.859375   0.906250 0
  0.625000   0.968750 0
  0.843750   0.914062 0
  0.609375   0.976562 0
  0.843750   0.906250 0
  0.523438   0.875000 0
  0.546875   0.757812 0
  0.750000   0.562500 0
  0.515625   0.625000 0
  0.765625   0.546875 0
  0.968750   0.609375 0
  0.757812   0.546875 0
  0.523438   0.609375 0
  0.523438   0.820312 0
  0.515625   0.820312 0
  0.960938   1.000000 0
  0.523438   0.812500 0
  0.515625   0.812500 0
  0.835938   0.531250 0
  0.882812   0.695312 0
  0.882812   0.687500 0
  0.859375   0.617188 0
  0.617188   0.687500 0
  0.875000   0.992188 0
  0.664062   0.632812 0
  0.898438   0.570312 0
  0.664062   0.640625 0
  0.804688   0.781250 0
  0.796875   0.781250 0
  0.804688   0.789062 0
  0.515625   0.828125 0
  0.750000   0.765625 0
  0.523438   0.835938 0
  0.757812   0.773438 0
  0.515625   0.835938 0
  0.515625   0.843750 0
  0.859375   0.812500 0
  0.867188   0.820312 0
  0.859375   0.820312 0
  0.507812   0.937500 0
  0.742188   0.875000 0
  0.828125   0.648438 0
  0.820312   0.656250 0
  0.812500   0.656250 0
  0.585938   0.914062 0
  0.710938   0.601562 0
  0.703125   0.601562 0
  1.000000   0.562500 0
  0.757812   0.625000 0
  0.523438   0.687500 0
  0.992188   0.554688 0
  0.750000   0.625000 0
  0.515625   0.687500 0
  0.523438   0.882812 0
  0.648438   0.570312 0
  0.640625   0.570312 0
  0.882812   0.500000 0
  0.789062   0.609375 0
  0.992188   0.859375 0
  0.507812   0.843750 0
  0.742188   0.781250 0
  0.531250   0.718750 0
  0.515625   0.851562 0
  0.750000   0.789062 0
  0.539062   0.726562 0
  0.539062   0.718750 0
  0.976562   0.906250 0
  0.742188   0.500000 0
  0.507812   0.562500 0
  0.570312   0.789062 0
  0.671875   0.945312 0
  0.960938   0.929688 0
  0.546875   0.617188 0
  0.851562   0.945312 0
  0.843750   0.937500 0
  0.609375   1.000000 0
  0.570312   0.554688 0
  0.523438   0.906250 0
  0.843750   0.773438 0
  0.828125   0.890625 0
  0.820312   0.890625 0
  0.617188   1.000000 0
  0.796875   0.523438 0
  0.914062   0.781250 0
  0.687500   0.835938 0
  0.750000   0.875000 0
  0.515625   0.937500 0
  0.781250   0.742188 0
  0.992188   0.804688 0
  0.765625   0.859375 0
  0.750000   0.867188 0
  0.968750   0.921875 0
  0.757812   0.859375 0
  0.523438   0.921875 0
  0.984375   0.796875 0
  0.976562   0.703125 0
  0.804688   0.539062 0
  0.914062   0.789062 0
  0.921875   0.789062 0
  0.687500   0.843750 0
  0.804688   0.820312 0
  0.820312   0.695312 0
  0.804688   0.812500 0
  0.796875   0.812500 0
  0.750000   0.703125 0
  0.515625   0.765625 0
[...]
CELL_DATA 30592
SCALARS scalar_value float 1
LOOKUP_TABLE default
-0.0559686
-0.0536931
-0.0489709
-0.0466308
-0.0491042
-0.0467908
-0.0539142
-0.0418278
-0.0394395
-0.0345761
-0.0419224
-0.0565158
-0.0542862
-0.0570187
-0.405036
-0.402168
-0.399333
-0.401644
-0.401108
-0.400017
-0.331363
-0.335098
-0.331458
-0.34237
-0.355567
-0.35207
-0.361882
-0.193139
-0.192988
-0.190663
-0.194989
-0.291897
-0.284931
-0.282437
-0.280681
-0.388254
-0.385625
-0.380135
-0.388864
-0.386234
-0.389298
-0.445397
-0.448996
-0.446565
-0.455051
-0.458679
-0.456175
-0.450125
-0.452388
-0.446417
-0.442788
-0.434815
-0.429164
-0.438289
-0.0228864
-0.0198208
-0.0200825
-0.0234706
-0.0204911
-0.020541
-0.538678
-0.526552
-0.527035
-0.518905
-0.514172
-0.518278
-0.505256
-0.0276338
-0.0561542
-0.0250791
-0.0201271
-0.0274561
-0.0175802
-0.0200038
-0.0493692
-0.0174831
-0.0249345
-0.0125916
-0.0100545
-0.00503836
-0.0125169
-0.0273284
-0.0248365
-0.019915
-0.0272569
-0.0315712
-0.0269351
-0.0346101
-0.0338037
-0.0290131
-0.0257974
-0.0323041
-0.0314474
-0.0314988
-0.030488
-0.0298768
-0.0281364
-0.0256982
-0.028683
-0.0298441
-0.0272639
-0.0267289
-0.0250125
-0.0273788
-0.0248426
-0.0238239
-0.5308
-0.53397
-0.530861
-0.540239
-0.52159
-0.515382
-0.512261
-0.512295
-0.449576
-0.452987
-0.450442
-0.443625
-0.441116
-0.435188
-0.0628621
-0.0572093
-0.0544932
-0.0542611
-0.0460566
-0.0403423
-0.037552
-0.0456717
-0.0400103
-0.0372542
-0.0370928
-0.0144507
-0.0057792
-0.0143964
-0.0315599
-0.0229464
-0.0314254
-0.26117
-0.260818
-0.259766
-0.261636
-0.25813
-0.258782
-0.257465
-0.261108
-0.263283
-0.260187
-0.266837
-0.28003
-0.274256
-0.271781
-0.278037
-0.275884
-0.282316
-0.291267
-0.288578
-0.296254
-0.0448042
-0.0395658
-0.0353132
-0.0396004
-0.28905
-0.291598
-0.289241
-0.2843
-0.282245
-0.277865
-0.372412
-0.369633
-0.364342
-0.372158
-0.298602
-0.296279
-0.298975
-0.0297422
-0.0269572
-0.02162
-0.0294857
-0.018862
-0.0214351
-0.0186981
-0.0135077
-0.0107748
-0.00540114
-0.0133928
-0.0292164
-0.0264742
-0.0212419
-0.253668
-0.250501
-0.24509
-0.252766
-0.236502
-0.233284
-0.235478
-0.425861
-0.40251
-0.421551
-0.41986
-0.418986
-0.414211
-0.401764
-0.410184
-0.407346
-0.284166
-0.276271
-0.275526
-0.331654
-0.335268
-0.33195
-0.268491
-0.263085
-0.25996
-0.226807
-0.224644
-0.223547
-0.232701
-0.235431
-0.234249
-0.239492
-0.394118
-0.392042
-0.395013
-0.386991
-0.219986
-0.222087
-0.219923
-0.379856
-0.377793
-0.380782
-0.372747
-0.409985
-0.407012
-0.406031
-0.39894
-0.395639
-0.390977
-0.0549275
-0.0576789
-0.0547151
-0.0633831
-0.0491928
-0.0404956
-0.049006
-0.0660981
-0.0631278
-0.0574491
-0.420204
-0.423659
-0.421417
-0.414375
-0.4121
-0.406141
-0.542512
-0.538511
-0.530532
-0.309803
-0.306959
-0.306532
-0.273893
-0.26797
-0.265796
-0.264251
-0.314904
-0.308113
-0.305067
-0.304476
-0.491685
-0.494475
-0.485247
-0.484119
-0.480147
-0.481469
-0.471104
-0.473569
-0.464738
-0.565909
-0.562189
-0.566284
-0.554297
-0.469582
-0.467461
-0.461096
-0.471796
-0.46499
-0.458788
-0.454612
-0.469466
-0.46307
-0.459003
-0.4608
-0.496644
-0.48944
-0.484793
-0.486887
-0.46696
-0.462773
-0.465061
-0.477628
-0.471131
-0.468768
-0.486002
-0.488575
-0.478645
-0.44911
-0.439965
-0.441379
-0.266882
-0.261397
-0.259095
-0.258235
-0.225813
-0.224216
-0.222789
-0.369455
-0.369634
-0.378021
-0.36981
-0.372722
-0.378389
-0.428691
-0.426242
-0.420345
-0.0772387
-0.0861097
-0.0863406
-0.0920545
-0.101108
-0.092337
-0.0948589
-0.10349
-0.103874
-0.0954726
-0.101459
-0.104253
-0.398805
-0.402353
-0.408399
-0.401027
-0.402366
-0.410755
-0.417912
-0.421412
-0.419031
-0.42725
-0.390125
-0.383959
-0.393711
-0.375059
-0.41572
-0.372328
-0.366008
-0.375948
-0.431034
-0.425189
-0.422248
-0.422286
-0.41355
-0.407755
-0.416473
-0.413583
-0.404891
-0.404921
-0.201943
-0.198639
-0.196384
-0.197529
-0.186334
-0.181355
-0.187661
-0.472461
-0.466153
-0.462341
-0.463668
-0.46841
-0.464818
-0.465824
-0.145231
-0.146274
-0.136432
-0.147461
-0.144959
-0.148837
-0.138474
-0.142659
-0.139325
-0.133365
-0.457187
-0.451159
-0.447646
-0.448646
-0.438168
-0.432266
-0.428834
-0.440177
-0.434238
-0.430792
-0.431749
-0.45583
-0.456309
-0.465232
-0.361327
-0.364459
-0.361641
-0.328712
-0.325806
-0.32564
-0.325341
-0.328566
-0.325307
-0.12962
-0.125622
-0.11831
-0.128792
-0.363711
-0.361649
-0.364679
-0.356566
-0.0897828
-0.0924557
-0.0894386
-0.0744526
-0.0717726
-0.0714752
-0.0288013
-0.0234558
-0.0243151
-0.1048
-0.107386
-0.112996
-0.122068
-0.121651
-0.13032
-0.196071
-0.192835
-0.193293
-0.0860257
-0.0827923
-0.0277397
-0.0758093
-0.0864386
-0.0991098
-0.10571
-0.110124
-0.0968653
-0.0984582
-0.10756
-0.115147
-0.11988
-0.117157
-0.127346
-0.0246952
-0.0179825
-0.0262908
-0.128688
-0.121474
-0.132771
-0.118574
-0.119538
-0.129593
-0.0488101
-0.0458689
-0.0401807
-0.0486045
-0.111674
-0.108915
-0.102333
-0.112765
-0.405965
-0.406532
-0.404775
-0.516532
-0.512963
-0.506553
-0.515896
-0.512169
-0.505626
-0.501856
-0.328152
-0.289056
-0.322573
-0.319869
-0.31972
-0.311746
-0.275999
-0.306356
-0.303847
-0.303522
-0.311279
-0.305741
-0.303165
-0.302817
-0.243155
-0.248261
-0.255164
-0.249982
-0.253225
-0.262197
-0.268081
-0.273503
-0.28097
-0.180876
-0.175999
-0.17237
-0.358831
-0.356586
-0.351395
-0.190917
-0.194278
-0.191664
-0.343954
-0.341732
-0.344738
-0.336502
-0.531385
-0.52207
-0.522337
-0.51292
-0.503826
-0.504095
-0.513328
-0.507334
-0.504295
-0.543347
-0.540213
-0.543363
-0.440682
-0.43807
-0.444448
-0.493923
-0.485935
-0.485026
-0.498319
-0.498493
-0.489757
-0.480966
-0.478346
-0.472857
-0.289996
-0.287663
-0.290691
-0.282313
-0.543373
-0.540255
-0.534007
-0.464581
-0.462028
-0.464709
-0.456759
-0.449129
-0.446541
-0.449003
-0.441436
-0.224968
-0.22031
-0.21864
-0.212745
-0.208775
-0.20725
-0.262177
-0.259348
-0.262254
-0.253542
-0.0265168
-0.0208738
-0.0177509
-0.0124703
-0.00498427
-0.0129898
-0.010504
-0.00518916
-0.390107
-0.382232
-0.361907
-0.359779
-0.362787
-0.354644
-0.347388
-0.345306
-0.348392
-0.340143
-0.0374071
-0.0734639
-0.0790398
-0.0816268
-0.0820205
-0.0705
-0.073097
-0.0701349
-0.0901851
-0.0871868
-0.0957595
-0.102698
-0.0963955
-0.105669
-0.0868652
-0.0774158
-0.0868163
-0.395624
-0.398881
-0.404746
-0.399625
-0.405554
-0.408958
-0.413999
-0.41741
-0.423335
-0.278443
-0.272593
-0.270137
-0.269226
-0.072703
-0.0782209
-0.0807461
-0.0812046
-0.0892622
-0.0947925
-0.0867385
-0.0887323
-0.0942319
-0.096675
-0.410806
-0.414002
-0.419702
-0.0840722
-0.0810582
-0.0753401
-0.063521
-0.0683456
-0.0703389
-0.100936
-0.061392
-0.0642009
-0.0620497
-0.0692339
-0.0750982
-0.0781684
-0.0763059
-0.131772
-0.0832415
-0.142666
-0.178289
-0.175922
-0.179259
-0.170207
-0.159619
-0.163066
-0.153732
-0.321159
-0.315797
-0.323558
-0.138648
-0.138307
-0.147113
-0.137951
-0.14069
-0.137557
-0.146609
-0.462479
-0.4587
-0.457998
-0.455339
-0.293247
-0.284475
-0.284347
-0.275797
-0.2673
-0.266651
-0.275293
-0.269193
-0.266238
-0.266052
-0.201478
-0.198627
-0.193474
-0.190598
-0.192973
-0.190169
-0.19814
-0.278568
-0.275451
-0.269441
-0.278362
-0.185324
-0.182421
-0.177053
-0.184872
-0.200529
-0.197868
-0.200419
-0.22787
-0.228776
-0.221381
-0.457464
-0.454114
-0.449171
-0.447566
-0.444368
-0.452298
-0.441039
-0.437907
-0.433006
-0.439624
-0.453583
-0.450302
-0.451346
-0.261454
-0.25802
-0.252013
-0.260638
-0.242188
-0.238448
-0.231921
-0.241226
-0.256798
-0.250498
-0.259812
-0.530072
-0.520951
-0.521216
-0.51168
-0.505536
-0.502692
-0.512347
-0.506327
-0.503121
-0.503499
-0.303182
-0.297757
-0.305604
-0.305029
-0.29649
-0.304474
-0.319059
-0.313549
-0.321605
-0.443552
-0.440417
-0.435323
-0.442353
-0.441518
-0.436357
-0.434253
-0.433288
-0.43921
-0.434203
-0.432242
-0.431123
-0.259213
-0.264148
-0.274134
-0.219969
-0.216327
-0.20927
-0.219717
-0.308747
-0.305748
-0.300413
-0.308087
-0.0327951
-0.0354894
-0.0330381
-0.0357611
-0.0409908
-0.0434489
-0.0360193
-0.0335058
-0.0412948
-0.0487258
-0.0516115
-0.0491265
-0.057017
-0.187159
-0.18356
-0.178089
-0.185463
-0.579246
-0.572891
-0.569887
-0.56949
-0.559881
-0.553218
-0.560165
-0.553364
-0.549959
-0.549883
-0.559653
-0.5531
-0.549821
-0.54977
-0.14638
-0.139687
-0.136836
-0.419057
-0.416278
-0.418614
-0.403562
-0.401081
-0.403658
-0.100043
-0.0978877
-0.10626
-0.101556
-0.094148
-0.105178
-0.189869
-0.214293
-0.211588
-0.207593
-0.212972
-0.45534
-0.450272
-0.448915
-0.444679
-0.438759
-0.438033
-0.00580852
-0.00288981
-0.00290974
-0.0380405
-0.0408994
-0.0467136
-0.0925302
-0.0968278
-0.103266
-0.0378165
-0.0376887
-0.0464047
-0.0553236
-0.0581105
-0.0638661
-0.104363
-0.140304
-0.146315
-0.149221
-0.149486
-0.155477
-0.158681
-0.165055
-0.165188
-0.168413
-0.118656
-0.114887
-0.114723
-0.335139
-0.342176
-0.345483
-0.345766
-0.270809
-0.267685
-0.26224
-0.270025
-0.203124
-0.200805
-0.19986
-0.189221
-0.183642
-0.181267
-0.180423
-0.23716
-0.231838
-0.229801
-0.228508
-0.0285231
-0.0228483
-0.0200484
-0.2244
-0.215724
-0.223203
-0.219939
-0.214624
-0.212485
-0.433654
-0.428155
-0.424992
-0.0616518
-0.0635475
-0.0610691
-0.0678726
-0.0606772
-0.0627765
-0.0605103
-0.0671368
-0.0250838
-0.020043
-0.0174866
-0.0175744
-0.00996574
-0.00498039
-0.00248831
-0.00249315
-0.0100486
-0.00501715
-0.00250186
-0.347143
-0.343925
-0.344152
-0.337784
-0.334744
-0.328614
-0.33481
-0.328556
-0.325408
-0.217478
-0.212368
-0.210324
-0.209248
-0.0571011
-0.0498496
-0.0565674
-0.047278
-0.0494381
-0.0540749
-0.0399436
-0.0350992
-0.042193
-0.0561827
-0.0537748
-0.0491424
-0.0559778
-0.0866993
-0.0835172
-0.076958
-0.0868333
-0.396888
-0.392081
-0.388868
-0.384568
-0.379656
-0.375128
-0.10294
-0.0965153
-0.0932834
-0.117852
-0.109502
-0.125014
-0.108296
-0.112312
-0.12254
-0.0407753
-0.0465646
-0.0493703
-0.0666154
-0.0636291
-0.0578994
-0.0663612
-0.128215
-0.117606
-0.130317
-0.26367
-0.258045
-0.255671
-0.300948
-0.297691
-0.291742
-0.298237
-0.292357
-0.28975
-0.289118
-0.297114
-0.291089
-0.288455
-0.287744
-0.0847054
-0.0813086
-0.073577
-0.0309289
-0.0854431
-0.211371
-0.209479
-0.203596
-0.241207
-0.241431
-0.240475
-0.242561
-0.249412
-0.247189
-0.256226
-0.252153
-0.244548
-0.256721
-0.435827
-0.475013
-0.432532
-0.434641
-0.427221
-0.236186
-0.238505
-0.244107
-0.224379
-0.218841
-0.21656
-0.297995
-0.168648
-0.298842
-0.208699
-0.277303
-0.280612
-0.271206
-0.191303
-0.182639
-0.189093
-0.181597
-0.173176
-0.17694
-0.173465
-0.169246
-0.163467
-0.170813
-0.34645
-0.343406
-0.338199
-0.345569
-0.344993
-0.33931
-0.336477
-0.336463
-0.556405
-0.50296
-0.548377
-0.544352
-0.544411
-0.507893
-0.496494
-0.494294
-0.310891
-0.302511
-0.302268
-0.310716
-0.304948
-0.302104
-0.302027
-0.46432
-0.445946
-0.462483
-0.459973
-0.462808
-0.289594
-0.286963
-0.286085
-0.203472
-0.201066
-0.202383
-0.197195
-0.580482
-0.291581
-0.165963
-0.0406622
-0.0773761
-0.0689503
-0.0776097
-0.0141426
-0.567202
-0.561371
-0.254681
-0.215573
-0.247788
-0.339421
-0.249466
-0.0755004
-0.0812058
-0.0293641
-0.0795087
-0.344322
-0.338675
-0.221458
-0.347254
-0.263461
-0.360688
-0.354969
-0.240922
-0.363618
-0.28329
-0.0747964
-0.0332804
-0.069143
-0.273303
-0.389125
-0.354769
-0.27576
-0.241899
-0.0848475
-0.0871442
-0.0411054
-0.00292295
-0.0469698
-0.0908215
-0.151923
-0.352682
-0.352886
-0.390124
-0.361252
-0.281805
-0.273453
-0.355404
-0.279266
-0.361065
-0.39846
-0.363985
-0.246868
-0.418347
-0.493549
-0.427726
-0.57503
-0.484202
-0.296206
-0.200895
-0.167948
-0.484976
-0.293348
-0.489284
-0.478889
-0.272124
-0.399161
-0.276114
-0.364676
-0.266237
-0.152565
-0.279506
-0.25409
-0.554855
-0.276333
-0.471186
-0.551963
-0.474876
-0.305044
-0.209311
-0.177235
-0.216039
-0.446949
-0.524199
-0.43877
-0.44763
-0.407371
-0.524371
-0.444462
-0.562085
-0.0764924
-0.0727519
-0.13582
-0.180873
-0.552736
-0.472653
-0.436343
-0.47008
-0.400055
-0.558968
-0.478035
-0.54962
-0.327916
-0.319339
-0.283811
-0.1561
-0.208256
-0.174606
-0.216298
-0.0643194
-0.104361
-0.00288549
-0.045244
-0.0396404
-0.410093
-0.446161
-0.373481
-0.439449
-0.241261
-0.187756
-0.10987
-0.183851
-0.195402
-0.115528
-0.411054
-0.410104
-0.225995
-0.256382
-0.324033
-0.257265
-0.323839
-0.248968
-0.244128
-0.31666
-0.216488
-0.225559
-0.181934
-0.239028
-0.23044
-0.253109
-0.345022
-0.381978
-0.344324
-0.4481
-0.416608
-0.445537
-0.441193
-0.336048
-0.447261
-0.374937
-0.0854851
-0.0478453
-0.091529
-0.26439
-0.255385
-0.215613
-0.0497412
-0.0281025
-0.448724
-0.348436
-0.452175
-0.12468
-0.250187
-0.207644
-0.132888
-0.113472
-0.0712555
-0.0115871
-0.104011
-0.00289587
-0.420105
-0.340241
-0.416535
-0.302245
-0.343214
-0.110439
-0.11384
-0.0115457
-0.0481603
-0.342517
-0.339558
-0.441721
-0.334293
-0.332004
-0.43641
-0.414692
-0.331319
-0.413948
-0.409196
-0.325193
-0.328221
-0.0547743
-0.093377
-0.327456
-0.0942679
-0.224286
-0.221108
-0.32625
-0.276242
-0.222988
-0.198756
-0.421637
-0.394301
-0.309993
-0.313078
-0.0745431
-0.0722191
-0.304592
-0.388863
-0.0666833
-0.312289
-0.0755087
-0.064929
-0.061983
-0.0839171
-0.0232893
-0.070718
-0.141029
-0.545221
-0.465998
-0.364958
-0.478402
-0.366203
-0.478536
-0.441495
-0.325508
-0.368956
-0.22554
-0.223336
-0.347839
-0.217831
-0.306792
-0.358224
-0.39294
-0.496267
-0.387891
-0.590242
-0.385822
-0.488287
-0.453695
-0.384912
-0.415046
-0.487122
-0.587206
-0.56533
-0.431519
-0.460179
-0.467965
-0.134542
-0.0346488
-0.28464
-0.282133
-0.360422
-0.397487
-0.276486
-0.354611
-0.363336
-0.329492
-0.326511
-0.438596
-0.402203
-0.335175
-0.41006
-0.130146
-0.0625845
-0.123272
-0.0569582
-0.0202815
-0.152675
-0.15217
-0.417127
-0.478201
-0.409449
-0.363974
-0.41854
-0.11245
-0.109322
-0.235252
-0.173484
-0.169998
-0.289378
-0.0369223
-0.101074
-0.173308
-0.176137
-0.561386
-0.553967
-0.42421
-0.302578
-0.412679
-0.380386
-0.564725
-0.587049
-0.15627
-0.430993
-0.425135
-0.433953
-0.314617
-0.0948656
-0.596479
-0.576719
-0.482728
-0.43864
-0.46227
-0.0920106
-0.028391
-0.086001
-0.0227443
-0.0951827
-0.398
-0.280753
-0.318796
-0.0819572
-0.198952
-0.0733719
-0.36053
-0.28145
-0.543259
-0.422403
-0.462948
-0.539982
-0.351765
-0.53343
-0.413136
-0.262321
-0.256519
-0.133707
-0.26672
-0.0652434
-0.55901
-0.552762
-0.434552
-0.549637
-0.469993
-0.549627
-0.470125
-0.320682
-0.403351
-0.317627
-0.426835
-0.0642347
-0.0638455
-0.568458
-0.568377
-0.0311324
-0.0483884
-0.0454639
-0.0398306
-0.0309721
-0.0281014
-0.030801
-0.0198678
-0.237305
-0.138891
-0.105966
-0.244308
-0.181915
-0.0828803
-0.218769
-0.173551
-0.216349
-0.240396
-0.137982
-0.105991
-0.241938
-0.422018
-0.536793
-0.417085
-0.574338
-0.476386
-0.152359
-0.273307
-0.151262
-0.222025
-0.275468
-0.218927
-0.232423
-0.160695
-0.240574
-0.238565
-0.364846
-0.328337
-0.241963
-0.233135
-0.322855
-0.180293
-0.135699
-0.172291
-0.247556
-0.256156
-0.213041
-0.373185
-0.311538
-0.401973
-0.308505
-0.419584
-0.303151
-0.40372
-0.310814
-0.276797
-0.448697
-0.569128
-0.447394
-0.613309
-0.570812
-0.522725
-0.257465
-0.112655
-0.26007
-0.262582
-0.158587
-0.121816
-0.495595
-0.577713
-0.486877
-0.417966
-0.486935
-0.466562
-0.460566
-0.346897
-0.259985
-0.159376
-0.457543
-0.419187
-0.440503
-0.411483
-0.335138
-0.413129
-0.334287
-0.475593
-0.440275
-0.0775563
-0.442511
-0.555929
-0.513153
-0.375774
-0.447473
-0.00536256
-0.069382
-0.0298623
-0.181406
-0.0306072
-0.353891
-0.46887
-0.347482
-0.26629
-0.131358
-0.265402
-0.164302
-0.411982
-0.532678
-0.53264
-0.523438
-0.193047
-0.283325
-0.193796
-0.387941
-0.458545
-0.454227
-0.382902
-0.351618
-0.380732
-0.468639
-0.380026
-0.451511
-0.465568
-0.452547
-0.441634
-0.36837
-0.337028
-0.366204
-0.46474
-0.365422
-0.462207
-0.563333
-0.00195302
-0.106445
-0.0711659
-0.389209
-0.278526
-0.0612966
-0.200342
-0.249416
-0.149945
-0.396947
-0.32083
-0.0728744
-0.187494
-0.0726111
-0.134585
-0.18742
-0.441066
-0.338916
-0.295011
-0.416333
-0.288697
-0.261073
-0.297829
-0.381478
-0.492074
-0.490083
-0.494085
-0.573848
-0.484213
-0.232131
-0.328067
-0.322448
-0.227382
-0.196172
-0.233437
-0.307597
-0.318106
-0.0444805
-0.120252
-0.424283
-0.500202
-0.543326
-0.0499695
-0.0480551
-0.289104
-0.158304
-0.0243541
-0.0547575
-0.0456458
-0.0447446
-0.0451995
-0.0445442
-0.108227
-0.145545
-0.048149
-0.117158
-0.549617
-0.125197
-0.0638328
-0.157449
-0.05359
-0.096221
-0.0544962
-0.0796819
-0.0802419
-0.0112555
-0.585697
-0.582752
-0.455722
-0.47236
-0.0532214
-0.0624465
-0.438312
-0.0618873
-0.227424
-0.222545
-0.219927
-0.24734
-0.540194
-0.539896
-0.242622
-0.237071
-0.233973
-0.278582
-0.234547
-0.268528
-0.144079
-0.382088
-0.173463
-0.376762
-0.264895
-0.181661
-0.383788
-0.272426
-0.13005
-0.132717
-0.138629
-0.271281
-0.338918
-0.464401
-0.461771
-0.456245
-0.318269
-0.398654
-0.464638
-0.395915
-0.295877
-0.374915
-0.244061
-0.297117
-0.264152
-0.294721
-0.40489
-0.294069
-0.404801
-0.574731
-0.596178
-0.387677
-0.232392
-0.310029
-0.386848
-0.421127
-0.495287
-0.450822
-0.394998
-0.318612
-0.310537
-0.420727
-0.426129
-0.567733
-0.567281
-0.559047
-0.270054
-0.189561
-0.213213
-0.131722
-0.059869
-0.0186174
-0.221705
-0.220457
-0.0146733
-0.0693129
-0.00586751
-0.0146535
-0.217405
-0.247039
-0.313569
-0.254574
-0.337966
-0.257188
-0.346755
-0.231234
-0.346462
-0.232247
-0.266091
-0.003852
-0.550379
-0.541636
-0.550392
-0.25202
-0.347845
-0.248179
-0.21055
-0.243574
-0.221119
-0.248705
-0.347844
-0.439474
-0.431243
-0.4406
-0.520803
-0.270652
-0.188248
-0.15361
-0.28039
-0.228937
-0.161899
-0.284073
-0.285911
-0.0335278
-0.131527
-0.167564
-0.385723
-0.306199
-0.273144
-0.181766
-0.149644
-0.18442
-0.573562
-0.184565
-0.238551
-0.269348
-0.0278526
-0.268198
-0.175811
-0.133409
-0.0289814
-0.35953
-0.327702
-0.434536
-0.322402
-0.147648
-0.14199
-0.516438
-0.508446
-0.393455
-0.563096
-0.0215731
-0.575691
-0.459368
-0.564418
-0.521784
-0.260147
-0.195956
-0.468514
-0.353407
-0.397742
-0.577753
-0.458332
-0.395481
-0.465643
-0.506112
-0.389077
-0.459549
-0.399563
-0.586945
-0.564178
-0.320145
-0.496889
-0.386755
-0.447839
-0.441863
-0.56745
-0.449855
-0.0137788
-0.459894
-0.391116
-0.344464
-0.076667
-0.456702
-0.448684
-0.439832
-0.0470641
-0.445827
-0.417047
-0.52603
-0.44853
-0.387865
-0.442582
-0.379944
-0.325308
-0.439687
-0.378543
-0.235615
-0.364884
-0.449034
-0.377227
-0.254958
-0.381952
-0.448695
-0.40873
-0.329029
-0.405246
-0.466511
-0.296513
-0.469484
-0.356267
-0.469555
-0.3575
-0.375408
-0.442403
-0.38898
-0.313919
-0.45125
-0.33513
-0.385053
-0.448363
-0.383199
-0.451441
-0.3354
-0.0456315
-0.460362
-0.421062
-0.345411
-0.457432
-0.460163
-0.344878
-0.466218
-0.0823906
-0.0871168
-0.32624
-0.402136
-0.326006
-0.439967
-0.334859
-0.44855
-0.334994
-0.447788
-0.337946
-0.459328
-0.318429
-0.350698
-0.427647
-0.458865
-0.32598
-0.433133
-0.407573
-0.458367
-0.24751
-0.430316
-0.31781
-0.427746
-0.353031
-0.238415
-0.171268
-0.422059
-0.346894
-0.309081
-0.355927
-0.179172
-0.296943
-0.356315
-0.214103
-0.155068
-0.405016
-0.2928
-0.328848
-0.410507
-0.334772
-0.225984
-0.30087
-0.413435
-0.377903
-0.223374
-0.413105
-0.301423
-0.55929
-0.33776
-0.337745
-0.418589
-0.419011
-0.457973
-0.343689
-0.384918
-0.346723
-0.421581
-0.343773
-0.458599
-0.352748
-0.427184
-0.467517
-0.355417
-0.429095
-0.352544
-0.466848
-0.346621
-0.245963
-0.326311
-0.364162
-0.320419
-0.240384
-0.207234
-0.238069
-0.355608
-0.23713
-0.35579
-0.257379
-0.37203
-0.256526
-0.372192
-0.336639
-0.259724
-0.226948
-0.325366
-0.322388
-0.407297
-0.324732
-0.34207
-0.380305
-0.371856
-0.287201
-0.206413
-0.23248
-0.301143
-0.248012
-0.312769
-0.244895
-0.354536
-0.320446
-0.124928
-0.238449
-0.184191
-0.154785
-0.114465
-0.224405
-0.29353
-0.11415
-0.228263
-0.0197691
-0.083399
-0.57881
-0.272551
-0.389345
-0.454534
-0.533599
-0.489802
-0.451246
-0.451985
-0.57145
-0.304129
-0.208395
-0.551919
-0.540615
-0.540449
-0.372755
-0.442666
-0.213512
-0.239011
-0.36516
-0.206698
-0.430317
-0.269885
-0.433398
-0.315712
-0.276462
-0.193868
-0.449784
-0.334732
-0.377027
-0.450267
-0.514574
-0.511306
-0.514232
-0.326819
-0.437825
-0.505064
-0.523634
-0.520453
-0.520699
-0.106517
-0.0965672
-0.106265
-0.169006
-0.529864
-0.490713
-0.532775
-0.523847
-0.176319
-0.561846
-0.554171
-0.423597
-0.150725
-0.14514
-0.577849