# vtk DataFile Version 2.0
Unstructured Grid by M++
ASCII
DATASET UNSTRUCTURED_GRID
POINTS 15808 float
  0.835938   0.921875 0
  0.835938   0.835938 0
  0.835938   0.804688 0
  0.828125   0.796875 0
  0.960938   0.992188 0
  0.960938   0.984375 0
  0.960938   0.960938 0
  0.960938   0.953125 0
  0.960938   0.929688 0
  0.960938   0.921875 0
  0.960938   0.867188 0
  0.960938   0.812500 0
  0.960938   0.781250 0
  0.960938   0.726562 0
  0.828125   0.937500 0
  0.828125   0.828125 0
  0.953125   1.000000 0
  0.953125   0.984375 0
  0.953125   0.976562 0
  0.953125   0.953125 0
  0.953125   0.945312 0
  0.953125   0.921875 0
  0.953125   0.914062 0
  0.953125   0.859375 0
  0.953125   0.804688 0
  0.953125   0.773438 0
  0.953125   0.718750 0
  0.820312   0.820312 0
  0.945312   1.000000 0
  0.945312   0.992188 0
  0.945312   0.976562 0
  0.945312   0.968750 0
  0.945312   0.945312 0
  0.945312   0.937500 0
  0.945312   0.851562 0
  0.937500   0.843750 0
  0.945312   0.796875 0
  0.945312   0.765625 0
  0.937500   0.992188 0
  0.937500   0.984375 0
  0.937500   0.968750 0
  0.937500   0.960938 0
  0.937500   0.937500 0
  0.937500   0.929688 0
  0.937500   0.789062 0
  0.937500   0.757812 0
  0.929688   0.984375 0
  0.929688   0.976562 0
  0.929688   0.960938 0
  0.929688   0.953125 0
  0.929688   0.929688 0
  0.929688   0.921875 0
  0.929688   0.781250 0
  0.929688   0.750000 0
  0.796875   0.937500 0
  0.921875   1.000000 0
  0.921875   0.976562 0
  0.921875   0.968750 0
  0.921875   0.953125 0
  0.921875   0.945312 0
  0.921875   0.921875 0
  0.921875   0.914062 0
  0.921875   0.773438 0
  0.921875   0.742188 0
  0.914062   1.000000 0
  0.914062   0.992188 0
  0.914062   0.968750 0
  0.914062   0.960938 0
  0.914062   0.945312 0
  0.914062   0.937500 0
  0.914062   0.906250 0
  0.914062   0.765625 0
  0.914062   0.734375 0
  0.906250   0.812500 0
  0.906250   0.992188 0
  0.906250   0.984375 0
  0.906250   0.960938 0
  0.906250   0.953125 0
  0.906250   0.937500 0
  0.906250   0.929688 0
  0.906250   0.898438 0
  0.906250   0.757812 0
  0.906250   0.726562 0
  0.898438   0.984375 0
  0.898438   0.976562 0
  0.898438   0.953125 0
  0.898438   0.945312 0
  0.898438   0.929688 0
  0.898438   0.921875 0
  0.898438   0.890625 0
  0.898438   0.804688 0
  0.898438   0.750000 0
  0.898438   0.718750 0
  0.765625   0.937500 0
  0.890625   1.000000 0
  0.890625   0.976562 0
  0.890625   0.968750 0
  0.890625   0.945312 0
  0.890625   0.937500 0
  0.890625   0.921875 0
  0.890625   0.882812 0
  0.890625   0.796875 0
  0.890625   0.742188 0
  0.882812   1.000000 0
  0.882812   0.992188 0
  0.882812   0.968750 0
  0.882812   0.960938 0
  0.882812   0.937500 0
  0.882812   0.929688 0
  0.882812   0.875000 0
  0.882812   0.789062 0
  0.882812   0.734375 0
  0.750000   0.921875 0
  0.882812   0.500000 0
  0.875000   0.992188 0
  0.875000   0.984375 0
  0.875000   0.960938 0
  0.875000   0.953125 0
  0.875000   0.929688 0
  0.875000   0.921875 0
  0.875000   0.867188 0
  0.875000   0.812500 0
  0.875000   0.781250 0
  0.875000   0.726562 0
  0.742188   0.937500 0
  0.867188   1.000000 0
  0.867188   0.984375 0
  0.867188   0.976562 0
  0.867188   0.953125 0
  0.867188   0.945312 0
  0.867188   0.921875 0
  0.867188   0.914062 0
  0.867188   0.859375 0
  0.867188   0.835938 0
  0.867188   0.812500 0
  0.867188   0.804688 0
  0.867188   0.773438 0
  0.867188   0.718750 0
  0.859375   1.000000 0
  0.859375   0.992188 0
  0.859375   0.976562 0
  0.859375   0.968750 0
  0.859375   0.945312 0
  0.859375   0.937500 0
  0.859375   0.851562 0
  0.859375   0.828125 0
  0.859375   0.804688 0
  0.859375   0.796875 0
  0.859375   0.765625 0
  0.851562   0.992188 0
  0.851562   0.984375 0
  0.851562   0.968750 0
  0.851562   0.960938 0
  0.851562   0.937500 0
  0.851562   0.929688 0
  0.851562   0.843750 0
  0.851562   0.828125 0
  0.851562   0.820312 0
  0.851562   0.796875 0
  0.851562   0.789062 0
  0.851562   0.757812 0
  0.843750   0.984375 0
  0.843750   0.976562 0
  0.843750   0.960938 0
  0.843750   0.953125 0
  0.843750   0.929688 0
  0.843750   0.921875 0
  0.843750   0.843750 0
  0.843750   0.835938 0
  0.843750   0.820312 0
  0.843750   0.812500 0
  0.843750   0.781250 0
  0.843750   0.750000 0
  0.710938   0.992188 0
  0.710938   0.968750 0
  0.710938   0.937500 0
  0.835938   1.000000 0
  0.835938   0.976562 0
  0.835938   0.968750 0
  0.835938   0.953125 0
  0.835938   0.945312 0
  0.835938   0.914062 0
  0.835938   0.828125 0
  0.835938   0.812500 0
  0.835938   0.773438 0
  0.835938   0.742188 0
  0.835938   0.687500 0
  0.703125   0.984375 0
  0.703125   0.960938 0
  0.703125   0.929688 0
  0.703125   0.921875 0
  0.835938   0.601562 0
  0.703125   0.867188 0
  0.703125   0.812500 0
  0.828125   1.000000 0
  0.828125   0.992188 0
  0.828125   0.968750 0
  0.828125   0.960938 0
  0.828125   0.945312 0
  0.828125   0.906250 0
  0.828125   0.820312 0
  0.828125   0.804688 0
  0.828125   0.765625 0
  0.828125   0.734375 0
  0.695312   1.000000 0
  0.828125   0.679688 0
  0.695312   0.976562 0
  0.695312   0.921875 0
  0.695312   0.914062 0
  0.828125   0.593750 0
  0.695312   0.859375 0
  0.695312   0.804688 0
  0.687500   0.796875 0
  0.820312   0.992188 0
  0.820312   0.984375 0
  0.820312   0.960938 0
  0.820312   0.953125 0
  0.820312   0.937500 0
  0.820312   0.929688 0
  0.812500   0.929688 0
  0.812500   0.921875 0
  0.820312   0.898438 0
  0.812500   0.890625 0
  0.820312   0.843750 0
  0.820312   0.812500 0
  0.820312   0.796875 0
  0.820312   0.757812 0
  0.820312   0.726562 0
  0.687500   1.000000 0
  0.687500   0.992188 0
  0.820312   0.671875 0
  0.687500   0.968750 0
  0.687500   0.937500 0
  0.820312   0.585938 0
  0.687500   0.851562 0
  0.812500   0.984375 0
  0.812500   0.976562 0
  0.812500   0.953125 0
  0.812500   0.945312 0
  0.812500   0.835938 0
  0.812500   0.804688 0
  0.812500   0.750000 0
  0.812500   0.718750 0
  0.679688   0.992188 0
  0.679688   0.984375 0
  0.812500   0.664062 0
  0.679688   0.960938 0
  0.679688   0.937500 0
  0.679688   0.929688 0
  0.812500   0.578125 0
  0.343750   0.562500 0
  0.835938   0.781250 0
  0.210938   0.867188 0
  0.343750   0.507812 0
  0.835938   0.726562 0
  0.210938   0.812500 0
  0.960938   0.789062 0
  0.335938   0.875000 0
  0.468750   0.570312 0
  0.960938   0.757812 0
  0.335938   0.843750 0
  0.468750   0.539062 0
  0.335938   0.554688 0
  0.828125   0.773438 0
  0.203125   0.859375 0
  0.937500   0.476562 0
  0.828125   0.742188 0
  0.203125   0.828125 0
  0.937500   0.445312 0
  0.929688   0.500000 0
  0.820312   0.789062 0
  0.195312   0.875000 0
  0.507812   0.218750 0
  0.328125   0.546875 0
  0.820312   0.765625 0
  0.195312   0.851562 0
  0.929688   0.468750 0
  0.820312   0.734375 0
  0.195312   0.820312 0
  0.945312   0.742188 0
  0.320312   0.828125 0
  0.453125   0.523438 0
  0.320312   0.570312 0
  0.921875   0.500000 0
  0.812500   0.789062 0
  0.187500   0.875000 0
  0.921875   0.492188 0
  0.812500   0.781250 0
  0.187500   0.867188 0
  0.500000   0.210938 0
  0.320312   0.539062 0
  0.812500   0.757812 0
  0.187500   0.843750 0
  0.921875   0.460938 0
  0.812500   0.726562 0
  0.187500   0.812500 0
  0.937500   0.734375 0
  0.312500   0.820312 0
  0.445312   0.515625 0
  0.312500   0.562500 0
  0.914062   0.492188 0
  0.914062   0.484375 0
  0.492188   0.203125 0
  0.312500   0.531250 0
  0.914062   0.453125 0
  0.929688   0.726562 0
  0.304688   0.812500 0
  0.617188   0.156250 0
  0.437500   0.507812 0
  0.304688   0.554688 0
  0.906250   0.484375 0
  0.484375   0.195312 0
  0.906250   0.445312 0
  0.921875   0.718750 0
  0.296875   0.804688 0
  0.609375   0.148438 0
  0.429688   0.500000 0
  0.898438   0.492188 0
  0.296875   0.546875 0
  0.476562   0.187500 0
  0.898438   0.437500 0
  0.914062   0.742188 0
  0.289062   0.828125 0
  0.421875   0.523438 0
  0.601562   0.140625 0
  0.890625   0.492188 0
  0.890625   0.484375 0
  0.289062   0.539062 0
  0.468750   0.179688 0
  0.460938   0.546875 0
  0.281250   0.984375 0
  0.906250   0.734375 0
  0.281250   0.820312 0
  0.414062   0.515625 0
  0.593750   0.132812 0
  0.882812   0.703125 0
  0.281250   0.640625 0
  0.281250   0.632812 0
  0.882812   0.562500 0
  0.882812   0.484375 0
  0.882812   0.476562 0
  0.281250   0.531250 0
  0.460938   0.171875 0
  0.273438   0.625000 0
  0.875000   0.554688 0
  0.453125   0.562500 0
  0.453125   0.539062 0
  0.273438   0.976562 0
  0.898438   0.781250 0
  0.273438   0.867188 0
  0.406250   0.562500 0
  0.898438   0.726562 0
  0.273438   0.812500 0
  0.406250   0.507812 0
  0.585938   0.125000 0
  0.875000   0.695312 0
  0.273438   0.632812 0
  0.875000   0.468750 0
  0.273438   0.523438 0
  0.453125   0.164062 0
  0.265625   0.625000 0
  0.445312   0.554688 0
  0.445312   0.531250 0
  0.265625   0.968750 0
  0.890625   0.773438 0
  0.265625   0.859375 0
  0.398438   0.554688 0
  0.890625   0.718750 0
  0.265625   0.804688 0
  0.398438   0.500000 0
  0.578125   0.117188 0
  0.867188   0.687500 0
  0.867188   0.492188 0
  0.867188   0.460938 0
  0.265625   0.515625 0
  0.445312   0.156250 0
  0.437500   0.546875 0
  0.882812   0.765625 0
  0.257812   0.851562 0
  0.390625   0.546875 0
  0.570312   0.109375 0
  0.859375   0.679688 0
  0.257812   0.640625 0
  0.859375   0.570312 0
  0.437500   0.289062 0
  0.257812   0.562500 0
  0.859375   0.484375 0
  0.859375   0.453125 0
  0.257812   0.507812 0
  0.429688   0.539062 0
  0.875000   0.789062 0
  0.250000   0.875000 0
  0.382812   0.570312 0
  0.875000   0.757812 0
  0.250000   0.843750 0
  0.562500   0.187500 0
  0.382812   0.539062 0
  0.562500   0.101562 0
  0.250000   0.640625 0
  0.851562   0.562500 0
  0.429688   0.281250 0
  0.875000   0.523438 0
  0.250000   0.609375 0
  0.742188   0.828125 0
  0.117188   0.914062 0
  0.851562   0.531250 0
  0.250000   0.585938 0
  0.742188   0.796875 0
  0.117188   0.882812 0
  0.250000   0.554688 0
  0.851562   0.476562 0
  0.851562   0.445312 0
[...]
CELL_DATA 30592
SCALARS scalar_value float 1
LOOKUP_TABLE default
-0.12754
-0.192567
-0.195883
-0.214578
-0.208207
-0.0448004
-0.74027
-0.354669
-0.351996
-0.378203
-0.344965
-0.339582
-0.359938
-0.316961
-0.359708
-0.723152
-0.724447
-0.726128
-0.711228
-0.69191
-0.593774
-0.582853
-0.594036
-0.686436
-0.681288
-0.221628
-0.211438
-0.206908
-0.199445
-0.219936
-0.229908
-0.163298
-0.158881
-0.151219
-0.184597
-0.17275
-0.127069
-0.138118
-0.115015
-0.114192
-0.137119
-0.125242
-0.578313
-0.0354734
-0.0387392
-0.00712381
-0.0382743
-0.0277827
-0.0377872
-0.377492
-0.381976
-0.342699
-0.544838
-0.532549
-0.635055
-0.63348
-0.637832
-0.627523
-0.680885
-0.670149
-0.659506
-0.648977
-0.67489
-0.706765
-0.721257
-0.691382
-0.719725
-0.528287
-0.546591
-0.549551
-0.356694
-0.294069
-0.378744
-0.324919
-0.218839
-0.234396
-0.768027
-0.0931526
-0.490774
-0.459849
-0.1296
-0.478627
-0.219629
-0.736256
-0.730948
-0.45399
-0.124349
-0.109174
-0.10153
-0.112568
-0.102256
-0.150095
-0.171514
-0.178948
-0.459806
-0.73676
-0.72814
-0.74052
-0.21402
-0.239275
-0.234577
-0.227143
-0.237256
-0.410557
-0.541978
-0.319339
-0.317336
-0.321454
-0.335589
-0.526346
-0.518331
-0.530936
-0.506503
-0.494056
-0.508099
-0.53261
-0.521943
-0.507791
-0.497996
-0.514605
-0.16207
-0.113932
-0.117517
-0.126405
-0.183273
-0.136817
-0.140185
-0.141252
-0.130885
-0.375017
-0.325886
-0.316112
-0.321485
-0.315526
-0.355751
-0.305332
-0.301777
-0.375571
-0.320121
-0.315437
-0.33424
-0.309203
-0.285737
-0.303209
-0.225521
-0.197898
-0.192022
-0.190658
-0.46761
-0.418888
-0.409952
-0.173727
-0.609086
-0.609334
-0.445477
-0.441115
-0.182178
-0.185206
-0.187449
-0.208476
-0.201179
-0.579473
-0.577902
-0.553366
-0.0470809
-0.0645116
-0.0468465
-0.0646935
-0.195228
-0.198396
-0.204892
-0.735169
-0.723117
-0.721258
-0.700997
-0.698663
-0.71166
-0.238066
-0.0138731
-0.0109954
-0.0135187
-0.0265146
-0.00573545
-0.672458
-0.670647
-0.675337
-0.664167
-0.09666
-0.0860534
-0.642411
-0.641609
-0.646473
-0.635877
-0.613727
-0.614027
-0.0346334
-0.072647
-0.276195
-0.447478
-0.443183
-0.429895
-0.425525
-0.10394
-0.748432
-0.738103
-0.737617
-0.726397
-0.715101
-0.71507
-0.218812
-0.28436
-0.311068
-0.196549
-0.188368
-0.0888669
-0.0998903
-0.18598
-0.594625
-0.591093
-0.594465
-0.539531
-0.547097
-0.551067
-0.215645
-0.752137
-0.749051
-0.742008
-0.75407
-0.751253
-0.755508
-0.744085
-0.731573
-0.728318
-0.720796
-0.685734
-0.685555
-0.0518768
-0.0547977
-0.0544131
-0.0503977
-0.0616443
-0.0738204
-0.0773544
-0.0849637
-0.458571
-0.454221
-0.252855
-0.26018
-0.242007
-0.238244
-0.241825
-0.42464
-0.41926
-0.410417
-0.422795
-0.0443653
-0.0402575
-0.0320653
-0.0280097
-0.0080878
-0.0438684
-0.0318792
-0.0435939
-0.0199241
-0.0159226
-0.00799823
-0.00794834
-0.0540217
-0.00396145
-0.00393619
-0.505052
-0.529203
-0.0203542
-0.014555
-0.0116274
-0.0144565
-0.028717
-0.351867
-0.340931
-0.335109
-0.367631
-0.785959
-0.599343
-0.593077
-0.591213
-0.580228
-0.573409
-0.572065
-0.512794
-0.494571
-0.500484
-0.514898
-0.516648
-0.52782
-0.368821
-0.312407
-0.365829
-0.323079
-0.375511
-0.760098
-0.755735
-0.498962
-0.531226
-0.497114
-0.494695
-0.676453
-0.618965
-0.611833
-0.763493
-0.754394
-0.744626
-0.734426
-0.298649
-0.255591
-0.295906
-0.289815
-0.29015
-0.332868
-0.294046
-0.317089
-0.29018
-0.313353
-0.312108
-0.307582
-0.31544
-0.286235
-0.282422
-0.284621
-0.447184
-0.0632151
-0.406207
-0.445524
-0.43433
-0.43001
-0.421265
-0.411254
-0.0739492
-0.0412783
-0.00646589
-0.638567
-0.628273
-0.618081
-0.607974
-0.120244
-0.0660999
-0.597932
-0.587935
-0.577961
-0.567995
-0.0157267
-0.456341
-0.451925
-0.436757
-0.445853
-0.437269
-0.434686
-0.40766
-0.391608
-0.400569
-0.326586
-0.391021
-0.206219
-0.182941
-0.192314
-0.377944
-0.314048
-0.374305
-0.685867
-0.553221
-0.550179
-0.554222
-0.540261
-0.541844
-0.535637
-0.539776
-0.53535
-0.53726
-0.528708
-0.526605
-0.520628
-0.513654
-0.102781
-0.568107
-0.563182
-0.520668
-0.556563
-0.554592
-0.557215
-0.549953
-0.109959
-0.162661
-0.153566
-0.164568
-0.218323
-0.17363
-0.176753
-0.172249
-0.166059
-0.164952
-0.158622
-0.146905
-0.110748
-0.157546
-0.178541
-0.445742
-0.435976
-0.449918
-0.443861
-0.430243
-0.428108
-0.318577
-0.311385
-0.29939
-0.308905
-0.299456
-0.405104
-0.0873996
-0.0795512
-0.0865767
-0.0758824
-0.076778
-0.0638126
-0.055896
-0.0517846
-0.235309
-0.233432
-0.125412
-0.307177
-0.619021
-0.691484
-0.620971
-0.707329
-0.623545
-0.496939
-0.351405
-0.37247
-0.365788
-0.418729
-0.374849
-0.353317
-0.215504
-0.355736
-0.340952
-0.349207
-0.315705
-0.340519
-0.685962
-0.68169
-0.673098
-0.710355
-0.706034
-0.698016
-0.70963
-0.332146
-0.300767
-0.334155
-0.354619
-0.349975
-0.0402165
-0.0318029
-0.0346494
-0.015955
-0.00639859
-0.116212
-0.0642111
-0.067829
-0.0523964
-0.175368
-0.12733
-0.139994
-0.54913
-0.54173
-0.537421
-0.52531
-0.517354
-0.513025
-0.501754
-0.4888
-0.489243
-0.106982
-0.462445
-0.462187
-0.47726
-0.829808
-0.0643886
-0.64382
-0.659731
-0.591169
-0.588
-0.336376
-0.324902
-0.313677
-0.302715
-0.421573
-0.417241
-0.270649
-0.258598
-0.706763
-0.701925
-0.693174
-0.679821
-0.674842
-0.666763
-0.67801
-0.699186
-0.574377
-0.571136
-0.57427
-0.513745
-0.564657
-0.543458
-0.541408
-0.542776
-0.434551
-0.430243
-0.404144
-0.408512
-0.13098
-0.0753801
-0.123468
-0.134243
-0.757213
-0.754539
-0.747132
-0.736491
-0.73336
-0.738239
-0.725223
-0.737785
-0.72943
-0.725994
-0.724679
-0.335236
-0.337885
-0.0831377
-0.0203098
-0.0162465
-0.0202371
-0.0555417
-0.00404339
-0.00402704
-0.374251
-0.330246
-0.36481
-0.357882
-0.320006
-0.35381
-0.354997
-0.345813
-0.343034
-0.312764
-0.341912
-0.324232
-0.363874
-0.318371
-0.297311
-0.316842
-0.284591
-0.307411
-0.342163
-0.302369
-0.354104
-0.308578
-0.309885
-0.268194
-0.303283
-0.298481
-0.735238
-0.335497
-0.331631
-0.290849
-0.355294
-0.728539
-0.724489
-0.734641
-0.605023
-0.714644
-0.597344
-0.700716
-0.623777
-0.74202
-0.732626
-0.613538
-0.728368
-0.727526
-0.307752
-0.30939
-0.292139
-0.313608
-0.369134
-0.318492
-0.296942
-0.328762
-0.701886
-0.696753
-0.589931
-0.684559
-0.580439
-0.671243
-0.727048
-0.670551
-0.695823
-0.692314
-0.592534
-0.6798
-0.670952
-0.581649
-0.667291
-0.6658
-0.28536
-0.33339
-0.275394
-0.341308
-0.28032
-0.269693
-0.269104
-0.329118
-0.265032
-0.287446
-0.258054
-0.341706
-0.275403
-0.305262
-0.269837
-0.270837
-0.72394
-0.713269
-0.702494
-0.691681
-0.02004
-0.0802959
-0.313135
-0.275702
-0.324359
-0.273596
-0.282043
-0.272075
-0.213837
-0.261094
-0.64709
-0.611224
-0.603775
-0.704819
-0.61529
-0.678094
-0.593033
-0.593444
-0.61579
-0.612231
-0.60474
-0.261199
-0.253987
-0.335115
-0.26292
-0.3253
-0.240752
-0.254203
-0.561237
-0.572425
-0.616546
-0.612841
-0.61637
-0.594683
-0.591101
-0.583881
-0.616081
-0.61235
-0.605273
-0.615648
-0.605056
-0.601466
-0.589944
-0.251159
-0.238361
-0.228191
-0.220238
-0.302704
-0.230632
-0.214782
-0.212132
-0.195
-0.169183
-0.59668
-0.594517
-0.577748
-0.589252
-0.572534
-0.318523
-0.320379
-0.553367
-0.0621056
-0.0520687
-0.441258
-0.455934
-0.466697
-0.432967
-0.428277
-0.443668
-0.823122
-0.554775
-0.594123
-0.547298
-0.587109
-0.581448
-0.0557753
-0.495921
-0.533209
-0.0125447
-0.00631233
-0.521158
-0.0962199
-0.055788
-0.765583
-0.755334
-0.750819
-0.749701
-0.014477
-0.017958
-0.00735029
-0.00366987
-0.00720286
-0.0035985
-0.00356028
-0.409904
-0.405203
-0.379713
-0.389506
-0.370735
-0.594536
-0.590924
-0.594629
-0.273517
-0.262299
-0.271388
-0.257921
-0.260366
-0.239686
-0.249254
-0.269402
-0.265224
-0.258578
-0.267616
-0.0456591
-0.594571
-0.6141
-0.5972
-0.0608783
-0.102829
-0.0627837
-0.0918275
-0.0545819
-0.484703
-0.485465
-0.473534
-0.270663
-0.253549
-0.248778
-0.638203
-0.634319
-0.627057
-0.637665
-0.68494
-0.681034
-0.673377
-0.684745
-0.034763
-0.0222459
-0.025184
-0.0219416
-0.579087
-0.627796
-0.635294
-0.638994
-0.639058
-0.115128
-0.112116
-0.309134
-0.366004
-0.685022
-0.630463
-0.588697
-0.621856
-0.634457
-0.465715
-0.0925675
-0.0323828
-0.0498403
-0.0284107
-0.0497403
-0.0282988
-0.0661468
-0.0160177
-0.0317298
-0.00400741
-0.0314124
-0.00398534
-0.515542
-0.648482
-0.597174
-0.547521
-0.545277
-0.578287
-0.532193
-0.569405
-0.522028
-0.578357
-0.529784
-0.52563
-0.569061
-0.51961
-0.128252
-0.122292
-0.115478
-0.112972
-0.102161
-0.105342
-0.678676
-0.667419
-0.66655
-0.0311341
-0.0230717
-0.0641853
-0.0324402
-0.0141661
-0.0250709
-0.0358633
-0.0702176
-0.0484902
-0.0513649
-0.458137
-0.418703
-0.461174
-0.525245
-0.462362
-0.445218
-0.0528082
-0.0251199
-0.0372148
-0.0780737
-0.02607
-0.0825714
-0.483271
-0.47916
-0.53429
-0.471712
-0.535953
-0.53656
-0.547596
-0.570824
-0.564065
-0.561021
-0.0496326
-0.0972775
-0.0948057
-0.0855546
-0.60158
-0.588733
-0.431226
-0.419572
-0.582491
-0.39726
-0.397779
-0.355013
-0.39393
-0.395156
-0.398439
-0.356525
-0.393074
-0.384236
-0.346938
-0.379039
-0.380506
-0.217134
-0.23226
-0.0341841
-0.0274279
-0.023889
-0.0138257
-0.0069546
-0.0171224
-0.00347836
-0.395941
-0.410573
-0.42111
-0.3997
-0.0341739
-0.0248502
-0.230731
-0.248478
-0.0643578
-0.0645558
-0.0636097
-0.629001
-0.63212
-0.621886
-0.0676301
-0.0521011
-0.215089
-0.198036
-0.660782
-0.602314
-0.644488
-0.581632
-0.646557
-0.648933
-0.654455
-0.622688
-0.336822
-0.394833
-0.397709
-0.393801
-0.325466
-0.384412
-0.135184
-0.226124
-0.270424
-0.337494
-0.328046
-0.719649
-0.716756
-0.721062
-0.709626
-0.404901
-0.408098
-0.402353
-0.417192
-0.213952
-0.328556
-0.12102
-0.473256
-0.507318
-0.471201
-0.468974
-0.756184
-0.751973
-0.304318
-0.287288
-0.297265
-0.374145
-0.420377
-0.409399
-0.764222
-0.750869
-0.75101
-0.232086
-0.227527
-0.238604
-0.604632
-0.602439
-0.60862
-0.606826
-0.608945
-0.587214
-0.611282
-0.728276
-0.612993
-0.712132
-0.711183
-0.416427
-0.359435
-0.368014
-0.354869
-0.314142
-0.34814
-0.296247
-0.361087
-0.369484
-0.376455
-0.0749997
-0.0777268
-0.0542038
-0.0392749
-0.0752498
-0.211667
-0.0500317
-0.207566
-0.217846
-0.199333
-0.220992
-0.217002
-0.220251
-0.363277
-0.401614
-0.182606
-0.712233
-0.614615
-0.706776
-0.655868
-0.710373
-0.421359
-0.0242855
-0.0330532
-0.0211946
-0.0240643
-0.0586538
-0.0210151
-0.0299866
-0.0151909
-0.0150566
-0.0297785
-0.539866
-0.538121
-0.524533
-0.555127
-0.522863
-0.520295
-0.0250396
-0.0933324
-0.00637759
-0.0771113
-0.225231
-0.220616
-0.158703
-0.214965
-0.213165
-0.199806
-0.227177
-0.20402
-0.276697
-0.206591
-0.203807
-0.192243
-0.189681
-0.206772
-0.198059
-0.183262
-0.674612
-0.504756
-0.495499
-0.490135
-0.463079
-0.467278
-0.462711
-0.476193
-0.18249
-0.172737
-0.233626
-0.185265
-0.17991
-0.217424
-0.166694
-0.164653
-0.256358
-0.213955
-0.220601
-0.205123
-0.20168
-0.222995
-0.212065
-0.293328
-0.260893
-0.28543
-0.677964
-0.675982
-0.680411
-0.669578
-0.627745
-0.624042
-0.0502074
-0.530143
-0.526423
-0.589893
-0.51957
-0.488151
-0.529561
-0.0212003
-0.427874
-0.422875
-0.426317
-0.1887
-0.170446
-0.260676
-0.238194
-0.771817
-0.765499
-0.769769
-0.75565
-0.523512
-0.519236
-0.469167
-0.531172
-0.368618
-0.350948
-0.38849
-0.386253
-0.182006
-0.177725
-0.180796
-0.122762
-0.179642
-0.133813
-0.15343
-0.14804
-0.138523
-0.137598
-0.132578
-0.123325
-0.106067
-0.0507571
-0.0986276
-0.109361
-0.206587
-0.253101
-0.1943
-0.241937
-0.2057
-0.786096
-0.78534
-0.739031
-0.73143
-0.728261
-0.727156
-0.711398
-0.755268
-0.708929
-0.707073
-0.516535
-0.527718
-0.527815
-0.584283
-0.517213
-0.524502
-0.595334
-0.528009
-0.645303
-0.639362
-0.634767
-0.659879
-0.653495
-0.652519
-0.648145
-0.255599
-0.254483
-0.261137
-0.244878
-0.240899
-0.24382
-0.264012
-0.2604
-0.263518
-0.0204955
-0.0955695
-0.052744
-0.491208
-0.506336
-0.516823
-0.482883
-0.456283
-0.511797
-0.504336
-0.278816
-0.152008
-0.253479
-0.756553
-0.749007
-0.746171
-0.744249
-0.623488
-0.359903
-0.34806
-0.744721
-0.616162
-0.730038
-0.610995
-0.743752
-0.617289
-0.730854
-0.72693
-0.71952
-0.73036
-0.0987581
-0.105963
-0.102067
-0.104795
-0.375984
-0.387148
-0.36634
-0.356859
-0.376847
-0.35454
-0.0899978
-0.148147
-0.130064
-0.077522
-0.133814
-0.124629
-0.142196
-0.204398
-0.145753
-0.144594
-0.203429
-0.538922
-0.523986
-0.516301
-0.527903
-0.504675
-0.492839
-0.504701
-0.52825
-0.516746
-0.528828
-0.449361
-0.432346
-0.427971
-0.366588
-0.429619
-0.35694
-0.4198
-0.419181
-0.414797
-0.357226
-0.357855
-0.345051
-0.347243
-0.333165
-0.347619
-0.373367
-0.369978
-0.36434
-0.361579
-0.312794
-0.374869
-0.513131
-0.454342
-0.490208
-0.488064
-0.11159
-0.0259936
-0.0997812
-0.0837899
-0.479202
-0.485449
-0.502586
-0.514286
-0.0738889
-0.0992515
-0.0880969
-0.0371952
-0.112343
-0.594706
-0.262264
-0.676166
-0.635289
-0.667477
-0.582335
-0.664102
-0.582614
-0.662194
-0.0964131
-0.0891413
-0.0768342
-0.092238
-0.136142
-0.0879947
-0.0800795
-0.0916139
-0.368793
-0.431208
-0.424109
-0.288358
-0.253432
-0.274881
-0.258726
-0.286572
-0.324287
-0.29009
-0.336661
-0.301727
-0.344669
-0.303895
-0.298103
-0.301734
-0.476566
-0.467174
-0.481751
-0.502694
-0.436375
-0.440086
-0.435071
-0.448957
-0.483101
-0.543129
-0.478126
-0.467194
-0.484813
-0.0679308
-0.216896
-0.200975
-0.292229
-0.358994
-0.351833
-0.574042
-0.563181
-0.567217
-0.55741
-0.0218564
-0.0928493
-0.146484
-0.138881
-0.0810786
-0.135791
-0.134385
-0.0687808
-0.124103
-0.116907
-0.121878
-0.127074
-0.561095
-0.514299
-0.506622
-0.068386
-0.122751
-0.0565448
-0.112874
-0.0562326
-0.11156
-0.263602
-0.218815
-0.589186
-0.621235
-0.669321
-0.616626
-0.629787
-0.241338
-0.591688
-0.0404552
-0.0909821
-0.0954142
-0.0867967
-0.0790118
-0.0903459
-0.0748672
-0.0281631
-0.0784647
-0.0670757
-0.0666149
-0.0897071
-0.0890663
-0.762062
-0.754418
-0.750665
-0.750709
-0.61571
-0.366794
-0.357304
-0.346089
-0.396057
-0.342096
-0.344468
-0.337555
-0.301359
-0.3311
-0.327506
-0.332031
-0.329326
-0.280183
-0.283183
-0.752772
-0.742565
-0.741104
-0.486706
-0.43059
-0.727525
-0.716652
-0.295283
-0.330283
-0.318014
-0.209448
-0.25974
-0.192746
-0.262207
-0.0384165
-0.0603568
-0.0571758
-0.0482626
-0.04242
-0.0647744
-0.592125
-0.587409
-0.574705
-0.577936
-0.0203232
-0.0172768
-0.557618
-0.587359
-0.568835
-0.149341
-0.152497
-0.159835
-0.15882
-0.170355
-0.280295
-0.305367
-0.312946
-0.622155
-0.562649
-0.558744
-0.528011
-0.560577
-0.282114
-0.206342
-0.270825
-0.204501
-0.268583
-0.74235
-0.738474
-0.742725
-0.730484
-0.466263
-0.419272
-0.458217
-0.455657
-0.61456
-0.614729
-0.00283019
-0.473879
-0.427985
-0.425874
-0.419019
-0.129367
-0.139015
-0.179826
-0.136897
-0.05025
-0.125523
-0.1277
-0.0535899
-0.134404
-0.110167
-0.676749
-0.546284
-0.572234
-0.540062
-0.537269
-0.603918
-0.659575
-0.654362
-0.0441275
-0.10078
-0.086189
-0.0942558
-0.0322351
-0.0916367
-0.0903711
-0.74629
-0.694537
-0.698493
-0.745448
-0.694166
-0.752933
-0.706716
-0.705177
-0.651926
-0.754974
-0.642526
-0.636012
-0.690753
-0.639785
-0.769664
-0.655204
-0.705747
-0.647459
-0.637801
-0.631484
-0.685874
-0.626018
-0.741171
-0.628065
-0.726629
-0.618768
-0.693364
-0.620566
-0.621391
-0.11359
-0.282104
-0.272651
-0.28359
-0.292186
-0.294168
-0.304352
-0.188805
-0.192156
-0.193247
-0.20472
-0.212167
-0.282984
-0.216763
-0.205521
-0.213537
-0.217804
-0.0313549
-0.0591863
-0.330861
-0.389007
-0.44807
-0.398402
-0.458353
-0.429559
-0.449823
-0.539313
-0.60372
-0.600872
-0.603705
-0.523144
-0.579741
-0.180935
-0.164067
-0.514002
-0.55165
-0.147087
-0.527466
-0.0201455
-0.0815419
-0.175435
-0.231417
-0.207531
-0.184798
-0.296791
-0.24216
-0.289933
-0.242445
-0.290757
-0.285436
-0.281005
-0.282803
-0.311345
-0.281941
-0.218648
-0.271739
-0.218228
-0.279554
-0.299132
-0.28345
-0.284469
-0.616261
-0.729193
-0.611756
-0.658904
-0.609106
-0.0771019
-0.115722
-0.0740325
-0.368905
-0.347539
-0.340573
-0.378524
-0.338389
-0.335848
-0.286895
-0.309245
-0.29311
-0.356549
-0.294414
-0.357048
-0.298088
-0.351473
-0.326746
-0.383286
-0.322642
-0.359229
-0.320716
-0.317846
-0.28167
-0.348208
-0.282799
-0.277509
-0.343952
-0.315028
-0.343516
-0.312276
-0.149085
-0.656151
-0.658858
-0.648274
-0.24137
-0.308285
-0.297579
-0.693511
-0.688526
-0.681264
-0.690885
-0.129039
-0.714772
-0.709664
-0.701463
-0.712806
-0.538973
-0.566774
-0.546361
-0.550067
-0.734961
-0.730463
-0.722688
-0.733634
-0.436702
-0.377577
-0.389119
-0.373026
-0.0173448
-0.373157
-0.435641
-0.287264
-0.0760463
-0.105992
-0.066308
-0.0654566
-0.0556767
-0.00363499
-0.0488267
-0.0563575
-0.088217
-0.0462066
-0.0456782
-0.784753
-0.400884
-0.444654
-0.436266
-0.309507
-0.300332
-0.718617
-0.777718
-0.773746
-0.77893
-0.780426
-0.625269
-0.776796
-0.782284
-0.767596
-0.75117
-0.747108
-0.752618
-0.737436
-0.318511
-0.142002
-0.310586
-0.314113
-0.3234
-0.23015
-0.183799
-0.324986
-0.339461
-0.333095
-0.323407
-0.332968
-0.319853
-0.286069
-0.296966
-0.316671
-0.304329
-0.365582
-0.305814
-0.300907
-0.33029
-0.312309
-0.31679
-0.319798
-0.322585
-0.168084
-0.396257
-0.390614
-0.393438
-0.399348
-0.343933
-0.3838
-0.36487
-0.383441
-0.381497
-0.201676
-0.149362
-0.118468
-0.134913
-0.114088
-0.134094
-0.118985
-0.108199
-0.105738
-0.10198
-0.104182
-0.33178
-0.377639
-0.370526
-0.367652
-0.324482
-0.366254
-0.419248
-0.382025
-0.32442
-0.379317
-0.383805
-0.405124
-0.372021
-0.390218
-0.360303
-0.153964
-0.223393
-0.178112
-0.190794
-0.70353
-0.691865
-0.691667
-0.358343
-0.343525
-0.359463
-0.340952
-0.456645
-0.518219
-0.551099
-0.273967
-0.270768
-0.519034
-0.114701
-0.101943
-0.497667
-0.493347
-0.44391
-0.505184
-0.036699
-0.0976357
-0.667572
-0.661074
-0.659491
-0.656231
-0.232618
-0.25087
-0.182885
-0.245348
-0.653233
-0.648617
-0.642556
-0.650038
-0.517683
-0.507412
-0.497029
-0.486513
-0.503372
-0.463532
-0.506612
-0.507283
-0.242584
-0.201575
-0.245197
-0.260135
-0.240656
-0.273829
-0.252357
-0.243278
-0.252911
-0.254884
-0.238801
-0.241436
-0.248479
-0.261917
-0.222466
-0.264341
-0.271224
-0.0937462
-0.0549581
-0.0451217
-0.0445376
-0.657772
-0.661601
-0.649842
-0.766448
-0.661216
-0.633421
-0.736555
-0.636893
-0.72151
-0.625625
-0.637116
-0.691483
-0.624838
-0.699017
-0.630365
-0.0916413
-0.0430072
-0.0969447
-0.103356
-0.102074
-0.103865
-0.100334
-0.0913218
-0.0911613
-0.276406
-0.229134
-0.280272
-0.258965
-0.290539
-0.275405
-0.29479
-0.273143
-0.0652806
-0.0566047
-0.0925314
-0.505655
-0.44687
-0.490669
-0.500895
-0.662532
-0.6141
-0.662454
-0.647894
-0.635183
-0.58658
-0.621598
-0.21292
-0.200199
-0.165883
-0.262964
-0.240946
-0.300134
-0.2334
-0.273118
-0.230745
-0.228519
-0.286924
-0.220881
-0.220352
-0.279497
-0.212516
-0.207479
-0.397981
-0.0749265
-0.0864566
-0.0765401
-0.0851188
-0.0529409
-0.0517662
-0.480784
-0.476586
-0.468521
-0.480475
-0.480354
-0.534752
-0.476108
-0.467546
-0.480473
-0.127344
-0.0732887
-0.119991
-0.130535
-0.0468861
-0.0534187
-0.0557362
-0.042658
-0.0420148
-0.0517954
-0.0681598
-0.148659
-0.0600751
-0.14615
-0.614199
-0.611258
-0.615035
-0.60448
-0.0536185
-0.0240788
-0.151457
-0.152555
-0.204317
-0.14859
-0.138917
-0.139498
-0.153613
-0.0273101
-0.025489
-0.23031
-0.275783
-0.136587
-0.148098
-0.572418
-0.570291
-0.573334
-0.268562
-0.238732
-0.259539
-0.603662
-0.53082
-0.433585
-0.44701
-0.429016
-0.432187
-0.456073
-0.45524
-0.0191131
-0.0189647
-0.580853
-0.515967
-0.514495
-0.5012
-0.439309
-0.427669
-0.0702881
-0.100656
-0.114601
-0.0842783
-0.0727217
-0.0930832
-0.0509871
-0.480609
-0.445257
-0.483057
-0.493623
-0.478972
-0.784602
-0.781452
-0.787505
-0.77209
-0.395327
-0.432619
-0.393038
-0.390908
-0.42075
-0.414942
-0.405599
-0.418517
-0.371801
-0.369464
-0.374747
-0.321051
-0.361857
-0.529824
-0.573957
-0.571261
-0.574292
-0.565433
-0.59113
-0.584018
-0.580546
-0.558117
-0.561989
-0.558502
-0.569344
-0.118817
-0.10552
-0.121731
-0.0855779
-0.132392
-0.0494145
-0.157765
-0.160885
-0.168289
-0.558017
-0.548013
-0.146236
-0.183289
-0.133342
-0.186425
-0.181463
-0.194507
-0.535249
-0.552854
-0.535232
-0.146804
-0.113249
-0.114418
-0.131532
-0.572626
-0.569065
-0.561667
-0.524025
-0.572861
-0.500799
-0.448893
-0.508345
-0.0255422
-0.484168
-0.519298
-0.509081
-0.0501964
-0.178125
-0.186089
-0.190868
-0.0656724
-0.783853
-0.582743
-0.50289
-0.556248
-0.552604
-0.555274
-0.546133
-0.624765
-0.620435
-0.551266
-0.535326