# vtk DataFile Version 2.0
Unstructured Grid by M++
ASCII
DATASET UNSTRUCTURED_GRID
POINTS 81 float
  1.000000   0.625000 0
  0.750000   0.375000 0
  1.000000   0.000000 0
  0.875000   0.875000 0
  0.750000   0.125000 0
  1.000000   1.000000 0
  0.875000   0.250000 0
  0.625000   0.875000 0
  1.000000   0.750000 0
  0.875000   0.000000 0
  1.000000   0.250000 0
  0.625000   0.375000 0
  0.875000   0.500000 0
  0.625000   0.625000 0
  1.000000   0.500000 0
  0.750000   0.500000 0
  0.750000   1.000000 0
  1.000000   0.125000 0
  0.625000   0.250000 0
  0.750000   0.750000 0
  0.625000   0.000000 0
  0.125000   0.375000 0
  0.000000   0.500000 0
  0.125000   0.625000 0
  0.625000   1.000000 0
  1.000000   0.875000 0
  0.875000   0.125000 0
  0.500000   0.250000 0
  0.625000   0.500000 0
  0.250000   0.625000 0
  0.000000   0.625000 0
  0.375000   0.500000 0
  0.375000   0.000000 0
  0.000000   0.125000 0
  0.125000   0.875000 0
  0.875000   1.000000 0
  0.750000   0.250000 0
  0.375000   0.375000 0
  0.250000   0.375000 0
  0.625000   0.750000 0
  0.125000   0.125000 0
  0.500000   0.000000 0
  0.250000   0.875000 0
  0.125000   0.500000 0
  0.500000   0.375000 0
  0.125000   0.000000 0
  0.250000   0.750000 0
  0.250000   0.500000 0
  0.000000   0.875000 0
  0.875000   0.625000 0
  0.500000   0.750000 0
  0.750000   0.625000 0
  0.250000   0.000000 0
  0.375000   0.750000 0
  0.750000   0.875000 0
  0.625000   0.125000 0
  0.250000   0.250000 0
  0.375000   1.000000 0
  0.375000   0.250000 0
  0.000000   0.375000 0
  0.500000   1.000000 0
  0.875000   0.750000 0
  0.750000   0.000000 0
  0.375000   0.125000 0
  0.500000   0.875000 0
  0.000000   0.000000 0
  0.125000   0.750000 0
  0.500000   0.625000 0
  0.125000   0.250000 0
  0.500000   0.125000 0
  0.250000   1.000000 0
  0.250000   0.125000 0
  0.000000   1.000000 0
  0.375000   0.875000 0
  0.000000   0.750000 0
  0.375000   0.625000 0
  0.000000   0.250000 0
  0.125000   1.000000 0
  1.000000   0.375000 0
  0.500000   0.500000 0
  0.875000   0.375000 0
CELLS 64 320
4 56 71 58 63
4 27 58 69 63
4 41 69 32 63
4 76 33 68 40
4 27 44 58 37
4 79 31 44 37
4 56 38 68 21
4 56 58 38 37
4 52 32 71 63
4 47 38 31 37
4 76 68 59 21
4 22 59 43 21
4 65 45 33 40
4 47 43 38 21
4 52 71 45 40
4 56 68 71 40
4 74 30 66 23
4 46 66 29 23
4 22 43 30 23
4 72 48 77 34
4 46 53 42 73
4 50 64 53 73
4 70 42 57 73
4 74 66 48 34
4 46 42 66 34
4 47 29 43 23
4 70 77 42 34
4 60 57 64 73
4 79 67 31 75
4 47 31 29 75
4 50 53 67 75
4 46 29 53 75
4 10 78 6 80
4 36 6 1 80
4 15 1 12 80
4 36 4 6 26
4 14 12 78 80
4 2 17 9 26
4 36 18 4 55
4 15 28 1 11
4 62 4 20 55
4 10 6 17 26
4 27 18 44 11
4 62 9 4 26
4 27 69 18 55
4 36 1 18 11
4 41 20 69 55
4 79 44 28 11
4 16 24 54 7
4 19 54 39 7
4 50 39 64 7
4 8 25 61 3
4 60 64 24 7
4 79 28 67 13
4 19 51 61 49
4 8 61 0 49
4 15 51 28 13
4 19 39 51 13
4 50 67 39 13
4 19 61 54 3
4 14 0 12 49
4 5 35 25 3
4 15 12 51 49
4 16 54 35 3
CELL_TYPES 64
8
8
8
8
8
8
8
8
8
8
8
8
8
8
8
8
8
8
8
8
8
8
8
8
8
8
8
8
8
8
8
8
8
8
8
8
8
8
8
8
8
8
8
8
8
8
8
8
8
8
8
8
8
8
8
8
8
8
8
8
8
8
8
8
CELL_DATA 64
VECTORS vector_value float
-0.00128058 -0.229321 0
0.545472 -2.12368 0
0.0398477 -1.34213 0
-0.384851 -1.25961 0
0.461282 -1.72325 0
0.183911 -0.882171 0
0.356239 -0.969271 0
0.970218 -0.81697 0
-0.00403321 -0.0940993 0
0.484223 -0.563163 0
0.0676876 -0.755222 0
0.141026 -0.968331 0
-0.0388205 -1.59216 0
0.659919 -1.68598 0
-0.0289799 -0.225827 0
-0.41453 -0.455028 0
-0.0632453 -1.9373 0
-0.301766 -0.478934 0
0.389233 -1.81643 0
-0.319952 -1.51318 0
-0.079677 -0.267199 0
0.0862236 -0.904341 0
0.330078 -0.806992 0
-0.0936297 -1.76117 0
-0.236395 -0.292841 0
-0.00536641 -1.26051 0
-0.239027 -0.304247 0
0.499173 -1.07304 0
-0.109167 -0.503275 0
-0.176238 -0.460958 0
-0.783255 -0.466545 0
-0.889002 -0.565163 0
-0.311129 -2.73167 0
-0.489624 -0.282845 0
0.0525301 -0.9137 0
-1.6261 -0.286034 0
0.290885 -2.74736 0
-0.0443412 -0.84144 0
-1.72983 -0.538108 0
-0.0511387 -0.0404238 0
-0.142042 -0.457789 0
-0.652286 -1.59622 0
-0.395631 -0.2951 0
-0.0927443 -0.147597 0
-0.275255 -1.51201 0
-0.601526 -0.425668 0
-0.0142517 -3.29895 0
-0.112151 -0.198864 0
0.652191 -1.00464 0
0.0277003 -1.68709 0
0.279169 -0.8284 0
0.137918 -0.418015 0
0.558976 -0.746576 0
-0.00376751 -0.132626 0
0.912633 -1.9498 0
0.285993 -0.851257 0
-0.0303698 -0.151095 0
0.56927 -0.983087 0
-0.443161 -0.767917 0
0.245272 -1.84094 0
0.520943 -1.98345 0
-0.314653 -0.473883 0
0.531785 -1.69166 0
-0.133966 -2.07744 0
