# vtk DataFile Version 2.0
Unstructured Grid by M++
ASCII
DATASET UNSTRUCTURED_GRID
POINTS 81 float
  1.000000   0.625000 0
  0.750000   0.375000 0
  1.000000   0.000000 0
  0.875000   0.875000 0
  0.750000   0.125000 0
  1.000000   1.000000 0
  0.875000   0.250000 0
  0.625000   0.875000 0
  1.000000   0.750000 0
  0.875000   0.000000 0
  1.000000   0.250000 0
  0.625000   0.375000 0
  0.875000   0.500000 0
  0.625000   0.625000 0
  1.000000   0.500000 0
  0.750000   0.500000 0
  0.750000   1.000000 0
  1.000000   0.125000 0
  0.625000   0.250000 0
  0.750000   0.750000 0
  0.625000   0.000000 0
  0.125000   0.375000 0
  0.000000   0.500000 0
  0.125000   0.625000 0
  0.625000   1.000000 0
  1.000000   0.875000 0
  0.875000   0.125000 0
  0.500000   0.250000 0
  0.625000   0.500000 0
  0.250000   0.625000 0
  0.000000   0.625000 0
  0.375000   0.500000 0
  0.375000   0.000000 0
  0.000000   0.125000 0
  0.125000   0.875000 0
  0.875000   1.000000 0
  0.750000   0.250000 0
  0.375000   0.375000 0
  0.250000   0.375000 0
  0.625000   0.750000 0
  0.125000   0.125000 0
  0.500000   0.000000 0
  0.250000   0.875000 0
  0.125000   0.500000 0
  0.500000   0.375000 0
  0.125000   0.000000 0
  0.250000   0.750000 0
  0.250000   0.500000 0
  0.000000   0.875000 0
  0.875000   0.625000 0
  0.500000   0.750000 0
  0.750000   0.625000 0
  0.250000   0.000000 0
  0.375000   0.750000 0
  0.750000   0.875000 0
  0.625000   0.125000 0
  0.250000   0.250000 0
  0.375000   1.000000 0
  0.375000   0.250000 0
  0.000000   0.375000 0
  0.500000   1.000000 0
  0.875000   0.750000 0
  0.750000   0.000000 0
  0.375000   0.125000 0
  0.500000   0.875000 0
  0.000000   0.000000 0
  0.125000   0.750000 0
  0.500000   0.625000 0
  0.125000   0.250000 0
  0.500000   0.125000 0
  0.250000   1.000000 0
  0.250000   0.125000 0
  0.000000   1.000000 0
  0.375000   0.875000 0
  0.000000   0.750000 0
  0.375000   0.625000 0
  0.000000   0.250000 0
  0.125000   1.000000 0
  1.000000   0.375000 0
  0.500000   0.500000 0
  0.875000   0.375000 0
CELLS 64 320
4 56 71 58 63
4 27 58 69 63
4 41 69 32 63
4 76 33 68 40
4 27 44 58 37
4 79 31 44 37
4 56 38 68 21
4 56 58 38 37
4 52 32 71 63
4 47 38 31 37
4 76 68 59 21
4 22 59 43 21
4 65 45 33 40
4 47 43 38 21
4 52 71 45 40
4 56 68 71 40
4 74 30 66 23
4 46 66 29 23
4 22 43 30 23
4 72 48 77 34
4 46 53 42 73
4 50 64 53 73
4 70 42 57 73
4 74 66 48 34
4 46 42 66 34
4 47 29 43 23
4 70 77 42 34
4 60 57 64 73
4 79 67 31 75
4 47 31 29 75
4 50 53 67 75
4 46 29 53 75
4 10 78 6 80
4 36 6 1 80
4 15 1 12 80
4 36 4 6 26
4 14 12 78 80
4 2 17 9 26
4 36 18 4 55
4 15 28 1 11
4 62 4 20 55
4 10 6 17 26
4 27 18 44 11
4 62 9 4 26
4 27 69 18 55
4 36 1 18 11
4 41 20 69 55
4 79 44 28 11
4 16 24 54 7
4 19 54 39 7
4 50 39 64 7
4 8 25 61 3
4 60 64 24 7
4 79 28 67 13
4 19 51 61 49
4 8 61 0 49
4 15 51 28 13
4 19 39 51 13
4 50 67 39 13
4 19 61 54 3
4 14 0 12 49
4 5 35 25 3
4 15 12 51 49
4 16 54 35 3
CELL_TYPES 64
8
8
8
8
8
8
8
8
8
8
8
8
8
8
8
8
8
8
8
8
8
8
8
8
8
8
8
8
8
8
8
8
8
8
8
8
8
8
8
8
8
8
8
8
8
8
8
8
8
8
8
8
8
8
8
8
8
8
8
8
8
8
8
8
CELL_DATA 64
VECTORS vector_value float
-0.609581 -1.76125 0
-0.458433 -0.719636 0
-0.0798349 -0.411684 0
0.0970444 -0.315159 0
-0.152766 -1.28089 0
-0.187464 -2.18866 0
0.0553868 -0.201588 0
-0.378414 -1.59153 0
-0.370856 -1.4506 0
0.0417709 -0.817218 0
0.0180744 -0.402271 0
0.119433 -0.605815 0
0.0356806 -0.126472 0
0.169438 -0.178196 0
-0.320657 -1.66698 0
-0.180338 -0.604612 0
0.0481662 -0.599064 0
0.0616334 -0.807475 0
-0.0122623 -0.669066 0
0.0261298 -0.968274 0
0.136478 -1.32378 0
0.457961 -0.858141 0
0.40699 -0.976488 0
0.110445 -0.856621 0
0.207185 -0.461 0
0.243593 -0.538186 0
0.250351 -0.715687 0
0.295519 -1.2583 0
-0.0601407 -1.72007 0
0.180955 -0.334438 0
0.221951 -0.620994 0
0.512089 -0.929147 0
0.297899 -0.573259 0
0.87749 -0.745527 0
0.220046 -0.447928 0
1.27057 -1.13789 0
0.041495 -0.230938 0
0.148827 -2.44447 0
0.58288 -1.05775 0
0.287991 -1.31449 0
0.0298387 -0.870818 0
0.665021 -1.43619 0
0.620418 -1.29752 0
0.0503749 -0.545748 0
0.0713047 -0.967513 0
1.35558 -1.90741 0
-0.00230475 -0.483217 0
0.374367 -2.21676 0
-0.252478 -1.81094 0
-0.653682 -2.48535 0
0.0796434 -1.24873 0
-0.0849096 -0.0933502 0
0.249474 -0.841352 0
-0.311775 -3.30632 0
-0.0214869 -0.353864 0
0.0301086 -0.0601011 0
0.277964 -1.08552 0
-0.697489 -1.93359 0
-0.478864 -2.69576 0
-0.435082 -0.67303 0
0.0360649 -0.163743 0
-0.387465 -0.380351 0
0.0633591 -0.18266 0
-0.799531 -1.04861 0
