# vtk DataFile Version 2.0
Unstructured Grid by M++
ASCII
DATASET UNSTRUCTURED_GRID
POINTS 81 float
  1.000000   0.625000 0
  0.750000   0.375000 0
  1.000000   0.000000 0
  0.875000   0.875000 0
  0.750000   0.125000 0
  1.000000   1.000000 0
  0.875000   0.250000 0
  0.625000   0.875000 0
  1.000000   0.750000 0
  0.875000   0.000000 0
  1.000000   0.250000 0
  0.625000   0.375000 0
  0.875000   0.500000 0
  0.625000   0.625000 0
  1.000000   0.500000 0
  0.750000   0.500000 0
  0.750000   1.000000 0
  1.000000   0.125000 0
  0.625000   0.250000 0
  0.750000   0.750000 0
  0.625000   0.000000 0
  0.125000   0.375000 0
  0.000000   0.500000 0
  0.125000   0.625000 0
  0.625000   1.000000 0
  1.000000   0.875000 0
  0.875000   0.125000 0
  0.500000   0.250000 0
  0.625000   0.500000 0
  0.250000   0.625000 0
  0.000000   0.625000 0
  0.375000   0.500000 0
  0.375000   0.000000 0
  0.000000   0.125000 0
  0.125000   0.875000 0
  0.875000   1.000000 0
  0.750000   0.250000 0
  0.375000   0.375000 0
  0.250000   0.375000 0
  0.625000   0.750000 0
  0.125000   0.125000 0
  0.500000   0.000000 0
  0.250000   0.875000 0
  0.125000   0.500000 0
  0.500000   0.375000 0
  0.125000   0.000000 0
  0.250000   0.750000 0
  0.250000   0.500000 0
  0.000000   0.875000 0
  0.875000   0.625000 0
  0.500000   0.750000 0
  0.750000   0.625000 0
  0.250000   0.000000 0
  0.375000   0.750000 0
  0.750000   0.875000 0
  0.625000   0.125000 0
  0.250000   0.250000 0
  0.375000   1.000000 0
  0.375000   0.250000 0
  0.000000   0.375000 0
  0.500000   1.000000 0
  0.875000   0.750000 0
  0.750000   0.000000 0
  0.375000   0.125000 0
  0.500000   0.875000 0
  0.000000   0.000000 0
  0.125000   0.750000 0
  0.500000   0.625000 0
  0.125000   0.250000 0
  0.500000   0.125000 0
  0.250000   1.000000 0
  0.250000   0.125000 0
  0.000000   1.000000 0
  0.375000   0.875000 0
  0.000000   0.750000 0
  0.375000   0.625000 0
  0.000000   0.250000 0
  0.125000   1.000000 0
  1.000000   0.375000 0
  0.500000   0.500000 0
  0.875000   0.375000 0
CELLS 64 320
4 56 71 58 63
4 27 58 69 63
4 41 69 32 63
4 76 33 68 40
4 27 44 58 37
4 79 31 44 37
4 56 38 68 21
4 56 58 38 37
4 52 32 71 63
4 47 38 31 37
4 76 68 59 21
4 22 59 43 21
4 65 45 33 40
4 47 43 38 21
4 52 71 45 40
4 56 68 71 40
4 74 30 66 23
4 46 66 29 23
4 22 43 30 23
4 72 48 77 34
4 46 53 42 73
4 50 64 53 73
4 70 42 57 73
4 74 66 48 34
4 46 42 66 34
4 47 29 43 23
4 70 77 42 34
4 60 57 64 73
4 79 67 31 75
4 47 31 29 75
4 50 53 67 75
4 46 29 53 75
4 10 78 6 80
4 36 6 1 80
4 15 1 12 80
4 36 4 6 26
4 14 12 78 80
4 2 17 9 26
4 36 18 4 55
4 15 28 1 11
4 62 4 20 55
4 10 6 17 26
4 27 18 44 11
4 62 9 4 26
4 27 69 18 55
4 36 1 18 11
4 41 20 69 55
4 79 44 28 11
4 16 24 54 7
4 19 54 39 7
4 50 39 64 7
4 8 25 61 3
4 60 64 24 7
4 79 28 67 13
4 19 51 61 49
4 8 61 0 49
4 15 51 28 13
4 19 39 51 13
4 50 67 39 13
4 19 61 54 3
4 14 0 12 49
4 5 35 25 3
4 15 12 51 49
4 16 54 35 3
CELL_TYPES 64
8
8
8
8
8
8
8
8
8
8
8
8
8
8
8
8
8
8
8
8
8
8
8
8
8
8
8
8
8
8
8
8
8
8
8
8
8
8
8
8
8
8
8
8
8
8
8
8
8
8
8
8
8
8
8
8
8
8
8
8
8
8
8
8
CELL_DATA 64
VECTORS vector_value float
0.310405 -0.412853 0
0.0479072 -0.189873 0
0.170812 -0.60311 0
-0.217947 -1.17554 0
0.000499358 -0.140772 0
-0.00552979 -0.191325 0
-0.102921 -1.73077 0
-0.00146462 -0.173045 0
0.282121 -0.445937 0
-0.051494 -0.174491 0
-0.0901038 -0.787909 0
0.0724021 -0.713675 0
-0.0480769 -1.39564 0
0.181443 -1.77227 0
0.0329171 -0.424922 0
0.0503615 -1.04185 0
-0.123062 -1.22479 0
-0.088639 -1.15401 0
0.28889 -1.40397 0
0.00259603 -0.958918 0
0.0493151 -0.32982 0
0.172919 -0.229581 0
-0.038356 -0.598027 0
-0.09053 -1.1231 0
-0.121705 -1.2324 0
0.103602 -0.913836 0
-0.157671 -1.28228 0
0.604944 -0.504888 0
-0.0352248 -0.300426 0
-0.0881782 -0.269644 0
0.00408924 -0.245646 0
0.0411429 -0.194976 0
-0.131184 -0.527552 0
-0.0165821 -2.93466 0
0.0707519 -2.29037 0
0.721713 -2.4604 0
-0.281143 -1.047 0
0.127978 -1.94392 0
0.100084 -1.18482 0
0.485561 -1.54868 0
-0.0144351 -0.549309 0
0.605218 -1.40503 0
0.0637328 -0.0984711 0
0.215512 -2.2305 0
-0.0326273 -0.129644 0
0.163939 -1.60682 0
-0.201456 -0.40666 0
0.100701 -0.262186 0
0.302499 -2.00096 0
0.151767 -3.06642 0
0.119802 -0.591834 0
0.275445 -0.570807 0
1.14391 -0.99134 0
0.312292 -0.835177 0
0.41534 -0.502706 0
0.22245 -1.24609 0
0.459414 -1.85759 0
0.297843 -2.50017 0
-0.112867 -0.931611 0
0.455908 -0.856034 0
-0.0501383 -1.66558 0
-0.275335 -0.509964 0
0.286893 -0.753777 0
-0.554446 -1.15362 0
