# vtk DataFile Version 2.0
Unstructured Grid by M++
ASCII
DATASET UNSTRUCTURED_GRID
POINTS 289 float
  0.562500   1.000000 0
  0.562500   0.625000 0
  0.625000   1.000000 0
  0.562500   0.937500 0
  0.562500   0.562500 0
  0.625000   0.937500 0
  0.562500   0.875000 0
  0.625000   0.750000 0
  0.625000   0.625000 0
  0.562500   0.812500 0
  0.562500   0.750000 0
  0.562500   0.687500 0
  0.625000   0.875000 0
  0.625000   0.812500 0
  0.625000   0.687500 0
  0.687500   0.125000 0
  0.875000   0.062500 0
  0.625000   0.125000 0
  0.625000   0.187500 0
  0.625000   0.250000 0
  0.812500   0.187500 0
  1.000000   0.125000 0
  0.687500   0.187500 0
  0.750000   0.125000 0
  0.937500   0.062500 0
  0.937500   0.125000 0
  0.750000   0.187500 0
  0.812500   0.062500 0
  0.812500   0.125000 0
  0.875000   0.687500 0
  0.187500   0.250000 0
  0.437500   0.250000 0
  0.375000   0.187500 0
  0.812500   0.625000 0
  0.125000   0.187500 0
  0.937500   0.750000 0
  0.250000   0.312500 0
  0.500000   0.312500 0
  0.625000   0.062500 0
  0.437500   0.500000 0
  0.375000   0.125000 0
  0.437500   0.187500 0
  0.437500   0.437500 0
  0.437500   0.375000 0
  0.875000   0.875000 0
  0.187500   0.375000 0
  0.687500   0.562500 0
  0.687500   0.625000 0
  0.000000   0.125000 0
  0.937500   0.625000 0
  0.250000   0.125000 0
  0.375000   0.062500 0
  0.375000   0.000000 0
  0.812500   0.500000 0
  0.125000   0.000000 0
  0.937500   0.937500 0
  0.250000   0.437500 0
  0.687500   0.875000 0
  0.687500   0.937500 0
  0.000000   0.437500 0
  0.500000   0.500000 0
  0.500000   0.437500 0
  0.750000   0.937500 0
  0.750000   1.000000 0
  0.062500   0.500000 0
  1.000000   1.000000 0
  0.312500   0.500000 0
  0.875000   0.562500 0
  0.187500   0.062500 0
  0.437500   0.125000 0
  0.437500   0.062500 0
  0.500000   0.375000 0
  0.937500   0.812500 0
  0.937500   0.875000 0
  0.250000   0.375000 0
  0.687500   0.812500 0
  0.000000   0.375000 0
  0.750000   0.562500 0
  0.062500   0.125000 0
  1.000000   0.562500 0
  1.000000   0.625000 0
  0.312500   0.125000 0
  0.562500   0.125000 0
  0.437500   0.000000 0
  0.875000   0.437500 0
  0.875000   0.500000 0
  0.187500   0.000000 0
  0.937500   0.562500 0
  0.937500   0.500000 0
  0.250000   0.062500 0
  0.687500   0.500000 0
  0.000000   0.062500 0
  0.500000   0.062500 0
  1.000000   0.875000 0
  1.000000   0.937500 0
  0.312500   0.437500 0
  0.750000   0.875000 0
  0.062500   0.437500 0
  0.812500   0.937500 0
  0.125000   0.500000 0
  0.375000   0.500000 0
  0.625000   0.562500 0
  0.625000   0.500000 0
  0.437500   0.312500 0
  0.875000   0.812500 0
  0.875000   0.750000 0
  0.187500   0.312500 0
  0.812500   0.687500 0
  0.812500   0.750000 0
  0.125000   0.250000 0
  0.375000   0.250000 0
  1.000000   0.687500 0
  0.312500   0.187500 0
  0.750000   0.687500 0
  0.750000   0.625000 0
  0.062500   0.187500 0
  0.562500   0.250000 0
  0.562500   0.187500 0
  0.375000   1.000000 0
  0.500000   0.562500 0
  0.500000   0.250000 0
  0.750000   0.250000 0
  0.500000   0.125000 0
  0.500000   0.187500 0
  1.000000   0.187500 0
  0.625000   0.375000 0
  0.875000   0.375000 0
  1.000000   0.437500 0
  0.312500   0.000000 0
  0.562500   0.000000 0
  0.812500   0.000000 0
  0.250000   0.687500 0
  0.000000   0.687500 0
  0.500000   1.000000 0
  0.250000   1.000000 0
  0.000000   1.000000 0
  0.437500   0.687500 0
  0.437500   0.625000 0
  0.187500   0.625000 0
  0.687500   0.750000 0
  0.000000   0.312500 0
  0.000000   0.250000 0
  0.375000   0.375000 0
  0.375000   0.312500 0
  0.812500   0.812500 0
  0.125000   0.312500 0
  0.875000   0.625000 0
  0.187500   0.187500 0
  0.187500   0.125000 0
  0.937500   1.000000 0
  0.250000   0.562500 0
  0.250000   0.500000 0
  0.687500   1.000000 0
  0.000000   0.500000 0
  0.687500   0.687500 0
  0.000000   0.187500 0
  0.937500   0.687500 0
  0.250000   0.250000 0
  0.250000   0.187500 0
  0.187500   0.687500 0
  0.000000   0.750000 0
  0.250000   0.750000 0
  0.125000   0.625000 0
  0.750000   0.750000 0
  0.062500   0.250000 0
  0.875000   0.937500 0
  0.187500   0.500000 0
  0.187500   0.437500 0
  0.812500   0.562500 0
  0.125000   0.125000 0
  0.125000   0.062500 0
  0.375000   0.625000 0
  0.375000   0.687500 0
  1.000000   0.750000 0
  0.312500   0.250000 0
  0.312500   0.312500 0
  0.812500   0.312500 0
  0.562500   0.312500 0
  0.375000   0.750000 0
  0.500000   0.625000 0
  0.250000   0.625000 0
  0.312500   0.687500 0
  0.750000   0.812500 0
  0.062500   0.312500 0
  0.062500   0.375000 0
  1.000000   0.812500 0
  0.312500   0.375000 0
  0.562500   0.375000 0
  0.687500   0.437500 0
  0.000000   0.000000 0
  0.500000   0.000000 0
  0.937500   0.437500 0
  0.250000   0.000000 0
  0.375000   0.437500 0
  0.812500   0.875000 0
  0.125000   0.375000 0
  0.125000   0.437500 0
  0.625000   0.437500 0
  1.000000   0.500000 0
  0.312500   0.062500 0
  0.750000   0.500000 0
  0.062500   0.000000 0
  0.062500   0.062500 0
  0.562500   0.062500 0
  0.062500   0.750000 0
  0.312500   0.750000 0
  0.312500   0.625000 0
  0.312500   0.562500 0
  0.062500   0.562500 0
  0.187500   1.000000 0
  0.437500   0.562500 0
  0.875000   1.000000 0
  0.187500   0.562500 0
  0.500000   0.937500 0
  0.250000   0.937500 0
  0.312500   1.000000 0
  0.125000   0.750000 0
  0.125000   0.687500 0
  1.000000   0.000000 0
  0.000000   0.937500 0
  0.000000   0.875000 0
  0.875000   0.125000 0
  0.875000   0.187500 0
  0.062500   0.812500 0
  0.312500   0.812500 0
  0.000000   0.812500 0
  0.000000   0.625000 0
  0.000000   0.562500 0
  0.062500   1.000000 0
  0.062500   0.937500 0
  0.937500   0.187500 0
  0.937500   0.250000 0
  0.062500   0.687500 0
  0.062500   0.625000 0
  0.125000   1.000000 0
  1.000000   0.250000 0
  1.000000   0.312500 0
  0.062500   0.875000 0
  0.125000   0.812500 0
  0.375000   0.812500 0
  0.125000   0.875000 0
  0.375000   0.937500 0
  0.375000   0.875000 0
  0.187500   0.750000 0
  0.187500   0.812500 0
  0.437500   0.812500 0
  0.187500   0.875000 0
  0.437500   0.875000 0
  0.375000   0.562500 0
  0.812500   1.000000 0
  0.125000   0.562500 0
  0.437500   1.000000 0
  0.437500   0.937500 0
  0.187500   0.937500 0
  0.125000   0.937500 0
  0.500000   0.687500 0
  0.500000   0.750000 0
  0.500000   0.812500 0
  0.250000   0.812500 0
  0.250000   0.875000 0
  0.500000   0.875000 0
  0.437500   0.750000 0
  0.312500   0.875000 0
  0.312500   0.937500 0
  0.687500   0.250000 0
  0.687500   0.312500 0
  0.937500   0.312500 0
  0.875000   0.250000 0
  0.625000   0.000000 0
  0.875000   0.000000 0
  0.687500   0.375000 0
  0.937500   0.375000 0
  0.875000   0.312500 0
  0.625000   0.312500 0
  0.687500   0.000000 0
  0.937500   0.000000 0
  0.750000   0.312500 0
  0.750000   0.375000 0
  1.000000   0.375000 0
  0.812500   0.250000 0
  0.562500   0.437500 0
  0.562500   0.500000 0
  0.687500   0.062500 0
  0.750000   0.437500 0
  0.750000   0.000000 0
  0.750000   0.062500 0
  1.000000   0.062500 0
  0.812500   0.375000 0
  0.812500   0.437500 0
CELLS 256 1280
4 169 170 148 68
4 151 166 56 167
4 195 45 196 167
4 54 170 201 202
4 109 34 30 147
4 40 32 81 112
4 192 89 86 68
4 48 91 78 202
4 99 64 196 97
4 71 43 37 103
4 74 186 56 95
4 109 164 34 115
4 50 81 158 112
4 122 69 92 70
4 195 145 45 106
4 110 143 174 175
4 157 30 158 147
4 40 69 32 41
4 50 158 148 147
4 141 155 164 115
4 122 123 69 41
4 142 186 143 175
4 60 39 61 42
4 40 51 69 70
4 120 31 123 41
4 157 174 36 175
4 50 148 89 68
4 48 78 155 115
4 52 83 51 70
4 151 56 66 95
4 71 61 43 42
4 169 148 34 147
4 100 193 39 42
4 40 81 51 199
4 110 174 32 112
4 109 30 145 106
4 100 66 193 95
4 169 34 78 115
4 190 92 83 70
4 50 89 81 199
4 54 86 170 68
4 74 56 45 167
4 142 143 43 103
4 153 59 64 97
4 99 196 166 167
4 169 78 170 202
4 142 193 186 95
4 192 128 89 199
4 74 45 36 106
4 110 31 143 103
4 76 184 59 97
4 142 43 193 42
4 52 51 128 199
4 189 201 91 202
4 120 37 31 103
4 74 36 186 175
4 195 196 184 97
4 141 164 140 183
4 157 158 174 112
4 109 145 164 183
4 195 184 145 183
4 110 32 31 41
4 157 36 30 106
4 76 140 184 183
4 171 172 206 181
4 178 172 261 136
4 256 261 255 136
4 256 257 261 245
4 180 150 206 207
4 60 119 39 210
4 118 215 241 263
4 178 205 172 181
4 216 243 238 244
4 162 217 233 232
4 180 206 131 181
4 179 137 119 210
4 216 204 217 232
4 220 237 219 229
4 216 217 243 159
4 259 258 262 224
4 240 254 237 229
4 153 64 227 208
4 161 205 258 224
4 240 237 238 223
4 226 227 233 208
4 234 228 254 229
4 171 248 137 210
4 160 132 204 232
4 180 131 138 159
4 133 251 213 252
4 171 206 248 207
4 162 138 217 159
4 161 258 243 244
4 220 225 237 223
4 151 150 166 212
4 260 247 257 245
4 259 262 214 263
4 151 66 150 207
4 234 254 209 253
4 162 233 250 208
4 242 241 262 263
4 171 137 172 136
4 161 243 131 159
4 160 204 225 223
4 161 131 205 181
4 179 255 137 136
4 216 238 204 223
4 100 39 248 210
4 260 213 247 252
4 226 233 132 232
4 134 214 215 263
4 180 138 150 212
4 178 261 239 245
4 259 246 258 244
4 178 239 205 224
4 240 238 246 244
4 242 262 239 224
4 99 250 64 208
4 240 246 254 253
4 242 239 247 245
4 135 219 228 229
4 99 166 250 212
4 259 214 246 253
4 118 241 251 252
4 100 248 66 207
4 134 209 214 253
4 162 250 138 212
4 242 247 241 252
4 71 187 61 280
4 102 281 197 280
4 122 92 82 203
4 17 18 82 117
4 122 82 123 117
4 19 264 273 265
4 267 279 222 20
4 125 273 270 265
4 267 272 279 176
4 19 116 18 117
4 21 25 286 24
4 23 28 26 20
4 23 285 28 27
4 218 286 275 24
4 85 53 84 288
4 235 236 231 266
4 221 222 28 20
4 267 222 231 230
4 268 38 129 203
4 125 270 197 188
4 126 287 272 176
4 277 270 276 265
4 267 231 272 266
4 125 197 187 280
4 190 129 92 203
4 277 276 287 176
4 19 18 264 22
4 17 82 38 203
4 102 197 90 188
4 126 84 287 288
4 284 130 285 27
4 121 276 264 265
4 71 37 187 177
4 120 123 116 117
4 198 88 127 191
4 221 16 25 24
4 23 26 15 22
4 121 279 276 176
4 235 231 124 230
4 125 187 273 177
4 278 271 236 266
4 277 287 283 288
4 284 285 274 282
4 278 127 271 191
4 269 275 16 24
4 200 283 53 288
4 23 15 285 282
4 121 26 279 20
4 21 124 25 230
4 19 273 116 177
4 200 90 283 188
4 126 271 84 191
4 269 16 130 27
4 17 38 15 282
4 221 25 222 230
4 121 264 26 22
4 120 116 37 177
4 60 61 281 280
4 277 283 270 188
4 126 272 271 266
4 268 274 38 282
4 85 84 88 191
4 17 15 18 22
4 221 28 16 27
4 93 94 73 55
4 85 88 67 87
4 80 49 79 87
4 44 104 73 72
4 146 33 67 168
4 211 165 149 55
4 8 47 14 154
4 105 104 108 144
4 105 108 29 107
4 7 139 13 75
4 44 165 194 98
4 200 53 77 168
4 8 1 101 4
4 2 5 152 58
4 260 6 213 3
4 105 35 104 72
4 96 57 182 75
4 7 14 139 154
4 146 29 33 107
4 7 13 10 9
4 12 13 57 75
4 85 67 53 168
4 44 73 165 55
4 63 152 62 58
4 8 101 47 46
4 96 182 194 144
4 60 281 119 4
4 12 5 6 3
4 173 185 35 72
4 65 149 94 55
4 146 67 49 87
4 114 113 47 154
4 163 108 182 144
4 12 6 13 9
4 173 35 111 156
4 163 182 139 75
4 260 257 6 9
4 105 29 35 156
4 163 139 113 154
4 256 10 257 9
4 146 49 29 156
4 163 113 108 107
4 80 111 49 156
4 102 101 281 4
4 12 57 5 58
4 44 194 104 144
4 96 194 62 98
4 2 0 5 3
4 93 73 185 72
4 179 119 1 4
4 200 77 90 46
4 114 33 113 107
4 7 10 14 11
4 96 62 57 58
4 133 213 0 3
4 102 90 101 46
4 256 255 10 11
4 63 62 249 98
4 114 47 77 46
4 179 1 255 11
4 211 249 165 98
4 114 77 33 168
4 198 79 88 87
4 8 14 1 11
CELL_TYPES 256
8
8
8
8
8
8
8
8
8
8
8
8
8
8
8
8
8
8
8
8
8
8
8
8
8
8
8
8
8
8
8
8
8
8
8
8
8
8
8
8
8
8
8
8
8
8
8
8
8
8
8
8
8
8
8
8
8
8
8
8
8
8
8
8
8
8
8
8
8
8
8
8
8
8
8
8
8
8
8
8
8
8
8
8
8
8
8
8
8
8
8
8
8
8
8
8
8
8
8
8
8
8
8
8
8
8
8
8
8
8
8
8
8
8
8
8
8
8
8
8
8
8
8
8
8
8
8
8
8
8
8
8
8
8
8
8
8
8
8
8
8
8
8
8
8
8
8
8
8
8
8
8
8
8
8
8
8
8
8
8
8
8
8
8
8
8
8
8
8
8
8
8
8
8
8
8
8
8
8
8
8
8
8
8
8
8
8
8
8
8
8
8
8
8
8
8
8
8
8
8
8
8
8
8
8
8
8
8
8
8
8
8
8
8
8
8
8
8
8
8
8
8
8
8
8
8
8
8
8
8
8
8
8
8
8
8
8
8
8
8
8
8
8
8
8
8
8
8
8
8
8
8
8
8
8
8
CELL_DATA 256
VECTORS vector_value float
0.028814 -0.381822 0
-0.106413 -0.142945 0
-0.144638 -0.411692 0
-0.0571444 -0.444485 0
-0.10985 -0.637956 0
0.0545882 -0.397248 0
0.0613596 -0.192753 0
-0.122729 -1.34697 0
0.0969399 -0.412237 0
1.87478 -2.97773 0
-0.43864 -0.443906 0
-0.179352 -0.874436 0
0.0848671 -0.103228 0
-0.569127 -2.74156 0
-0.463478 -0.592136 0
-0.0629667 -0.348521 0
-0.0207427 -0.208809 0
-0.119943 -1.46984 0
0.0689092 -0.133279 0
-0.146993 -0.884472 0
-0.405537 -1.62091 0
-0.303743 -0.585589 0
0.995532 -2.0611 0
0.0675038 -1.41959 0
-0.200075 -1.51831 0
-0.22917 -0.264799 0
0.0930241 -0.135746 0
-0.110845 -1.04327 0
0.0791081 -1.63529 0
-0.243853 -0.406316 0
1.01694 -2.18476 0
0.00219159 -0.540192 0
0.549177 -4.66376 0
0.111396 -0.519045 0
0.0327446 -0.352171 0
-0.577972 -0.73928 0
-0.0365927 -1.34527 0
-0.171865 -0.81678 0
-0.267076 -3.549 0
0.0865647 -0.0934288 0
0.00751973 -0.184065 0
-0.288971 -0.253459 0
0.357478 -1.29733 0
0.0496939 -0.303197 0
-0.0361505 -0.190757 0
-0.146193 -0.57175 0
-0.344462 -0.939563 0
0.029807 -0.125214 0
-0.715616 -0.485729 0
-0.0659259 -0.654495 0
0.0121306 -0.266954 0
1.09734 -3.76202 0
0.0579017 -0.338767 0
-0.055352 -1.54671 0
0.171933 -2.22414 0
-0.550222 -0.336386 0
-0.00263478 -0.432075 0
-0.20117 -0.468679 0
0.0352424 -0.117315 0
-0.52697 -0.945625 0
-0.203204 -0.692079 0
-0.178063 -1.05453 0
-0.403691 -0.312009 0
-0.0156995 -0.252048 0
0.0392761 -2.68293 0
-0.622252 -3.45744 0
-0.567568 -2.19577 0
-0.453181 -2.63323 0
0.208519 -0.261431 0
0.314338 -1.33244 0
0.92319 -1.62461 0
0.0523457 -1.84756 0
0.312732 -0.174888 0
0.258464 -0.335694 0
0.284939 -0.35618 0
-0.152968 -1.42823 0
0.509846 -0.500316 0
-0.008559 -1.39256 0
0.468583 -0.112688 0
0.418649 -0.777145 0
-0.000937953 -0.53276 0
0.0846541 -0.507325 0
0.377896 -0.369796 0
-0.0782097 -0.478634 0
0.043715 -0.617521 0
-0.172332 -0.654806 0
0.0833201 -4.09559 0
0.202078 -1.01866 0
0.165941 -0.0620681 0
-0.232142 -1.16994 0
0.436587 -2.95751 0
0.334039 -0.190409 0
0.377093 -0.208298 0
-0.051933 -1.50496 0
0.0465298 -0.177125 0
0.151566 -2.89476 0
0.540401 -0.992466 0
0.0200959 -0.316391 0
0.315585 -0.585978 0
0.086195 -0.200089 0
0.638178 -0.813644 0
-0.349889 -3.77333 0
0.53074 -0.100722 0
0.135916 -1.36202 0
0.589057 -0.417969 0
-0.249262 -1.6468 0
0.238562 -0.521547 0
0.850389 -5.13925 0
-0.214456 -1.56673 0
0.0974386 -0.755954 0
0.860193 -0.859934 0
0.243758 -0.176627 0
-0.301798 -2.95299 0
0.134239 -0.266088 0
0.408729 -1.0985 0
0.00630264 -0.254889 0
0.418608 -0.712204 0
0.0703594 -0.225115 0
0.0789844 -0.378721 0
0.506268 -2.3031 0
-0.194928 -1.32501 0
0.0359158 -0.109129 0
0.32863 -0.534451 0
0.0789463 -1.06276 0
0.421259 -2.03105 0
0.723798 -0.937598 0
0.159445 -0.163038 0
0.831884 -2.50882 0
0.602889 -0.998438 0
0.0762821 -0.158134 0
-1.00272 -1.81018 0
-0.884457 -2.9799 0
-0.770214 -1.78852 0
-0.467594 -1.56557 0
-0.30616 -0.3289 0
-0.212328 -0.556398 0
-0.645413 -0.699985 0
-0.387044 -2.83067 0
-0.00290388 -0.0685909 0
-0.366229 -0.312547 0
-0.142336 -0.211079 0
-0.000141214 -0.0667443 0
-0.612425 -0.720527 0
-0.105486 -0.375516 0
-0.209831 -0.141248 0
-0.185273 -0.187172 0
-0.735439 -3.97842 0
-0.0321109 -0.141237 0
-1.32087 -1.17994 0
-1.14675 -0.927502 0
-0.251872 -0.290497 0
0.210132 -0.434584 0
-0.333617 -1.40645 0
-2.36391 -1.80084 0
-0.921507 -2.61283 0
-0.879525 -2.84579 0
0.010477 -0.051324 0
-2.22357 -1.766 0
-0.0145597 -0.0820116 0
-1.65491 -2.44529 0
1.73344 -1.54252 0
-0.129998 -1.60212 0
-0.855557 -3.11 0
-0.0152237 -0.0388006 0
-0.823174 -1.94703 0
-1.02647 -0.800161 0
-0.065106 -0.196499 0
0.820063 -1.30244 0
-0.185343 -0.623178 0
-0.994674 -0.755648 0
-0.105427 -0.782706 0
-0.651971 -1.54629 0
-0.00170028 -0.0231026 0
-0.118014 -0.170579 0
-0.41179 -1.06627 0
-0.463039 -0.419887 0
-0.0228678 -0.0959777 0
0.358337 -2.15697 0
-0.0385706 -0.0909626 0
-1.72821 -1.43318 0
-0.00520992 -0.0330846 0
-1.18064 -2.71462 0
-0.0881812 -0.0931955 0
-0.749161 -2.17393 0
0.623553 -1.70847 0
0.392903 -0.478803 0
-0.241251 -0.230188 0
-0.792725 -0.848146 0
-0.421025 -1.61119 0
-1.51298 -1.69409 0
-0.853791 -2.51684 0
-0.0299416 -0.0347576 0
-0.025506 -1.14957 0
-0.469195 -0.991739 0
-0.01669 -4.84238 0
0.476855 -1.19508 0
0.00398083 -0.131438 0
0.117055 -0.887682 0
-0.0170128 -0.0358864 0
1.69262 -0.879967 0
0.274724 -0.236454 0
-0.0885378 -0.10062 0
-0.0775557 -1.03319 0
-0.0167578 -0.12842 0
0.00990465 -0.0664266 0
0.149425 -1.21664 0
-0.314938 -0.842538 0
1.91449 -1.91705 0
0.651503 -0.966194 0
-0.0334555 -0.0416594 0
0.0475227 -0.13604 0
-0.236016 -0.151505 0
0.0233041 -0.316675 0
-0.0758235 -0.192401 0
-0.0760118 -0.777047 0
-0.0840433 -1.08597 0
-0.000144988 -0.0335148 0
1.15638 -1.32596 0
0.111732 -0.256796 0
-0.0933699 -0.27767 0
0.695347 -2.01004 0
0.0957732 -1.17747 0
0.0082427 -0.630465 0
0.0069806 -0.0789497 0
0.742349 -0.705403 0
-0.11762 -0.164189 0
0.790577 -3.7184 0
0.133045 -0.313138 0
-0.257091 -0.531647 0
0.976183 -1.51378 0
0.0049603 -0.118703 0
-0.245088 -0.601002 0
0.206556 -0.788338 0
0.117703 -0.200879 0
0.252707 -4.66384 0
0.054397 -0.0991727 0
0.242667 -0.68746 0
1.03523 -1.14452 0
0.157984 -1.11664 0
-0.149068 -0.518177 0
0.0801494 -1.16394 0
-0.00254542 -0.24454 0
0.00704202 -0.0398389 0
0.019193 -0.0970443 0
-0.0618532 -0.0721133 0
0.519905 -1.39573 0
-0.446514 -1.11058 0
0.0253467 -0.0365694 0
-0.173265 -0.446897 0
-0.0491099 -0.78458 0
0.0103681 -0.0330422 0
-0.0636441 -0.342588 0
0.0582508 -0.998271 0
0.0229902 -0.118168 0
-0.449633 -4.41723 0
-0.0192474 -0.0539503 0
