# vtk DataFile Version 2.0
Unstructured Grid by M++
ASCII
DATASET UNSTRUCTURED_GRID
POINTS 289 float
  0.562500   1.000000 0
  0.562500   0.625000 0
  0.625000   1.000000 0
  0.562500   0.937500 0
  0.562500   0.562500 0
  0.625000   0.937500 0
  0.562500   0.875000 0
  0.625000   0.750000 0
  0.625000   0.625000 0
  0.562500   0.812500 0
  0.562500   0.750000 0
  0.562500   0.687500 0
  0.625000   0.875000 0
  0.625000   0.812500 0
  0.625000   0.687500 0
  0.687500   0.125000 0
  0.875000   0.062500 0
  0.625000   0.125000 0
  0.625000   0.187500 0
  0.625000   0.250000 0
  0.812500   0.187500 0
  1.000000   0.125000 0
  0.687500   0.187500 0
  0.750000   0.125000 0
  0.937500   0.062500 0
  0.937500   0.125000 0
  0.750000   0.187500 0
  0.812500   0.062500 0
  0.812500   0.125000 0
  0.875000   0.687500 0
  0.187500   0.250000 0
  0.437500   0.250000 0
  0.375000   0.187500 0
  0.812500   0.625000 0
  0.125000   0.187500 0
  0.937500   0.750000 0
  0.250000   0.312500 0
  0.500000   0.312500 0
  0.625000   0.062500 0
  0.437500   0.500000 0
  0.375000   0.125000 0
  0.437500   0.187500 0
  0.437500   0.437500 0
  0.437500   0.375000 0
  0.875000   0.875000 0
  0.187500   0.375000 0
  0.687500   0.562500 0
  0.687500   0.625000 0
  0.000000   0.125000 0
  0.937500   0.625000 0
  0.250000   0.125000 0
  0.375000   0.062500 0
  0.375000   0.000000 0
  0.812500   0.500000 0
  0.125000   0.000000 0
  0.937500   0.937500 0
  0.250000   0.437500 0
  0.687500   0.875000 0
  0.687500   0.937500 0
  0.000000   0.437500 0
  0.500000   0.500000 0
  0.500000   0.437500 0
  0.750000   0.937500 0
  0.750000   1.000000 0
  0.062500   0.500000 0
  1.000000   1.000000 0
  0.312500   0.500000 0
  0.875000   0.562500 0
  0.187500   0.062500 0
  0.437500   0.125000 0
  0.437500   0.062500 0
  0.500000   0.375000 0
  0.937500   0.812500 0
  0.937500   0.875000 0
  0.250000   0.375000 0
  0.687500   0.812500 0
  0.000000   0.375000 0
  0.750000   0.562500 0
  0.062500   0.125000 0
  1.000000   0.562500 0
  1.000000   0.625000 0
  0.312500   0.125000 0
  0.562500   0.125000 0
  0.437500   0.000000 0
  0.875000   0.437500 0
  0.875000   0.500000 0
  0.187500   0.000000 0
  0.937500   0.562500 0
  0.937500   0.500000 0
  0.250000   0.062500 0
  0.687500   0.500000 0
  0.000000   0.062500 0
  0.500000   0.062500 0
  1.000000   0.875000 0
  1.000000   0.937500 0
  0.312500   0.437500 0
  0.750000   0.875000 0
  0.062500   0.437500 0
  0.812500   0.937500 0
  0.125000   0.500000 0
  0.375000   0.500000 0
  0.625000   0.562500 0
  0.625000   0.500000 0
  0.437500   0.312500 0
  0.875000   0.812500 0
  0.875000   0.750000 0
  0.187500   0.312500 0
  0.812500   0.687500 0
  0.812500   0.750000 0
  0.125000   0.250000 0
  0.375000   0.250000 0
  1.000000   0.687500 0
  0.312500   0.187500 0
  0.750000   0.687500 0
  0.750000   0.625000 0
  0.062500   0.187500 0
  0.562500   0.250000 0
  0.562500   0.187500 0
  0.375000   1.000000 0
  0.500000   0.562500 0
  0.500000   0.250000 0
  0.750000   0.250000 0
  0.500000   0.125000 0
  0.500000   0.187500 0
  1.000000   0.187500 0
  0.625000   0.375000 0
  0.875000   0.375000 0
  1.000000   0.437500 0
  0.312500   0.000000 0
  0.562500   0.000000 0
  0.812500   0.000000 0
  0.250000   0.687500 0
  0.000000   0.687500 0
  0.500000   1.000000 0
  0.250000   1.000000 0
  0.000000   1.000000 0
  0.437500   0.687500 0
  0.437500   0.625000 0
  0.187500   0.625000 0
  0.687500   0.750000 0
  0.000000   0.312500 0
  0.000000   0.250000 0
  0.375000   0.375000 0
  0.375000   0.312500 0
  0.812500   0.812500 0
  0.125000   0.312500 0
  0.875000   0.625000 0
  0.187500   0.187500 0
  0.187500   0.125000 0
  0.937500   1.000000 0
  0.250000   0.562500 0
  0.250000   0.500000 0
  0.687500   1.000000 0
  0.000000   0.500000 0
  0.687500   0.687500 0
  0.000000   0.187500 0
  0.937500   0.687500 0
  0.250000   0.250000 0
  0.250000   0.187500 0
  0.187500   0.687500 0
  0.000000   0.750000 0
  0.250000   0.750000 0
  0.125000   0.625000 0
  0.750000   0.750000 0
  0.062500   0.250000 0
  0.875000   0.937500 0
  0.187500   0.500000 0
  0.187500   0.437500 0
  0.812500   0.562500 0
  0.125000   0.125000 0
  0.125000   0.062500 0
  0.375000   0.625000 0
  0.375000   0.687500 0
  1.000000   0.750000 0
  0.312500   0.250000 0
  0.312500   0.312500 0
  0.812500   0.312500 0
  0.562500   0.312500 0
  0.375000   0.750000 0
  0.500000   0.625000 0
  0.250000   0.625000 0
  0.312500   0.687500 0
  0.750000   0.812500 0
  0.062500   0.312500 0
  0.062500   0.375000 0
  1.000000   0.812500 0
  0.312500   0.375000 0
  0.562500   0.375000 0
  0.687500   0.437500 0
  0.000000   0.000000 0
  0.500000   0.000000 0
  0.937500   0.437500 0
  0.250000   0.000000 0
  0.375000   0.437500 0
  0.812500   0.875000 0
  0.125000   0.375000 0
  0.125000   0.437500 0
  0.625000   0.437500 0
  1.000000   0.500000 0
  0.312500   0.062500 0
  0.750000   0.500000 0
  0.062500   0.000000 0
  0.062500   0.062500 0
  0.562500   0.062500 0
  0.062500   0.750000 0
  0.312500   0.750000 0
  0.312500   0.625000 0
  0.312500   0.562500 0
  0.062500   0.562500 0
  0.187500   1.000000 0
  0.437500   0.562500 0
  0.875000   1.000000 0
  0.187500   0.562500 0
  0.500000   0.937500 0
  0.250000   0.937500 0
  0.312500   1.000000 0
  0.125000   0.750000 0
  0.125000   0.687500 0
  1.000000   0.000000 0
  0.000000   0.937500 0
  0.000000   0.875000 0
  0.875000   0.125000 0
  0.875000   0.187500 0
  0.062500   0.812500 0
  0.312500   0.812500 0
  0.000000   0.812500 0
  0.000000   0.625000 0
  0.000000   0.562500 0
  0.062500   1.000000 0
  0.062500   0.937500 0
  0.937500   0.187500 0
  0.937500   0.250000 0
  0.062500   0.687500 0
  0.062500   0.625000 0
  0.125000   1.000000 0
  1.000000   0.250000 0
  1.000000   0.312500 0
  0.062500   0.875000 0
  0.125000   0.812500 0
  0.375000   0.812500 0
  0.125000   0.875000 0
  0.375000   0.937500 0
  0.375000   0.875000 0
  0.187500   0.750000 0
  0.187500   0.812500 0
  0.437500   0.812500 0
  0.187500   0.875000 0
  0.437500   0.875000 0
  0.375000   0.562500 0
  0.812500   1.000000 0
  0.125000   0.562500 0
  0.437500   1.000000 0
  0.437500   0.937500 0
  0.187500   0.937500 0
  0.125000   0.937500 0
  0.500000   0.687500 0
  0.500000   0.750000 0
  0.500000   0.812500 0
  0.250000   0.812500 0
  0.250000   0.875000 0
  0.500000   0.875000 0
  0.437500   0.750000 0
  0.312500   0.875000 0
  0.312500   0.937500 0
  0.687500   0.250000 0
  0.687500   0.312500 0
  0.937500   0.312500 0
  0.875000   0.250000 0
  0.625000   0.000000 0
  0.875000   0.000000 0
  0.687500   0.375000 0
  0.937500   0.375000 0
  0.875000   0.312500 0
  0.625000   0.312500 0
  0.687500   0.000000 0
  0.937500   0.000000 0
  0.750000   0.312500 0
  0.750000   0.375000 0
  1.000000   0.375000 0
  0.812500   0.250000 0
  0.562500   0.437500 0
  0.562500   0.500000 0
  0.687500   0.062500 0
  0.750000   0.437500 0
  0.750000   0.000000 0
  0.750000   0.062500 0
  1.000000   0.062500 0
  0.812500   0.375000 0
  0.812500   0.437500 0
CELLS 256 1280
4 169 170 148 68
4 151 166 56 167
4 195 45 196 167
4 54 170 201 202
4 109 34 30 147
4 40 32 81 112
4 192 89 86 68
4 48 91 78 202
4 99 64 196 97
4 71 43 37 103
4 74 186 56 95
4 109 164 34 115
4 50 81 158 112
4 122 69 92 70
4 195 145 45 106
4 110 143 174 175
4 157 30 158 147
4 40 69 32 41
4 50 158 148 147
4 141 155 164 115
4 122 123 69 41
4 142 186 143 175
4 60 39 61 42
4 40 51 69 70
4 120 31 123 41
4 157 174 36 175
4 50 148 89 68
4 48 78 155 115
4 52 83 51 70
4 151 56 66 95
4 71 61 43 42
4 169 148 34 147
4 100 193 39 42
4 40 81 51 199
4 110 174 32 112
4 109 30 145 106
4 100 66 193 95
4 169 34 78 115
4 190 92 83 70
4 50 89 81 199
4 54 86 170 68
4 74 56 45 167
4 142 143 43 103
4 153 59 64 97
4 99 196 166 167
4 169 78 170 202
4 142 193 186 95
4 192 128 89 199
4 74 45 36 106
4 110 31 143 103
4 76 184 59 97
4 142 43 193 42
4 52 51 128 199
4 189 201 91 202
4 120 37 31 103
4 74 36 186 175
4 195 196 184 97
4 141 164 140 183
4 157 158 174 112
4 109 145 164 183
4 195 184 145 183
4 110 32 31 41
4 157 36 30 106
4 76 140 184 183
4 171 172 206 181
4 178 172 261 136
4 256 261 255 136
4 256 257 261 245
4 180 150 206 207
4 60 119 39 210
4 118 215 241 263
4 178 205 172 181
4 216 243 238 244
4 162 217 233 232
4 180 206 131 181
4 179 137 119 210
4 216 204 217 232
4 220 237 219 229
4 216 217 243 159
4 259 258 262 224
4 240 254 237 229
4 153 64 227 208
4 161 205 258 224
4 240 237 238 223
4 226 227 233 208
4 234 228 254 229
4 171 248 137 210
4 160 132 204 232
4 180 131 138 159
4 133 251 213 252
4 171 206 248 207
4 162 138 217 159
4 161 258 243 244
4 220 225 237 223
4 151 150 166 212
4 260 247 257 245
4 259 262 214 263
4 151 66 150 207
4 234 254 209 253
4 162 233 250 208
4 242 241 262 263
4 171 137 172 136
4 161 243 131 159
4 160 204 225 223
4 161 131 205 181
4 179 255 137 136
4 216 238 204 223
4 100 39 248 210
4 260 213 247 252
4 226 233 132 232
4 134 214 215 263
4 180 138 150 212
4 178 261 239 245
4 259 246 258 244
4 178 239 205 224
4 240 238 246 244
4 242 262 239 224
4 99 250 64 208
4 240 246 254 253
4 242 239 247 245
4 135 219 228 229
4 99 166 250 212
4 259 214 246 253
4 118 241 251 252
4 100 248 66 207
4 134 209 214 253
4 162 250 138 212
4 242 247 241 252
4 71 187 61 280
4 102 281 197 280
4 122 92 82 203
4 17 18 82 117
4 122 82 123 117
4 19 264 273 265
4 267 279 222 20
4 125 273 270 265
4 267 272 279 176
4 19 116 18 117
4 21 25 286 24
4 23 28 26 20
4 23 285 28 27
4 218 286 275 24
4 85 53 84 288
4 235 236 231 266
4 221 222 28 20
4 267 222 231 230
4 268 38 129 203
4 125 270 197 188
4 126 287 272 176
4 277 270 276 265
4 267 231 272 266
4 125 197 187 280
4 190 129 92 203
4 277 276 287 176
4 19 18 264 22
4 17 82 38 203
4 102 197 90 188
4 126 84 287 288
4 284 130 285 27
4 121 276 264 265
4 71 37 187 177
4 120 123 116 117
4 198 88 127 191
4 221 16 25 24
4 23 26 15 22
4 121 279 276 176
4 235 231 124 230
4 125 187 273 177
4 278 271 236 266
4 277 287 283 288
4 284 285 274 282
4 278 127 271 191
4 269 275 16 24
4 200 283 53 288
4 23 15 285 282
4 121 26 279 20
4 21 124 25 230
4 19 273 116 177
4 200 90 283 188
4 126 271 84 191
4 269 16 130 27
4 17 38 15 282
4 221 25 222 230
4 121 264 26 22
4 120 116 37 177
4 60 61 281 280
4 277 283 270 188
4 126 272 271 266
4 268 274 38 282
4 85 84 88 191
4 17 15 18 22
4 221 28 16 27
4 93 94 73 55
4 85 88 67 87
4 80 49 79 87
4 44 104 73 72
4 146 33 67 168
4 211 165 149 55
4 8 47 14 154
4 105 104 108 144
4 105 108 29 107
4 7 139 13 75
4 44 165 194 98
4 200 53 77 168
4 8 1 101 4
4 2 5 152 58
4 260 6 213 3
4 105 35 104 72
4 96 57 182 75
4 7 14 139 154
4 146 29 33 107
4 7 13 10 9
4 12 13 57 75
4 85 67 53 168
4 44 73 165 55
4 63 152 62 58
4 8 101 47 46
4 96 182 194 144
4 60 281 119 4
4 12 5 6 3
4 173 185 35 72
4 65 149 94 55
4 146 67 49 87
4 114 113 47 154
4 163 108 182 144
4 12 6 13 9
4 173 35 111 156
4 163 182 139 75
4 260 257 6 9
4 105 29 35 156
4 163 139 113 154
4 256 10 257 9
4 146 49 29 156
4 163 113 108 107
4 80 111 49 156
4 102 101 281 4
4 12 57 5 58
4 44 194 104 144
4 96 194 62 98
4 2 0 5 3
4 93 73 185 72
4 179 119 1 4
4 200 77 90 46
4 114 33 113 107
4 7 10 14 11
4 96 62 57 58
4 133 213 0 3
4 102 90 101 46
4 256 255 10 11
4 63 62 249 98
4 114 47 77 46
4 179 1 255 11
4 211 249 165 98
4 114 77 33 168
4 198 79 88 87
4 8 14 1 11
CELL_TYPES 256
8
8
8
8
8
8
8
8
8
8
8
8
8
8
8
8
8
8
8
8
8
8
8
8
8
8
8
8
8
8
8
8
8
8
8
8
8
8
8
8
8
8
8
8
8
8
8
8
8
8
8
8
8
8
8
8
8
8
8
8
8
8
8
8
8
8
8
8
8
8
8
8
8
8
8
8
8
8
8
8
8
8
8
8
8
8
8
8
8
8
8
8
8
8
8
8
8
8
8
8
8
8
8
8
8
8
8
8
8
8
8
8
8
8
8
8
8
8
8
8
8
8
8
8
8
8
8
8
8
8
8
8
8
8
8
8
8
8
8
8
8
8
8
8
8
8
8
8
8
8
8
8
8
8
8
8
8
8
8
8
8
8
8
8
8
8
8
8
8
8
8
8
8
8
8
8
8
8
8
8
8
8
8
8
8
8
8
8
8
8
8
8
8
8
8
8
8
8
8
8
8
8
8
8
8
8
8
8
8
8
8
8
8
8
8
8
8
8
8
8
8
8
8
8
8
8
8
8
8
8
8
8
8
8
8
8
8
8
8
8
8
8
8
8
8
8
8
8
8
8
8
8
8
8
8
8
CELL_DATA 256
VECTORS vector_value float
-0.417187 -0.981384 0
0.0594456 -0.311669 0
-0.0574803 -0.108547 0
-0.0604189 -1.56414 0
-0.429969 -0.543757 0
-0.276087 -0.485089 0
-0.0569565 -0.547471 0
-0.034267 -1.54976 0
-0.118544 -0.257537 0
0.0182173 -2.90674 0
-0.108097 -0.350952 0
-0.109915 -0.466008 0
-0.466611 -0.446875 0
0.152721 -0.967664 0
-0.109113 -0.12644 0
-0.467964 -0.635755 0
-0.570666 -0.65227 0
-0.0723153 -0.597999 0
-0.586567 -0.55452 0
0.0366729 -2.05264 0
0.317926 -1.40308 0
-0.407912 -0.709524 0
-0.670018 -3.01587 0
-0.0291414 -0.350432 0
0.919581 -2.83924 0
-0.593326 -0.610882 0
-0.368766 -0.435535 0
0.157116 -1.82716 0
-0.00683711 -0.398919 0
0.0629546 -0.255864 0
-0.11436 -3.35812 0
-0.530465 -0.824228 0
-0.473869 -2.67476 0
-0.161118 -0.356755 0
-0.569979 -0.667365 0
-0.162691 -0.228731 0
-0.0337155 -0.472765 0
-0.0543828 -1.05435 0
-0.00825779 -0.86193 0
-0.28633 -0.347089 0
-0.0184522 -0.889427 0
-0.0524616 -0.268365 0
-0.295809 -2.34228 0
-0.182703 -1.81275 0
-0.014434 -0.131875 0
-0.22954 -1.70432 0
-0.285657 -0.683265 0
-0.0966474 -0.282548 0
-0.183165 -0.311624 0
-0.112158 -2.02326 0
-0.0359048 -1.93285 0
-0.215672 -2.49894 0
-0.0275932 -0.217001 0
-0.0692931 -1.86127 0
0.117645 -2.68896 0
-0.354576 -0.544366 0
-0.0758716 -0.188431 0
-0.0129372 -2.06051 0
-0.475414 -0.428439 0
-0.0607125 -0.243081 0
-0.0817411 -0.187542 0
-0.128247 -1.0522 0
-0.428832 -0.530844 0
-0.0389963 -2.01542 0
0.0799477 -0.296482 0
0.113497 -0.737451 0
0.036811 -1.44498 0
0.164672 -1.43304 0
0.0986833 -0.147791 0
-0.868336 -3.14344 0
0.776268 -0.796984 0
0.0830344 -0.345498 0
0.174316 -0.492317 0
0.230739 -1.03539 0
0.0899519 -0.196383 0
-0.916736 -2.45571 0
0.157958 -0.885839 0
-0.188522 -1.54679 0
0.0889969 -0.416652 0
0.399216 -0.343349 0
-0.203975 -1.26262 0
-0.153162 -1.35766 0
0.113527 -0.218462 0
0.207739 -0.999239 0
-0.0671607 -1.12396 0
-0.464554 -1.33205 0
-0.163905 -1.15 0
0.145073 -1.33566 0
0.076286 -0.372201 0
1.08397 -0.765758 0
0.109512 -0.291171 0
0.166845 -0.460019 0
0.154486 -0.231476 0
0.0333724 -1.61748 0
0.141557 -0.327581 0
0.473051 -1.25533 0
0.531827 -0.466411 0
0.141664 -0.221359 0
-0.534333 -0.865848 0
-0.0841875 -0.604219 0
0.702125 -0.555356 0
0.012165 -0.728097 0
0.0786423 -0.336604 0
0.0780171 -1.52314 0
0.0454925 -0.16322 0
-0.214526 -1.66106 0
0.140078 -0.798092 0
-0.292309 -1.73121 0
0.814515 -1.04186 0
0.0135272 -1.03719 0
0.377991 -0.689152 0
0.132742 -0.358479 0
0.183924 -0.662106 0
0.279599 -0.158736 0
0.158003 -0.381714 0
0.322811 -0.448895 0
0.508161 -0.493667 0
-0.346086 -0.578367 0
0.0798771 -0.529561 0
0.494028 -0.665136 0
-0.123019 -1.14774 0
-0.0209067 -0.383969 0
0.332857 -0.277156 0
0.984479 -1.07859 0
0.0550154 -0.358957 0
-0.106272 -0.591358 0
0.0889813 -0.737107 0
0.939708 -0.911018 0
-0.0683344 -1.01992 0
-0.0382483 -0.281117 0
0.399307 -2.1858 0
0.446442 -0.372903 0
0.89907 -2.34042 0
0.105301 -0.0584839 0
0.129155 -0.744091 0
0.106572 -0.046149 0
0.220677 -0.868335 0
0.220571 -0.236734 0
-0.112244 -2.11275 0
0.177269 -0.285714 0
0.183224 -0.311255 0
-0.00983276 -2.05278 0
0.052102 -0.511713 0
-0.0998874 -3.09377 0
-0.13301 -1.07834 0
-0.0427059 -1.70447 0
0.291961 -1.17985 0
0.0818255 -0.0942102 0
0.0217315 -0.5304 0
0.207116 -0.177694 0
-0.0885873 -1.15548 0
0.0266365 -0.188312 0
0.244664 -1.68808 0
0.173332 -0.430235 0
0.148743 -0.117391 0
0.413637 -0.730381 0
0.0208867 -0.113665 0
0.00242374 -0.472972 0
0.0510274 -0.243282 0
0.0809187 -0.0902942 0
0.185008 -1.23558 0
0.555308 -1.28993 0
0.389475 -3.09142 0
-0.189628 -1.9144 0
0.295723 -0.23355 0
0.228874 -0.332219 0
-0.11805 -2.86231 0
0.0914791 -0.135615 0
-0.0954846 -3.28809 0
0.0234874 -0.3103 0
0.0194146 -0.188815 0
0.068613 -3.42079 0
0.10519 -2.21662 0
0.0174614 -0.255736 0
0.129911 -0.258273 0
0.0714807 -0.199691 0
-0.247856 -2.67192 0
0.165878 -0.183307 0
0.00957079 -0.184258 0
0.0863869 -0.900258 0
0.129359 -1.44558 0
0.173789 -0.266454 0
-0.362721 -1.62131 0
0.0880005 -0.143457 0
0.159034 -1.19609 0
-0.375302 -1.42944 0
0.06929 -0.203765 0
-0.116838 -1.0123 0
0.0388789 -0.362282 0
0.299122 -1.19956 0
0.358848 -0.20253 0
0.0873577 -1.52775 0
-0.118421 -0.541522 0
0.524666 -2.00042 0
0.323605 -1.43571 0
-0.0883669 -0.825597 0
0.326523 -0.741144 0
-0.285034 -0.839198 0
-0.258299 -0.603669 0
0.31971 -0.96814 0
1.15506 -1.48811 0
0.147848 -2.4408 0
-0.239607 -0.495576 0
0.043749 -0.380128 0
-0.550369 -0.907183 0
-0.172405 -1.50015 0
0.533321 -1.0577 0
0.0638841 -0.806922 0
0.5703 -1.62314 0
-0.0727255 -1.51825 0
0.958523 -1.3895 0
-0.0469902 -2.09623 0
0.20649 -2.62014 0
0.13873 -0.531572 0
-0.326561 -0.958042 0
-0.912399 -1.38061 0
-0.123178 -0.229647 0
0.174628 -0.618037 0
-0.644593 -2.09914 0
0.761054 -1.80552 0
-0.00262893 -0.411575 0
-0.159318 -0.948098 0
0.566292 -2.3355 0
0.243349 -0.547126 0
0.972414 -1.4956 0
0.233759 -1.9339 0
0.0495455 -0.384339 0
0.550603 -0.802728 0
0.391908 -1.25665 0
0.522527 -1.4131 0
0.529964 -0.671246 0
0.0782071 -1.23766 0
1.011 -2.09951 0
0.906454 -1.075 0
0.339227 -0.751514 0
-0.151064 -0.431134 0
0.0975449 -2.53004 0
-0.0582209 -0.741241 0
-0.240449 -0.55234 0
0.430083 -0.966416 0
-0.0231712 -0.39946 0
-1.22815 -2.71095 0
-0.0147963 -0.163715 0
0.424665 -0.55509 0
-0.693266 -2.30713 0
-0.311442 -1.46847 0
1.1465 -1.63284 0
-0.0254251 -0.11948 0
-0.312698 -1.47692 0
-1.0199 -0.776551 0
0.000380064 -0.208049 0
-0.889228 -2.44792 0
-0.596762 -0.688655 0
0.157405 -0.563372 0
0.341181 -2.17187 0
-0.953621 -1.81885 0
