# vtk DataFile Version 2.0
Unstructured Grid by M++
ASCII
DATASET UNSTRUCTURED_GRID
POINTS 81 float
  1.000000   0.625000 0
  0.750000   0.375000 0
  1.000000   0.000000 0
  0.875000   0.875000 0
  0.750000   0.125000 0
  1.000000   1.000000 0
  0.875000   0.250000 0
  0.625000   0.875000 0
  1.000000   0.750000 0
  0.875000   0.000000 0
  1.000000   0.250000 0
  0.625000   0.375000 0
  0.875000   0.500000 0
  0.625000   0.625000 0
  1.000000   0.500000 0
  0.750000   0.500000 0
  0.750000   1.000000 0
  1.000000   0.125000 0
  0.625000   0.250000 0
  0.750000   0.750000 0
  0.625000   0.000000 0
  0.125000   0.375000 0
  0.000000   0.500000 0
  0.125000   0.625000 0
  0.625000   1.000000 0
  1.000000   0.875000 0
  0.875000   0.125000 0
  0.500000   0.250000 0
  0.625000   0.500000 0
  0.250000   0.625000 0
  0.000000   0.625000 0
  0.375000   0.500000 0
  0.375000   0.000000 0
  0.000000   0.125000 0
  0.125000   0.875000 0
  0.875000   1.000000 0
  0.750000   0.250000 0
  0.375000   0.375000 0
  0.250000   0.375000 0
  0.625000   0.750000 0
  0.125000   0.125000 0
  0.500000   0.000000 0
  0.250000   0.875000 0
  0.125000   0.500000 0
  0.500000   0.375000 0
  0.125000   0.000000 0
  0.250000   0.750000 0
  0.250000   0.500000 0
  0.000000   0.875000 0
  0.875000   0.625000 0
  0.500000   0.750000 0
  0.750000   0.625000 0
  0.250000   0.000000 0
  0.375000   0.750000 0
  0.750000   0.875000 0
  0.625000   0.125000 0
  0.250000   0.250000 0
  0.375000   1.000000 0
  0.375000   0.250000 0
  0.000000   0.375000 0
  0.500000   1.000000 0
  0.875000   0.750000 0
  0.750000   0.000000 0
  0.375000   0.125000 0
  0.500000   0.875000 0
  0.000000   0.000000 0
  0.125000   0.750000 0
  0.500000   0.625000 0
  0.125000   0.250000 0
  0.500000   0.125000 0
  0.250000   1.000000 0
  0.250000   0.125000 0
  0.000000   1.000000 0
  0.375000   0.875000 0
  0.000000   0.750000 0
  0.375000   0.625000 0
  0.000000   0.250000 0
  0.125000   1.000000 0
  1.000000   0.375000 0
  0.500000   0.500000 0
  0.875000   0.375000 0
CELLS 64 320
4 56 71 58 63
4 27 58 69 63
4 41 69 32 63
4 76 33 68 40
4 27 44 58 37
4 79 31 44 37
4 56 38 68 21
4 56 58 38 37
4 52 32 71 63
4 47 38 31 37
4 76 68 59 21
4 22 59 43 21
4 65 45 33 40
4 47 43 38 21
4 52 71 45 40
4 56 68 71 40
4 74 30 66 23
4 46 66 29 23
4 22 43 30 23
4 72 48 77 34
4 46 53 42 73
4 50 64 53 73
4 70 42 57 73
4 74 66 48 34
4 46 42 66 34
4 47 29 43 23
4 70 77 42 34
4 60 57 64 73
4 79 67 31 75
4 47 31 29 75
4 50 53 67 75
4 46 29 53 75
4 10 78 6 80
4 36 6 1 80
4 15 1 12 80
4 36 4 6 26
4 14 12 78 80
4 2 17 9 26
4 36 18 4 55
4 15 28 1 11
4 62 4 20 55
4 10 6 17 26
4 27 18 44 11
4 62 9 4 26
4 27 69 18 55
4 36 1 18 11
4 41 20 69 55
4 79 44 28 11
4 16 24 54 7
4 19 54 39 7
4 50 39 64 7
4 8 25 61 3
4 60 64 24 7
4 79 28 67 13
4 19 51 61 49
4 8 61 0 49
4 15 51 28 13
4 19 39 51 13
4 50 67 39 13
4 19 61 54 3
4 14 0 12 49
4 5 35 25 3
4 15 12 51 49
4 16 54 35 3
CELL_TYPES 64
8
8
8
8
8
8
8
8
8
8
8
8
8
8
8
8
8
8
8
8
8
8
8
8
8
8
8
8
8
8
8
8
8
8
8
8
8
8
8
8
8
8
8
8
8
8
8
8
8
8
8
8
8
8
8
8
8
8
8
8
8
8
8
8
CELL_DATA 64
VECTORS vector_value float
-0.00725325 -0.0549454 0
-0.0105867 -0.0414176 0
-0.0510266 -0.0805107 0
-0.166715 -2.16172 0
0.83039 -1.2333 0
1.3313 -1.99183 0
-0.299407 -0.878277 0
-0.00458024 -0.0618622 0
0.000103011 -0.124924 0
1.13207 -0.706241 0
-0.276232 -1.66458 0
-0.0669222 -1.16508 0
0.0153001 -2.18379 0
0.0414122 -1.44077 0
0.0196115 -0.350329 0
-0.0863888 -0.406271 0
0.356633 -2.43581 0
0.231706 -1.15803 0
0.335407 -1.56177 0
-0.586609 -1.77113 0
-0.478398 -1.20802 0
-0.0478319 -0.0589827 0
-1.31408 -1.10497 0
-0.200206 -2.56807 0
-0.317454 -1.09217 0
0.833485 -2.08805 0
-1.27865 -1.09702 0
-1.35837 -0.66134 0
0.0676568 -0.978452 0
0.347661 -0.689637 0
0.0306612 -0.344037 0
0.227919 -1.15868 0
0.136719 -0.234294 0
0.743663 -1.09017 0
-0.158857 -0.636873 0
2.66449 -2.36746 0
-0.0260798 -0.1228 0
1.16439 -3.52669 0
2.11886 -0.978145 0
-0.303805 -0.568758 0
0.0200829 -0.109312 0
0.59879 -1.00877 0
1.79703 -1.49913 0
0.447881 -1.34821 0
0.857181 -0.981279 0
1.77373 -1.33839 0
0.0147546 -0.276227 0
0.171548 -1.36765 0
0.490173 -0.501701 0
-0.0796703 -0.113967 0
-0.0387387 -0.0320353 0
0.168453 -1.32576 0
-0.419866 -0.228734 0
-0.3993 -0.608674 0
-1.02963 -1.22958 0
-0.498126 -1.12263 0
-0.853171 -0.914826 0
-0.733287 -0.370704 0
-0.357812 -0.180508 0
-0.0123094 -1.601 0
-0.0791335 -0.290514 0
-0.00759818 -0.934574 0
-0.329097 -0.868077 0
0.449301 -1.70054 0
