# vtk DataFile Version 2.0
Unstructured Grid by M++
ASCII
DATASET UNSTRUCTURED_GRID
POINTS 289 float
  0.562500   1.000000 0
  0.562500   0.625000 0
  0.625000   1.000000 0
  0.562500   0.937500 0
  0.562500   0.562500 0
  0.625000   0.937500 0
  0.562500   0.875000 0
  0.625000   0.750000 0
  0.625000   0.625000 0
  0.562500   0.812500 0
  0.562500   0.750000 0
  0.562500   0.687500 0
  0.625000   0.875000 0
  0.625000   0.812500 0
  0.625000   0.687500 0
  0.687500   0.125000 0
  0.875000   0.062500 0
  0.625000   0.125000 0
  0.625000   0.187500 0
  0.625000   0.250000 0
  0.812500   0.187500 0
  1.000000   0.125000 0
  0.687500   0.187500 0
  0.750000   0.125000 0
  0.937500   0.062500 0
  0.937500   0.125000 0
  0.750000   0.187500 0
  0.812500   0.062500 0
  0.812500   0.125000 0
  0.875000   0.687500 0
  0.187500   0.250000 0
  0.437500   0.250000 0
  0.375000   0.187500 0
  0.812500   0.625000 0
  0.125000   0.187500 0
  0.937500   0.750000 0
  0.250000   0.312500 0
  0.500000   0.312500 0
  0.625000   0.062500 0
  0.437500   0.500000 0
  0.375000   0.125000 0
  0.437500   0.187500 0
  0.437500   0.437500 0
  0.437500   0.375000 0
  0.875000   0.875000 0
  0.187500   0.375000 0
  0.687500   0.562500 0
  0.687500   0.625000 0
  0.000000   0.125000 0
  0.937500   0.625000 0
  0.250000   0.125000 0
  0.375000   0.062500 0
  0.375000   0.000000 0
  0.812500   0.500000 0
  0.125000   0.000000 0
  0.937500   0.937500 0
  0.250000   0.437500 0
  0.687500   0.875000 0
  0.687500   0.937500 0
  0.000000   0.437500 0
  0.500000   0.500000 0
  0.500000   0.437500 0
  0.750000   0.937500 0
  0.750000   1.000000 0
  0.062500   0.500000 0
  1.000000   1.000000 0
  0.312500   0.500000 0
  0.875000   0.562500 0
  0.187500   0.062500 0
  0.437500   0.125000 0
  0.437500   0.062500 0
  0.500000   0.375000 0
  0.937500   0.812500 0
  0.937500   0.875000 0
  0.250000   0.375000 0
  0.687500   0.812500 0
  0.000000   0.375000 0
  0.750000   0.562500 0
  0.062500   0.125000 0
  1.000000   0.562500 0
  1.000000   0.625000 0
  0.312500   0.125000 0
  0.562500   0.125000 0
  0.437500   0.000000 0
  0.875000   0.437500 0
  0.875000   0.500000 0
  0.187500   0.000000 0
  0.937500   0.562500 0
  0.937500   0.500000 0
  0.250000   0.062500 0
  0.687500   0.500000 0
  0.000000   0.062500 0
  0.500000   0.062500 0
  1.000000   0.875000 0
  1.000000   0.937500 0
  0.312500   0.437500 0
  0.750000   0.875000 0
  0.062500   0.437500 0
  0.812500   0.937500 0
  0.125000   0.500000 0
  0.375000   0.500000 0
  0.625000   0.562500 0
  0.625000   0.500000 0
  0.437500   0.312500 0
  0.875000   0.812500 0
  0.875000   0.750000 0
  0.187500   0.312500 0
  0.812500   0.687500 0
  0.812500   0.750000 0
  0.125000   0.250000 0
  0.375000   0.250000 0
  1.000000   0.687500 0
  0.312500   0.187500 0
  0.750000   0.687500 0
  0.750000   0.625000 0
  0.062500   0.187500 0
  0.562500   0.250000 0
  0.562500   0.187500 0
  0.375000   1.000000 0
  0.500000   0.562500 0
  0.500000   0.250000 0
  0.750000   0.250000 0
  0.500000   0.125000 0
  0.500000   0.187500 0
  1.000000   0.187500 0
  0.625000   0.375000 0
  0.875000   0.375000 0
  1.000000   0.437500 0
  0.312500   0.000000 0
  0.562500   0.000000 0
  0.812500   0.000000 0
  0.250000   0.687500 0
  0.000000   0.687500 0
  0.500000   1.000000 0
  0.250000   1.000000 0
  0.000000   1.000000 0
  0.437500   0.687500 0
  0.437500   0.625000 0
  0.187500   0.625000 0
  0.687500   0.750000 0
  0.000000   0.312500 0
  0.000000   0.250000 0
  0.375000   0.375000 0
  0.375000   0.312500 0
  0.812500   0.812500 0
  0.125000   0.312500 0
  0.875000   0.625000 0
  0.187500   0.187500 0
  0.187500   0.125000 0
  0.937500   1.000000 0
  0.250000   0.562500 0
  0.250000   0.500000 0
  0.687500   1.000000 0
  0.000000   0.500000 0
  0.687500   0.687500 0
  0.000000   0.187500 0
  0.937500   0.687500 0
  0.250000   0.250000 0
  0.250000   0.187500 0
  0.187500   0.687500 0
  0.000000   0.750000 0
  0.250000   0.750000 0
  0.125000   0.625000 0
  0.750000   0.750000 0
  0.062500   0.250000 0
  0.875000   0.937500 0
  0.187500   0.500000 0
  0.187500   0.437500 0
  0.812500   0.562500 0
  0.125000   0.125000 0
  0.125000   0.062500 0
  0.375000   0.625000 0
  0.375000   0.687500 0
  1.000000   0.750000 0
  0.312500   0.250000 0
  0.312500   0.312500 0
  0.812500   0.312500 0
  0.562500   0.312500 0
  0.375000   0.750000 0
  0.500000   0.625000 0
  0.250000   0.625000 0
  0.312500   0.687500 0
  0.750000   0.812500 0
  0.062500   0.312500 0
  0.062500   0.375000 0
  1.000000   0.812500 0
  0.312500   0.375000 0
  0.562500   0.375000 0
  0.687500   0.437500 0
  0.000000   0.000000 0
  0.500000   0.000000 0
  0.937500   0.437500 0
  0.250000   0.000000 0
  0.375000   0.437500 0
  0.812500   0.875000 0
  0.125000   0.375000 0
  0.125000   0.437500 0
  0.625000   0.437500 0
  1.000000   0.500000 0
  0.312500   0.062500 0
  0.750000   0.500000 0
  0.062500   0.000000 0
  0.062500   0.062500 0
  0.562500   0.062500 0
  0.062500   0.750000 0
  0.312500   0.750000 0
  0.312500   0.625000 0
  0.312500   0.562500 0
  0.062500   0.562500 0
  0.187500   1.000000 0
  0.437500   0.562500 0
  0.875000   1.000000 0
  0.187500   0.562500 0
  0.500000   0.937500 0
  0.250000   0.937500 0
  0.312500   1.000000 0
  0.125000   0.750000 0
  0.125000   0.687500 0
  1.000000   0.000000 0
  0.000000   0.937500 0
  0.000000   0.875000 0
  0.875000   0.125000 0
  0.875000   0.187500 0
  0.062500   0.812500 0
  0.312500   0.812500 0
  0.000000   0.812500 0
  0.000000   0.625000 0
  0.000000   0.562500 0
  0.062500   1.000000 0
  0.062500   0.937500 0
  0.937500   0.187500 0
  0.937500   0.250000 0
  0.062500   0.687500 0
  0.062500   0.625000 0
  0.125000   1.000000 0
  1.000000   0.250000 0
  1.000000   0.312500 0
  0.062500   0.875000 0
  0.125000   0.812500 0
  0.375000   0.812500 0
  0.125000   0.875000 0
  0.375000   0.937500 0
  0.375000   0.875000 0
  0.187500   0.750000 0
  0.187500   0.812500 0
  0.437500   0.812500 0
  0.187500   0.875000 0
  0.437500   0.875000 0
  0.375000   0.562500 0
  0.812500   1.000000 0
  0.125000   0.562500 0
  0.437500   1.000000 0
  0.437500   0.937500 0
  0.187500   0.937500 0
  0.125000   0.937500 0
  0.500000   0.687500 0
  0.500000   0.750000 0
  0.500000   0.812500 0
  0.250000   0.812500 0
  0.250000   0.875000 0
  0.500000   0.875000 0
  0.437500   0.750000 0
  0.312500   0.875000 0
  0.312500   0.937500 0
  0.687500   0.250000 0
  0.687500   0.312500 0
  0.937500   0.312500 0
  0.875000   0.250000 0
  0.625000   0.000000 0
  0.875000   0.000000 0
  0.687500   0.375000 0
  0.937500   0.375000 0
  0.875000   0.312500 0
  0.625000   0.312500 0
  0.687500   0.000000 0
  0.937500   0.000000 0
  0.750000   0.312500 0
  0.750000   0.375000 0
  1.000000   0.375000 0
  0.812500   0.250000 0
  0.562500   0.437500 0
  0.562500   0.500000 0
  0.687500   0.062500 0
  0.750000   0.437500 0
  0.750000   0.000000 0
  0.750000   0.062500 0
  1.000000   0.062500 0
  0.812500   0.375000 0
  0.812500   0.437500 0
CELLS 256 1280
4 169 170 148 68
4 151 166 56 167
4 195 45 196 167
4 54 170 201 202
4 109 34 30 147
4 40 32 81 112
4 192 89 86 68
4 48 91 78 202
4 99 64 196 97
4 71 43 37 103
4 74 186 56 95
4 109 164 34 115
4 50 81 158 112
4 122 69 92 70
4 195 145 45 106
4 110 143 174 175
4 157 30 158 147
4 40 69 32 41
4 50 158 148 147
4 141 155 164 115
4 122 123 69 41
4 142 186 143 175
4 60 39 61 42
4 40 51 69 70
4 120 31 123 41
4 157 174 36 175
4 50 148 89 68
4 48 78 155 115
4 52 83 51 70
4 151 56 66 95
4 71 61 43 42
4 169 148 34 147
4 100 193 39 42
4 40 81 51 199
4 110 174 32 112
4 109 30 145 106
4 100 66 193 95
4 169 34 78 115
4 190 92 83 70
4 50 89 81 199
4 54 86 170 68
4 74 56 45 167
4 142 143 43 103
4 153 59 64 97
4 99 196 166 167
4 169 78 170 202
4 142 193 186 95
4 192 128 89 199
4 74 45 36 106
4 110 31 143 103
4 76 184 59 97
4 142 43 193 42
4 52 51 128 199
4 189 201 91 202
4 120 37 31 103
4 74 36 186 175
4 195 196 184 97
4 141 164 140 183
4 157 158 174 112
4 109 145 164 183
4 195 184 145 183
4 110 32 31 41
4 157 36 30 106
4 76 140 184 183
4 171 172 206 181
4 178 172 261 136
4 256 261 255 136
4 256 257 261 245
4 180 150 206 207
4 60 119 39 210
4 118 215 241 263
4 178 205 172 181
4 216 243 238 244
4 162 217 233 232
4 180 206 131 181
4 179 137 119 210
4 216 204 217 232
4 220 237 219 229
4 216 217 243 159
4 259 258 262 224
4 240 254 237 229
4 153 64 227 208
4 161 205 258 224
4 240 237 238 223
4 226 227 233 208
4 234 228 254 229
4 171 248 137 210
4 160 132 204 232
4 180 131 138 159
4 133 251 213 252
4 171 206 248 207
4 162 138 217 159
4 161 258 243 244
4 220 225 237 223
4 151 150 166 212
4 260 247 257 245
4 259 262 214 263
4 151 66 150 207
4 234 254 209 253
4 162 233 250 208
4 242 241 262 263
4 171 137 172 136
4 161 243 131 159
4 160 204 225 223
4 161 131 205 181
4 179 255 137 136
4 216 238 204 223
4 100 39 248 210
4 260 213 247 252
4 226 233 132 232
4 134 214 215 263
4 180 138 150 212
4 178 261 239 245
4 259 246 258 244
4 178 239 205 224
4 240 238 246 244
4 242 262 239 224
4 99 250 64 208
4 240 246 254 253
4 242 239 247 245
4 135 219 228 229
4 99 166 250 212
4 259 214 246 253
4 118 241 251 252
4 100 248 66 207
4 134 209 214 253
4 162 250 138 212
4 242 247 241 252
4 71 187 61 280
4 102 281 197 280
4 122 92 82 203
4 17 18 82 117
4 122 82 123 117
4 19 264 273 265
4 267 279 222 20
4 125 273 270 265
4 267 272 279 176
4 19 116 18 117
4 21 25 286 24
4 23 28 26 20
4 23 285 28 27
4 218 286 275 24
4 85 53 84 288
4 235 236 231 266
4 221 222 28 20
4 267 222 231 230
4 268 38 129 203
4 125 270 197 188
4 126 287 272 176
4 277 270 276 265
4 267 231 272 266
4 125 197 187 280
4 190 129 92 203
4 277 276 287 176
4 19 18 264 22
4 17 82 38 203
4 102 197 90 188
4 126 84 287 288
4 284 130 285 27
4 121 276 264 265
4 71 37 187 177
4 120 123 116 117
4 198 88 127 191
4 221 16 25 24
4 23 26 15 22
4 121 279 276 176
4 235 231 124 230
4 125 187 273 177
4 278 271 236 266
4 277 287 283 288
4 284 285 274 282
4 278 127 271 191
4 269 275 16 24
4 200 283 53 288
4 23 15 285 282
4 121 26 279 20
4 21 124 25 230
4 19 273 116 177
4 200 90 283 188
4 126 271 84 191
4 269 16 130 27
4 17 38 15 282
4 221 25 222 230
4 121 264 26 22
4 120 116 37 177
4 60 61 281 280
4 277 283 270 188
4 126 272 271 266
4 268 274 38 282
4 85 84 88 191
4 17 15 18 22
4 221 28 16 27
4 93 94 73 55
4 85 88 67 87
4 80 49 79 87
4 44 104 73 72
4 146 33 67 168
4 211 165 149 55
4 8 47 14 154
4 105 104 108 144
4 105 108 29 107
4 7 139 13 75
4 44 165 194 98
4 200 53 77 168
4 8 1 101 4
4 2 5 152 58
4 260 6 213 3
4 105 35 104 72
4 96 57 182 75
4 7 14 139 154
4 146 29 33 107
4 7 13 10 9
4 12 13 57 75
4 85 67 53 168
4 44 73 165 55
4 63 152 62 58
4 8 101 47 46
4 96 182 194 144
4 60 281 119 4
4 12 5 6 3
4 173 185 35 72
4 65 149 94 55
4 146 67 49 87
4 114 113 47 154
4 163 108 182 144
4 12 6 13 9
4 173 35 111 156
4 163 182 139 75
4 260 257 6 9
4 105 29 35 156
4 163 139 113 154
4 256 10 257 9
4 146 49 29 156
4 163 113 108 107
4 80 111 49 156
4 102 101 281 4
4 12 57 5 58
4 44 194 104 144
4 96 194 62 98
4 2 0 5 3
4 93 73 185 72
4 179 119 1 4
4 200 77 90 46
4 114 33 113 107
4 7 10 14 11
4 96 62 57 58
4 133 213 0 3
4 102 90 101 46
4 256 255 10 11
4 63 62 249 98
4 114 47 77 46
4 179 1 255 11
4 211 249 165 98
4 114 77 33 168
4 198 79 88 87
4 8 14 1 11
CELL_TYPES 256
8
8
8
8
8
8
8
8
8
8
8
8
8
8
8
8
8
8
8
8
8
8
8
8
8
8
8
8
8
8
8
8
8
8
8
8
8
8
8
8
8
8
8
8
8
8
8
8
8
8
8
8
8
8
8
8
8
8
8
8
8
8
8
8
8
8
8
8
8
8
8
8
8
8
8
8
8
8
8
8
8
8
8
8
8
8
8
8
8
8
8
8
8
8
8
8
8
8
8
8
8
8
8
8
8
8
8
8
8
8
8
8
8
8
8
8
8
8
8
8
8
8
8
8
8
8
8
8
8
8
8
8
8
8
8
8
8
8
8
8
8
8
8
8
8
8
8
8
8
8
8
8
8
8
8
8
8
8
8
8
8
8
8
8
8
8
8
8
8
8
8
8
8
8
8
8
8
8
8
8
8
8
8
8
8
8
8
8
8
8
8
8
8
8
8
8
8
8
8
8
8
8
8
8
8
8
8
8
8
8
8
8
8
8
8
8
8
8
8
8
8
8
8
8
8
8
8
8
8
8
8
8
8
8
8
8
8
8
8
8
8
8
8
8
8
8
8
8
8
8
8
8
8
8
8
8
CELL_DATA 256
VECTORS vector_value float
0.186755 -1.04127 0
-0.601128 -1.01301 0
-0.571666 -1.4828 0
0.0426924 -0.591415 0
0.286554 -1.29903 0
0.154686 -0.272228 0
0.0803583 -1.15985 0
0.0549215 -0.479811 0
-0.332636 -0.788664 0
-0.0318823 -0.156645 0
-0.131814 -0.328363 0
0.0467621 -0.934409 0
0.205345 -0.279511 0
0.148527 -0.227627 0
-0.0739981 -1.31628 0
0.193823 -0.233168 0
0.396765 -0.6456 0
0.136609 -0.590231 0
0.27533 -0.801073 0
0.00167073 -0.440457 0
0.308261 -0.486683 0
0.0670053 -0.286153 0
-0.0103446 -0.0655198 0
0.141888 -0.508511 0
0.0490121 -0.356408 0
0.16974 -0.145903 0
0.110084 -0.934044 0
-0.0199669 -0.503 0
0.0408666 -0.298215 0
-0.352748 -0.59146 0
-0.0133765 -0.100107 0
0.246989 -1.02034 0
-0.0123556 -0.181574 0
-0.00278715 -0.27982 0
0.222327 -0.189013 0
0.267525 -1.65447 0
-0.106896 -0.446025 0
0.0998653 -0.710829 0
0.148985 -0.296621 0
-0.000436334 -0.255446 0
0.0629972 -0.846703 0
-0.412339 -0.661937 0
0.0333149 -0.251099 0
-0.0240021 -0.283336 0
-0.560442 -1.06903 0
0.0987793 -0.513938 0
-0.00420213 -0.292984 0
-0.0239645 -0.352213 0
-0.0639574 -0.595943 0
0.0718294 -0.469407 0
-0.0710525 -0.511567 0
0.0123833 -0.195247 0
-0.00921022 -0.169096 0
0.0224183 -0.355749 0
-0.093796 -0.217321 0
0.00606616 -0.131266 0
-0.259796 -0.898522 0
-0.012045 -0.485845 0
0.263625 -0.201934 0
0.100819 -0.952598 0
0.00752552 -1.36993 0
0.225877 -0.679974 0
0.170565 -0.481551 0
0.00967952 -0.416701 0
-0.273003 -0.994369 0
0.0202309 -1.3171 0
0.464484 -1.13817 0
0.438688 -2.08838 0
-0.33489 -0.941223 0
0.00332332 -0.103954 0
0.95302 -0.899132 0
-0.229897 -1.27001 0
0.92065 -0.378175 0
0.0119915 -0.230774 0
-0.54844 -1.12238 0
0.204622 -0.257649 0
0.193883 -0.29144 0
-0.133882 -1.33169 0
0.187635 -0.35521 0
0.76038 -0.529375 0
-0.0195214 -1.03328 0
-0.0569661 -0.251429 0
0.500893 -0.588713 0
0.591197 -0.670388 0
-0.0142381 -0.134855 0
-0.232812 -1.18407 0
-0.105609 -0.517461 0
0.090419 -0.26856 0
-0.302437 -0.803278 0
0.491525 -1.91675 0
-0.280274 -0.769941 0
-0.0109041 -0.454765 0
0.894239 -0.407974 0
0.329615 -1.25527 0
-0.501782 -1.13579 0
0.405504 -3.10067 0
0.658051 -0.394148 0
-0.419096 -0.847189 0
-0.19387 -0.952452 0
-0.0852486 -0.315204 0
0.845246 -0.656145 0
0.0739481 -0.833763 0
0.163059 -0.490565 0
0.199014 -0.581091 0
0.0461625 -0.911186 0
0.52359 -0.729836 0
0.696532 -0.576972 0
-0.0511007 -0.214553 0
0.566163 -3.22931 0
0.00256967 -0.128971 0
0.567313 -0.459793 0
-0.367779 -1.1363 0
-0.100656 -1.54473 0
0.487851 -0.233078 0
0.223667 -0.79007 0
0.594855 -0.399018 0
0.577794 -0.58771 0
-0.104373 -0.319181 0
0.344982 -0.481101 0
0.336457 -1.01444 0
-0.0522931 -1.04632 0
-0.364224 -0.902681 0
0.686507 -0.491187 0
1.19046 -0.885525 0
-0.223306 -0.672498 0
0.124269 -0.770613 0
-0.183853 -0.564473 0
0.868545 -0.750009 0
-0.0335178 -0.112183 0
0.015835 -0.30875 0
0.269097 -0.52869 0
-0.0607539 -0.378854 0
0.109438 -0.248025 0
-0.123275 -0.229768 0
-0.436993 -0.304622 0
-0.0717972 -0.249101 0
-0.720222 -0.592228 0
-0.110137 -0.234665 0
-0.352118 -5.20328 0
-0.423691 -0.38846 0
-0.354075 -0.354863 0
-0.0985203 -4.75125 0
0.286979 -0.388833 0
0.206514 -7.52894 0
-0.419649 -0.367612 0
-0.560915 -0.953182 0
-0.0537807 -1.30531 0
0.0147618 -0.308483 0
-0.474569 -0.74075 0
-0.0738269 -0.463052 0
-0.177783 -1.13749 0
-0.0423379 -0.238399 0
0.07109 -0.627564 0
-0.167061 -0.450025 0
-0.462745 -0.688203 0
-0.178108 -0.981401 0
0.117679 -0.423286 0
0.124318 -0.484036 0
-0.115285 -0.296978 0
-0.409207 -0.672139 0
-0.0996441 -0.176342 0
-0.043607 -0.16862 0
-0.153882 -6.82413 0
-0.806679 -2.19105 0
-0.707402 -0.921573 0
-0.828043 -0.828193 0
-0.292875 -7.24081 0
-0.0968556 -0.182022 0
0.214844 -6.73065 0
0.119969 -0.440905 0
-0.182784 -0.415243 0
-0.0514818 -6.57597 0
-0.216594 -2.10391 0
0.30562 -0.509941 0
-0.540128 -0.675597 0
-0.723989 -0.745264 0
-0.616971 -6.56278 0
-0.12205 -0.179821 0
0.285954 -0.532093 0
-0.0654763 -2.9057 0
-0.287393 -0.610413 0
-0.537459 -1.56778 0
-0.552045 -1.1304 0
-0.796491 -0.917807 0
-0.134131 -0.19116 0
-0.022177 -0.102402 0
0.0702235 -0.462799 0
0.0872153 -2.48404 0
-0.257662 -1.81948 0
0.0591591 -2.47195 0
-0.518668 -1.3384 0
-0.272195 -0.256873 0
1.17183 -3.38434 0
0.236848 -1.62681 0
0.27238 -6.9288 0
0.829373 -0.992078 0
0.44153 -0.691907 0
1.47266 -1.6297 0
0.67205 -0.331053 0
0.678686 -0.175968 0
0.997917 -0.391197 0
1.01772 -0.399623 0
1.0709 -0.456813 0
0.542937 -0.433561 0
1.14336 -0.999084 0
-0.106467 -0.700889 0
0.261097 -1.20461 0
0.388607 -1.61561 0
0.51229 -0.101026 0
0.645343 -0.285471 0
0.378211 -0.478182 0
0.665626 -0.375748 0
0.741505 -0.2441 0
0.476619 -0.54892 0
1.7914 -1.38432 0
0.419155 -0.287614 0
1.08552 -0.561001 0
0.595138 -0.0919597 0
0.0487627 -0.11175 0
0.423356 -0.653689 0
0.009488 -4.96335 0
0.384024 -1.49887 0
0.352661 -1.27786 0
0.710645 -0.0899463 0
0.844064 -0.137818 0
0.932958 -0.591491 0
0.305888 -5.0825 0
1.08137 -0.185269 0
0.833114 -1.13833 0
0.709028 -2.1975 0
0.636168 -0.132938 0
0.946576 -1.19051 0
0.719641 -2.06303 0
1.01007 -0.120342 0
0.473502 -5.88527 0
0.287785 -0.528418 0
0.584748 -0.214793 0
0.87931 -0.242219 0
0.969056 -0.135494 0
-0.48282 -0.941074 0
0.423167 -4.80884 0
0.679214 -0.429751 0
0.646143 -0.409506 0
0.562173 -0.0744919 0
0.883679 -0.653734 0
0.998528 -0.199077 0
-0.446376 -1.34412 0
0.743327 -0.769219 0
0.872293 -1.09408 0
1.30306 -0.614085 0
0.789065 -0.273218 0
0.816981 -0.719975 0
1.88901 -0.868995 0
0.454897 -0.201268 0
-0.0365873 -7.12454 0
0.935204 -1.05992 0
