# vtk DataFile Version 2.0
Unstructured Grid by M++
ASCII
DATASET UNSTRUCTURED_GRID
POINTS 81 float
  1.000000   0.625000 0
  0.750000   0.375000 0
  1.000000   0.000000 0
  0.875000   0.875000 0
  0.750000   0.125000 0
  1.000000   1.000000 0
  0.875000   0.250000 0
  0.625000   0.875000 0
  1.000000   0.750000 0
  0.875000   0.000000 0
  1.000000   0.250000 0
  0.625000   0.375000 0
  0.875000   0.500000 0
  0.625000   0.625000 0
  1.000000   0.500000 0
  0.750000   0.500000 0
  0.750000   1.000000 0
  1.000000   0.125000 0
  0.625000   0.250000 0
  0.750000   0.750000 0
  0.625000   0.000000 0
  0.125000   0.375000 0
  0.000000   0.500000 0
  0.125000   0.625000 0
  0.625000   1.000000 0
  1.000000   0.875000 0
  0.875000   0.125000 0
  0.500000   0.250000 0
  0.625000   0.500000 0
  0.250000   0.625000 0
  0.000000   0.625000 0
  0.375000   0.500000 0
  0.375000   0.000000 0
  0.000000   0.125000 0
  0.125000   0.875000 0
  0.875000   1.000000 0
  0.750000   0.250000 0
  0.375000   0.375000 0
  0.250000   0.375000 0
  0.625000   0.750000 0
  0.125000   0.125000 0
  0.500000   0.000000 0
  0.250000   0.875000 0
  0.125000   0.500000 0
  0.500000   0.375000 0
  0.125000   0.000000 0
  0.250000   0.750000 0
  0.250000   0.500000 0
  0.000000   0.875000 0
  0.875000   0.625000 0
  0.500000   0.750000 0
  0.750000   0.625000 0
  0.250000   0.000000 0
  0.375000   0.750000 0
  0.750000   0.875000 0
  0.625000   0.125000 0
  0.250000   0.250000 0
  0.375000   1.000000 0
  0.375000   0.250000 0
  0.000000   0.375000 0
  0.500000   1.000000 0
  0.875000   0.750000 0
  0.750000   0.000000 0
  0.375000   0.125000 0
  0.500000   0.875000 0
  0.000000   0.000000 0
  0.125000   0.750000 0
  0.500000   0.625000 0
  0.125000   0.250000 0
  0.500000   0.125000 0
  0.250000   1.000000 0
  0.250000   0.125000 0
  0.000000   1.000000 0
  0.375000   0.875000 0
  0.000000   0.750000 0
  0.375000   0.625000 0
  0.000000   0.250000 0
  0.125000   1.000000 0
  1.000000   0.375000 0
  0.500000   0.500000 0
  0.875000   0.375000 0
CELLS 64 320
4 56 71 58 63
4 27 58 69 63
4 41 69 32 63
4 76 33 68 40
4 27 44 58 37
4 79 31 44 37
4 56 38 68 21
4 56 58 38 37
4 52 32 71 63
4 47 38 31 37
4 76 68 59 21
4 22 59 43 21
4 65 45 33 40
4 47 43 38 21
4 52 71 45 40
4 56 68 71 40
4 74 30 66 23
4 46 66 29 23
4 22 43 30 23
4 72 48 77 34
4 46 53 42 73
4 50 64 53 73
4 70 42 57 73
4 74 66 48 34
4 46 42 66 34
4 47 29 43 23
4 70 77 42 34
4 60 57 64 73
4 79 67 31 75
4 47 31 29 75
4 50 53 67 75
4 46 29 53 75
4 10 78 6 80
4 36 6 1 80
4 15 1 12 80
4 36 4 6 26
4 14 12 78 80
4 2 17 9 26
4 36 18 4 55
4 15 28 1 11
4 62 4 20 55
4 10 6 17 26
4 27 18 44 11
4 62 9 4 26
4 27 69 18 55
4 36 1 18 11
4 41 20 69 55
4 79 44 28 11
4 16 24 54 7
4 19 54 39 7
4 50 39 64 7
4 8 25 61 3
4 60 64 24 7
4 79 28 67 13
4 19 51 61 49
4 8 61 0 49
4 15 51 28 13
4 19 39 51 13
4 50 67 39 13
4 19 61 54 3
4 14 0 12 49
4 5 35 25 3
4 15 12 51 49
4 16 54 35 3
CELL_TYPES 64
8
8
8
8
8
8
8
8
8
8
8
8
8
8
8
8
8
8
8
8
8
8
8
8
8
8
8
8
8
8
8
8
8
8
8
8
8
8
8
8
8
8
8
8
8
8
8
8
8
8
8
8
8
8
8
8
8
8
8
8
8
8
8
8
CELL_DATA 64
VECTORS vector_value float
-0.0949331 -0.299778 0
-0.127712 -0.168274 0
-0.0777278 -0.120564 0
-0.279172 -0.630444 0
-0.0749878 -0.681681 0
1.03919 -1.65548 0
-0.339117 -0.460749 0
-0.556835 -0.415679 0
-0.166717 -0.344645 0
0.0809673 -0.521926 0
-0.042135 -0.143987 0
-0.0227722 -0.0567367 0
-0.0133991 -0.753393 0
-0.109582 -0.249703 0
-0.0842387 -0.533207 0
-0.347961 -0.506181 0
0.0112926 -0.0284195 0
0.0749502 -0.196849 0
-0.00864409 -0.0328565 0
0.426112 -1.13429 0
0.481871 -1.52337 0
0.386438 -1.9122 0
0.775638 -1.33496 0
0.049788 -0.120706 0
0.66665 -0.506254 0
-0.0321367 -0.208988 0
0.637399 -0.104592 0
0.195347 -1.60993 0
0.225256 -1.54737 0
0.34815 -1.5125 0
0.229718 -1.39457 0
0.14515 -1.94099 0
0.183289 -0.793155 0
1.34651 -1.48709 0
-0.110363 -1.94745 0
1.74122 -1.2964 0
0.190885 -0.307615 0
0.262569 -4.17919 0
0.824767 -1.43996 0
-0.897924 -1.72725 0
0.0801855 -0.477364 0
1.36826 -2.9547 0
1.13656 -1.92367 0
0.49473 -1.26075 0
0.0487899 -0.704259 0
1.78673 -2.09399 0
0.00277415 -0.33089 0
0.3044 -1.53383 0
0.659563 -0.325189 0
0.348012 -0.389284 0
0.504783 -0.362949 0
0.0842363 -1.65825 0
0.0807555 -0.740617 0
0.179716 -0.276648 0
-0.0311012 -1.68867 0
-0.0949686 -1.52836 0
0.177449 -0.843491 0
0.213204 -0.854938 0
0.325431 -0.367208 0
0.0787535 -1.52699 0
-0.571252 -0.632821 0
0.210343 -1.10621 0
-0.944841 -2.94533 0
0.817103 -1.64421 0
