# vtk DataFile Version 2.0
Unstructured Grid by M++
ASCII
DATASET UNSTRUCTURED_GRID
POINTS 81 float
  1.000000   0.625000 0
  0.750000   0.375000 0
  1.000000   0.000000 0
  0.875000   0.875000 0
  0.750000   0.125000 0
  1.000000   1.000000 0
  0.875000   0.250000 0
  0.625000   0.875000 0
  1.000000   0.750000 0
  0.875000   0.000000 0
  1.000000   0.250000 0
  0.625000   0.375000 0
  0.875000   0.500000 0
  0.625000   0.625000 0
  1.000000   0.500000 0
  0.750000   0.500000 0
  0.750000   1.000000 0
  1.000000   0.125000 0
  0.625000   0.250000 0
  0.750000   0.750000 0
  0.625000   0.000000 0
  0.125000   0.375000 0
  0.000000   0.500000 0
  0.125000   0.625000 0
  0.625000   1.000000 0
  1.000000   0.875000 0
  0.875000   0.125000 0
  0.500000   0.250000 0
  0.625000   0.500000 0
  0.250000   0.625000 0
  0.000000   0.625000 0
  0.375000   0.500000 0
  0.375000   0.000000 0
  0.000000   0.125000 0
  0.125000   0.875000 0
  0.875000   1.000000 0
  0.750000   0.250000 0
  0.375000   0.375000 0
  0.250000   0.375000 0
  0.625000   0.750000 0
  0.125000   0.125000 0
  0.500000   0.000000 0
  0.250000   0.875000 0
  0.125000   0.500000 0
  0.500000   0.375000 0
  0.125000   0.000000 0
  0.250000   0.750000 0
  0.250000   0.500000 0
  0.000000   0.875000 0
  0.875000   0.625000 0
  0.500000   0.750000 0
  0.750000   0.625000 0
  0.250000   0.000000 0
  0.375000   0.750000 0
  0.750000   0.875000 0
  0.625000   0.125000 0
  0.250000   0.250000 0
  0.375000   1.000000 0
  0.375000   0.250000 0
  0.000000   0.375000 0
  0.500000   1.000000 0
  0.875000   0.750000 0
  0.750000   0.000000 0
  0.375000   0.125000 0
  0.500000   0.875000 0
  0.000000   0.000000 0
  0.125000   0.750000 0
  0.500000   0.625000 0
  0.125000   0.250000 0
  0.500000   0.125000 0
  0.250000   1.000000 0
  0.250000   0.125000 0
  0.000000   1.000000 0
  0.375000   0.875000 0
  0.000000   0.750000 0
  0.375000   0.625000 0
  0.000000   0.250000 0
  0.125000   1.000000 0
  1.000000   0.375000 0
  0.500000   0.500000 0
  0.875000   0.375000 0
CELLS 64 320
4 56 71 58 63
4 27 58 69 63
4 41 69 32 63
4 76 33 68 40
4 27 44 58 37
4 79 31 44 37
4 56 38 68 21
4 56 58 38 37
4 52 32 71 63
4 47 38 31 37
4 76 68 59 21
4 22 59 43 21
4 65 45 33 40
4 47 43 38 21
4 52 71 45 40
4 56 68 71 40
4 74 30 66 23
4 46 66 29 23
4 22 43 30 23
4 72 48 77 34
4 46 53 42 73
4 50 64 53 73
4 70 42 57 73
4 74 66 48 34
4 46 42 66 34
4 47 29 43 23
4 70 77 42 34
4 60 57 64 73
4 79 67 31 75
4 47 31 29 75
4 50 53 67 75
4 46 29 53 75
4 10 78 6 80
4 36 6 1 80
4 15 1 12 80
4 36 4 6 26
4 14 12 78 80
4 2 17 9 26
4 36 18 4 55
4 15 28 1 11
4 62 4 20 55
4 10 6 17 26
4 27 18 44 11
4 62 9 4 26
4 27 69 18 55
4 36 1 18 11
4 41 20 69 55
4 79 44 28 11
4 16 24 54 7
4 19 54 39 7
4 50 39 64 7
4 8 25 61 3
4 60 64 24 7
4 79 28 67 13
4 19 51 61 49
4 8 61 0 49
4 15 51 28 13
4 19 39 51 13
4 50 67 39 13
4 19 61 54 3
4 14 0 12 49
4 5 35 25 3
4 15 12 51 49
4 16 54 35 3
CELL_TYPES 64
8
8
8
8
8
8
8
8
8
8
8
8
8
8
8
8
8
8
8
8
8
8
8
8
8
8
8
8
8
8
8
8
8
8
8
8
8
8
8
8
8
8
8
8
8
8
8
8
8
8
8
8
8
8
8
8
8
8
8
8
8
8
8
8
CELL_DATA 64
VECTORS vector_value float
0.0310195 -0.124098 0
0.00230017 -0.040141 0
0.000574433 -0.00417885 0
0.174793 -0.715876 0
0.0348011 -0.0774446 0
0.158561 -0.230694 0
-0.167498 -0.905758 0
-0.0174117 -0.0589219 0
0.0265855 -0.224687 0
-0.103628 -0.351839 0
-0.116449 -0.792232 0
-0.215754 -0.453281 0
0.0460101 -0.365094 0
-0.406124 -0.995101 0
0.138636 -1.19605 0
0.154956 -0.930952 0
-0.0117424 -0.038127 0
-0.0115966 -0.0540747 0
-0.0381343 -0.0778093 0
0.465699 -0.341236 0
0.235293 -0.646105 0
0.989067 -3.40463 0
1.8181 -1.47697 0
0.0206982 -0.0337753 0
0.0496474 -0.0770774 0
-0.584511 -0.361356 0
1.38648 -0.594365 0
0.30822 -1.90922 0
0.370388 -0.565981 0
-0.947706 -1.61143 0
-0.151732 -2.19146 0
-0.2113 -1.01317 0
1.32954 -3.63409 0
1.56743 -1.29967 0
0.630049 -3.01448 0
0.328788 -0.758368 0
0.0107221 -1.56445 0
0.0712258 -5.39959 0
0.0202994 -0.263696 0
0.472582 -0.946362 0
-0.00840916 -0.325795 0
0.404585 -5.10459 0
0.233253 -0.175174 0
0.0606407 -0.427538 0
0.0146821 -0.0622782 0
0.811717 -1.05671 0
0.0195187 -0.0570749 0
0.444939 -0.443796 0
0.621114 -0.535485 0
0.582911 -0.507525 0
0.453866 -0.128495 0
0.224454 -1.49372 0
0.0595939 -0.454527 0
0.50922 -0.354881 0
0.245802 -1.63439 0
0.117046 -1.8323 0
0.617279 -1.24923 0
0.371126 -0.759668 0
0.949637 -0.476817 0
0.426638 -1.70867 0
-0.0959865 -2.25926 0
0.150077 -1.12387 0
0.214105 -1.52005 0
0.650009 -1.56433 0
