# vtk DataFile Version 2.0
Unstructured Grid by M++
ASCII
DATASET UNSTRUCTURED_GRID
POINTS 81 float
  1.000000   0.625000 0
  0.750000   0.375000 0
  1.000000   0.000000 0
  0.875000   0.875000 0
  0.750000   0.125000 0
  1.000000   1.000000 0
  0.875000   0.250000 0
  0.625000   0.875000 0
  1.000000   0.750000 0
  0.875000   0.000000 0
  1.000000   0.250000 0
  0.625000   0.375000 0
  0.875000   0.500000 0
  0.625000   0.625000 0
  1.000000   0.500000 0
  0.750000   0.500000 0
  0.750000   1.000000 0
  1.000000   0.125000 0
  0.625000   0.250000 0
  0.750000   0.750000 0
  0.625000   0.000000 0
  0.125000   0.375000 0
  0.000000   0.500000 0
  0.125000   0.625000 0
  0.625000   1.000000 0
  1.000000   0.875000 0
  0.875000   0.125000 0
  0.500000   0.250000 0
  0.625000   0.500000 0
  0.250000   0.625000 0
  0.000000   0.625000 0
  0.375000   0.500000 0
  0.375000   0.000000 0
  0.000000   0.125000 0
  0.125000   0.875000 0
  0.875000   1.000000 0
  0.750000   0.250000 0
  0.375000   0.375000 0
  0.250000   0.375000 0
  0.625000   0.750000 0
  0.125000   0.125000 0
  0.500000   0.000000 0
  0.250000   0.875000 0
  0.125000   0.500000 0
  0.500000   0.375000 0
  0.125000   0.000000 0
  0.250000   0.750000 0
  0.250000   0.500000 0
  0.000000   0.875000 0
  0.875000   0.625000 0
  0.500000   0.750000 0
  0.750000   0.625000 0
  0.250000   0.000000 0
  0.375000   0.750000 0
  0.750000   0.875000 0
  0.625000   0.125000 0
  0.250000   0.250000 0
  0.375000   1.000000 0
  0.375000   0.250000 0
  0.000000   0.375000 0
  0.500000   1.000000 0
  0.875000   0.750000 0
  0.750000   0.000000 0
  0.375000   0.125000 0
  0.500000   0.875000 0
  0.000000   0.000000 0
  0.125000   0.750000 0
  0.500000   0.625000 0
  0.125000   0.250000 0
  0.500000   0.125000 0
  0.250000   1.000000 0
  0.250000   0.125000 0
  0.000000   1.000000 0
  0.375000   0.875000 0
  0.000000   0.750000 0
  0.375000   0.625000 0
  0.000000   0.250000 0
  0.125000   1.000000 0
  1.000000   0.375000 0
  0.500000   0.500000 0
  0.875000   0.375000 0
CELLS 64 320
4 56 71 58 63
4 27 58 69 63
4 41 69 32 63
4 76 33 68 40
4 27 44 58 37
4 79 31 44 37
4 56 38 68 21
4 56 58 38 37
4 52 32 71 63
4 47 38 31 37
4 76 68 59 21
4 22 59 43 21
4 65 45 33 40
4 47 43 38 21
4 52 71 45 40
4 56 68 71 40
4 74 30 66 23
4 46 66 29 23
4 22 43 30 23
4 72 48 77 34
4 46 53 42 73
4 50 64 53 73
4 70 42 57 73
4 74 66 48 34
4 46 42 66 34
4 47 29 43 23
4 70 77 42 34
4 60 57 64 73
4 79 67 31 75
4 47 31 29 75
4 50 53 67 75
4 46 29 53 75
4 10 78 6 80
4 36 6 1 80
4 15 1 12 80
4 36 4 6 26
4 14 12 78 80
4 2 17 9 26
4 36 18 4 55
4 15 28 1 11
4 62 4 20 55
4 10 6 17 26
4 27 18 44 11
4 62 9 4 26
4 27 69 18 55
4 36 1 18 11
4 41 20 69 55
4 79 44 28 11
4 16 24 54 7
4 19 54 39 7
4 50 39 64 7
4 8 25 61 3
4 60 64 24 7
4 79 28 67 13
4 19 51 61 49
4 8 61 0 49
4 15 51 28 13
4 19 39 51 13
4 50 67 39 13
4 19 61 54 3
4 14 0 12 49
4 5 35 25 3
4 15 12 51 49
4 16 54 35 3
CELL_TYPES 64
8
8
8
8
8
8
8
8
8
8
8
8
8
8
8
8
8
8
8
8
8
8
8
8
8
8
8
8
8
8
8
8
8
8
8
8
8
8
8
8
8
8
8
8
8
8
8
8
8
8
8
8
8
8
8
8
8
8
8
8
8
8
8
8
CELL_DATA 64
VECTORS vector_value float
0.416091 -1.09253 0
-0.0857257 -0.575246 0
-0.0592785 -0.465043 0
-0.146821 -2.01384 0
0.0262681 -0.0372099 0
0.0209171 -0.0310852 0
0.0693161 -2.73461 0
0.289969 -0.553955 0
-0.0806739 -1.46699 0
0.0777416 -0.265659 0
-0.471478 -1.39873 0
-0.203086 -0.510055 0
-0.0772991 -2.22685 0
-0.423145 -3.95053 0
-0.0225066 -0.909168 0
0.0147555 -1.28582 0
-0.144475 -0.703371 0
-0.200916 -0.114986 0
0.20299 -0.949425 0
0.208682 -0.876379 0
-0.12177 -1.75087 0
-0.55197 -2.49881 0
0.899937 -1.8733 0
0.00517939 -0.570831 0
-0.0176563 -0.0776521 0
-1.49136 -1.97734 0
0.886323 -0.330305 0
-0.160533 -1.24516 0
0.367207 -0.903998 0
-1.54573 -1.73513 0
-0.90229 -2.06131 0
-1.31852 -2.78356 0
0.291584 -1.97127 0
0.0280927 -0.0511346 0
0.551818 -0.998804 0
0.0630194 -0.0552415 0
0.2782 -1.05881 0
0.0203119 -2.07337 0
0.0395533 -0.0607193 0
-0.0348673 -0.215698 0
0.0393129 -0.115262 0
-0.0107597 -2.02629 0
-0.161963 -1.12269 0
0.0194942 -0.0396863 0
-0.0594935 -0.890311 0
-0.0121939 -0.130405 0
0.000797773 -0.703639 0
0.358289 -0.969358 0
-0.912493 -0.649477 0
-0.0331523 -0.272408 0
-0.61951 -1.46114 0
0.117942 -0.536323 0
-0.76565 -1.35896 0
0.122663 -0.150336 0
0.0791405 -0.224662 0
0.176789 -1.13859 0
0.227885 -0.408222 0
0.363191 -0.579993 0
0.205133 -0.393519 0
0.268632 -0.831971 0
-0.0516075 -0.886058 0
-0.282392 -0.490732 0
0.159335 -0.989498 0
-0.573075 -1.17569 0
