# vtk DataFile Version 2.0
Unstructured Grid by M++
ASCII
DATASET UNSTRUCTURED_GRID
POINTS 81 float
  1.000000   0.625000 0
  0.750000   0.375000 0
  1.000000   0.000000 0
  0.875000   0.875000 0
  0.750000   0.125000 0
  1.000000   1.000000 0
  0.875000   0.250000 0
  0.625000   0.875000 0
  1.000000   0.750000 0
  0.875000   0.000000 0
  1.000000   0.250000 0
  0.625000   0.375000 0
  0.875000   0.500000 0
  0.625000   0.625000 0
  1.000000   0.500000 0
  0.750000   0.500000 0
  0.750000   1.000000 0
  1.000000   0.125000 0
  0.625000   0.250000 0
  0.750000   0.750000 0
  0.625000   0.000000 0
  0.125000   0.375000 0
  0.000000   0.500000 0
  0.125000   0.625000 0
  0.625000   1.000000 0
  1.000000   0.875000 0
  0.875000   0.125000 0
  0.500000   0.250000 0
  0.625000   0.500000 0
  0.250000   0.625000 0
  0.000000   0.625000 0
  0.375000   0.500000 0
  0.375000   0.000000 0
  0.000000   0.125000 0
  0.125000   0.875000 0
  0.875000   1.000000 0
  0.750000   0.250000 0
  0.375000   0.375000 0
  0.250000   0.375000 0
  0.625000   0.750000 0
  0.125000   0.125000 0
  0.500000   0.000000 0
  0.250000   0.875000 0
  0.125000   0.500000 0
  0.500000   0.375000 0
  0.125000   0.000000 0
  0.250000   0.750000 0
  0.250000   0.500000 0
  0.000000   0.875000 0
  0.875000   0.625000 0
  0.500000   0.750000 0
  0.750000   0.625000 0
  0.250000   0.000000 0
  0.375000   0.750000 0
  0.750000   0.875000 0
  0.625000   0.125000 0
  0.250000   0.250000 0
  0.375000   1.000000 0
  0.375000   0.250000 0
  0.000000   0.375000 0
  0.500000   1.000000 0
  0.875000   0.750000 0
  0.750000   0.000000 0
  0.375000   0.125000 0
  0.500000   0.875000 0
  0.000000   0.000000 0
  0.125000   0.750000 0
  0.500000   0.625000 0
  0.125000   0.250000 0
  0.500000   0.125000 0
  0.250000   1.000000 0
  0.250000   0.125000 0
  0.000000   1.000000 0
  0.375000   0.875000 0
  0.000000   0.750000 0
  0.375000   0.625000 0
  0.000000   0.250000 0
  0.125000   1.000000 0
  1.000000   0.375000 0
  0.500000   0.500000 0
  0.875000   0.375000 0
CELLS 64 320
4 56 71 58 63
4 27 58 69 63
4 41 69 32 63
4 76 33 68 40
4 27 44 58 37
4 79 31 44 37
4 56 38 68 21
4 56 58 38 37
4 52 32 71 63
4 47 38 31 37
4 76 68 59 21
4 22 59 43 21
4 65 45 33 40
4 47 43 38 21
4 52 71 45 40
4 56 68 71 40
4 74 30 66 23
4 46 66 29 23
4 22 43 30 23
4 72 48 77 34
4 46 53 42 73
4 50 64 53 73
4 70 42 57 73
4 74 66 48 34
4 46 42 66 34
4 47 29 43 23
4 70 77 42 34
4 60 57 64 73
4 79 67 31 75
4 47 31 29 75
4 50 53 67 75
4 46 29 53 75
4 10 78 6 80
4 36 6 1 80
4 15 1 12 80
4 36 4 6 26
4 14 12 78 80
4 2 17 9 26
4 36 18 4 55
4 15 28 1 11
4 62 4 20 55
4 10 6 17 26
4 27 18 44 11
4 62 9 4 26
4 27 69 18 55
4 36 1 18 11
4 41 20 69 55
4 79 44 28 11
4 16 24 54 7
4 19 54 39 7
4 50 39 64 7
4 8 25 61 3
4 60 64 24 7
4 79 28 67 13
4 19 51 61 49
4 8 61 0 49
4 15 51 28 13
4 19 39 51 13
4 50 67 39 13
4 19 61 54 3
4 14 0 12 49
4 5 35 25 3
4 15 12 51 49
4 16 54 35 3
CELL_TYPES 64
8
8
8
8
8
8
8
8
8
8
8
8
8
8
8
8
8
8
8
8
8
8
8
8
8
8
8
8
8
8
8
8
8
8
8
8
8
8
8
8
8
8
8
8
8
8
8
8
8
8
8
8
8
8
8
8
8
8
8
8
8
8
8
8
CELL_DATA 64
VECTORS vector_value float
-0.451114 -0.491432 0
-0.198431 -0.507971 0
-0.00978873 -0.463086 0
-0.0240778 -0.238096 0
-0.647347 -0.647591 0
-0.0986537 -0.192758 0
0.111573 -0.434144 0
-0.268504 -0.323417 0
-0.019449 -0.0747698 0
-0.00589907 -0.0657556 0
0.107529 -0.264232 0
0.0660286 -0.535513 0
-0.0820167 -0.413876 0
0.0376214 -0.167722 0
-0.239751 -1.02246 0
-0.228013 -0.692008 0
0.0710764 -0.67853 0
0.0893549 -0.0572293 0
0.00563168 -0.580888 0
0.135409 -0.752996 0
0.724477 -0.621648 0
1.11916 -0.791778 0
0.994497 -0.999103 0
-0.00018722 -0.748596 0
0.0226047 -0.0285072 0
0.0146226 -0.140984 0
0.726923 -0.831739 0
0.994751 -0.587565 0
-0.00528774 -0.0783 0
0.000910957 -0.0202756 0
0.601319 -0.762956 0
0.0481207 -0.0387091 0
1.03954 -4.55635 0
0.712891 -1.44508 0
1.03423 -3.05779 0
0.227131 -0.416707 0
0.272961 -2.62051 0
0.121794 -5.92388 0
-0.0326675 -0.0338721 0
0.338408 -0.888323 0
-0.00537622 -0.0100704 0
0.164366 -5.55563 0
-0.401981 -0.099437 0
0.0109581 -0.0350481 0
-0.0842663 -0.0642846 0
-0.142188 -0.229746 0
-0.0211415 -0.0568114 0
-0.344881 -0.471628 0
1.40992 -1.32826 0
1.78692 -1.5329 0
0.325602 -0.0416593 0
0.275756 -1.8777 0
2.12837 -0.748208 0
0.221849 -0.759247 0
0.221735 -2.89892 0
0.24301 -2.50899 0
0.0265364 -1.28907 0
0.0815134 -0.74673 0
0.670328 -0.307944 0
1.31435 -2.3572 0
0.00640406 -2.78537 0
0.35841 -1.51633 0
-0.00574352 -2.34587 0
0.927674 -1.2358 0
