# vtk DataFile Version 2.0
Unstructured Grid by M++
ASCII
DATASET UNSTRUCTURED_GRID
POINTS 81 float
  1.000000   0.625000 0
  0.750000   0.375000 0
  1.000000   0.000000 0
  0.875000   0.875000 0
  0.750000   0.125000 0
  1.000000   1.000000 0
  0.875000   0.250000 0
  0.625000   0.875000 0
  1.000000   0.750000 0
  0.875000   0.000000 0
  1.000000   0.250000 0
  0.625000   0.375000 0
  0.875000   0.500000 0
  0.625000   0.625000 0
  1.000000   0.500000 0
  0.750000   0.500000 0
  0.750000   1.000000 0
  1.000000   0.125000 0
  0.625000   0.250000 0
  0.750000   0.750000 0
  0.625000   0.000000 0
  0.125000   0.375000 0
  0.000000   0.500000 0
  0.125000   0.625000 0
  0.625000   1.000000 0
  1.000000   0.875000 0
  0.875000   0.125000 0
  0.500000   0.250000 0
  0.625000   0.500000 0
  0.250000   0.625000 0
  0.000000   0.625000 0
  0.375000   0.500000 0
  0.375000   0.000000 0
  0.000000   0.125000 0
  0.125000   0.875000 0
  0.875000   1.000000 0
  0.750000   0.250000 0
  0.375000   0.375000 0
  0.250000   0.375000 0
  0.625000   0.750000 0
  0.125000   0.125000 0
  0.500000   0.000000 0
  0.250000   0.875000 0
  0.125000   0.500000 0
  0.500000   0.375000 0
  0.125000   0.000000 0
  0.250000   0.750000 0
  0.250000   0.500000 0
  0.000000   0.875000 0
  0.875000   0.625000 0
  0.500000   0.750000 0
  0.750000   0.625000 0
  0.250000   0.000000 0
  0.375000   0.750000 0
  0.750000   0.875000 0
  0.625000   0.125000 0
  0.250000   0.250000 0
  0.375000   1.000000 0
  0.375000   0.250000 0
  0.000000   0.375000 0
  0.500000   1.000000 0
  0.875000   0.750000 0
  0.750000   0.000000 0
  0.375000   0.125000 0
  0.500000   0.875000 0
  0.000000   0.000000 0
  0.125000   0.750000 0
  0.500000   0.625000 0
  0.125000   0.250000 0
  0.500000   0.125000 0
  0.250000   1.000000 0
  0.250000   0.125000 0
  0.000000   1.000000 0
  0.375000   0.875000 0
  0.000000   0.750000 0
  0.375000   0.625000 0
  0.000000   0.250000 0
  0.125000   1.000000 0
  1.000000   0.375000 0
  0.500000   0.500000 0
  0.875000   0.375000 0
CELLS 64 320
4 56 71 58 63
4 27 58 69 63
4 41 69 32 63
4 76 33 68 40
4 27 44 58 37
4 79 31 44 37
4 56 38 68 21
4 56 58 38 37
4 52 32 71 63
4 47 38 31 37
4 76 68 59 21
4 22 59 43 21
4 65 45 33 40
4 47 43 38 21
4 52 71 45 40
4 56 68 71 40
4 74 30 66 23
4 46 66 29 23
4 22 43 30 23
4 72 48 77 34
4 46 53 42 73
4 50 64 53 73
4 70 42 57 73
4 74 66 48 34
4 46 42 66 34
4 47 29 43 23
4 70 77 42 34
4 60 57 64 73
4 79 67 31 75
4 47 31 29 75
4 50 53 67 75
4 46 29 53 75
4 10 78 6 80
4 36 6 1 80
4 15 1 12 80
4 36 4 6 26
4 14 12 78 80
4 2 17 9 26
4 36 18 4 55
4 15 28 1 11
4 62 4 20 55
4 10 6 17 26
4 27 18 44 11
4 62 9 4 26
4 27 69 18 55
4 36 1 18 11
4 41 20 69 55
4 79 44 28 11
4 16 24 54 7
4 19 54 39 7
4 50 39 64 7
4 8 25 61 3
4 60 64 24 7
4 79 28 67 13
4 19 51 61 49
4 8 61 0 49
4 15 51 28 13
4 19 39 51 13
4 50 67 39 13
4 19 61 54 3
4 14 0 12 49
4 5 35 25 3
4 15 12 51 49
4 16 54 35 3
CELL_TYPES 64
8
8
8
8
8
8
8
8
8
8
8
8
8
8
8
8
8
8
8
8
8
8
8
8
8
8
8
8
8
8
8
8
8
8
8
8
8
8
8
8
8
8
8
8
8
8
8
8
8
8
8
8
8
8
8
8
8
8
8
8
8
8
8
8
CELL_DATA 64
VECTORS vector_value float
-0.887695 -0.857725 0
0.0222045 -1.01009 0
0.0113922 -0.134878 0
-0.265501 -2.10411 0
-0.389532 -2.63925 0
-0.752232 -2.7218 0
0.0066085 -0.334281 0
-0.4039 -0.478066 0
-0.123714 -0.983805 0
0.114658 -0.325042 0
0.0115261 -1.96831 0
0.0640987 -2.10187 0
-0.0665298 -2.60967 0
0.0337708 -0.149642 0
-0.0543242 -0.738971 0
-0.789722 -0.979359 0
0.0655983 -1.40255 0
0.216132 -1.3385 0
-0.363342 -1.91643 0
-0.604616 -1.81513 0
-0.0164514 -0.0779036 0
0.0517023 -0.184277 0
-0.273186 -0.254806 0
0.342843 -2.10807 0
0.107258 -0.650091 0
-0.101884 -0.711885 0
-0.906048 -0.767412 0
0.533984 -0.490313 0
-0.416621 -0.750537 0
0.171044 -0.0348473 0
0.0411166 -0.183626 0
0.0580834 -0.039314 0
-0.0382723 -0.198164 0
-0.0456303 -0.0826107 0
-0.282093 -0.203106 0
-0.0201336 -0.102124 0
-0.0951544 -0.298142 0
0.0269194 -0.177311 0
0.366933 -1.01033 0
-0.529805 -0.366382 0
0.191592 -0.839573 0
-0.00442161 -0.132917 0
0.499714 -2.04093 0
0.241861 -0.420983 0
0.216384 -1.80336 0
0.0750665 -0.258393 0
0.278413 -2.09481 0
-0.620456 -1.83402 0
1.65206 -0.971021 0
-0.169254 -0.965752 0
0.0182181 -0.277198 0
0.0428589 -2.61389 0
1.31219 -0.794283 0
-2.17246 -2.24664 0
-1.19687 -2.01599 0
-0.293835 -1.31074 0
-2.32746 -0.77894 0
-0.709122 -0.584278 0
-0.500333 -1.125 0
-0.0467718 -1.12282 0
-0.233546 -0.607262 0
0.188593 -1.23011 0
-1.12311 -0.953458 0
1.40086 -1.67693 0
