# vtk DataFile Version 2.0
Unstructured Grid by M++
ASCII
DATASET UNSTRUCTURED_GRID
POINTS 81 float
  1.000000   0.625000 0
  0.750000   0.375000 0
  1.000000   0.000000 0
  0.875000   0.875000 0
  0.750000   0.125000 0
  1.000000   1.000000 0
  0.875000   0.250000 0
  0.625000   0.875000 0
  1.000000   0.750000 0
  0.875000   0.000000 0
  1.000000   0.250000 0
  0.625000   0.375000 0
  0.875000   0.500000 0
  0.625000   0.625000 0
  1.000000   0.500000 0
  0.750000   0.500000 0
  0.750000   1.000000 0
  1.000000   0.125000 0
  0.625000   0.250000 0
  0.750000   0.750000 0
  0.625000   0.000000 0
  0.125000   0.375000 0
  0.000000   0.500000 0
  0.125000   0.625000 0
  0.625000   1.000000 0
  1.000000   0.875000 0
  0.875000   0.125000 0
  0.500000   0.250000 0
  0.625000   0.500000 0
  0.250000   0.625000 0
  0.000000   0.625000 0
  0.375000   0.500000 0
  0.375000   0.000000 0
  0.000000   0.125000 0
  0.125000   0.875000 0
  0.875000   1.000000 0
  0.750000   0.250000 0
  0.375000   0.375000 0
  0.250000   0.375000 0
  0.625000   0.750000 0
  0.125000   0.125000 0
  0.500000   0.000000 0
  0.250000   0.875000 0
  0.125000   0.500000 0
  0.500000   0.375000 0
  0.125000   0.000000 0
  0.250000   0.750000 0
  0.250000   0.500000 0
  0.000000   0.875000 0
  0.875000   0.625000 0
  0.500000   0.750000 0
  0.750000   0.625000 0
  0.250000   0.000000 0
  0.375000   0.750000 0
  0.750000   0.875000 0
  0.625000   0.125000 0
  0.250000   0.250000 0
  0.375000   1.000000 0
  0.375000   0.250000 0
  0.000000   0.375000 0
  0.500000   1.000000 0
  0.875000   0.750000 0
  0.750000   0.000000 0
  0.375000   0.125000 0
  0.500000   0.875000 0
  0.000000   0.000000 0
  0.125000   0.750000 0
  0.500000   0.625000 0
  0.125000   0.250000 0
  0.500000   0.125000 0
  0.250000   1.000000 0
  0.250000   0.125000 0
  0.000000   1.000000 0
  0.375000   0.875000 0
  0.000000   0.750000 0
  0.375000   0.625000 0
  0.000000   0.250000 0
  0.125000   1.000000 0
  1.000000   0.375000 0
  0.500000   0.500000 0
  0.875000   0.375000 0
CELLS 64 320
4 56 71 58 63
4 27 58 69 63
4 41 69 32 63
4 76 33 68 40
4 27 44 58 37
4 79 31 44 37
4 56 38 68 21
4 56 58 38 37
4 52 32 71 63
4 47 38 31 37
4 76 68 59 21
4 22 59 43 21
4 65 45 33 40
4 47 43 38 21
4 52 71 45 40
4 56 68 71 40
4 74 30 66 23
4 46 66 29 23
4 22 43 30 23
4 72 48 77 34
4 46 53 42 73
4 50 64 53 73
4 70 42 57 73
4 74 66 48 34
4 46 42 66 34
4 47 29 43 23
4 70 77 42 34
4 60 57 64 73
4 79 67 31 75
4 47 31 29 75
4 50 53 67 75
4 46 29 53 75
4 10 78 6 80
4 36 6 1 80
4 15 1 12 80
4 36 4 6 26
4 14 12 78 80
4 2 17 9 26
4 36 18 4 55
4 15 28 1 11
4 62 4 20 55
4 10 6 17 26
4 27 18 44 11
4 62 9 4 26
4 27 69 18 55
4 36 1 18 11
4 41 20 69 55
4 79 44 28 11
4 16 24 54 7
4 19 54 39 7
4 50 39 64 7
4 8 25 61 3
4 60 64 24 7
4 79 28 67 13
4 19 51 61 49
4 8 61 0 49
4 15 51 28 13
4 19 39 51 13
4 50 67 39 13
4 19 61 54 3
4 14 0 12 49
4 5 35 25 3
4 15 12 51 49
4 16 54 35 3
CELL_TYPES 64
8
8
8
8
8
8
8
8
8
8
8
8
8
8
8
8
8
8
8
8
8
8
8
8
8
8
8
8
8
8
8
8
8
8
8
8
8
8
8
8
8
8
8
8
8
8
8
8
8
8
8
8
8
8
8
8
8
8
8
8
8
8
8
8
CELL_DATA 64
VECTORS vector_value float
0.549537 -1.42138 0
-0.422125 -1.18732 0
-0.0977224 -0.964172 0
-0.0640876 -2.46269 0
-0.0473613 -0.562765 0
-0.0604259 -0.306204 0
0.527873 -1.61258 0
0.0690031 -0.469404 0
-0.137392 -2.05846 0
-0.0642483 -0.575554 0
0.156516 -2.2744 0
0.0387551 -2.98697 0
0.0680707 -2.29497 0
0.0684995 -0.87547 0
0.124868 -0.321855 0
0.258323 -0.405465 0
-0.342284 -0.648546 0
-1.11006 -2.38434 0
-0.890548 -1.53056 0
0.319822 -0.539619 0
-0.951382 -1.18872 0
-0.407186 -0.883294 0
0.561235 -0.999772 0
0.0776185 -0.223488 0
-0.0989738 -1.34916 0
-1.30267 -2.15033 0
0.597056 -0.937158 0
0.418277 -1.11587 0
-0.548649 -0.469345 0
-0.653274 -0.327232 0
-0.508456 -0.681404 0
-0.542427 -0.285011 0
0.0398648 -0.385342 0
0.0189669 -0.870546 0
0.205252 -0.755448 0
-0.1545 -0.42939 0
0.0602767 -0.292161 0
-0.0549169 -0.259131 0
-0.208856 -0.642623 0
-0.0918767 -1.10127 0
0.0305469 -0.900205 0
-0.0332477 -0.467083 0
-0.357735 -1.48044 0
-0.132319 -0.506904 0
-0.244434 -0.984057 0
-0.079456 -0.344515 0
0.0121394 -0.694311 0
-0.12123 -1.10692 0
-1.22146 -0.835915 0
-0.126253 -0.694266 0
-0.0879206 -2.84927 0
-0.135838 -0.29056 0
-0.501285 -2.29106 0
-0.084812 -1.50667 0
-0.0457877 -0.438061 0
-0.0194039 -0.163475 0
0.302297 -1.32253 0
0.116286 -1.18119 0
-0.0993041 -2.21797 0
-0.327448 -0.52124 0
0.02731 -0.174391 0
-0.263633 -0.651374 0
0.157984 -0.518942 0
-0.731619 -0.629233 0
