# vtk DataFile Version 2.0
Unstructured Grid by M++
ASCII
DATASET UNSTRUCTURED_GRID
POINTS 81 float
  1.000000   0.625000 0
  0.750000   0.375000 0
  1.000000   0.000000 0
  0.875000   0.875000 0
  0.750000   0.125000 0
  1.000000   1.000000 0
  0.875000   0.250000 0
  0.625000   0.875000 0
  1.000000   0.750000 0
  0.875000   0.000000 0
  1.000000   0.250000 0
  0.625000   0.375000 0
  0.875000   0.500000 0
  0.625000   0.625000 0
  1.000000   0.500000 0
  0.750000   0.500000 0
  0.750000   1.000000 0
  1.000000   0.125000 0
  0.625000   0.250000 0
  0.750000   0.750000 0
  0.625000   0.000000 0
  0.125000   0.375000 0
  0.000000   0.500000 0
  0.125000   0.625000 0
  0.625000   1.000000 0
  1.000000   0.875000 0
  0.875000   0.125000 0
  0.500000   0.250000 0
  0.625000   0.500000 0
  0.250000   0.625000 0
  0.000000   0.625000 0
  0.375000   0.500000 0
  0.375000   0.000000 0
  0.000000   0.125000 0
  0.125000   0.875000 0
  0.875000   1.000000 0
  0.750000   0.250000 0
  0.375000   0.375000 0
  0.250000   0.375000 0
  0.625000   0.750000 0
  0.125000   0.125000 0
  0.500000   0.000000 0
  0.250000   0.875000 0
  0.125000   0.500000 0
  0.500000   0.375000 0
  0.125000   0.000000 0
  0.250000   0.750000 0
  0.250000   0.500000 0
  0.000000   0.875000 0
  0.875000   0.625000 0
  0.500000   0.750000 0
  0.750000   0.625000 0
  0.250000   0.000000 0
  0.375000   0.750000 0
  0.750000   0.875000 0
  0.625000   0.125000 0
  0.250000   0.250000 0
  0.375000   1.000000 0
  0.375000   0.250000 0
  0.000000   0.375000 0
  0.500000   1.000000 0
  0.875000   0.750000 0
  0.750000   0.000000 0
  0.375000   0.125000 0
  0.500000   0.875000 0
  0.000000   0.000000 0
  0.125000   0.750000 0
  0.500000   0.625000 0
  0.125000   0.250000 0
  0.500000   0.125000 0
  0.250000   1.000000 0
  0.250000   0.125000 0
  0.000000   1.000000 0
  0.375000   0.875000 0
  0.000000   0.750000 0
  0.375000   0.625000 0
  0.000000   0.250000 0
  0.125000   1.000000 0
  1.000000   0.375000 0
  0.500000   0.500000 0
  0.875000   0.375000 0
CELLS 64 320
4 56 71 58 63
4 27 58 69 63
4 41 69 32 63
4 76 33 68 40
4 27 44 58 37
4 79 31 44 37
4 56 38 68 21
4 56 58 38 37
4 52 32 71 63
4 47 38 31 37
4 76 68 59 21
4 22 59 43 21
4 65 45 33 40
4 47 43 38 21
4 52 71 45 40
4 56 68 71 40
4 74 30 66 23
4 46 66 29 23
4 22 43 30 23
4 72 48 77 34
4 46 53 42 73
4 50 64 53 73
4 70 42 57 73
4 74 66 48 34
4 46 42 66 34
4 47 29 43 23
4 70 77 42 34
4 60 57 64 73
4 79 67 31 75
4 47 31 29 75
4 50 53 67 75
4 46 29 53 75
4 10 78 6 80
4 36 6 1 80
4 15 1 12 80
4 36 4 6 26
4 14 12 78 80
4 2 17 9 26
4 36 18 4 55
4 15 28 1 11
4 62 4 20 55
4 10 6 17 26
4 27 18 44 11
4 62 9 4 26
4 27 69 18 55
4 36 1 18 11
4 41 20 69 55
4 79 44 28 11
4 16 24 54 7
4 19 54 39 7
4 50 39 64 7
4 8 25 61 3
4 60 64 24 7
4 79 28 67 13
4 19 51 61 49
4 8 61 0 49
4 15 51 28 13
4 19 39 51 13
4 50 67 39 13
4 19 61 54 3
4 14 0 12 49
4 5 35 25 3
4 15 12 51 49
4 16 54 35 3
CELL_TYPES 64
8
8
8
8
8
8
8
8
8
8
8
8
8
8
8
8
8
8
8
8
8
8
8
8
8
8
8
8
8
8
8
8
8
8
8
8
8
8
8
8
8
8
8
8
8
8
8
8
8
8
8
8
8
8
8
8
8
8
8
8
8
8
8
8
CELL_DATA 64
VECTORS vector_value float
-0.110079 -0.474297 0
-0.0790964 -1.26404 0
-0.227748 -0.564102 0
0.153684 -0.490366 0
0.205182 -1.28889 0
0.0567414 -1.16263 0
-0.00867889 -0.874372 0
-0.0354315 -0.829161 0
-0.301468 -1.18518 0
0.117421 -1.31671 0
-0.00862625 -0.871229 0
-0.150031 -0.400639 0
0.0798922 -0.281832 0
-0.362386 -1.32328 0
0.14741 -1.69165 0
0.0553279 -1.55948 0
-0.00333469 -0.534474 0
-0.0182346 -0.225389 0
0.0644927 -0.497279 0
0.257945 -0.636292 0
1.52492 -2.60871 0
0.369635 -0.0893517 0
-0.354849 -0.456261 0
-0.0216219 -0.489855 0
-0.0188043 -0.22959 0
-0.27654 -0.763762 0
0.87882 -1.94908 0
-0.065146 -1.20022 0
-0.204773 -0.714682 0
-0.775291 -1.74736 0
-0.0334604 -1.85524 0
-0.181531 -1.16168 0
-0.41667 -2.06035 0
0.144074 -0.442459 0
0.268464 -0.317485 0
-1.18804 -1.48615 0
0.225909 -1.88085 0
0.0022784 -0.710524 0
-0.265264 -1.17872 0
0.181939 -0.800152 0
-0.313576 -1.6522 0
-0.237938 -0.778438 0
0.222118 -1.16384 0
-0.0385257 -0.69599 0
0.146345 -0.768499 0
0.0789368 -0.469702 0
-0.168735 -1.21853 0
-0.0340577 -0.798264 0
0.243604 -1.50902 0
-0.550716 -0.861751 0
-0.320135 -1.73076 0
-0.128544 -1.18149 0
0.177348 -0.221644 0
-0.0396025 -1.45121 0
0.138207 -0.894143 0
0.0915929 -1.07173 0
0.206543 -0.835652 0
0.0988838 -0.474735 0
0.156571 -1.78261 0
-0.185386 -0.808494 0
0.167699 -1.45952 0
0.151315 -1.33669 0
0.228182 -0.530546 0
0.18512 -0.690788 0
