# vtk DataFile Version 2.0
Unstructured Grid by M++
ASCII
DATASET UNSTRUCTURED_GRID
POINTS 81 float
  1.000000   0.625000 0
  0.750000   0.375000 0
  1.000000   0.000000 0
  0.875000   0.875000 0
  0.750000   0.125000 0
  1.000000   1.000000 0
  0.875000   0.250000 0
  0.625000   0.875000 0
  1.000000   0.750000 0
  0.875000   0.000000 0
  1.000000   0.250000 0
  0.625000   0.375000 0
  0.875000   0.500000 0
  0.625000   0.625000 0
  1.000000   0.500000 0
  0.750000   0.500000 0
  0.750000   1.000000 0
  1.000000   0.125000 0
  0.625000   0.250000 0
  0.750000   0.750000 0
  0.625000   0.000000 0
  0.125000   0.375000 0
  0.000000   0.500000 0
  0.125000   0.625000 0
  0.625000   1.000000 0
  1.000000   0.875000 0
  0.875000   0.125000 0
  0.500000   0.250000 0
  0.625000   0.500000 0
  0.250000   0.625000 0
  0.000000   0.625000 0
  0.375000   0.500000 0
  0.375000   0.000000 0
  0.000000   0.125000 0
  0.125000   0.875000 0
  0.875000   1.000000 0
  0.750000   0.250000 0
  0.375000   0.375000 0
  0.250000   0.375000 0
  0.625000   0.750000 0
  0.125000   0.125000 0
  0.500000   0.000000 0
  0.250000   0.875000 0
  0.125000   0.500000 0
  0.500000   0.375000 0
  0.125000   0.000000 0
  0.250000   0.750000 0
  0.250000   0.500000 0
  0.000000   0.875000 0
  0.875000   0.625000 0
  0.500000   0.750000 0
  0.750000   0.625000 0
  0.250000   0.000000 0
  0.375000   0.750000 0
  0.750000   0.875000 0
  0.625000   0.125000 0
  0.250000   0.250000 0
  0.375000   1.000000 0
  0.375000   0.250000 0
  0.000000   0.375000 0
  0.500000   1.000000 0
  0.875000   0.750000 0
  0.750000   0.000000 0
  0.375000   0.125000 0
  0.500000   0.875000 0
  0.000000   0.000000 0
  0.125000   0.750000 0
  0.500000   0.625000 0
  0.125000   0.250000 0
  0.500000   0.125000 0
  0.250000   1.000000 0
  0.250000   0.125000 0
  0.000000   1.000000 0
  0.375000   0.875000 0
  0.000000   0.750000 0
  0.375000   0.625000 0
  0.000000   0.250000 0
  0.125000   1.000000 0
  1.000000   0.375000 0
  0.500000   0.500000 0
  0.875000   0.375000 0
CELLS 64 320
4 56 71 58 63
4 27 58 69 63
4 41 69 32 63
4 76 33 68 40
4 27 44 58 37
4 79 31 44 37
4 56 38 68 21
4 56 58 38 37
4 52 32 71 63
4 47 38 31 37
4 76 68 59 21
4 22 59 43 21
4 65 45 33 40
4 47 43 38 21
4 52 71 45 40
4 56 68 71 40
4 74 30 66 23
4 46 66 29 23
4 22 43 30 23
4 72 48 77 34
4 46 53 42 73
4 50 64 53 73
4 70 42 57 73
4 74 66 48 34
4 46 42 66 34
4 47 29 43 23
4 70 77 42 34
4 60 57 64 73
4 79 67 31 75
4 47 31 29 75
4 50 53 67 75
4 46 29 53 75
4 10 78 6 80
4 36 6 1 80
4 15 1 12 80
4 36 4 6 26
4 14 12 78 80
4 2 17 9 26
4 36 18 4 55
4 15 28 1 11
4 62 4 20 55
4 10 6 17 26
4 27 18 44 11
4 62 9 4 26
4 27 69 18 55
4 36 1 18 11
4 41 20 69 55
4 79 44 28 11
4 16 24 54 7
4 19 54 39 7
4 50 39 64 7
4 8 25 61 3
4 60 64 24 7
4 79 28 67 13
4 19 51 61 49
4 8 61 0 49
4 15 51 28 13
4 19 39 51 13
4 50 67 39 13
4 19 61 54 3
4 14 0 12 49
4 5 35 25 3
4 15 12 51 49
4 16 54 35 3
CELL_TYPES 64
8
8
8
8
8
8
8
8
8
8
8
8
8
8
8
8
8
8
8
8
8
8
8
8
8
8
8
8
8
8
8
8
8
8
8
8
8
8
8
8
8
8
8
8
8
8
8
8
8
8
8
8
8
8
8
8
8
8
8
8
8
8
8
8
CELL_DATA 64
VECTORS vector_value float
-0.0316239 -0.229371 0
0.0506567 -0.171257 0
0.0292912 -0.0883475 0
-0.114913 -0.3298 0
0.111808 -0.240714 0
1.0836 -0.344279 0
-0.122525 -0.27377 0
-0.0303361 -0.487503 0
-0.060565 -0.0864288 0
0.633128 -0.62713 0
-0.0118023 -0.120903 0
-0.01658 -0.0767501 0
-0.0604084 -0.470544 0
0.266606 -0.671677 0
-0.14346 -0.244273 0
-0.112669 -0.24214 0
0.0942919 -0.394428 0
0.0534789 -0.283989 0
0.121138 -0.142516 0
0.251744 -0.576938 0
0.118361 -3.03806 0
0.0429661 -0.379141 0
0.240431 -2.15749 0
-0.00881027 -0.534059 0
0.122806 -0.145894 0
0.0241085 -0.888226 0
0.795065 -0.658557 0
-0.388275 -0.80398 0
1.38737 -0.320685 0
0.765337 -1.62382 0
0.342045 -0.387858 0
0.0971416 -2.79828 0
-0.624302 -2.06516 0
-1.0109 -1.61439 0
1.14362 -2.09653 0
-0.564772 -1.23961 0
0.66971 -1.68924 0
0.226269 -1.30678 0
-0.728782 -4.55416 0
0.565694 -2.04526 0
-0.193446 -4.77334 0
-0.0176564 -0.909056 0
0.151618 -0.454299 0
0.0397512 -0.369778 0
0.117847 -0.324611 0
-0.100723 -2.74326 0
-0.111657 -0.660512 0
0.923399 -0.449141 0
0.00283409 -1.53857 0
-0.216773 -2.38884 0
0.00558713 -0.42449 0
-0.00472949 -0.890838 0
0.173453 -0.333344 0
1.83285 -0.490556 0
0.113469 -0.854425 0
-0.0766723 -0.646293 0
2.09038 -2.57438 0
0.111802 -1.68095 0
0.168448 -0.953777 0
-0.00232001 -0.198679 0
0.118781 -0.731918 0
-0.100299 -0.675602 0
0.780174 -1.22789 0
-0.500734 -1.25551 0
