# vtk DataFile Version 2.0
Unstructured Grid by M++
ASCII
DATASET UNSTRUCTURED_GRID
POINTS 1089 float
  0.718750   0.687500 0
  0.750000   0.687500 0
  0.718750   0.656250 0
  0.750000   0.718750 0
  0.625000   0.562500 0
  0.625000   0.593750 0
  0.656250   0.593750 0
  0.750000   0.750000 0
  0.687500   0.656250 0
  0.687500   0.625000 0
  0.656250   0.625000 0
  0.906250   0.593750 0
  1.000000   0.968750 0
  0.750000   0.968750 0
  0.718750   0.968750 0
  0.718750   1.000000 0
  0.750000   1.000000 0
  0.906250   0.906250 0
  0.843750   0.531250 0
  0.656250   0.937500 0
  0.656250   0.906250 0
  0.562500   0.812500 0
  0.562500   0.843750 0
  0.593750   0.875000 0
  0.593750   0.843750 0
  0.812500   0.718750 0
  0.625000   0.625000 0
  0.968750   0.875000 0
  0.531250   0.875000 0
  0.625000   0.937500 0
  0.562500   0.562500 0
  0.906250   0.812500 0
  0.531250   0.781250 0
  0.562500   0.593750 0
  0.906250   0.843750 0
  0.625000   0.656250 0
  0.968750   0.906250 0
  0.687500   0.968750 0
  0.812500   0.812500 0
  0.687500   1.000000 0
  0.687500   0.687500 0
  0.937500   0.843750 0
  0.593750   0.593750 0
  1.000000   0.625000 0
  0.968750   0.593750 0
  0.906250   0.875000 0
  0.968750   0.625000 0
  0.625000   0.875000 0
  0.875000   0.875000 0
  0.625000   0.906250 0
  0.875000   0.843750 0
  0.531250   0.812500 0
  0.968750   0.562500 0
  0.593750   0.625000 0
  0.937500   0.875000 0
  0.656250   0.687500 0
  1.000000   0.937500 0
  0.875000   0.562500 0
  0.687500   0.937500 0
  0.937500   0.625000 0
  0.812500   0.781250 0
  0.937500   0.562500 0
  0.875000   0.781250 0
  0.531250   0.531250 0
  0.718750   0.937500 0
  0.968750   0.937500 0
  0.906250   0.562500 0
  0.843750   0.781250 0
  0.593750   0.562500 0
  1.000000   0.906250 0
  0.656250   0.656250 0
  0.937500   0.906250 0
  0.875000   0.531250 0
  0.812500   0.750000 0
  0.656250   0.968750 0
  0.937500   0.531250 0
  0.843750   0.812500 0
  0.906250   0.531250 0
  0.843750   0.750000 0
  0.937500   0.593750 0
  0.875000   0.812500 0
  0.531250   0.562500 0
  1.000000   0.593750 0
  0.562500   0.906250 0
  0.562500   0.531250 0
  0.593750   0.906250 0
  0.593750   0.937500 0
  0.562500   0.875000 0
  0.781250   0.750000 0
  0.781250   0.781250 0
  0.593750   0.531250 0
  1.000000   0.687500 0
  0.531250   0.843750 0
  0.718750   0.718750 0
  0.781250   0.718750 0
  0.781250   0.687500 0
  1.000000   0.656250 0
  0.968750   0.656250 0
  0.843750   0.843750 0
  0.781250   1.000000 0
  0.656250   0.312500 0
  0.531250   0.250000 0
  0.875000   0.500000 0
  0.531250   0.218750 0
  0.875000   0.468750 0
  0.531250   0.156250 0
  0.593750   0.812500 0
  0.093750   0.562500 0
  0.656250   0.562500 0
  0.156250   0.312500 0
  0.031250   0.812500 0
  0.125000   1.000000 0
  0.312500   0.250000 0
  0.250000   0.500000 0
  0.375000   0.000000 0
  0.187500   0.750000 0
  0.812500   0.906250 0
  0.312500   0.656250 0
  0.250000   0.906250 0
  0.875000   0.656250 0
  0.375000   0.406250 0
  0.750000   0.843750 0
  0.250000   0.593750 0
  0.187500   0.843750 0
  0.812500   0.593750 0
  0.312500   0.343750 0
  0.625000   0.968750 0
  0.125000   0.718750 0
  0.687500   0.718750 0
  0.187500   0.468750 0
  0.062500   0.968750 0
  0.125000   0.656250 0
  0.187500   0.406250 0
  0.250000   0.156250 0
  0.062500   0.906250 0
  0.468750   0.906250 0
  0.656250   0.156250 0
  0.468750   0.812500 0
  0.593750   0.312500 0
  0.656250   0.062500 0
  0.625000   0.812500 0
  0.125000   0.562500 0
  0.687500   0.562500 0
  0.187500   0.312500 0
  0.062500   0.812500 0
  0.562500   0.937500 0
  0.062500   0.687500 0
  0.625000   0.687500 0
  0.125000   0.437500 0
  0.000000   0.937500 0
  0.062500   0.625000 0
  0.187500   0.125000 0
  0.125000   0.375000 0
  0.000000   0.875000 0
  0.406250   0.875000 0
  0.468750   0.625000 0
  0.593750   0.125000 0
  0.812500   0.937500 0
  0.312500   0.687500 0
  0.250000   0.937500 0
  0.875000   0.687500 0
  0.375000   0.437500 0
  0.750000   0.875000 0
  0.250000   0.625000 0
  0.187500   0.875000 0
  0.812500   0.625000 0
  0.312500   0.375000 0
  0.468750   0.781250 0
  0.593750   0.281250 0
  0.656250   0.031250 0
  0.625000   0.781250 0
  0.125000   0.531250 0
  0.062500   0.781250 0
  0.687500   0.531250 0
  0.187500   0.281250 0
  0.500000   0.812500 0
  0.687500   0.062500 0
  0.625000   0.312500 0
  0.656250   0.812500 0
  0.156250   0.562500 0
  0.718750   0.562500 0
  0.218750   0.312500 0
  0.093750   0.812500 0
  0.437500   0.968750 0
  0.625000   0.218750 0
  0.500000   0.781250 0
  0.687500   0.031250 0
  0.625000   0.281250 0
  0.656250   0.781250 0
  0.156250   0.531250 0
  0.718750   0.531250 0
  0.218750   0.281250 0
  0.093750   0.781250 0
  0.062500   0.562500 0
  0.125000   0.312500 0
  0.187500   0.062500 0
  0.000000   0.812500 0
  0.406250   0.812500 0
  0.968750   0.812500 0
  0.468750   0.562500 0
  0.593750   0.062500 0
  0.218750   0.687500 0
  0.156250   0.937500 0
  0.281250   0.437500 0
  0.062500   0.843750 0
  0.687500   0.593750 0
  0.187500   0.343750 0
  0.625000   0.843750 0
  0.125000   0.593750 0
  0.312500   0.843750 0
  0.437500   0.343750 0
  0.500000   0.093750 0
  0.375000   0.593750 0
  0.312500   0.906250 0
  0.937500   0.656250 0
  0.437500   0.406250 0
  0.875000   0.906250 0
  0.375000   0.656250 0
  0.062500   0.875000 0
  0.187500   0.375000 0
  0.250000   0.125000 0
  0.125000   0.625000 0
  0.093750   0.656250 0
  0.031250   0.906250 0
  0.218750   0.156250 0
  0.156250   0.406250 0
  0.593750   0.968750 0
  0.093750   0.718750 0
  0.031250   0.968750 0
  0.656250   0.718750 0
  0.156250   0.468750 0
  0.437500   0.906250 0
  0.625000   0.156250 0
  0.718750   0.812500 0
  0.218750   0.562500 0
  0.781250   0.562500 0
  0.281250   0.312500 0
  0.156250   0.812500 0
  0.062500   0.656250 0
  0.000000   0.906250 0
  0.187500   0.156250 0
  0.125000   0.406250 0
  0.562500   0.968750 0
  0.062500   0.718750 0
  0.000000   0.968750 0
  0.625000   0.718750 0
  0.125000   0.468750 0
  0.406250   0.968750 0
  0.968750   0.968750 0
  0.468750   0.718750 0
  0.531250   0.468750 0
  0.593750   0.218750 0
  0.406250   0.906250 0
  0.468750   0.656250 0
  0.593750   0.156250 0
  0.687500   0.781250 0
  0.187500   0.531250 0
  0.750000   0.531250 0
  0.250000   0.281250 0
  0.125000   0.781250 0
  0.781250   0.906250 0
  0.281250   0.656250 0
  0.218750   0.906250 0
  0.843750   0.656250 0
  0.343750   0.406250 0
  0.750000   0.906250 0
  0.250000   0.656250 0
  0.187500   0.906250 0
  0.812500   0.656250 0
  0.312500   0.406250 0
  0.875000   0.406250 0
  0.375000   0.156250 0
  0.812500   0.968750 0
  0.312500   0.718750 0
  0.250000   0.968750 0
  0.875000   0.718750 0
  0.375000   0.468750 0
  0.781250   0.937500 0
  0.281250   0.687500 0
  0.218750   0.937500 0
  0.843750   0.687500 0
  0.343750   0.437500 0
  0.718750   0.875000 0
  0.218750   0.625000 0
  0.156250   0.875000 0
  0.781250   0.625000 0
  0.281250   0.375000 0
  0.750000   0.937500 0
  0.250000   0.687500 0
  0.187500   0.937500 0
  0.875000   0.437500 0
  0.375000   0.187500 0
  0.812500   0.687500 0
  0.312500   0.437500 0
  0.687500   0.875000 0
  0.187500   0.625000 0
  0.750000   0.625000 0
  0.250000   0.375000 0
  0.125000   0.875000 0
  0.812500   1.000000 0
  0.312500   0.750000 0
  0.250000   1.000000 0
  0.875000   0.750000 0
  0.375000   0.500000 0
  0.562500   1.000000 0
  0.062500   0.750000 0
  0.000000   1.000000 0
  0.625000   0.750000 0
  0.125000   0.500000 0
  0.406250   1.000000 0
  0.968750   1.000000 0
  0.468750   0.750000 0
  0.656250   0.000000 0
  0.531250   0.500000 0
  0.593750   0.250000 0
  0.406250   0.937500 0
  0.468750   0.687500 0
  0.593750   0.187500 0
  0.687500   0.812500 0
  0.187500   0.562500 0
  0.750000   0.562500 0
  0.250000   0.312500 0
  0.125000   0.812500 0
  0.437500   0.843750 0
  0.625000   0.093750 0
  0.093750   0.593750 0
  0.156250   0.343750 0
  0.218750   0.093750 0
  0.031250   0.843750 0
  0.281250   0.937500 0
  0.843750   0.937500 0
  0.343750   0.687500 0
  0.906250   0.687500 0
  0.406250   0.437500 0
  0.156250   0.968750 0
  0.218750   0.718750 0
  0.281250   0.468750 0
  0.343750   0.218750 0
  0.156250   1.000000 0
  0.406250   0.000000 0
  0.281250   0.500000 0
  0.343750   0.250000 0
  0.218750   0.750000 0
  0.187500   0.968750 0
  0.250000   0.718750 0
  0.375000   0.218750 0
  0.312500   0.468750 0
  0.187500   1.000000 0
  0.312500   0.500000 0
  0.375000   0.250000 0
  0.437500   0.000000 0
  0.250000   0.750000 0
  0.031250   0.781250 0
  0.656250   0.531250 0
  0.156250   0.281250 0
  0.593750   0.781250 0
  0.093750   0.531250 0
  0.000000   0.781250 0
  0.625000   0.531250 0
  0.125000   0.281250 0
  0.562500   0.781250 0
  0.062500   0.531250 0
  0.781250   0.968750 0
  0.281250   0.718750 0
  0.218750   0.968750 0
  0.843750   0.718750 0
  0.343750   0.468750 0
  0.281250   0.968750 0
  0.843750   0.968750 0
  0.343750   0.718750 0
  0.906250   0.718750 0
  0.406250   0.468750 0
  0.281250   1.000000 0
  0.906250   0.750000 0
  0.406250   0.500000 0
  0.843750   1.000000 0
  0.343750   0.750000 0
  0.531250   0.000000 0
  0.718750   0.843750 0
  0.218750   0.593750 0
  0.156250   0.843750 0
  0.781250   0.593750 0
  0.281250   0.343750 0
  0.687500   0.843750 0
  0.187500   0.593750 0
  0.750000   0.593750 0
  0.250000   0.343750 0
  0.125000   0.843750 0
  0.218750   0.875000 0
  0.843750   0.625000 0
  0.343750   0.375000 0
  0.781250   0.875000 0
  0.281250   0.625000 0
  0.156250   0.906250 0
  0.781250   0.656250 0
  0.281250   0.406250 0
  0.718750   0.906250 0
  0.218750   0.656250 0
  0.031250   1.000000 0
  0.656250   0.750000 0
  0.156250   0.500000 0
  0.593750   1.000000 0
  0.093750   0.750000 0
  0.218750   1.000000 0
  0.343750   0.500000 0
  0.468750   0.000000 0
  0.406250   0.250000 0
  0.281250   0.750000 0
  0.593750   0.406250 0
  0.093750   0.156250 0
  0.531250   0.656250 0
  0.031250   0.406250 0
[...]
CELL_DATA 1024
VECTORS vector_value float
-1.35465 -2.0338 0
-0.445853 -1.25306 0
-1.07648 -1.10475 0
-1.9274 -2.6765 0
-0.788252 -1.65611 0
-1.45702 -2.98665 0
0.371063 -1.31371 0
0.284492 -1.66144 0
0.351627 -1.75531 0
0.261426 -1.50761 0
0.172071 -1.68102 0
0.168979 -1.43669 0
0.106756 -0.864545 0
0.407702 -1.73706 0
0.272868 -1.55867 0
0.225222 -1.45026 0
0.144384 -1.14825 0
0.0596133 -0.719541 0
0.3697 -1.76328 0
0.367947 -1.73331 0
0.427193 -1.78515 0
0.298041 -1.88568 0
0.472549 -1.39819 0
0.380217 -1.53122 0
-0.364333 -0.444891 0
-0.811205 -0.574734 0
-0.633751 -0.525954 0
-0.211482 -0.319084 0
-3.21012 -3.91275 0
-0.00945755 -0.94539 0
-0.0717464 -1.95651 0
-0.18445 -2.16398 0
-0.0479922 -1.63503 0
-0.00766576 -1.6451 0
-0.00801753 -1.95377 0
0.103929 -1.97134 0
0.314975 -1.62104 0
0.299833 -1.74559 0
0.150442 -1.8567 0
-0.367391 -0.303247 0
0.025368 -0.194457 0
0.0458731 -0.157145 0
-0.247457 -1.35438 0
0.0569997 -0.257418 0
0.069259 -0.0981111 0
-0.0657538 -1.64801 0
-0.084776 -0.288181 0
0.0615992 -0.136946 0
-0.179709 -2.04957 0
-0.116292 -0.822687 0
0.0707203 -0.15004 0
-0.536669 -0.759453 0
-0.407342 -1.67346 0
-0.354082 -0.572459 0
-0.946475 -2.35183 0
-0.873709 -1.01698 0
-0.39301 -1.19928 0
0.0569439 -0.288625 0
0.0958245 -0.328676 0
-0.834094 -2.27025 0
0.287218 -1.0178 0
0.253154 -1.31047 0
-0.83836 -0.818706 0
-3.37701 -1.36811 0
0.383819 -1.39991 0
-1.24745 -2.40884 0
-0.859405 -3.04444 0
0.50002 -1.29601 0
0.0262158 -0.118249 0
-0.0966374 -1.84477 0
-0.00487209 -0.0800498 0
0.00183653 -0.0760932 0
-0.216928 -2.15369 0
-0.976046 -2.19922 0
-0.844513 -2.62401 0
-1.39008 -3.37469 0
-0.0919172 -1.08863 0
-0.00716512 -0.554563 0
-2.0997 -2.7981 0
-0.381676 -2.36825 0
-0.751115 -2.83286 0
-0.213735 -3.85797 0
-2.10674 -1.37788 0
-1.33911 -1.7106 0
-1.50073 -0.95887 0
-3.16705 -1.85244 0
-1.75868 -2.90741 0
-0.93742 -2.50104 0
0.212564 -4.28492 0
-0.0136526 -0.206173 0
0.00339453 -0.203964 0
-0.0199663 -3.14572 0
-0.82958 -1.80399 0
-2.3281 -2.47402 0
-2.1483 -1.52807 0
-1.42924 -2.04658 0
-0.278273 -1.76548 0
-0.840546 -2.27595 0
-1.59252 -1.51868 0
-1.28509 -2.39657 0
-1.99971 -1.84125 0
0.0852716 -2.75189 0
0.26338 -0.724662 0
-1.00462 -2.34172 0
-1.17657 -3.1046 0
-1.88646 -4.01275 0
-0.227161 -1.99199 0
-0.0180907 -0.0830558 0
-0.00320764 -0.074701 0
-0.462159 -2.22298 0
-1.45487 -2.03227 0
-0.804135 -2.36904 0
-0.0497746 -0.980817 0
-1.57432 -2.48524 0
0.000460365 -2.07232 0
-0.00910836 -0.533677 0
-3.76125 -3.11059 0
-0.669199 -2.35664 0
-0.0721059 -0.213736 0
0.0931578 -2.70498 0
0.00750087 -0.0828713 0
0.0506628 -1.59822 0
0.0293593 -0.629219 0
-0.0656635 -0.472065 0
-0.627176 -3.68145 0
0.123237 -4.04036 0
-2.29708 -3.33245 0
-0.0627823 -0.384453 0
-1.36997 -2.45684 0
-1.10732 -2.74395 0
-1.44319 -3.39914 0
-0.159953 -1.73383 0
-0.0762447 -0.212297 0
0.137525 -2.95146 0
0.0281522 -0.254886 0
-1.69241 -2.69761 0
-1.95582 -2.57791 0
-0.521244 -2.12038 0
-1.04871 -2.03839 0
-3.69301 -2.73552 0
0.0114083 -0.520774 0
-0.376636 -2.19642 0
0.0669704 -2.13875 0
-0.0730756 -0.274442 0
-0.0288243 -0.7345 0
-1.20399 -2.31831 0
-1.10123 -2.40352 0
-0.385286 -2.23118 0
0.273708 -2.89901 0
0.00509606 -0.0884064 0
-0.037966 -3.79592 0
0.203507 -3.82662 0
-1.59728 -2.52248 0
-0.335123 -0.655068 0
0.457726 -1.58623 0
0.309863 -1.67374 0
0.0177682 -0.592895 0
-0.26234 -0.695985 0
-0.168645 -0.31821 0
0.331538 -3.34822 0
-0.00440889 -0.206975 0
0.0181197 -0.209659 0
-0.763221 -1.66246 0
-1.88964 -2.34158 0
0.0278166 -0.591213 0
-0.543163 -1.9736 0
-0.0628694 -2.6242 0
0.0247747 -0.219227 0
0.0702225 -0.571666 0
-0.0187135 -0.153399 0
-0.11368 -0.123629 0
-1.62445 -1.61502 0
-2.38328 -0.918495 0
-1.83601 -1.66418 0
-2.85648 -0.838322 0
-2.6138 -1.32201 0
-1.38747 -0.586969 0
-1.402 -0.72113 0
-0.466331 -2.93057 0
-0.0843647 -1.0384 0
0.0114071 -0.888231 0
-1.06763 -0.921194 0
0.135182 -3.6337 0
0.00571652 -0.635662 0
0.0428764 -0.65313 0
0.0999044 -4.43155 0
-0.0450521 -0.650861 0
0.0366137 -0.654902 0
0.275673 -4.18017 0
0.0141248 -0.962675 0
-1.49348 -2.82133 0
-0.13483 -2.7832 0
-1.5736 -3.15396 0
0.11134 -0.472481 0
-0.00811793 -0.163668 0
-0.174732 -2.11275 0
-1.39022 -2.49467 0
-0.927443 -2.84912 0
-2.0756 -3.30365 0
-0.000349052 -0.254518 0
-0.315994 -3.24923 0
-2.03955 -3.82767 0
-1.3167 -2.80258 0
-1.54992 -3.06151 0
-0.394806 -3.16428 0
0.200699 -1.14864 0
-0.339547 -1.08649 0
0.351809 -1.08498 0
0.00393783 -0.757983 0
0.0783482 -0.917786 0
-0.757034 -1.71673 0
0.403049 -1.16161 0
0.205209 -0.841533 0
0.170367 -1.7827 0
-1.31193 -2.45683 0
0.314789 -1.80627 0
-0.910287 -1.91754 0
0.193419 -0.565748 0
0.022743 -0.472846 0
-0.50459 -1.94239 0
0.0952504 -0.505543 0
-2.39963 -2.9629 0
0.215283 -2.75934 0
0.0468682 -2.70469 0
-0.638598 -2.26987 0
-0.144295 -1.621 0
-0.0460852 -1.02432 0
0.108157 -1.07259 0
-3.95209 -4.46754 0
-0.641677 -1.91761 0
0.203087 -2.14737 0
0.00639986 -1.73715 0
-3.24362 -4.10478 0
-0.0306984 -1.46805 0
0.100434 -1.98901 0
0.00835445 -1.99333 0
-3.21511 -4.92591 0
0.104898 -1.33087 0
-1.29871 -1.72021 0
0.254637 -3.77968 0
-2.50551 -4.01046 0
0.055215 -1.21462 0
-1.0727 -2.92705 0
-0.098006 -3.02299 0
-2.36413 -4.16679 0
0.157425 -2.71945 0
-0.0136862 -0.600399 0
-0.538187 -1.28052 0
-0.000437978 -0.560741 0
-0.40196 -0.937619 0
-0.187489 -0.409688 0
-0.289588 -0.560572 0
0.00678955 -2.69207 0
-0.188185 -2.21718 0
-0.285114 -2.30765 0
-0.202648 -2.12566 0
0.0846328 -0.880959 0
0.0119268 -0.692571 0
-1.28219 -1.74466 0
-1.11976 -1.27545 0
-0.90063 -1.17634 0
-1.33734 -1.38191 0
0.102655 -0.203105 0
0.320061 -0.415071 0
0.0982989 -0.380622 0
-1.11915 -1.23295 0
-1.5694 -1.38546 0
-1.32375 -1.50358 0
-0.769935 -1.06563 0
0.0586065 -0.565015 0
0.0435973 -0.559305 0
-1.43596 -1.1016 0
-1.49795 -0.995806 0
-1.31635 -0.9954 0
-1.41231 -1.12517 0
0.0227624 -0.433752 0
-0.449269 -0.931807 0
0.0142379 -0.799773 0
-0.0257402 -0.909477 0
-0.557342 -0.973657 0
0.228173 -0.395922 0
0.11951 -0.422817 0
-0.486549 -0.652832 0
-1.49404 -0.857292 0
0.524907 -2.67439 0
0.345632 -0.603254 0
0.81486 -0.843421 0
0.491606 -0.375679 0
0.394299 -0.79551 0
0.691896 -0.756169 0
0.565324 -0.980956 0
0.624809 -0.736909 0
0.651113 -0.707539 0
0.460921 -0.762754 0
-0.472517 -1.12208 0
0.802773 -0.487126 0
-0.689934 -1.12641 0
0.404887 -0.278952 0
-0.62029 -1.96459 0
0.206041 -2.92827 0
-0.686176 -1.44421 0
0.119441 -0.542866 0
0.367527 -2.9327 0
-0.0781931 -2.03295 0
0.302535 -0.651657 0
0.265863 -2.3488 0
-1.35089 -1.3602 0
-0.0993021 -3.0516 0
0.224539 -0.349704 0
-0.05639 -1.54371 0
-1.29948 -1.80074 0
0.130166 -0.11546 0
-0.0652884 -2.92948 0
-1.07041 -1.41294 0
0.15366 -0.467493 0
-0.070657 -1.85639 0
0.636356 -0.394342 0
0.167294 -0.137123 0
-1.51561 -1.40199 0
0.0879633 -0.1125 0
0.295524 -0.218575 0
-1.36337 -2.27116 0
-0.445006 -2.93421 0
0.0749897 -0.156287 0
0.148959 -0.378856 0
-0.0512156 -1.42244 0
0.0891119 -0.10617 0
0.216378 -0.164058 0
-0.167122 -1.23468 0
-0.162526 -1.73218 0
0.387892 -1.00479 0
0.121742 -0.343151 0
-0.349801 -0.989241 0
-0.689089 -1.77279 0
0.11491 -1.33956 0
0.168149 -0.202181 0
0.13903 -0.777746 0
0.124931 -0.833019 0
-0.229163 -2.66343 0
0.129666 -0.396903 0
0.293305 -0.355592 0
0.253201 -0.756004 0
0.117347 -0.8213 0
-0.199683 -2.79283 0
0.155611 -0.431841 0
0.426014 -0.38592 0
0.323328 -0.400067 0
-0.127383 -1.8748 0
0.148244 -0.439342 0
-0.156434 -1.53256 0
0.0925242 -0.351969 0
-0.0717948 -1.34102 0
0.249336 -0.576628 0
0.641937 -2.97769 0
0.464083 -0.788949 0
-0.533761 -1.84652 0
-0.396097 -1.2253 0
-0.982122 -2.66862 0
0.117018 -0.186762 0
0.166772 -1.87919 0
-1.80309 -0.911362 0
-0.0544648 -0.812822 0
0.221907 -0.384074 0
0.0368629 -0.146711 0
0.281894 -0.47193 0
0.875001 -0.587285 0
-0.0747982 -1.09642 0
0.0269883 -0.121174 0
-0.724752 -0.933223 0
0.122589 -0.597291 0
-0.267478 -0.746987 0
-0.644788 -1.02864 0
-0.248466 -1.66684 0
0.0775111 -0.266935 0
-0.0651875 -1.21289 0
-0.115054 -1.47047 0
-0.288984 -2.13769 0
0.0898179 -0.301865 0
-1.95702 -1.02155 0
-1.40248 -1.6532 0
-0.376977 -0.97588 0
-0.327645 -0.322063 0
-1.18736 -0.759118 0
0.73473 -2.35773 0
0.41933 -2.28877 0
0.11648 -1.59139 0
-0.248387 -0.745081 0
-0.932145 -0.747762 0
-0.377679 -0.652166 0
-1.00362 -0.89467 0
-0.80359 -1.82272 0
-0.19054 -2.6896 0
0.0703391 -0.302202 0
-0.154592 -1.96928 0
0.216132 -0.479464 0
0.485367 -0.412497 0
-0.0755778 -0.240738 0
0.607533 -2.25779 0
0.0272436 -2.13837 0
0.432361 -1.07292 0
0.270958 -0.252484 0
0.824705 -0.64766 0
0.0987615 -0.480504 0
-0.0018065 -1.77304 0
0.221167 -1.91905 0
0.649141 -0.833244 0
0.19957 -0.443855 0
0.741773 -0.651691 0
0.66206 -0.485821 0
0.0843318 -0.450344 0
-0.0218229 -1.32865 0
0.00630527 -1.33531 0
0.563091 -0.548121 0
0.079301 -0.202896 0
0.353328 -0.5735 0
0.440521 -0.535536 0
0.180819 -0.45329 0
0.528901 -0.708282 0
0.406064 -0.500952 0
0.386809 -0.578456 0
0.50821 -0.735339 0
0.131686 -0.833746 0
-0.409072 -0.768541 0
0.452817 -1.57073 0
0.188149 -0.937159 0
-0.263353 -0.412827 0
0.729753 -0.532859 0
0.834453 -0.678901 0
0.237088 -0.24287 0
0.677297 -0.412963 0
-1.19514 -1.12006 0
1.05098 -0.597681 0
0.438465 -0.339836 0
0.147655 -0.358202 0
-0.163393 -2.52021 0
0.994866 -0.670123 0
0.569552 -0.52966 0
0.468105 -0.471443 0
0.835859 -0.599182 0
0.390844 -0.898348 0
0.456226 -0.517536 0
0.614398 -0.635723 0
0.470848 -0.877233 0
0.280614 -0.515254 0
0.551791 -0.525824 0
-0.0898531 -0.911648 0
0.372398 -1.02434 0
-0.0157148 -1.04253 0
0.0118789 -0.107472 0
0.148275 -0.947366 0
-0.353869 -0.99719 0
-0.141826 -2.06401 0
0.0149767 -0.112832 0
-0.353253 -0.973884 0
-0.126023 -1.8295 0
0.0752261 -0.17612 0
0.2592 -0.998632 0
-0.0504317 -1.11297 0
-0.0495277 -1.15454 0
0.0252697 -0.105639 0
-0.0370375 -0.713107 0
-0.626375 -0.890753 0
0.0102501 -0.504222 0
-0.499191 -0.631549 0
-0.212209 -0.562607 0
-0.690103 -0.750108 0
-0.950622 -1.07551 0
-1.14176 -0.965025 0
0.0612511 -0.2977 0
-0.108931 -2.38415 0
0.0208478 -0.58038 0
0.00451123 -1.34119 0
0.0587767 -1.39622 0
-0.527871 -0.771268 0
-0.116697 -0.519325 0
-0.564382 -0.77811 0
0.872595 -0.684475 0
0.555766 -0.440017 0
0.432095 -0.989061 0
0.164938 -1.18864 0
0.254859 -0.75326 0
0.27777 -0.594747 0
-0.555362 -0.41511 0
0.395765 -1.52263 0
-0.838658 -0.78716 0
0.191937 -1.37943 0
0.295398 -2.06929 0
-0.862577 -0.52985 0
0.618473 -2.2418 0
0.00672077 -0.838054 0
-0.256026 -1.38974 0
0.208904 -1.15693 0
0.344714 -0.739504 0
0.146277 -1.5457 0
-0.0092471 -0.127052 0
0.267449 -1.19241 0
0.505972 -1.67986 0
-0.084851 -0.211587 0
0.584782 -1.82676 0
0.481312 -2.02536 0
-0.201572 -0.218811 0
0.622291 -2.05061 0
-0.0457742 -2.01363 0
-0.0542039 -0.147566 0
-0.118861 -0.509564 0
-0.978009 -0.722677 0
0.425237 -2.28926 0
0.0454018 -1.83624 0
-1.79726 -1.10461 0
-1.25948 -1.20582 0
-1.173 -0.985622 0
-1.95709 -1.05573 0
-0.0316292 -0.0861302 0
0.00202185 -0.0085057 0
0.00403844 -0.00957932 0
0.00327059 -0.0121634 0
0.00176703 -0.0147763 0
-0.132757 -0.0675092 0
-0.414623 -0.140379 0
-0.322324 -0.0910737 0
-1.67524 -2.53699 0
-0.644873 -0.721629 0
-0.297119 -0.371648 0
-0.194651 -0.371654 0
-0.197047 -0.200739 0
-0.409857 -0.325019 0
0.00578865 -0.0278002 0
0.00411077 -0.0169378 0
0.00187753 -0.017474 0
0.00183691 -0.0282467 0
0.00376874 -0.214866 0
0.00401218 -0.0102823 0
0.00327683 -0.00990562 0
-0.0171168 -0.0945683 0
-0.0232798 -0.0812496 0
-0.0403403 -0.108641 0
-0.0302755 -0.134232 0
-0.681223 -0.166794 0
-0.888156 -0.312148 0
-1.61921 -0.60686 0
-1.3637 -0.325539 0
-0.769742 -0.814335 0
-1.20516 -1.12978 0
-0.00589217 -0.0619607 0
-0.00133792 -0.0403029 0
-0.431049 -0.386599 0
0.0220851 -0.0977475 0
-0.227532 -0.315461 0
-0.28418 -0.245495 0
-0.000628306 -0.1226 0
-0.361599 -0.463804 0
-0.649898 -0.422892 0
-0.227206 -0.257273 0
-0.497963 -0.222662 0
-0.120836 -0.158943 0
-0.191651 -0.134655 0
0.00150922 -0.0110739 0
-0.0110507 -0.124023 0
0.0312876 -0.160437 0
-0.0122619 -0.067531 0
-0.00257928 -0.0519786 0
-0.0235444 -0.0724459 0
-0.000450142 -0.0658094 0
-0.908633 -0.670179 0
-0.0199018 -0.0789853 0
-0.00627108 -0.052629 0
-2.1757 -0.797057 0
0.00565018 -0.0198165 0
0.109089 -0.319619 0
0.0292067 -0.238992 0
0.051448 -0.222391 0
-0.00999911 -0.404603 0
-0.774225 -1.11661 0
0.00192945 -0.0137662 0
0.0386667 -0.235479 0
0.0786237 -0.257486 0
-0.0151697 -0.437287 0
-1.23622 -1.7346 0
0.000232662 -0.0236879 0
-1.75286 -0.836622 0
0.0131445 -0.135348 0
0.045139 -0.182776 0
-0.0356325 -0.147927 0
-0.386939 -0.322999 0
-0.015602 -0.305643 0
-1.55299 -2.11796 0
0.000397389 -0.0141437 0
-0.164968 -0.21773 0
-0.911482 -0.551609 0
-0.0400957 -0.294604 0
-1.53347 -3.17985 0
-1.84065 -2.9511 0
0.001808 -0.0136222 0
-1.63996 -1.32177 0
0.0871425 -0.286545 0
0.00068135 -0.0203097 0
0.0775064 -0.311516 0
0.00152616 -0.0202347 0
-2.00987 -0.761572 0
-0.00987268 -0.071243 0
0.00217365 -0.0515381 0
-0.0107622 -0.0674081 0
0.00941346 -0.082319 0
0.00674409 -0.0411785 0
0.0268845 -0.0680904 0
-0.055786 -0.0714702 0
-0.0647734 -0.353754 0
-2.16489 -2.84311 0
-2.0829 -3.51061 0
0.00316282 -0.0135527 0
0.00795513 -0.0392943 0
-2.23618 -1.45509 0
0.0420355 -0.136183 0
0.00050919 -0.0309935 0
0.0114356 -0.0462396 0
-0.0259092 -0.31464 0
0.00250291 -0.023975 0
-0.0322346 -0.0493222 0
0.0703011 -0.295881 0
0.00561586 -0.0257709 0
-0.0643156 -0.0716606 0
-0.0305699 -0.415787 0
0.0035573 -0.0127729 0
0.00269847 -0.037746 0
0.0287198 -0.105964 0
-0.0101181 -0.491302 0
0.00379759 -0.0203294 0
-0.119215 -0.0514652 0
-0.00835311 -0.0306469 0
0.0422017 -0.189345 0
-0.00754378 -0.0386479 0
-0.00116144 -0.0338151 0
0.00275252 -0.0449153 0
0.0023243 -0.0143329 0
0.110327 -0.293618 0
0.0321937 -0.0825829 0
-0.321646 -0.389892 0
-0.148875 -0.195333 0
-0.127723 -0.136875 0
-0.0039197 -0.0182159 0
-0.0277271 -0.0392997 0
0.00105064 -0.0399429 0
0.0403843 -0.115825 0
0.00385432 -0.0105034 0
0.0231902 -0.159251 0
-0.0142984 -0.466256 0
-2.35615 -2.60877 0
-1.66246 -2.25143 0
-0.168325 -0.322415 0
-0.0858354 -0.10155 0
-0.00602527 -0.029398 0
0.0502448 -0.190125 0
0.000530379 -0.0169083 0
-0.0101119 -0.0850954 0
0.0668513 -0.219205 0
-0.000275604 -0.0200015 0
0.000833397 -0.0615532 0
-0.0181763 -0.080976 0
0.0415243 -0.121594 0
0.00168219 -0.0351906 0
0.00478345 -0.0372184 0
-0.00804611 -0.0527278 0
-0.885044 -1.2886 0
0.00865776 -0.0849171 0
-0.433219 -0.64129 0
-0.0137734 -0.0248114 0
-0.000232095 -0.0151395 0
0.0696479 -0.242213 0
0.00486949 -0.0173147 0
0.0860244 -0.283242 0
0.0054362 -0.0273584 0
0.101259 -0.290768 0
0.00360956 -0.0204814 0
0.0749663 -0.27873 0
0.00653869 -0.020646 0
-1.58917 -0.722438 0
-1.17198 -0.458582 0
-2.12542 -0.872529 0
-0.00100164 -0.0258611 0
-0.0266408 -0.0438187 0
-0.00383741 -0.0255462 0
-0.0360863 -0.0385979 0
-0.00681332 -0.0224689 0
-0.0160265 -0.0288827 0
-0.00105742 -0.0190603 0
-0.0799986 -0.2902 0
-0.662214 -0.595372 0
-0.186441 -0.148827 0
0.00123517 -0.0331905 0
0.00762456 -0.252729 0
-0.267396 -0.405086 0
-0.00249099 -0.0347576 0
-0.0538534 -0.068304 0
0.00385625 -0.0364015 0
0.0497174 -0.333307 0
0.00268312 -0.0293853 0
-0.0210811 -0.0471838 0
0.00293581 -0.0365016 0
-0.455292 -0.442761 0
-0.0456158 -0.363602 0
-0.000680808 -0.0360736 0
-0.0862214 -0.0924035 0
0.00443042 -0.0428614 0
-0.0317242 -0.040466 0
-0.00329722 -0.0136871 0
-0.068549 -0.223743 0
-0.0693494 -0.0863169 0
-0.206402 -0.369957 0
-0.0335998 -0.0430644 0
-0.00141474 -0.0134515 0
-0.10351 -0.252907 0
-0.0106747 -0.0205136 0
-0.00090057 -0.0124956 0
-0.0220454 -0.126946 0
-0.0309467 -0.129257 0
-0.0493756 -0.13863 0
-0.0853914 -0.229303 0
-0.0313756 -0.187143 0
0.00577159 -0.0223869 0
-0.00710725 -0.505989 0
0.00563146 -0.024289 0
0.00106149 -0.518849 0
0.00332078 -0.0146236 0
0.00397501 -0.0126272 0
0.00266018 -0.40059 0
0.000652273 -0.0367627 0
0.00845624 -0.0503728 0
0.0169486 -0.0704389 0
0.00159036 -0.0450815 0
0.00558202 -0.0139619 0
0.0455138 -0.288738 0
0.0293259 -0.467146 0
0.0178188 -0.359584 0
0.0576136 -0.336269 0
0.0033653 -0.0162517 0
0.0949092 -0.330519 0
0.027655 -0.33942 0
0.00408453 -0.0165696 0
0.0474748 -0.388826 0
0.0117341 -0.505075 0
0.00429161 -0.0117457 0
0.0284735 -0.213986 0
-0.00035778 -0.0558092 0
-0.107466 -0.0849458 0
-0.0143017 -0.0839272 0
-0.243898 -0.159874 0
-0.0164745 -0.0620916 0
-0.262128 -0.094126 0
0.00214188 -0.0211725 0
-0.00129799 -0.0272803 0
0.00423202 -0.0108892 0
0.0138249 -0.122064 0
0.00193395 -0.0114662 0
0.00196968 -0.10668 0
-0.00950049 -0.0192212 0
0.00240911 -0.0160472 0
-0.00113545 -0.170654 0
0.0041284 -0.0161213 0
0.0495679 -0.188772 0
-0.0304397 -0.169989 0
-0.0177465 -0.205092 0
-0.0667003 -0.235169 0
-0.0694104 -0.173667 0
-1.18671 -0.238341 0
-0.632289 -0.136827 0
-0.0600989 -0.095684 0
-0.574354 -0.252418 0
-1.03932 -0.334777 0
-0.398592 -0.751682 0
-0.0883211 -0.737132 0
-0.307614 -0.706332 0
-0.46621 -0.733342 0
-0.331294 -1.1247 0
-0.164476 -1.15073 0
-0.439253 -1.0667 0
-0.805633 -1.26429 0
-0.155509 -1.19842 0
-0.0315528 -1.5422 0
0.142945 -1.68455 0
-1.99532 -0.945476 0
0.225353 -0.865151 0
0.263738 -0.670119 0
0.0317831 -0.565738 0
-0.0397174 -0.845213 0
-1.97643 -0.97612 0
-1.43632 -1.22111 0
-1.10411 -0.879987 0
-1.65556 -0.563911 0
0.184527 -1.39492 0
0.322459 -1.08004 0
-0.240092 -0.600567 0
-0.160829 -0.599236 0
-0.193248 -0.811589 0
-0.125811 -0.778189 0
-0.947418 -0.790356 0
-0.118497 -0.586743 0
0.93176 -1.01453 0
-0.185792 -0.613262 0
-0.389501 -0.791063 0
-0.11351 -0.506092 0
-0.166898 -0.893973 0
0.267951 -0.889291 0
0.323272 -0.893467 0
-0.750703 -0.880081 0
0.0562543 -1.30681 0
0.780876 -1.16927 0
-0.291777 -0.666288 0
-0.1041 -0.842708 0
-0.728704 -0.93803 0
-0.0094183 -1.49851 0
0.260089 -1.29528 0
-0.37712 -0.703617 0
-0.0803057 -0.87108 0
-0.707622 -0.793829 0
0.306279 -1.01747 0
0.194306 -1.02196 0
0.155327 -1.27186 0
0.255634 -0.869046 0
0.260312 -0.838673 0
-0.00910253 -0.649363 0
0.31407 -0.706115 0
-0.0164676 -1.4812 0
-1.82142 -1.40718 0
0.182701 -0.650069 0
0.150199 -0.709341 0
-0.241365 -1.55657 0
-2.35873 -1.54516 0
0.264232 -0.687791 0
0.169426 -0.833099 0
-0.0678771 -0.740162 0
-0.185274 -0.676583 0
-0.103208 -0.918642 0
-0.11732 -0.842915 0
0.193676 -1.195 0
0.0644371 -1.55051 0
-0.547249 -0.564006 0
0.0540098 -0.321402 0
-0.268832 -0.525061 0
-0.446717 -0.902746 0
0.351404 -1.32536 0
0.0346635 -1.82533 0
-0.0931709 -1.72932 0
-0.461213 -0.545889 0
0.0197009 -1.59973 0
0.235307 -0.521643 0
-0.0842799 -0.375053 0
-0.201929 -0.992154 0
-0.0177265 -1.59396 0
-0.246387 -1.74192 0
0.0168287 -1.58683 0
0.127955 -0.346749 0
-0.105627 -1.85104 0
-0.104929 -1.79295 0
0.00311553 -0.949377 0
0.0481067 -0.210584 0
-0.0657458 -1.65566 0
-0.415007 -1.13897 0
-0.0907228 -0.684343 0
0.133963 -0.785454 0
0.00134756 -0.837586 0
0.309851 -0.752859 0
0.803911 -0.907605 0
0.012312 -0.484986 0
-0.519817 -0.911611 0
-0.0461706 -0.621891 0
-0.524674 -0.598185 0
-0.142665 -0.620809 0
-0.113388 -1.31501 0
0.0665451 -0.580013 0
-0.795143 -0.941636 0
-0.0245041 -0.849755 0
-0.335796 -0.579249 0
-0.0988641 -0.572456 0
-0.666339 -0.718354 0
-0.177968 -0.912554 0
-0.0490122 -0.988183 0
-0.311286 -0.831939 0
0.101396 -0.588598 0
0.0318821 -0.679712 0
-1.02989 -1.09644 0
-0.0992482 -0.335193 0
-0.373339 -1.03894 0
0.43762 -0.847669 0
0.0475451 -0.56399 0
-0.0359399 -0.528505 0
-0.759155 -1.02423 0
0.172594 -0.704444 0
-0.380213 -0.953371 0
-0.211592 -0.538506 0
-0.256967 -0.921438 0
0.258638 -1.00044 0
0.392617 -0.948922 0
0.2039 -0.676772 0
-1.40961 -0.43194 0
0.0996659 -0.722929 0
0.2517 -0.706279 0
-1.75259 -2.47507 0
-0.259255 -1.45436 0
0.247377 -0.748988 0
-0.0654626 -0.84519 0
-0.140216 -0.426867 0
-0.575337 -1.05033 0
0.920426 -0.970057 0
-0.525267 -1.38145 0
0.278366 -0.605423 0
-0.84535 -0.569281 0
-0.168772 -1.3489 0
0.303561 -0.752517 0
0.0771783 -0.724278 0
-0.982749 -2.08881 0
0.128927 -0.666844 0
-0.589688 -0.852761 0
0.0968526 -0.561449 0
-0.0798455 -0.555512 0
0.277933 -0.845005 0
0.158802 -0.877119 0
0.0503101 -0.792642 0
0.278398 -0.904225 0
-0.791474 -0.664812 0
0.184543 -0.76748 0
0.0696703 -0.802334 0
-1.39595 -2.02433 0
0.123087 -0.483029 0
-0.248448 -1.23254 0
0.297376 -0.733017 0
0.133007 -0.765217 0
-0.254299 -1.15426 0