# vtk DataFile Version 2.0
Unstructured Grid by M++
ASCII
DATASET UNSTRUCTURED_GRID
POINTS 81 float
  1.000000   0.625000 0
  0.750000   0.375000 0
  1.000000   0.000000 0
  0.875000   0.875000 0
  0.750000   0.125000 0
  1.000000   1.000000 0
  0.875000   0.250000 0
  0.625000   0.875000 0
  1.000000   0.750000 0
  0.875000   0.000000 0
  1.000000   0.250000 0
  0.625000   0.375000 0
  0.875000   0.500000 0
  0.625000   0.625000 0
  1.000000   0.500000 0
  0.750000   0.500000 0
  0.750000   1.000000 0
  1.000000   0.125000 0
  0.625000   0.250000 0
  0.750000   0.750000 0
  0.625000   0.000000 0
  0.125000   0.375000 0
  0.000000   0.500000 0
  0.125000   0.625000 0
  0.625000   1.000000 0
  1.000000   0.875000 0
  0.875000   0.125000 0
  0.500000   0.250000 0
  0.625000   0.500000 0
  0.250000   0.625000 0
  0.000000   0.625000 0
  0.375000   0.500000 0
  0.375000   0.000000 0
  0.000000   0.125000 0
  0.125000   0.875000 0
  0.875000   1.000000 0
  0.750000   0.250000 0
  0.375000   0.375000 0
  0.250000   0.375000 0
  0.625000   0.750000 0
  0.125000   0.125000 0
  0.500000   0.000000 0
  0.250000   0.875000 0
  0.125000   0.500000 0
  0.500000   0.375000 0
  0.125000   0.000000 0
  0.250000   0.750000 0
  0.250000   0.500000 0
  0.000000   0.875000 0
  0.875000   0.625000 0
  0.500000   0.750000 0
  0.750000   0.625000 0
  0.250000   0.000000 0
  0.375000   0.750000 0
  0.750000   0.875000 0
  0.625000   0.125000 0
  0.250000   0.250000 0
  0.375000   1.000000 0
  0.375000   0.250000 0
  0.000000   0.375000 0
  0.500000   1.000000 0
  0.875000   0.750000 0
  0.750000   0.000000 0
  0.375000   0.125000 0
  0.500000   0.875000 0
  0.000000   0.000000 0
  0.125000   0.750000 0
  0.500000   0.625000 0
  0.125000   0.250000 0
  0.500000   0.125000 0
  0.250000   1.000000 0
  0.250000   0.125000 0
  0.000000   1.000000 0
  0.375000   0.875000 0
  0.000000   0.750000 0
  0.375000   0.625000 0
  0.000000   0.250000 0
  0.125000   1.000000 0
  1.000000   0.375000 0
  0.500000   0.500000 0
  0.875000   0.375000 0
CELLS 64 320
4 56 71 58 63
4 27 58 69 63
4 41 69 32 63
4 76 33 68 40
4 27 44 58 37
4 79 31 44 37
4 56 38 68 21
4 56 58 38 37
4 52 32 71 63
4 47 38 31 37
4 76 68 59 21
4 22 59 43 21
4 65 45 33 40
4 47 43 38 21
4 52 71 45 40
4 56 68 71 40
4 74 30 66 23
4 46 66 29 23
4 22 43 30 23
4 72 48 77 34
4 46 53 42 73
4 50 64 53 73
4 70 42 57 73
4 74 66 48 34
4 46 42 66 34
4 47 29 43 23
4 70 77 42 34
4 60 57 64 73
4 79 67 31 75
4 47 31 29 75
4 50 53 67 75
4 46 29 53 75
4 10 78 6 80
4 36 6 1 80
4 15 1 12 80
4 36 4 6 26
4 14 12 78 80
4 2 17 9 26
4 36 18 4 55
4 15 28 1 11
4 62 4 20 55
4 10 6 17 26
4 27 18 44 11
4 62 9 4 26
4 27 69 18 55
4 36 1 18 11
4 41 20 69 55
4 79 44 28 11
4 16 24 54 7
4 19 54 39 7
4 50 39 64 7
4 8 25 61 3
4 60 64 24 7
4 79 28 67 13
4 19 51 61 49
4 8 61 0 49
4 15 51 28 13
4 19 39 51 13
4 50 67 39 13
4 19 61 54 3
4 14 0 12 49
4 5 35 25 3
4 15 12 51 49
4 16 54 35 3
CELL_TYPES 64
8
8
8
8
8
8
8
8
8
8
8
8
8
8
8
8
8
8
8
8
8
8
8
8
8
8
8
8
8
8
8
8
8
8
8
8
8
8
8
8
8
8
8
8
8
8
8
8
8
8
8
8
8
8
8
8
8
8
8
8
8
8
8
8
CELL_DATA 64
VECTORS vector_value float
-0.537947 -1.12957 0
-0.0758795 -0.454462 0
-0.00706417 -0.418552 0
-0.157351 -1.54462 0
-0.674366 -1.07777 0
-0.145731 -1.82381 0
-0.592236 -0.456028 0
-0.870502 -0.845058 0
-0.0627664 -0.55046 0
-0.304861 -0.55249 0
-0.2224 -1.08631 0
-0.246168 -0.745313 0
-0.213213 -2.03622 0
-0.319781 -0.287184 0
-0.350822 -0.703324 0
-0.454633 -0.566541 0
0.0346636 -0.0952998 0
0.0654474 -0.425624 0
-0.167605 -0.286481 0
0.393605 -0.936749 0
0.133899 -0.548099 0
-0.23262 -2.1043 0
1.37591 -0.704768 0
0.0248225 -0.181108 0
0.307516 -0.546137 0
-0.396487 -0.349506 0
0.79464 -0.301762 0
1.18951 -1.89547 0
0.529603 -2.27592 0
0.110487 -1.147 0
-0.583912 -1.79079 0
-0.369453 -1.62026 0
0.727662 -2.23543 0
0.804366 -0.967596 0
1.12465 -1.31875 0
0.769395 -0.880841 0
0.254173 -0.82391 0
0.119933 -3.81496 0
0.0554501 -0.0775118 0
0.949627 -1.15124 0
0.0207331 -0.104486 0
0.492512 -3.19032 0
0.0668766 -0.656103 0
0.0489542 -0.284636 0
0.019727 -0.156127 0
0.719517 -0.675717 0
0.00565595 -0.0873588 0
0.551886 -1.29731 0
-0.86766 -0.915755 0
0.043861 -0.434756 0
-0.0622515 -2.77195 0
0.00118728 -0.755908 0
-0.252943 -1.70178 0
0.464319 -1.19609 0
0.0758162 -0.625043 0
-0.0478655 -0.875314 0
0.513412 -1.19272 0
0.220355 -0.702815 0
-0.0445648 -1.86485 0
0.0131184 -0.657733 0
-0.00344638 -0.545362 0
-0.116686 -0.88961 0
0.0392237 -1.00692 0
-0.410083 -0.6541 0
