# vtk DataFile Version 2.0
Unstructured Grid by M++
ASCII
DATASET UNSTRUCTURED_GRID
POINTS 81 float
  1.000000   0.625000 0
  0.750000   0.375000 0
  1.000000   0.000000 0
  0.875000   0.875000 0
  0.750000   0.125000 0
  1.000000   1.000000 0
  0.875000   0.250000 0
  0.625000   0.875000 0
  1.000000   0.750000 0
  0.875000   0.000000 0
  1.000000   0.250000 0
  0.625000   0.375000 0
  0.875000   0.500000 0
  0.625000   0.625000 0
  1.000000   0.500000 0
  0.750000   0.500000 0
  0.750000   1.000000 0
  1.000000   0.125000 0
  0.625000   0.250000 0
  0.750000   0.750000 0
  0.625000   0.000000 0
  0.125000   0.375000 0
  0.000000   0.500000 0
  0.125000   0.625000 0
  0.625000   1.000000 0
  1.000000   0.875000 0
  0.875000   0.125000 0
  0.500000   0.250000 0
  0.625000   0.500000 0
  0.250000   0.625000 0
  0.000000   0.625000 0
  0.375000   0.500000 0
  0.375000   0.000000 0
  0.000000   0.125000 0
  0.125000   0.875000 0
  0.875000   1.000000 0
  0.750000   0.250000 0
  0.375000   0.375000 0
  0.250000   0.375000 0
  0.625000   0.750000 0
  0.125000   0.125000 0
  0.500000   0.000000 0
  0.250000   0.875000 0
  0.125000   0.500000 0
  0.500000   0.375000 0
  0.125000   0.000000 0
  0.250000   0.750000 0
  0.250000   0.500000 0
  0.000000   0.875000 0
  0.875000   0.625000 0
  0.500000   0.750000 0
  0.750000   0.625000 0
  0.250000   0.000000 0
  0.375000   0.750000 0
  0.750000   0.875000 0
  0.625000   0.125000 0
  0.250000   0.250000 0
  0.375000   1.000000 0
  0.375000   0.250000 0
  0.000000   0.375000 0
  0.500000   1.000000 0
  0.875000   0.750000 0
  0.750000   0.000000 0
  0.375000   0.125000 0
  0.500000   0.875000 0
  0.000000   0.000000 0
  0.125000   0.750000 0
  0.500000   0.625000 0
  0.125000   0.250000 0
  0.500000   0.125000 0
  0.250000   1.000000 0
  0.250000   0.125000 0
  0.000000   1.000000 0
  0.375000   0.875000 0
  0.000000   0.750000 0
  0.375000   0.625000 0
  0.000000   0.250000 0
  0.125000   1.000000 0
  1.000000   0.375000 0
  0.500000   0.500000 0
  0.875000   0.375000 0
CELLS 64 320
4 56 71 58 63
4 27 58 69 63
4 41 69 32 63
4 76 33 68 40
4 27 44 58 37
4 79 31 44 37
4 56 38 68 21
4 56 58 38 37
4 52 32 71 63
4 47 38 31 37
4 76 68 59 21
4 22 59 43 21
4 65 45 33 40
4 47 43 38 21
4 52 71 45 40
4 56 68 71 40
4 74 30 66 23
4 46 66 29 23
4 22 43 30 23
4 72 48 77 34
4 46 53 42 73
4 50 64 53 73
4 70 42 57 73
4 74 66 48 34
4 46 42 66 34
4 47 29 43 23
4 70 77 42 34
4 60 57 64 73
4 79 67 31 75
4 47 31 29 75
4 50 53 67 75
4 46 29 53 75
4 10 78 6 80
4 36 6 1 80
4 15 1 12 80
4 36 4 6 26
4 14 12 78 80
4 2 17 9 26
4 36 18 4 55
4 15 28 1 11
4 62 4 20 55
4 10 6 17 26
4 27 18 44 11
4 62 9 4 26
4 27 69 18 55
4 36 1 18 11
4 41 20 69 55
4 79 44 28 11
4 16 24 54 7
4 19 54 39 7
4 50 39 64 7
4 8 25 61 3
4 60 64 24 7
4 79 28 67 13
4 19 51 61 49
4 8 61 0 49
4 15 51 28 13
4 19 39 51 13
4 50 67 39 13
4 19 61 54 3
4 14 0 12 49
4 5 35 25 3
4 15 12 51 49
4 16 54 35 3
CELL_TYPES 64
8
8
8
8
8
8
8
8
8
8
8
8
8
8
8
8
8
8
8
8
8
8
8
8
8
8
8
8
8
8
8
8
8
8
8
8
8
8
8
8
8
8
8
8
8
8
8
8
8
8
8
8
8
8
8
8
8
8
8
8
8
8
8
8
CELL_DATA 64
VECTORS vector_value float
-0.156974 -0.38412 0
-0.191902 -1.632 0
0.000470282 -1.5909 0
-0.179667 -0.577831 0
-0.401788 -0.955311 0
-0.641628 -0.615161 0
-0.251015 -0.718455 0
-0.155803 -0.567026 0
-0.0187043 -0.220078 0
-0.268984 -0.41236 0
-0.096253 -0.216933 0
-0.0270621 -0.127786 0
-0.157618 -0.987073 0
-0.129238 -0.661842 0
-0.112161 -0.36688 0
-0.305912 -0.561759 0
0.141875 -0.517789 0
0.0274246 -0.237816 0
0.0846019 -0.146597 0
0.135415 -1.04848 0
0.167818 -0.151457 0
0.202769 -0.134907 0
1.44444 -0.65539 0
0.0789017 -0.659556 0
0.23887 -0.245236 0
0.233779 -0.557922 0
0.609047 -0.394944 0
2.25977 -0.499463 0
-0.106819 -0.192661 0
-0.00674062 -0.2962 0
0.00972213 -0.104592 0
0.0278393 -0.21866 0
-1.01329 -2.47217 0
-1.15152 -0.604435 0
-0.100972 -0.723843 0
-1.70158 -0.990024 0
0.665858 -3.08516 0
-0.00681859 -0.261237 0
-1.55307 -1.25489 0
-1.02961 -1.1864 0
-0.117315 -1.33642 0
-0.448284 -0.779139 0
-0.96065 -1.51908 0
-0.0241411 -0.432405 0
-0.745555 -1.82023 0
-1.11128 -0.946587 0
-0.116804 -2.80501 0
-1.04979 -1.18745 0
2.41524 -1.56769 0
1.29033 -2.09567 0
0.538627 -0.509701 0
-0.11886 -1.16139 0
2.73374 -0.783373 0
-0.47151 -0.697243 0
0.453528 -5.11468 0
-0.00685642 -0.823954 0
-1.01799 -0.776132 0
-0.0339907 -0.703356 0
-0.0149624 -0.279152 0
0.347908 -3.04208 0
0.46496 -1.31801 0
0.0927739 -0.996005 0
0.0634489 -4.01523 0
1.08675 -2.05465 0
