# vtk DataFile Version 2.0
Unstructured Grid by M++
ASCII
DATASET UNSTRUCTURED_GRID
POINTS 81 float
  1.000000   0.625000 0
  0.750000   0.375000 0
  1.000000   0.000000 0
  0.875000   0.875000 0
  0.750000   0.125000 0
  1.000000   1.000000 0
  0.875000   0.250000 0
  0.625000   0.875000 0
  1.000000   0.750000 0
  0.875000   0.000000 0
  1.000000   0.250000 0
  0.625000   0.375000 0
  0.875000   0.500000 0
  0.625000   0.625000 0
  1.000000   0.500000 0
  0.750000   0.500000 0
  0.750000   1.000000 0
  1.000000   0.125000 0
  0.625000   0.250000 0
  0.750000   0.750000 0
  0.625000   0.000000 0
  0.125000   0.375000 0
  0.000000   0.500000 0
  0.125000   0.625000 0
  0.625000   1.000000 0
  1.000000   0.875000 0
  0.875000   0.125000 0
  0.500000   0.250000 0
  0.625000   0.500000 0
  0.250000   0.625000 0
  0.000000   0.625000 0
  0.375000   0.500000 0
  0.375000   0.000000 0
  0.000000   0.125000 0
  0.125000   0.875000 0
  0.875000   1.000000 0
  0.750000   0.250000 0
  0.375000   0.375000 0
  0.250000   0.375000 0
  0.625000   0.750000 0
  0.125000   0.125000 0
  0.500000   0.000000 0
  0.250000   0.875000 0
  0.125000   0.500000 0
  0.500000   0.375000 0
  0.125000   0.000000 0
  0.250000   0.750000 0
  0.250000   0.500000 0
  0.000000   0.875000 0
  0.875000   0.625000 0
  0.500000   0.750000 0
  0.750000   0.625000 0
  0.250000   0.000000 0
  0.375000   0.750000 0
  0.750000   0.875000 0
  0.625000   0.125000 0
  0.250000   0.250000 0
  0.375000   1.000000 0
  0.375000   0.250000 0
  0.000000   0.375000 0
  0.500000   1.000000 0
  0.875000   0.750000 0
  0.750000   0.000000 0
  0.375000   0.125000 0
  0.500000   0.875000 0
  0.000000   0.000000 0
  0.125000   0.750000 0
  0.500000   0.625000 0
  0.125000   0.250000 0
  0.500000   0.125000 0
  0.250000   1.000000 0
  0.250000   0.125000 0
  0.000000   1.000000 0
  0.375000   0.875000 0
  0.000000   0.750000 0
  0.375000   0.625000 0
  0.000000   0.250000 0
  0.125000   1.000000 0
  1.000000   0.375000 0
  0.500000   0.500000 0
  0.875000   0.375000 0
CELLS 64 320
4 56 71 58 63
4 27 58 69 63
4 41 69 32 63
4 76 33 68 40
4 27 44 58 37
4 79 31 44 37
4 56 38 68 21
4 56 58 38 37
4 52 32 71 63
4 47 38 31 37
4 76 68 59 21
4 22 59 43 21
4 65 45 33 40
4 47 43 38 21
4 52 71 45 40
4 56 68 71 40
4 74 30 66 23
4 46 66 29 23
4 22 43 30 23
4 72 48 77 34
4 46 53 42 73
4 50 64 53 73
4 70 42 57 73
4 74 66 48 34
4 46 42 66 34
4 47 29 43 23
4 70 77 42 34
4 60 57 64 73
4 79 67 31 75
4 47 31 29 75
4 50 53 67 75
4 46 29 53 75
4 10 78 6 80
4 36 6 1 80
4 15 1 12 80
4 36 4 6 26
4 14 12 78 80
4 2 17 9 26
4 36 18 4 55
4 15 28 1 11
4 62 4 20 55
4 10 6 17 26
4 27 18 44 11
4 62 9 4 26
4 27 69 18 55
4 36 1 18 11
4 41 20 69 55
4 79 44 28 11
4 16 24 54 7
4 19 54 39 7
4 50 39 64 7
4 8 25 61 3
4 60 64 24 7
4 79 28 67 13
4 19 51 61 49
4 8 61 0 49
4 15 51 28 13
4 19 39 51 13
4 50 67 39 13
4 19 61 54 3
4 14 0 12 49
4 5 35 25 3
4 15 12 51 49
4 16 54 35 3
CELL_TYPES 64
8
8
8
8
8
8
8
8
8
8
8
8
8
8
8
8
8
8
8
8
8
8
8
8
8
8
8
8
8
8
8
8
8
8
8
8
8
8
8
8
8
8
8
8
8
8
8
8
8
8
8
8
8
8
8
8
8
8
8
8
8
8
8
8
CELL_DATA 64
VECTORS vector_value float
0.12887 -1.01844 0
0.00415169 -0.0638466 0
0.0157323 -0.130779 0
-0.65127 -1.88956 0
-0.129904 -0.105767 0
-0.414206 -0.51768 0
-0.548565 -3.26055 0
-0.530985 -1.06229 0
0.0216935 -1.16322 0
-1.33961 -1.39321 0
-0.255657 -1.11482 0
0.119851 -1.12 0
-0.342946 -3.44333 0
-0.583655 -2.38052 0
-0.0403343 -0.84006 0
-0.806127 -2.5989 0
-0.020014 -1.51568 0
0.0594877 -0.434335 0
0.108358 -1.35642 0
-0.205431 -1.22933 0
0.13467 -0.3313 0
0.205838 -1.23851 0
-0.0728848 -0.839632 0
-0.031712 -1.42595 0
0.119747 -0.92098 0
-0.165557 -0.977667 0
-0.405077 -1.13856 0
0.0374827 -0.643921 0
-1.74364 -1.75853 0
-0.966006 -0.589849 0
0.0151685 -1.45221 0
0.262867 -0.47046 0
0.262678 -0.440532 0
1.01132 -1.17974 0
0.0486035 -0.344335 0
0.164083 -1.54256 0
0.0222254 -0.0719228 0
-0.00552278 -0.621658 0
0.154011 -0.217442 0
0.457964 -1.65077 0
0.0162525 -0.0745805 0
0.0118426 -0.637731 0
0.0348282 -0.134929 0
0.0266764 -1.7151 0
0.00840363 -0.0315204 0
0.579579 -0.701375 0
0.000564347 -0.0112703 0
0.0341585 -0.521571 0
0.187502 -0.85339 0
-0.372898 -1.58128 0
0.00029163 -0.767251 0
-0.282469 -0.959158 0
0.186184 -1.01071 0
-0.71069 -1.30685 0
-0.597292 -0.937488 0
-0.219323 -0.305913 0
-0.48511 -1.48751 0
-0.660538 -1.09953 0
-0.636669 -1.78438 0
-0.328574 -0.775575 0
-0.0118894 -0.0359682 0
0.0323665 -1.26127 0
-0.323274 -0.487202 0
-0.0178839 -1.02319 0
