# vtk DataFile Version 2.0
Unstructured Grid by M++
ASCII
DATASET UNSTRUCTURED_GRID
POINTS 289 float
  0.562500   1.000000 0
  0.562500   0.625000 0
  0.625000   1.000000 0
  0.562500   0.937500 0
  0.562500   0.562500 0
  0.625000   0.937500 0
  0.562500   0.875000 0
  0.625000   0.750000 0
  0.625000   0.625000 0
  0.562500   0.812500 0
  0.562500   0.750000 0
  0.562500   0.687500 0
  0.625000   0.875000 0
  0.625000   0.812500 0
  0.625000   0.687500 0
  0.687500   0.125000 0
  0.875000   0.062500 0
  0.625000   0.125000 0
  0.625000   0.187500 0
  0.625000   0.250000 0
  0.812500   0.187500 0
  1.000000   0.125000 0
  0.687500   0.187500 0
  0.750000   0.125000 0
  0.937500   0.062500 0
  0.937500   0.125000 0
  0.750000   0.187500 0
  0.812500   0.062500 0
  0.812500   0.125000 0
  0.875000   0.687500 0
  0.187500   0.250000 0
  0.437500   0.250000 0
  0.375000   0.187500 0
  0.812500   0.625000 0
  0.125000   0.187500 0
  0.937500   0.750000 0
  0.250000   0.312500 0
  0.500000   0.312500 0
  0.625000   0.062500 0
  0.437500   0.500000 0
  0.375000   0.125000 0
  0.437500   0.187500 0
  0.437500   0.437500 0
  0.437500   0.375000 0
  0.875000   0.875000 0
  0.187500   0.375000 0
  0.687500   0.562500 0
  0.687500   0.625000 0
  0.000000   0.125000 0
  0.937500   0.625000 0
  0.250000   0.125000 0
  0.375000   0.062500 0
  0.375000   0.000000 0
  0.812500   0.500000 0
  0.125000   0.000000 0
  0.937500   0.937500 0
  0.250000   0.437500 0
  0.687500   0.875000 0
  0.687500   0.937500 0
  0.000000   0.437500 0
  0.500000   0.500000 0
  0.500000   0.437500 0
  0.750000   0.937500 0
  0.750000   1.000000 0
  0.062500   0.500000 0
  1.000000   1.000000 0
  0.312500   0.500000 0
  0.875000   0.562500 0
  0.187500   0.062500 0
  0.437500   0.125000 0
  0.437500   0.062500 0
  0.500000   0.375000 0
  0.937500   0.812500 0
  0.937500   0.875000 0
  0.250000   0.375000 0
  0.687500   0.812500 0
  0.000000   0.375000 0
  0.750000   0.562500 0
  0.062500   0.125000 0
  1.000000   0.562500 0
  1.000000   0.625000 0
  0.312500   0.125000 0
  0.562500   0.125000 0
  0.437500   0.000000 0
  0.875000   0.437500 0
  0.875000   0.500000 0
  0.187500   0.000000 0
  0.937500   0.562500 0
  0.937500   0.500000 0
  0.250000   0.062500 0
  0.687500   0.500000 0
  0.000000   0.062500 0
  0.500000   0.062500 0
  1.000000   0.875000 0
  1.000000   0.937500 0
  0.312500   0.437500 0
  0.750000   0.875000 0
  0.062500   0.437500 0
  0.812500   0.937500 0
  0.125000   0.500000 0
  0.375000   0.500000 0
  0.625000   0.562500 0
  0.625000   0.500000 0
  0.437500   0.312500 0
  0.875000   0.812500 0
  0.875000   0.750000 0
  0.187500   0.312500 0
  0.812500   0.687500 0
  0.812500   0.750000 0
  0.125000   0.250000 0
  0.375000   0.250000 0
  1.000000   0.687500 0
  0.312500   0.187500 0
  0.750000   0.687500 0
  0.750000   0.625000 0
  0.062500   0.187500 0
  0.562500   0.250000 0
  0.562500   0.187500 0
  0.375000   1.000000 0
  0.500000   0.562500 0
  0.500000   0.250000 0
  0.750000   0.250000 0
  0.500000   0.125000 0
  0.500000   0.187500 0
  1.000000   0.187500 0
  0.625000   0.375000 0
  0.875000   0.375000 0
  1.000000   0.437500 0
  0.312500   0.000000 0
  0.562500   0.000000 0
  0.812500   0.000000 0
  0.250000   0.687500 0
  0.000000   0.687500 0
  0.500000   1.000000 0
  0.250000   1.000000 0
  0.000000   1.000000 0
  0.437500   0.687500 0
  0.437500   0.625000 0
  0.187500   0.625000 0
  0.687500   0.750000 0
  0.000000   0.312500 0
  0.000000   0.250000 0
  0.375000   0.375000 0
  0.375000   0.312500 0
  0.812500   0.812500 0
  0.125000   0.312500 0
  0.875000   0.625000 0
  0.187500   0.187500 0
  0.187500   0.125000 0
  0.937500   1.000000 0
  0.250000   0.562500 0
  0.250000   0.500000 0
  0.687500   1.000000 0
  0.000000   0.500000 0
  0.687500   0.687500 0
  0.000000   0.187500 0
  0.937500   0.687500 0
  0.250000   0.250000 0
  0.250000   0.187500 0
  0.187500   0.687500 0
  0.000000   0.750000 0
  0.250000   0.750000 0
  0.125000   0.625000 0
  0.750000   0.750000 0
  0.062500   0.250000 0
  0.875000   0.937500 0
  0.187500   0.500000 0
  0.187500   0.437500 0
  0.812500   0.562500 0
  0.125000   0.125000 0
  0.125000   0.062500 0
  0.375000   0.625000 0
  0.375000   0.687500 0
  1.000000   0.750000 0
  0.312500   0.250000 0
  0.312500   0.312500 0
  0.812500   0.312500 0
  0.562500   0.312500 0
  0.375000   0.750000 0
  0.500000   0.625000 0
  0.250000   0.625000 0
  0.312500   0.687500 0
  0.750000   0.812500 0
  0.062500   0.312500 0
  0.062500   0.375000 0
  1.000000   0.812500 0
  0.312500   0.375000 0
  0.562500   0.375000 0
  0.687500   0.437500 0
  0.000000   0.000000 0
  0.500000   0.000000 0
  0.937500   0.437500 0
  0.250000   0.000000 0
  0.375000   0.437500 0
  0.812500   0.875000 0
  0.125000   0.375000 0
  0.125000   0.437500 0
  0.625000   0.437500 0
  1.000000   0.500000 0
  0.312500   0.062500 0
  0.750000   0.500000 0
  0.062500   0.000000 0
  0.062500   0.062500 0
  0.562500   0.062500 0
  0.062500   0.750000 0
  0.312500   0.750000 0
  0.312500   0.625000 0
  0.312500   0.562500 0
  0.062500   0.562500 0
  0.187500   1.000000 0
  0.437500   0.562500 0
  0.875000   1.000000 0
  0.187500   0.562500 0
  0.500000   0.937500 0
  0.250000   0.937500 0
  0.312500   1.000000 0
  0.125000   0.750000 0
  0.125000   0.687500 0
  1.000000   0.000000 0
  0.000000   0.937500 0
  0.000000   0.875000 0
  0.875000   0.125000 0
  0.875000   0.187500 0
  0.062500   0.812500 0
  0.312500   0.812500 0
  0.000000   0.812500 0
  0.000000   0.625000 0
  0.000000   0.562500 0
  0.062500   1.000000 0
  0.062500   0.937500 0
  0.937500   0.187500 0
  0.937500   0.250000 0
  0.062500   0.687500 0
  0.062500   0.625000 0
  0.125000   1.000000 0
  1.000000   0.250000 0
  1.000000   0.312500 0
  0.062500   0.875000 0
  0.125000   0.812500 0
  0.375000   0.812500 0
  0.125000   0.875000 0
  0.375000   0.937500 0
  0.375000   0.875000 0
  0.187500   0.750000 0
  0.187500   0.812500 0
  0.437500   0.812500 0
  0.187500   0.875000 0
  0.437500   0.875000 0
  0.375000   0.562500 0
  0.812500   1.000000 0
  0.125000   0.562500 0
  0.437500   1.000000 0
  0.437500   0.937500 0
  0.187500   0.937500 0
  0.125000   0.937500 0
  0.500000   0.687500 0
  0.500000   0.750000 0
  0.500000   0.812500 0
  0.250000   0.812500 0
  0.250000   0.875000 0
  0.500000   0.875000 0
  0.437500   0.750000 0
  0.312500   0.875000 0
  0.312500   0.937500 0
  0.687500   0.250000 0
  0.687500   0.312500 0
  0.937500   0.312500 0
  0.875000   0.250000 0
  0.625000   0.000000 0
  0.875000   0.000000 0
  0.687500   0.375000 0
  0.937500   0.375000 0
  0.875000   0.312500 0
  0.625000   0.312500 0
  0.687500   0.000000 0
  0.937500   0.000000 0
  0.750000   0.312500 0
  0.750000   0.375000 0
  1.000000   0.375000 0
  0.812500   0.250000 0
  0.562500   0.437500 0
  0.562500   0.500000 0
  0.687500   0.062500 0
  0.750000   0.437500 0
  0.750000   0.000000 0
  0.750000   0.062500 0
  1.000000   0.062500 0
  0.812500   0.375000 0
  0.812500   0.437500 0
CELLS 256 1280
4 169 170 148 68
4 151 166 56 167
4 195 45 196 167
4 54 170 201 202
4 109 34 30 147
4 40 32 81 112
4 192 89 86 68
4 48 91 78 202
4 99 64 196 97
4 71 43 37 103
4 74 186 56 95
4 109 164 34 115
4 50 81 158 112
4 122 69 92 70
4 195 145 45 106
4 110 143 174 175
4 157 30 158 147
4 40 69 32 41
4 50 158 148 147
4 141 155 164 115
4 122 123 69 41
4 142 186 143 175
4 60 39 61 42
4 40 51 69 70
4 120 31 123 41
4 157 174 36 175
4 50 148 89 68
4 48 78 155 115
4 52 83 51 70
4 151 56 66 95
4 71 61 43 42
4 169 148 34 147
4 100 193 39 42
4 40 81 51 199
4 110 174 32 112
4 109 30 145 106
4 100 66 193 95
4 169 34 78 115
4 190 92 83 70
4 50 89 81 199
4 54 86 170 68
4 74 56 45 167
4 142 143 43 103
4 153 59 64 97
4 99 196 166 167
4 169 78 170 202
4 142 193 186 95
4 192 128 89 199
4 74 45 36 106
4 110 31 143 103
4 76 184 59 97
4 142 43 193 42
4 52 51 128 199
4 189 201 91 202
4 120 37 31 103
4 74 36 186 175
4 195 196 184 97
4 141 164 140 183
4 157 158 174 112
4 109 145 164 183
4 195 184 145 183
4 110 32 31 41
4 157 36 30 106
4 76 140 184 183
4 171 172 206 181
4 178 172 261 136
4 256 261 255 136
4 256 257 261 245
4 180 150 206 207
4 60 119 39 210
4 118 215 241 263
4 178 205 172 181
4 216 243 238 244
4 162 217 233 232
4 180 206 131 181
4 179 137 119 210
4 216 204 217 232
4 220 237 219 229
4 216 217 243 159
4 259 258 262 224
4 240 254 237 229
4 153 64 227 208
4 161 205 258 224
4 240 237 238 223
4 226 227 233 208
4 234 228 254 229
4 171 248 137 210
4 160 132 204 232
4 180 131 138 159
4 133 251 213 252
4 171 206 248 207
4 162 138 217 159
4 161 258 243 244
4 220 225 237 223
4 151 150 166 212
4 260 247 257 245
4 259 262 214 263
4 151 66 150 207
4 234 254 209 253
4 162 233 250 208
4 242 241 262 263
4 171 137 172 136
4 161 243 131 159
4 160 204 225 223
4 161 131 205 181
4 179 255 137 136
4 216 238 204 223
4 100 39 248 210
4 260 213 247 252
4 226 233 132 232
4 134 214 215 263
4 180 138 150 212
4 178 261 239 245
4 259 246 258 244
4 178 239 205 224
4 240 238 246 244
4 242 262 239 224
4 99 250 64 208
4 240 246 254 253
4 242 239 247 245
4 135 219 228 229
4 99 166 250 212
4 259 214 246 253
4 118 241 251 252
4 100 248 66 207
4 134 209 214 253
4 162 250 138 212
4 242 247 241 252
4 71 187 61 280
4 102 281 197 280
4 122 92 82 203
4 17 18 82 117
4 122 82 123 117
4 19 264 273 265
4 267 279 222 20
4 125 273 270 265
4 267 272 279 176
4 19 116 18 117
4 21 25 286 24
4 23 28 26 20
4 23 285 28 27
4 218 286 275 24
4 85 53 84 288
4 235 236 231 266
4 221 222 28 20
4 267 222 231 230
4 268 38 129 203
4 125 270 197 188
4 126 287 272 176
4 277 270 276 265
4 267 231 272 266
4 125 197 187 280
4 190 129 92 203
4 277 276 287 176
4 19 18 264 22
4 17 82 38 203
4 102 197 90 188
4 126 84 287 288
4 284 130 285 27
4 121 276 264 265
4 71 37 187 177
4 120 123 116 117
4 198 88 127 191
4 221 16 25 24
4 23 26 15 22
4 121 279 276 176
4 235 231 124 230
4 125 187 273 177
4 278 271 236 266
4 277 287 283 288
4 284 285 274 282
4 278 127 271 191
4 269 275 16 24
4 200 283 53 288
4 23 15 285 282
4 121 26 279 20
4 21 124 25 230
4 19 273 116 177
4 200 90 283 188
4 126 271 84 191
4 269 16 130 27
4 17 38 15 282
4 221 25 222 230
4 121 264 26 22
4 120 116 37 177
4 60 61 281 280
4 277 283 270 188
4 126 272 271 266
4 268 274 38 282
4 85 84 88 191
4 17 15 18 22
4 221 28 16 27
4 93 94 73 55
4 85 88 67 87
4 80 49 79 87
4 44 104 73 72
4 146 33 67 168
4 211 165 149 55
4 8 47 14 154
4 105 104 108 144
4 105 108 29 107
4 7 139 13 75
4 44 165 194 98
4 200 53 77 168
4 8 1 101 4
4 2 5 152 58
4 260 6 213 3
4 105 35 104 72
4 96 57 182 75
4 7 14 139 154
4 146 29 33 107
4 7 13 10 9
4 12 13 57 75
4 85 67 53 168
4 44 73 165 55
4 63 152 62 58
4 8 101 47 46
4 96 182 194 144
4 60 281 119 4
4 12 5 6 3
4 173 185 35 72
4 65 149 94 55
4 146 67 49 87
4 114 113 47 154
4 163 108 182 144
4 12 6 13 9
4 173 35 111 156
4 163 182 139 75
4 260 257 6 9
4 105 29 35 156
4 163 139 113 154
4 256 10 257 9
4 146 49 29 156
4 163 113 108 107
4 80 111 49 156
4 102 101 281 4
4 12 57 5 58
4 44 194 104 144
4 96 194 62 98
4 2 0 5 3
4 93 73 185 72
4 179 119 1 4
4 200 77 90 46
4 114 33 113 107
4 7 10 14 11
4 96 62 57 58
4 133 213 0 3
4 102 90 101 46
4 256 255 10 11
4 63 62 249 98
4 114 47 77 46
4 179 1 255 11
4 211 249 165 98
4 114 77 33 168
4 198 79 88 87
4 8 14 1 11
CELL_TYPES 256
8
8
8
8
8
8
8
8
8
8
8
8
8
8
8
8
8
8
8
8
8
8
8
8
8
8
8
8
8
8
8
8
8
8
8
8
8
8
8
8
8
8
8
8
8
8
8
8
8
8
8
8
8
8
8
8
8
8
8
8
8
8
8
8
8
8
8
8
8
8
8
8
8
8
8
8
8
8
8
8
8
8
8
8
8
8
8
8
8
8
8
8
8
8
8
8
8
8
8
8
8
8
8
8
8
8
8
8
8
8
8
8
8
8
8
8
8
8
8
8
8
8
8
8
8
8
8
8
8
8
8
8
8
8
8
8
8
8
8
8
8
8
8
8
8
8
8
8
8
8
8
8
8
8
8
8
8
8
8
8
8
8
8
8
8
8
8
8
8
8
8
8
8
8
8
8
8
8
8
8
8
8
8
8
8
8
8
8
8
8
8
8
8
8
8
8
8
8
8
8
8
8
8
8
8
8
8
8
8
8
8
8
8
8
8
8
8
8
8
8
8
8
8
8
8
8
8
8
8
8
8
8
8
8
8
8
8
8
8
8
8
8
8
8
8
8
8
8
8
8
8
8
8
8
8
8
CELL_DATA 256
VECTORS vector_value float
-0.426564 -2.95873 0
-0.0888999 -0.469918 0
-0.0266427 -0.379659 0
-0.0339999 -1.4654 0
-1.34211 -1.89209 0
-0.0699707 -0.711273 0
-0.110439 -1.40006 0
-0.142425 -1.10512 0
0.0520081 -0.374954 0
-1.7808 -3.38458 0
-0.706493 -1.79031 0
-0.387731 -0.903564 0
-0.353969 -1.54841 0
-0.197716 -1.98182 0
-0.138899 -0.477868 0
-2.30877 -2.00384 0
-2.2915 -2.5696 0
-0.312512 -1.58659 0
-1.27652 -3.0274 0
-0.023079 -0.227468 0
-0.678909 -2.20274 0
-1.52444 -1.74315 0
0.812587 -3.7544 0
-0.0464981 -2.369 0
-0.616284 -2.03478 0
-1.48695 -2.28991 0
-0.508603 -2.23619 0
-0.325984 -0.541888 0
0.176173 -2.272 0
-0.451881 -0.952087 0
-0.0977351 -2.92342 0
-1.30484 -2.40653 0
-0.173745 -2.39061 0
0.248833 -0.854259 0
-1.28838 -1.22599 0
-0.44361 -0.995549 0
-0.94343 -1.62752 0
-0.958094 -1.7521 0
0.0675811 -2.5191 0
0.128312 -1.15295 0
-0.213304 -3.81951 0
-0.259175 -0.789183 0
-1.08656 -0.726388 0
0.0097653 -0.294227 0
0.0335005 -0.280797 0
-0.129124 -1.63228 0
-0.507992 -1.19526 0
0.0327281 -0.847342 0
-0.553369 -1.15407 0
-2.73947 -1.20227 0
-0.0231511 -0.350974 0
-0.600688 -1.42685 0
0.106718 -0.911346 0
-0.0363728 -1.27642 0
-2.1684 -3.56033 0
-1.12575 -2.06215 0
-0.0108376 -0.23715 0
0.0271258 -0.250063 0
-2.67473 -2.69736 0
-0.0216556 -0.447432 0
-0.0037319 -0.285022 0
-0.88021 -1.50924 0
-1.0422 -1.80588 0
0.0362979 -0.34868 0
0.474759 -0.794102 0
-0.361941 -1.62782 0
-1.62614 -2.01624 0
-0.490007 -0.912033 0
0.583414 -0.494106 0
0.621444 -4.65017 0
0.896044 -0.67443 0
0.303172 -0.43285 0
0.299825 -0.869424 0
0.309553 -0.625992 0
0.879405 -0.409966 0
-0.480334 -4.92116 0
0.550822 -1.19315 0
-0.0504308 -1.69611 0
0.775325 -0.887241 0
0.124928 -0.19561 0
-0.0425275 -1.2688 0
0.0446551 -0.393742 0
0.233661 -0.164249 0
0.276638 -1.10719 0
0.0362026 -0.450554 0
-0.731634 -1.26059 0
0.0171191 -2.99827 0
0.138275 -0.722305 0
0.966244 -0.525015 0
1.23894 -0.746144 0
0.329484 -1.46567 0
0.691035 -0.648203 0
0.279971 -0.295601 0
0.144058 -1.5421 0
0.0593307 -0.318362 0
0.284614 -0.57731 0
0.19491 -0.390618 0
-0.0744499 -0.603948 0
-0.629849 -0.769607 0
0.146509 -0.40417 0
0.364911 -0.369942 0
-0.333109 -3.02915 0
0.541901 -0.345714 0
0.22356 -1.07644 0
0.410679 -0.254059 0
-1.57383 -3.38224 0
0.401599 -1.30895 0
-0.0552634 -3.37441 0
0.944629 -0.732077 0
0.0789339 -0.603141 0
0.406593 -0.690496 0
0.543229 -0.427047 0
0.0389272 -0.732111 0
0.0317315 -0.301064 0
0.220594 -0.329398 0
0.192795 -0.774105 0
0.203384 -0.338989 0
0.0674179 -0.316379 0
-0.0368391 -0.415456 0
0.20974 -0.503619 0
-0.281703 -1.31087 0
0.0785744 -0.270199 0
0.0370591 -0.389934 0
1.13786 -1.0801 0
-0.251535 -1.55446 0
-0.108528 -0.534276 0
0.304474 -0.344736 0
0.683464 -0.751695 0
0.203255 -5.86638 0
0.0564164 -0.270022 0
-0.165269 -0.784795 0
-0.173999 -0.452032 0
-0.425873 -1.07091 0
0.144777 -0.192929 0
0.032641 -0.0360541 0
0.142781 -0.205663 0
0.00058644 -0.0330868 0
-0.104341 -0.49447 0
0.0146682 -0.0817434 0
0.0798809 -0.222863 0
0.00312418 -0.129152 0
0.00389988 -0.103577 0
-0.0549953 -0.104738 0
0.0020348 -0.0141765 0
0.0726449 -0.0503192 0
0.0161136 -0.0167551 0
-0.0340398 -0.199686 0
0.0656017 -0.0936658 0
-0.0350449 -0.055804 0
0.0210347 -0.119165 0
0.00646733 -0.0172043 0
0.285758 -0.647845 0
-0.104051 -0.683011 0
-0.0341038 -0.136889 0
-0.0361312 -0.242984 0
-0.0737484 -0.286193 0
0.00331372 -0.0373931 0
-0.0557798 -0.0642052 0
-0.000540654 -0.0595078 0
0.100868 -0.299831 0
-1.16113 -4.61286 0
-0.427035 -1.63571 0
-0.0117419 -0.0517459 0
0.0542908 -0.0738612 0
-0.0261518 -0.146005 0
0.00428709 -0.149879 0
0.00837838 -0.0274389 0
0.213719 -0.649339 0
-0.000905007 -0.0138032 0
-0.0575015 -0.112907 0
-0.011208 -0.0907475 0
-0.00963946 -0.0255972 0
0.0136213 -0.110505 0
-0.0191301 -0.0409997 0
-0.0223631 -0.0678154 0
0.0687868 -0.202239 0
0.0167076 -0.0508519 0
0.068337 -0.823612 0
-0.0023602 -0.0234675 0
-0.040724 -0.0602535 0
0.00649449 -0.0626359 0
-0.0280498 -0.196704 0
0.0481566 -0.0397744 0
0.0351256 -0.284266 0
-0.451499 -1.91402 0
0.764587 -5.25156 0
-0.0012301 -0.0363445 0
-0.00858594 -0.0245587 0
-0.00973298 -0.179163 0
-0.0286715 -0.0755645 0
-0.0827669 -0.190307 0
0.0813421 -0.0893827 0
-0.0126253 -0.0274272 0
-0.0146311 -0.107705 0
0.0118147 -0.0366572 0
-0.0114773 -0.0138739 0
0.0376543 -0.0972052 0
-1.40344 -0.611045 0
-0.728941 -0.798415 0
-0.00791674 -0.0233952 0
0.0299729 -0.0281071 0
-2.40487 -2.37754 0
-0.559058 -0.487698 0
-0.00540734 -0.0206443 0
-0.644684 -0.739101 0
0.289241 -1.70806 0
0.77016 -0.901925 0
-0.00223316 -0.00773037 0
-0.686219 -3.6766 0
-2.71971 -1.98735 0
0.116353 -0.0915884 0
-2.19575 -2.23481 0
0.16345 -2.43528 0
-0.015485 -0.0860892 0
-0.0698115 -0.0639963 0
-0.411087 -1.17701 0
-0.138715 -0.182768 0
-0.878254 -1.501 0
0.31456 -3.88427 0
0.84654 -2.10127 0
-0.000724507 -0.00894546 0
-0.47949 -0.474297 0
0.0417674 -0.117192 0
-0.143047 -0.264535 0
-0.343932 -0.500049 0
0.113417 -1.74202 0
0.00248757 -0.0115696 0
-1.55734 -3.71504 0
0.203289 -1.20462 0
0.00979761 -0.0143459 0
-1.15299 -1.76084 0
-1.26783 -1.44427 0
0.0504575 -0.0595277 0
0.0370239 -0.202289 0
0.00738317 -0.0206856 0
-0.112095 -0.297977 0
0.364809 -1.94537 0
-0.0868436 -0.0746798 0
-1.12202 -2.23502 0
0.978211 -1.32222 0
-0.0027152 -0.0119495 0
-1.39956 -3.26031 0
-0.00365057 -0.0224769 0
0.0554481 -0.106999 0
-2.85695 -2.42874 0
-0.246209 -2.22266 0
1.49808 -1.12177 0
-0.0101173 -0.0373954 0
-2.68193 -2.08738 0
-0.984148 -1.42026 0
-0.013444 -0.0270984 0
-2.03976 -2.35817 0
-1.81608 -1.09883 0
0.00287268 -0.033956 0
0.0029055 -0.0617704 0
-2.16649 -2.28228 0
