# vtk DataFile Version 2.0
Unstructured Grid by M++
ASCII
DATASET UNSTRUCTURED_GRID
POINTS 81 float
  1.000000   0.625000 0
  0.750000   0.375000 0
  1.000000   0.000000 0
  0.875000   0.875000 0
  0.750000   0.125000 0
  1.000000   1.000000 0
  0.875000   0.250000 0
  0.625000   0.875000 0
  1.000000   0.750000 0
  0.875000   0.000000 0
  1.000000   0.250000 0
  0.625000   0.375000 0
  0.875000   0.500000 0
  0.625000   0.625000 0
  1.000000   0.500000 0
  0.750000   0.500000 0
  0.750000   1.000000 0
  1.000000   0.125000 0
  0.625000   0.250000 0
  0.750000   0.750000 0
  0.625000   0.000000 0
  0.125000   0.375000 0
  0.000000   0.500000 0
  0.125000   0.625000 0
  0.625000   1.000000 0
  1.000000   0.875000 0
  0.875000   0.125000 0
  0.500000   0.250000 0
  0.625000   0.500000 0
  0.250000   0.625000 0
  0.000000   0.625000 0
  0.375000   0.500000 0
  0.375000   0.000000 0
  0.000000   0.125000 0
  0.125000   0.875000 0
  0.875000   1.000000 0
  0.750000   0.250000 0
  0.375000   0.375000 0
  0.250000   0.375000 0
  0.625000   0.750000 0
  0.125000   0.125000 0
  0.500000   0.000000 0
  0.250000   0.875000 0
  0.125000   0.500000 0
  0.500000   0.375000 0
  0.125000   0.000000 0
  0.250000   0.750000 0
  0.250000   0.500000 0
  0.000000   0.875000 0
  0.875000   0.625000 0
  0.500000   0.750000 0
  0.750000   0.625000 0
  0.250000   0.000000 0
  0.375000   0.750000 0
  0.750000   0.875000 0
  0.625000   0.125000 0
  0.250000   0.250000 0
  0.375000   1.000000 0
  0.375000   0.250000 0
  0.000000   0.375000 0
  0.500000   1.000000 0
  0.875000   0.750000 0
  0.750000   0.000000 0
  0.375000   0.125000 0
  0.500000   0.875000 0
  0.000000   0.000000 0
  0.125000   0.750000 0
  0.500000   0.625000 0
  0.125000   0.250000 0
  0.500000   0.125000 0
  0.250000   1.000000 0
  0.250000   0.125000 0
  0.000000   1.000000 0
  0.375000   0.875000 0
  0.000000   0.750000 0
  0.375000   0.625000 0
  0.000000   0.250000 0
  0.125000   1.000000 0
  1.000000   0.375000 0
  0.500000   0.500000 0
  0.875000   0.375000 0
CELLS 64 320
4 56 71 58 63
4 27 58 69 63
4 41 69 32 63
4 76 33 68 40
4 27 44 58 37
4 79 31 44 37
4 56 38 68 21
4 56 58 38 37
4 52 32 71 63
4 47 38 31 37
4 76 68 59 21
4 22 59 43 21
4 65 45 33 40
4 47 43 38 21
4 52 71 45 40
4 56 68 71 40
4 74 30 66 23
4 46 66 29 23
4 22 43 30 23
4 72 48 77 34
4 46 53 42 73
4 50 64 53 73
4 70 42 57 73
4 74 66 48 34
4 46 42 66 34
4 47 29 43 23
4 70 77 42 34
4 60 57 64 73
4 79 67 31 75
4 47 31 29 75
4 50 53 67 75
4 46 29 53 75
4 10 78 6 80
4 36 6 1 80
4 15 1 12 80
4 36 4 6 26
4 14 12 78 80
4 2 17 9 26
4 36 18 4 55
4 15 28 1 11
4 62 4 20 55
4 10 6 17 26
4 27 18 44 11
4 62 9 4 26
4 27 69 18 55
4 36 1 18 11
4 41 20 69 55
4 79 44 28 11
4 16 24 54 7
4 19 54 39 7
4 50 39 64 7
4 8 25 61 3
4 60 64 24 7
4 79 28 67 13
4 19 51 61 49
4 8 61 0 49
4 15 51 28 13
4 19 39 51 13
4 50 67 39 13
4 19 61 54 3
4 14 0 12 49
4 5 35 25 3
4 15 12 51 49
4 16 54 35 3
CELL_TYPES 64
8
8
8
8
8
8
8
8
8
8
8
8
8
8
8
8
8
8
8
8
8
8
8
8
8
8
8
8
8
8
8
8
8
8
8
8
8
8
8
8
8
8
8
8
8
8
8
8
8
8
8
8
8
8
8
8
8
8
8
8
8
8
8
8
CELL_DATA 64
VECTORS vector_value float
-1.02634 -2.32983 0
-0.582359 -0.710131 0
-0.387364 -1.42756 0
-0.0692354 -0.570647 0
-2.2776 -1.68283 0
-0.124274 -1.08586 0
-0.222188 -1.24858 0
-0.871456 -0.624869 0
0.0994869 -2.83329 0
-0.0351225 -0.362613 0
0.12405 -0.819057 0
0.0285119 -0.883129 0
-0.0715681 -0.882509 0
0.0215795 -0.784972 0
-0.00258129 -1.40215 0
-0.0807629 -1.97385 0
-0.116719 -0.622597 0
-0.238537 -0.607892 0
-0.1072 -0.973458 0
0.331298 -0.470742 0
0.225495 -1.20569 0
0.621671 -1.5327 0
0.587739 -1.46066 0
-0.0723195 -0.341353 0
-0.0857662 -0.80917 0
-0.199024 -0.615511 0
0.723265 -1.05472 0
0.0960832 -1.14085 0
0.0311497 -0.814438 0
-0.028348 -0.525762 0
0.226399 -1.02997 0
-0.136182 -0.942926 0
-0.0196923 -0.0537222 0
-0.448516 -0.737179 0
-1.88177 -1.98998 0
-0.0455288 -0.329721 0
-0.661441 -0.953637 0
0.0391676 -0.0948948 0
-0.21658 -0.76107 0
-0.560768 -0.712563 0
0.00134707 -0.754158 0
0.000451279 -0.0242878 0
-1.99739 -1.18441 0
0.015085 -0.229455 0
-0.811306 -1.30046 0
-2.06211 -1.64935 0
-0.0603166 -0.375986 0
-0.240218 -1.22725 0
0.206275 -1.05147 0
0.460783 -0.676717 0
0.389476 -0.934683 0
0.641525 -1.71254 0
0.0215249 -0.80394 0
0.0547989 -1.37837 0
0.509275 -0.754453 0
0.268354 -2.42947 0
0.0879412 -0.268172 0
0.284764 -0.248847 0
0.399879 -1.36384 0
0.682986 -0.787145 0
-0.571033 -2.37195 0
-0.143357 -0.703585 0
-0.331728 -1.05234 0
0.212333 -1.31403 0
