# vtk DataFile Version 2.0
Unstructured Grid by M++
ASCII
DATASET UNSTRUCTURED_GRID
POINTS 289 float
  0.562500   1.000000 0
  0.562500   0.625000 0
  0.625000   1.000000 0
  0.562500   0.937500 0
  0.562500   0.562500 0
  0.625000   0.937500 0
  0.562500   0.875000 0
  0.625000   0.750000 0
  0.625000   0.625000 0
  0.562500   0.812500 0
  0.562500   0.750000 0
  0.562500   0.687500 0
  0.625000   0.875000 0
  0.625000   0.812500 0
  0.625000   0.687500 0
  0.687500   0.125000 0
  0.875000   0.062500 0
  0.625000   0.125000 0
  0.625000   0.187500 0
  0.625000   0.250000 0
  0.812500   0.187500 0
  1.000000   0.125000 0
  0.687500   0.187500 0
  0.750000   0.125000 0
  0.937500   0.062500 0
  0.937500   0.125000 0
  0.750000   0.187500 0
  0.812500   0.062500 0
  0.812500   0.125000 0
  0.875000   0.687500 0
  0.187500   0.250000 0
  0.437500   0.250000 0
  0.375000   0.187500 0
  0.812500   0.625000 0
  0.125000   0.187500 0
  0.937500   0.750000 0
  0.250000   0.312500 0
  0.500000   0.312500 0
  0.625000   0.062500 0
  0.437500   0.500000 0
  0.375000   0.125000 0
  0.437500   0.187500 0
  0.437500   0.437500 0
  0.437500   0.375000 0
  0.875000   0.875000 0
  0.187500   0.375000 0
  0.687500   0.562500 0
  0.687500   0.625000 0
  0.000000   0.125000 0
  0.937500   0.625000 0
  0.250000   0.125000 0
  0.375000   0.062500 0
  0.375000   0.000000 0
  0.812500   0.500000 0
  0.125000   0.000000 0
  0.937500   0.937500 0
  0.250000   0.437500 0
  0.687500   0.875000 0
  0.687500   0.937500 0
  0.000000   0.437500 0
  0.500000   0.500000 0
  0.500000   0.437500 0
  0.750000   0.937500 0
  0.750000   1.000000 0
  0.062500   0.500000 0
  1.000000   1.000000 0
  0.312500   0.500000 0
  0.875000   0.562500 0
  0.187500   0.062500 0
  0.437500   0.125000 0
  0.437500   0.062500 0
  0.500000   0.375000 0
  0.937500   0.812500 0
  0.937500   0.875000 0
  0.250000   0.375000 0
  0.687500   0.812500 0
  0.000000   0.375000 0
  0.750000   0.562500 0
  0.062500   0.125000 0
  1.000000   0.562500 0
  1.000000   0.625000 0
  0.312500   0.125000 0
  0.562500   0.125000 0
  0.437500   0.000000 0
  0.875000   0.437500 0
  0.875000   0.500000 0
  0.187500   0.000000 0
  0.937500   0.562500 0
  0.937500   0.500000 0
  0.250000   0.062500 0
  0.687500   0.500000 0
  0.000000   0.062500 0
  0.500000   0.062500 0
  1.000000   0.875000 0
  1.000000   0.937500 0
  0.312500   0.437500 0
  0.750000   0.875000 0
  0.062500   0.437500 0
  0.812500   0.937500 0
  0.125000   0.500000 0
  0.375000   0.500000 0
  0.625000   0.562500 0
  0.625000   0.500000 0
  0.437500   0.312500 0
  0.875000   0.812500 0
  0.875000   0.750000 0
  0.187500   0.312500 0
  0.812500   0.687500 0
  0.812500   0.750000 0
  0.125000   0.250000 0
  0.375000   0.250000 0
  1.000000   0.687500 0
  0.312500   0.187500 0
  0.750000   0.687500 0
  0.750000   0.625000 0
  0.062500   0.187500 0
  0.562500   0.250000 0
  0.562500   0.187500 0
  0.375000   1.000000 0
  0.500000   0.562500 0
  0.500000   0.250000 0
  0.750000   0.250000 0
  0.500000   0.125000 0
  0.500000   0.187500 0
  1.000000   0.187500 0
  0.625000   0.375000 0
  0.875000   0.375000 0
  1.000000   0.437500 0
  0.312500   0.000000 0
  0.562500   0.000000 0
  0.812500   0.000000 0
  0.250000   0.687500 0
  0.000000   0.687500 0
  0.500000   1.000000 0
  0.250000   1.000000 0
  0.000000   1.000000 0
  0.437500   0.687500 0
  0.437500   0.625000 0
  0.187500   0.625000 0
  0.687500   0.750000 0
  0.000000   0.312500 0
  0.000000   0.250000 0
  0.375000   0.375000 0
  0.375000   0.312500 0
  0.812500   0.812500 0
  0.125000   0.312500 0
  0.875000   0.625000 0
  0.187500   0.187500 0
  0.187500   0.125000 0
  0.937500   1.000000 0
  0.250000   0.562500 0
  0.250000   0.500000 0
  0.687500   1.000000 0
  0.000000   0.500000 0
  0.687500   0.687500 0
  0.000000   0.187500 0
  0.937500   0.687500 0
  0.250000   0.250000 0
  0.250000   0.187500 0
  0.187500   0.687500 0
  0.000000   0.750000 0
  0.250000   0.750000 0
  0.125000   0.625000 0
  0.750000   0.750000 0
  0.062500   0.250000 0
  0.875000   0.937500 0
  0.187500   0.500000 0
  0.187500   0.437500 0
  0.812500   0.562500 0
  0.125000   0.125000 0
  0.125000   0.062500 0
  0.375000   0.625000 0
  0.375000   0.687500 0
  1.000000   0.750000 0
  0.312500   0.250000 0
  0.312500   0.312500 0
  0.812500   0.312500 0
  0.562500   0.312500 0
  0.375000   0.750000 0
  0.500000   0.625000 0
  0.250000   0.625000 0
  0.312500   0.687500 0
  0.750000   0.812500 0
  0.062500   0.312500 0
  0.062500   0.375000 0
  1.000000   0.812500 0
  0.312500   0.375000 0
  0.562500   0.375000 0
  0.687500   0.437500 0
  0.000000   0.000000 0
  0.500000   0.000000 0
  0.937500   0.437500 0
  0.250000   0.000000 0
  0.375000   0.437500 0
  0.812500   0.875000 0
  0.125000   0.375000 0
  0.125000   0.437500 0
  0.625000   0.437500 0
  1.000000   0.500000 0
  0.312500   0.062500 0
  0.750000   0.500000 0
  0.062500   0.000000 0
  0.062500   0.062500 0
  0.562500   0.062500 0
  0.062500   0.750000 0
  0.312500   0.750000 0
  0.312500   0.625000 0
  0.312500   0.562500 0
  0.062500   0.562500 0
  0.187500   1.000000 0
  0.437500   0.562500 0
  0.875000   1.000000 0
  0.187500   0.562500 0
  0.500000   0.937500 0
  0.250000   0.937500 0
  0.312500   1.000000 0
  0.125000   0.750000 0
  0.125000   0.687500 0
  1.000000   0.000000 0
  0.000000   0.937500 0
  0.000000   0.875000 0
  0.875000   0.125000 0
  0.875000   0.187500 0
  0.062500   0.812500 0
  0.312500   0.812500 0
  0.000000   0.812500 0
  0.000000   0.625000 0
  0.000000   0.562500 0
  0.062500   1.000000 0
  0.062500   0.937500 0
  0.937500   0.187500 0
  0.937500   0.250000 0
  0.062500   0.687500 0
  0.062500   0.625000 0
  0.125000   1.000000 0
  1.000000   0.250000 0
  1.000000   0.312500 0
  0.062500   0.875000 0
  0.125000   0.812500 0
  0.375000   0.812500 0
  0.125000   0.875000 0
  0.375000   0.937500 0
  0.375000   0.875000 0
  0.187500   0.750000 0
  0.187500   0.812500 0
  0.437500   0.812500 0
  0.187500   0.875000 0
  0.437500   0.875000 0
  0.375000   0.562500 0
  0.812500   1.000000 0
  0.125000   0.562500 0
  0.437500   1.000000 0
  0.437500   0.937500 0
  0.187500   0.937500 0
  0.125000   0.937500 0
  0.500000   0.687500 0
  0.500000   0.750000 0
  0.500000   0.812500 0
  0.250000   0.812500 0
  0.250000   0.875000 0
  0.500000   0.875000 0
  0.437500   0.750000 0
  0.312500   0.875000 0
  0.312500   0.937500 0
  0.687500   0.250000 0
  0.687500   0.312500 0
  0.937500   0.312500 0
  0.875000   0.250000 0
  0.625000   0.000000 0
  0.875000   0.000000 0
  0.687500   0.375000 0
  0.937500   0.375000 0
  0.875000   0.312500 0
  0.625000   0.312500 0
  0.687500   0.000000 0
  0.937500   0.000000 0
  0.750000   0.312500 0
  0.750000   0.375000 0
  1.000000   0.375000 0
  0.812500   0.250000 0
  0.562500   0.437500 0
  0.562500   0.500000 0
  0.687500   0.062500 0
  0.750000   0.437500 0
  0.750000   0.000000 0
  0.750000   0.062500 0
  1.000000   0.062500 0
  0.812500   0.375000 0
  0.812500   0.437500 0
CELLS 256 1280
4 169 170 148 68
4 151 166 56 167
4 195 45 196 167
4 54 170 201 202
4 109 34 30 147
4 40 32 81 112
4 192 89 86 68
4 48 91 78 202
4 99 64 196 97
4 71 43 37 103
4 74 186 56 95
4 109 164 34 115
4 50 81 158 112
4 122 69 92 70
4 195 145 45 106
4 110 143 174 175
4 157 30 158 147
4 40 69 32 41
4 50 158 148 147
4 141 155 164 115
4 122 123 69 41
4 142 186 143 175
4 60 39 61 42
4 40 51 69 70
4 120 31 123 41
4 157 174 36 175
4 50 148 89 68
4 48 78 155 115
4 52 83 51 70
4 151 56 66 95
4 71 61 43 42
4 169 148 34 147
4 100 193 39 42
4 40 81 51 199
4 110 174 32 112
4 109 30 145 106
4 100 66 193 95
4 169 34 78 115
4 190 92 83 70
4 50 89 81 199
4 54 86 170 68
4 74 56 45 167
4 142 143 43 103
4 153 59 64 97
4 99 196 166 167
4 169 78 170 202
4 142 193 186 95
4 192 128 89 199
4 74 45 36 106
4 110 31 143 103
4 76 184 59 97
4 142 43 193 42
4 52 51 128 199
4 189 201 91 202
4 120 37 31 103
4 74 36 186 175
4 195 196 184 97
4 141 164 140 183
4 157 158 174 112
4 109 145 164 183
4 195 184 145 183
4 110 32 31 41
4 157 36 30 106
4 76 140 184 183
4 171 172 206 181
4 178 172 261 136
4 256 261 255 136
4 256 257 261 245
4 180 150 206 207
4 60 119 39 210
4 118 215 241 263
4 178 205 172 181
4 216 243 238 244
4 162 217 233 232
4 180 206 131 181
4 179 137 119 210
4 216 204 217 232
4 220 237 219 229
4 216 217 243 159
4 259 258 262 224
4 240 254 237 229
4 153 64 227 208
4 161 205 258 224
4 240 237 238 223
4 226 227 233 208
4 234 228 254 229
4 171 248 137 210
4 160 132 204 232
4 180 131 138 159
4 133 251 213 252
4 171 206 248 207
4 162 138 217 159
4 161 258 243 244
4 220 225 237 223
4 151 150 166 212
4 260 247 257 245
4 259 262 214 263
4 151 66 150 207
4 234 254 209 253
4 162 233 250 208
4 242 241 262 263
4 171 137 172 136
4 161 243 131 159
4 160 204 225 223
4 161 131 205 181
4 179 255 137 136
4 216 238 204 223
4 100 39 248 210
4 260 213 247 252
4 226 233 132 232
4 134 214 215 263
4 180 138 150 212
4 178 261 239 245
4 259 246 258 244
4 178 239 205 224
4 240 238 246 244
4 242 262 239 224
4 99 250 64 208
4 240 246 254 253
4 242 239 247 245
4 135 219 228 229
4 99 166 250 212
4 259 214 246 253
4 118 241 251 252
4 100 248 66 207
4 134 209 214 253
4 162 250 138 212
4 242 247 241 252
4 71 187 61 280
4 102 281 197 280
4 122 92 82 203
4 17 18 82 117
4 122 82 123 117
4 19 264 273 265
4 267 279 222 20
4 125 273 270 265
4 267 272 279 176
4 19 116 18 117
4 21 25 286 24
4 23 28 26 20
4 23 285 28 27
4 218 286 275 24
4 85 53 84 288
4 235 236 231 266
4 221 222 28 20
4 267 222 231 230
4 268 38 129 203
4 125 270 197 188
4 126 287 272 176
4 277 270 276 265
4 267 231 272 266
4 125 197 187 280
4 190 129 92 203
4 277 276 287 176
4 19 18 264 22
4 17 82 38 203
4 102 197 90 188
4 126 84 287 288
4 284 130 285 27
4 121 276 264 265
4 71 37 187 177
4 120 123 116 117
4 198 88 127 191
4 221 16 25 24
4 23 26 15 22
4 121 279 276 176
4 235 231 124 230
4 125 187 273 177
4 278 271 236 266
4 277 287 283 288
4 284 285 274 282
4 278 127 271 191
4 269 275 16 24
4 200 283 53 288
4 23 15 285 282
4 121 26 279 20
4 21 124 25 230
4 19 273 116 177
4 200 90 283 188
4 126 271 84 191
4 269 16 130 27
4 17 38 15 282
4 221 25 222 230
4 121 264 26 22
4 120 116 37 177
4 60 61 281 280
4 277 283 270 188
4 126 272 271 266
4 268 274 38 282
4 85 84 88 191
4 17 15 18 22
4 221 28 16 27
4 93 94 73 55
4 85 88 67 87
4 80 49 79 87
4 44 104 73 72
4 146 33 67 168
4 211 165 149 55
4 8 47 14 154
4 105 104 108 144
4 105 108 29 107
4 7 139 13 75
4 44 165 194 98
4 200 53 77 168
4 8 1 101 4
4 2 5 152 58
4 260 6 213 3
4 105 35 104 72
4 96 57 182 75
4 7 14 139 154
4 146 29 33 107
4 7 13 10 9
4 12 13 57 75
4 85 67 53 168
4 44 73 165 55
4 63 152 62 58
4 8 101 47 46
4 96 182 194 144
4 60 281 119 4
4 12 5 6 3
4 173 185 35 72
4 65 149 94 55
4 146 67 49 87
4 114 113 47 154
4 163 108 182 144
4 12 6 13 9
4 173 35 111 156
4 163 182 139 75
4 260 257 6 9
4 105 29 35 156
4 163 139 113 154
4 256 10 257 9
4 146 49 29 156
4 163 113 108 107
4 80 111 49 156
4 102 101 281 4
4 12 57 5 58
4 44 194 104 144
4 96 194 62 98
4 2 0 5 3
4 93 73 185 72
4 179 119 1 4
4 200 77 90 46
4 114 33 113 107
4 7 10 14 11
4 96 62 57 58
4 133 213 0 3
4 102 90 101 46
4 256 255 10 11
4 63 62 249 98
4 114 47 77 46
4 179 1 255 11
4 211 249 165 98
4 114 77 33 168
4 198 79 88 87
4 8 14 1 11
CELL_TYPES 256
8
8
8
8
8
8
8
8
8
8
8
8
8
8
8
8
8
8
8
8
8
8
8
8
8
8
8
8
8
8
8
8
8
8
8
8
8
8
8
8
8
8
8
8
8
8
8
8
8
8
8
8
8
8
8
8
8
8
8
8
8
8
8
8
8
8
8
8
8
8
8
8
8
8
8
8
8
8
8
8
8
8
8
8
8
8
8
8
8
8
8
8
8
8
8
8
8
8
8
8
8
8
8
8
8
8
8
8
8
8
8
8
8
8
8
8
8
8
8
8
8
8
8
8
8
8
8
8
8
8
8
8
8
8
8
8
8
8
8
8
8
8
8
8
8
8
8
8
8
8
8
8
8
8
8
8
8
8
8
8
8
8
8
8
8
8
8
8
8
8
8
8
8
8
8
8
8
8
8
8
8
8
8
8
8
8
8
8
8
8
8
8
8
8
8
8
8
8
8
8
8
8
8
8
8
8
8
8
8
8
8
8
8
8
8
8
8
8
8
8
8
8
8
8
8
8
8
8
8
8
8
8
8
8
8
8
8
8
8
8
8
8
8
8
8
8
8
8
8
8
8
8
8
8
8
8
CELL_DATA 256
VECTORS vector_value float
-0.27301 -0.498391 0
-0.113013 -0.264443 0
-0.291005 -0.395353 0
0.0625812 -2.63025 0
-0.688463 -1.24058 0
-0.440118 -0.951471 0
-0.0449631 -0.176013 0
0.0889529 -1.69975 0
-0.0102407 -0.385048 0
-0.0406933 -4.81575 0
-0.610862 -0.63679 0
-0.627885 -1.06325 0
-0.270249 -0.168042 0
0.230806 -1.31705 0
-0.71333 -1.09221 0
-0.499765 -0.853817 0
-0.633349 -0.566959 0
-0.356253 -4.22741 0
-0.465508 -0.286004 0
-0.282248 -0.99979 0
0.289493 -1.513 0
-0.31289 -1.05247 0
1.3309 -4.93737 0
-0.40662 -3.00314 0
0.0140293 -1.88081 0
-0.612121 -0.390714 0
-0.095226 -0.134389 0
-0.248857 -1.53638 0
-0.149656 -2.22488 0
-0.322221 -0.930451 0
0.452528 -5.02958 0
-0.933701 -1.01045 0
1.596 -3.9952 0
-0.70423 -1.69324 0
-0.504361 -0.883984 0
-0.41625 -1.27507 0
0.468419 -2.19262 0
-0.760103 -1.4726 0
0.0620575 -0.90993 0
-0.192889 -0.245673 0
-0.0364735 -0.379518 0
-0.846409 -0.712086 0
-0.192611 -2.91787 0
0.0208074 -0.368188 0
-0.0502727 -0.193879 0
-0.268202 -2.17322 0
-0.27954 -1.44746 0
-0.306513 -0.742993 0
-0.755248 -0.583118 0
-1.04292 -3.48751 0
0.0278001 -0.274855 0
0.144033 -3.23795 0
-0.384576 -1.90249 0
0.0474653 -1.40755 0
-0.889091 -3.89536 0
-0.59321 -0.471429 0
-0.0132218 -0.550356 0
-0.106577 -0.524241 0
-0.432132 -0.223142 0
-0.281726 -0.880027 0
-0.265289 -0.68631 0
-0.623814 -4.66918 0
-0.505485 -0.55469 0
-0.0613576 -0.287351 0
0.72166 -4.49254 0
-1.16892 -2.20768 0
-1.48469 -0.945216 0
-1.40607 -1.32671 0
0.909134 -2.09072 0
0.742412 -3.55269 0
-0.346023 -0.70128 0
0.000723278 -2.62905 0
0.531595 -1.47678 0
0.304399 -0.560842 0
1.19263 -1.18402 0
-0.203017 -1.63497 0
0.563001 -1.0958 0
0.132206 -1.12582 0
1.28193 -1.46393 0
-0.155232 -0.651195 0
0.135907 -1.34638 0
-0.0126539 -0.352756 0
0.408789 -0.746716 0
0.145624 -1.70215 0
-0.0131466 -0.311879 0
-0.384438 -1.12706 0
0.694118 -3.45521 0
0.0520669 -0.656231 0
1.64256 -1.28157 0
0.198739 -0.9112 0
0.793501 -4.26834 0
0.720332 -0.781864 0
0.750468 -1.08899 0
0.155544 -0.764534 0
0.0895665 -0.277646 0
-1.26593 -1.64712 0
-0.47374 -0.686595 0
0.442731 -1.20474 0
-0.601859 -1.15843 0
-0.00560089 -0.404097 0
-0.216291 -0.478547 0
-0.151948 -2.75629 0
1.13227 -1.06861 0
0.0361076 -0.57504 0
1.05344 -1.2159 0
-0.296228 -0.629412 0
0.211337 -2.04826 0
1.87409 -3.77772 0
-0.143551 -1.37331 0
0.0920013 -0.430802 0
-0.553461 -1.01695 0
0.247733 -0.35212 0
-1.44623 -1.50709 0
-0.149436 -0.795415 0
-0.440974 -1.33741 0
-0.118677 -2.09351 0
-0.235559 -0.432864 0
-0.0183882 -0.369624 0
-0.271574 -1.65447 0
-0.670592 -0.811019 0
-0.123976 -1.27788 0
0.00403036 -0.200812 0
-0.657721 -0.958205 0
0.0196562 -0.771627 0
1.52836 -3.65786 0
-0.609058 -0.823021 0
0.123093 -0.389942 0
0.0054764 -0.412923 0
0.752878 -1.47836 0
0.127259 -0.323278 0
0.296714 -0.70252 0
0.1427 -0.380362 0
0.334728 -0.640775 0
0.479655 -0.248221 0
0.104794 -1.10519 0
1.07223 -0.268875 0
0.316462 -1.10072 0
0.292483 -0.433639 0
0.0739975 -0.652866 0
0.0055152 -0.408413 0
-0.0247362 -0.31765 0
0.0191618 -0.752295 0
-0.0482701 -0.208769 0
0.0131904 -0.292394 0
0.070555 -0.993263 0
0.12932 -1.36299 0
0.0324778 -0.763444 0
0.390692 -0.13324 0
0.736337 -0.766853 0
0.987314 -0.0761992 0
0.157606 -1.17952 0
0.680906 -0.496384 0
0.150984 -0.94427 0
1.12046 -0.467689 0
0.147683 -0.239228 0
0.183374 -0.623457 0
0.196339 -0.159686 0
0.299104 -0.507827 0
-0.0250415 -0.483281 0
0.38376 -0.167361 0
0.381482 -1.10405 0
0.270839 -0.464076 0
-0.100723 -0.288526 0
0.047607 -1.19253 0
0.0316945 -0.243026 0
0.233588 -0.307358 0
0.0385341 -0.276031 0
0.802814 -0.398067 0
0.0488107 -0.18769 0
0.475549 -0.297159 0
0.0323085 -0.4003 0
-0.0447164 -0.151463 0
-0.0038522 -0.99176 0
0.12886 -0.170441 0
0.0331629 -0.376502 0
0.100743 -0.376256 0
0.112888 -0.486425 0
0.465328 -0.280731 0
0.219973 -0.204629 0
0.00537305 -0.487435 0
-0.0558579 -0.938284 0
0.070288 -0.412604 0
0.147422 -1.29283 0
0.103874 -0.2149 0
0.402984 -0.562265 0
0.416274 -0.981522 0
0.543694 -0.163712 0
0.324157 -0.824068 0
0.0139485 -0.352747 0
-0.245662 -0.395943 0
0.113283 -0.389541 0
-0.0544902 -0.95702 0
0.00632745 -0.821227 0
-0.077001 -0.17655 0
-0.035041 -0.747187 0
-0.107402 -0.5629 0
-0.0102946 -0.0445598 0
-0.394558 -0.796767 0
-0.346964 -0.551198 0
-0.414739 -0.334143 0
-0.213942 -0.0792293 0
-2.00894 -1.5313 0
-0.194498 -1.0616 0
0.00349757 -0.0608761 0
-0.309172 -0.948658 0
-0.30537 -1.24863 0
-0.378906 -0.723057 0
0.00356797 -0.450989 0
-0.490652 -1.41995 0
-1.04772 -1.33516 0
-0.0399938 -0.0369771 0
-1.6399 -0.679455 0
-0.187676 -1.52163 0
-0.0139277 -0.0655839 0
-0.0914024 -0.435104 0
-0.528852 -1.13631 0
-0.132667 -0.379754 0
-0.46907 -0.676194 0
-0.462194 -0.713271 0
-0.37186 -1.59334 0
0.0555653 -0.696816 0
-0.111595 -0.804768 0
-0.0348107 -0.0855641 0
-0.160325 -0.273901 0
-0.959647 -0.473187 0
-0.499239 -0.642804 0
0.0234729 -0.788129 0
-1.65873 -1.2066 0
-1.19937 -0.7334 0
-0.0835406 -0.184419 0
-0.449287 -0.473809 0
-1.0926 -0.520512 0
-0.0292911 -0.0961167 0
-0.333611 -0.199517 0
-0.00774649 -0.76792 0
-0.220932 -0.540953 0
-0.227571 -1.29487 0
-0.215196 -0.905808 0
-0.204264 -1.02926 0
0.13682 -1.30132 0
-0.0860971 -0.639507 0
-0.389807 -0.66568 0
0.0269078 -0.162632 0
-0.0675226 -0.0961772 0
-1.15389 -0.889918 0
-0.172614 -1.00528 0
0.278006 -0.889443 0
0.0174147 -0.256691 0
-1.30871 -0.767394 0
-0.558761 -1.05297 0
-0.0310716 -0.17152 0
-0.773886 -0.855836 0
-0.562154 -0.982344 0
-0.00575348 -0.0497939 0
-0.126688 -0.629603 0
-0.863368 -1.20452 0
