# vtk DataFile Version 2.0
Unstructured Grid by M++
ASCII
DATASET UNSTRUCTURED_GRID
POINTS 289 float
  0.562500   1.000000 0
  0.562500   0.625000 0
  0.625000   1.000000 0
  0.562500   0.937500 0
  0.562500   0.562500 0
  0.625000   0.937500 0
  0.562500   0.875000 0
  0.625000   0.750000 0
  0.625000   0.625000 0
  0.562500   0.812500 0
  0.562500   0.750000 0
  0.562500   0.687500 0
  0.625000   0.875000 0
  0.625000   0.812500 0
  0.625000   0.687500 0
  0.687500   0.125000 0
  0.875000   0.062500 0
  0.625000   0.125000 0
  0.625000   0.187500 0
  0.625000   0.250000 0
  0.812500   0.187500 0
  1.000000   0.125000 0
  0.687500   0.187500 0
  0.750000   0.125000 0
  0.937500   0.062500 0
  0.937500   0.125000 0
  0.750000   0.187500 0
  0.812500   0.062500 0
  0.812500   0.125000 0
  0.875000   0.687500 0
  0.187500   0.250000 0
  0.437500   0.250000 0
  0.375000   0.187500 0
  0.812500   0.625000 0
  0.125000   0.187500 0
  0.937500   0.750000 0
  0.250000   0.312500 0
  0.500000   0.312500 0
  0.625000   0.062500 0
  0.437500   0.500000 0
  0.375000   0.125000 0
  0.437500   0.187500 0
  0.437500   0.437500 0
  0.437500   0.375000 0
  0.875000   0.875000 0
  0.187500   0.375000 0
  0.687500   0.562500 0
  0.687500   0.625000 0
  0.000000   0.125000 0
  0.937500   0.625000 0
  0.250000   0.125000 0
  0.375000   0.062500 0
  0.375000   0.000000 0
  0.812500   0.500000 0
  0.125000   0.000000 0
  0.937500   0.937500 0
  0.250000   0.437500 0
  0.687500   0.875000 0
  0.687500   0.937500 0
  0.000000   0.437500 0
  0.500000   0.500000 0
  0.500000   0.437500 0
  0.750000   0.937500 0
  0.750000   1.000000 0
  0.062500   0.500000 0
  1.000000   1.000000 0
  0.312500   0.500000 0
  0.875000   0.562500 0
  0.187500   0.062500 0
  0.437500   0.125000 0
  0.437500   0.062500 0
  0.500000   0.375000 0
  0.937500   0.812500 0
  0.937500   0.875000 0
  0.250000   0.375000 0
  0.687500   0.812500 0
  0.000000   0.375000 0
  0.750000   0.562500 0
  0.062500   0.125000 0
  1.000000   0.562500 0
  1.000000   0.625000 0
  0.312500   0.125000 0
  0.562500   0.125000 0
  0.437500   0.000000 0
  0.875000   0.437500 0
  0.875000   0.500000 0
  0.187500   0.000000 0
  0.937500   0.562500 0
  0.937500   0.500000 0
  0.250000   0.062500 0
  0.687500   0.500000 0
  0.000000   0.062500 0
  0.500000   0.062500 0
  1.000000   0.875000 0
  1.000000   0.937500 0
  0.312500   0.437500 0
  0.750000   0.875000 0
  0.062500   0.437500 0
  0.812500   0.937500 0
  0.125000   0.500000 0
  0.375000   0.500000 0
  0.625000   0.562500 0
  0.625000   0.500000 0
  0.437500   0.312500 0
  0.875000   0.812500 0
  0.875000   0.750000 0
  0.187500   0.312500 0
  0.812500   0.687500 0
  0.812500   0.750000 0
  0.125000   0.250000 0
  0.375000   0.250000 0
  1.000000   0.687500 0
  0.312500   0.187500 0
  0.750000   0.687500 0
  0.750000   0.625000 0
  0.062500   0.187500 0
  0.562500   0.250000 0
  0.562500   0.187500 0
  0.375000   1.000000 0
  0.500000   0.562500 0
  0.500000   0.250000 0
  0.750000   0.250000 0
  0.500000   0.125000 0
  0.500000   0.187500 0
  1.000000   0.187500 0
  0.625000   0.375000 0
  0.875000   0.375000 0
  1.000000   0.437500 0
  0.312500   0.000000 0
  0.562500   0.000000 0
  0.812500   0.000000 0
  0.250000   0.687500 0
  0.000000   0.687500 0
  0.500000   1.000000 0
  0.250000   1.000000 0
  0.000000   1.000000 0
  0.437500   0.687500 0
  0.437500   0.625000 0
  0.187500   0.625000 0
  0.687500   0.750000 0
  0.000000   0.312500 0
  0.000000   0.250000 0
  0.375000   0.375000 0
  0.375000   0.312500 0
  0.812500   0.812500 0
  0.125000   0.312500 0
  0.875000   0.625000 0
  0.187500   0.187500 0
  0.187500   0.125000 0
  0.937500   1.000000 0
  0.250000   0.562500 0
  0.250000   0.500000 0
  0.687500   1.000000 0
  0.000000   0.500000 0
  0.687500   0.687500 0
  0.000000   0.187500 0
  0.937500   0.687500 0
  0.250000   0.250000 0
  0.250000   0.187500 0
  0.187500   0.687500 0
  0.000000   0.750000 0
  0.250000   0.750000 0
  0.125000   0.625000 0
  0.750000   0.750000 0
  0.062500   0.250000 0
  0.875000   0.937500 0
  0.187500   0.500000 0
  0.187500   0.437500 0
  0.812500   0.562500 0
  0.125000   0.125000 0
  0.125000   0.062500 0
  0.375000   0.625000 0
  0.375000   0.687500 0
  1.000000   0.750000 0
  0.312500   0.250000 0
  0.312500   0.312500 0
  0.812500   0.312500 0
  0.562500   0.312500 0
  0.375000   0.750000 0
  0.500000   0.625000 0
  0.250000   0.625000 0
  0.312500   0.687500 0
  0.750000   0.812500 0
  0.062500   0.312500 0
  0.062500   0.375000 0
  1.000000   0.812500 0
  0.312500   0.375000 0
  0.562500   0.375000 0
  0.687500   0.437500 0
  0.000000   0.000000 0
  0.500000   0.000000 0
  0.937500   0.437500 0
  0.250000   0.000000 0
  0.375000   0.437500 0
  0.812500   0.875000 0
  0.125000   0.375000 0
  0.125000   0.437500 0
  0.625000   0.437500 0
  1.000000   0.500000 0
  0.312500   0.062500 0
  0.750000   0.500000 0
  0.062500   0.000000 0
  0.062500   0.062500 0
  0.562500   0.062500 0
  0.062500   0.750000 0
  0.312500   0.750000 0
  0.312500   0.625000 0
  0.312500   0.562500 0
  0.062500   0.562500 0
  0.187500   1.000000 0
  0.437500   0.562500 0
  0.875000   1.000000 0
  0.187500   0.562500 0
  0.500000   0.937500 0
  0.250000   0.937500 0
  0.312500   1.000000 0
  0.125000   0.750000 0
  0.125000   0.687500 0
  1.000000   0.000000 0
  0.000000   0.937500 0
  0.000000   0.875000 0
  0.875000   0.125000 0
  0.875000   0.187500 0
  0.062500   0.812500 0
  0.312500   0.812500 0
  0.000000   0.812500 0
  0.000000   0.625000 0
  0.000000   0.562500 0
  0.062500   1.000000 0
  0.062500   0.937500 0
  0.937500   0.187500 0
  0.937500   0.250000 0
  0.062500   0.687500 0
  0.062500   0.625000 0
  0.125000   1.000000 0
  1.000000   0.250000 0
  1.000000   0.312500 0
  0.062500   0.875000 0
  0.125000   0.812500 0
  0.375000   0.812500 0
  0.125000   0.875000 0
  0.375000   0.937500 0
  0.375000   0.875000 0
  0.187500   0.750000 0
  0.187500   0.812500 0
  0.437500   0.812500 0
  0.187500   0.875000 0
  0.437500   0.875000 0
  0.375000   0.562500 0
  0.812500   1.000000 0
  0.125000   0.562500 0
  0.437500   1.000000 0
  0.437500   0.937500 0
  0.187500   0.937500 0
  0.125000   0.937500 0
  0.500000   0.687500 0
  0.500000   0.750000 0
  0.500000   0.812500 0
  0.250000   0.812500 0
  0.250000   0.875000 0
  0.500000   0.875000 0
  0.437500   0.750000 0
  0.312500   0.875000 0
  0.312500   0.937500 0
  0.687500   0.250000 0
  0.687500   0.312500 0
  0.937500   0.312500 0
  0.875000   0.250000 0
  0.625000   0.000000 0
  0.875000   0.000000 0
  0.687500   0.375000 0
  0.937500   0.375000 0
  0.875000   0.312500 0
  0.625000   0.312500 0
  0.687500   0.000000 0
  0.937500   0.000000 0
  0.750000   0.312500 0
  0.750000   0.375000 0
  1.000000   0.375000 0
  0.812500   0.250000 0
  0.562500   0.437500 0
  0.562500   0.500000 0
  0.687500   0.062500 0
  0.750000   0.437500 0
  0.750000   0.000000 0
  0.750000   0.062500 0
  1.000000   0.062500 0
  0.812500   0.375000 0
  0.812500   0.437500 0
CELLS 256 1280
4 169 170 148 68
4 151 166 56 167
4 195 45 196 167
4 54 170 201 202
4 109 34 30 147
4 40 32 81 112
4 192 89 86 68
4 48 91 78 202
4 99 64 196 97
4 71 43 37 103
4 74 186 56 95
4 109 164 34 115
4 50 81 158 112
4 122 69 92 70
4 195 145 45 106
4 110 143 174 175
4 157 30 158 147
4 40 69 32 41
4 50 158 148 147
4 141 155 164 115
4 122 123 69 41
4 142 186 143 175
4 60 39 61 42
4 40 51 69 70
4 120 31 123 41
4 157 174 36 175
4 50 148 89 68
4 48 78 155 115
4 52 83 51 70
4 151 56 66 95
4 71 61 43 42
4 169 148 34 147
4 100 193 39 42
4 40 81 51 199
4 110 174 32 112
4 109 30 145 106
4 100 66 193 95
4 169 34 78 115
4 190 92 83 70
4 50 89 81 199
4 54 86 170 68
4 74 56 45 167
4 142 143 43 103
4 153 59 64 97
4 99 196 166 167
4 169 78 170 202
4 142 193 186 95
4 192 128 89 199
4 74 45 36 106
4 110 31 143 103
4 76 184 59 97
4 142 43 193 42
4 52 51 128 199
4 189 201 91 202
4 120 37 31 103
4 74 36 186 175
4 195 196 184 97
4 141 164 140 183
4 157 158 174 112
4 109 145 164 183
4 195 184 145 183
4 110 32 31 41
4 157 36 30 106
4 76 140 184 183
4 171 172 206 181
4 178 172 261 136
4 256 261 255 136
4 256 257 261 245
4 180 150 206 207
4 60 119 39 210
4 118 215 241 263
4 178 205 172 181
4 216 243 238 244
4 162 217 233 232
4 180 206 131 181
4 179 137 119 210
4 216 204 217 232
4 220 237 219 229
4 216 217 243 159
4 259 258 262 224
4 240 254 237 229
4 153 64 227 208
4 161 205 258 224
4 240 237 238 223
4 226 227 233 208
4 234 228 254 229
4 171 248 137 210
4 160 132 204 232
4 180 131 138 159
4 133 251 213 252
4 171 206 248 207
4 162 138 217 159
4 161 258 243 244
4 220 225 237 223
4 151 150 166 212
4 260 247 257 245
4 259 262 214 263
4 151 66 150 207
4 234 254 209 253
4 162 233 250 208
4 242 241 262 263
4 171 137 172 136
4 161 243 131 159
4 160 204 225 223
4 161 131 205 181
4 179 255 137 136
4 216 238 204 223
4 100 39 248 210
4 260 213 247 252
4 226 233 132 232
4 134 214 215 263
4 180 138 150 212
4 178 261 239 245
4 259 246 258 244
4 178 239 205 224
4 240 238 246 244
4 242 262 239 224
4 99 250 64 208
4 240 246 254 253
4 242 239 247 245
4 135 219 228 229
4 99 166 250 212
4 259 214 246 253
4 118 241 251 252
4 100 248 66 207
4 134 209 214 253
4 162 250 138 212
4 242 247 241 252
4 71 187 61 280
4 102 281 197 280
4 122 92 82 203
4 17 18 82 117
4 122 82 123 117
4 19 264 273 265
4 267 279 222 20
4 125 273 270 265
4 267 272 279 176
4 19 116 18 117
4 21 25 286 24
4 23 28 26 20
4 23 285 28 27
4 218 286 275 24
4 85 53 84 288
4 235 236 231 266
4 221 222 28 20
4 267 222 231 230
4 268 38 129 203
4 125 270 197 188
4 126 287 272 176
4 277 270 276 265
4 267 231 272 266
4 125 197 187 280
4 190 129 92 203
4 277 276 287 176
4 19 18 264 22
4 17 82 38 203
4 102 197 90 188
4 126 84 287 288
4 284 130 285 27
4 121 276 264 265
4 71 37 187 177
4 120 123 116 117
4 198 88 127 191
4 221 16 25 24
4 23 26 15 22
4 121 279 276 176
4 235 231 124 230
4 125 187 273 177
4 278 271 236 266
4 277 287 283 288
4 284 285 274 282
4 278 127 271 191
4 269 275 16 24
4 200 283 53 288
4 23 15 285 282
4 121 26 279 20
4 21 124 25 230
4 19 273 116 177
4 200 90 283 188
4 126 271 84 191
4 269 16 130 27
4 17 38 15 282
4 221 25 222 230
4 121 264 26 22
4 120 116 37 177
4 60 61 281 280
4 277 283 270 188
4 126 272 271 266
4 268 274 38 282
4 85 84 88 191
4 17 15 18 22
4 221 28 16 27
4 93 94 73 55
4 85 88 67 87
4 80 49 79 87
4 44 104 73 72
4 146 33 67 168
4 211 165 149 55
4 8 47 14 154
4 105 104 108 144
4 105 108 29 107
4 7 139 13 75
4 44 165 194 98
4 200 53 77 168
4 8 1 101 4
4 2 5 152 58
4 260 6 213 3
4 105 35 104 72
4 96 57 182 75
4 7 14 139 154
4 146 29 33 107
4 7 13 10 9
4 12 13 57 75
4 85 67 53 168
4 44 73 165 55
4 63 152 62 58
4 8 101 47 46
4 96 182 194 144
4 60 281 119 4
4 12 5 6 3
4 173 185 35 72
4 65 149 94 55
4 146 67 49 87
4 114 113 47 154
4 163 108 182 144
4 12 6 13 9
4 173 35 111 156
4 163 182 139 75
4 260 257 6 9
4 105 29 35 156
4 163 139 113 154
4 256 10 257 9
4 146 49 29 156
4 163 113 108 107
4 80 111 49 156
4 102 101 281 4
4 12 57 5 58
4 44 194 104 144
4 96 194 62 98
4 2 0 5 3
4 93 73 185 72
4 179 119 1 4
4 200 77 90 46
4 114 33 113 107
4 7 10 14 11
4 96 62 57 58
4 133 213 0 3
4 102 90 101 46
4 256 255 10 11
4 63 62 249 98
4 114 47 77 46
4 179 1 255 11
4 211 249 165 98
4 114 77 33 168
4 198 79 88 87
4 8 14 1 11
CELL_TYPES 256
8
8
8
8
8
8
8
8
8
8
8
8
8
8
8
8
8
8
8
8
8
8
8
8
8
8
8
8
8
8
8
8
8
8
8
8
8
8
8
8
8
8
8
8
8
8
8
8
8
8
8
8
8
8
8
8
8
8
8
8
8
8
8
8
8
8
8
8
8
8
8
8
8
8
8
8
8
8
8
8
8
8
8
8
8
8
8
8
8
8
8
8
8
8
8
8
8
8
8
8
8
8
8
8
8
8
8
8
8
8
8
8
8
8
8
8
8
8
8
8
8
8
8
8
8
8
8
8
8
8
8
8
8
8
8
8
8
8
8
8
8
8
8
8
8
8
8
8
8
8
8
8
8
8
8
8
8
8
8
8
8
8
8
8
8
8
8
8
8
8
8
8
8
8
8
8
8
8
8
8
8
8
8
8
8
8
8
8
8
8
8
8
8
8
8
8
8
8
8
8
8
8
8
8
8
8
8
8
8
8
8
8
8
8
8
8
8
8
8
8
8
8
8
8
8
8
8
8
8
8
8
8
8
8
8
8
8
8
8
8
8
8
8
8
8
8
8
8
8
8
8
8
8
8
8
8
CELL_DATA 256
VECTORS vector_value float
-1.84652 -2.61197 0
-0.255789 -1.0506 0
-0.28685 -1.20122 0
-0.455678 -3.06754 0
-0.367068 -1.33896 0
-2.30829 -0.956935 0
-0.20847 -1.52865 0
-0.175962 -0.764714 0
-0.169508 -0.601981 0
-0.66154 -2.1042 0
0.0106383 -0.281784 0
-0.0822108 -0.890786 0
-1.97999 -0.918546 0
0.0626867 -3.02859 0
-0.0697444 -1.04655 0
-0.282089 -0.478284 0
-0.509474 -0.632424 0
-2.34558 -2.03759 0
-1.27438 -0.99215 0
0.0359333 -0.69553 0
-1.67294 -4.29685 0
-0.113697 -0.475153 0
0.153766 -2.06566 0
-0.655616 -1.69727 0
-2.86742 -4.37211 0
-0.301194 -0.387971 0
-1.98696 -1.42227 0
0.00961786 -0.540758 0
-0.0162862 -1.14918 0
-0.0320512 -0.270149 0
-0.234951 -1.47022 0
-0.750241 -1.66164 0
-0.176697 -0.545872 0
-1.15435 -0.74049 0
-1.13214 -0.680308 0
-0.0582175 -1.05197 0
-0.059053 -0.176765 0
-0.271813 -1.51815 0
0.0173774 -2.62208 0
-1.6209 -0.793978 0
-0.204561 -2.01093 0
-0.0694843 -0.632387 0
-0.25005 -0.777094 0
-0.0417914 -0.22682 0
-0.361179 -1.20229 0
-0.841495 -1.92049 0
-0.0760875 -0.356441 0
-0.166676 -0.622332 0
-0.0211721 -0.462997 0
-0.516318 -1.24234 0
-0.10546 -0.409014 0
-0.134652 -0.628762 0
-0.0654054 -0.480134 0
-0.106962 -1.13377 0
-0.904432 -2.42862 0
-0.029579 -0.36252 0
-0.297828 -0.827437 0
-0.0080906 -0.684948 0
-0.77577 -0.566377 0
-0.0121096 -0.770939 0
-0.14618 -0.874082 0
-1.54461 -1.64832 0
-0.235307 -0.67815 0
-0.097965 -0.637937 0
0.688981 -0.971594 0
0.107095 -0.330678 0
-0.00817992 -0.217741 0
0.00244136 -0.133036 0
-0.235086 -0.776725 0
0.118745 -2.23036 0
0.405115 -0.416548 0
0.318604 -0.524033 0
0.373775 -0.542563 0
0.469581 -0.796923 0
0.737258 -1.1823 0
-0.166722 -1.14222 0
0.50341 -0.607305 0
-0.303936 -1.63932 0
0.533491 -0.486923 0
0.10537 -0.56723 0
-0.238295 -0.463413 0
-0.0116969 -0.158514 0
0.164451 -0.502351 0
-0.0820183 -0.377195 0
0.0511812 -0.186033 0
-0.203402 -0.970926 0
0.492156 -0.697379 0
0.366611 -0.987241 0
0.359791 -0.637042 0
1.93879 -0.540047 0
0.352477 -0.778376 0
0.323323 -0.50431 0
0.326256 -1.49604 0
0.0174209 -1.85377 0
-0.394958 -1.22705 0
0.0648898 -0.139516 0
0.0542865 -0.529726 0
-0.220085 -0.372744 0
0.132904 -0.691668 0
0.206359 -0.509692 0
0.142998 -0.195955 0
0.384331 -0.423821 0
0.94197 -1.14384 0
0.232449 -1.5049 0
0.855143 -1.01822 0
0.0604647 -0.564942 0
0.441322 -0.580645 0
0.224271 -0.778196 0
0.296348 -0.127716 0
0.130643 -0.363487 0
-0.145651 -0.856978 0
-0.140471 -0.854723 0
0.0651857 -0.252367 0
-0.00756791 -1.35392 0
0.155853 -0.251449 0
-0.119744 -0.644126 0
0.0767122 -0.195292 0
-0.0636228 -0.496048 0
-0.0638247 -0.545676 0
0.0668342 -0.149838 0
-0.0767052 -1.07427 0
-0.227207 -0.97535 0
-0.0593876 -1.72316 0
1.13166 -0.627898 0
-0.0638241 -0.259223 0
0.0240937 -1.45623 0
0.250795 -0.785891 0
0.247614 -0.208299 0
-0.470955 -5.02597 0
-0.309306 -3.04344 0
0.44723 -1.0292 0
0.0195378 -0.314704 0
-0.38799 -1.13796 0
0.0373894 -0.404005 0
0.620546 -0.256501 0
-0.0666143 -0.911948 0
0.145575 -0.232575 0
-0.293629 -0.62016 0
0.0987635 -0.636364 0
0.174403 -0.0521736 0
0.0168323 -0.0149036 0
0.0750463 -0.912504 0
0.0212184 -0.0492673 0
-0.00519936 -0.297722 0
0.280621 -0.157066 0
0.305754 -0.569749 0
0.234037 -0.725605 0
-0.15574 -1.59958 0
0.0242508 -0.0537934 0
0.161786 -0.326796 0
0.00789351 -0.0856486 0
-0.452079 -2.81648 0
0.0824185 -0.870698 0
0.120894 -0.184959 0
0.152005 -0.23562 0
0.132218 -0.269527 0
-0.0547458 -1.77172 0
0.00848038 -0.0286571 0
0.00512156 -0.0183568 0
0.272153 -0.341844 0
-0.692866 -4.77382 0
-2.15778 -2.9613 0
0.0360701 -0.250036 0
0.16255 -0.801135 0
0.103342 -0.0642856 0
0.255526 -0.200135 0
-0.0227258 -0.21756 0
-0.557819 -2.63793 0
-0.00438917 -0.298656 0
0.037217 -0.0942509 0
0.00607078 -0.0376413 0
0.0118227 -0.312275 0
0.0353566 -0.538842 0
0.0173527 -0.0490519 0
0.0194784 -0.0383492 0
0.511036 -0.158988 0
0.174051 -0.47003 0
-0.766831 -1.71157 0
0.00998586 -0.296543 0
0.00900959 -0.0513819 0
0.00197331 -0.0855393 0
0.0445748 -0.139526 0
0.341213 -0.793314 0
0.318868 -0.155308 0
-1.58818 -5.00328 0
-0.260566 -4.31038 0
0.0947382 -0.264133 0
-0.00261914 -0.0715624 0
0.0277707 -0.196196 0
0.0547952 -0.0894315 0
0.0684374 -0.087851 0
0.0380159 -0.0912251 0
-0.023177 -0.030767 0
0.0983543 -0.125599 0
0.0410147 -0.0669045 0
-0.00791442 -0.0179907 0
0.087664 -0.108418 0
-1.35615 -0.556574 0
-2.14405 -4.63656 0
-0.0123732 -0.168648 0
0.00916907 -0.12855 0
-0.241214 -3.46067 0
-0.343842 -0.405659 0
0.0181307 -0.0903032 0
-2.36737 -3.84065 0
1.44687 -2.70062 0
0.17751 -0.00783213 0
-0.000756934 -0.0114143 0
0.307459 -4.72103 0
-1.57201 -4.52445 0
0.0871903 -0.140507 0
-0.188819 -0.758271 0
0.0833583 -3.84271 0
0.07042 -0.0713623 0
-0.120239 -0.0862971 0
-1.16563 -2.06464 0
-1.91213 -2.58442 0
-0.0743704 -1.30564 0
-0.685955 -2.11092 0
0.400276 -0.752669 0
-9.34039e-05 -0.00870683 0
-0.470509 -0.428854 0
0.104237 -0.115826 0
-0.830384 -1.84026 0
-0.0156287 -1.36653 0
-0.0679378 -0.549395 0
0.000941766 -0.0090798 0
-0.254188 -4.77361 0
0.020788 -0.0783495 0
0.00948406 -0.0218845 0
-1.27798 -3.32904 0
-0.057816 -0.188791 0
0.0468495 -0.0603036 0
-0.150955 -1.24866 0
0.00691662 -0.0167976 0
-1.39365 -4.58502 0
1.10381 -4.92521 0
-0.0457565 -0.194363 0
-0.442235 -1.18457 0
3.46149 -1.31186 0
-0.00187261 -0.00963175 0
-1.12594 -2.04522 0
-0.108775 -0.360578 0
-0.25075 -0.77938 0
-0.542282 -1.13233 0
0.322971 -3.17375 0
2.98123 -0.490218 0
-0.622091 -2.00514 0
-0.124769 -0.290025 0
-2.11455 -0.957319 0
-0.904827 -1.30092 0
-0.692592 -1.04748 0
-1.99871 -0.85535 0
-0.0611099 -0.2066 0
0.0521001 -0.153581 0
-1.61694 -2.0343 0
