# vtk DataFile Version 2.0
Unstructured Grid by M++
ASCII
DATASET UNSTRUCTURED_GRID
POINTS 81 float
  1.000000   0.625000 0
  0.750000   0.375000 0
  1.000000   0.000000 0
  0.875000   0.875000 0
  0.750000   0.125000 0
  1.000000   1.000000 0
  0.875000   0.250000 0
  0.625000   0.875000 0
  1.000000   0.750000 0
  0.875000   0.000000 0
  1.000000   0.250000 0
  0.625000   0.375000 0
  0.875000   0.500000 0
  0.625000   0.625000 0
  1.000000   0.500000 0
  0.750000   0.500000 0
  0.750000   1.000000 0
  1.000000   0.125000 0
  0.625000   0.250000 0
  0.750000   0.750000 0
  0.625000   0.000000 0
  0.125000   0.375000 0
  0.000000   0.500000 0
  0.125000   0.625000 0
  0.625000   1.000000 0
  1.000000   0.875000 0
  0.875000   0.125000 0
  0.500000   0.250000 0
  0.625000   0.500000 0
  0.250000   0.625000 0
  0.000000   0.625000 0
  0.375000   0.500000 0
  0.375000   0.000000 0
  0.000000   0.125000 0
  0.125000   0.875000 0
  0.875000   1.000000 0
  0.750000   0.250000 0
  0.375000   0.375000 0
  0.250000   0.375000 0
  0.625000   0.750000 0
  0.125000   0.125000 0
  0.500000   0.000000 0
  0.250000   0.875000 0
  0.125000   0.500000 0
  0.500000   0.375000 0
  0.125000   0.000000 0
  0.250000   0.750000 0
  0.250000   0.500000 0
  0.000000   0.875000 0
  0.875000   0.625000 0
  0.500000   0.750000 0
  0.750000   0.625000 0
  0.250000   0.000000 0
  0.375000   0.750000 0
  0.750000   0.875000 0
  0.625000   0.125000 0
  0.250000   0.250000 0
  0.375000   1.000000 0
  0.375000   0.250000 0
  0.000000   0.375000 0
  0.500000   1.000000 0
  0.875000   0.750000 0
  0.750000   0.000000 0
  0.375000   0.125000 0
  0.500000   0.875000 0
  0.000000   0.000000 0
  0.125000   0.750000 0
  0.500000   0.625000 0
  0.125000   0.250000 0
  0.500000   0.125000 0
  0.250000   1.000000 0
  0.250000   0.125000 0
  0.000000   1.000000 0
  0.375000   0.875000 0
  0.000000   0.750000 0
  0.375000   0.625000 0
  0.000000   0.250000 0
  0.125000   1.000000 0
  1.000000   0.375000 0
  0.500000   0.500000 0
  0.875000   0.375000 0
CELLS 64 320
4 56 71 58 63
4 27 58 69 63
4 41 69 32 63
4 76 33 68 40
4 27 44 58 37
4 79 31 44 37
4 56 38 68 21
4 56 58 38 37
4 52 32 71 63
4 47 38 31 37
4 76 68 59 21
4 22 59 43 21
4 65 45 33 40
4 47 43 38 21
4 52 71 45 40
4 56 68 71 40
4 74 30 66 23
4 46 66 29 23
4 22 43 30 23
4 72 48 77 34
4 46 53 42 73
4 50 64 53 73
4 70 42 57 73
4 74 66 48 34
4 46 42 66 34
4 47 29 43 23
4 70 77 42 34
4 60 57 64 73
4 79 67 31 75
4 47 31 29 75
4 50 53 67 75
4 46 29 53 75
4 10 78 6 80
4 36 6 1 80
4 15 1 12 80
4 36 4 6 26
4 14 12 78 80
4 2 17 9 26
4 36 18 4 55
4 15 28 1 11
4 62 4 20 55
4 10 6 17 26
4 27 18 44 11
4 62 9 4 26
4 27 69 18 55
4 36 1 18 11
4 41 20 69 55
4 79 44 28 11
4 16 24 54 7
4 19 54 39 7
4 50 39 64 7
4 8 25 61 3
4 60 64 24 7
4 79 28 67 13
4 19 51 61 49
4 8 61 0 49
4 15 51 28 13
4 19 39 51 13
4 50 67 39 13
4 19 61 54 3
4 14 0 12 49
4 5 35 25 3
4 15 12 51 49
4 16 54 35 3
CELL_TYPES 64
8
8
8
8
8
8
8
8
8
8
8
8
8
8
8
8
8
8
8
8
8
8
8
8
8
8
8
8
8
8
8
8
8
8
8
8
8
8
8
8
8
8
8
8
8
8
8
8
8
8
8
8
8
8
8
8
8
8
8
8
8
8
8
8
CELL_DATA 64
VECTORS vector_value float
-0.0476718 -0.385731 0
-0.822789 -2.48028 0
0.339726 -1.97073 0
0.0578171 -0.702089 0
-0.372742 -0.626828 0
0.775154 -0.807803 0
0.0487646 -0.0910215 0
0.0123505 -0.125443 0
0.00166423 -0.396072 0
0.0795631 -0.0663646 0
-0.00527935 -0.728353 0
0.0365893 -0.720091 0
0.0350487 -0.551224 0
0.0481284 -0.170562 0
0.0731734 -0.181057 0
0.0355005 -0.0297019 0
0.00977199 -0.80149 0
0.20803 -0.405853 0
0.0106308 -0.815952 0
-0.00458235 -0.976456 0
0.371548 -0.398181 0
0.105824 -0.729625 0
0.668535 -0.624311 0
0.0902334 -1.07892 0
0.25711 -0.379841 0
0.0385457 -0.0582317 0
0.161191 -0.882442 0
1.1144 -0.589966 0
0.27352 -1.09196 0
0.378086 -0.66366 0
0.0298152 -1.50955 0
0.105886 -0.364013 0
0.13848 -0.659914 0
0.215288 -0.79551 0
-0.31064 -1.16465 0
0.0715874 -0.603395 0
-0.0444898 -0.646499 0
-0.0889863 -0.896978 0
-0.0908742 -1.90283 0
-0.404974 -0.548262 0
-0.127399 -0.670386 0
0.0719134 -1.08207 0
-0.967026 -3.04361 0
0.114542 -1.2147 0
-0.0472427 -0.813903 0
0.600865 -1.92932 0
-0.164579 -2.11885 0
0.726732 -3.87577 0
-0.650693 -1.15983 0
0.50644 -1.40223 0
0.338816 -2.77919 0
0.0156414 -0.812031 0
0.443231 -2.38666 0
-0.0335674 -2.19474 0
0.218654 -0.441614 0
0.12389 -1.0604 0
-0.204112 -1.08557 0
0.296386 -2.18121 0
0.0176952 -1.23586 0
0.0772505 -0.419975 0
-0.194451 -1.04121 0
-0.088339 -1.14714 0
0.0913694 -1.04868 0
-0.454633 -0.233192 0
