# vtk DataFile Version 2.0
Unstructured Grid by M++
ASCII
DATASET UNSTRUCTURED_GRID
POINTS 289 float
  0.562500   1.000000 0
  0.562500   0.625000 0
  0.625000   1.000000 0
  0.562500   0.937500 0
  0.562500   0.562500 0
  0.625000   0.937500 0
  0.562500   0.875000 0
  0.625000   0.750000 0
  0.625000   0.625000 0
  0.562500   0.812500 0
  0.562500   0.750000 0
  0.562500   0.687500 0
  0.625000   0.875000 0
  0.625000   0.812500 0
  0.625000   0.687500 0
  0.687500   0.125000 0
  0.875000   0.062500 0
  0.625000   0.125000 0
  0.625000   0.187500 0
  0.625000   0.250000 0
  0.812500   0.187500 0
  1.000000   0.125000 0
  0.687500   0.187500 0
  0.750000   0.125000 0
  0.937500   0.062500 0
  0.937500   0.125000 0
  0.750000   0.187500 0
  0.812500   0.062500 0
  0.812500   0.125000 0
  0.875000   0.687500 0
  0.187500   0.250000 0
  0.437500   0.250000 0
  0.375000   0.187500 0
  0.812500   0.625000 0
  0.125000   0.187500 0
  0.937500   0.750000 0
  0.250000   0.312500 0
  0.500000   0.312500 0
  0.625000   0.062500 0
  0.437500   0.500000 0
  0.375000   0.125000 0
  0.437500   0.187500 0
  0.437500   0.437500 0
  0.437500   0.375000 0
  0.875000   0.875000 0
  0.187500   0.375000 0
  0.687500   0.562500 0
  0.687500   0.625000 0
  0.000000   0.125000 0
  0.937500   0.625000 0
  0.250000   0.125000 0
  0.375000   0.062500 0
  0.375000   0.000000 0
  0.812500   0.500000 0
  0.125000   0.000000 0
  0.937500   0.937500 0
  0.250000   0.437500 0
  0.687500   0.875000 0
  0.687500   0.937500 0
  0.000000   0.437500 0
  0.500000   0.500000 0
  0.500000   0.437500 0
  0.750000   0.937500 0
  0.750000   1.000000 0
  0.062500   0.500000 0
  1.000000   1.000000 0
  0.312500   0.500000 0
  0.875000   0.562500 0
  0.187500   0.062500 0
  0.437500   0.125000 0
  0.437500   0.062500 0
  0.500000   0.375000 0
  0.937500   0.812500 0
  0.937500   0.875000 0
  0.250000   0.375000 0
  0.687500   0.812500 0
  0.000000   0.375000 0
  0.750000   0.562500 0
  0.062500   0.125000 0
  1.000000   0.562500 0
  1.000000   0.625000 0
  0.312500   0.125000 0
  0.562500   0.125000 0
  0.437500   0.000000 0
  0.875000   0.437500 0
  0.875000   0.500000 0
  0.187500   0.000000 0
  0.937500   0.562500 0
  0.937500   0.500000 0
  0.250000   0.062500 0
  0.687500   0.500000 0
  0.000000   0.062500 0
  0.500000   0.062500 0
  1.000000   0.875000 0
  1.000000   0.937500 0
  0.312500   0.437500 0
  0.750000   0.875000 0
  0.062500   0.437500 0
  0.812500   0.937500 0
  0.125000   0.500000 0
  0.375000   0.500000 0
  0.625000   0.562500 0
  0.625000   0.500000 0
  0.437500   0.312500 0
  0.875000   0.812500 0
  0.875000   0.750000 0
  0.187500   0.312500 0
  0.812500   0.687500 0
  0.812500   0.750000 0
  0.125000   0.250000 0
  0.375000   0.250000 0
  1.000000   0.687500 0
  0.312500   0.187500 0
  0.750000   0.687500 0
  0.750000   0.625000 0
  0.062500   0.187500 0
  0.562500   0.250000 0
  0.562500   0.187500 0
  0.375000   1.000000 0
  0.500000   0.562500 0
  0.500000   0.250000 0
  0.750000   0.250000 0
  0.500000   0.125000 0
  0.500000   0.187500 0
  1.000000   0.187500 0
  0.625000   0.375000 0
  0.875000   0.375000 0
  1.000000   0.437500 0
  0.312500   0.000000 0
  0.562500   0.000000 0
  0.812500   0.000000 0
  0.250000   0.687500 0
  0.000000   0.687500 0
  0.500000   1.000000 0
  0.250000   1.000000 0
  0.000000   1.000000 0
  0.437500   0.687500 0
  0.437500   0.625000 0
  0.187500   0.625000 0
  0.687500   0.750000 0
  0.000000   0.312500 0
  0.000000   0.250000 0
  0.375000   0.375000 0
  0.375000   0.312500 0
  0.812500   0.812500 0
  0.125000   0.312500 0
  0.875000   0.625000 0
  0.187500   0.187500 0
  0.187500   0.125000 0
  0.937500   1.000000 0
  0.250000   0.562500 0
  0.250000   0.500000 0
  0.687500   1.000000 0
  0.000000   0.500000 0
  0.687500   0.687500 0
  0.000000   0.187500 0
  0.937500   0.687500 0
  0.250000   0.250000 0
  0.250000   0.187500 0
  0.187500   0.687500 0
  0.000000   0.750000 0
  0.250000   0.750000 0
  0.125000   0.625000 0
  0.750000   0.750000 0
  0.062500   0.250000 0
  0.875000   0.937500 0
  0.187500   0.500000 0
  0.187500   0.437500 0
  0.812500   0.562500 0
  0.125000   0.125000 0
  0.125000   0.062500 0
  0.375000   0.625000 0
  0.375000   0.687500 0
  1.000000   0.750000 0
  0.312500   0.250000 0
  0.312500   0.312500 0
  0.812500   0.312500 0
  0.562500   0.312500 0
  0.375000   0.750000 0
  0.500000   0.625000 0
  0.250000   0.625000 0
  0.312500   0.687500 0
  0.750000   0.812500 0
  0.062500   0.312500 0
  0.062500   0.375000 0
  1.000000   0.812500 0
  0.312500   0.375000 0
  0.562500   0.375000 0
  0.687500   0.437500 0
  0.000000   0.000000 0
  0.500000   0.000000 0
  0.937500   0.437500 0
  0.250000   0.000000 0
  0.375000   0.437500 0
  0.812500   0.875000 0
  0.125000   0.375000 0
  0.125000   0.437500 0
  0.625000   0.437500 0
  1.000000   0.500000 0
  0.312500   0.062500 0
  0.750000   0.500000 0
  0.062500   0.000000 0
  0.062500   0.062500 0
  0.562500   0.062500 0
  0.062500   0.750000 0
  0.312500   0.750000 0
  0.312500   0.625000 0
  0.312500   0.562500 0
  0.062500   0.562500 0
  0.187500   1.000000 0
  0.437500   0.562500 0
  0.875000   1.000000 0
  0.187500   0.562500 0
  0.500000   0.937500 0
  0.250000   0.937500 0
  0.312500   1.000000 0
  0.125000   0.750000 0
  0.125000   0.687500 0
  1.000000   0.000000 0
  0.000000   0.937500 0
  0.000000   0.875000 0
  0.875000   0.125000 0
  0.875000   0.187500 0
  0.062500   0.812500 0
  0.312500   0.812500 0
  0.000000   0.812500 0
  0.000000   0.625000 0
  0.000000   0.562500 0
  0.062500   1.000000 0
  0.062500   0.937500 0
  0.937500   0.187500 0
  0.937500   0.250000 0
  0.062500   0.687500 0
  0.062500   0.625000 0
  0.125000   1.000000 0
  1.000000   0.250000 0
  1.000000   0.312500 0
  0.062500   0.875000 0
  0.125000   0.812500 0
  0.375000   0.812500 0
  0.125000   0.875000 0
  0.375000   0.937500 0
  0.375000   0.875000 0
  0.187500   0.750000 0
  0.187500   0.812500 0
  0.437500   0.812500 0
  0.187500   0.875000 0
  0.437500   0.875000 0
  0.375000   0.562500 0
  0.812500   1.000000 0
  0.125000   0.562500 0
  0.437500   1.000000 0
  0.437500   0.937500 0
  0.187500   0.937500 0
  0.125000   0.937500 0
  0.500000   0.687500 0
  0.500000   0.750000 0
  0.500000   0.812500 0
  0.250000   0.812500 0
  0.250000   0.875000 0
  0.500000   0.875000 0
  0.437500   0.750000 0
  0.312500   0.875000 0
  0.312500   0.937500 0
  0.687500   0.250000 0
  0.687500   0.312500 0
  0.937500   0.312500 0
  0.875000   0.250000 0
  0.625000   0.000000 0
  0.875000   0.000000 0
  0.687500   0.375000 0
  0.937500   0.375000 0
  0.875000   0.312500 0
  0.625000   0.312500 0
  0.687500   0.000000 0
  0.937500   0.000000 0
  0.750000   0.312500 0
  0.750000   0.375000 0
  1.000000   0.375000 0
  0.812500   0.250000 0
  0.562500   0.437500 0
  0.562500   0.500000 0
  0.687500   0.062500 0
  0.750000   0.437500 0
  0.750000   0.000000 0
  0.750000   0.062500 0
  1.000000   0.062500 0
  0.812500   0.375000 0
  0.812500   0.437500 0
CELLS 256 1280
4 169 170 148 68
4 151 166 56 167
4 195 45 196 167
4 54 170 201 202
4 109 34 30 147
4 40 32 81 112
4 192 89 86 68
4 48 91 78 202
4 99 64 196 97
4 71 43 37 103
4 74 186 56 95
4 109 164 34 115
4 50 81 158 112
4 122 69 92 70
4 195 145 45 106
4 110 143 174 175
4 157 30 158 147
4 40 69 32 41
4 50 158 148 147
4 141 155 164 115
4 122 123 69 41
4 142 186 143 175
4 60 39 61 42
4 40 51 69 70
4 120 31 123 41
4 157 174 36 175
4 50 148 89 68
4 48 78 155 115
4 52 83 51 70
4 151 56 66 95
4 71 61 43 42
4 169 148 34 147
4 100 193 39 42
4 40 81 51 199
4 110 174 32 112
4 109 30 145 106
4 100 66 193 95
4 169 34 78 115
4 190 92 83 70
4 50 89 81 199
4 54 86 170 68
4 74 56 45 167
4 142 143 43 103
4 153 59 64 97
4 99 196 166 167
4 169 78 170 202
4 142 193 186 95
4 192 128 89 199
4 74 45 36 106
4 110 31 143 103
4 76 184 59 97
4 142 43 193 42
4 52 51 128 199
4 189 201 91 202
4 120 37 31 103
4 74 36 186 175
4 195 196 184 97
4 141 164 140 183
4 157 158 174 112
4 109 145 164 183
4 195 184 145 183
4 110 32 31 41
4 157 36 30 106
4 76 140 184 183
4 171 172 206 181
4 178 172 261 136
4 256 261 255 136
4 256 257 261 245
4 180 150 206 207
4 60 119 39 210
4 118 215 241 263
4 178 205 172 181
4 216 243 238 244
4 162 217 233 232
4 180 206 131 181
4 179 137 119 210
4 216 204 217 232
4 220 237 219 229
4 216 217 243 159
4 259 258 262 224
4 240 254 237 229
4 153 64 227 208
4 161 205 258 224
4 240 237 238 223
4 226 227 233 208
4 234 228 254 229
4 171 248 137 210
4 160 132 204 232
4 180 131 138 159
4 133 251 213 252
4 171 206 248 207
4 162 138 217 159
4 161 258 243 244
4 220 225 237 223
4 151 150 166 212
4 260 247 257 245
4 259 262 214 263
4 151 66 150 207
4 234 254 209 253
4 162 233 250 208
4 242 241 262 263
4 171 137 172 136
4 161 243 131 159
4 160 204 225 223
4 161 131 205 181
4 179 255 137 136
4 216 238 204 223
4 100 39 248 210
4 260 213 247 252
4 226 233 132 232
4 134 214 215 263
4 180 138 150 212
4 178 261 239 245
4 259 246 258 244
4 178 239 205 224
4 240 238 246 244
4 242 262 239 224
4 99 250 64 208
4 240 246 254 253
4 242 239 247 245
4 135 219 228 229
4 99 166 250 212
4 259 214 246 253
4 118 241 251 252
4 100 248 66 207
4 134 209 214 253
4 162 250 138 212
4 242 247 241 252
4 71 187 61 280
4 102 281 197 280
4 122 92 82 203
4 17 18 82 117
4 122 82 123 117
4 19 264 273 265
4 267 279 222 20
4 125 273 270 265
4 267 272 279 176
4 19 116 18 117
4 21 25 286 24
4 23 28 26 20
4 23 285 28 27
4 218 286 275 24
4 85 53 84 288
4 235 236 231 266
4 221 222 28 20
4 267 222 231 230
4 268 38 129 203
4 125 270 197 188
4 126 287 272 176
4 277 270 276 265
4 267 231 272 266
4 125 197 187 280
4 190 129 92 203
4 277 276 287 176
4 19 18 264 22
4 17 82 38 203
4 102 197 90 188
4 126 84 287 288
4 284 130 285 27
4 121 276 264 265
4 71 37 187 177
4 120 123 116 117
4 198 88 127 191
4 221 16 25 24
4 23 26 15 22
4 121 279 276 176
4 235 231 124 230
4 125 187 273 177
4 278 271 236 266
4 277 287 283 288
4 284 285 274 282
4 278 127 271 191
4 269 275 16 24
4 200 283 53 288
4 23 15 285 282
4 121 26 279 20
4 21 124 25 230
4 19 273 116 177
4 200 90 283 188
4 126 271 84 191
4 269 16 130 27
4 17 38 15 282
4 221 25 222 230
4 121 264 26 22
4 120 116 37 177
4 60 61 281 280
4 277 283 270 188
4 126 272 271 266
4 268 274 38 282
4 85 84 88 191
4 17 15 18 22
4 221 28 16 27
4 93 94 73 55
4 85 88 67 87
4 80 49 79 87
4 44 104 73 72
4 146 33 67 168
4 211 165 149 55
4 8 47 14 154
4 105 104 108 144
4 105 108 29 107
4 7 139 13 75
4 44 165 194 98
4 200 53 77 168
4 8 1 101 4
4 2 5 152 58
4 260 6 213 3
4 105 35 104 72
4 96 57 182 75
4 7 14 139 154
4 146 29 33 107
4 7 13 10 9
4 12 13 57 75
4 85 67 53 168
4 44 73 165 55
4 63 152 62 58
4 8 101 47 46
4 96 182 194 144
4 60 281 119 4
4 12 5 6 3
4 173 185 35 72
4 65 149 94 55
4 146 67 49 87
4 114 113 47 154
4 163 108 182 144
4 12 6 13 9
4 173 35 111 156
4 163 182 139 75
4 260 257 6 9
4 105 29 35 156
4 163 139 113 154
4 256 10 257 9
4 146 49 29 156
4 163 113 108 107
4 80 111 49 156
4 102 101 281 4
4 12 57 5 58
4 44 194 104 144
4 96 194 62 98
4 2 0 5 3
4 93 73 185 72
4 179 119 1 4
4 200 77 90 46
4 114 33 113 107
4 7 10 14 11
4 96 62 57 58
4 133 213 0 3
4 102 90 101 46
4 256 255 10 11
4 63 62 249 98
4 114 47 77 46
4 179 1 255 11
4 211 249 165 98
4 114 77 33 168
4 198 79 88 87
4 8 14 1 11
CELL_TYPES 256
8
8
8
8
8
8
8
8
8
8
8
8
8
8
8
8
8
8
8
8
8
8
8
8
8
8
8
8
8
8
8
8
8
8
8
8
8
8
8
8
8
8
8
8
8
8
8
8
8
8
8
8
8
8
8
8
8
8
8
8
8
8
8
8
8
8
8
8
8
8
8
8
8
8
8
8
8
8
8
8
8
8
8
8
8
8
8
8
8
8
8
8
8
8
8
8
8
8
8
8
8
8
8
8
8
8
8
8
8
8
8
8
8
8
8
8
8
8
8
8
8
8
8
8
8
8
8
8
8
8
8
8
8
8
8
8
8
8
8
8
8
8
8
8
8
8
8
8
8
8
8
8
8
8
8
8
8
8
8
8
8
8
8
8
8
8
8
8
8
8
8
8
8
8
8
8
8
8
8
8
8
8
8
8
8
8
8
8
8
8
8
8
8
8
8
8
8
8
8
8
8
8
8
8
8
8
8
8
8
8
8
8
8
8
8
8
8
8
8
8
8
8
8
8
8
8
8
8
8
8
8
8
8
8
8
8
8
8
8
8
8
8
8
8
8
8
8
8
8
8
8
8
8
8
8
8
CELL_DATA 256
VECTORS vector_value float
-0.248748 -0.639264 0
0.694377 -1.04106 0
0.579138 -1.6842 0
-0.109853 -0.970892 0
-0.0451504 -0.623553 0
-0.144502 -0.520241 0
-0.0493249 -0.760962 0
-0.0518952 -0.417683 0
0.745394 -1.59464 0
0.0351093 -1.1585 0
0.660298 -0.72634 0
-0.09372 -0.469707 0
0.123373 -1.19763 0
-0.23052 -1.09432 0
0.469952 -1.46217 0
0.24645 -0.715708 0
-0.0663207 -1.74828 0
-0.394229 -0.936747 0
-0.120769 -1.4783 0
-0.022997 -0.253647 0
-0.547315 -1.62598 0
0.280966 -0.53053 0
-0.0153909 -0.708712 0
-0.546864 -1.01569 0
-0.0569141 -1.10415 0
0.249035 -0.994498 0
-0.0642404 -0.82418 0
-0.0463117 -0.33466 0
-0.0731833 -0.774411 0
0.359166 -0.481052 0
0.0121672 -1.02492 0
-0.419502 -0.64948 0
0.0911049 -0.353416 0
-0.355778 -1.1965 0
-0.087396 -0.50693 0
0.145286 -0.847215 0
0.17351 -0.380254 0
-0.196993 -0.585273 0
-0.0432225 -1.02778 0
-0.00395273 -1.29335 0
-0.0826612 -0.545163 0
0.776983 -1.29557 0
0.253811 -0.818698 0
0.132621 -0.499761 0
1.0419 -1.64824 0
-0.244835 -0.925092 0
0.506899 -0.619479 0
-0.0946576 -1.4854 0
0.49616 -1.21257 0
0.164363 -0.976102 0
0.0669121 -0.288184 0
0.225735 -0.404037 0
-0.142673 -1.3868 0
-0.0636804 -0.582172 0
0.157483 -1.0906 0
0.427056 -1.01096 0
0.272303 -0.814559 0
-0.0194818 -0.225721 0
-0.160702 -1.01993 0
-0.00532787 -0.420892 0
0.0816164 -0.541174 0
0.00534286 -0.931221 0
0.369119 -1.50151 0
-0.0007479 -0.178092 0
-0.0315514 -0.171749 0
0.365736 -0.606545 0
1.36457 -1.82952 0
0.448358 -1.4594 0
0.0441725 -0.400113 0
-0.0173982 -0.717709 0
-0.0850671 -1.33881 0
-0.185868 -0.609052 0
0.148967 -0.50228 0
0.253447 -1.67389 0
-0.308218 -0.659014 0
0.0447498 -0.782047 0
0.242856 -1.19428 0
-0.183599 -1.85629 0
0.0588474 -0.637549 0
0.0637088 -0.577432 0
-0.448754 -1.46135 0
0.0734123 -0.664809 0
-0.255332 -0.690719 0
0.00308707 -1.36156 0
0.153569 -0.864467 0
-0.760838 -1.15987 0
-0.0153641 -0.180667 0
0.199009 -1.80278 0
-0.4783 -1.02588 0
-0.224586 -0.914994 0
0.0278034 -0.179207 0
-0.222625 -0.915458 0
-0.0128935 -0.321548 0
-0.0728008 -2.0764 0
0.235787 -0.796311 0
-0.367066 -1.05004 0
0.0930094 -0.719659 0
0.140867 -0.323537 0
-0.872201 -0.902709 0
0.196239 -2.17887 0
0.0632651 -1.56166 0
0.0835606 -0.279027 0
-0.278016 -0.78548 0
0.0815737 -2.11649 0
-0.486014 -0.785966 0
0.336481 -0.988532 0
0.160648 -1.08691 0
0.00399384 -0.198102 0
-0.423404 -0.869889 0
0.260873 -1.29686 0
0.0305233 -0.828616 0
-0.109487 -0.852091 0
0.752832 -1.73224 0
0.0191963 -0.270722 0
-0.0827427 -1.23625 0
0.038828 -0.319005 0
0.156324 -1.61348 0
0.318803 -2.1666 0
-0.208755 -0.406482 0
-0.0568656 -1.71677 0
-0.308157 -1.39649 0
0.386584 -1.48666 0
-0.0389491 -0.344334 0
-0.285457 -0.911874 0
0.0985907 -0.330092 0
-0.360252 -0.616127 0
-0.109285 -1.27717 0
-0.20531 -1.17137 0
-0.146921 -2.74639 0
-0.451674 -3.08788 0
-0.12438 -1.70283 0
0.187449 -3.04951 0
-0.167075 -1.77727 0
-0.0161962 -0.862744 0
-0.255968 -0.422764 0
-0.123919 -0.555695 0
-0.167425 -0.553073 0
0.376183 -3.3998 0
-0.00793793 -0.54971 0
-0.186625 -0.337669 0
-0.0213534 -0.163256 0
0.0539396 -0.65459 0
-0.122926 -0.348347 0
-0.0221673 -0.826016 0
-0.0595252 -0.295631 0
-0.129776 -0.445429 0
0.055361 -1.61727 0
-0.248761 -0.517906 0
-0.205661 -0.719028 0
-0.158046 -0.214502 0
-0.0725265 -0.557864 0
-0.191752 -2.94277 0
-0.0396543 -1.72864 0
-0.212094 -0.326328 0
-0.015507 -1.07968 0
0.396617 -2.53225 0
-0.173715 -0.438341 0
-0.311558 -0.608225 0
0.0243287 -0.243531 0
-0.196556 -0.250095 0
0.0607386 -2.41579 0
0.021452 -2.48069 0
-0.180227 -1.26141 0
0.000290098 -0.601136 0
-0.0986006 -0.49381 0
-0.23323 -0.392782 0
-0.0535207 -0.796487 0
0.0272734 -3.37162 0
-0.0205627 -0.883261 0
-0.102449 -0.18647 0
0.117554 -1.25127 0
-0.0707518 -0.985826 0
0.0571786 -0.522904 0
-0.100394 -0.220954 0
0.150265 -0.954541 0
-0.351047 -0.410613 0
-0.0651595 -0.654068 0
-0.0207328 -2.86127 0
-0.195238 -0.474756 0
-0.295703 -0.881373 0
0.00478685 -0.220586 0
0.607678 -1.82812 0
-0.083672 -0.496193 0
-0.266502 -0.307116 0
0.0509751 -2.92392 0
-0.308778 -2.50759 0
-0.134436 -0.273768 0
-0.0745878 -0.60108 0
0.215696 -2.22764 0
-0.287399 -0.95359 0
0.246626 -1.56754 0
-0.000488983 -0.262076 0
-0.107605 -0.706039 0
-0.048524 -0.662052 0
0.00841548 -1.62226 0
0.062514 -0.57051 0
0.152139 -0.372814 0
-0.423146 -0.438647 0
-0.373406 -1.4359 0
0.0696511 -0.458283 0
0.292138 -0.37625 0
-0.388534 -1.48398 0
-0.367771 -1.00184 0
-0.0594198 -0.286931 0
-0.0717271 -2.9676 0
-0.0300461 -0.937316 0
-0.448893 -0.823626 0
0.139252 -0.366373 0
-0.502311 -1.55576 0
-0.346474 -1.22378 0
0.39829 -0.447706 0
-0.207897 -0.482974 0
-0.0578277 -1.44365 0
0.0533308 -0.449627 0
-0.195384 -0.442141 0
-0.109104 -1.3675 0
-0.148722 -1.34378 0
-0.347281 -1.3242 0
-0.211005 -1.82134 0
-0.0996382 -0.934649 0
0.143785 -0.847973 0
-0.0776472 -1.02222 0
0.0899981 -0.486273 0
-0.216225 -0.602715 0
0.0143648 -1.21353 0
-0.0645003 -0.508497 0
0.108457 -1.04634 0
-0.124944 -1.54465 0
-0.194047 -0.410349 0
0.292944 -0.441032 0
-0.143054 -0.955757 0
-0.103807 -0.456407 0
0.394114 -0.446291 0
0.225732 -1.23711 0
0.203032 -1.3891 0
-0.588261 -2.94307 0
-0.111974 -0.962765 0
-0.0746033 -0.61478 0
-0.51199 -1.69027 0
-0.0619278 -0.945227 0
-0.00103752 -0.586841 0
0.0411451 -1.52605 0
-0.0914793 -0.432745 0
0.126147 -0.732267 0
-0.276297 -0.999008 0
-0.147956 -1.04763 0
-0.119258 -0.951178 0
-0.492271 -1.21404 0
0.899453 -1.46955 0
-0.306422 -0.869852 0
-0.0965324 -0.450353 0
0.885549 -1.91452 0
-0.615824 -1.39857 0
0.0656336 -0.516248 0
-0.0747269 -1.50638 0
0.4299 -2.0211 0
