# vtk DataFile Version 2.0
Unstructured Grid by M++
ASCII
DATASET UNSTRUCTURED_GRID
POINTS 81 float
  1.000000   0.625000 0
  0.750000   0.375000 0
  1.000000   0.000000 0
  0.875000   0.875000 0
  0.750000   0.125000 0
  1.000000   1.000000 0
  0.875000   0.250000 0
  0.625000   0.875000 0
  1.000000   0.750000 0
  0.875000   0.000000 0
  1.000000   0.250000 0
  0.625000   0.375000 0
  0.875000   0.500000 0
  0.625000   0.625000 0
  1.000000   0.500000 0
  0.750000   0.500000 0
  0.750000   1.000000 0
  1.000000   0.125000 0
  0.625000   0.250000 0
  0.750000   0.750000 0
  0.625000   0.000000 0
  0.125000   0.375000 0
  0.000000   0.500000 0
  0.125000   0.625000 0
  0.625000   1.000000 0
  1.000000   0.875000 0
  0.875000   0.125000 0
  0.500000   0.250000 0
  0.625000   0.500000 0
  0.250000   0.625000 0
  0.000000   0.625000 0
  0.375000   0.500000 0
  0.375000   0.000000 0
  0.000000   0.125000 0
  0.125000   0.875000 0
  0.875000   1.000000 0
  0.750000   0.250000 0
  0.375000   0.375000 0
  0.250000   0.375000 0
  0.625000   0.750000 0
  0.125000   0.125000 0
  0.500000   0.000000 0
  0.250000   0.875000 0
  0.125000   0.500000 0
  0.500000   0.375000 0
  0.125000   0.000000 0
  0.250000   0.750000 0
  0.250000   0.500000 0
  0.000000   0.875000 0
  0.875000   0.625000 0
  0.500000   0.750000 0
  0.750000   0.625000 0
  0.250000   0.000000 0
  0.375000   0.750000 0
  0.750000   0.875000 0
  0.625000   0.125000 0
  0.250000   0.250000 0
  0.375000   1.000000 0
  0.375000   0.250000 0
  0.000000   0.375000 0
  0.500000   1.000000 0
  0.875000   0.750000 0
  0.750000   0.000000 0
  0.375000   0.125000 0
  0.500000   0.875000 0
  0.000000   0.000000 0
  0.125000   0.750000 0
  0.500000   0.625000 0
  0.125000   0.250000 0
  0.500000   0.125000 0
  0.250000   1.000000 0
  0.250000   0.125000 0
  0.000000   1.000000 0
  0.375000   0.875000 0
  0.000000   0.750000 0
  0.375000   0.625000 0
  0.000000   0.250000 0
  0.125000   1.000000 0
  1.000000   0.375000 0
  0.500000   0.500000 0
  0.875000   0.375000 0
CELLS 64 320
4 56 71 58 63
4 27 58 69 63
4 41 69 32 63
4 76 33 68 40
4 27 44 58 37
4 79 31 44 37
4 56 38 68 21
4 56 58 38 37
4 52 32 71 63
4 47 38 31 37
4 76 68 59 21
4 22 59 43 21
4 65 45 33 40
4 47 43 38 21
4 52 71 45 40
4 56 68 71 40
4 74 30 66 23
4 46 66 29 23
4 22 43 30 23
4 72 48 77 34
4 46 53 42 73
4 50 64 53 73
4 70 42 57 73
4 74 66 48 34
4 46 42 66 34
4 47 29 43 23
4 70 77 42 34
4 60 57 64 73
4 79 67 31 75
4 47 31 29 75
4 50 53 67 75
4 46 29 53 75
4 10 78 6 80
4 36 6 1 80
4 15 1 12 80
4 36 4 6 26
4 14 12 78 80
4 2 17 9 26
4 36 18 4 55
4 15 28 1 11
4 62 4 20 55
4 10 6 17 26
4 27 18 44 11
4 62 9 4 26
4 27 69 18 55
4 36 1 18 11
4 41 20 69 55
4 79 44 28 11
4 16 24 54 7
4 19 54 39 7
4 50 39 64 7
4 8 25 61 3
4 60 64 24 7
4 79 28 67 13
4 19 51 61 49
4 8 61 0 49
4 15 51 28 13
4 19 39 51 13
4 50 67 39 13
4 19 61 54 3
4 14 0 12 49
4 5 35 25 3
4 15 12 51 49
4 16 54 35 3
CELL_TYPES 64
8
8
8
8
8
8
8
8
8
8
8
8
8
8
8
8
8
8
8
8
8
8
8
8
8
8
8
8
8
8
8
8
8
8
8
8
8
8
8
8
8
8
8
8
8
8
8
8
8
8
8
8
8
8
8
8
8
8
8
8
8
8
8
8
CELL_DATA 64
VECTORS vector_value float
0.697329 -1.07396 0
-0.160512 -1.70947 0
0.0258071 -2.36527 0
0.126761 -1.99328 0
0.0259829 -0.831699 0
0.135563 -1.36846 0
0.314307 -1.58546 0
0.0858747 -0.679204 0
0.270729 -1.49299 0
-0.0796605 -0.561891 0
0.150682 -2.36845 0
-0.392976 -2.5776 0
0.00579551 -1.92244 0
-0.357903 -1.39618 0
0.0803961 -0.61232 0
0.654891 -1.29833 0
-0.0397766 -0.127662 0
0.0371661 -0.934043 0
-0.774124 -1.04157 0
0.44549 -0.422613 0
0.173074 -2.31321 0
-0.0681505 -1.0913 0
-0.301399 -2.31668 0
0.0178955 -0.0676563 0
0.145034 -1.56873 0
-2.25022 -1.20931 0
0.661125 -0.985942 0
-0.929518 -0.576053 0
-0.801074 -2.07033 0
-1.98215 -1.57638 0
0.0658188 -2.09644 0
0.400072 -2.29406 0
-0.182317 -0.453752 0
-0.409947 -0.464227 0
-0.0807649 -0.326471 0
-0.215009 -0.326931 0
-0.0864621 -0.779243 0
-0.00557774 -0.15923 0
-0.307131 -0.429002 0
-0.0327384 -0.145747 0
-0.0856137 -0.384191 0
-0.06543 -0.235091 0
-0.0708014 -1.3278 0
-0.0255168 -0.191507 0
-0.395981 -0.933945 0
-0.242019 -0.289414 0
-0.131718 -0.872051 0
0.0821209 -0.844401 0
-0.484789 -0.65525 0
-0.0912248 -0.236954 0
-0.137424 -0.846212 0
-0.0324306 -1.21514 0
-0.907923 -1.06529 0
-0.440492 -0.643642 0
-0.276183 -0.489288 0
-0.08662 -1.07062 0
-0.36463 -0.26331 0
-0.36329 -0.327141 0
-0.34878 -0.660747 0
-0.135845 -0.660799 0
-0.0677797 -0.904 0
0.105303 -1.08062 0
-0.172225 -0.291459 0
0.0662206 -0.897545 0
