# vtk DataFile Version 2.0
Unstructured Grid by M++
ASCII
DATASET UNSTRUCTURED_GRID
POINTS 81 float
  1.000000   0.625000 0
  0.750000   0.375000 0
  1.000000   0.000000 0
  0.875000   0.875000 0
  0.750000   0.125000 0
  1.000000   1.000000 0
  0.875000   0.250000 0
  0.625000   0.875000 0
  1.000000   0.750000 0
  0.875000   0.000000 0
  1.000000   0.250000 0
  0.625000   0.375000 0
  0.875000   0.500000 0
  0.625000   0.625000 0
  1.000000   0.500000 0
  0.750000   0.500000 0
  0.750000   1.000000 0
  1.000000   0.125000 0
  0.625000   0.250000 0
  0.750000   0.750000 0
  0.625000   0.000000 0
  0.125000   0.375000 0
  0.000000   0.500000 0
  0.125000   0.625000 0
  0.625000   1.000000 0
  1.000000   0.875000 0
  0.875000   0.125000 0
  0.500000   0.250000 0
  0.625000   0.500000 0
  0.250000   0.625000 0
  0.000000   0.625000 0
  0.375000   0.500000 0
  0.375000   0.000000 0
  0.000000   0.125000 0
  0.125000   0.875000 0
  0.875000   1.000000 0
  0.750000   0.250000 0
  0.375000   0.375000 0
  0.250000   0.375000 0
  0.625000   0.750000 0
  0.125000   0.125000 0
  0.500000   0.000000 0
  0.250000   0.875000 0
  0.125000   0.500000 0
  0.500000   0.375000 0
  0.125000   0.000000 0
  0.250000   0.750000 0
  0.250000   0.500000 0
  0.000000   0.875000 0
  0.875000   0.625000 0
  0.500000   0.750000 0
  0.750000   0.625000 0
  0.250000   0.000000 0
  0.375000   0.750000 0
  0.750000   0.875000 0
  0.625000   0.125000 0
  0.250000   0.250000 0
  0.375000   1.000000 0
  0.375000   0.250000 0
  0.000000   0.375000 0
  0.500000   1.000000 0
  0.875000   0.750000 0
  0.750000   0.000000 0
  0.375000   0.125000 0
  0.500000   0.875000 0
  0.000000   0.000000 0
  0.125000   0.750000 0
  0.500000   0.625000 0
  0.125000   0.250000 0
  0.500000   0.125000 0
  0.250000   1.000000 0
  0.250000   0.125000 0
  0.000000   1.000000 0
  0.375000   0.875000 0
  0.000000   0.750000 0
  0.375000   0.625000 0
  0.000000   0.250000 0
  0.125000   1.000000 0
  1.000000   0.375000 0
  0.500000   0.500000 0
  0.875000   0.375000 0
CELLS 64 320
4 56 71 58 63
4 27 58 69 63
4 41 69 32 63
4 76 33 68 40
4 27 44 58 37
4 79 31 44 37
4 56 38 68 21
4 56 58 38 37
4 52 32 71 63
4 47 38 31 37
4 76 68 59 21
4 22 59 43 21
4 65 45 33 40
4 47 43 38 21
4 52 71 45 40
4 56 68 71 40
4 74 30 66 23
4 46 66 29 23
4 22 43 30 23
4 72 48 77 34
4 46 53 42 73
4 50 64 53 73
4 70 42 57 73
4 74 66 48 34
4 46 42 66 34
4 47 29 43 23
4 70 77 42 34
4 60 57 64 73
4 79 67 31 75
4 47 31 29 75
4 50 53 67 75
4 46 29 53 75
4 10 78 6 80
4 36 6 1 80
4 15 1 12 80
4 36 4 6 26
4 14 12 78 80
4 2 17 9 26
4 36 18 4 55
4 15 28 1 11
4 62 4 20 55
4 10 6 17 26
4 27 18 44 11
4 62 9 4 26
4 27 69 18 55
4 36 1 18 11
4 41 20 69 55
4 79 44 28 11
4 16 24 54 7
4 19 54 39 7
4 50 39 64 7
4 8 25 61 3
4 60 64 24 7
4 79 28 67 13
4 19 51 61 49
4 8 61 0 49
4 15 51 28 13
4 19 39 51 13
4 50 67 39 13
4 19 61 54 3
4 14 0 12 49
4 5 35 25 3
4 15 12 51 49
4 16 54 35 3
CELL_TYPES 64
8
8
8
8
8
8
8
8
8
8
8
8
8
8
8
8
8
8
8
8
8
8
8
8
8
8
8
8
8
8
8
8
8
8
8
8
8
8
8
8
8
8
8
8
8
8
8
8
8
8
8
8
8
8
8
8
8
8
8
8
8
8
8
8
CELL_DATA 64
VECTORS vector_value float
0.00556788 -0.0421515 0
-0.00972763 -0.1699 0
-0.00558719 -0.0339588 0
0.165775 -1.20886 0
0.130967 -0.334179 0
0.22688 -0.227072 0
-0.0595463 -0.209966 0
-0.00282842 -0.00901846 0
0.128743 -0.431632 0
0.222923 -0.411669 0
-0.0358392 -1.34974 0
-0.324717 -1.07428 0
0.0107064 -0.923144 0
-0.231069 -0.323154 0
0.104367 -0.314782 0
0.261728 -0.336584 0
0.255232 -0.882272 0
0.121755 -0.653749 0
0.0741133 -0.547373 0
-0.149736 -1.38511 0
-0.0189648 -0.261091 0
0.652534 -1.34563 0
0.986449 -0.696651 0
0.0446782 -1.27224 0
0.0298766 -0.0561423 0
0.0340865 -1.10648 0
0.175661 -0.083939 0
0.978701 -1.62228 0
-0.0792638 -0.240758 0
-0.102326 -0.243734 0
-0.0819727 -0.258455 0
-0.151847 -0.187242 0
0.337856 -1.14026 0
1.4899 -1.62165 0
-0.0707026 -0.484718 0
1.33682 -2.91027 0
-0.00575004 -0.660828 0
-0.129981 -0.915427 0
0.446258 -0.888261 0
0.00528177 -3.4419 0
0.162907 -0.542748 0
-0.115374 -2.27981 0
0.627592 -0.886545 0
-0.67578 -4.6979 0
0.0382363 -0.16416 0
1.72356 -2.44864 0
0.0532836 -0.140408 0
0.18859 -1.37638 0
0.434666 -1.53501 0
0.237079 -1.93555 0
0.521874 -0.849942 0
0.107839 -1.72207 0
0.778298 -0.707434 0
0.0129683 -1.07024 0
-0.0743224 -0.258439 0
-0.396531 -1.81337 0
0.0544259 -2.38301 0
0.347674 -2.15617 0
0.514318 -1.7903 0
0.0885321 -0.557343 0
-0.206402 -0.93683 0
0.344393 -1.57648 0
-0.816219 -1.47157 0
0.373516 -0.393104 0
