# vtk DataFile Version 2.0
Unstructured Grid by M++
ASCII
DATASET UNSTRUCTURED_GRID
POINTS 289 float
  0.562500   1.000000 0
  0.562500   0.625000 0
  0.625000   1.000000 0
  0.562500   0.937500 0
  0.562500   0.562500 0
  0.625000   0.937500 0
  0.562500   0.875000 0
  0.625000   0.750000 0
  0.625000   0.625000 0
  0.562500   0.812500 0
  0.562500   0.750000 0
  0.562500   0.687500 0
  0.625000   0.875000 0
  0.625000   0.812500 0
  0.625000   0.687500 0
  0.687500   0.125000 0
  0.875000   0.062500 0
  0.625000   0.125000 0
  0.625000   0.187500 0
  0.625000   0.250000 0
  0.812500   0.187500 0
  1.000000   0.125000 0
  0.687500   0.187500 0
  0.750000   0.125000 0
  0.937500   0.062500 0
  0.937500   0.125000 0
  0.750000   0.187500 0
  0.812500   0.062500 0
  0.812500   0.125000 0
  0.875000   0.687500 0
  0.187500   0.250000 0
  0.437500   0.250000 0
  0.375000   0.187500 0
  0.812500   0.625000 0
  0.125000   0.187500 0
  0.937500   0.750000 0
  0.250000   0.312500 0
  0.500000   0.312500 0
  0.625000   0.062500 0
  0.437500   0.500000 0
  0.375000   0.125000 0
  0.437500   0.187500 0
  0.437500   0.437500 0
  0.437500   0.375000 0
  0.875000   0.875000 0
  0.187500   0.375000 0
  0.687500   0.562500 0
  0.687500   0.625000 0
  0.000000   0.125000 0
  0.937500   0.625000 0
  0.250000   0.125000 0
  0.375000   0.062500 0
  0.375000   0.000000 0
  0.812500   0.500000 0
  0.125000   0.000000 0
  0.937500   0.937500 0
  0.250000   0.437500 0
  0.687500   0.875000 0
  0.687500   0.937500 0
  0.000000   0.437500 0
  0.500000   0.500000 0
  0.500000   0.437500 0
  0.750000   0.937500 0
  0.750000   1.000000 0
  0.062500   0.500000 0
  1.000000   1.000000 0
  0.312500   0.500000 0
  0.875000   0.562500 0
  0.187500   0.062500 0
  0.437500   0.125000 0
  0.437500   0.062500 0
  0.500000   0.375000 0
  0.937500   0.812500 0
  0.937500   0.875000 0
  0.250000   0.375000 0
  0.687500   0.812500 0
  0.000000   0.375000 0
  0.750000   0.562500 0
  0.062500   0.125000 0
  1.000000   0.562500 0
  1.000000   0.625000 0
  0.312500   0.125000 0
  0.562500   0.125000 0
  0.437500   0.000000 0
  0.875000   0.437500 0
  0.875000   0.500000 0
  0.187500   0.000000 0
  0.937500   0.562500 0
  0.937500   0.500000 0
  0.250000   0.062500 0
  0.687500   0.500000 0
  0.000000   0.062500 0
  0.500000   0.062500 0
  1.000000   0.875000 0
  1.000000   0.937500 0
  0.312500   0.437500 0
  0.750000   0.875000 0
  0.062500   0.437500 0
  0.812500   0.937500 0
  0.125000   0.500000 0
  0.375000   0.500000 0
  0.625000   0.562500 0
  0.625000   0.500000 0
  0.437500   0.312500 0
  0.875000   0.812500 0
  0.875000   0.750000 0
  0.187500   0.312500 0
  0.812500   0.687500 0
  0.812500   0.750000 0
  0.125000   0.250000 0
  0.375000   0.250000 0
  1.000000   0.687500 0
  0.312500   0.187500 0
  0.750000   0.687500 0
  0.750000   0.625000 0
  0.062500   0.187500 0
  0.562500   0.250000 0
  0.562500   0.187500 0
  0.375000   1.000000 0
  0.500000   0.562500 0
  0.500000   0.250000 0
  0.750000   0.250000 0
  0.500000   0.125000 0
  0.500000   0.187500 0
  1.000000   0.187500 0
  0.625000   0.375000 0
  0.875000   0.375000 0
  1.000000   0.437500 0
  0.312500   0.000000 0
  0.562500   0.000000 0
  0.812500   0.000000 0
  0.250000   0.687500 0
  0.000000   0.687500 0
  0.500000   1.000000 0
  0.250000   1.000000 0
  0.000000   1.000000 0
  0.437500   0.687500 0
  0.437500   0.625000 0
  0.187500   0.625000 0
  0.687500   0.750000 0
  0.000000   0.312500 0
  0.000000   0.250000 0
  0.375000   0.375000 0
  0.375000   0.312500 0
  0.812500   0.812500 0
  0.125000   0.312500 0
  0.875000   0.625000 0
  0.187500   0.187500 0
  0.187500   0.125000 0
  0.937500   1.000000 0
  0.250000   0.562500 0
  0.250000   0.500000 0
  0.687500   1.000000 0
  0.000000   0.500000 0
  0.687500   0.687500 0
  0.000000   0.187500 0
  0.937500   0.687500 0
  0.250000   0.250000 0
  0.250000   0.187500 0
  0.187500   0.687500 0
  0.000000   0.750000 0
  0.250000   0.750000 0
  0.125000   0.625000 0
  0.750000   0.750000 0
  0.062500   0.250000 0
  0.875000   0.937500 0
  0.187500   0.500000 0
  0.187500   0.437500 0
  0.812500   0.562500 0
  0.125000   0.125000 0
  0.125000   0.062500 0
  0.375000   0.625000 0
  0.375000   0.687500 0
  1.000000   0.750000 0
  0.312500   0.250000 0
  0.312500   0.312500 0
  0.812500   0.312500 0
  0.562500   0.312500 0
  0.375000   0.750000 0
  0.500000   0.625000 0
  0.250000   0.625000 0
  0.312500   0.687500 0
  0.750000   0.812500 0
  0.062500   0.312500 0
  0.062500   0.375000 0
  1.000000   0.812500 0
  0.312500   0.375000 0
  0.562500   0.375000 0
  0.687500   0.437500 0
  0.000000   0.000000 0
  0.500000   0.000000 0
  0.937500   0.437500 0
  0.250000   0.000000 0
  0.375000   0.437500 0
  0.812500   0.875000 0
  0.125000   0.375000 0
  0.125000   0.437500 0
  0.625000   0.437500 0
  1.000000   0.500000 0
  0.312500   0.062500 0
  0.750000   0.500000 0
  0.062500   0.000000 0
  0.062500   0.062500 0
  0.562500   0.062500 0
  0.062500   0.750000 0
  0.312500   0.750000 0
  0.312500   0.625000 0
  0.312500   0.562500 0
  0.062500   0.562500 0
  0.187500   1.000000 0
  0.437500   0.562500 0
  0.875000   1.000000 0
  0.187500   0.562500 0
  0.500000   0.937500 0
  0.250000   0.937500 0
  0.312500   1.000000 0
  0.125000   0.750000 0
  0.125000   0.687500 0
  1.000000   0.000000 0
  0.000000   0.937500 0
  0.000000   0.875000 0
  0.875000   0.125000 0
  0.875000   0.187500 0
  0.062500   0.812500 0
  0.312500   0.812500 0
  0.000000   0.812500 0
  0.000000   0.625000 0
  0.000000   0.562500 0
  0.062500   1.000000 0
  0.062500   0.937500 0
  0.937500   0.187500 0
  0.937500   0.250000 0
  0.062500   0.687500 0
  0.062500   0.625000 0
  0.125000   1.000000 0
  1.000000   0.250000 0
  1.000000   0.312500 0
  0.062500   0.875000 0
  0.125000   0.812500 0
  0.375000   0.812500 0
  0.125000   0.875000 0
  0.375000   0.937500 0
  0.375000   0.875000 0
  0.187500   0.750000 0
  0.187500   0.812500 0
  0.437500   0.812500 0
  0.187500   0.875000 0
  0.437500   0.875000 0
  0.375000   0.562500 0
  0.812500   1.000000 0
  0.125000   0.562500 0
  0.437500   1.000000 0
  0.437500   0.937500 0
  0.187500   0.937500 0
  0.125000   0.937500 0
  0.500000   0.687500 0
  0.500000   0.750000 0
  0.500000   0.812500 0
  0.250000   0.812500 0
  0.250000   0.875000 0
  0.500000   0.875000 0
  0.437500   0.750000 0
  0.312500   0.875000 0
  0.312500   0.937500 0
  0.687500   0.250000 0
  0.687500   0.312500 0
  0.937500   0.312500 0
  0.875000   0.250000 0
  0.625000   0.000000 0
  0.875000   0.000000 0
  0.687500   0.375000 0
  0.937500   0.375000 0
  0.875000   0.312500 0
  0.625000   0.312500 0
  0.687500   0.000000 0
  0.937500   0.000000 0
  0.750000   0.312500 0
  0.750000   0.375000 0
  1.000000   0.375000 0
  0.812500   0.250000 0
  0.562500   0.437500 0
  0.562500   0.500000 0
  0.687500   0.062500 0
  0.750000   0.437500 0
  0.750000   0.000000 0
  0.750000   0.062500 0
  1.000000   0.062500 0
  0.812500   0.375000 0
  0.812500   0.437500 0
CELLS 256 1280
4 169 170 148 68
4 151 166 56 167
4 195 45 196 167
4 54 170 201 202
4 109 34 30 147
4 40 32 81 112
4 192 89 86 68
4 48 91 78 202
4 99 64 196 97
4 71 43 37 103
4 74 186 56 95
4 109 164 34 115
4 50 81 158 112
4 122 69 92 70
4 195 145 45 106
4 110 143 174 175
4 157 30 158 147
4 40 69 32 41
4 50 158 148 147
4 141 155 164 115
4 122 123 69 41
4 142 186 143 175
4 60 39 61 42
4 40 51 69 70
4 120 31 123 41
4 157 174 36 175
4 50 148 89 68
4 48 78 155 115
4 52 83 51 70
4 151 56 66 95
4 71 61 43 42
4 169 148 34 147
4 100 193 39 42
4 40 81 51 199
4 110 174 32 112
4 109 30 145 106
4 100 66 193 95
4 169 34 78 115
4 190 92 83 70
4 50 89 81 199
4 54 86 170 68
4 74 56 45 167
4 142 143 43 103
4 153 59 64 97
4 99 196 166 167
4 169 78 170 202
4 142 193 186 95
4 192 128 89 199
4 74 45 36 106
4 110 31 143 103
4 76 184 59 97
4 142 43 193 42
4 52 51 128 199
4 189 201 91 202
4 120 37 31 103
4 74 36 186 175
4 195 196 184 97
4 141 164 140 183
4 157 158 174 112
4 109 145 164 183
4 195 184 145 183
4 110 32 31 41
4 157 36 30 106
4 76 140 184 183
4 171 172 206 181
4 178 172 261 136
4 256 261 255 136
4 256 257 261 245
4 180 150 206 207
4 60 119 39 210
4 118 215 241 263
4 178 205 172 181
4 216 243 238 244
4 162 217 233 232
4 180 206 131 181
4 179 137 119 210
4 216 204 217 232
4 220 237 219 229
4 216 217 243 159
4 259 258 262 224
4 240 254 237 229
4 153 64 227 208
4 161 205 258 224
4 240 237 238 223
4 226 227 233 208
4 234 228 254 229
4 171 248 137 210
4 160 132 204 232
4 180 131 138 159
4 133 251 213 252
4 171 206 248 207
4 162 138 217 159
4 161 258 243 244
4 220 225 237 223
4 151 150 166 212
4 260 247 257 245
4 259 262 214 263
4 151 66 150 207
4 234 254 209 253
4 162 233 250 208
4 242 241 262 263
4 171 137 172 136
4 161 243 131 159
4 160 204 225 223
4 161 131 205 181
4 179 255 137 136
4 216 238 204 223
4 100 39 248 210
4 260 213 247 252
4 226 233 132 232
4 134 214 215 263
4 180 138 150 212
4 178 261 239 245
4 259 246 258 244
4 178 239 205 224
4 240 238 246 244
4 242 262 239 224
4 99 250 64 208
4 240 246 254 253
4 242 239 247 245
4 135 219 228 229
4 99 166 250 212
4 259 214 246 253
4 118 241 251 252
4 100 248 66 207
4 134 209 214 253
4 162 250 138 212
4 242 247 241 252
4 71 187 61 280
4 102 281 197 280
4 122 92 82 203
4 17 18 82 117
4 122 82 123 117
4 19 264 273 265
4 267 279 222 20
4 125 273 270 265
4 267 272 279 176
4 19 116 18 117
4 21 25 286 24
4 23 28 26 20
4 23 285 28 27
4 218 286 275 24
4 85 53 84 288
4 235 236 231 266
4 221 222 28 20
4 267 222 231 230
4 268 38 129 203
4 125 270 197 188
4 126 287 272 176
4 277 270 276 265
4 267 231 272 266
4 125 197 187 280
4 190 129 92 203
4 277 276 287 176
4 19 18 264 22
4 17 82 38 203
4 102 197 90 188
4 126 84 287 288
4 284 130 285 27
4 121 276 264 265
4 71 37 187 177
4 120 123 116 117
4 198 88 127 191
4 221 16 25 24
4 23 26 15 22
4 121 279 276 176
4 235 231 124 230
4 125 187 273 177
4 278 271 236 266
4 277 287 283 288
4 284 285 274 282
4 278 127 271 191
4 269 275 16 24
4 200 283 53 288
4 23 15 285 282
4 121 26 279 20
4 21 124 25 230
4 19 273 116 177
4 200 90 283 188
4 126 271 84 191
4 269 16 130 27
4 17 38 15 282
4 221 25 222 230
4 121 264 26 22
4 120 116 37 177
4 60 61 281 280
4 277 283 270 188
4 126 272 271 266
4 268 274 38 282
4 85 84 88 191
4 17 15 18 22
4 221 28 16 27
4 93 94 73 55
4 85 88 67 87
4 80 49 79 87
4 44 104 73 72
4 146 33 67 168
4 211 165 149 55
4 8 47 14 154
4 105 104 108 144
4 105 108 29 107
4 7 139 13 75
4 44 165 194 98
4 200 53 77 168
4 8 1 101 4
4 2 5 152 58
4 260 6 213 3
4 105 35 104 72
4 96 57 182 75
4 7 14 139 154
4 146 29 33 107
4 7 13 10 9
4 12 13 57 75
4 85 67 53 168
4 44 73 165 55
4 63 152 62 58
4 8 101 47 46
4 96 182 194 144
4 60 281 119 4
4 12 5 6 3
4 173 185 35 72
4 65 149 94 55
4 146 67 49 87
4 114 113 47 154
4 163 108 182 144
4 12 6 13 9
4 173 35 111 156
4 163 182 139 75
4 260 257 6 9
4 105 29 35 156
4 163 139 113 154
4 256 10 257 9
4 146 49 29 156
4 163 113 108 107
4 80 111 49 156
4 102 101 281 4
4 12 57 5 58
4 44 194 104 144
4 96 194 62 98
4 2 0 5 3
4 93 73 185 72
4 179 119 1 4
4 200 77 90 46
4 114 33 113 107
4 7 10 14 11
4 96 62 57 58
4 133 213 0 3
4 102 90 101 46
4 256 255 10 11
4 63 62 249 98
4 114 47 77 46
4 179 1 255 11
4 211 249 165 98
4 114 77 33 168
4 198 79 88 87
4 8 14 1 11
CELL_TYPES 256
8
8
8
8
8
8
8
8
8
8
8
8
8
8
8
8
8
8
8
8
8
8
8
8
8
8
8
8
8
8
8
8
8
8
8
8
8
8
8
8
8
8
8
8
8
8
8
8
8
8
8
8
8
8
8
8
8
8
8
8
8
8
8
8
8
8
8
8
8
8
8
8
8
8
8
8
8
8
8
8
8
8
8
8
8
8
8
8
8
8
8
8
8
8
8
8
8
8
8
8
8
8
8
8
8
8
8
8
8
8
8
8
8
8
8
8
8
8
8
8
8
8
8
8
8
8
8
8
8
8
8
8
8
8
8
8
8
8
8
8
8
8
8
8
8
8
8
8
8
8
8
8
8
8
8
8
8
8
8
8
8
8
8
8
8
8
8
8
8
8
8
8
8
8
8
8
8
8
8
8
8
8
8
8
8
8
8
8
8
8
8
8
8
8
8
8
8
8
8
8
8
8
8
8
8
8
8
8
8
8
8
8
8
8
8
8
8
8
8
8
8
8
8
8
8
8
8
8
8
8
8
8
8
8
8
8
8
8
8
8
8
8
8
8
8
8
8
8
8
8
8
8
8
8
8
8
CELL_DATA 256
VECTORS vector_value float
-0.0528414 -0.853798 0
-0.345171 -0.995051 0
-0.194868 -0.809312 0
-0.0185379 -0.12014 0
0.334197 -1.03632 0
0.63545 -1.32045 0
-0.0118874 -2.17624 0
0.00205349 -0.00772072 0
-0.0465772 -0.124195 0
-0.107723 -0.427294 0
-0.480591 -1.87653 0
0.0778468 -0.193325 0
0.246536 -1.30566 0
0.139882 -0.399255 0
-0.312475 -0.82883 0
-0.128983 -1.19734 0
0.467728 -2.0116 0
0.484868 -0.869441 0
0.12136 -2.28247 0
0.020527 -0.0550876 0
0.219721 -0.227287 0
-0.277421 -1.68778 0
-0.671299 -0.372216 0
0.335298 -1.04496 0
0.0717353 -0.319179 0
-0.263736 -1.46632 0
-0.0631309 -2.24893 0
0.00791996 -0.018782 0
0.146084 -1.05573 0
-0.261452 -2.1442 0
-0.299159 -0.383832 0
0.118532 -0.739894 0
-0.8482 -0.74203 0
0.228947 -1.04945 0
0.16059 -1.17499 0
0.291639 -1.31703 0
-0.511968 -1.29018 0
0.0496786 -0.119224 0
0.0554083 -0.825866 0
0.0295165 -1.08789 0
-0.0252213 -0.88075 0
-0.304014 -1.02934 0
-0.0987919 -0.443297 0
-0.014858 -0.179299 0
-0.195111 -0.598513 0
0.00547494 -0.0718895 0
-0.384437 -1.9218 0
0.000830841 -1.07497 0
-0.639786 -1.58438 0
-0.0181733 -0.517835 0
-0.00556751 -0.200225 0
-0.274882 -0.460044 0
0.0495636 -0.746897 0
0.000708589 -0.00496205 0
-0.00422461 -0.332985 0
-0.518686 -1.4061 0
-0.0624053 -0.226867 0
0.0298881 -0.0953581 0
0.357564 -1.7906 0
0.260214 -0.482899 0
-0.110372 -0.570143 0
0.0564565 -0.493665 0
-0.0414596 -1.71353 0
0.0372806 -0.183959 0
-0.0311105 -0.741568 0
-0.0596882 -0.362554 0
-0.107569 -0.25692 0
-0.0437252 -0.175023 0
-0.194807 -1.31703 0
-0.881812 -0.373899 0
1.78661 -0.744525 0
-0.0250964 -0.566084 0
0.441067 -0.694151 0
0.0387863 -0.103001 0
0.0765254 -1.36076 0
-0.599268 -0.214282 0
0.0443554 -0.165013 0
0.038979 -0.482981 0
0.106139 -0.441226 0
0.194609 -0.498709 0
0.312253 -1.06448 0
-0.0145666 -0.141776 0
0.175678 -0.767652 0
0.32283 -0.541955 0
0.0307525 -0.140609 0
0.352955 -1.16681 0
-0.652467 -0.609346 0
0.00674544 -0.250106 0
0.125842 -0.885218 0
2.65014 -0.967299 0
-0.470818 -0.992956 0
0.0930406 -0.355371 0
0.517894 -0.954403 0
0.0892087 -0.47325 0
-0.0974185 -0.970349 0
0.024865 -0.254647 0
0.374688 -0.481542 0
-0.377512 -1.98515 0
0.284437 -1.05943 0
0.0703326 -0.130539 0
0.302104 -0.479043 0
-0.185959 -0.480832 0
0.212822 -0.904809 0
0.0251001 -0.279222 0
0.187266 -1.24825 0
-0.250526 -0.203296 0
0.162723 -0.316493 0
-0.659444 -0.67411 0
0.840179 -0.658696 0
0.0249206 -0.229108 0
1.23414 -0.679967 0
-0.0662557 -1.04876 0
-0.0141998 -0.413363 0
0.495395 -0.662961 0
0.000684024 -0.487664 0
0.52511 -0.865284 0
0.138609 -0.608282 0
-0.0276789 -0.125572 0
0.558647 -0.955419 0
0.0556193 -0.180064 0
0.218545 -0.670254 0
-0.0690012 -0.43936 0
0.356111 -0.310853 0
2.44948 -0.852284 0
-0.594967 -0.960902 0
0.676019 -0.561373 0
0.0270279 -0.380519 0
0.276532 -0.276883 0
-0.590273 -0.816063 0
-0.846635 -0.742494 0
-0.0701052 -1.11555 0
-4.90359e-05 -2.11315 0
0.0923414 -0.867615 0
-0.111283 -1.13956 0
-0.0490915 -0.190617 0
-0.304586 -1.04802 0
-0.00152159 -0.189828 0
-0.036753 -1.91964 0
-0.20472 -3.7899 0
-0.073434 -0.109314 0
-0.0170034 -0.104585 0
-0.269646 -2.8799 0
0.345445 -1.35169 0
0.072722 -3.66599 0
-0.0759567 -0.153785 0
-0.0204281 -1.41556 0
0.0763706 -1.21948 0
-0.703986 -1.30711 0
0.0931261 -0.399111 0
-0.1142 -0.161576 0
0.0896526 -1.48311 0
-0.617717 -0.789911 0
-0.0389833 -1.04655 0
-0.0556718 -0.0978379 0
-0.182686 -0.847264 0
0.176051 -1.72184 0
-1.04195 -1.29145 0
0.241291 -0.854376 0
0.0211794 -0.176867 0
-0.0650171 -0.0750149 0
-0.146536 -0.962695 0
0.172838 -0.734117 0
0.202933 -2.16206 0
-0.133774 -1.13947 0
0.0120484 -0.125951 0
-0.0266571 -0.0564083 0
0.0019885 -3.69179 0
-0.414448 -1.22665 0
0.130149 -3.39745 0
-0.116583 -0.222514 0
0.0626493 -0.467096 0
0.37164 -2.96621 0
-0.489409 -1.91462 0
-0.293706 -0.761982 0
0.118587 -0.379067 0
-0.0410372 -0.0526559 0
0.0220612 -3.70981 0
0.0259826 -1.2867 0
-0.878346 -0.986202 0
0.55779 -1.58783 0
-0.0641209 -0.358241 0
0.25832 -0.745093 0
-0.0142943 -1.34106 0
-0.0378162 -0.0735953 0
0.0609957 -0.980085 0
-0.654104 -0.410619 0
-0.450698 -0.548041 0
0.248453 -1.57488 0
0.191132 -1.0517 0
0.550811 -1.84781 0
0.101094 -0.696099 0
-0.0797571 -0.240591 0
0.293377 -1.53666 0
0.0202514 -1.51106 0
-0.165282 -2.01358 0
1.99838 -2.46189 0
-1.09317 -2.05054 0
0.605917 -1.33337 0
-0.137433 -0.411449 0
-0.221697 -1.75185 0
-0.454775 -1.16676 0
0.272899 -0.903506 0
1.8486 -2.55174 0
-0.825551 -1.78503 0
-0.810285 -0.164169 0
4.01168 -0.717037 0
1.42658 -0.793778 0
0.515114 -2.74288 0
0.234985 -0.548037 0
0.126378 -0.614408 0
-1.37064 -2.00838 0
0.093064 -0.39688 0
0.393994 -0.63149 0
-0.15907 -1.60196 0
1.03241 -2.05666 0
4.20013 -1.43118 0
-1.08698 -0.65455 0
0.48625 -1.10167 0
-0.939374 -0.190776 0
1.21177 -0.365564 0
0.266815 -4.31643 0
0.131559 -1.06494 0
-0.759637 -2.14655 0
-0.38668 -1.71864 0
-0.21341 -1.05095 0
0.622951 -0.586509 0
-0.275162 -4.04231 0
0.0582387 -0.574732 0
0.319535 -0.427746 0
-0.849349 -2.84057 0
0.0340154 -1.26232 0
-0.0550164 -0.17481 0
-1.09624 -2.0489 0
-0.471248 -1.53743 0
-0.641737 -3.24386 0
-1.42544 -0.508817 0
0.877386 -0.385174 0
2.01623 -3.19885 0
2.41388 -2.60896 0
3.14391 -0.553252 0
0.906111 -2.95865 0
-0.720026 -0.150287 0
-1.56605 -1.48789 0
-0.807788 -1.93815 0
-0.0665367 -0.20237 0
1.17935 -0.991564 0
2.5797 -0.828042 0
-1.80954 -1.05922 0
-0.086937 -0.138877 0
2.94256 -1.93366 0
-1.32757 -1.93463 0
-0.265954 -0.151399 0
1.48805 -1.43657 0
-1.17705 -2.05165 0
0.0522001 -2.18413 0
-0.161351 -0.12007 0
