# vtk DataFile Version 2.0
Unstructured Grid by M++
ASCII
DATASET UNSTRUCTURED_GRID
POINTS 289 float
  0.562500   1.000000 0
  0.562500   0.625000 0
  0.625000   1.000000 0
  0.562500   0.937500 0
  0.562500   0.562500 0
  0.625000   0.937500 0
  0.562500   0.875000 0
  0.625000   0.750000 0
  0.625000   0.625000 0
  0.562500   0.812500 0
  0.562500   0.750000 0
  0.562500   0.687500 0
  0.625000   0.875000 0
  0.625000   0.812500 0
  0.625000   0.687500 0
  0.687500   0.125000 0
  0.875000   0.062500 0
  0.625000   0.125000 0
  0.625000   0.187500 0
  0.625000   0.250000 0
  0.812500   0.187500 0
  1.000000   0.125000 0
  0.687500   0.187500 0
  0.750000   0.125000 0
  0.937500   0.062500 0
  0.937500   0.125000 0
  0.750000   0.187500 0
  0.812500   0.062500 0
  0.812500   0.125000 0
  0.875000   0.687500 0
  0.187500   0.250000 0
  0.437500   0.250000 0
  0.375000   0.187500 0
  0.812500   0.625000 0
  0.125000   0.187500 0
  0.937500   0.750000 0
  0.250000   0.312500 0
  0.500000   0.312500 0
  0.625000   0.062500 0
  0.437500   0.500000 0
  0.375000   0.125000 0
  0.437500   0.187500 0
  0.437500   0.437500 0
  0.437500   0.375000 0
  0.875000   0.875000 0
  0.187500   0.375000 0
  0.687500   0.562500 0
  0.687500   0.625000 0
  0.000000   0.125000 0
  0.937500   0.625000 0
  0.250000   0.125000 0
  0.375000   0.062500 0
  0.375000   0.000000 0
  0.812500   0.500000 0
  0.125000   0.000000 0
  0.937500   0.937500 0
  0.250000   0.437500 0
  0.687500   0.875000 0
  0.687500   0.937500 0
  0.000000   0.437500 0
  0.500000   0.500000 0
  0.500000   0.437500 0
  0.750000   0.937500 0
  0.750000   1.000000 0
  0.062500   0.500000 0
  1.000000   1.000000 0
  0.312500   0.500000 0
  0.875000   0.562500 0
  0.187500   0.062500 0
  0.437500   0.125000 0
  0.437500   0.062500 0
  0.500000   0.375000 0
  0.937500   0.812500 0
  0.937500   0.875000 0
  0.250000   0.375000 0
  0.687500   0.812500 0
  0.000000   0.375000 0
  0.750000   0.562500 0
  0.062500   0.125000 0
  1.000000   0.562500 0
  1.000000   0.625000 0
  0.312500   0.125000 0
  0.562500   0.125000 0
  0.437500   0.000000 0
  0.875000   0.437500 0
  0.875000   0.500000 0
  0.187500   0.000000 0
  0.937500   0.562500 0
  0.937500   0.500000 0
  0.250000   0.062500 0
  0.687500   0.500000 0
  0.000000   0.062500 0
  0.500000   0.062500 0
  1.000000   0.875000 0
  1.000000   0.937500 0
  0.312500   0.437500 0
  0.750000   0.875000 0
  0.062500   0.437500 0
  0.812500   0.937500 0
  0.125000   0.500000 0
  0.375000   0.500000 0
  0.625000   0.562500 0
  0.625000   0.500000 0
  0.437500   0.312500 0
  0.875000   0.812500 0
  0.875000   0.750000 0
  0.187500   0.312500 0
  0.812500   0.687500 0
  0.812500   0.750000 0
  0.125000   0.250000 0
  0.375000   0.250000 0
  1.000000   0.687500 0
  0.312500   0.187500 0
  0.750000   0.687500 0
  0.750000   0.625000 0
  0.062500   0.187500 0
  0.562500   0.250000 0
  0.562500   0.187500 0
  0.375000   1.000000 0
  0.500000   0.562500 0
  0.500000   0.250000 0
  0.750000   0.250000 0
  0.500000   0.125000 0
  0.500000   0.187500 0
  1.000000   0.187500 0
  0.625000   0.375000 0
  0.875000   0.375000 0
  1.000000   0.437500 0
  0.312500   0.000000 0
  0.562500   0.000000 0
  0.812500   0.000000 0
  0.250000   0.687500 0
  0.000000   0.687500 0
  0.500000   1.000000 0
  0.250000   1.000000 0
  0.000000   1.000000 0
  0.437500   0.687500 0
  0.437500   0.625000 0
  0.187500   0.625000 0
  0.687500   0.750000 0
  0.000000   0.312500 0
  0.000000   0.250000 0
  0.375000   0.375000 0
  0.375000   0.312500 0
  0.812500   0.812500 0
  0.125000   0.312500 0
  0.875000   0.625000 0
  0.187500   0.187500 0
  0.187500   0.125000 0
  0.937500   1.000000 0
  0.250000   0.562500 0
  0.250000   0.500000 0
  0.687500   1.000000 0
  0.000000   0.500000 0
  0.687500   0.687500 0
  0.000000   0.187500 0
  0.937500   0.687500 0
  0.250000   0.250000 0
  0.250000   0.187500 0
  0.187500   0.687500 0
  0.000000   0.750000 0
  0.250000   0.750000 0
  0.125000   0.625000 0
  0.750000   0.750000 0
  0.062500   0.250000 0
  0.875000   0.937500 0
  0.187500   0.500000 0
  0.187500   0.437500 0
  0.812500   0.562500 0
  0.125000   0.125000 0
  0.125000   0.062500 0
  0.375000   0.625000 0
  0.375000   0.687500 0
  1.000000   0.750000 0
  0.312500   0.250000 0
  0.312500   0.312500 0
  0.812500   0.312500 0
  0.562500   0.312500 0
  0.375000   0.750000 0
  0.500000   0.625000 0
  0.250000   0.625000 0
  0.312500   0.687500 0
  0.750000   0.812500 0
  0.062500   0.312500 0
  0.062500   0.375000 0
  1.000000   0.812500 0
  0.312500   0.375000 0
  0.562500   0.375000 0
  0.687500   0.437500 0
  0.000000   0.000000 0
  0.500000   0.000000 0
  0.937500   0.437500 0
  0.250000   0.000000 0
  0.375000   0.437500 0
  0.812500   0.875000 0
  0.125000   0.375000 0
  0.125000   0.437500 0
  0.625000   0.437500 0
  1.000000   0.500000 0
  0.312500   0.062500 0
  0.750000   0.500000 0
  0.062500   0.000000 0
  0.062500   0.062500 0
  0.562500   0.062500 0
  0.062500   0.750000 0
  0.312500   0.750000 0
  0.312500   0.625000 0
  0.312500   0.562500 0
  0.062500   0.562500 0
  0.187500   1.000000 0
  0.437500   0.562500 0
  0.875000   1.000000 0
  0.187500   0.562500 0
  0.500000   0.937500 0
  0.250000   0.937500 0
  0.312500   1.000000 0
  0.125000   0.750000 0
  0.125000   0.687500 0
  1.000000   0.000000 0
  0.000000   0.937500 0
  0.000000   0.875000 0
  0.875000   0.125000 0
  0.875000   0.187500 0
  0.062500   0.812500 0
  0.312500   0.812500 0
  0.000000   0.812500 0
  0.000000   0.625000 0
  0.000000   0.562500 0
  0.062500   1.000000 0
  0.062500   0.937500 0
  0.937500   0.187500 0
  0.937500   0.250000 0
  0.062500   0.687500 0
  0.062500   0.625000 0
  0.125000   1.000000 0
  1.000000   0.250000 0
  1.000000   0.312500 0
  0.062500   0.875000 0
  0.125000   0.812500 0
  0.375000   0.812500 0
  0.125000   0.875000 0
  0.375000   0.937500 0
  0.375000   0.875000 0
  0.187500   0.750000 0
  0.187500   0.812500 0
  0.437500   0.812500 0
  0.187500   0.875000 0
  0.437500   0.875000 0
  0.375000   0.562500 0
  0.812500   1.000000 0
  0.125000   0.562500 0
  0.437500   1.000000 0
  0.437500   0.937500 0
  0.187500   0.937500 0
  0.125000   0.937500 0
  0.500000   0.687500 0
  0.500000   0.750000 0
  0.500000   0.812500 0
  0.250000   0.812500 0
  0.250000   0.875000 0
  0.500000   0.875000 0
  0.437500   0.750000 0
  0.312500   0.875000 0
  0.312500   0.937500 0
  0.687500   0.250000 0
  0.687500   0.312500 0
  0.937500   0.312500 0
  0.875000   0.250000 0
  0.625000   0.000000 0
  0.875000   0.000000 0
  0.687500   0.375000 0
  0.937500   0.375000 0
  0.875000   0.312500 0
  0.625000   0.312500 0
  0.687500   0.000000 0
  0.937500   0.000000 0
  0.750000   0.312500 0
  0.750000   0.375000 0
  1.000000   0.375000 0
  0.812500   0.250000 0
  0.562500   0.437500 0
  0.562500   0.500000 0
  0.687500   0.062500 0
  0.750000   0.437500 0
  0.750000   0.000000 0
  0.750000   0.062500 0
  1.000000   0.062500 0
  0.812500   0.375000 0
  0.812500   0.437500 0
CELLS 256 1280
4 169 170 148 68
4 151 166 56 167
4 195 45 196 167
4 54 170 201 202
4 109 34 30 147
4 40 32 81 112
4 192 89 86 68
4 48 91 78 202
4 99 64 196 97
4 71 43 37 103
4 74 186 56 95
4 109 164 34 115
4 50 81 158 112
4 122 69 92 70
4 195 145 45 106
4 110 143 174 175
4 157 30 158 147
4 40 69 32 41
4 50 158 148 147
4 141 155 164 115
4 122 123 69 41
4 142 186 143 175
4 60 39 61 42
4 40 51 69 70
4 120 31 123 41
4 157 174 36 175
4 50 148 89 68
4 48 78 155 115
4 52 83 51 70
4 151 56 66 95
4 71 61 43 42
4 169 148 34 147
4 100 193 39 42
4 40 81 51 199
4 110 174 32 112
4 109 30 145 106
4 100 66 193 95
4 169 34 78 115
4 190 92 83 70
4 50 89 81 199
4 54 86 170 68
4 74 56 45 167
4 142 143 43 103
4 153 59 64 97
4 99 196 166 167
4 169 78 170 202
4 142 193 186 95
4 192 128 89 199
4 74 45 36 106
4 110 31 143 103
4 76 184 59 97
4 142 43 193 42
4 52 51 128 199
4 189 201 91 202
4 120 37 31 103
4 74 36 186 175
4 195 196 184 97
4 141 164 140 183
4 157 158 174 112
4 109 145 164 183
4 195 184 145 183
4 110 32 31 41
4 157 36 30 106
4 76 140 184 183
4 171 172 206 181
4 178 172 261 136
4 256 261 255 136
4 256 257 261 245
4 180 150 206 207
4 60 119 39 210
4 118 215 241 263
4 178 205 172 181
4 216 243 238 244
4 162 217 233 232
4 180 206 131 181
4 179 137 119 210
4 216 204 217 232
4 220 237 219 229
4 216 217 243 159
4 259 258 262 224
4 240 254 237 229
4 153 64 227 208
4 161 205 258 224
4 240 237 238 223
4 226 227 233 208
4 234 228 254 229
4 171 248 137 210
4 160 132 204 232
4 180 131 138 159
4 133 251 213 252
4 171 206 248 207
4 162 138 217 159
4 161 258 243 244
4 220 225 237 223
4 151 150 166 212
4 260 247 257 245
4 259 262 214 263
4 151 66 150 207
4 234 254 209 253
4 162 233 250 208
4 242 241 262 263
4 171 137 172 136
4 161 243 131 159
4 160 204 225 223
4 161 131 205 181
4 179 255 137 136
4 216 238 204 223
4 100 39 248 210
4 260 213 247 252
4 226 233 132 232
4 134 214 215 263
4 180 138 150 212
4 178 261 239 245
4 259 246 258 244
4 178 239 205 224
4 240 238 246 244
4 242 262 239 224
4 99 250 64 208
4 240 246 254 253
4 242 239 247 245
4 135 219 228 229
4 99 166 250 212
4 259 214 246 253
4 118 241 251 252
4 100 248 66 207
4 134 209 214 253
4 162 250 138 212
4 242 247 241 252
4 71 187 61 280
4 102 281 197 280
4 122 92 82 203
4 17 18 82 117
4 122 82 123 117
4 19 264 273 265
4 267 279 222 20
4 125 273 270 265
4 267 272 279 176
4 19 116 18 117
4 21 25 286 24
4 23 28 26 20
4 23 285 28 27
4 218 286 275 24
4 85 53 84 288
4 235 236 231 266
4 221 222 28 20
4 267 222 231 230
4 268 38 129 203
4 125 270 197 188
4 126 287 272 176
4 277 270 276 265
4 267 231 272 266
4 125 197 187 280
4 190 129 92 203
4 277 276 287 176
4 19 18 264 22
4 17 82 38 203
4 102 197 90 188
4 126 84 287 288
4 284 130 285 27
4 121 276 264 265
4 71 37 187 177
4 120 123 116 117
4 198 88 127 191
4 221 16 25 24
4 23 26 15 22
4 121 279 276 176
4 235 231 124 230
4 125 187 273 177
4 278 271 236 266
4 277 287 283 288
4 284 285 274 282
4 278 127 271 191
4 269 275 16 24
4 200 283 53 288
4 23 15 285 282
4 121 26 279 20
4 21 124 25 230
4 19 273 116 177
4 200 90 283 188
4 126 271 84 191
4 269 16 130 27
4 17 38 15 282
4 221 25 222 230
4 121 264 26 22
4 120 116 37 177
4 60 61 281 280
4 277 283 270 188
4 126 272 271 266
4 268 274 38 282
4 85 84 88 191
4 17 15 18 22
4 221 28 16 27
4 93 94 73 55
4 85 88 67 87
4 80 49 79 87
4 44 104 73 72
4 146 33 67 168
4 211 165 149 55
4 8 47 14 154
4 105 104 108 144
4 105 108 29 107
4 7 139 13 75
4 44 165 194 98
4 200 53 77 168
4 8 1 101 4
4 2 5 152 58
4 260 6 213 3
4 105 35 104 72
4 96 57 182 75
4 7 14 139 154
4 146 29 33 107
4 7 13 10 9
4 12 13 57 75
4 85 67 53 168
4 44 73 165 55
4 63 152 62 58
4 8 101 47 46
4 96 182 194 144
4 60 281 119 4
4 12 5 6 3
4 173 185 35 72
4 65 149 94 55
4 146 67 49 87
4 114 113 47 154
4 163 108 182 144
4 12 6 13 9
4 173 35 111 156
4 163 182 139 75
4 260 257 6 9
4 105 29 35 156
4 163 139 113 154
4 256 10 257 9
4 146 49 29 156
4 163 113 108 107
4 80 111 49 156
4 102 101 281 4
4 12 57 5 58
4 44 194 104 144
4 96 194 62 98
4 2 0 5 3
4 93 73 185 72
4 179 119 1 4
4 200 77 90 46
4 114 33 113 107
4 7 10 14 11
4 96 62 57 58
4 133 213 0 3
4 102 90 101 46
4 256 255 10 11
4 63 62 249 98
4 114 47 77 46
4 179 1 255 11
4 211 249 165 98
4 114 77 33 168
4 198 79 88 87
4 8 14 1 11
CELL_TYPES 256
8
8
8
8
8
8
8
8
8
8
8
8
8
8
8
8
8
8
8
8
8
8
8
8
8
8
8
8
8
8
8
8
8
8
8
8
8
8
8
8
8
8
8
8
8
8
8
8
8
8
8
8
8
8
8
8
8
8
8
8
8
8
8
8
8
8
8
8
8
8
8
8
8
8
8
8
8
8
8
8
8
8
8
8
8
8
8
8
8
8
8
8
8
8
8
8
8
8
8
8
8
8
8
8
8
8
8
8
8
8
8
8
8
8
8
8
8
8
8
8
8
8
8
8
8
8
8
8
8
8
8
8
8
8
8
8
8
8
8
8
8
8
8
8
8
8
8
8
8
8
8
8
8
8
8
8
8
8
8
8
8
8
8
8
8
8
8
8
8
8
8
8
8
8
8
8
8
8
8
8
8
8
8
8
8
8
8
8
8
8
8
8
8
8
8
8
8
8
8
8
8
8
8
8
8
8
8
8
8
8
8
8
8
8
8
8
8
8
8
8
8
8
8
8
8
8
8
8
8
8
8
8
8
8
8
8
8
8
8
8
8
8
8
8
8
8
8
8
8
8
8
8
8
8
8
8
CELL_DATA 256
VECTORS vector_value float
0.294923 -1.40461 0
-0.114162 -0.264979 0
0.113441 -1.18361 0
0.443098 -1.0264 0
0.164531 -0.640661 0
-0.170577 -0.478118 0
0.0478754 -0.904626 0
0.214636 -1.81945 0
-0.902928 -3.30489 0
0.228595 -1.8215 0
0.00884609 -0.180976 0
0.0959203 -2.11884 0
-0.0210357 -0.526606 0
-0.0259947 -0.372719 0
0.120803 -1.25144 0
-0.0570027 -0.219705 0
0.116604 -0.695635 0
-0.320618 -0.90318 0
0.115682 -0.79052 0
-0.0357857 -2.20604 0
-0.0702875 -0.583356 0
0.0275101 -0.372212 0
-0.31259 -1.74003 0
-0.240462 -0.543116 0
0.0162246 -1.09116 0
0.00148712 -0.336605 0
0.0901009 -0.587487 0
0.0957769 -2.1863 0
-0.0845373 -0.28964 0
-0.057608 -0.161631 0
0.014534 -1.99815 0
0.247656 -0.886658 0
-0.140093 -1.21789 0
-0.410692 -0.830362 0
-0.152312 -0.38658 0
0.112949 -1.10898 0
-0.0717711 -0.339125 0
0.278519 -1.74151 0
0.00260178 -0.306817 0
-0.0151859 -0.950171 0
0.570501 -2.13059 0
0.000255412 -0.156349 0
0.126844 -1.16562 0
-0.241146 -1.1282 0
-0.40959 -1.04902 0
0.580002 -1.55798 0
0.0141188 -0.387597 0
-0.229409 -1.2068 0
0.130005 -0.278108 0
0.00240239 -1.00264 0
-0.410776 -2.16973 0
0.00919476 -1.1125 0
-0.226627 -0.761656 0
0.113851 -1.40756 0
0.374682 -1.60149 0
0.0182926 -0.122418 0
-0.122515 -2.25256 0
-0.046796 -2.03848 0
-0.027448 -0.327645 0
-0.114551 -2.16899 0
0.144126 -2.00171 0
-0.203562 -0.840353 0
0.156067 -0.325502 0
0.114485 -2.23719 0
0.0730443 -0.750023 0
0.586983 -1.50545 0
0.592832 -1.53559 0
-0.0584178 -1.32906 0
-0.158102 -0.37746 0
-0.196361 -1.45688 0
0.363679 -0.878008 0
0.052778 -2.05809 0
0.0414588 -0.831495 0
0.143302 -1.05676 0
-0.53035 -0.79341 0
0.345739 -1.03673 0
-0.018245 -1.0945 0
0.0391724 -1.89762 0
-0.0804785 -0.715636 0
-0.158849 -1.12475 0
-0.119368 -0.818522 0
0.0305035 -0.96968 0
-0.11084 -1.02356 0
0.227912 -1.21179 0
0.103503 -1.10372 0
-0.676605 -0.818805 0
0.240411 -1.29207 0
-0.0101423 -1.54206 0
-0.998892 -1.25158 0
-1.17133 -1.23228 0
-0.00142184 -0.384591 0
-0.218472 -1.05446 0
-0.0881482 -0.601703 0
0.0970736 -1.53794 0
-0.227478 -0.420158 0
-0.35916 -1.45576 0
-0.0494283 -0.81142 0
-0.0659144 -0.158342 0
-0.421785 -0.830621 0
0.0969048 -1.39305 0
-0.326323 -1.34907 0
0.528654 -1.56282 0
-0.243948 -0.82832 0
-0.00400002 -1.57436 0
-0.498419 -0.940057 0
0.784735 -1.35589 0
-0.0052111 -0.948941 0
-0.0148468 -0.955383 0
-0.546044 -1.6444 0
0.162492 -1.53873 0
0.28316 -0.879883 0
-0.375114 -0.557903 0
-0.240928 -1.84183 0
-0.049335 -0.447459 0
-0.282033 -2.20262 0
0.018266 -0.624896 0
-0.397503 -1.58444 0
-0.397268 -2.27327 0
-0.106586 -0.567904 0
-0.549253 -2.18538 0
-0.407652 -1.58852 0
-0.665936 -2.02014 0
-0.0289547 -0.540872 0
-0.394176 -2.07946 0
-0.0294329 -0.378168 0
-0.0394353 -0.584317 0
-0.685846 -2.38072 0
-0.402545 -2.17069 0
0.0348249 -0.413933 0
0.04303 -0.189375 0
0.103828 -0.380333 0
0.281471 -0.353605 0
0.221845 -0.712023 0
0.211604 -0.204337 0
-0.364159 -1.30815 0
0.11164 -0.150157 0
-0.0897487 -1.04363 0
0.36495 -0.352172 0
-0.398938 -1.26441 0
-0.184686 -1.28578 0
0.0241648 -1.46703 0
-0.160893 -0.750987 0
0.704931 -1.24954 0
0.116814 -2.40715 0
-0.494806 -1.52231 0
-0.385915 -1.43918 0
0.166061 -0.311637 0
0.0850457 -0.180702 0
0.129352 -0.826289 0
0.164534 -0.306817 0
-0.00726807 -1.89314 0
0.0574255 -0.188506 0
0.0774975 -0.219431 0
0.187934 -0.342161 0
0.283748 -0.25616 0
0.281622 -0.354678 0
0.144728 -0.325074 0
0.42956 -0.905004 0
0.059365 -1.34294 0
0.131947 -0.242673 0
0.214603 -0.527808 0
0.364839 -0.850333 0
0.213328 -1.49148 0
-0.786773 -1.40555 0
0.242245 -0.53947 0
0.0610759 -0.41805 0
-0.086839 -2.48057 0
0.117349 -0.179553 0
0.205001 -1.9588 0
0.248535 -0.399834 0
0.0955169 -1.01738 0
0.104459 -1.71685 0
-0.395965 -1.3344 0
0.369388 -0.625651 0
0.176908 -0.777445 0
-0.00886611 -0.700423 0
-0.237783 -2.10139 0
0.319586 -0.261988 0
0.203866 -0.41589 0
0.452783 -2.36479 0
-0.169059 -2.69019 0
0.335498 -0.312829 0
-0.3945 -1.13803 0
0.161783 -0.306107 0
0.488492 -0.726635 0
-0.159622 -0.700663 0
0.168877 -0.388906 0
0.263546 -2.45822 0
0.184292 -0.298955 0
0.476848 -1.79655 0
0.27049 -0.251142 0
-0.322665 -1.97185 0
-0.100075 -1.51672 0
0.715301 -1.6466 0
0.0871881 -0.69073 0
-0.377417 -1.28508 0
0.93397 -1.05209 0
0.667126 -1.14942 0
0.303205 -0.408585 0
-0.494253 -0.893713 0
-0.382854 -0.963176 0
0.0150957 -0.629188 0
-0.0326195 -0.636182 0
0.630346 -1.13912 0
0.287087 -0.536676 0
-0.539971 -0.853295 0
-0.559504 -0.660413 0
-0.44377 -1.18177 0
-0.0731304 -0.682159 0
0.179819 -0.554215 0
0.0220736 -0.851519 0
0.0476544 -0.359809 0
-0.0861702 -0.622033 0
0.778465 -1.09042 0
-0.129313 -1.27011 0
-0.245774 -0.683254 0
0.315836 -0.374249 0
-0.173965 -0.456122 0
-0.284339 -1.22148 0
-0.36436 -0.398363 0
-0.154228 -0.760522 0
0.275357 -1.46312 0
0.390228 -0.927053 0
0.457542 -1.2951 0
-0.28126 -0.807169 0
-0.133613 -0.287117 0
-0.0526161 -0.613619 0
-0.0400316 -0.662721 0
-0.211349 -0.556879 0
-0.238303 -0.890417 0
0.0104284 -1.10101 0
0.0127126 -0.351543 0
0.0455849 -0.74515 0
-0.259975 -0.919725 0
0.0204544 -0.575008 0
0.108131 -0.423733 0
-0.225437 -0.711049 0
-0.33811 -0.785999 0
-0.0891272 -0.369387 0
-0.896622 -0.730624 0
-0.17752 -1.15221 0
0.379093 -1.45127 0
0.296594 -0.548087 0
0.182929 -1.32275 0
0.104417 -0.332419 0
-0.179701 -0.637275 0
-1.23854 -0.867546 0
0.226667 -0.351707 0
0.202559 -0.405714 0
0.168234 -0.627428 0
0.571522 -0.885408 0
0.722177 -0.950961 0
0.592229 -0.733424 0
1.02285 -1.55628 0
0.194969 -0.946822 0
0.334159 -0.487252 0
