# vtk DataFile Version 2.0
Unstructured Grid by M++
ASCII
DATASET UNSTRUCTURED_GRID
POINTS 81 float
  1.000000   0.625000 0
  0.750000   0.375000 0
  1.000000   0.000000 0
  0.875000   0.875000 0
  0.750000   0.125000 0
  1.000000   1.000000 0
  0.875000   0.250000 0
  0.625000   0.875000 0
  1.000000   0.750000 0
  0.875000   0.000000 0
  1.000000   0.250000 0
  0.625000   0.375000 0
  0.875000   0.500000 0
  0.625000   0.625000 0
  1.000000   0.500000 0
  0.750000   0.500000 0
  0.750000   1.000000 0
  1.000000   0.125000 0
  0.625000   0.250000 0
  0.750000   0.750000 0
  0.625000   0.000000 0
  0.125000   0.375000 0
  0.000000   0.500000 0
  0.125000   0.625000 0
  0.625000   1.000000 0
  1.000000   0.875000 0
  0.875000   0.125000 0
  0.500000   0.250000 0
  0.625000   0.500000 0
  0.250000   0.625000 0
  0.000000   0.625000 0
  0.375000   0.500000 0
  0.375000   0.000000 0
  0.000000   0.125000 0
  0.125000   0.875000 0
  0.875000   1.000000 0
  0.750000   0.250000 0
  0.375000   0.375000 0
  0.250000   0.375000 0
  0.625000   0.750000 0
  0.125000   0.125000 0
  0.500000   0.000000 0
  0.250000   0.875000 0
  0.125000   0.500000 0
  0.500000   0.375000 0
  0.125000   0.000000 0
  0.250000   0.750000 0
  0.250000   0.500000 0
  0.000000   0.875000 0
  0.875000   0.625000 0
  0.500000   0.750000 0
  0.750000   0.625000 0
  0.250000   0.000000 0
  0.375000   0.750000 0
  0.750000   0.875000 0
  0.625000   0.125000 0
  0.250000   0.250000 0
  0.375000   1.000000 0
  0.375000   0.250000 0
  0.000000   0.375000 0
  0.500000   1.000000 0
  0.875000   0.750000 0
  0.750000   0.000000 0
  0.375000   0.125000 0
  0.500000   0.875000 0
  0.000000   0.000000 0
  0.125000   0.750000 0
  0.500000   0.625000 0
  0.125000   0.250000 0
  0.500000   0.125000 0
  0.250000   1.000000 0
  0.250000   0.125000 0
  0.000000   1.000000 0
  0.375000   0.875000 0
  0.000000   0.750000 0
  0.375000   0.625000 0
  0.000000   0.250000 0
  0.125000   1.000000 0
  1.000000   0.375000 0
  0.500000   0.500000 0
  0.875000   0.375000 0
CELLS 64 320
4 56 71 58 63
4 27 58 69 63
4 41 69 32 63
4 76 33 68 40
4 27 44 58 37
4 79 31 44 37
4 56 38 68 21
4 56 58 38 37
4 52 32 71 63
4 47 38 31 37
4 76 68 59 21
4 22 59 43 21
4 65 45 33 40
4 47 43 38 21
4 52 71 45 40
4 56 68 71 40
4 74 30 66 23
4 46 66 29 23
4 22 43 30 23
4 72 48 77 34
4 46 53 42 73
4 50 64 53 73
4 70 42 57 73
4 74 66 48 34
4 46 42 66 34
4 47 29 43 23
4 70 77 42 34
4 60 57 64 73
4 79 67 31 75
4 47 31 29 75
4 50 53 67 75
4 46 29 53 75
4 10 78 6 80
4 36 6 1 80
4 15 1 12 80
4 36 4 6 26
4 14 12 78 80
4 2 17 9 26
4 36 18 4 55
4 15 28 1 11
4 62 4 20 55
4 10 6 17 26
4 27 18 44 11
4 62 9 4 26
4 27 69 18 55
4 36 1 18 11
4 41 20 69 55
4 79 44 28 11
4 16 24 54 7
4 19 54 39 7
4 50 39 64 7
4 8 25 61 3
4 60 64 24 7
4 79 28 67 13
4 19 51 61 49
4 8 61 0 49
4 15 51 28 13
4 19 39 51 13
4 50 67 39 13
4 19 61 54 3
4 14 0 12 49
4 5 35 25 3
4 15 12 51 49
4 16 54 35 3
CELL_TYPES 64
8
8
8
8
8
8
8
8
8
8
8
8
8
8
8
8
8
8
8
8
8
8
8
8
8
8
8
8
8
8
8
8
8
8
8
8
8
8
8
8
8
8
8
8
8
8
8
8
8
8
8
8
8
8
8
8
8
8
8
8
8
8
8
8
CELL_DATA 64
VECTORS vector_value float
-0.0185236 -0.0292828 0
0.0721271 -0.23615 0
0.0177589 -0.106007 0
-0.0304203 -0.236122 0
0.397717 -0.73849 0
0.168568 -0.825374 0
0.0307446 -0.129154 0
0.0104412 -0.0812155 0
-0.00180529 -0.0122515 0
0.313853 -0.227575 0
0.0181038 -0.21556 0
0.0449582 -0.28762 0
-0.0411913 -0.342025 0
0.12464 -0.124675 0
-0.0183057 -0.0729947 0
-0.0825396 -0.160475 0
0.0445233 -0.39828 0
0.327045 -0.64794 0
0.0230537 -0.378645 0
0.0767838 -0.937216 0
0.497128 -0.916848 0
0.938 -0.937406 0
0.533849 -1.11199 0
0.186311 -0.766356 0
0.220908 -0.546145 0
0.129773 -0.256508 0
0.386161 -0.883391 0
0.310693 -1.35874 0
0.417598 -0.442837 0
0.318313 -0.355549 0
0.700222 -0.521519 0
0.425298 -0.441473 0
0.00807129 -0.578814 0
0.012658 -0.694329 0
-0.0961595 -0.924839 0
-0.119862 -0.782482 0
0.0469331 -0.572164 0
-0.035523 -0.154822 0
0.246429 -1.27657 0
-1.42249 -2.95747 0
0.951954 -3.75329 0
-0.189524 -0.546082 0
-0.42838 -4.67424 0
-0.290417 -0.853617 0
0.870303 -4.73283 0
0.040624 -0.888194 0
0.599947 -2.70499 0
-0.498992 -2.08028 0
0.260172 -1.03094 0
-0.0112984 -0.676432 0
0.596574 -1.74591 0
-0.0370091 -1.97367 0
0.000156201 -0.473202 0
0.165069 -1.3428 0
-0.735412 -0.810358 0
-0.426001 -1.21964 0
-0.0635247 -3.65297 0
0.541882 -2.3051 0
1.40954 -1.65569 0
0.139775 -0.437237 0
-0.212404 -0.522409 0
0.416947 -1.61554 0
-0.434988 -1.04829 0
0.557632 -0.588975 0
