# vtk DataFile Version 2.0
Unstructured Grid by M++
ASCII
DATASET UNSTRUCTURED_GRID
POINTS 1089 float
  0.718750   0.687500 0
  0.750000   0.687500 0
  0.718750   0.656250 0
  0.750000   0.718750 0
  0.625000   0.562500 0
  0.625000   0.593750 0
  0.656250   0.593750 0
  0.750000   0.750000 0
  0.687500   0.656250 0
  0.687500   0.625000 0
  0.656250   0.625000 0
  0.906250   0.593750 0
  1.000000   0.968750 0
  0.750000   0.968750 0
  0.718750   0.968750 0
  0.718750   1.000000 0
  0.750000   1.000000 0
  0.906250   0.906250 0
  0.843750   0.531250 0
  0.656250   0.937500 0
  0.656250   0.906250 0
  0.562500   0.812500 0
  0.562500   0.843750 0
  0.593750   0.875000 0
  0.593750   0.843750 0
  0.812500   0.718750 0
  0.625000   0.625000 0
  0.968750   0.875000 0
  0.531250   0.875000 0
  0.625000   0.937500 0
  0.562500   0.562500 0
  0.906250   0.812500 0
  0.531250   0.781250 0
  0.562500   0.593750 0
  0.906250   0.843750 0
  0.625000   0.656250 0
  0.968750   0.906250 0
  0.687500   0.968750 0
  0.812500   0.812500 0
  0.687500   1.000000 0
  0.687500   0.687500 0
  0.937500   0.843750 0
  0.593750   0.593750 0
  1.000000   0.625000 0
  0.968750   0.593750 0
  0.906250   0.875000 0
  0.968750   0.625000 0
  0.625000   0.875000 0
  0.875000   0.875000 0
  0.625000   0.906250 0
  0.875000   0.843750 0
  0.531250   0.812500 0
  0.968750   0.562500 0
  0.593750   0.625000 0
  0.937500   0.875000 0
  0.656250   0.687500 0
  1.000000   0.937500 0
  0.875000   0.562500 0
  0.687500   0.937500 0
  0.937500   0.625000 0
  0.812500   0.781250 0
  0.937500   0.562500 0
  0.875000   0.781250 0
  0.531250   0.531250 0
  0.718750   0.937500 0
  0.968750   0.937500 0
  0.906250   0.562500 0
  0.843750   0.781250 0
  0.593750   0.562500 0
  1.000000   0.906250 0
  0.656250   0.656250 0
  0.937500   0.906250 0
  0.875000   0.531250 0
  0.812500   0.750000 0
  0.656250   0.968750 0
  0.937500   0.531250 0
  0.843750   0.812500 0
  0.906250   0.531250 0
  0.843750   0.750000 0
  0.937500   0.593750 0
  0.875000   0.812500 0
  0.531250   0.562500 0
  1.000000   0.593750 0
  0.562500   0.906250 0
  0.562500   0.531250 0
  0.593750   0.906250 0
  0.593750   0.937500 0
  0.562500   0.875000 0
  0.781250   0.750000 0
  0.781250   0.781250 0
  0.593750   0.531250 0
  1.000000   0.687500 0
  0.531250   0.843750 0
  0.718750   0.718750 0
  0.781250   0.718750 0
  0.781250   0.687500 0
  1.000000   0.656250 0
  0.968750   0.656250 0
  0.843750   0.843750 0
  0.781250   1.000000 0
  0.656250   0.312500 0
  0.531250   0.250000 0
  0.875000   0.500000 0
  0.531250   0.218750 0
  0.875000   0.468750 0
  0.531250   0.156250 0
  0.593750   0.812500 0
  0.093750   0.562500 0
  0.656250   0.562500 0
  0.156250   0.312500 0
  0.031250   0.812500 0
  0.125000   1.000000 0
  0.312500   0.250000 0
  0.250000   0.500000 0
  0.375000   0.000000 0
  0.187500   0.750000 0
  0.812500   0.906250 0
  0.312500   0.656250 0
  0.250000   0.906250 0
  0.875000   0.656250 0
  0.375000   0.406250 0
  0.750000   0.843750 0
  0.250000   0.593750 0
  0.187500   0.843750 0
  0.812500   0.593750 0
  0.312500   0.343750 0
  0.625000   0.968750 0
  0.125000   0.718750 0
  0.687500   0.718750 0
  0.187500   0.468750 0
  0.062500   0.968750 0
  0.125000   0.656250 0
  0.187500   0.406250 0
  0.250000   0.156250 0
  0.062500   0.906250 0
  0.468750   0.906250 0
  0.656250   0.156250 0
  0.468750   0.812500 0
  0.593750   0.312500 0
  0.656250   0.062500 0
  0.625000   0.812500 0
  0.125000   0.562500 0
  0.687500   0.562500 0
  0.187500   0.312500 0
  0.062500   0.812500 0
  0.562500   0.937500 0
  0.062500   0.687500 0
  0.625000   0.687500 0
  0.125000   0.437500 0
  0.000000   0.937500 0
  0.062500   0.625000 0
  0.187500   0.125000 0
  0.125000   0.375000 0
  0.000000   0.875000 0
  0.406250   0.875000 0
  0.468750   0.625000 0
  0.593750   0.125000 0
  0.812500   0.937500 0
  0.312500   0.687500 0
  0.250000   0.937500 0
  0.875000   0.687500 0
  0.375000   0.437500 0
  0.750000   0.875000 0
  0.250000   0.625000 0
  0.187500   0.875000 0
  0.812500   0.625000 0
  0.312500   0.375000 0
  0.468750   0.781250 0
  0.593750   0.281250 0
  0.656250   0.031250 0
  0.625000   0.781250 0
  0.125000   0.531250 0
  0.062500   0.781250 0
  0.687500   0.531250 0
  0.187500   0.281250 0
  0.500000   0.812500 0
  0.687500   0.062500 0
  0.625000   0.312500 0
  0.656250   0.812500 0
  0.156250   0.562500 0
  0.718750   0.562500 0
  0.218750   0.312500 0
  0.093750   0.812500 0
  0.437500   0.968750 0
  0.625000   0.218750 0
  0.500000   0.781250 0
  0.687500   0.031250 0
  0.625000   0.281250 0
  0.656250   0.781250 0
  0.156250   0.531250 0
  0.718750   0.531250 0
  0.218750   0.281250 0
  0.093750   0.781250 0
  0.062500   0.562500 0
  0.125000   0.312500 0
  0.187500   0.062500 0
  0.000000   0.812500 0
  0.406250   0.812500 0
  0.968750   0.812500 0
  0.468750   0.562500 0
  0.593750   0.062500 0
  0.218750   0.687500 0
  0.156250   0.937500 0
  0.281250   0.437500 0
  0.062500   0.843750 0
  0.687500   0.593750 0
  0.187500   0.343750 0
  0.625000   0.843750 0
  0.125000   0.593750 0
  0.312500   0.843750 0
  0.437500   0.343750 0
  0.500000   0.093750 0
  0.375000   0.593750 0
  0.312500   0.906250 0
  0.937500   0.656250 0
  0.437500   0.406250 0
  0.875000   0.906250 0
  0.375000   0.656250 0
  0.062500   0.875000 0
  0.187500   0.375000 0
  0.250000   0.125000 0
  0.125000   0.625000 0
  0.093750   0.656250 0
  0.031250   0.906250 0
  0.218750   0.156250 0
  0.156250   0.406250 0
  0.593750   0.968750 0
  0.093750   0.718750 0
  0.031250   0.968750 0
  0.656250   0.718750 0
  0.156250   0.468750 0
  0.437500   0.906250 0
  0.625000   0.156250 0
  0.718750   0.812500 0
  0.218750   0.562500 0
  0.781250   0.562500 0
  0.281250   0.312500 0
  0.156250   0.812500 0
  0.062500   0.656250 0
  0.000000   0.906250 0
  0.187500   0.156250 0
  0.125000   0.406250 0
  0.562500   0.968750 0
  0.062500   0.718750 0
  0.000000   0.968750 0
  0.625000   0.718750 0
  0.125000   0.468750 0
  0.406250   0.968750 0
  0.968750   0.968750 0
  0.468750   0.718750 0
  0.531250   0.468750 0
  0.593750   0.218750 0
  0.406250   0.906250 0
  0.468750   0.656250 0
  0.593750   0.156250 0
  0.687500   0.781250 0
  0.187500   0.531250 0
  0.750000   0.531250 0
  0.250000   0.281250 0
  0.125000   0.781250 0
  0.781250   0.906250 0
  0.281250   0.656250 0
  0.218750   0.906250 0
  0.843750   0.656250 0
  0.343750   0.406250 0
  0.750000   0.906250 0
  0.250000   0.656250 0
  0.187500   0.906250 0
  0.812500   0.656250 0
  0.312500   0.406250 0
  0.875000   0.406250 0
  0.375000   0.156250 0
  0.812500   0.968750 0
  0.312500   0.718750 0
  0.250000   0.968750 0
  0.875000   0.718750 0
  0.375000   0.468750 0
  0.781250   0.937500 0
  0.281250   0.687500 0
  0.218750   0.937500 0
  0.843750   0.687500 0
  0.343750   0.437500 0
  0.718750   0.875000 0
  0.218750   0.625000 0
  0.156250   0.875000 0
  0.781250   0.625000 0
  0.281250   0.375000 0
  0.750000   0.937500 0
  0.250000   0.687500 0
  0.187500   0.937500 0
  0.875000   0.437500 0
  0.375000   0.187500 0
  0.812500   0.687500 0
  0.312500   0.437500 0
  0.687500   0.875000 0
  0.187500   0.625000 0
  0.750000   0.625000 0
  0.250000   0.375000 0
  0.125000   0.875000 0
  0.812500   1.000000 0
  0.312500   0.750000 0
  0.250000   1.000000 0
  0.875000   0.750000 0
  0.375000   0.500000 0
  0.562500   1.000000 0
  0.062500   0.750000 0
  0.000000   1.000000 0
  0.625000   0.750000 0
  0.125000   0.500000 0
  0.406250   1.000000 0
  0.968750   1.000000 0
  0.468750   0.750000 0
  0.656250   0.000000 0
  0.531250   0.500000 0
  0.593750   0.250000 0
  0.406250   0.937500 0
  0.468750   0.687500 0
  0.593750   0.187500 0
  0.687500   0.812500 0
  0.187500   0.562500 0
  0.750000   0.562500 0
  0.250000   0.312500 0
  0.125000   0.812500 0
  0.437500   0.843750 0
  0.625000   0.093750 0
  0.093750   0.593750 0
  0.156250   0.343750 0
  0.218750   0.093750 0
  0.031250   0.843750 0
  0.281250   0.937500 0
  0.843750   0.937500 0
  0.343750   0.687500 0
  0.906250   0.687500 0
  0.406250   0.437500 0
  0.156250   0.968750 0
  0.218750   0.718750 0
  0.281250   0.468750 0
  0.343750   0.218750 0
  0.156250   1.000000 0
  0.406250   0.000000 0
  0.281250   0.500000 0
  0.343750   0.250000 0
  0.218750   0.750000 0
  0.187500   0.968750 0
  0.250000   0.718750 0
  0.375000   0.218750 0
  0.312500   0.468750 0
  0.187500   1.000000 0
  0.312500   0.500000 0
  0.375000   0.250000 0
  0.437500   0.000000 0
  0.250000   0.750000 0
  0.031250   0.781250 0
  0.656250   0.531250 0
  0.156250   0.281250 0
  0.593750   0.781250 0
  0.093750   0.531250 0
  0.000000   0.781250 0
  0.625000   0.531250 0
  0.125000   0.281250 0
  0.562500   0.781250 0
  0.062500   0.531250 0
  0.781250   0.968750 0
  0.281250   0.718750 0
  0.218750   0.968750 0
  0.843750   0.718750 0
  0.343750   0.468750 0
  0.281250   0.968750 0
  0.843750   0.968750 0
  0.343750   0.718750 0
  0.906250   0.718750 0
  0.406250   0.468750 0
  0.281250   1.000000 0
  0.906250   0.750000 0
  0.406250   0.500000 0
  0.843750   1.000000 0
  0.343750   0.750000 0
  0.531250   0.000000 0
  0.718750   0.843750 0
  0.218750   0.593750 0
  0.156250   0.843750 0
  0.781250   0.593750 0
  0.281250   0.343750 0
  0.687500   0.843750 0
  0.187500   0.593750 0
  0.750000   0.593750 0
  0.250000   0.343750 0
  0.125000   0.843750 0
  0.218750   0.875000 0
  0.843750   0.625000 0
  0.343750   0.375000 0
  0.781250   0.875000 0
  0.281250   0.625000 0
  0.156250   0.906250 0
  0.781250   0.656250 0
  0.281250   0.406250 0
  0.718750   0.906250 0
  0.218750   0.656250 0
  0.031250   1.000000 0
  0.656250   0.750000 0
  0.156250   0.500000 0
  0.593750   1.000000 0
  0.093750   0.750000 0
  0.218750   1.000000 0
  0.343750   0.500000 0
  0.468750   0.000000 0
  0.406250   0.250000 0
  0.281250   0.750000 0
  0.593750   0.406250 0
  0.093750   0.156250 0
  0.531250   0.656250 0
  0.031250   0.406250 0
[...]
CELL_DATA 1024
VECTORS vector_value float
-0.437839 -0.49024 0
-0.401052 -0.419738 0
-0.46297 -0.447082 0
0.138687 -0.211378 0
0.0362483 -0.136283 0
-0.00727175 -0.106736 0
-0.309345 -1.22833 0
-0.298887 -1.47164 0
-0.246346 -1.08843 0
-0.464531 -1.3956 0
-0.477121 -1.46887 0
-0.00658053 -0.234953 0
-0.0277624 -0.340071 0
-0.0838178 -0.585608 0
-0.0918568 -0.855634 0
-0.105308 -0.883226 0
-0.0288787 -0.286065 0
-0.0376453 -0.397927 0
-0.227928 -0.930552 0
-0.0703733 -0.720815 0
-0.229779 -0.851067 0
0.025232 -0.724061 0
-0.329615 -1.18956 0
0.033847 -0.893296 0
-0.156378 -0.750695 0
-0.294578 -0.509439 0
-0.403414 -0.445483 0
-0.301297 -0.507283 0
0.0349922 -0.179637 0
-0.0739324 -1.32499 0
0.0126667 -0.0642573 0
0.0160087 -0.0568168 0
0.00799852 -0.0512798 0
0.00273227 -0.0713034 0
0.00153002 -0.260719 0
-0.00636675 -0.446027 0
-0.128516 -0.747151 0
-0.0119161 -0.476461 0
0.00811883 -0.243849 0
0.392204 -0.283171 0
-0.0776405 -0.606271 0
0.17746 -0.675948 0
0.00363391 -0.0628436 0
0.107777 -0.753613 0
0.521326 -1.02123 0
-0.00640212 -0.232909 0
0.0175958 -0.141162 0
0.794681 -1.60537 0
-0.00540649 -0.432253 0
0.00598432 -0.0972075 0
0.37529 -0.668235 0
0.12893 -1.20517 0
0.000284197 -0.0708555 0
0.0726646 -0.158717 0
-0.00335297 -0.0778723 0
0.246449 -0.231308 0
0.00683035 -0.101951 0
0.335784 -0.79541 0
-0.186602 -0.601738 0
-0.0814107 -0.172206 0
-0.453165 -0.786411 0
-0.453649 -0.696755 0
0.0076414 -0.806897 0
-0.151902 -0.252347 0
-0.436282 -1.41825 0
-0.34336 -0.385282 0
-0.103873 -0.280644 0
-0.414403 -1.237 0
0.213282 -0.872316 0
-0.00764761 -0.251033 0
0.0111674 -0.128598 0
0.00338617 -0.133911 0
0.0297978 -0.136671 0
-0.0342714 -0.0639422 0
1.08739 -1.9403 0
0.810471 -1.07172 0
-0.0482554 -1.16929 0
-0.00882772 -1.09618 0
-0.0375428 -0.0912448 0
0.0076952 -0.0570341 0
-0.273896 -0.501467 0
0.0590094 -0.61336 0
-0.264545 -0.270447 0
-0.103184 -0.137057 0
-0.14185 -0.466549 0
-0.128511 -0.16875 0
-0.373409 -0.449541 0
-0.206913 -0.317879 0
0.0703201 -0.645218 0
0.00858552 -0.135128 0
0.00258868 -0.12542 0
0.0532762 -0.360979 0
-0.0544654 -0.102629 0
-0.0668485 -0.100905 0
-0.342362 -0.338182 0
-0.273572 -0.261679 0
0.00487874 -0.0405143 0
-0.00857412 -0.0537479 0
-0.333471 -0.309821 0
-0.157038 -0.210983 0
0.722271 -0.432427 0
-0.0527689 -1.6141 0
-0.413993 -0.857912 0
-0.0231062 -0.0659358 0
1.66073 -1.80922 0
1.07566 -0.976389 0
-0.0997887 -1.78248 0
0.0303197 -0.140912 0
0.00844927 -0.132297 0
-0.028481 -0.154047 0
-0.0594042 -0.0905376 0
1.38329 -2.63755 0
-0.0197146 -1.15429 0
1.20693 -2.09847 0
-0.344246 -1.48649 0
-0.0119627 -1.05515 0
-0.0455819 -0.133716 0
-0.0104834 -0.0597628 0
0.151828 -1.07551 0
0.0590628 -0.160275 0
-0.0086726 -0.149376 0
0.159346 -0.978438 0
-0.0905177 -0.572174 0
1.48237 -3.13184 0
-0.352959 -1.44916 0
0.0390707 -1.13263 0
2.32712 -2.30013 0
-0.31355 -0.421519 0
-0.0334645 -0.0728075 0
1.86155 -2.22375 0
1.38002 -1.38388 0
-0.0893424 -1.64097 0
-0.119885 -0.630094 0
0.014288 -0.314329 0
0.0012561 -0.123015 0
2.37021 -2.34025 0
0.957198 -1.4384 0
-0.366108 -1.17391 0
0.421687 -0.988293 0
-0.00889676 -0.287629 0
-0.0575506 -1.05 0
0.0217589 -0.0894378 0
0.0358083 -0.856276 0
0.898921 -2.01434 0
-0.423786 -0.400617 0
-0.0195805 -0.0750705 0
-0.409558 -0.738454 0
0.0134511 -0.0590707 0
0.0241494 -0.184375 0
-0.00192281 -0.163464 0
-0.139656 -1.39013 0
0.0412137 -1.10793 0
2.02992 -1.58958 0
-0.451035 -0.46089 0
-0.198093 -1.05639 0
0.103935 -0.865667 0
-0.0381328 -0.666816 0
1.44137 -2.98023 0
0.055666 -0.956452 0
0.0580742 -0.352679 0
0.0087835 -0.135559 0
-4.51675e-05 -0.125612 0
0.481375 -1.3701 0
0.196213 -0.587681 0
-0.0938196 -0.805873 0
-0.0149324 -0.0881507 0
0.0497002 -0.959947 0
1.30312 -2.66274 0
-0.382257 -0.454207 0
0.0315756 -0.827744 0
0.105584 -0.169519 0
-0.203816 -0.203413 0
-0.307211 -0.354813 0
-0.12247 -0.141781 0
-0.249116 -0.280912 0
-0.206456 -0.219425 0
-0.300063 -0.331697 0
-0.407123 -0.419628 0
-0.0155971 -0.293694 0
0.00566603 -0.0651557 0
-0.00496932 -0.0723064 0
1.05535 -0.57661 0
-0.0128863 -0.902296 0
0.00140128 -0.0978461 0
-0.00231415 -0.0886604 0
0.00601241 -0.62641 0
0.00614302 -0.092156 0
-0.0028317 -0.0972131 0
0.0331292 -0.639736 0
-0.00278743 -0.0698659 0
1.92328 -2.43294 0
-0.232745 -1.55791 0
2.22309 -1.97994 0
-0.339501 -0.501108 0
0.385655 -1.25391 0
-0.0184504 -0.435173 0
1.42495 -1.82555 0
-0.427164 -1.39506 0
2.877 -2.85225 0
-0.264496 -0.513093 0
-0.266239 -1.79259 0
1.77374 -1.41116 0
2.70769 -2.80585 0
-0.457934 -0.634636 0
-0.0852061 -0.483448 0
-0.214207 -0.928502 0
1.53212 -3.3161 0
-0.115979 -0.962954 0
0.220075 -0.704024 0
-0.164238 -1.15416 0
1.79861 -3.08003 0
-0.369208 -1.13652 0
0.0810098 -0.758863 0
-0.191218 -1.55059 0
2.26588 -3.05878 0
-0.317949 -1.66601 0
1.52482 -2.99103 0
-0.241837 -0.874269 0
0.282559 -0.944198 0
-0.000381017 -0.0511809 0
0.0384995 -0.85649 0
1.31885 -0.726768 0
-0.161328 -1.72805 0
-0.0360122 -1.97893 0
-0.0055098 -0.0487865 0
-0.41159 -1.20751 0
-0.00966437 -1.30962 0
-0.142171 -1.08679 0
0.225596 -0.356045 0
-0.400738 -0.722464 0
-0.179098 -1.66767 0
-0.0455609 -1.79186 0
0.47062 -0.385471 0
-0.377818 -0.644346 0
-0.159111 -1.60485 0
-0.0875928 -1.74787 0
0.985151 -0.68671 0
-0.484381 -1.40758 0
1.60302 -0.975112 0
-0.0366972 -1.01593 0
0.585421 -0.678301 0
-0.176143 -1.20037 0
0.908887 -1.40578 0
-0.181887 -1.8851 0
1.40221 -1.01128 0
-0.0645589 -1.8652 0
-0.0158661 -0.722806 0
0.48776 -1.93857 0
-0.0132522 -0.72495 0
0.811856 -2.58389 0
0.335824 -1.39867 0
0.162342 -1.30768 0
0.0174078 -0.121819 0
0.0123026 -0.0721942 0
0.0235744 -0.0725678 0
0.0346417 -0.100755 0
1.0662 -1.56974 0
1.14328 -1.41288 0
-0.957137 -2.56449 0
-0.335548 -1.7841 0
-0.0491665 -1.31237 0
-0.868395 -1.65401 0
1.43079 -2.85054 0
1.58465 -2.95994 0
1.35157 -3.00056 0
-1.58299 -3.30603 0
-0.742071 -2.38166 0
-1.53043 -3.366 0
-2.24438 -3.95299 0
0.677721 -1.03129 0
0.50032 -0.991993 0
0.0196429 -1.03076 0
-0.218621 -1.43776 0
-0.723079 -1.93657 0
-0.211938 -1.20317 0
-0.708477 -1.28181 0
-1.0085 -2.64307 0
-0.986932 -3.37256 0
-0.4584 -2.35891 0
-0.376442 -1.69387 0
0.470823 -1.52982 0
-0.0120058 -1.25685 0
-3.71314 -1.96054 0
-2.59984 -1.29359 0
-0.176196 -0.991045 0
1.65669 -3.15954 0
1.12363 -1.99289 0
1.08173 -1.45664 0
0.229082 -0.732975 0
2.07431 -3.01835 0
1.04971 -2.41285 0
1.67657 -2.71874 0
1.19167 -2.75319 0
1.68974 -3.00775 0
0.179158 -0.881908 0
1.47909 -2.7497 0
0.1205 -0.89267 0
1.3145 -2.04914 0
0.117257 -0.934042 0
-0.0521514 -0.864341 0
0.00912209 -1.44208 0
0.182369 -2.14634 0
-0.17694 -0.662417 0
-0.113613 -0.944189 0
1.20473 -2.87246 0
-0.0450618 -0.997801 0
0.0806088 -1.16394 0
-0.064163 -0.518101 0
0.163579 -0.884085 0
0.00639326 -0.226653 0
0.219302 -0.886996 0
1.41595 -1.51271 0
-0.0186297 -0.80364 0
0.149049 -1.01649 0
-0.369 -0.52845 0
0.234273 -0.774174 0
1.5121 -2.62367 0
1.67481 -2.24431 0
0.0941451 -0.93055 0
1.33776 -2.10412 0
1.54533 -2.39642 0
0.700908 -1.33007 0
0.0241232 -0.555102 0
0.757619 -0.822384 0
-0.113803 -0.769687 0
0.0402428 -0.292107 0
0.940348 -1.16229 0
1.39035 -1.83787 0
0.0802662 -0.87338 0
0.0392254 -0.684606 0
0.793091 -1.68995 0
1.23698 -1.18877 0
0.144867 -1.03493 0
0.118146 -1.06727 0
0.664374 -1.12289 0
1.22855 -1.02047 0
0.0146321 -2.79082 0
-0.562669 -3.99384 0
0.250113 -1.21344 0
-0.0710369 -0.315053 0
0.503036 -1.24736 0
0.492897 -2.1368 0
-0.295764 -3.28737 0
0.135228 -1.07522 0
0.0666038 -0.319942 0
1.06412 -1.5963 0
0.949529 -1.93923 0
0.12588 -0.537017 0
-0.110289 -0.459116 0
0.25918 -1.10117 0
0.0542005 -0.25052 0
-0.183736 -1.52477 0
0.888614 -2.56845 0
-0.153912 -0.754224 0
1.29462 -1.99115 0
0.511055 -1.15356 0
0.0728674 -1.02021 0
0.091536 -0.861971 0
1.16816 -0.950967 0
-0.0363089 -1.04243 0
-2.07306 -1.10354 0
0.381923 -0.801704 0
0.0702122 -0.507951 0
0.0286208 -0.360656 0
0.227679 -0.469819 0
2.20857 -3.15444 0
0.553645 -1.03076 0
-0.0202644 -0.342228 0
0.257172 -1.01712 0
0.159157 -3.11796 0
-1.76951 -3.22746 0
0.261026 -0.972442 0
0.358025 -1.2366 0
-0.034213 -0.285131 0
0.660391 -1.90188 0
0.0427824 -0.806746 0
-0.0264542 -0.688658 0
0.98164 -1.12426 0
-2.0439 -0.863547 0
0.13151 -0.902956 0
0.137044 -1.02769 0
-2.95991 -1.65654 0
-3.56453 -1.60417 0
-0.300388 -1.07102 0
0.143047 -1.27028 0
-0.0107803 -1.14323 0
-2.82234 -1.61657 0
-2.88638 -1.44604 0
-3.03479 -1.75982 0
-2.44818 -1.0704 0
0.788192 -1.9966 0
-0.0305027 -0.771345 0
0.565052 -0.861138 0
0.0452791 -0.489126 0
0.0554875 -0.435945 0
1.99138 -3.03454 0
-1.67979 -0.960173 0
-0.166182 -1.20392 0
0.396597 -1.43511 0
0.37994 -0.865015 0
1.1013 -1.12215 0
1.7433 -2.6623 0
-0.94109 -0.784176 0
0.280183 -0.844487 0
0.203359 -1.18146 0
0.778847 -1.51476 0
1.04389 -1.19509 0
1.67049 -2.36209 0
1.36955 -2.24055 0
-0.49632 -0.797855 0
0.0606104 -0.383579 0
0.141226 -0.857464 0
1.55943 -1.86424 0
0.0562384 -0.416204 0
0.124038 -0.6296 0
1.06028 -1.8595 0
0.100882 -0.285995 0
0.282011 -0.519263 0
0.751965 -1.3024 0
0.171036 -0.356735 0
0.524258 -0.88379 0
-0.477085 -2.32669 0
-5.29112 -1.19213 0
-0.0678368 -2.21915 0
-0.523789 -2.67339 0
-2.74361 -1.28141 0
2.08876 -2.33109 0
1.66482 -2.45329 0
1.81473 -2.80581 0
1.50958 -2.29754 0
0.0943922 -0.902657 0
1.52542 -2.39381 0
1.49867 -2.67962 0
-0.26499 -0.395912 0
0.299088 -1.14973 0
1.95049 -2.66472 0
1.16078 -2.23601 0
0.560574 -0.691633 0
1.78003 -1.97681 0
0.712491 -1.40924 0
0.316557 -0.444647 0
1.23913 -1.56909 0
0.493058 -1.49502 0
0.123783 -0.29997 0
0.616793 -0.803666 0
-0.989166 -3.64576 0
0.978092 -3.18736 0
0.859217 -1.51828 0
-0.307261 -0.403741 0
-0.19062 -3.60648 0
-1.79875 -4.17399 0
0.667624 -1.72142 0
-0.480418 -0.490095 0
-1.60194 -3.87094 0
0.479737 -1.48851 0
-0.165777 -0.354349 0
0.24507 -3.7246 0
-1.27096 -4.12146 0
0.795113 -1.28445 0
-0.119188 -0.326566 0
-0.925578 -3.41313 0
-2.6711 -2.95788 0
-0.881567 -2.19113 0
-2.966 -1.88544 0
-2.01901 -2.11228 0
-2.52464 -1.50492 0
-2.17561 -2.51249 0
-0.0102041 -1.17316 0
-0.638057 -0.544673 0
0.478406 -1.42341 0
-1.51221 -1.19744 0
0.112287 -0.573202 0
0.0824915 -1.05882 0
-3.47799 -1.63178 0
-1.95079 -1.568 0
-3.0865 -1.57018 0
1.58163 -2.47777 0
1.31519 -1.32027 0
1.28669 -2.29783 0
-0.373671 -3.84756 0
0.752646 -2.97692 0
0.96857 -2.27764 0
-2.85336 -1.56081 0
-0.343926 -1.75918 0
-4.72288 -1.39429 0
-0.356792 -1.71426 0
-0.261154 -0.949195 0
-3.21378 -2.24059 0
-0.263841 -1.05173 0
1.29479 -3.44615 0
0.91561 -2.49703 0
0.73995 -2.41574 0
0.941066 -2.85168 0
0.762295 -1.87112 0
-0.830277 -0.64978 0
-0.47165 -2.6086 0
0.280783 -1.86287 0
-1.67281 -1.01321 0
-0.484254 -2.02397 0
0.169448 -2.20798 0
-2.24805 -1.20734 0
-0.255683 -2.19092 0
0.486158 -1.92681 0
-1.17514 -0.732902 0
-2.32618 -1.40672 0
-2.95226 -1.76578 0
-0.0702966 -1.08302 0
0.348359 -0.992637 0
-1.72726 -1.30134 0
-1.61961 -1.91376 0
-2.05905 -1.21465 0
-2.14307 -1.0864 0
0.214388 -1.32686 0
0.764906 -1.7637 0
0.0905461 -1.0757 0
-0.127699 -1.06322 0
-0.0878618 -1.15206 0
0.648077 -0.667711 0
0.478032 -0.490335 0
0.415897 -0.288856 0
0.668038 -0.981234 0
2.16033 -1.32924 0
3.28922 -1.94751 0
0.272259 -0.479797 0
2.13379 -0.906334 0
1.49326 -0.67944 0
2.21055 -2.68139 0
2.46707 -2.47402 0
3.01216 -2.36933 0
2.50973 -2.25741 0
0.516777 -1.30597 0
-0.20369 -0.955131 0
-0.186919 -1.05065 0
0.0854993 -1.62409 0
0.218469 -1.67992 0
0.199105 -1.13525 0
0.0907594 -1.24538 0
0.429168 -0.23635 0
0.546512 -0.373693 0
0.383914 -0.271964 0
0.37337 -0.217939 0
1.34735 -1.06957 0
1.2693 -0.915398 0
-0.114172 -1.65494 0
0.0393345 -2.33383 0
1.14557 -0.817075 0
0.91582 -0.501332 0
3.63964 -2.07935 0
0.908608 -0.570431 0
0.597421 -0.386587 0
1.71414 -1.38684 0
0.80026 -0.49736 0
1.40002 -1.05632 0
0.639454 -0.55824 0
2.8421 -1.28925 0
0.799593 -0.732977 0
1.82905 -2.37515 0
0.363442 -1.06102 0
0.640738 -1.12318 0
0.242791 -1.47184 0
0.871729 -1.39893 0
0.244571 -1.58215 0
0.62475 -1.21534 0
0.932399 -0.553191 0
0.142616 -1.62556 0
0.480621 -1.32719 0
0.496154 -0.43829 0
-0.129375 -0.428787 0
0.369853 -1.50083 0
0.601134 -1.51242 0
0.855689 -1.56025 0
0.09499 -5.60674 0
2.46468 -2.51138 0
-0.0424035 -0.367534 0
0.579299 -1.56543 0
0.876732 -1.31516 0
0.146219 -5.2637 0
1.90339 -1.85947 0
-0.38948 -2.22176 0
0.673041 -0.533423 0
0.482688 -1.12385 0
0.820198 -1.01426 0
0.516645 -0.29976 0
0.363752 -0.255892 0
0.135311 -2.24902 0
2.9096 -3.13528 0
-0.14358 -2.03002 0
0.343956 -0.267183 0
0.255226 -0.200215 0
0.276711 -2.37 0
0.966082 -1.82987 0
2.40542 -2.67857 0
-0.278738 -1.88119 0
0.63046 -0.717467 0
0.623263 -0.641708 0
-0.0620443 -0.174179 0
0.481948 -0.612312 0
-0.0255462 -0.131353 0
0.444254 -0.640986 0
0.291449 -2.17784 0
0.638424 -1.44549 0
0.436205 -1.57484 0
0.767722 -0.959319 0
1.07295 -2.84174 0
1.12974 -0.74453 0
2.75781 -1.06229 0
0.231646 -2.35519 0
0.679953 -1.41214 0
1.95305 -2.27849 0
-0.208263 -1.62535 0
0.802788 -3.05039 0
0.384557 -0.631084 0
0.746386 -0.479312 0
-0.0194203 -0.173177 0
1.05027 -0.927826 0
0.307482 -0.896379 0
0.126651 -0.204913 0
1.09004 -0.530742 0
0.425582 -0.904006 0
0.0164862 -0.191589 0
1.06548 -0.835358 0
0.380403 -2.19739 0
-0.140084 -1.84352 0
0.845328 -1.33549 0
0.916087 -0.816877 0
0.172443 -4.83592 0
0.137212 -2.44488 0
0.492383 -0.338775 0
1.43546 -0.74024 0
0.473356 -0.326498 0
0.0486277 -0.127318 0
-0.00484865 -0.129486 0
1.04457 -1.1236 0
-0.0913775 -0.29648 0
0.682989 -1.1538 0
1.35826 -0.601578 0
0.0738982 -0.752631 0
4.23049 -1.92146 0
1.10087 -0.731144 0
3.46376 -2.55645 0
2.31347 -1.03792 0
-0.00663708 -0.183296 0
1.03879 -0.748072 0
-0.145641 -0.548629 0
0.184009 -0.921651 0
0.0931638 -5.05463 0
0.452189 -0.974933 0
1.49978 -1.25466 0
0.197909 -0.835564 0
3.06844 -1.23177 0
0.395853 -0.269343 0
1.15425 -1.0947 0
-0.0115576 -0.242096 0
-0.0030336 -1.74038 0
0.847295 -0.771959 0
-0.0390718 -0.224763 0
0.514719 -1.75861 0
0.0470047 -2.11951 0
1.25191 -0.75515 0
-0.0175177 -0.181657 0
0.522739 -2.87809 0
-0.256343 -1.83592 0
2.98188 -2.41425 0
1.0258 -0.388897 0
3.71373 -2.70623 0
2.89935 -1.61184 0
3.13779 -2.91418 0
0.417749 -1.23737 0
-0.0915193 -0.315466 0
0.434364 -0.851885 0
-0.0534411 -0.214605 0
0.494334 -0.941783 0
-0.0970017 -0.231012 0
0.369861 -1.24537 0
-0.157213 -0.382369 0
0.728121 -0.451745 0
0.660328 -0.419698 0
0.443943 -0.341916 0
2.09022 -1.54108 0
0.829428 -0.486122 0
2.26153 -1.18354 0
0.946259 -0.818195 0
2.54703 -1.46504 0
1.93848 -1.15259 0
2.56777 -1.83642 0
0.369772 -0.310309 0
0.201651 -0.22689 0
0.600888 -0.338421 0
1.58714 -1.64605 0
0.472858 -0.313959 0
0.318082 -0.272048 0
0.0128661 -0.115792 0
0.160537 -0.173815 0
1.80735 -2.40517 0
0.41141 -0.532593 0
0.0161226 -0.126677 0
0.289054 -0.249184 0
1.4022 -1.316 0
0.176093 -0.403805 0
0.343388 -0.510782 0
0.0758987 -0.148319 0
0.77907 -0.398714 0
1.18425 -1.01166 0
3.75588 -1.56578 0
2.65719 -1.71983 0
-0.0124237 -0.408696 0
4.74677 -1.89013 0
-0.0196157 -0.619455 0
3.59048 -1.58134 0
0.555997 -0.372518 0
0.0715152 -0.739691 0
3.95849 -2.12239 0
1.10193 -1.01784 0
-0.00509573 -0.375658 0
0.363617 -1.0037 0
0.331749 -0.923927 0
0.305819 -1.12422 0
0.393426 -1.09171 0
0.589916 -2.87628 0
0.278999 -4.31276 0
1.29932 -3.15048 0
0.330184 -3.71964 0
1.03811 -1.90288 0
0.384065 -2.00478 0
0.594895 -2.14406 0
1.82518 -1.22356 0
1.40787 -0.760839 0
1.4699 -0.510843 0
1.80316 -0.76618 0
-0.112578 -0.548122 0
0.0898227 -1.55421 0
0.365025 -2.23213 0
0.660946 -2.08882 0
0.80858 -2.2959 0
-0.0649736 -0.435087 0
0.557755 -2.00178 0
0.613466 -2.12371 0
-0.0627509 -0.540494 0
0.160265 -1.74982 0
0.357855 -3.05559 0
-0.191747 -0.608206 0
0.181872 -1.33436 0
1.1212 -0.417426 0
0.505873 -0.26954 0
0.679727 -0.33702 0
0.353379 -0.275397 0
0.687419 -0.271508 0
0.404202 -0.302699 0
-0.240611 -2.24416 0
-0.171103 -2.25462 0
-0.0399731 -0.523398 0
0.131431 -0.597451 0
0.273615 -0.584617 0
0.0414246 -0.407231 0
1.84905 -0.94368 0
0.167302 -0.251894 0
0.187823 -0.930931 0
-0.00934131 -0.25992 0
0.355767 -1.10843 0
0.0416174 -0.977689 0
0.0561969 -1.08037 0
0.230773 -1.22932 0
0.200571 -0.915241 0
0.363444 -0.267207 0
0.397712 -0.277897 0
0.546145 -0.319019 0
0.390617 -0.248801 0
0.330588 -0.211258 0
-0.0528154 -0.704703 0
0.0546608 -0.0635532 0
0.0993621 -0.0925243 0
0.119008 -0.129774 0
0.0808923 -0.0992296 0
-1.19423 -0.760265 0
-1.93639 -0.988452 0
0.144206 -0.164697 0
-2.27812 -0.824852 0
-1.40874 -0.446811 0
-1.61597 -0.244261 0
0.233801 -0.294154 0
-5.8635 -1.04283 0
-2.46789 -0.948285 0
-2.8298 -1.48215 0
-5.52546 -1.30727 0
0.244071 -0.252685 0
0.222537 -0.257115 0
0.226211 -0.228213 0
0.269374 -0.229916 0
-0.229805 -0.200943 0
-1.72786 -0.334035 0
-0.0255362 -0.474856 0
-0.225369 -0.504019 0
0.113897 -0.697561 0
0.00959368 -0.337154 0
0.162124 -0.14787 0
0.015525 -0.234021 0
-4.28963 -0.740302 0
-0.0285213 -0.589392 0
-0.665085 -0.804528 0
-0.026395 -0.693508 0
-0.186995 -0.369643 0
-0.177832 -0.366689 0
-0.708313 -0.388254 0
0.0983703 -0.130029 0
-0.582408 -0.145849 0
-3.56988 -0.619235 0
-0.00255935 -0.58632 0
-0.146464 -0.407716 0
0.0673975 -0.167047 0
-0.204511 -0.101274 0
-1.72343 -0.225825 0
0.0865208 -0.562075 0
0.0170451 -0.376482 0
0.141918 -0.208379 0
-0.669318 -0.341473 0
-0.147143 -0.285274 0
-0.0951453 -0.225084 0
-0.273204 -0.359091 0
-0.117024 -0.397343 0
-0.00621921 -0.630049 0
0.00401103 -0.110879 0
0.0265803 -0.27589 0
0.372557 -0.809775 0
0.0595048 -0.352677 0
0.0130903 -0.108949 0
0.0436165 -0.300768 0
0.389006 -0.706967 0
0.0157087 -0.355904 0
0.0130742 -0.0568256 0
-0.0674482 -0.433423 0
0.0348245 -0.333187 0
-0.235603 -0.677195 0
0.025143 -0.377367 0
-0.699822 -0.263397 0
-0.107499 -0.161814 0
0.069994 -0.363207 0
-1.18806 -1.05866 0
-0.016463 -0.665848 0
-0.108154 -0.663827 0
-2.82651 -0.607743 0
-0.537642 -0.152487 0
-0.109491 -0.107788 0
-0.0102659 -0.569972 0
-0.0630396 -0.228871 0
-0.98731 -0.882862 0
0.00445304 -0.418669 0
-0.0683168 -0.513893 0
-0.487688 -0.295427 0
-0.0846184 -0.104878 0
-0.0109681 -0.257833 0
-0.362442 -0.82729 0
-0.165412 -0.219111 0
-0.0849531 -0.157999 0
-0.000491971 -0.386549 0
-0.492308 -0.637704 0
-0.215398 -0.135084 0
0.265892 -0.72607 0
0.106392 -0.335732 0
-0.0541868 -0.388207 0
0.0323403 -0.0786881 0
0.00233063 -0.199109 0
-5.31587 -0.821121 0
0.0355265 -0.417965 0
0.0658875 -0.325027 0
-0.0159359 -0.362908 0
-0.0292108 -0.545893 0
-0.0275297 -0.415489 0
-0.047093 -0.667296 0
0.132221 -0.399127 0
0.189772 -0.638672 0
0.110007 -0.381282 0
0.0463709 -0.413237 0
-0.0742923 -0.372929 0
0.020361 -0.265671 0
-0.0533432 -0.566565 0
0.0206102 -0.109937 0
0.0692337 -0.103846 0
0.117026 -0.379326 0
0.110866 -0.376248 0
0.324541 -0.787155 0
-0.088444 -0.686925 0
-0.586369 -0.520202 0
-2.04799 -0.473595 0
0.0436367 -0.51224 0
0.0146104 -0.373471 0
0.100656 -0.341288 0
0.00129149 -0.231164 0
0.0388228 -0.131806 0
-0.0964919 -0.63189 0
-0.379776 -0.478655 0
-0.2855 -0.35103 0
-2.04631 -0.445902 0
-0.0154772 -0.372087 0
0.26783 -0.253916 0
0.0284086 -0.161051 0
0.000812383 -0.121915 0
0.454206 -1.00448 0
-0.0839674 -0.310569 0
-0.283179 -0.687675 0
0.0155719 -0.108538 0
-0.0883983 -0.653402 0
-1.07313 -0.770483 0
-4.70345 -0.742886 0
0.0648331 -0.308281 0
-0.00646254 -0.372539 0
0.156606 -0.178722 0
-0.347848 -0.468365 0
-0.905211 -0.74696 0
0.0648159 -0.201286 0
0.458288 -0.881124 0
0.00820284 -0.142115 0
0.0818055 -0.368936 0
0.0954968 -0.376892 0
0.0237325 -0.327628 0
0.00113563 -0.0593558 0
-0.00557497 -0.0652698 0
0.00449714 -0.0783776 0
-0.00781854 -0.0579911 0
0.1154 -0.106778 0
0.0327867 -0.225348 0
0.115136 -0.332611 0
0.385272 -0.910084 0
0.0168223 -0.666133 0
-0.244349 -0.425013 0
-0.780492 -0.459498 0
0.153503 -0.754594 0
-0.0193367 -0.398605 0
0.194859 -0.140621 0
0.0156419 -0.207511 0
0.343258 -0.957096 0
0.0216961 -0.223472 0
0.110427 -0.293176 0
0.186217 -0.286272 0
0.23839 -0.317609 0
0.140152 -0.284542 0
-0.00773291 -0.406627 0
-0.0983899 -0.1117 0
-0.192317 -0.472032 0
-0.0638862 -0.0818603 0
-0.0777402 -0.389243 0
-0.021317 -0.100886 0
-0.0606992 -0.153849 0
-0.118552 -0.741379 0
0.304384 -0.348427 0
0.203 -0.31565 0
0.0375375 -0.655092 0
-0.0195483 -0.0743528 0
0.222202 -0.290852 0
0.127674 -0.310643 0
0.0342637 -0.582286 0
-0.0477213 -0.0881718 0