# vtk DataFile Version 2.0
Unstructured Grid by M++
ASCII
DATASET UNSTRUCTURED_GRID
POINTS 81 float
  1.000000   0.625000 0
  0.750000   0.375000 0
  1.000000   0.000000 0
  0.875000   0.875000 0
  0.750000   0.125000 0
  1.000000   1.000000 0
  0.875000   0.250000 0
  0.625000   0.875000 0
  1.000000   0.750000 0
  0.875000   0.000000 0
  1.000000   0.250000 0
  0.625000   0.375000 0
  0.875000   0.500000 0
  0.625000   0.625000 0
  1.000000   0.500000 0
  0.750000   0.500000 0
  0.750000   1.000000 0
  1.000000   0.125000 0
  0.625000   0.250000 0
  0.750000   0.750000 0
  0.625000   0.000000 0
  0.125000   0.375000 0
  0.000000   0.500000 0
  0.125000   0.625000 0
  0.625000   1.000000 0
  1.000000   0.875000 0
  0.875000   0.125000 0
  0.500000   0.250000 0
  0.625000   0.500000 0
  0.250000   0.625000 0
  0.000000   0.625000 0
  0.375000   0.500000 0
  0.375000   0.000000 0
  0.000000   0.125000 0
  0.125000   0.875000 0
  0.875000   1.000000 0
  0.750000   0.250000 0
  0.375000   0.375000 0
  0.250000   0.375000 0
  0.625000   0.750000 0
  0.125000   0.125000 0
  0.500000   0.000000 0
  0.250000   0.875000 0
  0.125000   0.500000 0
  0.500000   0.375000 0
  0.125000   0.000000 0
  0.250000   0.750000 0
  0.250000   0.500000 0
  0.000000   0.875000 0
  0.875000   0.625000 0
  0.500000   0.750000 0
  0.750000   0.625000 0
  0.250000   0.000000 0
  0.375000   0.750000 0
  0.750000   0.875000 0
  0.625000   0.125000 0
  0.250000   0.250000 0
  0.375000   1.000000 0
  0.375000   0.250000 0
  0.000000   0.375000 0
  0.500000   1.000000 0
  0.875000   0.750000 0
  0.750000   0.000000 0
  0.375000   0.125000 0
  0.500000   0.875000 0
  0.000000   0.000000 0
  0.125000   0.750000 0
  0.500000   0.625000 0
  0.125000   0.250000 0
  0.500000   0.125000 0
  0.250000   1.000000 0
  0.250000   0.125000 0
  0.000000   1.000000 0
  0.375000   0.875000 0
  0.000000   0.750000 0
  0.375000   0.625000 0
  0.000000   0.250000 0
  0.125000   1.000000 0
  1.000000   0.375000 0
  0.500000   0.500000 0
  0.875000   0.375000 0
CELLS 64 320
4 56 71 58 63
4 27 58 69 63
4 41 69 32 63
4 76 33 68 40
4 27 44 58 37
4 79 31 44 37
4 56 38 68 21
4 56 58 38 37
4 52 32 71 63
4 47 38 31 37
4 76 68 59 21
4 22 59 43 21
4 65 45 33 40
4 47 43 38 21
4 52 71 45 40
4 56 68 71 40
4 74 30 66 23
4 46 66 29 23
4 22 43 30 23
4 72 48 77 34
4 46 53 42 73
4 50 64 53 73
4 70 42 57 73
4 74 66 48 34
4 46 42 66 34
4 47 29 43 23
4 70 77 42 34
4 60 57 64 73
4 79 67 31 75
4 47 31 29 75
4 50 53 67 75
4 46 29 53 75
4 10 78 6 80
4 36 6 1 80
4 15 1 12 80
4 36 4 6 26
4 14 12 78 80
4 2 17 9 26
4 36 18 4 55
4 15 28 1 11
4 62 4 20 55
4 10 6 17 26
4 27 18 44 11
4 62 9 4 26
4 27 69 18 55
4 36 1 18 11
4 41 20 69 55
4 79 44 28 11
4 16 24 54 7
4 19 54 39 7
4 50 39 64 7
4 8 25 61 3
4 60 64 24 7
4 79 28 67 13
4 19 51 61 49
4 8 61 0 49
4 15 51 28 13
4 19 39 51 13
4 50 67 39 13
4 19 61 54 3
4 14 0 12 49
4 5 35 25 3
4 15 12 51 49
4 16 54 35 3
CELL_TYPES 64
8
8
8
8
8
8
8
8
8
8
8
8
8
8
8
8
8
8
8
8
8
8
8
8
8
8
8
8
8
8
8
8
8
8
8
8
8
8
8
8
8
8
8
8
8
8
8
8
8
8
8
8
8
8
8
8
8
8
8
8
8
8
8
8
CELL_DATA 64
VECTORS vector_value float
-0.0190691 -0.174893 0
-0.0672589 -0.374524 0
-0.0177114 -0.114887 0
-0.00763701 -0.902816 0
0.211674 -0.498131 0
0.226698 -0.274174 0
-0.0548744 -0.560124 0
0.0424125 -0.14476 0
-0.078646 -0.419709 0
0.354189 -0.349362 0
-0.0709331 -0.7778 0
-0.234933 -0.481653 0
0.0203679 -0.85154 0
-0.0670806 -1.02982 0
0.0369297 -0.421189 0
0.00858899 -0.409367 0
0.0462812 -0.421328 0
0.574745 -1.18623 0
0.059863 -0.248972 0
-0.348261 -1.54063 0
0.233893 -0.318253 0
0.182006 -0.461407 0
0.0272769 -0.212967 0
0.612876 -1.56528 0
0.517676 -0.601164 0
-0.0571602 -1.4323 0
-0.514804 -0.847944 0
0.644137 -0.79858 0
0.289492 -0.518349 0
0.0716665 -0.35432 0
0.278128 -0.676508 0
0.372586 -0.632982 0
0.67665 -4.38063 0
0.520217 -0.448985 0
0.830373 -1.13166 0
0.364374 -0.907358 0
0.16326 -3.07146 0
0.019624 -4.77417 0
0.158276 -0.397289 0
0.655641 -0.812186 0
0.0197603 -0.552714 0
0.0619672 -4.64961 0
0.32249 -0.426955 0
-0.00577101 -0.755164 0
0.0917135 -0.184139 0
0.6316 -0.762617 0
0.0370491 -0.110623 0
0.511262 -0.849688 0
-0.138049 -1.48996 0
0.242568 -0.580965 0
0.109437 -2.35587 0
-0.00472908 -1.38844 0
0.405818 -1.48775 0
0.443103 -1.01821 0
0.87795 -1.30861 0
0.270474 -1.59663 0
0.67958 -0.736413 0
1.05961 -0.534626 0
0.722665 -1.64309 0
0.285224 -0.728619 0
0.489641 -2.39861 0
0.21347 -1.37939 0
0.723253 -1.29283 0
0.0551745 -0.242777 0
