# vtk DataFile Version 2.0
Unstructured Grid by M++
ASCII
DATASET UNSTRUCTURED_GRID
POINTS 81 float
  1.000000   0.625000 0
  0.750000   0.375000 0
  1.000000   0.000000 0
  0.875000   0.875000 0
  0.750000   0.125000 0
  1.000000   1.000000 0
  0.875000   0.250000 0
  0.625000   0.875000 0
  1.000000   0.750000 0
  0.875000   0.000000 0
  1.000000   0.250000 0
  0.625000   0.375000 0
  0.875000   0.500000 0
  0.625000   0.625000 0
  1.000000   0.500000 0
  0.750000   0.500000 0
  0.750000   1.000000 0
  1.000000   0.125000 0
  0.625000   0.250000 0
  0.750000   0.750000 0
  0.625000   0.000000 0
  0.125000   0.375000 0
  0.000000   0.500000 0
  0.125000   0.625000 0
  0.625000   1.000000 0
  1.000000   0.875000 0
  0.875000   0.125000 0
  0.500000   0.250000 0
  0.625000   0.500000 0
  0.250000   0.625000 0
  0.000000   0.625000 0
  0.375000   0.500000 0
  0.375000   0.000000 0
  0.000000   0.125000 0
  0.125000   0.875000 0
  0.875000   1.000000 0
  0.750000   0.250000 0
  0.375000   0.375000 0
  0.250000   0.375000 0
  0.625000   0.750000 0
  0.125000   0.125000 0
  0.500000   0.000000 0
  0.250000   0.875000 0
  0.125000   0.500000 0
  0.500000   0.375000 0
  0.125000   0.000000 0
  0.250000   0.750000 0
  0.250000   0.500000 0
  0.000000   0.875000 0
  0.875000   0.625000 0
  0.500000   0.750000 0
  0.750000   0.625000 0
  0.250000   0.000000 0
  0.375000   0.750000 0
  0.750000   0.875000 0
  0.625000   0.125000 0
  0.250000   0.250000 0
  0.375000   1.000000 0
  0.375000   0.250000 0
  0.000000   0.375000 0
  0.500000   1.000000 0
  0.875000   0.750000 0
  0.750000   0.000000 0
  0.375000   0.125000 0
  0.500000   0.875000 0
  0.000000   0.000000 0
  0.125000   0.750000 0
  0.500000   0.625000 0
  0.125000   0.250000 0
  0.500000   0.125000 0
  0.250000   1.000000 0
  0.250000   0.125000 0
  0.000000   1.000000 0
  0.375000   0.875000 0
  0.000000   0.750000 0
  0.375000   0.625000 0
  0.000000   0.250000 0
  0.125000   1.000000 0
  1.000000   0.375000 0
  0.500000   0.500000 0
  0.875000   0.375000 0
CELLS 64 320
4 56 71 58 63
4 27 58 69 63
4 41 69 32 63
4 76 33 68 40
4 27 44 58 37
4 79 31 44 37
4 56 38 68 21
4 56 58 38 37
4 52 32 71 63
4 47 38 31 37
4 76 68 59 21
4 22 59 43 21
4 65 45 33 40
4 47 43 38 21
4 52 71 45 40
4 56 68 71 40
4 74 30 66 23
4 46 66 29 23
4 22 43 30 23
4 72 48 77 34
4 46 53 42 73
4 50 64 53 73
4 70 42 57 73
4 74 66 48 34
4 46 42 66 34
4 47 29 43 23
4 70 77 42 34
4 60 57 64 73
4 79 67 31 75
4 47 31 29 75
4 50 53 67 75
4 46 29 53 75
4 10 78 6 80
4 36 6 1 80
4 15 1 12 80
4 36 4 6 26
4 14 12 78 80
4 2 17 9 26
4 36 18 4 55
4 15 28 1 11
4 62 4 20 55
4 10 6 17 26
4 27 18 44 11
4 62 9 4 26
4 27 69 18 55
4 36 1 18 11
4 41 20 69 55
4 79 44 28 11
4 16 24 54 7
4 19 54 39 7
4 50 39 64 7
4 8 25 61 3
4 60 64 24 7
4 79 28 67 13
4 19 51 61 49
4 8 61 0 49
4 15 51 28 13
4 19 39 51 13
4 50 67 39 13
4 19 61 54 3
4 14 0 12 49
4 5 35 25 3
4 15 12 51 49
4 16 54 35 3
CELL_TYPES 64
8
8
8
8
8
8
8
8
8
8
8
8
8
8
8
8
8
8
8
8
8
8
8
8
8
8
8
8
8
8
8
8
8
8
8
8
8
8
8
8
8
8
8
8
8
8
8
8
8
8
8
8
8
8
8
8
8
8
8
8
8
8
8
8
CELL_DATA 64
VECTORS vector_value float
0.106953 -0.106034 0
0.228269 -0.129284 0
0.0289122 -0.0832539 0
0.0153974 -0.840415 0
0.317394 -0.0906242 0
0.225979 -0.0171129 0
0.421617 -0.597572 0
0.390145 -0.173219 0
0.0300822 -0.0949358 0
0.50506 -0.0682478 0
0.165893 -0.981644 0
0.239225 -1.43749 0
0.00156987 -0.828437 0
0.452316 -0.575423 0
0.0138717 -0.432771 0
0.0573024 -0.491644 0
0.196283 -2.24842 0
0.178112 -0.253184 0
0.1299 -1.85671 0
-0.49401 -1.7548 0
-0.00547172 -0.00640906 0
0.297729 -0.5581 0
-0.00438377 -0.161276 0
-0.168215 -2.28762 0
-0.166805 -0.217277 0
0.251974 -0.533196 0
-0.750899 -0.642057 0
0.605377 -1.21279 0
0.350433 0.0344775 0
0.165797 -0.0206047 0
0.0529549 -0.0879317 0
0.00815506 -0.0175946 0
0.199549 -0.967821 0
0.287431 -3.85063 0
0.418467 -3.71815 0
1.02296 -2.49174 0
0.239865 -0.775443 0
0.18486 -3.14728 0
0.312423 -1.58407 0
0.337868 -1.34807 0
0.0213836 -0.837728 0
0.780166 -2.05948 0
0.206225 -0.22871 0
0.159246 -2.12768 0
0.216823 -0.297341 0
0.0711534 -1.10978 0
0.00446993 -0.447915 0
0.0900611 -0.0600551 0
-0.0227279 -0.271296 0
0.263463 -0.419746 0
0.760288 -2.03501 0
-0.0681625 -1.05814 0
0.126973 -1.65487 0
0.567957 -0.183332 0
0.128392 -2.10987 0
-0.307466 -0.742359 0
0.736403 -1.61368 0
1.47742 -1.77825 0
0.864593 -0.762387 0
-0.000682923 -1.41771 0
-0.000878681 -0.337367 0
0.0765168 -1.14401 0
0.453824 -3.48959 0
0.268027 -1.1589 0
