# vtk DataFile Version 2.0
Unstructured Grid by M++
ASCII
DATASET UNSTRUCTURED_GRID
POINTS 81 float
  1.000000   0.625000 0
  0.750000   0.375000 0
  1.000000   0.000000 0
  0.875000   0.875000 0
  0.750000   0.125000 0
  1.000000   1.000000 0
  0.875000   0.250000 0
  0.625000   0.875000 0
  1.000000   0.750000 0
  0.875000   0.000000 0
  1.000000   0.250000 0
  0.625000   0.375000 0
  0.875000   0.500000 0
  0.625000   0.625000 0
  1.000000   0.500000 0
  0.750000   0.500000 0
  0.750000   1.000000 0
  1.000000   0.125000 0
  0.625000   0.250000 0
  0.750000   0.750000 0
  0.625000   0.000000 0
  0.125000   0.375000 0
  0.000000   0.500000 0
  0.125000   0.625000 0
  0.625000   1.000000 0
  1.000000   0.875000 0
  0.875000   0.125000 0
  0.500000   0.250000 0
  0.625000   0.500000 0
  0.250000   0.625000 0
  0.000000   0.625000 0
  0.375000   0.500000 0
  0.375000   0.000000 0
  0.000000   0.125000 0
  0.125000   0.875000 0
  0.875000   1.000000 0
  0.750000   0.250000 0
  0.375000   0.375000 0
  0.250000   0.375000 0
  0.625000   0.750000 0
  0.125000   0.125000 0
  0.500000   0.000000 0
  0.250000   0.875000 0
  0.125000   0.500000 0
  0.500000   0.375000 0
  0.125000   0.000000 0
  0.250000   0.750000 0
  0.250000   0.500000 0
  0.000000   0.875000 0
  0.875000   0.625000 0
  0.500000   0.750000 0
  0.750000   0.625000 0
  0.250000   0.000000 0
  0.375000   0.750000 0
  0.750000   0.875000 0
  0.625000   0.125000 0
  0.250000   0.250000 0
  0.375000   1.000000 0
  0.375000   0.250000 0
  0.000000   0.375000 0
  0.500000   1.000000 0
  0.875000   0.750000 0
  0.750000   0.000000 0
  0.375000   0.125000 0
  0.500000   0.875000 0
  0.000000   0.000000 0
  0.125000   0.750000 0
  0.500000   0.625000 0
  0.125000   0.250000 0
  0.500000   0.125000 0
  0.250000   1.000000 0
  0.250000   0.125000 0
  0.000000   1.000000 0
  0.375000   0.875000 0
  0.000000   0.750000 0
  0.375000   0.625000 0
  0.000000   0.250000 0
  0.125000   1.000000 0
  1.000000   0.375000 0
  0.500000   0.500000 0
  0.875000   0.375000 0
CELLS 64 320
4 56 71 58 63
4 27 58 69 63
4 41 69 32 63
4 76 33 68 40
4 27 44 58 37
4 79 31 44 37
4 56 38 68 21
4 56 58 38 37
4 52 32 71 63
4 47 38 31 37
4 76 68 59 21
4 22 59 43 21
4 65 45 33 40
4 47 43 38 21
4 52 71 45 40
4 56 68 71 40
4 74 30 66 23
4 46 66 29 23
4 22 43 30 23
4 72 48 77 34
4 46 53 42 73
4 50 64 53 73
4 70 42 57 73
4 74 66 48 34
4 46 42 66 34
4 47 29 43 23
4 70 77 42 34
4 60 57 64 73
4 79 67 31 75
4 47 31 29 75
4 50 53 67 75
4 46 29 53 75
4 10 78 6 80
4 36 6 1 80
4 15 1 12 80
4 36 4 6 26
4 14 12 78 80
4 2 17 9 26
4 36 18 4 55
4 15 28 1 11
4 62 4 20 55
4 10 6 17 26
4 27 18 44 11
4 62 9 4 26
4 27 69 18 55
4 36 1 18 11
4 41 20 69 55
4 79 44 28 11
4 16 24 54 7
4 19 54 39 7
4 50 39 64 7
4 8 25 61 3
4 60 64 24 7
4 79 28 67 13
4 19 51 61 49
4 8 61 0 49
4 15 51 28 13
4 19 39 51 13
4 50 67 39 13
4 19 61 54 3
4 14 0 12 49
4 5 35 25 3
4 15 12 51 49
4 16 54 35 3
CELL_TYPES 64
8
8
8
8
8
8
8
8
8
8
8
8
8
8
8
8
8
8
8
8
8
8
8
8
8
8
8
8
8
8
8
8
8
8
8
8
8
8
8
8
8
8
8
8
8
8
8
8
8
8
8
8
8
8
8
8
8
8
8
8
8
8
8
8
CELL_DATA 64
VECTORS vector_value float
0.86379 -0.575027 0
2.37222 -1.37642 0
0.0891349 -0.843176 0
0.015575 -1.16535 0
0.177924 -0.150299 0
0.151414 -0.134209 0
1.19714 -1.09161 0
1.56645 -1.69662 0
0.0158494 -0.0538683 0
0.131543 -1.10712 0
0.362209 -1.531 0
0.104016 -1.98489 0
-0.0019392 -1.16682 0
0.410551 -1.43178 0
0.0137803 -0.250166 0
0.0750471 -0.334948 0
-0.0851253 -3.05013 0
0.197837 -0.99902 0
0.463978 -2.89683 0
-0.52607 -1.68179 0
-0.996605 -0.71322 0
-0.56423 -0.238017 0
-0.801859 -0.698661 0
-0.416377 -2.56151 0
-0.950825 -1.01523 0
0.300305 -0.624526 0
-1.03344 -1.03035 0
-0.591605 -0.505528 0
0.0421403 -0.112656 0
0.194501 -1.12959 0
-0.0545836 -0.0996828 0
0.0850508 -0.59594 0
-0.803655 -1.75576 0
-1.29974 -0.675687 0
-0.0225288 -0.0843454 0
-0.401169 -0.65984 0
-0.0605142 -2.57595 0
-0.047237 -0.256811 0
-0.036582 -1.71235 0
0.0509143 -0.255954 0
0.38821 -3.18128 0
-0.249872 -0.72197 0
0.117449 -0.60565 0
-0.172839 -0.996152 0
1.68057 -1.45409 0
-0.227363 -0.493373 0
0.126003 -1.25172 0
0.117687 -0.425747 0
0.193037 -1.37033 0
0.0044797 -0.698762 0
-0.255898 -0.385697 0
0.392202 -0.518638 0
-0.158953 -0.970679 0
0.0373853 -0.460133 0
0.145689 -0.374264 0
0.665154 -2.24231 0
0.0141681 -0.0979621 0
0.0214406 -0.167373 0
-0.0831368 -0.471271 0
1.24822 -1.86892 0
0.0450216 -2.53851 0
-0.320567 -0.442618 0
0.0845443 -0.139788 0
-0.356092 -1.30004 0
