# vtk DataFile Version 2.0
Unstructured Grid by M++
ASCII
DATASET UNSTRUCTURED_GRID
POINTS 81 float
  1.000000   0.625000 0
  0.750000   0.375000 0
  1.000000   0.000000 0
  0.875000   0.875000 0
  0.750000   0.125000 0
  1.000000   1.000000 0
  0.875000   0.250000 0
  0.625000   0.875000 0
  1.000000   0.750000 0
  0.875000   0.000000 0
  1.000000   0.250000 0
  0.625000   0.375000 0
  0.875000   0.500000 0
  0.625000   0.625000 0
  1.000000   0.500000 0
  0.750000   0.500000 0
  0.750000   1.000000 0
  1.000000   0.125000 0
  0.625000   0.250000 0
  0.750000   0.750000 0
  0.625000   0.000000 0
  0.125000   0.375000 0
  0.000000   0.500000 0
  0.125000   0.625000 0
  0.625000   1.000000 0
  1.000000   0.875000 0
  0.875000   0.125000 0
  0.500000   0.250000 0
  0.625000   0.500000 0
  0.250000   0.625000 0
  0.000000   0.625000 0
  0.375000   0.500000 0
  0.375000   0.000000 0
  0.000000   0.125000 0
  0.125000   0.875000 0
  0.875000   1.000000 0
  0.750000   0.250000 0
  0.375000   0.375000 0
  0.250000   0.375000 0
  0.625000   0.750000 0
  0.125000   0.125000 0
  0.500000   0.000000 0
  0.250000   0.875000 0
  0.125000   0.500000 0
  0.500000   0.375000 0
  0.125000   0.000000 0
  0.250000   0.750000 0
  0.250000   0.500000 0
  0.000000   0.875000 0
  0.875000   0.625000 0
  0.500000   0.750000 0
  0.750000   0.625000 0
  0.250000   0.000000 0
  0.375000   0.750000 0
  0.750000   0.875000 0
  0.625000   0.125000 0
  0.250000   0.250000 0
  0.375000   1.000000 0
  0.375000   0.250000 0
  0.000000   0.375000 0
  0.500000   1.000000 0
  0.875000   0.750000 0
  0.750000   0.000000 0
  0.375000   0.125000 0
  0.500000   0.875000 0
  0.000000   0.000000 0
  0.125000   0.750000 0
  0.500000   0.625000 0
  0.125000   0.250000 0
  0.500000   0.125000 0
  0.250000   1.000000 0
  0.250000   0.125000 0
  0.000000   1.000000 0
  0.375000   0.875000 0
  0.000000   0.750000 0
  0.375000   0.625000 0
  0.000000   0.250000 0
  0.125000   1.000000 0
  1.000000   0.375000 0
  0.500000   0.500000 0
  0.875000   0.375000 0
CELLS 64 320
4 56 71 58 63
4 27 58 69 63
4 41 69 32 63
4 76 33 68 40
4 27 44 58 37
4 79 31 44 37
4 56 38 68 21
4 56 58 38 37
4 52 32 71 63
4 47 38 31 37
4 76 68 59 21
4 22 59 43 21
4 65 45 33 40
4 47 43 38 21
4 52 71 45 40
4 56 68 71 40
4 74 30 66 23
4 46 66 29 23
4 22 43 30 23
4 72 48 77 34
4 46 53 42 73
4 50 64 53 73
4 70 42 57 73
4 74 66 48 34
4 46 42 66 34
4 47 29 43 23
4 70 77 42 34
4 60 57 64 73
4 79 67 31 75
4 47 31 29 75
4 50 53 67 75
4 46 29 53 75
4 10 78 6 80
4 36 6 1 80
4 15 1 12 80
4 36 4 6 26
4 14 12 78 80
4 2 17 9 26
4 36 18 4 55
4 15 28 1 11
4 62 4 20 55
4 10 6 17 26
4 27 18 44 11
4 62 9 4 26
4 27 69 18 55
4 36 1 18 11
4 41 20 69 55
4 79 44 28 11
4 16 24 54 7
4 19 54 39 7
4 50 39 64 7
4 8 25 61 3
4 60 64 24 7
4 79 28 67 13
4 19 51 61 49
4 8 61 0 49
4 15 51 28 13
4 19 39 51 13
4 50 67 39 13
4 19 61 54 3
4 14 0 12 49
4 5 35 25 3
4 15 12 51 49
4 16 54 35 3
CELL_TYPES 64
8
8
8
8
8
8
8
8
8
8
8
8
8
8
8
8
8
8
8
8
8
8
8
8
8
8
8
8
8
8
8
8
8
8
8
8
8
8
8
8
8
8
8
8
8
8
8
8
8
8
8
8
8
8
8
8
8
8
8
8
8
8
8
8
CELL_DATA 64
VECTORS vector_value float
0.208068 -0.684999 0
0.256707 -1.15048 0
0.13117 -1.57762 0
-0.217758 -0.584867 0
0.574675 -1.36711 0
0.385574 -2.02818 0
-0.0810552 -0.592169 0
0.136059 -1.16519 0
0.0348389 -0.202474 0
0.121938 -1.20131 0
-0.0239794 -0.259191 0
0.0267809 -0.295661 0
-0.121244 -0.950619 0
0.141171 -0.684223 0
-0.0293711 -0.0955289 0
-0.315176 -0.410445 0
0.0122833 -0.50026 0
-0.0246441 -0.485821 0
0.0824701 -0.430911 0
0.227632 -0.631378 0
0.632281 -2.78664 0
-0.414218 -0.91748 0
-0.68544 -1.68578 0
0.018299 -0.532867 0
0.442271 -1.15762 0
0.0876241 -0.931007 0
0.275902 -1.59094 0
-1.04917 -0.454501 0
0.523256 -3.33122 0
0.0817602 -0.649713 0
1.07644 -2.43734 0
0.828917 -2.15482 0
0.0412841 -0.766314 0
0.0514122 -0.274876 0
-0.173363 -0.427639 0
0.411633 -0.480961 0
-0.0338137 -0.718281 0
0.103951 -1.24871 0
0.396428 -2.09615 0
-0.0124286 -1.10536 0
0.0144534 -1.80413 0
0.135942 -0.915604 0
0.797705 -1.84315 0
0.0988747 -0.392285 0
0.24703 -1.67649 0
0.390055 -1.732 0
-0.0384974 -1.72864 0
0.762208 -1.53935 0
-0.300436 -0.873736 0
-0.0961903 -0.394562 0
-0.158667 -0.213605 0
0.201606 -0.944521 0
-0.924357 -0.978142 0
0.24969 -0.562301 0
-0.261144 -0.809442 0
-0.0359762 -1.17299 0
-0.229471 -0.571987 0
-0.116942 -0.153859 0
-0.132086 -0.285464 0
0.328369 -1.0527 0
-0.10352 -0.938022 0
-0.167794 -0.702282 0
-0.245733 -0.584843 0
-0.248718 -1.08324 0
