# vtk DataFile Version 2.0
Unstructured Grid by M++
ASCII
DATASET UNSTRUCTURED_GRID
POINTS 81 float
  1.000000   0.625000 0
  0.750000   0.375000 0
  1.000000   0.000000 0
  0.875000   0.875000 0
  0.750000   0.125000 0
  1.000000   1.000000 0
  0.875000   0.250000 0
  0.625000   0.875000 0
  1.000000   0.750000 0
  0.875000   0.000000 0
  1.000000   0.250000 0
  0.625000   0.375000 0
  0.875000   0.500000 0
  0.625000   0.625000 0
  1.000000   0.500000 0
  0.750000   0.500000 0
  0.750000   1.000000 0
  1.000000   0.125000 0
  0.625000   0.250000 0
  0.750000   0.750000 0
  0.625000   0.000000 0
  0.125000   0.375000 0
  0.000000   0.500000 0
  0.125000   0.625000 0
  0.625000   1.000000 0
  1.000000   0.875000 0
  0.875000   0.125000 0
  0.500000   0.250000 0
  0.625000   0.500000 0
  0.250000   0.625000 0
  0.000000   0.625000 0
  0.375000   0.500000 0
  0.375000   0.000000 0
  0.000000   0.125000 0
  0.125000   0.875000 0
  0.875000   1.000000 0
  0.750000   0.250000 0
  0.375000   0.375000 0
  0.250000   0.375000 0
  0.625000   0.750000 0
  0.125000   0.125000 0
  0.500000   0.000000 0
  0.250000   0.875000 0
  0.125000   0.500000 0
  0.500000   0.375000 0
  0.125000   0.000000 0
  0.250000   0.750000 0
  0.250000   0.500000 0
  0.000000   0.875000 0
  0.875000   0.625000 0
  0.500000   0.750000 0
  0.750000   0.625000 0
  0.250000   0.000000 0
  0.375000   0.750000 0
  0.750000   0.875000 0
  0.625000   0.125000 0
  0.250000   0.250000 0
  0.375000   1.000000 0
  0.375000   0.250000 0
  0.000000   0.375000 0
  0.500000   1.000000 0
  0.875000   0.750000 0
  0.750000   0.000000 0
  0.375000   0.125000 0
  0.500000   0.875000 0
  0.000000   0.000000 0
  0.125000   0.750000 0
  0.500000   0.625000 0
  0.125000   0.250000 0
  0.500000   0.125000 0
  0.250000   1.000000 0
  0.250000   0.125000 0
  0.000000   1.000000 0
  0.375000   0.875000 0
  0.000000   0.750000 0
  0.375000   0.625000 0
  0.000000   0.250000 0
  0.125000   1.000000 0
  1.000000   0.375000 0
  0.500000   0.500000 0
  0.875000   0.375000 0
CELLS 64 320
4 56 71 58 63
4 27 58 69 63
4 41 69 32 63
4 76 33 68 40
4 27 44 58 37
4 79 31 44 37
4 56 38 68 21
4 56 58 38 37
4 52 32 71 63
4 47 38 31 37
4 76 68 59 21
4 22 59 43 21
4 65 45 33 40
4 47 43 38 21
4 52 71 45 40
4 56 68 71 40
4 74 30 66 23
4 46 66 29 23
4 22 43 30 23
4 72 48 77 34
4 46 53 42 73
4 50 64 53 73
4 70 42 57 73
4 74 66 48 34
4 46 42 66 34
4 47 29 43 23
4 70 77 42 34
4 60 57 64 73
4 79 67 31 75
4 47 31 29 75
4 50 53 67 75
4 46 29 53 75
4 10 78 6 80
4 36 6 1 80
4 15 1 12 80
4 36 4 6 26
4 14 12 78 80
4 2 17 9 26
4 36 18 4 55
4 15 28 1 11
4 62 4 20 55
4 10 6 17 26
4 27 18 44 11
4 62 9 4 26
4 27 69 18 55
4 36 1 18 11
4 41 20 69 55
4 79 44 28 11
4 16 24 54 7
4 19 54 39 7
4 50 39 64 7
4 8 25 61 3
4 60 64 24 7
4 79 28 67 13
4 19 51 61 49
4 8 61 0 49
4 15 51 28 13
4 19 39 51 13
4 50 67 39 13
4 19 61 54 3
4 14 0 12 49
4 5 35 25 3
4 15 12 51 49
4 16 54 35 3
CELL_TYPES 64
8
8
8
8
8
8
8
8
8
8
8
8
8
8
8
8
8
8
8
8
8
8
8
8
8
8
8
8
8
8
8
8
8
8
8
8
8
8
8
8
8
8
8
8
8
8
8
8
8
8
8
8
8
8
8
8
8
8
8
8
8
8
8
8
CELL_DATA 64
VECTORS vector_value float
-0.00239587 -0.163097 0
-0.0356067 -0.64096 0
-0.0393056 -0.269706 0
-0.0338733 -0.141479 0
1.68148 -1.17334 0
0.588818 -1.22871 0
0.00318552 -0.352443 0
0.513775 -0.479064 0
-0.168798 -0.447591 0
1.26872 -0.929128 0
-0.0183758 -0.0557297 0
0.064897 -0.107227 0
-0.0501739 -0.238855 0
1.08612 -1.26989 0
-0.0555326 -0.115148 0
-0.0134872 -0.196894 0
-0.0167549 -0.906378 0
-0.155788 -1.7741 0
0.399342 -1.02724 0
0.257144 -0.523149 0
-0.227779 -0.741042 0
0.118337 -0.985124 0
0.0201985 -1.09465 0
-0.229995 -0.884613 0
-0.212374 -1.25843 0
0.416812 -1.15638 0
0.125384 -1.42451 0
-0.034711 -1.19926 0
0.323257 -0.984441 0
0.523872 -0.731135 0
-0.0452632 -1.28994 0
-0.0335224 -0.129302 0
-0.00389302 -0.406978 0
0.0143312 -0.155624 0
-0.00471273 -0.303849 0
0.491445 -1.05485 0
0.11819 -0.362084 0
0.137954 -0.596398 0
0.733813 -1.30474 0
-0.0391027 -0.468784 0
2.46112 -3.66412 0
-0.0160578 -0.363139 0
1.61958 -4.51448 0
0.679573 -1.93245 0
1.78535 -4.13484 0
0.685473 -0.862335 0
0.392564 -0.735732 0
-0.0854719 -3.33033 0
-0.862611 -1.35734 0
-0.392081 -1.58904 0
-0.0715159 -2.18116 0
-0.0350116 -0.0486993 0
-0.430738 -1.23027 0
-0.131865 -2.02646 0
0.157104 -0.586758 0
-0.00772753 -0.0183248 0
-0.456958 -1.47603 0
0.141437 -1.4934 0
0.0483576 -1.80179 0
-0.243752 -0.311895 0
0.0752567 -0.0891956 0
-0.44752 -0.371912 0
0.166846 -0.509115 0
-1.08495 -0.798909 0
