# vtk DataFile Version 2.0
Unstructured Grid by M++
ASCII
DATASET UNSTRUCTURED_GRID
POINTS 81 float
  1.000000   0.625000 0
  0.750000   0.375000 0
  1.000000   0.000000 0
  0.875000   0.875000 0
  0.750000   0.125000 0
  1.000000   1.000000 0
  0.875000   0.250000 0
  0.625000   0.875000 0
  1.000000   0.750000 0
  0.875000   0.000000 0
  1.000000   0.250000 0
  0.625000   0.375000 0
  0.875000   0.500000 0
  0.625000   0.625000 0
  1.000000   0.500000 0
  0.750000   0.500000 0
  0.750000   1.000000 0
  1.000000   0.125000 0
  0.625000   0.250000 0
  0.750000   0.750000 0
  0.625000   0.000000 0
  0.125000   0.375000 0
  0.000000   0.500000 0
  0.125000   0.625000 0
  0.625000   1.000000 0
  1.000000   0.875000 0
  0.875000   0.125000 0
  0.500000   0.250000 0
  0.625000   0.500000 0
  0.250000   0.625000 0
  0.000000   0.625000 0
  0.375000   0.500000 0
  0.375000   0.000000 0
  0.000000   0.125000 0
  0.125000   0.875000 0
  0.875000   1.000000 0
  0.750000   0.250000 0
  0.375000   0.375000 0
  0.250000   0.375000 0
  0.625000   0.750000 0
  0.125000   0.125000 0
  0.500000   0.000000 0
  0.250000   0.875000 0
  0.125000   0.500000 0
  0.500000   0.375000 0
  0.125000   0.000000 0
  0.250000   0.750000 0
  0.250000   0.500000 0
  0.000000   0.875000 0
  0.875000   0.625000 0
  0.500000   0.750000 0
  0.750000   0.625000 0
  0.250000   0.000000 0
  0.375000   0.750000 0
  0.750000   0.875000 0
  0.625000   0.125000 0
  0.250000   0.250000 0
  0.375000   1.000000 0
  0.375000   0.250000 0
  0.000000   0.375000 0
  0.500000   1.000000 0
  0.875000   0.750000 0
  0.750000   0.000000 0
  0.375000   0.125000 0
  0.500000   0.875000 0
  0.000000   0.000000 0
  0.125000   0.750000 0
  0.500000   0.625000 0
  0.125000   0.250000 0
  0.500000   0.125000 0
  0.250000   1.000000 0
  0.250000   0.125000 0
  0.000000   1.000000 0
  0.375000   0.875000 0
  0.000000   0.750000 0
  0.375000   0.625000 0
  0.000000   0.250000 0
  0.125000   1.000000 0
  1.000000   0.375000 0
  0.500000   0.500000 0
  0.875000   0.375000 0
CELLS 64 320
4 56 71 58 63
4 27 58 69 63
4 41 69 32 63
4 76 33 68 40
4 27 44 58 37
4 79 31 44 37
4 56 38 68 21
4 56 58 38 37
4 52 32 71 63
4 47 38 31 37
4 76 68 59 21
4 22 59 43 21
4 65 45 33 40
4 47 43 38 21
4 52 71 45 40
4 56 68 71 40
4 74 30 66 23
4 46 66 29 23
4 22 43 30 23
4 72 48 77 34
4 46 53 42 73
4 50 64 53 73
4 70 42 57 73
4 74 66 48 34
4 46 42 66 34
4 47 29 43 23
4 70 77 42 34
4 60 57 64 73
4 79 67 31 75
4 47 31 29 75
4 50 53 67 75
4 46 29 53 75
4 10 78 6 80
4 36 6 1 80
4 15 1 12 80
4 36 4 6 26
4 14 12 78 80
4 2 17 9 26
4 36 18 4 55
4 15 28 1 11
4 62 4 20 55
4 10 6 17 26
4 27 18 44 11
4 62 9 4 26
4 27 69 18 55
4 36 1 18 11
4 41 20 69 55
4 79 44 28 11
4 16 24 54 7
4 19 54 39 7
4 50 39 64 7
4 8 25 61 3
4 60 64 24 7
4 79 28 67 13
4 19 51 61 49
4 8 61 0 49
4 15 51 28 13
4 19 39 51 13
4 50 67 39 13
4 19 61 54 3
4 14 0 12 49
4 5 35 25 3
4 15 12 51 49
4 16 54 35 3
CELL_TYPES 64
8
8
8
8
8
8
8
8
8
8
8
8
8
8
8
8
8
8
8
8
8
8
8
8
8
8
8
8
8
8
8
8
8
8
8
8
8
8
8
8
8
8
8
8
8
8
8
8
8
8
8
8
8
8
8
8
8
8
8
8
8
8
8
8
CELL_DATA 64
VECTORS vector_value float
0.0701858 -0.240381 0
-0.34994 -0.561864 0
-0.0821006 -0.220236 0
-0.00230975 -0.205693 0
-0.00157051 -0.0660522 0
-0.00985998 -0.0376417 0
0.091733 -1.61047 0
0.0990265 -0.182397 0
-0.164337 -0.892784 0
-0.105679 -0.191996 0
-0.00693098 -0.182543 0
-0.0215484 -0.199198 0
0.00690734 -0.192813 0
-0.335109 -1.60103 0
0.0986076 -1.236 0
0.0371046 -1.41532 0
0.0160079 -0.202338 0
0.0186133 -0.690445 0
0.0219188 -0.146768 0
0.13588 -1.07274 0
0.69359 -1.63664 0
1.34218 -1.81579 0
0.65623 -1.44519 0
0.254819 -0.57659 0
0.30787 -0.22807 0
-0.133222 -0.977981 0
0.620022 -0.257294 0
-0.102067 -1.87308 0
-0.0806181 -0.100881 0
-0.604576 -0.779395 0
0.338577 -0.961961 0
-0.0470365 -0.510367 0
-0.342087 -2.2041 0
0.0397418 -1.05736 0
0.0600107 -0.454376 0
-0.140822 -2.26504 0
0.534742 -2.43342 0
-0.0229387 -1.26219 0
0.406608 -0.710111 0
0.0115085 -1.46702 0
0.0745631 -0.693379 0
-0.266441 -1.43904 0
-0.12979 -1.82461 0
0.0282234 -2.67614 0
0.0207012 -1.16255 0
0.177103 -0.872458 0
0.0173262 -0.826458 0
-0.0295621 -1.61532 0
0.0288063 -0.361242 0
-0.0471778 -0.265824 0
0.375446 -1.12646 0
-0.0757812 -1.45937 0
-0.53125 -0.636333 0
0.146255 -1.68915 0
-0.164974 -1.34382 0
-0.249067 -0.986838 0
0.261091 -1.37571 0
0.884944 -1.12143 0
1.6787 -2.1828 0
-0.124395 -0.891256 0
0.290709 -0.943504 0
0.258135 -1.54958 0
0.911597 -1.9866 0
0.495581 -0.804552 0
