# vtk DataFile Version 2.0
Unstructured Grid by M++
ASCII
DATASET UNSTRUCTURED_GRID
POINTS 81 float
  1.000000   0.625000 0
  0.750000   0.375000 0
  1.000000   0.000000 0
  0.875000   0.875000 0
  0.750000   0.125000 0
  1.000000   1.000000 0
  0.875000   0.250000 0
  0.625000   0.875000 0
  1.000000   0.750000 0
  0.875000   0.000000 0
  1.000000   0.250000 0
  0.625000   0.375000 0
  0.875000   0.500000 0
  0.625000   0.625000 0
  1.000000   0.500000 0
  0.750000   0.500000 0
  0.750000   1.000000 0
  1.000000   0.125000 0
  0.625000   0.250000 0
  0.750000   0.750000 0
  0.625000   0.000000 0
  0.125000   0.375000 0
  0.000000   0.500000 0
  0.125000   0.625000 0
  0.625000   1.000000 0
  1.000000   0.875000 0
  0.875000   0.125000 0
  0.500000   0.250000 0
  0.625000   0.500000 0
  0.250000   0.625000 0
  0.000000   0.625000 0
  0.375000   0.500000 0
  0.375000   0.000000 0
  0.000000   0.125000 0
  0.125000   0.875000 0
  0.875000   1.000000 0
  0.750000   0.250000 0
  0.375000   0.375000 0
  0.250000   0.375000 0
  0.625000   0.750000 0
  0.125000   0.125000 0
  0.500000   0.000000 0
  0.250000   0.875000 0
  0.125000   0.500000 0
  0.500000   0.375000 0
  0.125000   0.000000 0
  0.250000   0.750000 0
  0.250000   0.500000 0
  0.000000   0.875000 0
  0.875000   0.625000 0
  0.500000   0.750000 0
  0.750000   0.625000 0
  0.250000   0.000000 0
  0.375000   0.750000 0
  0.750000   0.875000 0
  0.625000   0.125000 0
  0.250000   0.250000 0
  0.375000   1.000000 0
  0.375000   0.250000 0
  0.000000   0.375000 0
  0.500000   1.000000 0
  0.875000   0.750000 0
  0.750000   0.000000 0
  0.375000   0.125000 0
  0.500000   0.875000 0
  0.000000   0.000000 0
  0.125000   0.750000 0
  0.500000   0.625000 0
  0.125000   0.250000 0
  0.500000   0.125000 0
  0.250000   1.000000 0
  0.250000   0.125000 0
  0.000000   1.000000 0
  0.375000   0.875000 0
  0.000000   0.750000 0
  0.375000   0.625000 0
  0.000000   0.250000 0
  0.125000   1.000000 0
  1.000000   0.375000 0
  0.500000   0.500000 0
  0.875000   0.375000 0
CELLS 64 320
4 56 71 58 63
4 27 58 69 63
4 41 69 32 63
4 76 33 68 40
4 27 44 58 37
4 79 31 44 37
4 56 38 68 21
4 56 58 38 37
4 52 32 71 63
4 47 38 31 37
4 76 68 59 21
4 22 59 43 21
4 65 45 33 40
4 47 43 38 21
4 52 71 45 40
4 56 68 71 40
4 74 30 66 23
4 46 66 29 23
4 22 43 30 23
4 72 48 77 34
4 46 53 42 73
4 50 64 53 73
4 70 42 57 73
4 74 66 48 34
4 46 42 66 34
4 47 29 43 23
4 70 77 42 34
4 60 57 64 73
4 79 67 31 75
4 47 31 29 75
4 50 53 67 75
4 46 29 53 75
4 10 78 6 80
4 36 6 1 80
4 15 1 12 80
4 36 4 6 26
4 14 12 78 80
4 2 17 9 26
4 36 18 4 55
4 15 28 1 11
4 62 4 20 55
4 10 6 17 26
4 27 18 44 11
4 62 9 4 26
4 27 69 18 55
4 36 1 18 11
4 41 20 69 55
4 79 44 28 11
4 16 24 54 7
4 19 54 39 7
4 50 39 64 7
4 8 25 61 3
4 60 64 24 7
4 79 28 67 13
4 19 51 61 49
4 8 61 0 49
4 15 51 28 13
4 19 39 51 13
4 50 67 39 13
4 19 61 54 3
4 14 0 12 49
4 5 35 25 3
4 15 12 51 49
4 16 54 35 3
CELL_TYPES 64
8
8
8
8
8
8
8
8
8
8
8
8
8
8
8
8
8
8
8
8
8
8
8
8
8
8
8
8
8
8
8
8
8
8
8
8
8
8
8
8
8
8
8
8
8
8
8
8
8
8
8
8
8
8
8
8
8
8
8
8
8
8
8
8
CELL_DATA 64
VECTORS vector_value float
-0.192757 -1.83769 0
0.593142 -1.83381 0
0.0619703 -1.23426 0
-0.0576557 -0.127899 0
-0.00889613 -1.69309 0
-0.198733 -1.16281 0
0.021752 -0.201627 0
0.15899 -2.18609 0
-0.0101074 -1.01027 0
0.416688 -2.17992 0
-0.00936365 -0.0340077 0
0.0131674 -0.0291959 0
-0.00321415 -0.165083 0
0.245645 -0.451762 0
-0.124627 -0.845987 0
-0.323557 -0.312173 0
0.487958 -1.13538 0
0.193838 -0.879035 0
0.140246 -0.165352 0
0.198142 -0.58466 0
0.104447 -0.247025 0
0.0505183 -0.0765135 0
-0.047342 -0.764889 0
-0.352357 -1.25211 0
0.108936 -1.15303 0
1.01738 -1.18537 0
-0.248215 -1.60352 0
0.775806 -0.605784 0
-0.376709 -0.541766 0
0.383093 -1.37676 0
-0.0252382 -0.102392 0
0.1691 -0.595889 0
-0.200767 -2.8055 0
-0.26041 -0.724951 0
0.241742 -0.921954 0
-0.455944 -0.861599 0
0.291687 -2.70472 0
-0.0275503 -2.13706 0
-0.338537 -0.294391 0
-0.0344547 -0.043276 0
-0.211472 -0.625425 0
-0.125789 -2.2892 0
-0.188951 -0.309748 0
-0.103234 -0.539522 0
0.143435 -0.443241 0
-0.120066 -0.0449854 0
0.260724 -1.4424 0
-0.356044 -0.506356 0
0.345545 -0.679455 0
0.498736 -1.29753 0
0.65547 -1.39077 0
0.0337732 -1.95257 0
0.563995 -1.3613 0
-0.294491 -0.615023 0
0.286145 -0.928897 0
0.0485833 -1.85172 0
-0.110816 -0.69728 0
0.42511 -1.49088 0
-0.217482 -1.01581 0
0.131942 -0.630457 0
0.138508 -2.09083 0
0.40549 -1.58793 0
0.399649 -1.32762 0
0.64972 -0.812463 0
