# vtk DataFile Version 2.0
Unstructured Grid by M++
ASCII
DATASET UNSTRUCTURED_GRID
POINTS 289 float
  0.562500   1.000000 0
  0.562500   0.625000 0
  0.625000   1.000000 0
  0.562500   0.937500 0
  0.562500   0.562500 0
  0.625000   0.937500 0
  0.562500   0.875000 0
  0.625000   0.750000 0
  0.625000   0.625000 0
  0.562500   0.812500 0
  0.562500   0.750000 0
  0.562500   0.687500 0
  0.625000   0.875000 0
  0.625000   0.812500 0
  0.625000   0.687500 0
  0.687500   0.125000 0
  0.875000   0.062500 0
  0.625000   0.125000 0
  0.625000   0.187500 0
  0.625000   0.250000 0
  0.812500   0.187500 0
  1.000000   0.125000 0
  0.687500   0.187500 0
  0.750000   0.125000 0
  0.937500   0.062500 0
  0.937500   0.125000 0
  0.750000   0.187500 0
  0.812500   0.062500 0
  0.812500   0.125000 0
  0.875000   0.687500 0
  0.187500   0.250000 0
  0.437500   0.250000 0
  0.375000   0.187500 0
  0.812500   0.625000 0
  0.125000   0.187500 0
  0.937500   0.750000 0
  0.250000   0.312500 0
  0.500000   0.312500 0
  0.625000   0.062500 0
  0.437500   0.500000 0
  0.375000   0.125000 0
  0.437500   0.187500 0
  0.437500   0.437500 0
  0.437500   0.375000 0
  0.875000   0.875000 0
  0.187500   0.375000 0
  0.687500   0.562500 0
  0.687500   0.625000 0
  0.000000   0.125000 0
  0.937500   0.625000 0
  0.250000   0.125000 0
  0.375000   0.062500 0
  0.375000   0.000000 0
  0.812500   0.500000 0
  0.125000   0.000000 0
  0.937500   0.937500 0
  0.250000   0.437500 0
  0.687500   0.875000 0
  0.687500   0.937500 0
  0.000000   0.437500 0
  0.500000   0.500000 0
  0.500000   0.437500 0
  0.750000   0.937500 0
  0.750000   1.000000 0
  0.062500   0.500000 0
  1.000000   1.000000 0
  0.312500   0.500000 0
  0.875000   0.562500 0
  0.187500   0.062500 0
  0.437500   0.125000 0
  0.437500   0.062500 0
  0.500000   0.375000 0
  0.937500   0.812500 0
  0.937500   0.875000 0
  0.250000   0.375000 0
  0.687500   0.812500 0
  0.000000   0.375000 0
  0.750000   0.562500 0
  0.062500   0.125000 0
  1.000000   0.562500 0
  1.000000   0.625000 0
  0.312500   0.125000 0
  0.562500   0.125000 0
  0.437500   0.000000 0
  0.875000   0.437500 0
  0.875000   0.500000 0
  0.187500   0.000000 0
  0.937500   0.562500 0
  0.937500   0.500000 0
  0.250000   0.062500 0
  0.687500   0.500000 0
  0.000000   0.062500 0
  0.500000   0.062500 0
  1.000000   0.875000 0
  1.000000   0.937500 0
  0.312500   0.437500 0
  0.750000   0.875000 0
  0.062500   0.437500 0
  0.812500   0.937500 0
  0.125000   0.500000 0
  0.375000   0.500000 0
  0.625000   0.562500 0
  0.625000   0.500000 0
  0.437500   0.312500 0
  0.875000   0.812500 0
  0.875000   0.750000 0
  0.187500   0.312500 0
  0.812500   0.687500 0
  0.812500   0.750000 0
  0.125000   0.250000 0
  0.375000   0.250000 0
  1.000000   0.687500 0
  0.312500   0.187500 0
  0.750000   0.687500 0
  0.750000   0.625000 0
  0.062500   0.187500 0
  0.562500   0.250000 0
  0.562500   0.187500 0
  0.375000   1.000000 0
  0.500000   0.562500 0
  0.500000   0.250000 0
  0.750000   0.250000 0
  0.500000   0.125000 0
  0.500000   0.187500 0
  1.000000   0.187500 0
  0.625000   0.375000 0
  0.875000   0.375000 0
  1.000000   0.437500 0
  0.312500   0.000000 0
  0.562500   0.000000 0
  0.812500   0.000000 0
  0.250000   0.687500 0
  0.000000   0.687500 0
  0.500000   1.000000 0
  0.250000   1.000000 0
  0.000000   1.000000 0
  0.437500   0.687500 0
  0.437500   0.625000 0
  0.187500   0.625000 0
  0.687500   0.750000 0
  0.000000   0.312500 0
  0.000000   0.250000 0
  0.375000   0.375000 0
  0.375000   0.312500 0
  0.812500   0.812500 0
  0.125000   0.312500 0
  0.875000   0.625000 0
  0.187500   0.187500 0
  0.187500   0.125000 0
  0.937500   1.000000 0
  0.250000   0.562500 0
  0.250000   0.500000 0
  0.687500   1.000000 0
  0.000000   0.500000 0
  0.687500   0.687500 0
  0.000000   0.187500 0
  0.937500   0.687500 0
  0.250000   0.250000 0
  0.250000   0.187500 0
  0.187500   0.687500 0
  0.000000   0.750000 0
  0.250000   0.750000 0
  0.125000   0.625000 0
  0.750000   0.750000 0
  0.062500   0.250000 0
  0.875000   0.937500 0
  0.187500   0.500000 0
  0.187500   0.437500 0
  0.812500   0.562500 0
  0.125000   0.125000 0
  0.125000   0.062500 0
  0.375000   0.625000 0
  0.375000   0.687500 0
  1.000000   0.750000 0
  0.312500   0.250000 0
  0.312500   0.312500 0
  0.812500   0.312500 0
  0.562500   0.312500 0
  0.375000   0.750000 0
  0.500000   0.625000 0
  0.250000   0.625000 0
  0.312500   0.687500 0
  0.750000   0.812500 0
  0.062500   0.312500 0
  0.062500   0.375000 0
  1.000000   0.812500 0
  0.312500   0.375000 0
  0.562500   0.375000 0
  0.687500   0.437500 0
  0.000000   0.000000 0
  0.500000   0.000000 0
  0.937500   0.437500 0
  0.250000   0.000000 0
  0.375000   0.437500 0
  0.812500   0.875000 0
  0.125000   0.375000 0
  0.125000   0.437500 0
  0.625000   0.437500 0
  1.000000   0.500000 0
  0.312500   0.062500 0
  0.750000   0.500000 0
  0.062500   0.000000 0
  0.062500   0.062500 0
  0.562500   0.062500 0
  0.062500   0.750000 0
  0.312500   0.750000 0
  0.312500   0.625000 0
  0.312500   0.562500 0
  0.062500   0.562500 0
  0.187500   1.000000 0
  0.437500   0.562500 0
  0.875000   1.000000 0
  0.187500   0.562500 0
  0.500000   0.937500 0
  0.250000   0.937500 0
  0.312500   1.000000 0
  0.125000   0.750000 0
  0.125000   0.687500 0
  1.000000   0.000000 0
  0.000000   0.937500 0
  0.000000   0.875000 0
  0.875000   0.125000 0
  0.875000   0.187500 0
  0.062500   0.812500 0
  0.312500   0.812500 0
  0.000000   0.812500 0
  0.000000   0.625000 0
  0.000000   0.562500 0
  0.062500   1.000000 0
  0.062500   0.937500 0
  0.937500   0.187500 0
  0.937500   0.250000 0
  0.062500   0.687500 0
  0.062500   0.625000 0
  0.125000   1.000000 0
  1.000000   0.250000 0
  1.000000   0.312500 0
  0.062500   0.875000 0
  0.125000   0.812500 0
  0.375000   0.812500 0
  0.125000   0.875000 0
  0.375000   0.937500 0
  0.375000   0.875000 0
  0.187500   0.750000 0
  0.187500   0.812500 0
  0.437500   0.812500 0
  0.187500   0.875000 0
  0.437500   0.875000 0
  0.375000   0.562500 0
  0.812500   1.000000 0
  0.125000   0.562500 0
  0.437500   1.000000 0
  0.437500   0.937500 0
  0.187500   0.937500 0
  0.125000   0.937500 0
  0.500000   0.687500 0
  0.500000   0.750000 0
  0.500000   0.812500 0
  0.250000   0.812500 0
  0.250000   0.875000 0
  0.500000   0.875000 0
  0.437500   0.750000 0
  0.312500   0.875000 0
  0.312500   0.937500 0
  0.687500   0.250000 0
  0.687500   0.312500 0
  0.937500   0.312500 0
  0.875000   0.250000 0
  0.625000   0.000000 0
  0.875000   0.000000 0
  0.687500   0.375000 0
  0.937500   0.375000 0
  0.875000   0.312500 0
  0.625000   0.312500 0
  0.687500   0.000000 0
  0.937500   0.000000 0
  0.750000   0.312500 0
  0.750000   0.375000 0
  1.000000   0.375000 0
  0.812500   0.250000 0
  0.562500   0.437500 0
  0.562500   0.500000 0
  0.687500   0.062500 0
  0.750000   0.437500 0
  0.750000   0.000000 0
  0.750000   0.062500 0
  1.000000   0.062500 0
  0.812500   0.375000 0
  0.812500   0.437500 0
CELLS 256 1280
4 169 170 148 68
4 151 166 56 167
4 195 45 196 167
4 54 170 201 202
4 109 34 30 147
4 40 32 81 112
4 192 89 86 68
4 48 91 78 202
4 99 64 196 97
4 71 43 37 103
4 74 186 56 95
4 109 164 34 115
4 50 81 158 112
4 122 69 92 70
4 195 145 45 106
4 110 143 174 175
4 157 30 158 147
4 40 69 32 41
4 50 158 148 147
4 141 155 164 115
4 122 123 69 41
4 142 186 143 175
4 60 39 61 42
4 40 51 69 70
4 120 31 123 41
4 157 174 36 175
4 50 148 89 68
4 48 78 155 115
4 52 83 51 70
4 151 56 66 95
4 71 61 43 42
4 169 148 34 147
4 100 193 39 42
4 40 81 51 199
4 110 174 32 112
4 109 30 145 106
4 100 66 193 95
4 169 34 78 115
4 190 92 83 70
4 50 89 81 199
4 54 86 170 68
4 74 56 45 167
4 142 143 43 103
4 153 59 64 97
4 99 196 166 167
4 169 78 170 202
4 142 193 186 95
4 192 128 89 199
4 74 45 36 106
4 110 31 143 103
4 76 184 59 97
4 142 43 193 42
4 52 51 128 199
4 189 201 91 202
4 120 37 31 103
4 74 36 186 175
4 195 196 184 97
4 141 164 140 183
4 157 158 174 112
4 109 145 164 183
4 195 184 145 183
4 110 32 31 41
4 157 36 30 106
4 76 140 184 183
4 171 172 206 181
4 178 172 261 136
4 256 261 255 136
4 256 257 261 245
4 180 150 206 207
4 60 119 39 210
4 118 215 241 263
4 178 205 172 181
4 216 243 238 244
4 162 217 233 232
4 180 206 131 181
4 179 137 119 210
4 216 204 217 232
4 220 237 219 229
4 216 217 243 159
4 259 258 262 224
4 240 254 237 229
4 153 64 227 208
4 161 205 258 224
4 240 237 238 223
4 226 227 233 208
4 234 228 254 229
4 171 248 137 210
4 160 132 204 232
4 180 131 138 159
4 133 251 213 252
4 171 206 248 207
4 162 138 217 159
4 161 258 243 244
4 220 225 237 223
4 151 150 166 212
4 260 247 257 245
4 259 262 214 263
4 151 66 150 207
4 234 254 209 253
4 162 233 250 208
4 242 241 262 263
4 171 137 172 136
4 161 243 131 159
4 160 204 225 223
4 161 131 205 181
4 179 255 137 136
4 216 238 204 223
4 100 39 248 210
4 260 213 247 252
4 226 233 132 232
4 134 214 215 263
4 180 138 150 212
4 178 261 239 245
4 259 246 258 244
4 178 239 205 224
4 240 238 246 244
4 242 262 239 224
4 99 250 64 208
4 240 246 254 253
4 242 239 247 245
4 135 219 228 229
4 99 166 250 212
4 259 214 246 253
4 118 241 251 252
4 100 248 66 207
4 134 209 214 253
4 162 250 138 212
4 242 247 241 252
4 71 187 61 280
4 102 281 197 280
4 122 92 82 203
4 17 18 82 117
4 122 82 123 117
4 19 264 273 265
4 267 279 222 20
4 125 273 270 265
4 267 272 279 176
4 19 116 18 117
4 21 25 286 24
4 23 28 26 20
4 23 285 28 27
4 218 286 275 24
4 85 53 84 288
4 235 236 231 266
4 221 222 28 20
4 267 222 231 230
4 268 38 129 203
4 125 270 197 188
4 126 287 272 176
4 277 270 276 265
4 267 231 272 266
4 125 197 187 280
4 190 129 92 203
4 277 276 287 176
4 19 18 264 22
4 17 82 38 203
4 102 197 90 188
4 126 84 287 288
4 284 130 285 27
4 121 276 264 265
4 71 37 187 177
4 120 123 116 117
4 198 88 127 191
4 221 16 25 24
4 23 26 15 22
4 121 279 276 176
4 235 231 124 230
4 125 187 273 177
4 278 271 236 266
4 277 287 283 288
4 284 285 274 282
4 278 127 271 191
4 269 275 16 24
4 200 283 53 288
4 23 15 285 282
4 121 26 279 20
4 21 124 25 230
4 19 273 116 177
4 200 90 283 188
4 126 271 84 191
4 269 16 130 27
4 17 38 15 282
4 221 25 222 230
4 121 264 26 22
4 120 116 37 177
4 60 61 281 280
4 277 283 270 188
4 126 272 271 266
4 268 274 38 282
4 85 84 88 191
4 17 15 18 22
4 221 28 16 27
4 93 94 73 55
4 85 88 67 87
4 80 49 79 87
4 44 104 73 72
4 146 33 67 168
4 211 165 149 55
4 8 47 14 154
4 105 104 108 144
4 105 108 29 107
4 7 139 13 75
4 44 165 194 98
4 200 53 77 168
4 8 1 101 4
4 2 5 152 58
4 260 6 213 3
4 105 35 104 72
4 96 57 182 75
4 7 14 139 154
4 146 29 33 107
4 7 13 10 9
4 12 13 57 75
4 85 67 53 168
4 44 73 165 55
4 63 152 62 58
4 8 101 47 46
4 96 182 194 144
4 60 281 119 4
4 12 5 6 3
4 173 185 35 72
4 65 149 94 55
4 146 67 49 87
4 114 113 47 154
4 163 108 182 144
4 12 6 13 9
4 173 35 111 156
4 163 182 139 75
4 260 257 6 9
4 105 29 35 156
4 163 139 113 154
4 256 10 257 9
4 146 49 29 156
4 163 113 108 107
4 80 111 49 156
4 102 101 281 4
4 12 57 5 58
4 44 194 104 144
4 96 194 62 98
4 2 0 5 3
4 93 73 185 72
4 179 119 1 4
4 200 77 90 46
4 114 33 113 107
4 7 10 14 11
4 96 62 57 58
4 133 213 0 3
4 102 90 101 46
4 256 255 10 11
4 63 62 249 98
4 114 47 77 46
4 179 1 255 11
4 211 249 165 98
4 114 77 33 168
4 198 79 88 87
4 8 14 1 11
CELL_TYPES 256
8
8
8
8
8
8
8
8
8
8
8
8
8
8
8
8
8
8
8
8
8
8
8
8
8
8
8
8
8
8
8
8
8
8
8
8
8
8
8
8
8
8
8
8
8
8
8
8
8
8
8
8
8
8
8
8
8
8
8
8
8
8
8
8
8
8
8
8
8
8
8
8
8
8
8
8
8
8
8
8
8
8
8
8
8
8
8
8
8
8
8
8
8
8
8
8
8
8
8
8
8
8
8
8
8
8
8
8
8
8
8
8
8
8
8
8
8
8
8
8
8
8
8
8
8
8
8
8
8
8
8
8
8
8
8
8
8
8
8
8
8
8
8
8
8
8
8
8
8
8
8
8
8
8
8
8
8
8
8
8
8
8
8
8
8
8
8
8
8
8
8
8
8
8
8
8
8
8
8
8
8
8
8
8
8
8
8
8
8
8
8
8
8
8
8
8
8
8
8
8
8
8
8
8
8
8
8
8
8
8
8
8
8
8
8
8
8
8
8
8
8
8
8
8
8
8
8
8
8
8
8
8
8
8
8
8
8
8
8
8
8
8
8
8
8
8
8
8
8
8
8
8
8
8
8
8
CELL_DATA 256
VECTORS vector_value float
0.0180057 -0.0343317 0
0.480416 -0.383663 0
0.723842 -0.690485 0
6.20496e-05 -0.00415612 0
0.0267615 -0.0590926 0
0.522857 -0.306006 0
0.00384482 -0.0315237 0
0.000548944 -0.00272359 0
0.558334 -0.524173 0
0.343578 -0.49992 0
0.468949 -0.354371 0
0.0136775 -0.033359 0
0.411459 -0.483443 0
0.287573 -0.482482 0
0.333039 -0.349465 0
0.229124 -0.171674 0
0.21206 -0.383507 0
0.333578 -0.170815 0
0.13575 -0.16001 0
0.0035137 -0.0122676 0
0.349103 -0.594937 0
0.845416 -0.289798 0
0.0145873 -0.111963 0
0.253528 -0.300737 0
0.514108 -0.87151 0
0.263917 -0.404178 0
0.0486296 -0.0533736 0
0.00218413 -0.00558351 0
0.023726 -0.361145 0
0.261195 -0.265406 0
0.0453536 -0.162779 0
0.0295663 -0.0476515 0
0.0403016 -0.142937 0
0.279849 -0.322087 0
0.176122 -0.139565 0
0.117937 -0.189753 0
0.170613 -0.28068 0
0.0128364 -0.0149461 0
0.0294474 -0.252812 0
0.152306 -0.23286 0
0.00112272 -0.0198165 0
0.650877 -0.749942 0
0.858049 -0.621092 0
0.261305 -0.772296 0
0.782179 -0.831544 0
0.00311597 -0.00513446 0
0.361006 -0.282286 0
0.0122789 -0.152699 0
0.695559 -0.962885 0
0.474027 -0.356212 0
0.157091 -0.267638 0
0.245515 -0.393762 0
0.0240647 -0.281864 0
-1.07616e-05 -0.00256954 0
0.706333 -0.995398 0
0.678452 -0.285302 0
0.508968 -0.407044 0
0.00606483 -0.0230513 0
0.352793 -0.675617 0
0.0213143 -0.0470292 0
0.128236 -0.167319 0
0.246119 -0.146294 0
0.252804 -0.684098 0
0.0205524 -0.052437 0
0.0191999 -0.151996 0
0.0792357 -0.22715 0
0.131392 -0.319929 0
0.378737 -0.543667 0
-0.0211182 -0.0961117 0
0.0167892 -0.105208 0
1.72227 -0.661136 0
0.130372 -0.126069 0
0.26735 -0.30499 0
-0.0156032 -0.61892 0
0.0526327 -0.113313 0
0.0181354 -0.0824016 0
0.0343613 -0.736329 0
-0.192365 -2.21285 0
0.082611 -0.282807 0
0.188292 -0.0942951 0
-0.22525 -0.476748 0
0.121437 -0.960412 0
0.217547 -0.0852201 0
0.192884 -0.540644 0
0.225724 -1.25253 0
-0.758803 -0.752702 0
-0.0318173 -0.23511 0
0.000580353 -1.55824 0
0.0579452 -0.189783 0
1.53357 -1.5217 0
-0.0686084 -0.236077 0
0.0350721 -0.214346 0
0.251929 -0.172376 0
0.143241 -2.16908 0
0.0803914 -0.186314 0
0.98356 -1.02052 0
0.200407 -0.101315 0
0.00957355 -0.16465 0
-0.299274 -0.631068 0
0.288157 -0.967562 0
0.380461 -0.211227 0
-0.0277528 -0.333682 0
0.116086 -0.18428 0
0.190699 -1.8412 0
0.13162 -0.107169 0
0.0241714 -0.0941365 0
0.322582 -0.639407 0
0.0118776 -0.131073 0
1.14829 -1.54365 0
-0.00770456 -1.64703 0
0.987327 -0.44455 0
-0.0321712 -0.173546 0
0.214118 -0.184601 0
0.143129 -0.164956 0
0.226424 -0.123179 0
0.126896 -0.286897 0
0.14933 -0.0923074 0
0.410489 -0.984903 0
-0.0799828 -0.358239 0
0.38954 -0.334585 0
-0.434147 -1.61178 0
0.302853 -0.546791 0
0.116923 -0.304224 0
2.02031 -1.05762 0
-0.0161903 -0.249289 0
0.244164 -0.747172 0
0.0155753 -0.290818 0
0.700398 -0.721076 0
-0.0123607 -0.0729261 0
-0.00980721 -0.0515884 0
0.420966 -1.00523 0
0.334078 -2.03094 0
0.742592 -1.53454 0
-0.312952 -0.211574 0
-1.41789 -3.4763 0
-0.289928 -0.258802 0
-0.703219 -4.7392 0
-0.311027 -0.635548 0
-0.00466745 -0.015903 0
-2.13905 -3.15285 0
-2.88754 -2.17484 0
-0.000301895 -0.0121477 0
0.941089 -2.98615 0
-0.0602943 -0.437196 0
-1.78656 -2.88343 0
-0.738099 -1.71074 0
0.0610805 -3.12124 0
-0.115153 -0.287447 0
0.745299 -4.16389 0
-0.374011 -1.24775 0
-0.302323 -2.14697 0
-0.0699149 -0.0964317 0
0.136 -0.909904 0
0.0288856 -3.92052 0
-1.09359 -0.870642 0
0.381221 -2.60747 0
0.0245339 -0.364152 0
1.89441 -4.7833 0
-0.220891 -1.11019 0
-0.834367 -1.89152 0
-0.0305744 -0.294784 0
0.444237 -1.63825 0
-0.0058668 -0.0740964 0
-0.086105 -0.117062 0
-1.72554 -2.36155 0
-0.614425 -2.49607 0
-0.0891885 -0.180538 0
-0.239068 -0.194569 0
0.0805163 -0.302814 0
0.915522 -5.12289 0
-0.512642 -2.4267 0
0.0710329 -0.172901 0
-0.00363593 -0.0343193 0
1.17088 -7.38359 0
-4.20291 -3.47683 0
-2.07403 -3.46869 0
-0.0303004 -0.0546318 0
-0.329511 -0.282917 0
0.174397 -1.47863 0
0.594609 -0.886042 0
-0.0375774 -0.226166 0
-1.56174 -4.17982 0
-0.42849 -0.586258 0
-1.36836 -1.69808 0
0.0957014 -0.92315 0
0.00194247 -0.0425747 0
-0.0376148 -1.26975 0
0.718935 -2.38866 0
-0.79388 -7.05275 0
0.0671859 -0.306564 0
-1.0332 -1.61242 0
-0.876869 -0.989113 0
-0.0129939 -0.668502 0
-0.0533837 -0.217804 0
-0.0402925 -0.171142 0
0.0318122 -1.24423 0
-0.519829 -1.73011 0
-0.285526 -1.08285 0
0.802408 -1.06799 0
0.0665517 -1.10647 0
-0.0502201 -1.09523 0
2.20224 -2.51454 0
-0.0340528 -0.899598 0
0.708349 -8.19623 0
0.0663859 -0.113277 0
-0.12139 -0.687814 0
1.16891 -2.38356 0
-0.0487807 -0.994772 0
0.803493 -1.90217 0
1.36007 -1.7464 0
-0.396932 -1.4663 0
1.41257 -1.15708 0
2.17902 -2.02272 0
0.0484707 -1.89381 0
-0.0202689 -1.04114 0
-0.163942 -1.26748 0
0.256552 -0.63802 0
0.164491 -0.928312 0
0.00644308 -0.0232784 0
0.635147 -1.83602 0
-0.0554571 -0.709564 0
-0.161548 -0.732236 0
-0.245082 -0.4601 0
1.70723 -5.32683 0
0.587532 -1.44509 0
2.74306 -1.83994 0
-0.110022 -0.430156 0
1.69625 -3.16187 0
1.92668 -1.98982 0
-0.205762 -1.36256 0
1.17928 -4.31568 0
0.889985 -1.01597 0
-0.466385 -1.15547 0
0.402927 -2.34938 0
-0.0628703 -0.279316 0
0.0278517 -0.0842785 0
0.112745 -0.981829 0
0.0704006 -0.75776 0
-0.110337 -0.938553 0
0.023308 -1.43584 0
0.00326923 -0.611758 0
0.0307923 -0.0579106 0
0.468535 -1.7261 0
0.427467 -2.83397 0
0.84757 -0.77751 0
-0.109431 -1.32147 0
0.626358 -1.38077 0
0.087854 -0.425985 0
0.404545 -0.381106 0
-0.332582 -1.03347 0
1.31037 -3.17403 0
0.108913 -0.139557 0
-0.289788 -0.951802 0
1.26372 -6.32126 0
-0.0149921 -0.103877 0
0.360127 -0.367354 0
