# vtk DataFile Version 2.0
Unstructured Grid by M++
ASCII
DATASET UNSTRUCTURED_GRID
POINTS 289 float
  0.562500   1.000000 0
  0.562500   0.625000 0
  0.625000   1.000000 0
  0.562500   0.937500 0
  0.562500   0.562500 0
  0.625000   0.937500 0
  0.562500   0.875000 0
  0.625000   0.750000 0
  0.625000   0.625000 0
  0.562500   0.812500 0
  0.562500   0.750000 0
  0.562500   0.687500 0
  0.625000   0.875000 0
  0.625000   0.812500 0
  0.625000   0.687500 0
  0.687500   0.125000 0
  0.875000   0.062500 0
  0.625000   0.125000 0
  0.625000   0.187500 0
  0.625000   0.250000 0
  0.812500   0.187500 0
  1.000000   0.125000 0
  0.687500   0.187500 0
  0.750000   0.125000 0
  0.937500   0.062500 0
  0.937500   0.125000 0
  0.750000   0.187500 0
  0.812500   0.062500 0
  0.812500   0.125000 0
  0.875000   0.687500 0
  0.187500   0.250000 0
  0.437500   0.250000 0
  0.375000   0.187500 0
  0.812500   0.625000 0
  0.125000   0.187500 0
  0.937500   0.750000 0
  0.250000   0.312500 0
  0.500000   0.312500 0
  0.625000   0.062500 0
  0.437500   0.500000 0
  0.375000   0.125000 0
  0.437500   0.187500 0
  0.437500   0.437500 0
  0.437500   0.375000 0
  0.875000   0.875000 0
  0.187500   0.375000 0
  0.687500   0.562500 0
  0.687500   0.625000 0
  0.000000   0.125000 0
  0.937500   0.625000 0
  0.250000   0.125000 0
  0.375000   0.062500 0
  0.375000   0.000000 0
  0.812500   0.500000 0
  0.125000   0.000000 0
  0.937500   0.937500 0
  0.250000   0.437500 0
  0.687500   0.875000 0
  0.687500   0.937500 0
  0.000000   0.437500 0
  0.500000   0.500000 0
  0.500000   0.437500 0
  0.750000   0.937500 0
  0.750000   1.000000 0
  0.062500   0.500000 0
  1.000000   1.000000 0
  0.312500   0.500000 0
  0.875000   0.562500 0
  0.187500   0.062500 0
  0.437500   0.125000 0
  0.437500   0.062500 0
  0.500000   0.375000 0
  0.937500   0.812500 0
  0.937500   0.875000 0
  0.250000   0.375000 0
  0.687500   0.812500 0
  0.000000   0.375000 0
  0.750000   0.562500 0
  0.062500   0.125000 0
  1.000000   0.562500 0
  1.000000   0.625000 0
  0.312500   0.125000 0
  0.562500   0.125000 0
  0.437500   0.000000 0
  0.875000   0.437500 0
  0.875000   0.500000 0
  0.187500   0.000000 0
  0.937500   0.562500 0
  0.937500   0.500000 0
  0.250000   0.062500 0
  0.687500   0.500000 0
  0.000000   0.062500 0
  0.500000   0.062500 0
  1.000000   0.875000 0
  1.000000   0.937500 0
  0.312500   0.437500 0
  0.750000   0.875000 0
  0.062500   0.437500 0
  0.812500   0.937500 0
  0.125000   0.500000 0
  0.375000   0.500000 0
  0.625000   0.562500 0
  0.625000   0.500000 0
  0.437500   0.312500 0
  0.875000   0.812500 0
  0.875000   0.750000 0
  0.187500   0.312500 0
  0.812500   0.687500 0
  0.812500   0.750000 0
  0.125000   0.250000 0
  0.375000   0.250000 0
  1.000000   0.687500 0
  0.312500   0.187500 0
  0.750000   0.687500 0
  0.750000   0.625000 0
  0.062500   0.187500 0
  0.562500   0.250000 0
  0.562500   0.187500 0
  0.375000   1.000000 0
  0.500000   0.562500 0
  0.500000   0.250000 0
  0.750000   0.250000 0
  0.500000   0.125000 0
  0.500000   0.187500 0
  1.000000   0.187500 0
  0.625000   0.375000 0
  0.875000   0.375000 0
  1.000000   0.437500 0
  0.312500   0.000000 0
  0.562500   0.000000 0
  0.812500   0.000000 0
  0.250000   0.687500 0
  0.000000   0.687500 0
  0.500000   1.000000 0
  0.250000   1.000000 0
  0.000000   1.000000 0
  0.437500   0.687500 0
  0.437500   0.625000 0
  0.187500   0.625000 0
  0.687500   0.750000 0
  0.000000   0.312500 0
  0.000000   0.250000 0
  0.375000   0.375000 0
  0.375000   0.312500 0
  0.812500   0.812500 0
  0.125000   0.312500 0
  0.875000   0.625000 0
  0.187500   0.187500 0
  0.187500   0.125000 0
  0.937500   1.000000 0
  0.250000   0.562500 0
  0.250000   0.500000 0
  0.687500   1.000000 0
  0.000000   0.500000 0
  0.687500   0.687500 0
  0.000000   0.187500 0
  0.937500   0.687500 0
  0.250000   0.250000 0
  0.250000   0.187500 0
  0.187500   0.687500 0
  0.000000   0.750000 0
  0.250000   0.750000 0
  0.125000   0.625000 0
  0.750000   0.750000 0
  0.062500   0.250000 0
  0.875000   0.937500 0
  0.187500   0.500000 0
  0.187500   0.437500 0
  0.812500   0.562500 0
  0.125000   0.125000 0
  0.125000   0.062500 0
  0.375000   0.625000 0
  0.375000   0.687500 0
  1.000000   0.750000 0
  0.312500   0.250000 0
  0.312500   0.312500 0
  0.812500   0.312500 0
  0.562500   0.312500 0
  0.375000   0.750000 0
  0.500000   0.625000 0
  0.250000   0.625000 0
  0.312500   0.687500 0
  0.750000   0.812500 0
  0.062500   0.312500 0
  0.062500   0.375000 0
  1.000000   0.812500 0
  0.312500   0.375000 0
  0.562500   0.375000 0
  0.687500   0.437500 0
  0.000000   0.000000 0
  0.500000   0.000000 0
  0.937500   0.437500 0
  0.250000   0.000000 0
  0.375000   0.437500 0
  0.812500   0.875000 0
  0.125000   0.375000 0
  0.125000   0.437500 0
  0.625000   0.437500 0
  1.000000   0.500000 0
  0.312500   0.062500 0
  0.750000   0.500000 0
  0.062500   0.000000 0
  0.062500   0.062500 0
  0.562500   0.062500 0
  0.062500   0.750000 0
  0.312500   0.750000 0
  0.312500   0.625000 0
  0.312500   0.562500 0
  0.062500   0.562500 0
  0.187500   1.000000 0
  0.437500   0.562500 0
  0.875000   1.000000 0
  0.187500   0.562500 0
  0.500000   0.937500 0
  0.250000   0.937500 0
  0.312500   1.000000 0
  0.125000   0.750000 0
  0.125000   0.687500 0
  1.000000   0.000000 0
  0.000000   0.937500 0
  0.000000   0.875000 0
  0.875000   0.125000 0
  0.875000   0.187500 0
  0.062500   0.812500 0
  0.312500   0.812500 0
  0.000000   0.812500 0
  0.000000   0.625000 0
  0.000000   0.562500 0
  0.062500   1.000000 0
  0.062500   0.937500 0
  0.937500   0.187500 0
  0.937500   0.250000 0
  0.062500   0.687500 0
  0.062500   0.625000 0
  0.125000   1.000000 0
  1.000000   0.250000 0
  1.000000   0.312500 0
  0.062500   0.875000 0
  0.125000   0.812500 0
  0.375000   0.812500 0
  0.125000   0.875000 0
  0.375000   0.937500 0
  0.375000   0.875000 0
  0.187500   0.750000 0
  0.187500   0.812500 0
  0.437500   0.812500 0
  0.187500   0.875000 0
  0.437500   0.875000 0
  0.375000   0.562500 0
  0.812500   1.000000 0
  0.125000   0.562500 0
  0.437500   1.000000 0
  0.437500   0.937500 0
  0.187500   0.937500 0
  0.125000   0.937500 0
  0.500000   0.687500 0
  0.500000   0.750000 0
  0.500000   0.812500 0
  0.250000   0.812500 0
  0.250000   0.875000 0
  0.500000   0.875000 0
  0.437500   0.750000 0
  0.312500   0.875000 0
  0.312500   0.937500 0
  0.687500   0.250000 0
  0.687500   0.312500 0
  0.937500   0.312500 0
  0.875000   0.250000 0
  0.625000   0.000000 0
  0.875000   0.000000 0
  0.687500   0.375000 0
  0.937500   0.375000 0
  0.875000   0.312500 0
  0.625000   0.312500 0
  0.687500   0.000000 0
  0.937500   0.000000 0
  0.750000   0.312500 0
  0.750000   0.375000 0
  1.000000   0.375000 0
  0.812500   0.250000 0
  0.562500   0.437500 0
  0.562500   0.500000 0
  0.687500   0.062500 0
  0.750000   0.437500 0
  0.750000   0.000000 0
  0.750000   0.062500 0
  1.000000   0.062500 0
  0.812500   0.375000 0
  0.812500   0.437500 0
CELLS 256 1280
4 169 170 148 68
4 151 166 56 167
4 195 45 196 167
4 54 170 201 202
4 109 34 30 147
4 40 32 81 112
4 192 89 86 68
4 48 91 78 202
4 99 64 196 97
4 71 43 37 103
4 74 186 56 95
4 109 164 34 115
4 50 81 158 112
4 122 69 92 70
4 195 145 45 106
4 110 143 174 175
4 157 30 158 147
4 40 69 32 41
4 50 158 148 147
4 141 155 164 115
4 122 123 69 41
4 142 186 143 175
4 60 39 61 42
4 40 51 69 70
4 120 31 123 41
4 157 174 36 175
4 50 148 89 68
4 48 78 155 115
4 52 83 51 70
4 151 56 66 95
4 71 61 43 42
4 169 148 34 147
4 100 193 39 42
4 40 81 51 199
4 110 174 32 112
4 109 30 145 106
4 100 66 193 95
4 169 34 78 115
4 190 92 83 70
4 50 89 81 199
4 54 86 170 68
4 74 56 45 167
4 142 143 43 103
4 153 59 64 97
4 99 196 166 167
4 169 78 170 202
4 142 193 186 95
4 192 128 89 199
4 74 45 36 106
4 110 31 143 103
4 76 184 59 97
4 142 43 193 42
4 52 51 128 199
4 189 201 91 202
4 120 37 31 103
4 74 36 186 175
4 195 196 184 97
4 141 164 140 183
4 157 158 174 112
4 109 145 164 183
4 195 184 145 183
4 110 32 31 41
4 157 36 30 106
4 76 140 184 183
4 171 172 206 181
4 178 172 261 136
4 256 261 255 136
4 256 257 261 245
4 180 150 206 207
4 60 119 39 210
4 118 215 241 263
4 178 205 172 181
4 216 243 238 244
4 162 217 233 232
4 180 206 131 181
4 179 137 119 210
4 216 204 217 232
4 220 237 219 229
4 216 217 243 159
4 259 258 262 224
4 240 254 237 229
4 153 64 227 208
4 161 205 258 224
4 240 237 238 223
4 226 227 233 208
4 234 228 254 229
4 171 248 137 210
4 160 132 204 232
4 180 131 138 159
4 133 251 213 252
4 171 206 248 207
4 162 138 217 159
4 161 258 243 244
4 220 225 237 223
4 151 150 166 212
4 260 247 257 245
4 259 262 214 263
4 151 66 150 207
4 234 254 209 253
4 162 233 250 208
4 242 241 262 263
4 171 137 172 136
4 161 243 131 159
4 160 204 225 223
4 161 131 205 181
4 179 255 137 136
4 216 238 204 223
4 100 39 248 210
4 260 213 247 252
4 226 233 132 232
4 134 214 215 263
4 180 138 150 212
4 178 261 239 245
4 259 246 258 244
4 178 239 205 224
4 240 238 246 244
4 242 262 239 224
4 99 250 64 208
4 240 246 254 253
4 242 239 247 245
4 135 219 228 229
4 99 166 250 212
4 259 214 246 253
4 118 241 251 252
4 100 248 66 207
4 134 209 214 253
4 162 250 138 212
4 242 247 241 252
4 71 187 61 280
4 102 281 197 280
4 122 92 82 203
4 17 18 82 117
4 122 82 123 117
4 19 264 273 265
4 267 279 222 20
4 125 273 270 265
4 267 272 279 176
4 19 116 18 117
4 21 25 286 24
4 23 28 26 20
4 23 285 28 27
4 218 286 275 24
4 85 53 84 288
4 235 236 231 266
4 221 222 28 20
4 267 222 231 230
4 268 38 129 203
4 125 270 197 188
4 126 287 272 176
4 277 270 276 265
4 267 231 272 266
4 125 197 187 280
4 190 129 92 203
4 277 276 287 176
4 19 18 264 22
4 17 82 38 203
4 102 197 90 188
4 126 84 287 288
4 284 130 285 27
4 121 276 264 265
4 71 37 187 177
4 120 123 116 117
4 198 88 127 191
4 221 16 25 24
4 23 26 15 22
4 121 279 276 176
4 235 231 124 230
4 125 187 273 177
4 278 271 236 266
4 277 287 283 288
4 284 285 274 282
4 278 127 271 191
4 269 275 16 24
4 200 283 53 288
4 23 15 285 282
4 121 26 279 20
4 21 124 25 230
4 19 273 116 177
4 200 90 283 188
4 126 271 84 191
4 269 16 130 27
4 17 38 15 282
4 221 25 222 230
4 121 264 26 22
4 120 116 37 177
4 60 61 281 280
4 277 283 270 188
4 126 272 271 266
4 268 274 38 282
4 85 84 88 191
4 17 15 18 22
4 221 28 16 27
4 93 94 73 55
4 85 88 67 87
4 80 49 79 87
4 44 104 73 72
4 146 33 67 168
4 211 165 149 55
4 8 47 14 154
4 105 104 108 144
4 105 108 29 107
4 7 139 13 75
4 44 165 194 98
4 200 53 77 168
4 8 1 101 4
4 2 5 152 58
4 260 6 213 3
4 105 35 104 72
4 96 57 182 75
4 7 14 139 154
4 146 29 33 107
4 7 13 10 9
4 12 13 57 75
4 85 67 53 168
4 44 73 165 55
4 63 152 62 58
4 8 101 47 46
4 96 182 194 144
4 60 281 119 4
4 12 5 6 3
4 173 185 35 72
4 65 149 94 55
4 146 67 49 87
4 114 113 47 154
4 163 108 182 144
4 12 6 13 9
4 173 35 111 156
4 163 182 139 75
4 260 257 6 9
4 105 29 35 156
4 163 139 113 154
4 256 10 257 9
4 146 49 29 156
4 163 113 108 107
4 80 111 49 156
4 102 101 281 4
4 12 57 5 58
4 44 194 104 144
4 96 194 62 98
4 2 0 5 3
4 93 73 185 72
4 179 119 1 4
4 200 77 90 46
4 114 33 113 107
4 7 10 14 11
4 96 62 57 58
4 133 213 0 3
4 102 90 101 46
4 256 255 10 11
4 63 62 249 98
4 114 47 77 46
4 179 1 255 11
4 211 249 165 98
4 114 77 33 168
4 198 79 88 87
4 8 14 1 11
CELL_TYPES 256
8
8
8
8
8
8
8
8
8
8
8
8
8
8
8
8
8
8
8
8
8
8
8
8
8
8
8
8
8
8
8
8
8
8
8
8
8
8
8
8
8
8
8
8
8
8
8
8
8
8
8
8
8
8
8
8
8
8
8
8
8
8
8
8
8
8
8
8
8
8
8
8
8
8
8
8
8
8
8
8
8
8
8
8
8
8
8
8
8
8
8
8
8
8
8
8
8
8
8
8
8
8
8
8
8
8
8
8
8
8
8
8
8
8
8
8
8
8
8
8
8
8
8
8
8
8
8
8
8
8
8
8
8
8
8
8
8
8
8
8
8
8
8
8
8
8
8
8
8
8
8
8
8
8
8
8
8
8
8
8
8
8
8
8
8
8
8
8
8
8
8
8
8
8
8
8
8
8
8
8
8
8
8
8
8
8
8
8
8
8
8
8
8
8
8
8
8
8
8
8
8
8
8
8
8
8
8
8
8
8
8
8
8
8
8
8
8
8
8
8
8
8
8
8
8
8
8
8
8
8
8
8
8
8
8
8
8
8
8
8
8
8
8
8
8
8
8
8
8
8
8
8
8
8
8
8
CELL_DATA 256
VECTORS vector_value float
0.0659229 -0.476205 0
-0.067216 -1.54878 0
0.476466 -1.7352 0
0.00290031 -0.0715892 0
0.369802 -0.796185 0
0.514952 -2.362 0
0.11261 -2.05251 0
0.0018492 -0.0648934 0
0.32074 -1.27014 0
-0.306864 -0.054652 0
-0.478916 -1.56769 0
0.165615 -0.413001 0
0.654642 -4.31522 0
-0.887425 -0.552844 0
0.609493 -1.60192 0
-0.135675 -0.776652 0
0.460435 -1.63157 0
-0.68578 -0.52115 0
0.187759 -1.7594 0
0.00442422 -0.0691092 0
-1.13647 -0.502468 0
-0.490717 -1.03243 0
-0.0973578 -0.227367 0
-0.899365 -0.892314 0
-0.314057 -0.187145 0
0.629492 -4.01954 0
-0.112378 -2.51718 0
0.000594746 -0.0671738 0
-0.282455 -0.871601 0
-0.409706 -1.86432 0
-0.125134 -0.0922482 0
0.225462 -0.601132 0
-0.163611 -0.327238 0
-0.157438 -4.19971 0
0.0697151 -0.980882 0
0.487091 -0.989965 0
-0.370693 -1.15389 0
0.0532586 -0.143201 0
-0.166538 -0.359524 0
0.0579759 -2.56268 0
-0.0566987 -0.582397 0
-0.146671 -2.44569 0
-0.335671 -0.130552 0
0.129423 -0.597043 0
0.111559 -1.559 0
0.0181694 -0.0639126 0
-0.34364 -1.02757 0
-0.17094 -3.63842 0
1.00584 -2.88836 0
-0.137575 -0.11185 0
0.151411 -0.319857 0
-0.28646 -0.262071 0
-0.461918 -4.10241 0
0.00445571 -0.0551453 0
-0.152095 -0.061874 0
0.155442 -2.05465 0
0.414561 -1.15648 0
0.0291031 -0.111634 0
0.604005 -5.08194 0
0.21048 -0.745743 0
0.196347 -0.878279 0
-0.136943 -0.17325 0
1.00639 -2.21547 0
0.0393882 -0.1562 0
0.0989509 -0.694414 0
-0.0890071 -0.302731 0
-0.278497 -0.45748 0
-0.101218 -0.311482 0
0.0065161 -1.28559 0
-0.118888 -0.36135 0
-0.586276 -1.09292 0
0.0899329 -0.513781 0
0.668092 -1.93358 0
-0.0513714 -0.634095 0
0.387354 -1.25849 0
-0.168672 -0.555929 0
-0.135196 -0.936878 0
0.0947889 -0.544533 0
0.202459 -1.04088 0
-0.612102 -0.882378 0
0.171971 -1.56961 0
0.229735 -1.09154 0
-0.00106156 -0.725912 0
-4.32682e-05 -1.69785 0
0.0602229 -1.34665 0
0.029212 -1.44176 0
-0.300632 -0.594284 0
-0.169814 -1.02724 0
0.0431519 -2.37522 0
-0.0169268 -0.666756 0
-0.127798 -1.19232 0
-0.143596 -0.837909 0
0.535655 -1.93039 0
0.0255183 -0.434711 0
-0.0632187 -1.53218 0
0.0277306 -0.401604 0
-0.804859 -1.22484 0
-0.123318 -1.33759 0
-0.253013 -0.986841 0
0.0165436 -0.618636 0
-0.489533 -0.796568 0
-0.180389 -0.557336 0
0.512927 -2.56142 0
-0.214306 -0.559839 0
0.343827 -1.05897 0
-0.293085 -0.6268 0
-0.166008 -1.57024 0
-0.249314 -0.470629 0
0.0539053 -0.506762 0
-0.0670197 -1.3092 0
-0.347694 -1.07097 0
-0.0903429 -1.60451 0
-0.0936894 -0.243133 0
-0.672602 -1.35911 0
-0.0611969 -0.360202 0
-0.266541 -2.16865 0
-0.268645 -0.470921 0
0.162363 -0.985219 0
-0.215366 -1.59014 0
-0.0758101 -0.215883 0
0.153395 -0.76835 0
-0.0363252 -1.30094 0
-0.667676 -1.09986 0
-0.450723 -0.891619 0
-0.308277 -1.41685 0
-0.261284 -0.954047 0
-0.172189 -1.26496 0
-0.117927 -0.403185 0
-0.0686923 -0.081837 0
-0.00246143 -0.100401 0
-0.528211 -0.399945 0
-0.86022 -1.02955 0
-1.17724 -0.846862 0
-0.638925 -0.382221 0
-0.344872 -0.906543 0
-0.334568 -0.445386 0
-0.503406 -1.55521 0
-1.42429 -0.669288 0
-0.00594581 -0.381526 0
-0.329302 -0.82074 0
-0.0659366 -0.688221 0
-0.0115457 -0.342617 0
-0.247593 -2.33635 0
-0.0198253 -0.180569 0
-0.172722 -0.494829 0
0.00896137 -0.770011 0
0.00363407 -0.42514 0
-0.16424 -0.413198 0
-0.0987674 -1.27586 0
-0.158636 -1.01679 0
-0.205426 -0.977859 0
-0.1323 -0.183404 0
-0.0859191 -0.248607 0
-0.0578928 -2.69004 0
-2.19611 -1.00724 0
-0.240988 -0.871907 0
-0.0829126 -0.316262 0
-0.0463833 -1.11452 0
-0.00165003 -0.553083 0
-1.59413 -1.64454 0
-0.295571 -0.102134 0
-0.811969 -0.642232 0
0.0168081 -0.223045 0
-0.0369458 -0.541534 0
-0.31616 -0.843333 0
-1.10772 -1.72225 0
0.0432729 -0.237551 0
-0.268208 -0.164999 0
-0.0172383 -0.256723 0
-0.278299 -2.66343 0
-0.0849953 -0.833663 0
0.0088212 -0.265526 0
-0.0428172 -0.48431 0
-0.576187 -2.32646 0
-0.186657 -0.974894 0
-0.945859 -1.21433 0
0.0468921 -0.301545 0
-0.550377 -0.31875 0
-0.347337 -0.967863 0
0.0656634 -1.40534 0
-0.0154315 -0.468563 0
-0.125666 -0.494024 0
0.0221752 -0.678513 0
-1.44519 -1.21971 0
-0.285668 -0.185876 0
-0.0197327 -0.113472 0
-0.215714 -1.26595 0
-0.136405 -1.25101 0
0.00604427 -0.910417 0
0.184228 -1.06837 0
-0.431334 -0.712878 0
-0.0203423 -0.318215 0
-0.0569697 -0.595665 0
-0.107226 -0.978397 0
-0.137249 -0.420066 0
-0.0767533 -1.0997 0
-0.174477 -1.91394 0
-0.216817 -1.13035 0
0.622337 -0.659242 0
0.128255 -2.02394 0
-0.00291945 -2.25385 0
0.0364659 -1.03999 0
0.0432846 -1.16939 0
-0.200657 -2.61081 0
0.0694789 -0.162007 0
0.331191 -1.14903 0
0.173879 -0.721251 0
-0.0177105 -1.31808 0
0.055819 -0.733993 0
0.690249 -1.02358 0
-0.0909423 -2.10912 0
-0.18776 -1.58014 0
-0.347761 -1.42435 0
-0.00427222 -2.6841 0
-0.116821 -1.22424 0
0.0857041 -1.18164 0
0.141126 -0.236274 0
0.441071 -0.853216 0
-0.00768059 -0.191961 0
0.217715 -0.991035 0
-0.0201683 -0.424572 0
-0.155432 -0.774847 0
-0.284572 -1.14502 0
0.985519 -0.884801 0
0.181991 -0.753525 0
-0.0983439 -1.20721 0
0.0298914 -0.471118 0
0.107272 -0.433565 0
0.0684719 -0.719578 0
0.0110363 -1.1884 0
0.507091 -0.751332 0
-0.157521 -0.791412 0
0.0270659 -1.1235 0
0.134946 -0.729295 0
0.0210564 -0.566289 0
0.0365907 -0.0929506 0
0.0888862 -1.17224 0
0.221126 -1.776 0
0.171033 -0.888018 0
0.361423 -0.876292 0
-0.0491123 -0.554857 0
-0.0207707 -0.252715 0
-0.135063 -0.505816 0
0.320203 -1.58044 0
0.230954 -0.877018 0
0.0543719 -1.50267 0
0.272874 -0.94959 0
0.0436708 -0.218948 0
-0.311246 -0.806029 0
-0.0848187 -1.0697 0
0.439345 -0.498913 0
-0.117225 -0.442936 0
-0.111901 -0.9953 0
0.470841 -2.90818 0
-0.0238714 -0.220728 0
0.150985 -0.340213 0
