# vtk DataFile Version 2.0
Unstructured Grid by M++
ASCII
DATASET UNSTRUCTURED_GRID
POINTS 81 float
  1.000000   0.625000 0
  0.750000   0.375000 0
  1.000000   0.000000 0
  0.875000   0.875000 0
  0.750000   0.125000 0
  1.000000   1.000000 0
  0.875000   0.250000 0
  0.625000   0.875000 0
  1.000000   0.750000 0
  0.875000   0.000000 0
  1.000000   0.250000 0
  0.625000   0.375000 0
  0.875000   0.500000 0
  0.625000   0.625000 0
  1.000000   0.500000 0
  0.750000   0.500000 0
  0.750000   1.000000 0
  1.000000   0.125000 0
  0.625000   0.250000 0
  0.750000   0.750000 0
  0.625000   0.000000 0
  0.125000   0.375000 0
  0.000000   0.500000 0
  0.125000   0.625000 0
  0.625000   1.000000 0
  1.000000   0.875000 0
  0.875000   0.125000 0
  0.500000   0.250000 0
  0.625000   0.500000 0
  0.250000   0.625000 0
  0.000000   0.625000 0
  0.375000   0.500000 0
  0.375000   0.000000 0
  0.000000   0.125000 0
  0.125000   0.875000 0
  0.875000   1.000000 0
  0.750000   0.250000 0
  0.375000   0.375000 0
  0.250000   0.375000 0
  0.625000   0.750000 0
  0.125000   0.125000 0
  0.500000   0.000000 0
  0.250000   0.875000 0
  0.125000   0.500000 0
  0.500000   0.375000 0
  0.125000   0.000000 0
  0.250000   0.750000 0
  0.250000   0.500000 0
  0.000000   0.875000 0
  0.875000   0.625000 0
  0.500000   0.750000 0
  0.750000   0.625000 0
  0.250000   0.000000 0
  0.375000   0.750000 0
  0.750000   0.875000 0
  0.625000   0.125000 0
  0.250000   0.250000 0
  0.375000   1.000000 0
  0.375000   0.250000 0
  0.000000   0.375000 0
  0.500000   1.000000 0
  0.875000   0.750000 0
  0.750000   0.000000 0
  0.375000   0.125000 0
  0.500000   0.875000 0
  0.000000   0.000000 0
  0.125000   0.750000 0
  0.500000   0.625000 0
  0.125000   0.250000 0
  0.500000   0.125000 0
  0.250000   1.000000 0
  0.250000   0.125000 0
  0.000000   1.000000 0
  0.375000   0.875000 0
  0.000000   0.750000 0
  0.375000   0.625000 0
  0.000000   0.250000 0
  0.125000   1.000000 0
  1.000000   0.375000 0
  0.500000   0.500000 0
  0.875000   0.375000 0
CELLS 64 320
4 56 71 58 63
4 27 58 69 63
4 41 69 32 63
4 76 33 68 40
4 27 44 58 37
4 79 31 44 37
4 56 38 68 21
4 56 58 38 37
4 52 32 71 63
4 47 38 31 37
4 76 68 59 21
4 22 59 43 21
4 65 45 33 40
4 47 43 38 21
4 52 71 45 40
4 56 68 71 40
4 74 30 66 23
4 46 66 29 23
4 22 43 30 23
4 72 48 77 34
4 46 53 42 73
4 50 64 53 73
4 70 42 57 73
4 74 66 48 34
4 46 42 66 34
4 47 29 43 23
4 70 77 42 34
4 60 57 64 73
4 79 67 31 75
4 47 31 29 75
4 50 53 67 75
4 46 29 53 75
4 10 78 6 80
4 36 6 1 80
4 15 1 12 80
4 36 4 6 26
4 14 12 78 80
4 2 17 9 26
4 36 18 4 55
4 15 28 1 11
4 62 4 20 55
4 10 6 17 26
4 27 18 44 11
4 62 9 4 26
4 27 69 18 55
4 36 1 18 11
4 41 20 69 55
4 79 44 28 11
4 16 24 54 7
4 19 54 39 7
4 50 39 64 7
4 8 25 61 3
4 60 64 24 7
4 79 28 67 13
4 19 51 61 49
4 8 61 0 49
4 15 51 28 13
4 19 39 51 13
4 50 67 39 13
4 19 61 54 3
4 14 0 12 49
4 5 35 25 3
4 15 12 51 49
4 16 54 35 3
CELL_TYPES 64
8
8
8
8
8
8
8
8
8
8
8
8
8
8
8
8
8
8
8
8
8
8
8
8
8
8
8
8
8
8
8
8
8
8
8
8
8
8
8
8
8
8
8
8
8
8
8
8
8
8
8
8
8
8
8
8
8
8
8
8
8
8
8
8
CELL_DATA 64
VECTORS vector_value float
-0.036236 -0.174948 0
-0.798167 -1.39986 0
-0.367799 -1.18561 0
0.0407787 -0.126987 0
0.216953 -0.870894 0
0.316864 -1.89463 0
-0.0238534 -0.122163 0
-0.0354478 -0.227097 0
-0.566574 -1.1231 0
0.0170489 -0.266967 0
0.0121224 -0.12158 0
0.00782455 -0.16161 0
0.0120806 -0.0245223 0
0.00606862 -0.0213239 0
0.0422567 -0.286135 0
-0.00736765 -0.15584 0
0.0275559 -0.196333 0
0.155081 -0.214374 0
0.01107 -0.186384 0
0.226 -1.05142 0
0.822161 -1.99424 0
0.783891 -1.24564 0
0.487661 -1.94455 0
0.15232 -0.422438 0
0.474415 -0.315055 0
0.0455469 -0.0435312 0
0.647305 -0.240318 0
-0.123827 -0.964105 0
0.727851 -1.94977 0
0.205304 -0.382402 0
0.656377 -1.81746 0
0.639449 -1.19675 0
-0.000488363 -0.244369 0
-0.0271245 -0.347302 0
0.247814 -0.447901 0
0.098771 -0.392784 0
0.0850724 -0.177673 0
0.0975036 -0.398885 0
0.926088 -2.13352 0
0.12285 -1.31875 0
0.437174 -2.28077 0
0.00460823 -0.222811 0
0.52218 -4.74093 0
0.552587 -1.13456 0
0.177386 -3.39325 0
0.0919699 -1.32567 0
0.0248046 -1.56642 0
0.136043 -3.71115 0
-0.367516 -0.567178 0
-0.786775 -1.52245 0
0.0971589 -1.68623 0
-0.131962 -0.234145 0
-0.351274 -1.19848 0
0.390633 -3.75744 0
-0.165256 -0.383999 0
-0.00257099 -0.0338866 0
0.0685558 -1.43446 0
-0.245652 -1.61102 0
0.104631 -2.54618 0
-0.395999 -0.579802 0
0.0099952 -0.0518511 0
-0.346465 -0.704886 0
0.0225128 -0.19416 0
-0.775041 -1.32906 0
