# vtk DataFile Version 2.0
Unstructured Grid by M++
ASCII
DATASET UNSTRUCTURED_GRID
POINTS 81 float
  1.000000   0.625000 0
  0.750000   0.375000 0
  1.000000   0.000000 0
  0.875000   0.875000 0
  0.750000   0.125000 0
  1.000000   1.000000 0
  0.875000   0.250000 0
  0.625000   0.875000 0
  1.000000   0.750000 0
  0.875000   0.000000 0
  1.000000   0.250000 0
  0.625000   0.375000 0
  0.875000   0.500000 0
  0.625000   0.625000 0
  1.000000   0.500000 0
  0.750000   0.500000 0
  0.750000   1.000000 0
  1.000000   0.125000 0
  0.625000   0.250000 0
  0.750000   0.750000 0
  0.625000   0.000000 0
  0.125000   0.375000 0
  0.000000   0.500000 0
  0.125000   0.625000 0
  0.625000   1.000000 0
  1.000000   0.875000 0
  0.875000   0.125000 0
  0.500000   0.250000 0
  0.625000   0.500000 0
  0.250000   0.625000 0
  0.000000   0.625000 0
  0.375000   0.500000 0
  0.375000   0.000000 0
  0.000000   0.125000 0
  0.125000   0.875000 0
  0.875000   1.000000 0
  0.750000   0.250000 0
  0.375000   0.375000 0
  0.250000   0.375000 0
  0.625000   0.750000 0
  0.125000   0.125000 0
  0.500000   0.000000 0
  0.250000   0.875000 0
  0.125000   0.500000 0
  0.500000   0.375000 0
  0.125000   0.000000 0
  0.250000   0.750000 0
  0.250000   0.500000 0
  0.000000   0.875000 0
  0.875000   0.625000 0
  0.500000   0.750000 0
  0.750000   0.625000 0
  0.250000   0.000000 0
  0.375000   0.750000 0
  0.750000   0.875000 0
  0.625000   0.125000 0
  0.250000   0.250000 0
  0.375000   1.000000 0
  0.375000   0.250000 0
  0.000000   0.375000 0
  0.500000   1.000000 0
  0.875000   0.750000 0
  0.750000   0.000000 0
  0.375000   0.125000 0
  0.500000   0.875000 0
  0.000000   0.000000 0
  0.125000   0.750000 0
  0.500000   0.625000 0
  0.125000   0.250000 0
  0.500000   0.125000 0
  0.250000   1.000000 0
  0.250000   0.125000 0
  0.000000   1.000000 0
  0.375000   0.875000 0
  0.000000   0.750000 0
  0.375000   0.625000 0
  0.000000   0.250000 0
  0.125000   1.000000 0
  1.000000   0.375000 0
  0.500000   0.500000 0
  0.875000   0.375000 0
CELLS 64 320
4 56 71 58 63
4 27 58 69 63
4 41 69 32 63
4 76 33 68 40
4 27 44 58 37
4 79 31 44 37
4 56 38 68 21
4 56 58 38 37
4 52 32 71 63
4 47 38 31 37
4 76 68 59 21
4 22 59 43 21
4 65 45 33 40
4 47 43 38 21
4 52 71 45 40
4 56 68 71 40
4 74 30 66 23
4 46 66 29 23
4 22 43 30 23
4 72 48 77 34
4 46 53 42 73
4 50 64 53 73
4 70 42 57 73
4 74 66 48 34
4 46 42 66 34
4 47 29 43 23
4 70 77 42 34
4 60 57 64 73
4 79 67 31 75
4 47 31 29 75
4 50 53 67 75
4 46 29 53 75
4 10 78 6 80
4 36 6 1 80
4 15 1 12 80
4 36 4 6 26
4 14 12 78 80
4 2 17 9 26
4 36 18 4 55
4 15 28 1 11
4 62 4 20 55
4 10 6 17 26
4 27 18 44 11
4 62 9 4 26
4 27 69 18 55
4 36 1 18 11
4 41 20 69 55
4 79 44 28 11
4 16 24 54 7
4 19 54 39 7
4 50 39 64 7
4 8 25 61 3
4 60 64 24 7
4 79 28 67 13
4 19 51 61 49
4 8 61 0 49
4 15 51 28 13
4 19 39 51 13
4 50 67 39 13
4 19 61 54 3
4 14 0 12 49
4 5 35 25 3
4 15 12 51 49
4 16 54 35 3
CELL_TYPES 64
8
8
8
8
8
8
8
8
8
8
8
8
8
8
8
8
8
8
8
8
8
8
8
8
8
8
8
8
8
8
8
8
8
8
8
8
8
8
8
8
8
8
8
8
8
8
8
8
8
8
8
8
8
8
8
8
8
8
8
8
8
8
8
8
CELL_DATA 64
VECTORS vector_value float
-0.00992165 -0.0220441 0
-0.0172062 -0.0316627 0
-0.195809 -0.262739 0
0.0862912 -0.468742 0
0.00320417 -0.0371749 0
0.0712177 -0.0942891 0
-0.00381614 -0.0129789 0
-6.35669e-05 -0.00657717 0
0.0152462 -0.15101 0
0.00155092 -0.0180162 0
0.00709667 -0.590224 0
-0.00918342 -0.573457 0
0.0602698 -0.294048 0
-0.00858524 -0.0251036 0
0.118136 -0.234343 0
0.087256 -0.135335 0
-0.0447741 -0.132648 0
0.0396203 -0.706528 0
-0.179524 -0.293246 0
0.351876 -0.458517 0
0.696731 -0.753073 0
1.33792 -0.78643 0
0.751058 -1.03098 0
0.0909694 -0.144305 0
0.308791 -0.818367 0
-0.124169 -0.367039 0
0.691237 -0.995785 0
0.743991 -1.28434 0
0.262359 -0.252268 0
0.172121 -0.124477 0
0.450921 -0.424932 0
0.271924 -0.221672 0
-0.840211 -3.71314 0
-0.93228 -2.44912 0
0.388351 -1.19295 0
-2.24585 -3.14781 0
0.0806624 -4.70385 0
-0.0158413 -0.90647 0
-1.56584 -1.57959 0
0.399105 -0.69508 0
-0.810541 -2.07687 0
-0.934808 -2.05534 0
0.0494376 -0.279219 0
-0.129281 -2.28727 0
-0.271713 -0.559481 0
0.0987462 -0.911563 0
-0.909242 -1.78725 0
0.408307 -0.697253 0
0.305439 -1.3223 0
2.20558 -1.87975 0
1.96405 -0.935951 0
0.452043 -1.13873 0
0.572793 -0.98272 0
0.220091 -0.752588 0
1.40568 -1.79182 0
0.871521 -2.7636 0
0.240273 -0.752903 0
0.724329 -1.27533 0
0.478977 -0.683468 0
1.59089 -1.5434 0
0.402901 -4.13344 0
-0.0656716 -0.752165 0
0.439136 -1.32404 0
0.0119127 -1.17319 0
