# vtk DataFile Version 2.0
Unstructured Grid by M++
ASCII
DATASET UNSTRUCTURED_GRID
POINTS 81 float
  1.000000   0.625000 0
  0.750000   0.375000 0
  1.000000   0.000000 0
  0.875000   0.875000 0
  0.750000   0.125000 0
  1.000000   1.000000 0
  0.875000   0.250000 0
  0.625000   0.875000 0
  1.000000   0.750000 0
  0.875000   0.000000 0
  1.000000   0.250000 0
  0.625000   0.375000 0
  0.875000   0.500000 0
  0.625000   0.625000 0
  1.000000   0.500000 0
  0.750000   0.500000 0
  0.750000   1.000000 0
  1.000000   0.125000 0
  0.625000   0.250000 0
  0.750000   0.750000 0
  0.625000   0.000000 0
  0.125000   0.375000 0
  0.000000   0.500000 0
  0.125000   0.625000 0
  0.625000   1.000000 0
  1.000000   0.875000 0
  0.875000   0.125000 0
  0.500000   0.250000 0
  0.625000   0.500000 0
  0.250000   0.625000 0
  0.000000   0.625000 0
  0.375000   0.500000 0
  0.375000   0.000000 0
  0.000000   0.125000 0
  0.125000   0.875000 0
  0.875000   1.000000 0
  0.750000   0.250000 0
  0.375000   0.375000 0
  0.250000   0.375000 0
  0.625000   0.750000 0
  0.125000   0.125000 0
  0.500000   0.000000 0
  0.250000   0.875000 0
  0.125000   0.500000 0
  0.500000   0.375000 0
  0.125000   0.000000 0
  0.250000   0.750000 0
  0.250000   0.500000 0
  0.000000   0.875000 0
  0.875000   0.625000 0
  0.500000   0.750000 0
  0.750000   0.625000 0
  0.250000   0.000000 0
  0.375000   0.750000 0
  0.750000   0.875000 0
  0.625000   0.125000 0
  0.250000   0.250000 0
  0.375000   1.000000 0
  0.375000   0.250000 0
  0.000000   0.375000 0
  0.500000   1.000000 0
  0.875000   0.750000 0
  0.750000   0.000000 0
  0.375000   0.125000 0
  0.500000   0.875000 0
  0.000000   0.000000 0
  0.125000   0.750000 0
  0.500000   0.625000 0
  0.125000   0.250000 0
  0.500000   0.125000 0
  0.250000   1.000000 0
  0.250000   0.125000 0
  0.000000   1.000000 0
  0.375000   0.875000 0
  0.000000   0.750000 0
  0.375000   0.625000 0
  0.000000   0.250000 0
  0.125000   1.000000 0
  1.000000   0.375000 0
  0.500000   0.500000 0
  0.875000   0.375000 0
CELLS 64 320
4 56 71 58 63
4 27 58 69 63
4 41 69 32 63
4 76 33 68 40
4 27 44 58 37
4 79 31 44 37
4 56 38 68 21
4 56 58 38 37
4 52 32 71 63
4 47 38 31 37
4 76 68 59 21
4 22 59 43 21
4 65 45 33 40
4 47 43 38 21
4 52 71 45 40
4 56 68 71 40
4 74 30 66 23
4 46 66 29 23
4 22 43 30 23
4 72 48 77 34
4 46 53 42 73
4 50 64 53 73
4 70 42 57 73
4 74 66 48 34
4 46 42 66 34
4 47 29 43 23
4 70 77 42 34
4 60 57 64 73
4 79 67 31 75
4 47 31 29 75
4 50 53 67 75
4 46 29 53 75
4 10 78 6 80
4 36 6 1 80
4 15 1 12 80
4 36 4 6 26
4 14 12 78 80
4 2 17 9 26
4 36 18 4 55
4 15 28 1 11
4 62 4 20 55
4 10 6 17 26
4 27 18 44 11
4 62 9 4 26
4 27 69 18 55
4 36 1 18 11
4 41 20 69 55
4 79 44 28 11
4 16 24 54 7
4 19 54 39 7
4 50 39 64 7
4 8 25 61 3
4 60 64 24 7
4 79 28 67 13
4 19 51 61 49
4 8 61 0 49
4 15 51 28 13
4 19 39 51 13
4 50 67 39 13
4 19 61 54 3
4 14 0 12 49
4 5 35 25 3
4 15 12 51 49
4 16 54 35 3
CELL_TYPES 64
8
8
8
8
8
8
8
8
8
8
8
8
8
8
8
8
8
8
8
8
8
8
8
8
8
8
8
8
8
8
8
8
8
8
8
8
8
8
8
8
8
8
8
8
8
8
8
8
8
8
8
8
8
8
8
8
8
8
8
8
8
8
8
8
CELL_DATA 64
VECTORS vector_value float
-0.0198984 -0.327026 0
-0.0584159 -0.352002 0
-0.246986 -0.415921 0
0.199521 -2.22341 0
-0.116055 -0.333906 0
-0.367943 -0.369512 0
-0.647945 -2.00558 0
-0.233961 -0.579658 0
0.141322 -1.01915 0
-0.394119 -0.475286 0
-0.572217 -1.33765 0
-0.0490386 -0.445373 0
0.203125 -1.01942 0
-0.345987 -2.69373 0
0.842448 -2.12068 0
-0.0189899 -1.38128 0
-0.00147667 -0.418878 0
-0.338857 -1.33425 0
-0.020584 -0.578593 0
0.198966 -1.01757 0
0.308814 -1.14941 0
-0.161889 -1.72919 0
-0.0542976 -1.21224 0
0.0658473 -0.547458 0
0.205465 -1.15075 0
-0.360104 -2.27358 0
0.224616 -1.06367 0
-0.117188 -0.597119 0
-0.0892973 -0.517459 0
-0.111856 -0.407214 0
0.249406 -1.30895 0
-0.762122 -1.38868 0
0.0402658 -0.945139 0
0.0164341 -0.981967 0
0.093858 -1.64845 0
0.196069 -1.72468 0
0.165195 -0.520696 0
0.040793 -0.82711 0
0.186424 -0.896861 0
-0.199906 -1.30403 0
-0.00402025 -0.731807 0
-0.064335 -0.671433 0
-0.0498005 -0.406334 0
0.0262786 -1.66894 0
-0.156234 -0.423301 0
0.0242653 -1.40977 0
-0.05859 -0.196976 0
-0.230912 -0.542919 0
-0.148777 -0.861308 0
-0.0771152 -0.361095 0
-0.439213 -0.933543 0
0.0673466 -1.01322 0
-0.15949 -1.02331 0
0.431306 -0.875406 0
0.0215946 -0.508618 0
0.0795586 -1.36377 0
0.660988 -1.20656 0
-0.0805734 -0.627324 0
0.479515 -1.04953 0
0.0340839 -1.11533 0
-0.394729 -0.654012 0
-0.0137407 -0.791937 0
-0.285846 -1.48717 0
0.0634887 -1.43285 0
