# vtk DataFile Version 2.0
Unstructured Grid by M++
ASCII
DATASET UNSTRUCTURED_GRID
POINTS 81 float
  1.000000   0.625000 0
  0.750000   0.375000 0
  1.000000   0.000000 0
  0.875000   0.875000 0
  0.750000   0.125000 0
  1.000000   1.000000 0
  0.875000   0.250000 0
  0.625000   0.875000 0
  1.000000   0.750000 0
  0.875000   0.000000 0
  1.000000   0.250000 0
  0.625000   0.375000 0
  0.875000   0.500000 0
  0.625000   0.625000 0
  1.000000   0.500000 0
  0.750000   0.500000 0
  0.750000   1.000000 0
  1.000000   0.125000 0
  0.625000   0.250000 0
  0.750000   0.750000 0
  0.625000   0.000000 0
  0.125000   0.375000 0
  0.000000   0.500000 0
  0.125000   0.625000 0
  0.625000   1.000000 0
  1.000000   0.875000 0
  0.875000   0.125000 0
  0.500000   0.250000 0
  0.625000   0.500000 0
  0.250000   0.625000 0
  0.000000   0.625000 0
  0.375000   0.500000 0
  0.375000   0.000000 0
  0.000000   0.125000 0
  0.125000   0.875000 0
  0.875000   1.000000 0
  0.750000   0.250000 0
  0.375000   0.375000 0
  0.250000   0.375000 0
  0.625000   0.750000 0
  0.125000   0.125000 0
  0.500000   0.000000 0
  0.250000   0.875000 0
  0.125000   0.500000 0
  0.500000   0.375000 0
  0.125000   0.000000 0
  0.250000   0.750000 0
  0.250000   0.500000 0
  0.000000   0.875000 0
  0.875000   0.625000 0
  0.500000   0.750000 0
  0.750000   0.625000 0
  0.250000   0.000000 0
  0.375000   0.750000 0
  0.750000   0.875000 0
  0.625000   0.125000 0
  0.250000   0.250000 0
  0.375000   1.000000 0
  0.375000   0.250000 0
  0.000000   0.375000 0
  0.500000   1.000000 0
  0.875000   0.750000 0
  0.750000   0.000000 0
  0.375000   0.125000 0
  0.500000   0.875000 0
  0.000000   0.000000 0
  0.125000   0.750000 0
  0.500000   0.625000 0
  0.125000   0.250000 0
  0.500000   0.125000 0
  0.250000   1.000000 0
  0.250000   0.125000 0
  0.000000   1.000000 0
  0.375000   0.875000 0
  0.000000   0.750000 0
  0.375000   0.625000 0
  0.000000   0.250000 0
  0.125000   1.000000 0
  1.000000   0.375000 0
  0.500000   0.500000 0
  0.875000   0.375000 0
CELLS 64 320
4 56 71 58 63
4 27 58 69 63
4 41 69 32 63
4 76 33 68 40
4 27 44 58 37
4 79 31 44 37
4 56 38 68 21
4 56 58 38 37
4 52 32 71 63
4 47 38 31 37
4 76 68 59 21
4 22 59 43 21
4 65 45 33 40
4 47 43 38 21
4 52 71 45 40
4 56 68 71 40
4 74 30 66 23
4 46 66 29 23
4 22 43 30 23
4 72 48 77 34
4 46 53 42 73
4 50 64 53 73
4 70 42 57 73
4 74 66 48 34
4 46 42 66 34
4 47 29 43 23
4 70 77 42 34
4 60 57 64 73
4 79 67 31 75
4 47 31 29 75
4 50 53 67 75
4 46 29 53 75
4 10 78 6 80
4 36 6 1 80
4 15 1 12 80
4 36 4 6 26
4 14 12 78 80
4 2 17 9 26
4 36 18 4 55
4 15 28 1 11
4 62 4 20 55
4 10 6 17 26
4 27 18 44 11
4 62 9 4 26
4 27 69 18 55
4 36 1 18 11
4 41 20 69 55
4 79 44 28 11
4 16 24 54 7
4 19 54 39 7
4 50 39 64 7
4 8 25 61 3
4 60 64 24 7
4 79 28 67 13
4 19 51 61 49
4 8 61 0 49
4 15 51 28 13
4 19 39 51 13
4 50 67 39 13
4 19 61 54 3
4 14 0 12 49
4 5 35 25 3
4 15 12 51 49
4 16 54 35 3
CELL_TYPES 64
8
8
8
8
8
8
8
8
8
8
8
8
8
8
8
8
8
8
8
8
8
8
8
8
8
8
8
8
8
8
8
8
8
8
8
8
8
8
8
8
8
8
8
8
8
8
8
8
8
8
8
8
8
8
8
8
8
8
8
8
8
8
8
8
CELL_DATA 64
VECTORS vector_value float
-0.208302 -0.514229 0
-0.0939623 -0.491354 0
-0.0515091 -0.111579 0
-0.350437 -1.59261 0
0.931582 -1.79824 0
0.156088 -0.560867 0
-0.43943 -1.8243 0
-1.352 -2.05163 0
-0.168772 -0.753108 0
0.330136 -4.62215 0
-0.137237 -0.97632 0
-0.307366 -0.409083 0
-0.124085 -1.98791 0
-1.19639 -1.38157 0
-0.0192073 -2.98259 0
-1.27709 -3.30668 0
0.0725354 -0.256238 0
0.401294 -0.938253 0
-0.00579361 -0.161271 0
0.240951 -0.596521 0
-1.12859 -2.90643 0
-0.94896 -2.32026 0
0.184027 -0.877352 0
0.096796 -0.546782 0
0.197809 -1.21852 0
-0.0190347 -0.564245 0
0.369652 -1.17678 0
-1.88343 -2.19321 0
0.149654 -1.12048 0
-0.416715 -5.53955 0
-0.547445 -1.66366 0
-0.114964 -4.77077 0
-0.0246824 -0.133841 0
0.331431 -0.659629 0
0.0747768 -0.0836075 0
0.146605 -1.23871 0
0.00510515 -0.162245 0
-0.00210557 -0.0591221 0
0.284427 -0.306781 0
0.350097 -0.47175 0
0.106094 -0.651275 0
-0.0211327 -0.0820043 0
0.481923 -0.125232 0
-0.0130783 -1.26747 0
0.458182 -0.467628 0
0.61335 -0.430809 0
0.0617756 -0.186946 0
0.337386 -0.308726 0
-2.24939 -0.559301 0
-0.095036 -0.155468 0
-0.410182 -0.715635 0
-0.0155049 -0.090317 0
-2.77555 -1.65734 0
0.457879 -0.313709 0
0.00690145 -0.029415 0
0.00270178 -0.0959164 0
0.157058 -0.157444 0
0.00331771 -0.0581417 0
-0.0297798 -0.187613 0
-0.0255969 -0.0465857 0
0.0227738 -0.127036 0
-0.437945 -0.431254 0
0.0345782 -0.0162699 0
-1.36494 -0.508241 0
