# vtk DataFile Version 2.0
Unstructured Grid by M++
ASCII
DATASET UNSTRUCTURED_GRID
POINTS 81 float
  1.000000   0.625000 0
  0.750000   0.375000 0
  1.000000   0.000000 0
  0.875000   0.875000 0
  0.750000   0.125000 0
  1.000000   1.000000 0
  0.875000   0.250000 0
  0.625000   0.875000 0
  1.000000   0.750000 0
  0.875000   0.000000 0
  1.000000   0.250000 0
  0.625000   0.375000 0
  0.875000   0.500000 0
  0.625000   0.625000 0
  1.000000   0.500000 0
  0.750000   0.500000 0
  0.750000   1.000000 0
  1.000000   0.125000 0
  0.625000   0.250000 0
  0.750000   0.750000 0
  0.625000   0.000000 0
  0.125000   0.375000 0
  0.000000   0.500000 0
  0.125000   0.625000 0
  0.625000   1.000000 0
  1.000000   0.875000 0
  0.875000   0.125000 0
  0.500000   0.250000 0
  0.625000   0.500000 0
  0.250000   0.625000 0
  0.000000   0.625000 0
  0.375000   0.500000 0
  0.375000   0.000000 0
  0.000000   0.125000 0
  0.125000   0.875000 0
  0.875000   1.000000 0
  0.750000   0.250000 0
  0.375000   0.375000 0
  0.250000   0.375000 0
  0.625000   0.750000 0
  0.125000   0.125000 0
  0.500000   0.000000 0
  0.250000   0.875000 0
  0.125000   0.500000 0
  0.500000   0.375000 0
  0.125000   0.000000 0
  0.250000   0.750000 0
  0.250000   0.500000 0
  0.000000   0.875000 0
  0.875000   0.625000 0
  0.500000   0.750000 0
  0.750000   0.625000 0
  0.250000   0.000000 0
  0.375000   0.750000 0
  0.750000   0.875000 0
  0.625000   0.125000 0
  0.250000   0.250000 0
  0.375000   1.000000 0
  0.375000   0.250000 0
  0.000000   0.375000 0
  0.500000   1.000000 0
  0.875000   0.750000 0
  0.750000   0.000000 0
  0.375000   0.125000 0
  0.500000   0.875000 0
  0.000000   0.000000 0
  0.125000   0.750000 0
  0.500000   0.625000 0
  0.125000   0.250000 0
  0.500000   0.125000 0
  0.250000   1.000000 0
  0.250000   0.125000 0
  0.000000   1.000000 0
  0.375000   0.875000 0
  0.000000   0.750000 0
  0.375000   0.625000 0
  0.000000   0.250000 0
  0.125000   1.000000 0
  1.000000   0.375000 0
  0.500000   0.500000 0
  0.875000   0.375000 0
CELLS 64 320
4 56 71 58 63
4 27 58 69 63
4 41 69 32 63
4 76 33 68 40
4 27 44 58 37
4 79 31 44 37
4 56 38 68 21
4 56 58 38 37
4 52 32 71 63
4 47 38 31 37
4 76 68 59 21
4 22 59 43 21
4 65 45 33 40
4 47 43 38 21
4 52 71 45 40
4 56 68 71 40
4 74 30 66 23
4 46 66 29 23
4 22 43 30 23
4 72 48 77 34
4 46 53 42 73
4 50 64 53 73
4 70 42 57 73
4 74 66 48 34
4 46 42 66 34
4 47 29 43 23
4 70 77 42 34
4 60 57 64 73
4 79 67 31 75
4 47 31 29 75
4 50 53 67 75
4 46 29 53 75
4 10 78 6 80
4 36 6 1 80
4 15 1 12 80
4 36 4 6 26
4 14 12 78 80
4 2 17 9 26
4 36 18 4 55
4 15 28 1 11
4 62 4 20 55
4 10 6 17 26
4 27 18 44 11
4 62 9 4 26
4 27 69 18 55
4 36 1 18 11
4 41 20 69 55
4 79 44 28 11
4 16 24 54 7
4 19 54 39 7
4 50 39 64 7
4 8 25 61 3
4 60 64 24 7
4 79 28 67 13
4 19 51 61 49
4 8 61 0 49
4 15 51 28 13
4 19 39 51 13
4 50 67 39 13
4 19 61 54 3
4 14 0 12 49
4 5 35 25 3
4 15 12 51 49
4 16 54 35 3
CELL_TYPES 64
8
8
8
8
8
8
8
8
8
8
8
8
8
8
8
8
8
8
8
8
8
8
8
8
8
8
8
8
8
8
8
8
8
8
8
8
8
8
8
8
8
8
8
8
8
8
8
8
8
8
8
8
8
8
8
8
8
8
8
8
8
8
8
8
CELL_DATA 64
VECTORS vector_value float
0.598897 -3.08868 0
0.217903 -1.06358 0
0.290935 -2.05673 0
-0.301672 -0.460959 0
-0.106198 -0.265684 0
-0.338267 -0.17697 0
-0.0765393 -2.13951 0
0.175018 -3.50417 0
0.495043 -3.09556 0
-0.777885 -3.26607 0
-0.00758197 -0.0813344 0
0.229245 -0.305618 0
-0.0691965 -0.821923 0
0.124951 -1.96043 0
0.0410268 -0.455963 0
0.167339 -1.66633 0
-0.116614 -0.668051 0
-0.0774457 -0.560154 0
0.067348 -0.619668 0
0.294907 -0.609129 0
0.142485 -1.28731 0
-0.715292 -1.45804 0
-0.00368065 -0.53288 0
-0.0189296 -0.345133 0
0.336539 -1.41282 0
-0.276778 -1.26704 0
0.217841 -1.63987 0
0.120973 -1.03833 0
-0.775274 -1.02694 0
-0.404576 -2.4582 0
-0.548097 -1.50064 0
-0.468459 -2.38229 0
0.0663209 -0.169746 0
-0.0871775 -0.666082 0
0.203792 -0.879261 0
0.0276758 -0.31564 0
0.0412965 -0.0742078 0
0.00684799 -0.29848 0
-0.123785 -0.885752 0
0.021198 -1.12857 0
-0.0388957 -0.295916 0
0.0137183 -0.279253 0
-0.265915 -0.168439 0
0.0964882 -0.49058 0
-0.245856 -0.239807 0
-0.331957 -1.00503 0
-0.229752 -0.484855 0
-0.215164 -0.208867 0
-1.01685 -1.26448 0
-0.404162 -1.52247 0
-0.675054 -1.49556 0
0.000804168 -0.0244974 0
-0.385975 -1.38549 0
-0.0632238 -0.582487 0
-0.0115571 -0.294874 0
0.00494662 -0.0381713 0
0.360459 -1.54496 0
-0.0354684 -1.36659 0
-0.129948 -1.18923 0
-0.0909822 -0.454165 0
0.00226519 -0.0409618 0
-0.485818 -0.344275 0
0.129714 -0.459744 0
-1.2081 -1.18555 0
