# vtk DataFile Version 2.0
Unstructured Grid by M++
ASCII
DATASET UNSTRUCTURED_GRID
POINTS 81 float
  1.000000   0.625000 0
  0.750000   0.375000 0
  1.000000   0.000000 0
  0.875000   0.875000 0
  0.750000   0.125000 0
  1.000000   1.000000 0
  0.875000   0.250000 0
  0.625000   0.875000 0
  1.000000   0.750000 0
  0.875000   0.000000 0
  1.000000   0.250000 0
  0.625000   0.375000 0
  0.875000   0.500000 0
  0.625000   0.625000 0
  1.000000   0.500000 0
  0.750000   0.500000 0
  0.750000   1.000000 0
  1.000000   0.125000 0
  0.625000   0.250000 0
  0.750000   0.750000 0
  0.625000   0.000000 0
  0.125000   0.375000 0
  0.000000   0.500000 0
  0.125000   0.625000 0
  0.625000   1.000000 0
  1.000000   0.875000 0
  0.875000   0.125000 0
  0.500000   0.250000 0
  0.625000   0.500000 0
  0.250000   0.625000 0
  0.000000   0.625000 0
  0.375000   0.500000 0
  0.375000   0.000000 0
  0.000000   0.125000 0
  0.125000   0.875000 0
  0.875000   1.000000 0
  0.750000   0.250000 0
  0.375000   0.375000 0
  0.250000   0.375000 0
  0.625000   0.750000 0
  0.125000   0.125000 0
  0.500000   0.000000 0
  0.250000   0.875000 0
  0.125000   0.500000 0
  0.500000   0.375000 0
  0.125000   0.000000 0
  0.250000   0.750000 0
  0.250000   0.500000 0
  0.000000   0.875000 0
  0.875000   0.625000 0
  0.500000   0.750000 0
  0.750000   0.625000 0
  0.250000   0.000000 0
  0.375000   0.750000 0
  0.750000   0.875000 0
  0.625000   0.125000 0
  0.250000   0.250000 0
  0.375000   1.000000 0
  0.375000   0.250000 0
  0.000000   0.375000 0
  0.500000   1.000000 0
  0.875000   0.750000 0
  0.750000   0.000000 0
  0.375000   0.125000 0
  0.500000   0.875000 0
  0.000000   0.000000 0
  0.125000   0.750000 0
  0.500000   0.625000 0
  0.125000   0.250000 0
  0.500000   0.125000 0
  0.250000   1.000000 0
  0.250000   0.125000 0
  0.000000   1.000000 0
  0.375000   0.875000 0
  0.000000   0.750000 0
  0.375000   0.625000 0
  0.000000   0.250000 0
  0.125000   1.000000 0
  1.000000   0.375000 0
  0.500000   0.500000 0
  0.875000   0.375000 0
CELLS 64 320
4 56 71 58 63
4 27 58 69 63
4 41 69 32 63
4 76 33 68 40
4 27 44 58 37
4 79 31 44 37
4 56 38 68 21
4 56 58 38 37
4 52 32 71 63
4 47 38 31 37
4 76 68 59 21
4 22 59 43 21
4 65 45 33 40
4 47 43 38 21
4 52 71 45 40
4 56 68 71 40
4 74 30 66 23
4 46 66 29 23
4 22 43 30 23
4 72 48 77 34
4 46 53 42 73
4 50 64 53 73
4 70 42 57 73
4 74 66 48 34
4 46 42 66 34
4 47 29 43 23
4 70 77 42 34
4 60 57 64 73
4 79 67 31 75
4 47 31 29 75
4 50 53 67 75
4 46 29 53 75
4 10 78 6 80
4 36 6 1 80
4 15 1 12 80
4 36 4 6 26
4 14 12 78 80
4 2 17 9 26
4 36 18 4 55
4 15 28 1 11
4 62 4 20 55
4 10 6 17 26
4 27 18 44 11
4 62 9 4 26
4 27 69 18 55
4 36 1 18 11
4 41 20 69 55
4 79 44 28 11
4 16 24 54 7
4 19 54 39 7
4 50 39 64 7
4 8 25 61 3
4 60 64 24 7
4 79 28 67 13
4 19 51 61 49
4 8 61 0 49
4 15 51 28 13
4 19 39 51 13
4 50 67 39 13
4 19 61 54 3
4 14 0 12 49
4 5 35 25 3
4 15 12 51 49
4 16 54 35 3
CELL_TYPES 64
8
8
8
8
8
8
8
8
8
8
8
8
8
8
8
8
8
8
8
8
8
8
8
8
8
8
8
8
8
8
8
8
8
8
8
8
8
8
8
8
8
8
8
8
8
8
8
8
8
8
8
8
8
8
8
8
8
8
8
8
8
8
8
8
CELL_DATA 64
VECTORS vector_value float
0.050648 -0.181416 0
0.0122246 -0.0527841 0
-0.016798 -0.218281 0
-0.0247896 -0.992545 0
1.50131 -0.35179 0
1.30648 -0.16333 0
0.228234 -0.32508 0
0.488077 -0.573076 0
0.0122468 -0.129758 0
1.85453 -1.16579 0
0.102549 -1.17534 0
-0.346272 -1.02933 0
-0.1505 -1.28639 0
0.524456 -1.4767 0
-0.0311255 -0.0607821 0
-0.128875 -0.366711 0
0.0606226 -0.430897 0
-0.064885 -4.07321 0
-0.0383736 -0.471312 0
0.326993 -0.43683 0
-0.556783 -2.12322 0
-0.277549 -0.611631 0
-1.90998 -2.51095 0
-0.0985048 -0.682019 0
-0.768654 -2.83261 0
0.441852 -3.06783 0
-0.0229675 -1.41298 0
-2.33999 -0.827315 0
1.67965 -0.178419 0
1.38355 -1.61493 0
0.0458047 -0.329044 0
-0.232299 -1.46754 0
0.22798 -0.497992 0
1.98694 -3.26398 0
0.84712 -2.11065 0
1.59369 -0.997693 0
0.0737715 -0.139731 0
0.117148 -5.09215 0
1.03199 -0.676557 0
1.65406 -0.801877 0
0.0341838 -0.275008 0
2.08875 -3.87332 0
1.79158 -1.28515 0
0.145251 -0.532915 0
0.239591 -0.85897 0
1.13078 -0.527591 0
0.00748065 -0.404714 0
1.19655 -1.11259 0
-0.961643 -0.749833 0
-0.346503 -0.546442 0
-0.13699 -0.138655 0
-0.0777466 -0.276394 0
-1.75002 -0.55697 0
1.26923 -0.840623 0
-0.0273422 -0.708936 0
-0.0120462 -0.131409 0
0.744581 -0.657163 0
-0.0191701 -0.654886 0
-0.0137412 -0.204074 0
-0.538289 -0.789033 0
-0.00560628 -0.119102 0
-0.346644 -1.21702 0
0.325377 -1.05062 0
-0.449923 -0.2881 0
