# vtk DataFile Version 2.0
Unstructured Grid by M++
ASCII
DATASET UNSTRUCTURED_GRID
POINTS 81 float
  1.000000   0.625000 0
  0.750000   0.375000 0
  1.000000   0.000000 0
  0.875000   0.875000 0
  0.750000   0.125000 0
  1.000000   1.000000 0
  0.875000   0.250000 0
  0.625000   0.875000 0
  1.000000   0.750000 0
  0.875000   0.000000 0
  1.000000   0.250000 0
  0.625000   0.375000 0
  0.875000   0.500000 0
  0.625000   0.625000 0
  1.000000   0.500000 0
  0.750000   0.500000 0
  0.750000   1.000000 0
  1.000000   0.125000 0
  0.625000   0.250000 0
  0.750000   0.750000 0
  0.625000   0.000000 0
  0.125000   0.375000 0
  0.000000   0.500000 0
  0.125000   0.625000 0
  0.625000   1.000000 0
  1.000000   0.875000 0
  0.875000   0.125000 0
  0.500000   0.250000 0
  0.625000   0.500000 0
  0.250000   0.625000 0
  0.000000   0.625000 0
  0.375000   0.500000 0
  0.375000   0.000000 0
  0.000000   0.125000 0
  0.125000   0.875000 0
  0.875000   1.000000 0
  0.750000   0.250000 0
  0.375000   0.375000 0
  0.250000   0.375000 0
  0.625000   0.750000 0
  0.125000   0.125000 0
  0.500000   0.000000 0
  0.250000   0.875000 0
  0.125000   0.500000 0
  0.500000   0.375000 0
  0.125000   0.000000 0
  0.250000   0.750000 0
  0.250000   0.500000 0
  0.000000   0.875000 0
  0.875000   0.625000 0
  0.500000   0.750000 0
  0.750000   0.625000 0
  0.250000   0.000000 0
  0.375000   0.750000 0
  0.750000   0.875000 0
  0.625000   0.125000 0
  0.250000   0.250000 0
  0.375000   1.000000 0
  0.375000   0.250000 0
  0.000000   0.375000 0
  0.500000   1.000000 0
  0.875000   0.750000 0
  0.750000   0.000000 0
  0.375000   0.125000 0
  0.500000   0.875000 0
  0.000000   0.000000 0
  0.125000   0.750000 0
  0.500000   0.625000 0
  0.125000   0.250000 0
  0.500000   0.125000 0
  0.250000   1.000000 0
  0.250000   0.125000 0
  0.000000   1.000000 0
  0.375000   0.875000 0
  0.000000   0.750000 0
  0.375000   0.625000 0
  0.000000   0.250000 0
  0.125000   1.000000 0
  1.000000   0.375000 0
  0.500000   0.500000 0
  0.875000   0.375000 0
CELLS 64 320
4 56 71 58 63
4 27 58 69 63
4 41 69 32 63
4 76 33 68 40
4 27 44 58 37
4 79 31 44 37
4 56 38 68 21
4 56 58 38 37
4 52 32 71 63
4 47 38 31 37
4 76 68 59 21
4 22 59 43 21
4 65 45 33 40
4 47 43 38 21
4 52 71 45 40
4 56 68 71 40
4 74 30 66 23
4 46 66 29 23
4 22 43 30 23
4 72 48 77 34
4 46 53 42 73
4 50 64 53 73
4 70 42 57 73
4 74 66 48 34
4 46 42 66 34
4 47 29 43 23
4 70 77 42 34
4 60 57 64 73
4 79 67 31 75
4 47 31 29 75
4 50 53 67 75
4 46 29 53 75
4 10 78 6 80
4 36 6 1 80
4 15 1 12 80
4 36 4 6 26
4 14 12 78 80
4 2 17 9 26
4 36 18 4 55
4 15 28 1 11
4 62 4 20 55
4 10 6 17 26
4 27 18 44 11
4 62 9 4 26
4 27 69 18 55
4 36 1 18 11
4 41 20 69 55
4 79 44 28 11
4 16 24 54 7
4 19 54 39 7
4 50 39 64 7
4 8 25 61 3
4 60 64 24 7
4 79 28 67 13
4 19 51 61 49
4 8 61 0 49
4 15 51 28 13
4 19 39 51 13
4 50 67 39 13
4 19 61 54 3
4 14 0 12 49
4 5 35 25 3
4 15 12 51 49
4 16 54 35 3
CELL_TYPES 64
8
8
8
8
8
8
8
8
8
8
8
8
8
8
8
8
8
8
8
8
8
8
8
8
8
8
8
8
8
8
8
8
8
8
8
8
8
8
8
8
8
8
8
8
8
8
8
8
8
8
8
8
8
8
8
8
8
8
8
8
8
8
8
8
CELL_DATA 64
VECTORS vector_value float
0.13337 -0.693267 0
0.0379582 -0.256851 0
0.0201062 -0.60279 0
0.125363 -1.64438 0
0.1534 -0.482737 0
0.421829 -0.319001 0
0.010803 -0.346587 0
0.0320227 -0.484823 0
0.198564 -0.784723 0
0.165723 -1.0708 0
-0.0477784 -1.85896 0
-0.182322 -1.50159 0
0.0384434 -1.43615 0
-0.272789 -0.531258 0
0.113642 -0.301344 0
0.286327 -0.382747 0
-0.106566 -0.507452 0
-0.299025 -1.54652 0
-0.314335 -0.830711 0
0.231233 -0.652998 0
-0.105167 -1.77282 0
-0.0552799 -0.515053 0
-0.0664388 -1.10978 0
0.0442932 -0.459223 0
0.131895 -1.23904 0
-0.319229 -1.26402 0
0.28049 -1.34731 0
-0.178507 -1.02203 0
0.167663 -0.103028 0
0.222457 -1.40896 0
0.112567 -0.176961 0
-0.177295 -1.57145 0
-0.149476 -1.06165 0
-0.301276 -1.73066 0
-0.0947868 -1.83579 0
-0.0353888 -1.98131 0
0.21656 -1.37565 0
0.0468063 -1.03351 0
-0.41024 -1.64137 0
0.00182831 -0.890107 0
-0.106271 -1.03966 0
0.00173448 -0.817748 0
0.188474 -0.343126 0
0.00768898 -1.6029 0
-0.0980449 -0.582334 0
0.00157667 -1.69146 0
-0.396307 -1.19893 0
0.211272 -0.475813 0
0.430382 -0.546987 0
0.296593 -0.874757 0
0.525462 -0.432337 0
-0.106635 -0.557533 0
0.07895 -0.786338 0
0.103531 -0.213485 0
-0.0304288 -2.26086 0
-0.0407355 -0.384337 0
0.17347 -1.25026 0
0.251179 -1.48035 0
0.0961363 -0.0720701 0
-0.16484 -2.14923 0
0.219757 -0.455308 0
-0.163458 -0.980051 0
0.716531 -2.47423 0
0.238734 -1.5545 0
