# vtk DataFile Version 2.0
Unstructured Grid by M++
ASCII
DATASET UNSTRUCTURED_GRID
POINTS 81 float
  1.000000   0.625000 0
  0.750000   0.375000 0
  1.000000   0.000000 0
  0.875000   0.875000 0
  0.750000   0.125000 0
  1.000000   1.000000 0
  0.875000   0.250000 0
  0.625000   0.875000 0
  1.000000   0.750000 0
  0.875000   0.000000 0
  1.000000   0.250000 0
  0.625000   0.375000 0
  0.875000   0.500000 0
  0.625000   0.625000 0
  1.000000   0.500000 0
  0.750000   0.500000 0
  0.750000   1.000000 0
  1.000000   0.125000 0
  0.625000   0.250000 0
  0.750000   0.750000 0
  0.625000   0.000000 0
  0.125000   0.375000 0
  0.000000   0.500000 0
  0.125000   0.625000 0
  0.625000   1.000000 0
  1.000000   0.875000 0
  0.875000   0.125000 0
  0.500000   0.250000 0
  0.625000   0.500000 0
  0.250000   0.625000 0
  0.000000   0.625000 0
  0.375000   0.500000 0
  0.375000   0.000000 0
  0.000000   0.125000 0
  0.125000   0.875000 0
  0.875000   1.000000 0
  0.750000   0.250000 0
  0.375000   0.375000 0
  0.250000   0.375000 0
  0.625000   0.750000 0
  0.125000   0.125000 0
  0.500000   0.000000 0
  0.250000   0.875000 0
  0.125000   0.500000 0
  0.500000   0.375000 0
  0.125000   0.000000 0
  0.250000   0.750000 0
  0.250000   0.500000 0
  0.000000   0.875000 0
  0.875000   0.625000 0
  0.500000   0.750000 0
  0.750000   0.625000 0
  0.250000   0.000000 0
  0.375000   0.750000 0
  0.750000   0.875000 0
  0.625000   0.125000 0
  0.250000   0.250000 0
  0.375000   1.000000 0
  0.375000   0.250000 0
  0.000000   0.375000 0
  0.500000   1.000000 0
  0.875000   0.750000 0
  0.750000   0.000000 0
  0.375000   0.125000 0
  0.500000   0.875000 0
  0.000000   0.000000 0
  0.125000   0.750000 0
  0.500000   0.625000 0
  0.125000   0.250000 0
  0.500000   0.125000 0
  0.250000   1.000000 0
  0.250000   0.125000 0
  0.000000   1.000000 0
  0.375000   0.875000 0
  0.000000   0.750000 0
  0.375000   0.625000 0
  0.000000   0.250000 0
  0.125000   1.000000 0
  1.000000   0.375000 0
  0.500000   0.500000 0
  0.875000   0.375000 0
CELLS 64 320
4 56 71 58 63
4 27 58 69 63
4 41 69 32 63
4 76 33 68 40
4 27 44 58 37
4 79 31 44 37
4 56 38 68 21
4 56 58 38 37
4 52 32 71 63
4 47 38 31 37
4 76 68 59 21
4 22 59 43 21
4 65 45 33 40
4 47 43 38 21
4 52 71 45 40
4 56 68 71 40
4 74 30 66 23
4 46 66 29 23
4 22 43 30 23
4 72 48 77 34
4 46 53 42 73
4 50 64 53 73
4 70 42 57 73
4 74 66 48 34
4 46 42 66 34
4 47 29 43 23
4 70 77 42 34
4 60 57 64 73
4 79 67 31 75
4 47 31 29 75
4 50 53 67 75
4 46 29 53 75
4 10 78 6 80
4 36 6 1 80
4 15 1 12 80
4 36 4 6 26
4 14 12 78 80
4 2 17 9 26
4 36 18 4 55
4 15 28 1 11
4 62 4 20 55
4 10 6 17 26
4 27 18 44 11
4 62 9 4 26
4 27 69 18 55
4 36 1 18 11
4 41 20 69 55
4 79 44 28 11
4 16 24 54 7
4 19 54 39 7
4 50 39 64 7
4 8 25 61 3
4 60 64 24 7
4 79 28 67 13
4 19 51 61 49
4 8 61 0 49
4 15 51 28 13
4 19 39 51 13
4 50 67 39 13
4 19 61 54 3
4 14 0 12 49
4 5 35 25 3
4 15 12 51 49
4 16 54 35 3
CELL_TYPES 64
8
8
8
8
8
8
8
8
8
8
8
8
8
8
8
8
8
8
8
8
8
8
8
8
8
8
8
8
8
8
8
8
8
8
8
8
8
8
8
8
8
8
8
8
8
8
8
8
8
8
8
8
8
8
8
8
8
8
8
8
8
8
8
8
CELL_DATA 64
VECTORS vector_value float
-0.300651 -0.450208 0
-0.0841241 -0.279874 0
-0.0398589 -0.391191 0
0.225645 -3.60785 0
-0.552111 -0.518715 0
-1.03767 -0.649013 0
-0.112805 -0.637699 0
-0.121238 -0.0958146 0
-0.00793825 -0.32102 0
-1.33751 -0.336485 0
0.672691 -5.16382 0
-1.2043 -4.29626 0
0.189802 -3.08779 0
-1.6811 -0.608211 0
0.063948 -2.96598 0
0.765156 -2.32265 0
0.000925048 -2.827 0
-0.19407 -0.808245 0
0.0116451 -2.79228 0
-0.701388 -1.87265 0
-0.984171 -1.08224 0
-0.508315 -0.857724 0
-0.49271 -1.38706 0
-0.207284 -2.64727 0
-0.730321 -0.174161 0
-0.284184 -1.4164 0
-0.886752 -0.152779 0
-0.606942 -1.09093 0
-0.0893141 -0.418025 0
-0.148634 -0.406438 0
-0.1587 -0.380504 0
-0.322755 -0.821076 0
0.0154535 -1.14458 0
0.0273579 -0.0845742 0
0.192275 -0.259004 0
-0.206322 -0.176748 0
0.158374 -0.950685 0
-0.00511057 -0.854313 0
-0.0734144 -0.0299719 0
-0.130196 -0.228329 0
-0.0586256 -0.100287 0
-0.087111 -0.998948 0
-0.305337 -0.340759 0
-0.0174641 -0.197185 0
-0.0567499 -0.133748 0
-0.0257664 -0.0140344 0
-0.0557654 -0.0822307 0
-0.547883 -0.672015 0
-0.0267797 -1.0991 0
-0.610613 -0.584671 0
-0.598247 -0.793204 0
0.00338342 -1.09304 0
-0.195656 -0.256891 0
-0.265043 -1.2695 0
-0.145117 -0.155445 0
-0.172492 -0.947604 0
-0.0641946 -0.54692 0
-0.41854 -1.02404 0
-0.291711 -1.03609 0
-0.488371 -0.767689 0
0.00546377 -0.672376 0
0.00834286 -0.991656 0
0.0210035 -0.47805 0
0.0666325 -1.14894 0
