# vtk DataFile Version 2.0
Unstructured Grid by M++
ASCII
DATASET UNSTRUCTURED_GRID
POINTS 81 float
  1.000000   0.625000 0
  0.750000   0.375000 0
  1.000000   0.000000 0
  0.875000   0.875000 0
  0.750000   0.125000 0
  1.000000   1.000000 0
  0.875000   0.250000 0
  0.625000   0.875000 0
  1.000000   0.750000 0
  0.875000   0.000000 0
  1.000000   0.250000 0
  0.625000   0.375000 0
  0.875000   0.500000 0
  0.625000   0.625000 0
  1.000000   0.500000 0
  0.750000   0.500000 0
  0.750000   1.000000 0
  1.000000   0.125000 0
  0.625000   0.250000 0
  0.750000   0.750000 0
  0.625000   0.000000 0
  0.125000   0.375000 0
  0.000000   0.500000 0
  0.125000   0.625000 0
  0.625000   1.000000 0
  1.000000   0.875000 0
  0.875000   0.125000 0
  0.500000   0.250000 0
  0.625000   0.500000 0
  0.250000   0.625000 0
  0.000000   0.625000 0
  0.375000   0.500000 0
  0.375000   0.000000 0
  0.000000   0.125000 0
  0.125000   0.875000 0
  0.875000   1.000000 0
  0.750000   0.250000 0
  0.375000   0.375000 0
  0.250000   0.375000 0
  0.625000   0.750000 0
  0.125000   0.125000 0
  0.500000   0.000000 0
  0.250000   0.875000 0
  0.125000   0.500000 0
  0.500000   0.375000 0
  0.125000   0.000000 0
  0.250000   0.750000 0
  0.250000   0.500000 0
  0.000000   0.875000 0
  0.875000   0.625000 0
  0.500000   0.750000 0
  0.750000   0.625000 0
  0.250000   0.000000 0
  0.375000   0.750000 0
  0.750000   0.875000 0
  0.625000   0.125000 0
  0.250000   0.250000 0
  0.375000   1.000000 0
  0.375000   0.250000 0
  0.000000   0.375000 0
  0.500000   1.000000 0
  0.875000   0.750000 0
  0.750000   0.000000 0
  0.375000   0.125000 0
  0.500000   0.875000 0
  0.000000   0.000000 0
  0.125000   0.750000 0
  0.500000   0.625000 0
  0.125000   0.250000 0
  0.500000   0.125000 0
  0.250000   1.000000 0
  0.250000   0.125000 0
  0.000000   1.000000 0
  0.375000   0.875000 0
  0.000000   0.750000 0
  0.375000   0.625000 0
  0.000000   0.250000 0
  0.125000   1.000000 0
  1.000000   0.375000 0
  0.500000   0.500000 0
  0.875000   0.375000 0
CELLS 64 320
4 56 71 58 63
4 27 58 69 63
4 41 69 32 63
4 76 33 68 40
4 27 44 58 37
4 79 31 44 37
4 56 38 68 21
4 56 58 38 37
4 52 32 71 63
4 47 38 31 37
4 76 68 59 21
4 22 59 43 21
4 65 45 33 40
4 47 43 38 21
4 52 71 45 40
4 56 68 71 40
4 74 30 66 23
4 46 66 29 23
4 22 43 30 23
4 72 48 77 34
4 46 53 42 73
4 50 64 53 73
4 70 42 57 73
4 74 66 48 34
4 46 42 66 34
4 47 29 43 23
4 70 77 42 34
4 60 57 64 73
4 79 67 31 75
4 47 31 29 75
4 50 53 67 75
4 46 29 53 75
4 10 78 6 80
4 36 6 1 80
4 15 1 12 80
4 36 4 6 26
4 14 12 78 80
4 2 17 9 26
4 36 18 4 55
4 15 28 1 11
4 62 4 20 55
4 10 6 17 26
4 27 18 44 11
4 62 9 4 26
4 27 69 18 55
4 36 1 18 11
4 41 20 69 55
4 79 44 28 11
4 16 24 54 7
4 19 54 39 7
4 50 39 64 7
4 8 25 61 3
4 60 64 24 7
4 79 28 67 13
4 19 51 61 49
4 8 61 0 49
4 15 51 28 13
4 19 39 51 13
4 50 67 39 13
4 19 61 54 3
4 14 0 12 49
4 5 35 25 3
4 15 12 51 49
4 16 54 35 3
CELL_TYPES 64
8
8
8
8
8
8
8
8
8
8
8
8
8
8
8
8
8
8
8
8
8
8
8
8
8
8
8
8
8
8
8
8
8
8
8
8
8
8
8
8
8
8
8
8
8
8
8
8
8
8
8
8
8
8
8
8
8
8
8
8
8
8
8
8
CELL_DATA 64
VECTORS vector_value float
0.65119 -0.93256 0
0.0681657 -1.35011 0
0.338847 -1.72178 0
0.275901 -2.36634 0
-0.151863 -0.483212 0
-0.282335 -0.598513 0
-0.00671774 -0.8125 0
-0.0479364 -0.73601 0
0.163332 -0.65744 0
-0.459 -0.69553 0
-0.203451 -2.48419 0
-0.059395 -2.02144 0
0.0166493 -1.9071 0
-0.622678 -0.98132 0
0.120197 -0.535528 0
0.425736 -0.40293 0
-0.111713 -0.819123 0
-0.487281 -1.36089 0
-0.467162 -1.7952 0
-0.0247648 -1.12245 0
0.0204697 -1.32462 0
-0.129989 -1.09762 0
-0.117787 -1.1692 0
0.123159 -0.904643 0
0.132464 -1.03471 0
-0.173287 -0.401783 0
-0.0432662 -0.893892 0
-0.0821808 -0.652074 0
-0.376021 -0.781147 0
-0.433166 -1.00881 0
0.210893 -0.95149 0
-0.0212292 -0.840885 0
0.0934411 -0.131806 0
0.38465 -0.654784 0
0.0916428 -0.260783 0
-0.0474884 -0.65056 0
-0.00124186 -0.0101342 0
0.00163756 -0.332673 0
-0.127713 -0.804573 0
0.2864 -1.45212 0
-0.248437 -0.815274 0
0.0661542 -0.302637 0
-0.175346 -1.56627 0
-0.0518968 -0.305181 0
-0.234617 -1.19029 0
0.192741 -1.13123 0
0.00182734 -1.72503 0
0.00713591 -1.98015 0
-0.425714 -1.09401 0
-0.153889 -0.250133 0
-0.313769 -1.48063 0
-0.0993618 -0.413649 0
-0.335636 -1.36702 0
-0.111552 -2.51488 0
-0.586641 -0.66673 0
-0.131463 -0.21062 0
-0.182734 -1.32892 0
-0.836568 -0.865309 0
-0.0220979 -2.28496 0
-0.367632 -1.49399 0
-0.00507707 -0.0195392 0
-0.25748 -0.57366 0
-0.0440168 -0.149724 0
-0.402005 -1.12769 0
