# vtk DataFile Version 2.0
Unstructured Grid by M++
ASCII
DATASET UNSTRUCTURED_GRID
POINTS 81 float
  1.000000   0.625000 0
  0.750000   0.375000 0
  1.000000   0.000000 0
  0.875000   0.875000 0
  0.750000   0.125000 0
  1.000000   1.000000 0
  0.875000   0.250000 0
  0.625000   0.875000 0
  1.000000   0.750000 0
  0.875000   0.000000 0
  1.000000   0.250000 0
  0.625000   0.375000 0
  0.875000   0.500000 0
  0.625000   0.625000 0
  1.000000   0.500000 0
  0.750000   0.500000 0
  0.750000   1.000000 0
  1.000000   0.125000 0
  0.625000   0.250000 0
  0.750000   0.750000 0
  0.625000   0.000000 0
  0.125000   0.375000 0
  0.000000   0.500000 0
  0.125000   0.625000 0
  0.625000   1.000000 0
  1.000000   0.875000 0
  0.875000   0.125000 0
  0.500000   0.250000 0
  0.625000   0.500000 0
  0.250000   0.625000 0
  0.000000   0.625000 0
  0.375000   0.500000 0
  0.375000   0.000000 0
  0.000000   0.125000 0
  0.125000   0.875000 0
  0.875000   1.000000 0
  0.750000   0.250000 0
  0.375000   0.375000 0
  0.250000   0.375000 0
  0.625000   0.750000 0
  0.125000   0.125000 0
  0.500000   0.000000 0
  0.250000   0.875000 0
  0.125000   0.500000 0
  0.500000   0.375000 0
  0.125000   0.000000 0
  0.250000   0.750000 0
  0.250000   0.500000 0
  0.000000   0.875000 0
  0.875000   0.625000 0
  0.500000   0.750000 0
  0.750000   0.625000 0
  0.250000   0.000000 0
  0.375000   0.750000 0
  0.750000   0.875000 0
  0.625000   0.125000 0
  0.250000   0.250000 0
  0.375000   1.000000 0
  0.375000   0.250000 0
  0.000000   0.375000 0
  0.500000   1.000000 0
  0.875000   0.750000 0
  0.750000   0.000000 0
  0.375000   0.125000 0
  0.500000   0.875000 0
  0.000000   0.000000 0
  0.125000   0.750000 0
  0.500000   0.625000 0
  0.125000   0.250000 0
  0.500000   0.125000 0
  0.250000   1.000000 0
  0.250000   0.125000 0
  0.000000   1.000000 0
  0.375000   0.875000 0
  0.000000   0.750000 0
  0.375000   0.625000 0
  0.000000   0.250000 0
  0.125000   1.000000 0
  1.000000   0.375000 0
  0.500000   0.500000 0
  0.875000   0.375000 0
CELLS 64 320
4 56 71 58 63
4 27 58 69 63
4 41 69 32 63
4 76 33 68 40
4 27 44 58 37
4 79 31 44 37
4 56 38 68 21
4 56 58 38 37
4 52 32 71 63
4 47 38 31 37
4 76 68 59 21
4 22 59 43 21
4 65 45 33 40
4 47 43 38 21
4 52 71 45 40
4 56 68 71 40
4 74 30 66 23
4 46 66 29 23
4 22 43 30 23
4 72 48 77 34
4 46 53 42 73
4 50 64 53 73
4 70 42 57 73
4 74 66 48 34
4 46 42 66 34
4 47 29 43 23
4 70 77 42 34
4 60 57 64 73
4 79 67 31 75
4 47 31 29 75
4 50 53 67 75
4 46 29 53 75
4 10 78 6 80
4 36 6 1 80
4 15 1 12 80
4 36 4 6 26
4 14 12 78 80
4 2 17 9 26
4 36 18 4 55
4 15 28 1 11
4 62 4 20 55
4 10 6 17 26
4 27 18 44 11
4 62 9 4 26
4 27 69 18 55
4 36 1 18 11
4 41 20 69 55
4 79 44 28 11
4 16 24 54 7
4 19 54 39 7
4 50 39 64 7
4 8 25 61 3
4 60 64 24 7
4 79 28 67 13
4 19 51 61 49
4 8 61 0 49
4 15 51 28 13
4 19 39 51 13
4 50 67 39 13
4 19 61 54 3
4 14 0 12 49
4 5 35 25 3
4 15 12 51 49
4 16 54 35 3
CELL_TYPES 64
8
8
8
8
8
8
8
8
8
8
8
8
8
8
8
8
8
8
8
8
8
8
8
8
8
8
8
8
8
8
8
8
8
8
8
8
8
8
8
8
8
8
8
8
8
8
8
8
8
8
8
8
8
8
8
8
8
8
8
8
8
8
8
8
CELL_DATA 64
VECTORS vector_value float
0.035576 -0.272894 0
0.0676161 -0.139635 0
0.106389 -0.198401 0
0.0748274 -1.81773 0
0.0375984 -0.109498 0
0.0103768 -0.16022 0
-0.019531 -0.639431 0
0.0609528 -0.368594 0
0.0440443 -0.114889 0
0.00344241 -0.237166 0
-0.0383535 -1.80132 0
-0.441315 -1.46711 0
0.141306 -1.44408 0
-0.299899 -1.09731 0
0.176188 -1.02077 0
0.0285934 -0.623382 0
0.0212199 -0.543124 0
0.0939304 -0.521767 0
-0.161994 -0.63149 0
0.050734 -0.916587 0
0.180089 -0.344743 0
0.00549202 -0.738999 0
0.534621 -0.334546 0
0.155083 -0.842715 0
0.444569 -0.815648 0
-0.961858 -1.41311 0
0.112904 -1.0534 0
1.06645 -1.23564 0
-0.0283178 -0.364009 0
-0.509388 -0.64922 0
-0.426812 -0.7147 0
-0.364294 -1.25643 0
-0.0612014 -0.216186 0
-0.359012 -2.64648 0
-0.0498738 -2.80023 0
-0.239398 -2.03179 0
-0.0222176 -0.344164 0
0.0652611 -0.286537 0
-0.332182 -2.83794 0
-0.0136562 -1.6586 0
-0.315612 -3.02288 0
-0.00224901 -0.167792 0
0.0415802 -0.0538995 0
-0.120711 -1.44861 0
0.0286048 -0.10884 0
-0.128865 -2.16459 0
-0.124938 -0.463828 0
0.13027 -0.235204 0
-0.330539 -1.26206 0
0.631676 -2.59033 0
0.579763 -1.38918 0
-0.14945 -0.402132 0
0.691731 -1.66692 0
0.0416351 -0.165175 0
0.742904 -1.58006 0
-0.0240829 -0.254227 0
-0.0398804 -1.42971 0
1.22305 -2.86836 0
0.0804757 -0.261342 0
-0.37281 -0.87625 0
0.03845 -0.305255 0
-0.190365 -1.05291 0
0.211597 -3.04203 0
-0.321972 -0.477939 0
