# vtk DataFile Version 2.0
Unstructured Grid by M++
ASCII
DATASET UNSTRUCTURED_GRID
POINTS 81 float
  1.000000   0.625000 0
  0.750000   0.375000 0
  1.000000   0.000000 0
  0.875000   0.875000 0
  0.750000   0.125000 0
  1.000000   1.000000 0
  0.875000   0.250000 0
  0.625000   0.875000 0
  1.000000   0.750000 0
  0.875000   0.000000 0
  1.000000   0.250000 0
  0.625000   0.375000 0
  0.875000   0.500000 0
  0.625000   0.625000 0
  1.000000   0.500000 0
  0.750000   0.500000 0
  0.750000   1.000000 0
  1.000000   0.125000 0
  0.625000   0.250000 0
  0.750000   0.750000 0
  0.625000   0.000000 0
  0.125000   0.375000 0
  0.000000   0.500000 0
  0.125000   0.625000 0
  0.625000   1.000000 0
  1.000000   0.875000 0
  0.875000   0.125000 0
  0.500000   0.250000 0
  0.625000   0.500000 0
  0.250000   0.625000 0
  0.000000   0.625000 0
  0.375000   0.500000 0
  0.375000   0.000000 0
  0.000000   0.125000 0
  0.125000   0.875000 0
  0.875000   1.000000 0
  0.750000   0.250000 0
  0.375000   0.375000 0
  0.250000   0.375000 0
  0.625000   0.750000 0
  0.125000   0.125000 0
  0.500000   0.000000 0
  0.250000   0.875000 0
  0.125000   0.500000 0
  0.500000   0.375000 0
  0.125000   0.000000 0
  0.250000   0.750000 0
  0.250000   0.500000 0
  0.000000   0.875000 0
  0.875000   0.625000 0
  0.500000   0.750000 0
  0.750000   0.625000 0
  0.250000   0.000000 0
  0.375000   0.750000 0
  0.750000   0.875000 0
  0.625000   0.125000 0
  0.250000   0.250000 0
  0.375000   1.000000 0
  0.375000   0.250000 0
  0.000000   0.375000 0
  0.500000   1.000000 0
  0.875000   0.750000 0
  0.750000   0.000000 0
  0.375000   0.125000 0
  0.500000   0.875000 0
  0.000000   0.000000 0
  0.125000   0.750000 0
  0.500000   0.625000 0
  0.125000   0.250000 0
  0.500000   0.125000 0
  0.250000   1.000000 0
  0.250000   0.125000 0
  0.000000   1.000000 0
  0.375000   0.875000 0
  0.000000   0.750000 0
  0.375000   0.625000 0
  0.000000   0.250000 0
  0.125000   1.000000 0
  1.000000   0.375000 0
  0.500000   0.500000 0
  0.875000   0.375000 0
CELLS 64 320
4 56 71 58 63
4 27 58 69 63
4 41 69 32 63
4 76 33 68 40
4 27 44 58 37
4 79 31 44 37
4 56 38 68 21
4 56 58 38 37
4 52 32 71 63
4 47 38 31 37
4 76 68 59 21
4 22 59 43 21
4 65 45 33 40
4 47 43 38 21
4 52 71 45 40
4 56 68 71 40
4 74 30 66 23
4 46 66 29 23
4 22 43 30 23
4 72 48 77 34
4 46 53 42 73
4 50 64 53 73
4 70 42 57 73
4 74 66 48 34
4 46 42 66 34
4 47 29 43 23
4 70 77 42 34
4 60 57 64 73
4 79 67 31 75
4 47 31 29 75
4 50 53 67 75
4 46 29 53 75
4 10 78 6 80
4 36 6 1 80
4 15 1 12 80
4 36 4 6 26
4 14 12 78 80
4 2 17 9 26
4 36 18 4 55
4 15 28 1 11
4 62 4 20 55
4 10 6 17 26
4 27 18 44 11
4 62 9 4 26
4 27 69 18 55
4 36 1 18 11
4 41 20 69 55
4 79 44 28 11
4 16 24 54 7
4 19 54 39 7
4 50 39 64 7
4 8 25 61 3
4 60 64 24 7
4 79 28 67 13
4 19 51 61 49
4 8 61 0 49
4 15 51 28 13
4 19 39 51 13
4 50 67 39 13
4 19 61 54 3
4 14 0 12 49
4 5 35 25 3
4 15 12 51 49
4 16 54 35 3
CELL_TYPES 64
8
8
8
8
8
8
8
8
8
8
8
8
8
8
8
8
8
8
8
8
8
8
8
8
8
8
8
8
8
8
8
8
8
8
8
8
8
8
8
8
8
8
8
8
8
8
8
8
8
8
8
8
8
8
8
8
8
8
8
8
8
8
8
8
CELL_DATA 64
VECTORS vector_value float
0.177499 -0.502517 0
0.327093 -0.76846 0
0.124581 -0.694791 0
-0.113623 -0.840445 0
0.139286 -0.343121 0
0.624667 -0.582237 0
-0.13557 -0.657469 0
0.172477 -0.99552 0
0.0958015 -0.457363 0
0.119767 -1.44855 0
-0.194612 -0.566281 0
-0.0393533 -0.195101 0
-0.0333295 -0.960826 0
-0.189351 -0.922656 0
0.00460372 -0.141072 0
-0.0642931 -0.37641 0
-0.0132761 -0.556618 0
0.144547 -0.414729 0
0.16482 -0.432611 0
0.229653 -0.720145 0
0.248825 -0.605281 0
0.390516 -2.08351 0
0.273733 -0.92182 0
0.0137538 -0.486811 0
0.362084 -1.26496 0
0.0796274 -0.47768 0
0.267758 -1.29051 0
-0.21765 -1.63994 0
0.272174 -0.981048 0
-0.108785 -1.94495 0
-0.046558 -1.56821 0
0.20607 -1.57065 0
-0.509227 -0.951186 0
-0.893141 -0.894325 0
-0.0578546 -0.39569 0
-0.483567 -0.513699 0
-0.160241 -1.61584 0
-0.0088113 -0.238835 0
-1.52291 -2.82122 0
0.174713 -1.00514 0
-0.285747 -1.08747 0
-0.0517663 -0.28665 0
0.308338 -1.63744 0
-0.0357362 -0.222832 0
-0.308419 -1.8906 0
0.155661 -1.95466 0
-0.84269 -4.19681 0
0.70799 -1.83479 0
-0.00266146 -0.0187652 0
-0.105817 -0.0941172 0
0.206173 -1.09214 0
-0.0322327 -2.22875 0
-0.631193 -0.918501 0
0.285436 -1.37509 0
-0.264824 -0.137213 0
-0.155588 -2.02301 0
0.13393 -0.829905 0
-0.0893898 -0.282771 0
0.281458 -1.4468 0
-0.0713638 -0.144424 0
-0.0456339 -1.71531 0
0.58145 -1.77396 0
-0.145066 -0.243409 0
0.795848 -0.716359 0
