# vtk DataFile Version 2.0
Unstructured Grid by M++
ASCII
DATASET UNSTRUCTURED_GRID
POINTS 81 float
  1.000000   0.625000 0
  0.750000   0.375000 0
  1.000000   0.000000 0
  0.875000   0.875000 0
  0.750000   0.125000 0
  1.000000   1.000000 0
  0.875000   0.250000 0
  0.625000   0.875000 0
  1.000000   0.750000 0
  0.875000   0.000000 0
  1.000000   0.250000 0
  0.625000   0.375000 0
  0.875000   0.500000 0
  0.625000   0.625000 0
  1.000000   0.500000 0
  0.750000   0.500000 0
  0.750000   1.000000 0
  1.000000   0.125000 0
  0.625000   0.250000 0
  0.750000   0.750000 0
  0.625000   0.000000 0
  0.125000   0.375000 0
  0.000000   0.500000 0
  0.125000   0.625000 0
  0.625000   1.000000 0
  1.000000   0.875000 0
  0.875000   0.125000 0
  0.500000   0.250000 0
  0.625000   0.500000 0
  0.250000   0.625000 0
  0.000000   0.625000 0
  0.375000   0.500000 0
  0.375000   0.000000 0
  0.000000   0.125000 0
  0.125000   0.875000 0
  0.875000   1.000000 0
  0.750000   0.250000 0
  0.375000   0.375000 0
  0.250000   0.375000 0
  0.625000   0.750000 0
  0.125000   0.125000 0
  0.500000   0.000000 0
  0.250000   0.875000 0
  0.125000   0.500000 0
  0.500000   0.375000 0
  0.125000   0.000000 0
  0.250000   0.750000 0
  0.250000   0.500000 0
  0.000000   0.875000 0
  0.875000   0.625000 0
  0.500000   0.750000 0
  0.750000   0.625000 0
  0.250000   0.000000 0
  0.375000   0.750000 0
  0.750000   0.875000 0
  0.625000   0.125000 0
  0.250000   0.250000 0
  0.375000   1.000000 0
  0.375000   0.250000 0
  0.000000   0.375000 0
  0.500000   1.000000 0
  0.875000   0.750000 0
  0.750000   0.000000 0
  0.375000   0.125000 0
  0.500000   0.875000 0
  0.000000   0.000000 0
  0.125000   0.750000 0
  0.500000   0.625000 0
  0.125000   0.250000 0
  0.500000   0.125000 0
  0.250000   1.000000 0
  0.250000   0.125000 0
  0.000000   1.000000 0
  0.375000   0.875000 0
  0.000000   0.750000 0
  0.375000   0.625000 0
  0.000000   0.250000 0
  0.125000   1.000000 0
  1.000000   0.375000 0
  0.500000   0.500000 0
  0.875000   0.375000 0
CELLS 64 320
4 56 71 58 63
4 27 58 69 63
4 41 69 32 63
4 76 33 68 40
4 27 44 58 37
4 79 31 44 37
4 56 38 68 21
4 56 58 38 37
4 52 32 71 63
4 47 38 31 37
4 76 68 59 21
4 22 59 43 21
4 65 45 33 40
4 47 43 38 21
4 52 71 45 40
4 56 68 71 40
4 74 30 66 23
4 46 66 29 23
4 22 43 30 23
4 72 48 77 34
4 46 53 42 73
4 50 64 53 73
4 70 42 57 73
4 74 66 48 34
4 46 42 66 34
4 47 29 43 23
4 70 77 42 34
4 60 57 64 73
4 79 67 31 75
4 47 31 29 75
4 50 53 67 75
4 46 29 53 75
4 10 78 6 80
4 36 6 1 80
4 15 1 12 80
4 36 4 6 26
4 14 12 78 80
4 2 17 9 26
4 36 18 4 55
4 15 28 1 11
4 62 4 20 55
4 10 6 17 26
4 27 18 44 11
4 62 9 4 26
4 27 69 18 55
4 36 1 18 11
4 41 20 69 55
4 79 44 28 11
4 16 24 54 7
4 19 54 39 7
4 50 39 64 7
4 8 25 61 3
4 60 64 24 7
4 79 28 67 13
4 19 51 61 49
4 8 61 0 49
4 15 51 28 13
4 19 39 51 13
4 50 67 39 13
4 19 61 54 3
4 14 0 12 49
4 5 35 25 3
4 15 12 51 49
4 16 54 35 3
CELL_TYPES 64
8
8
8
8
8
8
8
8
8
8
8
8
8
8
8
8
8
8
8
8
8
8
8
8
8
8
8
8
8
8
8
8
8
8
8
8
8
8
8
8
8
8
8
8
8
8
8
8
8
8
8
8
8
8
8
8
8
8
8
8
8
8
8
8
CELL_DATA 64
VECTORS vector_value float
0.0358118 -0.423434 0
0.0620047 -0.637348 0
0.0494321 -0.923074 0
-0.075253 -2.03349 0
0.248587 -1.03566 0
-0.819173 -1.50575 0
-1.00552 -1.90303 0
-0.354796 -0.918372 0
0.211281 -0.456391 0
-1.23743 -1.6238 0
-0.335363 -1.27588 0
-0.0042129 -1.05281 0
0.101375 -1.75767 0
-0.29741 -0.922373 0
0.212251 -1.58813 0
0.0145944 -1.54233 0
0.109709 -1.44859 0
0.0769012 -0.269691 0
0.0906885 -1.1407 0
-0.289604 -1.40122 0
0.111026 -0.1706 0
0.0812883 -0.618982 0
0.563998 -0.324105 0
0.0407205 -1.62015 0
0.090831 -0.14733 0
0.106371 -0.626091 0
-0.21438 -0.62982 0
1.06298 -0.920873 0
-0.470025 -2.28578 0
-0.280112 -0.704188 0
-0.970584 -1.30559 0
-0.0885637 -0.232663 0
-0.0788071 -0.177717 0
-0.0826703 -0.684344 0
-0.0450494 -0.535867 0
-0.102182 -0.624416 0
-0.0511763 -0.232789 0
-0.00527011 -0.0239703 0
0.0524552 -1.73799 0
-0.0451257 -1.54508 0
0.0787937 -1.7408 0
-0.00894167 -0.0372016 0
0.180864 -0.752312 0
0.056974 -0.722641 0
0.24668 -0.963799 0
0.00483816 -1.25268 0
-0.0429918 -0.787325 0
-0.232532 -0.581529 0
-0.397237 -2.151 0
-0.580551 -2.29829 0
-0.420086 -2.49769 0
-0.0298994 -0.162621 0
0.691972 -1.3334 0
-0.0641779 -0.968423 0
0.141637 -0.383865 0
0.0893766 -0.282331 0
0.0052273 -1.4766 0
0.0117426 -1.65812 0
-0.985823 -2.41915 0
-0.125554 -0.484333 0
-0.0282904 -0.36578 0
-0.375885 -0.412506 0
-0.00888422 -0.432437 0
-0.939484 -0.827075 0
