# vtk DataFile Version 2.0
Unstructured Grid by M++
ASCII
DATASET UNSTRUCTURED_GRID
POINTS 81 float
  1.000000   0.625000 0
  0.750000   0.375000 0
  1.000000   0.000000 0
  0.875000   0.875000 0
  0.750000   0.125000 0
  1.000000   1.000000 0
  0.875000   0.250000 0
  0.625000   0.875000 0
  1.000000   0.750000 0
  0.875000   0.000000 0
  1.000000   0.250000 0
  0.625000   0.375000 0
  0.875000   0.500000 0
  0.625000   0.625000 0
  1.000000   0.500000 0
  0.750000   0.500000 0
  0.750000   1.000000 0
  1.000000   0.125000 0
  0.625000   0.250000 0
  0.750000   0.750000 0
  0.625000   0.000000 0
  0.125000   0.375000 0
  0.000000   0.500000 0
  0.125000   0.625000 0
  0.625000   1.000000 0
  1.000000   0.875000 0
  0.875000   0.125000 0
  0.500000   0.250000 0
  0.625000   0.500000 0
  0.250000   0.625000 0
  0.000000   0.625000 0
  0.375000   0.500000 0
  0.375000   0.000000 0
  0.000000   0.125000 0
  0.125000   0.875000 0
  0.875000   1.000000 0
  0.750000   0.250000 0
  0.375000   0.375000 0
  0.250000   0.375000 0
  0.625000   0.750000 0
  0.125000   0.125000 0
  0.500000   0.000000 0
  0.250000   0.875000 0
  0.125000   0.500000 0
  0.500000   0.375000 0
  0.125000   0.000000 0
  0.250000   0.750000 0
  0.250000   0.500000 0
  0.000000   0.875000 0
  0.875000   0.625000 0
  0.500000   0.750000 0
  0.750000   0.625000 0
  0.250000   0.000000 0
  0.375000   0.750000 0
  0.750000   0.875000 0
  0.625000   0.125000 0
  0.250000   0.250000 0
  0.375000   1.000000 0
  0.375000   0.250000 0
  0.000000   0.375000 0
  0.500000   1.000000 0
  0.875000   0.750000 0
  0.750000   0.000000 0
  0.375000   0.125000 0
  0.500000   0.875000 0
  0.000000   0.000000 0
  0.125000   0.750000 0
  0.500000   0.625000 0
  0.125000   0.250000 0
  0.500000   0.125000 0
  0.250000   1.000000 0
  0.250000   0.125000 0
  0.000000   1.000000 0
  0.375000   0.875000 0
  0.000000   0.750000 0
  0.375000   0.625000 0
  0.000000   0.250000 0
  0.125000   1.000000 0
  1.000000   0.375000 0
  0.500000   0.500000 0
  0.875000   0.375000 0
CELLS 64 320
4 56 71 58 63
4 27 58 69 63
4 41 69 32 63
4 76 33 68 40
4 27 44 58 37
4 79 31 44 37
4 56 38 68 21
4 56 58 38 37
4 52 32 71 63
4 47 38 31 37
4 76 68 59 21
4 22 59 43 21
4 65 45 33 40
4 47 43 38 21
4 52 71 45 40
4 56 68 71 40
4 74 30 66 23
4 46 66 29 23
4 22 43 30 23
4 72 48 77 34
4 46 53 42 73
4 50 64 53 73
4 70 42 57 73
4 74 66 48 34
4 46 42 66 34
4 47 29 43 23
4 70 77 42 34
4 60 57 64 73
4 79 67 31 75
4 47 31 29 75
4 50 53 67 75
4 46 29 53 75
4 10 78 6 80
4 36 6 1 80
4 15 1 12 80
4 36 4 6 26
4 14 12 78 80
4 2 17 9 26
4 36 18 4 55
4 15 28 1 11
4 62 4 20 55
4 10 6 17 26
4 27 18 44 11
4 62 9 4 26
4 27 69 18 55
4 36 1 18 11
4 41 20 69 55
4 79 44 28 11
4 16 24 54 7
4 19 54 39 7
4 50 39 64 7
4 8 25 61 3
4 60 64 24 7
4 79 28 67 13
4 19 51 61 49
4 8 61 0 49
4 15 51 28 13
4 19 39 51 13
4 50 67 39 13
4 19 61 54 3
4 14 0 12 49
4 5 35 25 3
4 15 12 51 49
4 16 54 35 3
CELL_TYPES 64
8
8
8
8
8
8
8
8
8
8
8
8
8
8
8
8
8
8
8
8
8
8
8
8
8
8
8
8
8
8
8
8
8
8
8
8
8
8
8
8
8
8
8
8
8
8
8
8
8
8
8
8
8
8
8
8
8
8
8
8
8
8
8
8
CELL_DATA 64
VECTORS vector_value float
0.129798 -0.182974 0
0.647856 -1.00199 0
0.0202835 -0.490748 0
-0.0432549 -0.193817 0
-0.0665142 -0.948124 0
-0.185471 -0.635985 0
0.0183384 -0.182708 0
0.110628 -0.505072 0
0.00156816 -0.10311 0
0.00680487 -0.372716 0
0.00293222 -0.105559 0
0.0348473 -0.177077 0
-0.0105503 -0.228194 0
0.0989711 -0.155381 0
-0.010338 -0.0157954 0
-0.020473 -0.0381785 0
0.220236 -0.523188 0
0.784866 -0.533255 0
0.0902466 -0.333372 0
-0.0210556 -1.02879 0
0.337836 -0.143245 0
0.0908948 -0.312954 0
0.681098 -0.358077 0
0.110743 -1.04611 0
0.207032 -0.545676 0
0.104285 -0.14551 0
0.0795035 -0.848917 0
1.55293 -0.990011 0
0.0919728 -0.731113 0
0.132664 -0.190862 0
0.758958 -0.661097 0
0.80432 -0.0511233 0
-0.321602 -3.23814 0
-0.0415831 -0.698057 0
0.527363 -1.65036 0
-0.508826 -2.67001 0
0.94694 -2.76783 0
-0.272842 -0.737287 0
1.73297 -2.02143 0
0.16953 -0.324427 0
0.167255 -0.382543 0
-0.741084 -1.72067 0
0.116866 -0.610479 0
0.693848 -5.78291 0
0.89927 -0.170926 0
0.161976 -1.71186 0
0.112986 -0.259414 0
0.203363 -1.91622 0
0.160654 -1.42149 0
-0.304125 -3.79398 0
0.34497 -1.57943 0
-0.00013436 -0.30118 0
1.3565 -1.31584 0
0.0754444 -1.6991 0
0.254218 -0.476608 0
0.0348393 -0.316551 0
1.04713 -1.84991 0
1.10396 -3.33497 0
0.441883 -2.10321 0
0.0147579 -0.27743 0
0.52534 -0.980517 0
-0.348287 -0.64539 0
2.35021 -2.06962 0
-1.04561 -1.39148 0
