# vtk DataFile Version 2.0
Unstructured Grid by M++
ASCII
DATASET UNSTRUCTURED_GRID
POINTS 81 float
  1.000000   0.625000 0
  0.750000   0.375000 0
  1.000000   0.000000 0
  0.875000   0.875000 0
  0.750000   0.125000 0
  1.000000   1.000000 0
  0.875000   0.250000 0
  0.625000   0.875000 0
  1.000000   0.750000 0
  0.875000   0.000000 0
  1.000000   0.250000 0
  0.625000   0.375000 0
  0.875000   0.500000 0
  0.625000   0.625000 0
  1.000000   0.500000 0
  0.750000   0.500000 0
  0.750000   1.000000 0
  1.000000   0.125000 0
  0.625000   0.250000 0
  0.750000   0.750000 0
  0.625000   0.000000 0
  0.125000   0.375000 0
  0.000000   0.500000 0
  0.125000   0.625000 0
  0.625000   1.000000 0
  1.000000   0.875000 0
  0.875000   0.125000 0
  0.500000   0.250000 0
  0.625000   0.500000 0
  0.250000   0.625000 0
  0.000000   0.625000 0
  0.375000   0.500000 0
  0.375000   0.000000 0
  0.000000   0.125000 0
  0.125000   0.875000 0
  0.875000   1.000000 0
  0.750000   0.250000 0
  0.375000   0.375000 0
  0.250000   0.375000 0
  0.625000   0.750000 0
  0.125000   0.125000 0
  0.500000   0.000000 0
  0.250000   0.875000 0
  0.125000   0.500000 0
  0.500000   0.375000 0
  0.125000   0.000000 0
  0.250000   0.750000 0
  0.250000   0.500000 0
  0.000000   0.875000 0
  0.875000   0.625000 0
  0.500000   0.750000 0
  0.750000   0.625000 0
  0.250000   0.000000 0
  0.375000   0.750000 0
  0.750000   0.875000 0
  0.625000   0.125000 0
  0.250000   0.250000 0
  0.375000   1.000000 0
  0.375000   0.250000 0
  0.000000   0.375000 0
  0.500000   1.000000 0
  0.875000   0.750000 0
  0.750000   0.000000 0
  0.375000   0.125000 0
  0.500000   0.875000 0
  0.000000   0.000000 0
  0.125000   0.750000 0
  0.500000   0.625000 0
  0.125000   0.250000 0
  0.500000   0.125000 0
  0.250000   1.000000 0
  0.250000   0.125000 0
  0.000000   1.000000 0
  0.375000   0.875000 0
  0.000000   0.750000 0
  0.375000   0.625000 0
  0.000000   0.250000 0
  0.125000   1.000000 0
  1.000000   0.375000 0
  0.500000   0.500000 0
  0.875000   0.375000 0
CELLS 64 320
4 56 71 58 63
4 27 58 69 63
4 41 69 32 63
4 76 33 68 40
4 27 44 58 37
4 79 31 44 37
4 56 38 68 21
4 56 58 38 37
4 52 32 71 63
4 47 38 31 37
4 76 68 59 21
4 22 59 43 21
4 65 45 33 40
4 47 43 38 21
4 52 71 45 40
4 56 68 71 40
4 74 30 66 23
4 46 66 29 23
4 22 43 30 23
4 72 48 77 34
4 46 53 42 73
4 50 64 53 73
4 70 42 57 73
4 74 66 48 34
4 46 42 66 34
4 47 29 43 23
4 70 77 42 34
4 60 57 64 73
4 79 67 31 75
4 47 31 29 75
4 50 53 67 75
4 46 29 53 75
4 10 78 6 80
4 36 6 1 80
4 15 1 12 80
4 36 4 6 26
4 14 12 78 80
4 2 17 9 26
4 36 18 4 55
4 15 28 1 11
4 62 4 20 55
4 10 6 17 26
4 27 18 44 11
4 62 9 4 26
4 27 69 18 55
4 36 1 18 11
4 41 20 69 55
4 79 44 28 11
4 16 24 54 7
4 19 54 39 7
4 50 39 64 7
4 8 25 61 3
4 60 64 24 7
4 79 28 67 13
4 19 51 61 49
4 8 61 0 49
4 15 51 28 13
4 19 39 51 13
4 50 67 39 13
4 19 61 54 3
4 14 0 12 49
4 5 35 25 3
4 15 12 51 49
4 16 54 35 3
CELL_TYPES 64
8
8
8
8
8
8
8
8
8
8
8
8
8
8
8
8
8
8
8
8
8
8
8
8
8
8
8
8
8
8
8
8
8
8
8
8
8
8
8
8
8
8
8
8
8
8
8
8
8
8
8
8
8
8
8
8
8
8
8
8
8
8
8
8
CELL_DATA 64
VECTORS vector_value float
0.121052 -0.083767 0
0.185764 -0.320468 0
0.0408353 -0.215838 0
0.396924 -2.90949 0
0.00964258 -0.167018 0
-0.0649967 -0.17721 0
0.264553 -2.42396 0
0.107942 -0.170009 0
0.088543 -0.238038 0
-0.0739946 -0.0880682 0
0.162422 -3.32144 0
-0.0879895 -3.39292 0
0.0559707 -2.18948 0
-0.500547 -2.3779 0
0.137525 -3.22539 0
0.450932 -2.71881 0
-0.160849 -1.99688 0
-0.280627 -0.647395 0
-0.566388 -2.81353 0
-0.367493 -1.65255 0
-0.00766772 -0.639675 0
-0.358631 -0.809628 0
-0.395917 -0.659 0
-0.0180076 -1.73008 0
-0.0057718 -0.840058 0
-1.66786 -1.56541 0
-0.677461 -0.84846 0
0.169077 -0.37373 0
-0.60915 -1.01143 0
-1.94478 -0.75263 0
-1.62656 -1.78152 0
-0.914309 -1.02292 0
-0.0246925 -0.339304 0
-0.064749 -0.386311 0
-0.257672 -0.531878 0
0.026965 -0.527295 0
-0.0536604 -0.426394 0
0.00480117 -0.344384 0
-0.0682867 -0.602204 0
-0.291243 -0.549747 0
-0.0699157 -0.663403 0
0.00314607 -0.326297 0
-0.00591782 -0.24868 0
-0.032749 -0.379232 0
-0.0616172 -0.511664 0
-0.00778043 -0.943278 0
0.0482414 -0.744233 0
0.0372469 -0.455876 0
0.0378047 -1.22642 0
-0.520428 -0.633616 0
-0.84922 -1.24539 0
0.182729 -1.29936 0
0.308424 -1.04931 0
-0.128537 -0.160448 0
-0.143292 -0.440903 0
-0.102468 -1.33974 0
-0.275454 -0.197181 0
-0.261032 -0.182257 0
-1.08144 -0.588382 0
-0.0887179 -0.802186 0
-0.339493 -0.909461 0
0.00262998 -0.822325 0
-0.598604 -0.589921 0
0.18736 -1.3682 0
