# vtk DataFile Version 2.0
Unstructured Grid by M++
ASCII
DATASET UNSTRUCTURED_GRID
POINTS 81 float
  1.000000   0.625000 0
  0.750000   0.375000 0
  1.000000   0.000000 0
  0.875000   0.875000 0
  0.750000   0.125000 0
  1.000000   1.000000 0
  0.875000   0.250000 0
  0.625000   0.875000 0
  1.000000   0.750000 0
  0.875000   0.000000 0
  1.000000   0.250000 0
  0.625000   0.375000 0
  0.875000   0.500000 0
  0.625000   0.625000 0
  1.000000   0.500000 0
  0.750000   0.500000 0
  0.750000   1.000000 0
  1.000000   0.125000 0
  0.625000   0.250000 0
  0.750000   0.750000 0
  0.625000   0.000000 0
  0.125000   0.375000 0
  0.000000   0.500000 0
  0.125000   0.625000 0
  0.625000   1.000000 0
  1.000000   0.875000 0
  0.875000   0.125000 0
  0.500000   0.250000 0
  0.625000   0.500000 0
  0.250000   0.625000 0
  0.000000   0.625000 0
  0.375000   0.500000 0
  0.375000   0.000000 0
  0.000000   0.125000 0
  0.125000   0.875000 0
  0.875000   1.000000 0
  0.750000   0.250000 0
  0.375000   0.375000 0
  0.250000   0.375000 0
  0.625000   0.750000 0
  0.125000   0.125000 0
  0.500000   0.000000 0
  0.250000   0.875000 0
  0.125000   0.500000 0
  0.500000   0.375000 0
  0.125000   0.000000 0
  0.250000   0.750000 0
  0.250000   0.500000 0
  0.000000   0.875000 0
  0.875000   0.625000 0
  0.500000   0.750000 0
  0.750000   0.625000 0
  0.250000   0.000000 0
  0.375000   0.750000 0
  0.750000   0.875000 0
  0.625000   0.125000 0
  0.250000   0.250000 0
  0.375000   1.000000 0
  0.375000   0.250000 0
  0.000000   0.375000 0
  0.500000   1.000000 0
  0.875000   0.750000 0
  0.750000   0.000000 0
  0.375000   0.125000 0
  0.500000   0.875000 0
  0.000000   0.000000 0
  0.125000   0.750000 0
  0.500000   0.625000 0
  0.125000   0.250000 0
  0.500000   0.125000 0
  0.250000   1.000000 0
  0.250000   0.125000 0
  0.000000   1.000000 0
  0.375000   0.875000 0
  0.000000   0.750000 0
  0.375000   0.625000 0
  0.000000   0.250000 0
  0.125000   1.000000 0
  1.000000   0.375000 0
  0.500000   0.500000 0
  0.875000   0.375000 0
CELLS 64 320
4 56 71 58 63
4 27 58 69 63
4 41 69 32 63
4 76 33 68 40
4 27 44 58 37
4 79 31 44 37
4 56 38 68 21
4 56 58 38 37
4 52 32 71 63
4 47 38 31 37
4 76 68 59 21
4 22 59 43 21
4 65 45 33 40
4 47 43 38 21
4 52 71 45 40
4 56 68 71 40
4 74 30 66 23
4 46 66 29 23
4 22 43 30 23
4 72 48 77 34
4 46 53 42 73
4 50 64 53 73
4 70 42 57 73
4 74 66 48 34
4 46 42 66 34
4 47 29 43 23
4 70 77 42 34
4 60 57 64 73
4 79 67 31 75
4 47 31 29 75
4 50 53 67 75
4 46 29 53 75
4 10 78 6 80
4 36 6 1 80
4 15 1 12 80
4 36 4 6 26
4 14 12 78 80
4 2 17 9 26
4 36 18 4 55
4 15 28 1 11
4 62 4 20 55
4 10 6 17 26
4 27 18 44 11
4 62 9 4 26
4 27 69 18 55
4 36 1 18 11
4 41 20 69 55
4 79 44 28 11
4 16 24 54 7
4 19 54 39 7
4 50 39 64 7
4 8 25 61 3
4 60 64 24 7
4 79 28 67 13
4 19 51 61 49
4 8 61 0 49
4 15 51 28 13
4 19 39 51 13
4 50 67 39 13
4 19 61 54 3
4 14 0 12 49
4 5 35 25 3
4 15 12 51 49
4 16 54 35 3
CELL_TYPES 64
8
8
8
8
8
8
8
8
8
8
8
8
8
8
8
8
8
8
8
8
8
8
8
8
8
8
8
8
8
8
8
8
8
8
8
8
8
8
8
8
8
8
8
8
8
8
8
8
8
8
8
8
8
8
8
8
8
8
8
8
8
8
8
8
CELL_DATA 64
VECTORS vector_value float
-0.404917 -1.09735 0
-0.756609 -0.497461 0
-0.606408 -0.771701 0
0.0991751 -0.145401 0
-0.297029 -0.49259 0
-0.179175 -0.45011 0
-0.00230062 -0.104582 0
-0.13558 -0.352573 0
-0.130494 -1.82904 0
-0.0539144 -0.131633 0
0.0666283 -0.402168 0
-0.0592853 -0.412495 0
0.0143851 -0.0735042 0
-0.0263777 -0.0632971 0
0.0431864 -0.23309 0
0.22602 -0.296883 0
0.0235869 -0.284825 0
0.0653601 -0.158329 0
-0.0162938 -0.284669 0
0.245342 -0.640563 0
0.868093 -0.403145 0
1.42196 -0.789452 0
1.06152 -0.758289 0
0.0921072 -0.374784 0
0.343797 -0.307384 0
-0.0669351 -0.174397 0
0.734398 -0.744249 0
1.15981 -0.974728 0
-0.0639075 -0.385515 0
-0.0287534 -0.0726757 0
0.198801 -0.466021 0
0.0811873 -0.112452 0
-0.137227 -0.633242 0
0.0937279 -2.61415 0
0.0639073 -0.877624 0
-0.934155 -2.73421 0
-0.317492 -1.36913 0
-0.00424715 -0.229978 0
-0.926905 -1.90475 0
0.645068 -3.13278 0
-0.432751 -2.6599 0
-0.152765 -0.35753 0
-0.269508 -1.29081 0
-0.0713154 -1.43653 0
-0.769394 -0.966416 0
0.116743 -2.10989 0
-0.405785 -0.766259 0
0.00392345 -1.56293 0
-0.759007 -1.12138 0
0.350924 -1.03127 0
0.998183 -3.88756 0
0.219203 -0.689172 0
0.311457 -2.39056 0
0.496072 -2.72206 0
0.523327 -0.52173 0
0.275077 -1.22761 0
0.524468 -2.26127 0
0.905794 -1.39497 0
0.776957 -3.83407 0
0.341038 -0.517236 0
0.03278 -1.40837 0
-0.301048 -0.490108 0
0.0801315 -0.691041 0
-0.660304 -0.880121 0
