# vtk DataFile Version 2.0
Unstructured Grid by M++
ASCII
DATASET UNSTRUCTURED_GRID
POINTS 81 float
  1.000000   0.625000 0
  0.750000   0.375000 0
  1.000000   0.000000 0
  0.875000   0.875000 0
  0.750000   0.125000 0
  1.000000   1.000000 0
  0.875000   0.250000 0
  0.625000   0.875000 0
  1.000000   0.750000 0
  0.875000   0.000000 0
  1.000000   0.250000 0
  0.625000   0.375000 0
  0.875000   0.500000 0
  0.625000   0.625000 0
  1.000000   0.500000 0
  0.750000   0.500000 0
  0.750000   1.000000 0
  1.000000   0.125000 0
  0.625000   0.250000 0
  0.750000   0.750000 0
  0.625000   0.000000 0
  0.125000   0.375000 0
  0.000000   0.500000 0
  0.125000   0.625000 0
  0.625000   1.000000 0
  1.000000   0.875000 0
  0.875000   0.125000 0
  0.500000   0.250000 0
  0.625000   0.500000 0
  0.250000   0.625000 0
  0.000000   0.625000 0
  0.375000   0.500000 0
  0.375000   0.000000 0
  0.000000   0.125000 0
  0.125000   0.875000 0
  0.875000   1.000000 0
  0.750000   0.250000 0
  0.375000   0.375000 0
  0.250000   0.375000 0
  0.625000   0.750000 0
  0.125000   0.125000 0
  0.500000   0.000000 0
  0.250000   0.875000 0
  0.125000   0.500000 0
  0.500000   0.375000 0
  0.125000   0.000000 0
  0.250000   0.750000 0
  0.250000   0.500000 0
  0.000000   0.875000 0
  0.875000   0.625000 0
  0.500000   0.750000 0
  0.750000   0.625000 0
  0.250000   0.000000 0
  0.375000   0.750000 0
  0.750000   0.875000 0
  0.625000   0.125000 0
  0.250000   0.250000 0
  0.375000   1.000000 0
  0.375000   0.250000 0
  0.000000   0.375000 0
  0.500000   1.000000 0
  0.875000   0.750000 0
  0.750000   0.000000 0
  0.375000   0.125000 0
  0.500000   0.875000 0
  0.000000   0.000000 0
  0.125000   0.750000 0
  0.500000   0.625000 0
  0.125000   0.250000 0
  0.500000   0.125000 0
  0.250000   1.000000 0
  0.250000   0.125000 0
  0.000000   1.000000 0
  0.375000   0.875000 0
  0.000000   0.750000 0
  0.375000   0.625000 0
  0.000000   0.250000 0
  0.125000   1.000000 0
  1.000000   0.375000 0
  0.500000   0.500000 0
  0.875000   0.375000 0
CELLS 64 320
4 56 71 58 63
4 27 58 69 63
4 41 69 32 63
4 76 33 68 40
4 27 44 58 37
4 79 31 44 37
4 56 38 68 21
4 56 58 38 37
4 52 32 71 63
4 47 38 31 37
4 76 68 59 21
4 22 59 43 21
4 65 45 33 40
4 47 43 38 21
4 52 71 45 40
4 56 68 71 40
4 74 30 66 23
4 46 66 29 23
4 22 43 30 23
4 72 48 77 34
4 46 53 42 73
4 50 64 53 73
4 70 42 57 73
4 74 66 48 34
4 46 42 66 34
4 47 29 43 23
4 70 77 42 34
4 60 57 64 73
4 79 67 31 75
4 47 31 29 75
4 50 53 67 75
4 46 29 53 75
4 10 78 6 80
4 36 6 1 80
4 15 1 12 80
4 36 4 6 26
4 14 12 78 80
4 2 17 9 26
4 36 18 4 55
4 15 28 1 11
4 62 4 20 55
4 10 6 17 26
4 27 18 44 11
4 62 9 4 26
4 27 69 18 55
4 36 1 18 11
4 41 20 69 55
4 79 44 28 11
4 16 24 54 7
4 19 54 39 7
4 50 39 64 7
4 8 25 61 3
4 60 64 24 7
4 79 28 67 13
4 19 51 61 49
4 8 61 0 49
4 15 51 28 13
4 19 39 51 13
4 50 67 39 13
4 19 61 54 3
4 14 0 12 49
4 5 35 25 3
4 15 12 51 49
4 16 54 35 3
CELL_TYPES 64
8
8
8
8
8
8
8
8
8
8
8
8
8
8
8
8
8
8
8
8
8
8
8
8
8
8
8
8
8
8
8
8
8
8
8
8
8
8
8
8
8
8
8
8
8
8
8
8
8
8
8
8
8
8
8
8
8
8
8
8
8
8
8
8
CELL_DATA 64
VECTORS vector_value float
-0.0835296 -0.320527 0
-0.107971 -0.255625 0
-0.00221573 -0.011556 0
-0.266212 -2.66537 0
-0.0136804 -0.30207 0
-0.377894 -0.478198 0
-1.57666 -1.51963 0
-0.891539 -1.67968 0
-0.138721 -0.382442 0
0.0646311 -1.82212 0
-0.368111 -1.20534 0
0.0677523 -1.02253 0
0.215213 -1.95288 0
0.964346 -1.34006 0
0.292973 -2.30056 0
-0.154301 -1.43553 0
-0.256606 -2.13356 0
-0.204982 -1.20139 0
0.606758 -2.47495 0
-0.00547012 -0.977181 0
-0.0901226 -0.160232 0
0.0245224 -0.578582 0
-0.843553 -1.57935 0
-0.433894 -1.32074 0
-1.19416 -1.97874 0
0.289113 -0.751916 0
0.0293355 -0.716677 0
-0.259552 -1.08975 0
-0.185645 -0.936089 0
0.0188613 -0.391476 0
-0.219589 -0.386668 0
-0.003805 -0.240802 0
0.272087 -1.32697 0
0.658427 -1.85469 0
0.259889 -1.59191 0
-0.217943 -0.975853 0
-0.00209272 -1.18574 0
-0.0434989 -1.65108 0
-0.0077682 -0.0534439 0
0.26982 -0.477719 0
-0.0510936 -0.243423 0
-0.0128804 -2.24489 0
0.015741 -0.0446054 0
-0.163774 -1.42328 0
0.0333486 -0.0487535 0
0.074475 -0.067027 0
0.0135394 -0.0347891 0
-0.0798923 -0.081716 0
-1.13599 -0.817673 0
-0.379586 -0.587848 0
0.226706 -2.65817 0
-0.0602013 -0.297082 0
-0.869636 -1.56486 0
-0.0289757 -0.129409 0
0.627364 -0.574525 0
0.109478 -0.408906 0
0.549296 -1.33254 0
1.36839 -1.13863 0
0.526596 -1.91551 0
-0.360269 -0.418599 0
0.356183 -1.17901 0
-0.300786 -0.919123 0
0.722217 -0.804613 0
-0.690491 -0.335383 0
