# vtk DataFile Version 2.0
Unstructured Grid by M++
ASCII
DATASET UNSTRUCTURED_GRID
POINTS 289 float
  0.562500   1.000000 0
  0.562500   0.625000 0
  0.625000   1.000000 0
  0.562500   0.937500 0
  0.562500   0.562500 0
  0.625000   0.937500 0
  0.562500   0.875000 0
  0.625000   0.750000 0
  0.625000   0.625000 0
  0.562500   0.812500 0
  0.562500   0.750000 0
  0.562500   0.687500 0
  0.625000   0.875000 0
  0.625000   0.812500 0
  0.625000   0.687500 0
  0.687500   0.125000 0
  0.875000   0.062500 0
  0.625000   0.125000 0
  0.625000   0.187500 0
  0.625000   0.250000 0
  0.812500   0.187500 0
  1.000000   0.125000 0
  0.687500   0.187500 0
  0.750000   0.125000 0
  0.937500   0.062500 0
  0.937500   0.125000 0
  0.750000   0.187500 0
  0.812500   0.062500 0
  0.812500   0.125000 0
  0.875000   0.687500 0
  0.187500   0.250000 0
  0.437500   0.250000 0
  0.375000   0.187500 0
  0.812500   0.625000 0
  0.125000   0.187500 0
  0.937500   0.750000 0
  0.250000   0.312500 0
  0.500000   0.312500 0
  0.625000   0.062500 0
  0.437500   0.500000 0
  0.375000   0.125000 0
  0.437500   0.187500 0
  0.437500   0.437500 0
  0.437500   0.375000 0
  0.875000   0.875000 0
  0.187500   0.375000 0
  0.687500   0.562500 0
  0.687500   0.625000 0
  0.000000   0.125000 0
  0.937500   0.625000 0
  0.250000   0.125000 0
  0.375000   0.062500 0
  0.375000   0.000000 0
  0.812500   0.500000 0
  0.125000   0.000000 0
  0.937500   0.937500 0
  0.250000   0.437500 0
  0.687500   0.875000 0
  0.687500   0.937500 0
  0.000000   0.437500 0
  0.500000   0.500000 0
  0.500000   0.437500 0
  0.750000   0.937500 0
  0.750000   1.000000 0
  0.062500   0.500000 0
  1.000000   1.000000 0
  0.312500   0.500000 0
  0.875000   0.562500 0
  0.187500   0.062500 0
  0.437500   0.125000 0
  0.437500   0.062500 0
  0.500000   0.375000 0
  0.937500   0.812500 0
  0.937500   0.875000 0
  0.250000   0.375000 0
  0.687500   0.812500 0
  0.000000   0.375000 0
  0.750000   0.562500 0
  0.062500   0.125000 0
  1.000000   0.562500 0
  1.000000   0.625000 0
  0.312500   0.125000 0
  0.562500   0.125000 0
  0.437500   0.000000 0
  0.875000   0.437500 0
  0.875000   0.500000 0
  0.187500   0.000000 0
  0.937500   0.562500 0
  0.937500   0.500000 0
  0.250000   0.062500 0
  0.687500   0.500000 0
  0.000000   0.062500 0
  0.500000   0.062500 0
  1.000000   0.875000 0
  1.000000   0.937500 0
  0.312500   0.437500 0
  0.750000   0.875000 0
  0.062500   0.437500 0
  0.812500   0.937500 0
  0.125000   0.500000 0
  0.375000   0.500000 0
  0.625000   0.562500 0
  0.625000   0.500000 0
  0.437500   0.312500 0
  0.875000   0.812500 0
  0.875000   0.750000 0
  0.187500   0.312500 0
  0.812500   0.687500 0
  0.812500   0.750000 0
  0.125000   0.250000 0
  0.375000   0.250000 0
  1.000000   0.687500 0
  0.312500   0.187500 0
  0.750000   0.687500 0
  0.750000   0.625000 0
  0.062500   0.187500 0
  0.562500   0.250000 0
  0.562500   0.187500 0
  0.375000   1.000000 0
  0.500000   0.562500 0
  0.500000   0.250000 0
  0.750000   0.250000 0
  0.500000   0.125000 0
  0.500000   0.187500 0
  1.000000   0.187500 0
  0.625000   0.375000 0
  0.875000   0.375000 0
  1.000000   0.437500 0
  0.312500   0.000000 0
  0.562500   0.000000 0
  0.812500   0.000000 0
  0.250000   0.687500 0
  0.000000   0.687500 0
  0.500000   1.000000 0
  0.250000   1.000000 0
  0.000000   1.000000 0
  0.437500   0.687500 0
  0.437500   0.625000 0
  0.187500   0.625000 0
  0.687500   0.750000 0
  0.000000   0.312500 0
  0.000000   0.250000 0
  0.375000   0.375000 0
  0.375000   0.312500 0
  0.812500   0.812500 0
  0.125000   0.312500 0
  0.875000   0.625000 0
  0.187500   0.187500 0
  0.187500   0.125000 0
  0.937500   1.000000 0
  0.250000   0.562500 0
  0.250000   0.500000 0
  0.687500   1.000000 0
  0.000000   0.500000 0
  0.687500   0.687500 0
  0.000000   0.187500 0
  0.937500   0.687500 0
  0.250000   0.250000 0
  0.250000   0.187500 0
  0.187500   0.687500 0
  0.000000   0.750000 0
  0.250000   0.750000 0
  0.125000   0.625000 0
  0.750000   0.750000 0
  0.062500   0.250000 0
  0.875000   0.937500 0
  0.187500   0.500000 0
  0.187500   0.437500 0
  0.812500   0.562500 0
  0.125000   0.125000 0
  0.125000   0.062500 0
  0.375000   0.625000 0
  0.375000   0.687500 0
  1.000000   0.750000 0
  0.312500   0.250000 0
  0.312500   0.312500 0
  0.812500   0.312500 0
  0.562500   0.312500 0
  0.375000   0.750000 0
  0.500000   0.625000 0
  0.250000   0.625000 0
  0.312500   0.687500 0
  0.750000   0.812500 0
  0.062500   0.312500 0
  0.062500   0.375000 0
  1.000000   0.812500 0
  0.312500   0.375000 0
  0.562500   0.375000 0
  0.687500   0.437500 0
  0.000000   0.000000 0
  0.500000   0.000000 0
  0.937500   0.437500 0
  0.250000   0.000000 0
  0.375000   0.437500 0
  0.812500   0.875000 0
  0.125000   0.375000 0
  0.125000   0.437500 0
  0.625000   0.437500 0
  1.000000   0.500000 0
  0.312500   0.062500 0
  0.750000   0.500000 0
  0.062500   0.000000 0
  0.062500   0.062500 0
  0.562500   0.062500 0
  0.062500   0.750000 0
  0.312500   0.750000 0
  0.312500   0.625000 0
  0.312500   0.562500 0
  0.062500   0.562500 0
  0.187500   1.000000 0
  0.437500   0.562500 0
  0.875000   1.000000 0
  0.187500   0.562500 0
  0.500000   0.937500 0
  0.250000   0.937500 0
  0.312500   1.000000 0
  0.125000   0.750000 0
  0.125000   0.687500 0
  1.000000   0.000000 0
  0.000000   0.937500 0
  0.000000   0.875000 0
  0.875000   0.125000 0
  0.875000   0.187500 0
  0.062500   0.812500 0
  0.312500   0.812500 0
  0.000000   0.812500 0
  0.000000   0.625000 0
  0.000000   0.562500 0
  0.062500   1.000000 0
  0.062500   0.937500 0
  0.937500   0.187500 0
  0.937500   0.250000 0
  0.062500   0.687500 0
  0.062500   0.625000 0
  0.125000   1.000000 0
  1.000000   0.250000 0
  1.000000   0.312500 0
  0.062500   0.875000 0
  0.125000   0.812500 0
  0.375000   0.812500 0
  0.125000   0.875000 0
  0.375000   0.937500 0
  0.375000   0.875000 0
  0.187500   0.750000 0
  0.187500   0.812500 0
  0.437500   0.812500 0
  0.187500   0.875000 0
  0.437500   0.875000 0
  0.375000   0.562500 0
  0.812500   1.000000 0
  0.125000   0.562500 0
  0.437500   1.000000 0
  0.437500   0.937500 0
  0.187500   0.937500 0
  0.125000   0.937500 0
  0.500000   0.687500 0
  0.500000   0.750000 0
  0.500000   0.812500 0
  0.250000   0.812500 0
  0.250000   0.875000 0
  0.500000   0.875000 0
  0.437500   0.750000 0
  0.312500   0.875000 0
  0.312500   0.937500 0
  0.687500   0.250000 0
  0.687500   0.312500 0
  0.937500   0.312500 0
  0.875000   0.250000 0
  0.625000   0.000000 0
  0.875000   0.000000 0
  0.687500   0.375000 0
  0.937500   0.375000 0
  0.875000   0.312500 0
  0.625000   0.312500 0
  0.687500   0.000000 0
  0.937500   0.000000 0
  0.750000   0.312500 0
  0.750000   0.375000 0
  1.000000   0.375000 0
  0.812500   0.250000 0
  0.562500   0.437500 0
  0.562500   0.500000 0
  0.687500   0.062500 0
  0.750000   0.437500 0
  0.750000   0.000000 0
  0.750000   0.062500 0
  1.000000   0.062500 0
  0.812500   0.375000 0
  0.812500   0.437500 0
CELLS 256 1280
4 169 170 148 68
4 151 166 56 167
4 195 45 196 167
4 54 170 201 202
4 109 34 30 147
4 40 32 81 112
4 192 89 86 68
4 48 91 78 202
4 99 64 196 97
4 71 43 37 103
4 74 186 56 95
4 109 164 34 115
4 50 81 158 112
4 122 69 92 70
4 195 145 45 106
4 110 143 174 175
4 157 30 158 147
4 40 69 32 41
4 50 158 148 147
4 141 155 164 115
4 122 123 69 41
4 142 186 143 175
4 60 39 61 42
4 40 51 69 70
4 120 31 123 41
4 157 174 36 175
4 50 148 89 68
4 48 78 155 115
4 52 83 51 70
4 151 56 66 95
4 71 61 43 42
4 169 148 34 147
4 100 193 39 42
4 40 81 51 199
4 110 174 32 112
4 109 30 145 106
4 100 66 193 95
4 169 34 78 115
4 190 92 83 70
4 50 89 81 199
4 54 86 170 68
4 74 56 45 167
4 142 143 43 103
4 153 59 64 97
4 99 196 166 167
4 169 78 170 202
4 142 193 186 95
4 192 128 89 199
4 74 45 36 106
4 110 31 143 103
4 76 184 59 97
4 142 43 193 42
4 52 51 128 199
4 189 201 91 202
4 120 37 31 103
4 74 36 186 175
4 195 196 184 97
4 141 164 140 183
4 157 158 174 112
4 109 145 164 183
4 195 184 145 183
4 110 32 31 41
4 157 36 30 106
4 76 140 184 183
4 171 172 206 181
4 178 172 261 136
4 256 261 255 136
4 256 257 261 245
4 180 150 206 207
4 60 119 39 210
4 118 215 241 263
4 178 205 172 181
4 216 243 238 244
4 162 217 233 232
4 180 206 131 181
4 179 137 119 210
4 216 204 217 232
4 220 237 219 229
4 216 217 243 159
4 259 258 262 224
4 240 254 237 229
4 153 64 227 208
4 161 205 258 224
4 240 237 238 223
4 226 227 233 208
4 234 228 254 229
4 171 248 137 210
4 160 132 204 232
4 180 131 138 159
4 133 251 213 252
4 171 206 248 207
4 162 138 217 159
4 161 258 243 244
4 220 225 237 223
4 151 150 166 212
4 260 247 257 245
4 259 262 214 263
4 151 66 150 207
4 234 254 209 253
4 162 233 250 208
4 242 241 262 263
4 171 137 172 136
4 161 243 131 159
4 160 204 225 223
4 161 131 205 181
4 179 255 137 136
4 216 238 204 223
4 100 39 248 210
4 260 213 247 252
4 226 233 132 232
4 134 214 215 263
4 180 138 150 212
4 178 261 239 245
4 259 246 258 244
4 178 239 205 224
4 240 238 246 244
4 242 262 239 224
4 99 250 64 208
4 240 246 254 253
4 242 239 247 245
4 135 219 228 229
4 99 166 250 212
4 259 214 246 253
4 118 241 251 252
4 100 248 66 207
4 134 209 214 253
4 162 250 138 212
4 242 247 241 252
4 71 187 61 280
4 102 281 197 280
4 122 92 82 203
4 17 18 82 117
4 122 82 123 117
4 19 264 273 265
4 267 279 222 20
4 125 273 270 265
4 267 272 279 176
4 19 116 18 117
4 21 25 286 24
4 23 28 26 20
4 23 285 28 27
4 218 286 275 24
4 85 53 84 288
4 235 236 231 266
4 221 222 28 20
4 267 222 231 230
4 268 38 129 203
4 125 270 197 188
4 126 287 272 176
4 277 270 276 265
4 267 231 272 266
4 125 197 187 280
4 190 129 92 203
4 277 276 287 176
4 19 18 264 22
4 17 82 38 203
4 102 197 90 188
4 126 84 287 288
4 284 130 285 27
4 121 276 264 265
4 71 37 187 177
4 120 123 116 117
4 198 88 127 191
4 221 16 25 24
4 23 26 15 22
4 121 279 276 176
4 235 231 124 230
4 125 187 273 177
4 278 271 236 266
4 277 287 283 288
4 284 285 274 282
4 278 127 271 191
4 269 275 16 24
4 200 283 53 288
4 23 15 285 282
4 121 26 279 20
4 21 124 25 230
4 19 273 116 177
4 200 90 283 188
4 126 271 84 191
4 269 16 130 27
4 17 38 15 282
4 221 25 222 230
4 121 264 26 22
4 120 116 37 177
4 60 61 281 280
4 277 283 270 188
4 126 272 271 266
4 268 274 38 282
4 85 84 88 191
4 17 15 18 22
4 221 28 16 27
4 93 94 73 55
4 85 88 67 87
4 80 49 79 87
4 44 104 73 72
4 146 33 67 168
4 211 165 149 55
4 8 47 14 154
4 105 104 108 144
4 105 108 29 107
4 7 139 13 75
4 44 165 194 98
4 200 53 77 168
4 8 1 101 4
4 2 5 152 58
4 260 6 213 3
4 105 35 104 72
4 96 57 182 75
4 7 14 139 154
4 146 29 33 107
4 7 13 10 9
4 12 13 57 75
4 85 67 53 168
4 44 73 165 55
4 63 152 62 58
4 8 101 47 46
4 96 182 194 144
4 60 281 119 4
4 12 5 6 3
4 173 185 35 72
4 65 149 94 55
4 146 67 49 87
4 114 113 47 154
4 163 108 182 144
4 12 6 13 9
4 173 35 111 156
4 163 182 139 75
4 260 257 6 9
4 105 29 35 156
4 163 139 113 154
4 256 10 257 9
4 146 49 29 156
4 163 113 108 107
4 80 111 49 156
4 102 101 281 4
4 12 57 5 58
4 44 194 104 144
4 96 194 62 98
4 2 0 5 3
4 93 73 185 72
4 179 119 1 4
4 200 77 90 46
4 114 33 113 107
4 7 10 14 11
4 96 62 57 58
4 133 213 0 3
4 102 90 101 46
4 256 255 10 11
4 63 62 249 98
4 114 47 77 46
4 179 1 255 11
4 211 249 165 98
4 114 77 33 168
4 198 79 88 87
4 8 14 1 11
CELL_TYPES 256
8
8
8
8
8
8
8
8
8
8
8
8
8
8
8
8
8
8
8
8
8
8
8
8
8
8
8
8
8
8
8
8
8
8
8
8
8
8
8
8
8
8
8
8
8
8
8
8
8
8
8
8
8
8
8
8
8
8
8
8
8
8
8
8
8
8
8
8
8
8
8
8
8
8
8
8
8
8
8
8
8
8
8
8
8
8
8
8
8
8
8
8
8
8
8
8
8
8
8
8
8
8
8
8
8
8
8
8
8
8
8
8
8
8
8
8
8
8
8
8
8
8
8
8
8
8
8
8
8
8
8
8
8
8
8
8
8
8
8
8
8
8
8
8
8
8
8
8
8
8
8
8
8
8
8
8
8
8
8
8
8
8
8
8
8
8
8
8
8
8
8
8
8
8
8
8
8
8
8
8
8
8
8
8
8
8
8
8
8
8
8
8
8
8
8
8
8
8
8
8
8
8
8
8
8
8
8
8
8
8
8
8
8
8
8
8
8
8
8
8
8
8
8
8
8
8
8
8
8
8
8
8
8
8
8
8
8
8
8
8
8
8
8
8
8
8
8
8
8
8
8
8
8
8
8
8
CELL_DATA 256
VECTORS vector_value float
0.118149 -0.217956 0
-0.644641 -0.432832 0
-0.496395 -0.665036 0
0.0967657 -0.444902 0
-0.00141736 -0.136032 0
0.00987662 -0.165802 0
0.061149 -0.166399 0
0.204847 -1.3242 0
-0.179711 -0.304221 0
0.313023 -0.461598 0
-0.339026 -0.262262 0
-0.100343 -0.330925 0
0.0169267 -0.0636879 0
-0.0343362 -0.0890528 0
-0.379887 -0.498798 0
0.0484001 -0.118333 0
0.0245081 -0.0738566 0
-0.0201054 -0.12505 0
0.0226524 -0.0697675 0
-0.0887572 -1.50201 0
-0.0313936 -0.0602576 0
-0.00863008 -0.122707 0
0.54581 -2.28533 0
-0.0219123 -0.127904 0
0.00688641 -0.0809359 0
0.030036 -0.10115 0
0.0319543 -0.0873353 0
0.0718373 -1.57744 0
-0.0169509 -0.129084 0
-0.527409 -0.29786 0
0.721023 -1.28504 0
0.0525373 -0.124009 0
-0.0148974 -0.73254 0
-0.0069383 -0.21052 0
0.0310141 -0.114936 0
-0.108915 -0.261314 0
-0.424814 -0.467897 0
0.115679 -0.244724 0
-0.0462275 -0.149638 0
0.0163985 -0.0712729 0
0.128926 -0.364686 0
-0.445378 -0.348362 0
0.0593847 -0.156591 0
-0.0271283 -0.133612 0
-0.472441 -0.494537 0
0.303909 -0.361124 0
-0.140454 -0.204023 0
0.0120008 -0.0940189 0
-0.156925 -0.208463 0
0.0569477 -0.0891738 0
-0.107491 -0.278298 0
0.0616394 -0.359487 0
-0.00758922 -0.234533 0
0.0155503 -0.988756 0
0.140337 -0.161406 0
-0.0547141 -0.152362 0
-0.345762 -0.530823 0
-0.225459 -1.20759 0
0.0460804 -0.0924393 0
-0.283958 -0.495601 0
-0.589503 -0.683492 0
0.00531195 -0.0946315 0
-0.00180517 -0.110038 0
-0.273322 -0.658053 0
-0.090204 -0.754667 0
0.253992 -1.40918 0
0.962313 -1.97889 0
1.1742 -2.662 0
-0.14084 -0.292676 0
-0.522774 -2.06852 0
1.25649 -1.22337 0
-0.0236984 -0.70323 0
0.0419192 -0.0988196 0
-0.00109883 -0.124063 0
-0.0666907 -0.300791 0
-0.491207 -1.51688 0
0.00765475 -0.103967 0
0.0961541 -0.274473 0
0.00607706 -0.0939986 0
0.433047 -0.353143 0
0.330528 -0.278675 0
-0.00662749 -0.121172 0
0.148798 -0.208749 0
0.0575149 -0.145789 0
0.00477077 -0.109775 0
0.89511 -0.628003 0
-0.180273 -1.01135 0
0.00354885 -0.135481 0
-0.0206186 -0.0689034 0
0.247081 -0.747235 0
-0.133354 -0.726223 0
-0.0233314 -0.112245 0
0.0810757 -0.144554 0
0.0191639 -0.163744 0
-0.253626 -0.290828 0
1.22022 -2.61084 0
1.31013 -1.02879 0
-0.449063 -0.364199 0
1.47962 -0.663142 0
-0.00464009 -0.15868 0
1.74762 -1.50885 0
-0.0123938 -0.909992 0
0.014715 -0.103739 0
0.0064237 -0.143689 0
0.0123613 -0.216805 0
0.160644 -1.26196 0
0.0228876 -0.113969 0
-0.313611 -1.2661 0
0.629502 -1.59856 0
0.00639838 -0.124993 0
2.04221 -1.46709 0
-0.101246 -0.144525 0
0.722179 -2.04629 0
0.2198 -0.263166 0
0.304831 -0.837496 0
0.0941049 -0.127564 0
1.161 -1.3024 0
-0.0201128 -0.161348 0
0.589038 -0.297851 0
1.42773 -2.38641 0
0.308304 -0.712528 0
-0.0873914 -0.235959 0
0.773756 -0.448577 0
0.45013 -1.42234 0
-0.400841 -0.574342 0
2.02328 -0.825265 0
-0.035105 -0.131798 0
1.68217 -2.27616 0
1.36714 -2.19435 0
0.00594675 -0.706034 0
-0.077096 -0.183946 0
0.282241 -1.43354 0
-0.0146119 -0.21197 0
0.637939 -1.95658 0
1.22721 -1.32324 0
0.282179 -1.12605 0
0.223352 -0.751259 0
0.662024 -2.09545 0
-0.258462 -5.23115 0
1.7443 -1.2771 0
0.687659 -0.89196 0
-0.230313 -4.03145 0
-0.751638 -1.46287 0
0.153227 -2.76663 0
1.78693 -1.4471 0
0.727622 -1.25394 0
-0.020649 -0.811502 0
0.0884877 -0.432132 0
-0.381355 -1.25536 0
-0.425327 -1.09869 0
0.241041 -1.10795 0
0.621938 -1.15343 0
-0.112984 -0.323148 0
-0.984131 -2.0985 0
0.895153 -2.48059 0
-0.0390848 -1.11948 0
0.0255608 -0.265452 0
-1.47216 -1.95794 0
0.11602 -0.512993 0
0.270536 -1.40958 0
0.966363 -1.67033 0
0.186665 -0.425685 0
-0.48671 -2.65697 0
0.421041 -1.93845 0
1.41598 -1.10224 0
0.450034 -2.06925 0
0.270844 -3.16464 0
1.12077 -2.12647 0
0.183998 -2.3605 0
-0.817176 -1.21567 0
0.0712827 -0.72094 0
0.101556 -1.96067 0
-0.150806 -4.13083 0
-0.275325 -0.619939 0
0.361647 -0.758207 0
1.04095 -1.63086 0
0.747974 -4.28202 0
1.08173 -2.50138 0
0.0253675 -0.334731 0
-0.487645 -2.52839 0
0.370115 -1.27189 0
0.223458 -1.75406 0
1.62235 -1.59036 0
0.766423 -1.19984 0
0.605158 -0.892757 0
0.158549 -1.57177 0
-0.258825 -0.624089 0
0.201038 -1.32204 0
0.0428092 -1.62522 0
-1.1065 -3.23342 0
0.864943 -2.22493 0
1.03191 -1.63338 0
0.767803 -3.28183 0
-0.490655 -3.07323 0
-0.162724 -3.62893 0
0.605295 -1.48722 0
0.114648 -0.695978 0
1.50645 -1.10556 0
0.573214 -0.715638 0
0.494597 -0.55482 0
0.425907 -0.55363 0
0.26372 -0.536387 0
1.18431 -0.752581 0
0.104898 -0.320202 0
-0.0526195 -1.626 0
0.881184 -0.779568 0
0.0519601 -0.846692 0
0.205225 -2.0544 0
0.245411 -0.230336 0
0.356654 -0.57891 0
0.19671 -0.512862 0
0.415979 -0.68257 0
0.224894 -0.426664 0
-0.287803 -1.14809 0
1.19776 -1.12781 0
1.39943 -0.640222 0
0.221333 -0.656035 0
0.403768 -0.421494 0
-0.418205 -1.17604 0
0.197564 -0.694485 0
0.0131257 -3.85675 0
0.589498 -1.82333 0
-0.218472 -3.13235 0
0.441429 -0.195124 0
0.369353 -0.189595 0
0.238285 -0.513128 0
0.0805229 -4.00486 0
0.205684 -0.149384 0
0.502161 -1.09337 0
0.284289 -2.29848 0
0.361118 -0.16579 0
0.950071 -1.72053 0
0.0137031 -2.56906 0
0.334193 -0.082265 0
-0.110855 -4.07798 0
-0.280683 -1.12294 0
0.314626 -0.417115 0
0.586554 -0.537597 0
0.8063 -0.801813 0
0.509497 -1.02998 0
0.0903124 -3.93712 0
-0.592215 -1.71989 0
0.140855 -0.204213 0
0.350031 -0.139924 0
0.713373 -1.29102 0
0.467812 -0.365742 0
0.382955 -0.958458 0
0.0917033 -0.493636 0
1.16569 -2.27976 0
1.65256 -1.18608 0
0.330698 -0.280898 0
0.62598 -2.40901 0
1.61064 -0.787821 0
0.226582 -0.168012 0
-0.272455 -3.37918 0
0.739329 -1.72279 0
