# vtk DataFile Version 2.0
Unstructured Grid by M++
ASCII
DATASET UNSTRUCTURED_GRID
POINTS 81 float
  1.000000   0.625000 0
  0.750000   0.375000 0
  1.000000   0.000000 0
  0.875000   0.875000 0
  0.750000   0.125000 0
  1.000000   1.000000 0
  0.875000   0.250000 0
  0.625000   0.875000 0
  1.000000   0.750000 0
  0.875000   0.000000 0
  1.000000   0.250000 0
  0.625000   0.375000 0
  0.875000   0.500000 0
  0.625000   0.625000 0
  1.000000   0.500000 0
  0.750000   0.500000 0
  0.750000   1.000000 0
  1.000000   0.125000 0
  0.625000   0.250000 0
  0.750000   0.750000 0
  0.625000   0.000000 0
  0.125000   0.375000 0
  0.000000   0.500000 0
  0.125000   0.625000 0
  0.625000   1.000000 0
  1.000000   0.875000 0
  0.875000   0.125000 0
  0.500000   0.250000 0
  0.625000   0.500000 0
  0.250000   0.625000 0
  0.000000   0.625000 0
  0.375000   0.500000 0
  0.375000   0.000000 0
  0.000000   0.125000 0
  0.125000   0.875000 0
  0.875000   1.000000 0
  0.750000   0.250000 0
  0.375000   0.375000 0
  0.250000   0.375000 0
  0.625000   0.750000 0
  0.125000   0.125000 0
  0.500000   0.000000 0
  0.250000   0.875000 0
  0.125000   0.500000 0
  0.500000   0.375000 0
  0.125000   0.000000 0
  0.250000   0.750000 0
  0.250000   0.500000 0
  0.000000   0.875000 0
  0.875000   0.625000 0
  0.500000   0.750000 0
  0.750000   0.625000 0
  0.250000   0.000000 0
  0.375000   0.750000 0
  0.750000   0.875000 0
  0.625000   0.125000 0
  0.250000   0.250000 0
  0.375000   1.000000 0
  0.375000   0.250000 0
  0.000000   0.375000 0
  0.500000   1.000000 0
  0.875000   0.750000 0
  0.750000   0.000000 0
  0.375000   0.125000 0
  0.500000   0.875000 0
  0.000000   0.000000 0
  0.125000   0.750000 0
  0.500000   0.625000 0
  0.125000   0.250000 0
  0.500000   0.125000 0
  0.250000   1.000000 0
  0.250000   0.125000 0
  0.000000   1.000000 0
  0.375000   0.875000 0
  0.000000   0.750000 0
  0.375000   0.625000 0
  0.000000   0.250000 0
  0.125000   1.000000 0
  1.000000   0.375000 0
  0.500000   0.500000 0
  0.875000   0.375000 0
CELLS 64 320
4 56 71 58 63
4 27 58 69 63
4 41 69 32 63
4 76 33 68 40
4 27 44 58 37
4 79 31 44 37
4 56 38 68 21
4 56 58 38 37
4 52 32 71 63
4 47 38 31 37
4 76 68 59 21
4 22 59 43 21
4 65 45 33 40
4 47 43 38 21
4 52 71 45 40
4 56 68 71 40
4 74 30 66 23
4 46 66 29 23
4 22 43 30 23
4 72 48 77 34
4 46 53 42 73
4 50 64 53 73
4 70 42 57 73
4 74 66 48 34
4 46 42 66 34
4 47 29 43 23
4 70 77 42 34
4 60 57 64 73
4 79 67 31 75
4 47 31 29 75
4 50 53 67 75
4 46 29 53 75
4 10 78 6 80
4 36 6 1 80
4 15 1 12 80
4 36 4 6 26
4 14 12 78 80
4 2 17 9 26
4 36 18 4 55
4 15 28 1 11
4 62 4 20 55
4 10 6 17 26
4 27 18 44 11
4 62 9 4 26
4 27 69 18 55
4 36 1 18 11
4 41 20 69 55
4 79 44 28 11
4 16 24 54 7
4 19 54 39 7
4 50 39 64 7
4 8 25 61 3
4 60 64 24 7
4 79 28 67 13
4 19 51 61 49
4 8 61 0 49
4 15 51 28 13
4 19 39 51 13
4 50 67 39 13
4 19 61 54 3
4 14 0 12 49
4 5 35 25 3
4 15 12 51 49
4 16 54 35 3
CELL_TYPES 64
8
8
8
8
8
8
8
8
8
8
8
8
8
8
8
8
8
8
8
8
8
8
8
8
8
8
8
8
8
8
8
8
8
8
8
8
8
8
8
8
8
8
8
8
8
8
8
8
8
8
8
8
8
8
8
8
8
8
8
8
8
8
8
8
CELL_DATA 64
VECTORS vector_value float
0.00616912 -0.450684 0
-0.0946083 -0.556158 0
-0.362496 -0.99572 0
0.010164 -0.229724 0
1.55248 -0.837543 0
1.26752 -1.53739 0
-0.236299 -0.163385 0
0.348662 -1.36518 0
-0.00342168 -0.867562 0
0.87518 -2.82634 0
-0.0737039 -0.12026 0
0.0010728 -0.022653 0
0.00677141 -0.141483 0
0.0194792 -0.123806 0
0.0776269 -0.20034 0
0.0353377 -0.318286 0
0.204843 -0.211753 0
0.323449 -1.19978 0
0.0190748 -0.0523251 0
0.237736 -0.528719 0
-0.006385 -2.4386 0
0.0493384 -0.891238 0
0.357507 -1.80419 0
0.0244284 -0.526422 0
-0.0059968 -0.299339 0
0.23688 -0.362205 0
0.820808 -1.22883 0
-0.266416 -0.336427 0
-0.13943 -0.572979 0
0.336795 -3.42268 0
-0.274045 -0.979514 0
-0.19068 -1.89121 0
0.0186391 -1.12556 0
0.139746 -0.755963 0
-0.0524858 -0.733895 0
0.568852 -1.40989 0
-0.0296338 -1.15727 0
0.0951469 -1.60423 0
1.25199 -0.93618 0
-0.158151 -0.966989 0
0.121384 -0.128025 0
0.13926 -1.3946 0
1.77796 -2.77164 0
0.745136 -2.44288 0
0.0647771 -2.70448 0
0.452276 -0.860472 0
-0.0347191 -1.61977 0
-0.205379 -0.631664 0
0.827361 -0.92364 0
-0.132149 -0.512767 0
-0.169525 -0.260517 0
0.202683 -1.52621 0
0.306214 -0.574747 0
-0.0827817 -0.296432 0
-0.580233 -1.301 0
-0.188642 -1.69528 0
-0.612875 -1.29984 0
-0.118489 -0.27207 0
-0.177325 -0.449386 0
0.225837 -1.54491 0
-0.0437999 -1.21204 0
0.124318 -0.950239 0
-0.275818 -0.781494 0
0.678821 -1.6532 0
