# vtk DataFile Version 2.0
Unstructured Grid by M++
ASCII
DATASET UNSTRUCTURED_GRID
POINTS 81 float
  1.000000   0.625000 0
  0.750000   0.375000 0
  1.000000   0.000000 0
  0.875000   0.875000 0
  0.750000   0.125000 0
  1.000000   1.000000 0
  0.875000   0.250000 0
  0.625000   0.875000 0
  1.000000   0.750000 0
  0.875000   0.000000 0
  1.000000   0.250000 0
  0.625000   0.375000 0
  0.875000   0.500000 0
  0.625000   0.625000 0
  1.000000   0.500000 0
  0.750000   0.500000 0
  0.750000   1.000000 0
  1.000000   0.125000 0
  0.625000   0.250000 0
  0.750000   0.750000 0
  0.625000   0.000000 0
  0.125000   0.375000 0
  0.000000   0.500000 0
  0.125000   0.625000 0
  0.625000   1.000000 0
  1.000000   0.875000 0
  0.875000   0.125000 0
  0.500000   0.250000 0
  0.625000   0.500000 0
  0.250000   0.625000 0
  0.000000   0.625000 0
  0.375000   0.500000 0
  0.375000   0.000000 0
  0.000000   0.125000 0
  0.125000   0.875000 0
  0.875000   1.000000 0
  0.750000   0.250000 0
  0.375000   0.375000 0
  0.250000   0.375000 0
  0.625000   0.750000 0
  0.125000   0.125000 0
  0.500000   0.000000 0
  0.250000   0.875000 0
  0.125000   0.500000 0
  0.500000   0.375000 0
  0.125000   0.000000 0
  0.250000   0.750000 0
  0.250000   0.500000 0
  0.000000   0.875000 0
  0.875000   0.625000 0
  0.500000   0.750000 0
  0.750000   0.625000 0
  0.250000   0.000000 0
  0.375000   0.750000 0
  0.750000   0.875000 0
  0.625000   0.125000 0
  0.250000   0.250000 0
  0.375000   1.000000 0
  0.375000   0.250000 0
  0.000000   0.375000 0
  0.500000   1.000000 0
  0.875000   0.750000 0
  0.750000   0.000000 0
  0.375000   0.125000 0
  0.500000   0.875000 0
  0.000000   0.000000 0
  0.125000   0.750000 0
  0.500000   0.625000 0
  0.125000   0.250000 0
  0.500000   0.125000 0
  0.250000   1.000000 0
  0.250000   0.125000 0
  0.000000   1.000000 0
  0.375000   0.875000 0
  0.000000   0.750000 0
  0.375000   0.625000 0
  0.000000   0.250000 0
  0.125000   1.000000 0
  1.000000   0.375000 0
  0.500000   0.500000 0
  0.875000   0.375000 0
CELLS 64 320
4 56 71 58 63
4 27 58 69 63
4 41 69 32 63
4 76 33 68 40
4 27 44 58 37
4 79 31 44 37
4 56 38 68 21
4 56 58 38 37
4 52 32 71 63
4 47 38 31 37
4 76 68 59 21
4 22 59 43 21
4 65 45 33 40
4 47 43 38 21
4 52 71 45 40
4 56 68 71 40
4 74 30 66 23
4 46 66 29 23
4 22 43 30 23
4 72 48 77 34
4 46 53 42 73
4 50 64 53 73
4 70 42 57 73
4 74 66 48 34
4 46 42 66 34
4 47 29 43 23
4 70 77 42 34
4 60 57 64 73
4 79 67 31 75
4 47 31 29 75
4 50 53 67 75
4 46 29 53 75
4 10 78 6 80
4 36 6 1 80
4 15 1 12 80
4 36 4 6 26
4 14 12 78 80
4 2 17 9 26
4 36 18 4 55
4 15 28 1 11
4 62 4 20 55
4 10 6 17 26
4 27 18 44 11
4 62 9 4 26
4 27 69 18 55
4 36 1 18 11
4 41 20 69 55
4 79 44 28 11
4 16 24 54 7
4 19 54 39 7
4 50 39 64 7
4 8 25 61 3
4 60 64 24 7
4 79 28 67 13
4 19 51 61 49
4 8 61 0 49
4 15 51 28 13
4 19 39 51 13
4 50 67 39 13
4 19 61 54 3
4 14 0 12 49
4 5 35 25 3
4 15 12 51 49
4 16 54 35 3
CELL_TYPES 64
8
8
8
8
8
8
8
8
8
8
8
8
8
8
8
8
8
8
8
8
8
8
8
8
8
8
8
8
8
8
8
8
8
8
8
8
8
8
8
8
8
8
8
8
8
8
8
8
8
8
8
8
8
8
8
8
8
8
8
8
8
8
8
8
CELL_DATA 64
VECTORS vector_value float
-0.0883663 -0.322347 0
-0.00127443 -0.0869233 0
-0.0125356 -0.0348303 0
0.0155328 -0.465561 0
-0.010988 -0.0502838 0
-0.00685079 -0.0767378 0
0.0264244 -0.0586046 0
0.101374 -0.537514 0
0.00423941 -0.387837 0
0.00857414 -0.239052 0
-2.25818e-05 -0.511882 0
0.00982854 -0.510466 0
-0.0744113 -0.603294 0
0.141554 -0.331499 0
-0.0311653 -0.137087 0
-0.108375 -0.296885 0
-0.17275 -0.504369 0
-0.211874 -0.120085 0
0.038073 -0.610491 0
0.395243 -0.390078 0
0.622807 -1.45195 0
2.13159 -1.45464 0
1.03083 -2.24975 0
-0.0255416 -0.209587 0
-0.173898 -0.22051 0
-0.0222262 -0.207462 0
1.20253 -0.750578 0
0.00505773 -0.403928 0
-0.0188961 -0.0760706 0
-0.0281755 -0.242261 0
0.26617 -0.331741 0
-0.0848707 -0.447179 0
-0.23451 -0.720926 0
-1.31801 -5.23873 0
-0.284543 -3.46061 0
0.160452 -5.20905 0
-0.882201 -2.9864 0
0.0247611 -0.572857 0
0.158909 -1.0848 0
-0.0120262 -0.274673 0
0.0648971 -0.538698 0
-0.0531654 -0.521798 0
0.0283825 -0.0691471 0
0.166333 -5.6916 0
0.0065715 -0.0126371 0
-0.250923 -0.812915 0
-0.00276003 -0.0337983 0
0.00451163 -0.120562 0
-0.0954623 -1.47422 0
0.19579 -0.909394 0
0.877475 -1.77613 0
-0.0245104 -0.570382 0
0.181562 -1.00839 0
-0.023842 -0.106817 0
1.24535 -2.32582 0
0.160591 -0.595878 0
0.842027 -1.24301 0
3.14141 -2.07311 0
2.24769 -1.60182 0
0.0724644 -1.40742 0
0.998335 -1.46096 0
-0.198744 -0.985658 0
2.12934 -4.05293 0
-0.225014 -0.737395 0
