# vtk DataFile Version 2.0
Unstructured Grid by M++
ASCII
DATASET UNSTRUCTURED_GRID
POINTS 81 float
  1.000000   0.625000 0
  0.750000   0.375000 0
  1.000000   0.000000 0
  0.875000   0.875000 0
  0.750000   0.125000 0
  1.000000   1.000000 0
  0.875000   0.250000 0
  0.625000   0.875000 0
  1.000000   0.750000 0
  0.875000   0.000000 0
  1.000000   0.250000 0
  0.625000   0.375000 0
  0.875000   0.500000 0
  0.625000   0.625000 0
  1.000000   0.500000 0
  0.750000   0.500000 0
  0.750000   1.000000 0
  1.000000   0.125000 0
  0.625000   0.250000 0
  0.750000   0.750000 0
  0.625000   0.000000 0
  0.125000   0.375000 0
  0.000000   0.500000 0
  0.125000   0.625000 0
  0.625000   1.000000 0
  1.000000   0.875000 0
  0.875000   0.125000 0
  0.500000   0.250000 0
  0.625000   0.500000 0
  0.250000   0.625000 0
  0.000000   0.625000 0
  0.375000   0.500000 0
  0.375000   0.000000 0
  0.000000   0.125000 0
  0.125000   0.875000 0
  0.875000   1.000000 0
  0.750000   0.250000 0
  0.375000   0.375000 0
  0.250000   0.375000 0
  0.625000   0.750000 0
  0.125000   0.125000 0
  0.500000   0.000000 0
  0.250000   0.875000 0
  0.125000   0.500000 0
  0.500000   0.375000 0
  0.125000   0.000000 0
  0.250000   0.750000 0
  0.250000   0.500000 0
  0.000000   0.875000 0
  0.875000   0.625000 0
  0.500000   0.750000 0
  0.750000   0.625000 0
  0.250000   0.000000 0
  0.375000   0.750000 0
  0.750000   0.875000 0
  0.625000   0.125000 0
  0.250000   0.250000 0
  0.375000   1.000000 0
  0.375000   0.250000 0
  0.000000   0.375000 0
  0.500000   1.000000 0
  0.875000   0.750000 0
  0.750000   0.000000 0
  0.375000   0.125000 0
  0.500000   0.875000 0
  0.000000   0.000000 0
  0.125000   0.750000 0
  0.500000   0.625000 0
  0.125000   0.250000 0
  0.500000   0.125000 0
  0.250000   1.000000 0
  0.250000   0.125000 0
  0.000000   1.000000 0
  0.375000   0.875000 0
  0.000000   0.750000 0
  0.375000   0.625000 0
  0.000000   0.250000 0
  0.125000   1.000000 0
  1.000000   0.375000 0
  0.500000   0.500000 0
  0.875000   0.375000 0
CELLS 64 320
4 56 71 58 63
4 27 58 69 63
4 41 69 32 63
4 76 33 68 40
4 27 44 58 37
4 79 31 44 37
4 56 38 68 21
4 56 58 38 37
4 52 32 71 63
4 47 38 31 37
4 76 68 59 21
4 22 59 43 21
4 65 45 33 40
4 47 43 38 21
4 52 71 45 40
4 56 68 71 40
4 74 30 66 23
4 46 66 29 23
4 22 43 30 23
4 72 48 77 34
4 46 53 42 73
4 50 64 53 73
4 70 42 57 73
4 74 66 48 34
4 46 42 66 34
4 47 29 43 23
4 70 77 42 34
4 60 57 64 73
4 79 67 31 75
4 47 31 29 75
4 50 53 67 75
4 46 29 53 75
4 10 78 6 80
4 36 6 1 80
4 15 1 12 80
4 36 4 6 26
4 14 12 78 80
4 2 17 9 26
4 36 18 4 55
4 15 28 1 11
4 62 4 20 55
4 10 6 17 26
4 27 18 44 11
4 62 9 4 26
4 27 69 18 55
4 36 1 18 11
4 41 20 69 55
4 79 44 28 11
4 16 24 54 7
4 19 54 39 7
4 50 39 64 7
4 8 25 61 3
4 60 64 24 7
4 79 28 67 13
4 19 51 61 49
4 8 61 0 49
4 15 51 28 13
4 19 39 51 13
4 50 67 39 13
4 19 61 54 3
4 14 0 12 49
4 5 35 25 3
4 15 12 51 49
4 16 54 35 3
CELL_TYPES 64
8
8
8
8
8
8
8
8
8
8
8
8
8
8
8
8
8
8
8
8
8
8
8
8
8
8
8
8
8
8
8
8
8
8
8
8
8
8
8
8
8
8
8
8
8
8
8
8
8
8
8
8
8
8
8
8
8
8
8
8
8
8
8
8
CELL_DATA 64
VECTORS vector_value float
0.246864 -1.16671 0
0.137357 -0.972769 0
-0.0138939 -1.04207 0
0.3983 -3.25202 0
0.200332 -0.454911 0
-0.0768156 -0.334946 0
0.584296 -1.05886 0
0.645918 -0.950075 0
0.267794 -1.80136 0
-0.230854 -0.974277 0
0.167066 -3.72977 0
-0.442901 -3.54637 0
0.0283038 -2.55905 0
-0.672854 -1.34209 0
0.251384 -0.808342 0
0.588569 -0.789245 0
-0.0488206 -0.297947 0
-1.16569 -2.07062 0
-1.24988 -2.25436 0
0.169579 -0.774776 0
-0.820985 -2.49816 0
-0.801523 -1.0291 0
0.294951 -1.36623 0
0.203541 -0.317728 0
0.135457 -1.23347 0
-1.55613 -1.83472 0
0.413641 -0.767712 0
-0.513514 -1.54663 0
-0.27739 -0.280952 0
-0.599642 -1.57936 0
-0.846661 -0.524792 0
-1.52749 -2.68438 0
0.00358134 -0.0564556 0
0.0839271 -0.503757 0
-0.0723161 -0.480974 0
0.131463 -0.825984 0
-0.00473803 -0.0505523 0
0.0175898 -0.113406 0
0.0347124 -0.720397 0
-0.201695 -1.19264 0
-0.0121092 -0.688318 0
0.0131047 -0.0625339 0
-0.0230315 -0.130274 0
0.00200985 -0.776086 0
-0.0308852 -0.210336 0
0.112653 -1.1159 0
-0.0166891 -0.211359 0
-0.0470051 -0.0781498 0
-0.0641971 -0.296413 0
-0.147532 -0.255275 0
-0.325864 -0.444129 0
0.244114 -1.80022 0
-0.63019 -0.913957 0
-0.385173 -0.13805 0
-0.581815 -0.648621 0
-0.571378 -1.35815 0
-0.718543 -0.609317 0
-0.271656 -0.25917 0
-0.360454 -0.156327 0
0.0461405 -0.421911 0
-0.240952 -0.328332 0
0.0983126 -1.1093 0
-1.01944 -0.974909 0
0.411811 -1.22498 0
