# vtk DataFile Version 2.0
Unstructured Grid by M++
ASCII
DATASET UNSTRUCTURED_GRID
POINTS 81 float
  1.000000   0.625000 0
  0.750000   0.375000 0
  1.000000   0.000000 0
  0.875000   0.875000 0
  0.750000   0.125000 0
  1.000000   1.000000 0
  0.875000   0.250000 0
  0.625000   0.875000 0
  1.000000   0.750000 0
  0.875000   0.000000 0
  1.000000   0.250000 0
  0.625000   0.375000 0
  0.875000   0.500000 0
  0.625000   0.625000 0
  1.000000   0.500000 0
  0.750000   0.500000 0
  0.750000   1.000000 0
  1.000000   0.125000 0
  0.625000   0.250000 0
  0.750000   0.750000 0
  0.625000   0.000000 0
  0.125000   0.375000 0
  0.000000   0.500000 0
  0.125000   0.625000 0
  0.625000   1.000000 0
  1.000000   0.875000 0
  0.875000   0.125000 0
  0.500000   0.250000 0
  0.625000   0.500000 0
  0.250000   0.625000 0
  0.000000   0.625000 0
  0.375000   0.500000 0
  0.375000   0.000000 0
  0.000000   0.125000 0
  0.125000   0.875000 0
  0.875000   1.000000 0
  0.750000   0.250000 0
  0.375000   0.375000 0
  0.250000   0.375000 0
  0.625000   0.750000 0
  0.125000   0.125000 0
  0.500000   0.000000 0
  0.250000   0.875000 0
  0.125000   0.500000 0
  0.500000   0.375000 0
  0.125000   0.000000 0
  0.250000   0.750000 0
  0.250000   0.500000 0
  0.000000   0.875000 0
  0.875000   0.625000 0
  0.500000   0.750000 0
  0.750000   0.625000 0
  0.250000   0.000000 0
  0.375000   0.750000 0
  0.750000   0.875000 0
  0.625000   0.125000 0
  0.250000   0.250000 0
  0.375000   1.000000 0
  0.375000   0.250000 0
  0.000000   0.375000 0
  0.500000   1.000000 0
  0.875000   0.750000 0
  0.750000   0.000000 0
  0.375000   0.125000 0
  0.500000   0.875000 0
  0.000000   0.000000 0
  0.125000   0.750000 0
  0.500000   0.625000 0
  0.125000   0.250000 0
  0.500000   0.125000 0
  0.250000   1.000000 0
  0.250000   0.125000 0
  0.000000   1.000000 0
  0.375000   0.875000 0
  0.000000   0.750000 0
  0.375000   0.625000 0
  0.000000   0.250000 0
  0.125000   1.000000 0
  1.000000   0.375000 0
  0.500000   0.500000 0
  0.875000   0.375000 0
CELLS 64 320
4 56 71 58 63
4 27 58 69 63
4 41 69 32 63
4 76 33 68 40
4 27 44 58 37
4 79 31 44 37
4 56 38 68 21
4 56 58 38 37
4 52 32 71 63
4 47 38 31 37
4 76 68 59 21
4 22 59 43 21
4 65 45 33 40
4 47 43 38 21
4 52 71 45 40
4 56 68 71 40
4 74 30 66 23
4 46 66 29 23
4 22 43 30 23
4 72 48 77 34
4 46 53 42 73
4 50 64 53 73
4 70 42 57 73
4 74 66 48 34
4 46 42 66 34
4 47 29 43 23
4 70 77 42 34
4 60 57 64 73
4 79 67 31 75
4 47 31 29 75
4 50 53 67 75
4 46 29 53 75
4 10 78 6 80
4 36 6 1 80
4 15 1 12 80
4 36 4 6 26
4 14 12 78 80
4 2 17 9 26
4 36 18 4 55
4 15 28 1 11
4 62 4 20 55
4 10 6 17 26
4 27 18 44 11
4 62 9 4 26
4 27 69 18 55
4 36 1 18 11
4 41 20 69 55
4 79 44 28 11
4 16 24 54 7
4 19 54 39 7
4 50 39 64 7
4 8 25 61 3
4 60 64 24 7
4 79 28 67 13
4 19 51 61 49
4 8 61 0 49
4 15 51 28 13
4 19 39 51 13
4 50 67 39 13
4 19 61 54 3
4 14 0 12 49
4 5 35 25 3
4 15 12 51 49
4 16 54 35 3
CELL_TYPES 64
8
8
8
8
8
8
8
8
8
8
8
8
8
8
8
8
8
8
8
8
8
8
8
8
8
8
8
8
8
8
8
8
8
8
8
8
8
8
8
8
8
8
8
8
8
8
8
8
8
8
8
8
8
8
8
8
8
8
8
8
8
8
8
8
CELL_DATA 64
VECTORS vector_value float
-0.0121037 -0.779053 0
-0.129423 -0.144677 0
-0.0789736 -0.139778 0
0.571857 -1.07303 0
-0.0396937 -0.27775 0
-0.00982465 -0.224039 0
0.00609651 -2.32234 0
0.0105478 -0.389357 0
-0.0551074 -0.870446 0
0.0658668 -0.281722 0
-0.0474306 -1.66778 0
-0.401104 -0.941214 0
0.142897 -0.254632 0
-0.419904 -3.17213 0
0.339464 -3.55121 0
0.498249 -2.72234 0
0.398822 -0.810843 0
0.0887922 -1.65889 0
-0.14469 -0.466661 0
-0.28431 -1.47176 0
-0.168582 -0.277422 0
-0.380196 -2.09515 0
0.446321 -0.531314 0
0.16046 -1.53604 0
-0.0606328 -0.443497 0
-0.72532 -2.71613 0
-0.200406 -0.385538 0
0.309778 -1.66727 0
-0.299852 -0.216517 0
-0.972544 -1.0709 0
-0.631157 -0.829489 0
-1.06465 -0.897867 0
-0.196117 -1.68279 0
-0.499001 -0.837129 0
0.435055 -1.46415 0
-0.487145 -0.417548 0
0.440978 -1.21827 0
-0.00578139 -1.10906 0
-0.735272 -1.67544 0
-0.089692 -0.616128 0
-0.0555288 -1.66998 0
-0.0615541 -1.15224 0
-0.0190488 -0.0832876 0
-0.0188548 -0.130453 0
-0.0630372 -0.0356741 0
-0.0476115 -0.739558 0
-0.214862 -0.274443 0
-0.0378915 -0.082347 0
-0.935406 -0.522322 0
-0.674866 -0.906797 0
-0.388755 -2.19441 0
0.00499384 -0.410726 0
-0.643752 -1.75792 0
0.234044 -0.510064 0
0.0371645 -0.149449 0
-0.00866074 -0.416836 0
1.94935 -1.6131 0
0.154268 -0.713769 0
0.644204 -2.52286 0
-0.0436227 -0.13595 0
0.178275 -0.438663 0
-0.298569 -0.495331 0
1.23138 -0.967972 0
-0.983836 -1.16855 0
