# vtk DataFile Version 2.0
Unstructured Grid by M++
ASCII
DATASET UNSTRUCTURED_GRID
POINTS 81 float
  1.000000   0.625000 0
  0.750000   0.375000 0
  1.000000   0.000000 0
  0.875000   0.875000 0
  0.750000   0.125000 0
  1.000000   1.000000 0
  0.875000   0.250000 0
  0.625000   0.875000 0
  1.000000   0.750000 0
  0.875000   0.000000 0
  1.000000   0.250000 0
  0.625000   0.375000 0
  0.875000   0.500000 0
  0.625000   0.625000 0
  1.000000   0.500000 0
  0.750000   0.500000 0
  0.750000   1.000000 0
  1.000000   0.125000 0
  0.625000   0.250000 0
  0.750000   0.750000 0
  0.625000   0.000000 0
  0.125000   0.375000 0
  0.000000   0.500000 0
  0.125000   0.625000 0
  0.625000   1.000000 0
  1.000000   0.875000 0
  0.875000   0.125000 0
  0.500000   0.250000 0
  0.625000   0.500000 0
  0.250000   0.625000 0
  0.000000   0.625000 0
  0.375000   0.500000 0
  0.375000   0.000000 0
  0.000000   0.125000 0
  0.125000   0.875000 0
  0.875000   1.000000 0
  0.750000   0.250000 0
  0.375000   0.375000 0
  0.250000   0.375000 0
  0.625000   0.750000 0
  0.125000   0.125000 0
  0.500000   0.000000 0
  0.250000   0.875000 0
  0.125000   0.500000 0
  0.500000   0.375000 0
  0.125000   0.000000 0
  0.250000   0.750000 0
  0.250000   0.500000 0
  0.000000   0.875000 0
  0.875000   0.625000 0
  0.500000   0.750000 0
  0.750000   0.625000 0
  0.250000   0.000000 0
  0.375000   0.750000 0
  0.750000   0.875000 0
  0.625000   0.125000 0
  0.250000   0.250000 0
  0.375000   1.000000 0
  0.375000   0.250000 0
  0.000000   0.375000 0
  0.500000   1.000000 0
  0.875000   0.750000 0
  0.750000   0.000000 0
  0.375000   0.125000 0
  0.500000   0.875000 0
  0.000000   0.000000 0
  0.125000   0.750000 0
  0.500000   0.625000 0
  0.125000   0.250000 0
  0.500000   0.125000 0
  0.250000   1.000000 0
  0.250000   0.125000 0
  0.000000   1.000000 0
  0.375000   0.875000 0
  0.000000   0.750000 0
  0.375000   0.625000 0
  0.000000   0.250000 0
  0.125000   1.000000 0
  1.000000   0.375000 0
  0.500000   0.500000 0
  0.875000   0.375000 0
CELLS 64 320
4 56 71 58 63
4 27 58 69 63
4 41 69 32 63
4 76 33 68 40
4 27 44 58 37
4 79 31 44 37
4 56 38 68 21
4 56 58 38 37
4 52 32 71 63
4 47 38 31 37
4 76 68 59 21
4 22 59 43 21
4 65 45 33 40
4 47 43 38 21
4 52 71 45 40
4 56 68 71 40
4 74 30 66 23
4 46 66 29 23
4 22 43 30 23
4 72 48 77 34
4 46 53 42 73
4 50 64 53 73
4 70 42 57 73
4 74 66 48 34
4 46 42 66 34
4 47 29 43 23
4 70 77 42 34
4 60 57 64 73
4 79 67 31 75
4 47 31 29 75
4 50 53 67 75
4 46 29 53 75
4 10 78 6 80
4 36 6 1 80
4 15 1 12 80
4 36 4 6 26
4 14 12 78 80
4 2 17 9 26
4 36 18 4 55
4 15 28 1 11
4 62 4 20 55
4 10 6 17 26
4 27 18 44 11
4 62 9 4 26
4 27 69 18 55
4 36 1 18 11
4 41 20 69 55
4 79 44 28 11
4 16 24 54 7
4 19 54 39 7
4 50 39 64 7
4 8 25 61 3
4 60 64 24 7
4 79 28 67 13
4 19 51 61 49
4 8 61 0 49
4 15 51 28 13
4 19 39 51 13
4 50 67 39 13
4 19 61 54 3
4 14 0 12 49
4 5 35 25 3
4 15 12 51 49
4 16 54 35 3
CELL_TYPES 64
8
8
8
8
8
8
8
8
8
8
8
8
8
8
8
8
8
8
8
8
8
8
8
8
8
8
8
8
8
8
8
8
8
8
8
8
8
8
8
8
8
8
8
8
8
8
8
8
8
8
8
8
8
8
8
8
8
8
8
8
8
8
8
8
CELL_DATA 64
VECTORS vector_value float
0.336809 -0.631027 0
-0.0369484 -0.578799 0
0.0281111 -1.40035 0
0.0028428 -0.298018 0
0.0384609 -0.23963 0
1.27906 -0.742787 0
0.386785 -1.39605 0
0.244523 -0.248592 0
0.218591 -0.376237 0
0.985997 -0.168832 0
0.0498332 -0.320933 0
0.727809 -1.11358 0
0.00247696 -0.291824 0
1.23221 -1.23767 0
0.0620761 -0.739342 0
0.130051 -0.9074 0
-0.422931 -1.50853 0
-0.248185 -1.76757 0
0.102113 -2.11488 0
0.0693086 -0.738031 0
-0.0737855 -1.05308 0
-0.0368428 -0.400242 0
-1.06638 -0.96551 0
-0.176952 -0.955068 0
-0.315119 -2.17127 0
0.0690415 -0.819315 0
-0.468011 -2.04921 0
-0.769928 -0.548104 0
0.734748 -0.8829 0
0.193399 -0.205038 0
0.160447 -0.831691 0
0.477992 -0.56677 0
-0.00508156 -0.611264 0
0.0169976 -0.207839 0
-0.225447 -0.289406 0
0.654431 -0.713954 0
-0.084487 -0.702509 0
0.199051 -1.35285 0
0.70653 -2.14402 0
-0.246654 -1.33291 0
0.562672 -0.993165 0
0.203586 -0.916017 0
0.698436 -3.11671 0
0.866152 -1.54532 0
0.0697647 -1.81076 0
0.583694 -1.85898 0
-0.154295 -1.30092 0
0.532547 -2.4123 0
-0.194337 -0.623651 0
0.0432568 -0.384996 0
-0.127594 -0.954728 0
0.0350082 -1.2353 0
-0.426596 -0.938732 0
0.407666 -1.42175 0
0.0883257 -0.77431 0
0.0713796 -1.44 0
-0.520728 -0.83382 0
0.0540974 -0.366549 0
0.0161481 -0.744575 0
0.0805648 -0.845317 0
-0.322001 -1.08539 0
0.112144 -1.19201 0
-0.863096 -0.63691 0
0.151939 -0.944752 0
