# vtk DataFile Version 2.0
Unstructured Grid by M++
ASCII
DATASET UNSTRUCTURED_GRID
POINTS 81 float
  1.000000   0.625000 0
  0.750000   0.375000 0
  1.000000   0.000000 0
  0.875000   0.875000 0
  0.750000   0.125000 0
  1.000000   1.000000 0
  0.875000   0.250000 0
  0.625000   0.875000 0
  1.000000   0.750000 0
  0.875000   0.000000 0
  1.000000   0.250000 0
  0.625000   0.375000 0
  0.875000   0.500000 0
  0.625000   0.625000 0
  1.000000   0.500000 0
  0.750000   0.500000 0
  0.750000   1.000000 0
  1.000000   0.125000 0
  0.625000   0.250000 0
  0.750000   0.750000 0
  0.625000   0.000000 0
  0.125000   0.375000 0
  0.000000   0.500000 0
  0.125000   0.625000 0
  0.625000   1.000000 0
  1.000000   0.875000 0
  0.875000   0.125000 0
  0.500000   0.250000 0
  0.625000   0.500000 0
  0.250000   0.625000 0
  0.000000   0.625000 0
  0.375000   0.500000 0
  0.375000   0.000000 0
  0.000000   0.125000 0
  0.125000   0.875000 0
  0.875000   1.000000 0
  0.750000   0.250000 0
  0.375000   0.375000 0
  0.250000   0.375000 0
  0.625000   0.750000 0
  0.125000   0.125000 0
  0.500000   0.000000 0
  0.250000   0.875000 0
  0.125000   0.500000 0
  0.500000   0.375000 0
  0.125000   0.000000 0
  0.250000   0.750000 0
  0.250000   0.500000 0
  0.000000   0.875000 0
  0.875000   0.625000 0
  0.500000   0.750000 0
  0.750000   0.625000 0
  0.250000   0.000000 0
  0.375000   0.750000 0
  0.750000   0.875000 0
  0.625000   0.125000 0
  0.250000   0.250000 0
  0.375000   1.000000 0
  0.375000   0.250000 0
  0.000000   0.375000 0
  0.500000   1.000000 0
  0.875000   0.750000 0
  0.750000   0.000000 0
  0.375000   0.125000 0
  0.500000   0.875000 0
  0.000000   0.000000 0
  0.125000   0.750000 0
  0.500000   0.625000 0
  0.125000   0.250000 0
  0.500000   0.125000 0
  0.250000   1.000000 0
  0.250000   0.125000 0
  0.000000   1.000000 0
  0.375000   0.875000 0
  0.000000   0.750000 0
  0.375000   0.625000 0
  0.000000   0.250000 0
  0.125000   1.000000 0
  1.000000   0.375000 0
  0.500000   0.500000 0
  0.875000   0.375000 0
CELLS 64 320
4 56 71 58 63
4 27 58 69 63
4 41 69 32 63
4 76 33 68 40
4 27 44 58 37
4 79 31 44 37
4 56 38 68 21
4 56 58 38 37
4 52 32 71 63
4 47 38 31 37
4 76 68 59 21
4 22 59 43 21
4 65 45 33 40
4 47 43 38 21
4 52 71 45 40
4 56 68 71 40
4 74 30 66 23
4 46 66 29 23
4 22 43 30 23
4 72 48 77 34
4 46 53 42 73
4 50 64 53 73
4 70 42 57 73
4 74 66 48 34
4 46 42 66 34
4 47 29 43 23
4 70 77 42 34
4 60 57 64 73
4 79 67 31 75
4 47 31 29 75
4 50 53 67 75
4 46 29 53 75
4 10 78 6 80
4 36 6 1 80
4 15 1 12 80
4 36 4 6 26
4 14 12 78 80
4 2 17 9 26
4 36 18 4 55
4 15 28 1 11
4 62 4 20 55
4 10 6 17 26
4 27 18 44 11
4 62 9 4 26
4 27 69 18 55
4 36 1 18 11
4 41 20 69 55
4 79 44 28 11
4 16 24 54 7
4 19 54 39 7
4 50 39 64 7
4 8 25 61 3
4 60 64 24 7
4 79 28 67 13
4 19 51 61 49
4 8 61 0 49
4 15 51 28 13
4 19 39 51 13
4 50 67 39 13
4 19 61 54 3
4 14 0 12 49
4 5 35 25 3
4 15 12 51 49
4 16 54 35 3
CELL_TYPES 64
8
8
8
8
8
8
8
8
8
8
8
8
8
8
8
8
8
8
8
8
8
8
8
8
8
8
8
8
8
8
8
8
8
8
8
8
8
8
8
8
8
8
8
8
8
8
8
8
8
8
8
8
8
8
8
8
8
8
8
8
8
8
8
8
CELL_DATA 64
VECTORS vector_value float
-0.028072 -0.493449 0
-0.449974 -3.74609 0
-0.382692 -5.1253 0
0.00704443 -0.124561 0
0.577373 -4.00735 0
0.482199 -3.884 0
0.0491825 -0.138224 0
0.0358766 -0.313198 0
0.00744423 -0.503123 0
0.816132 -1.22849 0
0.0298728 -0.175145 0
0.0910321 -0.287446 0
-0.00473311 -0.134852 0
0.248016 -0.165823 0
-0.00179589 -0.112992 0
0.0289052 -0.136714 0
0.0240975 -0.707292 0
0.063385 -0.267923 0
0.144337 -0.50779 0
0.114305 -1.08959 0
0.667277 -0.885281 0
0.14141 -1.13576 0
0.417092 -0.525047 0
0.0258288 -0.728805 0
0.267767 -0.404447 0
0.300254 -0.315158 0
0.352638 -0.845406 0
0.723352 -0.934133 0
-0.635971 -3.06561 0
-0.012467 -1.10224 0
-0.333097 -2.24327 0
0.0985522 -0.69931 0
-0.00317173 -0.0270086 0
-0.0511975 -0.0967221 0
-0.0349468 -0.0799701 0
0.0220694 -0.0752855 0
-0.0439386 -0.105098 0
0.00462203 -0.0510457 0
0.0599884 -0.338928 0
-0.18788 -0.610399 0
0.0346726 -0.397823 0
0.00798501 -0.0371225 0
0.516025 -2.86217 0
0.023801 -0.118665 0
-0.597233 -3.04785 0
-0.151312 -0.380181 0
-0.128336 -1.5562 0
-0.794164 -1.63878 0
-0.610228 -1.23656 0
0.207174 -1.28778 0
0.0875643 -2.19601 0
-0.195188 -0.282979 0
0.157465 -2.01159 0
-0.798988 -0.624421 0
-0.271098 -1.30984 0
-0.0299936 -0.161282 0
-1.26267 -1.65702 0
-0.215346 -1.71948 0
-0.618091 -0.891601 0
-0.12267 -1.07894 0
-0.017423 -0.153502 0
-0.196599 -0.691538 0
-0.379807 -0.574258 0
-0.571807 -0.666129 0
