# vtk DataFile Version 2.0
Unstructured Grid by M++
ASCII
DATASET UNSTRUCTURED_GRID
POINTS 81 float
  1.000000   0.625000 0
  0.750000   0.375000 0
  1.000000   0.000000 0
  0.875000   0.875000 0
  0.750000   0.125000 0
  1.000000   1.000000 0
  0.875000   0.250000 0
  0.625000   0.875000 0
  1.000000   0.750000 0
  0.875000   0.000000 0
  1.000000   0.250000 0
  0.625000   0.375000 0
  0.875000   0.500000 0
  0.625000   0.625000 0
  1.000000   0.500000 0
  0.750000   0.500000 0
  0.750000   1.000000 0
  1.000000   0.125000 0
  0.625000   0.250000 0
  0.750000   0.750000 0
  0.625000   0.000000 0
  0.125000   0.375000 0
  0.000000   0.500000 0
  0.125000   0.625000 0
  0.625000   1.000000 0
  1.000000   0.875000 0
  0.875000   0.125000 0
  0.500000   0.250000 0
  0.625000   0.500000 0
  0.250000   0.625000 0
  0.000000   0.625000 0
  0.375000   0.500000 0
  0.375000   0.000000 0
  0.000000   0.125000 0
  0.125000   0.875000 0
  0.875000   1.000000 0
  0.750000   0.250000 0
  0.375000   0.375000 0
  0.250000   0.375000 0
  0.625000   0.750000 0
  0.125000   0.125000 0
  0.500000   0.000000 0
  0.250000   0.875000 0
  0.125000   0.500000 0
  0.500000   0.375000 0
  0.125000   0.000000 0
  0.250000   0.750000 0
  0.250000   0.500000 0
  0.000000   0.875000 0
  0.875000   0.625000 0
  0.500000   0.750000 0
  0.750000   0.625000 0
  0.250000   0.000000 0
  0.375000   0.750000 0
  0.750000   0.875000 0
  0.625000   0.125000 0
  0.250000   0.250000 0
  0.375000   1.000000 0
  0.375000   0.250000 0
  0.000000   0.375000 0
  0.500000   1.000000 0
  0.875000   0.750000 0
  0.750000   0.000000 0
  0.375000   0.125000 0
  0.500000   0.875000 0
  0.000000   0.000000 0
  0.125000   0.750000 0
  0.500000   0.625000 0
  0.125000   0.250000 0
  0.500000   0.125000 0
  0.250000   1.000000 0
  0.250000   0.125000 0
  0.000000   1.000000 0
  0.375000   0.875000 0
  0.000000   0.750000 0
  0.375000   0.625000 0
  0.000000   0.250000 0
  0.125000   1.000000 0
  1.000000   0.375000 0
  0.500000   0.500000 0
  0.875000   0.375000 0
CELLS 64 320
4 56 71 58 63
4 27 58 69 63
4 41 69 32 63
4 76 33 68 40
4 27 44 58 37
4 79 31 44 37
4 56 38 68 21
4 56 58 38 37
4 52 32 71 63
4 47 38 31 37
4 76 68 59 21
4 22 59 43 21
4 65 45 33 40
4 47 43 38 21
4 52 71 45 40
4 56 68 71 40
4 74 30 66 23
4 46 66 29 23
4 22 43 30 23
4 72 48 77 34
4 46 53 42 73
4 50 64 53 73
4 70 42 57 73
4 74 66 48 34
4 46 42 66 34
4 47 29 43 23
4 70 77 42 34
4 60 57 64 73
4 79 67 31 75
4 47 31 29 75
4 50 53 67 75
4 46 29 53 75
4 10 78 6 80
4 36 6 1 80
4 15 1 12 80
4 36 4 6 26
4 14 12 78 80
4 2 17 9 26
4 36 18 4 55
4 15 28 1 11
4 62 4 20 55
4 10 6 17 26
4 27 18 44 11
4 62 9 4 26
4 27 69 18 55
4 36 1 18 11
4 41 20 69 55
4 79 44 28 11
4 16 24 54 7
4 19 54 39 7
4 50 39 64 7
4 8 25 61 3
4 60 64 24 7
4 79 28 67 13
4 19 51 61 49
4 8 61 0 49
4 15 51 28 13
4 19 39 51 13
4 50 67 39 13
4 19 61 54 3
4 14 0 12 49
4 5 35 25 3
4 15 12 51 49
4 16 54 35 3
CELL_TYPES 64
8
8
8
8
8
8
8
8
8
8
8
8
8
8
8
8
8
8
8
8
8
8
8
8
8
8
8
8
8
8
8
8
8
8
8
8
8
8
8
8
8
8
8
8
8
8
8
8
8
8
8
8
8
8
8
8
8
8
8
8
8
8
8
8
CELL_DATA 64
VECTORS vector_value float
0.494229 -0.295184 0
0.0460205 -1.60134 0
0.0463041 -1.87761 0
0.0755064 -1.39267 0
0.638603 -1.13942 0
0.261068 -1.04284 0
0.383515 -0.406996 0
0.0998521 -0.0382542 0
0.0541603 -0.108572 0
0.701652 -0.407269 0
0.0987555 -1.57041 0
0.207751 -1.93453 0
0.0081304 -1.28078 0
0.390131 -0.383003 0
0.0430306 -0.0770689 0
0.123959 -0.0728252 0
-0.541259 -1.62441 0
-0.939699 -1.51882 0
-0.072238 -2.13694 0
0.230376 -0.562573 0
-0.270171 -1.13645 0
0.03985 -0.797204 0
-0.361801 -1.29822 0
-0.146058 -0.779161 0
-0.183918 -1.60258 0
0.31469 -0.808727 0
0.0561452 -1.48918 0
-0.390644 -0.846846 0
0.262506 -0.498929 0
0.54559 -0.351037 0
0.198779 -0.505051 0
-0.166623 -0.327709 0
-0.247102 -0.695073 0
-1.51499 -0.989143 0
-0.934697 -1.23556 0
-0.0630387 -0.175955 0
-0.856134 -2.09738 0
0.0201155 -0.402135 0
-0.818657 -0.802172 0
0.115785 -0.398861 0
-0.0229576 -0.13575 0
-0.0223192 -0.360814 0
-0.336099 -1.82059 0
0.00460287 -0.0935683 0
-0.947004 -3.29903 0
-2.11719 -1.34012 0
-0.0771829 -4.02451 0
0.0544064 -0.500551 0
0.522902 -0.487676 0
0.055723 -0.0690343 0
0.0354944 -0.586988 0
0.249822 -2.57273 0
-0.114199 -0.794608 0
0.213383 -0.794042 0
0.0348774 -0.368301 0
0.00523959 -2.70168 0
0.178248 -0.172489 0
0.145901 -0.14512 0
0.302046 -0.808906 0
0.383487 -0.45585 0
-0.0427757 -2.69545 0
0.597574 -1.85188 0
0.048128 -0.542384 0
0.991317 -0.669012 0
