# vtk DataFile Version 2.0
Unstructured Grid by M++
ASCII
DATASET UNSTRUCTURED_GRID
POINTS 81 float
  1.000000   0.625000 0
  0.750000   0.375000 0
  1.000000   0.000000 0
  0.875000   0.875000 0
  0.750000   0.125000 0
  1.000000   1.000000 0
  0.875000   0.250000 0
  0.625000   0.875000 0
  1.000000   0.750000 0
  0.875000   0.000000 0
  1.000000   0.250000 0
  0.625000   0.375000 0
  0.875000   0.500000 0
  0.625000   0.625000 0
  1.000000   0.500000 0
  0.750000   0.500000 0
  0.750000   1.000000 0
  1.000000   0.125000 0
  0.625000   0.250000 0
  0.750000   0.750000 0
  0.625000   0.000000 0
  0.125000   0.375000 0
  0.000000   0.500000 0
  0.125000   0.625000 0
  0.625000   1.000000 0
  1.000000   0.875000 0
  0.875000   0.125000 0
  0.500000   0.250000 0
  0.625000   0.500000 0
  0.250000   0.625000 0
  0.000000   0.625000 0
  0.375000   0.500000 0
  0.375000   0.000000 0
  0.000000   0.125000 0
  0.125000   0.875000 0
  0.875000   1.000000 0
  0.750000   0.250000 0
  0.375000   0.375000 0
  0.250000   0.375000 0
  0.625000   0.750000 0
  0.125000   0.125000 0
  0.500000   0.000000 0
  0.250000   0.875000 0
  0.125000   0.500000 0
  0.500000   0.375000 0
  0.125000   0.000000 0
  0.250000   0.750000 0
  0.250000   0.500000 0
  0.000000   0.875000 0
  0.875000   0.625000 0
  0.500000   0.750000 0
  0.750000   0.625000 0
  0.250000   0.000000 0
  0.375000   0.750000 0
  0.750000   0.875000 0
  0.625000   0.125000 0
  0.250000   0.250000 0
  0.375000   1.000000 0
  0.375000   0.250000 0
  0.000000   0.375000 0
  0.500000   1.000000 0
  0.875000   0.750000 0
  0.750000   0.000000 0
  0.375000   0.125000 0
  0.500000   0.875000 0
  0.000000   0.000000 0
  0.125000   0.750000 0
  0.500000   0.625000 0
  0.125000   0.250000 0
  0.500000   0.125000 0
  0.250000   1.000000 0
  0.250000   0.125000 0
  0.000000   1.000000 0
  0.375000   0.875000 0
  0.000000   0.750000 0
  0.375000   0.625000 0
  0.000000   0.250000 0
  0.125000   1.000000 0
  1.000000   0.375000 0
  0.500000   0.500000 0
  0.875000   0.375000 0
CELLS 64 320
4 56 71 58 63
4 27 58 69 63
4 41 69 32 63
4 76 33 68 40
4 27 44 58 37
4 79 31 44 37
4 56 38 68 21
4 56 58 38 37
4 52 32 71 63
4 47 38 31 37
4 76 68 59 21
4 22 59 43 21
4 65 45 33 40
4 47 43 38 21
4 52 71 45 40
4 56 68 71 40
4 74 30 66 23
4 46 66 29 23
4 22 43 30 23
4 72 48 77 34
4 46 53 42 73
4 50 64 53 73
4 70 42 57 73
4 74 66 48 34
4 46 42 66 34
4 47 29 43 23
4 70 77 42 34
4 60 57 64 73
4 79 67 31 75
4 47 31 29 75
4 50 53 67 75
4 46 29 53 75
4 10 78 6 80
4 36 6 1 80
4 15 1 12 80
4 36 4 6 26
4 14 12 78 80
4 2 17 9 26
4 36 18 4 55
4 15 28 1 11
4 62 4 20 55
4 10 6 17 26
4 27 18 44 11
4 62 9 4 26
4 27 69 18 55
4 36 1 18 11
4 41 20 69 55
4 79 44 28 11
4 16 24 54 7
4 19 54 39 7
4 50 39 64 7
4 8 25 61 3
4 60 64 24 7
4 79 28 67 13
4 19 51 61 49
4 8 61 0 49
4 15 51 28 13
4 19 39 51 13
4 50 67 39 13
4 19 61 54 3
4 14 0 12 49
4 5 35 25 3
4 15 12 51 49
4 16 54 35 3
CELL_TYPES 64
8
8
8
8
8
8
8
8
8
8
8
8
8
8
8
8
8
8
8
8
8
8
8
8
8
8
8
8
8
8
8
8
8
8
8
8
8
8
8
8
8
8
8
8
8
8
8
8
8
8
8
8
8
8
8
8
8
8
8
8
8
8
8
8
CELL_DATA 64
VECTORS vector_value float
0.261518 -0.626652 0
0.56612 -1.42264 0
0.32084 -0.813518 0
0.00115812 -0.00873992 0
1.95612 -1.47438 0
0.518609 -1.0112 0
0.535385 -0.535227 0
1.59129 -1.16414 0
0.0580281 -0.461699 0
1.26302 -1.02201 0
0.0704218 -0.120814 0
0.836451 -1.19253 0
0.000893899 -0.00646543 0
1.71775 -1.25337 0
0.00928178 -0.0617787 0
0.0304568 -0.0872595 0
-0.0114243 -1.69602 0
-0.32826 -0.784352 0
-0.0402374 -1.94255 0
-0.24435 -1.35189 0
-0.0143978 -0.129415 0
0.0962885 -1.39774 0
0.343998 -0.604022 0
-0.115996 -1.68787 0
-0.133582 -0.376718 0
-0.0933287 -1.02456 0
-0.273511 -0.617093 0
0.363934 -1.29353 0
-0.0157427 -0.425638 0
-0.448759 -1.081 0
-1.1894 -1.24224 0
-0.844122 -0.255898 0
-0.0735194 -0.543092 0
-0.296702 -0.362031 0
-0.235477 -0.615738 0
-0.242355 -0.177607 0
-0.0805189 -0.732394 0
-0.0240579 -0.131132 0
0.707822 -4.19523 0
-0.0515354 -1.2374 0
-0.0884331 -4.6281 0
-0.159082 -0.373833 0
1.73713 -1.78694 0
-0.136002 -0.226695 0
0.598385 -1.10804 0
0.0895836 -2.01338 0
0.441092 -1.67061 0
0.0918904 -0.93536 0
0.0401588 -0.678541 0
-0.753848 -1.21042 0
-0.152725 -1.83245 0
-0.0245425 -0.421627 0
0.0306954 -1.21439 0
-0.000164343 -1.00517 0
0.292547 -0.574707 0
0.0790682 -0.458128 0
0.00837096 -1.03626 0
0.205023 -1.36711 0
-0.351557 -1.62155 0
-0.442469 -0.943756 0
0.106682 -0.775051 0
-0.262473 -0.59655 0
0.108444 -0.709771 0
-0.326174 -1.64399 0
