# vtk DataFile Version 2.0
Unstructured Grid by M++
ASCII
DATASET UNSTRUCTURED_GRID
POINTS 81 float
  1.000000   0.625000 0
  0.750000   0.375000 0
  1.000000   0.000000 0
  0.875000   0.875000 0
  0.750000   0.125000 0
  1.000000   1.000000 0
  0.875000   0.250000 0
  0.625000   0.875000 0
  1.000000   0.750000 0
  0.875000   0.000000 0
  1.000000   0.250000 0
  0.625000   0.375000 0
  0.875000   0.500000 0
  0.625000   0.625000 0
  1.000000   0.500000 0
  0.750000   0.500000 0
  0.750000   1.000000 0
  1.000000   0.125000 0
  0.625000   0.250000 0
  0.750000   0.750000 0
  0.625000   0.000000 0
  0.125000   0.375000 0
  0.000000   0.500000 0
  0.125000   0.625000 0
  0.625000   1.000000 0
  1.000000   0.875000 0
  0.875000   0.125000 0
  0.500000   0.250000 0
  0.625000   0.500000 0
  0.250000   0.625000 0
  0.000000   0.625000 0
  0.375000   0.500000 0
  0.375000   0.000000 0
  0.000000   0.125000 0
  0.125000   0.875000 0
  0.875000   1.000000 0
  0.750000   0.250000 0
  0.375000   0.375000 0
  0.250000   0.375000 0
  0.625000   0.750000 0
  0.125000   0.125000 0
  0.500000   0.000000 0
  0.250000   0.875000 0
  0.125000   0.500000 0
  0.500000   0.375000 0
  0.125000   0.000000 0
  0.250000   0.750000 0
  0.250000   0.500000 0
  0.000000   0.875000 0
  0.875000   0.625000 0
  0.500000   0.750000 0
  0.750000   0.625000 0
  0.250000   0.000000 0
  0.375000   0.750000 0
  0.750000   0.875000 0
  0.625000   0.125000 0
  0.250000   0.250000 0
  0.375000   1.000000 0
  0.375000   0.250000 0
  0.000000   0.375000 0
  0.500000   1.000000 0
  0.875000   0.750000 0
  0.750000   0.000000 0
  0.375000   0.125000 0
  0.500000   0.875000 0
  0.000000   0.000000 0
  0.125000   0.750000 0
  0.500000   0.625000 0
  0.125000   0.250000 0
  0.500000   0.125000 0
  0.250000   1.000000 0
  0.250000   0.125000 0
  0.000000   1.000000 0
  0.375000   0.875000 0
  0.000000   0.750000 0
  0.375000   0.625000 0
  0.000000   0.250000 0
  0.125000   1.000000 0
  1.000000   0.375000 0
  0.500000   0.500000 0
  0.875000   0.375000 0
CELLS 64 320
4 56 71 58 63
4 27 58 69 63
4 41 69 32 63
4 76 33 68 40
4 27 44 58 37
4 79 31 44 37
4 56 38 68 21
4 56 58 38 37
4 52 32 71 63
4 47 38 31 37
4 76 68 59 21
4 22 59 43 21
4 65 45 33 40
4 47 43 38 21
4 52 71 45 40
4 56 68 71 40
4 74 30 66 23
4 46 66 29 23
4 22 43 30 23
4 72 48 77 34
4 46 53 42 73
4 50 64 53 73
4 70 42 57 73
4 74 66 48 34
4 46 42 66 34
4 47 29 43 23
4 70 77 42 34
4 60 57 64 73
4 79 67 31 75
4 47 31 29 75
4 50 53 67 75
4 46 29 53 75
4 10 78 6 80
4 36 6 1 80
4 15 1 12 80
4 36 4 6 26
4 14 12 78 80
4 2 17 9 26
4 36 18 4 55
4 15 28 1 11
4 62 4 20 55
4 10 6 17 26
4 27 18 44 11
4 62 9 4 26
4 27 69 18 55
4 36 1 18 11
4 41 20 69 55
4 79 44 28 11
4 16 24 54 7
4 19 54 39 7
4 50 39 64 7
4 8 25 61 3
4 60 64 24 7
4 79 28 67 13
4 19 51 61 49
4 8 61 0 49
4 15 51 28 13
4 19 39 51 13
4 50 67 39 13
4 19 61 54 3
4 14 0 12 49
4 5 35 25 3
4 15 12 51 49
4 16 54 35 3
CELL_TYPES 64
8
8
8
8
8
8
8
8
8
8
8
8
8
8
8
8
8
8
8
8
8
8
8
8
8
8
8
8
8
8
8
8
8
8
8
8
8
8
8
8
8
8
8
8
8
8
8
8
8
8
8
8
8
8
8
8
8
8
8
8
8
8
8
8
CELL_DATA 64
VECTORS vector_value float
0.341521 -0.944279 0
-0.73861 -2.87187 0
-0.267596 -2.91649 0
0.332177 -1.19373 0
-0.0337898 -1.58286 0
0.565897 -0.923453 0
0.182811 -0.845939 0
0.263981 -0.45452 0
-0.143089 -1.65217 0
0.43193 -0.369553 0
0.142447 -1.80913 0
0.0342345 -1.89518 0
0.257264 -0.484984 0
0.31148 -1.26392 0
0.435434 -1.29586 0
0.622608 -0.859256 0
-0.190509 -2.16182 0
-0.322366 -1.57213 0
0.14906 -2.18826 0
-0.285861 -1.44265 0
-1.03428 -1.00962 0
-0.800808 -1.25228 0
-0.398486 -0.573584 0
-0.138428 -1.66397 0
-0.572164 -1.38648 0
0.380661 -1.45371 0
-0.598802 -1.02663 0
-0.609176 -1.33031 0
0.140815 -0.192459 0
0.615535 -0.801308 0
0.307416 -0.899019 0
-0.207886 -0.728998 0
-0.0393091 -0.277643 0
-0.116389 -0.769862 0
-0.780111 -1.0135 0
0.0106926 -0.801459 0
-0.275426 -0.543692 0
-0.0123034 -0.237072 0
-0.0374204 -0.140627 0
-0.55416 -0.534304 0
0.0955334 -0.262334 0
-0.00246981 -0.259367 0
-0.486361 -1.63634 0
-0.00566102 -0.839817 0
-0.628331 -0.929406 0
-0.384591 -0.623702 0
-0.0467604 -0.311278 0
-0.257981 -1.45639 0
-0.236169 -0.467882 0
-0.0247193 -0.092546 0
-0.141934 -0.384592 0
0.125744 -2.09938 0
-0.906051 -1.07212 0
0.395064 -1.02789 0
-0.0166812 -0.0621599 0
-0.191731 -2.14898 0
-0.127988 -0.29754 0
-0.00650753 -0.0464763 0
0.0594226 -0.380409 0
0.0799612 -0.111131 0
-0.457681 -1.47064 0
0.469662 -1.66819 0
-0.615968 -0.568194 0
0.600194 -0.418642 0
