# vtk DataFile Version 2.0
Unstructured Grid by M++
ASCII
DATASET UNSTRUCTURED_GRID
POINTS 81 float
  1.000000   0.625000 0
  0.750000   0.375000 0
  1.000000   0.000000 0
  0.875000   0.875000 0
  0.750000   0.125000 0
  1.000000   1.000000 0
  0.875000   0.250000 0
  0.625000   0.875000 0
  1.000000   0.750000 0
  0.875000   0.000000 0
  1.000000   0.250000 0
  0.625000   0.375000 0
  0.875000   0.500000 0
  0.625000   0.625000 0
  1.000000   0.500000 0
  0.750000   0.500000 0
  0.750000   1.000000 0
  1.000000   0.125000 0
  0.625000   0.250000 0
  0.750000   0.750000 0
  0.625000   0.000000 0
  0.125000   0.375000 0
  0.000000   0.500000 0
  0.125000   0.625000 0
  0.625000   1.000000 0
  1.000000   0.875000 0
  0.875000   0.125000 0
  0.500000   0.250000 0
  0.625000   0.500000 0
  0.250000   0.625000 0
  0.000000   0.625000 0
  0.375000   0.500000 0
  0.375000   0.000000 0
  0.000000   0.125000 0
  0.125000   0.875000 0
  0.875000   1.000000 0
  0.750000   0.250000 0
  0.375000   0.375000 0
  0.250000   0.375000 0
  0.625000   0.750000 0
  0.125000   0.125000 0
  0.500000   0.000000 0
  0.250000   0.875000 0
  0.125000   0.500000 0
  0.500000   0.375000 0
  0.125000   0.000000 0
  0.250000   0.750000 0
  0.250000   0.500000 0
  0.000000   0.875000 0
  0.875000   0.625000 0
  0.500000   0.750000 0
  0.750000   0.625000 0
  0.250000   0.000000 0
  0.375000   0.750000 0
  0.750000   0.875000 0
  0.625000   0.125000 0
  0.250000   0.250000 0
  0.375000   1.000000 0
  0.375000   0.250000 0
  0.000000   0.375000 0
  0.500000   1.000000 0
  0.875000   0.750000 0
  0.750000   0.000000 0
  0.375000   0.125000 0
  0.500000   0.875000 0
  0.000000   0.000000 0
  0.125000   0.750000 0
  0.500000   0.625000 0
  0.125000   0.250000 0
  0.500000   0.125000 0
  0.250000   1.000000 0
  0.250000   0.125000 0
  0.000000   1.000000 0
  0.375000   0.875000 0
  0.000000   0.750000 0
  0.375000   0.625000 0
  0.000000   0.250000 0
  0.125000   1.000000 0
  1.000000   0.375000 0
  0.500000   0.500000 0
  0.875000   0.375000 0
CELLS 64 320
4 56 71 58 63
4 27 58 69 63
4 41 69 32 63
4 76 33 68 40
4 27 44 58 37
4 79 31 44 37
4 56 38 68 21
4 56 58 38 37
4 52 32 71 63
4 47 38 31 37
4 76 68 59 21
4 22 59 43 21
4 65 45 33 40
4 47 43 38 21
4 52 71 45 40
4 56 68 71 40
4 74 30 66 23
4 46 66 29 23
4 22 43 30 23
4 72 48 77 34
4 46 53 42 73
4 50 64 53 73
4 70 42 57 73
4 74 66 48 34
4 46 42 66 34
4 47 29 43 23
4 70 77 42 34
4 60 57 64 73
4 79 67 31 75
4 47 31 29 75
4 50 53 67 75
4 46 29 53 75
4 10 78 6 80
4 36 6 1 80
4 15 1 12 80
4 36 4 6 26
4 14 12 78 80
4 2 17 9 26
4 36 18 4 55
4 15 28 1 11
4 62 4 20 55
4 10 6 17 26
4 27 18 44 11
4 62 9 4 26
4 27 69 18 55
4 36 1 18 11
4 41 20 69 55
4 79 44 28 11
4 16 24 54 7
4 19 54 39 7
4 50 39 64 7
4 8 25 61 3
4 60 64 24 7
4 79 28 67 13
4 19 51 61 49
4 8 61 0 49
4 15 51 28 13
4 19 39 51 13
4 50 67 39 13
4 19 61 54 3
4 14 0 12 49
4 5 35 25 3
4 15 12 51 49
4 16 54 35 3
CELL_TYPES 64
8
8
8
8
8
8
8
8
8
8
8
8
8
8
8
8
8
8
8
8
8
8
8
8
8
8
8
8
8
8
8
8
8
8
8
8
8
8
8
8
8
8
8
8
8
8
8
8
8
8
8
8
8
8
8
8
8
8
8
8
8
8
8
8
CELL_DATA 64
VECTORS vector_value float
-0.387218 -1.6783 0
-0.17018 -0.34362 0
-0.00497712 -0.674145 0
0.071279 -1.88468 0
-1.46018 -0.910884 0
-2.25991 -0.950421 0
-0.790029 -2.38136 0
-1.18529 -0.997304 0
0.178475 -1.76581 0
-1.42177 -0.59008 0
-0.139823 -1.96366 0
-0.157152 -1.5287 0
0.0251828 -1.75274 0
-0.680496 -1.50565 0
0.0827417 -2.84172 0
0.0888301 -2.92958 0
-0.0702455 -0.693776 0
-0.380644 -0.917298 0
-0.281152 -1.18327 0
0.229681 -0.534777 0
-0.134594 -0.540028 0
-0.0177659 -0.368506 0
1.0354 -1.01198 0
-0.0499425 -0.612839 0
-0.0557283 -0.594933 0
-0.523981 -0.967649 0
0.5995 -0.918329 0
1.51966 -0.740991 0
-0.183629 -0.0941948 0
-0.547549 -0.498387 0
-0.621179 -0.362206 0
-0.485063 -0.422051 0
-0.0371803 -0.680837 0
-0.0988741 -0.16065 0
-0.0634303 -0.349215 0
-0.0892468 -0.124706 0
0.0900559 -0.670722 0
-0.00586057 -0.529388 0
-0.0815839 -0.162275 0
-0.527215 -0.798732 0
-0.050691 -0.178506 0
-0.0411121 -0.596534 0
-0.677544 -0.684496 0
-0.0233557 -0.0985176 0
-0.12449 -0.280299 0
-0.181726 -0.220804 0
-0.0885038 -0.159176 0
-1.36434 -1.60648 0
0.270583 -1.8044 0
0.248804 -2.68859 0
0.404947 -1.55358 0
-0.0916456 -0.801466 0
1.26839 -1.30087 0
-1.62283 -1.84476 0
-0.290234 -0.594441 0
-0.114924 -0.576525 0
-1.01455 -2.21505 0
-0.45491 -3.4227 0
-0.424376 -1.011 0
-0.15364 -0.840052 0
0.0226456 -0.416251 0
-0.0582622 -0.926113 0
0.0333352 -0.780434 0
-0.2398 -0.762546 0
