# vtk DataFile Version 2.0
Unstructured Grid by M++
ASCII
DATASET UNSTRUCTURED_GRID
POINTS 289 float
  0.562500   1.000000 0
  0.562500   0.625000 0
  0.625000   1.000000 0
  0.562500   0.937500 0
  0.562500   0.562500 0
  0.625000   0.937500 0
  0.562500   0.875000 0
  0.625000   0.750000 0
  0.625000   0.625000 0
  0.562500   0.812500 0
  0.562500   0.750000 0
  0.562500   0.687500 0
  0.625000   0.875000 0
  0.625000   0.812500 0
  0.625000   0.687500 0
  0.687500   0.125000 0
  0.875000   0.062500 0
  0.625000   0.125000 0
  0.625000   0.187500 0
  0.625000   0.250000 0
  0.812500   0.187500 0
  1.000000   0.125000 0
  0.687500   0.187500 0
  0.750000   0.125000 0
  0.937500   0.062500 0
  0.937500   0.125000 0
  0.750000   0.187500 0
  0.812500   0.062500 0
  0.812500   0.125000 0
  0.875000   0.687500 0
  0.187500   0.250000 0
  0.437500   0.250000 0
  0.375000   0.187500 0
  0.812500   0.625000 0
  0.125000   0.187500 0
  0.937500   0.750000 0
  0.250000   0.312500 0
  0.500000   0.312500 0
  0.625000   0.062500 0
  0.437500   0.500000 0
  0.375000   0.125000 0
  0.437500   0.187500 0
  0.437500   0.437500 0
  0.437500   0.375000 0
  0.875000   0.875000 0
  0.187500   0.375000 0
  0.687500   0.562500 0
  0.687500   0.625000 0
  0.000000   0.125000 0
  0.937500   0.625000 0
  0.250000   0.125000 0
  0.375000   0.062500 0
  0.375000   0.000000 0
  0.812500   0.500000 0
  0.125000   0.000000 0
  0.937500   0.937500 0
  0.250000   0.437500 0
  0.687500   0.875000 0
  0.687500   0.937500 0
  0.000000   0.437500 0
  0.500000   0.500000 0
  0.500000   0.437500 0
  0.750000   0.937500 0
  0.750000   1.000000 0
  0.062500   0.500000 0
  1.000000   1.000000 0
  0.312500   0.500000 0
  0.875000   0.562500 0
  0.187500   0.062500 0
  0.437500   0.125000 0
  0.437500   0.062500 0
  0.500000   0.375000 0
  0.937500   0.812500 0
  0.937500   0.875000 0
  0.250000   0.375000 0
  0.687500   0.812500 0
  0.000000   0.375000 0
  0.750000   0.562500 0
  0.062500   0.125000 0
  1.000000   0.562500 0
  1.000000   0.625000 0
  0.312500   0.125000 0
  0.562500   0.125000 0
  0.437500   0.000000 0
  0.875000   0.437500 0
  0.875000   0.500000 0
  0.187500   0.000000 0
  0.937500   0.562500 0
  0.937500   0.500000 0
  0.250000   0.062500 0
  0.687500   0.500000 0
  0.000000   0.062500 0
  0.500000   0.062500 0
  1.000000   0.875000 0
  1.000000   0.937500 0
  0.312500   0.437500 0
  0.750000   0.875000 0
  0.062500   0.437500 0
  0.812500   0.937500 0
  0.125000   0.500000 0
  0.375000   0.500000 0
  0.625000   0.562500 0
  0.625000   0.500000 0
  0.437500   0.312500 0
  0.875000   0.812500 0
  0.875000   0.750000 0
  0.187500   0.312500 0
  0.812500   0.687500 0
  0.812500   0.750000 0
  0.125000   0.250000 0
  0.375000   0.250000 0
  1.000000   0.687500 0
  0.312500   0.187500 0
  0.750000   0.687500 0
  0.750000   0.625000 0
  0.062500   0.187500 0
  0.562500   0.250000 0
  0.562500   0.187500 0
  0.375000   1.000000 0
  0.500000   0.562500 0
  0.500000   0.250000 0
  0.750000   0.250000 0
  0.500000   0.125000 0
  0.500000   0.187500 0
  1.000000   0.187500 0
  0.625000   0.375000 0
  0.875000   0.375000 0
  1.000000   0.437500 0
  0.312500   0.000000 0
  0.562500   0.000000 0
  0.812500   0.000000 0
  0.250000   0.687500 0
  0.000000   0.687500 0
  0.500000   1.000000 0
  0.250000   1.000000 0
  0.000000   1.000000 0
  0.437500   0.687500 0
  0.437500   0.625000 0
  0.187500   0.625000 0
  0.687500   0.750000 0
  0.000000   0.312500 0
  0.000000   0.250000 0
  0.375000   0.375000 0
  0.375000   0.312500 0
  0.812500   0.812500 0
  0.125000   0.312500 0
  0.875000   0.625000 0
  0.187500   0.187500 0
  0.187500   0.125000 0
  0.937500   1.000000 0
  0.250000   0.562500 0
  0.250000   0.500000 0
  0.687500   1.000000 0
  0.000000   0.500000 0
  0.687500   0.687500 0
  0.000000   0.187500 0
  0.937500   0.687500 0
  0.250000   0.250000 0
  0.250000   0.187500 0
  0.187500   0.687500 0
  0.000000   0.750000 0
  0.250000   0.750000 0
  0.125000   0.625000 0
  0.750000   0.750000 0
  0.062500   0.250000 0
  0.875000   0.937500 0
  0.187500   0.500000 0
  0.187500   0.437500 0
  0.812500   0.562500 0
  0.125000   0.125000 0
  0.125000   0.062500 0
  0.375000   0.625000 0
  0.375000   0.687500 0
  1.000000   0.750000 0
  0.312500   0.250000 0
  0.312500   0.312500 0
  0.812500   0.312500 0
  0.562500   0.312500 0
  0.375000   0.750000 0
  0.500000   0.625000 0
  0.250000   0.625000 0
  0.312500   0.687500 0
  0.750000   0.812500 0
  0.062500   0.312500 0
  0.062500   0.375000 0
  1.000000   0.812500 0
  0.312500   0.375000 0
  0.562500   0.375000 0
  0.687500   0.437500 0
  0.000000   0.000000 0
  0.500000   0.000000 0
  0.937500   0.437500 0
  0.250000   0.000000 0
  0.375000   0.437500 0
  0.812500   0.875000 0
  0.125000   0.375000 0
  0.125000   0.437500 0
  0.625000   0.437500 0
  1.000000   0.500000 0
  0.312500   0.062500 0
  0.750000   0.500000 0
  0.062500   0.000000 0
  0.062500   0.062500 0
  0.562500   0.062500 0
  0.062500   0.750000 0
  0.312500   0.750000 0
  0.312500   0.625000 0
  0.312500   0.562500 0
  0.062500   0.562500 0
  0.187500   1.000000 0
  0.437500   0.562500 0
  0.875000   1.000000 0
  0.187500   0.562500 0
  0.500000   0.937500 0
  0.250000   0.937500 0
  0.312500   1.000000 0
  0.125000   0.750000 0
  0.125000   0.687500 0
  1.000000   0.000000 0
  0.000000   0.937500 0
  0.000000   0.875000 0
  0.875000   0.125000 0
  0.875000   0.187500 0
  0.062500   0.812500 0
  0.312500   0.812500 0
  0.000000   0.812500 0
  0.000000   0.625000 0
  0.000000   0.562500 0
  0.062500   1.000000 0
  0.062500   0.937500 0
  0.937500   0.187500 0
  0.937500   0.250000 0
  0.062500   0.687500 0
  0.062500   0.625000 0
  0.125000   1.000000 0
  1.000000   0.250000 0
  1.000000   0.312500 0
  0.062500   0.875000 0
  0.125000   0.812500 0
  0.375000   0.812500 0
  0.125000   0.875000 0
  0.375000   0.937500 0
  0.375000   0.875000 0
  0.187500   0.750000 0
  0.187500   0.812500 0
  0.437500   0.812500 0
  0.187500   0.875000 0
  0.437500   0.875000 0
  0.375000   0.562500 0
  0.812500   1.000000 0
  0.125000   0.562500 0
  0.437500   1.000000 0
  0.437500   0.937500 0
  0.187500   0.937500 0
  0.125000   0.937500 0
  0.500000   0.687500 0
  0.500000   0.750000 0
  0.500000   0.812500 0
  0.250000   0.812500 0
  0.250000   0.875000 0
  0.500000   0.875000 0
  0.437500   0.750000 0
  0.312500   0.875000 0
  0.312500   0.937500 0
  0.687500   0.250000 0
  0.687500   0.312500 0
  0.937500   0.312500 0
  0.875000   0.250000 0
  0.625000   0.000000 0
  0.875000   0.000000 0
  0.687500   0.375000 0
  0.937500   0.375000 0
  0.875000   0.312500 0
  0.625000   0.312500 0
  0.687500   0.000000 0
  0.937500   0.000000 0
  0.750000   0.312500 0
  0.750000   0.375000 0
  1.000000   0.375000 0
  0.812500   0.250000 0
  0.562500   0.437500 0
  0.562500   0.500000 0
  0.687500   0.062500 0
  0.750000   0.437500 0
  0.750000   0.000000 0
  0.750000   0.062500 0
  1.000000   0.062500 0
  0.812500   0.375000 0
  0.812500   0.437500 0
CELLS 256 1280
4 169 170 148 68
4 151 166 56 167
4 195 45 196 167
4 54 170 201 202
4 109 34 30 147
4 40 32 81 112
4 192 89 86 68
4 48 91 78 202
4 99 64 196 97
4 71 43 37 103
4 74 186 56 95
4 109 164 34 115
4 50 81 158 112
4 122 69 92 70
4 195 145 45 106
4 110 143 174 175
4 157 30 158 147
4 40 69 32 41
4 50 158 148 147
4 141 155 164 115
4 122 123 69 41
4 142 186 143 175
4 60 39 61 42
4 40 51 69 70
4 120 31 123 41
4 157 174 36 175
4 50 148 89 68
4 48 78 155 115
4 52 83 51 70
4 151 56 66 95
4 71 61 43 42
4 169 148 34 147
4 100 193 39 42
4 40 81 51 199
4 110 174 32 112
4 109 30 145 106
4 100 66 193 95
4 169 34 78 115
4 190 92 83 70
4 50 89 81 199
4 54 86 170 68
4 74 56 45 167
4 142 143 43 103
4 153 59 64 97
4 99 196 166 167
4 169 78 170 202
4 142 193 186 95
4 192 128 89 199
4 74 45 36 106
4 110 31 143 103
4 76 184 59 97
4 142 43 193 42
4 52 51 128 199
4 189 201 91 202
4 120 37 31 103
4 74 36 186 175
4 195 196 184 97
4 141 164 140 183
4 157 158 174 112
4 109 145 164 183
4 195 184 145 183
4 110 32 31 41
4 157 36 30 106
4 76 140 184 183
4 171 172 206 181
4 178 172 261 136
4 256 261 255 136
4 256 257 261 245
4 180 150 206 207
4 60 119 39 210
4 118 215 241 263
4 178 205 172 181
4 216 243 238 244
4 162 217 233 232
4 180 206 131 181
4 179 137 119 210
4 216 204 217 232
4 220 237 219 229
4 216 217 243 159
4 259 258 262 224
4 240 254 237 229
4 153 64 227 208
4 161 205 258 224
4 240 237 238 223
4 226 227 233 208
4 234 228 254 229
4 171 248 137 210
4 160 132 204 232
4 180 131 138 159
4 133 251 213 252
4 171 206 248 207
4 162 138 217 159
4 161 258 243 244
4 220 225 237 223
4 151 150 166 212
4 260 247 257 245
4 259 262 214 263
4 151 66 150 207
4 234 254 209 253
4 162 233 250 208
4 242 241 262 263
4 171 137 172 136
4 161 243 131 159
4 160 204 225 223
4 161 131 205 181
4 179 255 137 136
4 216 238 204 223
4 100 39 248 210
4 260 213 247 252
4 226 233 132 232
4 134 214 215 263
4 180 138 150 212
4 178 261 239 245
4 259 246 258 244
4 178 239 205 224
4 240 238 246 244
4 242 262 239 224
4 99 250 64 208
4 240 246 254 253
4 242 239 247 245
4 135 219 228 229
4 99 166 250 212
4 259 214 246 253
4 118 241 251 252
4 100 248 66 207
4 134 209 214 253
4 162 250 138 212
4 242 247 241 252
4 71 187 61 280
4 102 281 197 280
4 122 92 82 203
4 17 18 82 117
4 122 82 123 117
4 19 264 273 265
4 267 279 222 20
4 125 273 270 265
4 267 272 279 176
4 19 116 18 117
4 21 25 286 24
4 23 28 26 20
4 23 285 28 27
4 218 286 275 24
4 85 53 84 288
4 235 236 231 266
4 221 222 28 20
4 267 222 231 230
4 268 38 129 203
4 125 270 197 188
4 126 287 272 176
4 277 270 276 265
4 267 231 272 266
4 125 197 187 280
4 190 129 92 203
4 277 276 287 176
4 19 18 264 22
4 17 82 38 203
4 102 197 90 188
4 126 84 287 288
4 284 130 285 27
4 121 276 264 265
4 71 37 187 177
4 120 123 116 117
4 198 88 127 191
4 221 16 25 24
4 23 26 15 22
4 121 279 276 176
4 235 231 124 230
4 125 187 273 177
4 278 271 236 266
4 277 287 283 288
4 284 285 274 282
4 278 127 271 191
4 269 275 16 24
4 200 283 53 288
4 23 15 285 282
4 121 26 279 20
4 21 124 25 230
4 19 273 116 177
4 200 90 283 188
4 126 271 84 191
4 269 16 130 27
4 17 38 15 282
4 221 25 222 230
4 121 264 26 22
4 120 116 37 177
4 60 61 281 280
4 277 283 270 188
4 126 272 271 266
4 268 274 38 282
4 85 84 88 191
4 17 15 18 22
4 221 28 16 27
4 93 94 73 55
4 85 88 67 87
4 80 49 79 87
4 44 104 73 72
4 146 33 67 168
4 211 165 149 55
4 8 47 14 154
4 105 104 108 144
4 105 108 29 107
4 7 139 13 75
4 44 165 194 98
4 200 53 77 168
4 8 1 101 4
4 2 5 152 58
4 260 6 213 3
4 105 35 104 72
4 96 57 182 75
4 7 14 139 154
4 146 29 33 107
4 7 13 10 9
4 12 13 57 75
4 85 67 53 168
4 44 73 165 55
4 63 152 62 58
4 8 101 47 46
4 96 182 194 144
4 60 281 119 4
4 12 5 6 3
4 173 185 35 72
4 65 149 94 55
4 146 67 49 87
4 114 113 47 154
4 163 108 182 144
4 12 6 13 9
4 173 35 111 156
4 163 182 139 75
4 260 257 6 9
4 105 29 35 156
4 163 139 113 154
4 256 10 257 9
4 146 49 29 156
4 163 113 108 107
4 80 111 49 156
4 102 101 281 4
4 12 57 5 58
4 44 194 104 144
4 96 194 62 98
4 2 0 5 3
4 93 73 185 72
4 179 119 1 4
4 200 77 90 46
4 114 33 113 107
4 7 10 14 11
4 96 62 57 58
4 133 213 0 3
4 102 90 101 46
4 256 255 10 11
4 63 62 249 98
4 114 47 77 46
4 179 1 255 11
4 211 249 165 98
4 114 77 33 168
4 198 79 88 87
4 8 14 1 11
CELL_TYPES 256
8
8
8
8
8
8
8
8
8
8
8
8
8
8
8
8
8
8
8
8
8
8
8
8
8
8
8
8
8
8
8
8
8
8
8
8
8
8
8
8
8
8
8
8
8
8
8
8
8
8
8
8
8
8
8
8
8
8
8
8
8
8
8
8
8
8
8
8
8
8
8
8
8
8
8
8
8
8
8
8
8
8
8
8
8
8
8
8
8
8
8
8
8
8
8
8
8
8
8
8
8
8
8
8
8
8
8
8
8
8
8
8
8
8
8
8
8
8
8
8
8
8
8
8
8
8
8
8
8
8
8
8
8
8
8
8
8
8
8
8
8
8
8
8
8
8
8
8
8
8
8
8
8
8
8
8
8
8
8
8
8
8
8
8
8
8
8
8
8
8
8
8
8
8
8
8
8
8
8
8
8
8
8
8
8
8
8
8
8
8
8
8
8
8
8
8
8
8
8
8
8
8
8
8
8
8
8
8
8
8
8
8
8
8
8
8
8
8
8
8
8
8
8
8
8
8
8
8
8
8
8
8
8
8
8
8
8
8
8
8
8
8
8
8
8
8
8
8
8
8
8
8
8
8
8
8
CELL_DATA 256
VECTORS vector_value float
-0.733513 -1.78875 0
0.411664 -0.27424 0
0.138178 -0.389008 0
-0.216024 -1.8768 0
-0.773954 -0.921828 0
-0.00863029 -0.015781 0
-0.0778472 -0.275515 0
-0.147181 -1.83633 0
0.130463 -0.646412 0
0.370615 -0.378782 0
0.175225 -0.704059 0
-0.177285 -0.378479 0
-0.0883991 -0.139111 0
0.00348192 -0.011296 0
0.137694 -0.315694 0
-0.762415 -0.978282 0
-1.58051 -2.01412 0
0.00267241 -0.0121902 0
-0.561519 -1.29839 0
-0.0370155 -1.5354 0
0.0189812 -0.0213041 0
-0.472718 -1.91342 0
0.909852 -0.857831 0
0.00062845 -0.00413783 0
0.114382 -0.0531702 0
-1.55658 -1.39844 0
-0.257746 -0.539172 0
-0.0350291 -1.57115 0
0.000860941 -0.00554933 0
0.397401 -0.629786 0
0.590605 -0.681074 0
-0.845655 -1.77036 0
1.19302 -1.62451 0
-0.000882829 -0.00813563 0
-0.138883 -0.142196 0
-0.0154639 -0.427074 0
0.938382 -2.0301 0
-0.324117 -0.882808 0
0.000745089 -0.0089826 0
-0.0184695 -0.0409239 0
-0.248663 -1.52449 0
0.142179 -0.256299 0
0.0346306 -0.938352 0
-0.067965 -1.67584 0
0.379025 -0.479004 0
-0.593815 -1.46595 0
0.133409 -1.68861 0
-0.00513222 -0.0185465 0
0.0707329 -0.446366 0
0.133793 -0.401226 0
0.0632049 -1.66703 0
0.250958 -1.58753 0
0.000519221 -0.00583632 0
-0.0352131 -1.9764 0
0.537182 -0.23199 0
-0.225309 -0.83394 0
0.112721 -0.40732 0
0.00358811 -1.46643 0
-0.721593 -0.657729 0
0.0270126 -0.315394 0
0.116809 -0.406365 0
0.0340682 -0.100619 0
-0.573102 -1.00537 0
0.0382504 -1.51451 0
0.0253129 -0.702248 0
-0.195559 -0.894464 0
-0.166472 -0.453515 0
-0.350882 -0.670585 0
0.918082 -0.845154 0
0.263234 -0.70581 0
-0.960315 -0.747777 0
-0.0263483 -0.621726 0
-0.0846649 -1.36058 0
0.692482 -1.81661 0
0.283955 -0.396885 0
0.104571 -0.811376 0
0.459993 -1.84758 0
-0.411204 -1.14259 0
0.102827 -1.43506 0
-0.119625 -0.370538 0
-1.36292 -2.15435 0
-0.0258195 -1.46723 0
-0.00424874 -0.396774 0
-0.969807 -1.80633 0
0.188723 -1.62273 0
-0.0829939 -1.26635 0
0.126533 -0.768362 0
0.311297 -2.79576 0
0.683976 -0.568579 0
-0.00418402 -1.3324 0
0.354331 -1.16492 0
0.772351 -1.66701 0
-0.0794726 -0.381934 0
-0.704751 -2.4167 0
1.3588 -0.429591 0
-0.308031 -0.869369 0
-0.845125 -0.779996 0
1.727 -1.05245 0
-0.655378 -1.32539 0
0.599851 -1.67817 0
-0.294654 -0.25836 0
-0.0440115 -0.967366 0
0.00695125 -0.398954 0
-0.0250615 -3.37237 0
0.0231294 -0.181059 0
-0.112574 -0.512961 0
-0.0349446 -1.26173 0
0.375951 -0.904314 0
-0.159008 -1.00785 0
0.324682 -2.1985 0
-1.10364 -1.07466 0
1.0856 -0.605723 0
-0.289507 -0.629907 0
-0.392977 -0.710608 0
-0.0534788 -0.345738 0
-0.740633 -1.41654 0
-0.151078 -0.23267 0
0.171776 -1.20461 0
-1.36453 -1.2176 0
-0.289705 -0.384515 0
0.0654261 -0.857565 0
0.800329 -0.942162 0
-1.37993 -1.19203 0
-0.287911 -0.490185 0
1.24287 -1.99855 0
-0.885214 -1.07097 0
0.975162 -1.50551 0
-0.226635 -0.283885 0
1.08777 -1.37725 0
1.24599 -1.73504 0
0.006983 -0.0181954 0
0.135629 -0.134963 0
0.0328023 -0.0278302 0
1.13596 -2.1326 0
-0.33082 -0.824391 0
1.23636 -1.94934 0
-0.216587 -0.720602 0
0.383998 -0.300185 0
0.000882348 -0.0112484 0
0.796491 -3.16365 0
1.30106 -4.33031 0
0.00220188 -0.0157565 0
0.34288 -0.562081 0
-0.111435 -0.209457 0
-0.123593 -0.623325 0
-0.16818 -0.27599 0
0.000526835 -0.0347987 0
1.58199 -1.57886 0
-0.502397 -0.92941 0
0.571799 -1.74836 0
-0.267498 -0.455756 0
1.64149 -1.57155 0
-0.00452374 -0.0313774 0
-0.350178 -1.62526 0
1.0338 -2.29793 0
0.0251594 -0.0694944 0
1.01284 -0.941845 0
-0.0123374 -0.764136 0
1.3282 -6.3334 0
0.227722 -3.35417 0
0.787582 -0.711765 0
0.254148 -0.129204 0
-0.0292724 -0.678773 0
-0.00541333 -0.0533422 0
1.42088 -4.71706 0
-0.325035 -1.59404 0
-0.0117025 -0.0268857 0
1.10053 -1.31315 0
-0.180027 -0.555778 0
0.463511 -0.98545 0
0.238637 -1.63265 0
-0.0201919 -0.630587 0
0.00134971 -0.0454888 0
0.55733 -0.527065 0
2.03565 -4.40679 0
-0.110628 -1.56288 0
-0.00162693 -0.0103637 0
1.34287 -1.08082 0
0.856302 -0.731832 0
-0.115914 -0.719418 0
0.471643 -1.91382 0
0.262822 -0.522787 0
-0.0435823 -0.0964018 0
0.698338 -4.77899 0
0.653567 -0.228353 0
1.11472 -2.05489 0
0.937114 -0.991818 0
-0.337912 -0.419501 0
0.0164548 -0.300578 0
0.054218 -0.550753 0
0.86251 -1.51532 0
0.182478 -0.893146 0
-0.0504662 -0.100001 0
0.0909209 -0.419852 0
0.171642 -0.37609 0
-0.0299975 -0.106978 0
0.197387 -0.252322 0
-1.16911 -0.549348 0
0.119497 -1.07442 0
0.128756 -0.290515 0
0.244952 -0.426226 0
-0.701271 -1.91139 0
-0.481932 -0.486855 0
0.3013 -0.389055 0
-0.0536355 -2.6509 0
-0.978073 -1.59687 0
-0.0975936 -1.9835 0
0.0332829 -0.135217 0
-0.755828 -1.4163 0
-0.0843902 -1.26344 0
0.338815 -0.287047 0
-0.247071 -3.02736 0
-0.642754 -1.67848 0
0.089355 -0.277089 0
-0.204148 -0.194565 0
-1.8483 -1.32271 0
0.264061 -1.01261 0
-0.297219 -0.573007 0
0.14699 -2.10303 0
-0.51554 -0.855518 0
0.00235767 -0.0394308 0
-0.419684 -0.537576 0
0.336273 -0.647601 0
0.124736 -0.204251 0
0.186836 -0.370921 0
-0.325856 -2.0537 0
0.0175365 -0.0665971 0
-0.106283 -0.696184 0
0.0598675 -1.66889 0
0.11069 -0.262841 0
0.22676 -0.478305 0
-0.0152188 -1.10937 0
0.253743 -0.561243 0
0.144974 -0.22233 0
0.0402972 -0.128549 0
0.258027 -2.06533 0
-1.01256 -2.33911 0
-0.065831 -0.251552 0
-0.930905 -0.961408 0
-0.635656 -0.688887 0
-0.0100569 -0.0438268 0
-0.142048 -1.5322 0
0.440331 -0.474617 0
0.361943 -0.384656 0
-0.435516 -3.79453 0
-0.612453 -1.04239 0
-0.451613 -1.33219 0
0.48691 -0.873648 0
-0.265397 -0.857605 0
-1.64835 -0.783004 0
0.209167 -0.339904 0
-0.376597 -1.31497 0
-1.666 -1.02411 0
0.0838016 -0.186417 0
0.10779 -0.692664 0
-0.161743 -3.21471 0
