# vtk DataFile Version 2.0
Unstructured Grid by M++
ASCII
DATASET UNSTRUCTURED_GRID
POINTS 289 float
  0.562500   1.000000 0
  0.562500   0.625000 0
  0.625000   1.000000 0
  0.562500   0.937500 0
  0.562500   0.562500 0
  0.625000   0.937500 0
  0.562500   0.875000 0
  0.625000   0.750000 0
  0.625000   0.625000 0
  0.562500   0.812500 0
  0.562500   0.750000 0
  0.562500   0.687500 0
  0.625000   0.875000 0
  0.625000   0.812500 0
  0.625000   0.687500 0
  0.687500   0.125000 0
  0.875000   0.062500 0
  0.625000   0.125000 0
  0.625000   0.187500 0
  0.625000   0.250000 0
  0.812500   0.187500 0
  1.000000   0.125000 0
  0.687500   0.187500 0
  0.750000   0.125000 0
  0.937500   0.062500 0
  0.937500   0.125000 0
  0.750000   0.187500 0
  0.812500   0.062500 0
  0.812500   0.125000 0
  0.875000   0.687500 0
  0.187500   0.250000 0
  0.437500   0.250000 0
  0.375000   0.187500 0
  0.812500   0.625000 0
  0.125000   0.187500 0
  0.937500   0.750000 0
  0.250000   0.312500 0
  0.500000   0.312500 0
  0.625000   0.062500 0
  0.437500   0.500000 0
  0.375000   0.125000 0
  0.437500   0.187500 0
  0.437500   0.437500 0
  0.437500   0.375000 0
  0.875000   0.875000 0
  0.187500   0.375000 0
  0.687500   0.562500 0
  0.687500   0.625000 0
  0.000000   0.125000 0
  0.937500   0.625000 0
  0.250000   0.125000 0
  0.375000   0.062500 0
  0.375000   0.000000 0
  0.812500   0.500000 0
  0.125000   0.000000 0
  0.937500   0.937500 0
  0.250000   0.437500 0
  0.687500   0.875000 0
  0.687500   0.937500 0
  0.000000   0.437500 0
  0.500000   0.500000 0
  0.500000   0.437500 0
  0.750000   0.937500 0
  0.750000   1.000000 0
  0.062500   0.500000 0
  1.000000   1.000000 0
  0.312500   0.500000 0
  0.875000   0.562500 0
  0.187500   0.062500 0
  0.437500   0.125000 0
  0.437500   0.062500 0
  0.500000   0.375000 0
  0.937500   0.812500 0
  0.937500   0.875000 0
  0.250000   0.375000 0
  0.687500   0.812500 0
  0.000000   0.375000 0
  0.750000   0.562500 0
  0.062500   0.125000 0
  1.000000   0.562500 0
  1.000000   0.625000 0
  0.312500   0.125000 0
  0.562500   0.125000 0
  0.437500   0.000000 0
  0.875000   0.437500 0
  0.875000   0.500000 0
  0.187500   0.000000 0
  0.937500   0.562500 0
  0.937500   0.500000 0
  0.250000   0.062500 0
  0.687500   0.500000 0
  0.000000   0.062500 0
  0.500000   0.062500 0
  1.000000   0.875000 0
  1.000000   0.937500 0
  0.312500   0.437500 0
  0.750000   0.875000 0
  0.062500   0.437500 0
  0.812500   0.937500 0
  0.125000   0.500000 0
  0.375000   0.500000 0
  0.625000   0.562500 0
  0.625000   0.500000 0
  0.437500   0.312500 0
  0.875000   0.812500 0
  0.875000   0.750000 0
  0.187500   0.312500 0
  0.812500   0.687500 0
  0.812500   0.750000 0
  0.125000   0.250000 0
  0.375000   0.250000 0
  1.000000   0.687500 0
  0.312500   0.187500 0
  0.750000   0.687500 0
  0.750000   0.625000 0
  0.062500   0.187500 0
  0.562500   0.250000 0
  0.562500   0.187500 0
  0.375000   1.000000 0
  0.500000   0.562500 0
  0.500000   0.250000 0
  0.750000   0.250000 0
  0.500000   0.125000 0
  0.500000   0.187500 0
  1.000000   0.187500 0
  0.625000   0.375000 0
  0.875000   0.375000 0
  1.000000   0.437500 0
  0.312500   0.000000 0
  0.562500   0.000000 0
  0.812500   0.000000 0
  0.250000   0.687500 0
  0.000000   0.687500 0
  0.500000   1.000000 0
  0.250000   1.000000 0
  0.000000   1.000000 0
  0.437500   0.687500 0
  0.437500   0.625000 0
  0.187500   0.625000 0
  0.687500   0.750000 0
  0.000000   0.312500 0
  0.000000   0.250000 0
  0.375000   0.375000 0
  0.375000   0.312500 0
  0.812500   0.812500 0
  0.125000   0.312500 0
  0.875000   0.625000 0
  0.187500   0.187500 0
  0.187500   0.125000 0
  0.937500   1.000000 0
  0.250000   0.562500 0
  0.250000   0.500000 0
  0.687500   1.000000 0
  0.000000   0.500000 0
  0.687500   0.687500 0
  0.000000   0.187500 0
  0.937500   0.687500 0
  0.250000   0.250000 0
  0.250000   0.187500 0
  0.187500   0.687500 0
  0.000000   0.750000 0
  0.250000   0.750000 0
  0.125000   0.625000 0
  0.750000   0.750000 0
  0.062500   0.250000 0
  0.875000   0.937500 0
  0.187500   0.500000 0
  0.187500   0.437500 0
  0.812500   0.562500 0
  0.125000   0.125000 0
  0.125000   0.062500 0
  0.375000   0.625000 0
  0.375000   0.687500 0
  1.000000   0.750000 0
  0.312500   0.250000 0
  0.312500   0.312500 0
  0.812500   0.312500 0
  0.562500   0.312500 0
  0.375000   0.750000 0
  0.500000   0.625000 0
  0.250000   0.625000 0
  0.312500   0.687500 0
  0.750000   0.812500 0
  0.062500   0.312500 0
  0.062500   0.375000 0
  1.000000   0.812500 0
  0.312500   0.375000 0
  0.562500   0.375000 0
  0.687500   0.437500 0
  0.000000   0.000000 0
  0.500000   0.000000 0
  0.937500   0.437500 0
  0.250000   0.000000 0
  0.375000   0.437500 0
  0.812500   0.875000 0
  0.125000   0.375000 0
  0.125000   0.437500 0
  0.625000   0.437500 0
  1.000000   0.500000 0
  0.312500   0.062500 0
  0.750000   0.500000 0
  0.062500   0.000000 0
  0.062500   0.062500 0
  0.562500   0.062500 0
  0.062500   0.750000 0
  0.312500   0.750000 0
  0.312500   0.625000 0
  0.312500   0.562500 0
  0.062500   0.562500 0
  0.187500   1.000000 0
  0.437500   0.562500 0
  0.875000   1.000000 0
  0.187500   0.562500 0
  0.500000   0.937500 0
  0.250000   0.937500 0
  0.312500   1.000000 0
  0.125000   0.750000 0
  0.125000   0.687500 0
  1.000000   0.000000 0
  0.000000   0.937500 0
  0.000000   0.875000 0
  0.875000   0.125000 0
  0.875000   0.187500 0
  0.062500   0.812500 0
  0.312500   0.812500 0
  0.000000   0.812500 0
  0.000000   0.625000 0
  0.000000   0.562500 0
  0.062500   1.000000 0
  0.062500   0.937500 0
  0.937500   0.187500 0
  0.937500   0.250000 0
  0.062500   0.687500 0
  0.062500   0.625000 0
  0.125000   1.000000 0
  1.000000   0.250000 0
  1.000000   0.312500 0
  0.062500   0.875000 0
  0.125000   0.812500 0
  0.375000   0.812500 0
  0.125000   0.875000 0
  0.375000   0.937500 0
  0.375000   0.875000 0
  0.187500   0.750000 0
  0.187500   0.812500 0
  0.437500   0.812500 0
  0.187500   0.875000 0
  0.437500   0.875000 0
  0.375000   0.562500 0
  0.812500   1.000000 0
  0.125000   0.562500 0
  0.437500   1.000000 0
  0.437500   0.937500 0
  0.187500   0.937500 0
  0.125000   0.937500 0
  0.500000   0.687500 0
  0.500000   0.750000 0
  0.500000   0.812500 0
  0.250000   0.812500 0
  0.250000   0.875000 0
  0.500000   0.875000 0
  0.437500   0.750000 0
  0.312500   0.875000 0
  0.312500   0.937500 0
  0.687500   0.250000 0
  0.687500   0.312500 0
  0.937500   0.312500 0
  0.875000   0.250000 0
  0.625000   0.000000 0
  0.875000   0.000000 0
  0.687500   0.375000 0
  0.937500   0.375000 0
  0.875000   0.312500 0
  0.625000   0.312500 0
  0.687500   0.000000 0
  0.937500   0.000000 0
  0.750000   0.312500 0
  0.750000   0.375000 0
  1.000000   0.375000 0
  0.812500   0.250000 0
  0.562500   0.437500 0
  0.562500   0.500000 0
  0.687500   0.062500 0
  0.750000   0.437500 0
  0.750000   0.000000 0
  0.750000   0.062500 0
  1.000000   0.062500 0
  0.812500   0.375000 0
  0.812500   0.437500 0
CELLS 256 1280
4 169 170 148 68
4 151 166 56 167
4 195 45 196 167
4 54 170 201 202
4 109 34 30 147
4 40 32 81 112
4 192 89 86 68
4 48 91 78 202
4 99 64 196 97
4 71 43 37 103
4 74 186 56 95
4 109 164 34 115
4 50 81 158 112
4 122 69 92 70
4 195 145 45 106
4 110 143 174 175
4 157 30 158 147
4 40 69 32 41
4 50 158 148 147
4 141 155 164 115
4 122 123 69 41
4 142 186 143 175
4 60 39 61 42
4 40 51 69 70
4 120 31 123 41
4 157 174 36 175
4 50 148 89 68
4 48 78 155 115
4 52 83 51 70
4 151 56 66 95
4 71 61 43 42
4 169 148 34 147
4 100 193 39 42
4 40 81 51 199
4 110 174 32 112
4 109 30 145 106
4 100 66 193 95
4 169 34 78 115
4 190 92 83 70
4 50 89 81 199
4 54 86 170 68
4 74 56 45 167
4 142 143 43 103
4 153 59 64 97
4 99 196 166 167
4 169 78 170 202
4 142 193 186 95
4 192 128 89 199
4 74 45 36 106
4 110 31 143 103
4 76 184 59 97
4 142 43 193 42
4 52 51 128 199
4 189 201 91 202
4 120 37 31 103
4 74 36 186 175
4 195 196 184 97
4 141 164 140 183
4 157 158 174 112
4 109 145 164 183
4 195 184 145 183
4 110 32 31 41
4 157 36 30 106
4 76 140 184 183
4 171 172 206 181
4 178 172 261 136
4 256 261 255 136
4 256 257 261 245
4 180 150 206 207
4 60 119 39 210
4 118 215 241 263
4 178 205 172 181
4 216 243 238 244
4 162 217 233 232
4 180 206 131 181
4 179 137 119 210
4 216 204 217 232
4 220 237 219 229
4 216 217 243 159
4 259 258 262 224
4 240 254 237 229
4 153 64 227 208
4 161 205 258 224
4 240 237 238 223
4 226 227 233 208
4 234 228 254 229
4 171 248 137 210
4 160 132 204 232
4 180 131 138 159
4 133 251 213 252
4 171 206 248 207
4 162 138 217 159
4 161 258 243 244
4 220 225 237 223
4 151 150 166 212
4 260 247 257 245
4 259 262 214 263
4 151 66 150 207
4 234 254 209 253
4 162 233 250 208
4 242 241 262 263
4 171 137 172 136
4 161 243 131 159
4 160 204 225 223
4 161 131 205 181
4 179 255 137 136
4 216 238 204 223
4 100 39 248 210
4 260 213 247 252
4 226 233 132 232
4 134 214 215 263
4 180 138 150 212
4 178 261 239 245
4 259 246 258 244
4 178 239 205 224
4 240 238 246 244
4 242 262 239 224
4 99 250 64 208
4 240 246 254 253
4 242 239 247 245
4 135 219 228 229
4 99 166 250 212
4 259 214 246 253
4 118 241 251 252
4 100 248 66 207
4 134 209 214 253
4 162 250 138 212
4 242 247 241 252
4 71 187 61 280
4 102 281 197 280
4 122 92 82 203
4 17 18 82 117
4 122 82 123 117
4 19 264 273 265
4 267 279 222 20
4 125 273 270 265
4 267 272 279 176
4 19 116 18 117
4 21 25 286 24
4 23 28 26 20
4 23 285 28 27
4 218 286 275 24
4 85 53 84 288
4 235 236 231 266
4 221 222 28 20
4 267 222 231 230
4 268 38 129 203
4 125 270 197 188
4 126 287 272 176
4 277 270 276 265
4 267 231 272 266
4 125 197 187 280
4 190 129 92 203
4 277 276 287 176
4 19 18 264 22
4 17 82 38 203
4 102 197 90 188
4 126 84 287 288
4 284 130 285 27
4 121 276 264 265
4 71 37 187 177
4 120 123 116 117
4 198 88 127 191
4 221 16 25 24
4 23 26 15 22
4 121 279 276 176
4 235 231 124 230
4 125 187 273 177
4 278 271 236 266
4 277 287 283 288
4 284 285 274 282
4 278 127 271 191
4 269 275 16 24
4 200 283 53 288
4 23 15 285 282
4 121 26 279 20
4 21 124 25 230
4 19 273 116 177
4 200 90 283 188
4 126 271 84 191
4 269 16 130 27
4 17 38 15 282
4 221 25 222 230
4 121 264 26 22
4 120 116 37 177
4 60 61 281 280
4 277 283 270 188
4 126 272 271 266
4 268 274 38 282
4 85 84 88 191
4 17 15 18 22
4 221 28 16 27
4 93 94 73 55
4 85 88 67 87
4 80 49 79 87
4 44 104 73 72
4 146 33 67 168
4 211 165 149 55
4 8 47 14 154
4 105 104 108 144
4 105 108 29 107
4 7 139 13 75
4 44 165 194 98
4 200 53 77 168
4 8 1 101 4
4 2 5 152 58
4 260 6 213 3
4 105 35 104 72
4 96 57 182 75
4 7 14 139 154
4 146 29 33 107
4 7 13 10 9
4 12 13 57 75
4 85 67 53 168
4 44 73 165 55
4 63 152 62 58
4 8 101 47 46
4 96 182 194 144
4 60 281 119 4
4 12 5 6 3
4 173 185 35 72
4 65 149 94 55
4 146 67 49 87
4 114 113 47 154
4 163 108 182 144
4 12 6 13 9
4 173 35 111 156
4 163 182 139 75
4 260 257 6 9
4 105 29 35 156
4 163 139 113 154
4 256 10 257 9
4 146 49 29 156
4 163 113 108 107
4 80 111 49 156
4 102 101 281 4
4 12 57 5 58
4 44 194 104 144
4 96 194 62 98
4 2 0 5 3
4 93 73 185 72
4 179 119 1 4
4 200 77 90 46
4 114 33 113 107
4 7 10 14 11
4 96 62 57 58
4 133 213 0 3
4 102 90 101 46
4 256 255 10 11
4 63 62 249 98
4 114 47 77 46
4 179 1 255 11
4 211 249 165 98
4 114 77 33 168
4 198 79 88 87
4 8 14 1 11
CELL_TYPES 256
8
8
8
8
8
8
8
8
8
8
8
8
8
8
8
8
8
8
8
8
8
8
8
8
8
8
8
8
8
8
8
8
8
8
8
8
8
8
8
8
8
8
8
8
8
8
8
8
8
8
8
8
8
8
8
8
8
8
8
8
8
8
8
8
8
8
8
8
8
8
8
8
8
8
8
8
8
8
8
8
8
8
8
8
8
8
8
8
8
8
8
8
8
8
8
8
8
8
8
8
8
8
8
8
8
8
8
8
8
8
8
8
8
8
8
8
8
8
8
8
8
8
8
8
8
8
8
8
8
8
8
8
8
8
8
8
8
8
8
8
8
8
8
8
8
8
8
8
8
8
8
8
8
8
8
8
8
8
8
8
8
8
8
8
8
8
8
8
8
8
8
8
8
8
8
8
8
8
8
8
8
8
8
8
8
8
8
8
8
8
8
8
8
8
8
8
8
8
8
8
8
8
8
8
8
8
8
8
8
8
8
8
8
8
8
8
8
8
8
8
8
8
8
8
8
8
8
8
8
8
8
8
8
8
8
8
8
8
8
8
8
8
8
8
8
8
8
8
8
8
8
8
8
8
8
8
CELL_DATA 256
VECTORS vector_value float
-0.317381 -0.839449 0
0.99403 -0.791579 0
0.370018 -0.346236 0
-0.263644 -0.748729 0
-0.139709 -0.823959 0
0.00100728 -0.359311 0
-0.140603 -0.329884 0
-0.042419 -0.307346 0
0.328004 -0.570969 0
0.260349 -0.43562 0
0.544573 -0.783074 0
-0.0501252 -0.243839 0
-0.0844942 -0.39895 0
0.0744789 -0.395556 0
0.292178 -0.688862 0
-0.0574931 -0.559061 0
-0.290869 -1.08396 0
0.0406014 -0.293738 0
-0.168275 -0.998957 0
-0.0111205 -0.150118 0
0.074548 -0.380339 0
0.154315 -0.608789 0
0.373954 -0.303279 0
0.0773628 -0.27469 0
0.336318 -0.70498 0
-0.282483 -0.883846 0
-0.270487 -0.796684 0
-0.0416087 -0.222342 0
0.0311692 -0.303664 0
1.23845 -0.953945 0
0.216758 -0.406591 0
-0.235399 -0.84842 0
0.642324 -0.466176 0
0.0322035 -0.273014 0
-0.0440428 -0.503202 0
0.0594465 -0.818803 0
0.97868 -0.461317 0
-0.166951 -0.408025 0
0.00979273 -0.410682 0
-0.0405039 -0.294224 0
-0.370781 -0.994678 0
0.593787 -0.745595 0
0.275951 -1.09553 0
0.213355 -0.947519 0
0.726235 -0.68633 0
-0.215498 -0.654031 0
0.605185 -0.641749 0
0.00370767 -0.271621 0
0.0909224 -0.39835 0
0.195487 -0.74928 0
0.146741 -0.480442 0
0.440635 -0.87694 0
0.025901 -0.221857 0
-0.123795 -0.538003 0
0.271064 -0.588279 0
0.17228 -0.927802 0
0.503107 -0.66291 0
0.000366409 -0.13598 0
-0.160073 -0.468334 0
0.0239259 -0.247063 0
0.261873 -0.36729 0
0.0680792 -0.324567 0
-0.107588 -0.598783 0
0.098209 -0.265146 0
0.0981849 -0.455012 0
0.38229 -0.276446 0
0.969827 -0.733324 0
0.753599 -0.598247 0
0.100163 -0.614528 0
0.388395 -0.228883 0
-0.915214 -1.0867 0
0.156661 -0.582651 0
-0.395104 -0.899877 0
-0.0383104 -1.79328 0
-0.0178158 -0.631679 0
0.176414 -0.23622 0
-0.101821 -1.66279 0
-0.0321416 -0.92395 0
-0.13227 -0.850213 0
0.326923 -1.56905 0
-0.0900354 -0.720853 0
0.0624495 -1.14471 0
0.103481 -1.16315 0
-0.378587 -1.02851 0
0.0560997 -1.21022 0
0.2165 -0.870155 0
0.185817 -0.223442 0
-0.0234218 -1.31702 0
-0.088216 -0.541041 0
-0.584265 -0.754507 0
0.134058 -0.316968 0
-0.0758045 -0.785141 0
-0.185555 -0.572096 0
-0.0784383 -1.03772 0
0.926123 -0.789695 0
0.324075 -0.387673 0
-0.213413 -1.73325 0
0.5104 -0.658959 0
0.2992 -1.16383 0
0.193757 -1.92554 0
-0.211688 -1.26111 0
0.121743 -0.174673 0
-0.0985352 -0.425129 0
-0.0773357 -1.20023 0
-0.035561 -0.880194 0
0.167408 -0.293972 0
-0.327382 -1.47972 0
0.361612 -0.230413 0
0.075139 -0.385083 0
0.0145453 -1.32021 0
-0.412119 -1.6192 0
0.084622 -0.477616 0
0.965133 -0.643596 0
-0.286791 -1.23938 0
0.522296 -0.987812 0
-0.635528 -0.917225 0
0.597342 -1.30163 0
0.648881 -1.23819 0
-0.088996 -0.939148 0
0.492893 -0.580927 0
0.0488803 -0.905787 0
1.14784 -0.879955 0
-0.129679 -1.70922 0
-0.99797 -0.976734 0
0.433078 -0.337844 0
0.107328 -0.927415 0
0.150188 -0.787957 0
-0.0345396 -0.611257 0
0.204171 -0.174904 0
0.709462 -0.726761 0
0.0831591 -0.375657 0
0.171517 -0.283829 0
0.228039 -0.467968 0
0.0704704 -0.20528 0
-0.312809 -2.88474 0
0.168586 -0.260302 0
0.887609 -2.17424 0
0.200723 -0.231977 0
-0.192878 -1.47894 0
-0.13903 -1.81081 0
0.34889 -1.12093 0
-0.0775308 -1.21092 0
0.860112 -1.32455 0
-0.290048 -2.61506 0
-0.0273 -2.89356 0
-0.414151 -3.21718 0
-0.0547067 -0.578658 0
0.816372 -1.02681 0
1.1608 -1.8911 0
1.04487 -1.86041 0
0.0173712 -3.05238 0
0.258824 -0.226629 0
0.00757101 -0.3605 0
1.32722 -2.30583 0
0.092608 -0.338568 0
0.0515231 -0.387431 0
1.143 -1.55628 0
1.52023 -1.88814 0
0.203078 -0.965796 0
0.294186 -0.857497 0
0.13323 -0.179937 0
0.277545 -0.307134 0
0.119434 -1.05389 0
-0.209773 -3.47434 0
-0.292768 -1.13779 0
0.831491 -2.10674 0
-0.149646 -2.12404 0
0.0847653 -0.112865 0
0.234568 -2.93651 0
1.30707 -2.4318 0
0.0585271 -0.943399 0
0.620378 -2.02756 0
0.00828359 -3.96029 0
1.56377 -2.47033 0
0.0641528 -1.26114 0
-0.0780244 -2.08883 0
-0.138149 -1.92883 0
0.123256 -0.158817 0
1.39616 -2.34265 0
1.18781 -1.22157 0
0.232245 -3.75135 0
-0.0779241 -0.574157 0
-0.163528 -3.12582 0
0.0529942 -0.50456 0
0.185994 -0.248896 0
0.301397 -0.225727 0
1.0329 -2.05905 0
0.856445 -1.66566 0
-0.0224408 -0.409967 0
0.578398 -1.1187 0
0.107449 -0.441301 0
0.310041 -3.4924 0
-0.084106 -0.270202 0
0.231405 -0.628652 0
0.103427 -0.793364 0
-0.262677 -1.22853 0
0.25003 -0.625697 0
-0.365751 -1.36029 0
-0.00821304 -1.30959 0
-0.682118 -2.43172 0
-0.434613 -1.54765 0
0.225445 -0.352055 0
0.149228 -2.22289 0
1.16168 -1.50419 0
0.262172 -0.986022 0
0.769848 -0.721866 0
0.167438 -0.384217 0
-0.112288 -1.04712 0
0.532947 -0.590803 0
0.246164 -0.617012 0
0.0417334 -0.630776 0
0.35006 -0.344051 0
0.354766 -0.276241 0
0.698713 -1.06624 0
-0.172056 -1.62578 0
0.953158 -0.842599 0
0.094935 -2.15275 0
0.237638 -2.1954 0
0.545569 -0.449558 0
0.313988 -0.360335 0
0.0289156 -0.131073 0
-0.306304 -0.522853 0
0.14536 -0.470304 0
-0.793504 -3.82356 0
-1.19919 -2.92405 0
0.290509 -0.284765 0
0.0862025 -0.236085 0
-0.151987 -0.722382 0
0.252302 -0.338623 0
0.152698 -0.737961 0
-0.995074 -2.60143 0
0.591198 -0.502822 0
0.214906 -0.63528 0
-1.15088 -2.24937 0
0.133284 -0.485948 0
0.663367 -1.02914 0
0.659877 -0.49463 0
-0.417869 -2.84764 0
0.615862 -1.57106 0
0.452835 -0.730405 0
-0.0435446 -0.17589 0
0.242158 -0.516698 0
1.51286 -3.22381 0
-0.463565 -1.61105 0
0.713061 -0.705379 0
0.899856 -0.78701 0
-0.0500973 -0.602992 0
0.892056 -1.73503 0
0.912856 -0.577334 0
0.954852 -1.21963 0
0.260528 -3.30077 0
0.419364 -0.633615 0
0.349568 -1.69503 0
0.418433 -1.3619 0
0.0485378 -0.854737 0
0.430578 -0.875173 0
