# vtk DataFile Version 2.0
Unstructured Grid by M++
ASCII
DATASET UNSTRUCTURED_GRID
POINTS 81 float
  1.000000   0.625000 0
  0.750000   0.375000 0
  1.000000   0.000000 0
  0.875000   0.875000 0
  0.750000   0.125000 0
  1.000000   1.000000 0
  0.875000   0.250000 0
  0.625000   0.875000 0
  1.000000   0.750000 0
  0.875000   0.000000 0
  1.000000   0.250000 0
  0.625000   0.375000 0
  0.875000   0.500000 0
  0.625000   0.625000 0
  1.000000   0.500000 0
  0.750000   0.500000 0
  0.750000   1.000000 0
  1.000000   0.125000 0
  0.625000   0.250000 0
  0.750000   0.750000 0
  0.625000   0.000000 0
  0.125000   0.375000 0
  0.000000   0.500000 0
  0.125000   0.625000 0
  0.625000   1.000000 0
  1.000000   0.875000 0
  0.875000   0.125000 0
  0.500000   0.250000 0
  0.625000   0.500000 0
  0.250000   0.625000 0
  0.000000   0.625000 0
  0.375000   0.500000 0
  0.375000   0.000000 0
  0.000000   0.125000 0
  0.125000   0.875000 0
  0.875000   1.000000 0
  0.750000   0.250000 0
  0.375000   0.375000 0
  0.250000   0.375000 0
  0.625000   0.750000 0
  0.125000   0.125000 0
  0.500000   0.000000 0
  0.250000   0.875000 0
  0.125000   0.500000 0
  0.500000   0.375000 0
  0.125000   0.000000 0
  0.250000   0.750000 0
  0.250000   0.500000 0
  0.000000   0.875000 0
  0.875000   0.625000 0
  0.500000   0.750000 0
  0.750000   0.625000 0
  0.250000   0.000000 0
  0.375000   0.750000 0
  0.750000   0.875000 0
  0.625000   0.125000 0
  0.250000   0.250000 0
  0.375000   1.000000 0
  0.375000   0.250000 0
  0.000000   0.375000 0
  0.500000   1.000000 0
  0.875000   0.750000 0
  0.750000   0.000000 0
  0.375000   0.125000 0
  0.500000   0.875000 0
  0.000000   0.000000 0
  0.125000   0.750000 0
  0.500000   0.625000 0
  0.125000   0.250000 0
  0.500000   0.125000 0
  0.250000   1.000000 0
  0.250000   0.125000 0
  0.000000   1.000000 0
  0.375000   0.875000 0
  0.000000   0.750000 0
  0.375000   0.625000 0
  0.000000   0.250000 0
  0.125000   1.000000 0
  1.000000   0.375000 0
  0.500000   0.500000 0
  0.875000   0.375000 0
CELLS 64 320
4 56 71 58 63
4 27 58 69 63
4 41 69 32 63
4 76 33 68 40
4 27 44 58 37
4 79 31 44 37
4 56 38 68 21
4 56 58 38 37
4 52 32 71 63
4 47 38 31 37
4 76 68 59 21
4 22 59 43 21
4 65 45 33 40
4 47 43 38 21
4 52 71 45 40
4 56 68 71 40
4 74 30 66 23
4 46 66 29 23
4 22 43 30 23
4 72 48 77 34
4 46 53 42 73
4 50 64 53 73
4 70 42 57 73
4 74 66 48 34
4 46 42 66 34
4 47 29 43 23
4 70 77 42 34
4 60 57 64 73
4 79 67 31 75
4 47 31 29 75
4 50 53 67 75
4 46 29 53 75
4 10 78 6 80
4 36 6 1 80
4 15 1 12 80
4 36 4 6 26
4 14 12 78 80
4 2 17 9 26
4 36 18 4 55
4 15 28 1 11
4 62 4 20 55
4 10 6 17 26
4 27 18 44 11
4 62 9 4 26
4 27 69 18 55
4 36 1 18 11
4 41 20 69 55
4 79 44 28 11
4 16 24 54 7
4 19 54 39 7
4 50 39 64 7
4 8 25 61 3
4 60 64 24 7
4 79 28 67 13
4 19 51 61 49
4 8 61 0 49
4 15 51 28 13
4 19 39 51 13
4 50 67 39 13
4 19 61 54 3
4 14 0 12 49
4 5 35 25 3
4 15 12 51 49
4 16 54 35 3
CELL_TYPES 64
8
8
8
8
8
8
8
8
8
8
8
8
8
8
8
8
8
8
8
8
8
8
8
8
8
8
8
8
8
8
8
8
8
8
8
8
8
8
8
8
8
8
8
8
8
8
8
8
8
8
8
8
8
8
8
8
8
8
8
8
8
8
8
8
CELL_DATA 64
VECTORS vector_value float
0.422064 -0.340994 0
-0.0228036 -0.174882 0
0.0735715 -0.987461 0
0.741106 -1.66767 0
-0.0382204 -0.0780585 0
-0.0297403 -0.126072 0
0.0777287 -1.04159 0
-0.128929 -0.1696 0
0.201597 -0.344243 0
-0.0988757 -0.31046 0
0.271781 -2.89159 0
-0.108595 -2.95299 0
0.0164452 -0.935455 0
-0.487683 -0.758634 0
0.0498066 -2.33716 0
1.19061 -2.07467 0
-0.214621 -1.5515 0
-0.769018 -0.757224 0
-0.469002 -2.5582 0
0.00168118 -0.646357 0
0.00110446 -1.11768 0
-0.0415736 -1.5255 0
-0.0751033 -1.19145 0
-0.203782 -1.21292 0
-0.161655 -0.757104 0
-0.433223 -0.29072 0
-0.0623026 -1.58728 0
-0.356777 -0.761639 0
0.0845248 -1.08139 0
-0.767687 -0.786173 0
-0.267313 -1.83033 0
-0.465313 -0.840917 0
0.149179 -1.8667 0
0.155589 -0.447922 0
0.811288 -0.676958 0
0.0135839 -0.0985223 0
0.459131 -1.29039 0
-0.100724 -1.93969 0
-0.230889 -0.500129 0
0.534325 -1.30947 0
-0.00567127 -0.31899 0
0.0633213 -2.11689 0
-0.041987 -0.523449 0
-0.0786858 -0.32244 0
-0.402933 -1.02624 0
-0.142255 -0.981094 0
-0.17097 -0.814559 0
0.174649 -0.57503 0
-0.548045 -0.669427 0
-0.522426 -0.857138 0
-0.472924 -1.34733 0
-0.119815 -0.809089 0
-0.542536 -1.30547 0
0.700138 -0.710288 0
-0.0224109 -0.506258 0
-0.0177836 -0.600648 0
0.729173 -1.26191 0
0.106465 -0.599266 0
0.216464 -1.31385 0
-0.233048 -0.37324 0
0.0762013 -0.677577 0
-0.0564538 -1.04912 0
0.308722 -0.633749 0
-0.367245 -0.789258 0
