# vtk DataFile Version 2.0
Unstructured Grid by M++
ASCII
DATASET UNSTRUCTURED_GRID
POINTS 81 float
  1.000000   0.625000 0
  0.750000   0.375000 0
  1.000000   0.000000 0
  0.875000   0.875000 0
  0.750000   0.125000 0
  1.000000   1.000000 0
  0.875000   0.250000 0
  0.625000   0.875000 0
  1.000000   0.750000 0
  0.875000   0.000000 0
  1.000000   0.250000 0
  0.625000   0.375000 0
  0.875000   0.500000 0
  0.625000   0.625000 0
  1.000000   0.500000 0
  0.750000   0.500000 0
  0.750000   1.000000 0
  1.000000   0.125000 0
  0.625000   0.250000 0
  0.750000   0.750000 0
  0.625000   0.000000 0
  0.125000   0.375000 0
  0.000000   0.500000 0
  0.125000   0.625000 0
  0.625000   1.000000 0
  1.000000   0.875000 0
  0.875000   0.125000 0
  0.500000   0.250000 0
  0.625000   0.500000 0
  0.250000   0.625000 0
  0.000000   0.625000 0
  0.375000   0.500000 0
  0.375000   0.000000 0
  0.000000   0.125000 0
  0.125000   0.875000 0
  0.875000   1.000000 0
  0.750000   0.250000 0
  0.375000   0.375000 0
  0.250000   0.375000 0
  0.625000   0.750000 0
  0.125000   0.125000 0
  0.500000   0.000000 0
  0.250000   0.875000 0
  0.125000   0.500000 0
  0.500000   0.375000 0
  0.125000   0.000000 0
  0.250000   0.750000 0
  0.250000   0.500000 0
  0.000000   0.875000 0
  0.875000   0.625000 0
  0.500000   0.750000 0
  0.750000   0.625000 0
  0.250000   0.000000 0
  0.375000   0.750000 0
  0.750000   0.875000 0
  0.625000   0.125000 0
  0.250000   0.250000 0
  0.375000   1.000000 0
  0.375000   0.250000 0
  0.000000   0.375000 0
  0.500000   1.000000 0
  0.875000   0.750000 0
  0.750000   0.000000 0
  0.375000   0.125000 0
  0.500000   0.875000 0
  0.000000   0.000000 0
  0.125000   0.750000 0
  0.500000   0.625000 0
  0.125000   0.250000 0
  0.500000   0.125000 0
  0.250000   1.000000 0
  0.250000   0.125000 0
  0.000000   1.000000 0
  0.375000   0.875000 0
  0.000000   0.750000 0
  0.375000   0.625000 0
  0.000000   0.250000 0
  0.125000   1.000000 0
  1.000000   0.375000 0
  0.500000   0.500000 0
  0.875000   0.375000 0
CELLS 64 320
4 56 71 58 63
4 27 58 69 63
4 41 69 32 63
4 76 33 68 40
4 27 44 58 37
4 79 31 44 37
4 56 38 68 21
4 56 58 38 37
4 52 32 71 63
4 47 38 31 37
4 76 68 59 21
4 22 59 43 21
4 65 45 33 40
4 47 43 38 21
4 52 71 45 40
4 56 68 71 40
4 74 30 66 23
4 46 66 29 23
4 22 43 30 23
4 72 48 77 34
4 46 53 42 73
4 50 64 53 73
4 70 42 57 73
4 74 66 48 34
4 46 42 66 34
4 47 29 43 23
4 70 77 42 34
4 60 57 64 73
4 79 67 31 75
4 47 31 29 75
4 50 53 67 75
4 46 29 53 75
4 10 78 6 80
4 36 6 1 80
4 15 1 12 80
4 36 4 6 26
4 14 12 78 80
4 2 17 9 26
4 36 18 4 55
4 15 28 1 11
4 62 4 20 55
4 10 6 17 26
4 27 18 44 11
4 62 9 4 26
4 27 69 18 55
4 36 1 18 11
4 41 20 69 55
4 79 44 28 11
4 16 24 54 7
4 19 54 39 7
4 50 39 64 7
4 8 25 61 3
4 60 64 24 7
4 79 28 67 13
4 19 51 61 49
4 8 61 0 49
4 15 51 28 13
4 19 39 51 13
4 50 67 39 13
4 19 61 54 3
4 14 0 12 49
4 5 35 25 3
4 15 12 51 49
4 16 54 35 3
CELL_TYPES 64
8
8
8
8
8
8
8
8
8
8
8
8
8
8
8
8
8
8
8
8
8
8
8
8
8
8
8
8
8
8
8
8
8
8
8
8
8
8
8
8
8
8
8
8
8
8
8
8
8
8
8
8
8
8
8
8
8
8
8
8
8
8
8
8
CELL_DATA 64
VECTORS vector_value float
-0.230907 -0.600882 0
-0.311421 -1.68786 0
0.0419726 -1.65142 0
-0.221071 -0.273374 0
-0.277696 -0.658734 0
0.183507 -0.509241 0
-0.0341164 -0.191139 0
-0.124373 -0.955105 0
-0.00543954 -0.340017 0
0.30641 -1.05179 0
-0.0125661 -0.0789744 0
-0.00623973 -0.0555964 0
-0.116762 -0.730065 0
0.0401685 -0.256943 0
-0.0247101 -0.205579 0
-0.607245 -0.453038 0
0.201832 -0.436984 0
0.372133 -0.656667 0
0.0438453 -0.098914 0
-0.274906 -1.58326 0
0.0760387 -0.639838 0
-0.0310461 -0.515868 0
-0.270202 -0.496187 0
0.501375 -1.11624 0
1.11447 -1.38045 0
0.420207 -0.850339 0
-0.617878 -0.8887 0
0.18032 -0.722304 0
0.370308 -0.966835 0
0.183382 -0.48641 0
1.24968 -0.823944 0
1.45853 -1.40481 0
0.0612229 -0.0993744 0
0.0981975 -0.986293 0
0.307935 -2.38166 0
0.305164 -1.15428 0
0.0180066 -0.0256265 0
0.0924549 -0.488078 0
0.3332 -2.95917 0
0.0166793 -1.2316 0
0.103348 -2.1131 0
0.076171 -0.262811 0
-0.246256 -2.18637 0
0.318706 -1.67581 0
-0.0165936 -0.608577 0
-0.12462 -2.844 0
-0.00146398 -0.795934 0
-0.0372548 -2.48754 0
-0.100695 -2.10958 0
-0.0471085 -2.98373 0
0.161283 -0.500995 0
-0.0577223 -0.0671304 0
0.543198 -0.780357 0
0.227577 -1.2302 0
-0.109816 -0.457774 0
-0.0040915 -0.0164261 0
0.543951 -3.83627 0
0.0129036 -3.80977 0
0.544218 -0.393624 0
-0.228046 -0.795747 0
0.0028032 -0.0235058 0
-0.429397 -0.368062 0
0.100386 -0.507521 0
-0.913429 -1.05156 0
