# vtk DataFile Version 2.0
Unstructured Grid by M++
ASCII
DATASET UNSTRUCTURED_GRID
POINTS 81 float
  1.000000   0.625000 0
  0.750000   0.375000 0
  1.000000   0.000000 0
  0.875000   0.875000 0
  0.750000   0.125000 0
  1.000000   1.000000 0
  0.875000   0.250000 0
  0.625000   0.875000 0
  1.000000   0.750000 0
  0.875000   0.000000 0
  1.000000   0.250000 0
  0.625000   0.375000 0
  0.875000   0.500000 0
  0.625000   0.625000 0
  1.000000   0.500000 0
  0.750000   0.500000 0
  0.750000   1.000000 0
  1.000000   0.125000 0
  0.625000   0.250000 0
  0.750000   0.750000 0
  0.625000   0.000000 0
  0.125000   0.375000 0
  0.000000   0.500000 0
  0.125000   0.625000 0
  0.625000   1.000000 0
  1.000000   0.875000 0
  0.875000   0.125000 0
  0.500000   0.250000 0
  0.625000   0.500000 0
  0.250000   0.625000 0
  0.000000   0.625000 0
  0.375000   0.500000 0
  0.375000   0.000000 0
  0.000000   0.125000 0
  0.125000   0.875000 0
  0.875000   1.000000 0
  0.750000   0.250000 0
  0.375000   0.375000 0
  0.250000   0.375000 0
  0.625000   0.750000 0
  0.125000   0.125000 0
  0.500000   0.000000 0
  0.250000   0.875000 0
  0.125000   0.500000 0
  0.500000   0.375000 0
  0.125000   0.000000 0
  0.250000   0.750000 0
  0.250000   0.500000 0
  0.000000   0.875000 0
  0.875000   0.625000 0
  0.500000   0.750000 0
  0.750000   0.625000 0
  0.250000   0.000000 0
  0.375000   0.750000 0
  0.750000   0.875000 0
  0.625000   0.125000 0
  0.250000   0.250000 0
  0.375000   1.000000 0
  0.375000   0.250000 0
  0.000000   0.375000 0
  0.500000   1.000000 0
  0.875000   0.750000 0
  0.750000   0.000000 0
  0.375000   0.125000 0
  0.500000   0.875000 0
  0.000000   0.000000 0
  0.125000   0.750000 0
  0.500000   0.625000 0
  0.125000   0.250000 0
  0.500000   0.125000 0
  0.250000   1.000000 0
  0.250000   0.125000 0
  0.000000   1.000000 0
  0.375000   0.875000 0
  0.000000   0.750000 0
  0.375000   0.625000 0
  0.000000   0.250000 0
  0.125000   1.000000 0
  1.000000   0.375000 0
  0.500000   0.500000 0
  0.875000   0.375000 0
CELLS 64 320
4 56 71 58 63
4 27 58 69 63
4 41 69 32 63
4 76 33 68 40
4 27 44 58 37
4 79 31 44 37
4 56 38 68 21
4 56 58 38 37
4 52 32 71 63
4 47 38 31 37
4 76 68 59 21
4 22 59 43 21
4 65 45 33 40
4 47 43 38 21
4 52 71 45 40
4 56 68 71 40
4 74 30 66 23
4 46 66 29 23
4 22 43 30 23
4 72 48 77 34
4 46 53 42 73
4 50 64 53 73
4 70 42 57 73
4 74 66 48 34
4 46 42 66 34
4 47 29 43 23
4 70 77 42 34
4 60 57 64 73
4 79 67 31 75
4 47 31 29 75
4 50 53 67 75
4 46 29 53 75
4 10 78 6 80
4 36 6 1 80
4 15 1 12 80
4 36 4 6 26
4 14 12 78 80
4 2 17 9 26
4 36 18 4 55
4 15 28 1 11
4 62 4 20 55
4 10 6 17 26
4 27 18 44 11
4 62 9 4 26
4 27 69 18 55
4 36 1 18 11
4 41 20 69 55
4 79 44 28 11
4 16 24 54 7
4 19 54 39 7
4 50 39 64 7
4 8 25 61 3
4 60 64 24 7
4 79 28 67 13
4 19 51 61 49
4 8 61 0 49
4 15 51 28 13
4 19 39 51 13
4 50 67 39 13
4 19 61 54 3
4 14 0 12 49
4 5 35 25 3
4 15 12 51 49
4 16 54 35 3
CELL_TYPES 64
8
8
8
8
8
8
8
8
8
8
8
8
8
8
8
8
8
8
8
8
8
8
8
8
8
8
8
8
8
8
8
8
8
8
8
8
8
8
8
8
8
8
8
8
8
8
8
8
8
8
8
8
8
8
8
8
8
8
8
8
8
8
8
8
CELL_DATA 64
VECTORS vector_value float
0.970867 -4.21173 0
-0.0903813 -0.664009 0
0.187504 -0.922119 0
0.282787 -0.447257 0
-0.256241 -0.945172 0
-0.397595 -0.836621 0
0.829177 -1.84214 0
0.0375485 -2.24557 0
0.297709 -4.7182 0
0.0107073 -1.26882 0
1.0441 -2.40118 0
0.368255 -3.54653 0
0.0786977 -0.137784 0
0.436482 -1.20968 0
0.255156 -1.6298 0
1.7909 -2.14388 0
-0.465779 -2.42858 0
-1.38106 -1.1875 0
-0.383558 -3.36591 0
-0.260702 -1.35493 0
-0.638662 -0.988781 0
-0.51082 -0.561727 0
-0.114087 -1.07578 0
-0.21958 -1.76578 0
-0.479136 -0.604194 0
-0.556826 -1.41525 0
-0.304847 -0.563455 0
0.0226996 -0.777958 0
-0.252567 -0.558666 0
-0.34405 -1.15069 0
-2.11819 -1.08695 0
-1.7971 -0.901631 0
0.0434259 -0.218393 0
0.016791 -0.193999 0
0.144896 -0.251685 0
0.0197743 -0.130904 0
0.0576331 -0.0728143 0
-0.0257318 -0.222508 0
-0.00729403 -0.0985144 0
-0.0198989 -0.294218 0
-0.0170759 -0.0490791 0
0.014199 -0.276015 0
-0.0115589 -0.0570195 0
-0.0288333 -0.191375 0
-0.0155547 -0.0276955 0
-0.00103006 -0.0965223 0
0.0127554 -0.129138 0
-0.460049 -0.519626 0
-0.303865 -2.03719 0
-1.11166 -2.24787 0
-1.34813 -1.2634 0
-0.0529295 -0.0465182 0
0.31424 -0.799864 0
-0.430348 -0.417667 0
-0.00617108 -0.130862 0
0.00128452 -0.00850483 0
-0.21631 -0.919333 0
-0.387291 -1.581 0
-1.0317 -0.674968 0
-0.514906 -0.521733 0
0.0114297 -0.0163869 0
-0.442346 -0.417842 0
0.0814361 -0.156106 0
-0.899597 -0.972973 0
