# vtk DataFile Version 2.0
Unstructured Grid by M++
ASCII
DATASET UNSTRUCTURED_GRID
POINTS 81 float
  1.000000   0.625000 0
  0.750000   0.375000 0
  1.000000   0.000000 0
  0.875000   0.875000 0
  0.750000   0.125000 0
  1.000000   1.000000 0
  0.875000   0.250000 0
  0.625000   0.875000 0
  1.000000   0.750000 0
  0.875000   0.000000 0
  1.000000   0.250000 0
  0.625000   0.375000 0
  0.875000   0.500000 0
  0.625000   0.625000 0
  1.000000   0.500000 0
  0.750000   0.500000 0
  0.750000   1.000000 0
  1.000000   0.125000 0
  0.625000   0.250000 0
  0.750000   0.750000 0
  0.625000   0.000000 0
  0.125000   0.375000 0
  0.000000   0.500000 0
  0.125000   0.625000 0
  0.625000   1.000000 0
  1.000000   0.875000 0
  0.875000   0.125000 0
  0.500000   0.250000 0
  0.625000   0.500000 0
  0.250000   0.625000 0
  0.000000   0.625000 0
  0.375000   0.500000 0
  0.375000   0.000000 0
  0.000000   0.125000 0
  0.125000   0.875000 0
  0.875000   1.000000 0
  0.750000   0.250000 0
  0.375000   0.375000 0
  0.250000   0.375000 0
  0.625000   0.750000 0
  0.125000   0.125000 0
  0.500000   0.000000 0
  0.250000   0.875000 0
  0.125000   0.500000 0
  0.500000   0.375000 0
  0.125000   0.000000 0
  0.250000   0.750000 0
  0.250000   0.500000 0
  0.000000   0.875000 0
  0.875000   0.625000 0
  0.500000   0.750000 0
  0.750000   0.625000 0
  0.250000   0.000000 0
  0.375000   0.750000 0
  0.750000   0.875000 0
  0.625000   0.125000 0
  0.250000   0.250000 0
  0.375000   1.000000 0
  0.375000   0.250000 0
  0.000000   0.375000 0
  0.500000   1.000000 0
  0.875000   0.750000 0
  0.750000   0.000000 0
  0.375000   0.125000 0
  0.500000   0.875000 0
  0.000000   0.000000 0
  0.125000   0.750000 0
  0.500000   0.625000 0
  0.125000   0.250000 0
  0.500000   0.125000 0
  0.250000   1.000000 0
  0.250000   0.125000 0
  0.000000   1.000000 0
  0.375000   0.875000 0
  0.000000   0.750000 0
  0.375000   0.625000 0
  0.000000   0.250000 0
  0.125000   1.000000 0
  1.000000   0.375000 0
  0.500000   0.500000 0
  0.875000   0.375000 0
CELLS 64 320
4 56 71 58 63
4 27 58 69 63
4 41 69 32 63
4 76 33 68 40
4 27 44 58 37
4 79 31 44 37
4 56 38 68 21
4 56 58 38 37
4 52 32 71 63
4 47 38 31 37
4 76 68 59 21
4 22 59 43 21
4 65 45 33 40
4 47 43 38 21
4 52 71 45 40
4 56 68 71 40
4 74 30 66 23
4 46 66 29 23
4 22 43 30 23
4 72 48 77 34
4 46 53 42 73
4 50 64 53 73
4 70 42 57 73
4 74 66 48 34
4 46 42 66 34
4 47 29 43 23
4 70 77 42 34
4 60 57 64 73
4 79 67 31 75
4 47 31 29 75
4 50 53 67 75
4 46 29 53 75
4 10 78 6 80
4 36 6 1 80
4 15 1 12 80
4 36 4 6 26
4 14 12 78 80
4 2 17 9 26
4 36 18 4 55
4 15 28 1 11
4 62 4 20 55
4 10 6 17 26
4 27 18 44 11
4 62 9 4 26
4 27 69 18 55
4 36 1 18 11
4 41 20 69 55
4 79 44 28 11
4 16 24 54 7
4 19 54 39 7
4 50 39 64 7
4 8 25 61 3
4 60 64 24 7
4 79 28 67 13
4 19 51 61 49
4 8 61 0 49
4 15 51 28 13
4 19 39 51 13
4 50 67 39 13
4 19 61 54 3
4 14 0 12 49
4 5 35 25 3
4 15 12 51 49
4 16 54 35 3
CELL_TYPES 64
8
8
8
8
8
8
8
8
8
8
8
8
8
8
8
8
8
8
8
8
8
8
8
8
8
8
8
8
8
8
8
8
8
8
8
8
8
8
8
8
8
8
8
8
8
8
8
8
8
8
8
8
8
8
8
8
8
8
8
8
8
8
8
8
CELL_DATA 64
VECTORS vector_value float
0.274902 -3.30862 0
-0.608795 -1.47679 0
-0.0570763 -0.780732 0
0.0310424 -0.279006 0
-0.470235 -0.66908 0
-0.192223 -0.266006 0
1.60509 -2.78628 0
0.520519 -1.13604 0
-0.801277 -2.45369 0
-0.1242 -0.282975 0
0.429923 -0.866756 0
0.69959 -2.2103 0
0.0554596 -0.157437 0
0.64179 -2.10586 0
-0.767326 -2.9409 0
0.175182 -1.40264 0
-0.141482 -2.13447 0
-0.263881 -0.741645 0
-0.182728 -2.54158 0
-0.311901 -1.54047 0
-0.982455 -0.912551 0
-1.0595 -1.95972 0
0.208969 -0.738114 0
-0.14938 -1.67159 0
-0.519241 -0.527969 0
-0.804299 -1.47791 0
-0.323083 -0.380372 0
0.0980297 -1.24293 0
-0.0373088 -0.266518 0
-0.331731 -0.444512 0
-0.124795 -1.06593 0
-0.723451 -1.08292 0
-0.380186 -0.870918 0
-1.72167 -0.916514 0
-0.296601 -0.310563 0
-0.261336 -0.442079 0
-0.70149 -2.34181 0
-0.00322413 -0.149962 0
-0.600973 -0.550647 0
-0.156132 -0.144604 0
-0.126328 -0.191362 0
-0.0525962 -0.213676 0
-1.25284 -0.49706 0
-0.0195663 -0.20501 0
-0.254585 -0.326549 0
-1.46733 -0.257347 0
-0.243811 -1.12091 0
-0.243175 -0.337879 0
0.00152234 -0.758024 0
0.187182 -0.135379 0
-0.000450124 -0.296198 0
0.272622 -1.05736 0
-0.679052 -1.45175 0
0.106356 -0.403863 0
0.224859 -0.744072 0
0.384251 -1.941 0
0.0699579 -0.151915 0
0.0216969 -0.0334164 0
0.133712 -0.256545 0
0.702105 -1.43923 0
0.174816 -2.33112 0
-0.119747 -0.746665 0
0.186906 -0.382585 0
-0.0654905 -1.14167 0
