# vtk DataFile Version 2.0
Unstructured Grid by M++
ASCII
DATASET UNSTRUCTURED_GRID
POINTS 81 float
  1.000000   0.625000 0
  0.750000   0.375000 0
  1.000000   0.000000 0
  0.875000   0.875000 0
  0.750000   0.125000 0
  1.000000   1.000000 0
  0.875000   0.250000 0
  0.625000   0.875000 0
  1.000000   0.750000 0
  0.875000   0.000000 0
  1.000000   0.250000 0
  0.625000   0.375000 0
  0.875000   0.500000 0
  0.625000   0.625000 0
  1.000000   0.500000 0
  0.750000   0.500000 0
  0.750000   1.000000 0
  1.000000   0.125000 0
  0.625000   0.250000 0
  0.750000   0.750000 0
  0.625000   0.000000 0
  0.125000   0.375000 0
  0.000000   0.500000 0
  0.125000   0.625000 0
  0.625000   1.000000 0
  1.000000   0.875000 0
  0.875000   0.125000 0
  0.500000   0.250000 0
  0.625000   0.500000 0
  0.250000   0.625000 0
  0.000000   0.625000 0
  0.375000   0.500000 0
  0.375000   0.000000 0
  0.000000   0.125000 0
  0.125000   0.875000 0
  0.875000   1.000000 0
  0.750000   0.250000 0
  0.375000   0.375000 0
  0.250000   0.375000 0
  0.625000   0.750000 0
  0.125000   0.125000 0
  0.500000   0.000000 0
  0.250000   0.875000 0
  0.125000   0.500000 0
  0.500000   0.375000 0
  0.125000   0.000000 0
  0.250000   0.750000 0
  0.250000   0.500000 0
  0.000000   0.875000 0
  0.875000   0.625000 0
  0.500000   0.750000 0
  0.750000   0.625000 0
  0.250000   0.000000 0
  0.375000   0.750000 0
  0.750000   0.875000 0
  0.625000   0.125000 0
  0.250000   0.250000 0
  0.375000   1.000000 0
  0.375000   0.250000 0
  0.000000   0.375000 0
  0.500000   1.000000 0
  0.875000   0.750000 0
  0.750000   0.000000 0
  0.375000   0.125000 0
  0.500000   0.875000 0
  0.000000   0.000000 0
  0.125000   0.750000 0
  0.500000   0.625000 0
  0.125000   0.250000 0
  0.500000   0.125000 0
  0.250000   1.000000 0
  0.250000   0.125000 0
  0.000000   1.000000 0
  0.375000   0.875000 0
  0.000000   0.750000 0
  0.375000   0.625000 0
  0.000000   0.250000 0
  0.125000   1.000000 0
  1.000000   0.375000 0
  0.500000   0.500000 0
  0.875000   0.375000 0
CELLS 64 320
4 56 71 58 63
4 27 58 69 63
4 41 69 32 63
4 76 33 68 40
4 27 44 58 37
4 79 31 44 37
4 56 38 68 21
4 56 58 38 37
4 52 32 71 63
4 47 38 31 37
4 76 68 59 21
4 22 59 43 21
4 65 45 33 40
4 47 43 38 21
4 52 71 45 40
4 56 68 71 40
4 74 30 66 23
4 46 66 29 23
4 22 43 30 23
4 72 48 77 34
4 46 53 42 73
4 50 64 53 73
4 70 42 57 73
4 74 66 48 34
4 46 42 66 34
4 47 29 43 23
4 70 77 42 34
4 60 57 64 73
4 79 67 31 75
4 47 31 29 75
4 50 53 67 75
4 46 29 53 75
4 10 78 6 80
4 36 6 1 80
4 15 1 12 80
4 36 4 6 26
4 14 12 78 80
4 2 17 9 26
4 36 18 4 55
4 15 28 1 11
4 62 4 20 55
4 10 6 17 26
4 27 18 44 11
4 62 9 4 26
4 27 69 18 55
4 36 1 18 11
4 41 20 69 55
4 79 44 28 11
4 16 24 54 7
4 19 54 39 7
4 50 39 64 7
4 8 25 61 3
4 60 64 24 7
4 79 28 67 13
4 19 51 61 49
4 8 61 0 49
4 15 51 28 13
4 19 39 51 13
4 50 67 39 13
4 19 61 54 3
4 14 0 12 49
4 5 35 25 3
4 15 12 51 49
4 16 54 35 3
CELL_TYPES 64
8
8
8
8
8
8
8
8
8
8
8
8
8
8
8
8
8
8
8
8
8
8
8
8
8
8
8
8
8
8
8
8
8
8
8
8
8
8
8
8
8
8
8
8
8
8
8
8
8
8
8
8
8
8
8
8
8
8
8
8
8
8
8
8
CELL_DATA 64
VECTORS vector_value float
0.220987 -0.481691 0
0.0602214 -0.31509 0
0.237418 -0.676596 0
-0.661551 -2.68264 0
0.173508 -0.44654 0
-0.713246 -0.321661 0
-1.32042 -4.48287 0
-0.124967 -0.680852 0
0.0533135 -0.117786 0
-0.601745 -1.35844 0
-0.768148 -0.944739 0
0.0406841 -0.417405 0
-0.332476 -3.89368 0
0.283911 -4.03489 0
-0.148638 -1.55079 0
-0.595329 -2.80715 0
-0.238445 -1.90262 0
-0.321136 -1.59939 0
0.704609 -1.68955 0
-0.131476 -1.21121 0
-0.43413 -0.410967 0
-0.786106 -2.58718 0
-0.560354 -0.848 0
-0.115449 -1.32579 0
-0.630013 -1.80947 0
-0.119597 -2.69099 0
-0.342622 -1.05627 0
-0.874757 -1.5816 0
-0.0297073 -0.213517 0
-0.608047 -1.12207 0
-0.42832 -1.6018 0
-0.939537 -1.15681 0
-0.00681065 -0.0541589 0
-0.0111804 -0.0157847 0
-0.249769 -0.116387 0
-0.00248245 -0.0116774 0
-0.0880651 -0.112506 0
-0.00139244 -0.0428405 0
0.001943 -0.255183 0
-0.43684 -0.556467 0
0.132601 -0.499881 0
-0.000591164 -0.0458545 0
0.0828594 -1.10922 0
-0.00441198 -0.00815993 0
0.0700955 -1.40071 0
-0.0199601 -0.265838 0
0.136727 -1.21026 0
-0.741842 -1.08224 0
-1.78141 -0.456314 0
-0.235567 -0.32391 0
-0.367312 -1.13061 0
0.000639969 -0.261397 0
-1.93049 -1.47895 0
0.435001 -1.43674 0
0.0141501 -0.0512188 0
0.0349866 -0.336165 0
0.202912 -0.467407 0
-0.0406416 -0.118728 0
-0.00623824 -1.23327 0
0.000509895 -0.150671 0
-0.0517826 -0.273217 0
-0.365797 -0.622988 0
-0.0493457 -0.106499 0
-1.15129 -0.74467 0
