# vtk DataFile Version 2.0
Unstructured Grid by M++
ASCII
DATASET UNSTRUCTURED_GRID
POINTS 289 float
  0.562500   1.000000 0
  0.562500   0.625000 0
  0.625000   1.000000 0
  0.562500   0.937500 0
  0.562500   0.562500 0
  0.625000   0.937500 0
  0.562500   0.875000 0
  0.625000   0.750000 0
  0.625000   0.625000 0
  0.562500   0.812500 0
  0.562500   0.750000 0
  0.562500   0.687500 0
  0.625000   0.875000 0
  0.625000   0.812500 0
  0.625000   0.687500 0
  0.687500   0.125000 0
  0.875000   0.062500 0
  0.625000   0.125000 0
  0.625000   0.187500 0
  0.625000   0.250000 0
  0.812500   0.187500 0
  1.000000   0.125000 0
  0.687500   0.187500 0
  0.750000   0.125000 0
  0.937500   0.062500 0
  0.937500   0.125000 0
  0.750000   0.187500 0
  0.812500   0.062500 0
  0.812500   0.125000 0
  0.875000   0.687500 0
  0.187500   0.250000 0
  0.437500   0.250000 0
  0.375000   0.187500 0
  0.812500   0.625000 0
  0.125000   0.187500 0
  0.937500   0.750000 0
  0.250000   0.312500 0
  0.500000   0.312500 0
  0.625000   0.062500 0
  0.437500   0.500000 0
  0.375000   0.125000 0
  0.437500   0.187500 0
  0.437500   0.437500 0
  0.437500   0.375000 0
  0.875000   0.875000 0
  0.187500   0.375000 0
  0.687500   0.562500 0
  0.687500   0.625000 0
  0.000000   0.125000 0
  0.937500   0.625000 0
  0.250000   0.125000 0
  0.375000   0.062500 0
  0.375000   0.000000 0
  0.812500   0.500000 0
  0.125000   0.000000 0
  0.937500   0.937500 0
  0.250000   0.437500 0
  0.687500   0.875000 0
  0.687500   0.937500 0
  0.000000   0.437500 0
  0.500000   0.500000 0
  0.500000   0.437500 0
  0.750000   0.937500 0
  0.750000   1.000000 0
  0.062500   0.500000 0
  1.000000   1.000000 0
  0.312500   0.500000 0
  0.875000   0.562500 0
  0.187500   0.062500 0
  0.437500   0.125000 0
  0.437500   0.062500 0
  0.500000   0.375000 0
  0.937500   0.812500 0
  0.937500   0.875000 0
  0.250000   0.375000 0
  0.687500   0.812500 0
  0.000000   0.375000 0
  0.750000   0.562500 0
  0.062500   0.125000 0
  1.000000   0.562500 0
  1.000000   0.625000 0
  0.312500   0.125000 0
  0.562500   0.125000 0
  0.437500   0.000000 0
  0.875000   0.437500 0
  0.875000   0.500000 0
  0.187500   0.000000 0
  0.937500   0.562500 0
  0.937500   0.500000 0
  0.250000   0.062500 0
  0.687500   0.500000 0
  0.000000   0.062500 0
  0.500000   0.062500 0
  1.000000   0.875000 0
  1.000000   0.937500 0
  0.312500   0.437500 0
  0.750000   0.875000 0
  0.062500   0.437500 0
  0.812500   0.937500 0
  0.125000   0.500000 0
  0.375000   0.500000 0
  0.625000   0.562500 0
  0.625000   0.500000 0
  0.437500   0.312500 0
  0.875000   0.812500 0
  0.875000   0.750000 0
  0.187500   0.312500 0
  0.812500   0.687500 0
  0.812500   0.750000 0
  0.125000   0.250000 0
  0.375000   0.250000 0
  1.000000   0.687500 0
  0.312500   0.187500 0
  0.750000   0.687500 0
  0.750000   0.625000 0
  0.062500   0.187500 0
  0.562500   0.250000 0
  0.562500   0.187500 0
  0.375000   1.000000 0
  0.500000   0.562500 0
  0.500000   0.250000 0
  0.750000   0.250000 0
  0.500000   0.125000 0
  0.500000   0.187500 0
  1.000000   0.187500 0
  0.625000   0.375000 0
  0.875000   0.375000 0
  1.000000   0.437500 0
  0.312500   0.000000 0
  0.562500   0.000000 0
  0.812500   0.000000 0
  0.250000   0.687500 0
  0.000000   0.687500 0
  0.500000   1.000000 0
  0.250000   1.000000 0
  0.000000   1.000000 0
  0.437500   0.687500 0
  0.437500   0.625000 0
  0.187500   0.625000 0
  0.687500   0.750000 0
  0.000000   0.312500 0
  0.000000   0.250000 0
  0.375000   0.375000 0
  0.375000   0.312500 0
  0.812500   0.812500 0
  0.125000   0.312500 0
  0.875000   0.625000 0
  0.187500   0.187500 0
  0.187500   0.125000 0
  0.937500   1.000000 0
  0.250000   0.562500 0
  0.250000   0.500000 0
  0.687500   1.000000 0
  0.000000   0.500000 0
  0.687500   0.687500 0
  0.000000   0.187500 0
  0.937500   0.687500 0
  0.250000   0.250000 0
  0.250000   0.187500 0
  0.187500   0.687500 0
  0.000000   0.750000 0
  0.250000   0.750000 0
  0.125000   0.625000 0
  0.750000   0.750000 0
  0.062500   0.250000 0
  0.875000   0.937500 0
  0.187500   0.500000 0
  0.187500   0.437500 0
  0.812500   0.562500 0
  0.125000   0.125000 0
  0.125000   0.062500 0
  0.375000   0.625000 0
  0.375000   0.687500 0
  1.000000   0.750000 0
  0.312500   0.250000 0
  0.312500   0.312500 0
  0.812500   0.312500 0
  0.562500   0.312500 0
  0.375000   0.750000 0
  0.500000   0.625000 0
  0.250000   0.625000 0
  0.312500   0.687500 0
  0.750000   0.812500 0
  0.062500   0.312500 0
  0.062500   0.375000 0
  1.000000   0.812500 0
  0.312500   0.375000 0
  0.562500   0.375000 0
  0.687500   0.437500 0
  0.000000   0.000000 0
  0.500000   0.000000 0
  0.937500   0.437500 0
  0.250000   0.000000 0
  0.375000   0.437500 0
  0.812500   0.875000 0
  0.125000   0.375000 0
  0.125000   0.437500 0
  0.625000   0.437500 0
  1.000000   0.500000 0
  0.312500   0.062500 0
  0.750000   0.500000 0
  0.062500   0.000000 0
  0.062500   0.062500 0
  0.562500   0.062500 0
  0.062500   0.750000 0
  0.312500   0.750000 0
  0.312500   0.625000 0
  0.312500   0.562500 0
  0.062500   0.562500 0
  0.187500   1.000000 0
  0.437500   0.562500 0
  0.875000   1.000000 0
  0.187500   0.562500 0
  0.500000   0.937500 0
  0.250000   0.937500 0
  0.312500   1.000000 0
  0.125000   0.750000 0
  0.125000   0.687500 0
  1.000000   0.000000 0
  0.000000   0.937500 0
  0.000000   0.875000 0
  0.875000   0.125000 0
  0.875000   0.187500 0
  0.062500   0.812500 0
  0.312500   0.812500 0
  0.000000   0.812500 0
  0.000000   0.625000 0
  0.000000   0.562500 0
  0.062500   1.000000 0
  0.062500   0.937500 0
  0.937500   0.187500 0
  0.937500   0.250000 0
  0.062500   0.687500 0
  0.062500   0.625000 0
  0.125000   1.000000 0
  1.000000   0.250000 0
  1.000000   0.312500 0
  0.062500   0.875000 0
  0.125000   0.812500 0
  0.375000   0.812500 0
  0.125000   0.875000 0
  0.375000   0.937500 0
  0.375000   0.875000 0
  0.187500   0.750000 0
  0.187500   0.812500 0
  0.437500   0.812500 0
  0.187500   0.875000 0
  0.437500   0.875000 0
  0.375000   0.562500 0
  0.812500   1.000000 0
  0.125000   0.562500 0
  0.437500   1.000000 0
  0.437500   0.937500 0
  0.187500   0.937500 0
  0.125000   0.937500 0
  0.500000   0.687500 0
  0.500000   0.750000 0
  0.500000   0.812500 0
  0.250000   0.812500 0
  0.250000   0.875000 0
  0.500000   0.875000 0
  0.437500   0.750000 0
  0.312500   0.875000 0
  0.312500   0.937500 0
  0.687500   0.250000 0
  0.687500   0.312500 0
  0.937500   0.312500 0
  0.875000   0.250000 0
  0.625000   0.000000 0
  0.875000   0.000000 0
  0.687500   0.375000 0
  0.937500   0.375000 0
  0.875000   0.312500 0
  0.625000   0.312500 0
  0.687500   0.000000 0
  0.937500   0.000000 0
  0.750000   0.312500 0
  0.750000   0.375000 0
  1.000000   0.375000 0
  0.812500   0.250000 0
  0.562500   0.437500 0
  0.562500   0.500000 0
  0.687500   0.062500 0
  0.750000   0.437500 0
  0.750000   0.000000 0
  0.750000   0.062500 0
  1.000000   0.062500 0
  0.812500   0.375000 0
  0.812500   0.437500 0
CELLS 256 1280
4 169 170 148 68
4 151 166 56 167
4 195 45 196 167
4 54 170 201 202
4 109 34 30 147
4 40 32 81 112
4 192 89 86 68
4 48 91 78 202
4 99 64 196 97
4 71 43 37 103
4 74 186 56 95
4 109 164 34 115
4 50 81 158 112
4 122 69 92 70
4 195 145 45 106
4 110 143 174 175
4 157 30 158 147
4 40 69 32 41
4 50 158 148 147
4 141 155 164 115
4 122 123 69 41
4 142 186 143 175
4 60 39 61 42
4 40 51 69 70
4 120 31 123 41
4 157 174 36 175
4 50 148 89 68
4 48 78 155 115
4 52 83 51 70
4 151 56 66 95
4 71 61 43 42
4 169 148 34 147
4 100 193 39 42
4 40 81 51 199
4 110 174 32 112
4 109 30 145 106
4 100 66 193 95
4 169 34 78 115
4 190 92 83 70
4 50 89 81 199
4 54 86 170 68
4 74 56 45 167
4 142 143 43 103
4 153 59 64 97
4 99 196 166 167
4 169 78 170 202
4 142 193 186 95
4 192 128 89 199
4 74 45 36 106
4 110 31 143 103
4 76 184 59 97
4 142 43 193 42
4 52 51 128 199
4 189 201 91 202
4 120 37 31 103
4 74 36 186 175
4 195 196 184 97
4 141 164 140 183
4 157 158 174 112
4 109 145 164 183
4 195 184 145 183
4 110 32 31 41
4 157 36 30 106
4 76 140 184 183
4 171 172 206 181
4 178 172 261 136
4 256 261 255 136
4 256 257 261 245
4 180 150 206 207
4 60 119 39 210
4 118 215 241 263
4 178 205 172 181
4 216 243 238 244
4 162 217 233 232
4 180 206 131 181
4 179 137 119 210
4 216 204 217 232
4 220 237 219 229
4 216 217 243 159
4 259 258 262 224
4 240 254 237 229
4 153 64 227 208
4 161 205 258 224
4 240 237 238 223
4 226 227 233 208
4 234 228 254 229
4 171 248 137 210
4 160 132 204 232
4 180 131 138 159
4 133 251 213 252
4 171 206 248 207
4 162 138 217 159
4 161 258 243 244
4 220 225 237 223
4 151 150 166 212
4 260 247 257 245
4 259 262 214 263
4 151 66 150 207
4 234 254 209 253
4 162 233 250 208
4 242 241 262 263
4 171 137 172 136
4 161 243 131 159
4 160 204 225 223
4 161 131 205 181
4 179 255 137 136
4 216 238 204 223
4 100 39 248 210
4 260 213 247 252
4 226 233 132 232
4 134 214 215 263
4 180 138 150 212
4 178 261 239 245
4 259 246 258 244
4 178 239 205 224
4 240 238 246 244
4 242 262 239 224
4 99 250 64 208
4 240 246 254 253
4 242 239 247 245
4 135 219 228 229
4 99 166 250 212
4 259 214 246 253
4 118 241 251 252
4 100 248 66 207
4 134 209 214 253
4 162 250 138 212
4 242 247 241 252
4 71 187 61 280
4 102 281 197 280
4 122 92 82 203
4 17 18 82 117
4 122 82 123 117
4 19 264 273 265
4 267 279 222 20
4 125 273 270 265
4 267 272 279 176
4 19 116 18 117
4 21 25 286 24
4 23 28 26 20
4 23 285 28 27
4 218 286 275 24
4 85 53 84 288
4 235 236 231 266
4 221 222 28 20
4 267 222 231 230
4 268 38 129 203
4 125 270 197 188
4 126 287 272 176
4 277 270 276 265
4 267 231 272 266
4 125 197 187 280
4 190 129 92 203
4 277 276 287 176
4 19 18 264 22
4 17 82 38 203
4 102 197 90 188
4 126 84 287 288
4 284 130 285 27
4 121 276 264 265
4 71 37 187 177
4 120 123 116 117
4 198 88 127 191
4 221 16 25 24
4 23 26 15 22
4 121 279 276 176
4 235 231 124 230
4 125 187 273 177
4 278 271 236 266
4 277 287 283 288
4 284 285 274 282
4 278 127 271 191
4 269 275 16 24
4 200 283 53 288
4 23 15 285 282
4 121 26 279 20
4 21 124 25 230
4 19 273 116 177
4 200 90 283 188
4 126 271 84 191
4 269 16 130 27
4 17 38 15 282
4 221 25 222 230
4 121 264 26 22
4 120 116 37 177
4 60 61 281 280
4 277 283 270 188
4 126 272 271 266
4 268 274 38 282
4 85 84 88 191
4 17 15 18 22
4 221 28 16 27
4 93 94 73 55
4 85 88 67 87
4 80 49 79 87
4 44 104 73 72
4 146 33 67 168
4 211 165 149 55
4 8 47 14 154
4 105 104 108 144
4 105 108 29 107
4 7 139 13 75
4 44 165 194 98
4 200 53 77 168
4 8 1 101 4
4 2 5 152 58
4 260 6 213 3
4 105 35 104 72
4 96 57 182 75
4 7 14 139 154
4 146 29 33 107
4 7 13 10 9
4 12 13 57 75
4 85 67 53 168
4 44 73 165 55
4 63 152 62 58
4 8 101 47 46
4 96 182 194 144
4 60 281 119 4
4 12 5 6 3
4 173 185 35 72
4 65 149 94 55
4 146 67 49 87
4 114 113 47 154
4 163 108 182 144
4 12 6 13 9
4 173 35 111 156
4 163 182 139 75
4 260 257 6 9
4 105 29 35 156
4 163 139 113 154
4 256 10 257 9
4 146 49 29 156
4 163 113 108 107
4 80 111 49 156
4 102 101 281 4
4 12 57 5 58
4 44 194 104 144
4 96 194 62 98
4 2 0 5 3
4 93 73 185 72
4 179 119 1 4
4 200 77 90 46
4 114 33 113 107
4 7 10 14 11
4 96 62 57 58
4 133 213 0 3
4 102 90 101 46
4 256 255 10 11
4 63 62 249 98
4 114 47 77 46
4 179 1 255 11
4 211 249 165 98
4 114 77 33 168
4 198 79 88 87
4 8 14 1 11
CELL_TYPES 256
8
8
8
8
8
8
8
8
8
8
8
8
8
8
8
8
8
8
8
8
8
8
8
8
8
8
8
8
8
8
8
8
8
8
8
8
8
8
8
8
8
8
8
8
8
8
8
8
8
8
8
8
8
8
8
8
8
8
8
8
8
8
8
8
8
8
8
8
8
8
8
8
8
8
8
8
8
8
8
8
8
8
8
8
8
8
8
8
8
8
8
8
8
8
8
8
8
8
8
8
8
8
8
8
8
8
8
8
8
8
8
8
8
8
8
8
8
8
8
8
8
8
8
8
8
8
8
8
8
8
8
8
8
8
8
8
8
8
8
8
8
8
8
8
8
8
8
8
8
8
8
8
8
8
8
8
8
8
8
8
8
8
8
8
8
8
8
8
8
8
8
8
8
8
8
8
8
8
8
8
8
8
8
8
8
8
8
8
8
8
8
8
8
8
8
8
8
8
8
8
8
8
8
8
8
8
8
8
8
8
8
8
8
8
8
8
8
8
8
8
8
8
8
8
8
8
8
8
8
8
8
8
8
8
8
8
8
8
8
8
8
8
8
8
8
8
8
8
8
8
8
8
8
8
8
8
CELL_DATA 256
VECTORS vector_value float
0.177879 -0.349786 0
1.09006 -0.0495214 0
0.332408 -0.0941716 0
0.0164154 -0.34577 0
0.189515 -0.369291 0
0.101146 -0.792086 0
0.0901116 -0.191328 0
0.0169515 -0.297539 0
0.767081 -0.487029 0
0.186052 -1.10366 0
0.382235 -0.284696 0
0.20569 -0.536046 0
0.252216 -0.189685 0
0.0973115 -3.48646 0
0.206629 -0.310022 0
0.28993 -0.917004 0
0.251201 -0.137048 0
-0.347551 -5.66682 0
0.214785 -0.131553 0
0.11069 -0.555244 0
-0.424595 -3.05126 0
0.764755 -1.86671 0
-0.28964 -0.459896 0
0.158451 -5.43388 0
-0.2231 -3.41577 0
0.0446068 -0.0426157 0
0.167464 -0.14815 0
0.0689912 -0.380359 0
0.0803158 -4.73251 0
1.20133 -0.692245 0
-0.0682577 -0.541725 0
0.205907 -0.312168 0
0.497079 -2.00825 0
-0.020548 -1.13171 0
0.136517 -0.697484 0
0.205641 -0.474185 0
1.36312 -3.57733 0
0.199552 -0.530083 0
0.136662 -4.09563 0
0.136101 -0.168713 0
0.0510812 -0.241954 0
0.206768 -0.0291791 0
0.817871 -4.89581 0
0.471591 -2.00837 0
0.973822 -0.123005 0
0.0734263 -0.375394 0
1.13821 -2.87658 0
0.0430023 -0.237502 0
0.118228 -0.0400046 0
0.735316 -5.4141 0
0.20065 -1.19261 0
0.988658 -3.92312 0
-0.0322698 -1.33327 0
0.00494115 -0.280606 0
0.178385 -1.8163 0
0.159761 -0.0771946 0
0.565084 -0.683777 0
0.0945863 -0.820962 0
0.1392 -0.116646 0
0.164542 -0.394441 0
0.168824 -0.58429 0
0.26845 -4.81135 0
0.0882993 -0.0492353 0
0.0482177 -0.897599 0
-0.0331218 -0.981165 0
0.00305451 -1.69132 0
-0.0152246 -0.566564 0
0.00941204 -0.579566 0
0.367869 -0.818878 0
-0.252505 -0.295848 0
-0.204 -1.26839 0
0.033954 -0.857033 0
-0.497133 -1.39976 0
-0.163764 -0.816451 0
0.115804 -0.49263 0
-0.244847 -0.327132 0
-0.372646 -1.15626 0
0.00793971 -0.372532 0
-0.114924 -0.689647 0
-0.148768 -0.470677 0
-0.0396653 -1.4621 0
0.340825 -2.74294 0
-0.029748 -0.438233 0
-0.564138 -1.39664 0
0.0351753 -3.10887 0
0.318158 -1.41621 0
-0.551922 -1.28403 0
-0.400067 -2.51115 0
0.158035 -0.429903 0
-0.149649 -1.18848 0
-0.38125 -1.93742 0
0.0483428 -0.593925 0
-0.0695946 -0.597933 0
-0.307701 -0.773349 0
0.837445 -0.202354 0
-0.0787641 -0.411304 0
-0.627066 -0.93858 0
1.14639 -0.935508 0
0.0923466 -0.889043 0
0.171314 -0.62595 0
-0.113963 -1.23521 0
-0.289892 -1.7052 0
0.0869497 -0.72751 0
-0.460562 -1.38538 0
0.112006 -0.330402 0
-0.218153 -0.615678 0
-1.11708 -1.67478 0
-0.222833 -1.09077 0
-0.531069 -0.87601 0
-0.153007 -2.99897 0
0.0338212 -1.20879 0
0.489779 -0.319385 0
0.0166434 -1.6927 0
-0.480331 -0.920327 0
0.0112155 -0.785382 0
-0.770053 -1.84369 0
-0.0541139 -0.838858 0
0.65645 -0.55157 0
-0.29708 -1.30267 0
-0.0787513 -1.78936 0
0.281298 -0.555873 0
0.574184 -0.162014 0
-0.843504 -1.11655 0
-0.178768 -0.620769 0
0.531253 -3.06505 0
0.145334 -0.920947 0
0.382596 -0.340329 0
-0.379425 -0.990501 0
-0.228446 -0.275276 0
-0.328788 -0.306763 0
-0.130069 -0.656999 0
-0.154954 -0.109352 0
-0.347115 -0.871925 0
-0.727749 -0.263089 0
-0.839937 -1.02338 0
-0.486326 -0.245435 0
-0.204218 -0.980732 0
-0.599798 -0.327602 0
-0.026609 -0.155186 0
-1.30946 -1.47625 0
-0.805172 -1.08636 0
-0.0020293 -0.125068 0
0.067673 -1.09578 0
-0.120117 -1.26425 0
-1.09815 -0.682756 0
-0.686218 -1.0526 0
-0.0519248 -0.291478 0
-0.212286 -0.283286 0
0.166049 -0.8105 0
-0.509848 -0.657166 0
-0.256452 -1.12767 0
-0.173417 -0.236309 0
-0.00320603 -0.576842 0
-0.0826582 -1.2718 0
-0.348404 -0.123886 0
-0.095317 -0.131883 0
-0.236043 -0.371127 0
0.152081 -0.837065 0
-0.288982 -0.690775 0
-0.424639 -0.355061 0
-0.230509 -0.396656 0
-0.655701 -0.807469 0
0.137662 -0.878926 0
-0.15827 -0.234421 0
-0.44342 -0.617074 0
-0.296103 -0.821317 0
-0.323156 -0.894003 0
-0.414454 -0.371443 0
0.0372862 -1.43301 0
-0.0105275 -1.77584 0
-0.544956 -1.67532 0
0.138117 -1.21276 0
-0.0109722 -0.0705957 0
-0.0248007 -1.77446 0
-0.979626 -1.72395 0
-0.473484 -0.817516 0
-0.149879 -0.350591 0
-0.783199 -0.461053 0
-0.0651896 -0.922971 0
0.226585 -1.02027 0
-0.0845444 -0.194851 0
-0.227984 -0.254175 0
-0.658495 -0.722865 0
-0.344771 -0.314664 0
-0.558334 -0.79799 0
-0.275027 -0.156962 0
-0.179933 -0.733328 0
0.119582 -1.0387 0
-0.484266 -0.916497 0
0.239551 -1.08736 0
-0.168506 -0.115173 0
-0.403218 -0.365386 0
-0.111395 -0.416771 0
0.153283 -1.23463 0
-0.00824216 -0.658923 0
0.0841144 -0.62235 0
-0.0524268 -1.80748 0
-0.554287 -0.923727 0
-0.0722674 -0.341157 0
0.352838 -2.51783 0
0.0516103 -1.97426 0
-0.0202543 -0.25763 0
-0.207273 -1.84891 0
-0.118769 -1.52561 0
-0.138107 -0.122143 0
0.709294 -0.878142 0
-0.0467875 -0.561375 0
0.227576 -0.860269 0
0.121412 -0.790561 0
-0.041754 -0.295258 0
-0.110004 -1.73634 0
0.00382912 -0.213736 0
0.114687 -0.289609 0
-0.0515401 -1.39119 0
-0.335875 -0.537736 0
0.485442 -1.29868 0
-0.262176 -0.538988 0
0.419694 -2.79009 0
-0.348329 -0.147703 0
0.221992 -0.331697 0
0.0396563 -0.348156 0
-0.223292 -0.668833 0
-0.0057355 -1.02391 0
-0.309817 -1.64841 0
-0.0384315 -2.03179 0
0.068035 -0.201766 0
0.0875902 -0.487873 0
-0.138952 -1.06207 0
-0.0346037 -0.311104 0
0.282317 -1.30652 0
-0.144858 -1.24097 0
0.00480531 -0.154794 0
-0.00816573 -1.1617 0
-0.198922 -1.73352 0
0.0431907 -0.634162 0
-0.525535 -0.225039 0
0.618186 -0.531765 0
0.423259 -2.26588 0
0.839973 -2.27151 0
0.385299 -0.844427 0
-0.00871413 -0.284421 0
-0.210984 -0.166683 0
-0.165075 -1.16207 0
-0.281074 -1.50956 0
-0.0324214 -0.251912 0
1.22834 -1.20608 0
-0.0455001 -0.864689 0
-0.520007 -0.634831 0
-0.0347323 -0.179791 0
-0.0303995 -1.22604 0
-0.255991 -1.5918 0
-0.102992 -0.147214 0
-0.383203 -1.22696 0
-0.113144 -1.32808 0
0.052126 -0.632888 0
-0.0710501 -0.187528 0
