# vtk DataFile Version 2.0
Unstructured Grid by M++
ASCII
DATASET UNSTRUCTURED_GRID
POINTS 81 float
  1.000000   0.625000 0
  0.750000   0.375000 0
  1.000000   0.000000 0
  0.875000   0.875000 0
  0.750000   0.125000 0
  1.000000   1.000000 0
  0.875000   0.250000 0
  0.625000   0.875000 0
  1.000000   0.750000 0
  0.875000   0.000000 0
  1.000000   0.250000 0
  0.625000   0.375000 0
  0.875000   0.500000 0
  0.625000   0.625000 0
  1.000000   0.500000 0
  0.750000   0.500000 0
  0.750000   1.000000 0
  1.000000   0.125000 0
  0.625000   0.250000 0
  0.750000   0.750000 0
  0.625000   0.000000 0
  0.125000   0.375000 0
  0.000000   0.500000 0
  0.125000   0.625000 0
  0.625000   1.000000 0
  1.000000   0.875000 0
  0.875000   0.125000 0
  0.500000   0.250000 0
  0.625000   0.500000 0
  0.250000   0.625000 0
  0.000000   0.625000 0
  0.375000   0.500000 0
  0.375000   0.000000 0
  0.000000   0.125000 0
  0.125000   0.875000 0
  0.875000   1.000000 0
  0.750000   0.250000 0
  0.375000   0.375000 0
  0.250000   0.375000 0
  0.625000   0.750000 0
  0.125000   0.125000 0
  0.500000   0.000000 0
  0.250000   0.875000 0
  0.125000   0.500000 0
  0.500000   0.375000 0
  0.125000   0.000000 0
  0.250000   0.750000 0
  0.250000   0.500000 0
  0.000000   0.875000 0
  0.875000   0.625000 0
  0.500000   0.750000 0
  0.750000   0.625000 0
  0.250000   0.000000 0
  0.375000   0.750000 0
  0.750000   0.875000 0
  0.625000   0.125000 0
  0.250000   0.250000 0
  0.375000   1.000000 0
  0.375000   0.250000 0
  0.000000   0.375000 0
  0.500000   1.000000 0
  0.875000   0.750000 0
  0.750000   0.000000 0
  0.375000   0.125000 0
  0.500000   0.875000 0
  0.000000   0.000000 0
  0.125000   0.750000 0
  0.500000   0.625000 0
  0.125000   0.250000 0
  0.500000   0.125000 0
  0.250000   1.000000 0
  0.250000   0.125000 0
  0.000000   1.000000 0
  0.375000   0.875000 0
  0.000000   0.750000 0
  0.375000   0.625000 0
  0.000000   0.250000 0
  0.125000   1.000000 0
  1.000000   0.375000 0
  0.500000   0.500000 0
  0.875000   0.375000 0
CELLS 64 320
4 56 71 58 63
4 27 58 69 63
4 41 69 32 63
4 76 33 68 40
4 27 44 58 37
4 79 31 44 37
4 56 38 68 21
4 56 58 38 37
4 52 32 71 63
4 47 38 31 37
4 76 68 59 21
4 22 59 43 21
4 65 45 33 40
4 47 43 38 21
4 52 71 45 40
4 56 68 71 40
4 74 30 66 23
4 46 66 29 23
4 22 43 30 23
4 72 48 77 34
4 46 53 42 73
4 50 64 53 73
4 70 42 57 73
4 74 66 48 34
4 46 42 66 34
4 47 29 43 23
4 70 77 42 34
4 60 57 64 73
4 79 67 31 75
4 47 31 29 75
4 50 53 67 75
4 46 29 53 75
4 10 78 6 80
4 36 6 1 80
4 15 1 12 80
4 36 4 6 26
4 14 12 78 80
4 2 17 9 26
4 36 18 4 55
4 15 28 1 11
4 62 4 20 55
4 10 6 17 26
4 27 18 44 11
4 62 9 4 26
4 27 69 18 55
4 36 1 18 11
4 41 20 69 55
4 79 44 28 11
4 16 24 54 7
4 19 54 39 7
4 50 39 64 7
4 8 25 61 3
4 60 64 24 7
4 79 28 67 13
4 19 51 61 49
4 8 61 0 49
4 15 51 28 13
4 19 39 51 13
4 50 67 39 13
4 19 61 54 3
4 14 0 12 49
4 5 35 25 3
4 15 12 51 49
4 16 54 35 3
CELL_TYPES 64
8
8
8
8
8
8
8
8
8
8
8
8
8
8
8
8
8
8
8
8
8
8
8
8
8
8
8
8
8
8
8
8
8
8
8
8
8
8
8
8
8
8
8
8
8
8
8
8
8
8
8
8
8
8
8
8
8
8
8
8
8
8
8
8
CELL_DATA 64
VECTORS vector_value float
0.0118775 -0.0108764 0
0.603778 -0.487042 0
0.0425817 -0.10873 0
0.00647357 -0.268142 0
0.67632 -0.520087 0
0.402271 -0.930606 0
0.0649733 -0.0809912 0
0.545173 -0.543373 0
0.00563559 -0.00884975 0
0.207923 -0.869918 0
0.00207653 -0.265728 0
0.0640513 -0.303349 0
0.00241494 -0.250287 0
0.128299 -0.289225 0
0.0103085 -0.0166973 0
0.00618311 -0.00600341 0
-0.0856178 -0.378866 0
0.0992534 -0.380459 0
0.0202204 -0.443644 0
0.393753 -0.459488 0
0.626813 -1.2104 0
0.851787 -1.11532 0
0.677412 -0.913388 0
-0.0281129 -0.209919 0
-0.0209104 -0.599033 0
0.00713472 -0.0479371 0
0.94784 -1.33541 0
0.499467 -1.17892 0
0.191805 -1.59188 0
0.0515935 -1.02796 0
-0.0911122 -1.11103 0
0.103102 -0.818375 0
-0.00896471 -0.064914 0
-0.256637 -0.396629 0
-0.203037 -0.986563 0
0.640865 -0.92696 0
-0.00737028 -0.0872505 0
0.0914984 -0.2492 0
2.72415 -4.07562 0
-0.208823 -2.84837 0
0.281563 -1.20498 0
0.017257 -0.0779843 0
0.550187 -2.9808 0
1.74864 -4.14926 0
1.1495 -2.14737 0
-0.408192 -3.14747 0
0.0999752 -2.01199 0
0.354491 -1.68472 0
-0.861548 -1.59848 0
0.243806 -0.857932 0
0.375451 -2.82346 0
0.00456857 -0.184948 0
-0.0104864 -1.16803 0
0.500972 -1.66322 0
0.208043 -1.18504 0
0.0216118 -0.368863 0
0.181567 -1.07361 0
0.595361 -1.01831 0
0.106017 -2.73905 0
0.168167 -0.998979 0
-0.0913793 -0.171925 0
-0.387372 -0.40045 0
-0.373914 -1.97983 0
-0.816854 -0.945829 0
