# vtk DataFile Version 2.0
Unstructured Grid by M++
ASCII
DATASET UNSTRUCTURED_GRID
POINTS 81 float
  1.000000   0.625000 0
  0.750000   0.375000 0
  1.000000   0.000000 0
  0.875000   0.875000 0
  0.750000   0.125000 0
  1.000000   1.000000 0
  0.875000   0.250000 0
  0.625000   0.875000 0
  1.000000   0.750000 0
  0.875000   0.000000 0
  1.000000   0.250000 0
  0.625000   0.375000 0
  0.875000   0.500000 0
  0.625000   0.625000 0
  1.000000   0.500000 0
  0.750000   0.500000 0
  0.750000   1.000000 0
  1.000000   0.125000 0
  0.625000   0.250000 0
  0.750000   0.750000 0
  0.625000   0.000000 0
  0.125000   0.375000 0
  0.000000   0.500000 0
  0.125000   0.625000 0
  0.625000   1.000000 0
  1.000000   0.875000 0
  0.875000   0.125000 0
  0.500000   0.250000 0
  0.625000   0.500000 0
  0.250000   0.625000 0
  0.000000   0.625000 0
  0.375000   0.500000 0
  0.375000   0.000000 0
  0.000000   0.125000 0
  0.125000   0.875000 0
  0.875000   1.000000 0
  0.750000   0.250000 0
  0.375000   0.375000 0
  0.250000   0.375000 0
  0.625000   0.750000 0
  0.125000   0.125000 0
  0.500000   0.000000 0
  0.250000   0.875000 0
  0.125000   0.500000 0
  0.500000   0.375000 0
  0.125000   0.000000 0
  0.250000   0.750000 0
  0.250000   0.500000 0
  0.000000   0.875000 0
  0.875000   0.625000 0
  0.500000   0.750000 0
  0.750000   0.625000 0
  0.250000   0.000000 0
  0.375000   0.750000 0
  0.750000   0.875000 0
  0.625000   0.125000 0
  0.250000   0.250000 0
  0.375000   1.000000 0
  0.375000   0.250000 0
  0.000000   0.375000 0
  0.500000   1.000000 0
  0.875000   0.750000 0
  0.750000   0.000000 0
  0.375000   0.125000 0
  0.500000   0.875000 0
  0.000000   0.000000 0
  0.125000   0.750000 0
  0.500000   0.625000 0
  0.125000   0.250000 0
  0.500000   0.125000 0
  0.250000   1.000000 0
  0.250000   0.125000 0
  0.000000   1.000000 0
  0.375000   0.875000 0
  0.000000   0.750000 0
  0.375000   0.625000 0
  0.000000   0.250000 0
  0.125000   1.000000 0
  1.000000   0.375000 0
  0.500000   0.500000 0
  0.875000   0.375000 0
CELLS 64 320
4 56 71 58 63
4 27 58 69 63
4 41 69 32 63
4 76 33 68 40
4 27 44 58 37
4 79 31 44 37
4 56 38 68 21
4 56 58 38 37
4 52 32 71 63
4 47 38 31 37
4 76 68 59 21
4 22 59 43 21
4 65 45 33 40
4 47 43 38 21
4 52 71 45 40
4 56 68 71 40
4 74 30 66 23
4 46 66 29 23
4 22 43 30 23
4 72 48 77 34
4 46 53 42 73
4 50 64 53 73
4 70 42 57 73
4 74 66 48 34
4 46 42 66 34
4 47 29 43 23
4 70 77 42 34
4 60 57 64 73
4 79 67 31 75
4 47 31 29 75
4 50 53 67 75
4 46 29 53 75
4 10 78 6 80
4 36 6 1 80
4 15 1 12 80
4 36 4 6 26
4 14 12 78 80
4 2 17 9 26
4 36 18 4 55
4 15 28 1 11
4 62 4 20 55
4 10 6 17 26
4 27 18 44 11
4 62 9 4 26
4 27 69 18 55
4 36 1 18 11
4 41 20 69 55
4 79 44 28 11
4 16 24 54 7
4 19 54 39 7
4 50 39 64 7
4 8 25 61 3
4 60 64 24 7
4 79 28 67 13
4 19 51 61 49
4 8 61 0 49
4 15 51 28 13
4 19 39 51 13
4 50 67 39 13
4 19 61 54 3
4 14 0 12 49
4 5 35 25 3
4 15 12 51 49
4 16 54 35 3
CELL_TYPES 64
8
8
8
8
8
8
8
8
8
8
8
8
8
8
8
8
8
8
8
8
8
8
8
8
8
8
8
8
8
8
8
8
8
8
8
8
8
8
8
8
8
8
8
8
8
8
8
8
8
8
8
8
8
8
8
8
8
8
8
8
8
8
8
8
CELL_DATA 64
VECTORS vector_value float
-1.40054 -1.9442 0
-0.432524 -0.622281 0
-0.330173 -0.5936 0
-0.287952 -0.81644 0
-0.502847 -2.34885 0
-0.662418 -3.02004 0
-1.18216 -1.87977 0
-1.13937 -2.00875 0
-0.369548 -1.65617 0
-0.324521 -3.2555 0
-0.0531726 -0.191875 0
0.00166887 -0.123799 0
0.0399284 -0.740845 0
0.0193662 -0.193393 0
-0.14494 -3.70058 0
-1.05802 -2.83869 0
0.44641 -0.998519 0
0.636947 -1.53325 0
0.129087 -0.313787 0
-0.172472 -1.28942 0
-0.0253697 -0.773984 0
0.189526 -1.33639 0
-0.301631 -1.23271 0
0.0327335 -1.33163 0
-0.129668 -1.13436 0
1.02335 -1.48468 0
-0.280158 -0.788402 0
-0.371122 -0.920615 0
-1.03412 -2.05732 0
0.375622 -0.864556 0
0.194256 -1.05493 0
0.354263 -0.444577 0
-0.06379 -0.367782 0
-0.0600996 -0.201215 0
-0.00964299 -0.0335618 0
0.0647678 -0.237875 0
-0.0207135 -0.504681 0
0.0123033 -0.407853 0
0.133339 -0.271361 0
0.00354328 -0.0869042 0
0.00783788 -0.203681 0
0.0205949 -0.351827 0
0.189514 -0.894405 0
0.0233146 -0.270142 0
-0.0636617 -0.917328 0
0.0533242 -0.107356 0
-0.0706405 -0.427128 0
-0.0318498 -0.782116 0
-0.680634 -0.839529 0
-0.149373 -0.872489 0
-0.0741958 -1.25444 0
-0.249046 -1.04006 0
-0.603821 -1.40786 0
-1.68954 -2.28148 0
-0.377262 -0.0691185 0
-0.160098 -0.700025 0
-0.399336 -0.451796 0
-0.68756 -1.16825 0
-0.0723332 -2.03134 0
-0.540052 -0.256654 0
-0.0313326 -0.534642 0
0.198059 -1.45502 0
-0.0299894 -0.0117343 0
-0.0242261 -0.0664308 0
