# vtk DataFile Version 2.0
Unstructured Grid by M++
ASCII
DATASET UNSTRUCTURED_GRID
POINTS 289 float
  0.562500   1.000000 0
  0.562500   0.625000 0
  0.625000   1.000000 0
  0.562500   0.937500 0
  0.562500   0.562500 0
  0.625000   0.937500 0
  0.562500   0.875000 0
  0.625000   0.750000 0
  0.625000   0.625000 0
  0.562500   0.812500 0
  0.562500   0.750000 0
  0.562500   0.687500 0
  0.625000   0.875000 0
  0.625000   0.812500 0
  0.625000   0.687500 0
  0.687500   0.125000 0
  0.875000   0.062500 0
  0.625000   0.125000 0
  0.625000   0.187500 0
  0.625000   0.250000 0
  0.812500   0.187500 0
  1.000000   0.125000 0
  0.687500   0.187500 0
  0.750000   0.125000 0
  0.937500   0.062500 0
  0.937500   0.125000 0
  0.750000   0.187500 0
  0.812500   0.062500 0
  0.812500   0.125000 0
  0.875000   0.687500 0
  0.187500   0.250000 0
  0.437500   0.250000 0
  0.375000   0.187500 0
  0.812500   0.625000 0
  0.125000   0.187500 0
  0.937500   0.750000 0
  0.250000   0.312500 0
  0.500000   0.312500 0
  0.625000   0.062500 0
  0.437500   0.500000 0
  0.375000   0.125000 0
  0.437500   0.187500 0
  0.437500   0.437500 0
  0.437500   0.375000 0
  0.875000   0.875000 0
  0.187500   0.375000 0
  0.687500   0.562500 0
  0.687500   0.625000 0
  0.000000   0.125000 0
  0.937500   0.625000 0
  0.250000   0.125000 0
  0.375000   0.062500 0
  0.375000   0.000000 0
  0.812500   0.500000 0
  0.125000   0.000000 0
  0.937500   0.937500 0
  0.250000   0.437500 0
  0.687500   0.875000 0
  0.687500   0.937500 0
  0.000000   0.437500 0
  0.500000   0.500000 0
  0.500000   0.437500 0
  0.750000   0.937500 0
  0.750000   1.000000 0
  0.062500   0.500000 0
  1.000000   1.000000 0
  0.312500   0.500000 0
  0.875000   0.562500 0
  0.187500   0.062500 0
  0.437500   0.125000 0
  0.437500   0.062500 0
  0.500000   0.375000 0
  0.937500   0.812500 0
  0.937500   0.875000 0
  0.250000   0.375000 0
  0.687500   0.812500 0
  0.000000   0.375000 0
  0.750000   0.562500 0
  0.062500   0.125000 0
  1.000000   0.562500 0
  1.000000   0.625000 0
  0.312500   0.125000 0
  0.562500   0.125000 0
  0.437500   0.000000 0
  0.875000   0.437500 0
  0.875000   0.500000 0
  0.187500   0.000000 0
  0.937500   0.562500 0
  0.937500   0.500000 0
  0.250000   0.062500 0
  0.687500   0.500000 0
  0.000000   0.062500 0
  0.500000   0.062500 0
  1.000000   0.875000 0
  1.000000   0.937500 0
  0.312500   0.437500 0
  0.750000   0.875000 0
  0.062500   0.437500 0
  0.812500   0.937500 0
  0.125000   0.500000 0
  0.375000   0.500000 0
  0.625000   0.562500 0
  0.625000   0.500000 0
  0.437500   0.312500 0
  0.875000   0.812500 0
  0.875000   0.750000 0
  0.187500   0.312500 0
  0.812500   0.687500 0
  0.812500   0.750000 0
  0.125000   0.250000 0
  0.375000   0.250000 0
  1.000000   0.687500 0
  0.312500   0.187500 0
  0.750000   0.687500 0
  0.750000   0.625000 0
  0.062500   0.187500 0
  0.562500   0.250000 0
  0.562500   0.187500 0
  0.375000   1.000000 0
  0.500000   0.562500 0
  0.500000   0.250000 0
  0.750000   0.250000 0
  0.500000   0.125000 0
  0.500000   0.187500 0
  1.000000   0.187500 0
  0.625000   0.375000 0
  0.875000   0.375000 0
  1.000000   0.437500 0
  0.312500   0.000000 0
  0.562500   0.000000 0
  0.812500   0.000000 0
  0.250000   0.687500 0
  0.000000   0.687500 0
  0.500000   1.000000 0
  0.250000   1.000000 0
  0.000000   1.000000 0
  0.437500   0.687500 0
  0.437500   0.625000 0
  0.187500   0.625000 0
  0.687500   0.750000 0
  0.000000   0.312500 0
  0.000000   0.250000 0
  0.375000   0.375000 0
  0.375000   0.312500 0
  0.812500   0.812500 0
  0.125000   0.312500 0
  0.875000   0.625000 0
  0.187500   0.187500 0
  0.187500   0.125000 0
  0.937500   1.000000 0
  0.250000   0.562500 0
  0.250000   0.500000 0
  0.687500   1.000000 0
  0.000000   0.500000 0
  0.687500   0.687500 0
  0.000000   0.187500 0
  0.937500   0.687500 0
  0.250000   0.250000 0
  0.250000   0.187500 0
  0.187500   0.687500 0
  0.000000   0.750000 0
  0.250000   0.750000 0
  0.125000   0.625000 0
  0.750000   0.750000 0
  0.062500   0.250000 0
  0.875000   0.937500 0
  0.187500   0.500000 0
  0.187500   0.437500 0
  0.812500   0.562500 0
  0.125000   0.125000 0
  0.125000   0.062500 0
  0.375000   0.625000 0
  0.375000   0.687500 0
  1.000000   0.750000 0
  0.312500   0.250000 0
  0.312500   0.312500 0
  0.812500   0.312500 0
  0.562500   0.312500 0
  0.375000   0.750000 0
  0.500000   0.625000 0
  0.250000   0.625000 0
  0.312500   0.687500 0
  0.750000   0.812500 0
  0.062500   0.312500 0
  0.062500   0.375000 0
  1.000000   0.812500 0
  0.312500   0.375000 0
  0.562500   0.375000 0
  0.687500   0.437500 0
  0.000000   0.000000 0
  0.500000   0.000000 0
  0.937500   0.437500 0
  0.250000   0.000000 0
  0.375000   0.437500 0
  0.812500   0.875000 0
  0.125000   0.375000 0
  0.125000   0.437500 0
  0.625000   0.437500 0
  1.000000   0.500000 0
  0.312500   0.062500 0
  0.750000   0.500000 0
  0.062500   0.000000 0
  0.062500   0.062500 0
  0.562500   0.062500 0
  0.062500   0.750000 0
  0.312500   0.750000 0
  0.312500   0.625000 0
  0.312500   0.562500 0
  0.062500   0.562500 0
  0.187500   1.000000 0
  0.437500   0.562500 0
  0.875000   1.000000 0
  0.187500   0.562500 0
  0.500000   0.937500 0
  0.250000   0.937500 0
  0.312500   1.000000 0
  0.125000   0.750000 0
  0.125000   0.687500 0
  1.000000   0.000000 0
  0.000000   0.937500 0
  0.000000   0.875000 0
  0.875000   0.125000 0
  0.875000   0.187500 0
  0.062500   0.812500 0
  0.312500   0.812500 0
  0.000000   0.812500 0
  0.000000   0.625000 0
  0.000000   0.562500 0
  0.062500   1.000000 0
  0.062500   0.937500 0
  0.937500   0.187500 0
  0.937500   0.250000 0
  0.062500   0.687500 0
  0.062500   0.625000 0
  0.125000   1.000000 0
  1.000000   0.250000 0
  1.000000   0.312500 0
  0.062500   0.875000 0
  0.125000   0.812500 0
  0.375000   0.812500 0
  0.125000   0.875000 0
  0.375000   0.937500 0
  0.375000   0.875000 0
  0.187500   0.750000 0
  0.187500   0.812500 0
  0.437500   0.812500 0
  0.187500   0.875000 0
  0.437500   0.875000 0
  0.375000   0.562500 0
  0.812500   1.000000 0
  0.125000   0.562500 0
  0.437500   1.000000 0
  0.437500   0.937500 0
  0.187500   0.937500 0
  0.125000   0.937500 0
  0.500000   0.687500 0
  0.500000   0.750000 0
  0.500000   0.812500 0
  0.250000   0.812500 0
  0.250000   0.875000 0
  0.500000   0.875000 0
  0.437500   0.750000 0
  0.312500   0.875000 0
  0.312500   0.937500 0
  0.687500   0.250000 0
  0.687500   0.312500 0
  0.937500   0.312500 0
  0.875000   0.250000 0
  0.625000   0.000000 0
  0.875000   0.000000 0
  0.687500   0.375000 0
  0.937500   0.375000 0
  0.875000   0.312500 0
  0.625000   0.312500 0
  0.687500   0.000000 0
  0.937500   0.000000 0
  0.750000   0.312500 0
  0.750000   0.375000 0
  1.000000   0.375000 0
  0.812500   0.250000 0
  0.562500   0.437500 0
  0.562500   0.500000 0
  0.687500   0.062500 0
  0.750000   0.437500 0
  0.750000   0.000000 0
  0.750000   0.062500 0
  1.000000   0.062500 0
  0.812500   0.375000 0
  0.812500   0.437500 0
CELLS 256 1280
4 169 170 148 68
4 151 166 56 167
4 195 45 196 167
4 54 170 201 202
4 109 34 30 147
4 40 32 81 112
4 192 89 86 68
4 48 91 78 202
4 99 64 196 97
4 71 43 37 103
4 74 186 56 95
4 109 164 34 115
4 50 81 158 112
4 122 69 92 70
4 195 145 45 106
4 110 143 174 175
4 157 30 158 147
4 40 69 32 41
4 50 158 148 147
4 141 155 164 115
4 122 123 69 41
4 142 186 143 175
4 60 39 61 42
4 40 51 69 70
4 120 31 123 41
4 157 174 36 175
4 50 148 89 68
4 48 78 155 115
4 52 83 51 70
4 151 56 66 95
4 71 61 43 42
4 169 148 34 147
4 100 193 39 42
4 40 81 51 199
4 110 174 32 112
4 109 30 145 106
4 100 66 193 95
4 169 34 78 115
4 190 92 83 70
4 50 89 81 199
4 54 86 170 68
4 74 56 45 167
4 142 143 43 103
4 153 59 64 97
4 99 196 166 167
4 169 78 170 202
4 142 193 186 95
4 192 128 89 199
4 74 45 36 106
4 110 31 143 103
4 76 184 59 97
4 142 43 193 42
4 52 51 128 199
4 189 201 91 202
4 120 37 31 103
4 74 36 186 175
4 195 196 184 97
4 141 164 140 183
4 157 158 174 112
4 109 145 164 183
4 195 184 145 183
4 110 32 31 41
4 157 36 30 106
4 76 140 184 183
4 171 172 206 181
4 178 172 261 136
4 256 261 255 136
4 256 257 261 245
4 180 150 206 207
4 60 119 39 210
4 118 215 241 263
4 178 205 172 181
4 216 243 238 244
4 162 217 233 232
4 180 206 131 181
4 179 137 119 210
4 216 204 217 232
4 220 237 219 229
4 216 217 243 159
4 259 258 262 224
4 240 254 237 229
4 153 64 227 208
4 161 205 258 224
4 240 237 238 223
4 226 227 233 208
4 234 228 254 229
4 171 248 137 210
4 160 132 204 232
4 180 131 138 159
4 133 251 213 252
4 171 206 248 207
4 162 138 217 159
4 161 258 243 244
4 220 225 237 223
4 151 150 166 212
4 260 247 257 245
4 259 262 214 263
4 151 66 150 207
4 234 254 209 253
4 162 233 250 208
4 242 241 262 263
4 171 137 172 136
4 161 243 131 159
4 160 204 225 223
4 161 131 205 181
4 179 255 137 136
4 216 238 204 223
4 100 39 248 210
4 260 213 247 252
4 226 233 132 232
4 134 214 215 263
4 180 138 150 212
4 178 261 239 245
4 259 246 258 244
4 178 239 205 224
4 240 238 246 244
4 242 262 239 224
4 99 250 64 208
4 240 246 254 253
4 242 239 247 245
4 135 219 228 229
4 99 166 250 212
4 259 214 246 253
4 118 241 251 252
4 100 248 66 207
4 134 209 214 253
4 162 250 138 212
4 242 247 241 252
4 71 187 61 280
4 102 281 197 280
4 122 92 82 203
4 17 18 82 117
4 122 82 123 117
4 19 264 273 265
4 267 279 222 20
4 125 273 270 265
4 267 272 279 176
4 19 116 18 117
4 21 25 286 24
4 23 28 26 20
4 23 285 28 27
4 218 286 275 24
4 85 53 84 288
4 235 236 231 266
4 221 222 28 20
4 267 222 231 230
4 268 38 129 203
4 125 270 197 188
4 126 287 272 176
4 277 270 276 265
4 267 231 272 266
4 125 197 187 280
4 190 129 92 203
4 277 276 287 176
4 19 18 264 22
4 17 82 38 203
4 102 197 90 188
4 126 84 287 288
4 284 130 285 27
4 121 276 264 265
4 71 37 187 177
4 120 123 116 117
4 198 88 127 191
4 221 16 25 24
4 23 26 15 22
4 121 279 276 176
4 235 231 124 230
4 125 187 273 177
4 278 271 236 266
4 277 287 283 288
4 284 285 274 282
4 278 127 271 191
4 269 275 16 24
4 200 283 53 288
4 23 15 285 282
4 121 26 279 20
4 21 124 25 230
4 19 273 116 177
4 200 90 283 188
4 126 271 84 191
4 269 16 130 27
4 17 38 15 282
4 221 25 222 230
4 121 264 26 22
4 120 116 37 177
4 60 61 281 280
4 277 283 270 188
4 126 272 271 266
4 268 274 38 282
4 85 84 88 191
4 17 15 18 22
4 221 28 16 27
4 93 94 73 55
4 85 88 67 87
4 80 49 79 87
4 44 104 73 72
4 146 33 67 168
4 211 165 149 55
4 8 47 14 154
4 105 104 108 144
4 105 108 29 107
4 7 139 13 75
4 44 165 194 98
4 200 53 77 168
4 8 1 101 4
4 2 5 152 58
4 260 6 213 3
4 105 35 104 72
4 96 57 182 75
4 7 14 139 154
4 146 29 33 107
4 7 13 10 9
4 12 13 57 75
4 85 67 53 168
4 44 73 165 55
4 63 152 62 58
4 8 101 47 46
4 96 182 194 144
4 60 281 119 4
4 12 5 6 3
4 173 185 35 72
4 65 149 94 55
4 146 67 49 87
4 114 113 47 154
4 163 108 182 144
4 12 6 13 9
4 173 35 111 156
4 163 182 139 75
4 260 257 6 9
4 105 29 35 156
4 163 139 113 154
4 256 10 257 9
4 146 49 29 156
4 163 113 108 107
4 80 111 49 156
4 102 101 281 4
4 12 57 5 58
4 44 194 104 144
4 96 194 62 98
4 2 0 5 3
4 93 73 185 72
4 179 119 1 4
4 200 77 90 46
4 114 33 113 107
4 7 10 14 11
4 96 62 57 58
4 133 213 0 3
4 102 90 101 46
4 256 255 10 11
4 63 62 249 98
4 114 47 77 46
4 179 1 255 11
4 211 249 165 98
4 114 77 33 168
4 198 79 88 87
4 8 14 1 11
CELL_TYPES 256
8
8
8
8
8
8
8
8
8
8
8
8
8
8
8
8
8
8
8
8
8
8
8
8
8
8
8
8
8
8
8
8
8
8
8
8
8
8
8
8
8
8
8
8
8
8
8
8
8
8
8
8
8
8
8
8
8
8
8
8
8
8
8
8
8
8
8
8
8
8
8
8
8
8
8
8
8
8
8
8
8
8
8
8
8
8
8
8
8
8
8
8
8
8
8
8
8
8
8
8
8
8
8
8
8
8
8
8
8
8
8
8
8
8
8
8
8
8
8
8
8
8
8
8
8
8
8
8
8
8
8
8
8
8
8
8
8
8
8
8
8
8
8
8
8
8
8
8
8
8
8
8
8
8
8
8
8
8
8
8
8
8
8
8
8
8
8
8
8
8
8
8
8
8
8
8
8
8
8
8
8
8
8
8
8
8
8
8
8
8
8
8
8
8
8
8
8
8
8
8
8
8
8
8
8
8
8
8
8
8
8
8
8
8
8
8
8
8
8
8
8
8
8
8
8
8
8
8
8
8
8
8
8
8
8
8
8
8
8
8
8
8
8
8
8
8
8
8
8
8
8
8
8
8
8
8
CELL_DATA 256
VECTORS vector_value float
-0.255144 -0.276565 0
0.143151 -0.72978 0
0.972332 -0.715513 0
-0.0979846 -0.332306 0
-0.10834 -0.184283 0
1.3032 -3.40489 0
-0.0303947 -0.26534 0
-0.137859 -0.449367 0
0.415208 -0.634629 0
-0.0588337 -0.210558 0
0.201305 -2.31757 0
-0.0613671 -0.0959178 0
-0.0383281 -1.40816 0
1.26601 -2.41411 0
0.174058 -0.241155 0
0.607669 -5.0075 0
-0.209054 -0.463062 0
1.62599 -2.78753 0
-0.393725 -0.512781 0
-0.0124634 -0.0631946 0
0.364079 -0.750232 0
0.842443 -3.43835 0
-0.0171863 -0.17306 0
1.63413 -3.24519 0
0.194363 -0.368536 0
0.321526 -2.20849 0
-0.162529 -0.291712 0
-0.102319 -0.199471 0
0.669857 -3.0969 0
0.413737 -1.76293 0
-0.0365612 -0.174432 0
-0.460562 -0.314169 0
-0.242445 -0.514829 0
0.894142 -1.33659 0
0.689562 -5.13826 0
-0.0400109 -0.147984 0
0.0759439 -4.11003 0
-0.267712 -0.165813 0
0.527753 -3.22299 0
0.188348 -1.00921 0
-0.0548704 -0.199384 0
1.2643 -1.46139 0
0.199516 -1.22063 0
0.156577 -0.34492 0
0.420664 -1.32854 0
-0.319033 -0.317425 0
0.0909565 -3.74441 0
0.0201934 -0.450201 0
0.811472 -0.924023 0
0.139874 -1.54927 0
0.0653387 -0.111953 0
0.212361 -0.756061 0
0.214351 -0.666217 0
-0.0565243 -0.65258 0
0.0724298 -0.206436 0
1.6094 -3.54615 0
0.371989 -0.336148 0
-0.00444103 -0.0450439 0
-0.128636 -1.77908 0
-0.0175257 -0.0567817 0
0.0221194 -0.0579644 0
0.713958 -1.57607 0
-0.00881145 -0.486674 0
0.00699477 -0.0489612 0
-0.480882 -2.18251 0
-0.232908 -2.93638 0
0.0270588 -0.408803 0
-0.110655 -0.426192 0
-0.388602 -2.37436 0
-0.0435047 -0.302554 0
-0.692773 -1.12323 0
-0.559822 -2.30129 0
-0.0723893 -0.144274 0
-0.107307 -0.312244 0
-0.488355 -2.30733 0
-0.0151018 -0.474825 0
-0.0820209 -0.259539 0
-0.0101649 -0.478622 0
-0.189777 -0.302168 0
0.191448 -1.74746 0
0.0417708 -0.254733 0
0.0971529 -0.63358 0
-0.442993 -1.90477 0
-0.0331333 -0.144512 0
0.00457575 -0.714225 0
0.843193 -0.676646 0
-0.365911 -1.65805 0
-0.0290759 -0.601232 0
-0.499137 -0.927689 0
-0.895088 -0.878393 0
-0.45999 -2.27898 0
-0.246145 -0.483596 0
-0.212894 -0.500588 0
-0.0127583 -0.550562 0
-0.220719 -1.05463 0
-0.41787 -0.509484 0
1.61222 -2.90767 0
-0.0923401 -2.11713 0
1.55333 -0.56717 0
-0.090284 -0.476772 0
0.377096 -2.32874 0
-0.220309 -2.33392 0
-0.310041 -0.596874 0
-0.00816088 -0.556381 0
-0.590393 -2.30109 0
0.0386653 -0.449599 0
-0.0400716 -0.22026 0
-0.382504 -0.989653 0
-0.582014 -0.568276 0
-0.0385019 -0.688797 0
0.440126 -2.03182 0
-0.373115 -0.92535 0
0.103864 -3.31753 0
-0.0264719 -0.413182 0
-0.40388 -2.62263 0
-0.0491052 -0.173006 0
1.19254 -4.20665 0
0.0870949 -0.640617 0
0.168669 -0.202257 0
0.182508 -1.76683 0
0.245918 -0.66967 0
-0.100447 -0.916309 0
0.70864 -1.08234 0
-0.891321 -1.02427 0
-0.387758 -2.98454 0
1.69732 -1.58218 0
-0.305983 -0.755139 0
-0.649496 -1.27055 0
-0.0800324 -0.136128 0
-0.00436548 -0.112014 0
0.164075 -0.410837 0
0.032904 -0.256634 0
0.0914101 -0.228706 0
0.0383224 -0.459068 0
-0.700987 -1.25697 0
-0.110266 -0.441022 0
-0.204258 -0.430371 0
0.0156829 -0.134048 0
-0.0402904 -0.195224 0
-0.216955 -1.00064 0
-0.124964 -1.22902 0
-0.00752301 -0.164198 0
-0.381955 -1.00496 0
-0.694308 -1.96019 0
-0.696246 -2.1139 0
-0.950216 -2.37991 0
0.0656056 -0.252733 0
-0.307005 -0.22676 0
-0.159896 -0.465185 0
-0.161801 -0.572344 0
-0.8815 -2.05477 0
-0.122076 -0.144777 0
0.231742 -0.765479 0
-0.202832 -0.298128 0
0.0542389 -0.476599 0
0.0477162 -0.206162 0
-0.0337595 -0.076028 0
-0.335694 -0.782608 0
-0.047198 -1.29127 0
0.0418421 -0.710021 0
-0.0734365 -0.142227 0
0.0567656 -0.182885 0
-0.137905 -2.22056 0
-0.311131 -0.943602 0
0.0749436 -0.786621 0
-0.0263097 -0.347627 0
-0.219021 -0.708678 0
-0.0869526 -0.233637 0
0.00526847 -2.33092 0
-0.631051 -0.443453 0
-0.0700683 -0.743406 0
0.0493821 -2.10288 0
-0.0893249 -0.6669 0
-0.489359 -0.522869 0
-0.0552032 -0.842325 0
-0.0431977 -0.562369 0
-0.0763599 -0.332089 0
0.0388115 -0.152457 0
-0.107985 -0.117183 0
-0.00582477 -2.09108 0
-0.121647 -2.72246 0
0.022913 -0.307915 0
-0.445282 -1.48128 0
0.0596973 -0.630139 0
0.0208878 -0.177315 0
0.0342735 -0.0925416 0
-0.685325 -0.454828 0
-0.0560614 -1.82875 0
-0.0513883 -0.507639 0
-0.289612 -2.25512 0
0.0493675 -0.257071 0
-0.384185 -2.52474 0
0.298653 -1.28497 0
-0.35858 -2.12542 0
0.0742218 -2.82551 0
0.353103 -2.12187 0
0.0646916 -0.785622 0
0.345405 -1.33943 0
0.0272328 -0.0517281 0
0.249146 -0.846793 0
0.19637 -0.621882 0
0.085558 -0.219648 0
1.03848 -1.55372 0
0.00487221 -0.17468 0
0.0243469 -0.0386763 0
0.203941 -0.725368 0
-0.441316 -0.382235 0
0.395674 -2.10519 0
0.127953 -0.274993 0
0.0501908 -0.119512 0
0.262198 -0.671808 0
-0.00238641 -0.0835319 0
0.121 -0.299917 0
-0.283599 -1.18707 0
0.886877 -1.76267 0
0.691572 -0.536612 0
0.0190146 -0.0585795 0
0.146224 -0.501062 0
0.0226628 -0.0878288 0
-0.170415 -0.572153 0
0.221102 -2.26566 0
0.0416566 -0.97179 0
0.0360302 -2.23006 0
0.100793 -0.211927 0
0.110171 -0.398109 0
-0.0258567 -0.153634 0
0.153203 -2.70393 0
0.125494 -0.277371 0
-0.24896 -0.241686 0
0.290173 -2.03133 0
0.105041 -0.239469 0
-0.0587959 -0.11107 0
0.063029 -2.37099 0
0.187324 -0.426273 0
-0.0518112 -2.61547 0
0.0341655 -0.0670341 0
0.150792 -0.304151 0
0.28137 -1.10688 0
0.686665 -0.708178 0
-0.14268 -0.854405 0
0.150066 -1.78827 0
0.0359202 -0.122174 0
0.0155468 -0.0496331 0
0.164267 -0.233183 0
0.00969095 -0.0376583 0
0.392526 -0.338741 0
-0.514336 -0.603899 0
0.013338 -0.0723328 0
0.0112777 -0.112564 0
1.03438 -1.01159 0
0.0498275 -0.0881638 0
0.017833 -0.114052 0
0.84827 -1.40353 0
0.139292 -0.193513 0
-0.18549 -2.59699 0
0.0189838 -0.0451542 0
