# vtk DataFile Version 2.0
Unstructured Grid by M++
ASCII
DATASET UNSTRUCTURED_GRID
POINTS 81 float
  1.000000   0.625000 0
  0.750000   0.375000 0
  1.000000   0.000000 0
  0.875000   0.875000 0
  0.750000   0.125000 0
  1.000000   1.000000 0
  0.875000   0.250000 0
  0.625000   0.875000 0
  1.000000   0.750000 0
  0.875000   0.000000 0
  1.000000   0.250000 0
  0.625000   0.375000 0
  0.875000   0.500000 0
  0.625000   0.625000 0
  1.000000   0.500000 0
  0.750000   0.500000 0
  0.750000   1.000000 0
  1.000000   0.125000 0
  0.625000   0.250000 0
  0.750000   0.750000 0
  0.625000   0.000000 0
  0.125000   0.375000 0
  0.000000   0.500000 0
  0.125000   0.625000 0
  0.625000   1.000000 0
  1.000000   0.875000 0
  0.875000   0.125000 0
  0.500000   0.250000 0
  0.625000   0.500000 0
  0.250000   0.625000 0
  0.000000   0.625000 0
  0.375000   0.500000 0
  0.375000   0.000000 0
  0.000000   0.125000 0
  0.125000   0.875000 0
  0.875000   1.000000 0
  0.750000   0.250000 0
  0.375000   0.375000 0
  0.250000   0.375000 0
  0.625000   0.750000 0
  0.125000   0.125000 0
  0.500000   0.000000 0
  0.250000   0.875000 0
  0.125000   0.500000 0
  0.500000   0.375000 0
  0.125000   0.000000 0
  0.250000   0.750000 0
  0.250000   0.500000 0
  0.000000   0.875000 0
  0.875000   0.625000 0
  0.500000   0.750000 0
  0.750000   0.625000 0
  0.250000   0.000000 0
  0.375000   0.750000 0
  0.750000   0.875000 0
  0.625000   0.125000 0
  0.250000   0.250000 0
  0.375000   1.000000 0
  0.375000   0.250000 0
  0.000000   0.375000 0
  0.500000   1.000000 0
  0.875000   0.750000 0
  0.750000   0.000000 0
  0.375000   0.125000 0
  0.500000   0.875000 0
  0.000000   0.000000 0
  0.125000   0.750000 0
  0.500000   0.625000 0
  0.125000   0.250000 0
  0.500000   0.125000 0
  0.250000   1.000000 0
  0.250000   0.125000 0
  0.000000   1.000000 0
  0.375000   0.875000 0
  0.000000   0.750000 0
  0.375000   0.625000 0
  0.000000   0.250000 0
  0.125000   1.000000 0
  1.000000   0.375000 0
  0.500000   0.500000 0
  0.875000   0.375000 0
CELLS 64 320
4 56 71 58 63
4 27 58 69 63
4 41 69 32 63
4 76 33 68 40
4 27 44 58 37
4 79 31 44 37
4 56 38 68 21
4 56 58 38 37
4 52 32 71 63
4 47 38 31 37
4 76 68 59 21
4 22 59 43 21
4 65 45 33 40
4 47 43 38 21
4 52 71 45 40
4 56 68 71 40
4 74 30 66 23
4 46 66 29 23
4 22 43 30 23
4 72 48 77 34
4 46 53 42 73
4 50 64 53 73
4 70 42 57 73
4 74 66 48 34
4 46 42 66 34
4 47 29 43 23
4 70 77 42 34
4 60 57 64 73
4 79 67 31 75
4 47 31 29 75
4 50 53 67 75
4 46 29 53 75
4 10 78 6 80
4 36 6 1 80
4 15 1 12 80
4 36 4 6 26
4 14 12 78 80
4 2 17 9 26
4 36 18 4 55
4 15 28 1 11
4 62 4 20 55
4 10 6 17 26
4 27 18 44 11
4 62 9 4 26
4 27 69 18 55
4 36 1 18 11
4 41 20 69 55
4 79 44 28 11
4 16 24 54 7
4 19 54 39 7
4 50 39 64 7
4 8 25 61 3
4 60 64 24 7
4 79 28 67 13
4 19 51 61 49
4 8 61 0 49
4 15 51 28 13
4 19 39 51 13
4 50 67 39 13
4 19 61 54 3
4 14 0 12 49
4 5 35 25 3
4 15 12 51 49
4 16 54 35 3
CELL_TYPES 64
8
8
8
8
8
8
8
8
8
8
8
8
8
8
8
8
8
8
8
8
8
8
8
8
8
8
8
8
8
8
8
8
8
8
8
8
8
8
8
8
8
8
8
8
8
8
8
8
8
8
8
8
8
8
8
8
8
8
8
8
8
8
8
8
CELL_DATA 64
VECTORS vector_value float
-0.0563801 -0.0797472 0
0.18067 -0.359491 0
0.00826569 -0.0379038 0
-0.339494 -3.61889 0
0.0296079 -0.596773 0
-0.245313 -0.390649 0
-0.650922 -1.39257 0
-0.237503 -0.50383 0
-0.00640516 -0.022129 0
-0.102712 -0.469087 0
-0.26421 -2.56724 0
-0.747824 -1.37781 0
0.044753 -3.45034 0
-0.75165 -2.51913 0
0.0529191 -1.00432 0
-0.215885 -0.76257 0
0.181106 -0.993722 0
0.759284 -2.3219 0
0.018991 -0.661451 0
-0.43546 -1.43168 0
-0.100704 -0.233633 0
-0.104721 -0.238987 0
-1.00458 -0.718695 0
0.324429 -2.41811 0
0.00514563 -1.05486 0
-0.348867 -2.8666 0
-1.29371 -1.42593 0
-0.245388 -0.251571 0
-0.212671 -0.316981 0
-0.419542 -0.71756 0
-0.404818 -0.443924 0
-0.038972 -0.551221 0
-0.00478663 -0.0295878 0
0.0348333 -0.496527 0
-0.048234 -0.392765 0
0.200995 -0.872727 0
-0.0466072 -0.0985413 0
0.0511576 -0.102369 0
0.358238 -2.0806 0
-0.158908 -1.87005 0
0.412503 -1.58979 0
-0.0034067 -0.0175193 0
0.212488 -0.312874 0
0.416151 -1.5106 0
0.222606 -0.20846 0
0.184155 -2.1006 0
0.19455 -0.282543 0
-0.442634 -0.881974 0
0.720183 -0.891513 0
-0.0929236 -0.671927 0
-0.234477 -0.55197 0
0.00926081 -0.92118 0
0.448429 -0.579303 0
-0.218161 -0.251639 0
-0.0682952 -1.63432 0
-0.0173257 -1.01502 0
-1.24162 -1.42973 0
-0.205012 -0.630577 0
-0.306345 -0.409314 0
-0.0152076 -1.90934 0
-0.388502 -0.374538 0
-0.0400795 -1.21058 0
-1.47572 -1.3815 0
0.382511 -1.49073 0
