# vtk DataFile Version 2.0
Unstructured Grid by M++
ASCII
DATASET UNSTRUCTURED_GRID
POINTS 81 float
  1.000000   0.625000 0
  0.750000   0.375000 0
  1.000000   0.000000 0
  0.875000   0.875000 0
  0.750000   0.125000 0
  1.000000   1.000000 0
  0.875000   0.250000 0
  0.625000   0.875000 0
  1.000000   0.750000 0
  0.875000   0.000000 0
  1.000000   0.250000 0
  0.625000   0.375000 0
  0.875000   0.500000 0
  0.625000   0.625000 0
  1.000000   0.500000 0
  0.750000   0.500000 0
  0.750000   1.000000 0
  1.000000   0.125000 0
  0.625000   0.250000 0
  0.750000   0.750000 0
  0.625000   0.000000 0
  0.125000   0.375000 0
  0.000000   0.500000 0
  0.125000   0.625000 0
  0.625000   1.000000 0
  1.000000   0.875000 0
  0.875000   0.125000 0
  0.500000   0.250000 0
  0.625000   0.500000 0
  0.250000   0.625000 0
  0.000000   0.625000 0
  0.375000   0.500000 0
  0.375000   0.000000 0
  0.000000   0.125000 0
  0.125000   0.875000 0
  0.875000   1.000000 0
  0.750000   0.250000 0
  0.375000   0.375000 0
  0.250000   0.375000 0
  0.625000   0.750000 0
  0.125000   0.125000 0
  0.500000   0.000000 0
  0.250000   0.875000 0
  0.125000   0.500000 0
  0.500000   0.375000 0
  0.125000   0.000000 0
  0.250000   0.750000 0
  0.250000   0.500000 0
  0.000000   0.875000 0
  0.875000   0.625000 0
  0.500000   0.750000 0
  0.750000   0.625000 0
  0.250000   0.000000 0
  0.375000   0.750000 0
  0.750000   0.875000 0
  0.625000   0.125000 0
  0.250000   0.250000 0
  0.375000   1.000000 0
  0.375000   0.250000 0
  0.000000   0.375000 0
  0.500000   1.000000 0
  0.875000   0.750000 0
  0.750000   0.000000 0
  0.375000   0.125000 0
  0.500000   0.875000 0
  0.000000   0.000000 0
  0.125000   0.750000 0
  0.500000   0.625000 0
  0.125000   0.250000 0
  0.500000   0.125000 0
  0.250000   1.000000 0
  0.250000   0.125000 0
  0.000000   1.000000 0
  0.375000   0.875000 0
  0.000000   0.750000 0
  0.375000   0.625000 0
  0.000000   0.250000 0
  0.125000   1.000000 0
  1.000000   0.375000 0
  0.500000   0.500000 0
  0.875000   0.375000 0
CELLS 64 320
4 56 71 58 63
4 27 58 69 63
4 41 69 32 63
4 76 33 68 40
4 27 44 58 37
4 79 31 44 37
4 56 38 68 21
4 56 58 38 37
4 52 32 71 63
4 47 38 31 37
4 76 68 59 21
4 22 59 43 21
4 65 45 33 40
4 47 43 38 21
4 52 71 45 40
4 56 68 71 40
4 74 30 66 23
4 46 66 29 23
4 22 43 30 23
4 72 48 77 34
4 46 53 42 73
4 50 64 53 73
4 70 42 57 73
4 74 66 48 34
4 46 42 66 34
4 47 29 43 23
4 70 77 42 34
4 60 57 64 73
4 79 67 31 75
4 47 31 29 75
4 50 53 67 75
4 46 29 53 75
4 10 78 6 80
4 36 6 1 80
4 15 1 12 80
4 36 4 6 26
4 14 12 78 80
4 2 17 9 26
4 36 18 4 55
4 15 28 1 11
4 62 4 20 55
4 10 6 17 26
4 27 18 44 11
4 62 9 4 26
4 27 69 18 55
4 36 1 18 11
4 41 20 69 55
4 79 44 28 11
4 16 24 54 7
4 19 54 39 7
4 50 39 64 7
4 8 25 61 3
4 60 64 24 7
4 79 28 67 13
4 19 51 61 49
4 8 61 0 49
4 15 51 28 13
4 19 39 51 13
4 50 67 39 13
4 19 61 54 3
4 14 0 12 49
4 5 35 25 3
4 15 12 51 49
4 16 54 35 3
CELL_TYPES 64
8
8
8
8
8
8
8
8
8
8
8
8
8
8
8
8
8
8
8
8
8
8
8
8
8
8
8
8
8
8
8
8
8
8
8
8
8
8
8
8
8
8
8
8
8
8
8
8
8
8
8
8
8
8
8
8
8
8
8
8
8
8
8
8
CELL_DATA 64
VECTORS vector_value float
-0.639822 -1.08618 0
-0.941498 -2.54459 0
-0.0825271 -1.64168 0
0.0128525 -0.0824399 0
-0.1698 -2.52134 0
0.109083 -2.02686 0
-0.00192649 -0.0428762 0
0.0393117 -0.629826 0
-0.265003 -2.01314 0
0.145653 -0.839428 0
-0.00268127 -0.0912246 0
0.00506549 -0.0861659 0
0.00412351 -0.0580204 0
0.029402 -0.0643983 0
-0.0383835 -0.27528 0
-0.0485748 -0.109899 0
0.152587 -0.360972 0
0.880218 -0.860913 0
0.0436903 -0.14738 0
-0.0808782 -1.27841 0
0.34336 -1.11873 0
0.0499188 -0.148957 0
-0.481506 -1.27698 0
0.336917 -0.937586 0
0.643404 -1.47216 0
0.103882 -0.113007 0
-0.270079 -0.87783 0
-0.118543 -0.389279 0
0.626406 -1.79808 0
0.527254 -1.11254 0
0.845923 -0.711606 0
1.44671 -1.44134 0
0.0280513 -3.15363 0
0.182332 -0.467226 0
0.411486 -0.911274 0
-0.149886 -0.541557 0
1.35622 -2.65317 0
-0.0281703 -2.75548 0
-0.00894422 -0.205134 0
-0.0138872 -0.520437 0
0.00177822 -0.18604 0
-0.182899 -3.11106 0
-0.343842 -0.756021 0
-0.0618806 -0.910874 0
-0.207216 -0.319141 0
-0.0491049 -0.337857 0
-0.00776965 -0.159481 0
-0.0972366 -0.898266 0
0.915958 -0.738241 0
0.280342 -0.625099 0
0.128057 -0.357401 0
-0.206749 -1.5325 0
0.552789 -0.747916 0
0.0269121 -0.433135 0
-0.631466 -2.42494 0
-0.364812 -0.75026 0
0.0622059 -1.12134 0
0.0713258 -1.01471 0
0.379148 -0.435268 0
0.0899307 -1.80756 0
0.024048 -0.326668 0
0.247356 -1.33304 0
1.10992 -2.94785 0
0.750167 -1.3583 0
