# vtk DataFile Version 2.0
Unstructured Grid by M++
ASCII
DATASET UNSTRUCTURED_GRID
POINTS 81 float
  1.000000   0.625000 0
  0.750000   0.375000 0
  1.000000   0.000000 0
  0.875000   0.875000 0
  0.750000   0.125000 0
  1.000000   1.000000 0
  0.875000   0.250000 0
  0.625000   0.875000 0
  1.000000   0.750000 0
  0.875000   0.000000 0
  1.000000   0.250000 0
  0.625000   0.375000 0
  0.875000   0.500000 0
  0.625000   0.625000 0
  1.000000   0.500000 0
  0.750000   0.500000 0
  0.750000   1.000000 0
  1.000000   0.125000 0
  0.625000   0.250000 0
  0.750000   0.750000 0
  0.625000   0.000000 0
  0.125000   0.375000 0
  0.000000   0.500000 0
  0.125000   0.625000 0
  0.625000   1.000000 0
  1.000000   0.875000 0
  0.875000   0.125000 0
  0.500000   0.250000 0
  0.625000   0.500000 0
  0.250000   0.625000 0
  0.000000   0.625000 0
  0.375000   0.500000 0
  0.375000   0.000000 0
  0.000000   0.125000 0
  0.125000   0.875000 0
  0.875000   1.000000 0
  0.750000   0.250000 0
  0.375000   0.375000 0
  0.250000   0.375000 0
  0.625000   0.750000 0
  0.125000   0.125000 0
  0.500000   0.000000 0
  0.250000   0.875000 0
  0.125000   0.500000 0
  0.500000   0.375000 0
  0.125000   0.000000 0
  0.250000   0.750000 0
  0.250000   0.500000 0
  0.000000   0.875000 0
  0.875000   0.625000 0
  0.500000   0.750000 0
  0.750000   0.625000 0
  0.250000   0.000000 0
  0.375000   0.750000 0
  0.750000   0.875000 0
  0.625000   0.125000 0
  0.250000   0.250000 0
  0.375000   1.000000 0
  0.375000   0.250000 0
  0.000000   0.375000 0
  0.500000   1.000000 0
  0.875000   0.750000 0
  0.750000   0.000000 0
  0.375000   0.125000 0
  0.500000   0.875000 0
  0.000000   0.000000 0
  0.125000   0.750000 0
  0.500000   0.625000 0
  0.125000   0.250000 0
  0.500000   0.125000 0
  0.250000   1.000000 0
  0.250000   0.125000 0
  0.000000   1.000000 0
  0.375000   0.875000 0
  0.000000   0.750000 0
  0.375000   0.625000 0
  0.000000   0.250000 0
  0.125000   1.000000 0
  1.000000   0.375000 0
  0.500000   0.500000 0
  0.875000   0.375000 0
CELLS 64 320
4 56 71 58 63
4 27 58 69 63
4 41 69 32 63
4 76 33 68 40
4 27 44 58 37
4 79 31 44 37
4 56 38 68 21
4 56 58 38 37
4 52 32 71 63
4 47 38 31 37
4 76 68 59 21
4 22 59 43 21
4 65 45 33 40
4 47 43 38 21
4 52 71 45 40
4 56 68 71 40
4 74 30 66 23
4 46 66 29 23
4 22 43 30 23
4 72 48 77 34
4 46 53 42 73
4 50 64 53 73
4 70 42 57 73
4 74 66 48 34
4 46 42 66 34
4 47 29 43 23
4 70 77 42 34
4 60 57 64 73
4 79 67 31 75
4 47 31 29 75
4 50 53 67 75
4 46 29 53 75
4 10 78 6 80
4 36 6 1 80
4 15 1 12 80
4 36 4 6 26
4 14 12 78 80
4 2 17 9 26
4 36 18 4 55
4 15 28 1 11
4 62 4 20 55
4 10 6 17 26
4 27 18 44 11
4 62 9 4 26
4 27 69 18 55
4 36 1 18 11
4 41 20 69 55
4 79 44 28 11
4 16 24 54 7
4 19 54 39 7
4 50 39 64 7
4 8 25 61 3
4 60 64 24 7
4 79 28 67 13
4 19 51 61 49
4 8 61 0 49
4 15 51 28 13
4 19 39 51 13
4 50 67 39 13
4 19 61 54 3
4 14 0 12 49
4 5 35 25 3
4 15 12 51 49
4 16 54 35 3
CELL_TYPES 64
8
8
8
8
8
8
8
8
8
8
8
8
8
8
8
8
8
8
8
8
8
8
8
8
8
8
8
8
8
8
8
8
8
8
8
8
8
8
8
8
8
8
8
8
8
8
8
8
8
8
8
8
8
8
8
8
8
8
8
8
8
8
8
8
CELL_DATA 64
VECTORS vector_value float
0.550103 -1.42963 0
0.336738 -0.476307 0
0.0145406 -0.332244 0
-0.048762 -0.176458 0
0.269935 -0.575149 0
-0.717738 -1.23036 0
0.295285 -2.36029 0
0.0381828 -1.40315 0
0.0632371 -2.08533 0
-0.272782 -1.10426 0
0.356852 -0.555838 0
0.535064 -1.08625 0
-0.0112718 -0.293982 0
0.920028 -1.74996 0
0.0150688 -1.50171 0
0.453197 -2.37931 0
-0.0164037 -2.78914 0
0.018615 -0.298685 0
0.416047 -2.65378 0
-0.537904 -1.45774 0
0.052828 -0.653679 0
-0.0186208 -0.457267 0
-0.874851 -0.9456 0
-0.34249 -2.63729 0
-0.139047 -0.433237 0
0.16208 -0.222118 0
-1.26755 -1.15567 0
-0.418281 -0.490379 0
-0.308424 -0.442918 0
0.00771672 -0.630906 0
0.29713 -0.598673 0
0.107747 -0.291594 0
0.00223094 -0.266862 0
-0.00900263 -0.140995 0
-0.173121 -0.204915 0
0.00651117 -0.0162756 0
-0.0685643 -0.310401 0
-0.027647 -0.265315 0
0.429071 -0.683605 0
-0.278162 -0.729253 0
0.551352 -1.81419 0
0.0149845 -0.343331 0
0.0400293 -2.35777 0
0.0718104 -0.297914 0
0.978724 -2.49508 0
-0.111959 -0.339943 0
0.0898093 -1.40932 0
-0.216686 -1.58459 0
0.59681 -0.391226 0
0.0401238 -0.274389 0
0.00829534 -0.534614 0
-0.201476 -1.80472 0
0.0445291 -0.84339 0
-1.33033 -1.89041 0
-0.485987 -0.51031 0
-0.21467 -1.3207 0
-1.32004 -1.11545 0
-0.844977 -1.26421 0
-0.0173281 -0.926688 0
-0.614763 -1.20481 0
-0.313293 -0.64839 0
0.436484 -1.74245 0
-0.8632 -0.396023 0
0.993992 -0.973542 0
