# vtk DataFile Version 2.0
Unstructured Grid by M++
ASCII
DATASET UNSTRUCTURED_GRID
POINTS 289 float
  0.562500   1.000000 0
  0.562500   0.625000 0
  0.625000   1.000000 0
  0.562500   0.937500 0
  0.562500   0.562500 0
  0.625000   0.937500 0
  0.562500   0.875000 0
  0.625000   0.750000 0
  0.625000   0.625000 0
  0.562500   0.812500 0
  0.562500   0.750000 0
  0.562500   0.687500 0
  0.625000   0.875000 0
  0.625000   0.812500 0
  0.625000   0.687500 0
  0.687500   0.125000 0
  0.875000   0.062500 0
  0.625000   0.125000 0
  0.625000   0.187500 0
  0.625000   0.250000 0
  0.812500   0.187500 0
  1.000000   0.125000 0
  0.687500   0.187500 0
  0.750000   0.125000 0
  0.937500   0.062500 0
  0.937500   0.125000 0
  0.750000   0.187500 0
  0.812500   0.062500 0
  0.812500   0.125000 0
  0.875000   0.687500 0
  0.187500   0.250000 0
  0.437500   0.250000 0
  0.375000   0.187500 0
  0.812500   0.625000 0
  0.125000   0.187500 0
  0.937500   0.750000 0
  0.250000   0.312500 0
  0.500000   0.312500 0
  0.625000   0.062500 0
  0.437500   0.500000 0
  0.375000   0.125000 0
  0.437500   0.187500 0
  0.437500   0.437500 0
  0.437500   0.375000 0
  0.875000   0.875000 0
  0.187500   0.375000 0
  0.687500   0.562500 0
  0.687500   0.625000 0
  0.000000   0.125000 0
  0.937500   0.625000 0
  0.250000   0.125000 0
  0.375000   0.062500 0
  0.375000   0.000000 0
  0.812500   0.500000 0
  0.125000   0.000000 0
  0.937500   0.937500 0
  0.250000   0.437500 0
  0.687500   0.875000 0
  0.687500   0.937500 0
  0.000000   0.437500 0
  0.500000   0.500000 0
  0.500000   0.437500 0
  0.750000   0.937500 0
  0.750000   1.000000 0
  0.062500   0.500000 0
  1.000000   1.000000 0
  0.312500   0.500000 0
  0.875000   0.562500 0
  0.187500   0.062500 0
  0.437500   0.125000 0
  0.437500   0.062500 0
  0.500000   0.375000 0
  0.937500   0.812500 0
  0.937500   0.875000 0
  0.250000   0.375000 0
  0.687500   0.812500 0
  0.000000   0.375000 0
  0.750000   0.562500 0
  0.062500   0.125000 0
  1.000000   0.562500 0
  1.000000   0.625000 0
  0.312500   0.125000 0
  0.562500   0.125000 0
  0.437500   0.000000 0
  0.875000   0.437500 0
  0.875000   0.500000 0
  0.187500   0.000000 0
  0.937500   0.562500 0
  0.937500   0.500000 0
  0.250000   0.062500 0
  0.687500   0.500000 0
  0.000000   0.062500 0
  0.500000   0.062500 0
  1.000000   0.875000 0
  1.000000   0.937500 0
  0.312500   0.437500 0
  0.750000   0.875000 0
  0.062500   0.437500 0
  0.812500   0.937500 0
  0.125000   0.500000 0
  0.375000   0.500000 0
  0.625000   0.562500 0
  0.625000   0.500000 0
  0.437500   0.312500 0
  0.875000   0.812500 0
  0.875000   0.750000 0
  0.187500   0.312500 0
  0.812500   0.687500 0
  0.812500   0.750000 0
  0.125000   0.250000 0
  0.375000   0.250000 0
  1.000000   0.687500 0
  0.312500   0.187500 0
  0.750000   0.687500 0
  0.750000   0.625000 0
  0.062500   0.187500 0
  0.562500   0.250000 0
  0.562500   0.187500 0
  0.375000   1.000000 0
  0.500000   0.562500 0
  0.500000   0.250000 0
  0.750000   0.250000 0
  0.500000   0.125000 0
  0.500000   0.187500 0
  1.000000   0.187500 0
  0.625000   0.375000 0
  0.875000   0.375000 0
  1.000000   0.437500 0
  0.312500   0.000000 0
  0.562500   0.000000 0
  0.812500   0.000000 0
  0.250000   0.687500 0
  0.000000   0.687500 0
  0.500000   1.000000 0
  0.250000   1.000000 0
  0.000000   1.000000 0
  0.437500   0.687500 0
  0.437500   0.625000 0
  0.187500   0.625000 0
  0.687500   0.750000 0
  0.000000   0.312500 0
  0.000000   0.250000 0
  0.375000   0.375000 0
  0.375000   0.312500 0
  0.812500   0.812500 0
  0.125000   0.312500 0
  0.875000   0.625000 0
  0.187500   0.187500 0
  0.187500   0.125000 0
  0.937500   1.000000 0
  0.250000   0.562500 0
  0.250000   0.500000 0
  0.687500   1.000000 0
  0.000000   0.500000 0
  0.687500   0.687500 0
  0.000000   0.187500 0
  0.937500   0.687500 0
  0.250000   0.250000 0
  0.250000   0.187500 0
  0.187500   0.687500 0
  0.000000   0.750000 0
  0.250000   0.750000 0
  0.125000   0.625000 0
  0.750000   0.750000 0
  0.062500   0.250000 0
  0.875000   0.937500 0
  0.187500   0.500000 0
  0.187500   0.437500 0
  0.812500   0.562500 0
  0.125000   0.125000 0
  0.125000   0.062500 0
  0.375000   0.625000 0
  0.375000   0.687500 0
  1.000000   0.750000 0
  0.312500   0.250000 0
  0.312500   0.312500 0
  0.812500   0.312500 0
  0.562500   0.312500 0
  0.375000   0.750000 0
  0.500000   0.625000 0
  0.250000   0.625000 0
  0.312500   0.687500 0
  0.750000   0.812500 0
  0.062500   0.312500 0
  0.062500   0.375000 0
  1.000000   0.812500 0
  0.312500   0.375000 0
  0.562500   0.375000 0
  0.687500   0.437500 0
  0.000000   0.000000 0
  0.500000   0.000000 0
  0.937500   0.437500 0
  0.250000   0.000000 0
  0.375000   0.437500 0
  0.812500   0.875000 0
  0.125000   0.375000 0
  0.125000   0.437500 0
  0.625000   0.437500 0
  1.000000   0.500000 0
  0.312500   0.062500 0
  0.750000   0.500000 0
  0.062500   0.000000 0
  0.062500   0.062500 0
  0.562500   0.062500 0
  0.062500   0.750000 0
  0.312500   0.750000 0
  0.312500   0.625000 0
  0.312500   0.562500 0
  0.062500   0.562500 0
  0.187500   1.000000 0
  0.437500   0.562500 0
  0.875000   1.000000 0
  0.187500   0.562500 0
  0.500000   0.937500 0
  0.250000   0.937500 0
  0.312500   1.000000 0
  0.125000   0.750000 0
  0.125000   0.687500 0
  1.000000   0.000000 0
  0.000000   0.937500 0
  0.000000   0.875000 0
  0.875000   0.125000 0
  0.875000   0.187500 0
  0.062500   0.812500 0
  0.312500   0.812500 0
  0.000000   0.812500 0
  0.000000   0.625000 0
  0.000000   0.562500 0
  0.062500   1.000000 0
  0.062500   0.937500 0
  0.937500   0.187500 0
  0.937500   0.250000 0
  0.062500   0.687500 0
  0.062500   0.625000 0
  0.125000   1.000000 0
  1.000000   0.250000 0
  1.000000   0.312500 0
  0.062500   0.875000 0
  0.125000   0.812500 0
  0.375000   0.812500 0
  0.125000   0.875000 0
  0.375000   0.937500 0
  0.375000   0.875000 0
  0.187500   0.750000 0
  0.187500   0.812500 0
  0.437500   0.812500 0
  0.187500   0.875000 0
  0.437500   0.875000 0
  0.375000   0.562500 0
  0.812500   1.000000 0
  0.125000   0.562500 0
  0.437500   1.000000 0
  0.437500   0.937500 0
  0.187500   0.937500 0
  0.125000   0.937500 0
  0.500000   0.687500 0
  0.500000   0.750000 0
  0.500000   0.812500 0
  0.250000   0.812500 0
  0.250000   0.875000 0
  0.500000   0.875000 0
  0.437500   0.750000 0
  0.312500   0.875000 0
  0.312500   0.937500 0
  0.687500   0.250000 0
  0.687500   0.312500 0
  0.937500   0.312500 0
  0.875000   0.250000 0
  0.625000   0.000000 0
  0.875000   0.000000 0
  0.687500   0.375000 0
  0.937500   0.375000 0
  0.875000   0.312500 0
  0.625000   0.312500 0
  0.687500   0.000000 0
  0.937500   0.000000 0
  0.750000   0.312500 0
  0.750000   0.375000 0
  1.000000   0.375000 0
  0.812500   0.250000 0
  0.562500   0.437500 0
  0.562500   0.500000 0
  0.687500   0.062500 0
  0.750000   0.437500 0
  0.750000   0.000000 0
  0.750000   0.062500 0
  1.000000   0.062500 0
  0.812500   0.375000 0
  0.812500   0.437500 0
CELLS 256 1280
4 169 170 148 68
4 151 166 56 167
4 195 45 196 167
4 54 170 201 202
4 109 34 30 147
4 40 32 81 112
4 192 89 86 68
4 48 91 78 202
4 99 64 196 97
4 71 43 37 103
4 74 186 56 95
4 109 164 34 115
4 50 81 158 112
4 122 69 92 70
4 195 145 45 106
4 110 143 174 175
4 157 30 158 147
4 40 69 32 41
4 50 158 148 147
4 141 155 164 115
4 122 123 69 41
4 142 186 143 175
4 60 39 61 42
4 40 51 69 70
4 120 31 123 41
4 157 174 36 175
4 50 148 89 68
4 48 78 155 115
4 52 83 51 70
4 151 56 66 95
4 71 61 43 42
4 169 148 34 147
4 100 193 39 42
4 40 81 51 199
4 110 174 32 112
4 109 30 145 106
4 100 66 193 95
4 169 34 78 115
4 190 92 83 70
4 50 89 81 199
4 54 86 170 68
4 74 56 45 167
4 142 143 43 103
4 153 59 64 97
4 99 196 166 167
4 169 78 170 202
4 142 193 186 95
4 192 128 89 199
4 74 45 36 106
4 110 31 143 103
4 76 184 59 97
4 142 43 193 42
4 52 51 128 199
4 189 201 91 202
4 120 37 31 103
4 74 36 186 175
4 195 196 184 97
4 141 164 140 183
4 157 158 174 112
4 109 145 164 183
4 195 184 145 183
4 110 32 31 41
4 157 36 30 106
4 76 140 184 183
4 171 172 206 181
4 178 172 261 136
4 256 261 255 136
4 256 257 261 245
4 180 150 206 207
4 60 119 39 210
4 118 215 241 263
4 178 205 172 181
4 216 243 238 244
4 162 217 233 232
4 180 206 131 181
4 179 137 119 210
4 216 204 217 232
4 220 237 219 229
4 216 217 243 159
4 259 258 262 224
4 240 254 237 229
4 153 64 227 208
4 161 205 258 224
4 240 237 238 223
4 226 227 233 208
4 234 228 254 229
4 171 248 137 210
4 160 132 204 232
4 180 131 138 159
4 133 251 213 252
4 171 206 248 207
4 162 138 217 159
4 161 258 243 244
4 220 225 237 223
4 151 150 166 212
4 260 247 257 245
4 259 262 214 263
4 151 66 150 207
4 234 254 209 253
4 162 233 250 208
4 242 241 262 263
4 171 137 172 136
4 161 243 131 159
4 160 204 225 223
4 161 131 205 181
4 179 255 137 136
4 216 238 204 223
4 100 39 248 210
4 260 213 247 252
4 226 233 132 232
4 134 214 215 263
4 180 138 150 212
4 178 261 239 245
4 259 246 258 244
4 178 239 205 224
4 240 238 246 244
4 242 262 239 224
4 99 250 64 208
4 240 246 254 253
4 242 239 247 245
4 135 219 228 229
4 99 166 250 212
4 259 214 246 253
4 118 241 251 252
4 100 248 66 207
4 134 209 214 253
4 162 250 138 212
4 242 247 241 252
4 71 187 61 280
4 102 281 197 280
4 122 92 82 203
4 17 18 82 117
4 122 82 123 117
4 19 264 273 265
4 267 279 222 20
4 125 273 270 265
4 267 272 279 176
4 19 116 18 117
4 21 25 286 24
4 23 28 26 20
4 23 285 28 27
4 218 286 275 24
4 85 53 84 288
4 235 236 231 266
4 221 222 28 20
4 267 222 231 230
4 268 38 129 203
4 125 270 197 188
4 126 287 272 176
4 277 270 276 265
4 267 231 272 266
4 125 197 187 280
4 190 129 92 203
4 277 276 287 176
4 19 18 264 22
4 17 82 38 203
4 102 197 90 188
4 126 84 287 288
4 284 130 285 27
4 121 276 264 265
4 71 37 187 177
4 120 123 116 117
4 198 88 127 191
4 221 16 25 24
4 23 26 15 22
4 121 279 276 176
4 235 231 124 230
4 125 187 273 177
4 278 271 236 266
4 277 287 283 288
4 284 285 274 282
4 278 127 271 191
4 269 275 16 24
4 200 283 53 288
4 23 15 285 282
4 121 26 279 20
4 21 124 25 230
4 19 273 116 177
4 200 90 283 188
4 126 271 84 191
4 269 16 130 27
4 17 38 15 282
4 221 25 222 230
4 121 264 26 22
4 120 116 37 177
4 60 61 281 280
4 277 283 270 188
4 126 272 271 266
4 268 274 38 282
4 85 84 88 191
4 17 15 18 22
4 221 28 16 27
4 93 94 73 55
4 85 88 67 87
4 80 49 79 87
4 44 104 73 72
4 146 33 67 168
4 211 165 149 55
4 8 47 14 154
4 105 104 108 144
4 105 108 29 107
4 7 139 13 75
4 44 165 194 98
4 200 53 77 168
4 8 1 101 4
4 2 5 152 58
4 260 6 213 3
4 105 35 104 72
4 96 57 182 75
4 7 14 139 154
4 146 29 33 107
4 7 13 10 9
4 12 13 57 75
4 85 67 53 168
4 44 73 165 55
4 63 152 62 58
4 8 101 47 46
4 96 182 194 144
4 60 281 119 4
4 12 5 6 3
4 173 185 35 72
4 65 149 94 55
4 146 67 49 87
4 114 113 47 154
4 163 108 182 144
4 12 6 13 9
4 173 35 111 156
4 163 182 139 75
4 260 257 6 9
4 105 29 35 156
4 163 139 113 154
4 256 10 257 9
4 146 49 29 156
4 163 113 108 107
4 80 111 49 156
4 102 101 281 4
4 12 57 5 58
4 44 194 104 144
4 96 194 62 98
4 2 0 5 3
4 93 73 185 72
4 179 119 1 4
4 200 77 90 46
4 114 33 113 107
4 7 10 14 11
4 96 62 57 58
4 133 213 0 3
4 102 90 101 46
4 256 255 10 11
4 63 62 249 98
4 114 47 77 46
4 179 1 255 11
4 211 249 165 98
4 114 77 33 168
4 198 79 88 87
4 8 14 1 11
CELL_TYPES 256
8
8
8
8
8
8
8
8
8
8
8
8
8
8
8
8
8
8
8
8
8
8
8
8
8
8
8
8
8
8
8
8
8
8
8
8
8
8
8
8
8
8
8
8
8
8
8
8
8
8
8
8
8
8
8
8
8
8
8
8
8
8
8
8
8
8
8
8
8
8
8
8
8
8
8
8
8
8
8
8
8
8
8
8
8
8
8
8
8
8
8
8
8
8
8
8
8
8
8
8
8
8
8
8
8
8
8
8
8
8
8
8
8
8
8
8
8
8
8
8
8
8
8
8
8
8
8
8
8
8
8
8
8
8
8
8
8
8
8
8
8
8
8
8
8
8
8
8
8
8
8
8
8
8
8
8
8
8
8
8
8
8
8
8
8
8
8
8
8
8
8
8
8
8
8
8
8
8
8
8
8
8
8
8
8
8
8
8
8
8
8
8
8
8
8
8
8
8
8
8
8
8
8
8
8
8
8
8
8
8
8
8
8
8
8
8
8
8
8
8
8
8
8
8
8
8
8
8
8
8
8
8
8
8
8
8
8
8
8
8
8
8
8
8
8
8
8
8
8
8
8
8
8
8
8
8
CELL_DATA 256
VECTORS vector_value float
0.0262607 -0.136726 0
0.195218 -0.540158 0
0.456436 -0.822088 0
0.0149516 -0.259222 0
0.000419266 -0.135149 0
0.0540783 -0.0712395 0
0.0118448 -0.1018 0
0.0278705 -0.372085 0
0.18806 -0.475574 0
0.204432 -0.6262 0
0.505791 -0.288436 0
-0.0163429 -0.223078 0
0.0204781 -0.0534797 0
0.0496795 -0.1115 0
0.413529 -0.619302 0
0.429566 -0.211539 0
0.0330329 -0.124494 0
0.0990742 -0.0898666 0
0.00643433 -0.0931815 0
-0.0125652 -0.414933 0
0.386053 -0.424934 0
0.860984 -0.347865 0
-0.0835367 -0.0926033 0
0.0191112 -0.0609212 0
0.595827 -0.802511 0
0.429371 -0.241767 0
0.0116574 -0.0894808 0
0.0130212 -0.410196 0
0.00280048 -0.0371263 0
0.140346 -0.355427 0
-0.0541762 -0.217573 0
0.00534508 -0.12359 0
-0.011058 -0.0899601 0
0.004913 -0.0399979 0
0.222312 -0.145858 0
0.0179401 -0.250093 0
0.0456299 -0.0673768 0
0.0165935 -0.232064 0
0.00957521 -0.10375 0
0.00588412 -0.0440878 0
0.0161322 -0.153943 0
0.469765 -0.606825 0
0.746525 -0.571989 0
0.109376 -0.780585 0
0.256864 -0.793876 0
0.0465718 -0.253258 0
0.464946 -0.249829 0
0.0061906 -0.0524771 0
0.748474 -0.510821 0
0.691537 -0.473433 0
0.177722 -0.390007 0
0.177593 -0.248296 0
-0.000376052 -0.0480752 0
0.00584931 -0.323795 0
0.966374 -1.15202 0
0.772261 -0.235634 0
0.444928 -0.521981 0
-0.0613219 -0.327719 0
0.0910385 -0.113965 0
-0.0830207 -0.253766 0
0.0852093 -0.351149 0
0.359178 -0.25342 0
0.20243 -0.275317 0
0.0131945 -0.239202 0
-0.0160705 -0.0338897 0
0.0287981 -0.0682748 0
0.296074 -0.404498 0
1.94021 -1.71328 0
0.0145243 -0.128311 0
-0.0430377 -0.0523763 0
0.273608 -0.883118 0
-0.0160198 -0.0659142 0
0.00672352 -0.258746 0
0.322571 -0.843671 0
-0.0269344 -0.122263 0
-0.0039012 -0.0363342 0
0.0635068 -0.44152 0
-0.0583113 -1.21455 0
0.037823 -0.322634 0
0.693349 -0.539373 0
-0.195771 -0.968667 0
0.0630187 -0.943529 0
0.0209035 -0.18828 0
-0.221916 -0.637458 0
0.14398 -1.11765 0
-0.130016 -0.762592 0
-0.00475132 -0.0135337 0
0.110116 -1.89856 0
0.0402412 -0.236799 0
0.211256 -1.4143 0
-0.00465374 -0.0322986 0
0.119488 -0.343561 0
-0.0046709 -0.10309 0
-0.202105 -1.6234 0
0.119218 -0.444859 0
1.75418 -2.41205 0
0.809642 -0.757854 0
0.0730191 -0.242118 0
-0.00689974 -1.16467 0
0.372998 -0.939368 0
0.650864 -0.962158 0
-0.00418651 -0.0209544 0
-0.0164649 -0.175984 0
-0.0656455 -1.78762 0
-0.0150114 -0.0947239 0
0.0616103 -0.100455 0
-0.0752803 -0.621374 0
-0.0123659 -0.0230033 0
0.182666 -1.54971 0
0.183349 -1.42962 0
0.0951816 -0.80597 0
0.125795 -0.408696 0
0.702353 -0.527259 0
0.135625 -0.197061 0
0.162614 -0.171697 0
-0.0705883 -0.43645 0
1.44489 -0.791301 0
0.216043 -0.66428 0
0.0478372 -0.548793 0
1.88254 -1.02983 0
-0.108471 -1.20494 0
0.254569 -0.682761 0
0.676087 -0.907166 0
0.401562 -0.873395 0
0.007373 -0.0490209 0
-0.0405735 -0.939261 0
0.260821 -0.394173 0
0.463886 -1.09849 0
-0.411301 -0.57494 0
-0.598216 -0.940029 0
0.713807 -1.11994 0
1.30738 -4.98368 0
1.38302 -2.7324 0
-0.294213 -1.68873 0
0.115065 -0.568602 0
-1.22462 -3.24068 0
0.567394 -1.13735 0
0.575389 -3.79 0
-0.0115773 -2.1426 0
-0.182404 -0.197339 0
-0.0775815 -0.150416 0
-0.0633793 -1.92316 0
0.256141 -1.329 0
0.0599331 -0.615445 0
-0.0623924 -0.28819 0
0.756224 -1.63257 0
0.702583 -4.51878 0
-1.93176 -4.68535 0
0.227056 -0.793729 0
-0.023937 -1.41059 0
0.250982 -1.23462 0
-1.12454 -1.4664 0
0.0841798 -0.418227 0
0.395729 -1.08928 0
-0.135567 -1.82792 0
1.83313 -6.09749 0
-1.09134 -4.30746 0
0.412597 -0.968134 0
-0.0532767 -0.121714 0
-0.114926 -1.0094 0
-0.563323 -1.33087 0
1.06126 -3.80449 0
0.0276902 -0.103193 0
-0.00630724 -0.492366 0
-0.244984 -0.57947 0
0.0904777 -0.649331 0
0.325888 -0.852899 0
-1.96248 -3.07371 0
0.110364 -0.500975 0
0.246299 -1.08184 0
0.421886 -1.59268 0
0.0935009 -0.234519 0
-0.100852 -0.690667 0
-0.197023 -1.55021 0
-0.0376914 -0.674573 0
-0.21697 -0.302483 0
0.362059 -1.79746 0
-0.68613 -3.35163 0
-0.969683 -3.93666 0
0.393219 -0.823253 0
-0.0282971 -0.0785357 0
0.81411 -4.1054 0
0.250106 -0.801844 0
-0.500365 -1.00763 0
-0.121391 -3.12783 0
-0.201245 -0.204017 0
-0.599662 -2.82054 0
0.226305 -1.05801 0
1.26229 -5.57605 0
0.186123 -0.433865 0
0.0860837 -3.12107 0
-0.0208822 -0.109164 0
0.256176 -2.22112 0
-0.187266 -0.527866 0
-0.135042 -0.301397 0
-0.255684 -0.785097 0
-0.832489 -1.73692 0
0.732232 -0.889773 0
0.996668 -3.86914 0
-0.276661 -0.307044 0
-0.199691 -0.438308 0
1.41569 -2.59603 0
0.293637 -0.36627 0
-0.793245 -2.21354 0
0.515915 -1.09711 0
-0.39903 -1.05718 0
0.0960902 -1.42964 0
-0.368448 -0.822842 0
0.0212496 -0.903272 0
1.45336 -2.89408 0
-0.17152 -0.815295 0
2.16633 -1.61342 0
0.236694 -1.29859 0
-0.37547 -1.34875 0
0.453487 -0.765353 0
-0.384227 -0.948944 0
0.868578 -3.96835 0
-0.0740429 -0.243512 0
-0.0718664 -0.130059 0
0.0233071 -0.925741 0
-0.219227 -1.91971 0
0.397047 -1.61145 0
-0.44894 -0.733268 0
0.507224 -2.53382 0
-0.132684 -0.646364 0
0.610323 -1.23379 0
-0.362256 -1.39924 0
0.230732 -0.881467 0
0.896891 -1.27183 0
-0.275834 -0.98515 0
0.976956 -2.14596 0
2.84476 -1.84177 0
-0.853661 -1.5778 0
0.0939257 -1.00137 0
-0.229867 -0.503825 0
-0.0615193 -0.700304 0
-0.0581552 -1.26178 0
-0.191948 -0.337781 0
0.0406061 -0.41569 0
-0.338779 -0.984946 0
-0.141539 -2.25921 0
0.044511 -0.158395 0
-0.557064 -4.25373 0
0.247613 -1.44512 0
2.13851 -2.3337 0
-0.0501655 -0.607018 0
-0.192904 -1.15411 0
-0.0936273 -3.62848 0
1.25225 -1.33008 0
0.00449088 -0.786077 0
0.505392 -3.03621 0
0.41 -0.577832 0
0.43584 -0.51928 0
-0.147574 -1.898 0
-0.0187533 -0.0953294 0
0.758097 -1.54595 0
