# vtk DataFile Version 2.0
Unstructured Grid by M++
ASCII
DATASET UNSTRUCTURED_GRID
POINTS 81 float
  1.000000   0.625000 0
  0.750000   0.375000 0
  1.000000   0.000000 0
  0.875000   0.875000 0
  0.750000   0.125000 0
  1.000000   1.000000 0
  0.875000   0.250000 0
  0.625000   0.875000 0
  1.000000   0.750000 0
  0.875000   0.000000 0
  1.000000   0.250000 0
  0.625000   0.375000 0
  0.875000   0.500000 0
  0.625000   0.625000 0
  1.000000   0.500000 0
  0.750000   0.500000 0
  0.750000   1.000000 0
  1.000000   0.125000 0
  0.625000   0.250000 0
  0.750000   0.750000 0
  0.625000   0.000000 0
  0.125000   0.375000 0
  0.000000   0.500000 0
  0.125000   0.625000 0
  0.625000   1.000000 0
  1.000000   0.875000 0
  0.875000   0.125000 0
  0.500000   0.250000 0
  0.625000   0.500000 0
  0.250000   0.625000 0
  0.000000   0.625000 0
  0.375000   0.500000 0
  0.375000   0.000000 0
  0.000000   0.125000 0
  0.125000   0.875000 0
  0.875000   1.000000 0
  0.750000   0.250000 0
  0.375000   0.375000 0
  0.250000   0.375000 0
  0.625000   0.750000 0
  0.125000   0.125000 0
  0.500000   0.000000 0
  0.250000   0.875000 0
  0.125000   0.500000 0
  0.500000   0.375000 0
  0.125000   0.000000 0
  0.250000   0.750000 0
  0.250000   0.500000 0
  0.000000   0.875000 0
  0.875000   0.625000 0
  0.500000   0.750000 0
  0.750000   0.625000 0
  0.250000   0.000000 0
  0.375000   0.750000 0
  0.750000   0.875000 0
  0.625000   0.125000 0
  0.250000   0.250000 0
  0.375000   1.000000 0
  0.375000   0.250000 0
  0.000000   0.375000 0
  0.500000   1.000000 0
  0.875000   0.750000 0
  0.750000   0.000000 0
  0.375000   0.125000 0
  0.500000   0.875000 0
  0.000000   0.000000 0
  0.125000   0.750000 0
  0.500000   0.625000 0
  0.125000   0.250000 0
  0.500000   0.125000 0
  0.250000   1.000000 0
  0.250000   0.125000 0
  0.000000   1.000000 0
  0.375000   0.875000 0
  0.000000   0.750000 0
  0.375000   0.625000 0
  0.000000   0.250000 0
  0.125000   1.000000 0
  1.000000   0.375000 0
  0.500000   0.500000 0
  0.875000   0.375000 0
CELLS 64 320
4 56 71 58 63
4 27 58 69 63
4 41 69 32 63
4 76 33 68 40
4 27 44 58 37
4 79 31 44 37
4 56 38 68 21
4 56 58 38 37
4 52 32 71 63
4 47 38 31 37
4 76 68 59 21
4 22 59 43 21
4 65 45 33 40
4 47 43 38 21
4 52 71 45 40
4 56 68 71 40
4 74 30 66 23
4 46 66 29 23
4 22 43 30 23
4 72 48 77 34
4 46 53 42 73
4 50 64 53 73
4 70 42 57 73
4 74 66 48 34
4 46 42 66 34
4 47 29 43 23
4 70 77 42 34
4 60 57 64 73
4 79 67 31 75
4 47 31 29 75
4 50 53 67 75
4 46 29 53 75
4 10 78 6 80
4 36 6 1 80
4 15 1 12 80
4 36 4 6 26
4 14 12 78 80
4 2 17 9 26
4 36 18 4 55
4 15 28 1 11
4 62 4 20 55
4 10 6 17 26
4 27 18 44 11
4 62 9 4 26
4 27 69 18 55
4 36 1 18 11
4 41 20 69 55
4 79 44 28 11
4 16 24 54 7
4 19 54 39 7
4 50 39 64 7
4 8 25 61 3
4 60 64 24 7
4 79 28 67 13
4 19 51 61 49
4 8 61 0 49
4 15 51 28 13
4 19 39 51 13
4 50 67 39 13
4 19 61 54 3
4 14 0 12 49
4 5 35 25 3
4 15 12 51 49
4 16 54 35 3
CELL_TYPES 64
8
8
8
8
8
8
8
8
8
8
8
8
8
8
8
8
8
8
8
8
8
8
8
8
8
8
8
8
8
8
8
8
8
8
8
8
8
8
8
8
8
8
8
8
8
8
8
8
8
8
8
8
8
8
8
8
8
8
8
8
8
8
8
8
CELL_DATA 64
VECTORS vector_value float
-0.354359 -4.16745 0
-0.118598 -0.716736 0
0.0270052 -0.260882 0
0.515184 -0.970712 0
-0.924842 -1.19644 0
-2.23893 -2.29386 0
-0.452635 -0.396968 0
-1.74357 -3.68824 0
-0.191701 -3.74234 0
-0.24116 -0.894927 0
-0.495534 -0.854728 0
-0.0225618 -0.120044 0
0.0114946 -0.0728739 0
-0.290715 -0.996783 0
0.133065 -2.02369 0
0.00470065 -0.516426 0
0.169937 -0.298373 0
0.604496 -0.787125 0
-0.0101777 -0.0680101 0
0.311241 -0.477782 0
0.120627 -0.338407 0
0.323848 -0.251203 0
0.646739 -1.05814 0
-0.0141045 -0.439251 0
0.0467154 -1.2009 0
-0.145662 -0.500269 0
0.537493 -1.08586 0
1.16272 -0.811984 0
-0.762692 -1.22928 0
-0.347926 -1.01959 0
0.0666368 -0.312733 0
0.611668 -0.670054 0
0.164679 -0.787231 0
0.0100083 -0.0519414 0
0.412892 -0.544013 0
0.0820671 -0.294178 0
0.212088 -0.203883 0
-0.155663 -0.216392 0
0.0459334 -0.208183 0
-0.220708 -0.764346 0
0.196924 -0.483464 0
-0.177972 -0.744065 0
-0.107419 -0.654556 0
-0.308738 -0.857296 0
0.031821 -0.382248 0
0.0964161 -0.369897 0
0.287394 -0.343062 0
-1.53832 -2.18214 0
-0.371825 -1.52057 0
-0.573339 -1.06186 0
0.170583 -3.52837 0
-0.171997 -0.276122 0
0.371844 -1.52263 0
-0.783059 -2.92578 0
-0.202706 -0.674213 0
-0.0754008 -0.110723 0
-0.237207 -1.60548 0
-0.0879534 -1.3309 0
-0.156257 -3.81588 0
-0.419478 -0.903887 0
0.0238516 -0.035561 0
-0.237333 -0.694855 0
0.0237267 -0.616029 0
-0.504188 -0.828174 0
