# vtk DataFile Version 2.0
Unstructured Grid by M++
ASCII
DATASET UNSTRUCTURED_GRID
POINTS 289 float
  0.562500   1.000000 0
  0.562500   0.625000 0
  0.625000   1.000000 0
  0.562500   0.937500 0
  0.562500   0.562500 0
  0.625000   0.937500 0
  0.562500   0.875000 0
  0.625000   0.750000 0
  0.625000   0.625000 0
  0.562500   0.812500 0
  0.562500   0.750000 0
  0.562500   0.687500 0
  0.625000   0.875000 0
  0.625000   0.812500 0
  0.625000   0.687500 0
  0.687500   0.125000 0
  0.875000   0.062500 0
  0.625000   0.125000 0
  0.625000   0.187500 0
  0.625000   0.250000 0
  0.812500   0.187500 0
  1.000000   0.125000 0
  0.687500   0.187500 0
  0.750000   0.125000 0
  0.937500   0.062500 0
  0.937500   0.125000 0
  0.750000   0.187500 0
  0.812500   0.062500 0
  0.812500   0.125000 0
  0.875000   0.687500 0
  0.187500   0.250000 0
  0.437500   0.250000 0
  0.375000   0.187500 0
  0.812500   0.625000 0
  0.125000   0.187500 0
  0.937500   0.750000 0
  0.250000   0.312500 0
  0.500000   0.312500 0
  0.625000   0.062500 0
  0.437500   0.500000 0
  0.375000   0.125000 0
  0.437500   0.187500 0
  0.437500   0.437500 0
  0.437500   0.375000 0
  0.875000   0.875000 0
  0.187500   0.375000 0
  0.687500   0.562500 0
  0.687500   0.625000 0
  0.000000   0.125000 0
  0.937500   0.625000 0
  0.250000   0.125000 0
  0.375000   0.062500 0
  0.375000   0.000000 0
  0.812500   0.500000 0
  0.125000   0.000000 0
  0.937500   0.937500 0
  0.250000   0.437500 0
  0.687500   0.875000 0
  0.687500   0.937500 0
  0.000000   0.437500 0
  0.500000   0.500000 0
  0.500000   0.437500 0
  0.750000   0.937500 0
  0.750000   1.000000 0
  0.062500   0.500000 0
  1.000000   1.000000 0
  0.312500   0.500000 0
  0.875000   0.562500 0
  0.187500   0.062500 0
  0.437500   0.125000 0
  0.437500   0.062500 0
  0.500000   0.375000 0
  0.937500   0.812500 0
  0.937500   0.875000 0
  0.250000   0.375000 0
  0.687500   0.812500 0
  0.000000   0.375000 0
  0.750000   0.562500 0
  0.062500   0.125000 0
  1.000000   0.562500 0
  1.000000   0.625000 0
  0.312500   0.125000 0
  0.562500   0.125000 0
  0.437500   0.000000 0
  0.875000   0.437500 0
  0.875000   0.500000 0
  0.187500   0.000000 0
  0.937500   0.562500 0
  0.937500   0.500000 0
  0.250000   0.062500 0
  0.687500   0.500000 0
  0.000000   0.062500 0
  0.500000   0.062500 0
  1.000000   0.875000 0
  1.000000   0.937500 0
  0.312500   0.437500 0
  0.750000   0.875000 0
  0.062500   0.437500 0
  0.812500   0.937500 0
  0.125000   0.500000 0
  0.375000   0.500000 0
  0.625000   0.562500 0
  0.625000   0.500000 0
  0.437500   0.312500 0
  0.875000   0.812500 0
  0.875000   0.750000 0
  0.187500   0.312500 0
  0.812500   0.687500 0
  0.812500   0.750000 0
  0.125000   0.250000 0
  0.375000   0.250000 0
  1.000000   0.687500 0
  0.312500   0.187500 0
  0.750000   0.687500 0
  0.750000   0.625000 0
  0.062500   0.187500 0
  0.562500   0.250000 0
  0.562500   0.187500 0
  0.375000   1.000000 0
  0.500000   0.562500 0
  0.500000   0.250000 0
  0.750000   0.250000 0
  0.500000   0.125000 0
  0.500000   0.187500 0
  1.000000   0.187500 0
  0.625000   0.375000 0
  0.875000   0.375000 0
  1.000000   0.437500 0
  0.312500   0.000000 0
  0.562500   0.000000 0
  0.812500   0.000000 0
  0.250000   0.687500 0
  0.000000   0.687500 0
  0.500000   1.000000 0
  0.250000   1.000000 0
  0.000000   1.000000 0
  0.437500   0.687500 0
  0.437500   0.625000 0
  0.187500   0.625000 0
  0.687500   0.750000 0
  0.000000   0.312500 0
  0.000000   0.250000 0
  0.375000   0.375000 0
  0.375000   0.312500 0
  0.812500   0.812500 0
  0.125000   0.312500 0
  0.875000   0.625000 0
  0.187500   0.187500 0
  0.187500   0.125000 0
  0.937500   1.000000 0
  0.250000   0.562500 0
  0.250000   0.500000 0
  0.687500   1.000000 0
  0.000000   0.500000 0
  0.687500   0.687500 0
  0.000000   0.187500 0
  0.937500   0.687500 0
  0.250000   0.250000 0
  0.250000   0.187500 0
  0.187500   0.687500 0
  0.000000   0.750000 0
  0.250000   0.750000 0
  0.125000   0.625000 0
  0.750000   0.750000 0
  0.062500   0.250000 0
  0.875000   0.937500 0
  0.187500   0.500000 0
  0.187500   0.437500 0
  0.812500   0.562500 0
  0.125000   0.125000 0
  0.125000   0.062500 0
  0.375000   0.625000 0
  0.375000   0.687500 0
  1.000000   0.750000 0
  0.312500   0.250000 0
  0.312500   0.312500 0
  0.812500   0.312500 0
  0.562500   0.312500 0
  0.375000   0.750000 0
  0.500000   0.625000 0
  0.250000   0.625000 0
  0.312500   0.687500 0
  0.750000   0.812500 0
  0.062500   0.312500 0
  0.062500   0.375000 0
  1.000000   0.812500 0
  0.312500   0.375000 0
  0.562500   0.375000 0
  0.687500   0.437500 0
  0.000000   0.000000 0
  0.500000   0.000000 0
  0.937500   0.437500 0
  0.250000   0.000000 0
  0.375000   0.437500 0
  0.812500   0.875000 0
  0.125000   0.375000 0
  0.125000   0.437500 0
  0.625000   0.437500 0
  1.000000   0.500000 0
  0.312500   0.062500 0
  0.750000   0.500000 0
  0.062500   0.000000 0
  0.062500   0.062500 0
  0.562500   0.062500 0
  0.062500   0.750000 0
  0.312500   0.750000 0
  0.312500   0.625000 0
  0.312500   0.562500 0
  0.062500   0.562500 0
  0.187500   1.000000 0
  0.437500   0.562500 0
  0.875000   1.000000 0
  0.187500   0.562500 0
  0.500000   0.937500 0
  0.250000   0.937500 0
  0.312500   1.000000 0
  0.125000   0.750000 0
  0.125000   0.687500 0
  1.000000   0.000000 0
  0.000000   0.937500 0
  0.000000   0.875000 0
  0.875000   0.125000 0
  0.875000   0.187500 0
  0.062500   0.812500 0
  0.312500   0.812500 0
  0.000000   0.812500 0
  0.000000   0.625000 0
  0.000000   0.562500 0
  0.062500   1.000000 0
  0.062500   0.937500 0
  0.937500   0.187500 0
  0.937500   0.250000 0
  0.062500   0.687500 0
  0.062500   0.625000 0
  0.125000   1.000000 0
  1.000000   0.250000 0
  1.000000   0.312500 0
  0.062500   0.875000 0
  0.125000   0.812500 0
  0.375000   0.812500 0
  0.125000   0.875000 0
  0.375000   0.937500 0
  0.375000   0.875000 0
  0.187500   0.750000 0
  0.187500   0.812500 0
  0.437500   0.812500 0
  0.187500   0.875000 0
  0.437500   0.875000 0
  0.375000   0.562500 0
  0.812500   1.000000 0
  0.125000   0.562500 0
  0.437500   1.000000 0
  0.437500   0.937500 0
  0.187500   0.937500 0
  0.125000   0.937500 0
  0.500000   0.687500 0
  0.500000   0.750000 0
  0.500000   0.812500 0
  0.250000   0.812500 0
  0.250000   0.875000 0
  0.500000   0.875000 0
  0.437500   0.750000 0
  0.312500   0.875000 0
  0.312500   0.937500 0
  0.687500   0.250000 0
  0.687500   0.312500 0
  0.937500   0.312500 0
  0.875000   0.250000 0
  0.625000   0.000000 0
  0.875000   0.000000 0
  0.687500   0.375000 0
  0.937500   0.375000 0
  0.875000   0.312500 0
  0.625000   0.312500 0
  0.687500   0.000000 0
  0.937500   0.000000 0
  0.750000   0.312500 0
  0.750000   0.375000 0
  1.000000   0.375000 0
  0.812500   0.250000 0
  0.562500   0.437500 0
  0.562500   0.500000 0
  0.687500   0.062500 0
  0.750000   0.437500 0
  0.750000   0.000000 0
  0.750000   0.062500 0
  1.000000   0.062500 0
  0.812500   0.375000 0
  0.812500   0.437500 0
CELLS 256 1280
4 169 170 148 68
4 151 166 56 167
4 195 45 196 167
4 54 170 201 202
4 109 34 30 147
4 40 32 81 112
4 192 89 86 68
4 48 91 78 202
4 99 64 196 97
4 71 43 37 103
4 74 186 56 95
4 109 164 34 115
4 50 81 158 112
4 122 69 92 70
4 195 145 45 106
4 110 143 174 175
4 157 30 158 147
4 40 69 32 41
4 50 158 148 147
4 141 155 164 115
4 122 123 69 41
4 142 186 143 175
4 60 39 61 42
4 40 51 69 70
4 120 31 123 41
4 157 174 36 175
4 50 148 89 68
4 48 78 155 115
4 52 83 51 70
4 151 56 66 95
4 71 61 43 42
4 169 148 34 147
4 100 193 39 42
4 40 81 51 199
4 110 174 32 112
4 109 30 145 106
4 100 66 193 95
4 169 34 78 115
4 190 92 83 70
4 50 89 81 199
4 54 86 170 68
4 74 56 45 167
4 142 143 43 103
4 153 59 64 97
4 99 196 166 167
4 169 78 170 202
4 142 193 186 95
4 192 128 89 199
4 74 45 36 106
4 110 31 143 103
4 76 184 59 97
4 142 43 193 42
4 52 51 128 199
4 189 201 91 202
4 120 37 31 103
4 74 36 186 175
4 195 196 184 97
4 141 164 140 183
4 157 158 174 112
4 109 145 164 183
4 195 184 145 183
4 110 32 31 41
4 157 36 30 106
4 76 140 184 183
4 171 172 206 181
4 178 172 261 136
4 256 261 255 136
4 256 257 261 245
4 180 150 206 207
4 60 119 39 210
4 118 215 241 263
4 178 205 172 181
4 216 243 238 244
4 162 217 233 232
4 180 206 131 181
4 179 137 119 210
4 216 204 217 232
4 220 237 219 229
4 216 217 243 159
4 259 258 262 224
4 240 254 237 229
4 153 64 227 208
4 161 205 258 224
4 240 237 238 223
4 226 227 233 208
4 234 228 254 229
4 171 248 137 210
4 160 132 204 232
4 180 131 138 159
4 133 251 213 252
4 171 206 248 207
4 162 138 217 159
4 161 258 243 244
4 220 225 237 223
4 151 150 166 212
4 260 247 257 245
4 259 262 214 263
4 151 66 150 207
4 234 254 209 253
4 162 233 250 208
4 242 241 262 263
4 171 137 172 136
4 161 243 131 159
4 160 204 225 223
4 161 131 205 181
4 179 255 137 136
4 216 238 204 223
4 100 39 248 210
4 260 213 247 252
4 226 233 132 232
4 134 214 215 263
4 180 138 150 212
4 178 261 239 245
4 259 246 258 244
4 178 239 205 224
4 240 238 246 244
4 242 262 239 224
4 99 250 64 208
4 240 246 254 253
4 242 239 247 245
4 135 219 228 229
4 99 166 250 212
4 259 214 246 253
4 118 241 251 252
4 100 248 66 207
4 134 209 214 253
4 162 250 138 212
4 242 247 241 252
4 71 187 61 280
4 102 281 197 280
4 122 92 82 203
4 17 18 82 117
4 122 82 123 117
4 19 264 273 265
4 267 279 222 20
4 125 273 270 265
4 267 272 279 176
4 19 116 18 117
4 21 25 286 24
4 23 28 26 20
4 23 285 28 27
4 218 286 275 24
4 85 53 84 288
4 235 236 231 266
4 221 222 28 20
4 267 222 231 230
4 268 38 129 203
4 125 270 197 188
4 126 287 272 176
4 277 270 276 265
4 267 231 272 266
4 125 197 187 280
4 190 129 92 203
4 277 276 287 176
4 19 18 264 22
4 17 82 38 203
4 102 197 90 188
4 126 84 287 288
4 284 130 285 27
4 121 276 264 265
4 71 37 187 177
4 120 123 116 117
4 198 88 127 191
4 221 16 25 24
4 23 26 15 22
4 121 279 276 176
4 235 231 124 230
4 125 187 273 177
4 278 271 236 266
4 277 287 283 288
4 284 285 274 282
4 278 127 271 191
4 269 275 16 24
4 200 283 53 288
4 23 15 285 282
4 121 26 279 20
4 21 124 25 230
4 19 273 116 177
4 200 90 283 188
4 126 271 84 191
4 269 16 130 27
4 17 38 15 282
4 221 25 222 230
4 121 264 26 22
4 120 116 37 177
4 60 61 281 280
4 277 283 270 188
4 126 272 271 266
4 268 274 38 282
4 85 84 88 191
4 17 15 18 22
4 221 28 16 27
4 93 94 73 55
4 85 88 67 87
4 80 49 79 87
4 44 104 73 72
4 146 33 67 168
4 211 165 149 55
4 8 47 14 154
4 105 104 108 144
4 105 108 29 107
4 7 139 13 75
4 44 165 194 98
4 200 53 77 168
4 8 1 101 4
4 2 5 152 58
4 260 6 213 3
4 105 35 104 72
4 96 57 182 75
4 7 14 139 154
4 146 29 33 107
4 7 13 10 9
4 12 13 57 75
4 85 67 53 168
4 44 73 165 55
4 63 152 62 58
4 8 101 47 46
4 96 182 194 144
4 60 281 119 4
4 12 5 6 3
4 173 185 35 72
4 65 149 94 55
4 146 67 49 87
4 114 113 47 154
4 163 108 182 144
4 12 6 13 9
4 173 35 111 156
4 163 182 139 75
4 260 257 6 9
4 105 29 35 156
4 163 139 113 154
4 256 10 257 9
4 146 49 29 156
4 163 113 108 107
4 80 111 49 156
4 102 101 281 4
4 12 57 5 58
4 44 194 104 144
4 96 194 62 98
4 2 0 5 3
4 93 73 185 72
4 179 119 1 4
4 200 77 90 46
4 114 33 113 107
4 7 10 14 11
4 96 62 57 58
4 133 213 0 3
4 102 90 101 46
4 256 255 10 11
4 63 62 249 98
4 114 47 77 46
4 179 1 255 11
4 211 249 165 98
4 114 77 33 168
4 198 79 88 87
4 8 14 1 11
CELL_TYPES 256
8
8
8
8
8
8
8
8
8
8
8
8
8
8
8
8
8
8
8
8
8
8
8
8
8
8
8
8
8
8
8
8
8
8
8
8
8
8
8
8
8
8
8
8
8
8
8
8
8
8
8
8
8
8
8
8
8
8
8
8
8
8
8
8
8
8
8
8
8
8
8
8
8
8
8
8
8
8
8
8
8
8
8
8
8
8
8
8
8
8
8
8
8
8
8
8
8
8
8
8
8
8
8
8
8
8
8
8
8
8
8
8
8
8
8
8
8
8
8
8
8
8
8
8
8
8
8
8
8
8
8
8
8
8
8
8
8
8
8
8
8
8
8
8
8
8
8
8
8
8
8
8
8
8
8
8
8
8
8
8
8
8
8
8
8
8
8
8
8
8
8
8
8
8
8
8
8
8
8
8
8
8
8
8
8
8
8
8
8
8
8
8
8
8
8
8
8
8
8
8
8
8
8
8
8
8
8
8
8
8
8
8
8
8
8
8
8
8
8
8
8
8
8
8
8
8
8
8
8
8
8
8
8
8
8
8
8
8
8
8
8
8
8
8
8
8
8
8
8
8
8
8
8
8
8
8
CELL_DATA 256
VECTORS vector_value float
-0.127148 -0.356926 0
0.375736 -0.543738 0
-0.0507418 -0.206212 0
-0.0385403 -0.620474 0
0.0186263 -0.12171 0
-0.0331409 -0.56376 0
-0.0355343 -0.183563 0
0.0291084 -0.576397 0
-0.342597 -0.614155 0
1.69481 -2.51421 0
0.568426 -0.750096 0
0.0261934 -0.435112 0
-0.168323 -0.373144 0
-0.307629 -1.08175 0
-0.0136013 -0.120456 0
-0.100687 -0.658721 0
-0.0291807 -0.20671 0
0.0134881 -0.838223 0
-0.104738 -0.393365 0
0.00985135 -0.595346 0
-0.0743338 -0.469567 0
0.293311 -0.856318 0
0.794889 -1.42109 0
0.0128054 -0.822435 0
0.104927 -0.566562 0
-0.0472074 -0.217422 0
-0.114122 -0.271907 0
-0.00723801 -0.614317 0
0.0653224 -0.807992 0
0.780583 -1.04814 0
2.18859 -3.02824 0
0.0235343 -0.1236 0
2.31067 -3.13615 0
-0.00822091 -0.524493 0
-0.187985 -0.86066 0
0.0021042 -0.0929555 0
2.16856 -2.05096 0
0.0072619 -0.38131 0
-0.190174 -1.66478 0
-0.0270972 -0.337752 0
-0.0970782 -0.312966 0
0.0958359 -0.200164 0
0.643168 -1.60805 0
-0.139633 -0.204766 0
0.00875058 -0.464166 0
0.0341428 -0.384109 0
0.680781 -0.829013 0
0.0061162 -0.302525 0
-0.00281851 -0.10241 0
0.0467066 -1.21056 0
-0.0789406 -0.49095 0
1.67104 -2.78011 0
0.0401088 -0.487123 0
0.0396811 -0.488158 0
0.834065 -1.36475 0
0.0136451 -0.244773 0
-0.0800268 -0.449948 0
-0.0104433 -0.626246 0
-0.123122 -0.311881 0
-0.00808008 -0.428436 0
-0.0588171 -0.469111 0
-0.0283089 -0.69128 0
-0.020522 -0.158935 0
-0.0281153 -0.569552 0
0.680819 -1.74542 0
0.10451 -0.447469 0
0.0888391 -0.313947 0
0.0399667 -0.24954 0
0.976049 -1.95353 0
0.183342 -0.7744 0
-0.577052 -1.75178 0
0.0230443 -1.77132 0
0.125197 -0.955917 0
-0.0312161 -0.221938 0
0.46959 -2.4574 0
0.10346 -0.536172 0
0.0297283 -0.222078 0
0.231206 -0.512216 0
-0.0369002 -1.05806 0
-0.435108 -2.93332 0
0.548625 -0.628972 0
-0.0265306 -0.0698837 0
-0.584391 -3.42729 0
0.327982 -0.415967 0
-0.0159343 -0.0308223 0
0.359365 -0.562185 0
0.503438 -1.1565 0
0.00433272 -0.0138039 0
-0.0955957 -2.91822 0
-1.3065 -0.983996 0
0.930129 -2.00025 0
-0.114165 -1.25303 0
-0.203807 -1.95536 0
0.110625 -0.197383 0
0.696784 -1.20395 0
-0.179054 -0.394942 0
-0.0329851 -2.25133 0
1.46573 -1.90649 0
0.762287 -0.900318 0
-0.0481962 -0.279195 0
-0.756915 -2.44493 0
0.335105 -0.674396 0
-0.413 -2.52404 0
0.0336337 -0.0554064 0
-0.435289 -3.32504 0
0.0666789 -0.318627 0
0.115207 -0.264435 0
0.678879 -1.89747 0
-0.608766 -0.640415 0
-0.00334268 -0.0125841 0
0.317977 -1.3563 0
0.50485 -2.40592 0
-0.136867 -0.830928 0
0.0454076 -1.44649 0
-0.442831 -1.99105 0
0.353528 -0.80266 0
-0.641183 -2.69938 0
-0.145851 -0.325228 0
0.490691 -0.577816 0
-0.31916 -0.844368 0
0.114274 -1.00387 0
-0.07981 -1.18693 0
0.558397 -1.32647 0
-1.26204 -1.1374 0
1.2867 -2.24785 0
0.723006 -1.0966 0
-0.0465696 -1.26549 0
-0.926679 -1.1292 0
0.626488 -1.49713 0
-0.203351 -0.464324 0
-0.312437 -1.27166 0
-0.135382 -5.00067 0
-8.14664e-06 -1.87049 0
0.274962 -1.18442 0
-0.0389772 -1.29225 0
-0.0351961 -0.604235 0
-0.184276 -1.40306 0
0.872571 -3.66337 0
-0.0379428 -0.178235 0
0.0169695 -0.776051 0
-0.0063848 -0.67543 0
0.00323075 -0.173834 0
-0.163277 -1.30592 0
-0.020256 -0.585201 0
-0.0699566 -1.25591 0
-0.0177914 -0.726347 0
-0.592878 -2.9216 0
-0.233406 -0.561552 0
-0.252834 -1.76947 0
-0.121259 -0.38946 0
-0.0531526 -0.71113 0
-0.134475 -0.804393 0
-1.24577 -2.59787 0
-0.219423 -0.637968 0
-0.151996 -2.47421 0
-0.324705 -4.95607 0
-0.491604 -0.559352 0
-0.238715 -1.73327 0
-0.345551 -1.40146 0
-0.458693 -0.787364 0
2.03993 -3.27941 0
0.756177 -2.43928 0
-0.133357 -0.678025 0
-0.313782 -0.651911 0
0.084329 -0.470775 0
-0.426719 -0.691027 0
-0.020833 -0.570496 0
0.560956 -1.40953 0
0.00134614 -0.665576 0
-0.178866 -0.637755 0
0.182932 -0.847005 0
0.0334773 -0.540448 0
-0.0500238 -0.360731 0
-0.172766 -0.921232 0
0.0588933 -0.541916 0
-0.044682 -0.663852 0
-0.146099 -0.434298 0
1.22207 -2.60767 0
-0.407591 -0.502474 0
-0.111635 -1.14382 0
-0.289892 -1.39554 0
0.157108 -1.57661 0
-0.205753 -0.819453 0
-0.0744436 -0.380928 0
1.51177 -3.27211 0
0.0704197 -0.672 0
-0.193115 -0.346892 0
-0.0803243 -0.759467 0
0.206306 -1.43437 0
-0.311408 -1.4135 0
-0.113759 -1.61507 0
-0.378134 -1.79241 0
0.298721 -1.38639 0
-0.250071 -1.1431 0
-0.17665 -1.41605 0
0.376823 -1.47423 0
-0.163868 -1.31968 0
0.19999 -1.13336 0
-0.145868 -0.311937 0
-0.1355 -1.20761 0
-0.407872 -1.70687 0
-0.0900226 -0.155492 0
0.684737 -1.50627 0
-0.226191 -0.982181 0
-0.115918 -0.42811 0
0.491955 -0.580094 0
-0.298677 -0.258687 0
-0.210781 -1.16383 0
-0.0401441 -0.265771 0
-0.153038 -0.237396 0
-0.302589 -1.28875 0
-0.03368 -0.135103 0
-0.0393284 -0.124059 0
-0.164072 -1.44513 0
0.686218 -1.3642 0
1.12182 -0.776223 0
-0.103734 -0.292109 0
-0.0157764 -1.09963 0
-0.0371887 -0.394574 0
-0.0788336 -0.101156 0
0.00671821 -2.15948 0
0.0144259 -0.940999 0
-0.24863 -0.970385 0
-0.178117 -0.442911 0
-0.120832 -0.960409 0
-0.053611 -0.106185 0
-0.1356 -2.03471 0
-0.170722 -0.359976 0
-0.0508167 -0.0982397 0
-0.254386 -0.73848 0
-0.232201 -0.468101 0
0.0200341 -0.128168 0
-0.309431 -1.00191 0
-0.253379 -0.751982 0
-0.166382 -1.67122 0
-0.121144 -0.413108 0
0.0253631 -0.204878 0
0.130424 -1.16553 0
0.485187 -1.33847 0
-0.269861 -0.385366 0
0.237501 -1.93186 0
-0.0499585 -0.245218 0
-0.319406 -0.710708 0
-0.357211 -1.10272 0
-0.0336785 -0.229616 0
0.180103 -0.328601 0
-0.944555 -0.674443 0
-0.167598 -0.289829 0
0.051389 -0.157093 0
1.09862 -1.26677 0
-0.146826 -0.589185 0
-0.010942 -0.218107 0
0.658823 -1.45029 0
-0.159745 -1.11137 0
-0.170845 -1.00918 0
-0.0831454 -0.360845 0
