# vtk DataFile Version 2.0
Unstructured Grid by M++
ASCII
DATASET UNSTRUCTURED_GRID
POINTS 81 float
  1.000000   0.625000 0
  0.750000   0.375000 0
  1.000000   0.000000 0
  0.875000   0.875000 0
  0.750000   0.125000 0
  1.000000   1.000000 0
  0.875000   0.250000 0
  0.625000   0.875000 0
  1.000000   0.750000 0
  0.875000   0.000000 0
  1.000000   0.250000 0
  0.625000   0.375000 0
  0.875000   0.500000 0
  0.625000   0.625000 0
  1.000000   0.500000 0
  0.750000   0.500000 0
  0.750000   1.000000 0
  1.000000   0.125000 0
  0.625000   0.250000 0
  0.750000   0.750000 0
  0.625000   0.000000 0
  0.125000   0.375000 0
  0.000000   0.500000 0
  0.125000   0.625000 0
  0.625000   1.000000 0
  1.000000   0.875000 0
  0.875000   0.125000 0
  0.500000   0.250000 0
  0.625000   0.500000 0
  0.250000   0.625000 0
  0.000000   0.625000 0
  0.375000   0.500000 0
  0.375000   0.000000 0
  0.000000   0.125000 0
  0.125000   0.875000 0
  0.875000   1.000000 0
  0.750000   0.250000 0
  0.375000   0.375000 0
  0.250000   0.375000 0
  0.625000   0.750000 0
  0.125000   0.125000 0
  0.500000   0.000000 0
  0.250000   0.875000 0
  0.125000   0.500000 0
  0.500000   0.375000 0
  0.125000   0.000000 0
  0.250000   0.750000 0
  0.250000   0.500000 0
  0.000000   0.875000 0
  0.875000   0.625000 0
  0.500000   0.750000 0
  0.750000   0.625000 0
  0.250000   0.000000 0
  0.375000   0.750000 0
  0.750000   0.875000 0
  0.625000   0.125000 0
  0.250000   0.250000 0
  0.375000   1.000000 0
  0.375000   0.250000 0
  0.000000   0.375000 0
  0.500000   1.000000 0
  0.875000   0.750000 0
  0.750000   0.000000 0
  0.375000   0.125000 0
  0.500000   0.875000 0
  0.000000   0.000000 0
  0.125000   0.750000 0
  0.500000   0.625000 0
  0.125000   0.250000 0
  0.500000   0.125000 0
  0.250000   1.000000 0
  0.250000   0.125000 0
  0.000000   1.000000 0
  0.375000   0.875000 0
  0.000000   0.750000 0
  0.375000   0.625000 0
  0.000000   0.250000 0
  0.125000   1.000000 0
  1.000000   0.375000 0
  0.500000   0.500000 0
  0.875000   0.375000 0
CELLS 64 320
4 56 71 58 63
4 27 58 69 63
4 41 69 32 63
4 76 33 68 40
4 27 44 58 37
4 79 31 44 37
4 56 38 68 21
4 56 58 38 37
4 52 32 71 63
4 47 38 31 37
4 76 68 59 21
4 22 59 43 21
4 65 45 33 40
4 47 43 38 21
4 52 71 45 40
4 56 68 71 40
4 74 30 66 23
4 46 66 29 23
4 22 43 30 23
4 72 48 77 34
4 46 53 42 73
4 50 64 53 73
4 70 42 57 73
4 74 66 48 34
4 46 42 66 34
4 47 29 43 23
4 70 77 42 34
4 60 57 64 73
4 79 67 31 75
4 47 31 29 75
4 50 53 67 75
4 46 29 53 75
4 10 78 6 80
4 36 6 1 80
4 15 1 12 80
4 36 4 6 26
4 14 12 78 80
4 2 17 9 26
4 36 18 4 55
4 15 28 1 11
4 62 4 20 55
4 10 6 17 26
4 27 18 44 11
4 62 9 4 26
4 27 69 18 55
4 36 1 18 11
4 41 20 69 55
4 79 44 28 11
4 16 24 54 7
4 19 54 39 7
4 50 39 64 7
4 8 25 61 3
4 60 64 24 7
4 79 28 67 13
4 19 51 61 49
4 8 61 0 49
4 15 51 28 13
4 19 39 51 13
4 50 67 39 13
4 19 61 54 3
4 14 0 12 49
4 5 35 25 3
4 15 12 51 49
4 16 54 35 3
CELL_TYPES 64
8
8
8
8
8
8
8
8
8
8
8
8
8
8
8
8
8
8
8
8
8
8
8
8
8
8
8
8
8
8
8
8
8
8
8
8
8
8
8
8
8
8
8
8
8
8
8
8
8
8
8
8
8
8
8
8
8
8
8
8
8
8
8
8
CELL_DATA 64
VECTORS vector_value float
-0.148527 -0.206604 0
-0.00265984 -0.0581927 0
0.000963132 -0.0570781 0
-0.249065 -0.453457 0
0.0756002 -0.361685 0
1.4511 -1.6513 0
-0.17918 -0.478003 0
-0.222018 -0.338908 0
-0.0259123 -0.0685514 0
-0.062159 -0.543362 0
-0.0187607 -0.0782425 0
-0.00420456 -0.0439839 0
-0.0440406 -0.660693 0
-0.0116947 -0.294433 0
-0.0880796 -0.360668 0
-0.360856 -0.429915 0
-0.0196406 -0.0832685 0
0.0190319 -0.195923 0
0.0183705 -0.0531992 0
0.47963 -0.698626 0
0.432471 -0.537345 0
0.284929 -1.83658 0
1.43237 -0.490195 0
2.44606e-05 -0.0393675 0
0.118544 -0.409362 0
-0.0176778 -0.489129 0
1.1642 -0.765321 0
1.28846 -1.2832 0
0.979593 -5.79571 0
-0.0106019 -0.114951 0
-1.69627 -4.24528 0
0.0444189 -0.492811 0
0.280682 -0.583267 0
0.559675 -0.815561 0
0.162499 -0.594026 0
2.13906 -3.68531 0
0.016511 -0.123541 0
0.0258344 -1.23796 0
1.34775 -1.33316 0
0.183096 -0.328535 0
0.260948 -0.942332 0
0.247764 -0.989245 0
2.31641 -3.60059 0
0.0601094 -4.14986 0
0.0969232 -0.844113 0
3.24158 -1.74374 0
0.127203 -0.52286 0
2.76697 -4.42082 0
-0.186732 -1.56258 0
-1.04979 -1.40396 0
-0.926089 -2.42903 0
-0.049481 -0.20978 0
0.618882 -1.49009 0
-0.0113127 -0.51392 0
-0.125567 -0.576981 0
-0.0581553 -0.216826 0
-0.0203672 -0.314845 0
-0.374011 -0.547813 0
-1.87621 -1.6411 0
-0.442566 -1.13457 0
0.00142165 -0.0990228 0
-0.341291 -0.593196 0
-0.0198823 -0.61922 0
-0.510424 -1.11679 0
