# vtk DataFile Version 2.0
Unstructured Grid by M++
ASCII
DATASET UNSTRUCTURED_GRID
POINTS 81 float
  1.000000   0.625000 0
  0.750000   0.375000 0
  1.000000   0.000000 0
  0.875000   0.875000 0
  0.750000   0.125000 0
  1.000000   1.000000 0
  0.875000   0.250000 0
  0.625000   0.875000 0
  1.000000   0.750000 0
  0.875000   0.000000 0
  1.000000   0.250000 0
  0.625000   0.375000 0
  0.875000   0.500000 0
  0.625000   0.625000 0
  1.000000   0.500000 0
  0.750000   0.500000 0
  0.750000   1.000000 0
  1.000000   0.125000 0
  0.625000   0.250000 0
  0.750000   0.750000 0
  0.625000   0.000000 0
  0.125000   0.375000 0
  0.000000   0.500000 0
  0.125000   0.625000 0
  0.625000   1.000000 0
  1.000000   0.875000 0
  0.875000   0.125000 0
  0.500000   0.250000 0
  0.625000   0.500000 0
  0.250000   0.625000 0
  0.000000   0.625000 0
  0.375000   0.500000 0
  0.375000   0.000000 0
  0.000000   0.125000 0
  0.125000   0.875000 0
  0.875000   1.000000 0
  0.750000   0.250000 0
  0.375000   0.375000 0
  0.250000   0.375000 0
  0.625000   0.750000 0
  0.125000   0.125000 0
  0.500000   0.000000 0
  0.250000   0.875000 0
  0.125000   0.500000 0
  0.500000   0.375000 0
  0.125000   0.000000 0
  0.250000   0.750000 0
  0.250000   0.500000 0
  0.000000   0.875000 0
  0.875000   0.625000 0
  0.500000   0.750000 0
  0.750000   0.625000 0
  0.250000   0.000000 0
  0.375000   0.750000 0
  0.750000   0.875000 0
  0.625000   0.125000 0
  0.250000   0.250000 0
  0.375000   1.000000 0
  0.375000   0.250000 0
  0.000000   0.375000 0
  0.500000   1.000000 0
  0.875000   0.750000 0
  0.750000   0.000000 0
  0.375000   0.125000 0
  0.500000   0.875000 0
  0.000000   0.000000 0
  0.125000   0.750000 0
  0.500000   0.625000 0
  0.125000   0.250000 0
  0.500000   0.125000 0
  0.250000   1.000000 0
  0.250000   0.125000 0
  0.000000   1.000000 0
  0.375000   0.875000 0
  0.000000   0.750000 0
  0.375000   0.625000 0
  0.000000   0.250000 0
  0.125000   1.000000 0
  1.000000   0.375000 0
  0.500000   0.500000 0
  0.875000   0.375000 0
CELLS 64 320
4 56 71 58 63
4 27 58 69 63
4 41 69 32 63
4 76 33 68 40
4 27 44 58 37
4 79 31 44 37
4 56 38 68 21
4 56 58 38 37
4 52 32 71 63
4 47 38 31 37
4 76 68 59 21
4 22 59 43 21
4 65 45 33 40
4 47 43 38 21
4 52 71 45 40
4 56 68 71 40
4 74 30 66 23
4 46 66 29 23
4 22 43 30 23
4 72 48 77 34
4 46 53 42 73
4 50 64 53 73
4 70 42 57 73
4 74 66 48 34
4 46 42 66 34
4 47 29 43 23
4 70 77 42 34
4 60 57 64 73
4 79 67 31 75
4 47 31 29 75
4 50 53 67 75
4 46 29 53 75
4 10 78 6 80
4 36 6 1 80
4 15 1 12 80
4 36 4 6 26
4 14 12 78 80
4 2 17 9 26
4 36 18 4 55
4 15 28 1 11
4 62 4 20 55
4 10 6 17 26
4 27 18 44 11
4 62 9 4 26
4 27 69 18 55
4 36 1 18 11
4 41 20 69 55
4 79 44 28 11
4 16 24 54 7
4 19 54 39 7
4 50 39 64 7
4 8 25 61 3
4 60 64 24 7
4 79 28 67 13
4 19 51 61 49
4 8 61 0 49
4 15 51 28 13
4 19 39 51 13
4 50 67 39 13
4 19 61 54 3
4 14 0 12 49
4 5 35 25 3
4 15 12 51 49
4 16 54 35 3
CELL_TYPES 64
8
8
8
8
8
8
8
8
8
8
8
8
8
8
8
8
8
8
8
8
8
8
8
8
8
8
8
8
8
8
8
8
8
8
8
8
8
8
8
8
8
8
8
8
8
8
8
8
8
8
8
8
8
8
8
8
8
8
8
8
8
8
8
8
CELL_DATA 64
VECTORS vector_value float
0.0390198 -0.0510128 0
-0.0199035 -0.183123 0
-0.340196 -0.856433 0
0.103445 -1.81279 0
0.0267616 -0.178523 0
0.111874 -0.232533 0
0.021398 -0.0863355 0
0.00226434 -0.0122015 0
0.0408151 -0.0806942 0
-0.039452 -0.121896 0
0.0210977 -1.89494 0
-0.526539 -1.7005 0
0.164464 -1.3763 0
-0.370786 -0.219181 0
0.269513 -0.495788 0
0.0624272 -0.117712 0
-0.00163448 -0.06447 0
-0.107167 -0.501212 0
-0.388009 -0.686394 0
0.400155 -0.475231 0
0.750157 -0.891755 0
-0.43808 -2.00758 0
0.615422 -0.690371 0
0.0662841 -0.0911819 0
0.583043 -0.759061 0
-1.13383 -0.690714 0
0.596132 -1.19853 0
0.823243 -0.900223 0
0.643461 -1.34551 0
-0.512699 -0.604566 0
0.255145 -2.68408 0
-0.301157 -1.20336 0
-0.0154923 -0.0236762 0
-0.0646075 -0.181966 0
-0.0827592 -0.126432 0
-0.0518463 -0.165571 0
-0.0684412 -0.137633 0
0.00898613 -0.0209202 0
-1.4181 -1.36247 0
0.527195 -2.74732 0
-0.0817312 -0.172638 0
-0.00165443 -0.00512256 0
0.142722 -1.72214 0
-0.00737421 -0.0465223 0
-1.76477 -4.30219 0
-0.258257 -3.90021 0
-0.554385 -4.95071 0
0.919145 -2.71451 0
-0.74104 -0.467964 0
-0.615744 -0.921535 0
-0.832266 -2.48568 0
0.00763495 -0.1069 0
-0.221243 -2.47897 0
1.05775 -2.6379 0
-0.14267 -0.615806 0
0.0566839 -0.232173 0
0.213356 -1.60345 0
0.0144565 -0.590993 0
0.376094 -2.1079 0
-0.0665242 -0.736302 0
-0.0412059 -0.256866 0
-0.434553 -0.389663 0
-0.157856 -0.174613 0
-0.883409 -1.39904 0
