# vtk DataFile Version 2.0
Unstructured Grid by M++
ASCII
DATASET UNSTRUCTURED_GRID
POINTS 81 float
  1.000000   0.625000 0
  0.750000   0.375000 0
  1.000000   0.000000 0
  0.875000   0.875000 0
  0.750000   0.125000 0
  1.000000   1.000000 0
  0.875000   0.250000 0
  0.625000   0.875000 0
  1.000000   0.750000 0
  0.875000   0.000000 0
  1.000000   0.250000 0
  0.625000   0.375000 0
  0.875000   0.500000 0
  0.625000   0.625000 0
  1.000000   0.500000 0
  0.750000   0.500000 0
  0.750000   1.000000 0
  1.000000   0.125000 0
  0.625000   0.250000 0
  0.750000   0.750000 0
  0.625000   0.000000 0
  0.125000   0.375000 0
  0.000000   0.500000 0
  0.125000   0.625000 0
  0.625000   1.000000 0
  1.000000   0.875000 0
  0.875000   0.125000 0
  0.500000   0.250000 0
  0.625000   0.500000 0
  0.250000   0.625000 0
  0.000000   0.625000 0
  0.375000   0.500000 0
  0.375000   0.000000 0
  0.000000   0.125000 0
  0.125000   0.875000 0
  0.875000   1.000000 0
  0.750000   0.250000 0
  0.375000   0.375000 0
  0.250000   0.375000 0
  0.625000   0.750000 0
  0.125000   0.125000 0
  0.500000   0.000000 0
  0.250000   0.875000 0
  0.125000   0.500000 0
  0.500000   0.375000 0
  0.125000   0.000000 0
  0.250000   0.750000 0
  0.250000   0.500000 0
  0.000000   0.875000 0
  0.875000   0.625000 0
  0.500000   0.750000 0
  0.750000   0.625000 0
  0.250000   0.000000 0
  0.375000   0.750000 0
  0.750000   0.875000 0
  0.625000   0.125000 0
  0.250000   0.250000 0
  0.375000   1.000000 0
  0.375000   0.250000 0
  0.000000   0.375000 0
  0.500000   1.000000 0
  0.875000   0.750000 0
  0.750000   0.000000 0
  0.375000   0.125000 0
  0.500000   0.875000 0
  0.000000   0.000000 0
  0.125000   0.750000 0
  0.500000   0.625000 0
  0.125000   0.250000 0
  0.500000   0.125000 0
  0.250000   1.000000 0
  0.250000   0.125000 0
  0.000000   1.000000 0
  0.375000   0.875000 0
  0.000000   0.750000 0
  0.375000   0.625000 0
  0.000000   0.250000 0
  0.125000   1.000000 0
  1.000000   0.375000 0
  0.500000   0.500000 0
  0.875000   0.375000 0
CELLS 64 320
4 56 71 58 63
4 27 58 69 63
4 41 69 32 63
4 76 33 68 40
4 27 44 58 37
4 79 31 44 37
4 56 38 68 21
4 56 58 38 37
4 52 32 71 63
4 47 38 31 37
4 76 68 59 21
4 22 59 43 21
4 65 45 33 40
4 47 43 38 21
4 52 71 45 40
4 56 68 71 40
4 74 30 66 23
4 46 66 29 23
4 22 43 30 23
4 72 48 77 34
4 46 53 42 73
4 50 64 53 73
4 70 42 57 73
4 74 66 48 34
4 46 42 66 34
4 47 29 43 23
4 70 77 42 34
4 60 57 64 73
4 79 67 31 75
4 47 31 29 75
4 50 53 67 75
4 46 29 53 75
4 10 78 6 80
4 36 6 1 80
4 15 1 12 80
4 36 4 6 26
4 14 12 78 80
4 2 17 9 26
4 36 18 4 55
4 15 28 1 11
4 62 4 20 55
4 10 6 17 26
4 27 18 44 11
4 62 9 4 26
4 27 69 18 55
4 36 1 18 11
4 41 20 69 55
4 79 44 28 11
4 16 24 54 7
4 19 54 39 7
4 50 39 64 7
4 8 25 61 3
4 60 64 24 7
4 79 28 67 13
4 19 51 61 49
4 8 61 0 49
4 15 51 28 13
4 19 39 51 13
4 50 67 39 13
4 19 61 54 3
4 14 0 12 49
4 5 35 25 3
4 15 12 51 49
4 16 54 35 3
CELL_TYPES 64
8
8
8
8
8
8
8
8
8
8
8
8
8
8
8
8
8
8
8
8
8
8
8
8
8
8
8
8
8
8
8
8
8
8
8
8
8
8
8
8
8
8
8
8
8
8
8
8
8
8
8
8
8
8
8
8
8
8
8
8
8
8
8
8
CELL_DATA 64
VECTORS vector_value float
0.162693 -0.103398 0
0.0619966 -0.375961 0
0.00787861 -0.345171 0
0.191848 -4.18619 0
0.0985 -0.212716 0
0.0887773 -0.23923 0
0.0552264 -0.864373 0
0.0440492 -0.0640323 0
0.138168 -0.385062 0
-0.0628498 -0.316953 0
0.0197607 -4.28936 0
0.0162017 -4.31097 0
0.0816262 -3.74163 0
-0.0843173 -0.733859 0
0.221793 -0.939203 0
0.258947 -0.80235 0
-0.968416 -3.41487 0
-0.77216 -1.0984 0
-0.161669 -4.29945 0
0.159904 -0.654854 0
-1.51201 -0.731766 0
-1.08307 -1.05024 0
-0.590619 -1.1427 0
-0.696466 -1.17732 0
-2.1372 -2.21899 0
-0.173291 -0.540273 0
-0.0432688 -1.44772 0
-0.603348 -1.14703 0
-0.104857 -0.613978 0
-0.213171 -0.295598 0
-0.203047 -0.636821 0
-0.3166 -0.432074 0
0.041175 -0.637641 0
0.0259921 -0.118717 0
0.0334143 -0.240925 0
0.14946 -0.267319 0
0.0240561 -0.534078 0
0.0885944 -0.824584 0
0.154974 -0.218166 0
-0.0667731 -0.603452 0
0.075389 -0.34578 0
0.0149287 -0.635493 0
-0.0412142 -1.42956 0
0.065026 -0.166961 0
0.0903731 -1.41112 0
-0.0701104 -0.383601 0
0.0355858 -1.25161 0
0.00673728 -1.02053 0
-0.628083 -0.731019 0
-0.669866 -1.03835 0
-0.648111 -0.913365 0
-0.0310415 -0.168859 0
-0.749412 -1.171 0
0.0505262 -0.905604 0
0.132263 -0.385148 0
0.089321 -0.252913 0
0.0279791 -0.577782 0
-0.14651 -0.962534 0
-0.275425 -0.817242 0
-0.360727 -0.701106 0
0.0799081 -0.446246 0
-0.379884 -0.531026 0
0.0758248 -0.321068 0
-0.702352 -1.17465 0
