# vtk DataFile Version 2.0
Unstructured Grid by M++
ASCII
DATASET UNSTRUCTURED_GRID
POINTS 81 float
  1.000000   0.625000 0
  0.750000   0.375000 0
  1.000000   0.000000 0
  0.875000   0.875000 0
  0.750000   0.125000 0
  1.000000   1.000000 0
  0.875000   0.250000 0
  0.625000   0.875000 0
  1.000000   0.750000 0
  0.875000   0.000000 0
  1.000000   0.250000 0
  0.625000   0.375000 0
  0.875000   0.500000 0
  0.625000   0.625000 0
  1.000000   0.500000 0
  0.750000   0.500000 0
  0.750000   1.000000 0
  1.000000   0.125000 0
  0.625000   0.250000 0
  0.750000   0.750000 0
  0.625000   0.000000 0
  0.125000   0.375000 0
  0.000000   0.500000 0
  0.125000   0.625000 0
  0.625000   1.000000 0
  1.000000   0.875000 0
  0.875000   0.125000 0
  0.500000   0.250000 0
  0.625000   0.500000 0
  0.250000   0.625000 0
  0.000000   0.625000 0
  0.375000   0.500000 0
  0.375000   0.000000 0
  0.000000   0.125000 0
  0.125000   0.875000 0
  0.875000   1.000000 0
  0.750000   0.250000 0
  0.375000   0.375000 0
  0.250000   0.375000 0
  0.625000   0.750000 0
  0.125000   0.125000 0
  0.500000   0.000000 0
  0.250000   0.875000 0
  0.125000   0.500000 0
  0.500000   0.375000 0
  0.125000   0.000000 0
  0.250000   0.750000 0
  0.250000   0.500000 0
  0.000000   0.875000 0
  0.875000   0.625000 0
  0.500000   0.750000 0
  0.750000   0.625000 0
  0.250000   0.000000 0
  0.375000   0.750000 0
  0.750000   0.875000 0
  0.625000   0.125000 0
  0.250000   0.250000 0
  0.375000   1.000000 0
  0.375000   0.250000 0
  0.000000   0.375000 0
  0.500000   1.000000 0
  0.875000   0.750000 0
  0.750000   0.000000 0
  0.375000   0.125000 0
  0.500000   0.875000 0
  0.000000   0.000000 0
  0.125000   0.750000 0
  0.500000   0.625000 0
  0.125000   0.250000 0
  0.500000   0.125000 0
  0.250000   1.000000 0
  0.250000   0.125000 0
  0.000000   1.000000 0
  0.375000   0.875000 0
  0.000000   0.750000 0
  0.375000   0.625000 0
  0.000000   0.250000 0
  0.125000   1.000000 0
  1.000000   0.375000 0
  0.500000   0.500000 0
  0.875000   0.375000 0
CELLS 64 320
4 56 71 58 63
4 27 58 69 63
4 41 69 32 63
4 76 33 68 40
4 27 44 58 37
4 79 31 44 37
4 56 38 68 21
4 56 58 38 37
4 52 32 71 63
4 47 38 31 37
4 76 68 59 21
4 22 59 43 21
4 65 45 33 40
4 47 43 38 21
4 52 71 45 40
4 56 68 71 40
4 74 30 66 23
4 46 66 29 23
4 22 43 30 23
4 72 48 77 34
4 46 53 42 73
4 50 64 53 73
4 70 42 57 73
4 74 66 48 34
4 46 42 66 34
4 47 29 43 23
4 70 77 42 34
4 60 57 64 73
4 79 67 31 75
4 47 31 29 75
4 50 53 67 75
4 46 29 53 75
4 10 78 6 80
4 36 6 1 80
4 15 1 12 80
4 36 4 6 26
4 14 12 78 80
4 2 17 9 26
4 36 18 4 55
4 15 28 1 11
4 62 4 20 55
4 10 6 17 26
4 27 18 44 11
4 62 9 4 26
4 27 69 18 55
4 36 1 18 11
4 41 20 69 55
4 79 44 28 11
4 16 24 54 7
4 19 54 39 7
4 50 39 64 7
4 8 25 61 3
4 60 64 24 7
4 79 28 67 13
4 19 51 61 49
4 8 61 0 49
4 15 51 28 13
4 19 39 51 13
4 50 67 39 13
4 19 61 54 3
4 14 0 12 49
4 5 35 25 3
4 15 12 51 49
4 16 54 35 3
CELL_TYPES 64
8
8
8
8
8
8
8
8
8
8
8
8
8
8
8
8
8
8
8
8
8
8
8
8
8
8
8
8
8
8
8
8
8
8
8
8
8
8
8
8
8
8
8
8
8
8
8
8
8
8
8
8
8
8
8
8
8
8
8
8
8
8
8
8
CELL_DATA 64
VECTORS vector_value float
0.47885 -0.511313 0
0.71308 -1.27415 0
0.315516 -1.17963 0
0.058266 -0.212402 0
0.234475 -0.89301 0
0.106417 -0.269863 0
0.012637 -0.0513687 0
0.550605 -1.20562 0
0.144748 -0.304732 0
0.470729 -0.631588 0
0.307154 -0.848082 0
-0.394262 -0.555936 0
-0.00662751 -0.206638 0
0.342055 -1.42348 0
0.0364016 -0.390337 0
0.431998 -0.630826 0
0.00634958 -0.044114 0
-0.00198459 -0.090389 0
-0.0466656 -0.0772297 0
0.422732 -0.478071 0
0.0789424 -3.63935 0
-0.235942 -1.48632 0
0.747327 -1.42383 0
0.0486306 -0.094179 0
0.154832 -0.110677 0
-1.11237 -1.43554 0
1.24069 -0.657411 0
-0.818684 -2.17427 0
0.648147 -0.722441 0
-0.282744 -1.44987 0
1.09806 -2.37085 0
-0.413673 -2.97235 0
-0.109173 -0.725399 0
-0.0570005 -0.167374 0
-0.0319469 -0.208495 0
-0.278259 -0.405415 0
0.0906166 -0.728498 0
-0.0191155 -0.069522 0
-0.885686 -1.18124 0
0.713318 -2.55711 0
-0.216011 -0.445704 0
-0.220307 -0.39485 0
-0.100333 -1.39893 0
-0.167208 -0.554505 0
-0.7052 -3.38981 0
-0.409976 -2.71022 0
-0.0625161 -4.84893 0
0.5151 -1.62502 0
-0.397683 -0.316347 0
-1.12007 -0.697897 0
-0.496372 -0.922699 0
-0.00815538 -0.151231 0
-1.06994 -0.906308 0
1.2995 -2.59387 0
0.0281821 -0.371904 0
0.0126841 -0.184653 0
0.242836 -0.379693 0
0.384148 -0.906074 0
0.60354 -1.05966 0
-0.831905 -0.897647 0
0.193319 -0.359759 0
-0.408294 -1.01059 0
0.448544 -0.9816 0
-0.291499 -1.03316 0
