# vtk DataFile Version 2.0
Unstructured Grid by M++
ASCII
DATASET UNSTRUCTURED_GRID
POINTS 81 float
  1.000000   0.625000 0
  0.750000   0.375000 0
  1.000000   0.000000 0
  0.875000   0.875000 0
  0.750000   0.125000 0
  1.000000   1.000000 0
  0.875000   0.250000 0
  0.625000   0.875000 0
  1.000000   0.750000 0
  0.875000   0.000000 0
  1.000000   0.250000 0
  0.625000   0.375000 0
  0.875000   0.500000 0
  0.625000   0.625000 0
  1.000000   0.500000 0
  0.750000   0.500000 0
  0.750000   1.000000 0
  1.000000   0.125000 0
  0.625000   0.250000 0
  0.750000   0.750000 0
  0.625000   0.000000 0
  0.125000   0.375000 0
  0.000000   0.500000 0
  0.125000   0.625000 0
  0.625000   1.000000 0
  1.000000   0.875000 0
  0.875000   0.125000 0
  0.500000   0.250000 0
  0.625000   0.500000 0
  0.250000   0.625000 0
  0.000000   0.625000 0
  0.375000   0.500000 0
  0.375000   0.000000 0
  0.000000   0.125000 0
  0.125000   0.875000 0
  0.875000   1.000000 0
  0.750000   0.250000 0
  0.375000   0.375000 0
  0.250000   0.375000 0
  0.625000   0.750000 0
  0.125000   0.125000 0
  0.500000   0.000000 0
  0.250000   0.875000 0
  0.125000   0.500000 0
  0.500000   0.375000 0
  0.125000   0.000000 0
  0.250000   0.750000 0
  0.250000   0.500000 0
  0.000000   0.875000 0
  0.875000   0.625000 0
  0.500000   0.750000 0
  0.750000   0.625000 0
  0.250000   0.000000 0
  0.375000   0.750000 0
  0.750000   0.875000 0
  0.625000   0.125000 0
  0.250000   0.250000 0
  0.375000   1.000000 0
  0.375000   0.250000 0
  0.000000   0.375000 0
  0.500000   1.000000 0
  0.875000   0.750000 0
  0.750000   0.000000 0
  0.375000   0.125000 0
  0.500000   0.875000 0
  0.000000   0.000000 0
  0.125000   0.750000 0
  0.500000   0.625000 0
  0.125000   0.250000 0
  0.500000   0.125000 0
  0.250000   1.000000 0
  0.250000   0.125000 0
  0.000000   1.000000 0
  0.375000   0.875000 0
  0.000000   0.750000 0
  0.375000   0.625000 0
  0.000000   0.250000 0
  0.125000   1.000000 0
  1.000000   0.375000 0
  0.500000   0.500000 0
  0.875000   0.375000 0
CELLS 64 320
4 56 71 58 63
4 27 58 69 63
4 41 69 32 63
4 76 33 68 40
4 27 44 58 37
4 79 31 44 37
4 56 38 68 21
4 56 58 38 37
4 52 32 71 63
4 47 38 31 37
4 76 68 59 21
4 22 59 43 21
4 65 45 33 40
4 47 43 38 21
4 52 71 45 40
4 56 68 71 40
4 74 30 66 23
4 46 66 29 23
4 22 43 30 23
4 72 48 77 34
4 46 53 42 73
4 50 64 53 73
4 70 42 57 73
4 74 66 48 34
4 46 42 66 34
4 47 29 43 23
4 70 77 42 34
4 60 57 64 73
4 79 67 31 75
4 47 31 29 75
4 50 53 67 75
4 46 29 53 75
4 10 78 6 80
4 36 6 1 80
4 15 1 12 80
4 36 4 6 26
4 14 12 78 80
4 2 17 9 26
4 36 18 4 55
4 15 28 1 11
4 62 4 20 55
4 10 6 17 26
4 27 18 44 11
4 62 9 4 26
4 27 69 18 55
4 36 1 18 11
4 41 20 69 55
4 79 44 28 11
4 16 24 54 7
4 19 54 39 7
4 50 39 64 7
4 8 25 61 3
4 60 64 24 7
4 79 28 67 13
4 19 51 61 49
4 8 61 0 49
4 15 51 28 13
4 19 39 51 13
4 50 67 39 13
4 19 61 54 3
4 14 0 12 49
4 5 35 25 3
4 15 12 51 49
4 16 54 35 3
CELL_TYPES 64
8
8
8
8
8
8
8
8
8
8
8
8
8
8
8
8
8
8
8
8
8
8
8
8
8
8
8
8
8
8
8
8
8
8
8
8
8
8
8
8
8
8
8
8
8
8
8
8
8
8
8
8
8
8
8
8
8
8
8
8
8
8
8
8
CELL_DATA 64
VECTORS vector_value float
-0.195417 -2.14391 0
0.204163 -3.24633 0
0.128263 -2.3891 0
7.31764e-05 -0.5221 0
-0.102182 -3.28386 0
-0.175681 -3.54263 0
0.0410846 -1.32362 0
0.0890023 -1.77826 0
-0.37661 -1.28336 0
-1.08261 -1.64691 0
-0.101049 -0.326241 0
0.0352074 -0.223563 0
0.095985 -0.286167 0
-0.188602 -1.23332 0
-0.444546 -1.99741 0
-0.00819263 -0.727666 0
0.213133 -0.817969 0
0.095263 -0.331837 0
0.0907682 -0.408963 0
0.13604 -0.732666 0
0.0478664 -0.125164 0
0.23797 -0.446405 0
1.29992 -0.615423 0
-0.0972431 -0.906503 0
0.00417305 -0.204172 0
0.151709 -0.730478 0
0.490146 -0.721387 0
1.84174 -1.7042 0
-3.34323 -3.33729 0
-0.27062 -0.186692 0
-0.0311576 -0.54915 0
0.00043958 -0.00338253 0
-0.0415005 -0.539315 0
0.0642205 -0.566513 0
0.184228 -0.38291 0
-0.184094 -0.66503 0
0.220825 -0.568585 0
-0.0167013 -0.299274 0
0.03862 -0.0709636 0
0.107338 -0.108187 0
-0.121611 -0.647954 0
-0.103544 -0.533423 0
0.0341472 -0.079796 0
-0.139496 -0.51388 0
0.0869639 -0.0905793 0
0.141613 -0.102405 0
0.476352 -0.58285 0
0.0302252 -0.29389 0
-0.789726 -0.670855 0
-0.428405 -0.145325 0
0.655177 -4.78181 0
-0.380957 -0.863129 0
-0.233276 -1.97413 0
-2.17981 -2.37449 0
-0.410872 -0.825677 0
-0.0648109 -0.224866 0
0.00195161 -0.0677969 0
-0.332918 -0.10744 0
-0.53785 -5.13968 0
-0.339169 -0.527492 0
0.000232445 -0.167753 0
0.0333091 -1.05769 0
0.0799032 -0.726544 0
-0.221756 -0.523649 0
