# vtk DataFile Version 2.0
Unstructured Grid by M++
ASCII
DATASET UNSTRUCTURED_GRID
POINTS 81 float
  1.000000   0.625000 0
  0.750000   0.375000 0
  1.000000   0.000000 0
  0.875000   0.875000 0
  0.750000   0.125000 0
  1.000000   1.000000 0
  0.875000   0.250000 0
  0.625000   0.875000 0
  1.000000   0.750000 0
  0.875000   0.000000 0
  1.000000   0.250000 0
  0.625000   0.375000 0
  0.875000   0.500000 0
  0.625000   0.625000 0
  1.000000   0.500000 0
  0.750000   0.500000 0
  0.750000   1.000000 0
  1.000000   0.125000 0
  0.625000   0.250000 0
  0.750000   0.750000 0
  0.625000   0.000000 0
  0.125000   0.375000 0
  0.000000   0.500000 0
  0.125000   0.625000 0
  0.625000   1.000000 0
  1.000000   0.875000 0
  0.875000   0.125000 0
  0.500000   0.250000 0
  0.625000   0.500000 0
  0.250000   0.625000 0
  0.000000   0.625000 0
  0.375000   0.500000 0
  0.375000   0.000000 0
  0.000000   0.125000 0
  0.125000   0.875000 0
  0.875000   1.000000 0
  0.750000   0.250000 0
  0.375000   0.375000 0
  0.250000   0.375000 0
  0.625000   0.750000 0
  0.125000   0.125000 0
  0.500000   0.000000 0
  0.250000   0.875000 0
  0.125000   0.500000 0
  0.500000   0.375000 0
  0.125000   0.000000 0
  0.250000   0.750000 0
  0.250000   0.500000 0
  0.000000   0.875000 0
  0.875000   0.625000 0
  0.500000   0.750000 0
  0.750000   0.625000 0
  0.250000   0.000000 0
  0.375000   0.750000 0
  0.750000   0.875000 0
  0.625000   0.125000 0
  0.250000   0.250000 0
  0.375000   1.000000 0
  0.375000   0.250000 0
  0.000000   0.375000 0
  0.500000   1.000000 0
  0.875000   0.750000 0
  0.750000   0.000000 0
  0.375000   0.125000 0
  0.500000   0.875000 0
  0.000000   0.000000 0
  0.125000   0.750000 0
  0.500000   0.625000 0
  0.125000   0.250000 0
  0.500000   0.125000 0
  0.250000   1.000000 0
  0.250000   0.125000 0
  0.000000   1.000000 0
  0.375000   0.875000 0
  0.000000   0.750000 0
  0.375000   0.625000 0
  0.000000   0.250000 0
  0.125000   1.000000 0
  1.000000   0.375000 0
  0.500000   0.500000 0
  0.875000   0.375000 0
CELLS 64 320
4 56 71 58 63
4 27 58 69 63
4 41 69 32 63
4 76 33 68 40
4 27 44 58 37
4 79 31 44 37
4 56 38 68 21
4 56 58 38 37
4 52 32 71 63
4 47 38 31 37
4 76 68 59 21
4 22 59 43 21
4 65 45 33 40
4 47 43 38 21
4 52 71 45 40
4 56 68 71 40
4 74 30 66 23
4 46 66 29 23
4 22 43 30 23
4 72 48 77 34
4 46 53 42 73
4 50 64 53 73
4 70 42 57 73
4 74 66 48 34
4 46 42 66 34
4 47 29 43 23
4 70 77 42 34
4 60 57 64 73
4 79 67 31 75
4 47 31 29 75
4 50 53 67 75
4 46 29 53 75
4 10 78 6 80
4 36 6 1 80
4 15 1 12 80
4 36 4 6 26
4 14 12 78 80
4 2 17 9 26
4 36 18 4 55
4 15 28 1 11
4 62 4 20 55
4 10 6 17 26
4 27 18 44 11
4 62 9 4 26
4 27 69 18 55
4 36 1 18 11
4 41 20 69 55
4 79 44 28 11
4 16 24 54 7
4 19 54 39 7
4 50 39 64 7
4 8 25 61 3
4 60 64 24 7
4 79 28 67 13
4 19 51 61 49
4 8 61 0 49
4 15 51 28 13
4 19 39 51 13
4 50 67 39 13
4 19 61 54 3
4 14 0 12 49
4 5 35 25 3
4 15 12 51 49
4 16 54 35 3
CELL_TYPES 64
8
8
8
8
8
8
8
8
8
8
8
8
8
8
8
8
8
8
8
8
8
8
8
8
8
8
8
8
8
8
8
8
8
8
8
8
8
8
8
8
8
8
8
8
8
8
8
8
8
8
8
8
8
8
8
8
8
8
8
8
8
8
8
8
CELL_DATA 64
VECTORS vector_value float
0.022491 -0.14482 0
-0.0839132 -0.0941905 0
-0.0626992 -0.0820969 0
0.283153 -1.59636 0
0.0132226 -0.0244227 0
0.0503722 -0.0288503 0
0.025373 -0.457611 0
0.00962481 -0.0710314 0
0.0274908 -0.380849 0
0.0209709 -0.0878535 0
0.106001 -2.23697 0
-0.15074 -2.22226 0
0.0834973 -1.35489 0
-0.0176101 -0.488172 0
0.143176 -1.13717 0
0.40165 -1.04121 0
0.1164 -0.408594 0
0.766624 -2.1919 0
-0.795256 -1.03873 0
-0.580959 -1.75886 0
-0.0459055 -0.178829 0
0.0531136 -0.324854 0
-0.171672 -0.262361 0
0.774376 -1.90644 0
0.0847389 -0.711891 0
-1.03856 -1.64692 0
-0.765 -0.726926 0
0.504172 -0.760917 0
0.0454844 -0.0121538 0
-0.00178806 -0.175443 0
0.055845 -0.0757324 0
-0.0391107 -0.289445 0
-0.0399631 -0.271174 0
-0.299989 -1.68111 0
-0.00502567 -2.35941 0
1.53954 -3.34949 0
0.013726 -0.347245 0
0.303393 -0.869515 0
1.12112 -1.40616 0
-0.036929 -1.77697 0
0.00791752 -0.236051 0
0.0635798 -0.197884 0
0.201169 -0.565834 0
0.0843067 -3.64343 0
-0.0432917 -0.169889 0
-0.0473359 -2.69185 0
-0.102037 -0.295999 0
-0.135899 -0.689242 0
1.42551 -1.80448 0
0.0258548 -1.37887 0
0.133193 -0.219327 0
-0.22556 -0.76752 0
1.1968 -0.49835 0
-0.0262599 -0.202421 0
-0.69547 -2.30253 0
-0.0951101 -0.264179 0
-0.0237896 -3.06028 0
-0.340048 -2.2857 0
0.156322 -0.181919 0
-0.0960477 -2.51227 0
0.0296384 -0.234296 0
-0.0643809 -1.2979 0
0.193813 -1.62976 0
0.484159 -0.890199 0
