# vtk DataFile Version 2.0
Unstructured Grid by M++
ASCII
DATASET UNSTRUCTURED_GRID
POINTS 289 float
  0.562500   1.000000 0
  0.562500   0.625000 0
  0.625000   1.000000 0
  0.562500   0.937500 0
  0.562500   0.562500 0
  0.625000   0.937500 0
  0.562500   0.875000 0
  0.625000   0.750000 0
  0.625000   0.625000 0
  0.562500   0.812500 0
  0.562500   0.750000 0
  0.562500   0.687500 0
  0.625000   0.875000 0
  0.625000   0.812500 0
  0.625000   0.687500 0
  0.687500   0.125000 0
  0.875000   0.062500 0
  0.625000   0.125000 0
  0.625000   0.187500 0
  0.625000   0.250000 0
  0.812500   0.187500 0
  1.000000   0.125000 0
  0.687500   0.187500 0
  0.750000   0.125000 0
  0.937500   0.062500 0
  0.937500   0.125000 0
  0.750000   0.187500 0
  0.812500   0.062500 0
  0.812500   0.125000 0
  0.875000   0.687500 0
  0.187500   0.250000 0
  0.437500   0.250000 0
  0.375000   0.187500 0
  0.812500   0.625000 0
  0.125000   0.187500 0
  0.937500   0.750000 0
  0.250000   0.312500 0
  0.500000   0.312500 0
  0.625000   0.062500 0
  0.437500   0.500000 0
  0.375000   0.125000 0
  0.437500   0.187500 0
  0.437500   0.437500 0
  0.437500   0.375000 0
  0.875000   0.875000 0
  0.187500   0.375000 0
  0.687500   0.562500 0
  0.687500   0.625000 0
  0.000000   0.125000 0
  0.937500   0.625000 0
  0.250000   0.125000 0
  0.375000   0.062500 0
  0.375000   0.000000 0
  0.812500   0.500000 0
  0.125000   0.000000 0
  0.937500   0.937500 0
  0.250000   0.437500 0
  0.687500   0.875000 0
  0.687500   0.937500 0
  0.000000   0.437500 0
  0.500000   0.500000 0
  0.500000   0.437500 0
  0.750000   0.937500 0
  0.750000   1.000000 0
  0.062500   0.500000 0
  1.000000   1.000000 0
  0.312500   0.500000 0
  0.875000   0.562500 0
  0.187500   0.062500 0
  0.437500   0.125000 0
  0.437500   0.062500 0
  0.500000   0.375000 0
  0.937500   0.812500 0
  0.937500   0.875000 0
  0.250000   0.375000 0
  0.687500   0.812500 0
  0.000000   0.375000 0
  0.750000   0.562500 0
  0.062500   0.125000 0
  1.000000   0.562500 0
  1.000000   0.625000 0
  0.312500   0.125000 0
  0.562500   0.125000 0
  0.437500   0.000000 0
  0.875000   0.437500 0
  0.875000   0.500000 0
  0.187500   0.000000 0
  0.937500   0.562500 0
  0.937500   0.500000 0
  0.250000   0.062500 0
  0.687500   0.500000 0
  0.000000   0.062500 0
  0.500000   0.062500 0
  1.000000   0.875000 0
  1.000000   0.937500 0
  0.312500   0.437500 0
  0.750000   0.875000 0
  0.062500   0.437500 0
  0.812500   0.937500 0
  0.125000   0.500000 0
  0.375000   0.500000 0
  0.625000   0.562500 0
  0.625000   0.500000 0
  0.437500   0.312500 0
  0.875000   0.812500 0
  0.875000   0.750000 0
  0.187500   0.312500 0
  0.812500   0.687500 0
  0.812500   0.750000 0
  0.125000   0.250000 0
  0.375000   0.250000 0
  1.000000   0.687500 0
  0.312500   0.187500 0
  0.750000   0.687500 0
  0.750000   0.625000 0
  0.062500   0.187500 0
  0.562500   0.250000 0
  0.562500   0.187500 0
  0.375000   1.000000 0
  0.500000   0.562500 0
  0.500000   0.250000 0
  0.750000   0.250000 0
  0.500000   0.125000 0
  0.500000   0.187500 0
  1.000000   0.187500 0
  0.625000   0.375000 0
  0.875000   0.375000 0
  1.000000   0.437500 0
  0.312500   0.000000 0
  0.562500   0.000000 0
  0.812500   0.000000 0
  0.250000   0.687500 0
  0.000000   0.687500 0
  0.500000   1.000000 0
  0.250000   1.000000 0
  0.000000   1.000000 0
  0.437500   0.687500 0
  0.437500   0.625000 0
  0.187500   0.625000 0
  0.687500   0.750000 0
  0.000000   0.312500 0
  0.000000   0.250000 0
  0.375000   0.375000 0
  0.375000   0.312500 0
  0.812500   0.812500 0
  0.125000   0.312500 0
  0.875000   0.625000 0
  0.187500   0.187500 0
  0.187500   0.125000 0
  0.937500   1.000000 0
  0.250000   0.562500 0
  0.250000   0.500000 0
  0.687500   1.000000 0
  0.000000   0.500000 0
  0.687500   0.687500 0
  0.000000   0.187500 0
  0.937500   0.687500 0
  0.250000   0.250000 0
  0.250000   0.187500 0
  0.187500   0.687500 0
  0.000000   0.750000 0
  0.250000   0.750000 0
  0.125000   0.625000 0
  0.750000   0.750000 0
  0.062500   0.250000 0
  0.875000   0.937500 0
  0.187500   0.500000 0
  0.187500   0.437500 0
  0.812500   0.562500 0
  0.125000   0.125000 0
  0.125000   0.062500 0
  0.375000   0.625000 0
  0.375000   0.687500 0
  1.000000   0.750000 0
  0.312500   0.250000 0
  0.312500   0.312500 0
  0.812500   0.312500 0
  0.562500   0.312500 0
  0.375000   0.750000 0
  0.500000   0.625000 0
  0.250000   0.625000 0
  0.312500   0.687500 0
  0.750000   0.812500 0
  0.062500   0.312500 0
  0.062500   0.375000 0
  1.000000   0.812500 0
  0.312500   0.375000 0
  0.562500   0.375000 0
  0.687500   0.437500 0
  0.000000   0.000000 0
  0.500000   0.000000 0
  0.937500   0.437500 0
  0.250000   0.000000 0
  0.375000   0.437500 0
  0.812500   0.875000 0
  0.125000   0.375000 0
  0.125000   0.437500 0
  0.625000   0.437500 0
  1.000000   0.500000 0
  0.312500   0.062500 0
  0.750000   0.500000 0
  0.062500   0.000000 0
  0.062500   0.062500 0
  0.562500   0.062500 0
  0.062500   0.750000 0
  0.312500   0.750000 0
  0.312500   0.625000 0
  0.312500   0.562500 0
  0.062500   0.562500 0
  0.187500   1.000000 0
  0.437500   0.562500 0
  0.875000   1.000000 0
  0.187500   0.562500 0
  0.500000   0.937500 0
  0.250000   0.937500 0
  0.312500   1.000000 0
  0.125000   0.750000 0
  0.125000   0.687500 0
  1.000000   0.000000 0
  0.000000   0.937500 0
  0.000000   0.875000 0
  0.875000   0.125000 0
  0.875000   0.187500 0
  0.062500   0.812500 0
  0.312500   0.812500 0
  0.000000   0.812500 0
  0.000000   0.625000 0
  0.000000   0.562500 0
  0.062500   1.000000 0
  0.062500   0.937500 0
  0.937500   0.187500 0
  0.937500   0.250000 0
  0.062500   0.687500 0
  0.062500   0.625000 0
  0.125000   1.000000 0
  1.000000   0.250000 0
  1.000000   0.312500 0
  0.062500   0.875000 0
  0.125000   0.812500 0
  0.375000   0.812500 0
  0.125000   0.875000 0
  0.375000   0.937500 0
  0.375000   0.875000 0
  0.187500   0.750000 0
  0.187500   0.812500 0
  0.437500   0.812500 0
  0.187500   0.875000 0
  0.437500   0.875000 0
  0.375000   0.562500 0
  0.812500   1.000000 0
  0.125000   0.562500 0
  0.437500   1.000000 0
  0.437500   0.937500 0
  0.187500   0.937500 0
  0.125000   0.937500 0
  0.500000   0.687500 0
  0.500000   0.750000 0
  0.500000   0.812500 0
  0.250000   0.812500 0
  0.250000   0.875000 0
  0.500000   0.875000 0
  0.437500   0.750000 0
  0.312500   0.875000 0
  0.312500   0.937500 0
  0.687500   0.250000 0
  0.687500   0.312500 0
  0.937500   0.312500 0
  0.875000   0.250000 0
  0.625000   0.000000 0
  0.875000   0.000000 0
  0.687500   0.375000 0
  0.937500   0.375000 0
  0.875000   0.312500 0
  0.625000   0.312500 0
  0.687500   0.000000 0
  0.937500   0.000000 0
  0.750000   0.312500 0
  0.750000   0.375000 0
  1.000000   0.375000 0
  0.812500   0.250000 0
  0.562500   0.437500 0
  0.562500   0.500000 0
  0.687500   0.062500 0
  0.750000   0.437500 0
  0.750000   0.000000 0
  0.750000   0.062500 0
  1.000000   0.062500 0
  0.812500   0.375000 0
  0.812500   0.437500 0
CELLS 256 1280
4 169 170 148 68
4 151 166 56 167
4 195 45 196 167
4 54 170 201 202
4 109 34 30 147
4 40 32 81 112
4 192 89 86 68
4 48 91 78 202
4 99 64 196 97
4 71 43 37 103
4 74 186 56 95
4 109 164 34 115
4 50 81 158 112
4 122 69 92 70
4 195 145 45 106
4 110 143 174 175
4 157 30 158 147
4 40 69 32 41
4 50 158 148 147
4 141 155 164 115
4 122 123 69 41
4 142 186 143 175
4 60 39 61 42
4 40 51 69 70
4 120 31 123 41
4 157 174 36 175
4 50 148 89 68
4 48 78 155 115
4 52 83 51 70
4 151 56 66 95
4 71 61 43 42
4 169 148 34 147
4 100 193 39 42
4 40 81 51 199
4 110 174 32 112
4 109 30 145 106
4 100 66 193 95
4 169 34 78 115
4 190 92 83 70
4 50 89 81 199
4 54 86 170 68
4 74 56 45 167
4 142 143 43 103
4 153 59 64 97
4 99 196 166 167
4 169 78 170 202
4 142 193 186 95
4 192 128 89 199
4 74 45 36 106
4 110 31 143 103
4 76 184 59 97
4 142 43 193 42
4 52 51 128 199
4 189 201 91 202
4 120 37 31 103
4 74 36 186 175
4 195 196 184 97
4 141 164 140 183
4 157 158 174 112
4 109 145 164 183
4 195 184 145 183
4 110 32 31 41
4 157 36 30 106
4 76 140 184 183
4 171 172 206 181
4 178 172 261 136
4 256 261 255 136
4 256 257 261 245
4 180 150 206 207
4 60 119 39 210
4 118 215 241 263
4 178 205 172 181
4 216 243 238 244
4 162 217 233 232
4 180 206 131 181
4 179 137 119 210
4 216 204 217 232
4 220 237 219 229
4 216 217 243 159
4 259 258 262 224
4 240 254 237 229
4 153 64 227 208
4 161 205 258 224
4 240 237 238 223
4 226 227 233 208
4 234 228 254 229
4 171 248 137 210
4 160 132 204 232
4 180 131 138 159
4 133 251 213 252
4 171 206 248 207
4 162 138 217 159
4 161 258 243 244
4 220 225 237 223
4 151 150 166 212
4 260 247 257 245
4 259 262 214 263
4 151 66 150 207
4 234 254 209 253
4 162 233 250 208
4 242 241 262 263
4 171 137 172 136
4 161 243 131 159
4 160 204 225 223
4 161 131 205 181
4 179 255 137 136
4 216 238 204 223
4 100 39 248 210
4 260 213 247 252
4 226 233 132 232
4 134 214 215 263
4 180 138 150 212
4 178 261 239 245
4 259 246 258 244
4 178 239 205 224
4 240 238 246 244
4 242 262 239 224
4 99 250 64 208
4 240 246 254 253
4 242 239 247 245
4 135 219 228 229
4 99 166 250 212
4 259 214 246 253
4 118 241 251 252
4 100 248 66 207
4 134 209 214 253
4 162 250 138 212
4 242 247 241 252
4 71 187 61 280
4 102 281 197 280
4 122 92 82 203
4 17 18 82 117
4 122 82 123 117
4 19 264 273 265
4 267 279 222 20
4 125 273 270 265
4 267 272 279 176
4 19 116 18 117
4 21 25 286 24
4 23 28 26 20
4 23 285 28 27
4 218 286 275 24
4 85 53 84 288
4 235 236 231 266
4 221 222 28 20
4 267 222 231 230
4 268 38 129 203
4 125 270 197 188
4 126 287 272 176
4 277 270 276 265
4 267 231 272 266
4 125 197 187 280
4 190 129 92 203
4 277 276 287 176
4 19 18 264 22
4 17 82 38 203
4 102 197 90 188
4 126 84 287 288
4 284 130 285 27
4 121 276 264 265
4 71 37 187 177
4 120 123 116 117
4 198 88 127 191
4 221 16 25 24
4 23 26 15 22
4 121 279 276 176
4 235 231 124 230
4 125 187 273 177
4 278 271 236 266
4 277 287 283 288
4 284 285 274 282
4 278 127 271 191
4 269 275 16 24
4 200 283 53 288
4 23 15 285 282
4 121 26 279 20
4 21 124 25 230
4 19 273 116 177
4 200 90 283 188
4 126 271 84 191
4 269 16 130 27
4 17 38 15 282
4 221 25 222 230
4 121 264 26 22
4 120 116 37 177
4 60 61 281 280
4 277 283 270 188
4 126 272 271 266
4 268 274 38 282
4 85 84 88 191
4 17 15 18 22
4 221 28 16 27
4 93 94 73 55
4 85 88 67 87
4 80 49 79 87
4 44 104 73 72
4 146 33 67 168
4 211 165 149 55
4 8 47 14 154
4 105 104 108 144
4 105 108 29 107
4 7 139 13 75
4 44 165 194 98
4 200 53 77 168
4 8 1 101 4
4 2 5 152 58
4 260 6 213 3
4 105 35 104 72
4 96 57 182 75
4 7 14 139 154
4 146 29 33 107
4 7 13 10 9
4 12 13 57 75
4 85 67 53 168
4 44 73 165 55
4 63 152 62 58
4 8 101 47 46
4 96 182 194 144
4 60 281 119 4
4 12 5 6 3
4 173 185 35 72
4 65 149 94 55
4 146 67 49 87
4 114 113 47 154
4 163 108 182 144
4 12 6 13 9
4 173 35 111 156
4 163 182 139 75
4 260 257 6 9
4 105 29 35 156
4 163 139 113 154
4 256 10 257 9
4 146 49 29 156
4 163 113 108 107
4 80 111 49 156
4 102 101 281 4
4 12 57 5 58
4 44 194 104 144
4 96 194 62 98
4 2 0 5 3
4 93 73 185 72
4 179 119 1 4
4 200 77 90 46
4 114 33 113 107
4 7 10 14 11
4 96 62 57 58
4 133 213 0 3
4 102 90 101 46
4 256 255 10 11
4 63 62 249 98
4 114 47 77 46
4 179 1 255 11
4 211 249 165 98
4 114 77 33 168
4 198 79 88 87
4 8 14 1 11
CELL_TYPES 256
8
8
8
8
8
8
8
8
8
8
8
8
8
8
8
8
8
8
8
8
8
8
8
8
8
8
8
8
8
8
8
8
8
8
8
8
8
8
8
8
8
8
8
8
8
8
8
8
8
8
8
8
8
8
8
8
8
8
8
8
8
8
8
8
8
8
8
8
8
8
8
8
8
8
8
8
8
8
8
8
8
8
8
8
8
8
8
8
8
8
8
8
8
8
8
8
8
8
8
8
8
8
8
8
8
8
8
8
8
8
8
8
8
8
8
8
8
8
8
8
8
8
8
8
8
8
8
8
8
8
8
8
8
8
8
8
8
8
8
8
8
8
8
8
8
8
8
8
8
8
8
8
8
8
8
8
8
8
8
8
8
8
8
8
8
8
8
8
8
8
8
8
8
8
8
8
8
8
8
8
8
8
8
8
8
8
8
8
8
8
8
8
8
8
8
8
8
8
8
8
8
8
8
8
8
8
8
8
8
8
8
8
8
8
8
8
8
8
8
8
8
8
8
8
8
8
8
8
8
8
8
8
8
8
8
8
8
8
8
8
8
8
8
8
8
8
8
8
8
8
8
8
8
8
8
8
CELL_DATA 256
VECTORS vector_value float
0.0980857 -0.557077 0
0.073258 -1.14406 0
-0.201727 -0.751388 0
0.0464698 -0.661303 0
-0.00227215 -0.527852 0
-0.0707105 -0.206522 0
0.102022 -0.48084 0
0.0739954 -1.23426 0
-0.449698 -0.68739 0
0.220931 -0.490177 0
0.379932 -0.37416 0
-0.180973 -0.832706 0
-0.0271761 -0.229189 0
-0.0088764 -0.165865 0
-0.0572217 -0.650155 0
0.020065 -0.168188 0
0.0309286 -0.378447 0
-0.0737115 -0.215559 0
0.0218345 -0.468832 0
-0.07993 -1.04328 0
-0.00252946 -0.282498 0
0.156138 -0.172315 0
0.27855 -0.452355 0
-0.0682803 -0.16624 0
0.0183712 -0.375031 0
0.00628422 -0.154282 0
0.0670166 -0.409842 0
-0.063837 -1.26307 0
-0.0473846 -0.139393 0
0.225205 -0.338388 0
0.166468 -0.34277 0
0.0314765 -0.455502 0
0.125986 -0.157161 0
-0.0694916 -0.266954 0
-0.0720252 -0.173831 0
-0.11236 -0.903334 0
0.191152 -0.207222 0
-0.0187783 -0.611891 0
-0.00454422 -0.0735618 0
0.0130436 -0.335519 0
0.0478346 -0.424731 0
0.0781131 -0.779239 0
0.241462 -0.39398 0
-0.088915 -0.231989 0
-0.435749 -1.24624 0
0.106866 -0.545534 0
0.422516 -0.194886 0
0.0353568 -0.458595 0
-0.0709141 -0.516146 0
0.0436553 -0.318338 0
-0.154028 -0.508439 0
0.327912 -0.331103 0
-0.0397416 -0.327415 0
0.028847 -1.07917 0
0.126733 -0.487776 0
0.0892309 -0.203739 0
-0.318806 -0.929858 0
-0.0508702 -0.94215 0
-0.0326725 -0.172504 0
-0.117212 -0.642888 0
-0.088537 -0.913395 0
-0.0625403 -0.285842 0
0.01358 -0.285026 0
-0.111579 -0.741451 0
0.358008 -0.396049 0
0.311826 -0.27095 0
0.185788 -1.06835 0
-0.104953 -0.727334 0
-0.0709767 -0.513765 0
0.293999 -0.508032 0
0.301414 -0.408971 0
0.333951 -0.25768 0
0.545305 -0.848203 0
0.14607 -0.342628 0
0.163175 -1.22738 0
0.427527 -0.717452 0
0.4356 -0.580706 0
-0.147418 -1.84103 0
0.657545 -0.938562 0
0.26288 -0.698465 0
-0.327407 -0.984771 0
0.0359509 -0.180828 0
0.369517 -0.876819 0
0.649221 -0.824026 0
0.0547914 -0.295789 0
-0.513337 -0.859039 0
0.334489 -0.403776 0
0.103656 -0.578557 0
0.224785 -1.35665 0
1.51202 -0.914138 0
0.255899 -0.463252 0
0.268071 -0.781964 0
0.695582 -1.21251 0
0.271943 -1.75166 0
-0.233971 -1.6138 0
0.102554 -0.404896 0
-0.0358793 -0.477286 0
-0.00935572 -0.333093 0
-0.490643 -1.04059 0
0.121655 -0.241018 0
0.0279794 -0.119197 0
0.228721 -0.37321 0
0.589344 -1.05801 0
0.336501 -1.16323 0
0.58729 -1.36683 0
0.279248 -0.841353 0
0.598646 -0.711876 0
0.236509 -0.324012 0
0.39973 -0.597541 0
0.0456288 -0.3921 0
-0.325305 -0.593602 0
-0.269522 -1.725 0
0.113161 -0.106825 0
0.399358 -0.814755 0
0.259707 -0.281146 0
0.707096 -0.994899 0
0.0608539 -0.114632 0
0.00814127 -0.345257 0
-0.261233 -0.837412 0
0.062485 -0.0927441 0
-0.289514 -1.44708 0
-0.267829 -1.28405 0
-0.0787781 -0.984281 0
1.0955 -0.741057 0
0.0893117 -0.224658 0
-0.531259 -1.11358 0
0.0287527 -0.983332 0
0.120562 -0.169819 0
0.33501 -0.576784 0
0.496998 -0.810196 0
0.0443876 -0.160552 0
0.0714491 -0.120495 0
0.0616495 -0.189963 0
0.521889 -0.725565 0
0.408439 -0.696931 0
0.655368 -1.13156 0
0.470509 -0.732129 0
0.119081 -0.143897 0
-0.0956357 -7.62701 0
0.182339 -0.985424 0
-0.0531568 -0.721235 0
-0.00680925 -7.57437 0
0.673783 -1.77949 0
0.678837 -7.52678 0
0.210547 -0.788618 0
0.325437 -1.1944 0
0.0249567 -0.08639 0
0.758388 -0.869818 0
0.502758 -0.931949 0
0.425253 -0.469745 0
0.849163 -1.26516 0
0.843269 -0.866804 0
0.019698 -0.167072 0
0.3404 -0.389759 0
0.309003 -0.408053 0
0.0712133 -0.123892 0
0.499715 -0.768278 0
0.892745 -1.59982 0
-0.0935739 -0.720854 0
0.723504 -0.724533 0
0.200999 -0.379246 0
0.0838662 -0.229488 0
0.359108 -1.37737 0
-0.114887 -1.94377 0
0.138608 -0.501611 0
0.443824 -0.511349 0
0.132094 -8.01651 0
0.318746 -0.419456 0
1.53625 -5.78005 0
0.574465 -0.385401 0
-0.031314 -0.835311 0
0.773854 -2.9357 0
0.00512109 -2.02657 0
0.598622 -0.608386 0
-0.0361029 -0.658141 0
0.667586 -0.930981 0
-0.183562 -8.14823 0
0.346816 -0.308939 0
0.378155 -0.411333 0
1.45651 -4.07242 0
-0.0322455 -0.697294 0
0.0630789 -0.227732 0
-0.0555432 -1.31466 0
0.59306 -0.590243 0
0.222126 -0.30356 0
0.500771 -1.02885 0
0.687727 -0.481405 0
1.68859 -2.41688 0
0.0401415 -0.247132 0
0.858236 -4.75128 0
0.0934405 -0.217934 0
0.02347 -0.856375 0
0.0202676 -1.77031 0
0.457792 -4.91276 0
0.107492 -0.786027 0
-0.092443 -1.0531 0
1.34045 -1.52269 0
0.538564 -0.801247 0
1.43902 -0.826787 0
0.172264 -1.00949 0
0.41029 -1.36745 0
0.581838 -0.913353 0
0.215702 -0.571036 0
0.668421 -0.801895 0
0.723622 -1.09091 0
-0.456894 -1.7746 0
0.510243 -2.17256 0
-0.292206 -1.54192 0
0.119114 -0.322714 0
1.02111 -1.12406 0
1.22403 -1.40084 0
0.309838 -2.3276 0
-0.0298585 -0.755559 0
0.597946 -1.33098 0
0.140524 -0.808226 0
-0.713725 -0.954998 0
0.98521 -0.69358 0
0.282973 -0.398429 0
0.433039 -1.12355 0
-0.252548 -2.21755 0
-0.264169 -1.1256 0
0.333197 -1.49326 0
0.751903 -3.87416 0
1.84361 -0.703824 0
0.270959 -0.310917 0
-0.267838 -2.95929 0
-0.141792 -0.71978 0
0.333753 -0.278687 0
-0.0396076 -2.52381 0
-0.0449613 -1.94151 0
0.731042 -0.441433 0
-0.261687 -2.56448 0
0.616703 -2.90033 0
0.559582 -0.47841 0
0.0146573 -0.548762 0
0.555332 -0.96437 0
-0.51881 -1.5007 0
0.115128 -0.676342 0
0.151727 -0.263156 0
0.291286 -1.01928 0
-0.143137 -1.61467 0
0.494653 -1.14138 0
0.621102 -0.556942 0
1.57952 -0.870536 0
0.763484 -1.50218 0
0.074472 -0.685124 0
0.99859 -1.60475 0
0.522012 -0.571305 0
0.414092 -2.30553 0
-0.268588 -0.58273 0
1.04327 -0.556523 0
0.756907 -1.71276 0
0.218395 -0.651075 0
1.23797 -0.991353 0
0.165399 -0.924465 0
1.23318 -1.32483 0
