# vtk DataFile Version 2.0
Unstructured Grid by M++
ASCII
DATASET UNSTRUCTURED_GRID
POINTS 81 float
  1.000000   0.625000 0
  0.750000   0.375000 0
  1.000000   0.000000 0
  0.875000   0.875000 0
  0.750000   0.125000 0
  1.000000   1.000000 0
  0.875000   0.250000 0
  0.625000   0.875000 0
  1.000000   0.750000 0
  0.875000   0.000000 0
  1.000000   0.250000 0
  0.625000   0.375000 0
  0.875000   0.500000 0
  0.625000   0.625000 0
  1.000000   0.500000 0
  0.750000   0.500000 0
  0.750000   1.000000 0
  1.000000   0.125000 0
  0.625000   0.250000 0
  0.750000   0.750000 0
  0.625000   0.000000 0
  0.125000   0.375000 0
  0.000000   0.500000 0
  0.125000   0.625000 0
  0.625000   1.000000 0
  1.000000   0.875000 0
  0.875000   0.125000 0
  0.500000   0.250000 0
  0.625000   0.500000 0
  0.250000   0.625000 0
  0.000000   0.625000 0
  0.375000   0.500000 0
  0.375000   0.000000 0
  0.000000   0.125000 0
  0.125000   0.875000 0
  0.875000   1.000000 0
  0.750000   0.250000 0
  0.375000   0.375000 0
  0.250000   0.375000 0
  0.625000   0.750000 0
  0.125000   0.125000 0
  0.500000   0.000000 0
  0.250000   0.875000 0
  0.125000   0.500000 0
  0.500000   0.375000 0
  0.125000   0.000000 0
  0.250000   0.750000 0
  0.250000   0.500000 0
  0.000000   0.875000 0
  0.875000   0.625000 0
  0.500000   0.750000 0
  0.750000   0.625000 0
  0.250000   0.000000 0
  0.375000   0.750000 0
  0.750000   0.875000 0
  0.625000   0.125000 0
  0.250000   0.250000 0
  0.375000   1.000000 0
  0.375000   0.250000 0
  0.000000   0.375000 0
  0.500000   1.000000 0
  0.875000   0.750000 0
  0.750000   0.000000 0
  0.375000   0.125000 0
  0.500000   0.875000 0
  0.000000   0.000000 0
  0.125000   0.750000 0
  0.500000   0.625000 0
  0.125000   0.250000 0
  0.500000   0.125000 0
  0.250000   1.000000 0
  0.250000   0.125000 0
  0.000000   1.000000 0
  0.375000   0.875000 0
  0.000000   0.750000 0
  0.375000   0.625000 0
  0.000000   0.250000 0
  0.125000   1.000000 0
  1.000000   0.375000 0
  0.500000   0.500000 0
  0.875000   0.375000 0
CELLS 64 320
4 56 71 58 63
4 27 58 69 63
4 41 69 32 63
4 76 33 68 40
4 27 44 58 37
4 79 31 44 37
4 56 38 68 21
4 56 58 38 37
4 52 32 71 63
4 47 38 31 37
4 76 68 59 21
4 22 59 43 21
4 65 45 33 40
4 47 43 38 21
4 52 71 45 40
4 56 68 71 40
4 74 30 66 23
4 46 66 29 23
4 22 43 30 23
4 72 48 77 34
4 46 53 42 73
4 50 64 53 73
4 70 42 57 73
4 74 66 48 34
4 46 42 66 34
4 47 29 43 23
4 70 77 42 34
4 60 57 64 73
4 79 67 31 75
4 47 31 29 75
4 50 53 67 75
4 46 29 53 75
4 10 78 6 80
4 36 6 1 80
4 15 1 12 80
4 36 4 6 26
4 14 12 78 80
4 2 17 9 26
4 36 18 4 55
4 15 28 1 11
4 62 4 20 55
4 10 6 17 26
4 27 18 44 11
4 62 9 4 26
4 27 69 18 55
4 36 1 18 11
4 41 20 69 55
4 79 44 28 11
4 16 24 54 7
4 19 54 39 7
4 50 39 64 7
4 8 25 61 3
4 60 64 24 7
4 79 28 67 13
4 19 51 61 49
4 8 61 0 49
4 15 51 28 13
4 19 39 51 13
4 50 67 39 13
4 19 61 54 3
4 14 0 12 49
4 5 35 25 3
4 15 12 51 49
4 16 54 35 3
CELL_TYPES 64
8
8
8
8
8
8
8
8
8
8
8
8
8
8
8
8
8
8
8
8
8
8
8
8
8
8
8
8
8
8
8
8
8
8
8
8
8
8
8
8
8
8
8
8
8
8
8
8
8
8
8
8
8
8
8
8
8
8
8
8
8
8
8
8
CELL_DATA 64
VECTORS vector_value float
0.0766414 -1.8985 0
1.91249 -2.77594 0
0.131103 -0.492892 0
0.027866 -0.538924 0
0.0667618 -1.69141 0
-0.180305 -1.98044 0
-0.0459048 -0.356994 0
0.210816 -3.13381 0
-0.147793 -0.495531 0
-1.17122 -3.26272 0
0.110733 -0.772096 0
0.00908638 -0.818599 0
-0.229404 -0.918387 0
-0.0377704 -0.0670153 0
-0.896391 -1.39319 0
0.0521683 -0.586361 0
-5.30802e-06 -0.0786003 0
-0.245063 -0.848444 0
-0.373751 -0.745505 0
0.291652 -0.602824 0
0.185444 -0.104943 0
0.473078 -0.685829 0
1.18359 -0.643978 0
0.166396 -0.189274 0
0.422385 -0.980023 0
-0.108519 -0.10883 0
0.594717 -0.85061 0
1.46446 -1.51214 0
-2.91772 -3.38797 0
-0.477365 -0.721707 0
-0.481565 -0.937575 0
0.0559167 -0.266493 0
-0.0144579 -0.0704533 0
0.107579 -0.633818 0
0.0300571 -0.189745 0
0.0532646 -0.626368 0
-0.050073 -0.186281 0
-0.0262092 -0.0596902 0
0.0558523 -0.281676 0
-0.0263725 -1.04549 0
0.323986 -0.972557 0
0.0176495 -0.152103 0
-0.0717689 -0.995171 0
-0.0887452 -0.663166 0
0.358559 -1.14012 0
0.00244737 -0.346243 0
1.55839 -3.00459 0
-0.0636483 -0.44971 0
0.132017 -1.62209 0
-0.602659 -1.95551 0
0.454195 -2.84865 0
-0.0498532 -0.530338 0
0.586026 -0.8485 0
-1.06602 -1.33592 0
-0.59796 -0.952256 0
-0.135091 -0.224907 0
-0.269124 -1.35694 0
-0.853015 -1.34584 0
-1.7983 -3.34588 0
-0.155798 -0.705439 0
0.0248405 -0.155108 0
-0.241329 -0.581293 0
0.0262395 -0.188024 0
-0.498155 -1.33857 0
