# vtk DataFile Version 2.0
Unstructured Grid by M++
ASCII
DATASET UNSTRUCTURED_GRID
POINTS 289 float
  0.562500   1.000000 0
  0.562500   0.625000 0
  0.625000   1.000000 0
  0.562500   0.937500 0
  0.562500   0.562500 0
  0.625000   0.937500 0
  0.562500   0.875000 0
  0.625000   0.750000 0
  0.625000   0.625000 0
  0.562500   0.812500 0
  0.562500   0.750000 0
  0.562500   0.687500 0
  0.625000   0.875000 0
  0.625000   0.812500 0
  0.625000   0.687500 0
  0.687500   0.125000 0
  0.875000   0.062500 0
  0.625000   0.125000 0
  0.625000   0.187500 0
  0.625000   0.250000 0
  0.812500   0.187500 0
  1.000000   0.125000 0
  0.687500   0.187500 0
  0.750000   0.125000 0
  0.937500   0.062500 0
  0.937500   0.125000 0
  0.750000   0.187500 0
  0.812500   0.062500 0
  0.812500   0.125000 0
  0.875000   0.687500 0
  0.187500   0.250000 0
  0.437500   0.250000 0
  0.375000   0.187500 0
  0.812500   0.625000 0
  0.125000   0.187500 0
  0.937500   0.750000 0
  0.250000   0.312500 0
  0.500000   0.312500 0
  0.625000   0.062500 0
  0.437500   0.500000 0
  0.375000   0.125000 0
  0.437500   0.187500 0
  0.437500   0.437500 0
  0.437500   0.375000 0
  0.875000   0.875000 0
  0.187500   0.375000 0
  0.687500   0.562500 0
  0.687500   0.625000 0
  0.000000   0.125000 0
  0.937500   0.625000 0
  0.250000   0.125000 0
  0.375000   0.062500 0
  0.375000   0.000000 0
  0.812500   0.500000 0
  0.125000   0.000000 0
  0.937500   0.937500 0
  0.250000   0.437500 0
  0.687500   0.875000 0
  0.687500   0.937500 0
  0.000000   0.437500 0
  0.500000   0.500000 0
  0.500000   0.437500 0
  0.750000   0.937500 0
  0.750000   1.000000 0
  0.062500   0.500000 0
  1.000000   1.000000 0
  0.312500   0.500000 0
  0.875000   0.562500 0
  0.187500   0.062500 0
  0.437500   0.125000 0
  0.437500   0.062500 0
  0.500000   0.375000 0
  0.937500   0.812500 0
  0.937500   0.875000 0
  0.250000   0.375000 0
  0.687500   0.812500 0
  0.000000   0.375000 0
  0.750000   0.562500 0
  0.062500   0.125000 0
  1.000000   0.562500 0
  1.000000   0.625000 0
  0.312500   0.125000 0
  0.562500   0.125000 0
  0.437500   0.000000 0
  0.875000   0.437500 0
  0.875000   0.500000 0
  0.187500   0.000000 0
  0.937500   0.562500 0
  0.937500   0.500000 0
  0.250000   0.062500 0
  0.687500   0.500000 0
  0.000000   0.062500 0
  0.500000   0.062500 0
  1.000000   0.875000 0
  1.000000   0.937500 0
  0.312500   0.437500 0
  0.750000   0.875000 0
  0.062500   0.437500 0
  0.812500   0.937500 0
  0.125000   0.500000 0
  0.375000   0.500000 0
  0.625000   0.562500 0
  0.625000   0.500000 0
  0.437500   0.312500 0
  0.875000   0.812500 0
  0.875000   0.750000 0
  0.187500   0.312500 0
  0.812500   0.687500 0
  0.812500   0.750000 0
  0.125000   0.250000 0
  0.375000   0.250000 0
  1.000000   0.687500 0
  0.312500   0.187500 0
  0.750000   0.687500 0
  0.750000   0.625000 0
  0.062500   0.187500 0
  0.562500   0.250000 0
  0.562500   0.187500 0
  0.375000   1.000000 0
  0.500000   0.562500 0
  0.500000   0.250000 0
  0.750000   0.250000 0
  0.500000   0.125000 0
  0.500000   0.187500 0
  1.000000   0.187500 0
  0.625000   0.375000 0
  0.875000   0.375000 0
  1.000000   0.437500 0
  0.312500   0.000000 0
  0.562500   0.000000 0
  0.812500   0.000000 0
  0.250000   0.687500 0
  0.000000   0.687500 0
  0.500000   1.000000 0
  0.250000   1.000000 0
  0.000000   1.000000 0
  0.437500   0.687500 0
  0.437500   0.625000 0
  0.187500   0.625000 0
  0.687500   0.750000 0
  0.000000   0.312500 0
  0.000000   0.250000 0
  0.375000   0.375000 0
  0.375000   0.312500 0
  0.812500   0.812500 0
  0.125000   0.312500 0
  0.875000   0.625000 0
  0.187500   0.187500 0
  0.187500   0.125000 0
  0.937500   1.000000 0
  0.250000   0.562500 0
  0.250000   0.500000 0
  0.687500   1.000000 0
  0.000000   0.500000 0
  0.687500   0.687500 0
  0.000000   0.187500 0
  0.937500   0.687500 0
  0.250000   0.250000 0
  0.250000   0.187500 0
  0.187500   0.687500 0
  0.000000   0.750000 0
  0.250000   0.750000 0
  0.125000   0.625000 0
  0.750000   0.750000 0
  0.062500   0.250000 0
  0.875000   0.937500 0
  0.187500   0.500000 0
  0.187500   0.437500 0
  0.812500   0.562500 0
  0.125000   0.125000 0
  0.125000   0.062500 0
  0.375000   0.625000 0
  0.375000   0.687500 0
  1.000000   0.750000 0
  0.312500   0.250000 0
  0.312500   0.312500 0
  0.812500   0.312500 0
  0.562500   0.312500 0
  0.375000   0.750000 0
  0.500000   0.625000 0
  0.250000   0.625000 0
  0.312500   0.687500 0
  0.750000   0.812500 0
  0.062500   0.312500 0
  0.062500   0.375000 0
  1.000000   0.812500 0
  0.312500   0.375000 0
  0.562500   0.375000 0
  0.687500   0.437500 0
  0.000000   0.000000 0
  0.500000   0.000000 0
  0.937500   0.437500 0
  0.250000   0.000000 0
  0.375000   0.437500 0
  0.812500   0.875000 0
  0.125000   0.375000 0
  0.125000   0.437500 0
  0.625000   0.437500 0
  1.000000   0.500000 0
  0.312500   0.062500 0
  0.750000   0.500000 0
  0.062500   0.000000 0
  0.062500   0.062500 0
  0.562500   0.062500 0
  0.062500   0.750000 0
  0.312500   0.750000 0
  0.312500   0.625000 0
  0.312500   0.562500 0
  0.062500   0.562500 0
  0.187500   1.000000 0
  0.437500   0.562500 0
  0.875000   1.000000 0
  0.187500   0.562500 0
  0.500000   0.937500 0
  0.250000   0.937500 0
  0.312500   1.000000 0
  0.125000   0.750000 0
  0.125000   0.687500 0
  1.000000   0.000000 0
  0.000000   0.937500 0
  0.000000   0.875000 0
  0.875000   0.125000 0
  0.875000   0.187500 0
  0.062500   0.812500 0
  0.312500   0.812500 0
  0.000000   0.812500 0
  0.000000   0.625000 0
  0.000000   0.562500 0
  0.062500   1.000000 0
  0.062500   0.937500 0
  0.937500   0.187500 0
  0.937500   0.250000 0
  0.062500   0.687500 0
  0.062500   0.625000 0
  0.125000   1.000000 0
  1.000000   0.250000 0
  1.000000   0.312500 0
  0.062500   0.875000 0
  0.125000   0.812500 0
  0.375000   0.812500 0
  0.125000   0.875000 0
  0.375000   0.937500 0
  0.375000   0.875000 0
  0.187500   0.750000 0
  0.187500   0.812500 0
  0.437500   0.812500 0
  0.187500   0.875000 0
  0.437500   0.875000 0
  0.375000   0.562500 0
  0.812500   1.000000 0
  0.125000   0.562500 0
  0.437500   1.000000 0
  0.437500   0.937500 0
  0.187500   0.937500 0
  0.125000   0.937500 0
  0.500000   0.687500 0
  0.500000   0.750000 0
  0.500000   0.812500 0
  0.250000   0.812500 0
  0.250000   0.875000 0
  0.500000   0.875000 0
  0.437500   0.750000 0
  0.312500   0.875000 0
  0.312500   0.937500 0
  0.687500   0.250000 0
  0.687500   0.312500 0
  0.937500   0.312500 0
  0.875000   0.250000 0
  0.625000   0.000000 0
  0.875000   0.000000 0
  0.687500   0.375000 0
  0.937500   0.375000 0
  0.875000   0.312500 0
  0.625000   0.312500 0
  0.687500   0.000000 0
  0.937500   0.000000 0
  0.750000   0.312500 0
  0.750000   0.375000 0
  1.000000   0.375000 0
  0.812500   0.250000 0
  0.562500   0.437500 0
  0.562500   0.500000 0
  0.687500   0.062500 0
  0.750000   0.437500 0
  0.750000   0.000000 0
  0.750000   0.062500 0
  1.000000   0.062500 0
  0.812500   0.375000 0
  0.812500   0.437500 0
CELLS 256 1280
4 169 170 148 68
4 151 166 56 167
4 195 45 196 167
4 54 170 201 202
4 109 34 30 147
4 40 32 81 112
4 192 89 86 68
4 48 91 78 202
4 99 64 196 97
4 71 43 37 103
4 74 186 56 95
4 109 164 34 115
4 50 81 158 112
4 122 69 92 70
4 195 145 45 106
4 110 143 174 175
4 157 30 158 147
4 40 69 32 41
4 50 158 148 147
4 141 155 164 115
4 122 123 69 41
4 142 186 143 175
4 60 39 61 42
4 40 51 69 70
4 120 31 123 41
4 157 174 36 175
4 50 148 89 68
4 48 78 155 115
4 52 83 51 70
4 151 56 66 95
4 71 61 43 42
4 169 148 34 147
4 100 193 39 42
4 40 81 51 199
4 110 174 32 112
4 109 30 145 106
4 100 66 193 95
4 169 34 78 115
4 190 92 83 70
4 50 89 81 199
4 54 86 170 68
4 74 56 45 167
4 142 143 43 103
4 153 59 64 97
4 99 196 166 167
4 169 78 170 202
4 142 193 186 95
4 192 128 89 199
4 74 45 36 106
4 110 31 143 103
4 76 184 59 97
4 142 43 193 42
4 52 51 128 199
4 189 201 91 202
4 120 37 31 103
4 74 36 186 175
4 195 196 184 97
4 141 164 140 183
4 157 158 174 112
4 109 145 164 183
4 195 184 145 183
4 110 32 31 41
4 157 36 30 106
4 76 140 184 183
4 171 172 206 181
4 178 172 261 136
4 256 261 255 136
4 256 257 261 245
4 180 150 206 207
4 60 119 39 210
4 118 215 241 263
4 178 205 172 181
4 216 243 238 244
4 162 217 233 232
4 180 206 131 181
4 179 137 119 210
4 216 204 217 232
4 220 237 219 229
4 216 217 243 159
4 259 258 262 224
4 240 254 237 229
4 153 64 227 208
4 161 205 258 224
4 240 237 238 223
4 226 227 233 208
4 234 228 254 229
4 171 248 137 210
4 160 132 204 232
4 180 131 138 159
4 133 251 213 252
4 171 206 248 207
4 162 138 217 159
4 161 258 243 244
4 220 225 237 223
4 151 150 166 212
4 260 247 257 245
4 259 262 214 263
4 151 66 150 207
4 234 254 209 253
4 162 233 250 208
4 242 241 262 263
4 171 137 172 136
4 161 243 131 159
4 160 204 225 223
4 161 131 205 181
4 179 255 137 136
4 216 238 204 223
4 100 39 248 210
4 260 213 247 252
4 226 233 132 232
4 134 214 215 263
4 180 138 150 212
4 178 261 239 245
4 259 246 258 244
4 178 239 205 224
4 240 238 246 244
4 242 262 239 224
4 99 250 64 208
4 240 246 254 253
4 242 239 247 245
4 135 219 228 229
4 99 166 250 212
4 259 214 246 253
4 118 241 251 252
4 100 248 66 207
4 134 209 214 253
4 162 250 138 212
4 242 247 241 252
4 71 187 61 280
4 102 281 197 280
4 122 92 82 203
4 17 18 82 117
4 122 82 123 117
4 19 264 273 265
4 267 279 222 20
4 125 273 270 265
4 267 272 279 176
4 19 116 18 117
4 21 25 286 24
4 23 28 26 20
4 23 285 28 27
4 218 286 275 24
4 85 53 84 288
4 235 236 231 266
4 221 222 28 20
4 267 222 231 230
4 268 38 129 203
4 125 270 197 188
4 126 287 272 176
4 277 270 276 265
4 267 231 272 266
4 125 197 187 280
4 190 129 92 203
4 277 276 287 176
4 19 18 264 22
4 17 82 38 203
4 102 197 90 188
4 126 84 287 288
4 284 130 285 27
4 121 276 264 265
4 71 37 187 177
4 120 123 116 117
4 198 88 127 191
4 221 16 25 24
4 23 26 15 22
4 121 279 276 176
4 235 231 124 230
4 125 187 273 177
4 278 271 236 266
4 277 287 283 288
4 284 285 274 282
4 278 127 271 191
4 269 275 16 24
4 200 283 53 288
4 23 15 285 282
4 121 26 279 20
4 21 124 25 230
4 19 273 116 177
4 200 90 283 188
4 126 271 84 191
4 269 16 130 27
4 17 38 15 282
4 221 25 222 230
4 121 264 26 22
4 120 116 37 177
4 60 61 281 280
4 277 283 270 188
4 126 272 271 266
4 268 274 38 282
4 85 84 88 191
4 17 15 18 22
4 221 28 16 27
4 93 94 73 55
4 85 88 67 87
4 80 49 79 87
4 44 104 73 72
4 146 33 67 168
4 211 165 149 55
4 8 47 14 154
4 105 104 108 144
4 105 108 29 107
4 7 139 13 75
4 44 165 194 98
4 200 53 77 168
4 8 1 101 4
4 2 5 152 58
4 260 6 213 3
4 105 35 104 72
4 96 57 182 75
4 7 14 139 154
4 146 29 33 107
4 7 13 10 9
4 12 13 57 75
4 85 67 53 168
4 44 73 165 55
4 63 152 62 58
4 8 101 47 46
4 96 182 194 144
4 60 281 119 4
4 12 5 6 3
4 173 185 35 72
4 65 149 94 55
4 146 67 49 87
4 114 113 47 154
4 163 108 182 144
4 12 6 13 9
4 173 35 111 156
4 163 182 139 75
4 260 257 6 9
4 105 29 35 156
4 163 139 113 154
4 256 10 257 9
4 146 49 29 156
4 163 113 108 107
4 80 111 49 156
4 102 101 281 4
4 12 57 5 58
4 44 194 104 144
4 96 194 62 98
4 2 0 5 3
4 93 73 185 72
4 179 119 1 4
4 200 77 90 46
4 114 33 113 107
4 7 10 14 11
4 96 62 57 58
4 133 213 0 3
4 102 90 101 46
4 256 255 10 11
4 63 62 249 98
4 114 47 77 46
4 179 1 255 11
4 211 249 165 98
4 114 77 33 168
4 198 79 88 87
4 8 14 1 11
CELL_TYPES 256
8
8
8
8
8
8
8
8
8
8
8
8
8
8
8
8
8
8
8
8
8
8
8
8
8
8
8
8
8
8
8
8
8
8
8
8
8
8
8
8
8
8
8
8
8
8
8
8
8
8
8
8
8
8
8
8
8
8
8
8
8
8
8
8
8
8
8
8
8
8
8
8
8
8
8
8
8
8
8
8
8
8
8
8
8
8
8
8
8
8
8
8
8
8
8
8
8
8
8
8
8
8
8
8
8
8
8
8
8
8
8
8
8
8
8
8
8
8
8
8
8
8
8
8
8
8
8
8
8
8
8
8
8
8
8
8
8
8
8
8
8
8
8
8
8
8
8
8
8
8
8
8
8
8
8
8
8
8
8
8
8
8
8
8
8
8
8
8
8
8
8
8
8
8
8
8
8
8
8
8
8
8
8
8
8
8
8
8
8
8
8
8
8
8
8
8
8
8
8
8
8
8
8
8
8
8
8
8
8
8
8
8
8
8
8
8
8
8
8
8
8
8
8
8
8
8
8
8
8
8
8
8
8
8
8
8
8
8
8
8
8
8
8
8
8
8
8
8
8
8
8
8
8
8
8
8
CELL_DATA 256
VECTORS vector_value float
-0.00511779 -1.24276 0
-0.592584 -2.38636 0
-0.312653 -3.58358 0
-0.101433 -1.996 0
-0.361084 -1.52394 0
0.0900286 -0.0708243 0
0.000990626 -0.273793 0
-0.354703 -2.94384 0
0.613176 -1.52963 0
1.54866 -0.894569 0
0.441429 -0.867138 0
-0.615684 -3.31246 0
0.0621805 -0.0677053 0
0.110838 -0.295211 0
-0.771913 -3.44628 0
0.301632 -0.128627 0
0.00176516 -0.569774 0
0.103621 -0.13285 0
-0.00808912 -0.380941 0
-0.221898 -1.93029 0
0.103614 -0.321513 0
0.725554 -0.323528 0
0.0320528 -0.810591 0
0.0659436 -0.131401 0
0.189301 -0.323452 0
0.209259 -0.175316 0
0.00232284 -0.282858 0
-0.326112 -2.20547 0
0.00840628 -0.0949438 0
-0.518977 -1.2495 0
0.579226 -1.04297 0
-0.0782696 -1.11569 0
0.0586946 -0.697167 0
0.0258409 -0.028646 0
0.169978 -0.102899 0
-1.00062 -2.94695 0
-0.198115 -0.723817 0
-0.396334 -3.55158 0
0.0284003 -0.227012 0
0.0209481 -0.06748 0
-0.00404209 -1.21897 0
-0.101601 -2.27609 0
1.35008 -0.635205 0
0.201916 -0.611945 0
0.147619 -3.29831 0
-0.40746 -2.73972 0
0.835219 -0.721964 0
0.00267993 -0.0592732 0
-0.217806 -1.64314 0
0.435019 -0.230943 0
0.0112686 -0.428289 0
0.601364 -0.552586 0
0.00464549 -0.0275568 0
-0.17219 -3.71248 0
0.795387 -0.553655 0
0.426755 -0.390514 0
-0.143278 -1.65372 0
-0.370847 -1.22805 0
0.119462 -0.0973879 0
-1.14289 -2.53975 0
-0.65748 -2.00486 0
0.15769 -0.120811 0
0.00724699 -0.765261 0
-0.196318 -0.635044 0
-0.37425 -1.44621 0
-0.463787 -0.592467 0
-0.789879 -0.82386 0
-0.356586 -0.505333 0
-0.674256 -1.33479 0
-0.185122 -0.696567 0
-0.898559 -1.14937 0
-0.0920721 -0.88112 0
-0.40037 -0.982738 0
-0.0422722 -1.59531 0
-0.178965 -1.1898 0
-0.544509 -0.928331 0
-0.265035 -1.46536 0
-0.0609054 -0.959716 0
-0.304685 -0.990203 0
-0.628737 -2.02546 0
-0.108611 -1.39365 0
0.329317 -1.18883 0
-0.0865474 -1.70818 0
-0.407091 -1.39933 0
0.249616 -1.93608 0
-0.1408 -1.35995 0
-0.682527 -0.899069 0
-0.132782 -1.97543 0
-0.180815 -1.02568 0
-0.415073 -0.618358 0
-0.797238 -1.59496 0
-0.147175 -1.01658 0
-0.33721 -1.4029 0
-0.173526 -1.16383 0
-0.559687 -2.12915 0
-0.0963355 -0.266292 0
-0.693915 -1.94393 0
-0.810449 -1.37215 0
-0.0929005 -0.467854 0
0.304466 -1.58691 0
-0.858865 -1.39744 0
-0.632955 -0.756298 0
-0.22846 -1.18862 0
-0.194055 -1.58702 0
-0.0235707 -1.38756 0
-0.788145 -1.01702 0
-0.393322 -1.45887 0
-0.310159 -0.928549 0
-0.203623 -0.343892 0
-0.00661954 -2.13756 0
-0.39773 -1.63704 0
-0.254788 -1.31326 0
-0.116171 -0.38004 0
-0.71065 -1.39483 0
-0.00682233 -0.598423 0
-0.526173 -0.978569 0
-0.171572 -0.816671 0
0.676666 -1.84351 0
-0.268773 -0.741733 0
-0.0475987 -0.246566 0
0.0328992 -0.939454 0
0.199617 -1.89315 0
-0.447069 -1.06224 0
-0.928403 -0.799191 0
-0.528925 -1.12329 0
0.0622513 -1.09713 0
0.107902 -1.30947 0
-0.433364 -0.36973 0
0.48748 -0.965154 0
0.409411 -1.72037 0
0.133278 -0.275032 0
0.100297 -0.272386 0
0.13126 -0.339711 0
1.82094 -0.748077 0
1.0358 -1.03276 0
2.59998 -1.09567 0
1.72773 -1.05491 0
0.281791 -0.241785 0
-0.10499 -3.12154 0
0.397564 -0.654483 0
0.08781 -0.516937 0
-0.0435826 -2.73022 0
0.0308919 -0.05778 0
0.262491 -0.937602 0
0.830611 -0.890804 0
1.13226 -1.49922 0
0.0799225 -0.338498 0
0.922162 -1.31761 0
0.927039 -0.379832 0
2.46016 -1.22369 0
0.781076 -0.850543 0
0.774123 -1.24744 0
0.0584757 -0.285354 0
1.67942 -0.671446 0
0.421724 -0.610986 0
0.141557 -0.390558 0
0.366358 -0.982157 0
0.208277 -0.119705 0
-0.112672 -0.57892 0
2.15388 -1.44782 0
1.70538 -0.901533 0
0.25019 -0.406828 0
-0.0343078 -0.32606 0
-0.0399906 -1.88919 0
0.1293 -0.907291 0
2.14939 -1.28273 0
0.510818 -1.84985 0
2.09268 -0.804667 0
0.139513 -0.424996 0
0.241542 -0.137706 0
0.0582265 -0.891557 0
0.0188768 -0.289589 0
-0.0981094 -2.17685 0
0.0393374 -0.0504099 0
0.035778 -0.613715 0
0.906579 -1.14561 0
0.425321 -2.71997 0
1.58815 -0.442283 0
0.112095 -0.217083 0
0.0941832 -0.259435 0
-0.0820491 -0.756083 0
0.0559674 -0.669523 0
0.990115 -1.82504 0
0.614527 -1.23195 0
1.30068 -0.667487 0
0.111265 -1.17644 0
0.495221 -0.537027 0
0.538923 -0.525031 0
0.153235 -0.632492 0
-0.0198929 -0.162371 0
0.0283976 -0.54374 0
0.0966245 -0.79159 0
-0.116364 -0.41316 0
-0.00285509 -0.0917665 0
0.00946348 -0.396761 0
-0.230898 -0.396524 0
0.0108735 -0.039058 0
-0.601251 -1.02178 0
-0.715992 -1.11651 0
-0.190561 -0.313413 0
-0.0160311 -0.116526 0
-1.6618 -1.5742 0
-0.62377 -0.991374 0
0.018824 -0.0490459 0
-0.155613 -2.21162 0
0.694377 -1.06812 0
-0.0958209 -0.391353 0
-0.0196957 -0.247984 0
-1.08987 -2.34926 0
-1.62117 -1.8336 0
0.0215743 -0.0502549 0
-1.25334 -1.28369 0
-0.936337 -1.33826 0
0.0170088 -0.0406196 0
-0.359363 -0.641275 0
0.145828 -1.69588 0
-0.0140155 -0.568999 0
-0.93049 -1.23788 0
-0.0687656 -1.48395 0
-0.13095 -0.629247 0
0.0131624 -0.162081 0
-0.246302 -0.744569 0
0.0110724 -0.0562013 0
-0.122602 -0.243108 0
-0.677409 -0.769533 0
-0.581732 -0.804042 0
0.062382 -0.218669 0
-1.59172 -2.0427 0
-0.284603 -0.6022 0
0.0877869 -0.171262 0
-0.760973 -0.86532 0
-0.73053 -0.9829 0
0.0389327 -0.0792889 0
-0.215096 -0.287173 0
0.0288619 -0.346295 0
0.150381 -1.98332 0
-0.256649 -1.15951 0
-0.592593 -0.765505 0
-0.662177 -1.44148 0
0.560467 -0.72394 0
-0.054137 -0.214779 0
-0.349288 -1.62552 0
0.0206771 -0.122804 0
-0.00918724 -0.0807135 0
-1.39039 -1.73857 0
-0.460774 -2.12027 0
0.120956 -0.638259 0
0.118241 -0.673535 0
-1.10765 -1.46426 0
-0.491809 -1.13958 0
-0.00219424 -0.151432 0
-0.905268 -1.51946 0
-0.629999 -0.899509 0
0.0122045 -0.0475533 0
-0.0133611 -0.379761 0
-1.21807 -2.37991 0
