# vtk DataFile Version 2.0
Unstructured Grid by M++
ASCII
DATASET UNSTRUCTURED_GRID
POINTS 289 float
  0.562500   1.000000 0
  0.562500   0.625000 0
  0.625000   1.000000 0
  0.562500   0.937500 0
  0.562500   0.562500 0
  0.625000   0.937500 0
  0.562500   0.875000 0
  0.625000   0.750000 0
  0.625000   0.625000 0
  0.562500   0.812500 0
  0.562500   0.750000 0
  0.562500   0.687500 0
  0.625000   0.875000 0
  0.625000   0.812500 0
  0.625000   0.687500 0
  0.687500   0.125000 0
  0.875000   0.062500 0
  0.625000   0.125000 0
  0.625000   0.187500 0
  0.625000   0.250000 0
  0.812500   0.187500 0
  1.000000   0.125000 0
  0.687500   0.187500 0
  0.750000   0.125000 0
  0.937500   0.062500 0
  0.937500   0.125000 0
  0.750000   0.187500 0
  0.812500   0.062500 0
  0.812500   0.125000 0
  0.875000   0.687500 0
  0.187500   0.250000 0
  0.437500   0.250000 0
  0.375000   0.187500 0
  0.812500   0.625000 0
  0.125000   0.187500 0
  0.937500   0.750000 0
  0.250000   0.312500 0
  0.500000   0.312500 0
  0.625000   0.062500 0
  0.437500   0.500000 0
  0.375000   0.125000 0
  0.437500   0.187500 0
  0.437500   0.437500 0
  0.437500   0.375000 0
  0.875000   0.875000 0
  0.187500   0.375000 0
  0.687500   0.562500 0
  0.687500   0.625000 0
  0.000000   0.125000 0
  0.937500   0.625000 0
  0.250000   0.125000 0
  0.375000   0.062500 0
  0.375000   0.000000 0
  0.812500   0.500000 0
  0.125000   0.000000 0
  0.937500   0.937500 0
  0.250000   0.437500 0
  0.687500   0.875000 0
  0.687500   0.937500 0
  0.000000   0.437500 0
  0.500000   0.500000 0
  0.500000   0.437500 0
  0.750000   0.937500 0
  0.750000   1.000000 0
  0.062500   0.500000 0
  1.000000   1.000000 0
  0.312500   0.500000 0
  0.875000   0.562500 0
  0.187500   0.062500 0
  0.437500   0.125000 0
  0.437500   0.062500 0
  0.500000   0.375000 0
  0.937500   0.812500 0
  0.937500   0.875000 0
  0.250000   0.375000 0
  0.687500   0.812500 0
  0.000000   0.375000 0
  0.750000   0.562500 0
  0.062500   0.125000 0
  1.000000   0.562500 0
  1.000000   0.625000 0
  0.312500   0.125000 0
  0.562500   0.125000 0
  0.437500   0.000000 0
  0.875000   0.437500 0
  0.875000   0.500000 0
  0.187500   0.000000 0
  0.937500   0.562500 0
  0.937500   0.500000 0
  0.250000   0.062500 0
  0.687500   0.500000 0
  0.000000   0.062500 0
  0.500000   0.062500 0
  1.000000   0.875000 0
  1.000000   0.937500 0
  0.312500   0.437500 0
  0.750000   0.875000 0
  0.062500   0.437500 0
  0.812500   0.937500 0
  0.125000   0.500000 0
  0.375000   0.500000 0
  0.625000   0.562500 0
  0.625000   0.500000 0
  0.437500   0.312500 0
  0.875000   0.812500 0
  0.875000   0.750000 0
  0.187500   0.312500 0
  0.812500   0.687500 0
  0.812500   0.750000 0
  0.125000   0.250000 0
  0.375000   0.250000 0
  1.000000   0.687500 0
  0.312500   0.187500 0
  0.750000   0.687500 0
  0.750000   0.625000 0
  0.062500   0.187500 0
  0.562500   0.250000 0
  0.562500   0.187500 0
  0.375000   1.000000 0
  0.500000   0.562500 0
  0.500000   0.250000 0
  0.750000   0.250000 0
  0.500000   0.125000 0
  0.500000   0.187500 0
  1.000000   0.187500 0
  0.625000   0.375000 0
  0.875000   0.375000 0
  1.000000   0.437500 0
  0.312500   0.000000 0
  0.562500   0.000000 0
  0.812500   0.000000 0
  0.250000   0.687500 0
  0.000000   0.687500 0
  0.500000   1.000000 0
  0.250000   1.000000 0
  0.000000   1.000000 0
  0.437500   0.687500 0
  0.437500   0.625000 0
  0.187500   0.625000 0
  0.687500   0.750000 0
  0.000000   0.312500 0
  0.000000   0.250000 0
  0.375000   0.375000 0
  0.375000   0.312500 0
  0.812500   0.812500 0
  0.125000   0.312500 0
  0.875000   0.625000 0
  0.187500   0.187500 0
  0.187500   0.125000 0
  0.937500   1.000000 0
  0.250000   0.562500 0
  0.250000   0.500000 0
  0.687500   1.000000 0
  0.000000   0.500000 0
  0.687500   0.687500 0
  0.000000   0.187500 0
  0.937500   0.687500 0
  0.250000   0.250000 0
  0.250000   0.187500 0
  0.187500   0.687500 0
  0.000000   0.750000 0
  0.250000   0.750000 0
  0.125000   0.625000 0
  0.750000   0.750000 0
  0.062500   0.250000 0
  0.875000   0.937500 0
  0.187500   0.500000 0
  0.187500   0.437500 0
  0.812500   0.562500 0
  0.125000   0.125000 0
  0.125000   0.062500 0
  0.375000   0.625000 0
  0.375000   0.687500 0
  1.000000   0.750000 0
  0.312500   0.250000 0
  0.312500   0.312500 0
  0.812500   0.312500 0
  0.562500   0.312500 0
  0.375000   0.750000 0
  0.500000   0.625000 0
  0.250000   0.625000 0
  0.312500   0.687500 0
  0.750000   0.812500 0
  0.062500   0.312500 0
  0.062500   0.375000 0
  1.000000   0.812500 0
  0.312500   0.375000 0
  0.562500   0.375000 0
  0.687500   0.437500 0
  0.000000   0.000000 0
  0.500000   0.000000 0
  0.937500   0.437500 0
  0.250000   0.000000 0
  0.375000   0.437500 0
  0.812500   0.875000 0
  0.125000   0.375000 0
  0.125000   0.437500 0
  0.625000   0.437500 0
  1.000000   0.500000 0
  0.312500   0.062500 0
  0.750000   0.500000 0
  0.062500   0.000000 0
  0.062500   0.062500 0
  0.562500   0.062500 0
  0.062500   0.750000 0
  0.312500   0.750000 0
  0.312500   0.625000 0
  0.312500   0.562500 0
  0.062500   0.562500 0
  0.187500   1.000000 0
  0.437500   0.562500 0
  0.875000   1.000000 0
  0.187500   0.562500 0
  0.500000   0.937500 0
  0.250000   0.937500 0
  0.312500   1.000000 0
  0.125000   0.750000 0
  0.125000   0.687500 0
  1.000000   0.000000 0
  0.000000   0.937500 0
  0.000000   0.875000 0
  0.875000   0.125000 0
  0.875000   0.187500 0
  0.062500   0.812500 0
  0.312500   0.812500 0
  0.000000   0.812500 0
  0.000000   0.625000 0
  0.000000   0.562500 0
  0.062500   1.000000 0
  0.062500   0.937500 0
  0.937500   0.187500 0
  0.937500   0.250000 0
  0.062500   0.687500 0
  0.062500   0.625000 0
  0.125000   1.000000 0
  1.000000   0.250000 0
  1.000000   0.312500 0
  0.062500   0.875000 0
  0.125000   0.812500 0
  0.375000   0.812500 0
  0.125000   0.875000 0
  0.375000   0.937500 0
  0.375000   0.875000 0
  0.187500   0.750000 0
  0.187500   0.812500 0
  0.437500   0.812500 0
  0.187500   0.875000 0
  0.437500   0.875000 0
  0.375000   0.562500 0
  0.812500   1.000000 0
  0.125000   0.562500 0
  0.437500   1.000000 0
  0.437500   0.937500 0
  0.187500   0.937500 0
  0.125000   0.937500 0
  0.500000   0.687500 0
  0.500000   0.750000 0
  0.500000   0.812500 0
  0.250000   0.812500 0
  0.250000   0.875000 0
  0.500000   0.875000 0
  0.437500   0.750000 0
  0.312500   0.875000 0
  0.312500   0.937500 0
  0.687500   0.250000 0
  0.687500   0.312500 0
  0.937500   0.312500 0
  0.875000   0.250000 0
  0.625000   0.000000 0
  0.875000   0.000000 0
  0.687500   0.375000 0
  0.937500   0.375000 0
  0.875000   0.312500 0
  0.625000   0.312500 0
  0.687500   0.000000 0
  0.937500   0.000000 0
  0.750000   0.312500 0
  0.750000   0.375000 0
  1.000000   0.375000 0
  0.812500   0.250000 0
  0.562500   0.437500 0
  0.562500   0.500000 0
  0.687500   0.062500 0
  0.750000   0.437500 0
  0.750000   0.000000 0
  0.750000   0.062500 0
  1.000000   0.062500 0
  0.812500   0.375000 0
  0.812500   0.437500 0
CELLS 256 1280
4 169 170 148 68
4 151 166 56 167
4 195 45 196 167
4 54 170 201 202
4 109 34 30 147
4 40 32 81 112
4 192 89 86 68
4 48 91 78 202
4 99 64 196 97
4 71 43 37 103
4 74 186 56 95
4 109 164 34 115
4 50 81 158 112
4 122 69 92 70
4 195 145 45 106
4 110 143 174 175
4 157 30 158 147
4 40 69 32 41
4 50 158 148 147
4 141 155 164 115
4 122 123 69 41
4 142 186 143 175
4 60 39 61 42
4 40 51 69 70
4 120 31 123 41
4 157 174 36 175
4 50 148 89 68
4 48 78 155 115
4 52 83 51 70
4 151 56 66 95
4 71 61 43 42
4 169 148 34 147
4 100 193 39 42
4 40 81 51 199
4 110 174 32 112
4 109 30 145 106
4 100 66 193 95
4 169 34 78 115
4 190 92 83 70
4 50 89 81 199
4 54 86 170 68
4 74 56 45 167
4 142 143 43 103
4 153 59 64 97
4 99 196 166 167
4 169 78 170 202
4 142 193 186 95
4 192 128 89 199
4 74 45 36 106
4 110 31 143 103
4 76 184 59 97
4 142 43 193 42
4 52 51 128 199
4 189 201 91 202
4 120 37 31 103
4 74 36 186 175
4 195 196 184 97
4 141 164 140 183
4 157 158 174 112
4 109 145 164 183
4 195 184 145 183
4 110 32 31 41
4 157 36 30 106
4 76 140 184 183
4 171 172 206 181
4 178 172 261 136
4 256 261 255 136
4 256 257 261 245
4 180 150 206 207
4 60 119 39 210
4 118 215 241 263
4 178 205 172 181
4 216 243 238 244
4 162 217 233 232
4 180 206 131 181
4 179 137 119 210
4 216 204 217 232
4 220 237 219 229
4 216 217 243 159
4 259 258 262 224
4 240 254 237 229
4 153 64 227 208
4 161 205 258 224
4 240 237 238 223
4 226 227 233 208
4 234 228 254 229
4 171 248 137 210
4 160 132 204 232
4 180 131 138 159
4 133 251 213 252
4 171 206 248 207
4 162 138 217 159
4 161 258 243 244
4 220 225 237 223
4 151 150 166 212
4 260 247 257 245
4 259 262 214 263
4 151 66 150 207
4 234 254 209 253
4 162 233 250 208
4 242 241 262 263
4 171 137 172 136
4 161 243 131 159
4 160 204 225 223
4 161 131 205 181
4 179 255 137 136
4 216 238 204 223
4 100 39 248 210
4 260 213 247 252
4 226 233 132 232
4 134 214 215 263
4 180 138 150 212
4 178 261 239 245
4 259 246 258 244
4 178 239 205 224
4 240 238 246 244
4 242 262 239 224
4 99 250 64 208
4 240 246 254 253
4 242 239 247 245
4 135 219 228 229
4 99 166 250 212
4 259 214 246 253
4 118 241 251 252
4 100 248 66 207
4 134 209 214 253
4 162 250 138 212
4 242 247 241 252
4 71 187 61 280
4 102 281 197 280
4 122 92 82 203
4 17 18 82 117
4 122 82 123 117
4 19 264 273 265
4 267 279 222 20
4 125 273 270 265
4 267 272 279 176
4 19 116 18 117
4 21 25 286 24
4 23 28 26 20
4 23 285 28 27
4 218 286 275 24
4 85 53 84 288
4 235 236 231 266
4 221 222 28 20
4 267 222 231 230
4 268 38 129 203
4 125 270 197 188
4 126 287 272 176
4 277 270 276 265
4 267 231 272 266
4 125 197 187 280
4 190 129 92 203
4 277 276 287 176
4 19 18 264 22
4 17 82 38 203
4 102 197 90 188
4 126 84 287 288
4 284 130 285 27
4 121 276 264 265
4 71 37 187 177
4 120 123 116 117
4 198 88 127 191
4 221 16 25 24
4 23 26 15 22
4 121 279 276 176
4 235 231 124 230
4 125 187 273 177
4 278 271 236 266
4 277 287 283 288
4 284 285 274 282
4 278 127 271 191
4 269 275 16 24
4 200 283 53 288
4 23 15 285 282
4 121 26 279 20
4 21 124 25 230
4 19 273 116 177
4 200 90 283 188
4 126 271 84 191
4 269 16 130 27
4 17 38 15 282
4 221 25 222 230
4 121 264 26 22
4 120 116 37 177
4 60 61 281 280
4 277 283 270 188
4 126 272 271 266
4 268 274 38 282
4 85 84 88 191
4 17 15 18 22
4 221 28 16 27
4 93 94 73 55
4 85 88 67 87
4 80 49 79 87
4 44 104 73 72
4 146 33 67 168
4 211 165 149 55
4 8 47 14 154
4 105 104 108 144
4 105 108 29 107
4 7 139 13 75
4 44 165 194 98
4 200 53 77 168
4 8 1 101 4
4 2 5 152 58
4 260 6 213 3
4 105 35 104 72
4 96 57 182 75
4 7 14 139 154
4 146 29 33 107
4 7 13 10 9
4 12 13 57 75
4 85 67 53 168
4 44 73 165 55
4 63 152 62 58
4 8 101 47 46
4 96 182 194 144
4 60 281 119 4
4 12 5 6 3
4 173 185 35 72
4 65 149 94 55
4 146 67 49 87
4 114 113 47 154
4 163 108 182 144
4 12 6 13 9
4 173 35 111 156
4 163 182 139 75
4 260 257 6 9
4 105 29 35 156
4 163 139 113 154
4 256 10 257 9
4 146 49 29 156
4 163 113 108 107
4 80 111 49 156
4 102 101 281 4
4 12 57 5 58
4 44 194 104 144
4 96 194 62 98
4 2 0 5 3
4 93 73 185 72
4 179 119 1 4
4 200 77 90 46
4 114 33 113 107
4 7 10 14 11
4 96 62 57 58
4 133 213 0 3
4 102 90 101 46
4 256 255 10 11
4 63 62 249 98
4 114 47 77 46
4 179 1 255 11
4 211 249 165 98
4 114 77 33 168
4 198 79 88 87
4 8 14 1 11
CELL_TYPES 256
8
8
8
8
8
8
8
8
8
8
8
8
8
8
8
8
8
8
8
8
8
8
8
8
8
8
8
8
8
8
8
8
8
8
8
8
8
8
8
8
8
8
8
8
8
8
8
8
8
8
8
8
8
8
8
8
8
8
8
8
8
8
8
8
8
8
8
8
8
8
8
8
8
8
8
8
8
8
8
8
8
8
8
8
8
8
8
8
8
8
8
8
8
8
8
8
8
8
8
8
8
8
8
8
8
8
8
8
8
8
8
8
8
8
8
8
8
8
8
8
8
8
8
8
8
8
8
8
8
8
8
8
8
8
8
8
8
8
8
8
8
8
8
8
8
8
8
8
8
8
8
8
8
8
8
8
8
8
8
8
8
8
8
8
8
8
8
8
8
8
8
8
8
8
8
8
8
8
8
8
8
8
8
8
8
8
8
8
8
8
8
8
8
8
8
8
8
8
8
8
8
8
8
8
8
8
8
8
8
8
8
8
8
8
8
8
8
8
8
8
8
8
8
8
8
8
8
8
8
8
8
8
8
8
8
8
8
8
8
8
8
8
8
8
8
8
8
8
8
8
8
8
8
8
8
8
CELL_DATA 256
VECTORS vector_value float
-0.159479 -0.139283 0
0.00372627 -0.185545 0
0.173549 -0.246033 0
-0.0340824 -0.286785 0
-0.0107962 -0.046969 0
-0.0686969 -0.701844 0
-0.0204245 -0.144568 0
-0.0206569 -0.0850537 0
0.104185 -0.216219 0
0.0283101 -2.45432 0
0.0343789 -0.449131 0
-0.0073201 -0.0362249 0
-0.192058 -0.314694 0
0.253325 -1.93572 0
0.0730076 -0.124152 0
0.241504 -0.828612 0
-0.0340847 -0.174283 0
-0.022931 -2.17436 0
-0.209792 -0.19835 0
-0.0031525 -0.0388225 0
0.261869 -2.40501 0
-0.000228332 -0.608009 0
1.66411 -2.61972 0
0.0859106 -2.06461 0
-0.378 -2.73504 0
0.258761 -0.433547 0
-0.143744 -0.239467 0
-0.00988004 -0.0508104 0
0.0327893 -1.76019 0
-0.0688313 -0.352433 0
0.762615 -2.81652 0
-0.165702 -0.119933 0
1.21421 -2.57404 0
-0.101824 -0.649167 0
0.0464825 -0.888807 0
0.0138042 -0.0583774 0
0.068984 -0.711884 0
-0.058512 -0.0844854 0
0.0978144 -1.94122 0
-0.0872982 -0.206754 0
-0.0519764 -0.152438 0
0.110413 -0.275387 0
0.00319382 -0.752 0
0.0313012 -0.099003 0
0.0743284 -0.187661 0
-0.109805 -0.208893 0
-0.0203786 -0.447388 0
-0.0474461 -0.328238 0
0.164468 -0.373843 0
-0.357914 -1.516 0
0.0133619 -0.0568023 0
0.127502 -1.10992 0
-0.032105 -0.552936 0
-0.00698117 -0.113598 0
-0.771587 -2.40334 0
0.110931 -0.504314 0
0.0716131 -0.123435 0
-0.000127066 -0.033815 0
-0.0255878 -0.365339 0
0.00113024 -0.0368604 0
0.0212528 -0.0571024 0
-0.098541 -1.95072 0
0.0911033 -0.226158 0
0.00426089 -0.0397671 0
0.63642 -1.80097 0
0.349877 -3.72259 0
-0.298014 -1.51445 0
-0.482428 -1.39643 0
0.079517 -0.447908 0
1.5889 -2.69675 0
0.159333 -1.58365 0
0.867513 -2.4969 0
0.211111 -0.247679 0
0.0644595 -0.273607 0
0.162917 -0.419518 0
0.91999 -2.54153 0
0.0621807 -0.253541 0
0.109352 -0.772258 0
0.094177 -0.11087 0
0.887691 -1.08596 0
0.290074 -0.544421 0
0.0317091 -0.165647 0
0.658155 -0.872399 0
0.23637 -0.388278 0
0.0456943 -0.23633 0
0.322878 -0.73842 0
0.458198 -4.36377 0
0.0330846 -0.398578 0
0.073936 -0.129825 0
-0.0998429 -1.07366 0
-0.00789663 -1.66564 0
0.0557604 -0.0800297 0
0.468089 -0.561457 0
0.0915256 -0.568431 0
0.0142501 -0.145919 0
-0.30948 -0.956496 0
0.566385 -0.999237 0
0.0412479 -0.407351 0
0.723005 -0.792912 0
0.10761 -0.252685 0
0.454131 -1.96581 0
0.852562 -4.78142 0
0.252261 -0.232336 0
0.0285768 -0.431589 0
0.64152 -0.833886 0
0.142856 -2.16199 0
0.0994067 -0.320866 0
1.27004 -3.14159 0
-0.173499 -1.09646 0
0.0312811 -0.316032 0
0.610301 -0.995808 0
0.10514 -0.123272 0
0.101309 -2.46318 0
0.664409 -0.894556 0
0.755672 -2.76998 0
0.436035 -0.498489 0
0.624427 -2.09258 0
0.0658874 -0.231239 0
0.372819 -0.553119 0
0.124268 -1.93848 0
0.062688 -0.958436 0
0.0550007 -0.103905 0
0.599375 -1.308 0
-0.176039 -0.701873 0
0.569216 -1.77604 0
0.732364 -1.25282 0
0.120092 -0.0950101 0
0.0823715 -0.970683 0
0.925924 -2.71073 0
1.12493 -1.01477 0
0.209146 -1.32603 0
0.349521 -0.457935 0
0.484124 -1.18187 0
0.386084 -0.366308 0
-0.402781 -1.38706 0
0.396008 -0.242844 0
-0.228732 -1.74749 0
0.24415 -0.32483 0
-0.0226241 -1.78876 0
-0.518768 -1.01606 0
0.15744 -1.16971 0
-0.0244996 -1.6971 0
0.504576 -1.90756 0
0.101019 -1.33379 0
-0.27532 -0.678574 0
0.0515468 -1.7328 0
-0.0206272 -0.745799 0
0.780832 -0.470211 0
0.126317 -2.13521 0
0.514907 -0.597774 0
0.0990873 -2.09956 0
0.626705 -1.08856 0
0.0321743 -1.6359 0
0.313259 -0.821514 0
0.265182 -0.554962 0
0.0514424 -0.779459 0
0.714586 -0.401737 0
0.576156 -1.90053 0
0.10255 -1.32278 0
0.0347886 -0.880414 0
0.156502 -2.53114 0
-0.060398 -1.3987 0
0.0270085 -0.711562 0
-0.038678 -1.38368 0
-0.326931 -2.53499 0
-0.507904 -1.22347 0
0.0880513 -1.61232 0
0.427676 -1.40648 0
0.195561 -1.20103 0
0.643402 -0.691486 0
0.0190386 -1.97643 0
0.0843291 -0.793954 0
-0.0323482 -1.4527 0
0.598326 -0.658093 0
0.0469878 -2.48004 0
-0.576611 -0.968554 0
0.0577226 -1.69924 0
0.130181 -0.701249 0
0.557615 -0.317118 0
0.410312 -2.34181 0
0.0506407 -0.74748 0
-0.112176 -0.99736 0
-0.0110864 -1.60929 0
-0.289609 -1.78457 0
-0.510207 -2.11101 0
1.39054 -2.21862 0
0.727591 -0.478096 0
0.238714 -2.15051 0
-0.0284097 -1.14185 0
0.204669 -1.82404 0
0.0636561 -0.772549 0
0.0105443 -0.546012 0
-0.0033423 -0.34431 0
0.203354 -1.54754 0
-0.00600915 -0.695834 0
0.0713865 -0.35152 0
0.448775 -1.17184 0
-0.691959 -1.19559 0
-0.0234115 -0.401299 0
0.139671 -1.43313 0
0.0993151 -1.36664 0
-0.597708 -0.731148 0
-0.33708 -2.04128 0
0.405658 -0.767802 0
0.138893 -0.282715 0
0.673378 -0.946866 0
-0.106547 -0.580737 0
0.179053 -0.292397 0
-0.330765 -1.31144 0
-0.281277 -0.642305 0
0.257753 -0.908877 0
-0.45862 -0.372408 0
-0.418972 -0.587714 0
0.623498 -1.63833 0
-0.199928 -0.689195 0
0.611225 -1.14935 0
0.110743 -0.288794 0
-0.343457 -1.75429 0
1.10776 -1.57895 0
-0.0567845 -0.46402 0
0.0903292 -0.584939 0
-0.310997 -0.610143 0
0.165005 -1.09275 0
0.119111 -0.699829 0
-0.207337 -1.98697 0
-0.574533 -0.48952 0
0.00947021 -0.747231 0
-0.48315 -0.886004 0
-0.501722 -0.702438 0
0.162171 -0.350752 0
-0.0847931 -0.815139 0
-0.55275 -0.649434 0
0.106756 -0.729012 0
-0.0722732 -1.45509 0
-0.00736479 -0.706776 0
0.436713 -0.469527 0
0.0505146 -0.892425 0
-0.312177 -1.95793 0
-0.020845 -1.49749 0
0.433049 -0.703368 0
0.072848 -0.421871 0
0.47819 -0.916145 0
0.23962 -0.322998 0
0.2775 -1.64434 0
-0.486658 -0.418787 0
0.104709 -1.28056 0
0.0299554 -0.735611 0
0.283639 -0.333146 0
-0.407739 -0.640899 0
0.282749 -1.36197 0
0.251096 -0.538229 0
-0.267514 -0.666812 0
-0.249184 -1.19952 0
0.542067 -1.28755 0
-0.00703564 -0.673268 0
-0.158251 -0.279665 0
