# vtk DataFile Version 2.0
Unstructured Grid by M++
ASCII
DATASET UNSTRUCTURED_GRID
POINTS 289 float
  0.562500   1.000000 0
  0.562500   0.625000 0
  0.625000   1.000000 0
  0.562500   0.937500 0
  0.562500   0.562500 0
  0.625000   0.937500 0
  0.562500   0.875000 0
  0.625000   0.750000 0
  0.625000   0.625000 0
  0.562500   0.812500 0
  0.562500   0.750000 0
  0.562500   0.687500 0
  0.625000   0.875000 0
  0.625000   0.812500 0
  0.625000   0.687500 0
  0.687500   0.125000 0
  0.875000   0.062500 0
  0.625000   0.125000 0
  0.625000   0.187500 0
  0.625000   0.250000 0
  0.812500   0.187500 0
  1.000000   0.125000 0
  0.687500   0.187500 0
  0.750000   0.125000 0
  0.937500   0.062500 0
  0.937500   0.125000 0
  0.750000   0.187500 0
  0.812500   0.062500 0
  0.812500   0.125000 0
  0.875000   0.687500 0
  0.187500   0.250000 0
  0.437500   0.250000 0
  0.375000   0.187500 0
  0.812500   0.625000 0
  0.125000   0.187500 0
  0.937500   0.750000 0
  0.250000   0.312500 0
  0.500000   0.312500 0
  0.625000   0.062500 0
  0.437500   0.500000 0
  0.375000   0.125000 0
  0.437500   0.187500 0
  0.437500   0.437500 0
  0.437500   0.375000 0
  0.875000   0.875000 0
  0.187500   0.375000 0
  0.687500   0.562500 0
  0.687500   0.625000 0
  0.000000   0.125000 0
  0.937500   0.625000 0
  0.250000   0.125000 0
  0.375000   0.062500 0
  0.375000   0.000000 0
  0.812500   0.500000 0
  0.125000   0.000000 0
  0.937500   0.937500 0
  0.250000   0.437500 0
  0.687500   0.875000 0
  0.687500   0.937500 0
  0.000000   0.437500 0
  0.500000   0.500000 0
  0.500000   0.437500 0
  0.750000   0.937500 0
  0.750000   1.000000 0
  0.062500   0.500000 0
  1.000000   1.000000 0
  0.312500   0.500000 0
  0.875000   0.562500 0
  0.187500   0.062500 0
  0.437500   0.125000 0
  0.437500   0.062500 0
  0.500000   0.375000 0
  0.937500   0.812500 0
  0.937500   0.875000 0
  0.250000   0.375000 0
  0.687500   0.812500 0
  0.000000   0.375000 0
  0.750000   0.562500 0
  0.062500   0.125000 0
  1.000000   0.562500 0
  1.000000   0.625000 0
  0.312500   0.125000 0
  0.562500   0.125000 0
  0.437500   0.000000 0
  0.875000   0.437500 0
  0.875000   0.500000 0
  0.187500   0.000000 0
  0.937500   0.562500 0
  0.937500   0.500000 0
  0.250000   0.062500 0
  0.687500   0.500000 0
  0.000000   0.062500 0
  0.500000   0.062500 0
  1.000000   0.875000 0
  1.000000   0.937500 0
  0.312500   0.437500 0
  0.750000   0.875000 0
  0.062500   0.437500 0
  0.812500   0.937500 0
  0.125000   0.500000 0
  0.375000   0.500000 0
  0.625000   0.562500 0
  0.625000   0.500000 0
  0.437500   0.312500 0
  0.875000   0.812500 0
  0.875000   0.750000 0
  0.187500   0.312500 0
  0.812500   0.687500 0
  0.812500   0.750000 0
  0.125000   0.250000 0
  0.375000   0.250000 0
  1.000000   0.687500 0
  0.312500   0.187500 0
  0.750000   0.687500 0
  0.750000   0.625000 0
  0.062500   0.187500 0
  0.562500   0.250000 0
  0.562500   0.187500 0
  0.375000   1.000000 0
  0.500000   0.562500 0
  0.500000   0.250000 0
  0.750000   0.250000 0
  0.500000   0.125000 0
  0.500000   0.187500 0
  1.000000   0.187500 0
  0.625000   0.375000 0
  0.875000   0.375000 0
  1.000000   0.437500 0
  0.312500   0.000000 0
  0.562500   0.000000 0
  0.812500   0.000000 0
  0.250000   0.687500 0
  0.000000   0.687500 0
  0.500000   1.000000 0
  0.250000   1.000000 0
  0.000000   1.000000 0
  0.437500   0.687500 0
  0.437500   0.625000 0
  0.187500   0.625000 0
  0.687500   0.750000 0
  0.000000   0.312500 0
  0.000000   0.250000 0
  0.375000   0.375000 0
  0.375000   0.312500 0
  0.812500   0.812500 0
  0.125000   0.312500 0
  0.875000   0.625000 0
  0.187500   0.187500 0
  0.187500   0.125000 0
  0.937500   1.000000 0
  0.250000   0.562500 0
  0.250000   0.500000 0
  0.687500   1.000000 0
  0.000000   0.500000 0
  0.687500   0.687500 0
  0.000000   0.187500 0
  0.937500   0.687500 0
  0.250000   0.250000 0
  0.250000   0.187500 0
  0.187500   0.687500 0
  0.000000   0.750000 0
  0.250000   0.750000 0
  0.125000   0.625000 0
  0.750000   0.750000 0
  0.062500   0.250000 0
  0.875000   0.937500 0
  0.187500   0.500000 0
  0.187500   0.437500 0
  0.812500   0.562500 0
  0.125000   0.125000 0
  0.125000   0.062500 0
  0.375000   0.625000 0
  0.375000   0.687500 0
  1.000000   0.750000 0
  0.312500   0.250000 0
  0.312500   0.312500 0
  0.812500   0.312500 0
  0.562500   0.312500 0
  0.375000   0.750000 0
  0.500000   0.625000 0
  0.250000   0.625000 0
  0.312500   0.687500 0
  0.750000   0.812500 0
  0.062500   0.312500 0
  0.062500   0.375000 0
  1.000000   0.812500 0
  0.312500   0.375000 0
  0.562500   0.375000 0
  0.687500   0.437500 0
  0.000000   0.000000 0
  0.500000   0.000000 0
  0.937500   0.437500 0
  0.250000   0.000000 0
  0.375000   0.437500 0
  0.812500   0.875000 0
  0.125000   0.375000 0
  0.125000   0.437500 0
  0.625000   0.437500 0
  1.000000   0.500000 0
  0.312500   0.062500 0
  0.750000   0.500000 0
  0.062500   0.000000 0
  0.062500   0.062500 0
  0.562500   0.062500 0
  0.062500   0.750000 0
  0.312500   0.750000 0
  0.312500   0.625000 0
  0.312500   0.562500 0
  0.062500   0.562500 0
  0.187500   1.000000 0
  0.437500   0.562500 0
  0.875000   1.000000 0
  0.187500   0.562500 0
  0.500000   0.937500 0
  0.250000   0.937500 0
  0.312500   1.000000 0
  0.125000   0.750000 0
  0.125000   0.687500 0
  1.000000   0.000000 0
  0.000000   0.937500 0
  0.000000   0.875000 0
  0.875000   0.125000 0
  0.875000   0.187500 0
  0.062500   0.812500 0
  0.312500   0.812500 0
  0.000000   0.812500 0
  0.000000   0.625000 0
  0.000000   0.562500 0
  0.062500   1.000000 0
  0.062500   0.937500 0
  0.937500   0.187500 0
  0.937500   0.250000 0
  0.062500   0.687500 0
  0.062500   0.625000 0
  0.125000   1.000000 0
  1.000000   0.250000 0
  1.000000   0.312500 0
  0.062500   0.875000 0
  0.125000   0.812500 0
  0.375000   0.812500 0
  0.125000   0.875000 0
  0.375000   0.937500 0
  0.375000   0.875000 0
  0.187500   0.750000 0
  0.187500   0.812500 0
  0.437500   0.812500 0
  0.187500   0.875000 0
  0.437500   0.875000 0
  0.375000   0.562500 0
  0.812500   1.000000 0
  0.125000   0.562500 0
  0.437500   1.000000 0
  0.437500   0.937500 0
  0.187500   0.937500 0
  0.125000   0.937500 0
  0.500000   0.687500 0
  0.500000   0.750000 0
  0.500000   0.812500 0
  0.250000   0.812500 0
  0.250000   0.875000 0
  0.500000   0.875000 0
  0.437500   0.750000 0
  0.312500   0.875000 0
  0.312500   0.937500 0
  0.687500   0.250000 0
  0.687500   0.312500 0
  0.937500   0.312500 0
  0.875000   0.250000 0
  0.625000   0.000000 0
  0.875000   0.000000 0
  0.687500   0.375000 0
  0.937500   0.375000 0
  0.875000   0.312500 0
  0.625000   0.312500 0
  0.687500   0.000000 0
  0.937500   0.000000 0
  0.750000   0.312500 0
  0.750000   0.375000 0
  1.000000   0.375000 0
  0.812500   0.250000 0
  0.562500   0.437500 0
  0.562500   0.500000 0
  0.687500   0.062500 0
  0.750000   0.437500 0
  0.750000   0.000000 0
  0.750000   0.062500 0
  1.000000   0.062500 0
  0.812500   0.375000 0
  0.812500   0.437500 0
CELLS 256 1280
4 169 170 148 68
4 151 166 56 167
4 195 45 196 167
4 54 170 201 202
4 109 34 30 147
4 40 32 81 112
4 192 89 86 68
4 48 91 78 202
4 99 64 196 97
4 71 43 37 103
4 74 186 56 95
4 109 164 34 115
4 50 81 158 112
4 122 69 92 70
4 195 145 45 106
4 110 143 174 175
4 157 30 158 147
4 40 69 32 41
4 50 158 148 147
4 141 155 164 115
4 122 123 69 41
4 142 186 143 175
4 60 39 61 42
4 40 51 69 70
4 120 31 123 41
4 157 174 36 175
4 50 148 89 68
4 48 78 155 115
4 52 83 51 70
4 151 56 66 95
4 71 61 43 42
4 169 148 34 147
4 100 193 39 42
4 40 81 51 199
4 110 174 32 112
4 109 30 145 106
4 100 66 193 95
4 169 34 78 115
4 190 92 83 70
4 50 89 81 199
4 54 86 170 68
4 74 56 45 167
4 142 143 43 103
4 153 59 64 97
4 99 196 166 167
4 169 78 170 202
4 142 193 186 95
4 192 128 89 199
4 74 45 36 106
4 110 31 143 103
4 76 184 59 97
4 142 43 193 42
4 52 51 128 199
4 189 201 91 202
4 120 37 31 103
4 74 36 186 175
4 195 196 184 97
4 141 164 140 183
4 157 158 174 112
4 109 145 164 183
4 195 184 145 183
4 110 32 31 41
4 157 36 30 106
4 76 140 184 183
4 171 172 206 181
4 178 172 261 136
4 256 261 255 136
4 256 257 261 245
4 180 150 206 207
4 60 119 39 210
4 118 215 241 263
4 178 205 172 181
4 216 243 238 244
4 162 217 233 232
4 180 206 131 181
4 179 137 119 210
4 216 204 217 232
4 220 237 219 229
4 216 217 243 159
4 259 258 262 224
4 240 254 237 229
4 153 64 227 208
4 161 205 258 224
4 240 237 238 223
4 226 227 233 208
4 234 228 254 229
4 171 248 137 210
4 160 132 204 232
4 180 131 138 159
4 133 251 213 252
4 171 206 248 207
4 162 138 217 159
4 161 258 243 244
4 220 225 237 223
4 151 150 166 212
4 260 247 257 245
4 259 262 214 263
4 151 66 150 207
4 234 254 209 253
4 162 233 250 208
4 242 241 262 263
4 171 137 172 136
4 161 243 131 159
4 160 204 225 223
4 161 131 205 181
4 179 255 137 136
4 216 238 204 223
4 100 39 248 210
4 260 213 247 252
4 226 233 132 232
4 134 214 215 263
4 180 138 150 212
4 178 261 239 245
4 259 246 258 244
4 178 239 205 224
4 240 238 246 244
4 242 262 239 224
4 99 250 64 208
4 240 246 254 253
4 242 239 247 245
4 135 219 228 229
4 99 166 250 212
4 259 214 246 253
4 118 241 251 252
4 100 248 66 207
4 134 209 214 253
4 162 250 138 212
4 242 247 241 252
4 71 187 61 280
4 102 281 197 280
4 122 92 82 203
4 17 18 82 117
4 122 82 123 117
4 19 264 273 265
4 267 279 222 20
4 125 273 270 265
4 267 272 279 176
4 19 116 18 117
4 21 25 286 24
4 23 28 26 20
4 23 285 28 27
4 218 286 275 24
4 85 53 84 288
4 235 236 231 266
4 221 222 28 20
4 267 222 231 230
4 268 38 129 203
4 125 270 197 188
4 126 287 272 176
4 277 270 276 265
4 267 231 272 266
4 125 197 187 280
4 190 129 92 203
4 277 276 287 176
4 19 18 264 22
4 17 82 38 203
4 102 197 90 188
4 126 84 287 288
4 284 130 285 27
4 121 276 264 265
4 71 37 187 177
4 120 123 116 117
4 198 88 127 191
4 221 16 25 24
4 23 26 15 22
4 121 279 276 176
4 235 231 124 230
4 125 187 273 177
4 278 271 236 266
4 277 287 283 288
4 284 285 274 282
4 278 127 271 191
4 269 275 16 24
4 200 283 53 288
4 23 15 285 282
4 121 26 279 20
4 21 124 25 230
4 19 273 116 177
4 200 90 283 188
4 126 271 84 191
4 269 16 130 27
4 17 38 15 282
4 221 25 222 230
4 121 264 26 22
4 120 116 37 177
4 60 61 281 280
4 277 283 270 188
4 126 272 271 266
4 268 274 38 282
4 85 84 88 191
4 17 15 18 22
4 221 28 16 27
4 93 94 73 55
4 85 88 67 87
4 80 49 79 87
4 44 104 73 72
4 146 33 67 168
4 211 165 149 55
4 8 47 14 154
4 105 104 108 144
4 105 108 29 107
4 7 139 13 75
4 44 165 194 98
4 200 53 77 168
4 8 1 101 4
4 2 5 152 58
4 260 6 213 3
4 105 35 104 72
4 96 57 182 75
4 7 14 139 154
4 146 29 33 107
4 7 13 10 9
4 12 13 57 75
4 85 67 53 168
4 44 73 165 55
4 63 152 62 58
4 8 101 47 46
4 96 182 194 144
4 60 281 119 4
4 12 5 6 3
4 173 185 35 72
4 65 149 94 55
4 146 67 49 87
4 114 113 47 154
4 163 108 182 144
4 12 6 13 9
4 173 35 111 156
4 163 182 139 75
4 260 257 6 9
4 105 29 35 156
4 163 139 113 154
4 256 10 257 9
4 146 49 29 156
4 163 113 108 107
4 80 111 49 156
4 102 101 281 4
4 12 57 5 58
4 44 194 104 144
4 96 194 62 98
4 2 0 5 3
4 93 73 185 72
4 179 119 1 4
4 200 77 90 46
4 114 33 113 107
4 7 10 14 11
4 96 62 57 58
4 133 213 0 3
4 102 90 101 46
4 256 255 10 11
4 63 62 249 98
4 114 47 77 46
4 179 1 255 11
4 211 249 165 98
4 114 77 33 168
4 198 79 88 87
4 8 14 1 11
CELL_TYPES 256
8
8
8
8
8
8
8
8
8
8
8
8
8
8
8
8
8
8
8
8
8
8
8
8
8
8
8
8
8
8
8
8
8
8
8
8
8
8
8
8
8
8
8
8
8
8
8
8
8
8
8
8
8
8
8
8
8
8
8
8
8
8
8
8
8
8
8
8
8
8
8
8
8
8
8
8
8
8
8
8
8
8
8
8
8
8
8
8
8
8
8
8
8
8
8
8
8
8
8
8
8
8
8
8
8
8
8
8
8
8
8
8
8
8
8
8
8
8
8
8
8
8
8
8
8
8
8
8
8
8
8
8
8
8
8
8
8
8
8
8
8
8
8
8
8
8
8
8
8
8
8
8
8
8
8
8
8
8
8
8
8
8
8
8
8
8
8
8
8
8
8
8
8
8
8
8
8
8
8
8
8
8
8
8
8
8
8
8
8
8
8
8
8
8
8
8
8
8
8
8
8
8
8
8
8
8
8
8
8
8
8
8
8
8
8
8
8
8
8
8
8
8
8
8
8
8
8
8
8
8
8
8
8
8
8
8
8
8
8
8
8
8
8
8
8
8
8
8
8
8
8
8
8
8
8
8
CELL_DATA 256
VECTORS vector_value float
-0.0600424 -1.50681 0
-0.317083 -0.185108 0
-0.366273 -0.288261 0
0.0696612 -1.933 0
-0.722409 -2.02506 0
-0.144871 -0.18575 0
0.0165095 -1.68033 0
0.0878766 -3.77062 0
-0.121089 -0.931282 0
-0.401038 -0.695065 0
-1.89409 -1.10248 0
-0.442944 -1.04297 0
-0.435625 -0.942725 0
-0.0110791 -0.0443652 0
-0.595634 -0.450686 0
-0.688485 -0.857159 0
-0.716413 -1.65722 0
-0.0647784 -0.104905 0
-0.351058 -1.64203 0
-0.376836 -3.82035 0
-0.0153883 -0.0862535 0
-1.94358 -1.68061 0
-1.22234 -2.37136 0
-0.0443451 -0.0518236 0
-0.0726554 -0.1828 0
-1.58752 -1.51272 0
-0.0960581 -2.01019 0
0.0401013 -3.90756 0
-0.0136127 -0.039418 0
-0.439629 -0.317476 0
-1.60881 -1.38335 0
-0.417273 -1.8892 0
-0.809164 -2.0505 0
-0.090383 -0.17705 0
-0.295814 -0.424266 0
-1.61589 -1.32674 0
-0.61747 -0.903231 0
-0.282246 -1.52551 0
-0.00486807 -0.025366 0
-0.097071 -0.665061 0
0.0318473 -1.89459 0
-0.65913 -0.374176 0
-1.09797 -1.15041 0
0.0266229 -1.61871 0
-0.218873 -0.18673 0
0.0697069 -2.05383 0
-2.79867 -1.37283 0
0.0533108 -0.92416 0
-1.37372 -1.18022 0
-0.318673 -0.385572 0
0.00536025 -1.39172 0
-2.76767 -2.09144 0
-0.027313 -0.129221 0
0.0168045 -3.65269 0
-0.134464 -0.317322 0
-1.91356 -1.71892 0
-0.0839806 -1.4069 0
-0.618949 -2.67476 0
-0.377444 -0.947469 0
-1.20655 -1.41292 0
-0.639046 -1.6009 0
-0.150184 -0.171328 0
-2.10526 -1.73082 0
-0.254652 -1.68324 0
0.179006 -2.6672 0
-0.224405 -1.2481 0
0.103527 -1.00468 0
0.446357 -0.777861 0
-0.0661957 -0.596414 0
0.279521 -1.58597 0
-0.461096 -1.40813 0
-0.16578 -2.02253 0
-0.103667 -0.816169 0
-0.324271 -0.548894 0
0.0690324 -0.849479 0
-0.0234189 -0.907092 0
-0.283711 -0.604121 0
0.165624 -0.480321 0
-0.195893 -0.801747 0
0.25438 -1.0726 0
0.488328 -0.801801 0
-0.123127 -1.33288 0
0.100905 -0.761306 0
0.0581815 -0.603814 0
-0.0934209 -1.16878 0
0.302091 -0.892808 0
0.607881 -1.6926 0
-0.090837 -0.498051 0
-0.0848215 -0.347504 0
-0.510745 -0.512162 0
0.490316 -1.92077 0
-0.195035 -0.508198 0
0.0268993 -0.843259 0
-0.00521538 -0.334825 0
-0.243413 -0.173479 0
0.493043 -0.639721 0
0.744812 -1.6063 0
-0.138833 -0.343789 0
0.506875 -0.742525 0
-0.244592 -0.546547 0
0.772651 -2.66149 0
-0.00534467 -0.83569 0
0.0380946 -0.475391 0
-0.037494 -0.409061 0
0.114534 -0.942424 0
-0.00930833 -0.776987 0
-0.0787901 -0.520822 0
0.572922 -1.85408 0
-0.0752354 -0.457523 0
-0.214782 -0.883532 0
0.499178 -1.82294 0
-0.274152 -0.291372 0
0.301417 -2.05477 0
0.0910236 -0.774391 0
-0.0340686 -1.53724 0
0.152619 -0.890176 0
0.980626 -2.31502 0
-0.388331 -0.832295 0
0.513355 -0.737366 0
1.11397 -1.54561 0
0.149378 -0.875333 0
-0.392713 -0.313644 0
0.463137 -0.855988 0
-0.912582 -1.02937 0
0.190993 -1.12991 0
0.767752 -0.855008 0
-0.34868 -0.433284 0
0.0765669 -0.738696 0
-0.970144 -1.37764 0
-0.870817 -2.27114 0
0.0027849 -0.0270398 0
0.0515999 -0.11665 0
0.00246101 -0.0240413 0
0.618327 -0.708088 0
0.0478249 -1.02063 0
0.661114 -0.731135 0
0.124695 -0.429239 0
0.1566 -0.229061 0
-0.27306 -0.721995 0
0.584134 -1.3957 0
0.224342 -1.34431 0
-0.0268227 -0.473008 0
0.641893 -0.418376 0
-0.0143675 -1.26145 0
0.152444 -1.48146 0
-0.114609 -0.978744 0
0.00903805 -0.0313289 0
0.517533 -0.845145 0
0.264813 -0.347871 0
0.593033 -0.650006 0
-0.0247495 -1.175 0
-0.0752437 -1.39656 0
0.00231183 -0.0224404 0
0.387385 -0.346375 0
0.275071 -0.394788 0
0.0169672 -0.0478185 0
-0.262541 -1.32878 0
0.506684 -0.433529 0
0.0465968 -1.36705 0
0.613028 -0.795996 0
0.0389661 -0.676972 0
0.0449502 -0.123398 0
0.125303 -0.784424 0
-0.33883 -1.58369 0
0.474654 -0.483209 0
0.370153 -0.612474 0
-0.00251389 -1.23281 0
0.478716 -0.846174 0
0.067098 -1.26034 0
0.324206 -0.288178 0
0.0438399 -0.24974 0
0.127908 -0.983398 0
-0.142885 -1.33869 0
0.669788 -0.503944 0
0.149583 -0.306501 0
0.44156 -0.925967 0
-0.08809 -1.23135 0
0.333536 -0.412758 0
0.370334 -0.533683 0
0.483436 -0.820877 0
-0.18127 -2.16196 0
0.062368 -0.104323 0
-0.0780307 -0.773299 0
0.507386 -0.82315 0
0.0906475 -0.386976 0
-0.817558 -1.21187 0
0.467983 -0.443513 0
0.200131 -0.981076 0
0.0222485 -0.0770119 0
0.308015 -0.383379 0
0.188799 -0.210358 0
0.163303 -1.58458 0
-0.0637346 -0.184017 0
0.210024 -0.288829 0
0.0436209 -0.436553 0
0.0269727 -0.156803 0
0.147106 -0.162463 0
-1.07282 -0.711416 0
-0.163011 -2.9151 0
0.0765442 -0.212181 0
0.0586 -0.154115 0
-0.284265 -1.42543 0
-0.865447 -1.18083 0
0.535012 -0.482556 0
-0.120064 -1.38524 0
0.438126 -0.88646 0
0.0283838 -0.47106 0
0.0990636 -0.118956 0
-0.949977 -1.72271 0
-0.156955 -2.23596 0
0.0873922 -0.172983 0
0.0293062 -1.33421 0
-0.764535 -1.47201 0
0.322315 -0.211975 0
-0.189983 -0.215521 0
0.351365 -1.16971 0
-0.367614 -3.21477 0
-1.05457 -2.47256 0
-0.604804 -1.57972 0
0.169664 -0.667877 0
0.0538011 -0.239931 0
-0.360147 -0.455126 0
0.118752 -0.209706 0
-0.204121 -2.10164 0
-0.347268 -1.18166 0
-0.303481 -0.946569 0
0.0433014 -0.346833 0
-0.809042 -2.61691 0
0.150473 -0.585194 0
0.0742433 -0.123651 0
-0.324871 -2.50345 0
0.252209 -1.15025 0
0.0598066 -0.155859 0
-0.0334861 -0.600525 0
0.018204 -0.383314 0
-1.06113 -1.92265 0
0.0417576 -0.92595 0
-0.12037 -0.321041 0
-0.86526 -2.18401 0
0.203676 -0.704029 0
0.0128323 -0.14695 0
-0.0422954 -1.00267 0
0.213026 -1.20833 0
0.0368435 -0.426522 0
0.122159 -1.38958 0
-0.463905 -1.83125 0
-0.0859555 -0.874201 0
-0.693771 -2.20106 0
0.0880036 -1.04885 0
-0.280143 -1.56502 0
-0.059441 -1.6297 0
0.0299507 -1.22475 0
-1.06407 -1.49576 0
0.125643 -0.402029 0
0.0687001 -0.538842 0
0.0440901 -1.20235 0
