# vtk DataFile Version 2.0
Unstructured Grid by M++
ASCII
DATASET UNSTRUCTURED_GRID
POINTS 81 float
  1.000000   0.625000 0
  0.750000   0.375000 0
  1.000000   0.000000 0
  0.875000   0.875000 0
  0.750000   0.125000 0
  1.000000   1.000000 0
  0.875000   0.250000 0
  0.625000   0.875000 0
  1.000000   0.750000 0
  0.875000   0.000000 0
  1.000000   0.250000 0
  0.625000   0.375000 0
  0.875000   0.500000 0
  0.625000   0.625000 0
  1.000000   0.500000 0
  0.750000   0.500000 0
  0.750000   1.000000 0
  1.000000   0.125000 0
  0.625000   0.250000 0
  0.750000   0.750000 0
  0.625000   0.000000 0
  0.125000   0.375000 0
  0.000000   0.500000 0
  0.125000   0.625000 0
  0.625000   1.000000 0
  1.000000   0.875000 0
  0.875000   0.125000 0
  0.500000   0.250000 0
  0.625000   0.500000 0
  0.250000   0.625000 0
  0.000000   0.625000 0
  0.375000   0.500000 0
  0.375000   0.000000 0
  0.000000   0.125000 0
  0.125000   0.875000 0
  0.875000   1.000000 0
  0.750000   0.250000 0
  0.375000   0.375000 0
  0.250000   0.375000 0
  0.625000   0.750000 0
  0.125000   0.125000 0
  0.500000   0.000000 0
  0.250000   0.875000 0
  0.125000   0.500000 0
  0.500000   0.375000 0
  0.125000   0.000000 0
  0.250000   0.750000 0
  0.250000   0.500000 0
  0.000000   0.875000 0
  0.875000   0.625000 0
  0.500000   0.750000 0
  0.750000   0.625000 0
  0.250000   0.000000 0
  0.375000   0.750000 0
  0.750000   0.875000 0
  0.625000   0.125000 0
  0.250000   0.250000 0
  0.375000   1.000000 0
  0.375000   0.250000 0
  0.000000   0.375000 0
  0.500000   1.000000 0
  0.875000   0.750000 0
  0.750000   0.000000 0
  0.375000   0.125000 0
  0.500000   0.875000 0
  0.000000   0.000000 0
  0.125000   0.750000 0
  0.500000   0.625000 0
  0.125000   0.250000 0
  0.500000   0.125000 0
  0.250000   1.000000 0
  0.250000   0.125000 0
  0.000000   1.000000 0
  0.375000   0.875000 0
  0.000000   0.750000 0
  0.375000   0.625000 0
  0.000000   0.250000 0
  0.125000   1.000000 0
  1.000000   0.375000 0
  0.500000   0.500000 0
  0.875000   0.375000 0
CELLS 64 320
4 56 71 58 63
4 27 58 69 63
4 41 69 32 63
4 76 33 68 40
4 27 44 58 37
4 79 31 44 37
4 56 38 68 21
4 56 58 38 37
4 52 32 71 63
4 47 38 31 37
4 76 68 59 21
4 22 59 43 21
4 65 45 33 40
4 47 43 38 21
4 52 71 45 40
4 56 68 71 40
4 74 30 66 23
4 46 66 29 23
4 22 43 30 23
4 72 48 77 34
4 46 53 42 73
4 50 64 53 73
4 70 42 57 73
4 74 66 48 34
4 46 42 66 34
4 47 29 43 23
4 70 77 42 34
4 60 57 64 73
4 79 67 31 75
4 47 31 29 75
4 50 53 67 75
4 46 29 53 75
4 10 78 6 80
4 36 6 1 80
4 15 1 12 80
4 36 4 6 26
4 14 12 78 80
4 2 17 9 26
4 36 18 4 55
4 15 28 1 11
4 62 4 20 55
4 10 6 17 26
4 27 18 44 11
4 62 9 4 26
4 27 69 18 55
4 36 1 18 11
4 41 20 69 55
4 79 44 28 11
4 16 24 54 7
4 19 54 39 7
4 50 39 64 7
4 8 25 61 3
4 60 64 24 7
4 79 28 67 13
4 19 51 61 49
4 8 61 0 49
4 15 51 28 13
4 19 39 51 13
4 50 67 39 13
4 19 61 54 3
4 14 0 12 49
4 5 35 25 3
4 15 12 51 49
4 16 54 35 3
CELL_TYPES 64
8
8
8
8
8
8
8
8
8
8
8
8
8
8
8
8
8
8
8
8
8
8
8
8
8
8
8
8
8
8
8
8
8
8
8
8
8
8
8
8
8
8
8
8
8
8
8
8
8
8
8
8
8
8
8
8
8
8
8
8
8
8
8
8
CELL_DATA 64
VECTORS vector_value float
-0.561504 -2.36713 0
-0.125142 -0.426615 0
-0.00211894 -0.449285 0
-0.0440575 -0.12478 0
-0.79452 -0.884942 0
-0.22644 -1.12552 0
-0.243319 -1.2667 0
-0.803414 -2.30763 0
-0.0137242 -1.75607 0
0.256099 -1.75934 0
-0.0237478 -0.0819391 0
0.041942 -0.0697612 0
-0.007025 -0.203563 0
0.151398 -1.17191 0
-0.0328414 -2.39494 0
-0.496646 -1.82704 0
0.858611 -1.58893 0
0.414807 -0.417468 0
0.0164771 -0.161329 0
-0.0332703 -1.02197 0
0.0703306 -0.819625 0
0.275107 -1.14891 0
-0.0356345 -1.2536 0
-0.411882 -1.85277 0
0.0204724 -0.25309 0
0.697103 -1.49512 0
-0.41748 -0.958662 0
-0.139524 -1.1427 0
-0.0526747 -0.627678 0
0.0735586 -1.44889 0
-0.0142589 -0.910297 0
0.0354607 -0.884669 0
-0.179023 -0.930963 0
-0.996665 -1.95862 0
-0.157897 -0.435201 0
0.600647 -1.49041 0
-0.841596 -2.67895 0
0.255997 -2.14673 0
-0.0421705 -0.18904 0
-0.0950599 -0.122269 0
0.00365671 -0.145112 0
0.402272 -1.25474 0
-0.314411 -0.381537 0
0.0712098 -0.63565 0
-0.0859464 -0.320241 0
-0.253952 -0.187671 0
-0.00146648 -0.268643 0
-0.369143 -0.637047 0
0.301783 -1.03058 0
0.133352 -0.459229 0
0.306805 -0.87066 0
0.0319582 -1.09206 0
-0.0667888 -0.364763 0
-0.0436223 -0.789954 0
0.853108 -0.613488 0
0.732825 -2.28565 0
-0.0671104 -0.305154 0
0.375049 -0.604534 0
0.136146 -0.694963 0
0.269001 -1.50366 0
0.185928 -2.85729 0
0.0276709 -0.946977 0
0.0695981 -0.31459 0
0.267424 -1.28075 0
