# vtk DataFile Version 2.0
Unstructured Grid by M++
ASCII
DATASET UNSTRUCTURED_GRID
POINTS 81 float
  1.000000   0.625000 0
  0.750000   0.375000 0
  1.000000   0.000000 0
  0.875000   0.875000 0
  0.750000   0.125000 0
  1.000000   1.000000 0
  0.875000   0.250000 0
  0.625000   0.875000 0
  1.000000   0.750000 0
  0.875000   0.000000 0
  1.000000   0.250000 0
  0.625000   0.375000 0
  0.875000   0.500000 0
  0.625000   0.625000 0
  1.000000   0.500000 0
  0.750000   0.500000 0
  0.750000   1.000000 0
  1.000000   0.125000 0
  0.625000   0.250000 0
  0.750000   0.750000 0
  0.625000   0.000000 0
  0.125000   0.375000 0
  0.000000   0.500000 0
  0.125000   0.625000 0
  0.625000   1.000000 0
  1.000000   0.875000 0
  0.875000   0.125000 0
  0.500000   0.250000 0
  0.625000   0.500000 0
  0.250000   0.625000 0
  0.000000   0.625000 0
  0.375000   0.500000 0
  0.375000   0.000000 0
  0.000000   0.125000 0
  0.125000   0.875000 0
  0.875000   1.000000 0
  0.750000   0.250000 0
  0.375000   0.375000 0
  0.250000   0.375000 0
  0.625000   0.750000 0
  0.125000   0.125000 0
  0.500000   0.000000 0
  0.250000   0.875000 0
  0.125000   0.500000 0
  0.500000   0.375000 0
  0.125000   0.000000 0
  0.250000   0.750000 0
  0.250000   0.500000 0
  0.000000   0.875000 0
  0.875000   0.625000 0
  0.500000   0.750000 0
  0.750000   0.625000 0
  0.250000   0.000000 0
  0.375000   0.750000 0
  0.750000   0.875000 0
  0.625000   0.125000 0
  0.250000   0.250000 0
  0.375000   1.000000 0
  0.375000   0.250000 0
  0.000000   0.375000 0
  0.500000   1.000000 0
  0.875000   0.750000 0
  0.750000   0.000000 0
  0.375000   0.125000 0
  0.500000   0.875000 0
  0.000000   0.000000 0
  0.125000   0.750000 0
  0.500000   0.625000 0
  0.125000   0.250000 0
  0.500000   0.125000 0
  0.250000   1.000000 0
  0.250000   0.125000 0
  0.000000   1.000000 0
  0.375000   0.875000 0
  0.000000   0.750000 0
  0.375000   0.625000 0
  0.000000   0.250000 0
  0.125000   1.000000 0
  1.000000   0.375000 0
  0.500000   0.500000 0
  0.875000   0.375000 0
CELLS 64 320
4 56 71 58 63
4 27 58 69 63
4 41 69 32 63
4 76 33 68 40
4 27 44 58 37
4 79 31 44 37
4 56 38 68 21
4 56 58 38 37
4 52 32 71 63
4 47 38 31 37
4 76 68 59 21
4 22 59 43 21
4 65 45 33 40
4 47 43 38 21
4 52 71 45 40
4 56 68 71 40
4 74 30 66 23
4 46 66 29 23
4 22 43 30 23
4 72 48 77 34
4 46 53 42 73
4 50 64 53 73
4 70 42 57 73
4 74 66 48 34
4 46 42 66 34
4 47 29 43 23
4 70 77 42 34
4 60 57 64 73
4 79 67 31 75
4 47 31 29 75
4 50 53 67 75
4 46 29 53 75
4 10 78 6 80
4 36 6 1 80
4 15 1 12 80
4 36 4 6 26
4 14 12 78 80
4 2 17 9 26
4 36 18 4 55
4 15 28 1 11
4 62 4 20 55
4 10 6 17 26
4 27 18 44 11
4 62 9 4 26
4 27 69 18 55
4 36 1 18 11
4 41 20 69 55
4 79 44 28 11
4 16 24 54 7
4 19 54 39 7
4 50 39 64 7
4 8 25 61 3
4 60 64 24 7
4 79 28 67 13
4 19 51 61 49
4 8 61 0 49
4 15 51 28 13
4 19 39 51 13
4 50 67 39 13
4 19 61 54 3
4 14 0 12 49
4 5 35 25 3
4 15 12 51 49
4 16 54 35 3
CELL_TYPES 64
8
8
8
8
8
8
8
8
8
8
8
8
8
8
8
8
8
8
8
8
8
8
8
8
8
8
8
8
8
8
8
8
8
8
8
8
8
8
8
8
8
8
8
8
8
8
8
8
8
8
8
8
8
8
8
8
8
8
8
8
8
8
8
8
CELL_DATA 64
VECTORS vector_value float
1.84875 -1.32434 0
1.88118 -1.29916 0
0.623466 -1.19136 0
0.232563 -0.459097 0
0.240797 -0.418789 0
0.0304981 -0.211476 0
2.3098 -1.58902 0
1.19004 -0.851299 0
0.372106 -0.90008 0
0.0297475 -0.431764 0
1.19825 -1.83846 0
-0.790829 -2.78524 0
0.0057322 -0.101924 0
-0.283392 -1.31091 0
0.106852 -0.374121 0
0.763035 -0.850848 0
0.0281122 -1.11282 0
-0.221654 -1.61503 0
-0.180086 -1.08524 0
-0.0259742 -1.05367 0
-0.941528 -2.16325 0
-0.309509 -0.811529 0
-0.10495 -1.66983 0
-0.0177781 -0.985402 0
-0.580811 -0.998913 0
-1.14615 -2.28486 0
0.281135 -0.398638 0
-0.923331 -1.55063 0
0.0680617 -0.185832 0
-0.430129 -1.23111 0
0.0209441 -0.268935 0
-0.328104 -1.87491 0
0.015777 -0.710791 0
0.0292419 -2.04912 0
0.00583978 -1.98516 0
0.0325862 -1.65368 0
-0.00666448 -0.723541 0
-0.0737702 -0.794138 0
0.0638616 -0.792569 0
0.0195234 -0.528512 0
0.200386 -0.883415 0
0.0832026 -0.944849 0
0.0357751 -0.0491036 0
0.0175254 -2.00219 0
0.693251 -0.675462 0
0.0271526 -0.493413 0
0.688961 -1.75277 0
0.0104395 -0.0234063 0
0.274793 -0.222369 0
0.0267067 -0.207672 0
0.127428 -0.1506 0
-0.306782 -1.85063 0
-0.552663 -0.522732 0
0.088696 -0.0366431 0
-0.209521 -1.39157 0
-0.156871 -1.18069 0
0.0999877 -0.520284 0
0.0590264 -0.50272 0
0.0790716 -0.0533232 0
-0.289029 -0.832002 0
-0.117349 -0.789502 0
0.447232 -1.35879 0
-0.094863 -1.86654 0
0.806375 -1.22334 0
