# vtk DataFile Version 2.0
Unstructured Grid by M++
ASCII
DATASET UNSTRUCTURED_GRID
POINTS 81 float
  1.000000   0.625000 0
  0.750000   0.375000 0
  1.000000   0.000000 0
  0.875000   0.875000 0
  0.750000   0.125000 0
  1.000000   1.000000 0
  0.875000   0.250000 0
  0.625000   0.875000 0
  1.000000   0.750000 0
  0.875000   0.000000 0
  1.000000   0.250000 0
  0.625000   0.375000 0
  0.875000   0.500000 0
  0.625000   0.625000 0
  1.000000   0.500000 0
  0.750000   0.500000 0
  0.750000   1.000000 0
  1.000000   0.125000 0
  0.625000   0.250000 0
  0.750000   0.750000 0
  0.625000   0.000000 0
  0.125000   0.375000 0
  0.000000   0.500000 0
  0.125000   0.625000 0
  0.625000   1.000000 0
  1.000000   0.875000 0
  0.875000   0.125000 0
  0.500000   0.250000 0
  0.625000   0.500000 0
  0.250000   0.625000 0
  0.000000   0.625000 0
  0.375000   0.500000 0
  0.375000   0.000000 0
  0.000000   0.125000 0
  0.125000   0.875000 0
  0.875000   1.000000 0
  0.750000   0.250000 0
  0.375000   0.375000 0
  0.250000   0.375000 0
  0.625000   0.750000 0
  0.125000   0.125000 0
  0.500000   0.000000 0
  0.250000   0.875000 0
  0.125000   0.500000 0
  0.500000   0.375000 0
  0.125000   0.000000 0
  0.250000   0.750000 0
  0.250000   0.500000 0
  0.000000   0.875000 0
  0.875000   0.625000 0
  0.500000   0.750000 0
  0.750000   0.625000 0
  0.250000   0.000000 0
  0.375000   0.750000 0
  0.750000   0.875000 0
  0.625000   0.125000 0
  0.250000   0.250000 0
  0.375000   1.000000 0
  0.375000   0.250000 0
  0.000000   0.375000 0
  0.500000   1.000000 0
  0.875000   0.750000 0
  0.750000   0.000000 0
  0.375000   0.125000 0
  0.500000   0.875000 0
  0.000000   0.000000 0
  0.125000   0.750000 0
  0.500000   0.625000 0
  0.125000   0.250000 0
  0.500000   0.125000 0
  0.250000   1.000000 0
  0.250000   0.125000 0
  0.000000   1.000000 0
  0.375000   0.875000 0
  0.000000   0.750000 0
  0.375000   0.625000 0
  0.000000   0.250000 0
  0.125000   1.000000 0
  1.000000   0.375000 0
  0.500000   0.500000 0
  0.875000   0.375000 0
CELLS 64 320
4 56 71 58 63
4 27 58 69 63
4 41 69 32 63
4 76 33 68 40
4 27 44 58 37
4 79 31 44 37
4 56 38 68 21
4 56 58 38 37
4 52 32 71 63
4 47 38 31 37
4 76 68 59 21
4 22 59 43 21
4 65 45 33 40
4 47 43 38 21
4 52 71 45 40
4 56 68 71 40
4 74 30 66 23
4 46 66 29 23
4 22 43 30 23
4 72 48 77 34
4 46 53 42 73
4 50 64 53 73
4 70 42 57 73
4 74 66 48 34
4 46 42 66 34
4 47 29 43 23
4 70 77 42 34
4 60 57 64 73
4 79 67 31 75
4 47 31 29 75
4 50 53 67 75
4 46 29 53 75
4 10 78 6 80
4 36 6 1 80
4 15 1 12 80
4 36 4 6 26
4 14 12 78 80
4 2 17 9 26
4 36 18 4 55
4 15 28 1 11
4 62 4 20 55
4 10 6 17 26
4 27 18 44 11
4 62 9 4 26
4 27 69 18 55
4 36 1 18 11
4 41 20 69 55
4 79 44 28 11
4 16 24 54 7
4 19 54 39 7
4 50 39 64 7
4 8 25 61 3
4 60 64 24 7
4 79 28 67 13
4 19 51 61 49
4 8 61 0 49
4 15 51 28 13
4 19 39 51 13
4 50 67 39 13
4 19 61 54 3
4 14 0 12 49
4 5 35 25 3
4 15 12 51 49
4 16 54 35 3
CELL_TYPES 64
8
8
8
8
8
8
8
8
8
8
8
8
8
8
8
8
8
8
8
8
8
8
8
8
8
8
8
8
8
8
8
8
8
8
8
8
8
8
8
8
8
8
8
8
8
8
8
8
8
8
8
8
8
8
8
8
8
8
8
8
8
8
8
8
CELL_DATA 64
VECTORS vector_value float
-1.77773 -0.814695 0
-1.71067 -2.25773 0
-0.073204 -0.498748 0
-0.149345 -0.555624 0
-1.47496 -1.95275 0
-0.0257831 -0.565714 0
-0.0214096 -0.0162002 0
-0.415753 -0.574114 0
-0.861875 -1.16992 0
0.0620759 -0.316701 0
-0.0114145 -0.308259 0
-0.0877107 -0.285642 0
-0.0154525 -0.661831 0
-0.00563458 -0.0260544 0
-0.61264 -2.13189 0
-0.894337 -0.842348 0
0.238548 -0.411649 0
0.724443 -0.62384 0
-0.0108364 -0.117661 0
-0.000526062 -0.993425 0
0.378547 -0.0432058 0
0.813825 -0.316021 0
0.448368 -0.0751246 0
0.203246 -0.947714 0
0.516646 -0.877476 0
0.00677122 -0.328151 0
-0.0437234 -1.23406 0
1.19119 -0.950869 0
0.212116 -0.557669 0
0.1394 -0.273308 0
0.342269 -0.244598 0
1.00464 -0.211939 0
-0.0909489 -0.291356 0
-0.856125 -1.20186 0
-0.457512 -0.624408 0
-0.0865303 -0.576637 0
-0.598171 -1.30357 0
-0.0184809 -0.118816 0
-0.219301 -1.48025 0
0.24945 -2.49404 0
-0.0780321 -1.40297 0
-0.0552492 -0.241329 0
-1.74447 -1.3784 0
-0.0709403 -0.596562 0
-0.647965 -1.23139 0
-1.37734 -2.27706 0
0.0147471 -1.41926 0
-0.147837 -2.38387 0
-0.618944 -0.778475 0
0.212698 -0.6374 0
0.741974 -3.5959 0
0.129554 -1.29243 0
0.283245 -2.35164 0
0.407519 -3.2317 0
0.258986 -0.183962 0
0.17686 -1.61932 0
0.232347 -1.48332 0
0.502982 -1.14504 0
0.423225 -3.55965 0
0.200195 -0.289851 0
-0.0456904 -1.77036 0
0.0584544 -1.04897 0
0.0571093 -0.237832 0
-0.139909 -0.567439 0
