# vtk DataFile Version 2.0
Unstructured Grid by M++
ASCII
DATASET UNSTRUCTURED_GRID
POINTS 81 float
  1.000000   0.625000 0
  0.750000   0.375000 0
  1.000000   0.000000 0
  0.875000   0.875000 0
  0.750000   0.125000 0
  1.000000   1.000000 0
  0.875000   0.250000 0
  0.625000   0.875000 0
  1.000000   0.750000 0
  0.875000   0.000000 0
  1.000000   0.250000 0
  0.625000   0.375000 0
  0.875000   0.500000 0
  0.625000   0.625000 0
  1.000000   0.500000 0
  0.750000   0.500000 0
  0.750000   1.000000 0
  1.000000   0.125000 0
  0.625000   0.250000 0
  0.750000   0.750000 0
  0.625000   0.000000 0
  0.125000   0.375000 0
  0.000000   0.500000 0
  0.125000   0.625000 0
  0.625000   1.000000 0
  1.000000   0.875000 0
  0.875000   0.125000 0
  0.500000   0.250000 0
  0.625000   0.500000 0
  0.250000   0.625000 0
  0.000000   0.625000 0
  0.375000   0.500000 0
  0.375000   0.000000 0
  0.000000   0.125000 0
  0.125000   0.875000 0
  0.875000   1.000000 0
  0.750000   0.250000 0
  0.375000   0.375000 0
  0.250000   0.375000 0
  0.625000   0.750000 0
  0.125000   0.125000 0
  0.500000   0.000000 0
  0.250000   0.875000 0
  0.125000   0.500000 0
  0.500000   0.375000 0
  0.125000   0.000000 0
  0.250000   0.750000 0
  0.250000   0.500000 0
  0.000000   0.875000 0
  0.875000   0.625000 0
  0.500000   0.750000 0
  0.750000   0.625000 0
  0.250000   0.000000 0
  0.375000   0.750000 0
  0.750000   0.875000 0
  0.625000   0.125000 0
  0.250000   0.250000 0
  0.375000   1.000000 0
  0.375000   0.250000 0
  0.000000   0.375000 0
  0.500000   1.000000 0
  0.875000   0.750000 0
  0.750000   0.000000 0
  0.375000   0.125000 0
  0.500000   0.875000 0
  0.000000   0.000000 0
  0.125000   0.750000 0
  0.500000   0.625000 0
  0.125000   0.250000 0
  0.500000   0.125000 0
  0.250000   1.000000 0
  0.250000   0.125000 0
  0.000000   1.000000 0
  0.375000   0.875000 0
  0.000000   0.750000 0
  0.375000   0.625000 0
  0.000000   0.250000 0
  0.125000   1.000000 0
  1.000000   0.375000 0
  0.500000   0.500000 0
  0.875000   0.375000 0
CELLS 64 320
4 56 71 58 63
4 27 58 69 63
4 41 69 32 63
4 76 33 68 40
4 27 44 58 37
4 79 31 44 37
4 56 38 68 21
4 56 58 38 37
4 52 32 71 63
4 47 38 31 37
4 76 68 59 21
4 22 59 43 21
4 65 45 33 40
4 47 43 38 21
4 52 71 45 40
4 56 68 71 40
4 74 30 66 23
4 46 66 29 23
4 22 43 30 23
4 72 48 77 34
4 46 53 42 73
4 50 64 53 73
4 70 42 57 73
4 74 66 48 34
4 46 42 66 34
4 47 29 43 23
4 70 77 42 34
4 60 57 64 73
4 79 67 31 75
4 47 31 29 75
4 50 53 67 75
4 46 29 53 75
4 10 78 6 80
4 36 6 1 80
4 15 1 12 80
4 36 4 6 26
4 14 12 78 80
4 2 17 9 26
4 36 18 4 55
4 15 28 1 11
4 62 4 20 55
4 10 6 17 26
4 27 18 44 11
4 62 9 4 26
4 27 69 18 55
4 36 1 18 11
4 41 20 69 55
4 79 44 28 11
4 16 24 54 7
4 19 54 39 7
4 50 39 64 7
4 8 25 61 3
4 60 64 24 7
4 79 28 67 13
4 19 51 61 49
4 8 61 0 49
4 15 51 28 13
4 19 39 51 13
4 50 67 39 13
4 19 61 54 3
4 14 0 12 49
4 5 35 25 3
4 15 12 51 49
4 16 54 35 3
CELL_TYPES 64
8
8
8
8
8
8
8
8
8
8
8
8
8
8
8
8
8
8
8
8
8
8
8
8
8
8
8
8
8
8
8
8
8
8
8
8
8
8
8
8
8
8
8
8
8
8
8
8
8
8
8
8
8
8
8
8
8
8
8
8
8
8
8
8
CELL_DATA 64
VECTORS vector_value float
0.0285133 -0.182879 0
-0.262824 -0.671957 0
-0.0236908 -0.836983 0
-0.0283388 -0.563996 0
-0.0338178 -0.214956 0
0.102928 -0.684959 0
-0.114572 -0.377273 0
-0.0516959 -0.118836 0
0.0429791 -0.242511 0
-0.229081 -0.167586 0
-0.0525992 -0.478625 0
-0.0616594 -0.383356 0
-0.0348551 -0.643849 0
-0.171796 -0.256591 0
-0.000977313 -0.0913135 0
-0.00155263 -0.247752 0
8.66136e-05 -0.23805 0
0.0718433 -0.236412 0
-0.0262707 -0.276444 0
0.346201 -0.621372 0
0.582599 -0.741612 0
0.721625 -1.14573 0
1.00831 -0.885028 0
0.0297016 -0.266877 0
0.207473 -0.496899 0
-0.0548786 -0.160577 0
0.874792 -0.983388 0
0.836709 -1.11236 0
0.550838 -1.7778 0
-0.0764504 -0.206253 0
0.20812 -1.90225 0
0.345571 -0.366532 0
0.645868 -1.32981 0
2.11836 -2.90775 0
0.0668578 -1.58835 0
0.483905 -3.44611 0
-0.0714345 -0.736955 0
0.313286 -3.17039 0
-0.0614393 -0.327397 0
1.58203 -3.25339 0
-0.041351 -0.102287 0
0.296678 -2.30505 0
-0.17036 -0.591503 0
0.208505 -2.59784 0
-0.105527 -0.254857 0
1.38274 -1.98125 0
-0.16975 -0.31483 0
0.716359 -0.92882 0
0.699019 -1.25624 0
-0.447076 -1.47009 0
0.291876 -1.48234 0
0.152829 -1.70309 0
0.718987 -0.693486 0
1.56979 -2.37619 0
-0.125392 -0.27518 0
-0.264581 -1.8311 0
0.30038 -0.995966 0
-0.101825 -1.10844 0
-0.351735 -2.04204 0
-0.0399644 -0.693363 0
-0.216654 -1.21136 0
0.281418 -1.31449 0
-0.242459 -0.995409 0
0.534245 -1.13363 0
