# vtk DataFile Version 2.0
Unstructured Grid by M++
ASCII
DATASET UNSTRUCTURED_GRID
POINTS 289 float
  0.562500   1.000000 0
  0.562500   0.625000 0
  0.625000   1.000000 0
  0.562500   0.937500 0
  0.562500   0.562500 0
  0.625000   0.937500 0
  0.562500   0.875000 0
  0.625000   0.750000 0
  0.625000   0.625000 0
  0.562500   0.812500 0
  0.562500   0.750000 0
  0.562500   0.687500 0
  0.625000   0.875000 0
  0.625000   0.812500 0
  0.625000   0.687500 0
  0.687500   0.125000 0
  0.875000   0.062500 0
  0.625000   0.125000 0
  0.625000   0.187500 0
  0.625000   0.250000 0
  0.812500   0.187500 0
  1.000000   0.125000 0
  0.687500   0.187500 0
  0.750000   0.125000 0
  0.937500   0.062500 0
  0.937500   0.125000 0
  0.750000   0.187500 0
  0.812500   0.062500 0
  0.812500   0.125000 0
  0.875000   0.687500 0
  0.187500   0.250000 0
  0.437500   0.250000 0
  0.375000   0.187500 0
  0.812500   0.625000 0
  0.125000   0.187500 0
  0.937500   0.750000 0
  0.250000   0.312500 0
  0.500000   0.312500 0
  0.625000   0.062500 0
  0.437500   0.500000 0
  0.375000   0.125000 0
  0.437500   0.187500 0
  0.437500   0.437500 0
  0.437500   0.375000 0
  0.875000   0.875000 0
  0.187500   0.375000 0
  0.687500   0.562500 0
  0.687500   0.625000 0
  0.000000   0.125000 0
  0.937500   0.625000 0
  0.250000   0.125000 0
  0.375000   0.062500 0
  0.375000   0.000000 0
  0.812500   0.500000 0
  0.125000   0.000000 0
  0.937500   0.937500 0
  0.250000   0.437500 0
  0.687500   0.875000 0
  0.687500   0.937500 0
  0.000000   0.437500 0
  0.500000   0.500000 0
  0.500000   0.437500 0
  0.750000   0.937500 0
  0.750000   1.000000 0
  0.062500   0.500000 0
  1.000000   1.000000 0
  0.312500   0.500000 0
  0.875000   0.562500 0
  0.187500   0.062500 0
  0.437500   0.125000 0
  0.437500   0.062500 0
  0.500000   0.375000 0
  0.937500   0.812500 0
  0.937500   0.875000 0
  0.250000   0.375000 0
  0.687500   0.812500 0
  0.000000   0.375000 0
  0.750000   0.562500 0
  0.062500   0.125000 0
  1.000000   0.562500 0
  1.000000   0.625000 0
  0.312500   0.125000 0
  0.562500   0.125000 0
  0.437500   0.000000 0
  0.875000   0.437500 0
  0.875000   0.500000 0
  0.187500   0.000000 0
  0.937500   0.562500 0
  0.937500   0.500000 0
  0.250000   0.062500 0
  0.687500   0.500000 0
  0.000000   0.062500 0
  0.500000   0.062500 0
  1.000000   0.875000 0
  1.000000   0.937500 0
  0.312500   0.437500 0
  0.750000   0.875000 0
  0.062500   0.437500 0
  0.812500   0.937500 0
  0.125000   0.500000 0
  0.375000   0.500000 0
  0.625000   0.562500 0
  0.625000   0.500000 0
  0.437500   0.312500 0
  0.875000   0.812500 0
  0.875000   0.750000 0
  0.187500   0.312500 0
  0.812500   0.687500 0
  0.812500   0.750000 0
  0.125000   0.250000 0
  0.375000   0.250000 0
  1.000000   0.687500 0
  0.312500   0.187500 0
  0.750000   0.687500 0
  0.750000   0.625000 0
  0.062500   0.187500 0
  0.562500   0.250000 0
  0.562500   0.187500 0
  0.375000   1.000000 0
  0.500000   0.562500 0
  0.500000   0.250000 0
  0.750000   0.250000 0
  0.500000   0.125000 0
  0.500000   0.187500 0
  1.000000   0.187500 0
  0.625000   0.375000 0
  0.875000   0.375000 0
  1.000000   0.437500 0
  0.312500   0.000000 0
  0.562500   0.000000 0
  0.812500   0.000000 0
  0.250000   0.687500 0
  0.000000   0.687500 0
  0.500000   1.000000 0
  0.250000   1.000000 0
  0.000000   1.000000 0
  0.437500   0.687500 0
  0.437500   0.625000 0
  0.187500   0.625000 0
  0.687500   0.750000 0
  0.000000   0.312500 0
  0.000000   0.250000 0
  0.375000   0.375000 0
  0.375000   0.312500 0
  0.812500   0.812500 0
  0.125000   0.312500 0
  0.875000   0.625000 0
  0.187500   0.187500 0
  0.187500   0.125000 0
  0.937500   1.000000 0
  0.250000   0.562500 0
  0.250000   0.500000 0
  0.687500   1.000000 0
  0.000000   0.500000 0
  0.687500   0.687500 0
  0.000000   0.187500 0
  0.937500   0.687500 0
  0.250000   0.250000 0
  0.250000   0.187500 0
  0.187500   0.687500 0
  0.000000   0.750000 0
  0.250000   0.750000 0
  0.125000   0.625000 0
  0.750000   0.750000 0
  0.062500   0.250000 0
  0.875000   0.937500 0
  0.187500   0.500000 0
  0.187500   0.437500 0
  0.812500   0.562500 0
  0.125000   0.125000 0
  0.125000   0.062500 0
  0.375000   0.625000 0
  0.375000   0.687500 0
  1.000000   0.750000 0
  0.312500   0.250000 0
  0.312500   0.312500 0
  0.812500   0.312500 0
  0.562500   0.312500 0
  0.375000   0.750000 0
  0.500000   0.625000 0
  0.250000   0.625000 0
  0.312500   0.687500 0
  0.750000   0.812500 0
  0.062500   0.312500 0
  0.062500   0.375000 0
  1.000000   0.812500 0
  0.312500   0.375000 0
  0.562500   0.375000 0
  0.687500   0.437500 0
  0.000000   0.000000 0
  0.500000   0.000000 0
  0.937500   0.437500 0
  0.250000   0.000000 0
  0.375000   0.437500 0
  0.812500   0.875000 0
  0.125000   0.375000 0
  0.125000   0.437500 0
  0.625000   0.437500 0
  1.000000   0.500000 0
  0.312500   0.062500 0
  0.750000   0.500000 0
  0.062500   0.000000 0
  0.062500   0.062500 0
  0.562500   0.062500 0
  0.062500   0.750000 0
  0.312500   0.750000 0
  0.312500   0.625000 0
  0.312500   0.562500 0
  0.062500   0.562500 0
  0.187500   1.000000 0
  0.437500   0.562500 0
  0.875000   1.000000 0
  0.187500   0.562500 0
  0.500000   0.937500 0
  0.250000   0.937500 0
  0.312500   1.000000 0
  0.125000   0.750000 0
  0.125000   0.687500 0
  1.000000   0.000000 0
  0.000000   0.937500 0
  0.000000   0.875000 0
  0.875000   0.125000 0
  0.875000   0.187500 0
  0.062500   0.812500 0
  0.312500   0.812500 0
  0.000000   0.812500 0
  0.000000   0.625000 0
  0.000000   0.562500 0
  0.062500   1.000000 0
  0.062500   0.937500 0
  0.937500   0.187500 0
  0.937500   0.250000 0
  0.062500   0.687500 0
  0.062500   0.625000 0
  0.125000   1.000000 0
  1.000000   0.250000 0
  1.000000   0.312500 0
  0.062500   0.875000 0
  0.125000   0.812500 0
  0.375000   0.812500 0
  0.125000   0.875000 0
  0.375000   0.937500 0
  0.375000   0.875000 0
  0.187500   0.750000 0
  0.187500   0.812500 0
  0.437500   0.812500 0
  0.187500   0.875000 0
  0.437500   0.875000 0
  0.375000   0.562500 0
  0.812500   1.000000 0
  0.125000   0.562500 0
  0.437500   1.000000 0
  0.437500   0.937500 0
  0.187500   0.937500 0
  0.125000   0.937500 0
  0.500000   0.687500 0
  0.500000   0.750000 0
  0.500000   0.812500 0
  0.250000   0.812500 0
  0.250000   0.875000 0
  0.500000   0.875000 0
  0.437500   0.750000 0
  0.312500   0.875000 0
  0.312500   0.937500 0
  0.687500   0.250000 0
  0.687500   0.312500 0
  0.937500   0.312500 0
  0.875000   0.250000 0
  0.625000   0.000000 0
  0.875000   0.000000 0
  0.687500   0.375000 0
  0.937500   0.375000 0
  0.875000   0.312500 0
  0.625000   0.312500 0
  0.687500   0.000000 0
  0.937500   0.000000 0
  0.750000   0.312500 0
  0.750000   0.375000 0
  1.000000   0.375000 0
  0.812500   0.250000 0
  0.562500   0.437500 0
  0.562500   0.500000 0
  0.687500   0.062500 0
  0.750000   0.437500 0
  0.750000   0.000000 0
  0.750000   0.062500 0
  1.000000   0.062500 0
  0.812500   0.375000 0
  0.812500   0.437500 0
CELLS 256 1280
4 169 170 148 68
4 151 166 56 167
4 195 45 196 167
4 54 170 201 202
4 109 34 30 147
4 40 32 81 112
4 192 89 86 68
4 48 91 78 202
4 99 64 196 97
4 71 43 37 103
4 74 186 56 95
4 109 164 34 115
4 50 81 158 112
4 122 69 92 70
4 195 145 45 106
4 110 143 174 175
4 157 30 158 147
4 40 69 32 41
4 50 158 148 147
4 141 155 164 115
4 122 123 69 41
4 142 186 143 175
4 60 39 61 42
4 40 51 69 70
4 120 31 123 41
4 157 174 36 175
4 50 148 89 68
4 48 78 155 115
4 52 83 51 70
4 151 56 66 95
4 71 61 43 42
4 169 148 34 147
4 100 193 39 42
4 40 81 51 199
4 110 174 32 112
4 109 30 145 106
4 100 66 193 95
4 169 34 78 115
4 190 92 83 70
4 50 89 81 199
4 54 86 170 68
4 74 56 45 167
4 142 143 43 103
4 153 59 64 97
4 99 196 166 167
4 169 78 170 202
4 142 193 186 95
4 192 128 89 199
4 74 45 36 106
4 110 31 143 103
4 76 184 59 97
4 142 43 193 42
4 52 51 128 199
4 189 201 91 202
4 120 37 31 103
4 74 36 186 175
4 195 196 184 97
4 141 164 140 183
4 157 158 174 112
4 109 145 164 183
4 195 184 145 183
4 110 32 31 41
4 157 36 30 106
4 76 140 184 183
4 171 172 206 181
4 178 172 261 136
4 256 261 255 136
4 256 257 261 245
4 180 150 206 207
4 60 119 39 210
4 118 215 241 263
4 178 205 172 181
4 216 243 238 244
4 162 217 233 232
4 180 206 131 181
4 179 137 119 210
4 216 204 217 232
4 220 237 219 229
4 216 217 243 159
4 259 258 262 224
4 240 254 237 229
4 153 64 227 208
4 161 205 258 224
4 240 237 238 223
4 226 227 233 208
4 234 228 254 229
4 171 248 137 210
4 160 132 204 232
4 180 131 138 159
4 133 251 213 252
4 171 206 248 207
4 162 138 217 159
4 161 258 243 244
4 220 225 237 223
4 151 150 166 212
4 260 247 257 245
4 259 262 214 263
4 151 66 150 207
4 234 254 209 253
4 162 233 250 208
4 242 241 262 263
4 171 137 172 136
4 161 243 131 159
4 160 204 225 223
4 161 131 205 181
4 179 255 137 136
4 216 238 204 223
4 100 39 248 210
4 260 213 247 252
4 226 233 132 232
4 134 214 215 263
4 180 138 150 212
4 178 261 239 245
4 259 246 258 244
4 178 239 205 224
4 240 238 246 244
4 242 262 239 224
4 99 250 64 208
4 240 246 254 253
4 242 239 247 245
4 135 219 228 229
4 99 166 250 212
4 259 214 246 253
4 118 241 251 252
4 100 248 66 207
4 134 209 214 253
4 162 250 138 212
4 242 247 241 252
4 71 187 61 280
4 102 281 197 280
4 122 92 82 203
4 17 18 82 117
4 122 82 123 117
4 19 264 273 265
4 267 279 222 20
4 125 273 270 265
4 267 272 279 176
4 19 116 18 117
4 21 25 286 24
4 23 28 26 20
4 23 285 28 27
4 218 286 275 24
4 85 53 84 288
4 235 236 231 266
4 221 222 28 20
4 267 222 231 230
4 268 38 129 203
4 125 270 197 188
4 126 287 272 176
4 277 270 276 265
4 267 231 272 266
4 125 197 187 280
4 190 129 92 203
4 277 276 287 176
4 19 18 264 22
4 17 82 38 203
4 102 197 90 188
4 126 84 287 288
4 284 130 285 27
4 121 276 264 265
4 71 37 187 177
4 120 123 116 117
4 198 88 127 191
4 221 16 25 24
4 23 26 15 22
4 121 279 276 176
4 235 231 124 230
4 125 187 273 177
4 278 271 236 266
4 277 287 283 288
4 284 285 274 282
4 278 127 271 191
4 269 275 16 24
4 200 283 53 288
4 23 15 285 282
4 121 26 279 20
4 21 124 25 230
4 19 273 116 177
4 200 90 283 188
4 126 271 84 191
4 269 16 130 27
4 17 38 15 282
4 221 25 222 230
4 121 264 26 22
4 120 116 37 177
4 60 61 281 280
4 277 283 270 188
4 126 272 271 266
4 268 274 38 282
4 85 84 88 191
4 17 15 18 22
4 221 28 16 27
4 93 94 73 55
4 85 88 67 87
4 80 49 79 87
4 44 104 73 72
4 146 33 67 168
4 211 165 149 55
4 8 47 14 154
4 105 104 108 144
4 105 108 29 107
4 7 139 13 75
4 44 165 194 98
4 200 53 77 168
4 8 1 101 4
4 2 5 152 58
4 260 6 213 3
4 105 35 104 72
4 96 57 182 75
4 7 14 139 154
4 146 29 33 107
4 7 13 10 9
4 12 13 57 75
4 85 67 53 168
4 44 73 165 55
4 63 152 62 58
4 8 101 47 46
4 96 182 194 144
4 60 281 119 4
4 12 5 6 3
4 173 185 35 72
4 65 149 94 55
4 146 67 49 87
4 114 113 47 154
4 163 108 182 144
4 12 6 13 9
4 173 35 111 156
4 163 182 139 75
4 260 257 6 9
4 105 29 35 156
4 163 139 113 154
4 256 10 257 9
4 146 49 29 156
4 163 113 108 107
4 80 111 49 156
4 102 101 281 4
4 12 57 5 58
4 44 194 104 144
4 96 194 62 98
4 2 0 5 3
4 93 73 185 72
4 179 119 1 4
4 200 77 90 46
4 114 33 113 107
4 7 10 14 11
4 96 62 57 58
4 133 213 0 3
4 102 90 101 46
4 256 255 10 11
4 63 62 249 98
4 114 47 77 46
4 179 1 255 11
4 211 249 165 98
4 114 77 33 168
4 198 79 88 87
4 8 14 1 11
CELL_TYPES 256
8
8
8
8
8
8
8
8
8
8
8
8
8
8
8
8
8
8
8
8
8
8
8
8
8
8
8
8
8
8
8
8
8
8
8
8
8
8
8
8
8
8
8
8
8
8
8
8
8
8
8
8
8
8
8
8
8
8
8
8
8
8
8
8
8
8
8
8
8
8
8
8
8
8
8
8
8
8
8
8
8
8
8
8
8
8
8
8
8
8
8
8
8
8
8
8
8
8
8
8
8
8
8
8
8
8
8
8
8
8
8
8
8
8
8
8
8
8
8
8
8
8
8
8
8
8
8
8
8
8
8
8
8
8
8
8
8
8
8
8
8
8
8
8
8
8
8
8
8
8
8
8
8
8
8
8
8
8
8
8
8
8
8
8
8
8
8
8
8
8
8
8
8
8
8
8
8
8
8
8
8
8
8
8
8
8
8
8
8
8
8
8
8
8
8
8
8
8
8
8
8
8
8
8
8
8
8
8
8
8
8
8
8
8
8
8
8
8
8
8
8
8
8
8
8
8
8
8
8
8
8
8
8
8
8
8
8
8
8
8
8
8
8
8
8
8
8
8
8
8
8
8
8
8
8
8
CELL_DATA 256
VECTORS vector_value float
-0.241006 -0.640235 0
1.3594 -1.23026 0
0.235973 -0.309624 0
0.144086 -0.609538 0
-0.367785 -0.28074 0
0.354871 -2.13602 0
-0.143982 -1.08288 0
0.0883868 -0.545514 0
0.407869 -0.587979 0
0.0253858 -0.197805 0
0.51516 -2.98882 0
-0.180998 -0.138105 0
-0.168593 -2.42809 0
0.265771 -0.584347 0
0.0519681 -0.148818 0
0.123114 -2.40458 0
-0.684552 -1.04245 0
0.340299 -0.540811 0
-0.387252 -1.40152 0
-0.0704856 -0.457467 0
0.198668 -0.42274 0
-0.232834 -2.36 0
-0.0577803 -0.652928 0
0.479689 -0.987364 0
0.142279 -0.299486 0
-0.12964 -4.35992 0
-0.181742 -1.24316 0
-0.0278886 -0.564984 0
0.0564616 -0.947907 0
0.271213 -1.91698 0
-0.0713589 -0.404238 0
-0.20987 -0.374767 0
-0.277564 -0.823363 0
0.0523496 -1.31282 0
0.337525 -2.47294 0
-0.0950629 -0.130899 0
-0.444493 -1.77121 0
-0.122868 -0.286859 0
0.0732847 -0.618123 0
-0.106873 -2.19626 0
-0.0398097 -0.983992 0
0.898796 -1.47831 0
-0.146382 -0.437403 0
0.0610791 -0.340536 0
1.54932 -1.19134 0
-0.00561838 -0.481938 0
-0.192243 -2.21337 0
-0.276774 -2.57624 0
0.349146 -0.830697 0
0.0966038 -0.223871 0
-0.0015681 -0.284796 0
-0.318264 -0.654106 0
-0.14656 -0.713597 0
0.0448298 -0.323024 0
0.0927227 -0.223202 0
0.26279 -4.04927 0
0.0488494 -0.188414 0
-0.0259144 -0.344003 0
-0.296219 -3.28618 0
-0.0721367 -0.101932 0
-0.0024686 -0.0861647 0
0.32486 -0.337426 0
-0.203733 -0.593683 0
-0.0146578 -0.317316 0
0.263752 -1.17799 0
0.603306 -1.17605 0
0.116522 -0.425903 0
0.0362978 -0.421774 0
-0.0114219 -0.205384 0
-0.00462812 -0.609379 0
0.0188141 -1.29342 0
1.02897 -2.36036 0
-0.26323 -0.201188 0
0.186457 -0.977974 0
-0.00172646 -0.214352 0
-0.0469061 -0.826186 0
0.011718 -0.829326 0
-0.138184 -0.88571 0
-0.0364625 -0.138512 0
-0.338775 -1.47619 0
-0.316061 -1.61093 0
0.540316 -0.933749 0
0.334408 -1.19697 0
-0.881327 -1.37593 0
0.525461 -2.14773 0
-0.0278248 -1.48042 0
-0.375272 -2.42594 0
-0.0159362 -3.06636 0
-0.0215159 -0.15583 0
-0.463996 -0.805141 0
-0.120345 -0.843359 0
0.014455 -0.206474 0
-0.114694 -0.279518 0
-0.52928 -1.6734 0
0.665404 -0.595005 0
-0.337958 -0.528112 0
-0.158476 -0.800501 0
-0.0353716 -0.564305 0
-0.379544 -1.17163 0
0.681174 -1.56198 0
-0.535789 -1.89338 0
0.688139 -2.15417 0
-0.0497289 -0.173772 0
-0.464328 -2.51192 0
0.173958 -0.484481 0
0.222516 -0.827551 0
-0.724664 -1.20794 0
-0.409092 -1.57676 0
-0.224839 -0.419467 0
0.226584 -2.90326 0
0.132663 -0.737653 0
0.02491 -0.159677 0
0.0355441 -0.83179 0
-0.216881 -0.417823 0
0.243094 -2.09873 0
-0.61689 -0.618242 0
-0.424577 -1.53493 0
1.75004 -1.73103 0
-0.186228 -0.929707 0
-0.44064 -1.07469 0
0.147546 -0.709689 0
1.44824 -0.866968 0
-0.0530581 -0.633661 0
-0.557781 -1.30469 0
-0.782543 -1.64133 0
-0.222506 -0.639625 0
0.204745 -0.390821 0
-0.353716 -1.08631 0
0.0156674 -0.146562 0
0.0519715 -0.155206 0
0.102708 -0.55279 0
-0.0409993 -0.446957 0
0.0815666 -0.387723 0
-0.088433 -0.729449 0
-0.216925 -1.42982 0
-0.151572 -0.81007 0
-0.0842971 -0.817654 0
0.0162883 -0.421123 0
-0.0440586 -0.0853909 0
-0.138662 -1.24614 0
-0.285615 -1.07741 0
-0.0045385 -0.0417782 0
-1.39782 -0.833565 0
-0.278036 -1.3043 0
-0.284324 -1.6797 0
-0.424891 -0.878972 0
-0.0681744 -0.933723 0
-0.118349 -0.570582 0
-0.216067 -0.511225 0
-0.237077 -1.67717 0
-0.553752 -0.907794 0
0.0147235 -0.16617 0
0.0474575 -0.653018 0
-0.474974 -1.71227 0
-0.116813 -1.00627 0
-0.126185 -0.638122 0
-0.0410202 -0.332964 0
-0.853976 -1.01717 0
-0.229973 -1.86074 0
-0.196748 -2.02767 0
0.0689296 -0.263187 0
0.0390848 -0.223989 0
-0.305198 -2.45295 0
-0.312217 -0.73069 0
-0.164819 -1.31029 0
-0.0153208 -1.19034 0
-0.361571 -0.847792 0
-0.028508 -0.169036 0
-0.154403 -1.86352 0
-0.643248 -1.07854 0
0.0680345 -1.62568 0
-0.0975407 -2.06534 0
-0.0531694 -0.428026 0
-1.07227 -0.892599 0
-0.106775 -1.60922 0
0.0337813 -1.03844 0
-0.112024 -0.236012 0
0.0190243 -0.442222 0
-0.427136 -0.998642 0
-0.322688 -0.734189 0
-0.242442 -1.66531 0
-0.120783 -1.28661 0
-0.473739 -1.11946 0
-0.141895 -1.83879 0
0.0737814 -0.198484 0
0.0314575 -0.206584 0
-0.49084 -1.69977 0
-0.169039 -0.566049 0
-0.0339607 -0.93643 0
-1.13687 -1.61288 0
-0.221315 -1.41792 0
-0.55549 -2.02813 0
0.470204 -1.69375 0
-0.584682 -1.98471 0
0.197366 -3.38843 0
0.968849 -1.96016 0
-0.380799 -1.13931 0
0.234854 -1.03697 0
0.0487559 -0.120702 0
0.695364 -1.01639 0
0.18307 -0.945441 0
0.0469229 -0.245449 0
1.37548 -1.58298 0
-0.531235 -0.541815 0
0.0515437 -0.128362 0
0.687096 -0.532966 0
-0.216538 -0.715744 0
0.27869 -2.69728 0
0.376916 -0.460309 0
0.00737783 -0.140816 0
-0.104124 -0.887218 0
0.0184045 -0.114677 0
0.197537 -0.27564 0
-0.501095 -0.718783 0
1.00018 -1.23373 0
1.12324 -1.00903 0
0.0365459 -0.108203 0
0.58558 -0.729197 0
0.030102 -0.25317 0
0.215517 -0.431736 0
0.00221897 -2.48538 0
0.0236367 -0.959883 0
0.00690484 -1.88025 0
0.0104911 -0.0625493 0
0.398446 -0.330913 0
0.0867892 -0.198996 0
0.0487317 -2.64029 0
0.152943 -0.217697 0
-0.0460464 -0.213505 0
0.162444 -2.95089 0
0.0707812 -0.103175 0
0.0253036 -0.142387 0
0.126046 -2.94949 0
0.0942278 -0.162452 0
0.150817 -2.69288 0
0.0624455 -0.143412 0
0.442644 -0.374303 0
0.650892 -0.93436 0
1.03554 -1.12575 0
0.232044 -0.991416 0
0.279157 -2.5285 0
0.0647923 -0.299626 0
-0.220038 -0.500367 0
-0.0420994 -0.240509 0
-0.0102556 -0.21027 0
0.565653 -0.582338 0
-0.0592132 -0.764264 0
0.00945484 -0.207996 0
0.0536969 -0.191914 0
1.02944 -1.03669 0
-0.0626961 -0.253975 0
0.0133551 -0.24962 0
0.694608 -1.5265 0
-0.216461 -0.240764 0
-0.29463 -3.13123 0
0.0188322 -0.179426 0
