# vtk DataFile Version 2.0
Unstructured Grid by M++
ASCII
DATASET UNSTRUCTURED_GRID
POINTS 81 float
  1.000000   0.625000 0
  0.750000   0.375000 0
  1.000000   0.000000 0
  0.875000   0.875000 0
  0.750000   0.125000 0
  1.000000   1.000000 0
  0.875000   0.250000 0
  0.625000   0.875000 0
  1.000000   0.750000 0
  0.875000   0.000000 0
  1.000000   0.250000 0
  0.625000   0.375000 0
  0.875000   0.500000 0
  0.625000   0.625000 0
  1.000000   0.500000 0
  0.750000   0.500000 0
  0.750000   1.000000 0
  1.000000   0.125000 0
  0.625000   0.250000 0
  0.750000   0.750000 0
  0.625000   0.000000 0
  0.125000   0.375000 0
  0.000000   0.500000 0
  0.125000   0.625000 0
  0.625000   1.000000 0
  1.000000   0.875000 0
  0.875000   0.125000 0
  0.500000   0.250000 0
  0.625000   0.500000 0
  0.250000   0.625000 0
  0.000000   0.625000 0
  0.375000   0.500000 0
  0.375000   0.000000 0
  0.000000   0.125000 0
  0.125000   0.875000 0
  0.875000   1.000000 0
  0.750000   0.250000 0
  0.375000   0.375000 0
  0.250000   0.375000 0
  0.625000   0.750000 0
  0.125000   0.125000 0
  0.500000   0.000000 0
  0.250000   0.875000 0
  0.125000   0.500000 0
  0.500000   0.375000 0
  0.125000   0.000000 0
  0.250000   0.750000 0
  0.250000   0.500000 0
  0.000000   0.875000 0
  0.875000   0.625000 0
  0.500000   0.750000 0
  0.750000   0.625000 0
  0.250000   0.000000 0
  0.375000   0.750000 0
  0.750000   0.875000 0
  0.625000   0.125000 0
  0.250000   0.250000 0
  0.375000   1.000000 0
  0.375000   0.250000 0
  0.000000   0.375000 0
  0.500000   1.000000 0
  0.875000   0.750000 0
  0.750000   0.000000 0
  0.375000   0.125000 0
  0.500000   0.875000 0
  0.000000   0.000000 0
  0.125000   0.750000 0
  0.500000   0.625000 0
  0.125000   0.250000 0
  0.500000   0.125000 0
  0.250000   1.000000 0
  0.250000   0.125000 0
  0.000000   1.000000 0
  0.375000   0.875000 0
  0.000000   0.750000 0
  0.375000   0.625000 0
  0.000000   0.250000 0
  0.125000   1.000000 0
  1.000000   0.375000 0
  0.500000   0.500000 0
  0.875000   0.375000 0
CELLS 64 320
4 56 71 58 63
4 27 58 69 63
4 41 69 32 63
4 76 33 68 40
4 27 44 58 37
4 79 31 44 37
4 56 38 68 21
4 56 58 38 37
4 52 32 71 63
4 47 38 31 37
4 76 68 59 21
4 22 59 43 21
4 65 45 33 40
4 47 43 38 21
4 52 71 45 40
4 56 68 71 40
4 74 30 66 23
4 46 66 29 23
4 22 43 30 23
4 72 48 77 34
4 46 53 42 73
4 50 64 53 73
4 70 42 57 73
4 74 66 48 34
4 46 42 66 34
4 47 29 43 23
4 70 77 42 34
4 60 57 64 73
4 79 67 31 75
4 47 31 29 75
4 50 53 67 75
4 46 29 53 75
4 10 78 6 80
4 36 6 1 80
4 15 1 12 80
4 36 4 6 26
4 14 12 78 80
4 2 17 9 26
4 36 18 4 55
4 15 28 1 11
4 62 4 20 55
4 10 6 17 26
4 27 18 44 11
4 62 9 4 26
4 27 69 18 55
4 36 1 18 11
4 41 20 69 55
4 79 44 28 11
4 16 24 54 7
4 19 54 39 7
4 50 39 64 7
4 8 25 61 3
4 60 64 24 7
4 79 28 67 13
4 19 51 61 49
4 8 61 0 49
4 15 51 28 13
4 19 39 51 13
4 50 67 39 13
4 19 61 54 3
4 14 0 12 49
4 5 35 25 3
4 15 12 51 49
4 16 54 35 3
CELL_TYPES 64
8
8
8
8
8
8
8
8
8
8
8
8
8
8
8
8
8
8
8
8
8
8
8
8
8
8
8
8
8
8
8
8
8
8
8
8
8
8
8
8
8
8
8
8
8
8
8
8
8
8
8
8
8
8
8
8
8
8
8
8
8
8
8
8
CELL_DATA 64
VECTORS vector_value float
-0.406872 -0.256131 0
-0.99692 -0.707758 0
-0.0845399 -0.402677 0
0.118727 -0.241774 0
0.0196078 -0.468777 0
0.0920341 -0.301009 0
-0.131879 -0.359963 0
-0.0123141 -0.08223 0
-0.315745 -0.983048 0
0.0131509 -0.409462 0
-0.0137667 -0.495684 0
-0.0176397 -0.335176 0
0.0148489 -0.120061 0
-0.0588353 -0.356842 0
0.00148308 -0.965393 0
0.0884567 -0.756434 0
0.193997 -0.573882 0
0.248327 -0.312549 0
0.0240428 -0.294646 0
0.106179 -0.762035 0
0.329186 -1.15743 0
0.26821 -0.714681 0
0.666555 -0.71337 0
0.0160563 -0.815999 0
0.053594 -0.18299 0
0.131982 -0.427773 0
0.564361 -1.03073 0
0.842046 -1.02368 0
0.558375 -0.236937 0
0.365826 -0.765454 0
0.517257 -0.527341 0
0.230612 -1.02383 0
0.146129 -2.07568 0
0.80405 -2.48887 0
-0.441189 -3.56806 0
0.845543 -0.971593 0
0.172332 -1.95224 0
0.17089 -4.9113 0
0.11498 -0.341011 0
-0.0937381 -0.830447 0
0.017727 -0.0696963 0
1.1554 -4.13478 0
-0.246277 -0.390246 0
0.209575 -0.445052 0
-0.740733 -0.590521 0
-0.563987 -1.63855 0
-0.00875826 -0.102775 0
0.0330631 -0.246766 0
0.947599 -0.774921 0
0.611178 -1.21074 0
0.551724 -0.690677 0
-0.0689551 -1.59311 0
1.01967 -1.04936 0
0.798285 -0.348548 0
0.450188 -3.25591 0
-0.24261 -1.05515 0
0.769032 -0.684341 0
1.09136 -0.924209 0
0.568999 -0.327131 0
0.0804823 -1.63437 0
0.335999 -1.15534 0
0.314944 -1.64471 0
0.867962 -4.08696 0
0.852141 -1.0012 0
