# vtk DataFile Version 2.0
Unstructured Grid by M++
ASCII
DATASET UNSTRUCTURED_GRID
POINTS 81 float
  1.000000   0.625000 0
  0.750000   0.375000 0
  1.000000   0.000000 0
  0.875000   0.875000 0
  0.750000   0.125000 0
  1.000000   1.000000 0
  0.875000   0.250000 0
  0.625000   0.875000 0
  1.000000   0.750000 0
  0.875000   0.000000 0
  1.000000   0.250000 0
  0.625000   0.375000 0
  0.875000   0.500000 0
  0.625000   0.625000 0
  1.000000   0.500000 0
  0.750000   0.500000 0
  0.750000   1.000000 0
  1.000000   0.125000 0
  0.625000   0.250000 0
  0.750000   0.750000 0
  0.625000   0.000000 0
  0.125000   0.375000 0
  0.000000   0.500000 0
  0.125000   0.625000 0
  0.625000   1.000000 0
  1.000000   0.875000 0
  0.875000   0.125000 0
  0.500000   0.250000 0
  0.625000   0.500000 0
  0.250000   0.625000 0
  0.000000   0.625000 0
  0.375000   0.500000 0
  0.375000   0.000000 0
  0.000000   0.125000 0
  0.125000   0.875000 0
  0.875000   1.000000 0
  0.750000   0.250000 0
  0.375000   0.375000 0
  0.250000   0.375000 0
  0.625000   0.750000 0
  0.125000   0.125000 0
  0.500000   0.000000 0
  0.250000   0.875000 0
  0.125000   0.500000 0
  0.500000   0.375000 0
  0.125000   0.000000 0
  0.250000   0.750000 0
  0.250000   0.500000 0
  0.000000   0.875000 0
  0.875000   0.625000 0
  0.500000   0.750000 0
  0.750000   0.625000 0
  0.250000   0.000000 0
  0.375000   0.750000 0
  0.750000   0.875000 0
  0.625000   0.125000 0
  0.250000   0.250000 0
  0.375000   1.000000 0
  0.375000   0.250000 0
  0.000000   0.375000 0
  0.500000   1.000000 0
  0.875000   0.750000 0
  0.750000   0.000000 0
  0.375000   0.125000 0
  0.500000   0.875000 0
  0.000000   0.000000 0
  0.125000   0.750000 0
  0.500000   0.625000 0
  0.125000   0.250000 0
  0.500000   0.125000 0
  0.250000   1.000000 0
  0.250000   0.125000 0
  0.000000   1.000000 0
  0.375000   0.875000 0
  0.000000   0.750000 0
  0.375000   0.625000 0
  0.000000   0.250000 0
  0.125000   1.000000 0
  1.000000   0.375000 0
  0.500000   0.500000 0
  0.875000   0.375000 0
CELLS 64 320
4 56 71 58 63
4 27 58 69 63
4 41 69 32 63
4 76 33 68 40
4 27 44 58 37
4 79 31 44 37
4 56 38 68 21
4 56 58 38 37
4 52 32 71 63
4 47 38 31 37
4 76 68 59 21
4 22 59 43 21
4 65 45 33 40
4 47 43 38 21
4 52 71 45 40
4 56 68 71 40
4 74 30 66 23
4 46 66 29 23
4 22 43 30 23
4 72 48 77 34
4 46 53 42 73
4 50 64 53 73
4 70 42 57 73
4 74 66 48 34
4 46 42 66 34
4 47 29 43 23
4 70 77 42 34
4 60 57 64 73
4 79 67 31 75
4 47 31 29 75
4 50 53 67 75
4 46 29 53 75
4 10 78 6 80
4 36 6 1 80
4 15 1 12 80
4 36 4 6 26
4 14 12 78 80
4 2 17 9 26
4 36 18 4 55
4 15 28 1 11
4 62 4 20 55
4 10 6 17 26
4 27 18 44 11
4 62 9 4 26
4 27 69 18 55
4 36 1 18 11
4 41 20 69 55
4 79 44 28 11
4 16 24 54 7
4 19 54 39 7
4 50 39 64 7
4 8 25 61 3
4 60 64 24 7
4 79 28 67 13
4 19 51 61 49
4 8 61 0 49
4 15 51 28 13
4 19 39 51 13
4 50 67 39 13
4 19 61 54 3
4 14 0 12 49
4 5 35 25 3
4 15 12 51 49
4 16 54 35 3
CELL_TYPES 64
8
8
8
8
8
8
8
8
8
8
8
8
8
8
8
8
8
8
8
8
8
8
8
8
8
8
8
8
8
8
8
8
8
8
8
8
8
8
8
8
8
8
8
8
8
8
8
8
8
8
8
8
8
8
8
8
8
8
8
8
8
8
8
8
CELL_DATA 64
VECTORS vector_value float
0.0875362 -0.112022 0
-0.201843 -0.590912 0
-0.511131 -1.921 0
0.244837 -0.449839 0
-0.0184317 -0.162088 0
-0.00704332 -0.180004 0
0.112151 -0.504055 0
-0.00315315 -0.0700397 0
0.530785 -0.673483 0
0.0103503 -0.0735247 0
0.176324 -0.91689 0
-0.0168564 -1.02697 0
0.0178371 -0.15101 0
-0.00504735 -0.374136 0
0.185831 -0.428923 0
0.578836 -0.887422 0
-0.029214 -0.995651 0
-0.103576 -0.327567 0
-0.00161823 -0.951288 0
0.0623348 -0.784523 0
0.0406155 -0.431522 0
0.159142 -0.17891 0
1.04806 -0.450898 0
-0.0261762 -0.896118 0
-0.0601985 -0.247704 0
-0.0282928 -0.474575 0
0.485796 -0.985703 0
1.75364 -0.611391 0
0.0135175 -0.128481 0
-0.00363248 -0.072234 0
0.0130447 -0.0863311 0
-0.0387765 -0.213457 0
-0.557795 -3.04963 0
-1.47757 -1.19195 0
-0.472176 -0.461794 0
-0.317292 -0.744491 0
-0.571672 -4.46909 0
0.113013 -2.4942 0
-1.28058 -1.41208 0
-0.250311 -0.361335 0
-0.132347 -0.24601 0
-0.100811 -2.30342 0
-0.202145 -1.23589 0
0.0464202 -0.393999 0
-0.642683 -1.49981 0
-0.605076 -0.86946 0
-1.14292 -1.69137 0
-0.180682 -1.05314 0
2.4698 -0.608922 0
0.49453 -0.343317 0
0.408674 -0.819857 0
0.914305 -3.58298 0
2.17118 -1.21115 0
-0.130713 -0.733896 0
0.056107 -0.484135 0
0.312577 -4.78748 0
-0.215964 -0.548134 0
0.00909804 -0.579018 0
0.0086988 -0.526364 0
1.39136 -1.49959 0
-0.0563818 -4.85673 0
0.7127 -1.78353 0
-0.0753731 -0.234661 0
2.04745 -1.56388 0
