# vtk DataFile Version 2.0
Unstructured Grid by M++
ASCII
DATASET UNSTRUCTURED_GRID
POINTS 81 float
  1.000000   0.625000 0
  0.750000   0.375000 0
  1.000000   0.000000 0
  0.875000   0.875000 0
  0.750000   0.125000 0
  1.000000   1.000000 0
  0.875000   0.250000 0
  0.625000   0.875000 0
  1.000000   0.750000 0
  0.875000   0.000000 0
  1.000000   0.250000 0
  0.625000   0.375000 0
  0.875000   0.500000 0
  0.625000   0.625000 0
  1.000000   0.500000 0
  0.750000   0.500000 0
  0.750000   1.000000 0
  1.000000   0.125000 0
  0.625000   0.250000 0
  0.750000   0.750000 0
  0.625000   0.000000 0
  0.125000   0.375000 0
  0.000000   0.500000 0
  0.125000   0.625000 0
  0.625000   1.000000 0
  1.000000   0.875000 0
  0.875000   0.125000 0
  0.500000   0.250000 0
  0.625000   0.500000 0
  0.250000   0.625000 0
  0.000000   0.625000 0
  0.375000   0.500000 0
  0.375000   0.000000 0
  0.000000   0.125000 0
  0.125000   0.875000 0
  0.875000   1.000000 0
  0.750000   0.250000 0
  0.375000   0.375000 0
  0.250000   0.375000 0
  0.625000   0.750000 0
  0.125000   0.125000 0
  0.500000   0.000000 0
  0.250000   0.875000 0
  0.125000   0.500000 0
  0.500000   0.375000 0
  0.125000   0.000000 0
  0.250000   0.750000 0
  0.250000   0.500000 0
  0.000000   0.875000 0
  0.875000   0.625000 0
  0.500000   0.750000 0
  0.750000   0.625000 0
  0.250000   0.000000 0
  0.375000   0.750000 0
  0.750000   0.875000 0
  0.625000   0.125000 0
  0.250000   0.250000 0
  0.375000   1.000000 0
  0.375000   0.250000 0
  0.000000   0.375000 0
  0.500000   1.000000 0
  0.875000   0.750000 0
  0.750000   0.000000 0
  0.375000   0.125000 0
  0.500000   0.875000 0
  0.000000   0.000000 0
  0.125000   0.750000 0
  0.500000   0.625000 0
  0.125000   0.250000 0
  0.500000   0.125000 0
  0.250000   1.000000 0
  0.250000   0.125000 0
  0.000000   1.000000 0
  0.375000   0.875000 0
  0.000000   0.750000 0
  0.375000   0.625000 0
  0.000000   0.250000 0
  0.125000   1.000000 0
  1.000000   0.375000 0
  0.500000   0.500000 0
  0.875000   0.375000 0
CELLS 64 320
4 56 71 58 63
4 27 58 69 63
4 41 69 32 63
4 76 33 68 40
4 27 44 58 37
4 79 31 44 37
4 56 38 68 21
4 56 58 38 37
4 52 32 71 63
4 47 38 31 37
4 76 68 59 21
4 22 59 43 21
4 65 45 33 40
4 47 43 38 21
4 52 71 45 40
4 56 68 71 40
4 74 30 66 23
4 46 66 29 23
4 22 43 30 23
4 72 48 77 34
4 46 53 42 73
4 50 64 53 73
4 70 42 57 73
4 74 66 48 34
4 46 42 66 34
4 47 29 43 23
4 70 77 42 34
4 60 57 64 73
4 79 67 31 75
4 47 31 29 75
4 50 53 67 75
4 46 29 53 75
4 10 78 6 80
4 36 6 1 80
4 15 1 12 80
4 36 4 6 26
4 14 12 78 80
4 2 17 9 26
4 36 18 4 55
4 15 28 1 11
4 62 4 20 55
4 10 6 17 26
4 27 18 44 11
4 62 9 4 26
4 27 69 18 55
4 36 1 18 11
4 41 20 69 55
4 79 44 28 11
4 16 24 54 7
4 19 54 39 7
4 50 39 64 7
4 8 25 61 3
4 60 64 24 7
4 79 28 67 13
4 19 51 61 49
4 8 61 0 49
4 15 51 28 13
4 19 39 51 13
4 50 67 39 13
4 19 61 54 3
4 14 0 12 49
4 5 35 25 3
4 15 12 51 49
4 16 54 35 3
CELL_TYPES 64
8
8
8
8
8
8
8
8
8
8
8
8
8
8
8
8
8
8
8
8
8
8
8
8
8
8
8
8
8
8
8
8
8
8
8
8
8
8
8
8
8
8
8
8
8
8
8
8
8
8
8
8
8
8
8
8
8
8
8
8
8
8
8
8
CELL_DATA 64
VECTORS vector_value float
-0.248512 -0.212659 0
0.0229745 -0.167711 0
0.0368101 -0.0557966 0
-0.655219 -2.25919 0
-0.198747 -0.368351 0
-1.07042 -1.0097 0
-1.06533 -0.963772 0
-1.34624 -1.88939 0
-0.00891632 -0.0201062 0
-1.18057 -2.18495 0
-0.435846 -1.27554 0
0.0392173 -0.685711 0
-0.176186 -3.1614 0
-0.116764 -0.366532 0
-0.135503 -1.09777 0
-1.54952 -1.80867 0
0.0753831 -0.944286 0
0.0869976 -0.199443 0
0.0239929 -0.782981 0
0.11881 -0.765863 0
0.264636 -1.11309 0
0.550452 -1.07951 0
0.642867 -1.53587 0
-0.100214 -0.926538 0
-0.0167227 -0.213935 0
0.0958277 -0.199903 0
0.468143 -0.69338 0
0.43826 -0.549105 0
-0.661668 -1.52948 0
0.0465077 -0.951243 0
0.0812958 -0.876739 0
0.0595239 -0.835734 0
0.0148927 -0.0979415 0
-0.180224 -1.48386 0
-0.39855 -2.28992 0
-0.130233 -0.827498 0
-0.00727054 -0.0770089 0
-0.0601799 -0.070358 0
-0.369108 -1.70754 0
-0.664909 -1.22274 0
0.231294 -1.87183 0
0.0255009 -0.188239 0
-0.282944 -0.445596 0
-0.0130459 -0.997891 0
-0.0853369 -0.828489 0
-0.296116 -1.47555 0
0.204626 -0.724847 0
-0.333245 -0.163444 0
0.140344 -1.24331 0
0.181219 -2.21591 0
0.276268 -0.857134 0
0.0291991 -0.691557 0
0.621573 -1.25549 0
-0.658517 -0.583066 0
0.176191 -1.29264 0
-0.190906 -0.694075 0
0.09787 -1.5169 0
0.22212 -1.97333 0
0.0941819 -1.18375 0
0.0233674 -0.902325 0
-0.113595 -0.16801 0
-0.172492 -0.668926 0
-0.0751624 -2.26841 0
-0.335213 -1.28805 0
