# vtk DataFile Version 2.0
Unstructured Grid by M++
ASCII
DATASET UNSTRUCTURED_GRID
POINTS 81 float
  1.000000   0.625000 0
  0.750000   0.375000 0
  1.000000   0.000000 0
  0.875000   0.875000 0
  0.750000   0.125000 0
  1.000000   1.000000 0
  0.875000   0.250000 0
  0.625000   0.875000 0
  1.000000   0.750000 0
  0.875000   0.000000 0
  1.000000   0.250000 0
  0.625000   0.375000 0
  0.875000   0.500000 0
  0.625000   0.625000 0
  1.000000   0.500000 0
  0.750000   0.500000 0
  0.750000   1.000000 0
  1.000000   0.125000 0
  0.625000   0.250000 0
  0.750000   0.750000 0
  0.625000   0.000000 0
  0.125000   0.375000 0
  0.000000   0.500000 0
  0.125000   0.625000 0
  0.625000   1.000000 0
  1.000000   0.875000 0
  0.875000   0.125000 0
  0.500000   0.250000 0
  0.625000   0.500000 0
  0.250000   0.625000 0
  0.000000   0.625000 0
  0.375000   0.500000 0
  0.375000   0.000000 0
  0.000000   0.125000 0
  0.125000   0.875000 0
  0.875000   1.000000 0
  0.750000   0.250000 0
  0.375000   0.375000 0
  0.250000   0.375000 0
  0.625000   0.750000 0
  0.125000   0.125000 0
  0.500000   0.000000 0
  0.250000   0.875000 0
  0.125000   0.500000 0
  0.500000   0.375000 0
  0.125000   0.000000 0
  0.250000   0.750000 0
  0.250000   0.500000 0
  0.000000   0.875000 0
  0.875000   0.625000 0
  0.500000   0.750000 0
  0.750000   0.625000 0
  0.250000   0.000000 0
  0.375000   0.750000 0
  0.750000   0.875000 0
  0.625000   0.125000 0
  0.250000   0.250000 0
  0.375000   1.000000 0
  0.375000   0.250000 0
  0.000000   0.375000 0
  0.500000   1.000000 0
  0.875000   0.750000 0
  0.750000   0.000000 0
  0.375000   0.125000 0
  0.500000   0.875000 0
  0.000000   0.000000 0
  0.125000   0.750000 0
  0.500000   0.625000 0
  0.125000   0.250000 0
  0.500000   0.125000 0
  0.250000   1.000000 0
  0.250000   0.125000 0
  0.000000   1.000000 0
  0.375000   0.875000 0
  0.000000   0.750000 0
  0.375000   0.625000 0
  0.000000   0.250000 0
  0.125000   1.000000 0
  1.000000   0.375000 0
  0.500000   0.500000 0
  0.875000   0.375000 0
CELLS 64 320
4 56 71 58 63
4 27 58 69 63
4 41 69 32 63
4 76 33 68 40
4 27 44 58 37
4 79 31 44 37
4 56 38 68 21
4 56 58 38 37
4 52 32 71 63
4 47 38 31 37
4 76 68 59 21
4 22 59 43 21
4 65 45 33 40
4 47 43 38 21
4 52 71 45 40
4 56 68 71 40
4 74 30 66 23
4 46 66 29 23
4 22 43 30 23
4 72 48 77 34
4 46 53 42 73
4 50 64 53 73
4 70 42 57 73
4 74 66 48 34
4 46 42 66 34
4 47 29 43 23
4 70 77 42 34
4 60 57 64 73
4 79 67 31 75
4 47 31 29 75
4 50 53 67 75
4 46 29 53 75
4 10 78 6 80
4 36 6 1 80
4 15 1 12 80
4 36 4 6 26
4 14 12 78 80
4 2 17 9 26
4 36 18 4 55
4 15 28 1 11
4 62 4 20 55
4 10 6 17 26
4 27 18 44 11
4 62 9 4 26
4 27 69 18 55
4 36 1 18 11
4 41 20 69 55
4 79 44 28 11
4 16 24 54 7
4 19 54 39 7
4 50 39 64 7
4 8 25 61 3
4 60 64 24 7
4 79 28 67 13
4 19 51 61 49
4 8 61 0 49
4 15 51 28 13
4 19 39 51 13
4 50 67 39 13
4 19 61 54 3
4 14 0 12 49
4 5 35 25 3
4 15 12 51 49
4 16 54 35 3
CELL_TYPES 64
8
8
8
8
8
8
8
8
8
8
8
8
8
8
8
8
8
8
8
8
8
8
8
8
8
8
8
8
8
8
8
8
8
8
8
8
8
8
8
8
8
8
8
8
8
8
8
8
8
8
8
8
8
8
8
8
8
8
8
8
8
8
8
8
CELL_DATA 64
VECTORS vector_value float
2.14462 -1.71573 0
1.22405 -0.916151 0
0.69141 -1.21855 0
0.221657 -0.371437 0
0.18325 -0.121081 0
0.150872 -0.0409229 0
1.70568 -2.07468 0
0.526713 -0.445173 0
0.298886 -1.03684 0
0.246169 -0.159053 0
0.541649 -1.25897 0
0.0746898 -2.07455 0
0.0025303 -0.0356094 0
0.205458 -1.78097 0
0.10181 -0.298791 0
0.668371 -0.630388 0
0.0125026 -0.371152 0
-0.122405 -3.36913 0
-0.671608 -1.45206 0
0.192247 -0.883537 0
-0.528656 -1.2735 0
-0.0111965 -0.270151 0
-1.01475 -0.703976 0
0.10895 -0.568 0
-0.180891 -2.51987 0
-0.74088 -2.48034 0
-0.30518 -1.83266 0
-0.968331 -0.828842 0
0.351625 -0.186752 0
0.0630674 -0.27268 0
0.0130392 -0.12515 0
-0.0390542 -0.672529 0
0.443952 -1.61461 0
0.519476 -2.0924 0
0.659875 -2.23846 0
0.03525 -1.14211 0
0.111599 -0.942838 0
-0.118018 -2.23099 0
-0.0122293 -0.558505 0
0.768087 -0.572823 0
0.041279 -0.836095 0
0.169414 -2.44339 0
0.109318 -0.0459394 0
-0.162217 -1.25259 0
0.192014 -0.22228 0
0.072604 -0.347135 0
0.647929 -1.09054 0
0.432511 -0.190386 0
-0.410147 -1.36344 0
0.509654 -1.93492 0
0.0112306 -0.221266 0
0.0124265 -0.333773 0
-0.244329 -0.938854 0
0.300017 -0.265003 0
0.688863 -1.27736 0
0.364685 -0.9811 0
0.344517 -0.844536 0
0.0947413 -0.827967 0
0.0242408 -0.375614 0
0.309985 -0.878513 0
-0.0577103 -1.0111 0
-0.330521 -0.493415 0
0.0427373 -1.48753 0
-0.763721 -0.955274 0
