# vtk DataFile Version 2.0
Unstructured Grid by M++
ASCII
DATASET UNSTRUCTURED_GRID
POINTS 81 float
  1.000000   0.625000 0
  0.750000   0.375000 0
  1.000000   0.000000 0
  0.875000   0.875000 0
  0.750000   0.125000 0
  1.000000   1.000000 0
  0.875000   0.250000 0
  0.625000   0.875000 0
  1.000000   0.750000 0
  0.875000   0.000000 0
  1.000000   0.250000 0
  0.625000   0.375000 0
  0.875000   0.500000 0
  0.625000   0.625000 0
  1.000000   0.500000 0
  0.750000   0.500000 0
  0.750000   1.000000 0
  1.000000   0.125000 0
  0.625000   0.250000 0
  0.750000   0.750000 0
  0.625000   0.000000 0
  0.125000   0.375000 0
  0.000000   0.500000 0
  0.125000   0.625000 0
  0.625000   1.000000 0
  1.000000   0.875000 0
  0.875000   0.125000 0
  0.500000   0.250000 0
  0.625000   0.500000 0
  0.250000   0.625000 0
  0.000000   0.625000 0
  0.375000   0.500000 0
  0.375000   0.000000 0
  0.000000   0.125000 0
  0.125000   0.875000 0
  0.875000   1.000000 0
  0.750000   0.250000 0
  0.375000   0.375000 0
  0.250000   0.375000 0
  0.625000   0.750000 0
  0.125000   0.125000 0
  0.500000   0.000000 0
  0.250000   0.875000 0
  0.125000   0.500000 0
  0.500000   0.375000 0
  0.125000   0.000000 0
  0.250000   0.750000 0
  0.250000   0.500000 0
  0.000000   0.875000 0
  0.875000   0.625000 0
  0.500000   0.750000 0
  0.750000   0.625000 0
  0.250000   0.000000 0
  0.375000   0.750000 0
  0.750000   0.875000 0
  0.625000   0.125000 0
  0.250000   0.250000 0
  0.375000   1.000000 0
  0.375000   0.250000 0
  0.000000   0.375000 0
  0.500000   1.000000 0
  0.875000   0.750000 0
  0.750000   0.000000 0
  0.375000   0.125000 0
  0.500000   0.875000 0
  0.000000   0.000000 0
  0.125000   0.750000 0
  0.500000   0.625000 0
  0.125000   0.250000 0
  0.500000   0.125000 0
  0.250000   1.000000 0
  0.250000   0.125000 0
  0.000000   1.000000 0
  0.375000   0.875000 0
  0.000000   0.750000 0
  0.375000   0.625000 0
  0.000000   0.250000 0
  0.125000   1.000000 0
  1.000000   0.375000 0
  0.500000   0.500000 0
  0.875000   0.375000 0
CELLS 64 320
4 56 71 58 63
4 27 58 69 63
4 41 69 32 63
4 76 33 68 40
4 27 44 58 37
4 79 31 44 37
4 56 38 68 21
4 56 58 38 37
4 52 32 71 63
4 47 38 31 37
4 76 68 59 21
4 22 59 43 21
4 65 45 33 40
4 47 43 38 21
4 52 71 45 40
4 56 68 71 40
4 74 30 66 23
4 46 66 29 23
4 22 43 30 23
4 72 48 77 34
4 46 53 42 73
4 50 64 53 73
4 70 42 57 73
4 74 66 48 34
4 46 42 66 34
4 47 29 43 23
4 70 77 42 34
4 60 57 64 73
4 79 67 31 75
4 47 31 29 75
4 50 53 67 75
4 46 29 53 75
4 10 78 6 80
4 36 6 1 80
4 15 1 12 80
4 36 4 6 26
4 14 12 78 80
4 2 17 9 26
4 36 18 4 55
4 15 28 1 11
4 62 4 20 55
4 10 6 17 26
4 27 18 44 11
4 62 9 4 26
4 27 69 18 55
4 36 1 18 11
4 41 20 69 55
4 79 44 28 11
4 16 24 54 7
4 19 54 39 7
4 50 39 64 7
4 8 25 61 3
4 60 64 24 7
4 79 28 67 13
4 19 51 61 49
4 8 61 0 49
4 15 51 28 13
4 19 39 51 13
4 50 67 39 13
4 19 61 54 3
4 14 0 12 49
4 5 35 25 3
4 15 12 51 49
4 16 54 35 3
CELL_TYPES 64
8
8
8
8
8
8
8
8
8
8
8
8
8
8
8
8
8
8
8
8
8
8
8
8
8
8
8
8
8
8
8
8
8
8
8
8
8
8
8
8
8
8
8
8
8
8
8
8
8
8
8
8
8
8
8
8
8
8
8
8
8
8
8
8
CELL_DATA 64
VECTORS vector_value float
0.0544932 -0.236419 0
0.178932 -0.174546 0
0.0980781 -0.202215 0
-0.15557 -2.46591 0
0.601304 -0.368162 0
0.123086 -0.0618408 0
-0.355278 -0.829276 0
-0.00369822 -0.836356 0
0.00652131 -0.0302514 0
0.0648305 -1.72363 0
-0.452048 -2.33407 0
-0.0227213 -1.41073 0
-0.282862 -3.22466 0
-0.331478 -1.42293 0
-0.0720199 -0.30896 0
-0.479827 -1.02766 0
-0.239146 -1.1226 0
0.19783 -2.8932 0
-0.0576126 -1.52165 0
0.225294 -0.623858 0
-1.19425 -0.994446 0
-0.252101 -0.863418 0
-0.48823 -1.81484 0
-0.174809 -0.625447 0
-1.46733 -2.56335 0
0.141542 -1.35875 0
0.475415 -0.921348 0
-0.943877 -1.33278 0
0.0583861 -0.195497 0
0.483758 -1.72031 0
-0.0124427 -0.605768 0
0.0289134 -0.388023 0
-0.104146 -1.03679 0
0.0210201 -2.03696 0
-0.0873967 -1.34989 0
-0.0578082 -2.39309 0
-0.137427 -1.402 0
-0.0648343 -0.343874 0
0.155683 -0.271534 0
0.165638 -0.484861 0
0.101481 -0.733655 0
-0.278884 -0.959278 0
0.233075 -0.198973 0
-0.275481 -2.89818 0
0.359171 -0.471567 0
0.243507 -0.359415 0
0.132092 -0.258202 0
0.235384 -0.144113 0
0.264614 -0.266971 0
0.0780005 -0.101335 0
-0.00186182 -0.0782934 0
0.0272089 -2.09069 0
-0.565558 -0.485384 0
0.181352 -0.194757 0
-0.00899983 -0.682058 0
-0.042288 -2.11754 0
0.0708028 -0.124376 0
0.0460688 -0.136715 0
0.0531699 -0.0540924 0
0.114192 -0.683023 0
-0.269835 -1.63701 0
0.531337 -1.77305 0
-0.300138 -1.24765 0
0.841662 -0.781769 0
