# vtk DataFile Version 2.0
Unstructured Grid by M++
ASCII
DATASET UNSTRUCTURED_GRID
POINTS 81 float
  1.000000   0.625000 0
  0.750000   0.375000 0
  1.000000   0.000000 0
  0.875000   0.875000 0
  0.750000   0.125000 0
  1.000000   1.000000 0
  0.875000   0.250000 0
  0.625000   0.875000 0
  1.000000   0.750000 0
  0.875000   0.000000 0
  1.000000   0.250000 0
  0.625000   0.375000 0
  0.875000   0.500000 0
  0.625000   0.625000 0
  1.000000   0.500000 0
  0.750000   0.500000 0
  0.750000   1.000000 0
  1.000000   0.125000 0
  0.625000   0.250000 0
  0.750000   0.750000 0
  0.625000   0.000000 0
  0.125000   0.375000 0
  0.000000   0.500000 0
  0.125000   0.625000 0
  0.625000   1.000000 0
  1.000000   0.875000 0
  0.875000   0.125000 0
  0.500000   0.250000 0
  0.625000   0.500000 0
  0.250000   0.625000 0
  0.000000   0.625000 0
  0.375000   0.500000 0
  0.375000   0.000000 0
  0.000000   0.125000 0
  0.125000   0.875000 0
  0.875000   1.000000 0
  0.750000   0.250000 0
  0.375000   0.375000 0
  0.250000   0.375000 0
  0.625000   0.750000 0
  0.125000   0.125000 0
  0.500000   0.000000 0
  0.250000   0.875000 0
  0.125000   0.500000 0
  0.500000   0.375000 0
  0.125000   0.000000 0
  0.250000   0.750000 0
  0.250000   0.500000 0
  0.000000   0.875000 0
  0.875000   0.625000 0
  0.500000   0.750000 0
  0.750000   0.625000 0
  0.250000   0.000000 0
  0.375000   0.750000 0
  0.750000   0.875000 0
  0.625000   0.125000 0
  0.250000   0.250000 0
  0.375000   1.000000 0
  0.375000   0.250000 0
  0.000000   0.375000 0
  0.500000   1.000000 0
  0.875000   0.750000 0
  0.750000   0.000000 0
  0.375000   0.125000 0
  0.500000   0.875000 0
  0.000000   0.000000 0
  0.125000   0.750000 0
  0.500000   0.625000 0
  0.125000   0.250000 0
  0.500000   0.125000 0
  0.250000   1.000000 0
  0.250000   0.125000 0
  0.000000   1.000000 0
  0.375000   0.875000 0
  0.000000   0.750000 0
  0.375000   0.625000 0
  0.000000   0.250000 0
  0.125000   1.000000 0
  1.000000   0.375000 0
  0.500000   0.500000 0
  0.875000   0.375000 0
CELLS 64 320
4 56 71 58 63
4 27 58 69 63
4 41 69 32 63
4 76 33 68 40
4 27 44 58 37
4 79 31 44 37
4 56 38 68 21
4 56 58 38 37
4 52 32 71 63
4 47 38 31 37
4 76 68 59 21
4 22 59 43 21
4 65 45 33 40
4 47 43 38 21
4 52 71 45 40
4 56 68 71 40
4 74 30 66 23
4 46 66 29 23
4 22 43 30 23
4 72 48 77 34
4 46 53 42 73
4 50 64 53 73
4 70 42 57 73
4 74 66 48 34
4 46 42 66 34
4 47 29 43 23
4 70 77 42 34
4 60 57 64 73
4 79 67 31 75
4 47 31 29 75
4 50 53 67 75
4 46 29 53 75
4 10 78 6 80
4 36 6 1 80
4 15 1 12 80
4 36 4 6 26
4 14 12 78 80
4 2 17 9 26
4 36 18 4 55
4 15 28 1 11
4 62 4 20 55
4 10 6 17 26
4 27 18 44 11
4 62 9 4 26
4 27 69 18 55
4 36 1 18 11
4 41 20 69 55
4 79 44 28 11
4 16 24 54 7
4 19 54 39 7
4 50 39 64 7
4 8 25 61 3
4 60 64 24 7
4 79 28 67 13
4 19 51 61 49
4 8 61 0 49
4 15 51 28 13
4 19 39 51 13
4 50 67 39 13
4 19 61 54 3
4 14 0 12 49
4 5 35 25 3
4 15 12 51 49
4 16 54 35 3
CELL_TYPES 64
8
8
8
8
8
8
8
8
8
8
8
8
8
8
8
8
8
8
8
8
8
8
8
8
8
8
8
8
8
8
8
8
8
8
8
8
8
8
8
8
8
8
8
8
8
8
8
8
8
8
8
8
8
8
8
8
8
8
8
8
8
8
8
8
CELL_DATA 64
VECTORS vector_value float
-0.892902 -1.33054 0
-0.704421 -1.59918 0
-0.206227 -0.323086 0
0.138165 -0.644555 0
-0.727089 -2.5938 0
-0.345462 -0.83498 0
-0.112192 -0.668536 0
-0.127926 -0.740953 0
-0.80044 -1.9791 0
0.0263343 -0.927966 0
-0.202775 -0.703994 0
-0.0853462 -0.25312 0
0.101811 -0.315946 0
-0.243759 -1.01753 0
-0.0733778 -2.10665 0
-0.242309 -1.23356 0
0.162026 -0.339211 0
0.667904 -1.15402 0
0.0318833 -0.153663 0
0.019074 -0.898924 0
0.0565995 -0.225432 0
-0.00125417 -0.990408 0
0.315358 -0.353277 0
0.194157 -1.06145 0
0.0835133 -0.96517 0
0.0798043 -1.03783 0
-0.0410859 -1.2292 0
0.721424 -0.953464 0
0.366191 -0.495422 0
0.215243 -1.33686 0
-0.20078 -0.944457 0
0.162174 -1.02621 0
0.538725 -1.04659 0
0.742417 -0.772796 0
0.694274 -0.404532 0
-0.194569 -0.369897 0
0.0756688 -0.225514 0
-0.0214016 -0.702041 0
-0.0902295 -0.702055 0
1.57516 -1.80506 0
-0.116241 -1.11789 0
-0.309993 -1.43843 0
-0.089257 -0.508854 0
-0.41589 -0.77182 0
-0.117184 -0.681786 0
-0.0789592 -0.964486 0
0.0910028 -0.68346 0
-0.430547 -2.5313 0
-0.680352 -0.847553 0
-0.806699 -2.09277 0
-0.178346 -2.19673 0
0.0121726 -0.096896 0
0.184924 -1.84934 0
0.730463 -3.9121 0
-0.0270074 -0.171494 0
0.0129033 -0.156071 0
0.00394007 -0.819121 0
-0.293183 -0.892216 0
-0.742408 -3.31632 0
-0.0511633 -0.371148 0
-0.00777719 -0.119208 0
-0.452844 -0.498012 0
-0.0343546 -0.125794 0
-1.19507 -1.37023 0
