# vtk DataFile Version 2.0
Unstructured Grid by M++
ASCII
DATASET UNSTRUCTURED_GRID
POINTS 289 float
  0.562500   1.000000 0
  0.562500   0.625000 0
  0.625000   1.000000 0
  0.562500   0.937500 0
  0.562500   0.562500 0
  0.625000   0.937500 0
  0.562500   0.875000 0
  0.625000   0.750000 0
  0.625000   0.625000 0
  0.562500   0.812500 0
  0.562500   0.750000 0
  0.562500   0.687500 0
  0.625000   0.875000 0
  0.625000   0.812500 0
  0.625000   0.687500 0
  0.687500   0.125000 0
  0.875000   0.062500 0
  0.625000   0.125000 0
  0.625000   0.187500 0
  0.625000   0.250000 0
  0.812500   0.187500 0
  1.000000   0.125000 0
  0.687500   0.187500 0
  0.750000   0.125000 0
  0.937500   0.062500 0
  0.937500   0.125000 0
  0.750000   0.187500 0
  0.812500   0.062500 0
  0.812500   0.125000 0
  0.875000   0.687500 0
  0.187500   0.250000 0
  0.437500   0.250000 0
  0.375000   0.187500 0
  0.812500   0.625000 0
  0.125000   0.187500 0
  0.937500   0.750000 0
  0.250000   0.312500 0
  0.500000   0.312500 0
  0.625000   0.062500 0
  0.437500   0.500000 0
  0.375000   0.125000 0
  0.437500   0.187500 0
  0.437500   0.437500 0
  0.437500   0.375000 0
  0.875000   0.875000 0
  0.187500   0.375000 0
  0.687500   0.562500 0
  0.687500   0.625000 0
  0.000000   0.125000 0
  0.937500   0.625000 0
  0.250000   0.125000 0
  0.375000   0.062500 0
  0.375000   0.000000 0
  0.812500   0.500000 0
  0.125000   0.000000 0
  0.937500   0.937500 0
  0.250000   0.437500 0
  0.687500   0.875000 0
  0.687500   0.937500 0
  0.000000   0.437500 0
  0.500000   0.500000 0
  0.500000   0.437500 0
  0.750000   0.937500 0
  0.750000   1.000000 0
  0.062500   0.500000 0
  1.000000   1.000000 0
  0.312500   0.500000 0
  0.875000   0.562500 0
  0.187500   0.062500 0
  0.437500   0.125000 0
  0.437500   0.062500 0
  0.500000   0.375000 0
  0.937500   0.812500 0
  0.937500   0.875000 0
  0.250000   0.375000 0
  0.687500   0.812500 0
  0.000000   0.375000 0
  0.750000   0.562500 0
  0.062500   0.125000 0
  1.000000   0.562500 0
  1.000000   0.625000 0
  0.312500   0.125000 0
  0.562500   0.125000 0
  0.437500   0.000000 0
  0.875000   0.437500 0
  0.875000   0.500000 0
  0.187500   0.000000 0
  0.937500   0.562500 0
  0.937500   0.500000 0
  0.250000   0.062500 0
  0.687500   0.500000 0
  0.000000   0.062500 0
  0.500000   0.062500 0
  1.000000   0.875000 0
  1.000000   0.937500 0
  0.312500   0.437500 0
  0.750000   0.875000 0
  0.062500   0.437500 0
  0.812500   0.937500 0
  0.125000   0.500000 0
  0.375000   0.500000 0
  0.625000   0.562500 0
  0.625000   0.500000 0
  0.437500   0.312500 0
  0.875000   0.812500 0
  0.875000   0.750000 0
  0.187500   0.312500 0
  0.812500   0.687500 0
  0.812500   0.750000 0
  0.125000   0.250000 0
  0.375000   0.250000 0
  1.000000   0.687500 0
  0.312500   0.187500 0
  0.750000   0.687500 0
  0.750000   0.625000 0
  0.062500   0.187500 0
  0.562500   0.250000 0
  0.562500   0.187500 0
  0.375000   1.000000 0
  0.500000   0.562500 0
  0.500000   0.250000 0
  0.750000   0.250000 0
  0.500000   0.125000 0
  0.500000   0.187500 0
  1.000000   0.187500 0
  0.625000   0.375000 0
  0.875000   0.375000 0
  1.000000   0.437500 0
  0.312500   0.000000 0
  0.562500   0.000000 0
  0.812500   0.000000 0
  0.250000   0.687500 0
  0.000000   0.687500 0
  0.500000   1.000000 0
  0.250000   1.000000 0
  0.000000   1.000000 0
  0.437500   0.687500 0
  0.437500   0.625000 0
  0.187500   0.625000 0
  0.687500   0.750000 0
  0.000000   0.312500 0
  0.000000   0.250000 0
  0.375000   0.375000 0
  0.375000   0.312500 0
  0.812500   0.812500 0
  0.125000   0.312500 0
  0.875000   0.625000 0
  0.187500   0.187500 0
  0.187500   0.125000 0
  0.937500   1.000000 0
  0.250000   0.562500 0
  0.250000   0.500000 0
  0.687500   1.000000 0
  0.000000   0.500000 0
  0.687500   0.687500 0
  0.000000   0.187500 0
  0.937500   0.687500 0
  0.250000   0.250000 0
  0.250000   0.187500 0
  0.187500   0.687500 0
  0.000000   0.750000 0
  0.250000   0.750000 0
  0.125000   0.625000 0
  0.750000   0.750000 0
  0.062500   0.250000 0
  0.875000   0.937500 0
  0.187500   0.500000 0
  0.187500   0.437500 0
  0.812500   0.562500 0
  0.125000   0.125000 0
  0.125000   0.062500 0
  0.375000   0.625000 0
  0.375000   0.687500 0
  1.000000   0.750000 0
  0.312500   0.250000 0
  0.312500   0.312500 0
  0.812500   0.312500 0
  0.562500   0.312500 0
  0.375000   0.750000 0
  0.500000   0.625000 0
  0.250000   0.625000 0
  0.312500   0.687500 0
  0.750000   0.812500 0
  0.062500   0.312500 0
  0.062500   0.375000 0
  1.000000   0.812500 0
  0.312500   0.375000 0
  0.562500   0.375000 0
  0.687500   0.437500 0
  0.000000   0.000000 0
  0.500000   0.000000 0
  0.937500   0.437500 0
  0.250000   0.000000 0
  0.375000   0.437500 0
  0.812500   0.875000 0
  0.125000   0.375000 0
  0.125000   0.437500 0
  0.625000   0.437500 0
  1.000000   0.500000 0
  0.312500   0.062500 0
  0.750000   0.500000 0
  0.062500   0.000000 0
  0.062500   0.062500 0
  0.562500   0.062500 0
  0.062500   0.750000 0
  0.312500   0.750000 0
  0.312500   0.625000 0
  0.312500   0.562500 0
  0.062500   0.562500 0
  0.187500   1.000000 0
  0.437500   0.562500 0
  0.875000   1.000000 0
  0.187500   0.562500 0
  0.500000   0.937500 0
  0.250000   0.937500 0
  0.312500   1.000000 0
  0.125000   0.750000 0
  0.125000   0.687500 0
  1.000000   0.000000 0
  0.000000   0.937500 0
  0.000000   0.875000 0
  0.875000   0.125000 0
  0.875000   0.187500 0
  0.062500   0.812500 0
  0.312500   0.812500 0
  0.000000   0.812500 0
  0.000000   0.625000 0
  0.000000   0.562500 0
  0.062500   1.000000 0
  0.062500   0.937500 0
  0.937500   0.187500 0
  0.937500   0.250000 0
  0.062500   0.687500 0
  0.062500   0.625000 0
  0.125000   1.000000 0
  1.000000   0.250000 0
  1.000000   0.312500 0
  0.062500   0.875000 0
  0.125000   0.812500 0
  0.375000   0.812500 0
  0.125000   0.875000 0
  0.375000   0.937500 0
  0.375000   0.875000 0
  0.187500   0.750000 0
  0.187500   0.812500 0
  0.437500   0.812500 0
  0.187500   0.875000 0
  0.437500   0.875000 0
  0.375000   0.562500 0
  0.812500   1.000000 0
  0.125000   0.562500 0
  0.437500   1.000000 0
  0.437500   0.937500 0
  0.187500   0.937500 0
  0.125000   0.937500 0
  0.500000   0.687500 0
  0.500000   0.750000 0
  0.500000   0.812500 0
  0.250000   0.812500 0
  0.250000   0.875000 0
  0.500000   0.875000 0
  0.437500   0.750000 0
  0.312500   0.875000 0
  0.312500   0.937500 0
  0.687500   0.250000 0
  0.687500   0.312500 0
  0.937500   0.312500 0
  0.875000   0.250000 0
  0.625000   0.000000 0
  0.875000   0.000000 0
  0.687500   0.375000 0
  0.937500   0.375000 0
  0.875000   0.312500 0
  0.625000   0.312500 0
  0.687500   0.000000 0
  0.937500   0.000000 0
  0.750000   0.312500 0
  0.750000   0.375000 0
  1.000000   0.375000 0
  0.812500   0.250000 0
  0.562500   0.437500 0
  0.562500   0.500000 0
  0.687500   0.062500 0
  0.750000   0.437500 0
  0.750000   0.000000 0
  0.750000   0.062500 0
  1.000000   0.062500 0
  0.812500   0.375000 0
  0.812500   0.437500 0
CELLS 256 1280
4 169 170 148 68
4 151 166 56 167
4 195 45 196 167
4 54 170 201 202
4 109 34 30 147
4 40 32 81 112
4 192 89 86 68
4 48 91 78 202
4 99 64 196 97
4 71 43 37 103
4 74 186 56 95
4 109 164 34 115
4 50 81 158 112
4 122 69 92 70
4 195 145 45 106
4 110 143 174 175
4 157 30 158 147
4 40 69 32 41
4 50 158 148 147
4 141 155 164 115
4 122 123 69 41
4 142 186 143 175
4 60 39 61 42
4 40 51 69 70
4 120 31 123 41
4 157 174 36 175
4 50 148 89 68
4 48 78 155 115
4 52 83 51 70
4 151 56 66 95
4 71 61 43 42
4 169 148 34 147
4 100 193 39 42
4 40 81 51 199
4 110 174 32 112
4 109 30 145 106
4 100 66 193 95
4 169 34 78 115
4 190 92 83 70
4 50 89 81 199
4 54 86 170 68
4 74 56 45 167
4 142 143 43 103
4 153 59 64 97
4 99 196 166 167
4 169 78 170 202
4 142 193 186 95
4 192 128 89 199
4 74 45 36 106
4 110 31 143 103
4 76 184 59 97
4 142 43 193 42
4 52 51 128 199
4 189 201 91 202
4 120 37 31 103
4 74 36 186 175
4 195 196 184 97
4 141 164 140 183
4 157 158 174 112
4 109 145 164 183
4 195 184 145 183
4 110 32 31 41
4 157 36 30 106
4 76 140 184 183
4 171 172 206 181
4 178 172 261 136
4 256 261 255 136
4 256 257 261 245
4 180 150 206 207
4 60 119 39 210
4 118 215 241 263
4 178 205 172 181
4 216 243 238 244
4 162 217 233 232
4 180 206 131 181
4 179 137 119 210
4 216 204 217 232
4 220 237 219 229
4 216 217 243 159
4 259 258 262 224
4 240 254 237 229
4 153 64 227 208
4 161 205 258 224
4 240 237 238 223
4 226 227 233 208
4 234 228 254 229
4 171 248 137 210
4 160 132 204 232
4 180 131 138 159
4 133 251 213 252
4 171 206 248 207
4 162 138 217 159
4 161 258 243 244
4 220 225 237 223
4 151 150 166 212
4 260 247 257 245
4 259 262 214 263
4 151 66 150 207
4 234 254 209 253
4 162 233 250 208
4 242 241 262 263
4 171 137 172 136
4 161 243 131 159
4 160 204 225 223
4 161 131 205 181
4 179 255 137 136
4 216 238 204 223
4 100 39 248 210
4 260 213 247 252
4 226 233 132 232
4 134 214 215 263
4 180 138 150 212
4 178 261 239 245
4 259 246 258 244
4 178 239 205 224
4 240 238 246 244
4 242 262 239 224
4 99 250 64 208
4 240 246 254 253
4 242 239 247 245
4 135 219 228 229
4 99 166 250 212
4 259 214 246 253
4 118 241 251 252
4 100 248 66 207
4 134 209 214 253
4 162 250 138 212
4 242 247 241 252
4 71 187 61 280
4 102 281 197 280
4 122 92 82 203
4 17 18 82 117
4 122 82 123 117
4 19 264 273 265
4 267 279 222 20
4 125 273 270 265
4 267 272 279 176
4 19 116 18 117
4 21 25 286 24
4 23 28 26 20
4 23 285 28 27
4 218 286 275 24
4 85 53 84 288
4 235 236 231 266
4 221 222 28 20
4 267 222 231 230
4 268 38 129 203
4 125 270 197 188
4 126 287 272 176
4 277 270 276 265
4 267 231 272 266
4 125 197 187 280
4 190 129 92 203
4 277 276 287 176
4 19 18 264 22
4 17 82 38 203
4 102 197 90 188
4 126 84 287 288
4 284 130 285 27
4 121 276 264 265
4 71 37 187 177
4 120 123 116 117
4 198 88 127 191
4 221 16 25 24
4 23 26 15 22
4 121 279 276 176
4 235 231 124 230
4 125 187 273 177
4 278 271 236 266
4 277 287 283 288
4 284 285 274 282
4 278 127 271 191
4 269 275 16 24
4 200 283 53 288
4 23 15 285 282
4 121 26 279 20
4 21 124 25 230
4 19 273 116 177
4 200 90 283 188
4 126 271 84 191
4 269 16 130 27
4 17 38 15 282
4 221 25 222 230
4 121 264 26 22
4 120 116 37 177
4 60 61 281 280
4 277 283 270 188
4 126 272 271 266
4 268 274 38 282
4 85 84 88 191
4 17 15 18 22
4 221 28 16 27
4 93 94 73 55
4 85 88 67 87
4 80 49 79 87
4 44 104 73 72
4 146 33 67 168
4 211 165 149 55
4 8 47 14 154
4 105 104 108 144
4 105 108 29 107
4 7 139 13 75
4 44 165 194 98
4 200 53 77 168
4 8 1 101 4
4 2 5 152 58
4 260 6 213 3
4 105 35 104 72
4 96 57 182 75
4 7 14 139 154
4 146 29 33 107
4 7 13 10 9
4 12 13 57 75
4 85 67 53 168
4 44 73 165 55
4 63 152 62 58
4 8 101 47 46
4 96 182 194 144
4 60 281 119 4
4 12 5 6 3
4 173 185 35 72
4 65 149 94 55
4 146 67 49 87
4 114 113 47 154
4 163 108 182 144
4 12 6 13 9
4 173 35 111 156
4 163 182 139 75
4 260 257 6 9
4 105 29 35 156
4 163 139 113 154
4 256 10 257 9
4 146 49 29 156
4 163 113 108 107
4 80 111 49 156
4 102 101 281 4
4 12 57 5 58
4 44 194 104 144
4 96 194 62 98
4 2 0 5 3
4 93 73 185 72
4 179 119 1 4
4 200 77 90 46
4 114 33 113 107
4 7 10 14 11
4 96 62 57 58
4 133 213 0 3
4 102 90 101 46
4 256 255 10 11
4 63 62 249 98
4 114 47 77 46
4 179 1 255 11
4 211 249 165 98
4 114 77 33 168
4 198 79 88 87
4 8 14 1 11
CELL_TYPES 256
8
8
8
8
8
8
8
8
8
8
8
8
8
8
8
8
8
8
8
8
8
8
8
8
8
8
8
8
8
8
8
8
8
8
8
8
8
8
8
8
8
8
8
8
8
8
8
8
8
8
8
8
8
8
8
8
8
8
8
8
8
8
8
8
8
8
8
8
8
8
8
8
8
8
8
8
8
8
8
8
8
8
8
8
8
8
8
8
8
8
8
8
8
8
8
8
8
8
8
8
8
8
8
8
8
8
8
8
8
8
8
8
8
8
8
8
8
8
8
8
8
8
8
8
8
8
8
8
8
8
8
8
8
8
8
8
8
8
8
8
8
8
8
8
8
8
8
8
8
8
8
8
8
8
8
8
8
8
8
8
8
8
8
8
8
8
8
8
8
8
8
8
8
8
8
8
8
8
8
8
8
8
8
8
8
8
8
8
8
8
8
8
8
8
8
8
8
8
8
8
8
8
8
8
8
8
8
8
8
8
8
8
8
8
8
8
8
8
8
8
8
8
8
8
8
8
8
8
8
8
8
8
8
8
8
8
8
8
8
8
8
8
8
8
8
8
8
8
8
8
8
8
8
8
8
8
CELL_DATA 256
VECTORS vector_value float
-2.60902 -2.38276 0
-0.121566 -0.109468 0
-0.283375 -0.239775 0
-0.677075 -7.09718 0
-1.38978 -1.59517 0
-0.260746 -0.284876 0
-0.107971 -0.344464 0
-0.110888 -0.672365 0
-0.081119 -0.132632 0
-1.63814 -2.13678 0
-0.590516 -0.22771 0
-0.525399 -1.87286 0
-0.734601 -1.03014 0
-0.0172468 -0.0756212 0
-0.880385 -0.503897 0
-3.39552 -1.04744 0
-2.11982 -2.44013 0
-0.126928 -0.0966581 0
-2.39893 -2.53651 0
0.00412817 -0.517709 0
-0.0735346 -0.178863 0
-2.93146 -1.0529 0
-0.46974 -3.58836 0
-0.0604348 -0.0764292 0
-0.440471 -0.431328 0
-3.29284 -2.11316 0
-0.855193 -0.838104 0
-0.0409551 -0.598769 0
-0.0218506 -0.0667585 0
-0.114132 -0.0780296 0
-1.43949 -3.71802 0
-2.17867 -2.60022 0
-0.544938 -1.2386 0
-0.120212 -0.168891 0
-1.81965 -0.764296 0
-0.768063 -0.860851 0
-0.165165 -0.152482 0
-0.77581 -3.12349 0
-0.0128636 -0.0533217 0
-0.283566 -0.60822 0
-0.355737 -1.05985 0
-0.391176 -0.171732 0
-2.97459 -1.61601 0
-0.0234359 -0.158362 0
-0.103144 -0.157475 0
-1.73011 -5.61899 0
-0.917818 -0.492567 0
-0.0556969 -0.515963 0
-1.11021 -0.438444 0
-3.2739 -0.9859 0
-0.0413384 -0.219473 0
-1.21188 -1.39724 0
-0.0305246 -0.121698 0
-0.209019 -1.18912 0
-2.61603 -1.608 0
-1.69442 -0.865358 0
-0.153817 -0.223359 0
-0.0686158 -0.54479 0
-2.66764 -2.25461 0
-0.335246 -0.948384 0
-0.400232 -0.534376 0
-0.975066 -0.420136 0
-1.99616 -1.41423 0
-0.0732437 -0.315424 0
-0.00135031 -0.185695 0
1.7328 -2.3148 0
2.5386 -5.55643 0
0.900022 -3.34955 0
-0.0757827 -0.0833134 0
-0.0613809 -4.57081 0
1.72534 -2.06262 0
0.513932 -0.748446 0
0.0875479 -0.0958841 0
-0.00816753 -0.0612552 0
-0.0735189 -0.0900173 0
0.259132 -5.23484 0
0.000593787 -0.082251 0
0.278921 -0.499897 0
0.00180176 -0.0720142 0
1.11203 -0.682584 0
0.674506 -0.597765 0
-0.0276089 -0.116183 0
0.466235 -0.420937 0
0.421358 -0.314242 0
-0.00607908 -0.0726729 0
0.281924 -0.57284 0
-0.0695457 -0.570543 0
-0.00486533 -0.0478225 0
-0.0388971 -0.064185 0
-0.795114 -1.50302 0
-0.0490126 -0.0999568 0
-0.0177059 -0.0976052 0
0.116985 -0.0699071 0
0.112052 -0.15328 0
-0.0790523 -0.106511 0
0.133069 -1.98289 0
0.453071 -0.524299 0
-0.0604662 -0.0592557 0
0.792687 -0.697704 0
-0.0210607 -0.076265 0
0.591617 -2.03383 0
0.801192 -1.49175 0
-0.0117027 -0.0429461 0
0.00716669 -0.0504174 0
0.0196236 -0.12429 0
1.24613 -5.2049 0
0.0319443 -0.104623 0
-0.25576 -0.730486 0
-0.436777 -2.1055 0
-0.00421359 -0.060609 0
2.13434 -0.839806 0
-0.0788846 -0.122567 0
1.78806 -3.84341 0
0.912716 -0.357568 0
1.15238 -1.80159 0
0.616771 -0.181061 0
1.02002 -1.99582 0
-0.0528489 -0.0755456 0
0.834143 -0.351013 0
0.719169 -4.11954 0
0.0785981 -1.03416 0
-0.0940851 -0.165992 0
0.83181 -0.47039 0
0.131358 -1.44467 0
-0.0843371 -0.108439 0
1.41168 -0.67819 0
-0.0284969 -0.103546 0
0.477006 -3.01852 0
-0.458017 -3.49796 0
-0.156612 -1.72862 0
0.0487182 -0.120796 0
0.0794874 -0.351908 0
0.0837492 -0.319643 0
0.680927 -0.567835 0
0.144727 -1.26345 0
0.476967 -1.04519 0
0.493779 -0.888241 0
0.17266 -0.395782 0
-0.0384156 -0.407199 0
-0.296622 -2.10772 0
-0.259787 -2.04525 0
-0.027061 -0.298448 0
0.0693591 -0.320193 0
0.0156726 -0.121014 0
-0.169993 -0.802675 0
0.204447 -0.333542 0
0.0516575 -0.306777 0
-0.0686192 -1.22006 0
0.109982 -0.46773 0
0.444719 -1.1997 0
0.11653 -0.278333 0
-0.131415 -2.00145 0
0.00505161 -0.0763107 0
0.220105 -0.88602 0
0.282343 -0.315765 0
0.188257 -0.458792 0
-0.130161 -1.25414 0
0.0746315 -0.387717 0
-0.0888592 -1.4391 0
1.16357 -1.08662 0
-1.13204 -3.15868 0
-0.119483 -0.612548 0
0.0139628 -0.0928313 0
-0.0398938 -0.362659 0
-0.0486786 -0.92823 0
1.09853 -1.36847 0
0.09755 -0.257616 0
-0.0546122 -1.4968 0
-0.00413049 -0.121622 0
0.124555 -0.801277 0
-0.205435 -1.59449 0
0.00990926 -0.126904 0
-0.0741201 -0.385048 0
0.0946676 -0.821369 0
-0.28428 -1.2086 0
0.29389 -1.67258 0
0.0373562 -0.408874 0
0.16607 -0.83882 0
-0.0235728 -1.4776 0
0.0261966 -0.0774454 0
0.0275715 -0.65519 0
-0.00702074 -0.520883 0
0.0602613 -0.335618 0
0.390441 -0.85247 0
-0.730121 -1.3279 0
-0.384047 -4.61824 0
0.0804076 -1.19731 0
0.0360732 -0.161067 0
0.0476194 -0.796277 0
0.0313644 -0.0715869 0
0.0657459 -0.295799 0
-0.0319133 -0.434441 0
-0.0649363 -0.877017 0
0.00738447 -0.0793825 0
0.00191805 -0.0553585 0
-0.188072 -0.999339 0
-0.151872 -0.393406 0
-0.0620316 -0.815453 0
-0.540553 -1.32148 0
-0.88251 -1.11563 0
-0.525479 -0.748893 0
-0.511245 -0.909093 0
0.0403501 -0.744072 0
-0.0453776 -0.820451 0
0.270194 -2.17311 0
0.0705892 -0.651473 0
-0.340771 -0.351827 0
-0.552245 -0.586623 0
-0.231423 -0.94018 0
-0.851937 -0.942386 0
-0.383864 -0.599289 0
-0.281372 -0.363778 0
-0.212977 -0.90066 0
-0.0101323 -0.269146 0
-0.00546874 -1.12266 0
0.210879 -1.06965 0
-0.00612771 -1.47951 0
-0.132011 -1.18056 0
0.0179858 -3.58602 0
-0.105753 -0.155544 0
-0.20436 -0.663212 0
-0.00439678 -1.0402 0
-0.0348915 -0.139312 0
-0.51643 -1.18897 0
-0.825482 -1.10474 0
-0.1017 -0.144377 0
-0.116402 -0.306609 0
-0.648821 -1.09966 0
-0.0718281 -0.269439 0
-0.343589 -0.42226 0
-1.08927 -1.32537 0
0.0026027 -0.420944 0
-0.203326 -0.247803 0
-0.91872 -1.0081 0
-0.0636694 -0.128909 0
-0.263084 -2.34307 0
-0.0999801 -0.762195 0
-0.121582 -0.893025 0
-0.0534181 -1.38091 0
-0.459495 -0.55552 0
-0.0164144 -0.88544 0
0.450231 -3.4273 0
0.0507662 -1.44566 0
-0.40377 -0.734816 0
-0.582948 -0.804101 0
-0.143447 -1.00455 0
-1.02431 -0.714845 0
0.0827814 -1.45304 0
0.600433 -1.45328 0
-0.0309301 -1.36019 0
-0.108631 -1.10374 0
1.06617 -3.20643 0
-0.167368 -0.959668 0
-0.233341 -0.864555 0
0.0081316 -0.0699978 0
0.0392184 -1.31628 0
