# vtk DataFile Version 2.0
Unstructured Grid by M++
ASCII
DATASET UNSTRUCTURED_GRID
POINTS 81 float
  1.000000   0.625000 0
  0.750000   0.375000 0
  1.000000   0.000000 0
  0.875000   0.875000 0
  0.750000   0.125000 0
  1.000000   1.000000 0
  0.875000   0.250000 0
  0.625000   0.875000 0
  1.000000   0.750000 0
  0.875000   0.000000 0
  1.000000   0.250000 0
  0.625000   0.375000 0
  0.875000   0.500000 0
  0.625000   0.625000 0
  1.000000   0.500000 0
  0.750000   0.500000 0
  0.750000   1.000000 0
  1.000000   0.125000 0
  0.625000   0.250000 0
  0.750000   0.750000 0
  0.625000   0.000000 0
  0.125000   0.375000 0
  0.000000   0.500000 0
  0.125000   0.625000 0
  0.625000   1.000000 0
  1.000000   0.875000 0
  0.875000   0.125000 0
  0.500000   0.250000 0
  0.625000   0.500000 0
  0.250000   0.625000 0
  0.000000   0.625000 0
  0.375000   0.500000 0
  0.375000   0.000000 0
  0.000000   0.125000 0
  0.125000   0.875000 0
  0.875000   1.000000 0
  0.750000   0.250000 0
  0.375000   0.375000 0
  0.250000   0.375000 0
  0.625000   0.750000 0
  0.125000   0.125000 0
  0.500000   0.000000 0
  0.250000   0.875000 0
  0.125000   0.500000 0
  0.500000   0.375000 0
  0.125000   0.000000 0
  0.250000   0.750000 0
  0.250000   0.500000 0
  0.000000   0.875000 0
  0.875000   0.625000 0
  0.500000   0.750000 0
  0.750000   0.625000 0
  0.250000   0.000000 0
  0.375000   0.750000 0
  0.750000   0.875000 0
  0.625000   0.125000 0
  0.250000   0.250000 0
  0.375000   1.000000 0
  0.375000   0.250000 0
  0.000000   0.375000 0
  0.500000   1.000000 0
  0.875000   0.750000 0
  0.750000   0.000000 0
  0.375000   0.125000 0
  0.500000   0.875000 0
  0.000000   0.000000 0
  0.125000   0.750000 0
  0.500000   0.625000 0
  0.125000   0.250000 0
  0.500000   0.125000 0
  0.250000   1.000000 0
  0.250000   0.125000 0
  0.000000   1.000000 0
  0.375000   0.875000 0
  0.000000   0.750000 0
  0.375000   0.625000 0
  0.000000   0.250000 0
  0.125000   1.000000 0
  1.000000   0.375000 0
  0.500000   0.500000 0
  0.875000   0.375000 0
CELLS 64 320
4 56 71 58 63
4 27 58 69 63
4 41 69 32 63
4 76 33 68 40
4 27 44 58 37
4 79 31 44 37
4 56 38 68 21
4 56 58 38 37
4 52 32 71 63
4 47 38 31 37
4 76 68 59 21
4 22 59 43 21
4 65 45 33 40
4 47 43 38 21
4 52 71 45 40
4 56 68 71 40
4 74 30 66 23
4 46 66 29 23
4 22 43 30 23
4 72 48 77 34
4 46 53 42 73
4 50 64 53 73
4 70 42 57 73
4 74 66 48 34
4 46 42 66 34
4 47 29 43 23
4 70 77 42 34
4 60 57 64 73
4 79 67 31 75
4 47 31 29 75
4 50 53 67 75
4 46 29 53 75
4 10 78 6 80
4 36 6 1 80
4 15 1 12 80
4 36 4 6 26
4 14 12 78 80
4 2 17 9 26
4 36 18 4 55
4 15 28 1 11
4 62 4 20 55
4 10 6 17 26
4 27 18 44 11
4 62 9 4 26
4 27 69 18 55
4 36 1 18 11
4 41 20 69 55
4 79 44 28 11
4 16 24 54 7
4 19 54 39 7
4 50 39 64 7
4 8 25 61 3
4 60 64 24 7
4 79 28 67 13
4 19 51 61 49
4 8 61 0 49
4 15 51 28 13
4 19 39 51 13
4 50 67 39 13
4 19 61 54 3
4 14 0 12 49
4 5 35 25 3
4 15 12 51 49
4 16 54 35 3
CELL_TYPES 64
8
8
8
8
8
8
8
8
8
8
8
8
8
8
8
8
8
8
8
8
8
8
8
8
8
8
8
8
8
8
8
8
8
8
8
8
8
8
8
8
8
8
8
8
8
8
8
8
8
8
8
8
8
8
8
8
8
8
8
8
8
8
8
8
CELL_DATA 64
VECTORS vector_value float
-0.00380096 -2.04019 0
0.025194 -1.03237 0
0.146222 -1.30656 0
0.0414009 -2.70377 0
0.0036448 -0.855303 0
-0.173572 -1.25257 0
-0.723936 -1.19043 0
-0.471368 -2.98057 0
0.222021 -1.91615 0
-0.449845 -3.08192 0
-0.844393 -2.26902 0
-0.236927 -0.607243 0
0.1578 -2.31865 0
-1.07385 -2.31113 0
0.292489 -1.80077 0
-0.142104 -1.56467 0
-0.0646708 -0.234593 0
0.0912959 -2.6229 0
-0.0947153 -0.42655 0
0.383336 -0.503909 0
-1.08577 -2.06376 0
-1.27523 -0.926662 0
-0.711559 -0.609913 0
0.0251441 -0.17251 0
0.020896 -2.81821 0
-0.0454317 -2.05342 0
-0.0896449 -2.14801 0
-1.36799 -1.3681 0
-0.172564 -1.03045 0
0.0929089 -3.66497 0
-0.350189 -0.508135 0
-0.133075 -3.28297 0
-0.0813317 -0.540143 0
-0.0700292 -0.0589315 0
-0.0427721 -0.0345258 0
-0.0432599 -0.187149 0
-0.0233676 -0.60161 0
-0.0395978 -0.293369 0
-0.00389838 -0.0152792 0
-0.0585658 -0.00635501 0
-0.0151035 -0.0325839 0
-0.0262612 -0.399908 0
-0.0317512 -0.0983711 0
-0.0584688 -0.270836 0
-0.00276275 -0.0566717 0
-0.0138128 -0.00723198 0
-0.00318829 -0.0610773 0
-0.0759175 -0.104643 0
-0.887108 -0.428281 0
-0.705726 -0.229001 0
-0.656119 -0.613679 0
-0.0503397 -1.03783 0
-1.52913 -1.16251 0
-0.0786604 -0.129109 0
-0.260383 0.015174 0
-0.137407 -0.815259 0
-0.0337703 -0.011645 0
-0.204036 -0.0537538 0
-0.495672 -0.497558 0
-0.286728 -0.138342 0
-0.0361553 -0.650115 0
0.0345446 -1.06233 0
-0.0656725 -0.0337328 0
-0.253645 -0.716951 0
