# vtk DataFile Version 2.0
Unstructured Grid by M++
ASCII
DATASET UNSTRUCTURED_GRID
POINTS 81 float
  1.000000   0.625000 0
  0.750000   0.375000 0
  1.000000   0.000000 0
  0.875000   0.875000 0
  0.750000   0.125000 0
  1.000000   1.000000 0
  0.875000   0.250000 0
  0.625000   0.875000 0
  1.000000   0.750000 0
  0.875000   0.000000 0
  1.000000   0.250000 0
  0.625000   0.375000 0
  0.875000   0.500000 0
  0.625000   0.625000 0
  1.000000   0.500000 0
  0.750000   0.500000 0
  0.750000   1.000000 0
  1.000000   0.125000 0
  0.625000   0.250000 0
  0.750000   0.750000 0
  0.625000   0.000000 0
  0.125000   0.375000 0
  0.000000   0.500000 0
  0.125000   0.625000 0
  0.625000   1.000000 0
  1.000000   0.875000 0
  0.875000   0.125000 0
  0.500000   0.250000 0
  0.625000   0.500000 0
  0.250000   0.625000 0
  0.000000   0.625000 0
  0.375000   0.500000 0
  0.375000   0.000000 0
  0.000000   0.125000 0
  0.125000   0.875000 0
  0.875000   1.000000 0
  0.750000   0.250000 0
  0.375000   0.375000 0
  0.250000   0.375000 0
  0.625000   0.750000 0
  0.125000   0.125000 0
  0.500000   0.000000 0
  0.250000   0.875000 0
  0.125000   0.500000 0
  0.500000   0.375000 0
  0.125000   0.000000 0
  0.250000   0.750000 0
  0.250000   0.500000 0
  0.000000   0.875000 0
  0.875000   0.625000 0
  0.500000   0.750000 0
  0.750000   0.625000 0
  0.250000   0.000000 0
  0.375000   0.750000 0
  0.750000   0.875000 0
  0.625000   0.125000 0
  0.250000   0.250000 0
  0.375000   1.000000 0
  0.375000   0.250000 0
  0.000000   0.375000 0
  0.500000   1.000000 0
  0.875000   0.750000 0
  0.750000   0.000000 0
  0.375000   0.125000 0
  0.500000   0.875000 0
  0.000000   0.000000 0
  0.125000   0.750000 0
  0.500000   0.625000 0
  0.125000   0.250000 0
  0.500000   0.125000 0
  0.250000   1.000000 0
  0.250000   0.125000 0
  0.000000   1.000000 0
  0.375000   0.875000 0
  0.000000   0.750000 0
  0.375000   0.625000 0
  0.000000   0.250000 0
  0.125000   1.000000 0
  1.000000   0.375000 0
  0.500000   0.500000 0
  0.875000   0.375000 0
CELLS 64 320
4 56 71 58 63
4 27 58 69 63
4 41 69 32 63
4 76 33 68 40
4 27 44 58 37
4 79 31 44 37
4 56 38 68 21
4 56 58 38 37
4 52 32 71 63
4 47 38 31 37
4 76 68 59 21
4 22 59 43 21
4 65 45 33 40
4 47 43 38 21
4 52 71 45 40
4 56 68 71 40
4 74 30 66 23
4 46 66 29 23
4 22 43 30 23
4 72 48 77 34
4 46 53 42 73
4 50 64 53 73
4 70 42 57 73
4 74 66 48 34
4 46 42 66 34
4 47 29 43 23
4 70 77 42 34
4 60 57 64 73
4 79 67 31 75
4 47 31 29 75
4 50 53 67 75
4 46 29 53 75
4 10 78 6 80
4 36 6 1 80
4 15 1 12 80
4 36 4 6 26
4 14 12 78 80
4 2 17 9 26
4 36 18 4 55
4 15 28 1 11
4 62 4 20 55
4 10 6 17 26
4 27 18 44 11
4 62 9 4 26
4 27 69 18 55
4 36 1 18 11
4 41 20 69 55
4 79 44 28 11
4 16 24 54 7
4 19 54 39 7
4 50 39 64 7
4 8 25 61 3
4 60 64 24 7
4 79 28 67 13
4 19 51 61 49
4 8 61 0 49
4 15 51 28 13
4 19 39 51 13
4 50 67 39 13
4 19 61 54 3
4 14 0 12 49
4 5 35 25 3
4 15 12 51 49
4 16 54 35 3
CELL_TYPES 64
8
8
8
8
8
8
8
8
8
8
8
8
8
8
8
8
8
8
8
8
8
8
8
8
8
8
8
8
8
8
8
8
8
8
8
8
8
8
8
8
8
8
8
8
8
8
8
8
8
8
8
8
8
8
8
8
8
8
8
8
8
8
8
8
CELL_DATA 64
VECTORS vector_value float
0.74648 -0.835444 0
1.11929 -2.98886 0
0.120451 -2.96441 0
0.110447 -0.932651 0
0.682858 -2.21154 0
-0.00779827 -0.919345 0
1.40972 -1.7477 0
1.69811 -1.06384 0
0.460641 -1.27745 0
0.545355 -0.812759 0
0.537328 -1.77073 0
0.666575 -3.19703 0
0.068225 -0.743622 0
1.01705 -1.71185 0
0.349974 -0.736914 0
0.496282 -1.3167 0
-1.21049 -4.0228 0
-0.247037 -0.545437 0
0.24383 -3.63509 0
0.151483 -0.614278 0
-1.35021 -0.716028 0
-1.34511 -0.814788 0
-0.873839 -1.19598 0
-0.427839 -1.06034 0
-2.37139 -2.55613 0
0.0478702 -1.69353 0
-0.256218 -1.79198 0
-0.384538 -0.333563 0
-0.0826585 -0.604565 0
-0.0253442 -0.445441 0
-0.822608 -0.791245 0
-0.743683 -0.697212 0
-0.0172016 -0.151036 0
-0.063227 -0.121004 0
-0.0600425 -0.10234 0
-0.050047 -0.115768 0
-0.0532773 -0.253741 0
0.034389 -0.139514 0
-0.0380954 -0.215929 0
-0.0511029 -0.165728 0
0.0121555 -0.226883 0
-0.0259247 -0.0899093 0
-0.0739387 -0.747688 0
0.0348951 -0.0714042 0
0.458491 -1.50474 0
-0.0645255 -0.186453 0
0.0759027 -1.83981 0
-0.076541 -0.837212 0
-0.625939 -1.05688 0
-1.08244 -0.912899 0
-1.09246 -0.985729 0
-0.13516 -0.415078 0
-0.486089 -1.46403 0
-0.14748 -1.04194 0
-0.122849 -0.303436 0
-0.0224189 -0.315377 0
-0.0960425 -0.0970531 0
-0.227624 -0.127744 0
-0.787529 -1.19675 0
-0.460648 -0.539017 0
-0.017318 -0.306838 0
-0.1876 -0.776965 0
-0.103082 -0.175541 0
-0.493968 -0.766328 0
