# vtk DataFile Version 2.0
Unstructured Grid by M++
ASCII
DATASET UNSTRUCTURED_GRID
POINTS 81 float
  1.000000   0.625000 0
  0.750000   0.375000 0
  1.000000   0.000000 0
  0.875000   0.875000 0
  0.750000   0.125000 0
  1.000000   1.000000 0
  0.875000   0.250000 0
  0.625000   0.875000 0
  1.000000   0.750000 0
  0.875000   0.000000 0
  1.000000   0.250000 0
  0.625000   0.375000 0
  0.875000   0.500000 0
  0.625000   0.625000 0
  1.000000   0.500000 0
  0.750000   0.500000 0
  0.750000   1.000000 0
  1.000000   0.125000 0
  0.625000   0.250000 0
  0.750000   0.750000 0
  0.625000   0.000000 0
  0.125000   0.375000 0
  0.000000   0.500000 0
  0.125000   0.625000 0
  0.625000   1.000000 0
  1.000000   0.875000 0
  0.875000   0.125000 0
  0.500000   0.250000 0
  0.625000   0.500000 0
  0.250000   0.625000 0
  0.000000   0.625000 0
  0.375000   0.500000 0
  0.375000   0.000000 0
  0.000000   0.125000 0
  0.125000   0.875000 0
  0.875000   1.000000 0
  0.750000   0.250000 0
  0.375000   0.375000 0
  0.250000   0.375000 0
  0.625000   0.750000 0
  0.125000   0.125000 0
  0.500000   0.000000 0
  0.250000   0.875000 0
  0.125000   0.500000 0
  0.500000   0.375000 0
  0.125000   0.000000 0
  0.250000   0.750000 0
  0.250000   0.500000 0
  0.000000   0.875000 0
  0.875000   0.625000 0
  0.500000   0.750000 0
  0.750000   0.625000 0
  0.250000   0.000000 0
  0.375000   0.750000 0
  0.750000   0.875000 0
  0.625000   0.125000 0
  0.250000   0.250000 0
  0.375000   1.000000 0
  0.375000   0.250000 0
  0.000000   0.375000 0
  0.500000   1.000000 0
  0.875000   0.750000 0
  0.750000   0.000000 0
  0.375000   0.125000 0
  0.500000   0.875000 0
  0.000000   0.000000 0
  0.125000   0.750000 0
  0.500000   0.625000 0
  0.125000   0.250000 0
  0.500000   0.125000 0
  0.250000   1.000000 0
  0.250000   0.125000 0
  0.000000   1.000000 0
  0.375000   0.875000 0
  0.000000   0.750000 0
  0.375000   0.625000 0
  0.000000   0.250000 0
  0.125000   1.000000 0
  1.000000   0.375000 0
  0.500000   0.500000 0
  0.875000   0.375000 0
CELLS 64 320
4 56 71 58 63
4 27 58 69 63
4 41 69 32 63
4 76 33 68 40
4 27 44 58 37
4 79 31 44 37
4 56 38 68 21
4 56 58 38 37
4 52 32 71 63
4 47 38 31 37
4 76 68 59 21
4 22 59 43 21
4 65 45 33 40
4 47 43 38 21
4 52 71 45 40
4 56 68 71 40
4 74 30 66 23
4 46 66 29 23
4 22 43 30 23
4 72 48 77 34
4 46 53 42 73
4 50 64 53 73
4 70 42 57 73
4 74 66 48 34
4 46 42 66 34
4 47 29 43 23
4 70 77 42 34
4 60 57 64 73
4 79 67 31 75
4 47 31 29 75
4 50 53 67 75
4 46 29 53 75
4 10 78 6 80
4 36 6 1 80
4 15 1 12 80
4 36 4 6 26
4 14 12 78 80
4 2 17 9 26
4 36 18 4 55
4 15 28 1 11
4 62 4 20 55
4 10 6 17 26
4 27 18 44 11
4 62 9 4 26
4 27 69 18 55
4 36 1 18 11
4 41 20 69 55
4 79 44 28 11
4 16 24 54 7
4 19 54 39 7
4 50 39 64 7
4 8 25 61 3
4 60 64 24 7
4 79 28 67 13
4 19 51 61 49
4 8 61 0 49
4 15 51 28 13
4 19 39 51 13
4 50 67 39 13
4 19 61 54 3
4 14 0 12 49
4 5 35 25 3
4 15 12 51 49
4 16 54 35 3
CELL_TYPES 64
8
8
8
8
8
8
8
8
8
8
8
8
8
8
8
8
8
8
8
8
8
8
8
8
8
8
8
8
8
8
8
8
8
8
8
8
8
8
8
8
8
8
8
8
8
8
8
8
8
8
8
8
8
8
8
8
8
8
8
8
8
8
8
8
CELL_DATA 64
VECTORS vector_value float
-0.315238 -0.446056 0
0.0838947 -0.292607 0
0.000301489 -0.0464564 0
-0.0123651 -0.0855291 0
0.51826 -1.57357 0
-0.0892289 -1.7699 0
0.0331788 -0.181505 0
-0.0611111 -0.34787 0
-0.00462923 -0.0809113 0
-0.0565286 -0.305592 0
0.0192372 -0.0763324 0
0.0559285 -0.196764 0
-0.0141419 -0.127259 0
0.0924589 -0.0938843 0
-0.138536 -0.659415 0
-0.154981 -0.264357 0
-0.0213029 -0.321479 0
-0.00383915 -0.0100611 0
0.0490445 -0.309467 0
0.347568 -0.526699 0
1.03546 -1.25981 0
1.45913 -3.06733 0
1.08023 -2.34698 0
0.0100455 -0.264256 0
0.0157986 -0.0963153 0
0.0166741 -0.038471 0
1.15919 -0.556332 0
-0.478763 -1.09671 0
0.0158564 -1.93064 0
-0.00516626 -0.0798329 0
1.09978 -3.23561 0
-0.000915589 -0.0828211 0
0.00554131 -0.0122955 0
0.218967 -0.249748 0
-0.0150452 -0.0718191 0
2.09844 -1.65081 0
-0.00403032 -0.01401 0
0.825831 -1.54607 0
3.07233 -3.64808 0
0.113039 -1.82947 0
0.0393669 -1.8766 0
0.0735372 -0.086435 0
1.77169 -3.11403 0
0.693433 -2.80718 0
1.02692 -1.52612 0
1.07367 -2.44465 0
0.0102778 -0.856112 0
0.124126 -3.71856 0
-0.700318 -0.855529 0
-1.06437 -0.566676 0
-0.520123 -1.87782 0
-0.14287 -0.31159 0
-0.641139 -0.959258 0
0.193035 -3.90745 0
-0.104718 -0.163866 0
-0.0411168 -0.11277 0
0.330899 -1.56915 0
-0.0665088 -0.585841 0
1.19483 -3.48756 0
-0.785922 -0.556193 0
-0.0272187 -0.0462188 0
-0.278999 -1.03584 0
-0.0821284 -0.118772 0
-0.457797 -0.622657 0
