# vtk DataFile Version 2.0
Unstructured Grid by M++
ASCII
DATASET UNSTRUCTURED_GRID
POINTS 81 float
  1.000000   0.625000 0
  0.750000   0.375000 0
  1.000000   0.000000 0
  0.875000   0.875000 0
  0.750000   0.125000 0
  1.000000   1.000000 0
  0.875000   0.250000 0
  0.625000   0.875000 0
  1.000000   0.750000 0
  0.875000   0.000000 0
  1.000000   0.250000 0
  0.625000   0.375000 0
  0.875000   0.500000 0
  0.625000   0.625000 0
  1.000000   0.500000 0
  0.750000   0.500000 0
  0.750000   1.000000 0
  1.000000   0.125000 0
  0.625000   0.250000 0
  0.750000   0.750000 0
  0.625000   0.000000 0
  0.125000   0.375000 0
  0.000000   0.500000 0
  0.125000   0.625000 0
  0.625000   1.000000 0
  1.000000   0.875000 0
  0.875000   0.125000 0
  0.500000   0.250000 0
  0.625000   0.500000 0
  0.250000   0.625000 0
  0.000000   0.625000 0
  0.375000   0.500000 0
  0.375000   0.000000 0
  0.000000   0.125000 0
  0.125000   0.875000 0
  0.875000   1.000000 0
  0.750000   0.250000 0
  0.375000   0.375000 0
  0.250000   0.375000 0
  0.625000   0.750000 0
  0.125000   0.125000 0
  0.500000   0.000000 0
  0.250000   0.875000 0
  0.125000   0.500000 0
  0.500000   0.375000 0
  0.125000   0.000000 0
  0.250000   0.750000 0
  0.250000   0.500000 0
  0.000000   0.875000 0
  0.875000   0.625000 0
  0.500000   0.750000 0
  0.750000   0.625000 0
  0.250000   0.000000 0
  0.375000   0.750000 0
  0.750000   0.875000 0
  0.625000   0.125000 0
  0.250000   0.250000 0
  0.375000   1.000000 0
  0.375000   0.250000 0
  0.000000   0.375000 0
  0.500000   1.000000 0
  0.875000   0.750000 0
  0.750000   0.000000 0
  0.375000   0.125000 0
  0.500000   0.875000 0
  0.000000   0.000000 0
  0.125000   0.750000 0
  0.500000   0.625000 0
  0.125000   0.250000 0
  0.500000   0.125000 0
  0.250000   1.000000 0
  0.250000   0.125000 0
  0.000000   1.000000 0
  0.375000   0.875000 0
  0.000000   0.750000 0
  0.375000   0.625000 0
  0.000000   0.250000 0
  0.125000   1.000000 0
  1.000000   0.375000 0
  0.500000   0.500000 0
  0.875000   0.375000 0
CELLS 64 320
4 56 71 58 63
4 27 58 69 63
4 41 69 32 63
4 76 33 68 40
4 27 44 58 37
4 79 31 44 37
4 56 38 68 21
4 56 58 38 37
4 52 32 71 63
4 47 38 31 37
4 76 68 59 21
4 22 59 43 21
4 65 45 33 40
4 47 43 38 21
4 52 71 45 40
4 56 68 71 40
4 74 30 66 23
4 46 66 29 23
4 22 43 30 23
4 72 48 77 34
4 46 53 42 73
4 50 64 53 73
4 70 42 57 73
4 74 66 48 34
4 46 42 66 34
4 47 29 43 23
4 70 77 42 34
4 60 57 64 73
4 79 67 31 75
4 47 31 29 75
4 50 53 67 75
4 46 29 53 75
4 10 78 6 80
4 36 6 1 80
4 15 1 12 80
4 36 4 6 26
4 14 12 78 80
4 2 17 9 26
4 36 18 4 55
4 15 28 1 11
4 62 4 20 55
4 10 6 17 26
4 27 18 44 11
4 62 9 4 26
4 27 69 18 55
4 36 1 18 11
4 41 20 69 55
4 79 44 28 11
4 16 24 54 7
4 19 54 39 7
4 50 39 64 7
4 8 25 61 3
4 60 64 24 7
4 79 28 67 13
4 19 51 61 49
4 8 61 0 49
4 15 51 28 13
4 19 39 51 13
4 50 67 39 13
4 19 61 54 3
4 14 0 12 49
4 5 35 25 3
4 15 12 51 49
4 16 54 35 3
CELL_TYPES 64
8
8
8
8
8
8
8
8
8
8
8
8
8
8
8
8
8
8
8
8
8
8
8
8
8
8
8
8
8
8
8
8
8
8
8
8
8
8
8
8
8
8
8
8
8
8
8
8
8
8
8
8
8
8
8
8
8
8
8
8
8
8
8
8
CELL_DATA 64
VECTORS vector_value float
-0.4824 -0.459441 0
-0.233872 -0.466839 0
-0.0870915 -0.411787 0
-0.406042 -1.58849 0
-0.159052 -0.863753 0
1.0006 -1.04925 0
-0.454922 -1.49095 0
-0.170967 -0.301375 0
-0.0946385 -0.429343 0
-0.1501 -1.13867 0
-0.271749 -0.955321 0
-0.111197 -0.467492 0
-0.341993 -2.50788 0
-0.439928 -1.35267 0
-0.165728 -0.545757 0
-0.794462 -1.2082 0
0.111169 -0.449625 0
0.0916908 -0.400861 0
-0.0278116 -0.277693 0
0.224905 -0.619245 0
0.0131891 -2.5738 0
-0.24402 -1.30273 0
0.179122 -1.9867 0
0.0117781 -0.573369 0
0.132261 -0.425161 0
-0.324074 -0.788732 0
0.646779 -0.779407 0
-0.628909 -1.19105 0
0.20279 -0.304812 0
0.153399 -3.16181 0
-0.0538342 -1.09937 0
-0.231691 -3.08953 0
0.0602389 -1.15066 0
0.669094 -1.59916 0
0.0689156 -0.748068 0
0.077926 -1.79831 0
0.0212764 -1.07831 0
0.0242065 -1.85252 0
-0.313699 -0.486103 0
0.531798 -1.27836 0
-0.0925248 -0.77275 0
0.300422 -1.32299 0
0.0750183 -0.651206 0
0.000209382 -0.779154 0
-0.187537 -0.669628 0
0.625332 -0.98758 0
-0.0694606 -0.700805 0
0.787227 -0.88718 0
-0.12696 -1.04546 0
-0.352491 -1.01093 0
-0.445325 -0.554134 0
-0.134045 -1.09764 0
-0.377325 -0.395026 0
0.376617 -0.882338 0
-0.00663886 -1.06676 0
-0.0792297 -0.737773 0
0.19012 -0.774516 0
0.0410552 -0.457058 0
0.0840356 -0.699027 0
-0.114059 -0.462237 0
0.158109 -0.982561 0
0.0793181 -1.19185 0
0.131975 -0.827538 0
-0.0852881 -0.791264 0
