# vtk DataFile Version 2.0
Unstructured Grid by M++
ASCII
DATASET UNSTRUCTURED_GRID
POINTS 289 float
  0.562500   1.000000 0
  0.562500   0.625000 0
  0.625000   1.000000 0
  0.562500   0.937500 0
  0.562500   0.562500 0
  0.625000   0.937500 0
  0.562500   0.875000 0
  0.625000   0.750000 0
  0.625000   0.625000 0
  0.562500   0.812500 0
  0.562500   0.750000 0
  0.562500   0.687500 0
  0.625000   0.875000 0
  0.625000   0.812500 0
  0.625000   0.687500 0
  0.687500   0.125000 0
  0.875000   0.062500 0
  0.625000   0.125000 0
  0.625000   0.187500 0
  0.625000   0.250000 0
  0.812500   0.187500 0
  1.000000   0.125000 0
  0.687500   0.187500 0
  0.750000   0.125000 0
  0.937500   0.062500 0
  0.937500   0.125000 0
  0.750000   0.187500 0
  0.812500   0.062500 0
  0.812500   0.125000 0
  0.875000   0.687500 0
  0.187500   0.250000 0
  0.437500   0.250000 0
  0.375000   0.187500 0
  0.812500   0.625000 0
  0.125000   0.187500 0
  0.937500   0.750000 0
  0.250000   0.312500 0
  0.500000   0.312500 0
  0.625000   0.062500 0
  0.437500   0.500000 0
  0.375000   0.125000 0
  0.437500   0.187500 0
  0.437500   0.437500 0
  0.437500   0.375000 0
  0.875000   0.875000 0
  0.187500   0.375000 0
  0.687500   0.562500 0
  0.687500   0.625000 0
  0.000000   0.125000 0
  0.937500   0.625000 0
  0.250000   0.125000 0
  0.375000   0.062500 0
  0.375000   0.000000 0
  0.812500   0.500000 0
  0.125000   0.000000 0
  0.937500   0.937500 0
  0.250000   0.437500 0
  0.687500   0.875000 0
  0.687500   0.937500 0
  0.000000   0.437500 0
  0.500000   0.500000 0
  0.500000   0.437500 0
  0.750000   0.937500 0
  0.750000   1.000000 0
  0.062500   0.500000 0
  1.000000   1.000000 0
  0.312500   0.500000 0
  0.875000   0.562500 0
  0.187500   0.062500 0
  0.437500   0.125000 0
  0.437500   0.062500 0
  0.500000   0.375000 0
  0.937500   0.812500 0
  0.937500   0.875000 0
  0.250000   0.375000 0
  0.687500   0.812500 0
  0.000000   0.375000 0
  0.750000   0.562500 0
  0.062500   0.125000 0
  1.000000   0.562500 0
  1.000000   0.625000 0
  0.312500   0.125000 0
  0.562500   0.125000 0
  0.437500   0.000000 0
  0.875000   0.437500 0
  0.875000   0.500000 0
  0.187500   0.000000 0
  0.937500   0.562500 0
  0.937500   0.500000 0
  0.250000   0.062500 0
  0.687500   0.500000 0
  0.000000   0.062500 0
  0.500000   0.062500 0
  1.000000   0.875000 0
  1.000000   0.937500 0
  0.312500   0.437500 0
  0.750000   0.875000 0
  0.062500   0.437500 0
  0.812500   0.937500 0
  0.125000   0.500000 0
  0.375000   0.500000 0
  0.625000   0.562500 0
  0.625000   0.500000 0
  0.437500   0.312500 0
  0.875000   0.812500 0
  0.875000   0.750000 0
  0.187500   0.312500 0
  0.812500   0.687500 0
  0.812500   0.750000 0
  0.125000   0.250000 0
  0.375000   0.250000 0
  1.000000   0.687500 0
  0.312500   0.187500 0
  0.750000   0.687500 0
  0.750000   0.625000 0
  0.062500   0.187500 0
  0.562500   0.250000 0
  0.562500   0.187500 0
  0.375000   1.000000 0
  0.500000   0.562500 0
  0.500000   0.250000 0
  0.750000   0.250000 0
  0.500000   0.125000 0
  0.500000   0.187500 0
  1.000000   0.187500 0
  0.625000   0.375000 0
  0.875000   0.375000 0
  1.000000   0.437500 0
  0.312500   0.000000 0
  0.562500   0.000000 0
  0.812500   0.000000 0
  0.250000   0.687500 0
  0.000000   0.687500 0
  0.500000   1.000000 0
  0.250000   1.000000 0
  0.000000   1.000000 0
  0.437500   0.687500 0
  0.437500   0.625000 0
  0.187500   0.625000 0
  0.687500   0.750000 0
  0.000000   0.312500 0
  0.000000   0.250000 0
  0.375000   0.375000 0
  0.375000   0.312500 0
  0.812500   0.812500 0
  0.125000   0.312500 0
  0.875000   0.625000 0
  0.187500   0.187500 0
  0.187500   0.125000 0
  0.937500   1.000000 0
  0.250000   0.562500 0
  0.250000   0.500000 0
  0.687500   1.000000 0
  0.000000   0.500000 0
  0.687500   0.687500 0
  0.000000   0.187500 0
  0.937500   0.687500 0
  0.250000   0.250000 0
  0.250000   0.187500 0
  0.187500   0.687500 0
  0.000000   0.750000 0
  0.250000   0.750000 0
  0.125000   0.625000 0
  0.750000   0.750000 0
  0.062500   0.250000 0
  0.875000   0.937500 0
  0.187500   0.500000 0
  0.187500   0.437500 0
  0.812500   0.562500 0
  0.125000   0.125000 0
  0.125000   0.062500 0
  0.375000   0.625000 0
  0.375000   0.687500 0
  1.000000   0.750000 0
  0.312500   0.250000 0
  0.312500   0.312500 0
  0.812500   0.312500 0
  0.562500   0.312500 0
  0.375000   0.750000 0
  0.500000   0.625000 0
  0.250000   0.625000 0
  0.312500   0.687500 0
  0.750000   0.812500 0
  0.062500   0.312500 0
  0.062500   0.375000 0
  1.000000   0.812500 0
  0.312500   0.375000 0
  0.562500   0.375000 0
  0.687500   0.437500 0
  0.000000   0.000000 0
  0.500000   0.000000 0
  0.937500   0.437500 0
  0.250000   0.000000 0
  0.375000   0.437500 0
  0.812500   0.875000 0
  0.125000   0.375000 0
  0.125000   0.437500 0
  0.625000   0.437500 0
  1.000000   0.500000 0
  0.312500   0.062500 0
  0.750000   0.500000 0
  0.062500   0.000000 0
  0.062500   0.062500 0
  0.562500   0.062500 0
  0.062500   0.750000 0
  0.312500   0.750000 0
  0.312500   0.625000 0
  0.312500   0.562500 0
  0.062500   0.562500 0
  0.187500   1.000000 0
  0.437500   0.562500 0
  0.875000   1.000000 0
  0.187500   0.562500 0
  0.500000   0.937500 0
  0.250000   0.937500 0
  0.312500   1.000000 0
  0.125000   0.750000 0
  0.125000   0.687500 0
  1.000000   0.000000 0
  0.000000   0.937500 0
  0.000000   0.875000 0
  0.875000   0.125000 0
  0.875000   0.187500 0
  0.062500   0.812500 0
  0.312500   0.812500 0
  0.000000   0.812500 0
  0.000000   0.625000 0
  0.000000   0.562500 0
  0.062500   1.000000 0
  0.062500   0.937500 0
  0.937500   0.187500 0
  0.937500   0.250000 0
  0.062500   0.687500 0
  0.062500   0.625000 0
  0.125000   1.000000 0
  1.000000   0.250000 0
  1.000000   0.312500 0
  0.062500   0.875000 0
  0.125000   0.812500 0
  0.375000   0.812500 0
  0.125000   0.875000 0
  0.375000   0.937500 0
  0.375000   0.875000 0
  0.187500   0.750000 0
  0.187500   0.812500 0
  0.437500   0.812500 0
  0.187500   0.875000 0
  0.437500   0.875000 0
  0.375000   0.562500 0
  0.812500   1.000000 0
  0.125000   0.562500 0
  0.437500   1.000000 0
  0.437500   0.937500 0
  0.187500   0.937500 0
  0.125000   0.937500 0
  0.500000   0.687500 0
  0.500000   0.750000 0
  0.500000   0.812500 0
  0.250000   0.812500 0
  0.250000   0.875000 0
  0.500000   0.875000 0
  0.437500   0.750000 0
  0.312500   0.875000 0
  0.312500   0.937500 0
  0.687500   0.250000 0
  0.687500   0.312500 0
  0.937500   0.312500 0
  0.875000   0.250000 0
  0.625000   0.000000 0
  0.875000   0.000000 0
  0.687500   0.375000 0
  0.937500   0.375000 0
  0.875000   0.312500 0
  0.625000   0.312500 0
  0.687500   0.000000 0
  0.937500   0.000000 0
  0.750000   0.312500 0
  0.750000   0.375000 0
  1.000000   0.375000 0
  0.812500   0.250000 0
  0.562500   0.437500 0
  0.562500   0.500000 0
  0.687500   0.062500 0
  0.750000   0.437500 0
  0.750000   0.000000 0
  0.750000   0.062500 0
  1.000000   0.062500 0
  0.812500   0.375000 0
  0.812500   0.437500 0
CELLS 256 1280
4 169 170 148 68
4 151 166 56 167
4 195 45 196 167
4 54 170 201 202
4 109 34 30 147
4 40 32 81 112
4 192 89 86 68
4 48 91 78 202
4 99 64 196 97
4 71 43 37 103
4 74 186 56 95
4 109 164 34 115
4 50 81 158 112
4 122 69 92 70
4 195 145 45 106
4 110 143 174 175
4 157 30 158 147
4 40 69 32 41
4 50 158 148 147
4 141 155 164 115
4 122 123 69 41
4 142 186 143 175
4 60 39 61 42
4 40 51 69 70
4 120 31 123 41
4 157 174 36 175
4 50 148 89 68
4 48 78 155 115
4 52 83 51 70
4 151 56 66 95
4 71 61 43 42
4 169 148 34 147
4 100 193 39 42
4 40 81 51 199
4 110 174 32 112
4 109 30 145 106
4 100 66 193 95
4 169 34 78 115
4 190 92 83 70
4 50 89 81 199
4 54 86 170 68
4 74 56 45 167
4 142 143 43 103
4 153 59 64 97
4 99 196 166 167
4 169 78 170 202
4 142 193 186 95
4 192 128 89 199
4 74 45 36 106
4 110 31 143 103
4 76 184 59 97
4 142 43 193 42
4 52 51 128 199
4 189 201 91 202
4 120 37 31 103
4 74 36 186 175
4 195 196 184 97
4 141 164 140 183
4 157 158 174 112
4 109 145 164 183
4 195 184 145 183
4 110 32 31 41
4 157 36 30 106
4 76 140 184 183
4 171 172 206 181
4 178 172 261 136
4 256 261 255 136
4 256 257 261 245
4 180 150 206 207
4 60 119 39 210
4 118 215 241 263
4 178 205 172 181
4 216 243 238 244
4 162 217 233 232
4 180 206 131 181
4 179 137 119 210
4 216 204 217 232
4 220 237 219 229
4 216 217 243 159
4 259 258 262 224
4 240 254 237 229
4 153 64 227 208
4 161 205 258 224
4 240 237 238 223
4 226 227 233 208
4 234 228 254 229
4 171 248 137 210
4 160 132 204 232
4 180 131 138 159
4 133 251 213 252
4 171 206 248 207
4 162 138 217 159
4 161 258 243 244
4 220 225 237 223
4 151 150 166 212
4 260 247 257 245
4 259 262 214 263
4 151 66 150 207
4 234 254 209 253
4 162 233 250 208
4 242 241 262 263
4 171 137 172 136
4 161 243 131 159
4 160 204 225 223
4 161 131 205 181
4 179 255 137 136
4 216 238 204 223
4 100 39 248 210
4 260 213 247 252
4 226 233 132 232
4 134 214 215 263
4 180 138 150 212
4 178 261 239 245
4 259 246 258 244
4 178 239 205 224
4 240 238 246 244
4 242 262 239 224
4 99 250 64 208
4 240 246 254 253
4 242 239 247 245
4 135 219 228 229
4 99 166 250 212
4 259 214 246 253
4 118 241 251 252
4 100 248 66 207
4 134 209 214 253
4 162 250 138 212
4 242 247 241 252
4 71 187 61 280
4 102 281 197 280
4 122 92 82 203
4 17 18 82 117
4 122 82 123 117
4 19 264 273 265
4 267 279 222 20
4 125 273 270 265
4 267 272 279 176
4 19 116 18 117
4 21 25 286 24
4 23 28 26 20
4 23 285 28 27
4 218 286 275 24
4 85 53 84 288
4 235 236 231 266
4 221 222 28 20
4 267 222 231 230
4 268 38 129 203
4 125 270 197 188
4 126 287 272 176
4 277 270 276 265
4 267 231 272 266
4 125 197 187 280
4 190 129 92 203
4 277 276 287 176
4 19 18 264 22
4 17 82 38 203
4 102 197 90 188
4 126 84 287 288
4 284 130 285 27
4 121 276 264 265
4 71 37 187 177
4 120 123 116 117
4 198 88 127 191
4 221 16 25 24
4 23 26 15 22
4 121 279 276 176
4 235 231 124 230
4 125 187 273 177
4 278 271 236 266
4 277 287 283 288
4 284 285 274 282
4 278 127 271 191
4 269 275 16 24
4 200 283 53 288
4 23 15 285 282
4 121 26 279 20
4 21 124 25 230
4 19 273 116 177
4 200 90 283 188
4 126 271 84 191
4 269 16 130 27
4 17 38 15 282
4 221 25 222 230
4 121 264 26 22
4 120 116 37 177
4 60 61 281 280
4 277 283 270 188
4 126 272 271 266
4 268 274 38 282
4 85 84 88 191
4 17 15 18 22
4 221 28 16 27
4 93 94 73 55
4 85 88 67 87
4 80 49 79 87
4 44 104 73 72
4 146 33 67 168
4 211 165 149 55
4 8 47 14 154
4 105 104 108 144
4 105 108 29 107
4 7 139 13 75
4 44 165 194 98
4 200 53 77 168
4 8 1 101 4
4 2 5 152 58
4 260 6 213 3
4 105 35 104 72
4 96 57 182 75
4 7 14 139 154
4 146 29 33 107
4 7 13 10 9
4 12 13 57 75
4 85 67 53 168
4 44 73 165 55
4 63 152 62 58
4 8 101 47 46
4 96 182 194 144
4 60 281 119 4
4 12 5 6 3
4 173 185 35 72
4 65 149 94 55
4 146 67 49 87
4 114 113 47 154
4 163 108 182 144
4 12 6 13 9
4 173 35 111 156
4 163 182 139 75
4 260 257 6 9
4 105 29 35 156
4 163 139 113 154
4 256 10 257 9
4 146 49 29 156
4 163 113 108 107
4 80 111 49 156
4 102 101 281 4
4 12 57 5 58
4 44 194 104 144
4 96 194 62 98
4 2 0 5 3
4 93 73 185 72
4 179 119 1 4
4 200 77 90 46
4 114 33 113 107
4 7 10 14 11
4 96 62 57 58
4 133 213 0 3
4 102 90 101 46
4 256 255 10 11
4 63 62 249 98
4 114 47 77 46
4 179 1 255 11
4 211 249 165 98
4 114 77 33 168
4 198 79 88 87
4 8 14 1 11
CELL_TYPES 256
8
8
8
8
8
8
8
8
8
8
8
8
8
8
8
8
8
8
8
8
8
8
8
8
8
8
8
8
8
8
8
8
8
8
8
8
8
8
8
8
8
8
8
8
8
8
8
8
8
8
8
8
8
8
8
8
8
8
8
8
8
8
8
8
8
8
8
8
8
8
8
8
8
8
8
8
8
8
8
8
8
8
8
8
8
8
8
8
8
8
8
8
8
8
8
8
8
8
8
8
8
8
8
8
8
8
8
8
8
8
8
8
8
8
8
8
8
8
8
8
8
8
8
8
8
8
8
8
8
8
8
8
8
8
8
8
8
8
8
8
8
8
8
8
8
8
8
8
8
8
8
8
8
8
8
8
8
8
8
8
8
8
8
8
8
8
8
8
8
8
8
8
8
8
8
8
8
8
8
8
8
8
8
8
8
8
8
8
8
8
8
8
8
8
8
8
8
8
8
8
8
8
8
8
8
8
8
8
8
8
8
8
8
8
8
8
8
8
8
8
8
8
8
8
8
8
8
8
8
8
8
8
8
8
8
8
8
8
8
8
8
8
8
8
8
8
8
8
8
8
8
8
8
8
8
8
CELL_DATA 256
VECTORS vector_value float
0.450469 -4.42446 0
-0.115741 -0.348558 0
0.3533 -2.58283 0
0.0230045 -1.02005 0
-1.05616 -2.98647 0
-0.775361 -0.361376 0
0.0968453 -2.29006 0
-0.0243563 -1.51771 0
1.35171 -2.47653 0
-0.935007 -0.569376 0
-0.356594 -0.546726 0
-0.652862 -2.12194 0
-1.18416 -0.511146 0
0.0732757 -0.491838 0
-0.0977855 -2.44222 0
-0.477867 -0.572022 0
-0.951472 -1.03632 0
-0.533792 -0.580085 0
-1.17756 -1.38955 0
-0.126682 -0.762816 0
-0.233825 -0.481856 0
-0.350063 -0.472117 0
0.0700558 -0.45207 0
0.0155185 -0.291844 0
-0.636022 -0.809299 0
-0.545214 -0.46897 0
0.0393055 -1.53632 0
-0.258103 -1.23889 0
0.0077023 -0.135971 0
-0.343185 -0.356127 0
-0.100984 -0.390783 0
-0.396167 -3.38967 0
-0.255651 -0.942222 0
-0.136482 -0.165166 0
-1.27746 -0.757937 0
-0.284434 -2.70214 0
-0.529168 -0.675159 0
-0.146249 -2.07106 0
0.0620382 -0.477751 0
-0.200108 -0.296908 0
0.0946206 -4.1978 0
-0.135447 -0.648079 0
-0.542125 -0.669411 0
0.340311 -0.981285 0
0.607397 -1.16706 0
0.230041 -1.37176 0
-0.35521 -0.649742 0
-0.0328407 -0.263074 0
-0.122949 -0.889738 0
-0.758204 -0.970278 0
0.0502219 -0.615978 0
-0.159004 -0.490292 0
-0.00824546 -0.0813527 0
0.00236841 -1.49447 0
-0.806297 -0.789654 0
-0.379351 -0.705582 0
0.104017 -1.39347 0
-0.080602 -0.644223 0
-1.12315 -0.539351 0
-0.105708 -1.49839 0
-0.0406244 -1.65152 0
-0.827855 -0.74221 0
-0.741265 -1.30874 0
0.0198104 -0.508857 0
-0.110579 -0.235516 0
-0.366705 -1.25322 0
-0.467493 -1.2186 0
-0.41423 -1.24825 0
-0.0687088 -0.104576 0
-0.0472601 -0.61256 0
0.751771 -0.820947 0
-0.264129 -0.265507 0
-0.0428741 -0.440588 0
-0.140136 -1.56675 0
-0.0822919 -0.100122 0
-0.171924 -1.26105 0
0.101358 -1.59037 0
-0.188138 -2.29758 0
-0.0426472 -0.75405 0
-0.071339 -0.143388 0
-0.510991 -1.06621 0
0.453824 -2.04895 0
-0.104863 -0.0543554 0
-0.142191 -0.804906 0
-0.147483 -2.22759 0
-1.00839 -0.911542 0
-0.192503 -1.17904 0
0.0302821 -1.85615 0
-0.124377 -0.200437 0
0.644062 -1.24897 0
-0.155488 -0.393921 0
-0.197874 -0.998812 0
-0.149694 -0.179054 0
-0.107225 -2.76469 0
-0.0676378 -0.191609 0
0.254705 -1.25933 0
0.00149718 -0.351568 0
-0.173273 -0.191662 0
-0.863138 -0.728244 0
-0.311786 -1.60673 0
0.233983 -0.555698 0
-0.140951 -1.33832 0
-0.257746 -0.239104 0
0.384536 -2.4197 0
-0.321266 -0.0930932 0
-0.0769179 -1.28159 0
0.424809 -1.20412 0
-0.427049 -1.43959 0
0.574516 -1.52525 0
-0.0488639 -1.87596 0
0.345465 -0.843305 0
-0.0615538 -0.1461 0
-0.224418 -0.923942 0
-0.15454 -0.192048 0
-0.121853 -0.331499 0
-0.129111 -0.346715 0
0.0782727 -0.38902 0
0.323346 -1.98646 0
-0.296368 -0.425752 0
0.152426 -0.761447 0
-0.546738 -1.72571 0
0.00854273 -0.569414 0
-0.0990022 -0.170392 0
0.883708 -0.964322 0
-0.309617 -0.480918 0
-0.318373 -0.505145 0
-0.205415 -0.734569 0
0.4554 -0.864613 0
-0.292613 -0.638183 0
-0.0967511 -0.736099 0
-0.0147919 -0.729266 0
-0.209338 -0.7928 0
-0.239022 -0.652197 0
-0.42479 -1.08873 0
-0.228261 -0.620801 0
-1.3974 -1.351 0
-0.292944 -0.496656 0
-0.284961 -0.886632 0
-0.0493959 -0.285397 0
-0.0839905 -1.70497 0
-0.00848343 -1.25091 0
-0.0169767 -0.201842 0
-0.557932 -0.948778 0
0.0109081 -0.555367 0
-0.110091 -0.486256 0
-0.126406 -0.378193 0
-0.0953829 -1.00852 0
-0.721052 -1.30518 0
-1.41085 -1.24861 0
-1.32977 -0.82237 0
-0.189123 -0.752565 0
-0.566991 -0.901282 0
0.0424957 -0.892485 0
-1.41631 -0.787368 0
-0.145695 -1.09587 0
-0.123523 -0.779038 0
-0.354253 -0.990153 0
-1.75953 -1.24009 0
0.00910298 -1.05779 0
-0.505624 -0.994104 0
-1.29374 -0.958233 0
-0.31659 -0.566145 0
-0.13716 -2.30949 0
-0.0593569 -0.340247 0
0.0156168 -0.787078 0
-0.54441 -1.22217 0
-0.067529 -0.571777 0
-1.39075 -0.998331 0
-0.143388 -0.701393 0
-1.28408 -0.634878 0
-0.0467049 -0.787321 0
-0.641919 -1.57528 0
0.0153361 -0.531352 0
-0.479527 -0.405859 0
-0.292211 -1.05633 0
-0.0632346 -1.25276 0
-0.0609078 -0.399824 0
-0.551838 -1.05088 0
-0.570139 -0.628857 0
-1.56987 -1.83104 0
0.0431318 -0.825314 0
-0.229011 -0.653601 0
-0.153945 -0.393788 0
0.0373396 -0.871472 0
-0.745812 -0.885113 0
0.0758352 -0.28661 0
-0.790424 -0.556159 0
-0.654498 -1.22387 0
-0.150095 -0.734848 0
-0.475226 -2.29515 0
-0.0534232 -0.75945 0
0.0926639 -0.809214 0
-0.0595122 -1.60148 0
0.139487 -2.63455 0
0.238207 -2.16076 0
-0.191236 -0.965657 0
0.2103 -1.10608 0
0.429354 -1.00455 0
0.139096 -0.516257 0
0.630248 -1.30959 0
0.930409 -1.33584 0
1.03881 -1.20034 0
-0.0871169 -0.732125 0
-0.112962 -0.48789 0
0.236797 -0.560248 0
-0.363133 -1.49405 0
0.45372 -1.52073 0
0.127473 -1.26081 0
0.406467 -0.625176 0
0.528789 -0.620149 0
0.869226 -1.53843 0
0.291679 -1.44787 0
0.403225 -1.67282 0
0.044252 -0.727173 0
-0.0623233 -0.724534 0
-0.551471 -0.822432 0
0.104744 -0.578452 0
0.316271 -0.486022 0
0.137997 -0.296953 0
0.157278 -1.43556 0
-0.0340753 -1.05911 0
0.237636 -1.28179 0
0.369922 -2.53583 0
0.213247 -0.565057 0
0.687195 -0.465237 0
0.271793 -1.75343 0
0.150958 -1.2784 0
1.08262 -0.940084 0
0.37093 -1.74632 0
0.64643 -1.88691 0
1.06707 -0.962956 0
-0.278996 -1.51545 0
0.724056 -2.51819 0
1.33789 -0.780278 0
0.20666 -1.51392 0
0.180836 -0.540862 0
-0.219131 -1.67697 0
0.0329612 -0.861591 0
-0.143081 -0.349402 0
-0.0978437 -0.843876 0
-0.102486 -1.22744 0
0.149767 -0.40534 0
-0.0986096 -0.575557 0
0.434569 -0.573753 0
0.263159 -0.640255 0
-0.204302 -0.702124 0
0.186147 -1.42682 0
0.0893489 -0.80162 0
-0.225367 -1.22511 0
-0.139188 -0.467441 0
0.0690755 -0.455351 0
0.0903573 -0.776978 0
0.246567 -0.910856 0
0.0791713 -0.544359 0
0.0670709 -2.41423 0
0.14267 -0.399913 0
