# vtk DataFile Version 2.0
Unstructured Grid by M++
ASCII
DATASET UNSTRUCTURED_GRID
POINTS 81 float
  1.000000   0.625000 0
  0.750000   0.375000 0
  1.000000   0.000000 0
  0.875000   0.875000 0
  0.750000   0.125000 0
  1.000000   1.000000 0
  0.875000   0.250000 0
  0.625000   0.875000 0
  1.000000   0.750000 0
  0.875000   0.000000 0
  1.000000   0.250000 0
  0.625000   0.375000 0
  0.875000   0.500000 0
  0.625000   0.625000 0
  1.000000   0.500000 0
  0.750000   0.500000 0
  0.750000   1.000000 0
  1.000000   0.125000 0
  0.625000   0.250000 0
  0.750000   0.750000 0
  0.625000   0.000000 0
  0.125000   0.375000 0
  0.000000   0.500000 0
  0.125000   0.625000 0
  0.625000   1.000000 0
  1.000000   0.875000 0
  0.875000   0.125000 0
  0.500000   0.250000 0
  0.625000   0.500000 0
  0.250000   0.625000 0
  0.000000   0.625000 0
  0.375000   0.500000 0
  0.375000   0.000000 0
  0.000000   0.125000 0
  0.125000   0.875000 0
  0.875000   1.000000 0
  0.750000   0.250000 0
  0.375000   0.375000 0
  0.250000   0.375000 0
  0.625000   0.750000 0
  0.125000   0.125000 0
  0.500000   0.000000 0
  0.250000   0.875000 0
  0.125000   0.500000 0
  0.500000   0.375000 0
  0.125000   0.000000 0
  0.250000   0.750000 0
  0.250000   0.500000 0
  0.000000   0.875000 0
  0.875000   0.625000 0
  0.500000   0.750000 0
  0.750000   0.625000 0
  0.250000   0.000000 0
  0.375000   0.750000 0
  0.750000   0.875000 0
  0.625000   0.125000 0
  0.250000   0.250000 0
  0.375000   1.000000 0
  0.375000   0.250000 0
  0.000000   0.375000 0
  0.500000   1.000000 0
  0.875000   0.750000 0
  0.750000   0.000000 0
  0.375000   0.125000 0
  0.500000   0.875000 0
  0.000000   0.000000 0
  0.125000   0.750000 0
  0.500000   0.625000 0
  0.125000   0.250000 0
  0.500000   0.125000 0
  0.250000   1.000000 0
  0.250000   0.125000 0
  0.000000   1.000000 0
  0.375000   0.875000 0
  0.000000   0.750000 0
  0.375000   0.625000 0
  0.000000   0.250000 0
  0.125000   1.000000 0
  1.000000   0.375000 0
  0.500000   0.500000 0
  0.875000   0.375000 0
CELLS 64 320
4 56 71 58 63
4 27 58 69 63
4 41 69 32 63
4 76 33 68 40
4 27 44 58 37
4 79 31 44 37
4 56 38 68 21
4 56 58 38 37
4 52 32 71 63
4 47 38 31 37
4 76 68 59 21
4 22 59 43 21
4 65 45 33 40
4 47 43 38 21
4 52 71 45 40
4 56 68 71 40
4 74 30 66 23
4 46 66 29 23
4 22 43 30 23
4 72 48 77 34
4 46 53 42 73
4 50 64 53 73
4 70 42 57 73
4 74 66 48 34
4 46 42 66 34
4 47 29 43 23
4 70 77 42 34
4 60 57 64 73
4 79 67 31 75
4 47 31 29 75
4 50 53 67 75
4 46 29 53 75
4 10 78 6 80
4 36 6 1 80
4 15 1 12 80
4 36 4 6 26
4 14 12 78 80
4 2 17 9 26
4 36 18 4 55
4 15 28 1 11
4 62 4 20 55
4 10 6 17 26
4 27 18 44 11
4 62 9 4 26
4 27 69 18 55
4 36 1 18 11
4 41 20 69 55
4 79 44 28 11
4 16 24 54 7
4 19 54 39 7
4 50 39 64 7
4 8 25 61 3
4 60 64 24 7
4 79 28 67 13
4 19 51 61 49
4 8 61 0 49
4 15 51 28 13
4 19 39 51 13
4 50 67 39 13
4 19 61 54 3
4 14 0 12 49
4 5 35 25 3
4 15 12 51 49
4 16 54 35 3
CELL_TYPES 64
8
8
8
8
8
8
8
8
8
8
8
8
8
8
8
8
8
8
8
8
8
8
8
8
8
8
8
8
8
8
8
8
8
8
8
8
8
8
8
8
8
8
8
8
8
8
8
8
8
8
8
8
8
8
8
8
8
8
8
8
8
8
8
8
CELL_DATA 64
VECTORS vector_value float
0.279499 -0.144155 0
0.827267 -1.64175 0
0.401735 -0.761321 0
-0.02929 -0.945147 0
1.10264 -2.8777 0
0.368671 -2.38612 0
0.64021 -0.633335 0
0.721799 -0.423393 0
0.0323011 -0.0539083 0
0.677285 -0.46206 0
0.17778 -1.09976 0
0.119817 -1.57158 0
-0.00233034 -1.00969 0
0.211861 -0.799056 0
0.00102774 -0.106434 0
0.0676246 -0.328703 0
0.00935348 -1.40976 0
0.17683 -1.31631 0
-0.0437275 -1.52215 0
-0.307444 -1.39788 0
-0.0202576 -0.148505 0
-0.305967 -1.65768 0
-0.370855 -0.552318 0
0.0706104 -1.80686 0
0.0033109 -0.998051 0
0.0237466 -0.922464 0
-0.687342 -1.12966 0
-0.0194138 -0.824827 0
-0.0605416 -1.30887 0
0.112523 -1.10008 0
-0.298126 -1.50284 0
-0.0699844 -0.388952 0
0.314078 -0.760562 0
0.773263 -1.3113 0
0.475008 -1.07919 0
0.684732 -0.526997 0
0.12353 -0.23665 0
0.136075 -2.34097 0
0.410652 -0.354135 0
0.573471 -0.587665 0
0.199815 -0.500828 0
0.595357 -1.79965 0
0.212569 -0.719132 0
0.0977717 -0.196683 0
1.34819 -2.25947 0
0.190067 -0.17482 0
0.540405 -3.03017 0
0.181414 -0.877679 0
-0.696142 -1.00236 0
-0.286484 -1.1113 0
-0.367 -1.20149 0
-0.322015 -0.610316 0
-0.421716 -1.65346 0
-0.122224 -1.41429 0
-0.400408 -0.428117 0
-0.0992262 -0.123078 0
0.377411 -1.22242 0
-0.447419 -1.30834 0
-0.228008 -1.5226 0
-0.644564 -0.465797 0
-0.00467748 -0.0434497 0
-0.0499561 -1.33159 0
0.166374 -0.466274 0
-0.196568 -0.107905 0
