# vtk DataFile Version 2.0
Unstructured Grid by M++
ASCII
DATASET UNSTRUCTURED_GRID
POINTS 81 float
  1.000000   0.625000 0
  0.750000   0.375000 0
  1.000000   0.000000 0
  0.875000   0.875000 0
  0.750000   0.125000 0
  1.000000   1.000000 0
  0.875000   0.250000 0
  0.625000   0.875000 0
  1.000000   0.750000 0
  0.875000   0.000000 0
  1.000000   0.250000 0
  0.625000   0.375000 0
  0.875000   0.500000 0
  0.625000   0.625000 0
  1.000000   0.500000 0
  0.750000   0.500000 0
  0.750000   1.000000 0
  1.000000   0.125000 0
  0.625000   0.250000 0
  0.750000   0.750000 0
  0.625000   0.000000 0
  0.125000   0.375000 0
  0.000000   0.500000 0
  0.125000   0.625000 0
  0.625000   1.000000 0
  1.000000   0.875000 0
  0.875000   0.125000 0
  0.500000   0.250000 0
  0.625000   0.500000 0
  0.250000   0.625000 0
  0.000000   0.625000 0
  0.375000   0.500000 0
  0.375000   0.000000 0
  0.000000   0.125000 0
  0.125000   0.875000 0
  0.875000   1.000000 0
  0.750000   0.250000 0
  0.375000   0.375000 0
  0.250000   0.375000 0
  0.625000   0.750000 0
  0.125000   0.125000 0
  0.500000   0.000000 0
  0.250000   0.875000 0
  0.125000   0.500000 0
  0.500000   0.375000 0
  0.125000   0.000000 0
  0.250000   0.750000 0
  0.250000   0.500000 0
  0.000000   0.875000 0
  0.875000   0.625000 0
  0.500000   0.750000 0
  0.750000   0.625000 0
  0.250000   0.000000 0
  0.375000   0.750000 0
  0.750000   0.875000 0
  0.625000   0.125000 0
  0.250000   0.250000 0
  0.375000   1.000000 0
  0.375000   0.250000 0
  0.000000   0.375000 0
  0.500000   1.000000 0
  0.875000   0.750000 0
  0.750000   0.000000 0
  0.375000   0.125000 0
  0.500000   0.875000 0
  0.000000   0.000000 0
  0.125000   0.750000 0
  0.500000   0.625000 0
  0.125000   0.250000 0
  0.500000   0.125000 0
  0.250000   1.000000 0
  0.250000   0.125000 0
  0.000000   1.000000 0
  0.375000   0.875000 0
  0.000000   0.750000 0
  0.375000   0.625000 0
  0.000000   0.250000 0
  0.125000   1.000000 0
  1.000000   0.375000 0
  0.500000   0.500000 0
  0.875000   0.375000 0
CELLS 64 320
4 56 71 58 63
4 27 58 69 63
4 41 69 32 63
4 76 33 68 40
4 27 44 58 37
4 79 31 44 37
4 56 38 68 21
4 56 58 38 37
4 52 32 71 63
4 47 38 31 37
4 76 68 59 21
4 22 59 43 21
4 65 45 33 40
4 47 43 38 21
4 52 71 45 40
4 56 68 71 40
4 74 30 66 23
4 46 66 29 23
4 22 43 30 23
4 72 48 77 34
4 46 53 42 73
4 50 64 53 73
4 70 42 57 73
4 74 66 48 34
4 46 42 66 34
4 47 29 43 23
4 70 77 42 34
4 60 57 64 73
4 79 67 31 75
4 47 31 29 75
4 50 53 67 75
4 46 29 53 75
4 10 78 6 80
4 36 6 1 80
4 15 1 12 80
4 36 4 6 26
4 14 12 78 80
4 2 17 9 26
4 36 18 4 55
4 15 28 1 11
4 62 4 20 55
4 10 6 17 26
4 27 18 44 11
4 62 9 4 26
4 27 69 18 55
4 36 1 18 11
4 41 20 69 55
4 79 44 28 11
4 16 24 54 7
4 19 54 39 7
4 50 39 64 7
4 8 25 61 3
4 60 64 24 7
4 79 28 67 13
4 19 51 61 49
4 8 61 0 49
4 15 51 28 13
4 19 39 51 13
4 50 67 39 13
4 19 61 54 3
4 14 0 12 49
4 5 35 25 3
4 15 12 51 49
4 16 54 35 3
CELL_TYPES 64
8
8
8
8
8
8
8
8
8
8
8
8
8
8
8
8
8
8
8
8
8
8
8
8
8
8
8
8
8
8
8
8
8
8
8
8
8
8
8
8
8
8
8
8
8
8
8
8
8
8
8
8
8
8
8
8
8
8
8
8
8
8
8
8
CELL_DATA 64
VECTORS vector_value float
0.0805006 -2.49336 0
0.229555 -0.227909 0
0.167285 -0.299276 0
-0.0116931 -0.796897 0
0.0212087 -0.0983109 0
0.0137616 -0.213696 0
0.266912 -1.07099 0
0.423188 -2.26355 0
-0.0571428 -1.64448 0
0.572965 -1.08031 0
-0.0388889 -0.814648 0
-0.00429898 -0.655719 0
-0.0951936 -0.988211 0
0.732847 -2.36211 0
-0.327738 -1.02952 0
-0.0325963 -0.672592 0
-0.154722 -1.49277 0
-0.450321 -1.98154 0
0.42851 -1.54385 0
-0.0817017 -1.15363 0
-0.882817 -0.748701 0
-0.85864 -1.14116 0
-0.173631 -0.295174 0
-0.0519829 -1.16744 0
-0.284458 -1.54085 0
0.417424 -2.24555 0
-0.379666 -1.31243 0
0.0524893 -0.957448 0
0.0800693 -0.459285 0
-0.00391801 -0.218845 0
0.0102943 -0.684073 0
-0.308646 -0.533153 0
0.0525999 -0.354465 0
0.204221 -2.69855 0
0.712125 -2.19212 0
-0.398751 -2.50668 0
0.0714238 -0.232326 0
-0.0274139 -0.242921 0
-0.154681 -0.820315 0
0.535323 -1.18947 0
-0.492708 -1.81861 0
-0.0510783 -0.408052 0
0.0247326 -0.0330428 0
-0.307697 -1.6702 0
0.041463 -0.074188 0
0.126209 -0.666435 0
0.118877 -0.306775 0
0.12953 -0.0742437 0
-1.73643 -0.987712 0
0.0892855 -0.339901 0
0.234625 -2.46278 0
-0.0904026 -0.49948 0
-1.23038 -2.1504 0
0.542145 -0.361861 0
-0.0484548 -0.506504 0
-0.0895928 -0.230344 0
1.11463 -2.04954 0
0.758672 -1.3491 0
0.54394 -1.22252 0
-0.0152816 -0.0996877 0
-0.0153173 -0.134021 0
-0.233327 -0.617769 0
0.321979 -0.987041 0
-0.941403 -0.525439 0
