# vtk DataFile Version 2.0
Unstructured Grid by M++
ASCII
DATASET UNSTRUCTURED_GRID
POINTS 81 float
  1.000000   0.625000 0
  0.750000   0.375000 0
  1.000000   0.000000 0
  0.875000   0.875000 0
  0.750000   0.125000 0
  1.000000   1.000000 0
  0.875000   0.250000 0
  0.625000   0.875000 0
  1.000000   0.750000 0
  0.875000   0.000000 0
  1.000000   0.250000 0
  0.625000   0.375000 0
  0.875000   0.500000 0
  0.625000   0.625000 0
  1.000000   0.500000 0
  0.750000   0.500000 0
  0.750000   1.000000 0
  1.000000   0.125000 0
  0.625000   0.250000 0
  0.750000   0.750000 0
  0.625000   0.000000 0
  0.125000   0.375000 0
  0.000000   0.500000 0
  0.125000   0.625000 0
  0.625000   1.000000 0
  1.000000   0.875000 0
  0.875000   0.125000 0
  0.500000   0.250000 0
  0.625000   0.500000 0
  0.250000   0.625000 0
  0.000000   0.625000 0
  0.375000   0.500000 0
  0.375000   0.000000 0
  0.000000   0.125000 0
  0.125000   0.875000 0
  0.875000   1.000000 0
  0.750000   0.250000 0
  0.375000   0.375000 0
  0.250000   0.375000 0
  0.625000   0.750000 0
  0.125000   0.125000 0
  0.500000   0.000000 0
  0.250000   0.875000 0
  0.125000   0.500000 0
  0.500000   0.375000 0
  0.125000   0.000000 0
  0.250000   0.750000 0
  0.250000   0.500000 0
  0.000000   0.875000 0
  0.875000   0.625000 0
  0.500000   0.750000 0
  0.750000   0.625000 0
  0.250000   0.000000 0
  0.375000   0.750000 0
  0.750000   0.875000 0
  0.625000   0.125000 0
  0.250000   0.250000 0
  0.375000   1.000000 0
  0.375000   0.250000 0
  0.000000   0.375000 0
  0.500000   1.000000 0
  0.875000   0.750000 0
  0.750000   0.000000 0
  0.375000   0.125000 0
  0.500000   0.875000 0
  0.000000   0.000000 0
  0.125000   0.750000 0
  0.500000   0.625000 0
  0.125000   0.250000 0
  0.500000   0.125000 0
  0.250000   1.000000 0
  0.250000   0.125000 0
  0.000000   1.000000 0
  0.375000   0.875000 0
  0.000000   0.750000 0
  0.375000   0.625000 0
  0.000000   0.250000 0
  0.125000   1.000000 0
  1.000000   0.375000 0
  0.500000   0.500000 0
  0.875000   0.375000 0
CELLS 64 320
4 56 71 58 63
4 27 58 69 63
4 41 69 32 63
4 76 33 68 40
4 27 44 58 37
4 79 31 44 37
4 56 38 68 21
4 56 58 38 37
4 52 32 71 63
4 47 38 31 37
4 76 68 59 21
4 22 59 43 21
4 65 45 33 40
4 47 43 38 21
4 52 71 45 40
4 56 68 71 40
4 74 30 66 23
4 46 66 29 23
4 22 43 30 23
4 72 48 77 34
4 46 53 42 73
4 50 64 53 73
4 70 42 57 73
4 74 66 48 34
4 46 42 66 34
4 47 29 43 23
4 70 77 42 34
4 60 57 64 73
4 79 67 31 75
4 47 31 29 75
4 50 53 67 75
4 46 29 53 75
4 10 78 6 80
4 36 6 1 80
4 15 1 12 80
4 36 4 6 26
4 14 12 78 80
4 2 17 9 26
4 36 18 4 55
4 15 28 1 11
4 62 4 20 55
4 10 6 17 26
4 27 18 44 11
4 62 9 4 26
4 27 69 18 55
4 36 1 18 11
4 41 20 69 55
4 79 44 28 11
4 16 24 54 7
4 19 54 39 7
4 50 39 64 7
4 8 25 61 3
4 60 64 24 7
4 79 28 67 13
4 19 51 61 49
4 8 61 0 49
4 15 51 28 13
4 19 39 51 13
4 50 67 39 13
4 19 61 54 3
4 14 0 12 49
4 5 35 25 3
4 15 12 51 49
4 16 54 35 3
CELL_TYPES 64
8
8
8
8
8
8
8
8
8
8
8
8
8
8
8
8
8
8
8
8
8
8
8
8
8
8
8
8
8
8
8
8
8
8
8
8
8
8
8
8
8
8
8
8
8
8
8
8
8
8
8
8
8
8
8
8
8
8
8
8
8
8
8
8
CELL_DATA 64
VECTORS vector_value float
-0.192279 -1.81735 0
-0.347672 -1.20307 0
-0.114361 -0.30917 0
0.0405991 -0.237881 0
0.482641 -2.05983 0
0.931281 -1.69244 0
0.326326 -0.26797 0
0.467638 -1.37584 0
-0.51196 -2.41211 0
0.940955 -0.972972 0
0.361625 -0.815936 0
0.0790415 -1.11168 0
0.0484361 -0.0996591 0
0.826239 -1.16664 0
-0.0828003 -1.1352 0
0.144209 -0.756047 0
-0.0236461 -0.789102 0
-0.188495 -2.17326 0
-0.150081 -1.09709 0
-0.0115064 -1.11994 0
-0.664076 -1.07555 0
-0.237059 -2.43411 0
-0.165295 -0.605498 0
0.113775 -0.840054 0
-0.111216 -1.77396 0
0.0664456 -1.91267 0
-0.161766 -1.01098 0
-1.26814 -2.30484 0
0.22085 -0.709452 0
0.571716 -1.53626 0
0.0118528 -1.46573 0
-0.472936 -1.40777 0
-0.505174 -2.53211 0
-0.0520832 -0.492959 0
0.210732 -0.306518 0
-0.483424 -1.90329 0
0.782162 -2.56182 0
-0.101228 -1.04722 0
0.25485 -0.154213 0
0.152849 -0.0490277 0
0.19835 -0.298503 0
-0.250004 -1.36002 0
0.446241 -0.360004 0
0.0190946 -2.40863 0
0.270366 -0.568136 0
0.19935 -0.095347 0
0.0632026 -0.289512 0
0.37852 -0.138893 0
-1.2057 -0.603173 0
-0.0514325 -0.27252 0
0.0317165 -0.503631 0
-0.0535275 -0.75053 0
-1.85266 -0.933938 0
0.596261 -0.39191 0
0.0482281 -0.628026 0
-0.051597 -0.602958 0
1.26732 -0.24922 0
0.322572 -0.411105 0
0.475993 -0.522041 0
-0.0980284 -0.349642 0
0.270656 -0.908617 0
-0.0845487 -0.980175 0
1.60316 -1.19478 0
-0.492961 -0.441451 0
