# vtk DataFile Version 2.0
Unstructured Grid by M++
ASCII
DATASET UNSTRUCTURED_GRID
POINTS 289 float
  0.562500   1.000000 0
  0.562500   0.625000 0
  0.625000   1.000000 0
  0.562500   0.937500 0
  0.562500   0.562500 0
  0.625000   0.937500 0
  0.562500   0.875000 0
  0.625000   0.750000 0
  0.625000   0.625000 0
  0.562500   0.812500 0
  0.562500   0.750000 0
  0.562500   0.687500 0
  0.625000   0.875000 0
  0.625000   0.812500 0
  0.625000   0.687500 0
  0.687500   0.125000 0
  0.875000   0.062500 0
  0.625000   0.125000 0
  0.625000   0.187500 0
  0.625000   0.250000 0
  0.812500   0.187500 0
  1.000000   0.125000 0
  0.687500   0.187500 0
  0.750000   0.125000 0
  0.937500   0.062500 0
  0.937500   0.125000 0
  0.750000   0.187500 0
  0.812500   0.062500 0
  0.812500   0.125000 0
  0.875000   0.687500 0
  0.187500   0.250000 0
  0.437500   0.250000 0
  0.375000   0.187500 0
  0.812500   0.625000 0
  0.125000   0.187500 0
  0.937500   0.750000 0
  0.250000   0.312500 0
  0.500000   0.312500 0
  0.625000   0.062500 0
  0.437500   0.500000 0
  0.375000   0.125000 0
  0.437500   0.187500 0
  0.437500   0.437500 0
  0.437500   0.375000 0
  0.875000   0.875000 0
  0.187500   0.375000 0
  0.687500   0.562500 0
  0.687500   0.625000 0
  0.000000   0.125000 0
  0.937500   0.625000 0
  0.250000   0.125000 0
  0.375000   0.062500 0
  0.375000   0.000000 0
  0.812500   0.500000 0
  0.125000   0.000000 0
  0.937500   0.937500 0
  0.250000   0.437500 0
  0.687500   0.875000 0
  0.687500   0.937500 0
  0.000000   0.437500 0
  0.500000   0.500000 0
  0.500000   0.437500 0
  0.750000   0.937500 0
  0.750000   1.000000 0
  0.062500   0.500000 0
  1.000000   1.000000 0
  0.312500   0.500000 0
  0.875000   0.562500 0
  0.187500   0.062500 0
  0.437500   0.125000 0
  0.437500   0.062500 0
  0.500000   0.375000 0
  0.937500   0.812500 0
  0.937500   0.875000 0
  0.250000   0.375000 0
  0.687500   0.812500 0
  0.000000   0.375000 0
  0.750000   0.562500 0
  0.062500   0.125000 0
  1.000000   0.562500 0
  1.000000   0.625000 0
  0.312500   0.125000 0
  0.562500   0.125000 0
  0.437500   0.000000 0
  0.875000   0.437500 0
  0.875000   0.500000 0
  0.187500   0.000000 0
  0.937500   0.562500 0
  0.937500   0.500000 0
  0.250000   0.062500 0
  0.687500   0.500000 0
  0.000000   0.062500 0
  0.500000   0.062500 0
  1.000000   0.875000 0
  1.000000   0.937500 0
  0.312500   0.437500 0
  0.750000   0.875000 0
  0.062500   0.437500 0
  0.812500   0.937500 0
  0.125000   0.500000 0
  0.375000   0.500000 0
  0.625000   0.562500 0
  0.625000   0.500000 0
  0.437500   0.312500 0
  0.875000   0.812500 0
  0.875000   0.750000 0
  0.187500   0.312500 0
  0.812500   0.687500 0
  0.812500   0.750000 0
  0.125000   0.250000 0
  0.375000   0.250000 0
  1.000000   0.687500 0
  0.312500   0.187500 0
  0.750000   0.687500 0
  0.750000   0.625000 0
  0.062500   0.187500 0
  0.562500   0.250000 0
  0.562500   0.187500 0
  0.375000   1.000000 0
  0.500000   0.562500 0
  0.500000   0.250000 0
  0.750000   0.250000 0
  0.500000   0.125000 0
  0.500000   0.187500 0
  1.000000   0.187500 0
  0.625000   0.375000 0
  0.875000   0.375000 0
  1.000000   0.437500 0
  0.312500   0.000000 0
  0.562500   0.000000 0
  0.812500   0.000000 0
  0.250000   0.687500 0
  0.000000   0.687500 0
  0.500000   1.000000 0
  0.250000   1.000000 0
  0.000000   1.000000 0
  0.437500   0.687500 0
  0.437500   0.625000 0
  0.187500   0.625000 0
  0.687500   0.750000 0
  0.000000   0.312500 0
  0.000000   0.250000 0
  0.375000   0.375000 0
  0.375000   0.312500 0
  0.812500   0.812500 0
  0.125000   0.312500 0
  0.875000   0.625000 0
  0.187500   0.187500 0
  0.187500   0.125000 0
  0.937500   1.000000 0
  0.250000   0.562500 0
  0.250000   0.500000 0
  0.687500   1.000000 0
  0.000000   0.500000 0
  0.687500   0.687500 0
  0.000000   0.187500 0
  0.937500   0.687500 0
  0.250000   0.250000 0
  0.250000   0.187500 0
  0.187500   0.687500 0
  0.000000   0.750000 0
  0.250000   0.750000 0
  0.125000   0.625000 0
  0.750000   0.750000 0
  0.062500   0.250000 0
  0.875000   0.937500 0
  0.187500   0.500000 0
  0.187500   0.437500 0
  0.812500   0.562500 0
  0.125000   0.125000 0
  0.125000   0.062500 0
  0.375000   0.625000 0
  0.375000   0.687500 0
  1.000000   0.750000 0
  0.312500   0.250000 0
  0.312500   0.312500 0
  0.812500   0.312500 0
  0.562500   0.312500 0
  0.375000   0.750000 0
  0.500000   0.625000 0
  0.250000   0.625000 0
  0.312500   0.687500 0
  0.750000   0.812500 0
  0.062500   0.312500 0
  0.062500   0.375000 0
  1.000000   0.812500 0
  0.312500   0.375000 0
  0.562500   0.375000 0
  0.687500   0.437500 0
  0.000000   0.000000 0
  0.500000   0.000000 0
  0.937500   0.437500 0
  0.250000   0.000000 0
  0.375000   0.437500 0
  0.812500   0.875000 0
  0.125000   0.375000 0
  0.125000   0.437500 0
  0.625000   0.437500 0
  1.000000   0.500000 0
  0.312500   0.062500 0
  0.750000   0.500000 0
  0.062500   0.000000 0
  0.062500   0.062500 0
  0.562500   0.062500 0
  0.062500   0.750000 0
  0.312500   0.750000 0
  0.312500   0.625000 0
  0.312500   0.562500 0
  0.062500   0.562500 0
  0.187500   1.000000 0
  0.437500   0.562500 0
  0.875000   1.000000 0
  0.187500   0.562500 0
  0.500000   0.937500 0
  0.250000   0.937500 0
  0.312500   1.000000 0
  0.125000   0.750000 0
  0.125000   0.687500 0
  1.000000   0.000000 0
  0.000000   0.937500 0
  0.000000   0.875000 0
  0.875000   0.125000 0
  0.875000   0.187500 0
  0.062500   0.812500 0
  0.312500   0.812500 0
  0.000000   0.812500 0
  0.000000   0.625000 0
  0.000000   0.562500 0
  0.062500   1.000000 0
  0.062500   0.937500 0
  0.937500   0.187500 0
  0.937500   0.250000 0
  0.062500   0.687500 0
  0.062500   0.625000 0
  0.125000   1.000000 0
  1.000000   0.250000 0
  1.000000   0.312500 0
  0.062500   0.875000 0
  0.125000   0.812500 0
  0.375000   0.812500 0
  0.125000   0.875000 0
  0.375000   0.937500 0
  0.375000   0.875000 0
  0.187500   0.750000 0
  0.187500   0.812500 0
  0.437500   0.812500 0
  0.187500   0.875000 0
  0.437500   0.875000 0
  0.375000   0.562500 0
  0.812500   1.000000 0
  0.125000   0.562500 0
  0.437500   1.000000 0
  0.437500   0.937500 0
  0.187500   0.937500 0
  0.125000   0.937500 0
  0.500000   0.687500 0
  0.500000   0.750000 0
  0.500000   0.812500 0
  0.250000   0.812500 0
  0.250000   0.875000 0
  0.500000   0.875000 0
  0.437500   0.750000 0
  0.312500   0.875000 0
  0.312500   0.937500 0
  0.687500   0.250000 0
  0.687500   0.312500 0
  0.937500   0.312500 0
  0.875000   0.250000 0
  0.625000   0.000000 0
  0.875000   0.000000 0
  0.687500   0.375000 0
  0.937500   0.375000 0
  0.875000   0.312500 0
  0.625000   0.312500 0
  0.687500   0.000000 0
  0.937500   0.000000 0
  0.750000   0.312500 0
  0.750000   0.375000 0
  1.000000   0.375000 0
  0.812500   0.250000 0
  0.562500   0.437500 0
  0.562500   0.500000 0
  0.687500   0.062500 0
  0.750000   0.437500 0
  0.750000   0.000000 0
  0.750000   0.062500 0
  1.000000   0.062500 0
  0.812500   0.375000 0
  0.812500   0.437500 0
CELLS 256 1280
4 169 170 148 68
4 151 166 56 167
4 195 45 196 167
4 54 170 201 202
4 109 34 30 147
4 40 32 81 112
4 192 89 86 68
4 48 91 78 202
4 99 64 196 97
4 71 43 37 103
4 74 186 56 95
4 109 164 34 115
4 50 81 158 112
4 122 69 92 70
4 195 145 45 106
4 110 143 174 175
4 157 30 158 147
4 40 69 32 41
4 50 158 148 147
4 141 155 164 115
4 122 123 69 41
4 142 186 143 175
4 60 39 61 42
4 40 51 69 70
4 120 31 123 41
4 157 174 36 175
4 50 148 89 68
4 48 78 155 115
4 52 83 51 70
4 151 56 66 95
4 71 61 43 42
4 169 148 34 147
4 100 193 39 42
4 40 81 51 199
4 110 174 32 112
4 109 30 145 106
4 100 66 193 95
4 169 34 78 115
4 190 92 83 70
4 50 89 81 199
4 54 86 170 68
4 74 56 45 167
4 142 143 43 103
4 153 59 64 97
4 99 196 166 167
4 169 78 170 202
4 142 193 186 95
4 192 128 89 199
4 74 45 36 106
4 110 31 143 103
4 76 184 59 97
4 142 43 193 42
4 52 51 128 199
4 189 201 91 202
4 120 37 31 103
4 74 36 186 175
4 195 196 184 97
4 141 164 140 183
4 157 158 174 112
4 109 145 164 183
4 195 184 145 183
4 110 32 31 41
4 157 36 30 106
4 76 140 184 183
4 171 172 206 181
4 178 172 261 136
4 256 261 255 136
4 256 257 261 245
4 180 150 206 207
4 60 119 39 210
4 118 215 241 263
4 178 205 172 181
4 216 243 238 244
4 162 217 233 232
4 180 206 131 181
4 179 137 119 210
4 216 204 217 232
4 220 237 219 229
4 216 217 243 159
4 259 258 262 224
4 240 254 237 229
4 153 64 227 208
4 161 205 258 224
4 240 237 238 223
4 226 227 233 208
4 234 228 254 229
4 171 248 137 210
4 160 132 204 232
4 180 131 138 159
4 133 251 213 252
4 171 206 248 207
4 162 138 217 159
4 161 258 243 244
4 220 225 237 223
4 151 150 166 212
4 260 247 257 245
4 259 262 214 263
4 151 66 150 207
4 234 254 209 253
4 162 233 250 208
4 242 241 262 263
4 171 137 172 136
4 161 243 131 159
4 160 204 225 223
4 161 131 205 181
4 179 255 137 136
4 216 238 204 223
4 100 39 248 210
4 260 213 247 252
4 226 233 132 232
4 134 214 215 263
4 180 138 150 212
4 178 261 239 245
4 259 246 258 244
4 178 239 205 224
4 240 238 246 244
4 242 262 239 224
4 99 250 64 208
4 240 246 254 253
4 242 239 247 245
4 135 219 228 229
4 99 166 250 212
4 259 214 246 253
4 118 241 251 252
4 100 248 66 207
4 134 209 214 253
4 162 250 138 212
4 242 247 241 252
4 71 187 61 280
4 102 281 197 280
4 122 92 82 203
4 17 18 82 117
4 122 82 123 117
4 19 264 273 265
4 267 279 222 20
4 125 273 270 265
4 267 272 279 176
4 19 116 18 117
4 21 25 286 24
4 23 28 26 20
4 23 285 28 27
4 218 286 275 24
4 85 53 84 288
4 235 236 231 266
4 221 222 28 20
4 267 222 231 230
4 268 38 129 203
4 125 270 197 188
4 126 287 272 176
4 277 270 276 265
4 267 231 272 266
4 125 197 187 280
4 190 129 92 203
4 277 276 287 176
4 19 18 264 22
4 17 82 38 203
4 102 197 90 188
4 126 84 287 288
4 284 130 285 27
4 121 276 264 265
4 71 37 187 177
4 120 123 116 117
4 198 88 127 191
4 221 16 25 24
4 23 26 15 22
4 121 279 276 176
4 235 231 124 230
4 125 187 273 177
4 278 271 236 266
4 277 287 283 288
4 284 285 274 282
4 278 127 271 191
4 269 275 16 24
4 200 283 53 288
4 23 15 285 282
4 121 26 279 20
4 21 124 25 230
4 19 273 116 177
4 200 90 283 188
4 126 271 84 191
4 269 16 130 27
4 17 38 15 282
4 221 25 222 230
4 121 264 26 22
4 120 116 37 177
4 60 61 281 280
4 277 283 270 188
4 126 272 271 266
4 268 274 38 282
4 85 84 88 191
4 17 15 18 22
4 221 28 16 27
4 93 94 73 55
4 85 88 67 87
4 80 49 79 87
4 44 104 73 72
4 146 33 67 168
4 211 165 149 55
4 8 47 14 154
4 105 104 108 144
4 105 108 29 107
4 7 139 13 75
4 44 165 194 98
4 200 53 77 168
4 8 1 101 4
4 2 5 152 58
4 260 6 213 3
4 105 35 104 72
4 96 57 182 75
4 7 14 139 154
4 146 29 33 107
4 7 13 10 9
4 12 13 57 75
4 85 67 53 168
4 44 73 165 55
4 63 152 62 58
4 8 101 47 46
4 96 182 194 144
4 60 281 119 4
4 12 5 6 3
4 173 185 35 72
4 65 149 94 55
4 146 67 49 87
4 114 113 47 154
4 163 108 182 144
4 12 6 13 9
4 173 35 111 156
4 163 182 139 75
4 260 257 6 9
4 105 29 35 156
4 163 139 113 154
4 256 10 257 9
4 146 49 29 156
4 163 113 108 107
4 80 111 49 156
4 102 101 281 4
4 12 57 5 58
4 44 194 104 144
4 96 194 62 98
4 2 0 5 3
4 93 73 185 72
4 179 119 1 4
4 200 77 90 46
4 114 33 113 107
4 7 10 14 11
4 96 62 57 58
4 133 213 0 3
4 102 90 101 46
4 256 255 10 11
4 63 62 249 98
4 114 47 77 46
4 179 1 255 11
4 211 249 165 98
4 114 77 33 168
4 198 79 88 87
4 8 14 1 11
CELL_TYPES 256
8
8
8
8
8
8
8
8
8
8
8
8
8
8
8
8
8
8
8
8
8
8
8
8
8
8
8
8
8
8
8
8
8
8
8
8
8
8
8
8
8
8
8
8
8
8
8
8
8
8
8
8
8
8
8
8
8
8
8
8
8
8
8
8
8
8
8
8
8
8
8
8
8
8
8
8
8
8
8
8
8
8
8
8
8
8
8
8
8
8
8
8
8
8
8
8
8
8
8
8
8
8
8
8
8
8
8
8
8
8
8
8
8
8
8
8
8
8
8
8
8
8
8
8
8
8
8
8
8
8
8
8
8
8
8
8
8
8
8
8
8
8
8
8
8
8
8
8
8
8
8
8
8
8
8
8
8
8
8
8
8
8
8
8
8
8
8
8
8
8
8
8
8
8
8
8
8
8
8
8
8
8
8
8
8
8
8
8
8
8
8
8
8
8
8
8
8
8
8
8
8
8
8
8
8
8
8
8
8
8
8
8
8
8
8
8
8
8
8
8
8
8
8
8
8
8
8
8
8
8
8
8
8
8
8
8
8
8
8
8
8
8
8
8
8
8
8
8
8
8
8
8
8
8
8
8
CELL_DATA 256
VECTORS vector_value float
0.195465 -0.235247 0
0.547881 -1.24377 0
0.44278 -0.853458 0
0.0104219 -0.139017 0
0.628762 -0.278957 0
0.430646 -2.5917 0
0.0251833 -0.389179 0
0.0194223 -0.151691 0
-0.135387 -1.21995 0
-0.0923404 -0.84714 0
0.896919 -1.10888 0
0.589532 -0.347476 0
0.662582 -1.39082 0
0.23493 -1.03349 0
0.562994 -0.669566 0
0.271279 -1.55041 0
0.530045 -0.426219 0
0.11711 -1.09397 0
0.840977 -0.542067 0
0.313619 -1.00968 0
0.192674 -1.21823 0
0.42525 -0.896237 0
-0.152648 -0.423533 0
0.193004 -1.12886 0
0.0683749 -1.18829 0
0.544108 -1.49909 0
0.148156 -0.3113 0
0.230316 -0.453247 0
0.0443509 -1.31184 0
0.360988 -0.611263 0
-0.279434 -0.735447 0
0.630703 -0.229031 0
0.0105222 -0.433217 0
0.101787 -2.78198 0
0.446405 -1.83961 0
0.253264 -0.221942 0
0.238851 -0.308182 0
0.553665 -0.273327 0
0.0482915 -0.792572 0
0.0887304 -1.67982 0
0.0185386 -0.169712 0
0.975529 -1.11705 0
0.0108891 -1.16308 0
-0.146586 -1.38511 0
0.352015 -1.50425 0
0.0986141 -0.177888 0
0.429228 -0.443484 0
-0.0293423 -1.92628 0
0.654111 -0.69881 0
0.0459271 -1.10597 0
-0.0942072 -1.6209 0
0.135251 -0.776811 0
0.00376415 -2.31938 0
0.0038589 -0.128864 0
0.0137234 -0.877438 0
0.752047 -1.42207 0
0.0920877 -0.839521 0
0.165634 -1.43735 0
0.783984 -1.67478 0
0.346036 -0.413843 0
0.153709 -0.324485 0
0.205644 -1.12968 0
0.570481 -0.652973 0
0.0488669 -1.7253 0
-0.1423 -0.305648 0
-0.142244 -0.29793 0
0.121379 -0.520537 0
0.323754 -0.703251 0
-0.0784928 -0.538154 0
-0.0570121 -0.385608 0
0.854309 -1.20619 0
-0.524804 -0.528014 0
0.0689485 -0.22946 0
-0.549343 -0.453233 0
-0.592808 -1.12898 0
-0.0714768 -0.345877 0
-0.0187824 -0.112879 0
0.0544996 -0.350846 0
-0.663647 -0.837144 0
-0.384252 -2.57998 0
0.204942 -0.246454 0
-0.139393 -1.06678 0
-0.844211 -2.65461 0
0.11018 -0.131826 0
-0.26674 -0.761611 0
0.879186 -0.425987 0
-0.0253377 -0.138631 0
0.000851962 -0.143019 0
-1.41008 -2.19458 0
-0.282697 -1.48291 0
-0.0210717 -0.219171 0
-1.39637 -1.9742 0
-0.538225 -1.73539 0
0.0564089 -0.289698 0
0.0512574 -1.3224 0
0.345369 -1.34707 0
0.266445 -1.90406 0
0.0733036 -0.494891 0
1.5862 -0.709748 0
-0.726168 -1.03764 0
-0.0689175 -1.92819 0
-0.0433485 -0.159819 0
-1.62636 -2.30972 0
0.0294497 -0.170889 0
-1.36854 -2.24521 0
0.0111346 -0.335017 0
0.0944899 -0.121398 0
-0.0155049 -0.201611 0
0.303467 -1.68653 0
-0.121077 -0.292089 0
1.57374 -1.47759 0
-0.30459 -1.50039 0
-0.107545 -0.754111 0
0.0868561 -0.933453 0
-0.499812 -0.893555 0
0.139054 -0.191112 0
-0.379193 -1.52124 0
-0.399819 -1.39921 0
0.291222 -0.269809 0
0.00367188 -0.987338 0
0.281287 -0.785273 0
-0.228399 -1.90296 0
0.408206 -0.827283 0
0.293909 -1.5617 0
0.0224616 -0.193318 0
1.91259 -0.936637 0
-0.731174 -2.32241 0
0.0527384 -1.30727 0
-0.359692 -0.294775 0
-0.256218 -0.278408 0
0.279591 -0.591965 0
0.0398614 -0.295838 0
0.228643 -0.593935 0
-0.176594 -0.100641 0
-0.674428 -1.01193 0
-0.12712 -0.088509 0
-0.403183 -0.688612 0
-0.118525 -0.202282 0
0.0787193 -2.08349 0
-0.433712 -0.848085 0
-0.244312 -0.737345 0
0.166857 -2.48147 0
0.0544323 -0.579167 0
-0.398916 -2.92155 0
-0.396018 -0.91849 0
-0.553636 -3.29222 0
0.108673 -0.537627 0
-0.173415 -0.159218 0
-0.0212349 -0.593065 0
-0.112465 -0.147287 0
-0.782335 -3.52453 0
-0.26644 -0.287244 0
0.115248 -0.719462 0
-0.0482051 -0.220261 0
-0.136098 -0.0906333 0
0.228717 -0.573195 0
-0.230846 -0.32576 0
0.0903405 -0.521278 0
-0.150825 -0.71767 0
-0.145342 -0.101603 0
-0.145115 -0.266432 0
-0.088337 -0.493759 0
0.0479261 -4.60226 0
-0.0613894 -2.45774 0
-0.18358 -0.224448 0
-0.201672 -0.23296 0
-0.256502 -2.46736 0
-0.201466 -0.268105 0
-0.429654 -3.93286 0
0.0315647 -0.384901 0
-0.148164 -0.514876 0
-0.151574 -4.49122 0
0.0815073 -1.86622 0
0.0284735 -0.455371 0
-0.253698 -0.446057 0
-0.334296 -0.40262 0
-0.0353805 -2.04088 0
-0.173015 -0.195379 0
-0.0636879 -0.350329 0
-0.0802178 -2.15975 0
-0.111361 -1.28238 0
-0.0373391 -0.293412 0
-0.349763 -3.14997 0
-0.177584 -0.1445 0
-0.129492 -0.475703 0
-0.238095 -0.363065 0
-0.0881137 -0.206055 0
-0.401752 -2.73679 0
0.0322252 -0.703444 0
0.0648357 -1.91636 0
-0.0797795 -0.135947 0
-0.36592 -1.31653 0
-0.133123 -0.538213 0
0.0347428 -2.11346 0
0.0620557 -4.70199 0
-0.00527835 -0.767367 0
0.0928849 -0.743979 0
-0.366538 -0.756612 0
0.149704 -0.182652 0
1.87322 -2.30314 0
1.79967 -1.93543 0
1.34717 -0.142802 0
-0.258257 -1.43149 0
-0.0222596 -0.478209 0
0.086872 -0.342896 0
0.139267 -0.461092 0
0.184888 -1.24615 0
1.35937 -1.77662 0
0.355777 -0.382522 0
0.613769 -0.0882671 0
0.19615 -0.922182 0
1.16649 -0.634534 0
0.254643 -0.189379 0
0.0577509 -0.580216 0
-0.290201 -0.718177 0
0.556035 -0.963198 0
0.102937 -0.352231 0
0.770384 -1.81763 0
-0.0659166 -0.327026 0
0.0112953 -0.385287 0
0.306238 -0.662974 0
-0.12454 -0.850651 0
0.0630501 -1.59921 0
0.0696439 -0.234334 0
1.84626 -1.66257 0
0.325705 -0.548981 0
0.928562 -1.83814 0
1.54604 -0.235363 0
0.46573 -1.46416 0
2.23854 -2.76352 0
0.483048 -0.166409 0
1.02571 -1.31933 0
0.977236 -2.51786 0
0.690603 -0.922156 0
0.769341 -3.59009 0
-0.0820869 -0.27316 0
0.114858 -0.285921 0
0.831486 -2.47135 0
0.28603 -2.39518 0
-0.431222 -0.634015 0
-0.0512545 -0.376897 0
-0.0333097 -0.436855 0
-0.0856714 -0.481226 0
0.0644744 -0.69797 0
0.75903 -0.695533 0
0.349334 -0.479141 0
-0.672243 -0.94642 0
-0.0736665 -0.397488 0
0.337944 -0.596091 0
0.229679 -1.45235 0
-0.0210861 -0.292215 0
0.0770765 -0.520779 0
-0.295203 -1.34962 0
-0.0484173 -0.666744 0
-0.0102071 -4.38243 0
0.155324 -0.49057 0
