# vtk DataFile Version 2.0
Unstructured Grid by M++
ASCII
DATASET UNSTRUCTURED_GRID
POINTS 81 float
  1.000000   0.625000 0
  0.750000   0.375000 0
  1.000000   0.000000 0
  0.875000   0.875000 0
  0.750000   0.125000 0
  1.000000   1.000000 0
  0.875000   0.250000 0
  0.625000   0.875000 0
  1.000000   0.750000 0
  0.875000   0.000000 0
  1.000000   0.250000 0
  0.625000   0.375000 0
  0.875000   0.500000 0
  0.625000   0.625000 0
  1.000000   0.500000 0
  0.750000   0.500000 0
  0.750000   1.000000 0
  1.000000   0.125000 0
  0.625000   0.250000 0
  0.750000   0.750000 0
  0.625000   0.000000 0
  0.125000   0.375000 0
  0.000000   0.500000 0
  0.125000   0.625000 0
  0.625000   1.000000 0
  1.000000   0.875000 0
  0.875000   0.125000 0
  0.500000   0.250000 0
  0.625000   0.500000 0
  0.250000   0.625000 0
  0.000000   0.625000 0
  0.375000   0.500000 0
  0.375000   0.000000 0
  0.000000   0.125000 0
  0.125000   0.875000 0
  0.875000   1.000000 0
  0.750000   0.250000 0
  0.375000   0.375000 0
  0.250000   0.375000 0
  0.625000   0.750000 0
  0.125000   0.125000 0
  0.500000   0.000000 0
  0.250000   0.875000 0
  0.125000   0.500000 0
  0.500000   0.375000 0
  0.125000   0.000000 0
  0.250000   0.750000 0
  0.250000   0.500000 0
  0.000000   0.875000 0
  0.875000   0.625000 0
  0.500000   0.750000 0
  0.750000   0.625000 0
  0.250000   0.000000 0
  0.375000   0.750000 0
  0.750000   0.875000 0
  0.625000   0.125000 0
  0.250000   0.250000 0
  0.375000   1.000000 0
  0.375000   0.250000 0
  0.000000   0.375000 0
  0.500000   1.000000 0
  0.875000   0.750000 0
  0.750000   0.000000 0
  0.375000   0.125000 0
  0.500000   0.875000 0
  0.000000   0.000000 0
  0.125000   0.750000 0
  0.500000   0.625000 0
  0.125000   0.250000 0
  0.500000   0.125000 0
  0.250000   1.000000 0
  0.250000   0.125000 0
  0.000000   1.000000 0
  0.375000   0.875000 0
  0.000000   0.750000 0
  0.375000   0.625000 0
  0.000000   0.250000 0
  0.125000   1.000000 0
  1.000000   0.375000 0
  0.500000   0.500000 0
  0.875000   0.375000 0
CELLS 64 320
4 56 71 58 63
4 27 58 69 63
4 41 69 32 63
4 76 33 68 40
4 27 44 58 37
4 79 31 44 37
4 56 38 68 21
4 56 58 38 37
4 52 32 71 63
4 47 38 31 37
4 76 68 59 21
4 22 59 43 21
4 65 45 33 40
4 47 43 38 21
4 52 71 45 40
4 56 68 71 40
4 74 30 66 23
4 46 66 29 23
4 22 43 30 23
4 72 48 77 34
4 46 53 42 73
4 50 64 53 73
4 70 42 57 73
4 74 66 48 34
4 46 42 66 34
4 47 29 43 23
4 70 77 42 34
4 60 57 64 73
4 79 67 31 75
4 47 31 29 75
4 50 53 67 75
4 46 29 53 75
4 10 78 6 80
4 36 6 1 80
4 15 1 12 80
4 36 4 6 26
4 14 12 78 80
4 2 17 9 26
4 36 18 4 55
4 15 28 1 11
4 62 4 20 55
4 10 6 17 26
4 27 18 44 11
4 62 9 4 26
4 27 69 18 55
4 36 1 18 11
4 41 20 69 55
4 79 44 28 11
4 16 24 54 7
4 19 54 39 7
4 50 39 64 7
4 8 25 61 3
4 60 64 24 7
4 79 28 67 13
4 19 51 61 49
4 8 61 0 49
4 15 51 28 13
4 19 39 51 13
4 50 67 39 13
4 19 61 54 3
4 14 0 12 49
4 5 35 25 3
4 15 12 51 49
4 16 54 35 3
CELL_TYPES 64
8
8
8
8
8
8
8
8
8
8
8
8
8
8
8
8
8
8
8
8
8
8
8
8
8
8
8
8
8
8
8
8
8
8
8
8
8
8
8
8
8
8
8
8
8
8
8
8
8
8
8
8
8
8
8
8
8
8
8
8
8
8
8
8
CELL_DATA 64
VECTORS vector_value float
0.143755 -0.0327095 0
0.311139 -0.308275 0
0.097028 -0.146291 0
0.148053 -0.632903 0
1.81018 -1.26551 0
1.01072 -1.29402 0
0.377637 -0.398125 0
0.466805 -0.128268 0
0.14575 -0.174311 0
1.4419 -1.14795 0
0.338337 -1.29779 0
0.0175012 -1.50459 0
0.0187422 -0.457629 0
0.276919 -0.723452 0
0.0473189 -0.715751 0
0.450754 -0.800885 0
-0.0649561 -1.13952 0
-1.05379 -1.80071 0
-0.107763 -1.41253 0
0.107818 -0.784452 0
-0.808878 -2.70471 0
-0.46756 -0.99764 0
-0.0391354 -1.86576 0
-0.183424 -1.11334 0
-0.16238 -0.262332 0
0.431327 -2.01391 0
0.324602 -0.788076 0
-0.702786 -0.793336 0
0.163095 -0.63819 0
0.569788 -1.02737 0
-0.12648 -0.777015 0
-0.65623 -1.37451 0
-0.0802779 -0.130182 0
-0.088037 -1.44606 0
-0.0467524 -1.01908 0
-0.166115 -0.957572 0
-0.0601213 -0.3611 0
-0.0336087 -0.0745557 0
0.664291 -2.09901 0
-0.483828 -0.978859 0
0.724036 -1.93912 0
0.0119657 -0.138683 0
1.15276 -3.04755 0
0.528659 -1.94993 0
0.936761 -3.02996 0
-0.046645 -0.286519 0
0.349212 -2.54241 0
-0.0250021 -0.970943 0
-0.131104 -0.359193 0
-0.14563 -0.700109 0
-0.0528923 -0.27194 0
-0.116627 -1.45221 0
-0.673779 -1.10643 0
0.0010654 -0.056557 0
-0.0392048 -0.621352 0
-0.0718119 -1.19717 0
-0.260143 -0.62887 0
0.293744 -0.847015 0
0.104892 -0.24271 0
-0.191236 -0.497712 0
-0.353706 -0.698871 0
0.235863 -1.25851 0
-0.598123 -1.5237 0
0.23844 -1.04425 0
