# vtk DataFile Version 2.0
Unstructured Grid by M++
ASCII
DATASET UNSTRUCTURED_GRID
POINTS 81 float
  1.000000   0.625000 0
  0.750000   0.375000 0
  1.000000   0.000000 0
  0.875000   0.875000 0
  0.750000   0.125000 0
  1.000000   1.000000 0
  0.875000   0.250000 0
  0.625000   0.875000 0
  1.000000   0.750000 0
  0.875000   0.000000 0
  1.000000   0.250000 0
  0.625000   0.375000 0
  0.875000   0.500000 0
  0.625000   0.625000 0
  1.000000   0.500000 0
  0.750000   0.500000 0
  0.750000   1.000000 0
  1.000000   0.125000 0
  0.625000   0.250000 0
  0.750000   0.750000 0
  0.625000   0.000000 0
  0.125000   0.375000 0
  0.000000   0.500000 0
  0.125000   0.625000 0
  0.625000   1.000000 0
  1.000000   0.875000 0
  0.875000   0.125000 0
  0.500000   0.250000 0
  0.625000   0.500000 0
  0.250000   0.625000 0
  0.000000   0.625000 0
  0.375000   0.500000 0
  0.375000   0.000000 0
  0.000000   0.125000 0
  0.125000   0.875000 0
  0.875000   1.000000 0
  0.750000   0.250000 0
  0.375000   0.375000 0
  0.250000   0.375000 0
  0.625000   0.750000 0
  0.125000   0.125000 0
  0.500000   0.000000 0
  0.250000   0.875000 0
  0.125000   0.500000 0
  0.500000   0.375000 0
  0.125000   0.000000 0
  0.250000   0.750000 0
  0.250000   0.500000 0
  0.000000   0.875000 0
  0.875000   0.625000 0
  0.500000   0.750000 0
  0.750000   0.625000 0
  0.250000   0.000000 0
  0.375000   0.750000 0
  0.750000   0.875000 0
  0.625000   0.125000 0
  0.250000   0.250000 0
  0.375000   1.000000 0
  0.375000   0.250000 0
  0.000000   0.375000 0
  0.500000   1.000000 0
  0.875000   0.750000 0
  0.750000   0.000000 0
  0.375000   0.125000 0
  0.500000   0.875000 0
  0.000000   0.000000 0
  0.125000   0.750000 0
  0.500000   0.625000 0
  0.125000   0.250000 0
  0.500000   0.125000 0
  0.250000   1.000000 0
  0.250000   0.125000 0
  0.000000   1.000000 0
  0.375000   0.875000 0
  0.000000   0.750000 0
  0.375000   0.625000 0
  0.000000   0.250000 0
  0.125000   1.000000 0
  1.000000   0.375000 0
  0.500000   0.500000 0
  0.875000   0.375000 0
CELLS 64 320
4 56 71 58 63
4 27 58 69 63
4 41 69 32 63
4 76 33 68 40
4 27 44 58 37
4 79 31 44 37
4 56 38 68 21
4 56 58 38 37
4 52 32 71 63
4 47 38 31 37
4 76 68 59 21
4 22 59 43 21
4 65 45 33 40
4 47 43 38 21
4 52 71 45 40
4 56 68 71 40
4 74 30 66 23
4 46 66 29 23
4 22 43 30 23
4 72 48 77 34
4 46 53 42 73
4 50 64 53 73
4 70 42 57 73
4 74 66 48 34
4 46 42 66 34
4 47 29 43 23
4 70 77 42 34
4 60 57 64 73
4 79 67 31 75
4 47 31 29 75
4 50 53 67 75
4 46 29 53 75
4 10 78 6 80
4 36 6 1 80
4 15 1 12 80
4 36 4 6 26
4 14 12 78 80
4 2 17 9 26
4 36 18 4 55
4 15 28 1 11
4 62 4 20 55
4 10 6 17 26
4 27 18 44 11
4 62 9 4 26
4 27 69 18 55
4 36 1 18 11
4 41 20 69 55
4 79 44 28 11
4 16 24 54 7
4 19 54 39 7
4 50 39 64 7
4 8 25 61 3
4 60 64 24 7
4 79 28 67 13
4 19 51 61 49
4 8 61 0 49
4 15 51 28 13
4 19 39 51 13
4 50 67 39 13
4 19 61 54 3
4 14 0 12 49
4 5 35 25 3
4 15 12 51 49
4 16 54 35 3
CELL_TYPES 64
8
8
8
8
8
8
8
8
8
8
8
8
8
8
8
8
8
8
8
8
8
8
8
8
8
8
8
8
8
8
8
8
8
8
8
8
8
8
8
8
8
8
8
8
8
8
8
8
8
8
8
8
8
8
8
8
8
8
8
8
8
8
8
8
CELL_DATA 64
VECTORS vector_value float
0.556201 -0.568991 0
0.79217 -1.42354 0
0.104381 -1.23716 0
0.00912585 -1.63899 0
0.648909 -0.772348 0
0.130195 -0.252861 0
0.792845 -1.42798 0
0.934686 -0.725369 0
0.279078 -0.90656 0
0.557837 -0.799779 0
0.264167 -2.01524 0
0.145183 -2.52274 0
-0.0121122 -1.67619 0
0.446364 -1.66436 0
0.0823754 -0.284146 0
0.299514 -0.88958 0
-0.362887 -1.71601 0
-1.2919 -2.19451 0
-0.16914 -2.28411 0
-0.15777 -1.25371 0
-1.29967 -1.62756 0
-1.08637 -1.73632 0
-0.0566265 -1.05681 0
-0.0566819 -1.36606 0
-0.376918 -1.00373 0
-0.110862 -2.21407 0
-0.145954 -0.673793 0
-0.728684 -1.79508 0
0.201527 -0.380785 0
0.104302 -0.614051 0
-0.030211 -0.672914 0
-0.942908 -1.15612 0
0.0838019 -1.47711 0
0.109543 -0.786016 0
0.0346322 -0.889628 0
0.476765 -0.871507 0
-0.0132625 -1.33298 0
0.207508 -2.2869 0
0.384567 -0.440701 0
0.109719 -0.181095 0
0.138284 -0.7768 0
0.206056 -1.70094 0
0.366275 -0.460251 0
0.0825519 -0.35168 0
0.509049 -0.465748 0
0.186986 -0.335688 0
0.191927 -0.480559 0
0.0883668 -0.356563 0
-0.657094 -0.569947 0
0.00436632 -0.20757 0
-0.167657 -0.352809 0
0.0300477 -1.17322 0
-1.25162 -0.862553 0
0.261853 -0.315283 0
0.135717 -0.482321 0
0.0678544 -1.32136 0
0.201317 -0.145776 0
0.181883 -0.18467 0
0.18945 -0.272087 0
0.0464165 -0.532727 0
0.00348268 -1.45765 0
0.0925469 -1.26649 0
0.130675 -0.588275 0
-0.0398009 -0.52162 0
