# vtk DataFile Version 2.0
Unstructured Grid by M++
ASCII
DATASET UNSTRUCTURED_GRID
POINTS 1089 float
  0.718750   0.687500 0
  0.750000   0.687500 0
  0.718750   0.656250 0
  0.750000   0.718750 0
  0.625000   0.562500 0
  0.625000   0.593750 0
  0.656250   0.593750 0
  0.750000   0.750000 0
  0.687500   0.656250 0
  0.687500   0.625000 0
  0.656250   0.625000 0
  0.906250   0.593750 0
  1.000000   0.968750 0
  0.750000   0.968750 0
  0.718750   0.968750 0
  0.718750   1.000000 0
  0.750000   1.000000 0
  0.906250   0.906250 0
  0.843750   0.531250 0
  0.656250   0.937500 0
  0.656250   0.906250 0
  0.562500   0.812500 0
  0.562500   0.843750 0
  0.593750   0.875000 0
  0.593750   0.843750 0
  0.812500   0.718750 0
  0.625000   0.625000 0
  0.968750   0.875000 0
  0.531250   0.875000 0
  0.625000   0.937500 0
  0.562500   0.562500 0
  0.906250   0.812500 0
  0.531250   0.781250 0
  0.562500   0.593750 0
  0.906250   0.843750 0
  0.625000   0.656250 0
  0.968750   0.906250 0
  0.687500   0.968750 0
  0.812500   0.812500 0
  0.687500   1.000000 0
  0.687500   0.687500 0
  0.937500   0.843750 0
  0.593750   0.593750 0
  1.000000   0.625000 0
  0.968750   0.593750 0
  0.906250   0.875000 0
  0.968750   0.625000 0
  0.625000   0.875000 0
  0.875000   0.875000 0
  0.625000   0.906250 0
  0.875000   0.843750 0
  0.531250   0.812500 0
  0.968750   0.562500 0
  0.593750   0.625000 0
  0.937500   0.875000 0
  0.656250   0.687500 0
  1.000000   0.937500 0
  0.875000   0.562500 0
  0.687500   0.937500 0
  0.937500   0.625000 0
  0.812500   0.781250 0
  0.937500   0.562500 0
  0.875000   0.781250 0
  0.531250   0.531250 0
  0.718750   0.937500 0
  0.968750   0.937500 0
  0.906250   0.562500 0
  0.843750   0.781250 0
  0.593750   0.562500 0
  1.000000   0.906250 0
  0.656250   0.656250 0
  0.937500   0.906250 0
  0.875000   0.531250 0
  0.812500   0.750000 0
  0.656250   0.968750 0
  0.937500   0.531250 0
  0.843750   0.812500 0
  0.906250   0.531250 0
  0.843750   0.750000 0
  0.937500   0.593750 0
  0.875000   0.812500 0
  0.531250   0.562500 0
  1.000000   0.593750 0
  0.562500   0.906250 0
  0.562500   0.531250 0
  0.593750   0.906250 0
  0.593750   0.937500 0
  0.562500   0.875000 0
  0.781250   0.750000 0
  0.781250   0.781250 0
  0.593750   0.531250 0
  1.000000   0.687500 0
  0.531250   0.843750 0
  0.718750   0.718750 0
  0.781250   0.718750 0
  0.781250   0.687500 0
  1.000000   0.656250 0
  0.968750   0.656250 0
  0.843750   0.843750 0
  0.781250   1.000000 0
  0.656250   0.312500 0
  0.531250   0.250000 0
  0.875000   0.500000 0
  0.531250   0.218750 0
  0.875000   0.468750 0
  0.531250   0.156250 0
  0.593750   0.812500 0
  0.093750   0.562500 0
  0.656250   0.562500 0
  0.156250   0.312500 0
  0.031250   0.812500 0
  0.125000   1.000000 0
  0.312500   0.250000 0
  0.250000   0.500000 0
  0.375000   0.000000 0
  0.187500   0.750000 0
  0.812500   0.906250 0
  0.312500   0.656250 0
  0.250000   0.906250 0
  0.875000   0.656250 0
  0.375000   0.406250 0
  0.750000   0.843750 0
  0.250000   0.593750 0
  0.187500   0.843750 0
  0.812500   0.593750 0
  0.312500   0.343750 0
  0.625000   0.968750 0
  0.125000   0.718750 0
  0.687500   0.718750 0
  0.187500   0.468750 0
  0.062500   0.968750 0
  0.125000   0.656250 0
  0.187500   0.406250 0
  0.250000   0.156250 0
  0.062500   0.906250 0
  0.468750   0.906250 0
  0.656250   0.156250 0
  0.468750   0.812500 0
  0.593750   0.312500 0
  0.656250   0.062500 0
  0.625000   0.812500 0
  0.125000   0.562500 0
  0.687500   0.562500 0
  0.187500   0.312500 0
  0.062500   0.812500 0
  0.562500   0.937500 0
  0.062500   0.687500 0
  0.625000   0.687500 0
  0.125000   0.437500 0
  0.000000   0.937500 0
  0.062500   0.625000 0
  0.187500   0.125000 0
  0.125000   0.375000 0
  0.000000   0.875000 0
  0.406250   0.875000 0
  0.468750   0.625000 0
  0.593750   0.125000 0
  0.812500   0.937500 0
  0.312500   0.687500 0
  0.250000   0.937500 0
  0.875000   0.687500 0
  0.375000   0.437500 0
  0.750000   0.875000 0
  0.250000   0.625000 0
  0.187500   0.875000 0
  0.812500   0.625000 0
  0.312500   0.375000 0
  0.468750   0.781250 0
  0.593750   0.281250 0
  0.656250   0.031250 0
  0.625000   0.781250 0
  0.125000   0.531250 0
  0.062500   0.781250 0
  0.687500   0.531250 0
  0.187500   0.281250 0
  0.500000   0.812500 0
  0.687500   0.062500 0
  0.625000   0.312500 0
  0.656250   0.812500 0
  0.156250   0.562500 0
  0.718750   0.562500 0
  0.218750   0.312500 0
  0.093750   0.812500 0
  0.437500   0.968750 0
  0.625000   0.218750 0
  0.500000   0.781250 0
  0.687500   0.031250 0
  0.625000   0.281250 0
  0.656250   0.781250 0
  0.156250   0.531250 0
  0.718750   0.531250 0
  0.218750   0.281250 0
  0.093750   0.781250 0
  0.062500   0.562500 0
  0.125000   0.312500 0
  0.187500   0.062500 0
  0.000000   0.812500 0
  0.406250   0.812500 0
  0.968750   0.812500 0
  0.468750   0.562500 0
  0.593750   0.062500 0
  0.218750   0.687500 0
  0.156250   0.937500 0
  0.281250   0.437500 0
  0.062500   0.843750 0
  0.687500   0.593750 0
  0.187500   0.343750 0
  0.625000   0.843750 0
  0.125000   0.593750 0
  0.312500   0.843750 0
  0.437500   0.343750 0
  0.500000   0.093750 0
  0.375000   0.593750 0
  0.312500   0.906250 0
  0.937500   0.656250 0
  0.437500   0.406250 0
  0.875000   0.906250 0
  0.375000   0.656250 0
  0.062500   0.875000 0
  0.187500   0.375000 0
  0.250000   0.125000 0
  0.125000   0.625000 0
  0.093750   0.656250 0
  0.031250   0.906250 0
  0.218750   0.156250 0
  0.156250   0.406250 0
  0.593750   0.968750 0
  0.093750   0.718750 0
  0.031250   0.968750 0
  0.656250   0.718750 0
  0.156250   0.468750 0
  0.437500   0.906250 0
  0.625000   0.156250 0
  0.718750   0.812500 0
  0.218750   0.562500 0
  0.781250   0.562500 0
  0.281250   0.312500 0
  0.156250   0.812500 0
  0.062500   0.656250 0
  0.000000   0.906250 0
  0.187500   0.156250 0
  0.125000   0.406250 0
  0.562500   0.968750 0
  0.062500   0.718750 0
  0.000000   0.968750 0
  0.625000   0.718750 0
  0.125000   0.468750 0
  0.406250   0.968750 0
  0.968750   0.968750 0
  0.468750   0.718750 0
  0.531250   0.468750 0
  0.593750   0.218750 0
  0.406250   0.906250 0
  0.468750   0.656250 0
  0.593750   0.156250 0
  0.687500   0.781250 0
  0.187500   0.531250 0
  0.750000   0.531250 0
  0.250000   0.281250 0
  0.125000   0.781250 0
  0.781250   0.906250 0
  0.281250   0.656250 0
  0.218750   0.906250 0
  0.843750   0.656250 0
  0.343750   0.406250 0
  0.750000   0.906250 0
  0.250000   0.656250 0
  0.187500   0.906250 0
  0.812500   0.656250 0
  0.312500   0.406250 0
  0.875000   0.406250 0
  0.375000   0.156250 0
  0.812500   0.968750 0
  0.312500   0.718750 0
  0.250000   0.968750 0
  0.875000   0.718750 0
  0.375000   0.468750 0
  0.781250   0.937500 0
  0.281250   0.687500 0
  0.218750   0.937500 0
  0.843750   0.687500 0
  0.343750   0.437500 0
  0.718750   0.875000 0
  0.218750   0.625000 0
  0.156250   0.875000 0
  0.781250   0.625000 0
  0.281250   0.375000 0
  0.750000   0.937500 0
  0.250000   0.687500 0
  0.187500   0.937500 0
  0.875000   0.437500 0
  0.375000   0.187500 0
  0.812500   0.687500 0
  0.312500   0.437500 0
  0.687500   0.875000 0
  0.187500   0.625000 0
  0.750000   0.625000 0
  0.250000   0.375000 0
  0.125000   0.875000 0
  0.812500   1.000000 0
  0.312500   0.750000 0
  0.250000   1.000000 0
  0.875000   0.750000 0
  0.375000   0.500000 0
  0.562500   1.000000 0
  0.062500   0.750000 0
  0.000000   1.000000 0
  0.625000   0.750000 0
  0.125000   0.500000 0
  0.406250   1.000000 0
  0.968750   1.000000 0
  0.468750   0.750000 0
  0.656250   0.000000 0
  0.531250   0.500000 0
  0.593750   0.250000 0
  0.406250   0.937500 0
  0.468750   0.687500 0
  0.593750   0.187500 0
  0.687500   0.812500 0
  0.187500   0.562500 0
  0.750000   0.562500 0
  0.250000   0.312500 0
  0.125000   0.812500 0
  0.437500   0.843750 0
  0.625000   0.093750 0
  0.093750   0.593750 0
  0.156250   0.343750 0
  0.218750   0.093750 0
  0.031250   0.843750 0
  0.281250   0.937500 0
  0.843750   0.937500 0
  0.343750   0.687500 0
  0.906250   0.687500 0
  0.406250   0.437500 0
  0.156250   0.968750 0
  0.218750   0.718750 0
  0.281250   0.468750 0
  0.343750   0.218750 0
  0.156250   1.000000 0
  0.406250   0.000000 0
  0.281250   0.500000 0
  0.343750   0.250000 0
  0.218750   0.750000 0
  0.187500   0.968750 0
  0.250000   0.718750 0
  0.375000   0.218750 0
  0.312500   0.468750 0
  0.187500   1.000000 0
  0.312500   0.500000 0
  0.375000   0.250000 0
  0.437500   0.000000 0
  0.250000   0.750000 0
  0.031250   0.781250 0
  0.656250   0.531250 0
  0.156250   0.281250 0
  0.593750   0.781250 0
  0.093750   0.531250 0
  0.000000   0.781250 0
  0.625000   0.531250 0
  0.125000   0.281250 0
  0.562500   0.781250 0
  0.062500   0.531250 0
  0.781250   0.968750 0
  0.281250   0.718750 0
  0.218750   0.968750 0
  0.843750   0.718750 0
  0.343750   0.468750 0
  0.281250   0.968750 0
  0.843750   0.968750 0
  0.343750   0.718750 0
  0.906250   0.718750 0
  0.406250   0.468750 0
  0.281250   1.000000 0
  0.906250   0.750000 0
  0.406250   0.500000 0
  0.843750   1.000000 0
  0.343750   0.750000 0
  0.531250   0.000000 0
  0.718750   0.843750 0
  0.218750   0.593750 0
  0.156250   0.843750 0
  0.781250   0.593750 0
  0.281250   0.343750 0
  0.687500   0.843750 0
  0.187500   0.593750 0
  0.750000   0.593750 0
  0.250000   0.343750 0
  0.125000   0.843750 0
  0.218750   0.875000 0
  0.843750   0.625000 0
  0.343750   0.375000 0
  0.781250   0.875000 0
  0.281250   0.625000 0
  0.156250   0.906250 0
  0.781250   0.656250 0
  0.281250   0.406250 0
  0.718750   0.906250 0
  0.218750   0.656250 0
  0.031250   1.000000 0
  0.656250   0.750000 0
  0.156250   0.500000 0
  0.593750   1.000000 0
  0.093750   0.750000 0
  0.218750   1.000000 0
  0.343750   0.500000 0
  0.468750   0.000000 0
  0.406250   0.250000 0
  0.281250   0.750000 0
  0.593750   0.406250 0
  0.093750   0.156250 0
  0.531250   0.656250 0
  0.031250   0.406250 0
[...]
CELL_DATA 1024
SCALARS scalar_value float 1
LOOKUP_TABLE default
0.467799
0.337973
0.367211
11.9667
21.3667
18.0356
0.62848
0.497597
0.572229
0.599852
0.783995
0.388978
0.416995
0.479495
0.505001
0.628841
0.433033
0.63781
0.518179
0.812674
0.565996
1.40478
0.713584
2.50974
0.840744
0.899186
0.607988
0.983341
11.0183
24.4641
84.9654
123.13
63.0389
78.8889
0.341711
0.552661
0.585516
0.431623
0.454696
2.56524
2.41234
4.09509
38.3633
2.56141
12.7079
0.807578
8.34622
15.0824
0.957171
15.8731
7.0318
1.50281
37.0322
8.53683
24.229
7.03511
24.5375
3.73033
1.30484
7.25419
0.329672
0.33596
1.29901
3.43815
0.520092
1.61809
7.44177
0.444363
7.27896
0.51681
2.24496
0.546924
80.6144
23.8974
4.8724
2.473
6.3272
38.2245
21.167
125.225
5.51554
23.6228
1.50077
5.95278
1.57124
7.40546
1.01306
3.40773
44.7073
6.76084
1.87334
65.5343
9.99897
12.7915
0.747907
1.76334
59.9872
51.5535
0.959586
3.47657
4.38624
31.5098
0.641685
43.8404
4.77855
2.55893
10.3174
2.59158
1.24355
26.8015
11.9331
7.54722
3.10284
10.8496
1.13594
29.5353
6.07052
47.6997
6.12555
113.919
0.158507
1.65216
0.720016
17.8306
4.71133
18.4728
6.01389
0.553314
29.3232
8.09949
3.26952
4.41236
1.6671
97.8981
0.230581
6.53515
8.53998
1.07195
2.62456
4.84329
23.3362
126.291
1.00036
11.0719
0.342097
24.1712
1.19045
132.873
163.098
0.0764341
9.92151
28.8271
5.60484
0.304276
1.26788
1.78402
1.46888
7.7254
2.45229
93.1295
4.67169
0.672673
2.98579
2.46964
12.0051
33.7363
1.13493
22.0727
0.393046
2.99807
2.72377
3.97666
1.24006
8.08165
1.91215
3.65796
1.4115
0.560524
24.0109
33.8686
16.9783
1.9566
46.721
9.9528
1.61054
72.4897
15.3331
4.98757
74.6023
30.5436
11.2946
1.96809
6.19544
0.636832
9.10424
0.684152
7.75965
2.68201
5.1336
0.911034
3.29369
5.21447
7.97358
2.70381
10.2713
0.693951
10.9203
2.58129
2.01808
1.67079
9.48304
1.08511
3.45218
1.42909
11.3234
0.837948
10.2119
1.52581
2.21853
70.521
2.53102
2.53428
31.1463
20.5031
60.6554
0.839101
46.6799
19.8694
6.83577
0.638218
19.2924
33.4115
5.34908
0.424123
27.8703
14.1208
3.22647
0.650729
2.39542
43.2835
3.50188
14.8893
3.05084
9.42961
3.20622
27.2755
4.95648
5.65797
2.48689
6.95329
6.43664
2.93803
158.859
123.291
140.248
135.597
2.31731
1.58206
0.357229
0.385777
0.468256
0.465882
17.2677
7.99004
14.0727
1.28317
0.592672
0.519139
1.71091
1.97021
1.28502
1.14141
1.05768
1.36513
2.08044
2.25642
2.50528
4.80218
4.02195
2.96287
1.9272
2.65032
1.07475
2.1571
2.0038
2.20182
0.47595
4.35385
0.117927
2.87929
0.805165
4.20829
2.18548
3.74448
1.36323
3.06791
1.37607
6.80312
4.96087
2.93693
4.95263
3.23964
2.96817
5.50614
6.14159
2.07776
2.50857
4.34818
0.907773
1.10263
3.60053
12.059
3.81424
1.9193
0.335727
0.40617
5.39875
15.8302
1.67795
16.6179
12.5927
3.6622
5.37543
5.19165
1.17581
0.468542
9.39887
10.0224
1.02656
1.35796
0.647068
4.03332
1.4197
1.88201
0.439602
5.78369
6.99492
5.28389
1.05043
0.21828
0.713669
5.82971
4.98225
1.57161
0.204068
0.706004
1.40174
0.630269
0.400721
1.57418
0.16351
5.53712
2.36268
2.90559
5.92558
1.18461
1.10307
3.57768
4.23037
1.76523
3.55634
1.64153
0.148841
0.197982
0.260694
2.16247
1.79185
0.120764
0.487518
5.96176
2.30428
0.876673
1.82582
0.16882
1.59314
0.690004
2.99942
4.15701
2.67004
1.79874
1.30213
0.972922
1.13636
1.7845
1.40255
1.35114
1.24487
1.85129
2.96413
2.62612
4.82896
5.04533
2.95533
1.49363
0.357967
1.55757
0.466617
2.04925
0.675057
0.222837
6.02249
4.08067
0.627873
0.328193
1.01973
0.248075
3.97119
4.91375
4.0876
0.977517
0.392014
0.358128
4.63358
0.185875
0.0946842
4.64141
0.0889237
0.134792
3.33789
0.0851885
0.180955
5.0766
0.17084
3.00553
3.89885
0.378308
0.910704
2.05037
13.1503
3.4227
0.728523
2.21861
7.04207
0.241483
0.591454
1.36205
3.00317
0.253536
0.817512
2.5527
0.131564
0.375663
4.56164
0.099044
0.255931
4.98838
6.45959
0.882939
0.232303
6.08538
2.83507
0.425108
0.307829
1.99979
0.716945
0.155954
6.69354
4.95684
1.02316
0.11628
4.49644
1.52874
3.30301
2.89206
2.32912
2.21371
0.762901
0.491251
0.433315
0.391471
0.833998
0.238437
0.630412
1.58044
1.70182
3.10363
1.33618
0.327631
6.43714
5.125
8.39381
7.97917
0.655456
3.00406
0.442736
3.76131
2.16626
1.44696
2.72452
9.77348
6.84719
2.57587
3.78454
1.78385
0.320986
3.94272
2.52307
0.44978
3.75789
1.74343
0.714522
2.68265
0.862271
0.656845
0.834901
1.60735
1.68832
0.478627
0.716647
0.570713
1.86334
1.91026
0.245176
0.151206
0.157531
0.242929
0.234035
5.4869
7.28506
18.4951
3.4752
2.59842
1.65992
23.1391
0.932397
1.5858
0.326957
0.286756
0.514883
0.457246
0.229616
0.151261
0.27603
0.477358
0.438787
0.31
0.429514
12.2078
6.9263
6.0006
12.746
3.98094
3.51676
1.2871
0.581083
2.62942
5.30333
1.45987
3.04647
8.91121
2.65615
4.60402
1.38299
5.78804
0.809275
3.98042
0.179303
0.230727
0.240432
0.24265
0.223014
0.194131
0.188085
3.50326
0.214995
0.20397
1.83861
0.0513018
8.875
0.204726
0.708291
2.44443
7.22407
0.0306924
0.325427
1.33724
2.12393
7.46428
1.09658
2.26178
0.1947
0.333126
21.2096
9.19556
1.43847
7.9379
0.463133
20.2402
4.7024
0.949993
5.03782
7.4117
0.485838
3.2237
4.888
0.0934916
9.86064
0.159243
1.1244
0.40739
0.221753
0.172675
0.237184
0.403423
0.41884
0.885668
0.430783
3.76465
6.80314
0.48907
0.40636
1.79828
3.95992
0.140599
0.289711
41.3774
0.0936322
0.251448
29.9414
0.125396
2.01924
0.300731
0.288559
0.256386
0.220656
0.276735
0.503807
9.39252
2.18615
10.6422
0.799899
0.393383
0.259002
0.0255731
3.51452
1.76161
28.336
1.16394
1.51436
0.402443
1.42595
0.0248806
0.477821
0.131348
81.2528
0.723591
1.47729
5.88103
38.7427
0.594311
0.111722
0.97811
0.0261691
0.635123
1.8944
0.0388838
0.248725
0.678031
1.26585
0.0661339
0.469022
0.896573
5.43714
7.16197
3.95868
1.08631
0.349292
49.8283
0.0899462
19.4501
0.107539
9.53104
0.0676007
24.6481
0.0527978
3.18933
4.37293
3.19762
0.805966
6.10166
1.03577
3.7012
1.18501
2.20151
0.473933
17.2462
6.56497
0.947669
0.481957
21.084
13.5305
0.607957
0.721043
0.434882
17.9916
0.188652
0.173245
0.379298
14.2013
25.866
0.210077
0.405108
0.546347
0.576166
0.199196
65.3886
0.490051
40.8339
0.426465
0.129115
50.0106
0.36304
0.143688
65.3447
0.252313
0.254104
0.299653
0.315207
0.432146
0.21898
0.414802
0.280532
0.360437
0.262496
0.239802
0.660582
0.733328
2.44037
1.97352
0.0864304
11.6196
2.75433
0.207694
1.25001
0.0414715
3.04928
0.422505
0.137978
6.79631
0.699889
0.11347
28.26
4.13426
17.2111
12.9112
18.284
9.77271
28.3399
0.672946
1.18109
0.0838719
157.933
0.0809091
133.757
0.190697
0.0644796
77.5375
0.0885821
77.7132
0.340011
0.568063
0.389801
0.28218
12.6576
18.9951
23.1993
14.3279
6.74362
15.0956
1.7605
1.68874
2.98647
3.22169
2.36527
2.3389
3.69529
2.02955
2.01513
0.775987
2.09271
0.0508392
0.0799214
0.141327
0.120881
5.84653
3.40907
4.38602
7.99671
0.524943
0.122199
0.420216
0.127935
0.195308
0.692918
3.70203
1.77163
0.107181
0.364285
0.176805
0.328708
0.846522
0.214793
0.0687352
2.43724
0.463315
0.259779
0.405588
0.316415
1.72952
1.38324
0.314614
0.211036
0.260214
3.24415
0.142658
0.663839
1.11379
0.134105
0.285508
0.284153
3.25367
0.659581
0.539827
3.18223
2.80169
0.912727
0.575215
3.74944
2.3389
0.047736
0.507722
0.0807733
0.33079
0.233059
1.09758
3.87236
0.199919
23.6858
9.60142
1.02651
0.927787
1.91189
8.58592
0.725246
0.0825319
54.3286
17.7538
1.20909
2.96878
0.464015
0.0810319
1.72796
2.00105
0.329264
0.132012
1.65013
0.155681
1.04901
0.394341
1.26136
3.36224
0.0178014
0.138617
0.744369
0.0441132
7.06789
35.8681
7.92372
1.52574
0.263575
0.549359
0.40127
0.0993131
1.92738
5.45104
10.3552
1.75797
2.8418
1.09559
0.238593
0.479731
1.04438
0.0291383
0.363438
0.103754
0.535143
1.88527
1.44008
0.742207
0.358617
0.341789
0.0559266
1.6938
8.7793
6.07588
4.92917
1.93996
1.46278
0.0544677
1.43389
0.498043
0.50503
0.0424849
1.19422
2.49116
4.38493
2.00111
0.0439931
5.58265
1.10762
5.97784
0.300208
0.49996
0.127693
3.86533
6.00367
8.71452
5.76335
2.8778
3.30114
1.7298
0.725783
0.154407
1.67912
0.0400982
0.164387
1.63621
4.97295
3.86941
0.688022
1.79447
1.14118
1.21749
1.41272
1.20816
2.9096
2.00394
0.110101
4.14162
0.0971574
4.42177
2.06694
0.076486
1.27954
0.492078
2.79769
4.5729
0.485224
0.601159
0.827456
2.84383
1.63332
0.973142
4.81898
4.06994
3.67043
4.99416
3.46549
2.05143
2.79301
3.16317
2.91744
2.76308
7.03028
1.79775
0.247037
0.172135
10.1767
11.0561
0.318615
1.37689
0.113755
8.46209
1.73826
0.244571
0.126251
0.24001
0.091343
0.149661
0.0604007
2.50972
0.181586
0.10894
3.67522
0.0675825
0.160218
5.43862
3.33629
0.447778
5.6988
1.39425
5.1301
1.49689
4.65035
4.79491
2.78777
0.117096
0.148822
4.17566
4.41681
4.36069
3.68253
2.76357
5.85054
3.44385
6.15552
5.24029
0.305527
3.24127
0.657929
0.0136816
0.0242342
0.034456
0.0220158
0.278784
1.19908
0.225747
2.12507
0.266963
3.47505
0.522883
3.44675
1.85782
0.290726
