# vtk DataFile Version 2.0
Unstructured Grid by M++
ASCII
DATASET UNSTRUCTURED_GRID
POINTS 289 float
  0.562500   1.000000 0
  0.562500   0.625000 0
  0.625000   1.000000 0
  0.562500   0.937500 0
  0.562500   0.562500 0
  0.625000   0.937500 0
  0.562500   0.875000 0
  0.625000   0.750000 0
  0.625000   0.625000 0
  0.562500   0.812500 0
  0.562500   0.750000 0
  0.562500   0.687500 0
  0.625000   0.875000 0
  0.625000   0.812500 0
  0.625000   0.687500 0
  0.687500   0.125000 0
  0.875000   0.062500 0
  0.625000   0.125000 0
  0.625000   0.187500 0
  0.625000   0.250000 0
  0.812500   0.187500 0
  1.000000   0.125000 0
  0.687500   0.187500 0
  0.750000   0.125000 0
  0.937500   0.062500 0
  0.937500   0.125000 0
  0.750000   0.187500 0
  0.812500   0.062500 0
  0.812500   0.125000 0
  0.875000   0.687500 0
  0.187500   0.250000 0
  0.437500   0.250000 0
  0.375000   0.187500 0
  0.812500   0.625000 0
  0.125000   0.187500 0
  0.937500   0.750000 0
  0.250000   0.312500 0
  0.500000   0.312500 0
  0.625000   0.062500 0
  0.437500   0.500000 0
  0.375000   0.125000 0
  0.437500   0.187500 0
  0.437500   0.437500 0
  0.437500   0.375000 0
  0.875000   0.875000 0
  0.187500   0.375000 0
  0.687500   0.562500 0
  0.687500   0.625000 0
  0.000000   0.125000 0
  0.937500   0.625000 0
  0.250000   0.125000 0
  0.375000   0.062500 0
  0.375000   0.000000 0
  0.812500   0.500000 0
  0.125000   0.000000 0
  0.937500   0.937500 0
  0.250000   0.437500 0
  0.687500   0.875000 0
  0.687500   0.937500 0
  0.000000   0.437500 0
  0.500000   0.500000 0
  0.500000   0.437500 0
  0.750000   0.937500 0
  0.750000   1.000000 0
  0.062500   0.500000 0
  1.000000   1.000000 0
  0.312500   0.500000 0
  0.875000   0.562500 0
  0.187500   0.062500 0
  0.437500   0.125000 0
  0.437500   0.062500 0
  0.500000   0.375000 0
  0.937500   0.812500 0
  0.937500   0.875000 0
  0.250000   0.375000 0
  0.687500   0.812500 0
  0.000000   0.375000 0
  0.750000   0.562500 0
  0.062500   0.125000 0
  1.000000   0.562500 0
  1.000000   0.625000 0
  0.312500   0.125000 0
  0.562500   0.125000 0
  0.437500   0.000000 0
  0.875000   0.437500 0
  0.875000   0.500000 0
  0.187500   0.000000 0
  0.937500   0.562500 0
  0.937500   0.500000 0
  0.250000   0.062500 0
  0.687500   0.500000 0
  0.000000   0.062500 0
  0.500000   0.062500 0
  1.000000   0.875000 0
  1.000000   0.937500 0
  0.312500   0.437500 0
  0.750000   0.875000 0
  0.062500   0.437500 0
  0.812500   0.937500 0
  0.125000   0.500000 0
  0.375000   0.500000 0
  0.625000   0.562500 0
  0.625000   0.500000 0
  0.437500   0.312500 0
  0.875000   0.812500 0
  0.875000   0.750000 0
  0.187500   0.312500 0
  0.812500   0.687500 0
  0.812500   0.750000 0
  0.125000   0.250000 0
  0.375000   0.250000 0
  1.000000   0.687500 0
  0.312500   0.187500 0
  0.750000   0.687500 0
  0.750000   0.625000 0
  0.062500   0.187500 0
  0.562500   0.250000 0
  0.562500   0.187500 0
  0.375000   1.000000 0
  0.500000   0.562500 0
  0.500000   0.250000 0
  0.750000   0.250000 0
  0.500000   0.125000 0
  0.500000   0.187500 0
  1.000000   0.187500 0
  0.625000   0.375000 0
  0.875000   0.375000 0
  1.000000   0.437500 0
  0.312500   0.000000 0
  0.562500   0.000000 0
  0.812500   0.000000 0
  0.250000   0.687500 0
  0.000000   0.687500 0
  0.500000   1.000000 0
  0.250000   1.000000 0
  0.000000   1.000000 0
  0.437500   0.687500 0
  0.437500   0.625000 0
  0.187500   0.625000 0
  0.687500   0.750000 0
  0.000000   0.312500 0
  0.000000   0.250000 0
  0.375000   0.375000 0
  0.375000   0.312500 0
  0.812500   0.812500 0
  0.125000   0.312500 0
  0.875000   0.625000 0
  0.187500   0.187500 0
  0.187500   0.125000 0
  0.937500   1.000000 0
  0.250000   0.562500 0
  0.250000   0.500000 0
  0.687500   1.000000 0
  0.000000   0.500000 0
  0.687500   0.687500 0
  0.000000   0.187500 0
  0.937500   0.687500 0
  0.250000   0.250000 0
  0.250000   0.187500 0
  0.187500   0.687500 0
  0.000000   0.750000 0
  0.250000   0.750000 0
  0.125000   0.625000 0
  0.750000   0.750000 0
  0.062500   0.250000 0
  0.875000   0.937500 0
  0.187500   0.500000 0
  0.187500   0.437500 0
  0.812500   0.562500 0
  0.125000   0.125000 0
  0.125000   0.062500 0
  0.375000   0.625000 0
  0.375000   0.687500 0
  1.000000   0.750000 0
  0.312500   0.250000 0
  0.312500   0.312500 0
  0.812500   0.312500 0
  0.562500   0.312500 0
  0.375000   0.750000 0
  0.500000   0.625000 0
  0.250000   0.625000 0
  0.312500   0.687500 0
  0.750000   0.812500 0
  0.062500   0.312500 0
  0.062500   0.375000 0
  1.000000   0.812500 0
  0.312500   0.375000 0
  0.562500   0.375000 0
  0.687500   0.437500 0
  0.000000   0.000000 0
  0.500000   0.000000 0
  0.937500   0.437500 0
  0.250000   0.000000 0
  0.375000   0.437500 0
  0.812500   0.875000 0
  0.125000   0.375000 0
  0.125000   0.437500 0
  0.625000   0.437500 0
  1.000000   0.500000 0
  0.312500   0.062500 0
  0.750000   0.500000 0
  0.062500   0.000000 0
  0.062500   0.062500 0
  0.562500   0.062500 0
  0.062500   0.750000 0
  0.312500   0.750000 0
  0.312500   0.625000 0
  0.312500   0.562500 0
  0.062500   0.562500 0
  0.187500   1.000000 0
  0.437500   0.562500 0
  0.875000   1.000000 0
  0.187500   0.562500 0
  0.500000   0.937500 0
  0.250000   0.937500 0
  0.312500   1.000000 0
  0.125000   0.750000 0
  0.125000   0.687500 0
  1.000000   0.000000 0
  0.000000   0.937500 0
  0.000000   0.875000 0
  0.875000   0.125000 0
  0.875000   0.187500 0
  0.062500   0.812500 0
  0.312500   0.812500 0
  0.000000   0.812500 0
  0.000000   0.625000 0
  0.000000   0.562500 0
  0.062500   1.000000 0
  0.062500   0.937500 0
  0.937500   0.187500 0
  0.937500   0.250000 0
  0.062500   0.687500 0
  0.062500   0.625000 0
  0.125000   1.000000 0
  1.000000   0.250000 0
  1.000000   0.312500 0
  0.062500   0.875000 0
  0.125000   0.812500 0
  0.375000   0.812500 0
  0.125000   0.875000 0
  0.375000   0.937500 0
  0.375000   0.875000 0
  0.187500   0.750000 0
  0.187500   0.812500 0
  0.437500   0.812500 0
  0.187500   0.875000 0
  0.437500   0.875000 0
  0.375000   0.562500 0
  0.812500   1.000000 0
  0.125000   0.562500 0
  0.437500   1.000000 0
  0.437500   0.937500 0
  0.187500   0.937500 0
  0.125000   0.937500 0
  0.500000   0.687500 0
  0.500000   0.750000 0
  0.500000   0.812500 0
  0.250000   0.812500 0
  0.250000   0.875000 0
  0.500000   0.875000 0
  0.437500   0.750000 0
  0.312500   0.875000 0
  0.312500   0.937500 0
  0.687500   0.250000 0
  0.687500   0.312500 0
  0.937500   0.312500 0
  0.875000   0.250000 0
  0.625000   0.000000 0
  0.875000   0.000000 0
  0.687500   0.375000 0
  0.937500   0.375000 0
  0.875000   0.312500 0
  0.625000   0.312500 0
  0.687500   0.000000 0
  0.937500   0.000000 0
  0.750000   0.312500 0
  0.750000   0.375000 0
  1.000000   0.375000 0
  0.812500   0.250000 0
  0.562500   0.437500 0
  0.562500   0.500000 0
  0.687500   0.062500 0
  0.750000   0.437500 0
  0.750000   0.000000 0
  0.750000   0.062500 0
  1.000000   0.062500 0
  0.812500   0.375000 0
  0.812500   0.437500 0
CELLS 256 1280
4 169 170 148 68
4 151 166 56 167
4 195 45 196 167
4 54 170 201 202
4 109 34 30 147
4 40 32 81 112
4 192 89 86 68
4 48 91 78 202
4 99 64 196 97
4 71 43 37 103
4 74 186 56 95
4 109 164 34 115
4 50 81 158 112
4 122 69 92 70
4 195 145 45 106
4 110 143 174 175
4 157 30 158 147
4 40 69 32 41
4 50 158 148 147
4 141 155 164 115
4 122 123 69 41
4 142 186 143 175
4 60 39 61 42
4 40 51 69 70
4 120 31 123 41
4 157 174 36 175
4 50 148 89 68
4 48 78 155 115
4 52 83 51 70
4 151 56 66 95
4 71 61 43 42
4 169 148 34 147
4 100 193 39 42
4 40 81 51 199
4 110 174 32 112
4 109 30 145 106
4 100 66 193 95
4 169 34 78 115
4 190 92 83 70
4 50 89 81 199
4 54 86 170 68
4 74 56 45 167
4 142 143 43 103
4 153 59 64 97
4 99 196 166 167
4 169 78 170 202
4 142 193 186 95
4 192 128 89 199
4 74 45 36 106
4 110 31 143 103
4 76 184 59 97
4 142 43 193 42
4 52 51 128 199
4 189 201 91 202
4 120 37 31 103
4 74 36 186 175
4 195 196 184 97
4 141 164 140 183
4 157 158 174 112
4 109 145 164 183
4 195 184 145 183
4 110 32 31 41
4 157 36 30 106
4 76 140 184 183
4 171 172 206 181
4 178 172 261 136
4 256 261 255 136
4 256 257 261 245
4 180 150 206 207
4 60 119 39 210
4 118 215 241 263
4 178 205 172 181
4 216 243 238 244
4 162 217 233 232
4 180 206 131 181
4 179 137 119 210
4 216 204 217 232
4 220 237 219 229
4 216 217 243 159
4 259 258 262 224
4 240 254 237 229
4 153 64 227 208
4 161 205 258 224
4 240 237 238 223
4 226 227 233 208
4 234 228 254 229
4 171 248 137 210
4 160 132 204 232
4 180 131 138 159
4 133 251 213 252
4 171 206 248 207
4 162 138 217 159
4 161 258 243 244
4 220 225 237 223
4 151 150 166 212
4 260 247 257 245
4 259 262 214 263
4 151 66 150 207
4 234 254 209 253
4 162 233 250 208
4 242 241 262 263
4 171 137 172 136
4 161 243 131 159
4 160 204 225 223
4 161 131 205 181
4 179 255 137 136
4 216 238 204 223
4 100 39 248 210
4 260 213 247 252
4 226 233 132 232
4 134 214 215 263
4 180 138 150 212
4 178 261 239 245
4 259 246 258 244
4 178 239 205 224
4 240 238 246 244
4 242 262 239 224
4 99 250 64 208
4 240 246 254 253
4 242 239 247 245
4 135 219 228 229
4 99 166 250 212
4 259 214 246 253
4 118 241 251 252
4 100 248 66 207
4 134 209 214 253
4 162 250 138 212
4 242 247 241 252
4 71 187 61 280
4 102 281 197 280
4 122 92 82 203
4 17 18 82 117
4 122 82 123 117
4 19 264 273 265
4 267 279 222 20
4 125 273 270 265
4 267 272 279 176
4 19 116 18 117
4 21 25 286 24
4 23 28 26 20
4 23 285 28 27
4 218 286 275 24
4 85 53 84 288
4 235 236 231 266
4 221 222 28 20
4 267 222 231 230
4 268 38 129 203
4 125 270 197 188
4 126 287 272 176
4 277 270 276 265
4 267 231 272 266
4 125 197 187 280
4 190 129 92 203
4 277 276 287 176
4 19 18 264 22
4 17 82 38 203
4 102 197 90 188
4 126 84 287 288
4 284 130 285 27
4 121 276 264 265
4 71 37 187 177
4 120 123 116 117
4 198 88 127 191
4 221 16 25 24
4 23 26 15 22
4 121 279 276 176
4 235 231 124 230
4 125 187 273 177
4 278 271 236 266
4 277 287 283 288
4 284 285 274 282
4 278 127 271 191
4 269 275 16 24
4 200 283 53 288
4 23 15 285 282
4 121 26 279 20
4 21 124 25 230
4 19 273 116 177
4 200 90 283 188
4 126 271 84 191
4 269 16 130 27
4 17 38 15 282
4 221 25 222 230
4 121 264 26 22
4 120 116 37 177
4 60 61 281 280
4 277 283 270 188
4 126 272 271 266
4 268 274 38 282
4 85 84 88 191
4 17 15 18 22
4 221 28 16 27
4 93 94 73 55
4 85 88 67 87
4 80 49 79 87
4 44 104 73 72
4 146 33 67 168
4 211 165 149 55
4 8 47 14 154
4 105 104 108 144
4 105 108 29 107
4 7 139 13 75
4 44 165 194 98
4 200 53 77 168
4 8 1 101 4
4 2 5 152 58
4 260 6 213 3
4 105 35 104 72
4 96 57 182 75
4 7 14 139 154
4 146 29 33 107
4 7 13 10 9
4 12 13 57 75
4 85 67 53 168
4 44 73 165 55
4 63 152 62 58
4 8 101 47 46
4 96 182 194 144
4 60 281 119 4
4 12 5 6 3
4 173 185 35 72
4 65 149 94 55
4 146 67 49 87
4 114 113 47 154
4 163 108 182 144
4 12 6 13 9
4 173 35 111 156
4 163 182 139 75
4 260 257 6 9
4 105 29 35 156
4 163 139 113 154
4 256 10 257 9
4 146 49 29 156
4 163 113 108 107
4 80 111 49 156
4 102 101 281 4
4 12 57 5 58
4 44 194 104 144
4 96 194 62 98
4 2 0 5 3
4 93 73 185 72
4 179 119 1 4
4 200 77 90 46
4 114 33 113 107
4 7 10 14 11
4 96 62 57 58
4 133 213 0 3
4 102 90 101 46
4 256 255 10 11
4 63 62 249 98
4 114 47 77 46
4 179 1 255 11
4 211 249 165 98
4 114 77 33 168
4 198 79 88 87
4 8 14 1 11
CELL_TYPES 256
8
8
8
8
8
8
8
8
8
8
8
8
8
8
8
8
8
8
8
8
8
8
8
8
8
8
8
8
8
8
8
8
8
8
8
8
8
8
8
8
8
8
8
8
8
8
8
8
8
8
8
8
8
8
8
8
8
8
8
8
8
8
8
8
8
8
8
8
8
8
8
8
8
8
8
8
8
8
8
8
8
8
8
8
8
8
8
8
8
8
8
8
8
8
8
8
8
8
8
8
8
8
8
8
8
8
8
8
8
8
8
8
8
8
8
8
8
8
8
8
8
8
8
8
8
8
8
8
8
8
8
8
8
8
8
8
8
8
8
8
8
8
8
8
8
8
8
8
8
8
8
8
8
8
8
8
8
8
8
8
8
8
8
8
8
8
8
8
8
8
8
8
8
8
8
8
8
8
8
8
8
8
8
8
8
8
8
8
8
8
8
8
8
8
8
8
8
8
8
8
8
8
8
8
8
8
8
8
8
8
8
8
8
8
8
8
8
8
8
8
8
8
8
8
8
8
8
8
8
8
8
8
8
8
8
8
8
8
8
8
8
8
8
8
8
8
8
8
8
8
8
8
8
8
8
8
POINT_DATA 289
SCALARS scalar_value float 1
LOOKUP_TABLE default
-0.381621
-0.0777043
-0.334263
-0.342817
-0.0673169
-0.293361
-0.291123
-0.170228
-0.0846289
-0.239615
-0.173252
-0.108949
-0.253879
-0.229763
-0.107864
-0.0289961
-0.000922246
-0.0453831
-0.0493956
-0.0513363
-0.0123906
-0.00383802
-0.0472405
-0.00595527
-0.00194605
-0.00373569
-0.0249367
-0.000579895
-0.00292336
-0.100018
-0.0374747
-0.0487208
-0.0416171
-0.0924244
-0.0338134
-0.109541
-0.0416419
-0.050495
-0.0145908
-0.0565492
-0.0349348
-0.0472753
-0.0545955
-0.0515344
-0.223245
-0.0433006
-0.0772484
-0.0880339
-0.0317647
-0.0922806
-0.0287808
-0.0162957
0
-0.078413
0
-0.588054
-0.0477776
-0.23955
-0.274317
-0.043864
-0.0585323
-0.0557564
-0.277267
-0.327058
-0.0498251
-1.15877
-0.0559767
-0.0862322
-0.0170029
-0.0415341
-0.0219115
-0.0528815
-0.133176
-0.214782
-0.0448626
-0.214748
-0.041884
-0.0800915
-0.031793
-0.0854149
-0.0926691
-0.0315098
-0.0462544
0
-0.0747891
-0.0788969
0
-0.0873692
-0.078523
-0.0170302
-0.0729192
-0.0232081
-0.0236844
-0.234861
-0.690666
-0.0512851
-0.230107
-0.0440708
-0.302498
-0.0510276
-0.055957
-0.0720811
-0.0668731
-0.0493995
-0.141472
-0.110827
-0.0407034
-0.10253
-0.12197
-0.0373419
-0.0454014
-0.0982222
-0.0390416
-0.103397
-0.0912614
-0.034131
-0.050137
-0.0490169
-0.842751
-0.0630647
-0.0495076
-0.0492089
-0.044395
-0.048464
-0.00718776
-0.0582942
-0.0697372
-0.0699471
0
0
0
-0.151681
-0.493316
-0.44218
-1.00261
-0.85578
-0.102908
-0.0724355
-0.109233
-0.155682
-0.040126
-0.0365454
-0.0499949
-0.0470372
-0.156108
-0.0405926
-0.0920325
-0.0343604
-0.0289129
-0.977533
-0.0771265
-0.0577621
-0.31783
-0.0500948
-0.105256
-0.0343395
-0.097493
-0.0390939
-0.0359572
-0.160706
-0.664461
-0.398702
-0.111106
-0.135133
-0.0368308
-0.370835
-0.0542806
-0.0450219
-0.0837634
-0.0309776
-0.0179731
-0.0780119
-0.119272
-0.109236
-0.0420444
-0.044036
-0.0573544
-0.0517525
-0.253083
-0.0742432
-0.102773
-0.139352
-0.179484
-0.0402696
-0.0422678
-0.128445
-0.0478343
-0.0548363
-0.0683857
0
0
-0.0720104
0
-0.0537691
-0.225872
-0.0428553
-0.0444333
-0.0626619
-0.0788635
-0.0163084
-0.0758176
0
-0.0224726
-0.0199868
-0.636833
-0.344447
-0.0907063
-0.0669934
-0.0646404
-0.889298
-0.0606246
-0.58682
-0.0771166
-0.410707
-0.850813
-0.951929
-0.573941
-0.234282
0
-0.846684
-0.806395
-0.00329202
-0.00758502
-0.760469
-0.641045
-0.765074
-0.117218
-0.0610539
-0.857781
-0.848513
-0.00694181
-0.0277055
-0.426364
-0.113137
-0.864815
-0.0286311
-0.0530568
-0.811506
-0.742307
-0.569767
-0.818996
-0.762947
-0.719303
-0.455254
-0.696776
-0.359506
-0.813729
-0.550194
-0.0604592
-0.364204
-0.0729654
-0.690867
-0.612355
-0.861406
-0.853395
-0.104149
-0.162986
-0.249933
-0.651329
-0.787981
-0.368922
-0.172284
-0.766481
-0.82318
-0.0527936
-0.0578238
-0.0528126
-0.0253492
0
0
-0.0627114
-0.0663631
-0.0537266
-0.0546308
0
0
-0.0592966
-0.067421
-0.0646498
-0.0280449
-0.0585573
-0.0623579
-0.00401152
-0.071786
0
-0.00063359
-0.00221652
-0.0704089
-0.0749605
