# vtk DataFile Version 2.0
Unstructured Grid by M++
ASCII
DATASET UNSTRUCTURED_GRID
POINTS 1089 float
  0.718750   0.687500 0
  0.750000   0.687500 0
  0.718750   0.656250 0
  0.750000   0.718750 0
  0.625000   0.562500 0
  0.625000   0.593750 0
  0.656250   0.593750 0
  0.750000   0.750000 0
  0.687500   0.656250 0
  0.687500   0.625000 0
  0.656250   0.625000 0
  0.906250   0.593750 0
  1.000000   0.968750 0
  0.750000   0.968750 0
  0.718750   0.968750 0
  0.718750   1.000000 0
  0.750000   1.000000 0
  0.906250   0.906250 0
  0.843750   0.531250 0
  0.656250   0.937500 0
  0.656250   0.906250 0
  0.562500   0.812500 0
  0.562500   0.843750 0
  0.593750   0.875000 0
  0.593750   0.843750 0
  0.812500   0.718750 0
  0.625000   0.625000 0
  0.968750   0.875000 0
  0.531250   0.875000 0
  0.625000   0.937500 0
  0.562500   0.562500 0
  0.906250   0.812500 0
  0.531250   0.781250 0
  0.562500   0.593750 0
  0.906250   0.843750 0
  0.625000   0.656250 0
  0.968750   0.906250 0
  0.687500   0.968750 0
  0.812500   0.812500 0
  0.687500   1.000000 0
  0.687500   0.687500 0
  0.937500   0.843750 0
  0.593750   0.593750 0
  1.000000   0.625000 0
  0.968750   0.593750 0
  0.906250   0.875000 0
  0.968750   0.625000 0
  0.625000   0.875000 0
  0.875000   0.875000 0
  0.625000   0.906250 0
  0.875000   0.843750 0
  0.531250   0.812500 0
  0.968750   0.562500 0
  0.593750   0.625000 0
  0.937500   0.875000 0
  0.656250   0.687500 0
  1.000000   0.937500 0
  0.875000   0.562500 0
  0.687500   0.937500 0
  0.937500   0.625000 0
  0.812500   0.781250 0
  0.937500   0.562500 0
  0.875000   0.781250 0
  0.531250   0.531250 0
  0.718750   0.937500 0
  0.968750   0.937500 0
  0.906250   0.562500 0
  0.843750   0.781250 0
  0.593750   0.562500 0
  1.000000   0.906250 0
  0.656250   0.656250 0
  0.937500   0.906250 0
  0.875000   0.531250 0
  0.812500   0.750000 0
  0.656250   0.968750 0
  0.937500   0.531250 0
  0.843750   0.812500 0
  0.906250   0.531250 0
  0.843750   0.750000 0
  0.937500   0.593750 0
  0.875000   0.812500 0
  0.531250   0.562500 0
  1.000000   0.593750 0
  0.562500   0.906250 0
  0.562500   0.531250 0
  0.593750   0.906250 0
  0.593750   0.937500 0
  0.562500   0.875000 0
  0.781250   0.750000 0
  0.781250   0.781250 0
  0.593750   0.531250 0
  1.000000   0.687500 0
  0.531250   0.843750 0
  0.718750   0.718750 0
  0.781250   0.718750 0
  0.781250   0.687500 0
  1.000000   0.656250 0
  0.968750   0.656250 0
  0.843750   0.843750 0
  0.781250   1.000000 0
  0.656250   0.312500 0
  0.531250   0.250000 0
  0.875000   0.500000 0
  0.531250   0.218750 0
  0.875000   0.468750 0
  0.531250   0.156250 0
  0.593750   0.812500 0
  0.093750   0.562500 0
  0.656250   0.562500 0
  0.156250   0.312500 0
  0.031250   0.812500 0
  0.125000   1.000000 0
  0.312500   0.250000 0
  0.250000   0.500000 0
  0.375000   0.000000 0
  0.187500   0.750000 0
  0.812500   0.906250 0
  0.312500   0.656250 0
  0.250000   0.906250 0
  0.875000   0.656250 0
  0.375000   0.406250 0
  0.750000   0.843750 0
  0.250000   0.593750 0
  0.187500   0.843750 0
  0.812500   0.593750 0
  0.312500   0.343750 0
  0.625000   0.968750 0
  0.125000   0.718750 0
  0.687500   0.718750 0
  0.187500   0.468750 0
  0.062500   0.968750 0
  0.125000   0.656250 0
  0.187500   0.406250 0
  0.250000   0.156250 0
  0.062500   0.906250 0
  0.468750   0.906250 0
  0.656250   0.156250 0
  0.468750   0.812500 0
  0.593750   0.312500 0
  0.656250   0.062500 0
  0.625000   0.812500 0
  0.125000   0.562500 0
  0.687500   0.562500 0
  0.187500   0.312500 0
  0.062500   0.812500 0
  0.562500   0.937500 0
  0.062500   0.687500 0
  0.625000   0.687500 0
  0.125000   0.437500 0
  0.000000   0.937500 0
  0.062500   0.625000 0
  0.187500   0.125000 0
  0.125000   0.375000 0
  0.000000   0.875000 0
  0.406250   0.875000 0
  0.468750   0.625000 0
  0.593750   0.125000 0
  0.812500   0.937500 0
  0.312500   0.687500 0
  0.250000   0.937500 0
  0.875000   0.687500 0
  0.375000   0.437500 0
  0.750000   0.875000 0
  0.250000   0.625000 0
  0.187500   0.875000 0
  0.812500   0.625000 0
  0.312500   0.375000 0
  0.468750   0.781250 0
  0.593750   0.281250 0
  0.656250   0.031250 0
  0.625000   0.781250 0
  0.125000   0.531250 0
  0.062500   0.781250 0
  0.687500   0.531250 0
  0.187500   0.281250 0
  0.500000   0.812500 0
  0.687500   0.062500 0
  0.625000   0.312500 0
  0.656250   0.812500 0
  0.156250   0.562500 0
  0.718750   0.562500 0
  0.218750   0.312500 0
  0.093750   0.812500 0
  0.437500   0.968750 0
  0.625000   0.218750 0
  0.500000   0.781250 0
  0.687500   0.031250 0
  0.625000   0.281250 0
  0.656250   0.781250 0
  0.156250   0.531250 0
  0.718750   0.531250 0
  0.218750   0.281250 0
  0.093750   0.781250 0
  0.062500   0.562500 0
  0.125000   0.312500 0
  0.187500   0.062500 0
  0.000000   0.812500 0
  0.406250   0.812500 0
  0.968750   0.812500 0
  0.468750   0.562500 0
  0.593750   0.062500 0
  0.218750   0.687500 0
  0.156250   0.937500 0
  0.281250   0.437500 0
  0.062500   0.843750 0
  0.687500   0.593750 0
  0.187500   0.343750 0
  0.625000   0.843750 0
  0.125000   0.593750 0
  0.312500   0.843750 0
  0.437500   0.343750 0
  0.500000   0.093750 0
  0.375000   0.593750 0
  0.312500   0.906250 0
  0.937500   0.656250 0
  0.437500   0.406250 0
  0.875000   0.906250 0
  0.375000   0.656250 0
  0.062500   0.875000 0
  0.187500   0.375000 0
  0.250000   0.125000 0
  0.125000   0.625000 0
  0.093750   0.656250 0
  0.031250   0.906250 0
  0.218750   0.156250 0
  0.156250   0.406250 0
  0.593750   0.968750 0
  0.093750   0.718750 0
  0.031250   0.968750 0
  0.656250   0.718750 0
  0.156250   0.468750 0
  0.437500   0.906250 0
  0.625000   0.156250 0
  0.718750   0.812500 0
  0.218750   0.562500 0
  0.781250   0.562500 0
  0.281250   0.312500 0
  0.156250   0.812500 0
  0.062500   0.656250 0
  0.000000   0.906250 0
  0.187500   0.156250 0
  0.125000   0.406250 0
  0.562500   0.968750 0
  0.062500   0.718750 0
  0.000000   0.968750 0
  0.625000   0.718750 0
  0.125000   0.468750 0
  0.406250   0.968750 0
  0.968750   0.968750 0
  0.468750   0.718750 0
  0.531250   0.468750 0
  0.593750   0.218750 0
  0.406250   0.906250 0
  0.468750   0.656250 0
  0.593750   0.156250 0
  0.687500   0.781250 0
  0.187500   0.531250 0
  0.750000   0.531250 0
  0.250000   0.281250 0
  0.125000   0.781250 0
  0.781250   0.906250 0
  0.281250   0.656250 0
  0.218750   0.906250 0
  0.843750   0.656250 0
  0.343750   0.406250 0
  0.750000   0.906250 0
  0.250000   0.656250 0
  0.187500   0.906250 0
  0.812500   0.656250 0
  0.312500   0.406250 0
  0.875000   0.406250 0
  0.375000   0.156250 0
  0.812500   0.968750 0
  0.312500   0.718750 0
  0.250000   0.968750 0
  0.875000   0.718750 0
  0.375000   0.468750 0
  0.781250   0.937500 0
  0.281250   0.687500 0
  0.218750   0.937500 0
  0.843750   0.687500 0
  0.343750   0.437500 0
  0.718750   0.875000 0
  0.218750   0.625000 0
  0.156250   0.875000 0
  0.781250   0.625000 0
  0.281250   0.375000 0
  0.750000   0.937500 0
  0.250000   0.687500 0
  0.187500   0.937500 0
  0.875000   0.437500 0
  0.375000   0.187500 0
  0.812500   0.687500 0
  0.312500   0.437500 0
  0.687500   0.875000 0
  0.187500   0.625000 0
  0.750000   0.625000 0
  0.250000   0.375000 0
  0.125000   0.875000 0
  0.812500   1.000000 0
  0.312500   0.750000 0
  0.250000   1.000000 0
  0.875000   0.750000 0
  0.375000   0.500000 0
  0.562500   1.000000 0
  0.062500   0.750000 0
  0.000000   1.000000 0
  0.625000   0.750000 0
  0.125000   0.500000 0
  0.406250   1.000000 0
  0.968750   1.000000 0
  0.468750   0.750000 0
  0.656250   0.000000 0
  0.531250   0.500000 0
  0.593750   0.250000 0
  0.406250   0.937500 0
  0.468750   0.687500 0
  0.593750   0.187500 0
  0.687500   0.812500 0
  0.187500   0.562500 0
  0.750000   0.562500 0
  0.250000   0.312500 0
  0.125000   0.812500 0
  0.437500   0.843750 0
  0.625000   0.093750 0
  0.093750   0.593750 0
  0.156250   0.343750 0
  0.218750   0.093750 0
  0.031250   0.843750 0
  0.281250   0.937500 0
  0.843750   0.937500 0
  0.343750   0.687500 0
  0.906250   0.687500 0
  0.406250   0.437500 0
  0.156250   0.968750 0
  0.218750   0.718750 0
  0.281250   0.468750 0
  0.343750   0.218750 0
  0.156250   1.000000 0
  0.406250   0.000000 0
  0.281250   0.500000 0
  0.343750   0.250000 0
  0.218750   0.750000 0
  0.187500   0.968750 0
  0.250000   0.718750 0
  0.375000   0.218750 0
  0.312500   0.468750 0
  0.187500   1.000000 0
  0.312500   0.500000 0
  0.375000   0.250000 0
  0.437500   0.000000 0
  0.250000   0.750000 0
  0.031250   0.781250 0
  0.656250   0.531250 0
  0.156250   0.281250 0
  0.593750   0.781250 0
  0.093750   0.531250 0
  0.000000   0.781250 0
  0.625000   0.531250 0
  0.125000   0.281250 0
  0.562500   0.781250 0
  0.062500   0.531250 0
  0.781250   0.968750 0
  0.281250   0.718750 0
  0.218750   0.968750 0
  0.843750   0.718750 0
  0.343750   0.468750 0
  0.281250   0.968750 0
  0.843750   0.968750 0
  0.343750   0.718750 0
  0.906250   0.718750 0
  0.406250   0.468750 0
  0.281250   1.000000 0
  0.906250   0.750000 0
  0.406250   0.500000 0
  0.843750   1.000000 0
  0.343750   0.750000 0
  0.531250   0.000000 0
  0.718750   0.843750 0
  0.218750   0.593750 0
  0.156250   0.843750 0
  0.781250   0.593750 0
  0.281250   0.343750 0
  0.687500   0.843750 0
  0.187500   0.593750 0
  0.750000   0.593750 0
  0.250000   0.343750 0
  0.125000   0.843750 0
  0.218750   0.875000 0
  0.843750   0.625000 0
  0.343750   0.375000 0
  0.781250   0.875000 0
  0.281250   0.625000 0
  0.156250   0.906250 0
  0.781250   0.656250 0
  0.281250   0.406250 0
  0.718750   0.906250 0
  0.218750   0.656250 0
  0.031250   1.000000 0
  0.656250   0.750000 0
  0.156250   0.500000 0
  0.593750   1.000000 0
  0.093750   0.750000 0
  0.218750   1.000000 0
  0.343750   0.500000 0
  0.468750   0.000000 0
  0.406250   0.250000 0
  0.281250   0.750000 0
  0.593750   0.406250 0
  0.093750   0.156250 0
  0.531250   0.656250 0
  0.031250   0.406250 0
[...]
POINT_DATA 1089
SCALARS scalar_value float 1
LOOKUP_TABLE default
-0.24866
-0.248259
-0.247239
-0.24949
-0.241174
-0.244774
-0.245526
-0.250628
-0.247912
-0.246751
-0.24708
-0.24324
-0.807566
-1.14178
-1.21446
-1.63709
-1.60654
-0.301022
-0.241661
-0.651977
-0.372841
-0.261284
-0.271824
-0.287408
-0.269988
-0.249119
-0.246986
-0.286365
-0.301991
-0.559493
-0.236553
-0.256376
-0.254032
-0.241785
-0.261355
-0.248105
-0.340071
-1.17425
-0.25296
-1.58905
-0.249092
-0.262805
-0.243348
-0.244509
-0.243442
-0.272456
-0.244465
-0.288444
-0.270108
-0.352422
-0.259745
-0.261426
-0.242166
-0.246076
-0.276777
-0.249128
-0.502252
-0.242493
-0.678295
-0.244401
-0.251511
-0.242147
-0.252513
-0.224613
-0.68144
-0.494023
-0.242307
-0.251835
-0.239432
-0.35481
-0.248219
-0.313254
-0.241539
-0.250162
-1.05553
-0.241086
-0.254015
-0.241264
-0.250152
-0.243271
-0.255331
-0.232301
-0.243531
-0.344583
-0.229534
-0.342881
-0.467164
-0.292534
-0.250365
-0.251299
-0.233912
-0.246369
-0.274669
-0.2498
-0.249235
-0.248142
-0.245259
-0.245357
-0.257796
-1.47931
-0.203611
-0.092627
-0.240244
-0.0543865
-0.238372
-0.0122674
-0.260758
-0.0737898
-0.242766
-0.0288057
-0.352075
-0.473614
-0.0161201
-0.0958025
0
-0.236928
-0.311055
-0.210027
-0.334492
-0.246216
-0.129146
-0.254981
-0.141657
-0.298478
-0.243902
-0.0537268
-0.854705
-0.230308
-0.249987
-0.0634523
-0.458953
-0.151458
-0.0501326
-0.00805962
-0.421372
-0.338695
-0.0565096
-0.265545
-0.181714
-0.0118663
-0.258227
-0.0798641
-0.243396
-0.0297255
-0.339895
-0.422718
-0.200772
-0.248897
-0.0451057
-0.443968
-0.107267
-0.00924165
-0.0371677
-0.404676
-0.305773
-0.23692
-0.0187682
-0.48486
-0.221905
-0.362861
-0.247765
-0.147842
-0.270766
-0.163605
-0.337254
-0.245191
-0.0757943
-0.253266
-0.170197
-0.00634012
-0.253543
-0.0671551
-0.310224
-0.239058
-0.022908
-0.262729
-0.0162345
-0.195091
-0.254515
-0.0896483
-0.243454
-0.0307017
-0.316145
-0.364734
-0.120868
-0.25362
-0.00883371
-0.184649
-0.252272
-0.0761552
-0.240909
-0.0228413
-0.288202
-0.0674292
-0.027503
-0.00619932
-0.357165
-0.272052
-0.256339
-0.22384
-0.00418051
-0.192354
-0.430768
-0.0870707
-0.369605
-0.245448
-0.0389444
-0.267192
-0.0941721
-0.284674
-0.105726
-0.00258039
-0.211003
-0.316817
-0.245683
-0.161677
-0.297195
-0.225155
-0.394451
-0.0450283
-0.00688554
-0.116459
-0.148857
-0.423027
-0.00897007
-0.0444771
-0.634138
-0.241291
-0.457154
-0.250091
-0.0559289
-0.330564
-0.0453378
-0.252394
-0.113152
-0.242849
-0.0352448
-0.277472
-0.148253
-0.422438
-0.0100881
-0.0411639
-0.512977
-0.252365
-0.456496
-0.250074
-0.0502085
-0.356938
-0.792966
-0.244696
-0.209318
-0.100938
-0.321687
-0.239951
-0.033325
-0.251704
-0.086466
-0.241699
-0.0220763
-0.270382
-0.326899
-0.197771
-0.352976
-0.246464
-0.11101
-0.351954
-0.184109
-0.37066
-0.24671
-0.0942972
-0.23301
-0.00677759
-0.838581
-0.233084
-0.388979
-0.248802
-0.162815
-0.538162
-0.213291
-0.383512
-0.248016
-0.124592
-0.275892
-0.150362
-0.354113
-0.245566
-0.0657495
-0.638969
-0.202347
-0.407213
-0.235693
-0.00892181
-0.248098
-0.107138
-0.281723
-0.135864
-0.245835
-0.0581468
-0.371931
-1.31264
-0.242526
-0.415844
-0.250136
-0.173205
-0.585103
-0.283172
-0.464111
-0.251134
-0.0574363
-0.369945
-1.19831
-0.246957
0
-0.21748
-0.145331
-0.342108
-0.24268
-0.0642899
-0.253042
-0.102443
-0.243099
-0.0333218
-0.296691
-0.290439
-0.0140922
-0.0874713
-0.0354395
-0.00673534
-0.379891
-0.346784
-0.418528
-0.22738
-0.247365
-0.166006
-0.455904
-0.212903
-0.0993655
-0.0114805
-0.471637
0
-0.110996
-0.0171903
-0.23492
-0.437043
-0.220194
-0.0126475
-0.117112
-0.462731
-0.12949
-0.0201972
0
-0.237132
-0.327878
-0.237151
-0.0227083
-0.254717
-0.061666
-0.335145
-0.235386
-0.0212254
-0.254594
-0.0558257
-0.948718
-0.22728
-0.415444
-0.249011
-0.1386
-0.365702
-0.74821
-0.236767
-0.248535
-0.177521
-0.387959
-0.25012
-0.185547
-1.17591
-0.245055
0
-0.256331
-0.128487
-0.307565
-0.244186
-0.0501359
-0.25891
-0.117647
-0.244552
-0.0465052
-0.33006
-0.323554
-0.244835
-0.0923433
-0.267239
-0.181093
-0.398764
-0.246776
-0.0767077
-0.385819
-0.175072
-0.465286
-0.250876
-0.0640289
-0.776987
-0.266726
-0.440486
-0.152852
0
-0.0268541
-0.239795
-0.208653
-0.0129791
-0.244584
-0.0325788
-0.000559708
-0.0240582
-0.125334
-0.249059
-0.243614
-0.0636477
-0.255329
-0.159882
-0.292398
-0.242563
-0.0381447
-0.252349
-0.140074
-0.268451
-0.0109844
-0.241754
-0.0225234
-0.251399
-0.0985696
-0.260045
-0.0108406
-0.0735764
-0.46173
-0.222188
-0.250742
-0.0847898
-0.474172
-1.37354
-0.244216
-0.00861309
-0.0639544
-0.444301
-0.18831
-0.24825
-0.187868
-0.688575
-0.239823
-0.353861
-0.175705
-0.230662
-0.315001
-0.248
-0.196296
-0.67411
-0.241216
-0.350218
-0.249084
-0.0425884
-0.246544
-0.186616
-0.333434
-0.404147
-0.236292
-0.0269778
-0.247644
-0.0387632
-0.154756
-0.299656
-0.225013
-0.0061068
-0.246949
-0.178927
-0.394788
-0.231751
-0.337942
-0.246453
-0.0362722
-0.133584
-0.00472202
-0.220027
-0.297642
-0.247919
-0.203197
-0.718698
-0.242757
-0.351544
-0.0808284
-0.235781
-0.316403
-0.0220298
-0.249744
-0.0458421
-0.447452
-0.263197
-0.243379
-0.0794457
-0.256318
-0.181839
-0.288748
-0.0308031
-0.000437497
-0.144918
-0.249878
-0.244664
-0.106638
-0.266214
-0.197456
-0.307606
-0.0471245
-0.00134582
-0.16213
-0.266718
-0.177464
-0.0132153
-0.246047
-0.143526
-0.320803
-0.298309
-0.219595
-0.00263535
-0.0890093
-0.285101
-0.197978
-0.0168174
0
-0.0154784
-0.0167515
0
-0.00807134
-0.0407165
-0.401923
-0.109181
-0.0101234
-0.0497819
-0.194065
-0.0154817
0
-0.0439063
-0.0170007
-0.249958
-0.196159
-0.370645
-1.06843
-0.245724
0
-0.180082
0
-0.250023
-0.0451333
-0.250765
-0.0724216
-0.469083
-1.06829
-0.252928
-0.00931557
-0.0559684
-0.444221
-0.189937
-0.241714
-0.0226242
-0.25123
-0.110223
-0.253648
-0.0110574
-0.0854075
-0.46192
-0.213945
-0.242675
-0.0361722
-0.269931
-0.252164
-0.12529
-0.263739
-0.232779
-0.292132
-0.0119453
-0.165032
-0.00908667
-0.0322922
-0.00788061
-0.384623
-0.0837645
-0.244524
-0.117301
-0.299733
-0.267552
-0.211812
-0.00130523
-0.0580072
-0.269234
-0.180051
-0.19804
-0.0147231
-0.181173
-0.0142249
-0.246754
-0.0385798
-0.214617
-0.0154434
-0.251354
-0.0523877
-0.490223
-0.299388
-0.248162
-0.0399257
-0.251718
-0.218859
-0.253332
-0.148452
-0.00350572
-0.251818
-0.211929
-0.253655
-0.00141887
-0.294275
-0.0292573
-0.240426
-0.311588
-0.0247579
-0.0127792
-0.188356
-0.25694
-0.215393
-0.242242
-0.0109481
-0.1239
-0.2737
-0.00185381
-0.0252343
-0.00713563
-0.061292
-1.17664
-0.248723
-0.37658
0
-0.164535
-0.22209
-0.351512
-0.0772485
-0.225927
-0.0121379
-0.149315
-0.288823
-0.00457251
-0.0294476
-0.00892113
-0.0820065
-0.247573
-0.0379685
-0.346562
-0.148765
-0.182892
-0.000397587
-0.0497142
-0.256779
-0.0185378
-0.00539315
-0.239488
-0.0263812
-0.242812
-0.031768
-0.198373
-0.0136552
-0.246857
-0.0670049
-0.411884
-0.391141
-0.162809
-0.00126811
-0.0741891
-0.271222
-0.196205
-0.0272993
-0.0101082
-0.0814649
-0.246176
-0.0344702
-0.165298
-0.00038358
-0.0389114
-0.253097
-0.0184481
-0.00677653
-0.265035
-0.236485
-0.0257823
-0.177932
-0.0115604
-0.246184
-0.0507367
-0.3845
-0.289312
-0.126955
-0.244968
-0.0424054
-0.262835
-0.10668
-0.351343
-0.244939
-0.0348067
-0.206473
-0.0144574
-0.0746712
-0.00840643
-0.439692
-0.189021
-0.252141
-0.204251
-0.241073
-0.00835976
-0.0932778
-0.256376
-0.000664472
-0.0198165
-0.00412225
-0.0510126
-0.241036
-0.0691827
-0.252681
-0.194322
-0.258132
-0.000460938
-0.00453554
-0.0189219
-0.0487054
-0.0219201
-0.00922152
-0.24289
-0.0296418
-0.0570694
-0.00730414
-0.415628
-0.154282
-0.0233884
-0.0079953
-0.0596393
-0.244557
-0.0307343
-0.123195
-0.00787907
-0.250921
-0.0477818
-0.013348
-0.168122
-0.231782
-0.302447
-0.0115468
-0.0104055
-0.0334728
-0.111479
-0.248497
-0.0418847
-0.395779
-0.207574
-0.0980733
-0.272599
-0.206304
-0.00131208
-0.442483
-0.239657
-0.333447
-0.249702
-0.204701
-1.08979
-0.245409
-0.365071
0
0
-0.147502
-0.0106926
-0.129344
-0.286183
-0.217779
-0.00299337
-0.240046
-0.0645484
0
-0.0147817
-0.191236
-0.0451484
-0.249593
-0.211538
-1.20797
-0.245643
-0.365978
-0.118798
0
-0.187076
-0.0141173
-0.268145
-0.255488
-0.0211915
-0.228832
-0.0101203
-0.165046
-0.00834907
-0.443843
-0.213415
-0.373324
-0.0132133
-0.218665
-0.123076
-0.279909
-0.0279244
-0.204446
-0.113653
-0.306591
-0.0460207
-0.0115678
-0.211363
-0.306409
-0.428597
-0.0169175
-0.229207
0
-0.190205
0
-0.388525
0
-0.0170813
-0.227249
-0.376275
-0.0152225
-0.219826
-0.144455
-0.264991
-0.399891
-0.0146452
-0.223019
-0.166664
-0.360229
-0.0138494
-0.213573
-0.096394
-0.148895
-0.345495
-0.0774637
-0.0123508
-0.215457
-0.31195
-0.0328869
-0.0122631
-0.202029
-0.285534
-0.0191599
-0.0110741
-0.191696
-0.223913
-0.117285
-0.174217
-0.0138705
-0.225397
-0.0415476
-0.00381094
-0.21819
0
-0.0148257
-0.237128
0
-0.196147
-0.0194947
-0.00198087
-0.209829
-0.226814
-0.14923
-0.0115863
-0.232588
-0.180301
-0.0158706
-0.238399
-0.130475
-0.0992015
-0.00660341
-0.233746
-0.098215
-0.00676144
-0.234293
-0.178879
-0.0127746
-0.228388
-0.03833
-0.211025
-0.0150288
-0.239953
0
0
-0.187334
-0.237592
-0.162306
-0.235836
-0.174819
-0.0143991
-0.239069
0
0
-0.19321
-0.0228459
-0.00112689
-0.208819
-0.032459
-0.000817357
-0.205896
-0.00848491
-0.234816
-0.023956
-0.0107097
-0.194717
-0.229037
-0.145746
-0.222627
-0.230148
-0.11242
-0.0123912
-0.236971
-0.139693
-0.0124771
-0.221294
-0.0633183
-0.215957
-0.10059
-0.0113692
-0.218889
-0.0568339
-0.00222924
-0.21722
-0.0499831
-0.00296436
-0.217988
-0.0906094
-0.00540547
-0.227709
-0.0734935
-0.00362326
-0.222649
-0.0720821
-0.00444127
-0.222478
-0.0213543
-0.238586
-0.126847
-0.0339905
-0.240154
0
-0.150678
0
-0.157886
-0.0641845
-0.210326
-0.0633624
-0.00144011
-0.21327
-0.0767241
-0.00288462
-0.222155
-0.147378
-0.0112395
-0.223936
-0.0887947
-0.00491064
-0.228863
-0.0757621
-0.00296185
-0.221909
-0.0881866
-0.00451263
-0.229323
-0.111091
-0.221464
-0.0745972
-0.00321458
-0.222248
-0.0458473
-0.240132
-0.21886
-0.07297
-0.0884744
-0.00415883
-0.229392
-0.0610361
-0.00168447
-0.215621
-0.0144585
-0.23736
-0.240385
0
-0.176839
-0.0803911
-0.22152
-0.0340145
-0.0051331
-0.215072
-0.027101
-0.238956
-0.0876785
-0.22309
-0.0365787
-0.00440695
-0.217587
-0.210458
-0.0303881
-0.118587
-0.22552
-0.0571543
-0.00586753
-0.220788
-0.215617
-0.0454501
-0.00347036
-0.20341
-0.0136166
-0.00424896
-0.229756
-0.131775
-0.2335
-0.0921235
-0.00584954
-0.22619
-0.0417943
-0.19144
-0.00738198
-0.234746
-0.151822
-0.237964
-0.109431
-0.00688116
-0.229544
-0.0400782
-0.194803
-0.23137
-0.140311
-0.0062388
-0.224282
-0.0921756
-0.240068
-0.151903
-0.00999639
-0.236413
-0.113482
-0.0372061
-0.000702386
-0.199448
0
-0.240487
-0.167146
-0.227419
-0.113295
-0.00528526
-0.221808
-0.0668659
0
-0.197147
0
-0.0163382
-0.234097
-0.00848312
-0.2349
-0.123596
-0.183367
-0.204121
-0.0168337
-0.23086
0
0
-0.194569
-0.104494
-0.00683917
-0.231483
-0.144548
-0.238128
-0.0177397
-0.237544
-0.101158
-0.137718
-0.185296
-0.116996
-0.206916
-0.0203816
-0.00259668
-0.209368
-0.0515697
-0.218941
-0.0175895
-0.00300371
-0.207626
-0.0366417
-0.239103
-0.222441
