# vtk DataFile Version 2.0
Unstructured Grid by M++
ASCII
DATASET UNSTRUCTURED_GRID
POINTS 1072 float
  0.593750   1.000000 0
  0.718750   0.656250 0
  0.625000   0.968750 0
  0.625000   1.000000 0
  0.843750   0.562500 0
  0.875000   0.562500 0
  0.875000   0.531250 0
  0.562500   0.531250 0
  0.687500   1.000000 0
  0.875000   0.593750 0
  0.562500   0.593750 0
  0.625000   0.531250 0
  0.593750   0.562500 0
  0.593750   0.531250 0
  0.562500   0.562500 0
  0.593750   0.625000 0
  0.593750   0.593750 0
  0.562500   0.625000 0
  0.593750   0.687500 0
  0.562500   0.687500 0
  0.906250   0.500000 0
  0.656250   0.750000 0
  0.625000   0.937500 0
  0.593750   0.968750 0
  0.812500   0.531250 0
  0.625000   0.906250 0
  0.906250   0.625000 0
  0.656250   0.593750 0
  0.531250   0.937500 0
  0.593750   0.656250 0
  0.687500   0.562500 0
  0.625000   0.593750 0
  0.656250   0.562500 0
  0.625000   0.562500 0
  0.718750   1.000000 0
  0.687500   0.625000 0
  0.562500   0.968750 0
  0.656250   0.625000 0
  0.531250   0.968750 0
  0.625000   0.625000 0
  0.656250   0.656250 0
  0.531250   1.000000 0
  0.625000   0.656250 0
  0.625000   0.687500 0
  0.937500   0.562500 0
  0.937500   0.656250 0
  0.968750   0.625000 0
  0.937500   0.625000 0
  0.968750   0.593750 0
  0.937500   0.593750 0
  0.843750   0.531250 0
  0.812500   0.562500 0
  0.625000   0.875000 0
  0.812500   0.687500 0
  1.000000   0.625000 0
  0.750000   0.968750 0
  0.843750   0.843750 0
  1.000000   0.937500 0
  1.000000   0.906250 0
  0.937500   0.687500 0
  0.843750   0.781250 0
  0.750000   1.000000 0
  0.968750   0.562500 0
  0.968750   0.937500 0
  0.968750   0.906250 0
  0.968750   0.875000 0
  0.656250   0.781250 0
  1.000000   0.593750 0
  0.562500   0.937500 0
  0.656250   0.843750 0
  1.000000   0.656250 0
  0.656250   0.812500 0
  0.656250   0.875000 0
  0.781250   0.531250 0
  1.000000   0.687500 0
  0.906250   0.906250 0
  0.843750   0.687500 0
  0.843750   0.656250 0
  0.656250   0.906250 0
  0.937500   0.843750 0
  0.937500   0.906250 0
  0.937500   0.937500 0
  0.937500   0.875000 0
  0.625000   0.750000 0
  0.625000   0.812500 0
  0.625000   0.781250 0
  0.906250   1.000000 0
  0.625000   0.843750 0
  0.968750   0.656250 0
  0.968750   0.500000 0
  0.937500   0.531250 0
  0.875000   0.875000 0
  0.875000   0.812500 0
  0.718750   0.968750 0
  0.906250   0.812500 0
  0.843750   0.812500 0
  0.812500   0.812500 0
  0.718750   0.937500 0
  0.687500   0.937500 0
  0.906250   0.593750 0
  0.968750   0.531250 0
  0.875000   0.625000 0
  0.906250   0.875000 0
  0.781250   1.000000 0
  0.968750   0.687500 0
  0.875000   0.781250 0
  0.875000   0.687500 0
  0.812500   0.781250 0
  0.906250   0.687500 0
  0.875000   0.656250 0
  1.000000   0.562500 0
  0.812500   0.750000 0
  0.906250   0.656250 0
  0.843750   0.750000 0
  0.562500   1.000000 0
  0.687500   0.656250 0
  0.562500   0.656250 0
  0.593750   0.906250 0
  0.593750   0.937500 0
  0.562500   0.875000 0
  0.593750   0.843750 0
  0.593750   0.875000 0
  0.750000   0.687500 0
  0.781250   0.687500 0
  0.750000   0.718750 0
  0.781250   0.718750 0
  0.750000   0.750000 0
  0.562500   0.812500 0
  0.593750   0.781250 0
  0.593750   0.812500 0
  0.750000   0.625000 0
  0.781250   0.625000 0
  0.750000   0.656250 0
  0.812500   0.625000 0
  0.781250   0.656250 0
  0.562500   0.906250 0
  0.562500   0.843750 0
  0.562500   0.750000 0
  0.593750   0.750000 0
  0.562500   0.781250 0
  0.656250   0.937500 0
  0.531250   0.531250 0
  0.531250   0.562500 0
  0.531250   0.593750 0
  0.531250   0.625000 0
  0.531250   0.656250 0
  0.531250   0.687500 0
  0.812500   0.593750 0
  0.843750   0.593750 0
  0.781250   0.750000 0
  0.781250   0.781250 0
  0.531250   0.812500 0
  0.531250   0.843750 0
  0.531250   0.750000 0
  0.531250   0.718750 0
  0.531250   0.906250 0
  0.875000   0.843750 0
  0.531250   0.875000 0
  0.718750   0.718750 0
  0.687500   0.687500 0
  0.718750   0.687500 0
  0.718750   0.625000 0
  0.562500   0.718750 0
  0.687500   0.593750 0
  0.718750   0.593750 0
  0.718750   0.562500 0
  0.750000   0.562500 0
  0.656250   0.968750 0
  0.656250   0.687500 0
  1.000000   0.968750 0
  0.625000   0.718750 0
  0.656250   0.718750 0
  0.843750   0.625000 0
  0.812500   0.656250 0
  0.812500   0.718750 0
  0.687500   0.968750 0
  0.656250   1.000000 0
  0.687500   0.531250 0
  0.718750   0.531250 0
  0.906250   0.562500 0
  1.000000   0.531250 0
  0.750000   0.531250 0
  0.750000   0.593750 0
  0.781250   0.875000 0
  0.781250   0.562500 0
  0.781250   0.593750 0
  0.593750   0.281250 0
  0.593750   0.250000 0
  0.562500   0.250000 0
  0.562500   0.031250 0
  0.593750   0.375000 0
  0.718750   0.031250 0
  0.593750   0.343750 0
  0.687500   0.250000 0
  0.656250   0.437500 0
  0.781250   0.093750 0
  0.625000   0.406250 0
  0.750000   0.062500 0
  0.687500   0.500000 0
  0.812500   0.156250 0
  0.593750   0.031250 0
  0.562500   0.000000 0
  0.625000   0.125000 0
  0.625000   0.093750 0
  0.593750   0.093750 0
  0.593750   0.062500 0
  0.687500   0.437500 0
  0.781250   0.343750 0
  0.906250   0.000000 0
  0.781250   0.312500 0
  0.656250   0.406250 0
  0.750000   0.312500 0
  0.687500   0.468750 0
  0.812500   0.125000 0
  0.906250   0.031250 0
  0.656250   0.312500 0
  0.625000   0.281250 0
  0.687500   0.375000 0
  0.656250   0.343750 0
  0.625000   0.312500 0
  0.656250   0.375000 0
  0.625000   0.343750 0
  0.625000   0.375000 0
  0.750000   0.125000 0
  0.625000   0.468750 0
  0.687500   0.062500 0
  0.562500   0.406250 0
  0.656250   0.031250 0
  0.531250   0.375000 0
  0.625000   0.000000 0
  0.656250   0.062500 0
  0.531250   0.406250 0
  0.625000   0.031250 0
  0.625000   0.062500 0
  0.750000   0.406250 0
  0.843750   0.312500 0
  0.812500   0.343750 0
  0.937500   0.000000 0
  0.843750   0.343750 0
  0.968750   0.000000 0
  0.812500   0.312500 0
  0.968750   0.093750 0
  0.937500   0.062500 0
  0.750000   0.187500 0
  0.656250   0.281250 0
  0.843750   0.093750 0
  0.750000   0.156250 0
  0.625000   0.500000 0
  0.843750   0.062500 0
  0.625000   0.250000 0
  0.812500   0.062500 0
  0.968750   0.062500 0
  0.843750   0.375000 0
  0.968750   0.031250 0
  0.812500   0.375000 0
  0.937500   0.031250 0
  0.906250   0.062500 0
  0.781250   0.125000 0
  0.656250   0.468750 0
  0.875000   0.031250 0
  0.937500   0.218750 0
  0.937500   0.250000 0
  0.937500   0.312500 0
  0.937500   0.343750 0
  0.937500   0.375000 0
  0.937500   0.406250 0
  1.000000   0.000000 0
  0.875000   0.343750 0
  0.937500   0.437500 0
  0.562500   0.312500 0
  0.656250   0.218750 0
  1.000000   0.031250 0
  0.875000   0.375000 0
  0.625000   0.437500 0
  0.750000   0.093750 0
  0.968750   0.250000 0
  0.968750   0.343750 0
  0.968750   0.375000 0
  0.968750   0.406250 0
  0.968750   0.468750 0
  0.968750   0.437500 0
  0.937500   0.156250 0
  1.000000   0.406250 0
  1.000000   0.375000 0
  0.875000   0.406250 0
  1.000000   0.062500 0
  0.593750   0.000000 0
  1.000000   0.500000 0
  0.531250   0.000000 0
  1.000000   0.468750 0
  1.000000   0.437500 0
  0.750000   0.375000 0
  0.843750   0.281250 0
  0.156250   0.531250 0
  1.000000   0.312500 0
  0.031250   0.875000 0
  0.000000   0.750000 0
  0.031250   0.750000 0
  0.031250   0.781250 0
  0.031250   0.812500 0
  0.031250   0.843750 0
  0.156250   0.500000 0
  1.000000   0.281250 0
  0.125000   0.968750 0
  0.250000   0.625000 0
  0.187500   1.000000 0
  1.000000   0.718750 0
  0.312500   0.000000 0
  0.312500   0.656250 0
  0.156250   1.000000 0
  0.968750   0.718750 0
  0.281250   0.000000 0
  0.281250   0.656250 0
  0.125000   0.843750 0
  0.156250   0.843750 0
  0.000000   0.718750 0
  0.843750   0.500000 0
  0.281250   0.687500 0
  0.437500   0.781250 0
  0.312500   1.000000 0
  0.281250   1.000000 0
  0.375000   0.781250 0
  0.312500   0.500000 0
  0.437500   0.156250 0
  0.343750   0.500000 0
  0.468750   0.156250 0
  0.250000   0.156250 0
  0.343750   0.125000 0
  0.218750   0.468750 0
  0.375000   0.375000 0
  0.437500   0.312500 0
  0.406250   0.312500 0
  0.062500   0.375000 0
  0.093750   0.281250 0
  0.093750   0.343750 0
  0.937500   0.125000 0
  0.906250   0.718750 0
  0.218750   0.000000 0
  0.250000   0.968750 0
  0.531250   0.062500 0
  0.156250   0.062500 0
  0.312500   0.187500 0
  1.000000   0.875000 0
  0.312500   0.156250 0
  0.281250   0.187500 0
  0.906250   0.781250 0
  0.218750   0.062500 0
  0.718750   0.781250 0
  0.031250   0.062500 0
  0.375000   0.000000 0
  0.718750   0.750000 0
  0.031250   0.031250 0
  0.687500   0.781250 0
  0.000000   0.062500 0
  0.250000   0.500000 0
  0.375000   0.156250 0
  0.281250   0.468750 0
  0.406250   0.125000 0
  0.406250   0.343750 0
  0.062500   0.406250 0
  0.312500   0.437500 0
  0.437500   0.093750 0
  0.781250   0.031250 0
  0.250000   0.468750 0
  0.375000   0.125000 0
  0.281250   0.437500 0
  0.406250   0.093750 0
  0.406250   0.437500 0
  0.406250   0.406250 0
  0.375000   0.437500 0
  0.031250   1.000000 0
  0.187500   0.437500 0
  1.000000   0.812500 0
  0.312500   0.093750 0
  0.218750   0.437500 0
  0.343750   0.093750 0
  0.250000   0.437500 0
  0.375000   0.093750 0
  0.218750   0.406250 0
  0.343750   0.062500 0
  0.250000   0.406250 0
  0.375000   0.062500 0
  0.281250   0.218750 0
  0.187500   0.312500 0
  0.250000   0.218750 0
  0.156250   0.312500 0
  1.000000   0.093750 0
  0.125000   0.312500 0
  0.406250   0.000000 0
  0.750000   0.781250 0
  0.062500   0.062500 0
  0.375000   0.500000 0
  0.500000   0.156250 0
  0.312500   0.968750 0
  0.125000   0.468750 0
  0.500000   0.375000 0
  0.437500   0.406250 0
  0.375000   0.468750 0
  0.468750   0.375000 0
  0.125000   0.437500 0
  0.343750   0.468750 0
  0.468750   0.125000 0
  0.437500   0.375000 0
  0.093750   0.437500 0
  0.125000   0.093750 0
  0.500000   0.937500 0
  0.718750   0.906250 0
  0.031250   0.187500 0
  0.687500   0.906250 0
  0.000000   0.187500 0
  0.937500   0.781250 0
  0.250000   0.062500 0
[...]
POINT_DATA 1072
SCALARS scalar_value float 1
LOOKUP_TABLE default
0
-0.0231199
0.0257222
0
-0.000584587
0.00298256
0.000605548
-0.00164092
0
0.00458249
-0.0120617
-0.0080441
0.0101153
0.00382947
-0.00341023
0.0213197
0.0162655
-0.0394761
0.000407248
-0.109816
-0.00046331
0.923448
-0.0163378
-0.0267499
-0.00257367
0.0110343
0.00144283
0.00632274
0.0458715
-0.0156383
-0.00238513
-0.0124084
0.014907
-0.012602
0
-0.0216539
0.0343617
0.0121249
-0.0537381
-0.00543812
0.0439307
0
-0.0181873
-0.0185235
-6.7444e-05
-0.000224524
-0.000130853
-0.000560666
0.000417519
-0.00143261
0.00127465
-0.00398768
0.153894
0.0159137
0.000426156
0.00113658
-0.00115494
2.31087e-05
-3.41781e-05
0.000206988
-0.000124111
0
0.00036644
4.25604e-05
-3.0953e-05
2.41043e-05
1.06997
-0.000142079
-0.0277655
0.444072
-3.83659e-05
0.937964
0.0978719
0.000725997
-4.71779e-05
-0.000237764
0.00258755
-0.00488168
0.00193787
1.59933e-06
-1.93823e-05
-1.99155e-05
-2.28935e-05
0.406642
1.00362
1.0913
0
0.477928
-0.000206912
0.000185201
0.000434811
-0.000908073
-3.97133e-05
-0.00498304
3.65764e-05
0.000184511
-0.00168107
-0.00479135
-0.000364708
-0.000106306
0.000439593
0.00155686
7.54777e-05
0
1.60975e-05
-0.000104628
-0.00336484
-0.00313432
0.000652157
-0.00219126
8.40461e-06
-0.0057411
0.00166909
0.00289466
0
-0.0127845
-0.0745738
-0.0343828
0.00959365
0.159683
0.532304
0.15129
-0.0485423
-0.0327007
0.0284062
-0.0486559
0.126033
1.03288
1.03354
1.02567
-0.0152656
0.0131737
-0.0475371
0.00615327
-0.00189824
0.0116196
0.515387
0.258651
-0.484887
1.15138
-0.0032615
0.000686124
0.00104479
0.00109718
0.00735342
0.0771219
0.303005
-0.00229916
-0.00409073
-0.0372529
-0.0182382
0.849247
0.558008
0.978776
0.597931
-0.0772804
0.000894242
0.191894
0.335031
0.157269
0.0692723
-0.010295
0.0403133
-0.0030513
0.00202511
0.00149927
0.000484557
-0.0133061
0.182367
1.41854e-05
0.13424
0.496958
-0.00826321
0.0172473
0.00284818
0.00933049
0
-0.00219736
0.000550463
-0.00469808
-0.000467544
-0.000503476
-5.12696e-05
-0.00322938
0.00331723
0.00969243
-1.52176e-06
3.73403e-06
2.05693e-07
1.5942e-08
-3.28649e-05
2.19166e-08
-1.65387e-05
-3.332e-06
6.47593e-05
3.28087e-08
-8.16285e-06
-2.80652e-08
-0.00111499
-3.81363e-08
-1.9586e-08
1.21742e-08
1.08894e-07
8.50986e-08
-2.02588e-08
-3.01818e-08
-3.6359e-05
3.56762e-05
-1.14808e-09
5.7218e-06
9.27566e-06
-1.54494e-05
-9.85782e-05
-2.32881e-08
-2.85196e-09
5.31061e-06
-2.57017e-06
-1.72272e-05
4.64586e-06
3.76105e-07
5.01184e-06
5.00172e-06
8.02151e-06
2.12462e-07
-0.000217607
5.27778e-08
-9.01792e-06
-2.3512e-08
-1.07186e-05
6.81513e-09
-1.19765e-08
7.62043e-05
1.40285e-08
1.71843e-08
-8.87448e-05
-3.07635e-06
-1.52392e-05
6.10953e-10
6.49628e-06
-2.01079e-10
1.8602e-06
-8.1889e-09
6.10981e-09
9.86385e-07
4.52333e-06
3.10298e-08
5.36638e-07
-0.00231931
2.1774e-09
-3.46874e-06
-1.26362e-08
-4.63593e-09
3.57504e-05
-1.36171e-09
-8.07632e-05
2.19305e-09
-5.70214e-09
-4.26282e-08
0.000220412
2.99192e-09
-4.64632e-07
-5.64483e-07
4.23502e-06
1.13923e-05
8.88984e-06
-7.70005e-06
0
-3.32934e-06
-0.00011388
1.27921e-05
1.81075e-06
6.06686e-10
-3.00172e-05
-6.16327e-05
3.11873e-08
6.30054e-07
-4.02788e-06
-2.13802e-05
-1.19115e-05
-5.39217e-05
2.80445e-05
-9.2642e-08
1.91268e-05
3.74204e-06
-7.41339e-05
2.82005e-09
-9.31541e-09
-0.000373307
-7.36191e-09
-1.77049e-05
9.61264e-05
-6.11608e-05
-5.38383e-06
0.00111183
-6.06974e-07
5.22645e-05
-6.40133e-05
3.20513e-05
6.93066e-05
1.23886e-05
4.31742e-05
-3.92365e-05
-7.0857e-07
-0.000428814
0.0118266
0
-2.78375e-05
-4.79594e-09
-0.057688
0
1.06253e-05
4.45397e-09
-0.0587752
0.00155585
-0.00152535
2.02577e-06
0.00148461
-0.0233631
0.882104
0
0
0.984213
0.00240793
-5.30997e-08
-0.000776917
5.41536e-09
3.88712e-08
2.9876e-07
-0.000321331
1.38279e-05
2.75432e-06
-2.0536e-06
1.64327e-05
-1.28356e-06
-3.91513e-06
-1.49388e-08
-0.000257169
-9.83425e-10
-0.00169446
1.78153e-08
6.98367e-10
-1.20851e-06
-7.26902e-06
-4.64996e-07
6.33636e-07
0.000376238
1.58e-08
0.55504
-1.30483e-09
1.13662e-09
0.594702
0
1.03928
2.33223e-10
0.00056834
-5.63719e-07
-0.000620695
3.51237e-07
-3.94923e-06
4.26596e-06
0.000136705
-2.87156e-07
8.03283e-09
0.000529934
-3.91826e-07
-0.000125835
2.4696e-07
0.000102528
2.85664e-05
-0.000297549
0
0.000101783
6.02946e-05
-1.64016e-08
-0.000143759
9.07606e-08
0.000207675
-1.95353e-07
-1.5154e-05
1.61607e-08
5.16154e-05
-6.21469e-08
1.95796e-06
-5.25256e-06
-2.43655e-07
2.40442e-06
6.70523e-09
1.36604e-06
2.95629e-10
0.145389
2.21335e-09
-0.00265221
-9.47011e-08
0.00416328
-0.000274502
-1.9673e-05
-7.34876e-06
-0.00126634
-1.45652e-05
4.53613e-05
7.64725e-05
2.01478e-07
-1.19472e-05
2.8156e-05
-3.82789e-09
-0.0669756
0.00128561
1.36474e-07
-0.000838253
-6.95402e-08
-0.000109438
-1.47619e-08
1.62856e-05
1.32265e-07
0.000381876
8.34055e-08
-6.63763e-08
0.000149417
5.16849e-06
2.64345e-08
-0.000540187
0.000245698
-3.34565e-07
0.000181394
-1.60552e-08
-1.39478e-05
-7.73885e-09
-8.51651e-07
7.78842e-07
4.11079e-07
-1.20477e-07
-1.7504e-06
2.79111e-08
-3.94236e-09
0.000230312
-0.00023683
7.18917e-07
-6.66761e-08
0.00102575
5.26191e-07
1.95332e-08
-1.18189e-08
0.000773827
-3.80219e-07
1.80976e-05
5.60123e-09
0.000162476
2.59825e-07
5.67938e-08
-1.60997e-05
-1.12072e-07
0.000364635
0.00144016
-1.01086e-05
0.000169836
0
-1.69705e-07
-9.00884e-08
-2.19827e-09
0.032149
8.37903e-07
-4.53185e-05
-1.63391e-07
-2.95996e-07
-2.56778e-05
-8.25696e-05
-1.21115e-07
2.36871e-08
0.0612
1.96309e-09
5.14507e-05
8.45651e-08
-1.70023e-07
2.62019e-06
0.00209999
-7.3651e-06
9.34233e-10
6.10032e-10
0.637384
7.57343e-10
-2.38955e-07
0.000758943
1.35757e-07
-0.000518615
2.78025e-07
-2.13931e-10
0.0729141
0
3.8215e-06
-4.27856e-07
-7.25404e-09
-1.34553e-06
-0.000102497
1.72317e-06
5.33962e-08
-4.62266e-06
0.000462861
-2.85608e-07
-4.8029e-06
-4.43596e-06
8.56384e-09
4.55293e-05
9.61525e-07
9.27575e-05
1.83524e-07
-7.2155e-06
1.92774e-08
3.36394e-07
-3.12801e-08
-3.78659e-06
1.35878e-05
-0.000241384
6.22933e-07
-0.000577239
-1.11593e-07
0.000333513
-2.84663e-06
8.20497e-07
-1.72682e-07
2.67523e-06
2.05528e-05
-6.41194e-09
1.15985e-06
-7.10978e-09
2.94742e-08
0.313935
-4.97478e-09
-0.00021737
0.0646788
-8.03201e-10
1.5338e-09
0.0990213
1.76018e-07
1.1426e-06
-0.000126087
0.000123022
0.000645416
-9.68333e-07
0.243437
5.35262e-09
0.000472648
-0.00504874
-1.00367e-09
0.105157
0.000679244
0.520117
-2.21669e-10
2.81064e-06
-1.99478e-05
-1.5453e-06
3.43042e-06
-1.98068e-06
1.97832e-06
-0.00013235
0.00108898
-1.04231e-07
5.89619e-05
3.34761e-06
-7.30554e-07
3.29661e-08
0.00206933
-1.74845e-08
0
-7.75922e-05
-1.97914e-07
-4.91788e-05
-6.97497e-09
0.000479426
2.24913e-07
9.12741e-08
-5.13462e-08
0.000486804
-1.01833e-07
-0.000340908
-9.88002e-05
0.000729327
-5.78745e-05
-2.64066e-07
0.00127077
8.98229e-09
-7.41129e-05
3.06941e-10
0.882592
0.898738
-3.16427e-10
0
0.000564156
-0.000584083
-4.28228e-07
0.665674
3.84507e-09
0.000156656
-0.00117878
-2.16224e-10
0.590853
0.000187183
1.29874e-07
6.65809e-08
-3.34116e-06
-5.32564e-06
-0.000217933
-6.06157e-08
0.000235682
2.63984e-08
1.16598e-08
1.53602e-06
1.25066e-09
-0.000702525
-0.000209974
-4.59198e-06
0.0431814
-1.25899e-08
0
0
-1.62951e-07
0
-7.85723e-06
1.05858e-06
-0.00190711
7.15211e-07
-4.37723e-08
-2.12166e-05
-0.00256123
6.59811e-09
-1.42102e-07
1.46953e-05
5.33875e-10
0.25047
3.10352e-06
8.15263e-06
6.80544e-07
0.000636666
0.0508257
-7.90552e-05
-2.29133e-06
0
2.02035e-06
3.52223e-05
1.78876e-09
0
5.08749e-06
4.42061e-07
-9.68831e-06
4.27496e-06
-0.0045127
8.49203e-07
1.90735e-05
1.37405e-05
0.000759301
3.34107e-08
0
0
-2.01237e-06
1.68794e-05
-2.96817e-06
0.00547435
-5.98146e-07
-1.04443e-09
0.0163733
-7.68544e-09
-3.49694e-08
1.0437e-05
5.08882e-08
-0.00163977
1.29753e-09
0.00211384
3.01067e-09
-2.28029e-08
0.00601591
-1.03665e-09
-0.000496541
2.19904e-07
1.50744e-07
-0.00186057
2.84077e-08
0.000127853
-1.09575e-06
-3.8437e-05
-5.50352e-07
7.33104e-06
-7.50005e-09
6.26979e-05
-0.0229843
1.53441e-08
0.00106865
-1.97203e-07
0.00240831
5.46414e-08
2.9508e-05
-3.3291e-06
7.04991e-07
-4.47554e-05
3.36717e-09
-1.53702e-06
-1.99411e-10
3.25376e-05
-1.5055e-09
0
5.63849e-10
0.141333
-1.88753e-10
0.80386
-3.27347e-05
1.25076e-07
-4.80157e-09
-1.11513e-06
-0.00156398
9.49941e-07
3.0996e-07
1.67285e-09
-0.00048201
3.65842e-06
5.91164e-09
5.18255e-05
4.9931e-10
-2.03349e-07
-2.01207e-09
-9.13685e-06
3.86652e-08
-2.22354e-05
-7.92633e-09
-0.000216681
3.16007e-05
0.0157764
-2.53509e-05
-1.1298e-05
-6.93874e-10
-0.000123404
8.03627e-05
0.138356
-6.51203e-06
-4.34922e-05
-3.38964e-09
-7.90276e-09
-1.00019e-06
-1.27767e-07
-5.49057e-07
-1.15488e-09
4.84317e-05
-8.034e-05
0.134034
-6.14813e-06
-1.35365e-08
4.55191e-05
7.93328e-09
0.000240816
-0.000883454
-8.78662e-06
-6.97553e-08
5.98443e-05
6.16709e-09
-1.03591e-06
3.18655e-06
6.79178e-06
0.00916714
-1.71834e-08
2.59058e-06
-5.8106e-09
2.05767e-07
-0.00174648
-5.12292e-08
-0.000220295
0.0231597
-0.000178264
0.000274355
0.000217309
-0.0126513
-0.00479291
-0.00542332
0.00295088
4.30553e-05
-0.000611601
2.44994e-05
0.0505596
-0.000454565
-0.000137176
0.000978625
3.94673e-05
-3.30042e-05
-5.91303e-05
0.00465493
0.000252191
0
-0.0257773
-0.0465898
-0.0334097
0.000207386
0.000181247
0.0311487
0.00565558
-0.000117822
1.00564
0.545306
0.0119908
0.000470174
6.80039e-06
0.0101957
-0.0597455
-0.0487808
-0.0292201
-0.000973166
1.27837e-05
-0.013198
-0.0382582
0.000147037
-0.000509181
8.11109e-05
0.00824538
-4.80957e-05
0.00160439
0.00149838
0.000749785
-0.000321994
-0.000583846
-0.0013665
0
-0.000535386
0.000605602
-0.000300526
-0.000174217
5.21314e-05
-0.102491
0.138004
0.00131712
0.00198445
0.00631724
0.000654148
-0.00790072
0.756462
0.573591
-0.000334717
9.45538e-05
0.00423777
0
7.94167e-09
0.0871361
-0.0512396
0.0406461
0.511185
0.0167842
0.868802
0.0828407
1.37896e-07
-0.00133434
-0.00590035
1.06954
-0.00112845
-0.00104386
0.0076742
0.00324761
0.00442555
0.0970437
0.975521
-0.0275321
1.29965e-07
0.00017992
-0.00138373
-0.00348218
0.199214
0.00839896
-0.168187
-0.00234926
0.160971
-0.00226179
-1.6643e-08
-0.0340479
1.07393
1.095
-0.0081155
-0.00490742
-0.0148897
0.207765
0.910144
0.955345
-0.00436464
-2.64791e-08
-0.000316735
1.63462e-05
0.0184422
1.00794
0.314708
0.000176972
-3.8655e-05
0.00772181
-0.00303224
-0.0288957
0.644108
8.74588e-05
0.0167181
0
0.000222305
-0.000135296
0.227856
-2.90308e-06
0.00297965
-0.0641692
0.025025
-0.00414912
0.0327036
0
-0.000552036
0.00657481
-0.00123627
0.0043153
0.708666
0.00377192
0.0371239
-0.000225437
0.00264133
0.916438
0.702291
-0.00195278
0.00127788
0.00458474
0.673802
0.900893
0.00493333
0.475816
-0.00404059
0.00967245
-0.00323266
0.261856
0.983335
1.1262
-0.00538128
-8.71666e-05
0.000231239
-2.0685e-05
-0.0070746
0.0702624
-1.85027e-08
-0.00255124
0.00050814
0.298276
0.000181392
0.00368644
0.0658267
2.4082e-08
0.0130875
0.000722602
0.121236
0.548017
0.56344
0.000408344
-0.000600973
-0.00628473
-0.00196953
-5.5641e-05
0.00808411
0.0144232
-6.20944e-05
0.0144191
0.000281044
-0.00499469
-7.21478e-05
-7.00356e-05
0.00246801
-0.000106788
-0.000908528
2.21689e-06
9.88476e-05
-0.00240319
-0.000621599
-8.50198e-06
-0.000677607
0.000737951
0.00244989
-0.00106065
-5.85899e-05
-5.41547e-05
0.00100958
-2.92447e-07
-0.00317841
1.05915e-08
0.000156971
0.000747424
-0.00145659
0.00038574
4.53103e-05
-7.35862e-06
-0.000558091
6.15845e-05
-2.66306e-09
8.01465e-10
0.000406889
-2.06611e-06
-3.20729e-06
-0.00116612
-0.000554026
0.000364428
-0.000256434
0.000517164
-0.000404989
0.000340536
1.97805e-06
-1.09242e-06
-1.13042e-06
7.57229e-07
-3.86728e-07
-5.8724e-07
0.00017965
-0.00103814
-0.000168854
-4.59981e-07
6.84716e-07
2.16113e-07
1.6943e-09
8.66199e-09
-2.91683e-05
-1.76432e-05
3.07388e-08
2.51591e-05
3.32529e-05
-1.29724e-05
-2.71559e-07
0.175769
1.83291e-07
-3.27309e-07
-0.184013
-3.18778e-07
4.73265e-08
-7.93532e-08
4.44256e-05
0.000107434
-3.68151e-05
-6.56025e-06
-1.4356e-06
-1.38784e-07
8.85416e-05
-5.82994e-07
4.52855e-07
-3.85793e-07
2.53734e-07
1.91835e-06
-3.14196e-08
9.30214e-07
-9.45369e-09
-4.60005e-05
-6.26853e-06
4.04404e-06
-2.10652e-06
-2.72187e-06
1.80136e-06
-2.23542e-07
3.90369e-07
3.86283e-08
-9.07103e-08
-0.000154442
4.15925e-07
-7.7504e-07
1.23931
-4.46889e-07
-0.000408967
0.947712
3.13362e-07
0.00015973
0.000232459
3.63664e-06
-1.06159e-05
0.536865
3.89368e-07
4.32023e-06
-3.23315e-07
0.000520316
3.04745e-05
0.000333315
-3.68189e-09
4.38839e-05
0
8.32189e-05
0.715376
-2.35498e-07
