# vtk DataFile Version 2.0
Unstructured Grid by M++
ASCII
DATASET UNSTRUCTURED_GRID
POINTS 1072 float
  0.593750   1.000000 0
  0.718750   0.656250 0
  0.625000   0.968750 0
  0.625000   1.000000 0
  0.843750   0.562500 0
  0.875000   0.562500 0
  0.875000   0.531250 0
  0.562500   0.531250 0
  0.687500   1.000000 0
  0.875000   0.593750 0
  0.562500   0.593750 0
  0.625000   0.531250 0
  0.593750   0.562500 0
  0.593750   0.531250 0
  0.562500   0.562500 0
  0.593750   0.625000 0
  0.593750   0.593750 0
  0.562500   0.625000 0
  0.593750   0.687500 0
  0.562500   0.687500 0
  0.906250   0.500000 0
  0.656250   0.750000 0
  0.625000   0.937500 0
  0.593750   0.968750 0
  0.812500   0.531250 0
  0.625000   0.906250 0
  0.906250   0.625000 0
  0.656250   0.593750 0
  0.531250   0.937500 0
  0.593750   0.656250 0
  0.687500   0.562500 0
  0.625000   0.593750 0
  0.656250   0.562500 0
  0.625000   0.562500 0
  0.718750   1.000000 0
  0.687500   0.625000 0
  0.562500   0.968750 0
  0.656250   0.625000 0
  0.531250   0.968750 0
  0.625000   0.625000 0
  0.656250   0.656250 0
  0.531250   1.000000 0
  0.625000   0.656250 0
  0.625000   0.687500 0
  0.937500   0.562500 0
  0.937500   0.656250 0
  0.968750   0.625000 0
  0.937500   0.625000 0
  0.968750   0.593750 0
  0.937500   0.593750 0
  0.843750   0.531250 0
  0.812500   0.562500 0
  0.625000   0.875000 0
  0.812500   0.687500 0
  1.000000   0.625000 0
  0.750000   0.968750 0
  0.843750   0.843750 0
  1.000000   0.937500 0
  1.000000   0.906250 0
  0.937500   0.687500 0
  0.843750   0.781250 0
  0.750000   1.000000 0
  0.968750   0.562500 0
  0.968750   0.937500 0
  0.968750   0.906250 0
  0.968750   0.875000 0
  0.656250   0.781250 0
  1.000000   0.593750 0
  0.562500   0.937500 0
  0.656250   0.843750 0
  1.000000   0.656250 0
  0.656250   0.812500 0
  0.656250   0.875000 0
  0.781250   0.531250 0
  1.000000   0.687500 0
  0.906250   0.906250 0
  0.843750   0.687500 0
  0.843750   0.656250 0
  0.656250   0.906250 0
  0.937500   0.843750 0
  0.937500   0.906250 0
  0.937500   0.937500 0
  0.937500   0.875000 0
  0.625000   0.750000 0
  0.625000   0.812500 0
  0.625000   0.781250 0
  0.906250   1.000000 0
  0.625000   0.843750 0
  0.968750   0.656250 0
  0.968750   0.500000 0
  0.937500   0.531250 0
  0.875000   0.875000 0
  0.875000   0.812500 0
  0.718750   0.968750 0
  0.906250   0.812500 0
  0.843750   0.812500 0
  0.812500   0.812500 0
  0.718750   0.937500 0
  0.687500   0.937500 0
  0.906250   0.593750 0
  0.968750   0.531250 0
  0.875000   0.625000 0
  0.906250   0.875000 0
  0.781250   1.000000 0
  0.968750   0.687500 0
  0.875000   0.781250 0
  0.875000   0.687500 0
  0.812500   0.781250 0
  0.906250   0.687500 0
  0.875000   0.656250 0
  1.000000   0.562500 0
  0.812500   0.750000 0
  0.906250   0.656250 0
  0.843750   0.750000 0
  0.562500   1.000000 0
  0.687500   0.656250 0
  0.562500   0.656250 0
  0.593750   0.906250 0
  0.593750   0.937500 0
  0.562500   0.875000 0
  0.593750   0.843750 0
  0.593750   0.875000 0
  0.750000   0.687500 0
  0.781250   0.687500 0
  0.750000   0.718750 0
  0.781250   0.718750 0
  0.750000   0.750000 0
  0.562500   0.812500 0
  0.593750   0.781250 0
  0.593750   0.812500 0
  0.750000   0.625000 0
  0.781250   0.625000 0
  0.750000   0.656250 0
  0.812500   0.625000 0
  0.781250   0.656250 0
  0.562500   0.906250 0
  0.562500   0.843750 0
  0.562500   0.750000 0
  0.593750   0.750000 0
  0.562500   0.781250 0
  0.656250   0.937500 0
  0.531250   0.531250 0
  0.531250   0.562500 0
  0.531250   0.593750 0
  0.531250   0.625000 0
  0.531250   0.656250 0
  0.531250   0.687500 0
  0.812500   0.593750 0
  0.843750   0.593750 0
  0.781250   0.750000 0
  0.781250   0.781250 0
  0.531250   0.812500 0
  0.531250   0.843750 0
  0.531250   0.750000 0
  0.531250   0.718750 0
  0.531250   0.906250 0
  0.875000   0.843750 0
  0.531250   0.875000 0
  0.718750   0.718750 0
  0.687500   0.687500 0
  0.718750   0.687500 0
  0.718750   0.625000 0
  0.562500   0.718750 0
  0.687500   0.593750 0
  0.718750   0.593750 0
  0.718750   0.562500 0
  0.750000   0.562500 0
  0.656250   0.968750 0
  0.656250   0.687500 0
  1.000000   0.968750 0
  0.625000   0.718750 0
  0.656250   0.718750 0
  0.843750   0.625000 0
  0.812500   0.656250 0
  0.812500   0.718750 0
  0.687500   0.968750 0
  0.656250   1.000000 0
  0.687500   0.531250 0
  0.718750   0.531250 0
  0.906250   0.562500 0
  1.000000   0.531250 0
  0.750000   0.531250 0
  0.750000   0.593750 0
  0.781250   0.875000 0
  0.781250   0.562500 0
  0.781250   0.593750 0
  0.593750   0.281250 0
  0.593750   0.250000 0
  0.562500   0.250000 0
  0.562500   0.031250 0
  0.593750   0.375000 0
  0.718750   0.031250 0
  0.593750   0.343750 0
  0.687500   0.250000 0
  0.656250   0.437500 0
  0.781250   0.093750 0
  0.625000   0.406250 0
  0.750000   0.062500 0
  0.687500   0.500000 0
  0.812500   0.156250 0
  0.593750   0.031250 0
  0.562500   0.000000 0
  0.625000   0.125000 0
  0.625000   0.093750 0
  0.593750   0.093750 0
  0.593750   0.062500 0
  0.687500   0.437500 0
  0.781250   0.343750 0
  0.906250   0.000000 0
  0.781250   0.312500 0
  0.656250   0.406250 0
  0.750000   0.312500 0
  0.687500   0.468750 0
  0.812500   0.125000 0
  0.906250   0.031250 0
  0.656250   0.312500 0
  0.625000   0.281250 0
  0.687500   0.375000 0
  0.656250   0.343750 0
  0.625000   0.312500 0
  0.656250   0.375000 0
  0.625000   0.343750 0
  0.625000   0.375000 0
  0.750000   0.125000 0
  0.625000   0.468750 0
  0.687500   0.062500 0
  0.562500   0.406250 0
  0.656250   0.031250 0
  0.531250   0.375000 0
  0.625000   0.000000 0
  0.656250   0.062500 0
  0.531250   0.406250 0
  0.625000   0.031250 0
  0.625000   0.062500 0
  0.750000   0.406250 0
  0.843750   0.312500 0
  0.812500   0.343750 0
  0.937500   0.000000 0
  0.843750   0.343750 0
  0.968750   0.000000 0
  0.812500   0.312500 0
  0.968750   0.093750 0
  0.937500   0.062500 0
  0.750000   0.187500 0
  0.656250   0.281250 0
  0.843750   0.093750 0
  0.750000   0.156250 0
  0.625000   0.500000 0
  0.843750   0.062500 0
  0.625000   0.250000 0
  0.812500   0.062500 0
  0.968750   0.062500 0
  0.843750   0.375000 0
  0.968750   0.031250 0
  0.812500   0.375000 0
  0.937500   0.031250 0
  0.906250   0.062500 0
  0.781250   0.125000 0
  0.656250   0.468750 0
  0.875000   0.031250 0
  0.937500   0.218750 0
  0.937500   0.250000 0
  0.937500   0.312500 0
  0.937500   0.343750 0
  0.937500   0.375000 0
  0.937500   0.406250 0
  1.000000   0.000000 0
  0.875000   0.343750 0
  0.937500   0.437500 0
  0.562500   0.312500 0
  0.656250   0.218750 0
  1.000000   0.031250 0
  0.875000   0.375000 0
  0.625000   0.437500 0
  0.750000   0.093750 0
  0.968750   0.250000 0
  0.968750   0.343750 0
  0.968750   0.375000 0
  0.968750   0.406250 0
  0.968750   0.468750 0
  0.968750   0.437500 0
  0.937500   0.156250 0
  1.000000   0.406250 0
  1.000000   0.375000 0
  0.875000   0.406250 0
  1.000000   0.062500 0
  0.593750   0.000000 0
  1.000000   0.500000 0
  0.531250   0.000000 0
  1.000000   0.468750 0
  1.000000   0.437500 0
  0.750000   0.375000 0
  0.843750   0.281250 0
  0.156250   0.531250 0
  1.000000   0.312500 0
  0.031250   0.875000 0
  0.000000   0.750000 0
  0.031250   0.750000 0
  0.031250   0.781250 0
  0.031250   0.812500 0
  0.031250   0.843750 0
  0.156250   0.500000 0
  1.000000   0.281250 0
  0.125000   0.968750 0
  0.250000   0.625000 0
  0.187500   1.000000 0
  1.000000   0.718750 0
  0.312500   0.000000 0
  0.312500   0.656250 0
  0.156250   1.000000 0
  0.968750   0.718750 0
  0.281250   0.000000 0
  0.281250   0.656250 0
  0.125000   0.843750 0
  0.156250   0.843750 0
  0.000000   0.718750 0
  0.843750   0.500000 0
  0.281250   0.687500 0
  0.437500   0.781250 0
  0.312500   1.000000 0
  0.281250   1.000000 0
  0.375000   0.781250 0
  0.312500   0.500000 0
  0.437500   0.156250 0
  0.343750   0.500000 0
  0.468750   0.156250 0
  0.250000   0.156250 0
  0.343750   0.125000 0
  0.218750   0.468750 0
  0.375000   0.375000 0
  0.437500   0.312500 0
  0.406250   0.312500 0
  0.062500   0.375000 0
  0.093750   0.281250 0
  0.093750   0.343750 0
  0.937500   0.125000 0
  0.906250   0.718750 0
  0.218750   0.000000 0
  0.250000   0.968750 0
  0.531250   0.062500 0
  0.156250   0.062500 0
  0.312500   0.187500 0
  1.000000   0.875000 0
  0.312500   0.156250 0
  0.281250   0.187500 0
  0.906250   0.781250 0
  0.218750   0.062500 0
  0.718750   0.781250 0
  0.031250   0.062500 0
  0.375000   0.000000 0
  0.718750   0.750000 0
  0.031250   0.031250 0
  0.687500   0.781250 0
  0.000000   0.062500 0
  0.250000   0.500000 0
  0.375000   0.156250 0
  0.281250   0.468750 0
  0.406250   0.125000 0
  0.406250   0.343750 0
  0.062500   0.406250 0
  0.312500   0.437500 0
  0.437500   0.093750 0
  0.781250   0.031250 0
  0.250000   0.468750 0
  0.375000   0.125000 0
  0.281250   0.437500 0
  0.406250   0.093750 0
  0.406250   0.437500 0
  0.406250   0.406250 0
  0.375000   0.437500 0
  0.031250   1.000000 0
  0.187500   0.437500 0
  1.000000   0.812500 0
  0.312500   0.093750 0
  0.218750   0.437500 0
  0.343750   0.093750 0
  0.250000   0.437500 0
  0.375000   0.093750 0
  0.218750   0.406250 0
  0.343750   0.062500 0
  0.250000   0.406250 0
  0.375000   0.062500 0
  0.281250   0.218750 0
  0.187500   0.312500 0
  0.250000   0.218750 0
  0.156250   0.312500 0
  1.000000   0.093750 0
  0.125000   0.312500 0
  0.406250   0.000000 0
  0.750000   0.781250 0
  0.062500   0.062500 0
  0.375000   0.500000 0
  0.500000   0.156250 0
  0.312500   0.968750 0
  0.125000   0.468750 0
  0.500000   0.375000 0
  0.437500   0.406250 0
  0.375000   0.468750 0
  0.468750   0.375000 0
  0.125000   0.437500 0
  0.343750   0.468750 0
  0.468750   0.125000 0
  0.437500   0.375000 0
  0.093750   0.437500 0
  0.125000   0.093750 0
  0.500000   0.937500 0
  0.718750   0.906250 0
  0.031250   0.187500 0
  0.687500   0.906250 0
  0.000000   0.187500 0
  0.937500   0.781250 0
  0.250000   0.062500 0
[...]
POINT_DATA 1072
SCALARS scalar_value float 1
LOOKUP_TABLE default
0
-0.00184284
0.00777593
0
0.00192177
-0.00198491
-0.001472
0.000353209
0
-0.000924648
0.000307217
0.00050138
-0.000356786
-0.000317713
0.000380526
0.00828794
0.000566761
-0.000578519
0.0199601
-0.098539
0.000114134
0.295238
-0.0295182
-0.022278
-0.000115172
0.117124
-0.00159835
0.00284934
0.0187878
0.0206582
-0.00100912
-0.00356538
0.0014189
-6.23349e-05
0
-0.00135735
0.0158037
0.00469547
-0.0357897
-0.00811485
0.00828798
0
-0.00913034
-0.0250758
0.000668121
-0.000417451
0.000359991
8.90683e-05
5.39995e-05
0.000844943
0.000716419
-0.00065867
0.498021
0.00598287
-0.000373771
-0.0014611
-0.000748872
-0.000182164
8.48519e-05
-0.000550985
0.00111265
0
-0.000225149
2.9121e-06
-8.02241e-05
3.48828e-05
0.717411
-0.000234882
-0.0608037
0.965922
-5.40605e-06
1.12308
0.45048
5.01105e-05
0.000105337
-0.000125434
-0.0071559
-0.00385548
0.0994513
-7.59277e-05
0.000132267
-5.29162e-05
-0.000106488
-0.00522931
1.10623
0.568973
0
0.957527
0.000315283
-0.00019115
4.57471e-05
7.01065e-05
0.00098335
-0.00219375
-8.36106e-05
-0.00115362
0.00119657
-0.00318915
-0.00726397
-0.00146996
-0.000339197
0.00212407
-2.50168e-05
0
-1.26082e-07
-0.000144284
0.00162841
0.00455444
0.000812566
0.00345724
-0.000150122
0.0138041
-0.000700385
0.000502045
0
-0.00656516
-0.0170809
0.0861608
-0.0196882
0.543813
1.0051
0.531564
-0.0271668
0.015236
-0.0577091
-0.00417486
-0.0248345
1.13717
0.420306
1.10362
0.00161213
0.00393324
-0.000388035
-0.00559041
0.0127565
0.131179
0.984961
-0.088989
-0.380265
0.590192
-0.0128184
-0.000286051
-0.000418871
-0.000695116
-0.0013576
-0.00150608
0.0183936
-0.00272076
0.00242631
-0.0333226
-0.0406525
1.10049
0.982118
0.411552
0.118137
0.0490524
0.000145353
0.58637
0.0052652
-0.0173892
-0.0261306
0.00282634
-0.172975
-0.00117183
0.000237456
0.000197471
-0.000184521
-0.00836367
-0.00129395
0.000131198
-0.0583504
0.0539602
0.00156097
-0.0043922
0.0152077
0.00343569
0
-0.000202304
0.000190402
0.00207466
0.000267398
1.45862e-05
-0.000397575
-0.00466991
-6.09136e-06
0.000106744
4.42871e-08
-8.07887e-07
5.93488e-08
-9.72519e-10
-3.97421e-06
-1.1759e-09
-2.66612e-07
8.78162e-07
-1.05856e-05
-5.25447e-09
6.83277e-06
3.15927e-09
2.79161e-05
2.36681e-08
2.93547e-10
0
-1.47865e-08
-4.47631e-09
4.01479e-09
2.26284e-09
-2.90984e-06
-8.94294e-06
0
-3.03073e-06
-7.67286e-07
4.10152e-06
1.77865e-05
5.81815e-09
0
-8.90608e-07
5.82963e-07
3.24322e-07
-1.2341e-07
6.42329e-08
3.48869e-07
-3.23546e-07
1.11139e-06
3.37806e-09
5.04873e-05
3.65069e-09
3.35939e-05
-9.20361e-10
-1.46267e-05
5.83832e-10
-2.37912e-10
-3.74194e-05
2.16571e-10
-6.05838e-10
5.55436e-06
1.79069e-07
6.15837e-06
0
-3.30663e-06
0
1.39786e-06
3.00672e-10
0
-8.95275e-08
-9.86956e-07
-6.03329e-10
-2.43681e-08
0.000237985
5.09111e-10
8.07879e-07
1.18728e-10
0
-1.05898e-05
0
1.8145e-05
0
1.70615e-10
-1.2598e-08
-5.28329e-06
0
5.78884e-08
1.34645e-07
-7.45002e-07
-3.94618e-06
-4.12501e-06
1.53855e-06
0
4.56489e-07
3.18701e-05
-1.87107e-07
-4.5183e-07
0
6.76102e-06
1.71872e-05
8.1273e-09
-9.32616e-08
1.57265e-06
6.928e-06
1.04885e-05
-9.59313e-07
-1.56759e-05
1.04083e-09
-8.02245e-06
-3.70096e-06
1.43117e-05
0
-2.52618e-10
0.0002594
4.10985e-10
3.71347e-05
-3.03756e-05
8.98939e-06
9.46386e-07
-7.15357e-06
1.20062e-07
5.94768e-05
-8.75249e-05
3.56822e-05
3.45596e-05
2.15754e-06
6.9679e-05
-0.000124265
1.42081e-07
-4.99319e-06
0.00148042
0
9.71513e-06
0
-0.0129456
0
-9.58732e-05
3.05272e-10
0.00866386
0.000965039
-0.00151734
-1.78696e-06
0.000169153
-0.0340042
0.382527
0
0
0.552793
-0.000409397
-6.21121e-08
0.000552617
6.99822e-08
-1.3651e-08
4.28899e-10
0.000169075
-4.47037e-06
-5.41039e-07
2.13367e-07
-5.83019e-06
3.28124e-07
2.76284e-06
-1.40937e-09
0.000848387
1.07766e-10
-0.00555812
-6.08885e-10
4.64876e-10
1.8123e-08
-2.04193e-05
-1.7583e-09
6.35184e-09
-5.83437e-05
4.84206e-10
0.471492
0
4.55361e-10
0.205978
0
0.822022
0
-3.0873e-05
8.85705e-09
0.000157382
-9.29371e-09
1.46511e-06
-3.30791e-06
-6.74976e-05
9.77735e-09
1.8747e-10
-0.000128299
8.94597e-09
4.27063e-05
-6.19564e-09
3.89863e-06
5.7951e-06
-3.64094e-05
0
-0.000112108
-1.22751e-05
-1.07511e-09
0.000103805
2.59339e-09
-6.39046e-05
4.91068e-10
6.56772e-05
2.07688e-10
-5.22212e-05
-1.12035e-09
-6.02979e-09
4.28756e-07
-3.08171e-08
4.05575e-07
0
-1.31636e-06
-1.26972e-10
0.0520152
0
-0.000487779
-1.70003e-08
-0.00166797
7.61357e-05
1.75259e-05
-2.17507e-06
-0.000105222
-3.76246e-06
-1.86591e-05
0.000122989
1.58777e-08
-1.09158e-06
-6.96126e-06
-5.78724e-10
-0.0967763
0.0070496
5.8679e-09
0.0314101
-5.08412e-09
2.45017e-05
6.98851e-10
-4.50404e-06
-4.51398e-09
-0.000219267
-1.32812e-08
3.39663e-09
-0.000151925
-8.85314e-07
-2.18221e-09
0.000287028
-0.000274747
3.01498e-08
0.000293264
-2.35712e-08
-2.80353e-05
0
1.22011e-06
-5.83407e-07
-6.12925e-07
6.80484e-07
1.09629e-07
4.07404e-09
-7.35427e-09
-0.000394017
-0.000269754
-1.39369e-07
-3.36089e-09
0.00123868
-7.62188e-08
1.48657e-08
3.99089e-10
0.00834977
1.39511e-06
6.60301e-05
4.28684e-09
0.000413706
-6.03523e-08
-6.88122e-10
-7.68098e-07
-5.10286e-06
-0.000103012
0.0153919
-6.84465e-06
-5.71808e-05
0
-1.39789e-06
-2.80747e-08
0
0.174391
2.56256e-06
3.22738e-05
3.03103e-08
-2.29794e-07
7.15114e-06
-3.25161e-05
-6.50391e-09
7.27618e-10
0.0729233
-2.70658e-10
-9.71357e-05
8.01665e-08
2.49292e-08
1.3075e-06
-0.0205561
1.70935e-06
-2.50297e-08
0
0.957891
7.63924e-10
2.37511e-09
-0.000162072
1.43652e-08
-0.000268928
-3.67679e-07
-2.63612e-10
0.221467
0
8.19656e-07
-7.54031e-08
-3.15507e-10
1.05206e-07
5.18919e-06
-1.1082e-07
8.28234e-08
1.73181e-05
-0.000188146
-5.43622e-07
1.50308e-06
1.57387e-06
-6.27547e-10
-9.63342e-06
-1.49015e-07
5.91888e-05
-1.27772e-06
1.57394e-06
-3.23609e-07
1.38787e-08
-2.3796e-10
-4.62752e-07
-2.3575e-05
-2.56625e-05
-1.78715e-07
0.000199996
5.90926e-08
-5.48782e-05
3.47092e-07
-6.4196e-09
3.13577e-07
-2.69448e-06
8.93306e-05
3.6751e-09
1.4972e-07
-6.21808e-10
-5.27819e-10
0.498927
0
7.8852e-05
0.233051
1.76279e-09
0
0.519727
4.61173e-06
-2.73711e-08
0.000128314
0.000168302
0.00054987
3.89295e-07
0.672578
-8.16165e-10
-4.84171e-05
-0.0119227
0
0.432517
-0.000180415
0.045947
0
-1.29793e-07
-1.10522e-05
-3.9939e-07
-1.09986e-06
-2.55657e-08
9.4149e-06
-7.8405e-05
0.000941135
6.72828e-08
3.71227e-05
3.88757e-08
1.94715e-07
-1.09446e-09
0.000889332
-7.05504e-10
0
3.9812e-06
1.21919e-08
-1.07525e-05
-2.55847e-09
-0.000127824
-8.29595e-09
-6.47818e-09
-1.63167e-07
0.00131683
7.35787e-10
0.000228952
-5.59965e-05
-7.85199e-05
1.19287e-06
1.23928e-07
0.00888849
-1.79716e-09
2.84191e-06
0
1.20067
0.345241
0
0
-0.000279432
-0.000498901
1.1334e-08
1.00681
0
-2.89554e-05
0.00193119
0
1.16933
-3.08071e-05
-1.24339e-07
-1.87045e-09
-5.05572e-06
4.57969e-07
-0.00114814
-6.70433e-09
5.74528e-05
5.93815e-08
5.59177e-10
-1.45521e-07
-3.73312e-10
0.000131705
7.74261e-05
-1.9143e-05
0.225226
-3.12632e-09
0
0
6.6379e-07
0
-6.2349e-08
1.46347e-10
0.0023879
-7.5965e-08
5.44424e-09
-9.43959e-06
-0.00439194
4.33829e-10
2.71462e-09
-0.00139338
-2.35113e-10
-0.0365606
2.59158e-06
-2.4572e-07
-1.42323e-08
0.000547628
0.0107404
1.38521e-05
-1.53851e-08
0
-7.5828e-07
3.18338e-06
-3.62272e-10
0
1.04716e-05
-8.18554e-08
-1.81877e-07
-9.8345e-07
0.00373439
1.85974e-07
4.7216e-06
1.74016e-05
0.0304334
4.55545e-09
0
0
-4.74182e-07
6.0001e-07
2.20573e-07
0.00309424
2.67855e-08
0
0.0257778
-2.28216e-09
1.90507e-09
-3.59279e-06
9.98077e-10
-0.00107493
0
-0.0247304
7.53597e-10
-5.38788e-10
-0.00427774
0
-0.000417678
4.8842e-08
2.82344e-07
-0.00032218
1.48076e-07
-3.22509e-05
2.4596e-09
1.26124e-05
6.54182e-08
-3.52356e-06
-8.11202e-10
2.23516e-05
0.00329516
1.14547e-09
-0.00139459
-8.59956e-09
-0.000577788
-1.57832e-07
1.58749e-05
4.11713e-07
1.59904e-06
3.00234e-05
4.6529e-10
-5.20789e-07
1.04766e-09
-8.37274e-06
-2.79169e-10
0
0
0.620938
0
1.18852
2.90126e-05
-3.28114e-10
-2.72472e-10
1.10612e-07
0.000247731
-5.99967e-08
-6.20233e-09
0
0.000129605
-5.10352e-07
-6.26998e-10
2.0759e-05
-7.45839e-10
-2.55764e-09
0
7.73189e-07
9.32543e-10
5.72263e-05
-3.92161e-10
6.34885e-05
-9.68967e-05
0.103484
-1.24065e-05
-9.86284e-07
1.41604e-09
4.1875e-05
5.46595e-05
0.560026
-5.03e-06
-7.64694e-05
7.92503e-10
-3.40104e-10
3.36383e-08
2.37167e-08
2.58895e-08
1.34308e-10
-2.29976e-05
-0.00025017
0.511059
1.38605e-06
-1.18786e-09
1.88097e-05
-1.51312e-10
0.000327336
0.102783
5.62142e-06
3.78633e-10
2.42229e-05
-1.75545e-09
4.31531e-09
-1.02361e-06
-1.84293e-06
0.0142639
3.41022e-10
-6.82221e-07
9.65522e-10
2.25167e-08
0.000294329
-2.21352e-08
0.000237832
-0.0083433
0.000411621
-9.54529e-05
-0.000258133
0.00477633
-0.00845907
-0.0019332
0.00235375
-0.000105944
-0.000403064
-3.64498e-05
-0.00537343
3.67017e-05
0.000121871
1.74658e-05
3.5218e-05
8.57812e-06
7.16411e-05
-0.00126598
0.000425076
0
-0.0333191
-0.0241785
0.0106517
-6.75498e-05
0.000314102
0.143243
0.00153068
-0.000399355
0.503734
0.0384589
0.0134525
-0.000328366
-1.73099e-06
-0.0578911
-0.0153666
-0.00196016
0.015937
0.000540676
-1.11272e-06
-0.0417283
-0.0334602
-0.000586067
0.0002022
-1.25846e-05
-0.00146453
-0.000169988
-0.00112555
-0.00025193
0.000924883
-0.000152458
-0.000689349
0.000193921
0
0.000135331
0.000300154
0.000179398
-0.000135476
4.46666e-05
0.0147624
0.0502805
-0.000154202
-0.00128342
0.00115267
0.00052097
0.000378416
-0.0692791
0.0875856
0.00144597
-1.68641e-05
0.0386339
0
-1.36147e-09
0.00771806
-0.043467
-0.00450261
0.0628205
0.00568579
0.24705
0.0145885
-3.37453e-08
-0.00125732
-0.010203
0.838761
0.0033908
-0.00411785
0.00327697
-0.00519896
0.00748105
-0.0472428
0.432771
0.0147636
-1.00413e-08
-0.000446155
-0.000917075
0.000350133
0.0226861
0.00143728
-0.096183
-0.000818302
0.609851
-0.00158834
9.88961e-10
-0.000654889
0.746086
0.925813
-0.00136241
-0.00464054
-0.00444214
0.00902828
1.0652
1.16378
-0.0273564
1.60924e-08
0.000696986
-3.62317e-06
0.0418324
0.591077
0.0495146
-0.00149704
7.94188e-06
0.0466489
0.000789857
-0.0108826
0.155386
0.000142611
-0.00491575
0
0.00106244
2.66441e-05
-0.000202803
6.55505e-07
0.00123179
-0.0452164
-0.0407377
2.51729e-05
0.219527
0
0.000197923
-0.00380051
0.000315365
-0.0200265
1.1218
-0.00643418
0.118035
3.1485e-05
-0.0204141
0.597639
0.113815
-0.0018849
-0.000203819
-7.44437e-05
1.00191
1.17162
0.0118846
0.930268
-0.00905604
-0.00281977
0.00229127
0.722314
0.887721
0.911125
-0.0160258
0.000746392
-5.18984e-05
-0.000529772
0.0134379
0.0721722
2.62052e-10
0.000396039
5.22911e-05
0.521815
-0.000245381
-0.000528724
0.216199
-9.01409e-10
-0.00144795
0.00043913
-0.0327004
0.174831
0.482451
-0.000454793
0.00219964
0.000341788
-0.00416254
5.13254e-05
-0.00429065
-0.00270854
1.23791e-05
0.00529652
-9.46888e-05
0.00179972
-0.000224725
-0.00133606
-0.000746981
-0.000132591
0.000866859
-5.69588e-07
0.0002187
0.000237785
0.000569337
2.78714e-06
-0.000226732
-0.00110434
0.000160745
0.000281618
-3.3857e-05
-3.47837e-05
-0.000523575
1.56688e-07
0.00297323
1.2667e-10
-8.19518e-05
-0.000159847
-0.00130079
0.000813543
0.000178767
1.87368e-06
-8.4018e-05
-1.51167e-05
-3.17311e-10
2.06646e-10
-7.04001e-05
2.23476e-07
2.21142e-07
3.00335e-05
-2.57676e-05
-3.34283e-06
7.93284e-06
6.17688e-05
7.71039e-06
-1.93975e-05
-1.34248e-07
-4.76168e-08
7.53207e-08
-5.03799e-08
2.50229e-08
3.56371e-08
-0.000151913
-0.0158382
1.85215e-05
2.78125e-07
4.72369e-09
-1.31717e-07
0
-8.44386e-10
-3.45006e-06
-1.78134e-07
-2.77924e-09
-4.36272e-06
-2.77105e-06
1.50583e-06
9.8503e-08
-0.0475584
-7.4353e-09
-1.69418e-08
-0.0227466
1.93474e-08
-2.46025e-08
1.21786e-09
-1.8182e-06
-6.0705e-06
4.5057e-07
2.73225e-07
6.8804e-08
-3.90678e-09
-6.27927e-05
4.18194e-08
-2.27224e-08
1.31829e-08
-3.26468e-09
-1.79191e-07
3.29179e-10
-5.84957e-07
-4.97257e-09
-1.82363e-05
2.60847e-07
-2.61332e-07
1.33311e-06
-4.88083e-07
1.59203e-07
1.33702e-08
-5.01542e-08
9.05927e-10
1.07309e-08
7.90445e-06
4.31473e-08
4.78596e-08
0.829099
5.3801e-08
2.47601e-05
0.369229
-2.98752e-08
-1.72032e-05
-5.51067e-06
-4.76142e-07
2.07575e-06
0.0187727
-4.01578e-08
-3.08503e-07
-5.77418e-09
1.90449e-05
1.47426e-06
-6.89325e-05
1.31544e-09
9.71938e-06
0
-1.39971e-05
0.218354
1.62383e-08
