# vtk DataFile Version 2.0
Unstructured Grid by M++
ASCII
DATASET UNSTRUCTURED_GRID
POINTS 1072 float
  0.593750   1.000000 0
  0.718750   0.656250 0
  0.625000   0.968750 0
  0.625000   1.000000 0
  0.843750   0.562500 0
  0.875000   0.562500 0
  0.875000   0.531250 0
  0.562500   0.531250 0
  0.687500   1.000000 0
  0.875000   0.593750 0
  0.562500   0.593750 0
  0.625000   0.531250 0
  0.593750   0.562500 0
  0.593750   0.531250 0
  0.562500   0.562500 0
  0.593750   0.625000 0
  0.593750   0.593750 0
  0.562500   0.625000 0
  0.593750   0.687500 0
  0.562500   0.687500 0
  0.906250   0.500000 0
  0.656250   0.750000 0
  0.625000   0.937500 0
  0.593750   0.968750 0
  0.812500   0.531250 0
  0.625000   0.906250 0
  0.906250   0.625000 0
  0.656250   0.593750 0
  0.531250   0.937500 0
  0.593750   0.656250 0
  0.687500   0.562500 0
  0.625000   0.593750 0
  0.656250   0.562500 0
  0.625000   0.562500 0
  0.718750   1.000000 0
  0.687500   0.625000 0
  0.562500   0.968750 0
  0.656250   0.625000 0
  0.531250   0.968750 0
  0.625000   0.625000 0
  0.656250   0.656250 0
  0.531250   1.000000 0
  0.625000   0.656250 0
  0.625000   0.687500 0
  0.937500   0.562500 0
  0.937500   0.656250 0
  0.968750   0.625000 0
  0.937500   0.625000 0
  0.968750   0.593750 0
  0.937500   0.593750 0
  0.843750   0.531250 0
  0.812500   0.562500 0
  0.625000   0.875000 0
  0.812500   0.687500 0
  1.000000   0.625000 0
  0.750000   0.968750 0
  0.843750   0.843750 0
  1.000000   0.937500 0
  1.000000   0.906250 0
  0.937500   0.687500 0
  0.843750   0.781250 0
  0.750000   1.000000 0
  0.968750   0.562500 0
  0.968750   0.937500 0
  0.968750   0.906250 0
  0.968750   0.875000 0
  0.656250   0.781250 0
  1.000000   0.593750 0
  0.562500   0.937500 0
  0.656250   0.843750 0
  1.000000   0.656250 0
  0.656250   0.812500 0
  0.656250   0.875000 0
  0.781250   0.531250 0
  1.000000   0.687500 0
  0.906250   0.906250 0
  0.843750   0.687500 0
  0.843750   0.656250 0
  0.656250   0.906250 0
  0.937500   0.843750 0
  0.937500   0.906250 0
  0.937500   0.937500 0
  0.937500   0.875000 0
  0.625000   0.750000 0
  0.625000   0.812500 0
  0.625000   0.781250 0
  0.906250   1.000000 0
  0.625000   0.843750 0
  0.968750   0.656250 0
  0.968750   0.500000 0
  0.937500   0.531250 0
  0.875000   0.875000 0
  0.875000   0.812500 0
  0.718750   0.968750 0
  0.906250   0.812500 0
  0.843750   0.812500 0
  0.812500   0.812500 0
  0.718750   0.937500 0
  0.687500   0.937500 0
  0.906250   0.593750 0
  0.968750   0.531250 0
  0.875000   0.625000 0
  0.906250   0.875000 0
  0.781250   1.000000 0
  0.968750   0.687500 0
  0.875000   0.781250 0
  0.875000   0.687500 0
  0.812500   0.781250 0
  0.906250   0.687500 0
  0.875000   0.656250 0
  1.000000   0.562500 0
  0.812500   0.750000 0
  0.906250   0.656250 0
  0.843750   0.750000 0
  0.562500   1.000000 0
  0.687500   0.656250 0
  0.562500   0.656250 0
  0.593750   0.906250 0
  0.593750   0.937500 0
  0.562500   0.875000 0
  0.593750   0.843750 0
  0.593750   0.875000 0
  0.750000   0.687500 0
  0.781250   0.687500 0
  0.750000   0.718750 0
  0.781250   0.718750 0
  0.750000   0.750000 0
  0.562500   0.812500 0
  0.593750   0.781250 0
  0.593750   0.812500 0
  0.750000   0.625000 0
  0.781250   0.625000 0
  0.750000   0.656250 0
  0.812500   0.625000 0
  0.781250   0.656250 0
  0.562500   0.906250 0
  0.562500   0.843750 0
  0.562500   0.750000 0
  0.593750   0.750000 0
  0.562500   0.781250 0
  0.656250   0.937500 0
  0.531250   0.531250 0
  0.531250   0.562500 0
  0.531250   0.593750 0
  0.531250   0.625000 0
  0.531250   0.656250 0
  0.531250   0.687500 0
  0.812500   0.593750 0
  0.843750   0.593750 0
  0.781250   0.750000 0
  0.781250   0.781250 0
  0.531250   0.812500 0
  0.531250   0.843750 0
  0.531250   0.750000 0
  0.531250   0.718750 0
  0.531250   0.906250 0
  0.875000   0.843750 0
  0.531250   0.875000 0
  0.718750   0.718750 0
  0.687500   0.687500 0
  0.718750   0.687500 0
  0.718750   0.625000 0
  0.562500   0.718750 0
  0.687500   0.593750 0
  0.718750   0.593750 0
  0.718750   0.562500 0
  0.750000   0.562500 0
  0.656250   0.968750 0
  0.656250   0.687500 0
  1.000000   0.968750 0
  0.625000   0.718750 0
  0.656250   0.718750 0
  0.843750   0.625000 0
  0.812500   0.656250 0
  0.812500   0.718750 0
  0.687500   0.968750 0
  0.656250   1.000000 0
  0.687500   0.531250 0
  0.718750   0.531250 0
  0.906250   0.562500 0
  1.000000   0.531250 0
  0.750000   0.531250 0
  0.750000   0.593750 0
  0.781250   0.875000 0
  0.781250   0.562500 0
  0.781250   0.593750 0
  0.593750   0.281250 0
  0.593750   0.250000 0
  0.562500   0.250000 0
  0.562500   0.031250 0
  0.593750   0.375000 0
  0.718750   0.031250 0
  0.593750   0.343750 0
  0.687500   0.250000 0
  0.656250   0.437500 0
  0.781250   0.093750 0
  0.625000   0.406250 0
  0.750000   0.062500 0
  0.687500   0.500000 0
  0.812500   0.156250 0
  0.593750   0.031250 0
  0.562500   0.000000 0
  0.625000   0.125000 0
  0.625000   0.093750 0
  0.593750   0.093750 0
  0.593750   0.062500 0
  0.687500   0.437500 0
  0.781250   0.343750 0
  0.906250   0.000000 0
  0.781250   0.312500 0
  0.656250   0.406250 0
  0.750000   0.312500 0
  0.687500   0.468750 0
  0.812500   0.125000 0
  0.906250   0.031250 0
  0.656250   0.312500 0
  0.625000   0.281250 0
  0.687500   0.375000 0
  0.656250   0.343750 0
  0.625000   0.312500 0
  0.656250   0.375000 0
  0.625000   0.343750 0
  0.625000   0.375000 0
  0.750000   0.125000 0
  0.625000   0.468750 0
  0.687500   0.062500 0
  0.562500   0.406250 0
  0.656250   0.031250 0
  0.531250   0.375000 0
  0.625000   0.000000 0
  0.656250   0.062500 0
  0.531250   0.406250 0
  0.625000   0.031250 0
  0.625000   0.062500 0
  0.750000   0.406250 0
  0.843750   0.312500 0
  0.812500   0.343750 0
  0.937500   0.000000 0
  0.843750   0.343750 0
  0.968750   0.000000 0
  0.812500   0.312500 0
  0.968750   0.093750 0
  0.937500   0.062500 0
  0.750000   0.187500 0
  0.656250   0.281250 0
  0.843750   0.093750 0
  0.750000   0.156250 0
  0.625000   0.500000 0
  0.843750   0.062500 0
  0.625000   0.250000 0
  0.812500   0.062500 0
  0.968750   0.062500 0
  0.843750   0.375000 0
  0.968750   0.031250 0
  0.812500   0.375000 0
  0.937500   0.031250 0
  0.906250   0.062500 0
  0.781250   0.125000 0
  0.656250   0.468750 0
  0.875000   0.031250 0
  0.937500   0.218750 0
  0.937500   0.250000 0
  0.937500   0.312500 0
  0.937500   0.343750 0
  0.937500   0.375000 0
  0.937500   0.406250 0
  1.000000   0.000000 0
  0.875000   0.343750 0
  0.937500   0.437500 0
  0.562500   0.312500 0
  0.656250   0.218750 0
  1.000000   0.031250 0
  0.875000   0.375000 0
  0.625000   0.437500 0
  0.750000   0.093750 0
  0.968750   0.250000 0
  0.968750   0.343750 0
  0.968750   0.375000 0
  0.968750   0.406250 0
  0.968750   0.468750 0
  0.968750   0.437500 0
  0.937500   0.156250 0
  1.000000   0.406250 0
  1.000000   0.375000 0
  0.875000   0.406250 0
  1.000000   0.062500 0
  0.593750   0.000000 0
  1.000000   0.500000 0
  0.531250   0.000000 0
  1.000000   0.468750 0
  1.000000   0.437500 0
  0.750000   0.375000 0
  0.843750   0.281250 0
  0.156250   0.531250 0
  1.000000   0.312500 0
  0.031250   0.875000 0
  0.000000   0.750000 0
  0.031250   0.750000 0
  0.031250   0.781250 0
  0.031250   0.812500 0
  0.031250   0.843750 0
  0.156250   0.500000 0
  1.000000   0.281250 0
  0.125000   0.968750 0
  0.250000   0.625000 0
  0.187500   1.000000 0
  1.000000   0.718750 0
  0.312500   0.000000 0
  0.312500   0.656250 0
  0.156250   1.000000 0
  0.968750   0.718750 0
  0.281250   0.000000 0
  0.281250   0.656250 0
  0.125000   0.843750 0
  0.156250   0.843750 0
  0.000000   0.718750 0
  0.843750   0.500000 0
  0.281250   0.687500 0
  0.437500   0.781250 0
  0.312500   1.000000 0
  0.281250   1.000000 0
  0.375000   0.781250 0
  0.312500   0.500000 0
  0.437500   0.156250 0
  0.343750   0.500000 0
  0.468750   0.156250 0
  0.250000   0.156250 0
  0.343750   0.125000 0
  0.218750   0.468750 0
  0.375000   0.375000 0
  0.437500   0.312500 0
  0.406250   0.312500 0
  0.062500   0.375000 0
  0.093750   0.281250 0
  0.093750   0.343750 0
  0.937500   0.125000 0
  0.906250   0.718750 0
  0.218750   0.000000 0
  0.250000   0.968750 0
  0.531250   0.062500 0
  0.156250   0.062500 0
  0.312500   0.187500 0
  1.000000   0.875000 0
  0.312500   0.156250 0
  0.281250   0.187500 0
  0.906250   0.781250 0
  0.218750   0.062500 0
  0.718750   0.781250 0
  0.031250   0.062500 0
  0.375000   0.000000 0
  0.718750   0.750000 0
  0.031250   0.031250 0
  0.687500   0.781250 0
  0.000000   0.062500 0
  0.250000   0.500000 0
  0.375000   0.156250 0
  0.281250   0.468750 0
  0.406250   0.125000 0
  0.406250   0.343750 0
  0.062500   0.406250 0
  0.312500   0.437500 0
  0.437500   0.093750 0
  0.781250   0.031250 0
  0.250000   0.468750 0
  0.375000   0.125000 0
  0.281250   0.437500 0
  0.406250   0.093750 0
  0.406250   0.437500 0
  0.406250   0.406250 0
  0.375000   0.437500 0
  0.031250   1.000000 0
  0.187500   0.437500 0
  1.000000   0.812500 0
  0.312500   0.093750 0
  0.218750   0.437500 0
  0.343750   0.093750 0
  0.250000   0.437500 0
  0.375000   0.093750 0
  0.218750   0.406250 0
  0.343750   0.062500 0
  0.250000   0.406250 0
  0.375000   0.062500 0
  0.281250   0.218750 0
  0.187500   0.312500 0
  0.250000   0.218750 0
  0.156250   0.312500 0
  1.000000   0.093750 0
  0.125000   0.312500 0
  0.406250   0.000000 0
  0.750000   0.781250 0
  0.062500   0.062500 0
  0.375000   0.500000 0
  0.500000   0.156250 0
  0.312500   0.968750 0
  0.125000   0.468750 0
  0.500000   0.375000 0
  0.437500   0.406250 0
  0.375000   0.468750 0
  0.468750   0.375000 0
  0.125000   0.437500 0
  0.343750   0.468750 0
  0.468750   0.125000 0
  0.437500   0.375000 0
  0.093750   0.437500 0
  0.125000   0.093750 0
  0.500000   0.937500 0
  0.718750   0.906250 0
  0.031250   0.187500 0
  0.687500   0.906250 0
  0.000000   0.187500 0
  0.937500   0.781250 0
  0.250000   0.062500 0
[...]
POINT_DATA 1072
SCALARS scalar_value float 1
LOOKUP_TABLE default
0
0.00206854
0.000405459
0
-0.00395293
-0.000523377
0.00799837
0.0110067
0
0.000258147
0.00485618
0.0208926
0.00139216
0.0223353
0.0161429
0.00726523
0.0146154
0.0116073
-0.0022629
0.00862565
-0.0629699
0.00184934
-0.000558371
0.00125383
0.00367574
0.0010603
-0.00420385
0.00218494
0.000231655
0.00821721
-0.00871528
-0.00898279
0.0299206
0.0142669
0
-0.000550303
0.00179406
-0.00693828
0.00291832
0.00581293
0.00445508
0
-0.000874561
-0.00298199
-0.0179905
0.00385079
-0.00363544
-0.00455893
0.00121165
0.00786273
0.00279849
-0.00608918
-0.00123884
3.97856e-05
-0.0036286
-0.000329497
0.00015424
3.39864e-05
-8.99741e-05
-0.00301943
0.00172561
0
0.00404964
0.000128989
-9.82044e-05
-0.000187298
0.000512242
0.00858059
-0.000760829
0.00214115
0.000484922
-0.00119261
-0.00110516
-0.00520553
0.000703602
-0.000387208
-0.00115488
-0.000259337
0.00106167
-0.000400128
6.63721e-05
-0.000175633
-0.000110314
-0.00612392
-0.00156801
0.00311326
0
0.00172299
0.00315851
-0.00597523
0.0248375
-0.000488429
-0.000957588
3.69366e-05
-0.000864885
-0.00144495
-0.00187173
-0.000643051
-0.000348021
0.00344439
-0.00208222
-0.00173898
5.69978e-05
0
-0.0012396
0.0014025
-0.00349244
0.00231406
-0.00295934
0.00340657
-0.0120276
-0.0010486
0.00381084
-0.00260306
0
-0.00137236
-0.00632704
0.00173141
-0.00134063
-0.000844223
0.00183094
-0.00198499
-0.0023896
-0.00216015
0.00194305
0.00146103
-0.00168741
-0.000962043
0.00120174
-0.00142373
-0.00278138
-0.00312281
0.00239855
-0.00433985
0.00353896
0.0012717
0.000420444
0.00203462
3.86007e-05
0.000351818
-0.000221081
0.00809215
-0.00747278
0.0118707
-0.0136873
0.00808539
-0.00150765
0.00642172
0.00101251
0.000125465
0.000530737
-0.000541739
0.00193529
0.00239255
-0.00217631
0.00281084
0.00049059
-0.000754435
0.0025517
-9.42287e-05
-0.00375814
-0.00102755
-0.00227172
0.00144458
-0.00305366
0.00411941
-0.00233139
0.000687415
-0.00291014
0.0002114
0.0037348
0.000182705
0.00096707
0.00174726
0.000544143
0.00030668
0
0.0198978
-0.00300924
0.005298
0.0102612
0.000789342
0.00149254
-0.0031923
0.00167268
0.000625739
1.11493
2.33724
1.62458
1.73541
0.16102
1.25397
0.353748
0.767607
0.218011
0.318497
0.172217
0.954361
-0.00650393
0.0236145
0.869645
1.38088
1.94062
1.62565
1.47877
1.15477
-0.0277384
0.0320496
-0.00357194
-0.0376075
0.352008
0.00641188
0.00049578
0.0202172
-0.00542965
0.890757
1.12051
0.10765
0.573357
0.739717
0.415436
0.51151
0.241789
0.622131
0.0175054
1.45188
0.0752249
0.215713
0.0740837
0.326234
0.167971
0.0314489
0.775975
1.38357
0.000903725
-0.0256059
0.0516011
0.0017586
0.040446
0.000532487
-0.0516702
0.000668263
0.000867432
0.264882
1.04498
-0.0471319
0.442825
0.00754971
-0.0464607
1.9334
0.138581
0.000900021
-0.0454082
0.000753813
-0.0325056
0.00106843
-0.00739058
0.200509
0.226335
0.00168458
0.00106107
-0.00146125
-0.00270137
-0.00036051
-0.00632871
0.00331673
-0.000932907
0.0191571
-0.020042
0.364083
1.7872
-0.000968691
-0.027566
0.0504093
0.844052
-0.000341478
0.00110945
0.000754468
0.00282642
0.00883125
-0.00167244
0.000563213
0.00157282
-0.00134474
0.0399906
-0.000878683
0.516496
-0.0104388
1.88447
0.00476486
-0.00214832
0.000940513
0.0167871
-0.00416804
-0.00185613
2.37964e-05
-0.000310194
-0.000203238
1.0323e-05
-5.0382e-06
2.8689e-05
0.010916
0.00165277
0.000121145
-0.0051638
0
-0.000348575
1.37807
0.000169259
0
2.6155e-06
0.867756
-0.000712844
0.000202773
8.92708e-05
0.000478699
0.000878365
-0.000113702
-0.00157084
0
0
-0.000325815
0.00603714
1.70597
0.00524989
1.76789
0.439289
1.69969
-0.00489381
0.0896699
0.553479
1.16773
0.000434601
0.00167784
-0.000831462
-0.000258289
0.00267297
-0.0125473
-4.40574e-05
2.21958
-0.00216882
0.837994
0.000275284
1.11745
0.565202
0.00159775
0.0594047
0.000214219
0.000561231
1.32275
-0.00128012
0.000514672
0.00376114
0.000252322
-0.00837943
2.03295
0.0299628
2.1915
1.0292
-0.000559888
-0.0101023
1.966
0.41944
0.0156342
2.16175
0.0245265
2.18811
0.745231
0.739055
0.112818
0
-0.00237697
-6.2397e-05
1.58635
-0.0124288
1.81825
-0.00149085
2.12959
0.000415696
1.82637
0.0239803
1.99274
0.361215
0.047043
0.224981
0.00174872
-0.000762786
0.000730457
1.3361
0.00143882
-0.00143582
0.0603828
1.57787
-6.71683e-05
-0.000717301
0.0117014
0.139802
0.0913266
0.131489
-0.00105373
-0.00428616
2.44895
0.268883
0.00128513
-0.00121869
0.000201028
0.000667409
-3.88631e-05
-2.3709e-06
0.000572104
-0.000169403
0.512208
-0.00291667
-0.00017903
-1.09442e-05
0.00352664
2.29466
0.00039706
0.00333953
0.080099
-4.84847e-05
0.0010962
-0.00915572
-0.000297901
0.00546359
0.0131167
1.69143
0.276276
0.001017
1.02529
0.476148
-0.00070397
0.511727
0.0886509
0.000693641
0.000141755
-0.0074448
0.0868779
0.000514858
0.000970039
0.00909401
1.12333
-0.00114261
0.157875
0.000233941
0.978281
-0.000446115
0.0202748
0.00167928
0.0159986
0.107023
0.011452
6.08865e-05
0.0561512
0.0662685
0
0.268234
0.356381
0.00216612
-0.00140872
0.113368
0.168137
0.0980771
0.430891
0.000180118
-0.000114186
1.40551
1.75946
-0.00135013
-0.00190128
0.000154223
0.100427
2.09967
0.1049
0.000251464
0.56844
0.924678
-0.00102823
-0.00123317
2.17932
1.91854
0.0125634
0.770073
0.00016639
0.052769
-0.00153558
0.00187605
0
0.176246
1.72848
1.23283
-1.34007e-05
-0.000157552
-0.00121212
1.12514
0.0572476
0.0209199
0.705694
0.000210883
0.00157022
0.000668778
0.000496505
0.0118328
0.0357243
0.389307
8.14808e-05
1.35859
0.00146447
-0.00257064
0.00689046
-0.000164702
-0.00143856
0.00081827
0.000396021
0.000638078
0.000889869
0.000984189
0.709383
1.89116
0.177593
0.000440298
0.534381
-0.000672973
-0.00417037
0.785816
7.00868e-05
0.000470702
0.0126376
0.000162204
0.000132985
-0.00132981
0.000707837
0.0441642
0.784682
-0.0108417
-0.000502391
1.38051e-05
0.0230304
0.000998337
0.000235233
-0.0260888
-2.41025e-05
0.00188594
-0.000878825
0.029678
0.00203551
-0.000129815
0.432612
0.000176991
0.37685
0.0818644
0.578053
0.107642
-0.000340859
-0.000437944
-0.00894075
-0.000177285
0.237361
2.11439
1.36522
0.0024946
-0.00655865
0
-0.00701764
0.000644608
-0.000144241
1.10344
0.000360503
0.0181458
1.91681
1.2301
-0.00100776
-0.00484969
0.000853792
0.000174602
-0.0084256
0.000628112
0.0046145
-4.44494e-05
1.98412
-0.000627332
0.000416407
0.000447777
-0.00390473
6.7398e-05
0
0.000571248
0.000291603
0.0139589
-0.00233846
0.00026451
0.0302348
0.000664632
0.0015886
0.000833036
-0.000548077
-0.00203275
0.95418
0.0419077
0.232356
-0.000932317
-0.00161516
-0.000291341
0.162621
0.365031
0.000631008
-0.0041257
-0.00543204
0.0514834
0.0368319
-0.000419166
0.00030895
0
0
0.00980565
0
0.0421868
1.07766
0.000326795
0.0059402
0.00277564
0.0366574
0.00181743
0.000139319
1.76228
-0.00254148
-0.0181807
-0.00119846
0.851158
0.182911
1.42133
-4.04267e-07
0.00231558
7.29871e-05
0.0873156
0
-0.00550087
0.0113588
1.42983
0
0.000233295
-0.00113443
0.138312
1.38954
0.000135214
0.757288
0.0488988
0.0751154
-0.000374412
-0.00040605
0
0
0.0654073
0.123143
0.310405
0.000451385
-0.000652929
-0.00261822
0.000835303
-0.00170243
2.56875
-9.565e-05
-0.00674673
0.00299597
-0.0218996
-0.000228983
0.00207168
1.61656
0.00235345
-0.00325409
6.67623e-05
1.44745
1.64698
0.0168828
2.13127
0.000247551
0.0268127
-0.000573897
0.00458432
-0.00100792
-0.0144637
0.000782952
0.000543938
0.002757
0.000299451
-0.00137708
0.00259477
1.46584
-0.000595676
0.0070339
0.00102911
-0.00174489
0.0293737
0.000116152
0.000440723
0.00187451
0.300125
0
-0.000976974
0.00121976
-0.000747963
-0.00163536
0.0471115
2.07469
0.841264
-0.00137729
0.14673
7.1144e-06
0.00016752
0.00574117
0.240567
0.00140253
-0.000340004
-0.00824017
1.67513
-0.00015263
-0.0356081
-0.000450868
0.00062378
-0.000638683
0.426789
0.00399734
2.70258e-05
-0.000409188
0.00984192
0.000305631
1.66232
0.00702872
-1.38694e-05
0.00072544
0.00420313
2.15e-05
1.57739
2.009
0.000987277
0.793774
2.21979e-05
-0.0383431
0.111482
-3.33237e-05
0.000372858
0.00548654
-0.000206477
0.000482834
1.05016
2.75063e-05
-0.000205945
-0.000745923
-0.000337061
-0.00029641
1.14049
0.441823
0.274813
0.113085
9.52685e-05
2.50264
-0.00056069
-0.00646526
2.18553
0.00592695
2.20824
-0.000300044
0.00333726
0.000248449
0.0107893
-0.000896594
0.000179398
-0.0001615
-0.000150487
0.000208095
-3.98942e-05
-0.0100056
-5.93656e-05
-0.00398386
0.036017
-0.000751475
0.00206387
-0.00087861
0.00047215
-0.000138293
-0.00115342
4.06677e-05
0
-0.000438512
-0.000288293
0.000382915
0.0204182
0.00012791
-8.55085e-05
0.00227524
6.8278e-05
7.39323e-05
0.000679045
-0.00025399
-0.000449226
-0.00682613
-0.00039567
0.000159377
-0.000506934
0.00153195
0.000537019
-0.00979172
-0.000321498
0.000766922
0.000825229
0.0247734
-0.0254612
0.00306572
-1.22253e-05
-0.00634419
0.0272464
0.000106278
-0.000633278
4.27565e-05
0.00158189
0
0.0276683
2.24834e-06
0.00505702
-0.000109562
0.000643361
0.00435256
-0.000133795
-0.00107693
0.00143295
0.0196775
0.000109245
-0.000490148
-0.00276803
-8.59272e-05
-0.000129897
-0.0135896
-0.000394541
0
-0.0474854
0.00452254
0.000292484
-0.00403993
0.000211486
0.00119964
-0.000603144
-0.000464048
1.84343
2.27012e-05
0.000109804
-0.000587965
1.97321e-05
-7.95767e-05
0.0285892
0.00562661
0.00113611
-0.00204539
-0.00067577
0.0139984
1.45405
-0.000794231
-4.69093e-05
-0.0194012
-0.00283385
-0.00671548
0.00486643
0.010865
-0.00132366
0.000198073
0.120129
-0.00196845
-0.00373779
0.000948848
0.00732181
-0.000985068
0.0111981
0.000946114
0.00339479
-0.00195048
-0.0022329
2.04367
-0.000166438
0.00686986
-7.10001e-05
0.00102924
0.00274846
-0.000285016
0.0253635
-1.56064e-05
-0.000431393
0.00602309
-0.00054607
7.31638e-05
0.00242709
0
0.000387143
0.0129044
-0.00121118
2.04797
0.000103663
0.000160583
-0.00198241
0.0246213
0.000348445
0
-0.000107585
-0.000389419
0.01134
0.00110445
-3.77617e-05
0.00057019
9.03381e-05
0.0191155
0.000100578
0.000881421
-0.0021416
0.00536172
-0.0254139
0.0269622
0.000300699
0.000362807
-5.26568e-05
1.48334e-05
0.000197986
-0.00316631
-0.000162025
-0.000687092
-0.000207318
0.000144564
9.19016e-05
-0.000289758
0.000192336
-3.20126e-05
6.00392e-05
4.41456e-05
0.950622
-0.0247172
2.72082e-05
0.000458853
0.000290582
0.270167
-0.000336269
0.408381
0.00487058
-0.000115117
0.000277141
0.000769906
-0.0010977
-9.30347e-05
-0.00113645
0.0023019
-0.00121736
-0.000362967
-0.000123925
0.000486316
-0.000303732
0.000434607
0.000199815
-0.00279028
-3.32317e-05
0.00162103
-0.000896109
4.45564e-05
0.00393746
0.00157503
0.000157883
-0.00193811
-2.69677e-05
0.00515858
0.00155552
-0.00152269
0.00130926
-0.00088867
0.000113343
-0.000115533
0.000798503
0.000262049
0.000584472
1.10505
0.0121369
0.0424265
-3.25677e-05
-6.02566e-05
-0.000149189
-0.00145755
-0.000783649
0.0236395
0.112669
0.343255
0.00723801
0.133123
-0.00267893
-0.00317987
0.00356646
-0.00622918
-0.00924311
-0.00407331
-0.00380544
0.0153223
0.294517
0.461011
0.494918
1.73184
1.79238
0.836939
-0.00213242
-0.00152678
-0.0280091
1.04736
1.31727
1.85287
0.0619526
0.0496744
0.105689
0.223742
2.1544
0.00173709
0.00601327
0.130955
1.71144
0.00168048
-0.000653161
1.09883
0.00204623
-0.00174812
1.39659
-0.0113245
-0.0258055
0.0118404
0.0208145
0.497612
0.668149
1.35645
0.067317
0.991923
1.6069
1.23251
1.51034
0.0404358
2.10046
0.208329
1.3259
0.115954
0.549745
0.807516
0.0951718
0.100957
0.040851
2.35786
1.62112
1.66102
2.08871
0.0127915
0.00230188
0.124388
-0.00145204
-0.00177157
-0.00749136
0.00225701
0.00138812
0.00546065
-0.00193849
0.00356787
0.326334
-0.00114158
-0.00328859
0.0542025
0.16807
0.16126
0.259946
-0.0224335
1.39146
0.126331
0
0.0407236
-0.00256148
-0.0021333
