# vtk DataFile Version 2.0
Unstructured Grid by M++
ASCII
DATASET UNSTRUCTURED_GRID
POINTS 1072 float
  0.593750   1.000000 0
  0.718750   0.656250 0
  0.625000   0.968750 0
  0.625000   1.000000 0
  0.843750   0.562500 0
  0.875000   0.562500 0
  0.875000   0.531250 0
  0.562500   0.531250 0
  0.687500   1.000000 0
  0.875000   0.593750 0
  0.562500   0.593750 0
  0.625000   0.531250 0
  0.593750   0.562500 0
  0.593750   0.531250 0
  0.562500   0.562500 0
  0.593750   0.625000 0
  0.593750   0.593750 0
  0.562500   0.625000 0
  0.593750   0.687500 0
  0.562500   0.687500 0
  0.906250   0.500000 0
  0.656250   0.750000 0
  0.625000   0.937500 0
  0.593750   0.968750 0
  0.812500   0.531250 0
  0.625000   0.906250 0
  0.906250   0.625000 0
  0.656250   0.593750 0
  0.531250   0.937500 0
  0.593750   0.656250 0
  0.687500   0.562500 0
  0.625000   0.593750 0
  0.656250   0.562500 0
  0.625000   0.562500 0
  0.718750   1.000000 0
  0.687500   0.625000 0
  0.562500   0.968750 0
  0.656250   0.625000 0
  0.531250   0.968750 0
  0.625000   0.625000 0
  0.656250   0.656250 0
  0.531250   1.000000 0
  0.625000   0.656250 0
  0.625000   0.687500 0
  0.937500   0.562500 0
  0.937500   0.656250 0
  0.968750   0.625000 0
  0.937500   0.625000 0
  0.968750   0.593750 0
  0.937500   0.593750 0
  0.843750   0.531250 0
  0.812500   0.562500 0
  0.625000   0.875000 0
  0.812500   0.687500 0
  1.000000   0.625000 0
  0.750000   0.968750 0
  0.843750   0.843750 0
  1.000000   0.937500 0
  1.000000   0.906250 0
  0.937500   0.687500 0
  0.843750   0.781250 0
  0.750000   1.000000 0
  0.968750   0.562500 0
  0.968750   0.937500 0
  0.968750   0.906250 0
  0.968750   0.875000 0
  0.656250   0.781250 0
  1.000000   0.593750 0
  0.562500   0.937500 0
  0.656250   0.843750 0
  1.000000   0.656250 0
  0.656250   0.812500 0
  0.656250   0.875000 0
  0.781250   0.531250 0
  1.000000   0.687500 0
  0.906250   0.906250 0
  0.843750   0.687500 0
  0.843750   0.656250 0
  0.656250   0.906250 0
  0.937500   0.843750 0
  0.937500   0.906250 0
  0.937500   0.937500 0
  0.937500   0.875000 0
  0.625000   0.750000 0
  0.625000   0.812500 0
  0.625000   0.781250 0
  0.906250   1.000000 0
  0.625000   0.843750 0
  0.968750   0.656250 0
  0.968750   0.500000 0
  0.937500   0.531250 0
  0.875000   0.875000 0
  0.875000   0.812500 0
  0.718750   0.968750 0
  0.906250   0.812500 0
  0.843750   0.812500 0
  0.812500   0.812500 0
  0.718750   0.937500 0
  0.687500   0.937500 0
  0.906250   0.593750 0
  0.968750   0.531250 0
  0.875000   0.625000 0
  0.906250   0.875000 0
  0.781250   1.000000 0
  0.968750   0.687500 0
  0.875000   0.781250 0
  0.875000   0.687500 0
  0.812500   0.781250 0
  0.906250   0.687500 0
  0.875000   0.656250 0
  1.000000   0.562500 0
  0.812500   0.750000 0
  0.906250   0.656250 0
  0.843750   0.750000 0
  0.562500   1.000000 0
  0.687500   0.656250 0
  0.562500   0.656250 0
  0.593750   0.906250 0
  0.593750   0.937500 0
  0.562500   0.875000 0
  0.593750   0.843750 0
  0.593750   0.875000 0
  0.750000   0.687500 0
  0.781250   0.687500 0
  0.750000   0.718750 0
  0.781250   0.718750 0
  0.750000   0.750000 0
  0.562500   0.812500 0
  0.593750   0.781250 0
  0.593750   0.812500 0
  0.750000   0.625000 0
  0.781250   0.625000 0
  0.750000   0.656250 0
  0.812500   0.625000 0
  0.781250   0.656250 0
  0.562500   0.906250 0
  0.562500   0.843750 0
  0.562500   0.750000 0
  0.593750   0.750000 0
  0.562500   0.781250 0
  0.656250   0.937500 0
  0.531250   0.531250 0
  0.531250   0.562500 0
  0.531250   0.593750 0
  0.531250   0.625000 0
  0.531250   0.656250 0
  0.531250   0.687500 0
  0.812500   0.593750 0
  0.843750   0.593750 0
  0.781250   0.750000 0
  0.781250   0.781250 0
  0.531250   0.812500 0
  0.531250   0.843750 0
  0.531250   0.750000 0
  0.531250   0.718750 0
  0.531250   0.906250 0
  0.875000   0.843750 0
  0.531250   0.875000 0
  0.718750   0.718750 0
  0.687500   0.687500 0
  0.718750   0.687500 0
  0.718750   0.625000 0
  0.562500   0.718750 0
  0.687500   0.593750 0
  0.718750   0.593750 0
  0.718750   0.562500 0
  0.750000   0.562500 0
  0.656250   0.968750 0
  0.656250   0.687500 0
  1.000000   0.968750 0
  0.625000   0.718750 0
  0.656250   0.718750 0
  0.843750   0.625000 0
  0.812500   0.656250 0
  0.812500   0.718750 0
  0.687500   0.968750 0
  0.656250   1.000000 0
  0.687500   0.531250 0
  0.718750   0.531250 0
  0.906250   0.562500 0
  1.000000   0.531250 0
  0.750000   0.531250 0
  0.750000   0.593750 0
  0.781250   0.875000 0
  0.781250   0.562500 0
  0.781250   0.593750 0
  0.593750   0.281250 0
  0.593750   0.250000 0
  0.562500   0.250000 0
  0.562500   0.031250 0
  0.593750   0.375000 0
  0.718750   0.031250 0
  0.593750   0.343750 0
  0.687500   0.250000 0
  0.656250   0.437500 0
  0.781250   0.093750 0
  0.625000   0.406250 0
  0.750000   0.062500 0
  0.687500   0.500000 0
  0.812500   0.156250 0
  0.593750   0.031250 0
  0.562500   0.000000 0
  0.625000   0.125000 0
  0.625000   0.093750 0
  0.593750   0.093750 0
  0.593750   0.062500 0
  0.687500   0.437500 0
  0.781250   0.343750 0
  0.906250   0.000000 0
  0.781250   0.312500 0
  0.656250   0.406250 0
  0.750000   0.312500 0
  0.687500   0.468750 0
  0.812500   0.125000 0
  0.906250   0.031250 0
  0.656250   0.312500 0
  0.625000   0.281250 0
  0.687500   0.375000 0
  0.656250   0.343750 0
  0.625000   0.312500 0
  0.656250   0.375000 0
  0.625000   0.343750 0
  0.625000   0.375000 0
  0.750000   0.125000 0
  0.625000   0.468750 0
  0.687500   0.062500 0
  0.562500   0.406250 0
  0.656250   0.031250 0
  0.531250   0.375000 0
  0.625000   0.000000 0
  0.656250   0.062500 0
  0.531250   0.406250 0
  0.625000   0.031250 0
  0.625000   0.062500 0
  0.750000   0.406250 0
  0.843750   0.312500 0
  0.812500   0.343750 0
  0.937500   0.000000 0
  0.843750   0.343750 0
  0.968750   0.000000 0
  0.812500   0.312500 0
  0.968750   0.093750 0
  0.937500   0.062500 0
  0.750000   0.187500 0
  0.656250   0.281250 0
  0.843750   0.093750 0
  0.750000   0.156250 0
  0.625000   0.500000 0
  0.843750   0.062500 0
  0.625000   0.250000 0
  0.812500   0.062500 0
  0.968750   0.062500 0
  0.843750   0.375000 0
  0.968750   0.031250 0
  0.812500   0.375000 0
  0.937500   0.031250 0
  0.906250   0.062500 0
  0.781250   0.125000 0
  0.656250   0.468750 0
  0.875000   0.031250 0
  0.937500   0.218750 0
  0.937500   0.250000 0
  0.937500   0.312500 0
  0.937500   0.343750 0
  0.937500   0.375000 0
  0.937500   0.406250 0
  1.000000   0.000000 0
  0.875000   0.343750 0
  0.937500   0.437500 0
  0.562500   0.312500 0
  0.656250   0.218750 0
  1.000000   0.031250 0
  0.875000   0.375000 0
  0.625000   0.437500 0
  0.750000   0.093750 0
  0.968750   0.250000 0
  0.968750   0.343750 0
  0.968750   0.375000 0
  0.968750   0.406250 0
  0.968750   0.468750 0
  0.968750   0.437500 0
  0.937500   0.156250 0
  1.000000   0.406250 0
  1.000000   0.375000 0
  0.875000   0.406250 0
  1.000000   0.062500 0
  0.593750   0.000000 0
  1.000000   0.500000 0
  0.531250   0.000000 0
  1.000000   0.468750 0
  1.000000   0.437500 0
  0.750000   0.375000 0
  0.843750   0.281250 0
  0.156250   0.531250 0
  1.000000   0.312500 0
  0.031250   0.875000 0
  0.000000   0.750000 0
  0.031250   0.750000 0
  0.031250   0.781250 0
  0.031250   0.812500 0
  0.031250   0.843750 0
  0.156250   0.500000 0
  1.000000   0.281250 0
  0.125000   0.968750 0
  0.250000   0.625000 0
  0.187500   1.000000 0
  1.000000   0.718750 0
  0.312500   0.000000 0
  0.312500   0.656250 0
  0.156250   1.000000 0
  0.968750   0.718750 0
  0.281250   0.000000 0
  0.281250   0.656250 0
  0.125000   0.843750 0
  0.156250   0.843750 0
  0.000000   0.718750 0
  0.843750   0.500000 0
  0.281250   0.687500 0
  0.437500   0.781250 0
  0.312500   1.000000 0
  0.281250   1.000000 0
  0.375000   0.781250 0
  0.312500   0.500000 0
  0.437500   0.156250 0
  0.343750   0.500000 0
  0.468750   0.156250 0
  0.250000   0.156250 0
  0.343750   0.125000 0
  0.218750   0.468750 0
  0.375000   0.375000 0
  0.437500   0.312500 0
  0.406250   0.312500 0
  0.062500   0.375000 0
  0.093750   0.281250 0
  0.093750   0.343750 0
  0.937500   0.125000 0
  0.906250   0.718750 0
  0.218750   0.000000 0
  0.250000   0.968750 0
  0.531250   0.062500 0
  0.156250   0.062500 0
  0.312500   0.187500 0
  1.000000   0.875000 0
  0.312500   0.156250 0
  0.281250   0.187500 0
  0.906250   0.781250 0
  0.218750   0.062500 0
  0.718750   0.781250 0
  0.031250   0.062500 0
  0.375000   0.000000 0
  0.718750   0.750000 0
  0.031250   0.031250 0
  0.687500   0.781250 0
  0.000000   0.062500 0
  0.250000   0.500000 0
  0.375000   0.156250 0
  0.281250   0.468750 0
  0.406250   0.125000 0
  0.406250   0.343750 0
  0.062500   0.406250 0
  0.312500   0.437500 0
  0.437500   0.093750 0
  0.781250   0.031250 0
  0.250000   0.468750 0
  0.375000   0.125000 0
  0.281250   0.437500 0
  0.406250   0.093750 0
  0.406250   0.437500 0
  0.406250   0.406250 0
  0.375000   0.437500 0
  0.031250   1.000000 0
  0.187500   0.437500 0
  1.000000   0.812500 0
  0.312500   0.093750 0
  0.218750   0.437500 0
  0.343750   0.093750 0
  0.250000   0.437500 0
  0.375000   0.093750 0
  0.218750   0.406250 0
  0.343750   0.062500 0
  0.250000   0.406250 0
  0.375000   0.062500 0
  0.281250   0.218750 0
  0.187500   0.312500 0
  0.250000   0.218750 0
  0.156250   0.312500 0
  1.000000   0.093750 0
  0.125000   0.312500 0
  0.406250   0.000000 0
  0.750000   0.781250 0
  0.062500   0.062500 0
  0.375000   0.500000 0
  0.500000   0.156250 0
  0.312500   0.968750 0
  0.125000   0.468750 0
  0.500000   0.375000 0
  0.437500   0.406250 0
  0.375000   0.468750 0
  0.468750   0.375000 0
  0.125000   0.437500 0
  0.343750   0.468750 0
  0.468750   0.125000 0
  0.437500   0.375000 0
  0.093750   0.437500 0
  0.125000   0.093750 0
  0.500000   0.937500 0
  0.718750   0.906250 0
  0.031250   0.187500 0
  0.687500   0.906250 0
  0.000000   0.187500 0
  0.937500   0.781250 0
  0.250000   0.062500 0
[...]
POINT_DATA 1072
SCALARS scalar_value float 1
LOOKUP_TABLE default
0
-0.00385462
-0.000725503
0
0.00420622
-0.000708652
-0.00608201
0.000517023
0
0.0006015
0.00252102
0.00158199
-0.00112175
0.00151126
0.000899838
0.00268542
0.00113594
0.0012475
0.00645644
0.002236
0.0546637
0.00180362
0.00055563
-0.00140622
-0.00512006
-0.00156847
0.00338548
0.000557196
-0.000335852
0.00204452
0.00578331
-0.00175033
0.00566845
0.00134603
0
0.00324422
-0.00236647
0.00275826
-0.00297675
0.000500788
-0.000494557
0
-0.00139743
0.00288584
0.0128207
-0.0029921
0.00294518
0.00346339
-0.0010236
-0.00571078
-0.00429106
0.00547492
0.00195202
0.00019939
0.00267223
2.73687e-05
-0.000315015
-3.63078e-05
3.10874e-05
0.00228338
-0.00156261
0
-0.00284861
-0.000127841
5.52583e-05
0.000114922
-0.00163372
-0.00629722
0.000656537
-0.00162616
-0.000202684
0.00223692
0.000772724
-0.00468521
-0.000490707
0.000194936
0.000863403
0.000515768
-0.000727436
0.000189943
-0.000158747
0.000113516
-2.43492e-05
0.00554571
0.00332859
-0.00264388
0
-0.0024496
-0.00235519
0.00381695
-0.0168122
0.000210062
0.000662984
-7.36066e-05
0.000818088
0.0013988
0.00120254
0.000468322
0.000285099
-0.00300963
0.00159396
0.000744057
-5.5682e-05
0
0.00103793
-0.00136287
0.00300299
-0.00226719
0.0024023
-0.00220975
0.00891007
0.000752568
-0.00340627
0.00206324
0
-0.00296292
0.000858416
-0.00204054
0.000798547
0.000865665
-0.00165588
0.00159678
0.00319187
0.00125169
-0.00196653
-0.00054698
0.00150099
0.000463719
0.000460701
0.00163617
0.00524724
0.00341961
-0.00412643
0.00322191
-0.00265024
-0.00275528
-0.00175246
0.00167037
0.00131288
0.000310795
-6.85152e-05
0.00135301
0.00185544
0.00162014
-3.37406e-05
0.00131416
2.66494e-05
-0.00454669
-0.00123385
-1.5577e-05
-0.000357127
-0.00176477
-0.00115807
-0.000144084
-0.000127196
-0.00253798
-0.000496505
-0.0014648
-0.00240933
0.00417339
0.00384264
0.00396844
0.000867381
-0.00243476
-0.00198132
0.000203091
0.00546519
-0.00064085
0.0027847
-0.000217336
-0.00175244
-0.00078173
-0.000141515
-0.00132285
-0.000883815
-0.000732722
0
-0.00307029
-0.000191659
-0.0029316
-0.00764826
-0.0037996
-0.00578432
0.00386931
0.0043721
-0.00391192
0.00853483
0.240726
0.0388675
0.468163
0.00538879
0.244801
-0.0103951
0.0443388
0.00762676
8.11868e-05
-0.00737315
3.38346e-05
0.00525027
-0.0145151
1.02228
0.697225
0.293191
0.563622
0.594466
0.817836
0.00461464
-0.0215247
0.00236381
0.0359571
-0.00271713
0.0159204
-0.00201898
-0.00133847
0.00217025
0.0166149
0.0221932
0.00537916
0.00824544
0.00693431
0.00558542
-0.00147431
0.00933591
0.011265
0.000500221
0.607724
0.00355264
2.07583
-0.000158493
1.57549
2.02403
-0.000142375
1.00778
0.548728
-0.00973665
0.0200117
-0.0337624
-0.000264543
-0.0214887
-0.000672224
0.0352936
-0.000794802
0.000691071
0.0349021
0.00568073
0.00570309
0.00826831
-0.00209857
0.0108577
0.0979348
0.00216609
-0.000717388
0.0327948
-0.000722008
0.0246739
0.000114132
0.00268234
0.0106177
-0.00435106
0.00518073
-0.000182231
0.000347909
0.0015445
0.00135981
0.00501647
-0.00123468
0.000496043
-0.015672
0.0132343
0.0151743
0.0041478
0.000371861
0.0124411
0.00190713
-0.0263003
-0.000113865
-0.000315242
-0.000309768
-0.00209206
-0.00576289
0.0013905
0.00108371
-0.00079106
-0.000868959
-0.0304133
0.000164359
1.25323
0.00729309
0.310051
-0.00337015
0.00116638
0.0105787
-0.00407813
0.00405909
-0.000557581
-2.96809e-05
0.000169887
0.00011561
-3.7975e-05
-1.21067e-05
-3.72014e-05
-0.0097846
-0.00139475
-8.41681e-05
0.00357195
0
0.000331262
0.259236
0.000287824
0
7.30074e-05
0.13364
-0.00118592
-7.93e-05
-0.00010156
-0.000324475
0.00164953
0.000673785
1.64211e-05
0
0
0.00026818
0.00196341
0.0708996
-0.000365863
0.0539364
0.0120661
0.132342
0.000653077
0.00434158
0.0155886
0.0523339
9.51153e-05
-0.000269889
-0.000294878
0.00114239
-0.00233081
0.09833
-8.70522e-05
0.128271
0.00142828
-0.00219983
-0.000224931
0.0105078
-0.00260615
-0.00138292
0.0459385
-0.000617699
-2.13317e-05
0.804969
0.00143256
6.16787e-05
-0.00291659
-0.000123059
0.00183776
0.187604
0.0023561
0.228397
0.0335737
0.000103449
0.00185909
0.271564
-0.00354489
-0.0159985
0.256487
0.00649459
0.292142
0.0203817
0.0254846
0.00237318
0
0.00178581
7.53552e-05
0.0599918
0.0126971
0.20376
0.0071591
0.35005
-0.00231657
0.288648
-0.0188158
0.458758
-0.000599626
0.0084433
0.00468229
-0.00188773
-7.35104e-05
0.000809935
0.786327
-0.000810295
0.00195752
0.000327969
-0.0180988
-0.0001633
0.00052909
0.00207272
0.000715108
0.000276287
0.00199808
0.00182012
-0.0018433
0.3693
-0.00188699
0.000120871
-0.00129612
-0.000624351
-0.000541494
9.80876e-05
-0.000535047
2.79242e-05
1.27552e-05
0.0470534
0.000471772
-0.000637453
-5.42632e-05
-0.000597712
0.151523
0.00012443
-0.00388175
0.0297964
1.71325e-05
-0.000906597
0.000149796
0.000186682
0.000165659
0.00806536
0.604055
-0.021752
-0.000272761
0.0690206
0.0281267
0.000144097
0.0181192
0.021355
-0.00031892
-0.000164033
0.000239782
0.0148944
-0.000349119
3.84467e-05
-0.00171563
0.562822
0.00154052
0.00977404
-0.000232034
0.00526967
0.000294849
-0.000336392
-0.00104808
0.0101143
-0.0155941
-0.00109341
-9.81806e-05
0.00928322
0.00191041
0
-0.0182731
0.00538021
0.000851941
0.000673864
0.00377487
0.000220405
0.0113824
0.017184
1.99561e-05
8.04861e-05
0.0270795
0.542848
0.000943576
0.00165829
-0.000174956
0.011926
0.00845675
-0.00642445
8.89602e-05
-0.0056866
0.0363728
-0.00105718
-0.00170753
0.194198
0.2401
-0.00255589
0.00217718
-0.000252051
0.00525993
-0.000718464
-0.00145996
0
-0.0104355
0.155742
0.892018
-0.000595832
3.49092e-05
0.00120478
0.0301922
0.0120771
-0.0195352
0.0233652
-1.07677e-05
-3.06705e-05
0.000790207
-0.000155012
-0.00608423
0.00119689
0.00768625
-0.000548336
0.0500527
0.00225183
0.00606966
-0.00129771
7.42972e-05
0.000693133
-0.000290663
0.000305594
0.00100085
0.000357898
-0.00326002
0.00994207
0.103283
0.0176666
-0.000469402
0.028206
-0.000175085
0.000945336
1.11501
0.000151796
-6.46646e-05
0.00149019
-0.000301749
0.000133348
-0.0016681
-0.000699727
0.000312118
0.0125093
-2.19662e-05
0.000306751
9.30587e-06
-0.000137232
-0.00108293
0.0001096
0.0216488
-1.91463e-05
0.000252455
0.000181696
-8.82764e-05
-0.00363519
-0.000379773
-0.0102774
-0.000115833
0.00534584
0.0235433
-0.00256242
-0.0190717
0.000303012
0.000452705
-0.000869333
0.000135191
-0.00307974
0.223736
0.763214
-0.00240427
0.000387531
0
0.00713591
-0.000711549
8.83561e-05
0.0185437
-0.000415058
-0.00125206
0.0108665
0.0498693
0.00088199
7.76494e-05
2.34973e-05
-0.000151008
0.00906384
-4.76724e-05
0.00161093
3.82027e-05
0.320904
-0.000582495
-5.94181e-06
0.000475799
0.00425315
-0.00028749
0
-0.000156373
-0.000313556
4.42228e-05
0.0018858
7.89902e-05
-0.0196607
-8.39041e-05
7.78243e-05
0.000535025
-0.000173927
-0.00237218
0.0293206
-0.00313017
-0.00327446
0.000915134
0.00105475
0.000232216
0.00742206
1.49149
-2.8777e-06
0.00277314
0.00768156
-0.000148016
-0.00366021
0.000354831
-8.73103e-05
0
0
-0.000720334
0
0.00710927
0.0388599
-8.90974e-05
1.93777e-05
0.00161186
-0.0117716
-0.00135264
0.000754468
0.426572
0.00245814
0.0272866
-3.23626e-06
0.0303373
0.00898596
0.0816841
1.06628e-05
-0.000159688
-0.000121576
0.00180054
0
0.000108967
0.00802701
0.550565
0
6.28672e-05
0.000302853
0.00608341
0.044707
3.18045e-05
-0.000424802
-0.00292761
-0.00113456
0.000217049
9.68544e-05
0
0
0.00872989
-0.000245943
0.00566269
-0.000227305
-0.000115502
0.00367797
-0.000674297
0.00186574
0.0597165
-0.000349559
0.00211157
-0.00252716
0.0430251
0.000762015
0.000133772
0.600083
-0.00154114
0.00861127
-4.08297e-05
0.063719
0.0841144
0.00230692
0.184636
7.90229e-05
-0.00209056
-6.81608e-05
-0.00140007
-4.95127e-05
0.0151328
-0.00047853
-0.00210662
-0.000777957
-0.000488331
0.00120641
-0.00149248
0.054159
1.58171e-05
0.00557216
-0.000694079
0.00119153
0.0673249
0.00155019
-0.000598082
-0.00153343
0.118508
0
0.00183735
0.000341243
0.00170175
0.000223732
-0.0107298
0.377297
0.0594198
-4.63557e-05
0.00191115
6.04539e-05
-0.000337191
0.00771577
0.00190436
-0.00187333
-0.000175257
0.00932809
0.403748
-0.000193871
0.0212884
0.00192075
-0.000634667
0.000453346
0.0734503
-0.000378433
-1.90107e-05
0.000209159
-0.00626419
-0.00023569
0.101747
-0.000789828
3.30279e-06
0.000180895
-0.00249889
5.27347e-05
0.166888
0.253721
-0.000285823
-0.00923211
0.000367728
0.0150133
9.44665e-05
1.57096e-05
-0.000243404
0.00165783
-0.000586163
-0.000350365
0.0737344
-1.07662e-05
0.000280681
0.000835283
-0.000436915
0.000232334
0.0395763
0.0147897
0.00581004
-0.0106644
0.000127985
0.0491835
4.54731e-05
0.00264145
0.139012
0.00432648
0.0385285
0.000201141
-0.00139485
-0.000173054
0.000953998
0.000564062
0.000782531
1.55128e-05
0.000149435
-6.2579e-05
4.71609e-06
0.00903952
-7.92086e-06
0.00107346
-0.0302979
0.000473966
-0.0040554
0.000570586
-0.000336994
2.4464e-05
0.00172533
-1.81136e-05
0
0.000204625
0.000214371
-0.000204804
0.00268922
-6.26e-05
0.000549148
-0.00245253
-5.40311e-05
0.000249536
-0.000531153
0.000123308
0.000147755
0.00158709
0.000789731
-0.000806149
4.91847e-06
-0.000451517
-0.00048513
0.00429366
-0.000120218
0.000258555
-0.000607098
0.00172123
0.0182834
-0.00552595
-2.519e-05
0.00604984
-0.000188778
-5.92657e-05
0.00112262
-8.22172e-05
-0.00338956
0
-0.000204322
-7.7934e-06
-0.00351009
2.06141e-05
-0.000469888
-0.00208882
2.66816e-05
0.000675996
-0.000695451
-0.000799732
-3.33496e-05
-0.00085109
0.000523906
-0.000401567
-0.000105311
0.0133168
-7.36569e-05
0
0.00758038
-0.00183584
0.00144945
0.000207018
-0.000232667
9.28407e-05
-9.36857e-05
-0.000157303
0.494461
-7.32411e-05
1.38953e-05
0.000592165
-5.70401e-05
1.23158e-06
-0.000536993
0.00040179
-0.00146402
4.72158e-05
6.55014e-05
0.000108372
0.0738079
0.000405543
-4.26961e-05
-7.28651e-06
0.000343531
-8.5683e-05
-0.00177416
0.000974787
0.000517401
-3.19438e-05
-0.00302256
0.00131068
-0.00176025
-0.000269903
-0.000482191
-0.00039515
4.58107e-05
-0.000211689
0.000151308
0.000655063
-0.000416605
0.0109864
0.000125795
0.0135149
-0.000105503
0.000966763
0.000494092
5.8856e-05
-0.0112463
3.51307e-05
0.000386059
0.000251598
8.89261e-06
-4.23094e-05
-0.00209444
0
-0.000262098
-0.00837575
-0.000504112
0.182016
4.72911e-06
0.000190234
0.00110229
-0.000634941
-0.000188371
0
0.00146035
-6.78375e-06
0.00108931
-0.000487323
0.000155281
-0.00016409
-0.000146504
-0.0158124
-0.00010804
0.000137725
0.000884302
-0.000562487
-0.00105487
0.00105453
-0.000378617
0.00010581
-1.62406e-05
0.000231821
-4.00089e-05
0.00246995
-0.00182385
0.000229059
9.19487e-05
-0.000141152
1.00145e-05
4.24404e-05
-5.49741e-05
3.55365e-05
1.34638e-05
6.87008e-05
0.0222112
0.0241952
-1.59932e-05
-0.000258687
-7.14197e-05
0.00209404
-5.23972e-07
-0.000642529
-0.00117604
7.2012e-05
-0.000409527
-0.000476486
0.00038299
5.68014e-05
0.00127567
-0.0010101
0.000507473
0.000142228
0.000811785
-0.000527964
0.000198878
0.000394485
-0.000152898
0.00177392
4.93451e-06
-0.000435601
0.00138113
-3.22797e-05
-0.00267126
-0.0009154
-0.000105283
0.000865537
0.000349432
-0.00671122
-0.000265518
0.000704276
-0.00139234
-2.4876e-05
-6.63258e-05
5.42155e-05
-0.000624052
-0.000628285
-0.000686865
0.320718
-0.01295
0.00138604
-8.05518e-05
1.17834e-05
-0.000356592
-0.00226604
0.000499525
-0.0153091
0.00346023
0.00816848
0.0033462
-0.0172758
0.0396659
0.00862282
-0.0075523
-0.00545717
-0.00414927
0.00157555
0.00257213
-0.00170553
-0.0622321
-0.0245047
0.0992288
-0.00212098
0.2578
1.21339
0.00108025
0.000769917
0.0152022
0.0241876
0.0430982
0.151012
0.01149
2.3528
0.0068136
-0.00526162
0.0366783
-0.0147996
0.0104687
-0.00485518
0.103648
0.00123936
0.000951443
-0.0205526
0.000887687
-0.00160599
0.0197088
0.000553444
-0.00616217
0.00197451
0.00123071
0.00459892
0.0244014
0.0782362
-0.0032106
-0.0465698
0.502334
-0.00190986
0.621237
-0.00614083
0.225899
0.0222664
0.219777
-0.00040887
0.0174406
-0.0148549
-0.0312201
-0.0453343
0.0483022
-0.0166096
0.626415
0.576686
0.121006
0.00683299
0.0144831
-0.00595713
-0.000838633
-0.000445823
0.00870559
-0.000291819
-0.000707353
-0.00816464
0.00837869
0.0107385
0.0250523
-0.00046117
0.00163061
-0.026472
-0.00756014
0.00402417
0.000843206
0.0161602
0.404172
-0.00290786
0
-0.0226996
-0.00103701
0.00115866
