# vtk DataFile Version 2.0
Unstructured Grid by M++
ASCII
DATASET UNSTRUCTURED_GRID
POINTS 1072 float
  0.593750   1.000000 0
  0.718750   0.656250 0
  0.625000   0.968750 0
  0.625000   1.000000 0
  0.843750   0.562500 0
  0.875000   0.562500 0
  0.875000   0.531250 0
  0.562500   0.531250 0
  0.687500   1.000000 0
  0.875000   0.593750 0
  0.562500   0.593750 0
  0.625000   0.531250 0
  0.593750   0.562500 0
  0.593750   0.531250 0
  0.562500   0.562500 0
  0.593750   0.625000 0
  0.593750   0.593750 0
  0.562500   0.625000 0
  0.593750   0.687500 0
  0.562500   0.687500 0
  0.906250   0.500000 0
  0.656250   0.750000 0
  0.625000   0.937500 0
  0.593750   0.968750 0
  0.812500   0.531250 0
  0.625000   0.906250 0
  0.906250   0.625000 0
  0.656250   0.593750 0
  0.531250   0.937500 0
  0.593750   0.656250 0
  0.687500   0.562500 0
  0.625000   0.593750 0
  0.656250   0.562500 0
  0.625000   0.562500 0
  0.718750   1.000000 0
  0.687500   0.625000 0
  0.562500   0.968750 0
  0.656250   0.625000 0
  0.531250   0.968750 0
  0.625000   0.625000 0
  0.656250   0.656250 0
  0.531250   1.000000 0
  0.625000   0.656250 0
  0.625000   0.687500 0
  0.937500   0.562500 0
  0.937500   0.656250 0
  0.968750   0.625000 0
  0.937500   0.625000 0
  0.968750   0.593750 0
  0.937500   0.593750 0
  0.843750   0.531250 0
  0.812500   0.562500 0
  0.625000   0.875000 0
  0.812500   0.687500 0
  1.000000   0.625000 0
  0.750000   0.968750 0
  0.843750   0.843750 0
  1.000000   0.937500 0
  1.000000   0.906250 0
  0.937500   0.687500 0
  0.843750   0.781250 0
  0.750000   1.000000 0
  0.968750   0.562500 0
  0.968750   0.937500 0
  0.968750   0.906250 0
  0.968750   0.875000 0
  0.656250   0.781250 0
  1.000000   0.593750 0
  0.562500   0.937500 0
  0.656250   0.843750 0
  1.000000   0.656250 0
  0.656250   0.812500 0
  0.656250   0.875000 0
  0.781250   0.531250 0
  1.000000   0.687500 0
  0.906250   0.906250 0
  0.843750   0.687500 0
  0.843750   0.656250 0
  0.656250   0.906250 0
  0.937500   0.843750 0
  0.937500   0.906250 0
  0.937500   0.937500 0
  0.937500   0.875000 0
  0.625000   0.750000 0
  0.625000   0.812500 0
  0.625000   0.781250 0
  0.906250   1.000000 0
  0.625000   0.843750 0
  0.968750   0.656250 0
  0.968750   0.500000 0
  0.937500   0.531250 0
  0.875000   0.875000 0
  0.875000   0.812500 0
  0.718750   0.968750 0
  0.906250   0.812500 0
  0.843750   0.812500 0
  0.812500   0.812500 0
  0.718750   0.937500 0
  0.687500   0.937500 0
  0.906250   0.593750 0
  0.968750   0.531250 0
  0.875000   0.625000 0
  0.906250   0.875000 0
  0.781250   1.000000 0
  0.968750   0.687500 0
  0.875000   0.781250 0
  0.875000   0.687500 0
  0.812500   0.781250 0
  0.906250   0.687500 0
  0.875000   0.656250 0
  1.000000   0.562500 0
  0.812500   0.750000 0
  0.906250   0.656250 0
  0.843750   0.750000 0
  0.562500   1.000000 0
  0.687500   0.656250 0
  0.562500   0.656250 0
  0.593750   0.906250 0
  0.593750   0.937500 0
  0.562500   0.875000 0
  0.593750   0.843750 0
  0.593750   0.875000 0
  0.750000   0.687500 0
  0.781250   0.687500 0
  0.750000   0.718750 0
  0.781250   0.718750 0
  0.750000   0.750000 0
  0.562500   0.812500 0
  0.593750   0.781250 0
  0.593750   0.812500 0
  0.750000   0.625000 0
  0.781250   0.625000 0
  0.750000   0.656250 0
  0.812500   0.625000 0
  0.781250   0.656250 0
  0.562500   0.906250 0
  0.562500   0.843750 0
  0.562500   0.750000 0
  0.593750   0.750000 0
  0.562500   0.781250 0
  0.656250   0.937500 0
  0.531250   0.531250 0
  0.531250   0.562500 0
  0.531250   0.593750 0
  0.531250   0.625000 0
  0.531250   0.656250 0
  0.531250   0.687500 0
  0.812500   0.593750 0
  0.843750   0.593750 0
  0.781250   0.750000 0
  0.781250   0.781250 0
  0.531250   0.812500 0
  0.531250   0.843750 0
  0.531250   0.750000 0
  0.531250   0.718750 0
  0.531250   0.906250 0
  0.875000   0.843750 0
  0.531250   0.875000 0
  0.718750   0.718750 0
  0.687500   0.687500 0
  0.718750   0.687500 0
  0.718750   0.625000 0
  0.562500   0.718750 0
  0.687500   0.593750 0
  0.718750   0.593750 0
  0.718750   0.562500 0
  0.750000   0.562500 0
  0.656250   0.968750 0
  0.656250   0.687500 0
  1.000000   0.968750 0
  0.625000   0.718750 0
  0.656250   0.718750 0
  0.843750   0.625000 0
  0.812500   0.656250 0
  0.812500   0.718750 0
  0.687500   0.968750 0
  0.656250   1.000000 0
  0.687500   0.531250 0
  0.718750   0.531250 0
  0.906250   0.562500 0
  1.000000   0.531250 0
  0.750000   0.531250 0
  0.750000   0.593750 0
  0.781250   0.875000 0
  0.781250   0.562500 0
  0.781250   0.593750 0
  0.593750   0.281250 0
  0.593750   0.250000 0
  0.562500   0.250000 0
  0.562500   0.031250 0
  0.593750   0.375000 0
  0.718750   0.031250 0
  0.593750   0.343750 0
  0.687500   0.250000 0
  0.656250   0.437500 0
  0.781250   0.093750 0
  0.625000   0.406250 0
  0.750000   0.062500 0
  0.687500   0.500000 0
  0.812500   0.156250 0
  0.593750   0.031250 0
  0.562500   0.000000 0
  0.625000   0.125000 0
  0.625000   0.093750 0
  0.593750   0.093750 0
  0.593750   0.062500 0
  0.687500   0.437500 0
  0.781250   0.343750 0
  0.906250   0.000000 0
  0.781250   0.312500 0
  0.656250   0.406250 0
  0.750000   0.312500 0
  0.687500   0.468750 0
  0.812500   0.125000 0
  0.906250   0.031250 0
  0.656250   0.312500 0
  0.625000   0.281250 0
  0.687500   0.375000 0
  0.656250   0.343750 0
  0.625000   0.312500 0
  0.656250   0.375000 0
  0.625000   0.343750 0
  0.625000   0.375000 0
  0.750000   0.125000 0
  0.625000   0.468750 0
  0.687500   0.062500 0
  0.562500   0.406250 0
  0.656250   0.031250 0
  0.531250   0.375000 0
  0.625000   0.000000 0
  0.656250   0.062500 0
  0.531250   0.406250 0
  0.625000   0.031250 0
  0.625000   0.062500 0
  0.750000   0.406250 0
  0.843750   0.312500 0
  0.812500   0.343750 0
  0.937500   0.000000 0
  0.843750   0.343750 0
  0.968750   0.000000 0
  0.812500   0.312500 0
  0.968750   0.093750 0
  0.937500   0.062500 0
  0.750000   0.187500 0
  0.656250   0.281250 0
  0.843750   0.093750 0
  0.750000   0.156250 0
  0.625000   0.500000 0
  0.843750   0.062500 0
  0.625000   0.250000 0
  0.812500   0.062500 0
  0.968750   0.062500 0
  0.843750   0.375000 0
  0.968750   0.031250 0
  0.812500   0.375000 0
  0.937500   0.031250 0
  0.906250   0.062500 0
  0.781250   0.125000 0
  0.656250   0.468750 0
  0.875000   0.031250 0
  0.937500   0.218750 0
  0.937500   0.250000 0
  0.937500   0.312500 0
  0.937500   0.343750 0
  0.937500   0.375000 0
  0.937500   0.406250 0
  1.000000   0.000000 0
  0.875000   0.343750 0
  0.937500   0.437500 0
  0.562500   0.312500 0
  0.656250   0.218750 0
  1.000000   0.031250 0
  0.875000   0.375000 0
  0.625000   0.437500 0
  0.750000   0.093750 0
  0.968750   0.250000 0
  0.968750   0.343750 0
  0.968750   0.375000 0
  0.968750   0.406250 0
  0.968750   0.468750 0
  0.968750   0.437500 0
  0.937500   0.156250 0
  1.000000   0.406250 0
  1.000000   0.375000 0
  0.875000   0.406250 0
  1.000000   0.062500 0
  0.593750   0.000000 0
  1.000000   0.500000 0
  0.531250   0.000000 0
  1.000000   0.468750 0
  1.000000   0.437500 0
  0.750000   0.375000 0
  0.843750   0.281250 0
  0.156250   0.531250 0
  1.000000   0.312500 0
  0.031250   0.875000 0
  0.000000   0.750000 0
  0.031250   0.750000 0
  0.031250   0.781250 0
  0.031250   0.812500 0
  0.031250   0.843750 0
  0.156250   0.500000 0
  1.000000   0.281250 0
  0.125000   0.968750 0
  0.250000   0.625000 0
  0.187500   1.000000 0
  1.000000   0.718750 0
  0.312500   0.000000 0
  0.312500   0.656250 0
  0.156250   1.000000 0
  0.968750   0.718750 0
  0.281250   0.000000 0
  0.281250   0.656250 0
  0.125000   0.843750 0
  0.156250   0.843750 0
  0.000000   0.718750 0
  0.843750   0.500000 0
  0.281250   0.687500 0
  0.437500   0.781250 0
  0.312500   1.000000 0
  0.281250   1.000000 0
  0.375000   0.781250 0
  0.312500   0.500000 0
  0.437500   0.156250 0
  0.343750   0.500000 0
  0.468750   0.156250 0
  0.250000   0.156250 0
  0.343750   0.125000 0
  0.218750   0.468750 0
  0.375000   0.375000 0
  0.437500   0.312500 0
  0.406250   0.312500 0
  0.062500   0.375000 0
  0.093750   0.281250 0
  0.093750   0.343750 0
  0.937500   0.125000 0
  0.906250   0.718750 0
  0.218750   0.000000 0
  0.250000   0.968750 0
  0.531250   0.062500 0
  0.156250   0.062500 0
  0.312500   0.187500 0
  1.000000   0.875000 0
  0.312500   0.156250 0
  0.281250   0.187500 0
  0.906250   0.781250 0
  0.218750   0.062500 0
  0.718750   0.781250 0
  0.031250   0.062500 0
  0.375000   0.000000 0
  0.718750   0.750000 0
  0.031250   0.031250 0
  0.687500   0.781250 0
  0.000000   0.062500 0
  0.250000   0.500000 0
  0.375000   0.156250 0
  0.281250   0.468750 0
  0.406250   0.125000 0
  0.406250   0.343750 0
  0.062500   0.406250 0
  0.312500   0.437500 0
  0.437500   0.093750 0
  0.781250   0.031250 0
  0.250000   0.468750 0
  0.375000   0.125000 0
  0.281250   0.437500 0
  0.406250   0.093750 0
  0.406250   0.437500 0
  0.406250   0.406250 0
  0.375000   0.437500 0
  0.031250   1.000000 0
  0.187500   0.437500 0
  1.000000   0.812500 0
  0.312500   0.093750 0
  0.218750   0.437500 0
  0.343750   0.093750 0
  0.250000   0.437500 0
  0.375000   0.093750 0
  0.218750   0.406250 0
  0.343750   0.062500 0
  0.250000   0.406250 0
  0.375000   0.062500 0
  0.281250   0.218750 0
  0.187500   0.312500 0
  0.250000   0.218750 0
  0.156250   0.312500 0
  1.000000   0.093750 0
  0.125000   0.312500 0
  0.406250   0.000000 0
  0.750000   0.781250 0
  0.062500   0.062500 0
  0.375000   0.500000 0
  0.500000   0.156250 0
  0.312500   0.968750 0
  0.125000   0.468750 0
  0.500000   0.375000 0
  0.437500   0.406250 0
  0.375000   0.468750 0
  0.468750   0.375000 0
  0.125000   0.437500 0
  0.343750   0.468750 0
  0.468750   0.125000 0
  0.437500   0.375000 0
  0.093750   0.437500 0
  0.125000   0.093750 0
  0.500000   0.937500 0
  0.718750   0.906250 0
  0.031250   0.187500 0
  0.687500   0.906250 0
  0.000000   0.187500 0
  0.937500   0.781250 0
  0.250000   0.062500 0
[...]
POINT_DATA 1072
SCALARS scalar_value float 1
LOOKUP_TABLE default
0
-0.00168942
-0.000499549
0
0.00157579
-0.000232007
-0.00212295
0.00117191
0
0.00037893
0.000749263
0.00132177
0.0018501
0.00229965
0.000948905
0.00243114
0.00201816
-8.81617e-05
0.0024937
9.83358e-05
0.024503
0.000195749
3.02584e-05
-0.000751736
-0.00255211
-0.000967617
0.00158099
0.000785033
-0.000505739
0.00177383
0.00169663
0.000229161
0.00308684
0.00106327
0
0.00061055
-0.0012548
0.000750691
-0.00137706
0.00035786
-9.29477e-05
0
-0.000250502
0.000148813
0.00589977
-0.00167637
0.00131051
0.00182418
-0.00059863
-0.00318567
-0.00164611
0.00175994
0.000347713
-0.000348657
0.00123246
6.11513e-05
-0.000165223
-3.0334e-05
-2.91014e-06
0.00103064
-0.000924344
0
-0.0010831
-7.50909e-05
3.68267e-05
4.1908e-05
-0.00133591
-0.00287075
-3.28697e-05
-0.00119466
-0.000224089
0.000471089
8.43208e-05
-0.00169609
-0.00023125
0.000143815
0.000403287
-0.000166853
-0.000644751
0.000172525
-2.36746e-05
5.29693e-05
3.70336e-05
0.000841768
0.000596547
-0.00180997
0
-0.00151287
-0.001067
0.00163182
-0.00734151
0.000153557
0.000355106
-1.31455e-05
0.000597859
0.000851386
0.000427969
0.000327237
0.000157308
-0.00139759
0.000291311
0.000537712
8.18525e-05
0
0.00046053
-0.000669544
0.00158389
-0.00142627
0.00131731
-0.000884795
0.00411796
0.000162239
-0.00191714
0.00106314
0
-0.00098631
-0.000643099
-0.00134304
0.000154543
-0.000622908
-0.00161259
0.000189752
0.00127044
0.000603137
-0.000797552
-6.50741e-05
0.000442538
-0.00140742
-0.00109484
-0.000293653
0.00202387
0.00159768
-0.00171221
0.000544123
-0.00107343
-0.00168189
-0.00163715
-0.000317641
0.000712705
-0.00143652
-0.000142786
-0.000344997
-0.000573248
-0.00110891
-0.00151399
-0.00146133
-0.00159664
-0.00216263
-0.000464796
0.000317554
-9.31701e-05
-0.00168892
-0.00175613
-0.00188895
-0.00193411
-0.0015509
-0.000184566
-0.0012788
-0.00142573
0.00105976
0.00141555
0.00128934
-0.000249428
6.8101e-05
-0.000480851
0.000140593
0.00153281
-0.000505688
0.000422383
-0.000117647
-0.000817755
-0.000967818
-0.000145027
-0.000810704
-0.000796677
-0.00042656
0
0.000370503
0.000480548
-0.00116859
-0.00364899
-0.000540076
-0.00177331
0.00268683
0.00177169
-0.00195252
-0.00157236
0.0452455
0.000793843
0.0829262
0.00226233
0.0490942
-0.00171878
0.0115419
0.00236848
-0.000382945
-0.000538004
-0.00453668
0.00211163
-0.00507644
0.243
0.14677
0.0553009
0.150716
0.101352
0.174472
0.00137987
-0.00783395
0.000193005
0.0122342
-0.000242665
0.00634401
0.000283808
0.00329583
-0.000820681
0.000528087
0.00255666
0.00112048
0.00224492
-0.00095201
0.000618941
-0.00112067
0.00271052
0.00572368
0.00182416
0.166391
0.00232574
0.834916
0.00140053
0.417961
0.744786
0.00110159
0.201261
0.0857532
-0.00343563
0.00901546
-0.010935
0.000674597
-0.00724395
-0.000281853
0.0129254
-0.000109032
-3.16436e-05
0.0134458
-0.00247846
0.000465413
-0.00010996
0.000890982
0.000838492
0.0127948
0.00158268
-0.000190935
0.0120913
-0.000266432
0.00888775
0.000288817
-0.00186933
0.00706658
-0.000221925
-0.000393176
0.000334749
0.00151755
0.00281545
0.00151701
0.00410334
-0.000712471
-0.00108607
-0.00923352
0.00620027
0.0032534
-0.0122527
-0.00110256
0.00311088
0.00195547
-0.0154775
0.000623612
-0.000186173
0.00037734
-0.00116019
-0.00224968
0.00097041
-0.000718778
-0.0011403
2.52702e-05
-0.0127374
-0.00105542
0.286289
0.00391265
0.045137
-0.00247075
0.00152481
0.00433882
-0.00233271
0.000943305
-0.000668419
-1.13827e-05
2.79428e-05
8.76412e-06
-2.57272e-05
-1.37174e-05
-1.52024e-05
-0.00226265
-0.000987733
-1.56102e-05
0.000701359
0
7.57646e-05
0.0465723
-8.61793e-05
0
-3.12908e-05
0.00882353
-0.000253348
-5.97107e-05
-2.4481e-05
-9.16541e-05
0.000894397
6.73328e-05
0.000292177
0
0
0.000331458
-0.000591068
0.0105649
-0.000523734
0.00857842
-0.00175089
0.0251817
0.000226441
-0.00122198
0.000562171
0.00614801
0.000177129
-0.000153289
-0.000121314
-0.000674225
-0.00134268
0.0152779
-2.12472e-05
0.0190226
5.71711e-05
-0.00200346
-0.00015866
-0.00108301
-0.00265509
-0.00071301
0.00858829
-0.00052527
-0.000132798
0.179488
0.000521073
4.40708e-06
-0.00156829
-0.000148323
-1.32738e-05
0.0341656
0.00242945
0.0412356
0.00534228
-7.02177e-05
-0.000221169
0.0470228
-0.00430221
-0.00305557
0.0480978
0.00259943
0.05434
0.000421232
0.00370366
-0.00120399
0
0.000263156
-5.41675e-05
0.00728882
0.00267922
0.039573
0.00136616
0.0680506
-0.000700907
0.0593946
-0.00376741
0.0940809
-0.00148632
0.00420963
-0.00151716
-0.000305548
-0.00104677
0.00064256
0.166319
-0.000346702
0.000250635
-0.000521048
-0.00151814
-0.000103707
8.66955e-05
0.0015078
-9.41479e-05
-0.000828376
0.000492046
0.000802888
-5.34093e-05
0.06489
-0.00130245
0.000335872
-0.00024312
-0.000309597
-0.000383061
-6.51332e-05
-0.000313653
-4.89509e-05
3.29568e-05
0.00120229
-8.27185e-05
0.000445979
-3.37926e-05
-0.000318855
0.0290327
0.000127785
-0.00593844
0.00675555
-6.7253e-05
-0.000488328
0.000541461
7.28645e-05
0.000161522
0.00165305
0.128024
-0.00454579
-6.65584e-06
0.011333
0.00507472
0.000109935
-0.00129937
0.00695146
-6.82694e-05
-9.11344e-05
0.000906326
0.00591466
-0.000248595
4.62698e-05
0.00205377
0.175041
0.000302492
0.00136069
-0.000105386
-0.00494435
0.000154414
0.00307151
-0.000154938
0.00172099
-0.00183123
1.20122e-05
-0.000189052
0.00260323
0.000360398
0
-0.00269722
-0.00200992
0.000452984
0.000277693
0.00117891
-0.000495808
0.00595465
0.00119588
0.00015746
3.59944e-05
0.0018493
0.105803
0.000359047
1.44856e-05
-5.51472e-05
0.00510608
-0.00240749
-0.000794348
9.36122e-05
-0.00612097
0.00381416
-0.000626075
-0.000886864
0.0327044
0.0430891
3.6684e-05
-0.00388525
-0.000109205
0.00498414
-0.00036652
-0.000879238
0
-0.00225422
0.0282418
0.204581
2.89307e-06
-2.45168e-05
-0.00273858
0.00296048
0.00424385
-0.00425755
0.00323952
-3.64317e-06
0.000245158
-0.000336884
-0.000109761
0.00520648
-0.00102632
0.00170874
-0.000341096
0.00715253
-0.000299586
0.00313338
-0.000886929
1.09649e-05
0.000151703
0.000298024
0.000239302
0.00163314
0.000388986
-0.00287414
0.00409791
0.0169402
0.00532186
-0.000184459
-0.00125759
9.6009e-05
-0.00170901
0.262657
1.47038e-05
-0.000145696
0.000219437
-0.000239615
-9.45686e-05
-0.000734804
-0.000575502
-0.00118236
0.00233133
-0.000163485
-1.51379e-06
-3.58675e-06
0.000304376
-0.000656107
-0.000156209
0.00842151
-0.000151475
0.000449021
0.000199877
-3.01145e-06
-0.0017239
-5.9209e-05
-0.00272613
-3.34223e-05
0.00177813
0.00980693
-0.00114995
-0.00209229
9.24137e-05
0.000187107
0.000433235
6.495e-05
-0.00136612
0.0471055
0.173385
-0.00146419
0.00010176
0
0.00183236
-0.000977496
5.1124e-05
-0.00463533
-0.000186272
0.00265747
0.00137554
0.00834009
0.000367497
0.000377931
0.000261615
-5.92015e-05
0.00184893
4.66938e-05
-0.00287501
2.02104e-05
0.0613255
-0.000301284
0.00013473
0.000237896
0.00118069
-0.000131227
0
1.53995e-05
-0.000156003
-0.000317973
0.000488452
-0.000120763
-0.00632653
-4.62393e-05
0.000588719
0.000216411
-0.00029884
-0.0029327
0.00336971
-0.000681182
-0.00139657
0.000464143
-0.000137896
0.000155633
0.00251161
0.374392
5.78679e-07
-0.00144486
0.00145827
0.00166655
0.000294275
3.4945e-05
-0.000151196
0
0
0.000111494
0
0.000718423
0.0061811
-0.000184142
-0.000392813
0.00286954
-0.00355646
-0.000532321
0.000334103
0.081336
0.00137864
0.00559983
-4.54992e-05
0.00235685
0.00336712
0.0143724
3.49209e-06
-0.000100451
-3.63813e-05
-0.000245173
0
0.000269442
0.00155949
0.123868
0
0.000250783
-0.00447345
0.001708
0.00814003
-0.000100516
-0.00140156
0.000555805
0.000217938
0.000169861
-0.000138047
0
0
0.0041966
0.00109832
0.00249044
-0.000269806
-0.000108368
0.000190599
-0.000462042
2.00021e-05
0.00235349
-0.00020519
-0.00333823
-0.001199
0.00812583
0.000838457
0.000165977
0.125465
-0.00104771
0.00104264
-6.73534e-06
0.0104703
0.0123682
0.00216475
0.0324484
0.000297144
7.62548e-05
-4.75312e-06
0.000785186
0.000224392
0.00409657
-0.000123186
2.64828e-05
-3.20512e-05
-0.000337659
-0.000134072
1.76473e-05
0.00697618
-9.64072e-05
0.00520128
-4.68745e-05
0.000634901
0.01082
0.000640588
2.19813e-05
-0.000728957
0.0092357
0
0.000508017
0.00012019
0.000750865
-6.75708e-06
-0.000129251
0.0707354
0.00510855
2.08454e-05
-0.000335015
-4.10378e-05
-5.60747e-05
0.000737839
-0.000822335
-0.0012155
-0.000959136
0.00206234
0.0867269
-0.000119818
0.00153974
0.00124222
0.000267521
0.000179033
0.00333472
0.00029169
-4.8169e-06
-4.09067e-05
-0.0016242
-0.000118825
0.0150926
0.000527155
2.17512e-07
8.21576e-06
-0.00108235
-6.93579e-05
0.0274066
0.0298602
-0.000160757
-0.00095161
4.84827e-05
0.00100534
-4.46618e-05
2.71356e-06
-6.78227e-05
0.000927123
-0.00094898
-0.000125358
0.00041182
-2.01514e-06
-1.12364e-05
-7.22571e-05
-0.000993251
7.81e-05
-0.00246929
0.00084377
0.000816
-0.00435186
3.28702e-05
-0.0137689
0.000110953
-0.0025985
0.0227581
0.00140266
-0.00233902
1.35757e-05
0.00019359
-7.02506e-05
0.000461507
0.000101473
-0.000330622
-6.25721e-05
0.000150994
-5.56969e-05
-2.3858e-05
0.00331076
-3.99386e-05
-8.78556e-06
-0.0122405
9.22541e-05
-0.00164199
9.06774e-05
-0.000106739
-2.11372e-05
0.000331101
-7.97782e-06
0
1.88877e-05
1.44997e-05
-0.000114175
0.00121091
-1.46505e-05
0.000158797
-0.000506763
-1.48176e-05
0.000147832
-7.7986e-05
-3.21495e-05
-8.23809e-05
-0.00102738
0.00010342
-0.000180846
-8.62446e-05
-6.74229e-05
-0.000239023
0.00456214
-0.000129764
0.000147162
-0.000213848
0.00160038
0.00975852
-0.00112138
-1.15436e-05
0.00120229
0.00214351
-1.60693e-05
0.000256669
-2.46484e-05
-0.00061229
0
0.00132975
-5.60497e-05
-0.000736698
-1.26565e-05
-0.00015324
0.000461334
-7.89304e-05
5.99874e-05
-5.83911e-05
-0.000380208
-6.98581e-06
-0.000106866
0.00069127
-0.00139995
-6.22918e-05
0.0055243
-9.01965e-05
0
0.00354373
0.000187608
0.000722949
-0.00127597
0.000208854
-0.000176193
0.000457984
-0.000210362
0.104336
-9.72395e-05
3.89266e-05
0.000401281
-5.7503e-05
3.49372e-05
-0.000172199
-0.000273412
0.000106998
1.56316e-06
2.34136e-06
9.32905e-05
0.0137108
3.44779e-05
-3.2726e-07
-0.00097846
0.000323163
-0.000137907
0.000486642
-0.00106791
0.000108881
-1.72391e-05
0.000918131
0.000100952
-0.0010604
0.000348454
0.000173025
-2.86862e-05
0.000289206
0.000187755
-0.000709462
0.000197801
0.000506242
-0.00921124
-3.15075e-05
0.00622127
-0.000103688
0.000139433
-0.000203185
-6.88437e-06
-0.00500359
5.24197e-05
0.000124188
0.000337091
8.93198e-05
-1.05831e-05
-0.000946449
0
-7.09908e-05
-0.00427738
-0.00147175
0.0308438
2.72731e-05
0.000108009
0.000513459
-0.000108124
-7.54195e-06
0
-0.000281148
-0.000137963
-0.000734726
-0.000259465
7.21592e-05
6.32869e-05
-9.46049e-05
-0.0061739
-1.77624e-05
0.000440982
0.000451756
-0.000396784
6.88302e-05
3.45894e-05
-5.04124e-05
-9.40119e-06
-3.16999e-05
3.3095e-05
-3.43565e-05
-4.39514e-05
0.000107756
-3.44462e-05
-1.62982e-05
7.86043e-05
5.48487e-05
-3.02877e-05
-5.70499e-05
6.81559e-06
7.44579e-05
0.000105273
-0.0024549
0.00491574
-6.45376e-06
-3.98345e-05
-1.75449e-05
-0.0012567
-5.56507e-05
-0.00100643
-0.000336039
6.92868e-06
-5.13418e-05
-0.000108303
2.38857e-05
-2.89776e-06
0.000436497
-0.000117169
-9.70207e-05
-1.16891e-05
0.000183313
-0.000208277
-6.54296e-06
0.000175464
-8.26423e-05
0.000296753
-1.31544e-06
-7.23751e-05
0.000464013
-1.02122e-05
-0.000596566
-0.000983468
-2.89203e-05
0.000223588
0.000186495
-0.00233997
0.000196178
-1.13535e-05
-0.000520008
-0.000190391
-1.88271e-05
1.04104e-05
-0.000160441
0.000469102
-0.000317014
0.0721128
-0.00248434
0.00239931
-4.29029e-05
2.02607e-06
-0.000306054
0.000170807
0.000103227
-0.00382863
-6.94526e-05
-0.00401677
0.000499393
-0.00544567
0.013506
0.00295174
-0.00353558
-0.00176592
-0.000728257
0.000475349
0.000465478
0.000479535
-0.02056
-0.00949021
0.027191
-0.0183492
0.0483151
0.34328
4.24526e-05
0.000205582
0.00410121
-0.000762632
0.00503377
0.0278075
-0.000587403
1.02741
0.0027983
0.000103273
-0.00147045
-0.0051156
0.0036028
-0.000747265
0.0194206
0.000338474
-0.00382082
-0.00667412
0.000433387
0.00053832
0.00242874
-0.0001143
-0.000970433
0.000270242
0.00170097
0.00101867
0.00580187
0.00529537
0.00137888
-0.0203552
0.127491
-0.0102832
0.164489
-0.00337424
0.0456056
0.00688215
0.0532869
0.00189159
0.00289721
-0.00379218
-0.0106584
-0.0146888
0.0166025
-0.0303828
0.127916
0.124503
0.0126306
0.00192378
0.0125451
-0.000212784
-0.00218492
-0.00106208
0.00356885
-0.0012265
0.00060229
-0.00366766
0.00325731
0.00750522
0.00776888
0.000483043
-0.00428868
-0.00864871
-0.00289477
0.00184736
0.00133824
0.00679109
0.101961
0.00105397
0
-0.00505025
9.29683e-06
-0.000405516
