# vtk DataFile Version 2.0
Unstructured Grid by M++
ASCII
DATASET UNSTRUCTURED_GRID
POINTS 1072 float
  0.593750   1.000000 0
  0.718750   0.656250 0
  0.625000   0.968750 0
  0.625000   1.000000 0
  0.843750   0.562500 0
  0.875000   0.562500 0
  0.875000   0.531250 0
  0.562500   0.531250 0
  0.687500   1.000000 0
  0.875000   0.593750 0
  0.562500   0.593750 0
  0.625000   0.531250 0
  0.593750   0.562500 0
  0.593750   0.531250 0
  0.562500   0.562500 0
  0.593750   0.625000 0
  0.593750   0.593750 0
  0.562500   0.625000 0
  0.593750   0.687500 0
  0.562500   0.687500 0
  0.906250   0.500000 0
  0.656250   0.750000 0
  0.625000   0.937500 0
  0.593750   0.968750 0
  0.812500   0.531250 0
  0.625000   0.906250 0
  0.906250   0.625000 0
  0.656250   0.593750 0
  0.531250   0.937500 0
  0.593750   0.656250 0
  0.687500   0.562500 0
  0.625000   0.593750 0
  0.656250   0.562500 0
  0.625000   0.562500 0
  0.718750   1.000000 0
  0.687500   0.625000 0
  0.562500   0.968750 0
  0.656250   0.625000 0
  0.531250   0.968750 0
  0.625000   0.625000 0
  0.656250   0.656250 0
  0.531250   1.000000 0
  0.625000   0.656250 0
  0.625000   0.687500 0
  0.937500   0.562500 0
  0.937500   0.656250 0
  0.968750   0.625000 0
  0.937500   0.625000 0
  0.968750   0.593750 0
  0.937500   0.593750 0
  0.843750   0.531250 0
  0.812500   0.562500 0
  0.625000   0.875000 0
  0.812500   0.687500 0
  1.000000   0.625000 0
  0.750000   0.968750 0
  0.843750   0.843750 0
  1.000000   0.937500 0
  1.000000   0.906250 0
  0.937500   0.687500 0
  0.843750   0.781250 0
  0.750000   1.000000 0
  0.968750   0.562500 0
  0.968750   0.937500 0
  0.968750   0.906250 0
  0.968750   0.875000 0
  0.656250   0.781250 0
  1.000000   0.593750 0
  0.562500   0.937500 0
  0.656250   0.843750 0
  1.000000   0.656250 0
  0.656250   0.812500 0
  0.656250   0.875000 0
  0.781250   0.531250 0
  1.000000   0.687500 0
  0.906250   0.906250 0
  0.843750   0.687500 0
  0.843750   0.656250 0
  0.656250   0.906250 0
  0.937500   0.843750 0
  0.937500   0.906250 0
  0.937500   0.937500 0
  0.937500   0.875000 0
  0.625000   0.750000 0
  0.625000   0.812500 0
  0.625000   0.781250 0
  0.906250   1.000000 0
  0.625000   0.843750 0
  0.968750   0.656250 0
  0.968750   0.500000 0
  0.937500   0.531250 0
  0.875000   0.875000 0
  0.875000   0.812500 0
  0.718750   0.968750 0
  0.906250   0.812500 0
  0.843750   0.812500 0
  0.812500   0.812500 0
  0.718750   0.937500 0
  0.687500   0.937500 0
  0.906250   0.593750 0
  0.968750   0.531250 0
  0.875000   0.625000 0
  0.906250   0.875000 0
  0.781250   1.000000 0
  0.968750   0.687500 0
  0.875000   0.781250 0
  0.875000   0.687500 0
  0.812500   0.781250 0
  0.906250   0.687500 0
  0.875000   0.656250 0
  1.000000   0.562500 0
  0.812500   0.750000 0
  0.906250   0.656250 0
  0.843750   0.750000 0
  0.562500   1.000000 0
  0.687500   0.656250 0
  0.562500   0.656250 0
  0.593750   0.906250 0
  0.593750   0.937500 0
  0.562500   0.875000 0
  0.593750   0.843750 0
  0.593750   0.875000 0
  0.750000   0.687500 0
  0.781250   0.687500 0
  0.750000   0.718750 0
  0.781250   0.718750 0
  0.750000   0.750000 0
  0.562500   0.812500 0
  0.593750   0.781250 0
  0.593750   0.812500 0
  0.750000   0.625000 0
  0.781250   0.625000 0
  0.750000   0.656250 0
  0.812500   0.625000 0
  0.781250   0.656250 0
  0.562500   0.906250 0
  0.562500   0.843750 0
  0.562500   0.750000 0
  0.593750   0.750000 0
  0.562500   0.781250 0
  0.656250   0.937500 0
  0.531250   0.531250 0
  0.531250   0.562500 0
  0.531250   0.593750 0
  0.531250   0.625000 0
  0.531250   0.656250 0
  0.531250   0.687500 0
  0.812500   0.593750 0
  0.843750   0.593750 0
  0.781250   0.750000 0
  0.781250   0.781250 0
  0.531250   0.812500 0
  0.531250   0.843750 0
  0.531250   0.750000 0
  0.531250   0.718750 0
  0.531250   0.906250 0
  0.875000   0.843750 0
  0.531250   0.875000 0
  0.718750   0.718750 0
  0.687500   0.687500 0
  0.718750   0.687500 0
  0.718750   0.625000 0
  0.562500   0.718750 0
  0.687500   0.593750 0
  0.718750   0.593750 0
  0.718750   0.562500 0
  0.750000   0.562500 0
  0.656250   0.968750 0
  0.656250   0.687500 0
  1.000000   0.968750 0
  0.625000   0.718750 0
  0.656250   0.718750 0
  0.843750   0.625000 0
  0.812500   0.656250 0
  0.812500   0.718750 0
  0.687500   0.968750 0
  0.656250   1.000000 0
  0.687500   0.531250 0
  0.718750   0.531250 0
  0.906250   0.562500 0
  1.000000   0.531250 0
  0.750000   0.531250 0
  0.750000   0.593750 0
  0.781250   0.875000 0
  0.781250   0.562500 0
  0.781250   0.593750 0
  0.593750   0.281250 0
  0.593750   0.250000 0
  0.562500   0.250000 0
  0.562500   0.031250 0
  0.593750   0.375000 0
  0.718750   0.031250 0
  0.593750   0.343750 0
  0.687500   0.250000 0
  0.656250   0.437500 0
  0.781250   0.093750 0
  0.625000   0.406250 0
  0.750000   0.062500 0
  0.687500   0.500000 0
  0.812500   0.156250 0
  0.593750   0.031250 0
  0.562500   0.000000 0
  0.625000   0.125000 0
  0.625000   0.093750 0
  0.593750   0.093750 0
  0.593750   0.062500 0
  0.687500   0.437500 0
  0.781250   0.343750 0
  0.906250   0.000000 0
  0.781250   0.312500 0
  0.656250   0.406250 0
  0.750000   0.312500 0
  0.687500   0.468750 0
  0.812500   0.125000 0
  0.906250   0.031250 0
  0.656250   0.312500 0
  0.625000   0.281250 0
  0.687500   0.375000 0
  0.656250   0.343750 0
  0.625000   0.312500 0
  0.656250   0.375000 0
  0.625000   0.343750 0
  0.625000   0.375000 0
  0.750000   0.125000 0
  0.625000   0.468750 0
  0.687500   0.062500 0
  0.562500   0.406250 0
  0.656250   0.031250 0
  0.531250   0.375000 0
  0.625000   0.000000 0
  0.656250   0.062500 0
  0.531250   0.406250 0
  0.625000   0.031250 0
  0.625000   0.062500 0
  0.750000   0.406250 0
  0.843750   0.312500 0
  0.812500   0.343750 0
  0.937500   0.000000 0
  0.843750   0.343750 0
  0.968750   0.000000 0
  0.812500   0.312500 0
  0.968750   0.093750 0
  0.937500   0.062500 0
  0.750000   0.187500 0
  0.656250   0.281250 0
  0.843750   0.093750 0
  0.750000   0.156250 0
  0.625000   0.500000 0
  0.843750   0.062500 0
  0.625000   0.250000 0
  0.812500   0.062500 0
  0.968750   0.062500 0
  0.843750   0.375000 0
  0.968750   0.031250 0
  0.812500   0.375000 0
  0.937500   0.031250 0
  0.906250   0.062500 0
  0.781250   0.125000 0
  0.656250   0.468750 0
  0.875000   0.031250 0
  0.937500   0.218750 0
  0.937500   0.250000 0
  0.937500   0.312500 0
  0.937500   0.343750 0
  0.937500   0.375000 0
  0.937500   0.406250 0
  1.000000   0.000000 0
  0.875000   0.343750 0
  0.937500   0.437500 0
  0.562500   0.312500 0
  0.656250   0.218750 0
  1.000000   0.031250 0
  0.875000   0.375000 0
  0.625000   0.437500 0
  0.750000   0.093750 0
  0.968750   0.250000 0
  0.968750   0.343750 0
  0.968750   0.375000 0
  0.968750   0.406250 0
  0.968750   0.468750 0
  0.968750   0.437500 0
  0.937500   0.156250 0
  1.000000   0.406250 0
  1.000000   0.375000 0
  0.875000   0.406250 0
  1.000000   0.062500 0
  0.593750   0.000000 0
  1.000000   0.500000 0
  0.531250   0.000000 0
  1.000000   0.468750 0
  1.000000   0.437500 0
  0.750000   0.375000 0
  0.843750   0.281250 0
  0.156250   0.531250 0
  1.000000   0.312500 0
  0.031250   0.875000 0
  0.000000   0.750000 0
  0.031250   0.750000 0
  0.031250   0.781250 0
  0.031250   0.812500 0
  0.031250   0.843750 0
  0.156250   0.500000 0
  1.000000   0.281250 0
  0.125000   0.968750 0
  0.250000   0.625000 0
  0.187500   1.000000 0
  1.000000   0.718750 0
  0.312500   0.000000 0
  0.312500   0.656250 0
  0.156250   1.000000 0
  0.968750   0.718750 0
  0.281250   0.000000 0
  0.281250   0.656250 0
  0.125000   0.843750 0
  0.156250   0.843750 0
  0.000000   0.718750 0
  0.843750   0.500000 0
  0.281250   0.687500 0
  0.437500   0.781250 0
  0.312500   1.000000 0
  0.281250   1.000000 0
  0.375000   0.781250 0
  0.312500   0.500000 0
  0.437500   0.156250 0
  0.343750   0.500000 0
  0.468750   0.156250 0
  0.250000   0.156250 0
  0.343750   0.125000 0
  0.218750   0.468750 0
  0.375000   0.375000 0
  0.437500   0.312500 0
  0.406250   0.312500 0
  0.062500   0.375000 0
  0.093750   0.281250 0
  0.093750   0.343750 0
  0.937500   0.125000 0
  0.906250   0.718750 0
  0.218750   0.000000 0
  0.250000   0.968750 0
  0.531250   0.062500 0
  0.156250   0.062500 0
  0.312500   0.187500 0
  1.000000   0.875000 0
  0.312500   0.156250 0
  0.281250   0.187500 0
  0.906250   0.781250 0
  0.218750   0.062500 0
  0.718750   0.781250 0
  0.031250   0.062500 0
  0.375000   0.000000 0
  0.718750   0.750000 0
  0.031250   0.031250 0
  0.687500   0.781250 0
  0.000000   0.062500 0
  0.250000   0.500000 0
  0.375000   0.156250 0
  0.281250   0.468750 0
  0.406250   0.125000 0
  0.406250   0.343750 0
  0.062500   0.406250 0
  0.312500   0.437500 0
  0.437500   0.093750 0
  0.781250   0.031250 0
  0.250000   0.468750 0
  0.375000   0.125000 0
  0.281250   0.437500 0
  0.406250   0.093750 0
  0.406250   0.437500 0
  0.406250   0.406250 0
  0.375000   0.437500 0
  0.031250   1.000000 0
  0.187500   0.437500 0
  1.000000   0.812500 0
  0.312500   0.093750 0
  0.218750   0.437500 0
  0.343750   0.093750 0
  0.250000   0.437500 0
  0.375000   0.093750 0
  0.218750   0.406250 0
  0.343750   0.062500 0
  0.250000   0.406250 0
  0.375000   0.062500 0
  0.281250   0.218750 0
  0.187500   0.312500 0
  0.250000   0.218750 0
  0.156250   0.312500 0
  1.000000   0.093750 0
  0.125000   0.312500 0
  0.406250   0.000000 0
  0.750000   0.781250 0
  0.062500   0.062500 0
  0.375000   0.500000 0
  0.500000   0.156250 0
  0.312500   0.968750 0
  0.125000   0.468750 0
  0.500000   0.375000 0
  0.437500   0.406250 0
  0.375000   0.468750 0
  0.468750   0.375000 0
  0.125000   0.437500 0
  0.343750   0.468750 0
  0.468750   0.125000 0
  0.437500   0.375000 0
  0.093750   0.437500 0
  0.125000   0.093750 0
  0.500000   0.937500 0
  0.718750   0.906250 0
  0.031250   0.187500 0
  0.687500   0.906250 0
  0.000000   0.187500 0
  0.937500   0.781250 0
  0.250000   0.062500 0
[...]
POINT_DATA 1072
SCALARS scalar_value float 1
LOOKUP_TABLE default
0
-0.000157607
-1.42788e-05
0
2.08438e-05
6.46557e-05
9.01729e-06
-0.00177614
0
6.78309e-05
-0.00131326
-0.000788508
-0.00130069
-0.00132807
-0.00155863
-0.00128712
-0.00118121
-0.00109762
-0.000886658
-0.000730762
0.00081516
-0.000125183
-1.36792e-05
-2.56165e-05
-0.000166854
-4.0053e-05
0.000103353
-0.000581811
-2.02915e-05
-0.00104473
-0.000685766
-0.000550205
-0.00123376
-0.00070229
0
-0.000242925
-3.65534e-05
-0.000446665
-4.23989e-05
-0.000462913
-0.000338631
0
-0.000395806
-0.000383534
0.000237946
-4.95657e-05
3.60439e-05
8.65147e-05
-3.25645e-05
-8.66517e-05
-4.48439e-05
-3.39146e-05
-1.88278e-05
-4.54891e-05
2.44985e-05
3.01521e-06
-6.45761e-06
-1.63418e-06
-1.14505e-06
4.6105e-05
-3.6056e-05
0
-3.44381e-05
-3.33306e-06
1.74115e-06
1.48678e-06
-0.000147251
-0.000110548
-1.50501e-05
-7.15098e-05
-2.12191e-05
-4.02065e-05
-2.47408e-05
-9.03642e-05
-1.40287e-05
6.74217e-06
-2.81598e-06
-3.37274e-05
-3.31197e-05
1.42779e-05
1.05304e-06
2.51013e-06
6.88825e-06
-0.000271254
-5.97277e-05
-0.000155685
0
-8.97092e-05
-3.72184e-05
3.44487e-05
-0.000186962
1.41377e-05
2.55031e-05
2.18929e-06
5.10593e-05
3.55262e-05
1.82922e-06
1.38056e-05
8.14715e-06
2.02612e-05
-1.01928e-05
6.32029e-05
1.93675e-05
0
1.16994e-05
-1.41218e-05
8.25639e-05
-6.93778e-05
9.39556e-05
7.83307e-06
0.000109141
-1.16143e-05
-1.71723e-05
3.09117e-05
0
-0.000248397
-0.000749395
-5.92475e-05
2.54607e-06
-6.63792e-05
-9.37706e-05
-1.90066e-05
4.99778e-06
8.76878e-06
-4.13174e-05
7.43133e-06
-8.48786e-06
-0.000157723
-0.00019385
-0.000104475
1.19476e-05
3.89491e-05
-8.24892e-05
-5.33822e-05
-2.21334e-05
-5.68109e-05
-0.000102477
-0.000495807
-0.000692982
-0.000195088
-1.33836e-05
-0.00142757
-0.00118041
-0.000923061
-0.000719364
-0.000516332
-0.000487506
-0.000113365
-2.51741e-05
1.10761e-05
-2.8485e-06
-0.000183755
-0.000113749
-0.000293181
-0.000343005
-7.23297e-05
2.37223e-06
-6.65318e-05
-8.18415e-05
-0.00012153
-4.11215e-05
-0.000106811
-0.000534544
-0.000398957
-0.000244191
-0.000265449
-3.56041e-05
-2.71534e-05
-0.000245507
-4.71989e-06
-0.000425631
-0.000199972
-3.51149e-05
-5.51085e-05
-5.48305e-05
-1.44888e-05
0
-0.000725052
-0.000336298
-1.26812e-05
-0.000153698
-0.000131171
-0.000112238
0.000117061
4.34418e-05
-7.14779e-05
0.000602261
0.00438895
0.00168982
0.00317221
-0.00172815
0.00149513
-0.00132271
0.00106042
-0.00034516
-2.2025e-05
-0.0010689
0.000407736
-0.000732637
-0.000365314
0.00687476
0.00460511
0.00358285
0.00616474
0.00408951
0.00546128
-0.000750062
-0.000340317
0.000254537
8.53721e-05
-9.65045e-05
-1.46797e-05
-0.000697086
-8.861e-05
0.000397722
0.00110543
0.00118646
-0.000496371
0.000514415
0.000406752
9.59024e-05
-0.000137515
-0.000728567
0.000392758
-0.00126706
0.00572486
-0.00252461
0.0283562
-0.00267123
0.00871814
0.0235425
-0.00244586
0.00359493
0.00269958
-0.000275754
-3.72513e-05
-0.000467367
0.00116836
-0.000398852
0.000873012
-7.88191e-06
0.000639381
0.00116633
0.00034089
0.00127154
0.000881397
4.34081e-05
-0.000966248
0.000952221
0.00281429
0.000144949
0.000742986
7.99916e-05
0.000841591
-1.27722e-06
0.00120203
0.000478832
0.0001468
-0.000413293
-0.000293583
0.000697983
0.000661398
0.000402935
0.000108746
0.000241057
-6.52959e-05
0.000432256
-0.000425002
0.000201664
-0.00196929
0.00211964
0.000364784
-2.90825e-05
-0.00129172
-0.000179667
9.44325e-05
-0.000120016
-4.64401e-05
-8.91743e-05
-6.40383e-05
-2.16581e-05
0.000863547
-0.000202916
5.13144e-05
-0.000421436
0.000233382
0.00611568
0.00010482
0.00250268
-0.000171941
8.79858e-05
-4.37129e-05
-0.000474103
-9.48837e-06
-7.7014e-05
-3.48804e-07
4.41489e-07
-3.89679e-07
-9.32019e-07
-3.07408e-07
-1.47925e-07
-9.99096e-05
-0.00018686
3.32611e-07
-1.12777e-05
0
-6.33966e-06
0.000986316
-3.68587e-05
0
-2.25294e-06
0.00116978
-2.05356e-05
-1.78302e-06
3.53855e-07
-1.76166e-06
-3.44813e-06
-1.29423e-05
1.61963e-05
0
0
-2.28575e-05
-0.000131699
-0.000448318
-1.58492e-05
-0.000441609
0.000397373
-8.98511e-05
-2.99635e-05
0.000301723
1.68639e-05
0.000445815
-7.34234e-05
-9.25272e-05
-9.78397e-05
0.000944891
-1.16448e-05
0.00123362
3.33839e-06
0.000944908
0.000216266
0.000285911
-8.24261e-06
0.00028174
0.000330335
3.52497e-06
0.000860381
-2.8494e-05
5.0821e-05
0.000751583
-2.28888e-05
7.25046e-05
-8.58446e-05
5.43314e-05
-2.2774e-05
-0.000187212
2.03776e-05
-0.000202633
0.00072575
-7.34481e-05
-0.00010477
0.00090474
0.000178274
-2.95152e-05
-0.000299335
-2.29179e-05
8.83218e-06
0.000765643
0.000789272
0.00041457
0
-4.2623e-05
-5.7557e-06
0.000356609
7.36565e-07
-0.000166625
1.10214e-05
-0.00034575
-6.31983e-05
-7.55645e-05
-6.2827e-05
-0.000163082
0.000211902
5.76579e-05
0.00011114
-7.38687e-05
0.000170922
-6.14344e-05
0.00121166
-2.23425e-05
-1.77091e-05
0.000398921
-0.00124872
2.8123e-06
-4.53676e-05
-0.00179965
0.000382129
0.000437164
-0.000497622
-3.76655e-05
0.000129179
0.00154833
0.000271433
-5.39001e-05
0.000125283
-1.9442e-05
-1.76416e-05
-6.3563e-05
-1.10429e-05
-2.07196e-05
3.59826e-06
0.00088469
-7.60133e-05
0.000354336
-1.85364e-06
1.08782e-05
0.000355285
-1.62836e-05
-0.000397836
0.000694945
-1.04485e-05
-2.33782e-05
1.70233e-07
-1.20129e-06
1.0655e-05
3.33728e-05
0.000125467
0.000141446
-4.7555e-05
0.000348154
0.000314523
-3.73194e-05
0.000555844
0.00057224
-3.26896e-06
-6.8817e-06
-5.34986e-05
0.000451194
-1.20388e-05
-7.3498e-05
9.57122e-05
0.00692465
3.91967e-06
0.000224315
-3.85198e-06
0.000559389
5.42488e-06
1.45331e-05
5.98143e-05
1.41549e-05
-1.59094e-05
-8.21794e-06
-6.35801e-06
1.19234e-05
-1.55245e-05
0
7.15775e-05
0.00025158
0.000154191
-3.63598e-06
9.27559e-05
0.00066092
0.000397488
0.000351563
-4.90894e-05
3.74334e-08
0.000317643
0.000490989
-4.30808e-06
-3.70788e-05
7.97189e-08
0.00033809
0.00164031
0.000207914
5.34365e-06
0.000176602
-0.000262534
0.00037416
5.45348e-06
0.00215979
0.000683303
-1.85319e-05
0.000427647
-4.16105e-06
9.82672e-05
0.00018734
-1.46077e-05
0
5.28916e-05
9.1484e-05
0.00257857
-5.94395e-05
-2.90621e-05
-0.000307905
-0.00113875
6.62191e-05
-0.000114148
0.000374552
-5.60882e-05
-9.23883e-05
0.00104538
-3.04909e-05
0.000636844
7.8683e-05
0.000257344
-8.2445e-05
1.20076e-05
8.18374e-05
0.000317404
-8.7508e-05
1.29988e-08
-3.65421e-05
-4.24003e-05
-4.06306e-05
0.000317696
-3.24357e-05
0.000272201
-0.00200212
6.49007e-05
0.000157185
1.86032e-08
0.000706861
-6.45071e-05
-0.000245261
0.00556785
-4.73549e-06
1.88802e-05
-0.00101163
-1.25406e-05
-7.3578e-06
0.00027122
-7.57611e-05
8.64531e-05
7.56825e-05
-0.00090687
-6.94983e-06
-1.16614e-06
-1.82218e-05
-2.58047e-05
-4.09843e-06
0.000102309
-1.00283e-06
0.000144304
2.32675e-05
-4.29696e-05
-0.000182173
0.000118861
-0.002558
-3.53996e-07
0.000231067
0.000224418
0.000230306
7.55968e-06
-4.66337e-06
3.85861e-06
-5.12029e-05
2.22737e-06
0.000141005
0.00425636
0.00473721
-6.59133e-05
3.68689e-05
0
-1.61701e-05
-0.000184064
3.00451e-06
0.000694818
-6.13321e-06
3.72572e-05
-0.000201751
-0.00019236
4.48319e-06
5.87304e-05
-2.99153e-06
-1.53027e-06
-1.29372e-05
-3.31924e-05
-0.000547996
-4.63008e-07
0.00332279
-6.30763e-05
9.11491e-05
-2.14286e-05
-5.07033e-05
9.63759e-05
0
-6.83484e-06
-5.43749e-06
-1.73272e-06
-2.49045e-05
1.85259e-05
-0.000253103
-9.18812e-06
0.000148161
-1.01173e-05
-6.15721e-05
0.000460684
-0.00192396
0.000411972
-0.00103188
4.78748e-06
3.76446e-06
6.01753e-06
0.000336558
0.00743404
-6.91599e-05
-0.000262847
-1.48695e-05
-0.00237995
2.22055e-06
-6.43008e-06
-2.44659e-05
0
0
-5.79531e-05
0
1.10541e-05
0.000112501
-2.02101e-05
-4.73778e-05
0.000177453
-7.90682e-05
-1.8224e-05
0.000186766
0.00127348
6.82232e-05
0.000737131
-9.22647e-06
0.000627889
-0.00249655
-1.91874e-05
-1.32675e-07
-4.74769e-05
-1.39588e-07
2.52172e-05
0
-6.84817e-05
-3.6619e-05
0.000699012
0
-5.47441e-05
0.000122205
-0.000757971
0.0021511
-3.75832e-06
0.000117296
-0.00213915
0.00021427
7.17116e-06
-4.38332e-05
0
0
9.0079e-05
-0.00234701
-0.00109325
-2.13848e-05
-8.50656e-05
0.000396331
-2.79428e-05
-7.12327e-06
0.000279241
-9.34734e-05
0.000196915
-1.9929e-05
0.000991155
3.77663e-05
0.000153416
0.00139407
-5.08299e-05
0.000600795
3.49884e-07
0.000510326
0.000210037
2.40957e-05
8.92662e-05
-1.52033e-05
-0.000457757
-4.2919e-05
-0.000281046
-3.02394e-05
0.00048962
-2.90134e-06
-1.26074e-05
0.000130129
-2.21225e-05
-1.77199e-05
-2.9012e-05
-0.000458133
-1.87102e-05
-0.000152969
-8.70468e-05
5.76771e-05
0.00104592
-6.90372e-05
0.000582353
-1.80612e-05
0.00114209
0
-6.99809e-06
-2.57194e-05
-3.37533e-06
1.46483e-05
-1.4049e-05
0.000275676
0.000407457
-8.75553e-05
0.000599841
-6.05447e-05
-6.85603e-05
-0.000433984
0.000623519
-9.37167e-05
5.16642e-05
-6.21553e-06
0.000191217
-3.93643e-05
0.00111707
-5.1129e-05
0.000472749
9.22186e-06
0.00103101
-0.00119195
-1.82627e-07
9.42701e-07
-9.02824e-05
-7.89234e-06
0.000459628
-0.00147448
6.91043e-08
-1.38719e-05
-8.00665e-05
-8.30395e-06
0.000650291
0.00196518
-9.90812e-05
-0.00120562
-4.02403e-05
0.00103492
-0.000254422
9.25237e-08
-3.89941e-06
-4.32539e-05
-6.32129e-05
-1.73556e-06
0.00100513
1.23181e-07
-1.02618e-05
-7.26399e-05
-0.000115988
3.28884e-06
0.000861363
-0.0014209
0.00049384
-0.000387925
-2.42863e-06
0.00050713
-9.08114e-05
0.000393027
-0.000406621
-8.20201e-05
-0.000653314
-1.24249e-06
5.03456e-06
-4.7049e-06
-0.00190945
-1.4234e-06
-9.4682e-05
-7.85726e-07
7.04307e-06
-1.85806e-06
-9.73537e-07
0.000116782
-2.10071e-06
-8.78422e-05
-0.000341026
7.74422e-07
-9.20559e-05
-2.23862e-06
-1.47051e-06
-5.13667e-07
2.80855e-06
-1.26024e-07
0
5.94258e-06
-1.01927e-05
-8.53367e-06
-0.0021523
-1.09311e-07
-1.55991e-05
-1.10499e-05
-3.56002e-07
-2.47552e-05
-1.93452e-05
-8.39974e-06
-1.86879e-05
-0.000144614
-6.89278e-07
-6.76646e-06
-1.89695e-06
1.34549e-06
-2.17403e-05
0.00039534
-2.13859e-06
6.87174e-06
-1.02904e-05
-0.00194397
0.000436645
-4.05592e-05
-2.54845e-07
2.00585e-06
-0.00147846
1.12058e-07
-5.34369e-06
-2.74306e-07
-2.03226e-05
0
-0.00219215
-2.63543e-06
-2.71623e-05
-3.69639e-07
-3.68742e-06
8.51943e-05
-3.38645e-06
-1.4773e-05
-1.76604e-05
0.000273208
4.92309e-07
-3.24481e-05
-5.72462e-06
-0.000182774
-1.36559e-06
1.16206e-05
1.02715e-06
0
0.00097242
-1.72394e-05
-2.61882e-05
-0.000393357
-3.5183e-05
-0.000166814
-1.51285e-05
-0.000119005
0.00530753
-5.30554e-06
1.16774e-06
-1.53787e-05
-3.85722e-06
2.23604e-06
0.00016346
-3.7118e-05
0.000121625
-2.68148e-05
-1.68779e-05
4.72891e-05
-0.000440382
-3.55183e-06
3.60845e-07
-0.000627302
-5.2165e-05
-0.000194964
3.49354e-05
-0.000482032
7.36871e-06
-2.27542e-06
-9.48073e-05
-6.02291e-05
-6.13332e-05
6.01367e-07
0.000123112
-4.03103e-05
9.01046e-05
-2.61274e-05
-0.000122605
8.61163e-06
4.61564e-05
0.00178058
-8.55829e-06
-0.000253383
-2.79645e-06
-1.49184e-05
-0.000100289
-1.35821e-06
-0.00030243
3.11866e-06
-1.09368e-06
3.52574e-05
-3.18616e-05
-1.76041e-07
-2.65943e-05
0
-1.12254e-05
-0.00017457
-0.000324256
0.00356134
1.67265e-06
8.50159e-06
1.3588e-05
0.000227478
-2.58194e-07
0
-0.000830651
-5.15283e-06
-0.000725808
-7.76506e-06
-7.6131e-06
2.05921e-06
8.11398e-06
-0.000327014
2.11012e-06
-3.37116e-05
-2.96265e-05
9.64519e-05
-0.000185414
-0.000172081
-5.66099e-06
-1.72601e-05
1.59015e-06
-1.24938e-05
-2.82523e-06
-9.45765e-05
1.64627e-05
-3.26457e-06
-1.22642e-05
-1.59272e-05
2.2964e-06
-1.97002e-06
-1.80578e-06
6.159e-07
2.91309e-06
4.35717e-06
0.000334061
-5.85157e-05
1.84505e-07
-7.67952e-07
-9.03603e-08
0.000679606
-3.0695e-06
0.000142173
-4.49034e-05
-8.62328e-07
-7.9021e-08
-6.42233e-06
-3.18614e-06
-8.2605e-07
-7.2082e-07
-5.45482e-06
-8.32325e-06
-9.48244e-07
-2.16127e-07
-7.55391e-06
-6.34978e-06
3.92296e-06
-5.4365e-06
-6.54272e-06
-1.48885e-07
-7.3925e-06
-1.20286e-05
-1.78687e-07
-2.54736e-05
-0.000232056
-3.60401e-07
-7.36282e-06
-1.85838e-05
0.000216899
-2.4605e-05
-2.84242e-05
-2.78638e-05
-4.8719e-05
-2.60358e-07
3.09048e-07
-3.06293e-05
1.46294e-05
-1.51365e-05
0.00193804
-2.01591e-05
-0.00165473
-1.18327e-06
3.24647e-07
-3.94731e-05
0.000395314
-8.31439e-06
0.000137766
0.000450198
0.000229117
-1.22486e-05
-0.00030943
6.10814e-05
-1.11109e-07
-0.000231282
-0.000121196
-0.000181852
-0.000417565
-0.000105929
-0.000360862
-0.000502625
-5.90111e-05
0.000857876
0.00136869
0.00364433
0.00977431
-0.00168812
-2.44779e-06
1.89528e-05
0.00107335
0.00152567
0.00332266
0.000764872
0.0373195
-0.00282116
-0.00284838
0.000158796
-0.000618845
-0.000324182
-0.000499304
0.0022322
-1.66112e-05
2.54484e-05
-0.00131796
3.52164e-06
-0.000191367
-0.000364509
-0.000160163
-0.000526588
-0.000387961
-0.000656735
-0.00236677
-0.00174955
0.00108267
-0.00183366
0.000124192
0.00504971
0.000628297
0.00569891
-0.000571747
0.00292134
2.95766e-05
0.0022343
-0.00183564
-0.000653061
-0.000916071
-0.000384965
-0.000495778
0.000264901
0.00234259
0.0055247
0.00569636
0.00169882
-5.46507e-05
0.000160129
-0.000213366
-0.000169032
-0.00016232
-3.53688e-05
-0.000190727
0.000206942
-0.000203974
2.01364e-05
-9.84525e-05
0.000179606
4.38667e-05
7.4579e-05
-0.000513602
-0.000340549
-0.000545339
-0.00237099
0.000229917
0.00413884
-0.00259966
0
0.000115642
-4.84533e-05
0.000830528
