# vtk DataFile Version 2.0
Unstructured Grid by M++
ASCII
DATASET UNSTRUCTURED_GRID
POINTS 1072 float
  0.593750   1.000000 0
  0.718750   0.656250 0
  0.625000   0.968750 0
  0.625000   1.000000 0
  0.843750   0.562500 0
  0.875000   0.562500 0
  0.875000   0.531250 0
  0.562500   0.531250 0
  0.687500   1.000000 0
  0.875000   0.593750 0
  0.562500   0.593750 0
  0.625000   0.531250 0
  0.593750   0.562500 0
  0.593750   0.531250 0
  0.562500   0.562500 0
  0.593750   0.625000 0
  0.593750   0.593750 0
  0.562500   0.625000 0
  0.593750   0.687500 0
  0.562500   0.687500 0
  0.906250   0.500000 0
  0.656250   0.750000 0
  0.625000   0.937500 0
  0.593750   0.968750 0
  0.812500   0.531250 0
  0.625000   0.906250 0
  0.906250   0.625000 0
  0.656250   0.593750 0
  0.531250   0.937500 0
  0.593750   0.656250 0
  0.687500   0.562500 0
  0.625000   0.593750 0
  0.656250   0.562500 0
  0.625000   0.562500 0
  0.718750   1.000000 0
  0.687500   0.625000 0
  0.562500   0.968750 0
  0.656250   0.625000 0
  0.531250   0.968750 0
  0.625000   0.625000 0
  0.656250   0.656250 0
  0.531250   1.000000 0
  0.625000   0.656250 0
  0.625000   0.687500 0
  0.937500   0.562500 0
  0.937500   0.656250 0
  0.968750   0.625000 0
  0.937500   0.625000 0
  0.968750   0.593750 0
  0.937500   0.593750 0
  0.843750   0.531250 0
  0.812500   0.562500 0
  0.625000   0.875000 0
  0.812500   0.687500 0
  1.000000   0.625000 0
  0.750000   0.968750 0
  0.843750   0.843750 0
  1.000000   0.937500 0
  1.000000   0.906250 0
  0.937500   0.687500 0
  0.843750   0.781250 0
  0.750000   1.000000 0
  0.968750   0.562500 0
  0.968750   0.937500 0
  0.968750   0.906250 0
  0.968750   0.875000 0
  0.656250   0.781250 0
  1.000000   0.593750 0
  0.562500   0.937500 0
  0.656250   0.843750 0
  1.000000   0.656250 0
  0.656250   0.812500 0
  0.656250   0.875000 0
  0.781250   0.531250 0
  1.000000   0.687500 0
  0.906250   0.906250 0
  0.843750   0.687500 0
  0.843750   0.656250 0
  0.656250   0.906250 0
  0.937500   0.843750 0
  0.937500   0.906250 0
  0.937500   0.937500 0
  0.937500   0.875000 0
  0.625000   0.750000 0
  0.625000   0.812500 0
  0.625000   0.781250 0
  0.906250   1.000000 0
  0.625000   0.843750 0
  0.968750   0.656250 0
  0.968750   0.500000 0
  0.937500   0.531250 0
  0.875000   0.875000 0
  0.875000   0.812500 0
  0.718750   0.968750 0
  0.906250   0.812500 0
  0.843750   0.812500 0
  0.812500   0.812500 0
  0.718750   0.937500 0
  0.687500   0.937500 0
  0.906250   0.593750 0
  0.968750   0.531250 0
  0.875000   0.625000 0
  0.906250   0.875000 0
  0.781250   1.000000 0
  0.968750   0.687500 0
  0.875000   0.781250 0
  0.875000   0.687500 0
  0.812500   0.781250 0
  0.906250   0.687500 0
  0.875000   0.656250 0
  1.000000   0.562500 0
  0.812500   0.750000 0
  0.906250   0.656250 0
  0.843750   0.750000 0
  0.562500   1.000000 0
  0.687500   0.656250 0
  0.562500   0.656250 0
  0.593750   0.906250 0
  0.593750   0.937500 0
  0.562500   0.875000 0
  0.593750   0.843750 0
  0.593750   0.875000 0
  0.750000   0.687500 0
  0.781250   0.687500 0
  0.750000   0.718750 0
  0.781250   0.718750 0
  0.750000   0.750000 0
  0.562500   0.812500 0
  0.593750   0.781250 0
  0.593750   0.812500 0
  0.750000   0.625000 0
  0.781250   0.625000 0
  0.750000   0.656250 0
  0.812500   0.625000 0
  0.781250   0.656250 0
  0.562500   0.906250 0
  0.562500   0.843750 0
  0.562500   0.750000 0
  0.593750   0.750000 0
  0.562500   0.781250 0
  0.656250   0.937500 0
  0.531250   0.531250 0
  0.531250   0.562500 0
  0.531250   0.593750 0
  0.531250   0.625000 0
  0.531250   0.656250 0
  0.531250   0.687500 0
  0.812500   0.593750 0
  0.843750   0.593750 0
  0.781250   0.750000 0
  0.781250   0.781250 0
  0.531250   0.812500 0
  0.531250   0.843750 0
  0.531250   0.750000 0
  0.531250   0.718750 0
  0.531250   0.906250 0
  0.875000   0.843750 0
  0.531250   0.875000 0
  0.718750   0.718750 0
  0.687500   0.687500 0
  0.718750   0.687500 0
  0.718750   0.625000 0
  0.562500   0.718750 0
  0.687500   0.593750 0
  0.718750   0.593750 0
  0.718750   0.562500 0
  0.750000   0.562500 0
  0.656250   0.968750 0
  0.656250   0.687500 0
  1.000000   0.968750 0
  0.625000   0.718750 0
  0.656250   0.718750 0
  0.843750   0.625000 0
  0.812500   0.656250 0
  0.812500   0.718750 0
  0.687500   0.968750 0
  0.656250   1.000000 0
  0.687500   0.531250 0
  0.718750   0.531250 0
  0.906250   0.562500 0
  1.000000   0.531250 0
  0.750000   0.531250 0
  0.750000   0.593750 0
  0.781250   0.875000 0
  0.781250   0.562500 0
  0.781250   0.593750 0
  0.593750   0.281250 0
  0.593750   0.250000 0
  0.562500   0.250000 0
  0.562500   0.031250 0
  0.593750   0.375000 0
  0.718750   0.031250 0
  0.593750   0.343750 0
  0.687500   0.250000 0
  0.656250   0.437500 0
  0.781250   0.093750 0
  0.625000   0.406250 0
  0.750000   0.062500 0
  0.687500   0.500000 0
  0.812500   0.156250 0
  0.593750   0.031250 0
  0.562500   0.000000 0
  0.625000   0.125000 0
  0.625000   0.093750 0
  0.593750   0.093750 0
  0.593750   0.062500 0
  0.687500   0.437500 0
  0.781250   0.343750 0
  0.906250   0.000000 0
  0.781250   0.312500 0
  0.656250   0.406250 0
  0.750000   0.312500 0
  0.687500   0.468750 0
  0.812500   0.125000 0
  0.906250   0.031250 0
  0.656250   0.312500 0
  0.625000   0.281250 0
  0.687500   0.375000 0
  0.656250   0.343750 0
  0.625000   0.312500 0
  0.656250   0.375000 0
  0.625000   0.343750 0
  0.625000   0.375000 0
  0.750000   0.125000 0
  0.625000   0.468750 0
  0.687500   0.062500 0
  0.562500   0.406250 0
  0.656250   0.031250 0
  0.531250   0.375000 0
  0.625000   0.000000 0
  0.656250   0.062500 0
  0.531250   0.406250 0
  0.625000   0.031250 0
  0.625000   0.062500 0
  0.750000   0.406250 0
  0.843750   0.312500 0
  0.812500   0.343750 0
  0.937500   0.000000 0
  0.843750   0.343750 0
  0.968750   0.000000 0
  0.812500   0.312500 0
  0.968750   0.093750 0
  0.937500   0.062500 0
  0.750000   0.187500 0
  0.656250   0.281250 0
  0.843750   0.093750 0
  0.750000   0.156250 0
  0.625000   0.500000 0
  0.843750   0.062500 0
  0.625000   0.250000 0
  0.812500   0.062500 0
  0.968750   0.062500 0
  0.843750   0.375000 0
  0.968750   0.031250 0
  0.812500   0.375000 0
  0.937500   0.031250 0
  0.906250   0.062500 0
  0.781250   0.125000 0
  0.656250   0.468750 0
  0.875000   0.031250 0
  0.937500   0.218750 0
  0.937500   0.250000 0
  0.937500   0.312500 0
  0.937500   0.343750 0
  0.937500   0.375000 0
  0.937500   0.406250 0
  1.000000   0.000000 0
  0.875000   0.343750 0
  0.937500   0.437500 0
  0.562500   0.312500 0
  0.656250   0.218750 0
  1.000000   0.031250 0
  0.875000   0.375000 0
  0.625000   0.437500 0
  0.750000   0.093750 0
  0.968750   0.250000 0
  0.968750   0.343750 0
  0.968750   0.375000 0
  0.968750   0.406250 0
  0.968750   0.468750 0
  0.968750   0.437500 0
  0.937500   0.156250 0
  1.000000   0.406250 0
  1.000000   0.375000 0
  0.875000   0.406250 0
  1.000000   0.062500 0
  0.593750   0.000000 0
  1.000000   0.500000 0
  0.531250   0.000000 0
  1.000000   0.468750 0
  1.000000   0.437500 0
  0.750000   0.375000 0
  0.843750   0.281250 0
  0.156250   0.531250 0
  1.000000   0.312500 0
  0.031250   0.875000 0
  0.000000   0.750000 0
  0.031250   0.750000 0
  0.031250   0.781250 0
  0.031250   0.812500 0
  0.031250   0.843750 0
  0.156250   0.500000 0
  1.000000   0.281250 0
  0.125000   0.968750 0
  0.250000   0.625000 0
  0.187500   1.000000 0
  1.000000   0.718750 0
  0.312500   0.000000 0
  0.312500   0.656250 0
  0.156250   1.000000 0
  0.968750   0.718750 0
  0.281250   0.000000 0
  0.281250   0.656250 0
  0.125000   0.843750 0
  0.156250   0.843750 0
  0.000000   0.718750 0
  0.843750   0.500000 0
  0.281250   0.687500 0
  0.437500   0.781250 0
  0.312500   1.000000 0
  0.281250   1.000000 0
  0.375000   0.781250 0
  0.312500   0.500000 0
  0.437500   0.156250 0
  0.343750   0.500000 0
  0.468750   0.156250 0
  0.250000   0.156250 0
  0.343750   0.125000 0
  0.218750   0.468750 0
  0.375000   0.375000 0
  0.437500   0.312500 0
  0.406250   0.312500 0
  0.062500   0.375000 0
  0.093750   0.281250 0
  0.093750   0.343750 0
  0.937500   0.125000 0
  0.906250   0.718750 0
  0.218750   0.000000 0
  0.250000   0.968750 0
  0.531250   0.062500 0
  0.156250   0.062500 0
  0.312500   0.187500 0
  1.000000   0.875000 0
  0.312500   0.156250 0
  0.281250   0.187500 0
  0.906250   0.781250 0
  0.218750   0.062500 0
  0.718750   0.781250 0
  0.031250   0.062500 0
  0.375000   0.000000 0
  0.718750   0.750000 0
  0.031250   0.031250 0
  0.687500   0.781250 0
  0.000000   0.062500 0
  0.250000   0.500000 0
  0.375000   0.156250 0
  0.281250   0.468750 0
  0.406250   0.125000 0
  0.406250   0.343750 0
  0.062500   0.406250 0
  0.312500   0.437500 0
  0.437500   0.093750 0
  0.781250   0.031250 0
  0.250000   0.468750 0
  0.375000   0.125000 0
  0.281250   0.437500 0
  0.406250   0.093750 0
  0.406250   0.437500 0
  0.406250   0.406250 0
  0.375000   0.437500 0
  0.031250   1.000000 0
  0.187500   0.437500 0
  1.000000   0.812500 0
  0.312500   0.093750 0
  0.218750   0.437500 0
  0.343750   0.093750 0
  0.250000   0.437500 0
  0.375000   0.093750 0
  0.218750   0.406250 0
  0.343750   0.062500 0
  0.250000   0.406250 0
  0.375000   0.062500 0
  0.281250   0.218750 0
  0.187500   0.312500 0
  0.250000   0.218750 0
  0.156250   0.312500 0
  1.000000   0.093750 0
  0.125000   0.312500 0
  0.406250   0.000000 0
  0.750000   0.781250 0
  0.062500   0.062500 0
  0.375000   0.500000 0
  0.500000   0.156250 0
  0.312500   0.968750 0
  0.125000   0.468750 0
  0.500000   0.375000 0
  0.437500   0.406250 0
  0.375000   0.468750 0
  0.468750   0.375000 0
  0.125000   0.437500 0
  0.343750   0.468750 0
  0.468750   0.125000 0
  0.437500   0.375000 0
  0.093750   0.437500 0
  0.125000   0.093750 0
  0.500000   0.937500 0
  0.718750   0.906250 0
  0.031250   0.187500 0
  0.687500   0.906250 0
  0.000000   0.187500 0
  0.937500   0.781250 0
  0.250000   0.062500 0
[...]
POINT_DATA 1072
SCALARS scalar_value float 1
LOOKUP_TABLE default
0
-0.000448461
-9.2533e-05
0
0.000125287
-8.37564e-06
-0.000253546
-0.00175641
0
0.000102459
-0.00175463
-0.000101776
-0.000885694
-0.000570658
-0.00180972
-0.00103403
-0.00103482
-0.00182176
-0.000848474
-0.00133878
0.00389218
-0.000308855
-3.3463e-05
-0.000115746
-0.000549814
-0.000192364
0.000293768
-0.000818752
-0.000120068
-0.00122646
-0.000560195
-0.000913012
0.00011042
-0.00035285
0
-0.00052768
-0.000196473
-0.000672184
-0.000203852
-0.00091096
-0.000671756
0
-0.000929899
-0.000952717
0.000921809
-0.000288193
0.00018745
0.000329591
-0.000139367
-0.000568614
-0.00027416
3.81454e-05
-4.35882e-05
-0.000121346
0.000162123
1.18592e-05
-2.85287e-05
-6.57483e-06
-3.54518e-06
0.000185359
-0.000172602
0
-0.000181647
-1.44158e-05
7.42941e-06
6.16477e-06
-0.000466652
-0.000499785
-4.20824e-05
-0.000279974
-7.60392e-05
-9.38557e-05
-6.27718e-05
-0.000234821
-5.23225e-05
2.99133e-05
2.88467e-05
-0.000103047
-0.000139648
5.08726e-05
2.38643e-06
9.89924e-06
2.19747e-05
-0.000678446
-0.000149659
-0.000544416
0
-0.000346838
-0.000177436
0.000186278
-0.0011823
4.70679e-05
8.7487e-05
6.29336e-06
0.000171127
0.00016584
3.54957e-05
6.53673e-05
3.30106e-05
-0.000193757
-4.51832e-05
0.000141123
5.65535e-05
0
6.50429e-05
-8.80916e-05
0.000314051
-0.00028288
0.000294743
-9.69547e-05
0.0006086
-1.34231e-05
-0.000278079
0.000173058
0
-0.000513914
-0.0016111
-0.000243867
-1.39277e-06
-0.000233251
-0.000380357
-6.77447e-05
0.000112139
0.000108184
-0.000129842
3.81683e-05
-1.53153e-06
-0.000564861
-0.000630775
-0.000321632
0.000203355
0.000243369
-0.000299701
-7.69781e-05
-8.25861e-05
-0.000301093
-0.000432781
-0.00110351
-0.00121906
-0.000677239
-4.97061e-05
-0.00232022
-0.00214938
-0.00202712
-0.0017131
-0.00144524
-0.00122494
-0.000417034
-0.000116097
0.000100505
-5.65455e-06
-0.000622418
-0.000466489
-0.000902744
-0.00115232
-0.000299827
-3.89555e-06
-0.000324235
-0.000340361
-0.000278615
1.97966e-05
-0.0001868
-0.0011475
-0.000629705
-0.000342461
-0.000513503
6.00304e-06
-0.00010662
-0.000561388
-2.10056e-05
-0.000902571
-0.000587969
-0.000106425
-0.000183865
-0.000187933
-8.03876e-05
0
-0.000618277
-0.000405677
-0.000269692
-0.000663094
-6.80868e-05
-0.000299026
0.000533301
0.000235947
-0.000259355
0.00277601
0.00490789
0.00261931
0.00564182
0.00116093
0.00353552
0.0017642
0.00257846
0.00146761
0.000363568
0.00128706
-0.000241874
-0.000388067
-5.23652e-05
0.0223356
0.0125807
0.00481481
0.0175038
0.00455111
0.0135116
-0.000435616
-0.00119816
-0.00216561
0.00134243
0.00154344
0.000992179
-0.000655452
0.0013359
-0.00166661
0.00191213
0.0033965
8.82953e-05
0.00239885
0.00260637
0.00173104
0.00229845
0.00209789
0.00127349
0.000211372
0.0191541
-0.000987873
0.126104
-0.00164565
0.0402417
0.105162
-0.00201626
0.0112268
0.00206575
-0.000458151
0.00103954
-0.00165775
-0.000161375
-0.00121627
0.000318742
0.00128984
0.000776035
0.000551725
0.0019903
0.00223359
0.00220017
1.31624e-05
-0.00013419
0.0019538
0.00294578
0.00151437
0.00069462
0.00124218
0.000529205
0.000773613
0.000191646
-0.00108888
0.00167662
0.0011527
-0.0024997
0.0014421
0.00165067
0.00133516
0.000471407
0.00100168
-0.00025044
-0.000115001
-0.00159934
0.000930137
0.00129984
0.000266038
-2.94804e-06
0.000268783
0.000771863
-0.0022245
0.000493862
-0.000159375
3.90032e-05
-0.000287949
-0.000335047
6.75195e-05
0.00100077
-0.000507198
0.000225943
-0.00192725
1.6596e-05
0.0230579
0.000620023
0.00371076
-0.000632949
0.000421443
0.000558382
-0.0008093
1.3317e-05
-5.24232e-05
-1.51034e-06
2.07035e-06
-1.58272e-06
-4.15925e-06
-1.69193e-06
-1.25467e-06
-0.000225004
-0.0002816
-1.11102e-07
2.0942e-05
0
-1.18168e-05
0.00374532
-7.13658e-05
0
-1.10127e-05
-0.000394273
-3.53509e-05
-9.71873e-06
-3.79211e-07
-9.43293e-06
1.08353e-05
-2.38657e-05
1.31321e-05
0
0
1.49484e-06
-0.000227416
0.00114963
0.000135214
0.00153873
0.000568618
0.00112738
-2.5354e-05
-0.000123141
-0.000331431
-0.000588267
-3.44642e-05
1.0478e-05
-5.5964e-05
0.000843741
-0.000176668
0.00258228
1.13803e-06
0.0027718
0.00074384
0.000692755
-3.38084e-05
0.000718147
0.000962697
-6.66469e-05
0.00201233
-0.000128175
8.94434e-05
0.0138327
5.15432e-06
4.9039e-05
-0.000332315
9.39363e-05
-9.147e-05
0.000891075
0.000313393
0.00229023
6.73134e-05
-9.38979e-05
-0.000106377
0.00380021
0.000125352
-0.000164778
0.00195345
0.00020708
0.00339559
-0.000255904
0.000268449
0.000303958
0
-3.76913e-05
-2.11745e-05
0.00127091
0.000124615
0.00217287
4.83007e-05
0.0035306
-9.90976e-05
0.00389014
-0.000199531
0.00589383
0.000777834
0.000502756
0.00037433
-4.94557e-05
4.05224e-05
0.000107008
0.0125494
-6.58377e-05
-0.000103852
0.000654012
0.0018991
-1.26199e-05
-5.5719e-05
-0.00137684
0.000373773
0.000583893
-0.000404969
4.05177e-05
0.000447985
0.00484747
-4.28024e-06
-1.98022e-05
0.000336464
-6.28307e-05
-7.5951e-05
5.6204e-05
-5.84339e-05
0.000117182
1.43876e-05
0.000304289
-8.38473e-05
0.000889131
-7.45888e-06
8.183e-05
0.00366851
-2.94247e-05
-0.00126037
0.00166517
-4.30295e-05
-9.54099e-05
0.00026644
4.51612e-06
0.000141383
0.000180402
0.00894811
-0.000310847
-1.58248e-05
-0.000253056
0.000155106
-7.91769e-06
0.000622396
0.00156478
-1.70538e-05
-2.19289e-05
0.000214101
0.00118252
-4.93656e-05
7.70132e-05
0.000608604
0.0245751
1.36194e-05
2.28935e-05
-1.74207e-05
0.000921845
2.65362e-05
0.000463939
0.000229092
0.000197587
0.000114315
0.000150505
-3.79841e-05
0.000237576
6.61302e-05
0
0.000357507
0.000487921
3.26492e-05
1.82665e-05
0.000512745
0.000614459
0.00109224
-0.000429697
-2.05634e-05
3.0834e-06
0.000938927
0.00716686
1.83361e-05
-0.000111587
-3.06415e-06
0.000790421
0.00257258
0.000153641
1.92729e-05
-6.46462e-06
-0.000142112
0.000500461
-0.000146163
0.00435522
0.00374252
0.000151082
0.000978374
-1.78551e-05
0.000642048
0.000378588
-0.000155656
0
0.000419101
0.000524211
0.0169542
7.17398e-05
-5.87513e-05
-0.000679837
0.00058117
0.000505388
-0.00032579
-0.000377936
-4.82953e-05
5.25271e-05
0.000696104
-6.92061e-05
0.00311681
6.56834e-05
0.000311019
-0.000111264
-0.000665362
-0.000130181
0.00139788
-0.000151014
4.69243e-07
-4.23839e-05
0.000171121
-4.3852e-05
0.00101434
-1.63529e-05
0.00043416
0.00128229
0.000108956
0.000738734
-1.25255e-05
0.000385671
1.2386e-05
-0.00157292
0.0242486
-9.75989e-06
0.00010336
-0.00131815
-4.91557e-05
9.24032e-05
0.000434167
-0.000194697
-8.68906e-05
0.000296635
-0.00130877
-2.67038e-05
-3.46268e-06
5.54426e-05
-0.000126456
0.000103401
0.000908748
-2.748e-05
-2.8828e-05
7.87823e-05
7.53795e-05
-0.000504752
4.58441e-06
-0.000375217
-2.67931e-06
0.000813968
0.00121514
0.000673962
0.000301095
-9.25977e-06
2.18636e-05
0.000229515
1.03752e-05
0.00061149
0.00594619
0.0171516
-0.000287674
0.000171797
0
0.000194286
-0.00026001
1.19753e-05
0.000721002
-2.78195e-05
0.000511474
0.00240176
0.000628211
3.95191e-05
0.000295873
1.57486e-05
-7.71806e-06
6.03791e-05
-4.93832e-05
-0.00130238
1.28613e-06
0.00613708
-0.000112823
4.16436e-06
-1.02732e-05
-8.63158e-05
5.29488e-05
0
-1.80155e-05
-2.57387e-05
-4.84153e-05
-3.15888e-05
9.47971e-05
-0.00097679
-2.25232e-05
-5.18006e-05
-9.66726e-06
-0.000130788
0.000720073
0.000833263
0.000503934
-0.000721575
5.44137e-05
-3.56964e-05
2.83621e-05
0.00056534
0.0354581
-1.54122e-07
-0.00213744
1.63825e-05
-0.00136657
0.000183431
-1.60418e-05
0.000100104
0
0
-4.7713e-07
0
0.00012827
-2.97147e-05
-6.59353e-05
2.7546e-05
0.000976147
-0.000181908
-7.86965e-05
0.00021827
0.00619911
0.000277614
0.00271997
-2.08273e-05
-0.000422997
-0.000261544
0.000353909
4.43824e-07
-6.55217e-05
-2.56368e-06
0.00022504
0
5.916e-05
0.000132036
0.0099104
0
-3.49094e-05
-0.000396152
-0.000340614
0.00345586
-2.16791e-05
-0.000398176
-0.00132817
0.000399202
3.32875e-05
5.53733e-05
0
0
0.000509484
-0.000999574
0.00010618
-7.71338e-05
3.88831e-05
0.00124491
-0.00010997
-8.91903e-05
0.00117935
-7.70162e-05
-0.000701666
-0.000164698
0.00334226
0.000191395
7.32049e-05
0.00957557
-0.000216779
0.00162615
3.90834e-07
-4.20319e-05
-0.000328429
0.000280468
0.00107188
1.22936e-05
-0.000290575
-5.75159e-05
6.64347e-05
6.34149e-06
0.00198865
-1.47377e-05
8.3037e-05
0.000449556
-8.74758e-05
-5.62733e-05
8.16765e-05
0.000464285
-6.37054e-05
0.000855321
-4.14717e-05
0.000172672
0.00225019
6.73515e-05
0.000910619
-0.000106644
-0.000583024
0
-0.000126033
-3.01002e-05
-0.000141048
-1.91662e-05
0.000206193
0.00460468
-0.000256659
2.82526e-05
0.000667566
1.38941e-05
8.45891e-05
-0.00288569
0.000474915
-0.000163508
3.79919e-05
0.000157891
0.00638284
7.00697e-05
0.00149533
0.000120468
0.000943452
3.8041e-05
-0.000205265
-0.0013291
-6.44795e-07
-2.37745e-05
-0.000182722
-2.85608e-05
0.00174435
-0.00142572
1.75457e-07
-3.37107e-05
-0.000152192
-2.78859e-05
0.00242278
0.00235637
-2.59281e-05
0.000562619
2.78541e-05
0.00171002
-0.000251966
3.84807e-07
-2.4314e-05
0.000127588
-0.000101316
-1.38443e-05
-8.71693e-05
1.37705e-07
-2.61607e-05
-2.09406e-05
-0.000142109
1.26389e-05
0.000536013
-0.000375936
0.000123151
-0.000142491
2.35684e-06
-0.00151779
-1.62276e-05
-0.000731905
0.00072062
-4.99937e-06
0.00020432
-6.81749e-06
0.000196931
-1.82428e-05
-0.00232765
-3.24288e-06
-0.000119398
-8.9686e-06
3.33959e-05
-9.88592e-06
-4.82167e-06
0.0003939
-9.47091e-06
-6.40552e-05
-0.00181782
4.19415e-06
-0.000348677
-4.05286e-06
-9.61832e-06
-3.39384e-06
1.00957e-05
-1.06561e-06
0
4.46018e-06
-2.29652e-05
-2.47354e-05
-0.00221281
-1.20774e-06
-1.41782e-05
-4.33647e-05
-1.47143e-06
-4.95047e-05
-4.71602e-05
-1.98062e-05
-5.64459e-05
-0.000163252
-3.67801e-06
-1.603e-05
-1.61015e-05
-1.26677e-06
-7.38885e-05
0.00152952
-1.8594e-05
2.27921e-05
-4.26486e-05
-0.0016685
0.00190992
-0.000105343
-1.23794e-06
5.39835e-05
-0.000340694
-6.41391e-07
-2.85621e-06
-1.95555e-06
-6.57398e-05
0
-0.00162737
-1.24466e-05
-9.17158e-05
-2.19888e-06
-1.95062e-05
0.000441554
-1.74866e-05
-4.54447e-05
-4.2551e-05
0.000668277
4.7458e-07
-3.17944e-05
7.74245e-05
-0.00069115
-8.66868e-06
0.000605172
-1.66738e-05
0
0.00356268
6.88464e-05
0.000138138
-0.000983742
-5.02465e-05
-0.000315625
2.24859e-05
-0.000252931
0.00956154
-2.50085e-05
5.62739e-06
3.30263e-06
-1.17888e-05
7.58257e-06
0.0005206
0.000100521
0.000537891
-4.44072e-05
-4.01368e-05
0.000313545
0.00275777
-1.15738e-05
2.46151e-06
-0.00123599
-3.71076e-05
-0.000274923
0.00029862
-0.00117616
-4.37854e-06
-3.25973e-06
0.00102545
-7.1411e-05
-0.000344613
8.89842e-05
0.000423941
-3.58853e-05
0.000332961
-1.05392e-05
-0.000315055
2.62507e-05
0.000238945
0.00104724
-3.04752e-05
0.0012056
-1.79863e-05
-5.52706e-05
-0.000224983
-4.38861e-06
-0.000660675
1.02338e-05
2.83733e-06
0.000219107
-4.75512e-05
-9.47964e-07
-0.00014621
0
-3.52195e-05
-0.000885515
-0.000905723
0.00402796
6.38962e-06
2.88678e-05
8.06451e-05
0.00059122
-1.73102e-06
0
-0.00138341
-2.80909e-05
-0.00142537
-4.3102e-05
-3.41734e-05
8.23459e-06
-2.19652e-06
-0.00119009
-2.84638e-06
5.66758e-05
5.66943e-05
0.000424875
-3.61157e-05
-0.000309726
-2.12267e-05
-5.2114e-05
-3.46803e-06
-3.39668e-05
-5.80152e-06
-0.000171556
0.000204565
-2.42634e-05
-3.74641e-05
-4.32825e-05
1.17463e-05
-8.13641e-06
-1.07925e-05
2.19943e-06
1.21434e-05
1.90242e-05
-0.000649425
0.000116144
1.0426e-07
-3.70959e-06
-1.50237e-07
0.000287145
-1.34206e-05
0.000492931
-7.42764e-05
-6.43225e-07
2.76534e-06
-2.05818e-05
-1.31356e-05
-1.44356e-06
1.94392e-05
-2.03559e-05
-4.14649e-05
-4.84997e-06
-1.1154e-06
-4.16421e-05
-2.14969e-05
1.45029e-05
-2.18468e-05
-2.06554e-05
-4.96444e-07
-3.17993e-05
1.48343e-07
-9.91155e-07
-8.32093e-05
-0.000440355
-2.52458e-06
-1.47741e-05
-2.85046e-05
0.000467187
-2.99563e-05
-7.9512e-05
-9.90367e-05
-0.000109037
-1.59814e-06
1.3102e-06
-7.0155e-05
0.000259215
-6.31455e-05
0.00606514
-0.000128541
-0.000206431
-6.02162e-06
8.56566e-07
-0.000111707
0.00116084
-1.94146e-05
0.000170104
0.00177685
5.43372e-05
-9.16453e-05
-0.00065169
0.00149633
0.000138216
-0.000777153
-0.000235639
-0.000158626
-0.000355545
-0.000183668
-8.62929e-05
-0.00228412
-0.000534676
0.00362464
-0.00187547
0.00485274
0.0382791
-0.00236324
1.03859e-05
0.000301362
0.000775115
0.00153249
0.00410795
0.00201356
0.164658
-0.0010348
-0.000399867
0.00117215
-0.000429027
0.000398052
0.000520497
0.00430801
3.52907e-05
-0.000905213
0.001315
0.000217361
0.000212267
0.0024439
-0.000332119
-5.05972e-05
-0.000238895
0.000106617
0.000522847
0.00201945
0.000125341
3.12643e-05
-0.00192098
0.0141997
-0.000903454
0.0182748
-0.000763858
0.00575091
0.00135298
0.00602963
0.000599571
0.0026095
0.0022523
-0.00116025
-0.00187098
0.00228415
-0.00348354
0.00981264
0.0109327
0.00166783
2.8806e-05
0.00275191
0.000198587
-0.000730545
-0.000204626
0.00020494
-0.000526249
0.000684345
-0.000660004
0.000277965
0.00116497
0.0015976
0.000142905
-0.000735629
-0.00132918
-0.000409462
0.00147843
0.00035954
0.00096118
0.0119158
-0.00043404
0
8.72207e-07
-3.43328e-05
0.00135029
