# vtk DataFile Version 2.0
Unstructured Grid by M++
ASCII
DATASET UNSTRUCTURED_GRID
POINTS 1072 float
  0.593750   1.000000 0
  0.718750   0.656250 0
  0.625000   0.968750 0
  0.625000   1.000000 0
  0.843750   0.562500 0
  0.875000   0.562500 0
  0.875000   0.531250 0
  0.562500   0.531250 0
  0.687500   1.000000 0
  0.875000   0.593750 0
  0.562500   0.593750 0
  0.625000   0.531250 0
  0.593750   0.562500 0
  0.593750   0.531250 0
  0.562500   0.562500 0
  0.593750   0.625000 0
  0.593750   0.593750 0
  0.562500   0.625000 0
  0.593750   0.687500 0
  0.562500   0.687500 0
  0.906250   0.500000 0
  0.656250   0.750000 0
  0.625000   0.937500 0
  0.593750   0.968750 0
  0.812500   0.531250 0
  0.625000   0.906250 0
  0.906250   0.625000 0
  0.656250   0.593750 0
  0.531250   0.937500 0
  0.593750   0.656250 0
  0.687500   0.562500 0
  0.625000   0.593750 0
  0.656250   0.562500 0
  0.625000   0.562500 0
  0.718750   1.000000 0
  0.687500   0.625000 0
  0.562500   0.968750 0
  0.656250   0.625000 0
  0.531250   0.968750 0
  0.625000   0.625000 0
  0.656250   0.656250 0
  0.531250   1.000000 0
  0.625000   0.656250 0
  0.625000   0.687500 0
  0.937500   0.562500 0
  0.937500   0.656250 0
  0.968750   0.625000 0
  0.937500   0.625000 0
  0.968750   0.593750 0
  0.937500   0.593750 0
  0.843750   0.531250 0
  0.812500   0.562500 0
  0.625000   0.875000 0
  0.812500   0.687500 0
  1.000000   0.625000 0
  0.750000   0.968750 0
  0.843750   0.843750 0
  1.000000   0.937500 0
  1.000000   0.906250 0
  0.937500   0.687500 0
  0.843750   0.781250 0
  0.750000   1.000000 0
  0.968750   0.562500 0
  0.968750   0.937500 0
  0.968750   0.906250 0
  0.968750   0.875000 0
  0.656250   0.781250 0
  1.000000   0.593750 0
  0.562500   0.937500 0
  0.656250   0.843750 0
  1.000000   0.656250 0
  0.656250   0.812500 0
  0.656250   0.875000 0
  0.781250   0.531250 0
  1.000000   0.687500 0
  0.906250   0.906250 0
  0.843750   0.687500 0
  0.843750   0.656250 0
  0.656250   0.906250 0
  0.937500   0.843750 0
  0.937500   0.906250 0
  0.937500   0.937500 0
  0.937500   0.875000 0
  0.625000   0.750000 0
  0.625000   0.812500 0
  0.625000   0.781250 0
  0.906250   1.000000 0
  0.625000   0.843750 0
  0.968750   0.656250 0
  0.968750   0.500000 0
  0.937500   0.531250 0
  0.875000   0.875000 0
  0.875000   0.812500 0
  0.718750   0.968750 0
  0.906250   0.812500 0
  0.843750   0.812500 0
  0.812500   0.812500 0
  0.718750   0.937500 0
  0.687500   0.937500 0
  0.906250   0.593750 0
  0.968750   0.531250 0
  0.875000   0.625000 0
  0.906250   0.875000 0
  0.781250   1.000000 0
  0.968750   0.687500 0
  0.875000   0.781250 0
  0.875000   0.687500 0
  0.812500   0.781250 0
  0.906250   0.687500 0
  0.875000   0.656250 0
  1.000000   0.562500 0
  0.812500   0.750000 0
  0.906250   0.656250 0
  0.843750   0.750000 0
  0.562500   1.000000 0
  0.687500   0.656250 0
  0.562500   0.656250 0
  0.593750   0.906250 0
  0.593750   0.937500 0
  0.562500   0.875000 0
  0.593750   0.843750 0
  0.593750   0.875000 0
  0.750000   0.687500 0
  0.781250   0.687500 0
  0.750000   0.718750 0
  0.781250   0.718750 0
  0.750000   0.750000 0
  0.562500   0.812500 0
  0.593750   0.781250 0
  0.593750   0.812500 0
  0.750000   0.625000 0
  0.781250   0.625000 0
  0.750000   0.656250 0
  0.812500   0.625000 0
  0.781250   0.656250 0
  0.562500   0.906250 0
  0.562500   0.843750 0
  0.562500   0.750000 0
  0.593750   0.750000 0
  0.562500   0.781250 0
  0.656250   0.937500 0
  0.531250   0.531250 0
  0.531250   0.562500 0
  0.531250   0.593750 0
  0.531250   0.625000 0
  0.531250   0.656250 0
  0.531250   0.687500 0
  0.812500   0.593750 0
  0.843750   0.593750 0
  0.781250   0.750000 0
  0.781250   0.781250 0
  0.531250   0.812500 0
  0.531250   0.843750 0
  0.531250   0.750000 0
  0.531250   0.718750 0
  0.531250   0.906250 0
  0.875000   0.843750 0
  0.531250   0.875000 0
  0.718750   0.718750 0
  0.687500   0.687500 0
  0.718750   0.687500 0
  0.718750   0.625000 0
  0.562500   0.718750 0
  0.687500   0.593750 0
  0.718750   0.593750 0
  0.718750   0.562500 0
  0.750000   0.562500 0
  0.656250   0.968750 0
  0.656250   0.687500 0
  1.000000   0.968750 0
  0.625000   0.718750 0
  0.656250   0.718750 0
  0.843750   0.625000 0
  0.812500   0.656250 0
  0.812500   0.718750 0
  0.687500   0.968750 0
  0.656250   1.000000 0
  0.687500   0.531250 0
  0.718750   0.531250 0
  0.906250   0.562500 0
  1.000000   0.531250 0
  0.750000   0.531250 0
  0.750000   0.593750 0
  0.781250   0.875000 0
  0.781250   0.562500 0
  0.781250   0.593750 0
  0.593750   0.281250 0
  0.593750   0.250000 0
  0.562500   0.250000 0
  0.562500   0.031250 0
  0.593750   0.375000 0
  0.718750   0.031250 0
  0.593750   0.343750 0
  0.687500   0.250000 0
  0.656250   0.437500 0
  0.781250   0.093750 0
  0.625000   0.406250 0
  0.750000   0.062500 0
  0.687500   0.500000 0
  0.812500   0.156250 0
  0.593750   0.031250 0
  0.562500   0.000000 0
  0.625000   0.125000 0
  0.625000   0.093750 0
  0.593750   0.093750 0
  0.593750   0.062500 0
  0.687500   0.437500 0
  0.781250   0.343750 0
  0.906250   0.000000 0
  0.781250   0.312500 0
  0.656250   0.406250 0
  0.750000   0.312500 0
  0.687500   0.468750 0
  0.812500   0.125000 0
  0.906250   0.031250 0
  0.656250   0.312500 0
  0.625000   0.281250 0
  0.687500   0.375000 0
  0.656250   0.343750 0
  0.625000   0.312500 0
  0.656250   0.375000 0
  0.625000   0.343750 0
  0.625000   0.375000 0
  0.750000   0.125000 0
  0.625000   0.468750 0
  0.687500   0.062500 0
  0.562500   0.406250 0
  0.656250   0.031250 0
  0.531250   0.375000 0
  0.625000   0.000000 0
  0.656250   0.062500 0
  0.531250   0.406250 0
  0.625000   0.031250 0
  0.625000   0.062500 0
  0.750000   0.406250 0
  0.843750   0.312500 0
  0.812500   0.343750 0
  0.937500   0.000000 0
  0.843750   0.343750 0
  0.968750   0.000000 0
  0.812500   0.312500 0
  0.968750   0.093750 0
  0.937500   0.062500 0
  0.750000   0.187500 0
  0.656250   0.281250 0
  0.843750   0.093750 0
  0.750000   0.156250 0
  0.625000   0.500000 0
  0.843750   0.062500 0
  0.625000   0.250000 0
  0.812500   0.062500 0
  0.968750   0.062500 0
  0.843750   0.375000 0
  0.968750   0.031250 0
  0.812500   0.375000 0
  0.937500   0.031250 0
  0.906250   0.062500 0
  0.781250   0.125000 0
  0.656250   0.468750 0
  0.875000   0.031250 0
  0.937500   0.218750 0
  0.937500   0.250000 0
  0.937500   0.312500 0
  0.937500   0.343750 0
  0.937500   0.375000 0
  0.937500   0.406250 0
  1.000000   0.000000 0
  0.875000   0.343750 0
  0.937500   0.437500 0
  0.562500   0.312500 0
  0.656250   0.218750 0
  1.000000   0.031250 0
  0.875000   0.375000 0
  0.625000   0.437500 0
  0.750000   0.093750 0
  0.968750   0.250000 0
  0.968750   0.343750 0
  0.968750   0.375000 0
  0.968750   0.406250 0
  0.968750   0.468750 0
  0.968750   0.437500 0
  0.937500   0.156250 0
  1.000000   0.406250 0
  1.000000   0.375000 0
  0.875000   0.406250 0
  1.000000   0.062500 0
  0.593750   0.000000 0
  1.000000   0.500000 0
  0.531250   0.000000 0
  1.000000   0.468750 0
  1.000000   0.437500 0
  0.750000   0.375000 0
  0.843750   0.281250 0
  0.156250   0.531250 0
  1.000000   0.312500 0
  0.031250   0.875000 0
  0.000000   0.750000 0
  0.031250   0.750000 0
  0.031250   0.781250 0
  0.031250   0.812500 0
  0.031250   0.843750 0
  0.156250   0.500000 0
  1.000000   0.281250 0
  0.125000   0.968750 0
  0.250000   0.625000 0
  0.187500   1.000000 0
  1.000000   0.718750 0
  0.312500   0.000000 0
  0.312500   0.656250 0
  0.156250   1.000000 0
  0.968750   0.718750 0
  0.281250   0.000000 0
  0.281250   0.656250 0
  0.125000   0.843750 0
  0.156250   0.843750 0
  0.000000   0.718750 0
  0.843750   0.500000 0
  0.281250   0.687500 0
  0.437500   0.781250 0
  0.312500   1.000000 0
  0.281250   1.000000 0
  0.375000   0.781250 0
  0.312500   0.500000 0
  0.437500   0.156250 0
  0.343750   0.500000 0
  0.468750   0.156250 0
  0.250000   0.156250 0
  0.343750   0.125000 0
  0.218750   0.468750 0
  0.375000   0.375000 0
  0.437500   0.312500 0
  0.406250   0.312500 0
  0.062500   0.375000 0
  0.093750   0.281250 0
  0.093750   0.343750 0
  0.937500   0.125000 0
  0.906250   0.718750 0
  0.218750   0.000000 0
  0.250000   0.968750 0
  0.531250   0.062500 0
  0.156250   0.062500 0
  0.312500   0.187500 0
  1.000000   0.875000 0
  0.312500   0.156250 0
  0.281250   0.187500 0
  0.906250   0.781250 0
  0.218750   0.062500 0
  0.718750   0.781250 0
  0.031250   0.062500 0
  0.375000   0.000000 0
  0.718750   0.750000 0
  0.031250   0.031250 0
  0.687500   0.781250 0
  0.000000   0.062500 0
  0.250000   0.500000 0
  0.375000   0.156250 0
  0.281250   0.468750 0
  0.406250   0.125000 0
  0.406250   0.343750 0
  0.062500   0.406250 0
  0.312500   0.437500 0
  0.437500   0.093750 0
  0.781250   0.031250 0
  0.250000   0.468750 0
  0.375000   0.125000 0
  0.281250   0.437500 0
  0.406250   0.093750 0
  0.406250   0.437500 0
  0.406250   0.406250 0
  0.375000   0.437500 0
  0.031250   1.000000 0
  0.187500   0.437500 0
  1.000000   0.812500 0
  0.312500   0.093750 0
  0.218750   0.437500 0
  0.343750   0.093750 0
  0.250000   0.437500 0
  0.375000   0.093750 0
  0.218750   0.406250 0
  0.343750   0.062500 0
  0.250000   0.406250 0
  0.375000   0.062500 0
  0.281250   0.218750 0
  0.187500   0.312500 0
  0.250000   0.218750 0
  0.156250   0.312500 0
  1.000000   0.093750 0
  0.125000   0.312500 0
  0.406250   0.000000 0
  0.750000   0.781250 0
  0.062500   0.062500 0
  0.375000   0.500000 0
  0.500000   0.156250 0
  0.312500   0.968750 0
  0.125000   0.468750 0
  0.500000   0.375000 0
  0.437500   0.406250 0
  0.375000   0.468750 0
  0.468750   0.375000 0
  0.125000   0.437500 0
  0.343750   0.468750 0
  0.468750   0.125000 0
  0.437500   0.375000 0
  0.093750   0.437500 0
  0.125000   0.093750 0
  0.500000   0.937500 0
  0.718750   0.906250 0
  0.031250   0.187500 0
  0.687500   0.906250 0
  0.000000   0.187500 0
  0.937500   0.781250 0
  0.250000   0.062500 0
[...]
POINT_DATA 1072
SCALARS scalar_value float 1
LOOKUP_TABLE default
0
-0.000854168
-0.000226427
0
0.000447117
-5.71199e-05
-0.000708993
-0.000500304
0
0.00016197
-0.00109268
0.000791879
0.000623213
0.00102976
-0.000801529
0.000412887
0.000280193
-0.00156864
0.000211567
-0.00126559
0.00972881
-0.000341482
-4.23921e-05
-0.000293526
-0.00120075
-0.000443009
0.000624557
-0.000303127
-0.000266175
-0.000203971
0.000256298
-0.000553328
0.00187417
0.00039657
0
-0.000374772
-0.000507484
-0.000366816
-0.000540524
-0.000730316
-0.000664119
0
-0.000988839
-0.0010262
0.0022832
-0.000718376
0.000489032
0.000752863
-0.000294414
-0.00139456
-0.000644339
0.000376146
-6.89013e-06
-0.000222988
0.000452915
2.8883e-05
-6.68352e-05
-1.45935e-05
-5.73236e-06
0.000423863
-0.000401814
0
-0.00044001
-3.31985e-05
1.678e-05
1.54522e-05
-0.000844164
-0.00118682
-6.12482e-05
-0.000599838
-0.000143569
-4.66179e-05
-6.86744e-05
-0.000628177
-0.000110652
6.91937e-05
0.000117059
-0.000179132
-0.000314449
9.97658e-05
2.74685e-07
2.27478e-05
3.66571e-05
-0.000616493
-8.14583e-05
-0.00109571
0
-0.0007516
-0.000434496
0.000562399
-0.00293567
9.06942e-05
0.000177436
5.96402e-06
0.000327487
0.000381077
0.000128031
0.000151262
7.32393e-05
-0.000568068
-1.13977e-05
0.000259244
8.524e-05
0
0.000171778
-0.000249492
0.000688716
-0.000642642
0.000592926
-0.000319781
0.00158996
1.73454e-05
-0.000785303
0.000429929
0
-0.000732947
-0.00178222
-0.000585958
1.78467e-05
-0.000436517
-0.000849493
-5.94862e-05
0.00039516
0.000275141
-0.000307993
5.23456e-05
8.97192e-05
-0.00103747
-0.0010596
-0.000477985
0.000669533
0.000619459
-0.000688192
-1.24074e-05
-0.00030475
-0.000747214
-0.000918423
-0.00125267
-0.0009296
-0.00121149
-9.235e-05
-0.00196106
-0.0020342
-0.00226192
-0.00211825
-0.00198939
-0.00173205
-0.000954854
-0.000241177
0.000218313
-5.48332e-06
-0.00111341
-0.000993135
-0.00153653
-0.00184599
-0.000708401
-4.33108e-05
-0.000687043
-0.000708055
-8.55687e-05
0.000326304
0.000118414
-0.00124598
-0.000415264
-0.000379876
-0.000365331
0.000370141
-0.000238949
-0.000518316
-5.00351e-05
-0.00112295
-0.000921994
-0.000161234
-0.000398109
-0.000396767
-0.000189161
0
4.82137e-05
-8.55157e-05
-0.000536459
-0.00152989
-0.000103298
-0.000675397
0.00122893
0.000626337
-0.000716904
0.00118148
0.0103119
0.000425191
0.0189407
0.00259271
0.0116695
0.00193644
0.00440658
0.00207042
0.000394637
0.00181966
-0.00160309
0.000654721
-0.000832551
0.0697344
0.0395555
0.0130302
0.0472836
0.0203811
0.0455295
0.000466508
-0.00284842
-0.00286085
0.00410255
0.0013484
0.00241923
7.62885e-06
0.0027251
-0.00294375
0.000830022
0.00258363
0.000611408
0.00225778
0.00159322
0.00147643
0.00173048
0.00292841
0.00256153
0.0016664
0.0525881
0.000913233
0.318397
4.26486e-05
0.124062
0.272848
-0.000574381
0.0463536
0.0140915
-0.00108214
0.00335214
-0.00387875
-0.000749024
-0.0026442
-0.000174794
0.00436687
0.000382781
-0.000517446
0.00492793
0.000434462
0.002267
-0.000258199
0.000919328
0.00187246
0.00268535
0.00232326
0.000196918
0.00405019
-1.97325e-05
0.00281057
-0.000730894
-0.00282592
0.00370455
0.00130556
-0.00327646
0.00137768
0.00208372
0.00225167
0.000948641
0.00217383
-0.000399145
-0.000735395
-0.00379683
0.0024287
0.00274323
-0.00464911
-0.000627154
0.000970327
0.0021422
-0.00616604
0.000730626
-0.000146711
0.000231029
-0.000530059
-0.000823937
0.000339841
0.000135651
-0.000807168
0.000360741
-0.00479515
-0.000515713
0.0776501
0.00159407
0.0101812
-0.00126748
0.000910238
0.00166609
-0.00120261
0.000208401
-0.000161703
-3.87879e-06
6.48002e-06
-1.94224e-06
-1.04505e-05
-4.94554e-06
-4.33858e-06
-0.000612353
-0.000497633
-2.41403e-06
0.00014843
0
-1.17794e-06
0.0106604
-8.04854e-05
0
-2.38292e-05
-0.00220838
-7.52343e-05
-2.48491e-05
-4.52666e-06
-2.89649e-05
0.000220481
-1.33319e-05
8.83913e-05
0
0
0.000104283
-0.000381047
0.00252001
3.45746e-05
0.00249946
-0.000516678
0.00590853
3.64428e-05
-0.00103547
-0.000353665
-1.94986e-05
6.13562e-05
1.19145e-05
-1.35026e-05
-0.000194732
-0.000526899
0.00506573
-6.09084e-06
0.00453754
0.00100868
0.000602207
-7.48951e-05
0.000545862
0.000609394
-0.000244358
0.0039449
-0.000266849
-6.32477e-05
0.048444
0.000107633
-0.000102541
-0.000738868
-6.73222e-05
-0.000119233
0.00721004
0.000937139
0.00944834
0.000633474
-6.38523e-05
-0.000248175
0.0110968
-0.000917202
-0.000684876
0.0109116
0.000830312
0.0128712
-0.000899202
0.000398429
-0.000512899
0
5.59812e-05
-3.99594e-05
0.00192526
0.000655068
0.00953028
0.00034631
0.0162539
-0.000215789
0.0149414
-0.000803976
0.0237063
0.000760793
0.00141271
-0.000126013
-0.000130385
-0.000462802
0.000291842
0.0437503
-0.000151226
-0.000158517
0.000208223
0.00160102
-4.6162e-05
-8.73322e-06
-0.000177759
4.03366e-05
-7.90385e-07
-9.66824e-05
0.000264711
0.000383955
0.0151174
-0.00048923
0.000118658
0.000252794
-0.000133049
-0.000175251
5.83907e-05
-0.000138324
0.000107978
2.65811e-05
-0.00155632
-6.48196e-05
0.000957309
-1.55869e-05
-5.43824e-06
0.00801766
8.46088e-06
-0.00291811
0.00339262
-6.69547e-05
-0.000217591
0.000486824
2.07423e-05
0.00014409
0.000613534
0.0333507
-0.00120588
3.16623e-05
0.00154419
0.00109956
6.72015e-05
-0.000745117
0.00342559
-3.80133e-05
-4.55264e-05
0.000524042
0.00275328
-0.000114366
0.000118538
0.00156129
0.0621421
6.52191e-05
5.98193e-05
-4.20221e-05
-0.000796185
6.50155e-05
0.00141117
0.000252464
0.000432391
-5.32632e-05
0.000136779
-9.5487e-05
0.00075903
7.79665e-05
0
0.000227951
-0.000335528
-1.09229e-05
9.17945e-05
0.00107462
1.94879e-05
0.00254699
-0.000786264
6.45689e-05
1.06896e-05
0.00101568
0.0264315
0.000101885
-0.000193377
-1.42128e-05
0.00182236
-0.000239449
-0.000164998
4.3714e-05
-0.00193818
0.000515089
2.64356e-05
-0.000412932
0.00917135
0.0104734
0.000202296
6.69261e-06
-4.26205e-05
0.00182901
0.000229633
-0.000411779
0
0.000351695
0.0057056
0.0556844
0.000157393
-5.38634e-05
-0.00159945
0.00104341
0.00159594
-0.00109275
-0.000179272
-7.24134e-06
0.000176479
-0.000348234
-7.82378e-05
0.00521174
-0.00037031
0.000601391
-0.000142162
0.000510488
-0.000459279
0.00293491
-0.000359209
2.17492e-06
1.22619e-05
0.000323882
4.34205e-05
0.00151116
0.000108235
-0.000369159
0.00305448
0.00302959
0.00207455
-5.05269e-05
-0.00147136
0.000104706
-0.0027122
0.0744034
-1.39116e-05
1.63442e-06
-0.000911225
-0.00010959
2.80406e-05
0.00010896
-0.000330939
-0.000634449
0.000907468
-0.00104505
-3.86758e-05
-5.07866e-06
3.7592e-05
-0.000298857
1.28742e-05
0.00282854
-8.20705e-05
-3.12754e-05
0.000132088
9.37526e-05
-0.000938114
-0.000167627
0.000277824
-9.58433e-06
0.00161385
0.00323128
0.000845997
0.000304499
4.0759e-06
6.29002e-05
0.000474127
2.58123e-05
0.00061748
0.0126848
0.0499549
-0.000659457
0.000191332
0
0.000594416
-0.00052572
2.52608e-05
-0.00165171
-7.07545e-05
0.00144768
0.00175192
0.00218893
0.000121637
0.000400592
8.15637e-05
-2.09691e-05
0.00044822
-1.89464e-05
-0.00246223
7.72335e-06
0.0159273
-0.000145492
-0.000114255
5.09343e-05
0.000124147
-0.000141764
0
-1.93559e-05
-6.28181e-05
-0.000232353
5.3849e-05
-1.65378e-05
-0.00226423
-3.69391e-05
-5.76962e-07
4.35304e-05
-0.000178602
-0.000206407
0.00161151
-8.97407e-05
-0.000453258
0.000165664
-0.000179821
6.82872e-05
0.000715131
0.108401
4.44382e-05
-0.00329037
0.000277126
0.000366974
0.000271889
-1.60322e-05
6.00924e-05
0
0
-3.07982e-06
0
0.00011536
0.00124752
-0.000122845
-0.00013401
0.00231168
-0.000795715
-0.000186767
0.000201505
0.0200915
0.000616865
0.00455329
-2.71918e-05
-0.000710158
0.00185936
0.00312612
1.49373e-06
-9.33946e-05
-1.0163e-05
0.000100724
0
0.000175447
0.000440788
0.0334364
0
7.86905e-05
-0.00213064
0.000417363
0.00356928
-5.36902e-05
-0.000591551
-7.40498e-05
0.000289619
7.8619e-05
1.24664e-05
0
0
0.00132647
0.000575231
0.00142531
-0.000154607
2.94506e-05
0.00136058
-0.000234203
-0.000205979
6.89341e-05
-7.29693e-05
-0.00250459
-0.000457862
0.00513323
0.000430267
-1.82738e-05
0.0323828
-0.000486714
0.00149139
-3.55112e-07
0.00162297
0.00164213
0.00081063
0.0067997
0.000108492
-0.000186705
-2.01188e-05
0.000307773
0.000118515
0.00380222
-4.30424e-05
0.000181541
0.000597398
-0.000178711
-0.000199873
0.000140684
0.00148016
-8.17022e-05
0.00244283
1.80382e-05
0.000319285
0.00425701
0.000261145
0.000610446
-0.000283117
-0.00175387
0
-0.000103964
6.15313e-06
-3.5697e-05
-5.41192e-05
0.000425668
0.0171251
-0.000406397
7.07492e-05
0.000138886
3.65246e-05
0.000119296
-0.00315441
-0.000215991
-0.000494494
-0.000368215
0.000606438
0.0226167
7.5415e-05
0.00105395
0.000488453
0.000848614
8.26456e-05
-0.00217022
-0.000780663
-1.61055e-06
-5.60975e-05
-0.000460459
-5.8948e-05
0.00338159
-0.000660688
3.46624e-07
-4.17689e-05
-0.000375462
-5.10287e-05
0.00591572
0.0057633
-3.07437e-05
0.00102149
6.56056e-05
0.00142242
-0.000211369
8.7876e-07
-4.81154e-05
0.000340975
-0.000414074
-4.22999e-05
-0.00300442
-7.44175e-09
-3.68027e-05
-3.41942e-05
-0.000477985
2.96495e-05
-0.00215898
0.000352892
-0.000258254
-0.00115012
1.11049e-05
-0.00665991
6.57812e-05
-0.00253091
0.00459501
0.000286286
-0.00170109
-1.12837e-05
0.00037505
-3.99277e-05
-0.00141735
1.00275e-05
-0.000139919
-2.87735e-05
7.56804e-05
-2.46822e-05
-1.24632e-05
0.00113315
-2.19124e-05
2.7781e-05
-0.00458279
1.86748e-05
-0.000700576
6.8095e-06
-3.16219e-05
-9.11613e-06
6.41177e-05
-2.80685e-06
0
-3.01722e-06
-2.11069e-05
-5.22822e-05
-0.000963702
-3.88513e-06
2.29691e-05
-0.000143993
-4.58561e-06
-9.55445e-06
-5.31468e-05
-3.09092e-05
-8.38563e-05
-0.000421258
1.08159e-05
-4.94303e-05
-4.31658e-05
-1.25969e-05
-0.000136134
0.00289009
-5.5927e-05
5.8835e-05
-9.56146e-05
-0.000194678
0.00440098
-0.000324689
-3.88383e-06
0.00026908
0.00136818
-3.21131e-06
4.08539e-05
-6.86081e-06
-0.000180441
0
-7.27136e-05
-2.88865e-05
-0.000227048
-5.73118e-06
-5.46271e-05
0.000716444
-4.02837e-05
-5.1282e-05
-5.12412e-05
0.000474011
-5.52663e-07
-4.3308e-05
0.00030182
-0.00118463
-2.42118e-05
0.00191205
-4.79312e-05
0
0.00485778
0.000230802
0.0003981
-0.00137619
3.79047e-05
-0.000322555
0.000163142
-0.000286814
0.0275113
-5.44214e-05
1.73305e-05
0.000108311
-2.56849e-05
1.81225e-05
0.0005144
0.000129493
0.000686771
-2.57816e-05
-3.85141e-05
0.000457512
0.00445112
-1.31822e-05
3.1501e-06
-0.00138355
9.63557e-05
-0.000232887
0.000571314
-0.00147763
-6.50519e-07
-5.43227e-06
0.00176426
-1.92747e-05
-0.000672484
0.000212446
0.000491891
1.60242e-05
0.000448266
7.11046e-05
-0.00050987
6.50146e-05
0.000426281
-0.00384373
-4.95384e-05
0.00271313
-4.75158e-05
-3.63505e-05
-0.000282097
-9.1634e-06
-0.00171063
2.54503e-05
2.65114e-05
0.000364926
-6.79217e-06
-2.91567e-06
-0.000391353
0
-5.96136e-05
-0.00194613
-0.00135294
0.00704538
1.37148e-05
5.26374e-05
0.000215172
0.000514863
4.42077e-07
0
-0.00122611
-7.04985e-05
-0.00148513
-0.000116608
-3.56737e-05
2.57764e-05
-4.07003e-05
-0.0025483
-1.05122e-05
0.000220524
0.000214447
0.000353668
0.000114867
-0.00026603
-3.13491e-05
-6.62269e-05
-1.58669e-05
-3.40582e-05
-1.39754e-05
-0.000220623
0.000314202
-4.45193e-05
-4.3515e-05
-2.87852e-05
2.76448e-05
-1.81039e-05
-2.63293e-05
3.75736e-06
3.11435e-05
4.98082e-05
-0.00203441
0.000984304
-1.10478e-06
-7.40667e-06
-2.93518e-06
-0.000712578
-2.94085e-05
0.000357983
-0.000129418
-2.37863e-07
5.01891e-07
-3.99432e-05
-1.41651e-05
-3.81183e-06
0.000113574
-4.06727e-05
-8.58114e-05
-1.0168e-05
2.87011e-05
-9.78141e-05
-3.36106e-05
5.15843e-05
-4.67336e-05
2.17889e-05
-9.08115e-07
-5.14946e-05
0.000106888
-3.08048e-06
-0.000199771
-0.000668362
-8.12802e-06
2.7165e-05
1.91264e-05
7.03637e-05
3.79304e-05
-9.95232e-05
-0.000219461
-0.000139276
-5.44329e-06
3.35141e-06
-9.15168e-05
0.000508717
-0.000145498
0.0189824
-0.00057732
0.00160432
-1.63535e-05
1.56682e-06
-0.00018395
0.00137906
-7.52223e-06
-0.000424364
0.00195921
-0.00118926
-2.88532e-05
-0.00167038
0.00455449
0.000750106
-0.00163696
-0.000622758
-0.000184811
9.51964e-06
-9.76511e-06
0.000324599
-0.00691723
-0.0028248
0.00907732
-0.00757545
0.0124644
0.109201
-0.00171313
5.7747e-05
0.00117878
-0.000387978
0.00143552
0.00742218
0.00164448
0.406453
0.00104293
0.00110864
-0.000860161
-0.00135844
0.00147215
0.000545486
0.00578695
0.000150411
-0.00272678
-0.000305768
0.000430793
0.000378968
0.0021337
-0.000613322
0.000127081
0.000110155
0.00103031
0.00176659
0.00363001
-0.000234459
0.00166494
-0.00685381
0.0390193
-0.00399096
0.0509945
-0.00129583
0.012625
0.00262691
0.016126
0.00223114
0.00309813
0.00133054
-0.00352979
-0.00496899
0.00583639
-0.0133647
0.0321922
0.0333185
0.00103429
0.00055089
0.00637799
0.000442208
-0.00144966
-0.000492566
0.000999893
-0.000884474
0.000867877
-0.0014633
0.00102577
0.00334225
0.0031207
0.000288341
-0.00262365
-0.00294654
-0.000867307
0.00215369
0.00183944
0.00251811
0.031745
0.00121217
0
-0.000797224
1.93405e-05
0.000804682
