# vtk DataFile Version 2.0
Unstructured Grid by M++
ASCII
DATASET UNSTRUCTURED_GRID
POINTS 1072 float
  0.593750   1.000000 0
  0.718750   0.656250 0
  0.625000   0.968750 0
  0.625000   1.000000 0
  0.843750   0.562500 0
  0.875000   0.562500 0
  0.875000   0.531250 0
  0.562500   0.531250 0
  0.687500   1.000000 0
  0.875000   0.593750 0
  0.562500   0.593750 0
  0.625000   0.531250 0
  0.593750   0.562500 0
  0.593750   0.531250 0
  0.562500   0.562500 0
  0.593750   0.625000 0
  0.593750   0.593750 0
  0.562500   0.625000 0
  0.593750   0.687500 0
  0.562500   0.687500 0
  0.906250   0.500000 0
  0.656250   0.750000 0
  0.625000   0.937500 0
  0.593750   0.968750 0
  0.812500   0.531250 0
  0.625000   0.906250 0
  0.906250   0.625000 0
  0.656250   0.593750 0
  0.531250   0.937500 0
  0.593750   0.656250 0
  0.687500   0.562500 0
  0.625000   0.593750 0
  0.656250   0.562500 0
  0.625000   0.562500 0
  0.718750   1.000000 0
  0.687500   0.625000 0
  0.562500   0.968750 0
  0.656250   0.625000 0
  0.531250   0.968750 0
  0.625000   0.625000 0
  0.656250   0.656250 0
  0.531250   1.000000 0
  0.625000   0.656250 0
  0.625000   0.687500 0
  0.937500   0.562500 0
  0.937500   0.656250 0
  0.968750   0.625000 0
  0.937500   0.625000 0
  0.968750   0.593750 0
  0.937500   0.593750 0
  0.843750   0.531250 0
  0.812500   0.562500 0
  0.625000   0.875000 0
  0.812500   0.687500 0
  1.000000   0.625000 0
  0.750000   0.968750 0
  0.843750   0.843750 0
  1.000000   0.937500 0
  1.000000   0.906250 0
  0.937500   0.687500 0
  0.843750   0.781250 0
  0.750000   1.000000 0
  0.968750   0.562500 0
  0.968750   0.937500 0
  0.968750   0.906250 0
  0.968750   0.875000 0
  0.656250   0.781250 0
  1.000000   0.593750 0
  0.562500   0.937500 0
  0.656250   0.843750 0
  1.000000   0.656250 0
  0.656250   0.812500 0
  0.656250   0.875000 0
  0.781250   0.531250 0
  1.000000   0.687500 0
  0.906250   0.906250 0
  0.843750   0.687500 0
  0.843750   0.656250 0
  0.656250   0.906250 0
  0.937500   0.843750 0
  0.937500   0.906250 0
  0.937500   0.937500 0
  0.937500   0.875000 0
  0.625000   0.750000 0
  0.625000   0.812500 0
  0.625000   0.781250 0
  0.906250   1.000000 0
  0.625000   0.843750 0
  0.968750   0.656250 0
  0.968750   0.500000 0
  0.937500   0.531250 0
  0.875000   0.875000 0
  0.875000   0.812500 0
  0.718750   0.968750 0
  0.906250   0.812500 0
  0.843750   0.812500 0
  0.812500   0.812500 0
  0.718750   0.937500 0
  0.687500   0.937500 0
  0.906250   0.593750 0
  0.968750   0.531250 0
  0.875000   0.625000 0
  0.906250   0.875000 0
  0.781250   1.000000 0
  0.968750   0.687500 0
  0.875000   0.781250 0
  0.875000   0.687500 0
  0.812500   0.781250 0
  0.906250   0.687500 0
  0.875000   0.656250 0
  1.000000   0.562500 0
  0.812500   0.750000 0
  0.906250   0.656250 0
  0.843750   0.750000 0
  0.562500   1.000000 0
  0.687500   0.656250 0
  0.562500   0.656250 0
  0.593750   0.906250 0
  0.593750   0.937500 0
  0.562500   0.875000 0
  0.593750   0.843750 0
  0.593750   0.875000 0
  0.750000   0.687500 0
  0.781250   0.687500 0
  0.750000   0.718750 0
  0.781250   0.718750 0
  0.750000   0.750000 0
  0.562500   0.812500 0
  0.593750   0.781250 0
  0.593750   0.812500 0
  0.750000   0.625000 0
  0.781250   0.625000 0
  0.750000   0.656250 0
  0.812500   0.625000 0
  0.781250   0.656250 0
  0.562500   0.906250 0
  0.562500   0.843750 0
  0.562500   0.750000 0
  0.593750   0.750000 0
  0.562500   0.781250 0
  0.656250   0.937500 0
  0.531250   0.531250 0
  0.531250   0.562500 0
  0.531250   0.593750 0
  0.531250   0.625000 0
  0.531250   0.656250 0
  0.531250   0.687500 0
  0.812500   0.593750 0
  0.843750   0.593750 0
  0.781250   0.750000 0
  0.781250   0.781250 0
  0.531250   0.812500 0
  0.531250   0.843750 0
  0.531250   0.750000 0
  0.531250   0.718750 0
  0.531250   0.906250 0
  0.875000   0.843750 0
  0.531250   0.875000 0
  0.718750   0.718750 0
  0.687500   0.687500 0
  0.718750   0.687500 0
  0.718750   0.625000 0
  0.562500   0.718750 0
  0.687500   0.593750 0
  0.718750   0.593750 0
  0.718750   0.562500 0
  0.750000   0.562500 0
  0.656250   0.968750 0
  0.656250   0.687500 0
  1.000000   0.968750 0
  0.625000   0.718750 0
  0.656250   0.718750 0
  0.843750   0.625000 0
  0.812500   0.656250 0
  0.812500   0.718750 0
  0.687500   0.968750 0
  0.656250   1.000000 0
  0.687500   0.531250 0
  0.718750   0.531250 0
  0.906250   0.562500 0
  1.000000   0.531250 0
  0.750000   0.531250 0
  0.750000   0.593750 0
  0.781250   0.875000 0
  0.781250   0.562500 0
  0.781250   0.593750 0
  0.593750   0.281250 0
  0.593750   0.250000 0
  0.562500   0.250000 0
  0.562500   0.031250 0
  0.593750   0.375000 0
  0.718750   0.031250 0
  0.593750   0.343750 0
  0.687500   0.250000 0
  0.656250   0.437500 0
  0.781250   0.093750 0
  0.625000   0.406250 0
  0.750000   0.062500 0
  0.687500   0.500000 0
  0.812500   0.156250 0
  0.593750   0.031250 0
  0.562500   0.000000 0
  0.625000   0.125000 0
  0.625000   0.093750 0
  0.593750   0.093750 0
  0.593750   0.062500 0
  0.687500   0.437500 0
  0.781250   0.343750 0
  0.906250   0.000000 0
  0.781250   0.312500 0
  0.656250   0.406250 0
  0.750000   0.312500 0
  0.687500   0.468750 0
  0.812500   0.125000 0
  0.906250   0.031250 0
  0.656250   0.312500 0
  0.625000   0.281250 0
  0.687500   0.375000 0
  0.656250   0.343750 0
  0.625000   0.312500 0
  0.656250   0.375000 0
  0.625000   0.343750 0
  0.625000   0.375000 0
  0.750000   0.125000 0
  0.625000   0.468750 0
  0.687500   0.062500 0
  0.562500   0.406250 0
  0.656250   0.031250 0
  0.531250   0.375000 0
  0.625000   0.000000 0
  0.656250   0.062500 0
  0.531250   0.406250 0
  0.625000   0.031250 0
  0.625000   0.062500 0
  0.750000   0.406250 0
  0.843750   0.312500 0
  0.812500   0.343750 0
  0.937500   0.000000 0
  0.843750   0.343750 0
  0.968750   0.000000 0
  0.812500   0.312500 0
  0.968750   0.093750 0
  0.937500   0.062500 0
  0.750000   0.187500 0
  0.656250   0.281250 0
  0.843750   0.093750 0
  0.750000   0.156250 0
  0.625000   0.500000 0
  0.843750   0.062500 0
  0.625000   0.250000 0
  0.812500   0.062500 0
  0.968750   0.062500 0
  0.843750   0.375000 0
  0.968750   0.031250 0
  0.812500   0.375000 0
  0.937500   0.031250 0
  0.906250   0.062500 0
  0.781250   0.125000 0
  0.656250   0.468750 0
  0.875000   0.031250 0
  0.937500   0.218750 0
  0.937500   0.250000 0
  0.937500   0.312500 0
  0.937500   0.343750 0
  0.937500   0.375000 0
  0.937500   0.406250 0
  1.000000   0.000000 0
  0.875000   0.343750 0
  0.937500   0.437500 0
  0.562500   0.312500 0
  0.656250   0.218750 0
  1.000000   0.031250 0
  0.875000   0.375000 0
  0.625000   0.437500 0
  0.750000   0.093750 0
  0.968750   0.250000 0
  0.968750   0.343750 0
  0.968750   0.375000 0
  0.968750   0.406250 0
  0.968750   0.468750 0
  0.968750   0.437500 0
  0.937500   0.156250 0
  1.000000   0.406250 0
  1.000000   0.375000 0
  0.875000   0.406250 0
  1.000000   0.062500 0
  0.593750   0.000000 0
  1.000000   0.500000 0
  0.531250   0.000000 0
  1.000000   0.468750 0
  1.000000   0.437500 0
  0.750000   0.375000 0
  0.843750   0.281250 0
  0.156250   0.531250 0
  1.000000   0.312500 0
  0.031250   0.875000 0
  0.000000   0.750000 0
  0.031250   0.750000 0
  0.031250   0.781250 0
  0.031250   0.812500 0
  0.031250   0.843750 0
  0.156250   0.500000 0
  1.000000   0.281250 0
  0.125000   0.968750 0
  0.250000   0.625000 0
  0.187500   1.000000 0
  1.000000   0.718750 0
  0.312500   0.000000 0
  0.312500   0.656250 0
  0.156250   1.000000 0
  0.968750   0.718750 0
  0.281250   0.000000 0
  0.281250   0.656250 0
  0.125000   0.843750 0
  0.156250   0.843750 0
  0.000000   0.718750 0
  0.843750   0.500000 0
  0.281250   0.687500 0
  0.437500   0.781250 0
  0.312500   1.000000 0
  0.281250   1.000000 0
  0.375000   0.781250 0
  0.312500   0.500000 0
  0.437500   0.156250 0
  0.343750   0.500000 0
  0.468750   0.156250 0
  0.250000   0.156250 0
  0.343750   0.125000 0
  0.218750   0.468750 0
  0.375000   0.375000 0
  0.437500   0.312500 0
  0.406250   0.312500 0
  0.062500   0.375000 0
  0.093750   0.281250 0
  0.093750   0.343750 0
  0.937500   0.125000 0
  0.906250   0.718750 0
  0.218750   0.000000 0
  0.250000   0.968750 0
  0.531250   0.062500 0
  0.156250   0.062500 0
  0.312500   0.187500 0
  1.000000   0.875000 0
  0.312500   0.156250 0
  0.281250   0.187500 0
  0.906250   0.781250 0
  0.218750   0.062500 0
  0.718750   0.781250 0
  0.031250   0.062500 0
  0.375000   0.000000 0
  0.718750   0.750000 0
  0.031250   0.031250 0
  0.687500   0.781250 0
  0.000000   0.062500 0
  0.250000   0.500000 0
  0.375000   0.156250 0
  0.281250   0.468750 0
  0.406250   0.125000 0
  0.406250   0.343750 0
  0.062500   0.406250 0
  0.312500   0.437500 0
  0.437500   0.093750 0
  0.781250   0.031250 0
  0.250000   0.468750 0
  0.375000   0.125000 0
  0.281250   0.437500 0
  0.406250   0.093750 0
  0.406250   0.437500 0
  0.406250   0.406250 0
  0.375000   0.437500 0
  0.031250   1.000000 0
  0.187500   0.437500 0
  1.000000   0.812500 0
  0.312500   0.093750 0
  0.218750   0.437500 0
  0.343750   0.093750 0
  0.250000   0.437500 0
  0.375000   0.093750 0
  0.218750   0.406250 0
  0.343750   0.062500 0
  0.250000   0.406250 0
  0.375000   0.062500 0
  0.281250   0.218750 0
  0.187500   0.312500 0
  0.250000   0.218750 0
  0.156250   0.312500 0
  1.000000   0.093750 0
  0.125000   0.312500 0
  0.406250   0.000000 0
  0.750000   0.781250 0
  0.062500   0.062500 0
  0.375000   0.500000 0
  0.500000   0.156250 0
  0.312500   0.968750 0
  0.125000   0.468750 0
  0.500000   0.375000 0
  0.437500   0.406250 0
  0.375000   0.468750 0
  0.468750   0.375000 0
  0.125000   0.437500 0
  0.343750   0.468750 0
  0.468750   0.125000 0
  0.437500   0.375000 0
  0.093750   0.437500 0
  0.125000   0.093750 0
  0.500000   0.937500 0
  0.718750   0.906250 0
  0.031250   0.187500 0
  0.687500   0.906250 0
  0.000000   0.187500 0
  0.937500   0.781250 0
  0.250000   0.062500 0
[...]
CELL_DATA 1912
VECTORS vector_value float
0.139066 -1.49827 0
0.139066 -1.2248 0
0.137883 -1.22362 0
0.0470294 -1.2248 0
-0.14602 -1.16545 0
-0.150463 -1.15206 0
-0.0681796 -1.06953 0
0.144284 -1.16469 0
0.144284 -1.02199 0
-0.255494 -1.1699 0
-0.127411 -1.01716 0
0.108069 -1.08564 0
0.0495869 -1.0918 0
-0.255494 -1.46795 0
0.0396875 -1.0819 0
0.163924 -1.0819 0
0.0396875 -1.08103 0
0.119342 -1.18914 0
-0.0417114 -1.09776 0
0.436144 -1.15087 0
-0.0994942 -1.03822 0
0.212037 -1.05631 0
0.245611 -1.05631 0
-0.113453 -1.06521 0
0.245611 -1.25725 0
-0.103812 -1.06953 0
0.641247 -1.45195 0
-0.0355447 -1.20626 0
-0.0355447 -1.18189 0
0.0238956 -1.10924 0
0.0246579 -1.10924 0
-0.0681796 -1.05809 0
-0.0249603 -0.627101 0
0.0960742 -1.16469 0
0.212037 -0.864099 0
0.0810725 -1.10148 0
0.641247 -0.627101 0
-0.0716921 -1.12292 0
-0.0199285 -1.15374 0
0.00332062 -1.15374 0
-0.00509491 -1.14532 0
0 -1.01858 0
0.0136582 -1.01858 0
0.0136582 -0.977602 0
0 -1.00492 0
-0.111028 -1.04418 0
-0.0412202 -0.978101 0
-0.142346 -0.943056 0
-0.14602 -1.27937 0
0.0495869 -1.19624 0
-0.13707 -1.16545 0
0.152787 -1.49363 0
-0.150463 -1.1699 0
0.163924 -1.20737 0
-0.0234565 -1.23211 0
-0.0452384 -1.15105 0
0 -1.42783 0
-0.0760776 -1.14666 0
0 -1.40437 0
-0.0716921 -1.15105 0
0.00854369 0 0
-0.0760776 -1.18189 0
-0.558923 0 0
-0.0452384 -1.17219 0
-0.121905 -0.567467 0
-0.621746 0 0
0.0723999 0 0
-0.117599 -1.10839 0
-0.111028 -1.08207 0
0 -1.40104 0
-0.066914 -1.40104 0
-0.0412202 -1.04418 0
-0.066914 -1.27937 0
-0.142346 -1.0755 0
0 -1.46795 0
-0.0566452 -1.07041 0
0.119342 -1.00168 0
-0.0143593 -1.07041 0
-0.0143593 -1.09474 0
-0.0187538 -1.06602 0
0.0094547 -1.09624 0
-0.0245755 -1.08483 0
-0.00195105 -1.10984 0
0.620374 -0.649591 0
-0.0288214 -0.881948 0
0.209555 -0.887967 0
-0.131465 -1.16033 0
0.436144 -1.23508 0
-0.123479 -1.16033 0
-0.123479 -1.21991 0
-0.106614 -1.1772 0
-0.0199285 -1.14688 0
-0.0279073 -1.1389 0
-0.00509491 -1.1389 0
0.104108 -0.955438 0
0.108069 -1.06991 0
0.054024 -1.4821 0
0.0723999 -0.694146 0
-0.21822 -1.12547 0
0.0707861 -1.0508 0
-0.0748451 -0.979777 0
-0.101971 -1.10188 0
-0.260233 -1.13002 0
0.0373495 -1.02199 0
-0.00808759 -1.1446 0
-0.0994942 -1.06521 0
0.0647899 -1.04943 0
-0.0134465 -1.04943 0
-0.0956024 -1.11354 0
0.0647899 -1.10148 0
-0.166797 -1.29875 0
0.133146 -1.08564 0
0.00466225 -1.3592 0
0.0742571 -0.997065 0
-0.261837 -1.06255 0
-0.621746 -1.1017 0
-0.0807656 -1.22711 0
-0.214192 -1.0748 0
-0.0234565 -1.40437 0
0.00854369 -0.567467 0
-0.151118 -1.26524 0
0.00466225 -1.18243 0
-0.609836 -1.03716 0
-0.235281 -0.59143 0
0 -1.21706 0
-0.147775 -1.03716 0
-0.147775 -1.05138 0
-0.0249603 -0.796423 0
0.0363436 -1.1797 0
0.178042 -1.26723 0
0.823074 -1.5378 0
-0.106614 -1.13548 0
0.0437144 -1.44126 0
-0.0147015 -1.22711 0
0.104108 -0.710331 0
-0.129042 -1.0748 0
-0.00360852 -1.13449 0
0.0353279 -1.18071 0
-0.0755076 -0.979115 0
-0.0906082 -1.08535 0
0.0718853 -1.00168 0
0.0512215 -0.981013 0
0.0170693 -0.981013 0
0.0512215 -1.0698 0
0.137883 -1.13395 0
0.0585686 -1.10963 0
-0.0895804 -1.40839 0
0.0470294 -1.13651 0
-0.0292168 -0.649987 0
-0.103817 -1.23352 0
-0.260783 -0.649987 0
-0.0135818 -1.25858 0
-0.167446 -1.35454 0
-0.187298 -1.13306 0
0.0542458 -0.7123 0
0.00150677 -0.855819 0
-0.113453 -1.10795 0
-0.0134465 -1.15483 0
0 -1.51852 0
0.0462597 -1.13544 0
-0.0630732 -1.28321 0
-0.0289095 -1.11179 0
0.00150677 -0.924493 0
0 -1.11179 0
-0.169645 -1.33266 0
-0.0643088 -1.19519 0
0.178042 -1.02368 0
-0.0321791 -0.794531 0
0 -1.44126 0
-0.0956024 -1.23211 0
0.0585686 -1.10445 0
-0.155298 -1.1132 0
-0.0527739 -1.11568 0
-0.102926 -1.04165 0
0.640628 -1.4821 0
-0.117599 -1.0755 0
0.0094547 -1.0508 0
-0.0315584 -1.32327 0
0.00110948 -1.18243 0
-0.167446 -1.01388 0
-0.143027 -1.14343 0
-0.0538351 -1.28098 0
0.823074 -0.710331 0
0.00678929 -0.687395 0
-0.112795 -1.14568 0
0.152787 -1.19624 0
0.0639939 -1.08332 0
0.0662759 -1.13544 0
-0.0624099 -1.10604 0
0.0249497 -1.25725 0
-0.0147015 -1.26723 0
0.133429 -1.5378 0
0.640628 -0.632118 0
-0.260233 -1.48738 0
-0.679203 -1.06841 0
0.133146 -1.10963 0
-0.15188 -1.046 0
-0.13707 -1.14939 0
0 -1.1407 0
0.0509117 -1.45195 0
-0.0743948 -1.12292 0
0 -1.18071 0
-0.233389 -0.794531 0
-0.00147322 -1.15853 0
0.0238956 -1.14538 0
-0.0643088 -1.14568 0
0.0325172 -1.02858 0
0 -1.43354 0
0.0437144 -1.56224 0
-0.0624099 -1.11354 0
-0.0483066 -1.03822 0
0.233752 -1.30237 0
0 -1.48738 0
0.0231712 -1.15853 0
-0.127128 -1.05745 0
0.117197 -1.12578 0
0.121029 -1.11837 0
0.197521 -1.07523 0
0 -1.50568 0
0.0444625 -1.15976 0
-0.198618 -1.06841 0
-0.166946 -1.17674 0
0.197521 -0.861818 0
-0.219168 -1.42783 0
0 -1.40187 0
-0.205818 -0.979115 0
0.003361 -0.692732 0
-0.0926355 -0.864099 0
-0.0483066 -0.997065 0
0.0411392 -1.44301 0
-0.288801 -1.17674 0
0.0542458 -0.962584 0
-0.0494029 -1.12876 0
-0.127411 -1.046 0
0.00850962 0 0
-0.0113314 -1.09776 0
0.217744 -0.855819 0
-0.169645 -0.998633 0
-0.0645462 -1.11568 0
-0.033431 -1.10604 0
0.670563 -0.647259 0
0.382537 -1.15087 0
-0.131465 -1.13306 0
0.0184401 -1.30037 0
-0.0803541 -1.08332 0
0.00918393 -0.647259 0
-0.0335472 -1.40771 0
-0.0879611 -1.21991 0
0.0707861 -0.98876 0
-0.187298 -1.1017 0
-0.58292 -0.939069 0
0.00918393 -0.848142 0
-0.0538351 -1.43354 0
-0.288801 -1.49797 0
0.109595 -1.08608 0
0 -1.39755 0
-0.0906082 -1.10855 0
0.0127189 -1.05809 0
0.0960742 -1.23943 0
-0.13974 -1.17659 0
0 -1.22981 0
-0.00808759 -1.24748 0
0 -1.40771 0
0.217744 -1.10008 0
-0.558923 -1.41229 0
-0.0954359 -1.14666 0
0.0444625 -1.13395 0
-0.13649 -1.01716 0
0 -1.42808 0
-0.151118 -1.00449 0
-0.0658517 -1.11437 0
-0.129042 -1.13548 0
-0.214192 -0.694146 0
-0.0245755 -0.955438 0
0.0184401 -1.42683 0
-0.00360852 -1.16663 0
-0.0879611 -1.30037 0
0.115569 -1.12721 0
-0.0321791 -0.632118 0
0.00974586 -1.0743 0
-0.00147322 -1.17219 0
0.0170693 -0.943464 0
0.0141462 0 0
-0.0912739 -1.09263 0
0.172409 -1.02326 0
0.439042 -1.20737 0
0.271567 -0.978101 0
-0.0343207 -1.11437 0
-0.0994657 -0.861818 0
0.112743 0 0
-0.0954359 -1.10188 0
0.0462597 -1.20626 0
-0.000197059 -0.943858 0
-0.0891115 -1.1407 0
-0.000197059 -0.926197 0
0.0718853 -0.926197 0
0.707148 -0.700359 0
0.7847 -0.7123 0
-0.166946 -1.14939 0
0.0331281 -1.30237 0
0.0571449 -1.01388 0
-0.0807656 -1.1772 0
0.133429 -1.24748 0
0.048604 -1.13395 0
-0.0755053 -1.10839 0
-0.0804232 -1.03295 0
-0.00617511 -0.700359 0
-0.219168 -1.10855 0
-0.0926355 -0.939069 0
0.0139725 -1.23943 0
0.0289222 -1.0853 0
-0.136248 -1.03716 0
0.132705 -1.08608 0
0.581193 -0.572649 0
0.382537 -0.98876 0
-0.00617511 -0.943056 0
-0.177903 -1.55207 0
-0.0343207 -1.11837 0
-0.21822 -1.10616 0
-0.0630732 -1.19642 0
0.34903 -1.00708 0
-0.166797 -1.17659 0
-0.198618 -1.05745 0
0.121029 -1.23508 0
-0.103817 -1.40187 0
0.00678929 0 0
-0.0348403 -0.887967 0
-0.177903 -1.22981 0
0.115569 -1.16663 0
-0.146586 -1.07482 0
0.0509117 -1.28321 0
-0.0803541 -1.07485 0
0.054024 -1.32327 0
-0.0348403 -0.983598 0
0.0249497 -1.19519 0
-0.0557158 -1.10795 0
-0.123059 -1.04165 0
0.174716 -1.12721 0
-0.235281 -0.796423 0
-0.0195613 -0.98298 0
-0.0227645 -1.02851 0
-0.0288214 -0.649591 0
0.0331281 -1.25858 0
-0.0227645 -0.979777 0
0.0305939 -1.14589 0
0.0325172 -1.14589 0
-0.588954 -1.14102 0
0 -1.34084 0
0 -1.10984 0
0.0662759 -0.959786 0
0.0233035 0 0
-0.149633 -1.0805 0
0 -1.33266 0
0 -1.12149 0
0.0373495 -0.998633 0
-0.123059 -1.07482 0
0.34903 -1.14797 0
-0.13974 -1.15206 0
0.439042 -1.14797 0
-0.0335472 -1.51852 0
-0.0645462 -1.1446 0
0.7847 -1.49363 0
-0.0113314 -1.1174 0
-0.58292 0 0
0 -1.23103 0
0 -1.0698 0
-0.0187538 -1.03252 0
0.00332062 -1.13868 0
0.208405 -1.39755 0
-0.0417114 -1.08535 0
0.208405 -1.10008 0
0.0231712 -1.09234 0
0.670563 -1.56224 0
0 -1.40839 0
-0.0289095 -1.0805 0
-0.143027 -1.12547 0
0 -1.49797 0
-0.00195105 -1.08483 0
-0.112795 -1.1132 0
0 -1.55207 0
-0.0895804 -1.29875 0
0.172409 -1.12578 0
0.048604 -1.0853 0
-0.0912739 -1.08207 0
0.0246579 -1.08103 0
-0.103812 -1.07485 0
0.0289222 -1.0918 0
0.0139725 -1.23103 0
0.209555 -1.06041 0
-0.261837 -0.687395 0
0.23778 -1.06041 0
0.23778 -1.24636 0
-0.155298 -1.06255 0
0.130166 -0.699454 0
-0.121905 -1.00449 0
-0.609836 0 0
-0.205818 -0.63314 0
-0.680605 -1.10616 0
0.112743 -0.701697 0
0.0116506 -1.09624 0
-0.00886672 -1.13513 0
-0.00886672 -1.11986 0
-0.033431 -1.11986 0
-0.260783 -1.00624 0
0 -1.47886 0
-0.588954 0 0
-0.0743948 -1.0743 0
-0.679203 0 0
-0.0507845 -1.30404 0
-0.115048 -1.14343 0
0.0116506 -1.12149 0
-0.0279073 -1.12539 0
0.0233035 -0.63314 0
-0.0191955 -1.31562 0
0.060565 -1.31209 0
0.0640886 -1.31562 0
0.0640886 -1.49763 0
0 -1.14538 0
-0.573848 -0.928454 0
-0.0994657 -0.928454 0
-0.126042 -1.13002 0
0.0305939 -1.24636 0
0.0127189 -1.0586 0
0.0411392 -1.25691 0
-0.109278 -1.28098 0
-0.0804232 -1.25691 0
-0.680605 0 0
-0.0755076 -1.03252 0
-0.0292168 0 0
-0.0315584 -1.24061 0
0 -1.18914 0
-0.0566452 -1.05138 0
-0.0336436 -1.09263 0
0.0810725 -1.1797 0
0.130166 -1.02368 0
-0.0527739 -1.12539 0
0.003361 -0.572649 0
-0.0494029 -1.14688 0
0.581193 -1.42683 0
-0.0658517 -1.12876 0
-0.0507845 -1.42808 0
0.0677095 -1.13651 0
0.132705 -1.11027 0
0.117197 -1.15976 0
0.109595 -1.0586 0
-0.0891115 -1.14102 0
0.00974586 -1.00708 0
-0.115048 -1.19642 0
0.00818237 -1.34084 0
-0.149633 -0.701697 0
-0.101971 -0.962584 0
-0.0755053 -1.13449 0
-0.573848 0 0
0.0353279 -1.13395 0
0.0141462 -0.587995 0
-0.0336436 -1.10445 0
-0.233389 -0.587995 0
0.0742571 -1.02326 0
0.0363436 -1.21706 0
0.00818237 -1.15483 0
0.174716 -1.01899 0
0.233752 -1.07523 0
-0.147412 -1.03716 0
0.0677095 -1.11027 0
-0.147412 -1.00624 0
-0.0135818 -1.21745 0
0 -1.35454 0
0.620374 -1.44301 0
0 -1.3592 0
-0.0195613 -0.924493 0
-0.0748451 -0.848142 0
0.00850962 -0.59143 0
0.0571449 -1.01899 0
-0.102926 -0.983598 0
0.00110948 -1.06991 0
-0.13649 -0.881948 0
-0.371911 -1.19414 0
-0.280987 -1.13852 0
-0.695686 -1.46229 0
-0.21648 -1.0571 0
0.337126 -1.11291 0
0.0281462 -0.723819 0
-0.280987 -1.03295 0
0.199985 -1 0
0.12123 -1.07876 0
0.12123 -1 0
0.401589 -1 0
0.3129 -1 0
-0.028915 -0.982629 0
-0.0586802 -0.941102 0
-0.0879497 -1.01239 0
0.10203 -0.694124 0
0.123686 -1.20403 0
0.413716 -1.49827 0
0.165825 -1.07876 0
0.095713 -0.687807 0
0.095713 -1 0
0.0515381 -1.18694 0
-0.59786 -1.39262 0
0 -1.41008 0
-0.225508 -1.19587 0
0 -1.35854 0
-0.0287579 -1.21142 0
0.0163296 -1.47003 0
-0.0509379 -0.719613 0
-0.0509379 -1.00071 0
0.407211 -1.13632 0
-0.0800378 -1.02858 0
-0.0743453 -1.12581 0
0 -1.13395 0
0.0506835 -1.06116 0
0 -1.08326 0
0.18232 -1.23427 0
0.0671081 -1.49464 0
0.764351 -1.34948 0
-0.0325876 -1.03414 0
-0.167626 -1.07815 0
0.663443 -1.02131 0
0.3395 -0.700151 0
0.775668 0 0
0.0755173 0 0
0.796154 -1.08869 0
-0.159378 -1.07143 0
-0.113097 -1.06733 0
0.0792513 -1.46917 0
0.279374 -1.83446 0
-0.694218 -1.65042 0
0 -1.84112 0
-0.217626 -1.47626 0
-0.107787 -1.1013 0
-0.0731703 -1.06071 0
-0.0514611 -1.05146 0
0.638969 0 0
0.0268975 0 0
0.224633 -0.680034 0
0 -1.47003 0
-0.0980408 -1.27786 0
0 -1.48636 0
-0.311183 -1.29901 0
0.249625 -1.49763 0
-0.219629 -1.07828 0
0.103475 -1.06079 0
0.0437693 -1.60695 0
-0.375984 -1.23352 0
-0.00310005 -0.767451 0
0 -1.47595 0
-0.375984 -1.13444 0
0.0555191 -0.973736 0
0.0580312 -1.01913 0
-0.103753 -1.20325 0
0.0505397 -1.00749 0
0.273635 -0.631507 0
0.00723358 -0.987138 0
0.0506835 -1.08326 0
-0.0776233 -1.00556 0
0.183962 -1.05375 0
0.0801652 -1.12726 0
0.109231 -1.18797 0
0.169941 -1.10829 0
-0.21093 -1.20048 0
-0.0350973 -0.699439 0
-0.312218 -0.97656 0
0.0474253 -1.00946 0
0.0792513 -1.34164 0
0 -1.47409 0
0.042526 -1.05112 0
-0.0367415 -1.21745 0
-0.0946415 -1.07338 0
0.0436191 -1.00692 0
-0.173705 -1.21622 0
0 -1.54772 0
0.62249 0 0
0.207956 -0.657334 0
0.158627 -0.874916 0
0.0681653 -0.920116 0
0.242245 -1.02131 0
-0.0327067 -0.973096 0
-0.0649 -1.16978 0
0.022717 -0.867407 0
0.183962 -0.895476 0
-0.221344 -1.20918 0
-0.0111069 -1.11599 0
0.0165635 0 0
-0.0591636 -1.06071 0
-0.0145727 -1.08926 0
-0.221344 -1.19686 0
0.00216465 -0.655301 0
-0.244071 -1.21959 0
0.058537 -1.06257 0
-0.747223 -1.50568 0
0.218541 -1.65072 0
-0.0649 -1.05479 0
0.671613 0 0
0.0555191 -1.00946 0
-0.193261 -1.23427 0
0 -1.65072 0
0.0505397 -1 0
0.0499689 -1.00692 0
0.0671081 -1.34948 0
0 -1.60695 0
0.10203 0 0
0.0396477 -1.15804 0
0.042526 -1.07338 0
0.0870374 -1.00676 0
0.142846 -1.07187 0
0.0589769 -1.02102 0
0.0371365 -1.02102 0
0.0589769 -1.00601 0
0.0436191 -1 0
0.0474253 -1.01073 0
0.0328921 -1.01073 0
0.00217835 -1.03303 0
-0.585776 -1.46917 0
0.0736231 -1.28422 0
0.0459258 -1.03407 0
0.0151937 -1.08192 0
-0.0439593 -1.10316 0
0.0163296 -1.29469 0
-0.705719 -1.51216 0
-0.0981064 -1.02997 0
-0.255312 -1.15288 0
-0.311183 -1.11762 0
0.0382119 -1.22854 0
-0.665447 -1.56301 0
-0.0325876 -1.1013 0
-0.0312481 -1.08152 0
-0.0893063 -0.962341 0
-0.0929819 -1.56301 0
-0.0213033 -0.670875 0
-0.0512412 -1.00071 0
-0.15694 -1.09907 0
-0.132945 -1.40068 0
0.207999 -1.48636 0
-0.0998914 -1.03038 0
-0.129493 -1.08779 0
0.0588301 -0.980821 0
-0.0622382 -1.13466 0
0.3129 -1.08869 0
0.0522254 -1.01913 0
-0.607946 -1.47886 0
0.204675 -1.21622 0
-0.0892378 -1.07828 0
0.142846 -1.06257 0
0.00216465 -0.902503 0
0.0387964 -1.07559 0
0.0606166 -1.07559 0
-0.0949952 -1.24061 0
0.671613 -1.04271 0
-0.129493 -1.2787 0
0.116293 -1.21142 0
-0.0600337 -1.08488 0
-0.034844 0 0
-0.0985107 -1.0884 0
-0.133326 -1.2787 0
0.0387964 -1.1344 0
0.775668 -1.13632 0
-0.148688 -1.17343 0
0.0580312 -1 0
0.332921 -0.723806 0
0.0588301 -0.683464 0
0.0481615 -1.1344 0
0 -1.45233 0
-0.255312 -1.40068 0
-0.0132101 -1.19587 0
-0.048832 -1.06881 0
0.030226 -0.629797 0
0.141487 -1.01127 0
-0.0946415 -1.19414 0
0.169941 -1.12726 0
-0.0892378 -0.998429 0
0.0352275 -1.08068 0
-0.312218 -1.13444 0
0.249625 -1.18797 0
-0.0740968 -1.05479 0
-0.0507175 -1.19992 0
-0.0173605 -1.19992 0
0.3395 -1.20403 0
-0.0881801 -1.11082 0
-0.0942783 -0.984402 0
-0.119846 -1.00556 0
-0.21648 -1 0
0.0499689 -1.00391 0
0.0685824 -1.10395 0
-0.239323 -1.17383 0
0.286035 -1.54843 0
-0.0879497 -1 0
0.0522254 -1.07839 0
-0.193261 -1.0595 0
0.0253407 -1.00391 0
-0.628404 -1.49464 0
0.0437693 -1.47595 0
0.0361468 -1.07824 0
0.0755173 -0.700151 0
-0.0860776 -1.18235 0
0.0771623 -1 0
0.413716 -1.14282 0
-0.194891 -1.09652 0
-0.028915 -1.07143 0
-0.00119512 -1.08647 0
0.0870374 -1.03407 0
-0.173705 -1.0571 0
0.0253407 -0.998429 0
0.0247147 0 0
0.764351 0 0
0.0683913 -1.13702 0
-0.146276 -1.19686 0
0.337126 -1.54772 0
-0.00119512 -1.02496 0
-0.258972 -1.11762 0
0.207999 -1.13702 0
-0.0186639 -0.987138 0
0.0678676 -1.06834 0
-0.00370691 -0.984402 0
0.283951 -0.655049 0
0.000647391 -0.908544 0
0.18232 -0.767451 0
0.279374 -1.56175 0
-0.293665 -1.14866 0
-0.0496987 -1.36072 0
-0.207385 -1.02027 0
0.274678 -1.05375 0
-0.371911 -1.13852 0
0.638969 -1.10829 0
-0.258972 -0.908544 0
0 -1.41412 0
-0.0929819 -1.36072 0
-0.107787 -1.07815 0
-0.0417732 -1.05122 0
-0.159378 -1 0
0.0463916 -1.02496 0
0.0685316 -1.10466 0
0.0771623 -1.04407 0
0.199985 -1.11291 0
0.0463916 -1.00749 0
0 -1.56175 0
-0.0434643 -1.51972 0
0.0877899 -0.886593 0
0.000647391 -0.973736 0
-0.224208 -1.0595 0
0.218541 -1.25741 0
-0.119192 -1.29901 0
0.101452 -1.01083 0
0.0435249 -0.682011 0
-0.0817603 -1.03414 0
-0.022317 -1.11158 0
-0.119192 -1.16978 0
-0.0186639 -0.881674 0
-0.109014 -1.03216 0
-0.19458 -0.920116 0
-0.0900332 -1.03745 0
0.0720814 -1.08068 0
0.0361468 -1.05112 0
0.0720814 -1.01519 0
-0.607946 -0.683464 0
-0.0383888 -1.1807 0
-0.0586802 -1.01239 0
0.00689112 -1.19079 0
0.0877899 -1.00601 0
-0.1116 -1.02304 0
-0.0269072 -1.01519 0
0.796154 0 0
0.00689112 -1.07839 0
-0.0269072 -1.08779 0
0.236705 -0.989924 0
0.103475 -1.10395 0
0.0352275 -1.20325 0
-0.0622729 -1.04982 0
0 -1 0
-0.219629 -1.20918 0
0.62249 -1.07187 0
0.0659716 -1.04588 0
0.0606166 -1.03303 0
0.0247147 -0.760801 0
-0.0877487 -1.19079 0
0.00217835 -0.97656 0
-0.0743453 -1.02858 0
0.0736231 -1.47409 0
-0.0974312 -1.08647 0
0.0959262 -0.939285 0
0.0319361 -0.631507 0
-0.119262 -1.06668 0
-0.0132101 -1.08192 0
0.751939 0 0
0.1255 -1.31209 0
0.0151937 -0.937185 0
0.785515 -1.34164 0
-0.132824 -1.25863 0
0.0281332 0 0
0.116293 -0.980821 0
0.407211 -1.48755 0
-0.0817603 -1.05032 0
-0.0881801 -1.05674 0
0.123686 -1.36387 0
-0.0591636 -1.05674 0
-0.225603 -1.30404 0
0.401589 -0.694124 0
0.086543 -1.04407 0
-0.225603 -1.09652 0
-0.59786 -0.629797 0
-0.0900332 -1.04982 0
0.141487 -1.18694 0
0.0678676 -1.10466 0
-0.0679256 -1.02771 0
-0.19458 -1.15288 0
0.261995 -1.068 0
-0.722713 -1.55638 0
0.0503301 -1.29469 0
0.286035 -1.84112 0
-0.314999 -1.32366 0
0 -1.83446 0
-0.0822812 -1.31819 0
0 -1.54843 0
-0.0860776 -1.11082 0
-0.0949952 -1.17343 0
-0.148688 -1.05032 0
-0.224208 -0.881674 0
-0.628404 -0.655301 0
-0.119262 -1.02979 0
-0.0327067 -1.02708 0
-0.167626 -0.980513 0
-0.0776233 -1.01801 0
-0.110085 -0.973096 0
-0.217626 -1.17383 0
-0.705719 -0.670875 0
-0.314999 -1.14866 0
-0.0477841 0 0
0.706932 0 0
-0.0287579 -1.39262 0
-0.0622729 -1.05761 0
0.0515381 -1.35854 0
0.0959262 -1.06834 0
-0.048832 -1.04416 0
-0.225508 -1.02027 0
-0.0679256 -1.04416 0
-0.146276 -1.0884 0
0.0659716 -0.902503 0
-0.00310005 0 0
0.785515 0 0
0.204675 -0.760801 0
0.663443 0 0
-0.0176284 -1.02708 0
-0.0312481 -1.05122 0
0.274678 -1.41008 0
-0.0417732 -1.01801 0
0.0132978 -1.04588 0
-0.103753 -1.46229 0
0.217435 -1.06079 0
-0.0600337 -1.05761 0
-0.0350973 -0.939285 0
-0.0439593 -1.06881 0
-0.695686 -0.723819 0
-0.0622382 -1.08488 0
-0.0477841 -0.686753 0
0.217435 -0.686753 0
0.273635 -0.989924 0
-0.118349 -1.02979 0
0 -1.36387 0
0 -1.07469 0
0.242245 -0.995464 0
-0.0942783 -0.980513 0
-0.0145727 -1.06484 0
-0.0173605 -1.07824 0
-0.118349 -1.00458 0
0.236705 -1.04271 0
-0.0740968 -1.00458 0
0.0319361 0 0
-0.00472582 -1.05194 0
-0.0367415 -1.18235 0
-0.0981064 -1.03216 0
0.101452 -1.22854 0
-0.0998914 -1.02304 0
0.158627 -1.068 0
-0.0985107 -1.03038 0
0.261995 -1.45233 0
0.0396477 -1.31819 0
-0.113097 -0.995518 0
0.086543 -1.15804 0
-0.0755559 -1 0
-0.585776 -0.687807 0
-0.0755559 -0.995518 0
0.751939 -1.14282 0
0 -1.11158 0
0.165825 -1.28422 0
-0.0800378 -1 0
-0.0877487 -1.32366 0
-0.0213033 -0.886593 0
-0.239323 -0.941102 0
-0.21093 -1.21959 0
-0.034844 -0.657334 0
-0.694218 -0.718932 0
-0.0171535 -0.718932 0
0 -1.1807 0
-0.0974312 -1.20048 0
0.207956 -1.00676 0
-0.0171535 -0.982629 0
-0.104717 -1.03877 0
-0.665447 -0.682011 0
0.0268975 -0.680034 0
0.0132978 -1.06996 0
0.00723358 -1.05194 0
-0.0731703 -1.06668 0
-0.0176284 -1.06484 0
-0.0111069 -1.27786 0
-0.0893063 -1.03877 0
-0.00472582 -1.07469 0
0 -1.06996 0
-0.030736 -1.14232 0
-0.194891 -0.937185 0
-0.160508 -0.995797 0
-0.00370691 -1.11599 0
-0.104717 -1.03646 0
-0.0512412 -1.09225 0
-0.110085 -0.995797 0
0.283951 -0.995464 0
0.123465 -1.13395 0
-0.119846 -1.03646 0
0.0435249 -0.895476 0
0.224633 -1.06116 0
0.123465 -1.16233 0
0.0165635 -0.655049 0
-0.160508 -1.09225 0
0.706932 -1.16233 0
0.0281462 -1.02858 0
-0.0383888 -1.13466 0
0.332921 -1.22362 0
0 -1.14232 0
-0.207385 -0.867407 0
-0.0997755 -1.02771 0
0.030226 -0.874916 0
-0.1116 -1.03745 0
0.0681653 -1.01127 0
-0.0997755 -1.02563 0
0.022717 -1.01083 0
-0.109014 -1.02563 0
-0.022317 -1.08152 0
0 -1.48755 0
0 -1.08926 0
0 -1.25741 0
0.0281332 -0.723806 0
-0.747223 -0.699439 0
-0.030736 -1.10316 0
0.0382119 -1.41412 0
-0.15694 -1.02997 0
0 -1.51972 0
-0.244071 -1.09907 0
-0.0434643 -1.65042 0
-0.293665 -0.962341 0
-0.0980408 -1.51216 0
0 -1.47626 0
-0.722713 -0.719613 0
0 -1.25863 0
-0.0822812 -1.55638 0
-0.132824 -1.06733 0
0 -1.12581 0
0 -1.05146 0
-0.0514611 -1 0
0.0296947 0 0
0.249025 -0.693301 0
0.00737638 -0.914453 0
0.0205369 -1.00304 0
0.0857198 -0.924701 0
-0.608845 -1.51138 0
0.169759 -1.16727 0
0.0152153 -1.06823 0
0.0205369 -1.06291 0
0.0152153 -1.09334 0
0.0986061 -1.34087 0
0.256972 -1.1825 0
0.256972 -1.53774 0
-0.0723175 -1.26989 0
0.0124442 -1.18513 0
0.0124442 -1.27687 0
0.0576576 -1.00365 0
0.028677 -1.07485 0
0.0455413 -1.00527 0
0.0561434 -1.06466 0
0.0250365 -1.04746 0
0.0659414 -1.08801 0
-0.0104017 -1.11895 0
0.0986061 -1.19071 0
0.647075 -1.06227 0
-0.135828 -1.16576 0
0.0497207 -1.16727 0
0.0508025 -1.30952 0
0.722995 0 0