# vtk DataFile Version 2.0
Unstructured Grid by M++
ASCII
DATASET UNSTRUCTURED_GRID
POINTS 1072 float
  0.593750   1.000000 0
  0.718750   0.656250 0
  0.625000   0.968750 0
  0.625000   1.000000 0
  0.843750   0.562500 0
  0.875000   0.562500 0
  0.875000   0.531250 0
  0.562500   0.531250 0
  0.687500   1.000000 0
  0.875000   0.593750 0
  0.562500   0.593750 0
  0.625000   0.531250 0
  0.593750   0.562500 0
  0.593750   0.531250 0
  0.562500   0.562500 0
  0.593750   0.625000 0
  0.593750   0.593750 0
  0.562500   0.625000 0
  0.593750   0.687500 0
  0.562500   0.687500 0
  0.906250   0.500000 0
  0.656250   0.750000 0
  0.625000   0.937500 0
  0.593750   0.968750 0
  0.812500   0.531250 0
  0.625000   0.906250 0
  0.906250   0.625000 0
  0.656250   0.593750 0
  0.531250   0.937500 0
  0.593750   0.656250 0
  0.687500   0.562500 0
  0.625000   0.593750 0
  0.656250   0.562500 0
  0.625000   0.562500 0
  0.718750   1.000000 0
  0.687500   0.625000 0
  0.562500   0.968750 0
  0.656250   0.625000 0
  0.531250   0.968750 0
  0.625000   0.625000 0
  0.656250   0.656250 0
  0.531250   1.000000 0
  0.625000   0.656250 0
  0.625000   0.687500 0
  0.937500   0.562500 0
  0.937500   0.656250 0
  0.968750   0.625000 0
  0.937500   0.625000 0
  0.968750   0.593750 0
  0.937500   0.593750 0
  0.843750   0.531250 0
  0.812500   0.562500 0
  0.625000   0.875000 0
  0.812500   0.687500 0
  1.000000   0.625000 0
  0.750000   0.968750 0
  0.843750   0.843750 0
  1.000000   0.937500 0
  1.000000   0.906250 0
  0.937500   0.687500 0
  0.843750   0.781250 0
  0.750000   1.000000 0
  0.968750   0.562500 0
  0.968750   0.937500 0
  0.968750   0.906250 0
  0.968750   0.875000 0
  0.656250   0.781250 0
  1.000000   0.593750 0
  0.562500   0.937500 0
  0.656250   0.843750 0
  1.000000   0.656250 0
  0.656250   0.812500 0
  0.656250   0.875000 0
  0.781250   0.531250 0
  1.000000   0.687500 0
  0.906250   0.906250 0
  0.843750   0.687500 0
  0.843750   0.656250 0
  0.656250   0.906250 0
  0.937500   0.843750 0
  0.937500   0.906250 0
  0.937500   0.937500 0
  0.937500   0.875000 0
  0.625000   0.750000 0
  0.625000   0.812500 0
  0.625000   0.781250 0
  0.906250   1.000000 0
  0.625000   0.843750 0
  0.968750   0.656250 0
  0.968750   0.500000 0
  0.937500   0.531250 0
  0.875000   0.875000 0
  0.875000   0.812500 0
  0.718750   0.968750 0
  0.906250   0.812500 0
  0.843750   0.812500 0
  0.812500   0.812500 0
  0.718750   0.937500 0
  0.687500   0.937500 0
  0.906250   0.593750 0
  0.968750   0.531250 0
  0.875000   0.625000 0
  0.906250   0.875000 0
  0.781250   1.000000 0
  0.968750   0.687500 0
  0.875000   0.781250 0
  0.875000   0.687500 0
  0.812500   0.781250 0
  0.906250   0.687500 0
  0.875000   0.656250 0
  1.000000   0.562500 0
  0.812500   0.750000 0
  0.906250   0.656250 0
  0.843750   0.750000 0
  0.562500   1.000000 0
  0.687500   0.656250 0
  0.562500   0.656250 0
  0.593750   0.906250 0
  0.593750   0.937500 0
  0.562500   0.875000 0
  0.593750   0.843750 0
  0.593750   0.875000 0
  0.750000   0.687500 0
  0.781250   0.687500 0
  0.750000   0.718750 0
  0.781250   0.718750 0
  0.750000   0.750000 0
  0.562500   0.812500 0
  0.593750   0.781250 0
  0.593750   0.812500 0
  0.750000   0.625000 0
  0.781250   0.625000 0
  0.750000   0.656250 0
  0.812500   0.625000 0
  0.781250   0.656250 0
  0.562500   0.906250 0
  0.562500   0.843750 0
  0.562500   0.750000 0
  0.593750   0.750000 0
  0.562500   0.781250 0
  0.656250   0.937500 0
  0.531250   0.531250 0
  0.531250   0.562500 0
  0.531250   0.593750 0
  0.531250   0.625000 0
  0.531250   0.656250 0
  0.531250   0.687500 0
  0.812500   0.593750 0
  0.843750   0.593750 0
  0.781250   0.750000 0
  0.781250   0.781250 0
  0.531250   0.812500 0
  0.531250   0.843750 0
  0.531250   0.750000 0
  0.531250   0.718750 0
  0.531250   0.906250 0
  0.875000   0.843750 0
  0.531250   0.875000 0
  0.718750   0.718750 0
  0.687500   0.687500 0
  0.718750   0.687500 0
  0.718750   0.625000 0
  0.562500   0.718750 0
  0.687500   0.593750 0
  0.718750   0.593750 0
  0.718750   0.562500 0
  0.750000   0.562500 0
  0.656250   0.968750 0
  0.656250   0.687500 0
  1.000000   0.968750 0
  0.625000   0.718750 0
  0.656250   0.718750 0
  0.843750   0.625000 0
  0.812500   0.656250 0
  0.812500   0.718750 0
  0.687500   0.968750 0
  0.656250   1.000000 0
  0.687500   0.531250 0
  0.718750   0.531250 0
  0.906250   0.562500 0
  1.000000   0.531250 0
  0.750000   0.531250 0
  0.750000   0.593750 0
  0.781250   0.875000 0
  0.781250   0.562500 0
  0.781250   0.593750 0
  0.593750   0.281250 0
  0.593750   0.250000 0
  0.562500   0.250000 0
  0.562500   0.031250 0
  0.593750   0.375000 0
  0.718750   0.031250 0
  0.593750   0.343750 0
  0.687500   0.250000 0
  0.656250   0.437500 0
  0.781250   0.093750 0
  0.625000   0.406250 0
  0.750000   0.062500 0
  0.687500   0.500000 0
  0.812500   0.156250 0
  0.593750   0.031250 0
  0.562500   0.000000 0
  0.625000   0.125000 0
  0.625000   0.093750 0
  0.593750   0.093750 0
  0.593750   0.062500 0
  0.687500   0.437500 0
  0.781250   0.343750 0
  0.906250   0.000000 0
  0.781250   0.312500 0
  0.656250   0.406250 0
  0.750000   0.312500 0
  0.687500   0.468750 0
  0.812500   0.125000 0
  0.906250   0.031250 0
  0.656250   0.312500 0
  0.625000   0.281250 0
  0.687500   0.375000 0
  0.656250   0.343750 0
  0.625000   0.312500 0
  0.656250   0.375000 0
  0.625000   0.343750 0
  0.625000   0.375000 0
  0.750000   0.125000 0
  0.625000   0.468750 0
  0.687500   0.062500 0
  0.562500   0.406250 0
  0.656250   0.031250 0
  0.531250   0.375000 0
  0.625000   0.000000 0
  0.656250   0.062500 0
  0.531250   0.406250 0
  0.625000   0.031250 0
  0.625000   0.062500 0
  0.750000   0.406250 0
  0.843750   0.312500 0
  0.812500   0.343750 0
  0.937500   0.000000 0
  0.843750   0.343750 0
  0.968750   0.000000 0
  0.812500   0.312500 0
  0.968750   0.093750 0
  0.937500   0.062500 0
  0.750000   0.187500 0
  0.656250   0.281250 0
  0.843750   0.093750 0
  0.750000   0.156250 0
  0.625000   0.500000 0
  0.843750   0.062500 0
  0.625000   0.250000 0
  0.812500   0.062500 0
  0.968750   0.062500 0
  0.843750   0.375000 0
  0.968750   0.031250 0
  0.812500   0.375000 0
  0.937500   0.031250 0
  0.906250   0.062500 0
  0.781250   0.125000 0
  0.656250   0.468750 0
  0.875000   0.031250 0
  0.937500   0.218750 0
  0.937500   0.250000 0
  0.937500   0.312500 0
  0.937500   0.343750 0
  0.937500   0.375000 0
  0.937500   0.406250 0
  1.000000   0.000000 0
  0.875000   0.343750 0
  0.937500   0.437500 0
  0.562500   0.312500 0
  0.656250   0.218750 0
  1.000000   0.031250 0
  0.875000   0.375000 0
  0.625000   0.437500 0
  0.750000   0.093750 0
  0.968750   0.250000 0
  0.968750   0.343750 0
  0.968750   0.375000 0
  0.968750   0.406250 0
  0.968750   0.468750 0
  0.968750   0.437500 0
  0.937500   0.156250 0
  1.000000   0.406250 0
  1.000000   0.375000 0
  0.875000   0.406250 0
  1.000000   0.062500 0
  0.593750   0.000000 0
  1.000000   0.500000 0
  0.531250   0.000000 0
  1.000000   0.468750 0
  1.000000   0.437500 0
  0.750000   0.375000 0
  0.843750   0.281250 0
  0.156250   0.531250 0
  1.000000   0.312500 0
  0.031250   0.875000 0
  0.000000   0.750000 0
  0.031250   0.750000 0
  0.031250   0.781250 0
  0.031250   0.812500 0
  0.031250   0.843750 0
  0.156250   0.500000 0
  1.000000   0.281250 0
  0.125000   0.968750 0
  0.250000   0.625000 0
  0.187500   1.000000 0
  1.000000   0.718750 0
  0.312500   0.000000 0
  0.312500   0.656250 0
  0.156250   1.000000 0
  0.968750   0.718750 0
  0.281250   0.000000 0
  0.281250   0.656250 0
  0.125000   0.843750 0
  0.156250   0.843750 0
  0.000000   0.718750 0
  0.843750   0.500000 0
  0.281250   0.687500 0
  0.437500   0.781250 0
  0.312500   1.000000 0
  0.281250   1.000000 0
  0.375000   0.781250 0
  0.312500   0.500000 0
  0.437500   0.156250 0
  0.343750   0.500000 0
  0.468750   0.156250 0
  0.250000   0.156250 0
  0.343750   0.125000 0
  0.218750   0.468750 0
  0.375000   0.375000 0
  0.437500   0.312500 0
  0.406250   0.312500 0
  0.062500   0.375000 0
  0.093750   0.281250 0
  0.093750   0.343750 0
  0.937500   0.125000 0
  0.906250   0.718750 0
  0.218750   0.000000 0
  0.250000   0.968750 0
  0.531250   0.062500 0
  0.156250   0.062500 0
  0.312500   0.187500 0
  1.000000   0.875000 0
  0.312500   0.156250 0
  0.281250   0.187500 0
  0.906250   0.781250 0
  0.218750   0.062500 0
  0.718750   0.781250 0
  0.031250   0.062500 0
  0.375000   0.000000 0
  0.718750   0.750000 0
  0.031250   0.031250 0
  0.687500   0.781250 0
  0.000000   0.062500 0
  0.250000   0.500000 0
  0.375000   0.156250 0
  0.281250   0.468750 0
  0.406250   0.125000 0
  0.406250   0.343750 0
  0.062500   0.406250 0
  0.312500   0.437500 0
  0.437500   0.093750 0
  0.781250   0.031250 0
  0.250000   0.468750 0
  0.375000   0.125000 0
  0.281250   0.437500 0
  0.406250   0.093750 0
  0.406250   0.437500 0
  0.406250   0.406250 0
  0.375000   0.437500 0
  0.031250   1.000000 0
  0.187500   0.437500 0
  1.000000   0.812500 0
  0.312500   0.093750 0
  0.218750   0.437500 0
  0.343750   0.093750 0
  0.250000   0.437500 0
  0.375000   0.093750 0
  0.218750   0.406250 0
  0.343750   0.062500 0
  0.250000   0.406250 0
  0.375000   0.062500 0
  0.281250   0.218750 0
  0.187500   0.312500 0
  0.250000   0.218750 0
  0.156250   0.312500 0
  1.000000   0.093750 0
  0.125000   0.312500 0
  0.406250   0.000000 0
  0.750000   0.781250 0
  0.062500   0.062500 0
  0.375000   0.500000 0
  0.500000   0.156250 0
  0.312500   0.968750 0
  0.125000   0.468750 0
  0.500000   0.375000 0
  0.437500   0.406250 0
  0.375000   0.468750 0
  0.468750   0.375000 0
  0.125000   0.437500 0
  0.343750   0.468750 0
  0.468750   0.125000 0
  0.437500   0.375000 0
  0.093750   0.437500 0
  0.125000   0.093750 0
  0.500000   0.937500 0
  0.718750   0.906250 0
  0.031250   0.187500 0
  0.687500   0.906250 0
  0.000000   0.187500 0
  0.937500   0.781250 0
  0.250000   0.062500 0
[...]
CELL_DATA 1912
SCALARS scalar_value float 1
LOOKUP_TABLE default
-0.580441
-0.563361
-0.574671
-0.536875
-0.266154
-0.229781
-0.345092
-0.466849
-0.452454
-0.260998
-0.39264
-0.451851
-0.363603
-0.269414
-0.352747
-0.329147
-0.364839
-0.0865354
-0.0454756
-0.24927
-0.356943
-0.424079
-0.399689
-0.326978
-0.382523
-0.323706
-0.391245
-0.085224
-0.0969218
-0.422979
-0.399617
-0.354753
-0.431707
-0.492365
-0.438499
-0.45622
-0.415432
-0.129119
-0.0478371
-0.0238874
-0.0119039
-0.0422273
-0.0209358
-0.0102545
-0.0104679
-0.281233
-0.250598
-0.248966
-0.275846
-0.350653
-0.243349
-0.307485
-0.23874
-0.313808
-0.147799
-0.0953979
-0.146169
-0.131506
-0.190177
-0.118769
-0.0287798
-0.120963
-0.0314683
-0.0842402
-0.0144144
-0.244246
-0.242894
-0.28649
-0.289994
-0.342796
-0.313957
-0.260272
-0.30139
-0.256514
-0.298666
-0.0442368
-0.0726386
-0.0223064
-0.0113287
-0.0110067
-0.365371
-0.331588
-0.36544
-0.461007
-0.437017
-0.437326
-0.193835
-0.227757
-0.170989
-0.161164
-0.157616
-0.0594043
-0.04725
-0.0236948
-0.301154
-0.46533
-0.529504
-0.23777
-0.217145
-0.331682
-0.0404843
-0.186152
-0.484189
-0.430217
-0.148587
-0.348061
-0.41996
-0.397829
-0.112525
-0.432512
-0.16574
-0.427978
-0.537941
-0.408304
-0.223864
-0.251461
-0.123227
-0.219296
-0.161042
-0.0256462
-0.0565488
-0.524606
-0.100408
-0.456164
-0.533763
-0.082746
-0.0749468
-0.438601
-0.494978
-0.0582232
-0.241825
-0.16744
-0.169076
-0.0981595
-0.290309
-0.198692
-0.341908
-0.471137
-0.0514699
-0.0778992
-0.0507744
-0.041089
-0.0202956
-0.0528375
-0.559519
-0.389654
-0.127785
-0.523597
-0.458535
-0.573169
-0.446504
-0.57237
-0.496484
-0.224986
-0.224439
-0.0481348
-0.318023
-0.386629
-0.16834
-0.0468775
-0.315414
-0.330847
-0.038831
-0.353859
-0.390191
-0.316933
-0.0425822
-0.447553
-0.19933
-0.12275
-0.376902
-0.251924
-0.0920599
-0.380717
-0.495009
-0.277566
-0.353991
-0.572926
-0.499942
-0.487637
-0.247548
-0.524508
-0.270682
-0.207212
-0.283135
-0.324678
-0.261216
-0.0226364
-0.0798885
-0.354921
-0.0854745
-0.204806
-0.470651
-0.4924
-0.474195
-0.41377
-0.364211
-0.234148
-0.318965
-0.357391
-0.151752
-0.49592
-0.432383
-0.0479543
-0.43522
-0.306081
-0.569895
-0.56711
-0.152522
-0.0901487
-0.377803
-0.503497
-0.522031
-0.0237052
-0.429241
-0.482724
-0.184345
-0.461597
-0.57729
-0.522073
-0.456509
-0.203148
-0.447393
-0.117564
-0.532941
-0.0704029
-0.00723347
-0.457123
-0.387397
-0.518339
-0.181007
-0.214585
-0.0937597
-0.384548
-0.470562
-0.0228818
-0.0671063
-0.398799
-0.114692
-0.0573451
-0.0907778
-0.277511
-0.203041
-0.0988279
-0.2837
-0.0737529
-0.214343
-0.136851
-0.319584
-0.232723
-0.48063
-0.0657731
-0.537525
-0.173092
-0.423942
-0.154519
-0.087438
-0.376508
-0.506888
-0.198074
-0.282854
-0.160878
-0.243496
-0.0818296
-0.0504682
-0.154501
-0.534945
-0.412456
-0.54438
-0.041579
-0.126986
-0.189868
-0.224047
-0.321473
-0.0842396
-0.353818
-0.125557
-0.393061
-0.454313
-0.183691
-0.0600628
-0.00991665
-0.41558
-0.320909
-0.442977
-0.285514
-0.229021
-0.149681
-0.428928
-0.271856
-0.164224
-0.0600377
-0.00983083
-0.295665
-0.0195666
-0.0392357
-0.20342
-0.243648
-0.211786
-0.532019
-0.467089
-0.134067
-0.18752
-0.434285
-0.308576
-0.56949
-0.221662
-0.108919
-0.464584
-0.533283
-0.398699
-0.396771
-0.44783
-0.0288688
-0.296624
-0.230092
-0.247377
-0.160595
-0.210068
-0.303813
-0.217584
-0.175158
-0.449575
-0.199124
-0.561606
-0.203491
-0.417917
-0.25816
-0.378706
-0.330746
-0.342084
-0.293266
-0.545241
-0.408895
-0.341628
-0.295822
-0.360193
-0.418056
-0.453838
-0.0101375
-0.0105951
-0.444393
-0.546048
-0.0205806
-0.53369
-0.557892
-0.265398
-0.321452
-0.388552
-0.010343
-0.0905351
-0.298451
-0.363311
-0.423537
-0.418914
-0.351733
-0.23608
-0.207291
-0.2641
-0.199802
-0.12512
-0.271485
-0.0115806
-0.473377
-0.57216
-0.0753917
-0.0215458
-0.0118786
-0.124318
-0.055977
-0.106967
-0.0114992
-0.116256
-0.0989103
-0.320032
-0.238711
-0.143389
-0.35405
-0.27372
-0.215969
-0.140019
-0.457761
-0.421714
-0.311484
-0.387695
-0.3147
-0.386758
-0.546441
-0.45184
-0.220205
-0.476261
-0.49323
-0.243828
-0.00796393
-0.0192302
-0.0931045
-0.0745122
-0.191705
-0.27786
-0.388319
-0.0117781
-0.0233382
-0.0464483
-0.443311
-0.589272
-0.271725
-0.161646
-0.46561
-0.587039
-0.270026
-0.400112
-0.0584618
-0.086752
-0.538412
-0.579092
-0.566055
-0.582042
-0.459206
-0.40584
-0.421676
-0.462659
-0.520593
-0.387797
-0.533258
-0.498671
-0.559239
-0.200123
-0.0425657
-0.461311
-0.585622
-0.111931
-0.0541077
-0.343021
-0.46979
-0.0196504
-0.0814872
-0.013894
-0.0829366
-0.0513909
-0.116675
-0.573867
-0.499322
-0.462034
-0.497069
-0.410488
-0.285637
-0.194734
-0.279816
-0.349429
-0.292286
-0.19478
-0.318685
-0.412959
-0.458346
-0.418937
-0.353763
-0.430045
-0.420374
-0.508219
-0.362597
-0.432874
-0.486244
-0.416902
-0.486209
-0.424473
-0.584983
-0.523831
-0.484831
-0.566282
-0.0196647
-0.0484454
-0.467305
-0.455311
-0.389121
-0.488188
-0.419504
-0.656235
-0.609218
-0.644323
-1.19053
-1.14913
-0.599887
-0.592054
-1.17636
-1.16386
-1.17216
-1.19343
-1.18319
-1.15058
-1.14911
-1.18236
-1.18114
-0.686403
-0.610224
-1.14288
-1.19759
-1.20439
-0.733321
-0.771454
-0.735825
-0.763492
-0.693102
-0.725016
-0.946916
-0.967453
-0.957432
-0.647653
-1.17738
-1.14237
-0.864766
-0.863067
-0.83065
-0.960698
-0.962039
-0.999238
-0.724528
-0.797496
-0.781321
-0.660887
-0.640382
-0.646389
-1.16193
-1.18518
-1.1452
-1.12403
-1.02126
-1.07516
-1.02857
-1.06678
-0.760004
-0.757748
-1.1755
-0.638017
-0.903968
-0.888129
-0.916375
-0.940953
-0.962399
-0.982547
-0.612277
-1.03681
-0.683097
-0.986943
-0.600285
-0.982381
-0.941277
-0.620451
-1.09388
-1.1583
-0.694996
-1.15658
-0.808299
-0.829545
-0.852954
-0.832647
-0.790446
-0.679639
-0.643944
-0.649354
-1.03063
-0.658249
-0.665169
-1.12354
-1.11104
-1.06536
-0.730137
-0.610467
-0.697324
-1.15504
-1.15102
-1.11181
-1.01732
-1.03659
-0.834971
-0.79416
-0.797881
-0.830286
-0.912572
-0.836428
-0.796765
-0.992837
-0.901063
-0.839166
-0.734961
-0.75239
-0.975694
-0.886774
-0.985856
-1.0575
-0.612551
-0.936496
-0.899633
-0.843095
-1.10305
-0.934927
-0.969748
-1.16598
-1.13455
-0.975454
-1.02019
-1.17965
-1.10644
-0.719958
-1.06037
-1.02828
-1.10128
-1.12205
-1.09195
-1.16459
-1.13308
-1.15371
-0.69755
-1.15727
-1.10852
-1.09003
-0.702667
-0.719129
-0.960975
-0.993216
-0.906564
-0.8552
-1.00162
-0.900567
-0.864549
-0.736329
-0.752973
-0.938444
-0.901062
-1.03705
-0.936052
-0.943709
-0.905022
-0.992281
-0.874358
-0.818856
-0.671717
-0.684586
-1.17883
-1.13764
-0.623248
-1.12584
-1.06089
-1.03642
-0.878706
-0.750355
-0.728464
-0.611798
-0.851656
-0.833879
-0.700234
-0.720681
-1.01965
-0.909945
-0.861888
-0.761057
-0.630141
-0.652066
-1.1676
-0.602354
-0.664274
-0.784237
-0.898406
-0.873819
-0.737335
-0.754107
-0.81052
-0.765545
-0.683542
-0.657457
-1.07356
-0.731582
-0.64767
-0.621064
-0.876935
-0.821908
-0.796556
-0.663732
-0.68679
-0.8457
-0.854625
-1.20575
-1.12512
-0.714319
-1.11195
-1.07713
-1.19468
-1.1278
-0.918954
-1.1046
-0.927977
-0.971798
-0.761963
-0.648462
-0.649004
-1.16952
-0.615361
-0.657354
-1.16188
-1.09434
-1.06918
-1.16648
-1.0947
-1.1017
-0.990343
-1.02386
-0.948845
-1.14229
-1.10536
-1.02787
-1.00161
-0.85017
-0.716629
-0.866719
-0.824017
-1.06409
-0.967325
-1.00939
-0.977601
-0.947319
-0.803243
-0.770881
-0.636337
-0.630477
-1.04382
-0.942796
-0.918227
-0.7736
-0.787013
-1.19929
-1.12648
-0.748836
-1.16048
-1.16952
-1.1361
-0.978307
-1.01952
-1.06373
-1.07388
-0.894707
-0.925903
-0.953242
-0.86615
-0.821545
-0.702388
-0.718275
-0.937901
-0.860293
-0.871198
-0.813988
-0.803446
-0.753537
-0.751625
-0.762951
-0.647175
-0.647564
-1.16051
-1.09397
-1.07176
-0.839167
-0.783866
-1.17284
-1.10564
-0.795379
-0.829009
-0.692216
-0.72042
-0.768035
-1.18592
-1.02032
-1.00993
-0.851485
-0.718745
-1.10515
-1.06874
-0.687129
-1.15514
-1.09568
-1.07119
-0.686767
-0.796734
-0.793577
-0.725196
-0.623385
-0.606089
-0.692467
-1.08759
-1.10681
-0.618736
-0.691238
-0.652836
-0.689828
-0.699917
-0.697201
-0.7227
-0.615117
-1.19298
-1.13958
-0.63232
-0.794443
-0.790699
-0.757043
-0.726533
-0.800697
-0.828838
-0.861845
-1.01339
-0.987601
-1.06543
-1.02414
-1.05802
-1.06669
-1.1079
-0.662741
-0.62635
-0.666746
-0.879926
-0.903688
-0.806981
-0.819187
-0.811711
-0.820491
-0.851303
-1.08512
-1.01929
-1.0047
-0.6401
-0.908351
-0.739177
-0.755761
-0.721137
-0.695225
-0.766129
-0.779733
-0.788491
-0.933895
-0.860259
-0.986442
-1.09697
-1.11981
-0.789823
-0.797528
-0.764732
-0.763771
-0.79866
-0.830109
-0.678951
-0.662668
-0.733091
-0.667515
-0.731357
-0.618443
-0.697443
-0.644673
-0.658097
-0.811043
-0.829673
-0.724971
-0.763585
-0.803338
-0.833502
-0.763913
-0.784328
-0.842734
-0.834664
-0.864665
-0.79411
-0.797174
-0.623732
-0.89378
-0.875699
-0.861582
-0.841786
-0.896857
-0.869514
-1.09437
-1.1583
-1.12991
-1.19199
-1.18071
-1.18003
-0.633099
-0.695001
-1.13402
-1.18961
-1.05381
-1.04561
-1.12795
-1.01363
-1.0238
-1.10196
-1.12064
-0.622766
-1.05725
-1.04093
-1.12986
-0.90351
-0.838993
-0.900987
-0.819366
-0.819076
-0.770353
-0.786265
-0.913762
-0.926161
-0.785999
-0.797144
-0.683422
-0.672006
-0.886006
-0.877736
-0.89052
-0.924083
-0.863851
-0.821337
-0.887747
-0.867757
-0.814236
-0.883741
-0.897134
-0.836099
-0.900225
-0.917025
-0.591346
-0.660423
-0.599147
-0.659463
-0.817395
-0.822981
-0.817728
-0.82611
-0.785521
-0.835754
-0.845737
-0.858209
-0.730162
-0.681705
-0.729621
-0.900845
-0.615553
-0.639603
-0.695757
-0.913534
-0.92935
-0.987628
-0.968694
-1.03693
-0.960488
-0.957527
-1.03489
-0.986475
-1.07989
-1.05
-1.12169
-1.11853
-1.15333
-1.18726
-0.0971005
-0.0811161
-0.051882
-0.0212973
-0.0525739
-0.260088
-0.0909539
-0.0222508
-0.010965
-0.0113097
-0.569838
-0.554844
-0.563658
-0.572049
-0.559574
-0.572138
-0.386875
-0.359349
-0.388353
-0.360335
-0.432589
-0.0560002
-0.0228571
-0.558707
-0.548056
-0.532486
-0.265472
-0.211778
-0.101639
-0.175872
-0.0843109
-0.0112264
-0.0102301
-0.56097
-0.532018
-0.552092
-0.569246
-0.264229
-0.251549
-0.252795
-0.225948
-0.215554
-0.229138
-0.455058
-0.128958
-0.367294
-0.373007
-0.333827
-0.0423068
-0.490095
-0.46506
-0.455013
-0.130313
-0.200057
-0.137567
-0.198648
-0.010513
-0.557856
-0.526516
-0.0512595
-0.0825427
-0.213886
-0.437143
-0.0817099
-0.046278
-0.40823
-0.0443446
-0.40716
-0.456973
-0.434974
-0.084754
-0.200751
-0.561621
-0.519806
-0.425845
-0.0988043
-0.122278
-0.0475098
-0.0949844
-0.0959711
-0.209733
-0.13604
-0.391551
-0.367692
-0.454914
-0.436159
-0.083892
-0.0792973
-0.531697
-0.517409
-0.498617
-0.0142173
-0.486558
-0.283548
-0.357461
-0.358143
-0.349246
-0.298087
-0.461641
-0.221774
-0.178967
-0.239627
-0.431383
-0.35733
-0.329109
-0.196887
-0.209265
-0.0115476
-0.381948
-0.130488
-0.0100367
-0.0870906
-0.383294
-0.415647
-0.0253171
-0.216694
-0.0828232
-0.0309984
-0.478315
-0.447431
-0.361833
-0.40019
-0.447505
-0.324207
-0.30126
-0.463922
-0.389222
-0.362098
-0.247308
-0.447369
-0.414961
-0.47958
-0.526048
-0.551738
-0.512145
-0.17416
-0.373817
-0.201119
-0.214789
-0.028518
-0.0835238
-0.300676
-0.240719
-0.216786
-0.181739
-0.480491
-0.123786
-0.335534
-0.278445
-0.368999
-0.314253
-0.521757
-0.493688
-0.420185
-0.39341
-0.286373
-0.514605
-0.484882
-0.465454
-0.518348
-0.497208
-0.112725
-0.468102
-0.421417
-0.394578
-0.285548
-0.058222
-0.0119576
-0.121888
-0.35292
-0.325405
-0.289593
-0.144993
-0.159708
-0.416901
-0.368273
-0.31316
-0.160992
-0.525723
-0.494837
-0.45031
-0.425704
-0.357866
-0.25255
-0.0993579
-0.122079
-0.384998
-0.289994
-0.269356
-0.221532
-0.135173
-0.161403
-0.524924
-0.494016
-0.544963
-0.514599
-0.40667
-0.422204
-0.252927
-0.219524
-0.0967912
-0.0970345
-0.288696
-0.285936
-0.429724
-0.489388
-0.418568
-0.392789
-0.121594
-0.355583
-0.325072
-0.194286
-0.184963
-0.448393
-0.350406
-0.427197
-0.402717
-0.400843
-0.347854
-0.0713002
-0.0591468
-0.327257
-0.291417
-0.163242
-0.0420487
-0.0235493
-0.00899048
-0.172872
-0.45923
-0.433327
-0.455684
-0.381592
-0.478929
-0.507322
-0.366079
-0.122522
-0.487937
-0.377834
-0.390273
-0.337243
-0.281644
-0.294144
-0.25891
-0.126299
-0.326483
-0.357131
-0.301844
-0.243685
-0.452401
-0.425936
-0.333343
-0.159853
-0.498265
-0.173554
-0.530117
-0.48509
-0.458031
-0.202012
-0.399299
-0.325735
-0.295174
-0.171757
-0.0111215
-0.379894
-0.0439799
-0.0228477
-0.057644
-0.0807608
-0.0118356
-0.422243
-0.467459
-0.396205
-0.0963868
-0.0480335
-0.157439
-0.0600724
-0.0720176
-0.434965
-0.0449433
-0.0137647
-0.389787
-0.36437
-0.0198505
-0.0222903
-0.0372308
-0.481878
-0.458427
-0.521217
-0.507129
-0.536585
-0.534673
-0.533368
-0.491501
-0.513182
-0.540108
-0.466101
-0.4147
-0.484972
-0.174425
-0.266396
-0.250366
-0.303985
-0.264822
-0.292543
-0.499649
-0.512183
-0.499205
-0.512984
-0.534508
-0.536524
-0.436842
-0.537586
-0.48827
-0.0776992
-0.0569045
-0.0219254
-0.0195181
-0.0438075
-0.0531726
-0.355927
-0.373683
-0.141829
-0.168549
-0.0941082
-0.0956727
-0.173634
-0.18595
-0.19356
-0.277163
-0.335217
-0.36803
-0.332682
-0.357234
-0.434217
-0.457586
-0.433776
-0.382127
-0.456906
-0.467339
-0.118971
-0.465974
-0.487139
-0.162253
-0.191206
-0.133873
-0.191996
-0.110622
-0.169613
-0.092636
-0.260506
-0.210077
-0.25879
-0.335987
-0.357613
-0.300376
-0.316749
-0.370608
-0.398686
-0.39891
-0.34866
-0.401584
-0.427214
-0.0770265
-0.0572929
-0.134949
-0.0108631
-0.0217764
-0.324949
-0.308132
-0.289377
-0.284082
-0.254417
-0.300759
-0.323866
-0.307829
-0.487324
-0.45795
-0.535125
-0.518758
-0.489812
-0.565862
-0.527405
-0.557428
-0.521917
-0.572032
-0.454018
-0.426601
-0.500766
-0.465403
-0.489269
-0.278486
-0.306433
-0.324103
-0.341168
-0.522258
-0.49636
-0.230848
-0.24394
-0.423469
-0.010635
-0.297456
-0.336944
-0.358904
-0.424428
-0.396055
-0.393384
-0.0458794
-0.0218993
-0.0970461
-0.373471
-0.320693
-0.394822
-0.403674
-0.0239151
-0.0422796
-0.404458
-0.425299
-0.0822036
-0.0545412
-0.138172
-0.0846845
-0.14203
-0.0107075
-0.0460243
-0.0974922
-0.0211155
-0.224473
-0.25316
-0.225383
-0.254699
-0.203389
-0.266675
-0.269489
-0.291067
-0.126199
-0.190956
-0.165871
-0.215913
-0.16993
-0.224445
-0.301096
-0.333075
-0.303671
-0.327649
-0.287698
-0.365031
-0.340986
-0.335966
-0.361504
-0.121224
-0.178664
-0.206048
-0.197716
-0.397931
-0.422838
-0.465197
-0.454931
-0.42794
-0.501572
-0.465849
-0.489211
-0.455193
-0.500478
-0.399562
-0.390447
-0.366495
-0.431884
-0.487944
-0.538397
-0.522879
-0.575249
-0.56387
-0.577492
-0.00714559
-0.00789358
-0.0286621
-0.932339
-0.899442
-0.868602
-0.866302
-0.83299
-0.788108
-0.800002
-0.717465
-0.63933
-1.17644
-1.17527
-1.16798
-0.717587
-0.679704
-0.639448
-0.598703
-0.598756
-1.00015
-0.790272
-0.871434
-0.800101
-0.860608
-0.836184
-0.800969
-0.766002
-0.801687
-0.719593
-0.640002
-1.14354
-0.656134
-1.04478
-1.04802
-1.00851
-0.972167
-0.733202
-0.717423
-0.713724
-0.640649
-0.59761
-0.595373
-1.19545
-1.18158
-1.19117
-1.15842
-1.17059
-1.13694
-0.641584
-0.615496
-0.601064
-0.603812
-0.821246
-1.01371
-0.788193
-0.754488
-0.943471
-0.960125
-0.882405
-0.639691
-0.594669
-0.59744
-0.766348
-0.825948
-0.765247
-0.824181
-0.799386
-0.867886
-1.18438
-1.1727
-1.18311
-1.1506
-0.598524
-1.15675
-0.612235
-0.681938
-0.82063
-0.962612
-0.690142
-0.611874
-0.676851
-0.730779
-0.764146
-0.638603
-0.652758
-0.715238
-0.961434
-0.611046
-0.536291
-0.729582
-0.762718
-0.653439
-0.529084
-0.730046
-0.77856
-0.638321
-0.925775
-0.963572
-1.05354
-1.18831
-0.831829
-0.906984
-0.767051
-0.653558
-0.710886
-0.99362
-1.1204
-0.986633
-1.08702
-0.963652
-1.05212
-1.1997
-0.883336
-1.01762
-1.20151
-0.984187
-1.17649
-0.652946
-0.725876
-0.850208
-0.999622
-0.712874
-0.970697
-1.019
-1.088
-0.611947
-0.707963
-1.02436
-1.08901
-0.639635
-0.762484
-0.692889
-0.750668
-0.878321
-1.03279
-0.52178
-0.896899
-0.958919
-0.896133
-0.830219
-0.900829
-0.830844
-0.93683
-0.861673
-0.727045
-0.592517
-0.65154
-0.733585
-0.778255
-0.692305
-0.609841
-0.693947
-0.740391
-1.06211
-0.964946
-0.885337
-0.611146
-0.892314
-0.64028
-0.978383
-1.16271
-0.699117
-1.1475
-0.722556
-1.15343
-0.595369
-0.879804
-0.864176
-0.916167
-0.931663
-0.853995
-0.800016
-0.679479
-0.608777
-0.760955
-1.01844
-0.865375
-0.920622
-0.886814
-0.832306
-0.701774
-0.751823
-0.820416
-0.941046
-1.10931
-0.99572
-0.940426
-1.07281
-0.957234
-0.900631
-0.769697
-0.736473
-1.0646
-0.696977
-0.516699
-0.692294
-0.742254
-1.1043
-0.838995
-0.767573
-0.930851
-0.859358
-1.00608
-0.951685
-0.853849
-1.16278
-0.902286
-0.684482
-1.15732
-1.10438
-1.03303
-1.17447
-1.18876
-1.02801
-0.887752
-1.07761
-1.16633
-1.11597
-1.05458
-0.986251
-1.14239
-0.734654
-0.953676
-0.896767
-1.09888
-0.985529
-1.1461
-1.13693
-1.10212
-0.855876
-0.800118
-1.06336
-0.925229
-1.03502
-1.17695
-0.97858
-0.935555
-1.11773
-0.922274
-0.863492
-0.923765
-0.788932
-1.17905
-1.17769
-0.727036
-1.11664
-0.982352
-0.907251
-0.714938
-1.14732
-0.998993
-0.852042
-0.789504
-0.742458
-1.15533
-1.18658
-0.640579
-0.902227
-0.956618
-0.887389
-1.09386
-1.05031
-0.972065
-0.866047
-0.799305
-0.764735
-0.874686
-0.953139
-1.1932
-0.721786
-0.789942
-0.866833
-1.18658
-1.08847
-1.02526
-0.789284
-1.0322
-0.877949
-0.90179
-0.966543
-0.820299
-1.09021
-1.15235
-1.10279
-0.76859
-0.822167
-0.755983
-0.696269
-1.06103
-1.12042
-0.850171
-1.00017
-0.654192
-0.729633
-1.13157
-1.10766
-1.15301
-1.08272
-1.13168
-1.11903
-1.16401
-1.15291
-0.754687
-1.16296
-1.17356
-1.12675
-1.18814
-1.12509
-0.717511
-0.748065
-0.914306
-0.916193
-1.06437
-0.737207
-0.789783
-0.564303
-0.968485
-1.09828
-0.768373
-0.825997
-0.982424
-1.08709
-0.682301
-1.09827
-0.998149
-1.06007
-1.12012
-0.723799
-0.934599
-1.02048
-0.883501
-1.03068
-1.10639
-1.15226
-0.705528
-0.756063
-0.770194
-0.823439
-1.1002
-0.834445
-0.800246
-0.858042
-0.943525
-0.973612
-1.05445
-0.852111
-0.961494
-0.733871
-0.795727
-0.968124
-1.00878
-1.08741
-0.689906
-0.753586
-1.15464
-0.753412
-0.765208
-0.741659
-0.788659
-1.12123
-1.06224
-0.899802
-1.06517
-0.556659
-0.732467
-0.787569
-0.940257
-1.02171
-0.906264
-0.990057
-0.989055
-0.820921
-0.943803
-1.16324
-0.947955
-0.981843
-1.05513
-0.970584
-1.09882
-0.770282
-0.824887
-1.01781
-1.0874
-0.65299
-0.613083
-0.639307
-0.651434
-0.758627
-0.756742
-0.789776
-0.656505
-0.723735
-0.688123
-0.655652
-0.711064
-0.721891
-0.864235
-0.91759
-0.821383
-0.889302
-0.831622
-0.794655
-0.720686
-0.753918
-0.839002
-0.907793
-0.787515
-0.878284
-0.948788
-0.654234
-0.719383
-0.609378
-0.681416
-0.68711
-0.830573
-0.892243
-0.860203
-0.925497
-1.09923
-1.13097
-0.917044
-0.987073
-0.836753
-0.911137
-0.98803
-0.952981
-1.02253
-0.883101
-1.13099
-1.12827
-1.08432
-1.1639
-1.1225
-1.15801
-1.12048
-0.758202
-0.724164
-0.783128
-0.756962
-0.82245
-0.760265
-0.821468
-0.836508
-1.13967
-1.15233
-1.09943
-1.06585
-1.09863
-0.677817
-0.61091
-0.67626
-0.53198
-0.610061
-0.689027
-0.925349
-1.03347
-0.946555
-1.02185
-0.988201
-1.05623
-0.933238
-0.975133
-1.06679
-0.799655
-0.86337
-0.83789
-0.74428
-0.699157
-1.12146
-1.0737
-1.12378
-1.0178
-1.13344
-0.594356
-0.735455
-0.747408
-0.713443
-0.737354
-0.71283
-0.547075
-0.800837
-0.766931
