# vtk DataFile Version 2.0
Unstructured Grid by M++
ASCII
DATASET UNSTRUCTURED_GRID
POINTS 15808 float
  0.773438   0.992188 0
  0.546875   0.914062 0
  0.875000   0.867188 0
  0.546875   0.890625 0
  0.679688   0.921875 0
  0.671875   0.929688 0
  0.890625   1.000000 0
  0.656250   0.992188 0
  0.593750   0.929688 0
  0.851562   0.937500 0
  0.898438   0.929688 0
  0.867188   0.921875 0
  0.593750   0.960938 0
  0.992188   0.671875 0
  0.742188   0.679688 0
  0.929688   0.929688 0
  0.601562   0.968750 0
  0.929688   0.921875 0
  0.921875   0.929688 0
  0.648438   0.992188 0
  0.929688   0.960938 0
  0.609375   1.000000 0
  0.929688   0.953125 0
  0.609375   0.953125 0
  0.742188   0.960938 0
  0.937500   0.945312 0
  0.523438   1.000000 0
  0.710938   1.000000 0
  0.710938   0.992188 0
  0.523438   0.734375 0
  0.523438   0.742188 0
  0.515625   0.742188 0
  0.507812   0.750000 0
  0.914062   0.968750 0
  0.585938   0.820312 0
  0.578125   0.820312 0
  0.546875   0.882812 0
  0.570312   0.835938 0
  0.710938   0.960938 0
  0.523438   0.703125 0
  0.914062   0.937500 0
  0.734375   0.960938 0
  0.726562   0.945312 0
  0.718750   0.945312 0
  0.710938   0.953125 0
  0.695312   0.953125 0
  0.695312   0.945312 0
  0.507812   0.687500 0
  0.601562   0.937500 0
  0.914062   0.906250 0
  0.609375   0.945312 0
  0.601562   0.945312 0
  0.898438   0.921875 0
  0.609375   0.976562 0
  0.734375   0.671875 0
  0.742188   0.984375 0
  0.546875   0.726562 0
  0.726562   0.984375 0
  0.726562   0.976562 0
  0.539062   0.718750 0
  0.539062   0.726562 0
  0.718750   1.000000 0
  0.734375   0.992188 0
  0.515625   0.625000 0
  0.570312   0.750000 0
  0.507812   0.804688 0
  0.687500   0.851562 0
  0.820312   0.796875 0
  0.593750   0.906250 0
  0.882812   0.500000 0
  0.898438   0.500000 0
  0.687500   1.000000 0
  0.695312   1.000000 0
  0.882812   0.562500 0
  0.703125   1.000000 0
  0.703125   0.992188 0
  0.695312   0.984375 0
  0.695312   0.976562 0
  0.507812   0.718750 0
  0.882812   0.492188 0
  0.882812   0.484375 0
  0.718750   0.710938 0
  0.781250   0.859375 0
  0.585938   0.601562 0
  0.570312   0.609375 0
  0.570312   0.617188 0
  0.515625   0.851562 0
  0.578125   0.843750 0
  0.578125   0.859375 0
  0.578125   0.890625 0
  0.585938   0.593750 0
  0.601562   0.914062 0
  0.945312   0.625000 0
  0.710938   0.734375 0
  0.882812   0.875000 0
  1.000000   0.820312 0
  0.703125   0.867188 0
  0.507812   0.812500 0
  0.796875   0.992188 0
  0.796875   1.000000 0
  0.804688   1.000000 0
  0.640625   0.835938 0
  0.804688   0.984375 0
  0.726562   0.718750 0
  0.976562   0.796875 0
  0.734375   0.984375 0
  0.578125   0.828125 0
  0.742188   0.976562 0
  0.570312   0.828125 0
  0.734375   0.976562 0
  0.742188   0.968750 0
  0.570312   0.820312 0
  0.734375   0.968750 0
  0.554688   0.710938 0
  0.796875   0.960938 0
  0.843750   0.843750 0
  0.921875   0.742188 0
  0.906250   0.929688 0
  0.625000   0.929688 0
  0.921875   0.914062 0
  0.921875   0.921875 0
  0.617188   0.921875 0
  0.867188   1.000000 0
  0.679688   0.984375 0
  0.687500   0.976562 0
  0.976562   0.742188 0
  0.664062   1.000000 0
  0.671875   0.984375 0
  0.914062   0.992188 0
  0.906250   0.992188 0
  0.906250   0.984375 0
  0.601562   0.992188 0
  0.929688   0.976562 0
  0.921875   0.976562 0
  0.921875   0.968750 0
  0.601562   1.000000 0
  0.617188   0.953125 0
  0.617188   0.968750 0
  0.617188   0.960938 0
  0.625000   0.960938 0
  0.507812   0.617188 0
  0.593750   0.757812 0
  0.851562   0.984375 0
  0.640625   0.968750 0
  0.632812   0.968750 0
  0.625000   0.968750 0
  0.937500   0.960938 0
  0.757812   0.695312 0
  0.945312   0.953125 0
  0.945312   0.945312 0
  0.937500   0.953125 0
  0.648438   0.953125 0
  0.953125   0.945312 0
  0.562500   0.750000 0
  0.562500   0.742188 0
  0.734375   1.000000 0
  0.742188   1.000000 0
  0.742188   0.992188 0
  0.554688   0.742188 0
  0.562500   0.718750 0
  0.554688   0.734375 0
  0.546875   0.734375 0
  0.742188   0.765625 0
  0.531250   0.750000 0
  0.507812   0.984375 0
  0.945312   0.679688 0
  0.632812   0.937500 0
  0.609375   0.960938 0
  0.882812   0.929688 0
  0.875000   0.929688 0
  0.585938   0.921875 0
  0.804688   0.937500 0
  0.593750   0.921875 0
  0.890625   0.921875 0
  0.867188   0.953125 0
  0.875000   0.921875 0
  0.585938   0.992188 0
  0.851562   0.843750 0
  0.609375   0.804688 0
  0.757812   0.953125 0
  0.773438   0.937500 0
  0.750000   0.953125 0
  0.765625   0.937500 0
  0.750000   0.945312 0
  0.515625   0.703125 0
  0.515625   0.695312 0
  0.507812   0.695312 0
  0.609375   0.632812 0
  0.539062   0.882812 0
  0.601562   0.632812 0
  0.632812   0.882812 0
  0.695312   0.921875 0
  0.625000   0.937500 0
  0.945312   0.968750 0
  0.937500   0.968750 0
  0.648438   0.898438 0
  0.640625   0.953125 0
  0.546875   0.742188 0
  0.867188   0.914062 0
  0.640625   0.945312 0
  0.656250   0.906250 0
  0.593750   1.000000 0
  0.640625   0.804688 0
  0.945312   0.710938 0
  0.632812   0.945312 0
  0.539062   0.734375 0
  0.695312   0.804688 0
  0.515625   0.757812 0
  0.703125   0.921875 0
  0.718750   0.882812 0
  0.664062   0.968750 0
  0.664062   0.960938 0
  0.671875   0.960938 0
  0.679688   0.968750 0
  0.687500   0.968750 0
  0.679688   0.960938 0
  0.992188   0.960938 0
  1.000000   0.960938 0
  0.515625   0.804688 0
  0.562500   0.523438 0
  0.906250   0.921875 0
  0.742188   0.773438 0
  0.914062   0.921875 0
  0.750000   0.773438 0
  0.562500   0.515625 0
  0.554688   0.515625 0
  0.585938   0.976562 0
  0.554688   0.523438 0
  0.539062   0.875000 0
  0.867188   0.945312 0
  0.859375   0.945312 0
  0.859375   0.937500 0
  0.578125   0.976562 0
  0.546875   0.523438 0
  0.539062   0.531250 0
  0.976562   0.828125 0
  0.562500   0.875000 0
  0.929688   0.945312 0
  0.929688   0.937500 0
  0.679688   0.703125 0
  0.554688   0.921875 0
  0.562500   0.898438 0
  0.632812   1.000000 0
  0.960938   0.953125 0
  0.960938   0.945312 0
  0.953125   0.953125 0
  0.851562   0.960938 0
  0.523438   0.890625 0
  0.617188   0.875000 0
  0.960938   0.585938 0
  0.570312   0.882812 0
  0.554688   0.890625 0
  0.664062   0.953125 0
  0.664062   0.945312 0
  0.968750   0.945312 0
  0.539062   0.523438 0
  0.515625   0.789062 0
  0.726562   0.804688 0
  0.664062   0.937500 0
  0.570312   0.968750 0
  0.539062   0.515625 0
  0.562500   0.906250 0
  0.570312   0.906250 0
  0.710938   0.820312 0
  0.656250   0.953125 0
  0.835938   0.515625 0
  0.531250   0.773438 0
  0.531250   0.765625 0
  0.515625   0.781250 0
  0.531250   0.523438 0
  0.523438   0.585938 0
  0.867188   0.773438 0
  0.710938   0.773438 0
  0.531250   0.515625 0
  0.523438   0.515625 0
  0.625000   0.875000 0
  0.851562   0.796875 0
  0.507812   0.546875 0
  0.554688   0.984375 0
  0.523438   0.531250 0
  0.960938   0.812500 0
  0.890625   0.492188 0
  0.546875   0.781250 0
  0.890625   0.500000 0
  0.546875   0.789062 0
  0.507812   0.820312 0
  0.671875   0.968750 0
  0.851562   0.531250 0
  0.695312   0.632812 0
  0.851562   0.789062 0
  0.539062   0.546875 0
  0.617188   0.882812 0
  0.640625   0.609375 0
  0.507812   0.906250 0
  0.531250   0.859375 0
  0.523438   0.859375 0
  0.523438   0.867188 0
  0.968750   0.992188 0
  0.968750   0.734375 0
  0.859375   1.000000 0
  0.859375   0.992188 0
  0.867188   0.984375 0
  0.523438   0.945312 0
  0.539062   0.960938 0
  0.578125   0.648438 0
  0.601562   0.921875 0
  0.515625   0.679688 0
  0.554688   0.945312 0
  0.585938   0.687500 0
  0.554688   0.882812 0
  0.593750   0.875000 0
  0.546875   0.945312 0
  0.890625   0.656250 0
  0.984375   0.976562 0
  0.828125   0.820312 0
  0.992188   0.968750 0
  0.531250   0.929688 0
  0.515625   0.585938 0
  0.585938   0.765625 0
  0.523438   0.820312 0
  0.515625   0.820312 0
  0.726562   0.835938 0
  0.523438   0.828125 0
  0.984375   0.945312 0
  0.812500   0.804688 0
  0.976562   0.953125 0
  0.976562   0.945312 0
  0.648438   0.921875 0
  0.382812   0.546875 0
  0.500000   0.695312 0
  0.492188   0.687500 0
  0.148438   0.976562 0
  0.281250   0.671875 0
  0.148438   0.968750 0
  0.460938   0.312500 0
  0.882812   0.593750 0
  0.484375   0.679688 0
  0.140625   0.968750 0
  0.273438   0.664062 0
  0.843750   0.468750 0
  0.234375   0.539062 0
  0.226562   0.531250 0
  0.671875   0.695312 0
  0.617188   0.640625 0
  0.250000   0.554688 0
  0.851562   0.476562 0
  0.242188   0.546875 0
  0.460938   0.531250 0
  0.281250   0.984375 0
  0.460938   0.546875 0
  0.460938   0.554688 0
  0.445312   0.156250 0
  0.257812   0.507812 0
  0.421875   0.554688 0
  0.281250   0.921875 0
  0.273438   0.914062 0
  0.273438   0.921875 0
  0.734375   0.687500 0
  0.109375   0.773438 0
  0.710938   0.703125 0
  0.406250   0.570312 0
  0.265625   0.968750 0
  0.445312   0.531250 0
  0.273438   0.976562 0
  0.453125   0.539062 0
  0.445312   0.539062 0
  0.453125   0.546875 0
  0.070312   0.773438 0
  0.640625   0.437500 0
  0.476562   0.812500 0
  0.851562   0.562500 0
  0.429688   0.281250 0
  0.023438   0.632812 0
  0.625000   0.562500 0
  0.023438   0.640625 0
  0.015625   0.632812 0
  0.617188   0.562500 0
  0.367188   0.304688 0
  0.789062   0.585938 0
  0.671875   0.867188 0
  0.046875   0.953125 0
  0.359375   0.296875 0
  0.804688   0.562500 0
  0.179688   0.648438 0
  0.781250   0.578125 0
  0.351562   0.289062 0
  0.773438   0.570312 0
  0.171875   0.648438 0
  0.414062   0.570312 0
  0.726562   0.625000 0
  0.101562   0.710938 0
  0.703125   0.640625 0
  0.718750   0.617188 0
  0.093750   0.703125 0
  0.492188   0.531250 0
  0.484375   0.531250 0
  0.500000   0.515625 0
  0.398438   0.656250 0
  0.046875   0.601562 0
  0.039062   0.593750 0
  0.500000   0.875000 0
  0.007812   0.625000 0
  0.609375   0.554688 0
  0.601562   0.546875 0
  0.421875   0.875000 0
  0.414062   0.867188 0
  0.476562   0.617188 0
  0.000000   0.648438 0
  0.601562   0.578125 0
  0.476562   0.789062 0
  0.937500   0.445312 0
  0.429688   0.562500 0
[...]
CELL_DATA 30592
SCALARS scalar_value float 1
LOOKUP_TABLE default
-0.322252
-0.316047
-0.313408
-0.305919
-0.303348
-0.307172
-0.301905
-0.29514
-0.290704
-0.292669
-0.298419
-0.294446
-0.29605
-0.452526
-0.452981
-0.461842
-0.446527
-0.443784
-0.446985
-0.57495
-0.56865
-0.565675
-0.565273
-0.559177
-0.555743
-0.54913
-0.558863
-0.254548
-0.259412
-0.266108
-0.262324
-0.268804
-0.273224
-0.270722
-0.260556
-0.265196
-0.263556
-0.271378
-0.277172
-0.281427
-0.279393
-0.28762
-0.535358
-0.528205
-0.53895
-0.52487
-0.525373
-0.535571
-0.517678
-0.507341
-0.51842
-0.232522
-0.227199
-0.224
-0.539051
-0.528992
-0.539132
-0.247777
-0.242336
-0.239162
-0.23883
-0.24578
-0.250765
-0.512272
-0.504297
-0.516746
-0.513514
-0.501296
-0.503036
-0.515886
-0.509145
-0.519467
-0.516364
-0.506129
-0.506741
-0.0353842
-0.0338351
-0.0324113
-0.334538
-0.329141
-0.241972
-0.23631
-0.231625
-0.513098
-0.134799
-0.171023
-0.557435
-0.217549
-0.554021
-0.55482
-0.266621
-0.258723
-0.216849
-0.149338
-0.456441
-0.198243
-0.515339
-0.282164
-0.287963
-0.285715
-0.279252
-0.396068
-0.00268374
-0.0361166
-0.393226
-0.396103
-0.00266158
-0.0868602
-0.48273
-0.0953961
-0.491926
-0.449725
-0.383861
-0.386609
-0.16729
-0.529661
-0.0939736
-0.161898
-0.0959083
-0.0985127
-0.428562
-0.0282393
-0.0751319
-0.326772
-0.318402
-0.0189696
-0.416578
-0.376285
-0.321823
-0.0154444
-0.370454
-0.318413
-0.310854
-0.32237
-0.25156
-0.0212182
-0.0264601
-0.384072
-0.018426
-0.417588
-0.375049
-0.0039462
-0.315069
-0.309288
-0.306616
-0.436214
-0.0809133
-0.433007
-0.433619
-0.128597
-0.487906
-0.529976
-0.424862
-0.0377263
-0.0744059
-0.42231
-0.354028
-0.370102
-0.0134786
-0.367334
-0.0583207
-0.346105
-0.313058
-0.360557
-0.0448299
-0.405702
-0.0479752
-0.445541
-0.0570671
-0.453431
-0.225008
-0.2201
-0.217461
-0.547096
-0.217771
-0.248587
-0.455663
-0.456417
-0.455513
-0.235172
-0.122368
-0.519006
-0.470262
-0.130565
-0.52927
-0.417472
-0.387686
-0.418286
-0.378863
-0.0210307
-0.376055
-0.0705539
-0.463496
-0.0790851
-0.431681
-0.472435
-0.228114
-0.224751
-0.46606
-0.221958
-0.461166
-0.4802
-0.0334778
-0.409813
-0.472846
-0.364383
-0.467607
-0.362893
-0.470988
-0.212528
-0.540195
-0.210494
-0.205796
-0.213096
-0.0325303
-0.440803
-0.391657
-0.386395
-0.394114
-0.0399926
-0.385472
-0.273649
-0.283808
-0.28319
-0.29171
-0.572013
-0.189385
-0.570197
-0.223131
-0.576221
-0.270092
-0.565673
-0.565731
-0.177825
-0.56099
-0.209225
-0.562624
-0.208299
-0.438422
-0.18134
-0.490639
-0.174671
-0.482437
-0.0957012
-0.0926271
-0.125151
-0.49317
-0.333635
-0.0269067
-0.384211
-0.325638
-0.322953
-0.316926
-0.269399
-0.207384
-0.0264499
-0.198601
-0.552322
-0.199003
-0.486273
-0.14777
-0.324146
-0.483489
-0.549411
-0.542433
-0.162018
-0.539299
-0.192532
-0.553623
-0.543433
-0.554208
-0.0961271
-0.07579
-0.253567
-0.248106
-0.246089
-0.244659
-0.227484
-0.224823
-0.257443
-0.227238
-0.219706
-0.309181
-0.303853
-0.29271
-0.258838
-0.290199
-0.289619
-0.448289
-0.0811129
-0.42033
-0.0632344
-0.417626
-0.473643
-0.112965
-0.0783548
-0.109807
-0.470793
-0.511543
-0.104274
-0.464662
-0.29633
-0.290481
-0.287877
-0.287269
-0.0110537
-0.370744
-0.00271263
-0.406664
-0.00277153
-0.407609
-0.359438
-0.409826
-0.377631
-0.02024
-0.407238
-0.40195
-0.0115624
-0.409964
-0.0567128
-0.0201764
-0.384312
-0.332531
-0.332905
-0.456835
-0.160693
-0.453604
-0.456585
-0.270487
-0.463377
-0.4589
-0.490499
-0.142524
-0.484139
-0.485451
-0.107485
-0.476547
-0.0987307
-0.462671
-0.204662
-0.0331352
-0.39325
-0.335646
-0.332624
-0.326531
-0.0457603
-0.438001
-0.256795
-0.251068
-0.51057
-0.532461
-0.152461
-0.186936
-0.528983
-0.532095
-0.187939
-0.239299
-0.237275
-0.0356407
-0.431563
-0.0363836
-0.431557
-0.396727
-0.332606
-0.374574
-0.326619
-0.323723
-0.323567
-0.53317
-0.523479
-0.233009
-0.522359
-0.145382
-0.121501
-0.466887
-0.461527
-0.115212
-0.069598
-0.408849
-0.0523825
-0.41187
-0.374698
-0.019689
-0.0896696
-0.0942157
-0.415521
-0.0983121
-0.0950051
-0.403831
-0.375763
-0.413281
-0.0188259
-0.410422
-0.404657
-0.0107525
-0.413327
-0.0509837
-0.202732
-0.52574
-0.305504
-0.309918
-0.306385
-0.31779
-0.442263
-0.444488
-0.0643271
-0.442583
-0.0980188
-0.448696
-0.442348
-0.416383
-0.440479
-0.436426
-0.442741
-0.158263
-0.155465
-0.515277
-0.0102989
-0.367639
-0.00259283
-0.0349656
-0.299983
-0.11218
-0.29105
-0.299514
-0.312916
-0.467094
-0.306155
-0.303133
-0.302515
-0.0108084
-0.412258
-0.367676
-0.0137273
-0.42673
-0.0731735
-0.0372275
-0.0816938
-0.382822
-0.02322
-0.379313
-0.374056
-0.141764
-0.464527
-0.459318
-0.0815051
-0.506025
-0.455892
-0.114972
-0.457914
-0.114566
-0.454881
-0.429105
-0.449633
-0.457895
-0.225636
-0.226477
-0.0253127
-0.0203151
-0.0177362
-0.317376
-0.314232
-0.31717
-0.334795
-0.323428
-0.323543
-0.028272
-0.424821
-0.392003
-0.501589
-0.103516
-0.0296819
-0.203671
-0.553555
-0.498598
-0.539371
-0.136012
-0.492329
-0.130096
-0.0949528
-0.501868
-0.103029
-0.222358
-0.217936
-0.220702
-0.0539348
-0.0541149
-0.445513
-0.0633467
-0.452848
-0.419509
-0.0569023
-0.414018
-0.00277861
-0.358231
-0.395445
-0.352588
-0.0557882
-0.439037
-0.0557228
-0.438428
-0.0646195
-0.421192
-0.344528
-0.350517
-0.579597
-0.185674
-0.219396
-0.184628
-0.583741
-0.482193
-0.0872587
-0.122386
-0.473102
-0.113623
-0.461716
-0.199837
-0.195431
-0.458488
-0.187003
-0.199334
-0.0396447
-0.071552
-0.0334437
-0.391095
-0.0370548
-0.53871
-0.0346733
-0.43131
-0.0431493
-0.438518
-0.428063
-0.0379597
-0.0761967
-0.0380237
-0.427083
-0.0468926
-0.433565
-0.411058
-0.324132
-0.326911
-0.0359076
-0.451532
-0.0337399
-0.0318244
-0.402237
-0.391197
-0.0367664
-0.0334965
-0.0948816
-0.443226
-0.20137
-0.235092
-0.0599137
-0.0570916
-0.0836455
-0.0520893
-0.200421
-0.0592298
-0.421946
-0.256354
-0.250734
-0.268208
-0.085849
-0.529932
-0.269046
-0.400771
-0.00788239
-0.41029
-0.0525922
-0.0139998
-0.0512402
-0.448224
-0.409695
-0.113908
-0.46043
-0.468287
-0.123191
-0.0825597
-0.150027
-0.308303
-0.299815
-0.00972471
-0.362637
-0.305829
-0.00479949
-0.355983
-0.00245036
-0.400736
-0.353074
-0.296808
-0.282385
-0.298033
-0.415105
-0.42434
-0.127352
-0.124623
-0.175164
-0.117113
-0.129463
-0.415104
-0.131832
-0.0051618
-0.36197
-0.137711
-0.314336
-0.315156
-0.0673328
-0.421572
-0.195394
-0.517674
-0.156588
-0.510776
-0.159162
-0.446889
-0.443993
-0.439984
-0.445007
-0.432047
-0.0820322
-0.431112
-0.432903
-0.431744
-0.318359
-0.139535
-0.287484
-0.493563
-0.142128
-0.106704
-0.139147
-0.147704
-0.25388
-0.251177
-0.531271
-0.157872
-0.522141
-0.181228
-0.147151
-0.241821
-0.234081
-0.0197184
-0.418684
-0.42369
-0.544365
-0.0287329
-0.41821
-0.384048
-0.0177798
-0.416545
-0.358565
-0.0208523
-0.522505
-0.14392
-0.36145
-0.00546784
-0.376111
-0.0181818
-0.370429
-0.0130251
-0.36757
-0.0558171
-0.41911
-0.235943
-0.230633
-0.367216
-0.529214
-0.522551
-0.178011
-0.519323
-0.519219
-0.130721
-0.306207
-0.127523
-0.53007
-0.410068
-0.408013
-0.436672
-0.510054
-0.0485503
-0.408018
-0.350056
-0.387133
-0.271291
-0.276335
-0.550343
-0.206666
-0.174843
-0.546703
-0.129169
-0.473376
-0.549459
-0.207759
-0.569477
-0.209699
-0.175669
-0.564284
-0.565458
-0.259774
-0.257491
-0.25184
-0.460208
-0.455478
-0.453028
-0.047222
-0.402868
-0.0443455
-0.438615
-0.03886
-0.0445533
-0.331
-0.363288
-0.330277
-0.342771
-0.332929
-0.00414086
-0.352965
-0.292816
-0.342702
-0.0296856
-0.394538
-0.00211458
-0.0262276
-0.388618
-0.339504
-0.0241184
-0.425844
-0.451018
-0.447798
-0.44896
-0.255062
-0.266865
-0.265796
-0.27457
-0.551328
-0.172951
-0.548441
-0.202355
-0.541724
-0.196811
-0.163589
-0.422474
-0.0290071
-0.41742
-0.387617
-0.414926
-0.0630785
-0.414923
-0.416788
-0.41402
-0.416376
-0.376428
-0.408936
-0.298334
-0.119822
-0.520637
-0.119259
-0.479341
-0.52073
-0.181695
-0.546236
-0.17633
-0.538382
-0.184169
-0.471341
-0.134819
-0.0990859
-0.471069
-0.461668
-0.459161
-0.46876
-0.19022
-0.407683
-0.400705
-0.0461656
-0.400041
-0.401273
-0.398779
-0.401362
-0.39372
-0.361558
-0.111644
-0.468922
-0.450752
-0.505772
-0.447608
-0.452834
-0.172709
-0.535743
-0.576872
-0.438621
-0.104078
-0.163603
-0.433464
-0.562295
-0.213418
-0.558109
-0.445837
-0.0532206
-0.0955528
-0.55948
-0.275006
-0.279337
-0.547545
-0.211417
-0.186898
-0.538575
-0.185626
-0.114691
-0.119283
-0.407059
-0.116599
-0.126552
-0.424994
-0.447912
-0.376458
-0.538432
-0.189728
-0.378717
-0.0230088
-0.36364
-0.0773939
-0.273395
-0.235782
-0.267547
-0.529791
-0.264954
-0.26434
-0.554752
-0.168731
-0.438413
-0.0451365
-0.0861185
-0.550424
-0.251806
-0.426761
-0.255424
-0.344922
-0.346043
-0.357145
-0.128027
-0.130668
-0.127486
-0.468288
-0.420638
-0.0653261
-0.0853393
-0.265035
-0.438532
-0.269628
-0.229724
-0.259727
-0.290721
-0.513873
-0.24906
-0.28487
-0.4375
-0.282012
-0.28189
-0.142951
-0.140394
-0.538826
-0.477799
-0.432609
-0.427935
-0.264689
-0.434221
-0.405328
-0.122942
-0.403558
-0.386225
-0.119479
-0.436444
-0.164232
-0.260857
-0.431431
-0.302871
-0.300526
-0.012844
-0.0141494
-0.0469376
-0.011301
-0.403155
-0.00565696
-0.0140832
-0.369085
-0.576633
-0.451171
-0.0643432
-0.10395
-0.519293
-0.56769
-0.176701
-0.0581073
-0.0547548
-0.444954
-0.413351
-0.285165
-0.284486
-0.567195
-0.194379
-0.55841
-0.216455
-0.185894
-0.279221
-0.327201
-0.452868
-0.47254
-0.447767
-0.44582
-0.175025
-0.275825
-0.44459
-0.175113
-0.28078
-0.288456
-0.293461
-0.566002
-0.226139
-0.19638
-0.56254
-0.166962
-0.46123
-0.443229
-0.277234
-0.444902
-0.441752
-0.449654
-0.470623
-0.115142
-0.0797427
-0.468008
-0.12197
-0.15818
-0.164073
-0.526088
-0.567394
-0.449751
-0.445155
-0.417923
-0.0641496
-0.452858
-0.108943
-0.0727257
-0.0502941
-0.445826
-0.0519869
-0.409183
-0.56764
-0.453558
-0.061282
-0.105227
-0.385718
-0.547201
-0.507657
-0.190402
-0.0305155
-0.383004
-0.028461
-0.393827
-0.434143
-0.344383
-0.164266
-0.567227
-0.341481
-0.350187
-0.390181
-0.00198169
-0.44353
-0.437391
-0.442615
-0.302843
-0.158586
-0.12319
-0.164199
-0.11902
-0.0799188
-0.117647
-0.109763
-0.124241
-0.422461
-0.290816
-0.293655
-0.56244
-0.451137
-0.0987975
-0.447674
-0.448751
-0.146799
-0.548783
-0.505348
-0.508355
-0.14977
-0.114166
-0.438146
-0.0926741
-0.435996
-0.438206
-0.0923407
-0.0555021
-0.0301568
-0.429413
-0.540395
-0.167843
-0.0338476
-0.0319301
-0.430186
-0.389743
-0.0397142
-0.398327
-0.360809
-0.0157918
-0.324679
-0.327353
-0.146308
-0.548704
-0.324388
-0.280901
-0.275317
-0.272888
-0.385729
-0.377759
-0.344185
-0.38578
-0.085443
-0.48375
-0.0848619
-0.483937
-0.093322
-0.0315111
-0.441657
-0.40153
-0.39135
-0.383502
-0.0286274
-0.383169
-0.443735
-0.442058
-0.487562
-0.445199
-0.333014
-0.155198
-0.558061
-0.155098
-0.516739
-0.557998
-0.148082
-0.150669
-0.446156
-0.100304
-0.443264
-0.444221
-0.417359
-0.383509
-0.409666
-0.418048
-0.118595
-0.479844
-0.121052
-0.126809
-0.53009
-0.415069
-0.417847
-0.0288318
-0.423205
-0.545963
-0.539811
-0.170912
-0.537
-0.196876
-0.249237
-0.246913
-0.250081
-0.529355
-0.18964
-0.526286
-0.203547
-0.187897
-0.196715
-0.0603209
-0.456775
-0.237346
-0.358546
-0.352451
-0.361215
-0.247546
-0.245196
-0.2601
-0.261981
-0.266641
-0.529613
-0.197782
-0.360596
-0.00570557
-0.520557
-0.0531567
-0.194565
-0.189011
-0.352188
-0.472408
-0.466358
-0.504024
-0.125567
-0.16422
-0.0390415
-0.543144
-0.501096
-0.160678
-0.214395
-0.492833
-0.179129
-0.493401
-0.205625
-0.205983
-0.484546
-0.157945
-0.212467
-0.210172
-0.20463
-0.485104
-0.494305
-0.162171
-0.138379
-0.132454
-0.0945005
-0.0956179
-0.423393
-0.0674207
-0.41754
-0.0593358
-0.0191001
-0.114773
-0.0888879
-0.0870833
-0.0924249
-0.407238
-0.0137446
-0.437796
-0.0860313
-0.100677
-0.429439
-0.100481
-0.153056
-0.0994815
-0.100063
-0.415655
-0.0192974
-0.424936
-0.0239346
-0.0677489
-0.190683
-0.185082
-0.317716
-0.477369
-0.352948
-0.474654
-0.468866
-0.0552018
-0.414655
-0.47771
-0.137519
-0.494656
-0.159678
-0.491855
-0.494935
-0.501227
-0.158333
-0.49878
-0.342198
-0.379001
-0.0409602
-0.407798
-0.497271
-0.206474
-0.0289217
-0.200932
-0.335577
-0.114108
-0.495133
-0.455974
-0.492278
-0.327233
-0.486476
-0.102203
-0.495228
-0.1548
-0.54371
-0.113769
-0.108166
-0.116371
-0.406204
-0.120828
-0.401146
-0.258543
-0.399041
-0.109725
-0.257115
-0.224006
-0.398191
-0.111194
-0.413831
-0.0583411
-0.412473
-0.415088
-0.399044
-0.020365
-0.408622
-0.0116264
-0.409195
-0.368112
-0.013632
-0.539723
-0.277693
-0.295774
-0.543169
-0.293423
-0.406764
-0.288378
-0.248184
-0.416156
-0.0595623
-0.296143
-0.279821
-0.312976
-0.133956
-0.0472777
-0.310003
-0.166934
-0.13096
-0.125368
-0.279184
-0.294508
-0.0339301
-0.133557
-0.483734
-0.422304
-0.141498
-0.417216
-0.275963
-0.443284
-0.414236
-0.0731712
-0.425556
-0.45035
-0.197796
-0.0548102
-0.286171
-0.319877
-0.311415
-0.378227
-0.230877
-0.320802
-0.31191
-0.563519
-0.017942
-0.0532778
-0.453124
-0.0507968
-0.409915
-0.175522
-0.344608
-0.175726
-0.171567
-0.452451
-0.164369
-0.435219
-0.45
-0.0645979
-0.455304
-0.112203
-0.0144246
-0.51561
-0.459292
-0.124059
-0.455645
-0.118421
-0.00578525
-0.453429
-0.454328
-0.160494
-0.337441
-0.304107
-0.0535759
-0.199643
-0.0967395
-0.100678
-0.0616436
-0.0982096
-0.107183
-0.445308
-0.11068
-0.477104
-0.541038
-0.197872
-0.11944
-0.464258
-0.459551
-0.113479
-0.0733218
-0.538117
-0.0192444
-0.412904
-0.375303
-0.537541
-0.4127
-0.019367
-0.228003
-0.0989862
-0.105462
-0.107745
-0.0680209
-0.0928118
-0.0969017
-0.42038
-0.0949255
-0.142896
-0.103236
-0.393713
-0.393592
-0.102486
-0.460768
-0.104953
-0.393592
-0.401534
-0.368006
-0.409231
-0.406799
-0.435446
-0.142348
-0.421364
-0.287407
-0.442389
-0.44417
-0.0948585
-0.448093
-0.444442
-0.101772
-0.442844
-0.442351
-0.153035
-0.117566
-0.149981
-0.549961
-0.153669
-0.491909
-0.292636
-0.449438
-0.448468
-0.463767
-0.10081
-0.454642
-0.446405
-0.158572
-0.5614
-0.160026
-0.163979
-0.437581
-0.452131
-0.104293
-0.458385
-0.0736311
-0.348266
-0.315924
-0.170187
-0.497611
-0.189977
-0.161628
-0.111843
-0.491291
-0.444831
-0.0440701
-0.438901
-0.400453
-0.483829
-0.140972
-0.102369
-0.435811
-0.0751978
-0.43607
-0.129311
-0.12591
-0.489674
-0.26423
-0.483494
-0.12015
-0.085962
-0.308203
-0.272184
-0.1283
-0.444203
-0.0842057
-0.438266
-0.0446013
-0.078856
-0.435118
-0.435495
-0.424412
-0.115657
-0.461474
-0.0527058
-0.447366
-0.408525
-0.112219
-0.492858
-0.44455
-0.564703
-0.221885
-0.447676
-0.0856641
-0.101869
-0.136872
-0.502231
-0.143353
-0.508412
-0.124925
-0.456518
-0.060722
-0.0940184
-0.122076
-0.502399
-0.453356
-0.453655
-0.0908957
-0.110283
-0.456715
-0.469703
-0.445354
-0.573789
-0.0427402
-0.439474
-0.401364
-0.436513
-0.0717461
-0.436556
-0.122554
-0.118087
-0.490199
-0.261138
-0.484127
-0.112911
-0.0834611
-0.569407
-0.218946
-0.439298
-0.0434523
-0.0756557
-0.436272
-0.436419
-0.0727093
-0.122664
-0.457161
-0.0588834
-0.119931
-0.465347
-0.454159
-0.281472
-0.278936
-0.316798
-0.28213
-0.273231
-0.564331
-0.200568
-0.561289
-0.22623
-0.563901
-0.202414
-0.555663
-0.221072
-0.196102
-0.266815
-0.3093
-0.26331
-0.256472
-0.272202
-0.276896
-0.274776
-0.28362
-0.51116
-0.148269
-0.507896
-0.188401
-0.463541
-0.109081
-0.46523
-0.450995
-0.108679
-0.207562
-0.21279
-0.341511
-0.164152
-0.210264
-0.567293
-0.454385
-0.437163
-0.456282
-0.455957
-0.458511
-0.498515
-0.141112
-0.030852
-0.494488
-0.45115
-0.497304
-0.105936
-0.487642
-0.0973043
-0.0735033
-0.426168
-0.222743
-0.216297
-0.544693
-0.203784
-0.341508
-0.382412
-0.215949
-0.470037
-0.463703
-0.459037
-0.211514
-0.208148
-0.537097
-0.210139
-0.310574
-0.0494674
-0.295151
-0.328704
-0.202633
-0.0649251
-0.49038
-0.190042
-0.489149
-0.529313
-0.0272357
-0.189641
-0.198596
-0.332719
-0.201766
-0.15499
-0.557956
-0.209994
-0.564126
-0.196935
-0.0306889
-0.386019
-0.495641
-0.488945
-0.445342
-0.0969433
-0.0224287
-0.484977
-0.129807
-0.186159
-0.545568
-0.323911
-0.190555
-0.189368
-0.479655
-0.0883387
-0.475799
-0.478361
-0.124183
-0.0886762
-0.454321
-0.448342
-0.0379081
-0.444883
-0.326236
-0.44583
-0.351861
-0.00998209
-0.00793146
-0.358826
-0.328298
-0.359101
-0.00261568
-0.0587148
-0.0201519
-0.417416
-0.0202804
-0.416327
-0.367612
-0.0290288
-0.422638
-0.400909
-0.315727
-0.0162074
-0.370835
-0.361135
-0.0191612
-0.0244092
-0.4227
-0.43551
-0.42965
-0.426272
-0.427201
-0.467795
-0.499591
-0.120957
-0.157579
-0.453886
-0.0898177
-0.12374
-0.469002
-0.0598828
-0.456965
-0.417958
-0.462959
-0.426129
-0.465697
-0.0686469
-0.133821
-0.477728
-0.462787
-0.124315
-0.465891
-0.100008
-0.0646741
-0.418626
-0.0617452
-0.455282
-0.0561943
-0.419066
-0.0643545
-0.0285153
-0.0481803
-0.0396594
-0.402123
-0.047963
-0.0114869
-0.156858
-0.336507
-0.355773
-0.347652
-0.355215
-0.0535437
-0.407599
-0.374822
-0.0199551
-0.0207672
-0.529453
-0.487626
-0.189413
-0.369235
-0.0142701
-0.366551
-0.526545
-0.0545846
-0.366314
-0.402588
-0.0113997
-0.215154
-0.245091
-0.0649741
-0.0623187
-0.415329
-0.302401
-0.364129
-0.454032
-0.356337
-0.463396
-0.519126
-0.366576
-0.562674
-0.159792
-0.550402
-0.185121
-0.558447
-0.190397
-0.26424
-0.268394
-0.265663
-0.391003
-0.427712
-0.251312
-0.425338
-0.250112
-0.304551
-0.243696
-0.391137
-0.255431
-0.586485
-0.176338
-0.208575
-0.583906
-0.575555
-0.168439
-0.398811
-0.259182
-0.274177
-0.581613
-0.574259
-0.167768
-0.433445
-0.258234
-0.399026
-0.264249
-0.219868
-0.262616
-0.584005
-0.175647
-0.282092
-0.278034
-0.268217
-0.28107
-0.176821
-0.354714
-0.322019
-0.579789
-0.173865
-0.207641
-0.351849
-0.168441
-0.34657
-0.0559098
-0.410834
-0.0530051
-0.0614298
-0.455779
-0.416461
-0.386002
-0.350216
-0.462561
-0.353094
-0.029513
-0.396409
-0.349554
-0.359327
-0.337884
-0.0364109
-0.429246
-0.0362151
-0.391624
-0.429613
-0.466552
-0.0315327
-0.329127
-0.332741
-0.329393
-0.0255124
-0.387974
-0.339546
-0.377499
-0.349028
-0.349217
-0.0448395
-0.437853
-0.399676
-0.0477323
-0.332661
-0.160813
-0.339733
-0.454555
-0.500686
-0.343002
-0.3434
-0.161041
-0.339484
-0.306789
-0.560684
-0.15801
-0.191972
-0.336553
-0.451386
-0.109335
-0.0394782
-0.0450623
-0.437373
-0.149632
-0.328918
-0.44348
-0.332678
-0.0213161
-0.378566
-0.486434
-0.328969
-0.340039
-0.416376
-0.160434
-0.416824
-0.409492
-0.378945
-0.121575
-0.51983
-0.269523
-0.121174
-0.520115
-0.423037
-0.416932
-0.063957
-0.416114
-0.401995
-0.399318
-0.39436
-0.223673
-0.401604
-0.370241
-0.104381
-0.457081
-0.500772
-0.112557
-0.510631
-0.408982
-0.0550289
-0.149134
-0.112972
-0.510249
-0.261231
-0.115566
-0.46941
-0.261976
-0.295016
-0.115972
-0.262547
-0.404442
-0.122586
-0.399422
-0.397334
-0.112236
-0.425665
-0.396478
-0.253382
-0.0552006
-0.409971
-0.439242
-0.138265
-0.402524
-0.400389
-0.395463
-0.364421
-0.284835
-0.10517
-0.140806
-0.499455
-0.113373
-0.509763
-0.464001
-0.238621
-0.498424
-0.407068
-0.397502
-0.0116568
-0.51433
-0.124512
-0.50928
-0.206725
-0.0585397
-0.513343
-0.159994
-0.124978
-0.0787315
-0.432355
-0.499062
-0.151494
-0.204406
-0.222183
-0.217666
-0.534322
-0.213173
-0.526103
-0.133709
-0.54901
-0.184353
-0.54575
-0.545701
-0.256939
-0.067497
-0.251308
-0.234337
-0.238881
-0.210865
-0.239616
-0.522091
-0.165471
-0.522723
-0.529388
-0.238311
-0.496951
-0.525428
-0.529377
-0.454294
-0.51735
-0.228635
-0.218051
-0.53868
-0.140865
-0.219044
-0.538523
-0.141362
-0.527069
-0.167591
-0.0708626
-0.106061
-0.462727
-0.251278
-0.065258
-0.173054
-0.53481
-0.578333
-0.246009
-0.243851
-0.276688
-0.242918
-0.25655
-0.251173
-0.248535
-0.241788
-0.289828
-0.239886
-0.233194
-0.244719
-0.0456572
-0.399366
-0.435544
-0.349126
-0.352057
-0.00817107
-0.397896
-0.358673
-0.348901
-0.553112
-0.274821
-0.26896
-0.266596
-0.265502
-0.572791
-0.569038
-0.303071
-0.572014
-0.562368
-0.563003
-0.559318
-0.294665
-0.27224
-0.435607
-0.266387
-0.264239
-0.26274
-0.398756
-0.0355026
-0.574825
-0.570723
-0.57371
-0.563737
-0.415668
-0.416054
-0.0702273
-0.424206
-0.464136
-0.112119
-0.510929
-0.106531
-0.461807
-0.228575
-0.402692
-0.0811983
-0.395635
-0.113269
-0.41032
-0.0576077
-0.408219
-0.403495
-0.0116634
-0.416155
-0.384852
-0.413711
-0.416152
-0.408849
-0.120759
-0.476984
-0.30748
-0.12903
-0.529899
-0.2975
-0.117578
-0.263894
-0.11717
-0.422334
-0.0719789
-0.415504
-0.063312
-0.415112
-0.449943