# vtk DataFile Version 2.0
Unstructured Grid by M++
ASCII
DATASET UNSTRUCTURED_GRID
POINTS 4072 float
  0.562500   0.968750 0
  0.906250   0.500000 0
  0.750000   0.781250 0
  0.953125   0.531250 0
  0.984375   0.875000 0
  0.828125   0.828125 0
  0.828125   0.859375 0
  0.562500   0.765625 0
  0.937500   0.687500 0
  0.968750   0.578125 0
  0.968750   0.781250 0
  0.734375   0.843750 0
  0.968750   0.718750 0
  0.734375   0.796875 0
  0.984375   0.718750 0
  0.984375   0.703125 0
  1.000000   0.750000 0
  0.984375   0.734375 0
  1.000000   0.718750 0
  0.953125   0.859375 0
  0.953125   0.843750 0
  0.937500   0.843750 0
  0.921875   0.640625 0
  0.937500   0.625000 0
  0.671875   0.906250 0
  0.687500   0.890625 0
  1.000000   0.687500 0
  0.828125   0.796875 0
  0.828125   0.750000 0
  0.515625   0.750000 0
  0.828125   0.937500 0
  0.968750   0.625000 0
  0.984375   0.593750 0
  0.984375   0.796875 0
  0.750000   0.859375 0
  0.859375   0.937500 0
  0.828125   0.953125 0
  0.859375   0.781250 0
  0.593750   0.515625 0
  0.984375   0.750000 0
  0.734375   0.828125 0
  1.000000   0.734375 0
  0.750000   0.812500 0
  0.953125   0.562500 0
  0.968750   0.750000 0
  0.734375   0.812500 0
  0.968750   0.546875 0
  0.843750   0.906250 0
  0.875000   0.875000 0
  0.578125   0.640625 0
  0.750000   0.968750 0
  0.984375   0.906250 0
  0.625000   0.515625 0
  0.937500   0.593750 0
  0.781250   0.578125 0
  0.640625   0.968750 0
  0.937500   0.531250 0
  0.937500   0.515625 0
  0.953125   0.500000 0
  0.703125   0.796875 0
  0.859375   0.718750 0
  0.703125   0.765625 0
  0.921875   0.703125 0
  0.687500   0.765625 0
  0.921875   0.500000 0
  0.718750   0.781250 0
  0.734375   0.765625 0
  0.968750   0.687500 0
  0.968750   0.890625 0
  0.734375   0.953125 0
  0.859375   0.828125 0
  0.890625   0.484375 0
  0.843750   0.843750 0
  0.828125   0.765625 0
  0.968750   0.906250 0
  0.796875   0.578125 0
  0.765625   0.828125 0
  0.609375   0.968750 0
  0.734375   0.656250 0
  0.671875   0.875000 0
  0.531250   0.906250 0
  0.546875   0.921875 0
  0.765625   0.656250 0
  0.531250   0.937500 0
  0.531250   0.734375 0
  0.765625   0.671875 0
  0.843750   0.734375 0
  0.843750   0.937500 0
  0.609375   1.000000 0
  0.593750   0.796875 0
  0.828125   0.734375 0
  0.578125   0.812500 0
  0.671875   0.562500 0
  0.781250   0.562500 0
  0.656250   1.000000 0
  0.765625   0.796875 0
  0.656250   0.593750 0
  0.796875   0.562500 0
  0.625000   0.828125 0
  0.625000   0.625000 0
  0.859375   0.562500 0
  0.796875   1.000000 0
  0.890625   0.781250 0
  0.875000   0.781250 0
  0.625000   0.859375 0
  0.843750   0.781250 0
  0.859375   0.765625 0
  0.843750   0.765625 0
  0.859375   0.750000 0
  0.843750   0.750000 0
  0.765625   1.000000 0
  0.781250   0.984375 0
  0.875000   0.625000 0
  0.875000   0.812500 0
  0.640625   0.875000 0
  0.562500   0.906250 0
  0.796875   0.843750 0
  0.796875   0.828125 0
  0.656250   0.906250 0
  0.890625   0.640625 0
  0.875000   0.843750 0
  0.859375   0.843750 0
  0.625000   0.906250 0
  0.812500   0.875000 0
  0.859375   0.515625 0
  0.812500   0.843750 0
  0.796875   0.875000 0
  0.796875   0.859375 0
  0.593750   0.968750 0
  0.859375   0.875000 0
  0.625000   0.937500 0
  0.843750   0.875000 0
  0.593750   0.953125 0
  0.859375   0.859375 0
  0.828125   0.671875 0
  0.890625   0.765625 0
  0.656250   0.828125 0
  0.656250   0.625000 0
  0.890625   0.562500 0
  0.640625   0.843750 0
  0.640625   0.640625 0
  0.875000   0.578125 0
  0.890625   0.750000 0
  0.875000   0.765625 0
  0.562500   0.625000 0
  0.968750   0.500000 0
  0.734375   0.562500 0
  0.937500   0.578125 0
  0.703125   0.640625 0
  0.656250   0.984375 0
  0.640625   1.000000 0
  0.953125   0.578125 0
  0.671875   0.984375 0
  0.906250   0.921875 0
  0.921875   0.687500 0
  0.671875   0.765625 0
  0.687500   0.750000 0
  0.906250   0.484375 0
  0.984375   0.921875 0
  0.734375   1.000000 0
  1.000000   0.906250 0
  0.750000   0.984375 0
  0.828125   0.843750 0
  0.593750   0.906250 0
  0.828125   0.640625 0
  0.843750   0.828125 0
  0.609375   0.890625 0
  0.609375   0.687500 0
  0.843750   0.625000 0
  0.734375   0.875000 0
  0.968750   0.812500 0
  0.859375   0.812500 0
  0.625000   0.875000 0
  0.859375   0.609375 0
  0.843750   0.812500 0
  0.859375   0.796875 0
  0.828125   0.812500 0
  0.593750   0.875000 0
  0.828125   0.609375 0
  0.781250   0.843750 0
  0.515625   0.921875 0
  1.000000   0.781250 0
  0.765625   0.843750 0
  1.000000   0.578125 0
  0.765625   0.968750 0
  0.890625   0.703125 0
  0.656250   0.765625 0
  0.890625   0.500000 0
  0.875000   0.703125 0
  0.937500   0.937500 0
  0.984375   0.578125 0
  0.578125   0.531250 0
  0.875000   0.609375 0
  0.640625   0.671875 0
  0.796875   0.625000 0
  0.859375   0.593750 0
  0.625000   0.656250 0
  0.609375   0.671875 0
  0.593750   0.687500 0
  1.000000   0.562500 0
  0.765625   0.625000 0
  0.656250   0.578125 0
  0.625000   0.546875 0
  0.671875   0.812500 0
  0.906250   0.750000 0
  0.796875   0.546875 0
  0.828125   0.718750 0
  0.578125   0.781250 0
  0.875000   0.656250 0
  0.640625   0.718750 0
  0.734375   0.984375 0
  0.968750   0.921875 0
  0.609375   0.531250 0
  0.953125   0.921875 0
  0.968750   0.937500 0
  0.593750   0.546875 0
  0.765625   0.609375 0
  0.531250   0.671875 0
  0.781250   0.593750 0
  0.546875   0.656250 0
  0.656250   0.656250 0
  0.890625   0.593750 0
  0.656250   0.859375 0
  0.921875   0.671875 0
  0.968750   0.734375 0
  0.718750   0.812500 0
  0.812500   0.984375 0
  0.562500   0.796875 0
  0.750000   0.640625 0
  0.765625   0.687500 0
  0.531250   0.953125 0
  0.687500   0.656250 0
  0.921875   0.593750 0
  1.000000   0.593750 0
  0.750000   0.671875 0
  0.671875   0.750000 0
  0.906250   0.687500 0
  1.000000   0.656250 0
  0.812500   0.562500 0
  0.687500   0.796875 0
  0.921875   0.734375 0
  0.828125   0.546875 0
  1.000000   0.625000 0
  0.953125   0.968750 0
  0.750000   0.906250 0
  0.515625   0.968750 0
  0.812500   0.531250 0
  1.000000   0.796875 0
  0.515625   0.937500 0
  0.750000   0.875000 0
  0.812500   0.703125 0
  0.796875   0.703125 0
  0.812500   0.593750 0
  0.937500   0.562500 0
  0.656250   0.968750 0
  0.890625   0.906250 0
  0.703125   0.625000 0
  0.953125   0.546875 0
  0.671875   0.953125 0
  0.906250   0.890625 0
  0.984375   0.781250 0
  0.796875   0.687500 0
  0.562500   0.953125 0
  0.968750   0.875000 0
  0.718750   0.953125 0
  0.562500   0.937500 0
  0.781250   0.781250 0
  0.953125   0.875000 0
  0.718750   0.937500 0
  0.953125   0.671875 0
  0.796875   0.656250 0
  0.828125   1.000000 0
  0.953125   0.890625 0
  0.703125   0.968750 0
  0.828125   0.625000 0
  0.781250   0.968750 0
  0.781250   0.671875 0
  0.781250   0.875000 0
  0.546875   0.937500 0
  0.906250   0.640625 0
  0.671875   0.703125 0
  0.640625   0.609375 0
  0.875000   0.546875 0
  0.906250   0.625000 0
  0.656250   0.703125 0
  0.656250   0.718750 0
  0.968750   0.531250 0
  0.734375   0.593750 0
  0.984375   0.531250 0
  0.781250   0.546875 0
  0.718750   0.609375 0
  0.906250   0.703125 0
  0.968750   0.593750 0
  0.687500   1.000000 0
  0.921875   0.937500 0
  0.906250   0.765625 0
  0.906250   0.562500 0
  0.718750   0.750000 0
  0.718750   0.546875 0
  0.953125   0.484375 0
  0.796875   0.593750 0
  0.515625   1.000000 0
  0.750000   0.937500 0
  0.906250   0.593750 0
  0.546875   1.000000 0
  0.781250   0.937500 0
  0.828125   0.593750 0
  0.984375   0.609375 0
  0.937500   0.953125 0
  0.796875   0.515625 0
  0.968750   0.609375 0
  0.734375   0.671875 0
  0.906250   0.781250 0
  0.671875   0.843750 0
  0.515625   0.890625 0
  0.687500   0.625000 0
  0.921875   0.562500 0
  0.843750   0.531250 0
  1.000000   0.765625 0
  0.750000   0.843750 0
  0.812500   0.671875 0
  0.687500   0.921875 0
  0.765625   0.515625 0
  0.953125   0.609375 0
  0.921875   0.625000 0
  0.687500   0.687500 0
  0.812500   0.656250 0
  0.812500   0.859375 0
  0.578125   0.921875 0
  0.796875   0.765625 0
  0.890625   0.687500 0
  0.578125   0.750000 0
  0.812500   0.687500 0
  0.578125   0.953125 0
  0.796875   0.796875 0
  0.984375   0.890625 0
  0.734375   0.968750 0
  0.718750   0.640625 0
  0.968750   0.562500 0
  0.687500   0.968750 0
  0.921875   0.906250 0
  0.765625   0.953125 0
  0.812500   0.609375 0
  0.812500   0.734375 0
  0.875000   0.562500 0
  0.968750   0.656250 0
  0.796875   0.734375 0
  0.812500   0.828125 0
  0.578125   0.890625 0
  0.781250   0.687500 0
  0.984375   0.671875 0
  0.578125   0.828125 0
  0.812500   0.765625 0
  0.875000   0.593750 0
  1.000000   0.875000 0
  0.765625   0.937500 0
  0.843750   0.656250 0
  0.843750   0.859375 0
  0.609375   0.921875 0
  0.828125   0.687500 0
  0.937500   0.656250 0
  0.937500   0.859375 0
  0.703125   0.921875 0
  0.984375   0.640625 0
  0.890625   0.468750 0
  0.656250   0.734375 0
  0.890625   0.671875 0
  0.890625   0.875000 0
  0.656250   0.937500 0
  0.578125   0.859375 0
  0.812500   0.796875 0
  0.843750   0.890625 0
  0.609375   0.953125 0
  0.937500   0.875000 0
  0.687500   0.953125 0
  0.843750   0.953125 0
  0.828125   0.703125 0
  0.593750   0.765625 0
  0.937500   0.546875 0
  0.781250   0.531250 0
  0.781250   0.734375 0
  0.546875   0.796875 0
  0.796875   0.718750 0
  0.562500   0.984375 0
  0.984375   0.812500 0
  0.562500   0.812500 0
  0.796875   0.750000 0
  0.562500   0.875000 0
  0.796875   0.812500 0
  0.640625   0.750000 0
  0.875000   0.687500 0
  0.703125   0.671875 0
  0.937500   0.609375 0
  0.562500   0.843750 0
  0.796875   0.781250 0
  0.781250   0.750000 0
  0.781250   0.609375 0
  0.812500   0.953125 0
  0.812500   0.718750 0
  0.953125   0.593750 0
  0.718750   0.656250 0
  0.671875   1.000000 0
  0.796875   0.953125 0
  0.843750   0.609375 0
  0.812500   0.812500 0
  0.812500   0.781250 0
  0.750000   0.953125 0
  0.750000   0.750000 0
  0.984375   0.687500 0
  0.781250   1.000000 0
  0.765625   0.546875 0
  0.765625   0.750000 0
[...]
POINT_DATA 4072
SCALARS scalar_value float 1
LOOKUP_TABLE default
-0.000910287
-0.000541582
-0.00260138
0.000129702
-0.00018045
-0.000281327
0.000408639
0.0120145
0.00322287
-5.51775e-05
0.000721127
-0.001053
0.00205341
0.00765909
-0.000753371
0.00117564
0.00217153
0.000933779
0.00225112
0.000132002
0.000136952
0.000458144
0.00171409
0.000305113
0.000145887
-0.00111273
0.00129997
-0.00133122
0.000560601
0.0175558
0.000135818
-0.000152532
0.000259688
-0.000438618
0.00209318
-4.21076e-05
0.000148141
0.00163537
2.17714
-0.000274325
0.00477207
-0.00267311
0.00480297
0.000107799
0.001735
-0.00726461
-5.15314e-05
0.000555405
0.000464694
-0.0495774
-3.87276e-05
-2.66549e-05
2.56368
-0.000332558
-0.0140896
-0.000414108
-0.000307021
1.82548e-05
-3.27536e-05
0.0100093
2.0597e-05
0.00182784
0.00441311
-0.0062946
-0.000121329
0.00581697
-5.90593e-05
0.00130263
-0.000142673
1.10192e-05
0.000208561
0.00021124
0.00104569
-0.00288312
-8.9421e-05
0.00951568
0.00807648
0.000466619
0.0111773
-0.000558813
-0.000768596
0.00184696
-0.0123553
-0.00527709
0.00173036
0.00325293
0.00174582
8.15017e-05
0
-0.00664813
-0.00530227
0.00882078
2.38355
0.0083208
0
0.00594389
0.682541
-0.00677719
-0.0012219
0.457376
-0.000465528
0
0.00207331
-0.00214467
-0.0016136
-0.000213142
-0.00099399
0.00136472
0.003779
-0.0032955
0
-8.62088e-05
0.00332486
0.000738576
-0.00119516
-0.000538111
-0.00228652
0.00437671
0.000568174
0.0030218
0.000745618
-0.000228354
0.000250961
0.0013768
0.000634399
0.0030132
-0.00445468
0.00243596
-0.000678863
-6.88057e-05
0.000973259
0.000728636
0.000748386
0.000144899
0.0134945
-0.00207067
0.0051686
0.037252
0.00159311
-0.0010023
0.00388335
-0.00214781
0.000371196
0.00179007
0.252562
-0.000150283
0.0449536
5.79188e-05
0.0313169
0.000405339
0
4.04723e-05
0.000401128
-0.000206579
-0.00477738
0.0159571
-0.00186437
-0.00015359
-8.18629e-05
0
-2.66106e-05
0.000238151
-0.00223455
0.0012912
0.0169104
0.000193338
0.000330639
0.255915
0.00906406
0.00171956
0.000241837
-0.000778282
-0.000107986
0.0052756
0.00108625
0.000462897
-0.00181943
0.000110062
0.00733805
-0.000128067
-0.00323199
0.00094099
-0.00268971
2.39753e-05
-0.000296809
0.00554947
-0.0246203
-0.00204409
-0.00653036
7.16831e-05
0.00015967
2.0608
-0.00252729
0.0264221
-0.0336178
-2.99399e-05
0.125686
0.0334817
0.645197
-6.17153e-05
-0.0524123
-0.0586203
1.98473
0.000858712
0.000779978
0.00654021
0.000628178
0.0132698
0.0084343
0.01254
0.000120806
-0.000123976
-0.0188084
2.79035e-05
-1.57393e-05
1.79865
0.0616586
0.0856151
0.0293066
-0.115052
0.0166945
-0.00155202
-0.000746191
0.00362851
-0.00284292
0.00834168
-0.000217032
-0.00509484
-0.0354584
0.0103792
0.00100865
0.00683292
0.000390019
-0.000145716
0.000905566
-0.00152997
0.00644345
0.000380143
0.00585531
-0.0103042
0.00223671
0.00084479
-6.89167e-05
-5.98948e-05
-0.000776087
0.000209952
0.00365294
-0.000506448
0.00521237
-0.00263029
0.0046545
-0.0047132
0.0120461
-9.19134e-05
0.000672306
-0.000256273
0.0270206
5.6253e-05
0.000309153
0.000162201
0.000318293
-0.0014921
0.00066052
4.86818e-05
0.000268612
-0.000575427
-0.00441706
-8.72108e-05
-0.000169984
0.00215068
-0.0238541
0
4.84282e-05
-0.000357599
-0.0169538
-1.02202e-05
-0.005969
-0.000919838
0.00172237
-0.00233985
-0.00265664
-0.239933
-0.0013807
0.00194981
0.0265749
-0.0201062
-0.000147554
-0.0759128
0.000166686
-0.00571618
-0.0415954
-0.00522918
-0.000259738
0
-0.000156617
0.0016291
-0.00210637
-0.00605273
0.351583
4.34642e-05
-0.0173069
0
0.000128586
0.000228536
0
-0.000367676
-0.00828217
0.000250015
-0.000153537
0.00621381
-0.000196681
-0.00295707
-0.00110257
0.00415592
0.000568883
0.0914434
-0.000147164
0.00133234
-0.00187991
0.00255179
-0.0114122
-0.000206847
0.0169572
0.000334268
-0.000839244
0.00505518
0.0260392
-0.000220878
-3.24352e-05
3.48501e-05
-0.00857335
-0.0326219
0.00856483
-0.000733304
0.00162071
1.23031e-05
0.000386397
0.00998234
-0.000134102
-9.60626e-05
2.09049e-05
0.000155847
-0.0138349
0.00631791
0.000467826
0.000355712
-0.0029379
-0.00095485
0.00234659
-0.0030675
0.00084038
-0.00149521
0.00259248
-2.35868e-05
6.14578e-08
-0.000457492
0.0138691
-0.00058712
0.00107885
-0.0101732
0.00164362
-0.000607437
0.000109458
0.000469484
0.000683635
0.0177392
0.00629213
6.42779e-05
0.000661622
0.00329083
0.000892814
-0.000590449
-0.000477715
0.000132557
0.00014475
-2.3205e-05
-4.90662e-05
-0.036533
-4.08987e-05
0.00482711
0.000145971
0.00813752
0.00434563
0.000696022
0.000254623
0.00621872
0.00128125
2.18011e-05
-0.000201602
-0.0342818
0.0091001
0.000323351
-0.000340502
0.00476596
0.00133873
-0.00348512
-0.0399442
-0.000499184
-0.00115055
0.000320306
-0.00155002
0
0.000187591
-0.00695799
0.00163668
0.0013817
-0.000293595
-0.00677035
-0.00055476
0
0.0120389
0.00581351
-0.0064303
0.00443537
0.000273593
-0.00974273
0.000590395
-0.00900357
0.00277982
-2.67028e-05
-0.0464959
-0.00132477
-0.0148027
-7.54218e-05
-5.36372e-05
5.94368e-05
-0.00478242
-0.000439832
0
-3.81473e-05
0.000135754
-0.081361
-0.000162512
-0.000456077
0.0158329
0.000161281
-0.0426896
0.0234611
-0.00323863
0.00868981
-0.000203382
-0.00303245
-0.000342691
0.000877044
0.00475262
-0.0174928
0.000211899
-0.00815065
0.000383506
0
-0.0100148
-0.0542507
0.12957
-0.000303023
-6.30215e-05
0
-0.00905319
0.00266361
0.00025923
-0.00617228
0.20993
0.000742522
-0.00424873
0.000119035
-0.0044504
0.0644543
1.44652e-05
2.34508e-05
0.00315541
0.000717404
1.52013e-06
0
-0.00693785
-2.17805e-05
-6.09601e-05
0.000171611
-0.000144245
0
0
-5.85848e-05
-0.0230241
-6.77662e-05
3.27382e-05
0.568454
-5.25917e-05
0.000172724
0
0.789009
1.79066e-05
6.78341e-05
0
0
-0.021209
-0.00174459
-0.0397616
-0.000167882
-0.00478825
-0.0135902
-0.00492571
0.0139209
0.0113462
0.203646
0.013919
0.0832323
-0.0069097
-0.000109014
-0.000135352
0
-0.00203089
0.610714
0
0.440629
-5.82628e-05
7.99399e-05
-0.179224
-2.92544e-05
-0.000809435
0.815382
3.43464e-05
0.442457
-0.000195579
-0.000105104
1.52857
-0.000153844
8.94924e-05
-7.15028e-05
0.918224
-3.12668e-05
0.000199322
-0.0146031
2.79668e-05
-0.00394622
1.87571
3.22936e-05
0.00150816
-0.20998
-0.139653
3.2321e-06
-0.00555677
-0.0262677
0.00743399
-0.000149752
4.58378e-05
0.00479962
-0.00165209
-0.000864294
0.00698886
-3.04178e-05
0
-0.0010119
0.00285244
-0.0119042
0.00303406
-0.000670513
-0.00530901
-0.00170173
0.00684028
-0.00213916
-0.000474287
-0.00681762
0.243079
0.00138875
1.45196
0.0266567
0.204773
-0.00365169
0.388132
1.50941
-0.623473
-6.77551e-05
0
0
-0.000709242
0.000355698
0.00185802
0.00102933
0.000189364
9.05788e-05
-0.00673254
8.87449e-05
5.47845e-05
0.000212276
-0.000131855
3.26748e-05
0.000592672
-0.000260883
-3.47455e-05
-0.000172169
0.000607502
-0.000238386
-0.000204414
-0.000134996
-0.000890532
3.85325e-05
6.47509e-05
-9.80587e-05
-9.94178e-06
4.70831e-05
0
0
-0.00194108
-0.000275534
1.63237e-05
-0.00016827
0
-6.7673e-06
-0.000380362
-0.000756728
5.52529e-05
-0.000650007
0.000440352
6.54362e-06
-5.12279e-05
6.79507e-05
0.000473082
0.00201629
-0.000430958
-0.00238059
0.000831609
0.00102536
-0.000162361
-7.65091e-05
-0.00080746
-3.36615e-05
4.15102e-05
-0.000200267
-0.000355278
-0.000229462
0.000130906
-0.000110401
0.000313014
-0.00147916
0.000134919
0.000333707
-0.00190629
-7.9025e-06
0.0103746
-0.00355962
-0.000679756
-0.000218848
-8.22222e-05
1.14326e-05
-0.00648262
0.00335573
-0.000323121
0.000640315
7.94873e-05
-0.000357668
8.55423e-05
-0.00199159
-0.00510002
-0.000773111
-0.00762472
0.00149632
0.000387461
-0.015543
-0.000240251
-8.64472e-05
-1.68956e-05
-0.0109783
0.00340393
0
-0.000168099
0.00036204
-0.000680492
0.000433143
0.00170241
-0.00172038
0.00254765
-0.000670457
-0.000122427
0
0.00260089
-0.33029
0.000130718
-0.00100935
0.000751286
-0.00209277
0.00261882
-0.000652104
0.00446818
-0.000712848
-0.00215945
0.00434569
-0.00178983
0.00249583
-0.000835648
0.000707591
-0.000798902
7.65021e-05
-0.000270886
-0.00280498
-0.00528438
0.7662
0
-0.149687
0.0066327
-0.00361078
-5.72542e-05
-0.000605321
-0.000630384
0.0886916
0
1.11902
0.0101731
-0.00107758
0.000129108
-0.168948
-0.000822031
0.00125892
0.570382
0.00213638
3.69578e-05
0.0412073
-5.39828e-05
0.000992573
-0.000165664
0.146441
0.0699145
-0.000450283
0.0052614
-0.0154205
0.32961
-0.000114963
4.84009e-05
2.18044
0.0154087
0.000256541
-4.92586e-05
-0.083881
0.00487564
0.0151128
0.00729696
0.000227458
0.016145
-0.00607118
0.127464
0.032324
-0.0036801
0.000824532
0.000261527
-9.74161e-05
-0.000206384
-0.00191247
0.190966
0.00748883
0.808108
-3.31184e-05
-0.00329055
-0.0041816
-0.00412542
0.000148832
-9.27777e-05
-0.0109513
-0.00371418
-0.412657
-0.00097772
0.00337908
0.00635132
-0.00180507
-0.0240448
-0.00122105
-4.61613e-05
0.79139
-0.0105593
0.368222
5.46166e-05
0.00630873
0.0020145
0.00405178
0.0977198
-0.00351402
-0.000244423
0.449536
0.000240609
3.85948
0.611373
0.000395068
6.31226e-05
0.00136351
0.206747
0.000775293
-0.000473632
-0.00187002
0.00616067
-0.00259093
-0.00232859
-0.00239047
1.01149
-0.0380371
0.000403023
0.0033509
0.0344891
-0.0159814
-0.00107316
-0.000100015
0.000538385
-0.000862795
-0.0087177
-0.00274447
-5.08829e-05
-0.000238108
-0.000195632
-0.00187562
0.612023
0.301288
4.87286e-05
0.00169197
0.215745
0.00192962
0.392367
-0.00011688
0.000608651
0.00116955
0.275448
0.0331848
-0.000953773
-0.00353442
0.0231707
0
-0.00230589
-0.0689353
-0.0142279
0.0137143
-0.000329912
-0.000620887
6.09683e-05
-0.00155284
-0.000570726
0.00142209
0.428795
0.149477
0.119545
0.0528833
4.07877e-05
0.0526252
0.00263675
0.00102271
0.247789
-0.00267275
0.0684656
-0.0320083
0.0309885
0.0405093
0.178043
0.100165
0.000255807
1.5672
0.10927
0.00234729
-0.00113306
0.00202606
0.335146
0.162135
0.000768911
-0.00210147
0.00103592
0.00230964
-0.000322162
0.840031
0.103241
-0.000215612
-0.000633977
-0.000636554
-0.0014107
0.0271659
0
-0.102534
0.000726946
-0.00117979
0.468508
-0.00029415
-0.0010298
-0.00276275
-0.000587545
-0.0269161
0.00228648
0.000721367
0.000170729
-0.00395592
0.000108604
0.0670226
-0.0230156
-0.00482991
-0.000693178
-0.00280435
0.000410925
0.000296348
-0.0107206
0.00351416
0.0176098
-0.00173491
0.0221066
0.000148908
0.458195
-0.002566
0.00229608
-0.00414029
0.000302092
-0.00319273
-0.000389367
-0.180466
-0.00226568
0.0756013
-0.00447337
7.09373e-05
-0.000847983
0.154561
-0.00160021
0.0102598
1.16027
0.268383
-0.00018602
-0.000140357
-0.00122694
-0.000326673
0.00400113
0.19202
-0.0266857
-0.00133766
-0.00278645
-2.39121e-05
-0.0270085
-0.00341134
0.000560438
-0.00650908
0.00464024
-0.00078456
0.556599
-0.00782466
0.000300074
-0.00369724
-0.000843327
-0.000637966
0.000496405
-0.00359467
-0.00039106
-0.00274629
0.000761812
-0.00417917
0.000887653
1.20102
-0.102491
-0.000119395
-0.00101804
0.000246908
-0.0513914
0.708821
0.000706664
0.889822
-2.5953e-05
1.14322
-0.000272731
0.990725
-0.000773466
0
-0.00887942
0.900341
1.23209
0.00921629
2.93904
-6.22195e-05
3.09965
2.94373
1.44092
-0.000425777
0.0725342
-0.0284753
2.05031
0.010878
0.000164502
-0.00433332
-1.43953e-05
1.71902
0.431497
0.0602044
0.176648
0.463851
7.18126e-05
-0.126766
1.4051
0.184414
0.000250071
-0.00373544
2.66254
-0.00468059
1.37276
-0.00824234
0.242559
7.96189e-05
0.00105847
0.00237
0.0729775
1.95008
0.000152869
-7.30761e-05
-0.0135463
-3.94257e-05
2.73573
-0.00145565
0.0567931
1.54116
-0.0197746
-0.0571941
0.00686136
3.37845
2.38342
0.852336
1.64162
-0.0130384
0.0107795
-0.000198058
1.33391
-0.00202075
0.337585
-5.32923e-05
6.58448e-05
-0.0102419
2.97451
0.010613
-0.000194926
0.946992
-8.79863e-05
0.0124395
0.292944
2.1339
0.0200634
0.00295862
-0.35899
0.000799644
0.957415
0
-9.88488e-05
0.000860304
0.00345961
7.25304e-05
-0.00160091
0.154954
0.000182367
0.184515
0
2.36326
3.44075e-05
-0.000602843
-0.000571359
0.222467
2.65769
-0.0005286
-0.000504414
-0.000427616
0.0143801
2.68308
-0.00106707
2.11711
0.000621809
0.0161182
2.69642
0.00383319
-0.000121191
-0.0113882
2.63561
2.44178
0.0108458
0.000111843
1.18707e-05
-0.00764755
0.0260554
-0.000703889
-0.0739243
2.42922
1.41092
-6.49415e-05
0.504051
8.18809e-05
-0.00330434
0.00108484
-0.00364912
1.47861
2.94406
-0.0118735
-0.0345615
4.74442e-05
1.69496
1.08746e-05
-7.24442e-05
2.38862
0.00596342
-0.00775389
0.000254358
1.91982e-05
-0.00045637
2.61102
-0.0726613
-0.014314
1.73402
0.061322
0.00166586
0.0161628
0.176491
-9.61212e-05
0.022141
0.00106663
-0.00589768
0.00120205
0.462927
0.00717989
-0.00204874
-0.00118644
1.13413
-0.00278518
-4.99651e-05
-0.00164671
3.09543
5.02619e-05
4.65889e-05
0.0139007
-3.56186e-05
0.00041169
0.00260973
0.151394
-0.000555123
-0.0132212
0.757405
0.763673
0.0842176
0.377332
0.00929013
3.05485
1.66654
0.00135292
-0.00191296
-0.00253867
-0.000422798
0.0327097
7.5109e-05
-0.00111564
0.0510783
0.000490472
0.0153274
-0.000158751
-0.00600634
0.048192
-0.00018613
0.027775
-6.30479e-05
1.32848
2.67281
-0.000190669
0.454533
0.00130694
-0.444931
-2.54732e-05
-0.00156024
0.000287395
0.569968
1.41844e-05
-0.000479871
0.000802633
2.67005
2.57619
-0.00195044
2.86787
1.77293
-0.000141275
-0.00221828
0.741056
0.230284
0.00109927
-1.39589e-05
-0.0119881
0.00548344
1.01994
-3.15953e-05
-0.1469
2.24534
-0.00354307
2.01252e-05
1.02176
-7.85748e-06
0.912733
0
0.0108775
-0.00311832
0.000176638
-0.000289158
0.0196264
0.000590996
3.06475
-0.00432829
0.0165503
-3.87881e-05
2.55374
1.12641
0.0129464
0.00176591
0.717155
-0.00108173
-0.000757215
6.76254e-05
-0.0788401
0.000154042
2.58132
2.64382
-0.0258789
0.00115598
-0.000142887
0.194965
-0.000172902
-0.0084684
2.50197
0.014867
1.89328
-2.36841e-05
0.00732994
2.87489
3.33418
-0.00766552
3.10866
1.07696e-05
0.184661
1.15575
2.74544
0.624144
-0.0409695
0.008252
-0.000583809
-0.17848
0.0109331
0.643838
-0.016243
2.65648
-0.456226
-0.00868514
-0.0175017
1.03075
-0.00665605
2.7495
2.51298
0.00109
2.92134
-0.00440085
0.00243094
1.09929
0.00788889
2.79338
0.00941278
0.87725
2.75309
0.723745
0.0110338
-0.0102337
-0.00127312
-0.247467
-0.0115049
0.505741
0.976568
-0.00306727
-0.00320835
-0.00469566
0.00598995
-0.000141018
2.87989
0.853426
-0.0041227
0.0110036
0.00153685
1.93497
1.8264
0.000755318
0.0146021
8.56297e-05
1.66733
1.93761
0.105618
-0.00412974
2.15579
-0.103949
-0.000857119
-0.000236485
-0.000130794
-0.000137965
0.0122541
2.232
-0.000732002
-0.0974025
1.79039
-0.00299663
-0.00164069
0.00175659
0.0238557
0.0218035
1.82274
-0.180386
0.00145067
-0.000751707
0.00229169
-0.000706235
-0.0285261
0.00153058
1.0714
0.000730029
1.86192
0.0330898
3.91471
2.37772
-0.00857371
-4.23437e-05
0.0186421
-0.00016041
-0.000523119
-0.000175909
-0.100893
0.000363004
2.13771
-0.00141918
0.0122356
0.0331824
-0.115213
0.00109496
-0.00369954
0.708376
1.71339e-05
2.40168
-0.000965651
0.00441754
1.51251
-0.0251501
0.000213507
-0.00673483
0.000496662
3.2469
1.85834
-7.42846e-05
2.46621
-0.00811004
0.00945305
2.38181
0.00365454
-0.00286947
2.28268
0.00874774
0.00386324
-0.0013452
-0.0377356
0.0171934
0.0108877
-0.00278066
-0.288632
0.00171155
1.63336
-0.00665942
2.40424
-0.043686
-6.70109e-05
2.56496
0.0142841
0.000297435
0.000237983
-0.0126721
2.60349
0.000694082
0.830895
0.00248239
2.43865
0.0160959
-0.0494358
0
0.0105301
-0.000868036
-0.132708
-0.0193064
0.01451
0.018442
2.16016
0.0120632
0.0139762
1.0464
2.8794
0.000973421
0.000328399
0.0228738
-0.00240707
1.51833
0.004306
2.50322
0.0311411
0.00082027
0.000425618
-0.00932554
0.00054293
0.0220473
2.94292
-0.00906937
-2.11893e-05
-0.0116317
-0.107423
0.484312
-0.000377996
-0.00102192
0.0121056
-0.000176625
-0.000816339
-8.52685e-05
-0.247868
0.000336973
0
-0.00342352
0.000304823
1.57151
1.05505
-0.00134712
0.000211271
1.59424
-3.29604e-05
-0.0011862
2.59692
1.36051
-0.00465504
1.9534
0.00929586
0.000207856
1.51015
-0.00174905
0.162474
0.000660694
0.455331
2.24032
0.00339741
0.0418803
0.00781939
2.43
1.94234
-0.0121908
0.465813
1.95548e-05
0.38022
0.107637
0.0528955
2.68378
-3.25266e-05
1.82443
0.000816378
0.0145048
-0.00318953
0.0021197
1.9899
0.011615
3.20787
1.66466
-2.6091e-05
-0.0035958
-0.0201312
3.73938
0.0103036
4.5062e-05
3.30887
0.000231388
4.99754e-05
2.82512
1.83295
-0.00547384
-0.00720113
2.90598
-5.35041e-05
0.718267
0.00100474
-0.000129338
-0.00010637
-0.07023
-0.000677819
1.08077
0.001854
-2.70785e-05
3.68282
0.792389
2.71086
-0.109481
-0.000184486
-0.00273429
3.0562
0.0113432
0.0147422
0.00047332
0.222964
0.000120281
0.357553
1.37563
-0.00276359
-2.49587e-05
2.46327
-2.43615e-05
0.0177914
0.635126
0.000152647
-0.000601844
2.81658
1.85687
0.00918148
0.0156476
-0.235901
0.00276132
-0.0015222
3.31402
0.0187923
1.18396
-0.000247679
0.00189324
-0.00257389
-0.00842115
0.00234764
0.00281704
2.48295
0.305057
-0.0161399
0.00826802
0.477269
0.00178351
0.0306116
3.8097
2.49974
0.0001407
0.000694145
-0.443734
0.0132091
1.47904
-0.00191991
0.0367584
-0.000737809
-0.0156582
0.000988496
2.93138
0.00676783
2.59132
-0.00282986
0.000173338
-0.414522
-0.000612959
0.643163
2.99485
0.00868151
0.000121232
2.66251
0.867098
-0.000620722
0.0291807
9.69434e-06
-4.43561e-05
-0.0761487
-0.00767132
0.00124332
2.71771
-0.664495
-2.97135e-05
0.00905142
-0.000185723
-5.21317e-05
2.74144
-0.000645678
1.04555
3.0668
0.0109972
-0.000406997
0.0151317
-0.000118271
0.112273
1.3701
0.000168263
0.00128687
-0.000461317
0.0190447
-0.00404976
-0.000335899
-0.000500299
-0.132474
0.0011805
2.20239
-0.0149721
1.26841
-0.0015315
0.000736407
-0.000725965
0.566898
6.73416e-06
0.00189167
-0.0026714
1.25612
0.0108953
2.00428
2.52672
0.000710005
-0.00012554
-4.18827e-05
2.01411
-0.00350953
3.58865
-0.000123173
0.00138356
1.93645
0.000534772
0.156199
2.47116
0.000372775
1.09195
-0.0487036
-0.00750658
1.52899
0.296128
-0.0044798
-0.00810102
-0.00265883
1.8993
0.0223045
2.8397
-0.0151575
-0.000731162
0.00745627
-3.23788e-05
0.00168994
-0.432383
-3.3969e-05
-0.00123986
0.000668699
5.14329e-05
-0.285399
0.0118025
0.281815
-5.99813e-05
1.64064
-0.00478718
0.00665459
0.606566
0
0.691283
-0.00561174
3.74944
2.35396
0.384963
-0.00634448
1.79605
0.692844
0.001461
0.707177
-5.29319e-05
-0.00135428
0.00281974
-0.00133547
1.14725
0.115283
-0.0194461
0.201754
2.99267
0.110691
-0.011497
0.00537573
1.54519
0.0117919
2.56183
0.00127106
2.88057
0.00123278
-4.56022e-05
-0.000256049
0.00763171
-0.084015
2.84833
1.11858
0.0975509
0.960247
0.00282931
-0.000259166
0.243743
0.0428289
-0.170549
2.68132
-0.000738294
0.956539
1.17195
0.0123861
-0.0682669
6.49471e-05
-0.00809349
3.41547
1.7591
-0.278693
-0.00390298
3.20313
0.00073167
-2.3361e-05
2.06788
2.60781
-0.0145455
-0.013511
1.05083
-3.78529e-05
0.00207902
-3.73007e-05
-0.083488
-0.0013568
0.000162166
0.015923
-0.00528938
1.92012
-0.233052
-0.00023034
0.816081
3.67931
-0.00212857
0.00326201
2.70822
0.0122405
2.63487
0.0291393
0.23513
2.2351
2.87994
-0.0120623
2.24818
0.00143349
-0.000504873
0.00390791
0.566923
2.46776
-0.0116049
-0.465649
-0.00443826
7.81752e-05
1.80954
-0.00263293
-0.052502
4.44456e-05
-0.017703
3.00343
2.74205
0.296764
0.000333423
-0.00203357
9.77716e-05
-0.148037
0.00720612
0.000533679
0.000400024
0.000135511
0.000204734
0.0362351
0.685256
0.735561
0.135178
-0.000546642
0.00811399
0.399144
-5.3168e-05
2.60592
-0.000196572
2.46272
-0.0140179
1.29271
7.37894e-05
-0.000111452
-0.000264843
2.12143
0.986767
0.00325661
0.291916
-0.000108381
0.103882
1.69751e-05
2.91556
0.000513018
0.728075
0.0101698
2.79601
1.47545
-0.00152994
7.06815e-05
0.0023088
9.52725e-05
0.0416575
-0.0642469
0.330486
-2.23211e-05
1.55363
-0.000310652
2.9975
2.19414
0.00252897
-0.12657
0.000452131
0.0183498
-0.000835717
0.0846105
0.000289212
0.29185
2.89407
0.030733
0.100535
0.645998
0.00138466
0.0118873
0.000162203
3.02716
-0.000532222
3.13943
1.95344
1.89857
0.00217425
1.37051
-0.0115374
-0.00084248
-0.000871905
1.33189
-0.000467675
2.68058
-0.179938
-1.38845e-05
0.00111337
1.25877
-0.000496322
0.00621657
0.0216513
3.18677
-0.000446946
-0.000628162
0.0301653
3.85673
2.10927
0.0169128
-0.00331657
0.0159806
0.441105
-0.000280894
-0.000107967
-0.0212994
2.72768
0.00434561
0.00640853
-0.0883006
-3.38199e-08
1.07906
0.000295819
1.60767
0.00362897
-0.00412999
0.0169694
1.61834
-0.0193595
-0.0104861
0.827876
2.93846
0.0160999
0.0223724
-0.00192741
1.64253
0.0432313
-0.000301017
-1.2805e-05
2.85679
-0.000166035
-0.000455115
0.00119021
-0.0645799