# vtk DataFile Version 2.0
Unstructured Grid by M++
ASCII
DATASET UNSTRUCTURED_GRID
POINTS 4072 float
  0.562500   0.968750 0
  0.906250   0.500000 0
  0.750000   0.781250 0
  0.953125   0.531250 0
  0.984375   0.875000 0
  0.828125   0.828125 0
  0.828125   0.859375 0
  0.562500   0.765625 0
  0.937500   0.687500 0
  0.968750   0.578125 0
  0.968750   0.781250 0
  0.734375   0.843750 0
  0.968750   0.718750 0
  0.734375   0.796875 0
  0.984375   0.718750 0
  0.984375   0.703125 0
  1.000000   0.750000 0
  0.984375   0.734375 0
  1.000000   0.718750 0
  0.953125   0.859375 0
  0.953125   0.843750 0
  0.937500   0.843750 0
  0.921875   0.640625 0
  0.937500   0.625000 0
  0.671875   0.906250 0
  0.687500   0.890625 0
  1.000000   0.687500 0
  0.828125   0.796875 0
  0.828125   0.750000 0
  0.515625   0.750000 0
  0.828125   0.937500 0
  0.968750   0.625000 0
  0.984375   0.593750 0
  0.984375   0.796875 0
  0.750000   0.859375 0
  0.859375   0.937500 0
  0.828125   0.953125 0
  0.859375   0.781250 0
  0.593750   0.515625 0
  0.984375   0.750000 0
  0.734375   0.828125 0
  1.000000   0.734375 0
  0.750000   0.812500 0
  0.953125   0.562500 0
  0.968750   0.750000 0
  0.734375   0.812500 0
  0.968750   0.546875 0
  0.843750   0.906250 0
  0.875000   0.875000 0
  0.578125   0.640625 0
  0.750000   0.968750 0
  0.984375   0.906250 0
  0.625000   0.515625 0
  0.937500   0.593750 0
  0.781250   0.578125 0
  0.640625   0.968750 0
  0.937500   0.531250 0
  0.937500   0.515625 0
  0.953125   0.500000 0
  0.703125   0.796875 0
  0.859375   0.718750 0
  0.703125   0.765625 0
  0.921875   0.703125 0
  0.687500   0.765625 0
  0.921875   0.500000 0
  0.718750   0.781250 0
  0.734375   0.765625 0
  0.968750   0.687500 0
  0.968750   0.890625 0
  0.734375   0.953125 0
  0.859375   0.828125 0
  0.890625   0.484375 0
  0.843750   0.843750 0
  0.828125   0.765625 0
  0.968750   0.906250 0
  0.796875   0.578125 0
  0.765625   0.828125 0
  0.609375   0.968750 0
  0.734375   0.656250 0
  0.671875   0.875000 0
  0.531250   0.906250 0
  0.546875   0.921875 0
  0.765625   0.656250 0
  0.531250   0.937500 0
  0.531250   0.734375 0
  0.765625   0.671875 0
  0.843750   0.734375 0
  0.843750   0.937500 0
  0.609375   1.000000 0
  0.593750   0.796875 0
  0.828125   0.734375 0
  0.578125   0.812500 0
  0.671875   0.562500 0
  0.781250   0.562500 0
  0.656250   1.000000 0
  0.765625   0.796875 0
  0.656250   0.593750 0
  0.796875   0.562500 0
  0.625000   0.828125 0
  0.625000   0.625000 0
  0.859375   0.562500 0
  0.796875   1.000000 0
  0.890625   0.781250 0
  0.875000   0.781250 0
  0.625000   0.859375 0
  0.843750   0.781250 0
  0.859375   0.765625 0
  0.843750   0.765625 0
  0.859375   0.750000 0
  0.843750   0.750000 0
  0.765625   1.000000 0
  0.781250   0.984375 0
  0.875000   0.625000 0
  0.875000   0.812500 0
  0.640625   0.875000 0
  0.562500   0.906250 0
  0.796875   0.843750 0
  0.796875   0.828125 0
  0.656250   0.906250 0
  0.890625   0.640625 0
  0.875000   0.843750 0
  0.859375   0.843750 0
  0.625000   0.906250 0
  0.812500   0.875000 0
  0.859375   0.515625 0
  0.812500   0.843750 0
  0.796875   0.875000 0
  0.796875   0.859375 0
  0.593750   0.968750 0
  0.859375   0.875000 0
  0.625000   0.937500 0
  0.843750   0.875000 0
  0.593750   0.953125 0
  0.859375   0.859375 0
  0.828125   0.671875 0
  0.890625   0.765625 0
  0.656250   0.828125 0
  0.656250   0.625000 0
  0.890625   0.562500 0
  0.640625   0.843750 0
  0.640625   0.640625 0
  0.875000   0.578125 0
  0.890625   0.750000 0
  0.875000   0.765625 0
  0.562500   0.625000 0
  0.968750   0.500000 0
  0.734375   0.562500 0
  0.937500   0.578125 0
  0.703125   0.640625 0
  0.656250   0.984375 0
  0.640625   1.000000 0
  0.953125   0.578125 0
  0.671875   0.984375 0
  0.906250   0.921875 0
  0.921875   0.687500 0
  0.671875   0.765625 0
  0.687500   0.750000 0
  0.906250   0.484375 0
  0.984375   0.921875 0
  0.734375   1.000000 0
  1.000000   0.906250 0
  0.750000   0.984375 0
  0.828125   0.843750 0
  0.593750   0.906250 0
  0.828125   0.640625 0
  0.843750   0.828125 0
  0.609375   0.890625 0
  0.609375   0.687500 0
  0.843750   0.625000 0
  0.734375   0.875000 0
  0.968750   0.812500 0
  0.859375   0.812500 0
  0.625000   0.875000 0
  0.859375   0.609375 0
  0.843750   0.812500 0
  0.859375   0.796875 0
  0.828125   0.812500 0
  0.593750   0.875000 0
  0.828125   0.609375 0
  0.781250   0.843750 0
  0.515625   0.921875 0
  1.000000   0.781250 0
  0.765625   0.843750 0
  1.000000   0.578125 0
  0.765625   0.968750 0
  0.890625   0.703125 0
  0.656250   0.765625 0
  0.890625   0.500000 0
  0.875000   0.703125 0
  0.937500   0.937500 0
  0.984375   0.578125 0
  0.578125   0.531250 0
  0.875000   0.609375 0
  0.640625   0.671875 0
  0.796875   0.625000 0
  0.859375   0.593750 0
  0.625000   0.656250 0
  0.609375   0.671875 0
  0.593750   0.687500 0
  1.000000   0.562500 0
  0.765625   0.625000 0
  0.656250   0.578125 0
  0.625000   0.546875 0
  0.671875   0.812500 0
  0.906250   0.750000 0
  0.796875   0.546875 0
  0.828125   0.718750 0
  0.578125   0.781250 0
  0.875000   0.656250 0
  0.640625   0.718750 0
  0.734375   0.984375 0
  0.968750   0.921875 0
  0.609375   0.531250 0
  0.953125   0.921875 0
  0.968750   0.937500 0
  0.593750   0.546875 0
  0.765625   0.609375 0
  0.531250   0.671875 0
  0.781250   0.593750 0
  0.546875   0.656250 0
  0.656250   0.656250 0
  0.890625   0.593750 0
  0.656250   0.859375 0
  0.921875   0.671875 0
  0.968750   0.734375 0
  0.718750   0.812500 0
  0.812500   0.984375 0
  0.562500   0.796875 0
  0.750000   0.640625 0
  0.765625   0.687500 0
  0.531250   0.953125 0
  0.687500   0.656250 0
  0.921875   0.593750 0
  1.000000   0.593750 0
  0.750000   0.671875 0
  0.671875   0.750000 0
  0.906250   0.687500 0
  1.000000   0.656250 0
  0.812500   0.562500 0
  0.687500   0.796875 0
  0.921875   0.734375 0
  0.828125   0.546875 0
  1.000000   0.625000 0
  0.953125   0.968750 0
  0.750000   0.906250 0
  0.515625   0.968750 0
  0.812500   0.531250 0
  1.000000   0.796875 0
  0.515625   0.937500 0
  0.750000   0.875000 0
  0.812500   0.703125 0
  0.796875   0.703125 0
  0.812500   0.593750 0
  0.937500   0.562500 0
  0.656250   0.968750 0
  0.890625   0.906250 0
  0.703125   0.625000 0
  0.953125   0.546875 0
  0.671875   0.953125 0
  0.906250   0.890625 0
  0.984375   0.781250 0
  0.796875   0.687500 0
  0.562500   0.953125 0
  0.968750   0.875000 0
  0.718750   0.953125 0
  0.562500   0.937500 0
  0.781250   0.781250 0
  0.953125   0.875000 0
  0.718750   0.937500 0
  0.953125   0.671875 0
  0.796875   0.656250 0
  0.828125   1.000000 0
  0.953125   0.890625 0
  0.703125   0.968750 0
  0.828125   0.625000 0
  0.781250   0.968750 0
  0.781250   0.671875 0
  0.781250   0.875000 0
  0.546875   0.937500 0
  0.906250   0.640625 0
  0.671875   0.703125 0
  0.640625   0.609375 0
  0.875000   0.546875 0
  0.906250   0.625000 0
  0.656250   0.703125 0
  0.656250   0.718750 0
  0.968750   0.531250 0
  0.734375   0.593750 0
  0.984375   0.531250 0
  0.781250   0.546875 0
  0.718750   0.609375 0
  0.906250   0.703125 0
  0.968750   0.593750 0
  0.687500   1.000000 0
  0.921875   0.937500 0
  0.906250   0.765625 0
  0.906250   0.562500 0
  0.718750   0.750000 0
  0.718750   0.546875 0
  0.953125   0.484375 0
  0.796875   0.593750 0
  0.515625   1.000000 0
  0.750000   0.937500 0
  0.906250   0.593750 0
  0.546875   1.000000 0
  0.781250   0.937500 0
  0.828125   0.593750 0
  0.984375   0.609375 0
  0.937500   0.953125 0
  0.796875   0.515625 0
  0.968750   0.609375 0
  0.734375   0.671875 0
  0.906250   0.781250 0
  0.671875   0.843750 0
  0.515625   0.890625 0
  0.687500   0.625000 0
  0.921875   0.562500 0
  0.843750   0.531250 0
  1.000000   0.765625 0
  0.750000   0.843750 0
  0.812500   0.671875 0
  0.687500   0.921875 0
  0.765625   0.515625 0
  0.953125   0.609375 0
  0.921875   0.625000 0
  0.687500   0.687500 0
  0.812500   0.656250 0
  0.812500   0.859375 0
  0.578125   0.921875 0
  0.796875   0.765625 0
  0.890625   0.687500 0
  0.578125   0.750000 0
  0.812500   0.687500 0
  0.578125   0.953125 0
  0.796875   0.796875 0
  0.984375   0.890625 0
  0.734375   0.968750 0
  0.718750   0.640625 0
  0.968750   0.562500 0
  0.687500   0.968750 0
  0.921875   0.906250 0
  0.765625   0.953125 0
  0.812500   0.609375 0
  0.812500   0.734375 0
  0.875000   0.562500 0
  0.968750   0.656250 0
  0.796875   0.734375 0
  0.812500   0.828125 0
  0.578125   0.890625 0
  0.781250   0.687500 0
  0.984375   0.671875 0
  0.578125   0.828125 0
  0.812500   0.765625 0
  0.875000   0.593750 0
  1.000000   0.875000 0
  0.765625   0.937500 0
  0.843750   0.656250 0
  0.843750   0.859375 0
  0.609375   0.921875 0
  0.828125   0.687500 0
  0.937500   0.656250 0
  0.937500   0.859375 0
  0.703125   0.921875 0
  0.984375   0.640625 0
  0.890625   0.468750 0
  0.656250   0.734375 0
  0.890625   0.671875 0
  0.890625   0.875000 0
  0.656250   0.937500 0
  0.578125   0.859375 0
  0.812500   0.796875 0
  0.843750   0.890625 0
  0.609375   0.953125 0
  0.937500   0.875000 0
  0.687500   0.953125 0
  0.843750   0.953125 0
  0.828125   0.703125 0
  0.593750   0.765625 0
  0.937500   0.546875 0
  0.781250   0.531250 0
  0.781250   0.734375 0
  0.546875   0.796875 0
  0.796875   0.718750 0
  0.562500   0.984375 0
  0.984375   0.812500 0
  0.562500   0.812500 0
  0.796875   0.750000 0
  0.562500   0.875000 0
  0.796875   0.812500 0
  0.640625   0.750000 0
  0.875000   0.687500 0
  0.703125   0.671875 0
  0.937500   0.609375 0
  0.562500   0.843750 0
  0.796875   0.781250 0
  0.781250   0.750000 0
  0.781250   0.609375 0
  0.812500   0.953125 0
  0.812500   0.718750 0
  0.953125   0.593750 0
  0.718750   0.656250 0
  0.671875   1.000000 0
  0.796875   0.953125 0
  0.843750   0.609375 0
  0.812500   0.812500 0
  0.812500   0.781250 0
  0.750000   0.953125 0
  0.750000   0.750000 0
  0.984375   0.687500 0
  0.781250   1.000000 0
  0.765625   0.546875 0
  0.765625   0.750000 0
[...]
POINT_DATA 4072
SCALARS scalar_value float 1
LOOKUP_TABLE default
6.01927e-05
0.271459
0.000436126
0.00164341
1.39588e-05
6.68959e-05
-3.51119e-05
-0.000663234
6.77476e-05
-0.00223815
-1.55006e-05
9.35433e-05
-0.000181672
0.000214709
2.27931e-05
0.000110153
-0.000152006
-7.77605e-05
2.37004e-06
6.49722e-07
1.37188e-05
-7.44918e-05
-0.000731574
0.000517973
-1.86986e-05
1.72427e-05
-8.6627e-05
2.27312e-05
0.000311764
0.000306167
1.05807e-06
0.000304119
0.000462666
5.86553e-05
0.000280722
-1.75959e-05
-1.71216e-05
0.000205695
0.0152996
0.000112074
-0.000328327
6.87389e-05
-0.000146648
-0.000492456
-0.000164079
0.000234013
-0.00261207
2.21235e-05
3.99386e-05
0.00284288
4.8532e-06
-5.75887e-06
0.0454783
0.000957309
-0.00703314
-8.04214e-06
0.00500064
-0.00703991
-0.0028845
-0.000257776
0.000607505
0.000251757
-0.000752672
-0.00134046
0.111678
0.000329026
0.00119972
2.34712e-05
-1.77699e-07
1.57441e-05
5.0447e-05
-0.114758
0.000131376
-0.000302406
-1.20957e-06
-0.0053821
5.10821e-05
-8.92007e-06
0.00238834
-5.07378e-05
4.69779e-05
-0.000460302
0.0023163
0.000134471
-0.000803625
-0.000176265
-0.00088388
2.64029e-05
0
-5.78798e-05
0.000175466
0.000193284
-0.211175
0.00915945
0
0.000631533
-0.0230529
0.00531676
-0.000589287
-0.00872348
-0.00157483
0
-0.000334271
0.000264448
-0.000287699
0.00018134
7.96497e-06
-0.00048372
0.000169136
0.000517145
0
-5.28134e-06
-0.000452319
-5.32935e-05
0.000154502
0.000328793
0.000129866
-0.000250725
-3.14774e-05
-0.0010894
8.19648e-05
-9.19699e-05
9.59828e-05
-5.29963e-05
-0.00945791
0.000144701
1.69352e-05
-0.000399839
2.91916e-05
1.27483e-05
2.03998e-06
-4.89809e-06
-2.42759e-06
3.34832e-05
-0.00095143
-0.000219618
-0.000305296
0.0021709
0.0028018
0.000368363
0.00507205
-0.00141081
-0.000165151
-0.000340094
-0.000882187
0.0133626
0.00734918
-0.0025816
-0.000906341
1.06054e-05
0
-6.77177e-05
-1.16023e-05
-4.82116e-06
0.000674361
-0.000645123
0.00226532
0.0735648
5.60773e-06
0
-1.01432e-05
-3.98733e-06
1.04075e-05
0.00032166
-0.0012638
-0.000221626
-0.000229302
0.00931961
0.00020617
-0.000150846
3.13033e-06
7.04373e-05
0.000209978
-0.000446122
0.000223248
7.73268e-05
-0.000103374
0.000480246
0.00072524
-0.000100015
-0.000403329
-8.03667e-05
0.000426524
-0.00114711
4.90987e-06
-0.00108697
-0.00110725
0.0448735
-0.000173542
1.20745e-05
-0.000785942
0.0270393
0.000155451
-0.00542172
0.00338307
0.000720976
-0.00851719
0.00663817
-0.00872109
0.00235738
0.00729768
0.0304478
0.0451545
0.000549044
0.000355622
-0.00823108
-0.000352
0.000280959
-2.99411e-05
-0.00121251
9.27362e-06
9.46422e-07
-0.00737719
4.83969e-07
-4.95092e-06
0.00179656
-0.00833166
0.00010075
0.00396311
0.000373675
0.00770409
-0.00109951
-5.84708e-05
-0.000822983
0.000163888
-0.000231688
-1.32558e-06
-0.000158403
-0.00320575
-5.25811e-05
-0.000316922
0.00185785
0.00210486
0.000531438
-0.00327639
6.95161e-05
0.000327982
-0.00022705
0.00761614
-1.32173e-05
-0.000164624
-0.00770425
0.000101651
-4.30846e-06
3.15935e-05
4.87903e-05
0.00991945
6.78947e-06
-6.16822e-05
0.00013146
-0.000461885
-1.27058e-05
0.00353786
0.0041053
2.2978e-05
-1.43196e-05
0.00208741
-0.00100194
-1.66304e-05
-1.07674e-05
-3.05415e-05
-0.000707795
-0.000168007
-4.18664e-06
-2.29597e-05
0.000158918
0.000270675
1.63668e-05
3.03939e-05
8.73468e-05
0.000492539
0
-7.41444e-06
3.16378e-05
0.000411926
-2.81298e-05
-0.000314958
0.000798359
0.000170327
-0.00105302
5.84267e-05
0.0204256
0.00184904
0.00173735
-0.00356342
0.00332315
0.00497528
0.0118011
-0.00144013
-0.0101531
0.000504958
0.000176664
0.0017999
0
-1.00593e-06
0.000174748
0.00347726
0.00150748
-0.0240479
-0.0392823
0.0044518
0
-4.28782e-05
-0.000552897
0
-3.25192e-05
-0.000248559
-0.000132043
7.12688e-07
-0.0117922
-0.0010495
-0.00136573
0.000313793
3.05084e-05
-0.000362233
0.00931925
-0.0055206
0.00904478
0.000141012
-0.000228969
0.000399526
-7.48675e-06
-0.00913909
-0.00138652
0.0010103
0.00204795
-0.00142653
1.98672e-05
-0.000227406
0.000105596
0.000702029
0.00339193
0.000379879
-0.00013808
0.000103175
-5.81958e-06
-2.32799e-05
-0.00519216
0.00239614
3.09063e-06
-1.69615e-05
-9.97885e-06
-0.000418966
5.1775e-05
0.0010965
-0.000122337
-0.000243691
-0.000195028
-0.000344933
0.000268642
-2.50156e-06
-0.000413527
-0.000184666
0.00062456
-1.80818e-05
-1.94964e-05
-0.0010977
-3.09411e-05
-6.74375e-05
0.000278883
0.000877019
-8.76005e-06
2.62912e-05
-0.0001704
-0.0278589
-0.00296331
-0.00166317
-3.2139e-05
2.64616e-05
-0.000510977
-0.00053105
1.25744e-05
-8.79462e-06
-3.99283e-05
-1.14817e-06
1.41215e-05
0.000511051
0.000891407
-0.00558063
0.00898361
-0.000228187
-0.000812101
-0.000311929
-7.15918e-05
-4.71194e-05
-0.000236201
-0.000331048
0.000368605
-0.000118755
0.000120495
0.000420447
-0.00309264
-0.000539936
-2.33587e-05
-0.000491301
0.00012509
-0.00170851
3.47629e-06
0.000275349
0.000933827
0.00425777
0
-3.16003e-05
-0.000468014
0.000557895
0.000594026
2.29298e-05
0.000174351
-6.66896e-05
0
-0.00339881
-4.52249e-05
8.36577e-05
0.00106168
-4.13157e-05
6.52872e-05
6.74241e-05
-0.000367049
-0.000344791
0.00569954
0.00869722
6.6312e-05
8.28104e-05
-1.91697e-05
-0.00918499
0.00147707
0.0016996
-0.000109582
0
-2.64446e-05
-0.000176609
-0.000416695
1.0583e-05
0.000147084
0.000511633
0.00251136
-0.00311751
0.013486
-0.000404023
-0.000776355
3.07177e-06
0.000467554
-0.000866508
-0.000932563
0.000389451
0.000938451
-0.00124211
0.000950104
-0.000707145
0
0.000260505
0.000815844
0.00387404
-0.029651
-2.13753e-06
0
0.000185605
-0.000114198
-3.38009e-06
0.000635469
-0.0203626
-0.000587777
-0.000341812
-2.49513e-06
0.000281303
0.00650898
8.70649e-06
7.68133e-06
-3.25849e-05
0.00051102
-1.22701e-06
0
0.000861689
-8.21129e-06
7.16025e-06
-1.09149e-05
1.00468e-05
0
0
2.59992e-06
0.00216226
2.32359e-05
1.28695e-05
3.3762e-06
2.00368e-07
6.28112e-06
0
-0.00017466
-2.90384e-05
-3.36545e-05
0
0
0.00175529
0.000101832
0.0067137
-0.000297241
0.000179498
0.00107316
-1.01963e-05
0.00208089
7.47475e-05
-0.00922748
-0.00058097
-0.00387531
-0.000349297
0.00019256
-2.30613e-06
0
-0.00822487
0.0119725
0
0.00894469
-9.6252e-08
-0.000643214
-0.00959454
2.0363e-06
0.0037406
0.0217878
-2.13698e-06
-0.0103155
-6.08128e-07
2.7148e-06
0.0219242
-3.90896e-06
3.96342e-06
1.08851e-05
-0.0035548
5.0233e-06
-2.78629e-05
0.000324932
2.40504e-06
0.00938252
0.0169102
-2.04829e-06
-0.0119763
-0.0155924
-0.0175451
1.6135e-07
-0.000133223
-8.77027e-05
-0.000802558
1.52476e-05
-1.89219e-05
0.000985646
0.00047362
-2.80688e-06
-0.000615852
-0.000186085
0
0.000193313
0.000362975
0.00139579
0.000473148
-3.403e-05
3.66329e-05
-8.64247e-06
0.000754279
0.000517772
-0.010951
0.00943113
-0.00137118
-0.0119098
0.0187267
-0.00506886
9.3085e-05
-0.00587477
0.000532933
0.0182724
0.00249733
-0.000232754
0
0
0.000128888
0.00100736
0.000125717
-0.000603264
0.00092909
-2.81579e-05
0.000136707
2.02102e-06
-7.05402e-06
-1.26182e-05
-7.16022e-07
-3.25097e-06
6.76018e-05
-3.01297e-06
-1.41825e-06
-6.06389e-05
5.40956e-05
1.01918e-05
1.62545e-05
3.95493e-06
1.12983e-05
-2.17778e-05
1.95799e-06
7.92605e-06
-7.01286e-06
-2.7948e-07
0
0
3.05799e-05
1.62287e-05
1.57782e-05
7.36485e-07
0
-5.89442e-06
0.000139921
5.85169e-05
-0.00153062
-7.17659e-05
-1.03527e-05
-3.95541e-05
1.15782e-05
6.31646e-06
-0.00216962
-9.03718e-06
-1.01679e-05
0.000300706
7.60666e-05
-1.2861e-05
2.24271e-05
-1.3266e-06
-0.000109316
4.12262e-06
-3.64952e-06
3.25552e-05
1.88124e-05
9.76332e-06
-3.60291e-06
2.28798e-05
0.000560318
-3.25457e-05
-8.40836e-06
1.51487e-05
-8.79858e-06
6.61615e-05
0.00370148
-0.000599505
-1.00888e-05
8.82229e-06
6.0861e-06
3.50494e-07
-0.000130058
4.23257e-05
8.43632e-05
-3.65119e-05
2.95528e-05
-4.27497e-05
9.50148e-06
-0.000105103
-0.000595271
0.000119928
0.00017289
-8.07283e-05
0.000174028
0.00101917
2.01821e-05
-5.2815e-06
6.33372e-06
4.19164e-05
-0.000331906
0
1.73291e-05
-1.66317e-06
-0.000319547
-0.000521737
6.18398e-05
0.000137191
0.000100321
-0.000111963
-1.15566e-07
0
0.00135509
-0.0271186
-0.00535572
0.000813961
0.000456856
-2.42363e-05
0.00072973
0.000149199
-0.000298168
-0.000365259
-0.000549014
-2.37789e-06
7.22793e-05
0.000146808
5.67815e-05
-0.000133037
-8.12396e-05
-2.31631e-06
-4.94566e-06
0.000372992
0.0031979
-0.00196
0
8.33782
-0.000929273
0.000116049
0.000110219
0.00017551
-1.2062e-05
7.3773
0
0.0549423
-0.000923095
-0.000110407
1.65832e-05
30.0053
-0.000144689
-1.20569e-05
1.55759
-0.00733547
0.0037429
-0.000323551
0.00187594
0.000213354
-2.86917e-05
-0.00930476
0.00065341
9.77877e-06
-0.000264558
-0.00398321
3.77527
-0.0398196
-0.000371103
-0.00558009
-0.000338838
-0.000258805
4.22277e-07
0.373308
-0.000429316
6.97906e-05
-0.000252674
6.11749e-06
10.5894
0.000124745
0.00607827
0.000174984
-0.0312588
0.00171954
-0.0127432
-0.00436074
-6.21954e-05
-0.00586599
13.9854
0.031349
-1.32769
-0.0105581
-0.00831094
0.00964588
6.15459e-05
-0.00024413
-3.49297e-05
0.00039391
6.50526e-05
12.8432
-0.0289638
0.000755788
0.000341923
-0.000283175
-0.0160163
-0.000143295
-7.17219e-08
4.86591
-0.0329266
3.1261
0.0203448
-0.00353346
-0.00635814
8.84093e-07
0.000378061
-0.000298223
1.01816e-05
9.24229
0.00149411
0.00352997
-0.00162952
-0.000101591
0.0256748
7.5403e-05
-0.000412309
0.000306443
3.44133e-06
-3.16642e-05
0.000255876
-0.00122078
-0.000224673
-0.000216739
0.0273192
5.91303e-05
-0.000356803
0.000923153
0.000260327
-0.000126763
0.000234665
-3.69649e-05
-2.88089e-05
-0.000203091
-8.68897e-05
9.31033e-06
0.000424527
2.18088e-05
3.2741e-06
-0.000122175
0.0244347
-0.000635733
-5.27345e-06
8.81782e-05
-0.00175957
-0.00566416
0.0212041
-0.0135329
-9.1687e-05
-1.75285e-05
0.00818975
-0.00102181
-7.79878e-05
-0.00722599
0.0120782
0
0.0053022
-0.0118806
0.000179845
-0.00299404
-0.000208721
0.000418509
-2.29089e-07
-5.01526e-05
-0.000234571
6.85329e-05
0.0219864
0.000818428
-0.00894317
0.000340459
-0.000240477
2.91885e-07
0.000444266
-0.000139022
-0.00250641
0.00147943
0.00285091
0.000739719
-0.00285968
-0.0010141
-0.00750194
-0.00123685
0.00137751
-0.0563099
-0.00126875
-1.00028e-05
-9.53305e-05
8.19053e-05
0.0010657
0.000945755
3.13252e-05
-0.000319778
-1.91652e-05
-0.000330433
-6.93045e-05
-0.00567357
2.36413e-05
-9.56226e-05
-1.48857e-05
0.000168481
-0.000104806
-0.200054
0
0.250794
3.49146e-05
-0.000151653
0.00162268
2.62199e-05
-0.000500212
0.000223419
-3.20847e-05
-0.000397396
-0.000134812
-2.57857e-05
-0.0010255
1.04523e-05
3.70068e-06
0.009836
0.00102089
0.000751699
-0.000147596
-0.000596536
-0.000150938
0.0165817
1.44645e-05
3.30464e-05
-0.000444792
-0.000115486
0.044292
3.59285e-05
1.78976
0.001643
-0.00919134
0.000390105
-4.61528e-05
-0.000313962
-0.000179963
-0.00179386
0.000395468
0.000723069
-0.000565345
-1.65897e-05
5.81453e-05
-0.0112248
-0.000159985
0.000629202
-0.00159313
-0.00185963
0.000132078
-9.89631e-06
-7.42981e-05
9.30378e-05
-0.00108243
-0.00197375
-0.00043723
-0.000109582
-4.14743e-05
0.000964285
0.00474402
-0.00483531
0.00223111
-8.84732e-05
-0.000396506
-5.99684e-05
-0.529918
-0.000157303
-0.0327844
5.29422e-05
-8.2537e-05
1.46263e-05
2.66074e-05
-0.000315738
-0.000199055
-9.28369e-05
0.000153698
-0.000329734
-4.85875e-05
0.0195224
-5.89016e-05
2.91812e-06
0.000124816
0.00156971
0.0861316
-0.00576911
-0.00013
4.42416
-1.62103e-06
-0.00586048
-3.66395e-05
3.94854
-1.67365e-05
0
-0.090276
-0.00069588
0.192644
-0.0033013
1.07691e-05
0.000723367
0.0629363
-0.129859
-0.0524422
-0.11141
0.00109046
0.000500788
0.0171816
0.00412079
0.00139422
-0.00273456
5.38201e-07
-0.0137896
0.000287884
-0.0289079
-0.0347309
2.77213
2.48386e-06
0.0961732
0.283109
-0.144796
0.00654723
0.0338551
-0.358113
1.08768e-05
-1.41066
0.00572735
0.00192058
-0.000882977
3.64694e-05
5.80065e-05
-0.012915
-0.343788
-0.00132209
0.00218161
0.00483019
0.00515902
-0.0296953
5.24057e-05
0.000136272
-0.0936656
0.0705606
1.19089
0.0742241
0.0296731
0.257242
-0.00302179
0.388795
-0.00564144
-0.0471332
0.0102569
-0.00190103
0.000793204
3.07111
2.30651e-05
-0.000987845
-0.00657764
-0.0959299
0.0343699
0.00068401
-0.629907
-1.81776e-06
0.0360708
0.00269497
0.0635735
0.0214332
0.000417369
10.9365
0.000772314
3.68965
0
-0.0156947
0.0611153
-0.0151961
-2.08698e-06
-0.00055588
0.0761352
3.65459e-05
12.7263
0
0.0369118
-0.00086504
-0.0211712
-0.0252182
0.00876159
-0.12319
-0.0292067
-0.0265637
-0.0280659
0.0743913
0.0785209
-0.00248815
-0.00997492
0.0106396
0.0607263
0.00896962
-3.69545e-05
-0.0581504
0.0163093
0.0537072
0.17075
0.0168188
0.000292576
0.000163181
0.000185679
0.000436778
-0.0149924
0.0269075
0.00604271
0.00765532
0.000542538
0.107359
0.058864
0.0299118
0.0564378
-0.00582264
0.0297299
-0.0787832
0.0254588
-0.0877284
-0.00395484
0.49212
0.000446812
0.00457241
0.0300655
0.000118122
-0.00133162
0.00388398
5.82871e-05
0.0040841
0.00151944
0.135583
0.00466712
0.174112
-0.151723
0.0797293
-0.0588503
0.00272627
-0.00362668
0.00445254
-0.0010799
-6.79469e-05
-0.000444087
-0.00302598
0.0315513
0.00747607
0.0161425
-0.0625042
-0.0566228
0.00395301
-0.0142828
0.0773529
-0.000951422
-0.00137487
-0.0035135
-0.000100502
-2.54127e-05
0.000160197
0.0797732
-0.0739987
-0.000875999
0.00420953
-0.0365735
0.000889453
1.86082
0.0062838
-0.214929
-0.245791
0.0826885
-0.0637227
1.18723e-05
-0.00489935
0.0201854
-0.000428015
-0.000510417
-0.000847319
0.00266706
0.00431411
-0.000392101
0.00100483
0.0011243
-0.00652084
0.013171
2.74874e-06
0.150862
0.0995458
4.75401e-06
1.10172
-0.000100786
14.9705
-2.16111e-07
-0.0887129
-5.94616e-05
7.94682
7.72685e-07
0.0713854
0.0408037
-0.161872
-0.0124012
-0.0796224
0.21378
0.056859
-0.0113189
0.000239504
0.204007
0.00173981
-1.54259e-05
1.22608e-06
0.000801862
-0.00648721
-1.114
-0.0121153
-0.0177293
0.00685956
0.0381935
1.96678e-06
1.19417
-5.71335e-07
-1.27411
0
0.0288932
-0.000150602
-0.000186809
0.00955019
-0.00136268
-0.00688118
-0.403491
0.0322099
-0.0163255
-0.000123714
0.0459927
-0.178586
-0.0613473
0.000112164
2.16392
0.0827165
8.92637e-05
-1.32197e-07
16.9143
0.00376551
0.180619
0.00272307
0.0530358
-5.91503e-05
3.00755e-06
3.05215
-0.00188194
0.0316006
0.0889396
0.00856157
0.292695
0.00209557
-0.0127524
-0.107821
-0.0985817
0.0188302
-1.2085
-9.0135e-07
15.4891
3.8006
0.0431877
0.000371621
0.0111673
-0.029597
-0.0653694
2.00884
0.0680964
2.11736
0.00824027
0.0849438
0.363102
-0.011695
-0.000610977
-0.883285
-0.0122435
-0.085543
-0.159169
-4.78825e-05
-0.463388
0.0319035
0.132566
3.46224
-0.0618167
0.315342
-0.0626688
-0.0555955
-0.0487066
0.000765499
-0.0252581
0.0558003
-0.0309096
-1.28314
0.0498366
0.000311505
0.171166
0.00139953
0.00343054
0.0342457
-0.0565725
-6.48331e-07
0.155329
0.00100058
0.0210167
-0.0594103
0.0666633
0.00945634
0.00288916
0.0558125
0.0198013
-0.0161124
0.104267
-0.310328
-0.00144415
0.000155935
-0.00450366
0.0766043
-0.0108851
-0.00175378
-0.0398158
0.00210357
-0.0095839
0.0420419
-0.0528021
-0.0546711
0.00598495
0.039476
-0.0406969
0.0744202
0.00146503
-0.000106196
-0.000149463
0.169844
0.00940837
-0.0603993
-0.0226551
-0.0647455
-0.0341402
2.1434e-05
2.36243
3.61351e-05
1.85094
0.0270995
-0.0166321
0.0352631
-0.0614817
-0.000459301
0.00180347
2.54913e-05
-8.85439e-05
-3.61263e-06
-0.00112231
1.38876e-05
-0.101347
-0.00171056
-0.015272
0.000927096
0.00110529
0.0719989
0.000230705
5.60741
-9.72001e-07
-0.292607
0.0248924
-0.060612
-0.00509844
-0.000621633
0.00224024
0.0475086
0.0373164
-0.135712
0.345461
0.00307969
-0.0280218
0.0116329
0.0207571
0.971515
0.0194002
0.0559673
0.0277757
0.00888559
0.0159819
0.0527894
4.44774
0.0241044
0.0393681
0.0298581
5.1699
-0.00749748
-0.375419
0.00927433
-0.030925
1.10522
0.00511517
0.17204
0.0677969
-6.66196e-05
0.00437764
0.0370944
0.00859072
-0.000384333
-0.00434142
-0.00350509
0.0502864
0.00100703
12.7055
0
0.0719056
1.29418e-05
3.3504
-0.00413719
-0.000994803
-0.0848123
0.867524
0.00326759
0.0165048
1.49499
0.0333233
-0.0527145
-0.0281254
-0.00112618
-0.00023184
0.0817207
0.024817
0.0642225
0.0378686
-4.11727e-05
-0.0736126
-0.0252627
0.0211318
0.0581412
0.0180399
0.0118235
-8.56275e-06
-0.00191532
2.47609
-0.0167702
0.0519319
-0.124643
0.0238153
-0.0606102
0.00901514
-3.71984e-06
0.0664142
2.35824e-06
0
0.0197364
-3.34002e-05
-0.00546567
-0.0143234
0.0166029
0.000408867
0.00287802
-0.00169052
-0.000886818
0.0126031
0.0239608
0.000596252
-0.120331
-0.0109521
0.0373491
-0.0725229
-0.0499467
17.316
0.0224031
0.0231024
0.02788
-0.00567461
-0.00234089
0.000435915
-0.0727409
-0.0244707
0.0122504
2.36982
3.13288e-06
0.00192021
-0.00104408
0.00296368
0.0193909
-0.00786673
0.0580725
-0.0376202
0.0184786
0.0352606
0.0112454
-0.00513473
0.174981
-0.177422
1.08827
0.0016093
0.00352084
0.000875841
-0.0109426
0.141587
-0.00373325
-0.196637
-0.0977373
-0.00379602
-0.0827179
0.0279949
0.00508261
0.000948584
-0.0065405
0.00740557
-0.576875
2.18643e-05
4.29925e-07
-0.0344192
0.000619242
0.00021102
0.0141344
-0.093934
0.00141669
0.0776344
0.00623252
-0.0025235
0.156477
-0.00184956
-0.0011643
-0.012991
0.0712926
0.0214228
9.54661e-05
3.52701
-0.0702543
7.6566
0.0215115
-0.144358
0.0018945
0.307212
0.00212031
0.0437105
2.53972
0.0329692
-0.0385976
-0.251959
-0.347232
-9.42223e-05
-9.17879e-05
0.101867
-0.00324714
-6.46275e-05
-0.138736
0.00922998
1.34086
8.78849e-06
-0.00548366
-0.000351559
-0.062156
0.00156921
0.00602819
0.161961
2.30046
-0.00248641
-0.00871726
9.53102
-0.0754916
0.0275988
-0.0721871
0.106529
-0.0045609
0.0810217
17.408
0.0187607
0.286592
0.0518113
0.16922
-0.0220518
-0.000680714
-0.000108635
-1.54825
-0.065956
0.200196
-4.70774e-05
-0.00146146
0.457343
-0.0174005
-0.0335279
-0.261152
0.00881626
0.00308081
0.0482032
0.755813
-0.0141922
-0.0775693
-1.83619e-06
-0.0115996
0.0371088
0.000482376
0.0578136
0.0371004
12.8391
0.00109879
0.128817
1.02574e-06
1.81086e-06
0.115502
-0.016551
-0.0877154
-0.106614
0.0714861
0.000620618
0.0415122
-0.000285853
0.020546
-0.00423895
8.6815e-06
-7.57125e-05
-0.0123371
-0.0835269
0.0741207
-0.0122427
0.000144874
0.27269
0.0188446
0.000527543
0.0530101
-0.0632022
-0.0325625
-0.00551039
0.00290851
1.96283
-3.69947e-06
0.0626013
-0.000127439
-0.209122
0.0448423
0.215749
0.0176341
-0.00672221
-1.02967e-05
0.000246823
-0.0009164
-0.233692
-0.00858252
0.00458824
-0.000247472
-0.490203
-0.0767836
-0.0647408
0.00336245
-0.000841099
-0.00815699
0.0960762
0.0190691
2.51748
0.081388
0.0243536
0.000260952
-0.000577173
0.46092
0.0797207
0.0228076
0.00209144
3.94001e-05
-0.0217824
0.000256538
0.000215104
19.8053
-3.95423e-07
-0.00875936
0.0506646
-0.000773886
0.497358
0.0670811
1.92839
-0.0158689
0.0392218
-0.00248767
0.000840868
2.30582
0
2.5653
-0.00600945
-0.0289407
-0.003719
0.00335266
-0.000169078
-0.00136791
-0.0163157
-0.00171416
0.325596
-1.70601e-06
-0.0311983
0.0145492
6.96713e-05
0.145541
-0.176132
0.00160363
3.33725
-0.129123
-0.055286
-0.0194607
-0.00215337
0.599597
0.0384809
0.0368577
0.0779251
0.163438
0.0417956
0.00601396
-0.000860942
-0.000239988
1.2032
0.153552
0.242253
0.00673214
0.00364008
-0.013905
-0.0296416
-0.000349102
-0.000968741
0.0149278
-0.00836418
-0.0364655
-0.0400685
-0.00948039
-0.027326
14.5249
2.65384e-06
0.0618238
0.126362
-0.0734391
8.4711
0.0292805
0.172716
0.00262448
0.00196731
0.665079
0.233249
-0.00597312
0.0166512
0.276301
0.000127616
-0.0458906
0.00535113
0.552153
-0.00166912
0.000582553
-0.00327392
-0.0013132
0.103512
0.0512116
-0.0466299
0.0497751
0.0148817
0.00420566
0.0139046
0.702091
-0.000253631
0.312499
0.00907132
1.75087
0.291567
-0.0970068
-0.00721107
-0.0080287
4.90272e-05
0.0679353
-0.119303
0.0264556
0.00505852
-0.0270785
1.21753
0.00406934
6.32696e-07
0.00976323
0.0203819
0.936187
-0.00346015
0.00350956
0.0717904
0.0871678
0.00452512
0.000287894
-0.000100191
-0.000188821
-0.134319
-0.0353379
0.00131807
0.0388987
0.00659129
2.15157e-05
0.094337
1.93142
0.257866
0.0903863
-0.00333179
0.0475191
2.63701
1.57664e-06
-0.0409337
-0.0393347
0.134825
0.0512969
-0.00111472
-0.00379309
3.79183e-06
-0.000167468
0.000699439
0.00269677
-0.000957003
1.5602
3.86391e-06
0.015529
0.0261118
0.182384
-0.000496018
5.84525
0.022118
0.114735
0.521956
-4.91986e-05
0.00025675
0.000342983
-0.000119392
0.0990262
0.000805655
0.00813479
0.00593752
-0.00251767
1.42361e-05
-0.160449
0.0324461
-0.0232725
-0.0618719
-9.0489e-05
0.000305548
0.00347056