# vtk DataFile Version 2.0
Unstructured Grid by M++
ASCII
DATASET UNSTRUCTURED_GRID
POINTS 4072 float
  0.828125   0.890625 0
  0.875000   0.531250 0
  0.828125   0.750000 0
  0.593750   0.968750 0
  0.828125   0.671875 0
  0.828125   0.875000 0
  0.593750   0.937500 0
  0.828125   0.656250 0
  0.828125   0.640625 0
  0.828125   0.843750 0
  0.593750   0.906250 0
  0.828125   0.625000 0
  0.781250   0.968750 0
  0.828125   0.609375 0
  0.828125   0.812500 0
  0.593750   0.875000 0
  0.593750   0.828125 0
  0.593750   0.796875 0
  0.828125   0.703125 0
  0.593750   0.765625 0
  0.828125   0.937500 0
  0.812500   0.875000 0
  0.859375   0.515625 0
  0.812500   0.734375 0
  0.812500   0.937500 0
  0.578125   1.000000 0
  0.578125   0.750000 0
  0.812500   0.687500 0
  0.578125   0.953125 0
  0.812500   0.656250 0
  0.812500   0.859375 0
  0.578125   0.921875 0
  0.812500   0.828125 0
  0.578125   0.890625 0
  0.812500   0.593750 0
  0.812500   0.796875 0
  0.578125   0.859375 0
  0.578125   0.812500 0
  0.578125   0.781250 0
  0.796875   1.000000 0
  0.796875   0.859375 0
  0.796875   0.718750 0
  0.562500   0.984375 0
  0.562500   0.937500 0
  0.796875   0.843750 0
  0.562500   0.906250 0
  0.796875   0.812500 0
  0.562500   0.875000 0
  0.796875   0.578125 0
  0.796875   0.781250 0
  0.562500   0.843750 0
  0.812500   0.984375 0
  0.562500   0.796875 0
  0.812500   0.953125 0
  0.562500   0.765625 0
  0.796875   0.937500 0
  0.546875   0.750000 0
  0.781250   0.984375 0
  0.828125   0.593750 0
  0.781250   0.843750 0
  0.781250   0.937500 0
  0.546875   1.000000 0
  0.781250   0.703125 0
  0.546875   0.968750 0
  0.546875   0.921875 0
  0.781250   0.828125 0
  0.546875   0.890625 0
  0.781250   0.796875 0
  0.546875   0.859375 0
  0.781250   0.562500 0
  0.781250   0.765625 0
  0.546875   0.828125 0
  0.796875   0.968750 0
  0.546875   0.781250 0
  0.765625   1.000000 0
  0.765625   0.968750 0
  0.531250   0.984375 0
  0.765625   0.687500 0
  0.531250   0.953125 0
  0.531250   0.937500 0
  0.531250   0.906250 0
  0.765625   0.812500 0
  0.531250   0.875000 0
  0.765625   0.781250 0
  0.531250   0.843750 0
  0.781250   1.000000 0
  0.765625   0.546875 0
  0.765625   0.750000 0
  0.531250   0.812500 0
  0.781250   0.953125 0
  0.531250   0.765625 0
  0.515625   0.750000 0
  0.750000   0.984375 0
  0.750000   0.953125 0
  0.796875   0.593750 0
  0.796875   0.562500 0
  0.750000   0.843750 0
  0.750000   0.937500 0
  0.515625   1.000000 0
  0.750000   0.906250 0
  0.515625   0.968750 0
  0.750000   0.671875 0
  0.750000   0.875000 0
  0.515625   0.937500 0
  0.515625   0.921875 0
  0.515625   0.890625 0
  0.750000   0.796875 0
  0.515625   0.859375 0
  0.750000   0.765625 0
  0.515625   0.828125 0
  1.000000   0.718750 0
  0.750000   0.531250 0
  0.750000   0.734375 0
  0.515625   0.796875 0
  0.734375   1.000000 0
  0.734375   0.968750 0
  0.734375   0.937500 0
  0.781250   0.578125 0
  0.781250   0.546875 0
  0.968750   0.578125 0
  0.734375   0.828125 0
  0.968750   0.546875 0
  0.734375   0.796875 0
  0.734375   0.765625 0
  0.968750   0.671875 0
  0.734375   0.734375 0
  0.968750   0.640625 0
  0.734375   0.703125 0
  0.968750   0.609375 0
  0.734375   0.671875 0
  0.734375   0.656250 0
  0.734375   0.625000 0
  0.968750   0.531250 0
  0.734375   0.593750 0
  0.984375   0.734375 0
  0.984375   0.703125 0
  0.734375   0.515625 0
  0.718750   0.984375 0
  0.718750   0.953125 0
  0.718750   0.921875 0
  0.953125   0.562500 0
  0.718750   0.812500 0
  0.953125   0.531250 0
  0.718750   0.781250 0
  0.718750   0.750000 0
  0.953125   0.656250 0
  0.718750   0.718750 0
  0.953125   0.625000 0
  0.718750   0.687500 0
  0.953125   0.593750 0
  0.718750   0.656250 0
  0.671875   1.000000 0
  0.718750   0.640625 0
  0.718750   0.609375 0
  0.953125   0.515625 0
  0.718750   0.578125 0
  0.968750   0.718750 0
  0.968750   0.687500 0
  0.953125   0.671875 0
  0.703125   0.968750 0
  0.703125   0.937500 0
  0.937500   0.656250 0
  0.703125   0.906250 0
  0.937500   0.546875 0
  0.703125   0.796875 0
  0.937500   0.515625 0
  0.703125   0.765625 0
  0.937500   0.671875 0
  0.703125   0.734375 0
  0.937500   0.640625 0
  0.703125   0.703125 0
  0.937500   0.609375 0
  0.703125   0.671875 0
  0.937500   0.578125 0
  0.703125   0.640625 0
  0.656250   0.984375 0
  0.703125   0.625000 0
  0.703125   0.593750 0
  0.718750   0.796875 0
  0.953125   0.734375 0
  0.812500   1.000000 0
  0.859375   0.656250 0
  0.703125   0.781250 0
  0.937500   0.718750 0
  0.953125   0.703125 0
  0.796875   0.984375 0
  0.843750   0.640625 0
  0.812500   0.968750 0
  0.859375   0.625000 0
  0.796875   0.953125 0
  0.843750   0.609375 0
  0.687500   0.953125 0
  0.687500   0.921875 0
  0.687500   0.890625 0
  0.921875   0.734375 0
  0.687500   0.796875 0
  0.687500   0.781250 0
  0.921875   0.703125 0
  0.687500   0.765625 0
  0.687500   0.750000 0
  0.921875   0.656250 0
  0.687500   0.718750 0
  0.921875   0.625000 0
  0.687500   0.687500 0
  0.921875   0.593750 0
  0.687500   0.656250 0
  0.640625   1.000000 0
  0.921875   0.562500 0
  0.687500   0.625000 0
  0.640625   0.968750 0
  0.687500   0.609375 0
  0.687500   0.578125 0
  0.937500   0.687500 0
  0.921875   0.671875 0
  0.671875   0.921875 0
  0.906250   0.656250 0
  0.671875   0.906250 0
  0.671875   0.875000 0
  0.906250   0.718750 0
  0.671875   0.781250 0
  0.671875   0.765625 0
  0.671875   0.734375 0
  0.906250   0.640625 0
  0.671875   0.703125 0
  0.906250   0.609375 0
  0.671875   0.671875 0
  0.906250   0.578125 0
  0.671875   0.640625 0
  0.625000   0.984375 0
  0.671875   0.609375 0
  0.625000   0.953125 0
  0.671875   0.593750 0
  0.671875   0.562500 0
  0.765625   0.953125 0
  0.812500   0.609375 0
  0.656250   1.000000 0
  0.656250   0.953125 0
  0.656250   0.906250 0
  0.890625   0.640625 0
  0.656250   0.890625 0
  0.656250   0.859375 0
  0.890625   0.734375 0
  0.656250   0.796875 0
  0.812500   0.921875 0
  0.562500   1.000000 0
  0.625000   0.828125 0
  0.812500   0.843750 0
  0.843750   0.593750 0
  0.812500   0.812500 0
  0.625000   0.718750 0
  0.828125   0.687500 0
  0.640625   0.593750 0
  0.812500   0.781250 0
  0.625000   0.687500 0
  0.765625   0.828125 0
  0.640625   0.562500 0
  0.812500   0.750000 0
  0.562500   0.828125 0
  0.781250   0.875000 0
  0.546875   0.937500 0
  0.781250   0.671875 0
  0.781250   0.593750 0
  0.546875   0.656250 0
  0.796875   0.750000 0
  0.562500   0.812500 0
  0.796875   0.546875 0
  0.765625   0.796875 0
  0.765625   0.593750 0
  1.000000   0.531250 0
  0.812500   0.718750 0
  0.859375   0.562500 0
  0.625000   0.625000 0
  0.812500   0.703125 0
  0.812500   0.906250 0
  0.578125   0.968750 0
  0.984375   0.593750 0
  0.828125   0.578125 0
  0.828125   0.781250 0
  0.593750   0.843750 0
  0.812500   0.671875 0
  0.625000   0.578125 0
  0.796875   0.671875 0
  0.562500   0.734375 0
  0.984375   0.562500 0
  0.828125   0.546875 0
  0.812500   0.640625 0
  0.750000   0.812500 0
  0.625000   0.546875 0
  0.796875   0.640625 0
  0.562500   0.703125 0
  0.828125   0.515625 0
  0.781250   0.734375 0
  0.546875   0.796875 0
  0.781250   0.531250 0
  0.750000   0.781250 0
  0.625000   0.515625 0
  0.796875   0.609375 0
  0.562500   0.671875 0
  0.765625   0.656250 0
  0.765625   0.859375 0
  0.531250   0.921875 0
  0.812500   0.578125 0
  0.562500   0.656250 0
  0.984375   0.687500 0
  0.750000   0.750000 0
  0.812500   0.562500 0
  0.812500   0.765625 0
  0.578125   0.828125 0
  0.562500   0.625000 0
  0.984375   0.656250 0
  0.750000   0.718750 0
  0.812500   0.531250 0
  0.781250   0.656250 0
  0.546875   0.718750 0
  0.781250   0.625000 0
  0.546875   0.687500 0
  0.750000   0.640625 0
  0.796875   0.531250 0
  0.562500   0.593750 0
  0.984375   0.625000 0
  0.750000   0.687500 0
  0.546875   0.984375 0
  0.609375   0.812500 0
  0.796875   0.875000 0
  0.546875   0.953125 0
  0.609375   0.578125 0
  0.843750   0.515625 0
  0.765625   0.515625 0
  0.765625   0.718750 0
  0.531250   0.781250 0
  0.984375   0.546875 0
  0.750000   0.609375 0
  0.796875   0.828125 0
  0.671875   0.968750 0
  0.796875   0.796875 0
  0.796875   0.765625 0
  0.609375   0.671875 0
  0.796875   0.734375 0
  0.546875   0.812500 0
  0.796875   0.703125 0
  0.843750   0.546875 0
  0.609375   0.609375 0
  0.796875   0.687500 0
  0.562500   0.953125 0
  0.796875   0.656250 0
  0.609375   0.562500 0
  0.796875   0.625000 0
  0.609375   0.531250 0
  0.546875   0.640625 0
  0.765625   0.671875 0
  0.531250   0.734375 0
  0.796875   0.515625 0
  0.765625   0.640625 0
  0.531250   0.703125 0
  0.703125   1.000000 0
  0.765625   0.609375 0
  0.531250   0.671875 0
  0.765625   0.578125 0
  0.531250   0.640625 0
  0.546875   0.609375 0
  0.531250   1.000000 0
  0.890625   0.593750 0
  0.656250   0.656250 0
  0.781250   0.515625 0
  0.546875   0.578125 0
  0.531250   0.968750 0
  0.890625   0.562500 0
  0.656250   0.625000 0
  0.609375   0.968750 0
  0.781250   0.859375 0
  0.656250   0.593750 0
  0.750000   0.703125 0
  0.515625   0.765625 0
  0.781250   0.812500 0
  0.781250   0.781250 0
  0.593750   0.687500 0
  0.781250   0.750000 0
  0.593750   0.656250 0
  0.781250   0.718750 0
  0.531250   0.796875 0
  0.828125   0.562500 0
  0.593750   0.625000 0
  0.781250   0.687500 0
  0.828125   0.531250 0
  0.593750   0.593750 0
  0.812500   0.625000 0
  0.578125   0.687500 0
  0.781250   0.640625 0
  0.781250   0.609375 0
  0.593750   0.515625 0
  0.515625   0.781250 0
  0.812500   0.546875 0
  0.578125   0.609375 0
  0.812500   0.515625 0
  0.578125   0.578125 0
  0.750000   0.656250 0
  0.515625   0.718750 0
  0.750000   0.625000 0
  0.515625   0.687500 0
  0.687500   0.984375 0
  0.750000   0.593750 0
  0.515625   0.656250 0
  0.531250   0.546875 0
  0.750000   0.562500 0
  0.515625   0.625000 0
  0.531250   0.515625 0
  0.984375   0.515625 0
  0.750000   0.578125 0
  0.515625   0.531250 0
  0.828125   0.796875 0
  0.640625   0.703125 0
  0.828125   0.765625 0
[...]
CELL_DATA 7648
SCALARS scalar_value float 1
LOOKUP_TABLE default
0
0
0
0
0
0
1.23889
1.06652
0.991012
0.855395
-5.46402e-06
-0.000132958
-2.19237e-05
0.000124323
-1.43248e-06
4.52739e-07
5.39341e-07
2.25935e-05
0
0
0
0
0
0
0
0
0
0
0
0
0
0
9.79882e-10
0
1.43005e-09
0
3.82409e-08
-1.06087e-05
0
0
1.55355e-06
-4.12588e-07
0
0
0
-1.07765e-10
6.61608e-10
3.30712e-10
5.08581e-10
-4.53051e-10
-8.07037e-08
-3.48415e-09
3.90695e-10
4.11772e-10
-8.36473e-10
1.29354e-09
0
0
0
0
0
0
1.53875e-05
2.06875e-06
-1.42036e-05
2.52265e-07
-4.74804e-07
1.41647e-06
1.61934e-06
-3.15522e-08
-7.86392e-08
1.70735e-07
4.64636e-08
0
1.46371e-07
0
0
0
0
0
0
0
0
0
0
0
0
0
0
0
-6.82136e-06
-6.75102e-06
3.09186e-05
-9.94676e-06
-8.23457e-05
4.16179e-05
-5.25234e-05
-7.5845e-06
5.24658e-05
-4.11301e-05
1.56706e-05
-1.04356e-05
-6.5672e-06
-7.40782e-06
0
0
0
0
0
0
0
0
0
0
0
0
0
0
0
0.0400691
0.0190544
0.00763674
0.00804808
0.00404339
0.000459323
0.00265253
0.000365717
0
0
0
0
0
0
0
0
0.204157
0.783026
1.15219
0.72031
6.65108e-05
0
0
-2.12579e-06
-1.23405e-07
5.2837e-07
-6.48167e-08
-2.56647e-09
3.27376e-08
0
0
0
0
0
0
0
0
0
0
0
6.88946e-05
3.89847e-05
-4.80889e-07
5.09722e-06
-1.22781e-07
1.6918e-05
0
1.32516e-05
1.28699e-05
1.36688e-06
-3.15286e-06
0
0
0
0
0
0
0.00744788
0.00109472
0.00129398
-0.00037735
0.000344365
-7.89416e-05
1.84451e-06
-3.23902e-05
0
0
0
0
0
0
0
0
0
1.59068e-06
5.99958e-05
2.5364e-06
2.87828e-05
0
0
0
0
1.18138
0.94114
0.78568
0.700811
2.02036e-10
0
0.463659
0.34744
0.168569
0.433107
0.2573
0.0882208
0.00813086
0.088499
0.268675
0.138714
0.1107
0.0725148
-1.05772e-09
-8.23971e-10
4.64787e-09
1.17485e-09
3.52161e-07
2.25679e-07
-8.80093e-08
1.94532e-06
1.42837e-07
-5.24263e-07
-4.07692e-06
1.23479
1.2508
1.16759
1.14801
0
0
0
0
0.592642
0.499237
0.684487
0.275333
0
0
0
0
0
0
0
0
0
0
0
0
0
0
0
0
0
0
0
0
0
0
0
0
0
0
0
0
0
1.22312e-08
-3.32631e-08
-2.48919e-09
0
0
0
0
0
0
0
0
0
0
0
0
0
0
0
0
0
0
0
0
0
0
0.00124818
0.00143662
-5.58373e-10
0
1.14612e-10
4.07923e-09
0
0.113146
0.0333519
7.88647e-07
0.0516931
0.306496
0.00514368
-3.29488e-07
0.329403
1.1755e-08
-1.11035e-08
2.90151e-07
3.92929e-08
4.31672e-09
-4.18944e-08
0
0
0
0
0
0
0
0
0
0
0
0
0
-0.000451306
-6.93641e-05
-2.61301e-10
0.3608
0.0028092
0.240469
0.0276634
-0.00113887
0.567416
0
0
0
0
0
0
-2.19608e-09
-5.39637e-10
0
-8.20321e-08
4.16405e-05
-1.38274e-08
0.137169
0
-0.0131221
0
0
0
0
0
1.91533e-10
0
0
0
0
0
-1.77482e-09
0
0
0
0
0
0
0
0
1.4139e-09
0.00588513
0
0
0
0
0
0
1.4295e-09
0
0
0
0
0
0
0
0
0
0
0
0
0
0
0
0
0
0.0795941
0
0.0449648
0
0
0.0167978
9.05138e-06
0
0.0756899
0.000247101
0
0
0
0
0
0
0
0
0
0
0.337988
0
0
0
-1.84027e-10
3.99521e-07
-1.26512e-10
-9.41571e-05
0
0
0
-1.22593e-10
0.0210591
0.000132259
0
0
0
0
0
0
-8.20084e-05
0
0
0
0
0
0
0
0
0
0
1.9501e-09
-1.80967e-10
0
-1.2921e-08
0
0
0
0.17636
0.405051
0
0
0
0
2.2621e-10
0
0
0
0
0
0
0
0
0
0
1.1852
0.93273
0
1.49528e-09
0
0
0
0
-3.36997e-08
-6.59691e-06
-5.32349e-08
-4.96213e-09
0
5.52269e-07
0
5.99008e-09
0
0
-9.8049e-08
0
0
-2.67156e-10
0
0
0
0
-1.62242e-06
0
-5.18425e-08
0
0
0.0101534
0
0
0
0
0
0
0
0
0
0
0
0
0
-1.8341e-10
0
-1.09131e-09
8.4514e-08
0
0
-1.0907e-05
4.13537e-06
0
2.38855e-09
0
0
0
2.13807e-10
0
0
2.44958e-07
0
0
0
0
0
0
0
0
0
-1.72151e-07
-0.00961586
0
0.0314885
0.0413023
0
0
1.18661e-09
0
0.100426
0
3.82382e-06
0
0
0
-1.79844e-10
0
0
0
0
0
0
3.50209e-09
0
0
0
0
-4.23392e-10
3.34851e-09
1.2896e-10
-2.30385e-10
0
-2.66102e-09
0
-0.000870404
2.3204e-10
1.79642e-10
0
0
0
0
8.5363e-09
0
-8.66131e-08
-4.05396e-06
1.37429e-06
0
-5.18803e-09
-7.45905e-05
0
0
4.02953e-09
0
0
0
0
-4.34839e-09
0
0
-8.05925e-05
6.79334e-06
1.19677e-08
0
-7.17971e-08
0
0
0
0
0
0
0
0.000119972
0
-0.0236459
0
0
0
0
0
0.00213541
0.000142451
0
0
0
0
-4.05149e-06
0
0
9.29476e-10
5.11743e-09
0.607173
-3.71811e-10
0
0
0
0
4.46058e-06
0
0
0
0
0
0
0
0
0
0
0
0.0425762
0
1.06286e-06
0
0
8.02274e-10
2.14708e-06
1.13409e-05
1.45138e-06
0
0.16817
-6.60415e-06
0
2.1294e-09
0
0
0
3.28452e-06
0
-2.11158e-07
0
-2.98936e-05
0
0.0011297
-3.48076e-09
0
-1.35758e-07
0
0
0
0
0
-7.69263e-08
0
0
2.44659e-05
0
0
0
0
0
0
0
0
0
0
-8.82269e-10
0
0
0
0
0
0
0
0
0
2.98579e-08
0
0
0
-1.66832e-08
0
0
-1.57395e-10
0
0
0
0
0.00020313
0
0
-9.14402e-06
0
0
0
-7.504e-10
-1.3362e-10
0
0
7.9751e-09
-8.621e-10
0
0
-1.63943e-08
1.57895e-07
-1.16863e-08
-8.57523e-08
-5.21208e-08
0
0
6.46022e-06
0
0
1.01446e-09
0
0
5.21655e-06
0
0
0
0
0
3.40269e-05
0
0
0
0
-5.82875e-06
1.2464e-10
0
4.17124e-09
0
0
0
0
0
0
1.8671e-05
0
-2.87152e-07
0
0.0112614
-1.24668e-05
0
0
-0.000225763
-7.84456e-05
0
1.14158e-05
0
0
0
0
0
0
0
0
0
0
0
0
0
0
0
0
1.266
0
0
0
1.0298
0
0
5.17881e-08
-2.8298e-09
0
3.65836e-09
7.84337e-09
2.62053e-08
0
0
0
0.0032718
0
0
-1.227e-06
0
0.125658
0
0
1.9499e-10
0
-3.78701e-06
-2.32875e-09
0
-5.37858e-10
0
0
0
1.16374e-05
0
0
0.783411
-3.39836e-07
0
0
1.97183e-10
0
0
0
0
0
2.69149e-10
0
0
0
0
0
0
5.55261e-10
1.47561e-08
0
0
0
0
0
0
0
0
0
0
0
0
0.0507668
0
0
0
0
0
4.54011e-09
0
0
5.86713e-06
-1.11358e-10
3.74763e-10
1.2249
0.00044932
0
0
0
0
-1.70541e-10
7.82814e-08
0
4.91605e-09
-1.00895e-05
-1.32189e-08
0.0137793
0
0
0
0
0
0
0
0
0
0
0
0
0
0
0
0
0
-3.07923e-06
0
7.92988e-07
-2.51079e-05
-2.18368e-05
0
-1.60834e-06
0
0
2.39197e-10
-9.95876e-10
1.20897e-05
-2.44677e-08
1.09661e-09
0
-4.05489e-06
0
0
-1.4342e-05
1.19868e-05
0
0
0
0
0
0
0
0
0
-3.14018e-10
0
0
0
1.81926e-10
0
0
-1.38466e-08
0
0
0
0
0
0
0
1.63313e-07
0
0
0
0
0
1.04774e-10
0
0
-1.50212e-06
0
0
-1.79379e-10
0
8.9969e-09
0
0
1.53171e-10
2.23413e-05
0
0
0
6.64394e-06
-4.67884e-10
0
-3.46483e-08
2.87667e-06
0
0
0
0
0.000729486
-2.50115e-10
0
0
9.69537e-08
-9.99946e-09
0
0
0
-8.9168e-05
0.133071
0
6.36136e-10
2.20505e-09
0
0
0
0
0
1.01231e-06
4.42363e-06
0
2.61701e-08
0
4.62817e-07
-6.6517e-07
8.41469e-09
0
-1.81049e-09
-2.65334e-07
0
-5.19328e-09
0
-3.56716e-07
0
-4.62117e-06
1.24653e-06
0
1.0576
0
0
0
0
2.43503e-10
0
6.5388e-09
0
0
-6.91187e-10
-8.99953e-10
0
0
0
1.2039e-09
0
0
0
-2.25491e-09
0
0
0
1.82207e-09
8.29611e-10
0
0
0
0
-1.40349e-09
1.36778e-09
1.97151e-09
-3.6009e-09
0
0.00137863
1.44232e-09
-0.00147759
0.0249859
0
0
-2.53554e-09
0
0
0
-8.79629e-09
0
0
0
0
-1.77445e-05
4.83186e-05
4.88179e-07
2.0192e-05
0
0
0
0
0
0
0
0
0
-3.10691e-09
0
0
0
0
3.51585e-10
0
0
-2.50039e-10
0
0
1.74035e-05
-1.28688e-05
0
2.56332e-05
1.48014e-08
0
-1.86684e-06
0
0
0
0
0
0
0
0
0
0
0
5.80861e-06
0
1.23782e-05
0
0
2.81452e-10
2.57019e-10
0
7.79811e-05
0
-0.00456675
0
0
-1.45142e-08
2.90666e-08
0
0
0
0
0
0
0
0
-3.27411e-05
3.05898e-05
0
-5.36993e-05
0
-3.1029e-06
2.62092e-06
-1.2188e-05
0
0
0
0
0
0
0
0
0
0
0
0
2.7835e-07
7.41977e-08
-2.79702e-10
1.8979e-07
-1.57106e-10
6.54387e-09
0
0
0
0
-2.65213e-10
0
0
0
0
0
0
0
0
7.77171e-10
0
0
0
0
0
0
1.2222e-10
0
0.000133851
-1.58824e-08
7.86532e-06
0
-4.7543e-05
0
5.30046e-05
1.52625e-09
0.000105139
0
2.09267e-07
0
-1.11241e-09
0
-1.18852e-09
0
0
0
0
0
0
0
0
0
4.05568e-08
0
-2.14581e-10
4.40466e-08
0
-3.77215e-08
0
0
0
1.62675e-10
3.85855e-05
-2.27525e-08
0
-0.0002306
0
0
-5.50931e-09
-0.0025067
0
-6.73861e-09
0
1.42419e-08
-4.30397e-07
0
0
0
0
-1.76135e-08
0
0
0
0
-2.21981e-06
0
-4.00842e-07
1.50622e-09
-7.9394e-10
0
0
0
0
-1.3948e-10
0
0
-1.16815e-10
0
0
0
0
0
1.6726e-08
6.09989e-08
4.86931e-08
0
0
0
0
0
0
0
0
-2.87779e-10
-7.82649e-06
0
0
0.0457584
2.8905e-08
0
0
0
0
0
0
0
0
0
0
-1.59106e-07
-1.39083e-06
0
-1.27535e-05
1.23381e-05
1.07898e-05
-2.07898e-05
-0.00226812
0
0
0
0
0
0
0
0
0
0
0
0
0
1.10588e-08
0
0
0
0
0
0
0
0
0
0
2.53634e-10
0
2.63296e-09
-2.43277e-10
0
0.000239552
-0.000286859
0
0.466553
-0.0266362
-3.32469e-09
0.0016584
0
0
0
-1.42242e-08
0
-2.12166e-05
0
2.44848e-05
-9.99187e-07
1.9421e-05
0.00011518
-1.87158e-10
0
0
0
3.90689e-08
-1.04704e-05
2.93301e-06
-5.61871e-10
-6.41384e-08
1.77812e-08
-2.61202e-09
0
0
0
0
0
0
0
0
0
0
-6.35778e-06
7.66226e-06
-4.28885e-06
-1.60194e-06
-3.36341e-05
-3.61511e-06
0.000307296
0
0
0
0
0
6.77557e-08
0.00734321
0
5.03219e-09
0
0
0
0
0
-2.68085e-05
2.0443e-05
9.53539e-07
0
0
0
0
0
0
0
0
0
0
-3.83202e-10
-4.56257e-09
-1.38301e-09
1.29907e-09
-3.72381e-10
3.08579e-08
3.8959e-10
3.1451e-10
0
0
0
0
0
-4.11157e-07
5.46711e-08
5.14501e-07
2.7611e-06
0
0
0
-2.16203e-05
0
1.707e-10
-2.71767e-10
-1.04376e-09
7.21083e-10
1.16467e-07
0
0
0
1.8921e-10
0
0
0.000906708
9.98095e-05
0
0
0
0
0
-3.52326e-07
-2.82034e-06
-4.99096e-06
-1.5529e-06
0
0
0
-3.80945e-10
0
5.45416e-09
5.20323e-07
0
1.40618e-06
0
0
0
2.488e-07
0
0
0
0
0
0
0
1.14716e-07
0
0
0
0
0
0
7.51331e-06
0
6.21775e-06
1.7253e-05
0
0
0
3.77175e-10
-4.48028e-05
8.37995e-05
2.39643e-08
0.00109931
0
0
0
0
0
1.17938e-07
0
0
0
0
-6.96871e-08
0
0
2.74155e-09
0
0
0
0
-1.6002e-10
0
0
0
1.80671e-09
0.000383736
2.10454e-06
-9.56718e-06
0
0
0
0
0
0
-2.50538e-07
4.50002e-05
0
-6.47915e-07
0.00162017
0
0
0
0
0
0
0
0
0
0
0
0
0
0
0.00048272
0.00557978
0
0.000173403
0
1.63151e-08
6.07986e-08
0
0
-7.46617e-10
-3.4723e-05
-4.013e-05
6.93072e-06
-2.35129e-08
-4.78821e-10
-2.59261e-09
0
0
0
0
0
0
0
0.000105154
0
0
-9.57369e-07
-9.9136e-09
-2.14904e-08
0
0
0
0
0
0
0
0
0
0
0
0
0
1.68185e-08
0
0
0
0.000126099
-0.000104217
0
0
0
-8.09447e-10
0
0
0
0
0
0
-1.80708e-05
-9.82625e-05
0
0
0
0
0
0
0
8.29324e-09
0
0
0
0
0.000307268
2.59769e-09
1.85305e-09
3.09114e-09
3.22808e-08
0
9.61405e-10
-6.59903e-10
0
0.000608952
0
0
0.00277659
-0.00179451
0
3.81462e-07
0
0
0
-5.07357e-08
3.40404e-08
0
0
1.53666e-05
0
0
0
2.06117e-08
0
0
0
0
0
0
0
0
0
0
0
-5.99102e-10
1.15943e-09
0
0
0
0
0
0
0
-2.80773e-10
-6.10907e-10
0
0
0
0
0
3.36099e-05
0
0
0
0
0
0
0
0
0
0
0
0
0
0
0
0
0
7.68222e-06
-1.0661e-05
1.66838e-10
0
0
-5.34698e-08
4.03593e-06
0
0
6.09362e-10
-4.18948e-10
1.8616e-10
0
0
0
0
0
3.76412e-10
0
0
8.91331e-05
-0.000183565
0.000782264
0
0
0
-0.000183333
0.00532091
-0.000948714
0
0
0
-0.00014372
6.86338e-05
0.00191161
0.00161869
0
0
0
0
0
0
0
0
0
-0.000407193
0
0
0
0
0
0
0
0
0
-2.23349e-07
0
0
0
0
-5.73387e-07
-1.01584e-06
1.50111e-06
0
0
0
0
0
5.31752e-08
1.7533e-06
5.84134e-06
0
0
0
1.4085e-08
-2.91949e-10
0
1.81864e-06
3.56113e-06
0
0
-2.31674e-06
-2.61602e-05
-7.36218e-06
0.000210594
0
2.18357e-05
0.000110668
0.000151638
-2.87776e-08
0
-5.8543e-07
-3.83074e-08
0
0
0
0
0
0
0.144572
0.239848
2.31478e-08
0
0
0
0
0
0
0
0
0
0
0
0
0
0
0
-3.46689e-07
0
0
4.07821e-10
2.54566e-08
0
-5.09879e-06
0.000104934
6.88577e-05
0
0
0
0.00160579
0.00454138
7.17121e-09
9.43427e-10
0
0
0
1.73602e-08
1.53971e-07
4.12502e-08
5.31133e-09
-2.44761e-08
0
0
0
0
-6.80903e-08
0
0
0
0
0.000251971
0.0301236
-4.96604e-10
-2.68363e-09
-7.52235e-10
0.00496508
0.00197175
0.00736009
-3.31518e-07
0.00855063
0.0256444
0.0330034
0
0
0
-5.01749e-07
-1.71455e-08
9.74683e-08
0
0
0
1.06012e-09
-5.97339e-08
-2.59885e-06
0
1.41655e-05
0
0
0
0
0
9.28586e-08
2.3561e-08
0
0
0
0
0
0
0
-6.22847e-09
0
0
-1.6305e-10
0
0
0
0
0
0
0
0
0
0
0
6.99368e-05
7.44842e-05
0
0
-1.28333e-09
6.96375e-08
6.57543e-10
-3.40705e-09
0
0
0
0
0
0
-3.40066e-07
-1.59444e-07
0
0
0.000164629
0.000634737
0.000708871
0.000726698
1.53739e-07
-9.63174e-09
0
4.0854e-09
0
0
-2.84951e-10
-1.12862e-08
0
0
0
0
1.82761e-08
-3.14768e-06
-6.52406e-06
0.00259685
0.00796014
-0.00584566
0.0321473
0.0645435
0.0481649
-0.311622
0.52476
0.876009
-0.0127928
0.0173603
-0.021835
0.00564928
0.0132805
-0.0177965
-0.0107994
0.120218
-0.265602
0.0495843
0.50799
0.75017
3.93647e-09
7.76405e-08
-2.42185e-06
1.3478e-05
3.06156e-06
0.000402837
0.0026744
-0.00390101
0.0202242
-0.0350646
-0.0786289
-0.0188783
0.352694
0.994297
0.000984082
-0.00388344
-0.000514771
-0.000269767
-0.0107058
0.0259588
-0.026656
0.00711508
0.0941081
-0.288529
0.212862
0.567571
0.895608
1.20293e-08
-2.57882e-07
-1.82469e-05
2.62097e-05
0.000224108
0.00140458
-0.00613459
0.0136476
-0.0214565
0.0275633
-0.0724435
0.135904
-0.151053
-0.115578
0.774592
-0.00352317
-0.00664506
0.00711692
-0.0264925
0.040274
-0.0734729
0.0924275
-0.0177912
-0.240566
0.399537
0.762642
1.15727
-4.86875e-09
-4.48658e-08
-3.04547e-07
-8.41618e-05
-0.000284982
-0.000311179
0.00847957
0.0147073
0.0106521
0.0162134
0.0213517
0.0115605
-0.218378
0.209186
0.744454
0.484375
-0.00136583
-7.71877e-05
0.0027426
0.0110479
0.0161715
0.0153277
0.00431279
0.0206383
-0.208341
0.175769
0.785014
0.936694
0.327678
3.30608e-09
1.30357e-08
1.114e-07
-2.29468e-06
3.51588e-05
-0.000134011
-0.00260908
-0.00125352
-0.0121744
-0.0449463
-0.0620478
-0.0216879
0.019569
0.277092
0.785572
0.311357
-1.42666e-06
2.15477e-05
0.0140495
-0.00906706
-0.0247562
-0.0423502
-0.0477314
-0.035637
-0.0124268
0.0604871
0.186429
0.405898
0.733821
0.690113
0.293203
-0.0306915
-1.55384e-09
-1.66496e-08
-1.33635e-07
-4.29183e-06
4.2346e-05
-0.00146183
0.0196941
0.0163704
0.0526597
0.141702
0.284046
0.321035
0.307492
0.303927
0.271134
0.190611
0.0155547
0.00253466
6.04079e-10
2.36336e-07
-2.0255e-07
6.67673e-06
0.0444988
0.180739
0.272662
0.360806
0.437954
0.477482
0.464716
0.409602
0.343085
0.289864
0.18883
0.0876006
-0.0199819
-0.0289381
0.033777
7.6328e-10
7.78795e-10
-1.93398e-09
-5.60374e-08
-9.06767e-08
4.81385e-07
-0.000117381
0.0206065
0.0670087
0.10671
0.138475
0.166464
0.155088
0.18527
0.399298
0.744385
0.794845
0.0230212
-7.83806e-10
-3.18249e-08
-3.88361e-06
-2.91837e-05
-0.0065817
0.00269767
0.00701207
-0.00239064
-0.0148219
-0.00320659
-0.0189027
-0.0104012
-0.000689848
-0.0922965
0.343131
3.96652e-06
1.08908e-05
0
5.94752e-06
0
0
-1.52778e-10
-1.37436e-10
0
2.2817e-10
3.17062e-05
4.50045e-09
2.50559e-09
-4.8155e-09
7.13311e-08
1.66887e-07
1.07406e-07
2.39153e-07
5.75135e-07
-2.47173e-06
-1.14579e-06
-5.9474e-07
-8.21334e-06
-5.53195e-07
1.00968e-10
-1.52466e-10
8.45733e-08
-1.0161e-08
-3.43365e-07
0
4.24363e-06
0
1.12298e-05
0
0
0
0
0
2.60575e-10
2.31359e-09
0.851852
5.39095e-09
0.295495
4.01308e-09
-2.11596e-08
-1.18853e-07
-1.53985e-07
-4.93922e-07
2.02409e-07
1.20828e-06
1.30149e-06
-1.16545e-08
0
-5.97421e-06
0
0.000104657
0.123224
-2.54231e-10
-0.24039
1.11775
2.48444e-08
2.66354e-07
-1.78033e-07
0
-1.66173e-06
0
-2.61318e-08
-0.00528857
0
0
0.000381055
0
-0.0235437
0
0
0
-7.1877e-06
-0.255416
2.64993e-10
8.7994e-10
0.590252
-1.08819e-09
0.0685759
-3.27376e-09
5.37479e-10
5.25567e-08
3.31765e-08
9.05896e-08
3.45528e-07
4.4946e-08
-1.35563e-07
-2.09106e-07
1.21583e-06
0
-0.00244479
0
-8.93908e-06
0.140631
-1.705e-10
0.0495533
1.14265
-1.96825e-08
-8.50057e-08
0
-8.41375e-08
0
2.74519e-06
0
0
-5.3083e-07
0.0018402
0
-0.0279767
0
-0.0456337
0
-0.0950213
0
0.0110544
0
1.0521e-05
-0.277688
0
-7.02387e-10
0.737767
0
3.68903e-09
9.19151e-09
-1.25858e-08
1.18886e-08
5.74665e-09
-4.86476e-09
-1.48051e-07
-2.08348e-07
-2.42149e-07
-1.67386e-07
0
5.87069e-08
1.80561e-06
0
0.0188066
2.91966e-10
0.35433
1.21209
-5.25589e-09
3.75726e-08
0
8.64333e-08
0
0
-0.00425318
0
0.0222273
0
0.0654604
-3.93573e-10
0.000142622
0.119146
3.62387e-10
1.33934e-09
1.0404
-1.27551e-09
-4.39699e-09
-5.73257e-09
2.31191e-09
-1.1829e-08
-1.82262e-08
-1.14515e-08
1.74928e-08
6.91064e-08
0
5.48523e-08
0
-0.00211058
-1.54133e-08
5.73496e-08
0
0
0
0
-0.00204993
0
-3.97772e-07
-0.00554867
0
1.82118e-10
-5.2479e-10
0.496552
2.39663e-10
0
-1.94156e-09
7.89357e-09
0
-3.58142e-09
0
1.55341e-10
-3.27152e-08
-5.8003e-08
-4.26108e-08
-2.27276e-08
5.62013e-09
0
0.000871562
6.35007e-09
0
0
-0.000473689
0
-0.0107275
0
-0.0171617
0
-0.0448788
-5.56716e-10
-0.000289403
0.365525
-1.20219e-09
-7.41729e-10
1.47177e-09
4.59405e-09
-2.29702e-09
-7.39379e-09
1.74525e-08
1.84921e-08
1.12426e-08
-5.74719e-09
0
7.03264e-10
-0.00159225
-3.70972e-09
0
0.00677596
-4.63819e-09
0
0
0
0
-0.00444924
0
-4.59287e-07
-0.00107927
-1.14099e-10
6.44479e-07
0.140312
2.84729e-10
1.08852
1.0206e-09
-2.16114e-09
-4.13409e-09
0
-2.01848e-09
0
0
0
0
0
-0.00520382
0
0
0
0.00080894
0
0
3.95775e-05
0
0
0
-0.000746336
0
0
2.63635e-05
0
0
0
0
0
-1.9786e-09
0.418172
-1.7245e-09
0
0
-9.03684e-05
-5.38767e-10
-4.93017e-09
0.00192284
-1.00372e-10
-6.70237e-09
-2.76355e-10
0
0
0.000306572
-1.94414e-08
-3.5101e-09
-0.00163298
-1.5809e-10
0
-6.75732e-08
2.28088e-08
6.63896e-08
0
-1.65345e-07
3.01821e-08
-3.35514e-09
4.09152e-05
0
-4.02299e-07
6.83305e-08
-5.77012e-07
0
-4.67365e-10
0.00469746
2.45453e-06
5.31637e-08
-3.86423e-09
0
-3.79229e-09
0
0
3.05139e-09
4.82091e-09
-0.000664889
-2.52056e-05
2.00721e-07
1.23582e-08
-2.09499e-10
0
-5.20849e-05
-3.98823e-07
0
1.70605e-08
2.3456e-09
3.03667e-05
3.09408e-07
-1.20753e-06
-8.40658e-05
0
-2.63667e-08
-4.51805e-09
0
2.50511e-06
-3.21403e-08
0.000143556
-2.00668e-07
-1.04993e-08
0
-1.10087e-08
-0.000190255
-0.000892817
8.57414e-08
0
2.71126e-05
-4.56536e-09
-0.000211109
-1.32702e-07
0
2.15081e-10
-0.000117312
0
0.00265664
7.88054e-07
0
-1.18092e-10
0.000275049
0
-1.52633e-05
-4.37725e-10
0
0
1.03412e-09
0
9.49908e-10
-0.0132301
2.04503e-07
0
7.18941e-06
0
-5.39296e-07
-8.85051e-07
6.79893e-06
-1.83185e-08
-0.000107507
0
0
0
0
0.00395825
-1.23402e-07
0.0543315
-1.77425e-08
-0.000182096
0
0
0
-0.00292178
0.932422
0
0
0.00236046
-3.88147e-06
-2.96287e-07
0
-1.49352e-10
0
0
0
0
-8.00936e-05
-0.0159084
0
0
0
0
0
9.86211e-05
0.302143
-3.39447e-10
0
0
-0.000130429
0
5.11011e-09
-4.59448e-10
0
-3.00954e-05
-2.02029e-09
6.87635e-08
-1.08098e-08
4.58737e-07
0
-0.0510346
-2.81348e-05
0
9.1557e-10
1.13782e-05
1.45561e-10
0
-0.0171773
-3.84084e-08
-0.000173961
0
0.00604446
-9.45114e-08
-1.58933e-05
0
0.00182562
-2.294e-06
0
-1.98495e-07
0
-0.00324516
-7.91952e-05
0
0
0.000728726
-2.8067e-08
-0.000191856
0
1.76943e-09
0
-5.38964e-05
8.28439e-09
-1.76199e-05
1.90369e-07
0
-0.000233082
0
-1.17589e-09
0.0585271
0.046228
0
6.44681e-07
-0.00255911
0
0.00180267
0
-1.64564e-08
0.226841
-0.230723
0
0.00651526
0.000195593
0
-0.0351803
0
0.00024297
0
1.03805e-09
-0.0917903
0
0
1.20307e-05
0
6.66218e-08
0.303267
-9.96156e-05
0
1.32046e-08
0.117397
0
2.9159e-10
3.87866e-05
0
4.0167e-06
0.00370396
1.02419e-10
1.22283e-08
6.46029e-09
0.00287928
0
1.17492e-07
0
0.000566206
0
0
-6.85866e-09
-0.0144848
2.90073e-07
0.00010065
1.68819e-10
0
0
0.0335762
0
0.00202558
-1.55159e-06
0
0
0.00376785
0
8.74858e-09
-1.24435e-08
-0.00581213
1.0811e-05
0
1.21241e-06
0
1.25481e-10
0
1.08084e-07
-2.27595e-08
1.77105e-05
0
-9.29604e-07
-1.49711e-10
2.54652e-10
2.54408e-07
0
0.000122621
0
-2.87801e-06
-5.35801e-08
3.11986e-09
-1.42236e-10
0
-5.5531e-06
-9.72802e-07
0
5.01894e-09
-3.66139e-09
0
4.0451e-05
0
9.31851e-06
3.42472e-05
1.78409e-08
-1.20652e-10
1.96041e-05
2.35976e-06
1.43366e-10
-9.87744e-09
-0.00299601
-2.79534e-05
8.99604e-10
4.06145e-09
0
-8.33862e-09
0.00111327
-3.36777e-10
4.7595e-06
0.0142539
3.1039e-06
-4.59183e-08
-0.000315075
0
-0.0640096
0.0350662
0
0
0
7.32551e-08
8.28644e-08
-0.0527403
0.0144537
-0.00070812
5.37828e-08
0
1.84331e-08
8.49711e-10
0
0
1.9273e-07
0
0.000118058
0.00128385
1.1301e-07
2.65892e-05
2.49129e-06
0
0
-0.000229582
0
0.101883
0
-0.000184516
0
7.06073e-10
-1.84619e-08
0
1.00421e-09
-1.86409e-09
-1.71054e-05
0
2.79793e-08
0.0021698
0
0
-3.22796e-10
0
2.03839e-09
-8.38813e-09
0
0.000249544
0.000276233
6.95856e-06
-1.43496e-09
0.0001246
8.08801e-10
1.44122e-06
1.52375e-08
-6.46296e-07
0
-0.000754473
3.56384e-06
-1.13963e-06
0
0.0409706
5.12509e-05
0
-0.000442261
0.000517031
0
0
0.00184336
-5.45086e-09
-1.63555e-09
-2.04382e-07
0
-0.000225559
1.28671e-05
0.00183537
-1.03056e-07
-0.000120462
2.93805e-07
4.3659e-05
0
3.78434e-09
0
1.40384e-10
0
0.00172868
1.50355e-07
-1.2958e-05
0
0
0
0.0113329
0.114929
-1.2444e-07
9.99869e-08
0.000591034
0
0
0
0.0825952
-0.000258929
3.15353e-05
0
-0.0145546
0
3.51014e-09
-1.00024e-07
-0.292287
-0.00114236
0.000408698
0
0.225934
6.8694e-09
1.55557e-10
0
-7.2697e-06
-7.94228e-07
3.68289e-08
0
-2.28479e-09
0
-7.24455e-08
9.73102e-08
0
0
-0.000122009
6.3769e-05
1.04385e-06
4.48727e-07
-5.43741e-10
-6.48815e-10
0
0
-4.48356e-07
0
-1.93184e-09
0.000433631
-2.10725e-10
-2.07244e-07
-8.57581e-10
-1.64745e-05
0
0.0342626
-0.000426283
0
7.64519e-09
0.120029
0
2.27061e-09
0.000276919
0
0
0
-1.6876e-06
-6.38515e-05
0
5.94724e-10
0.0688176
0
3.74382e-09
-0.000189577
3.23962e-07
-4.09855e-08
-3.63203e-06
0
0
2.55406e-05
0
0
0
6.60408e-05
-1.71673e-09
0
0
0
-1.82513e-10
0
0
0.00234096
-0.00178225
0
0
-2.67773e-10
1.2476e-08
5.15539e-09
-0.000144619
-0.000655926
-3.98844e-10
-0.000323292
-6.95488e-07
0
3.06352e-09
-5.72e-05
4.84505e-08