# vtk DataFile Version 2.0
Unstructured Grid by M++
ASCII
DATASET UNSTRUCTURED_GRID
POINTS 4072 float
  0.828125   0.890625 0
  0.875000   0.531250 0
  0.828125   0.750000 0
  0.593750   0.968750 0
  0.828125   0.671875 0
  0.828125   0.875000 0
  0.593750   0.937500 0
  0.828125   0.656250 0
  0.828125   0.640625 0
  0.828125   0.843750 0
  0.593750   0.906250 0
  0.828125   0.625000 0
  0.781250   0.968750 0
  0.828125   0.609375 0
  0.828125   0.812500 0
  0.593750   0.875000 0
  0.593750   0.828125 0
  0.593750   0.796875 0
  0.828125   0.703125 0
  0.593750   0.765625 0
  0.828125   0.937500 0
  0.812500   0.875000 0
  0.859375   0.515625 0
  0.812500   0.734375 0
  0.812500   0.937500 0
  0.578125   1.000000 0
  0.578125   0.750000 0
  0.812500   0.687500 0
  0.578125   0.953125 0
  0.812500   0.656250 0
  0.812500   0.859375 0
  0.578125   0.921875 0
  0.812500   0.828125 0
  0.578125   0.890625 0
  0.812500   0.593750 0
  0.812500   0.796875 0
  0.578125   0.859375 0
  0.578125   0.812500 0
  0.578125   0.781250 0
  0.796875   1.000000 0
  0.796875   0.859375 0
  0.796875   0.718750 0
  0.562500   0.984375 0
  0.562500   0.937500 0
  0.796875   0.843750 0
  0.562500   0.906250 0
  0.796875   0.812500 0
  0.562500   0.875000 0
  0.796875   0.578125 0
  0.796875   0.781250 0
  0.562500   0.843750 0
  0.812500   0.984375 0
  0.562500   0.796875 0
  0.812500   0.953125 0
  0.562500   0.765625 0
  0.796875   0.937500 0
  0.546875   0.750000 0
  0.781250   0.984375 0
  0.828125   0.593750 0
  0.781250   0.843750 0
  0.781250   0.937500 0
  0.546875   1.000000 0
  0.781250   0.703125 0
  0.546875   0.968750 0
  0.546875   0.921875 0
  0.781250   0.828125 0
  0.546875   0.890625 0
  0.781250   0.796875 0
  0.546875   0.859375 0
  0.781250   0.562500 0
  0.781250   0.765625 0
  0.546875   0.828125 0
  0.796875   0.968750 0
  0.546875   0.781250 0
  0.765625   1.000000 0
  0.765625   0.968750 0
  0.531250   0.984375 0
  0.765625   0.687500 0
  0.531250   0.953125 0
  0.531250   0.937500 0
  0.531250   0.906250 0
  0.765625   0.812500 0
  0.531250   0.875000 0
  0.765625   0.781250 0
  0.531250   0.843750 0
  0.781250   1.000000 0
  0.765625   0.546875 0
  0.765625   0.750000 0
  0.531250   0.812500 0
  0.781250   0.953125 0
  0.531250   0.765625 0
  0.515625   0.750000 0
  0.750000   0.984375 0
  0.750000   0.953125 0
  0.796875   0.593750 0
  0.796875   0.562500 0
  0.750000   0.843750 0
  0.750000   0.937500 0
  0.515625   1.000000 0
  0.750000   0.906250 0
  0.515625   0.968750 0
  0.750000   0.671875 0
  0.750000   0.875000 0
  0.515625   0.937500 0
  0.515625   0.921875 0
  0.515625   0.890625 0
  0.750000   0.796875 0
  0.515625   0.859375 0
  0.750000   0.765625 0
  0.515625   0.828125 0
  1.000000   0.718750 0
  0.750000   0.531250 0
  0.750000   0.734375 0
  0.515625   0.796875 0
  0.734375   1.000000 0
  0.734375   0.968750 0
  0.734375   0.937500 0
  0.781250   0.578125 0
  0.781250   0.546875 0
  0.968750   0.578125 0
  0.734375   0.828125 0
  0.968750   0.546875 0
  0.734375   0.796875 0
  0.734375   0.765625 0
  0.968750   0.671875 0
  0.734375   0.734375 0
  0.968750   0.640625 0
  0.734375   0.703125 0
  0.968750   0.609375 0
  0.734375   0.671875 0
  0.734375   0.656250 0
  0.734375   0.625000 0
  0.968750   0.531250 0
  0.734375   0.593750 0
  0.984375   0.734375 0
  0.984375   0.703125 0
  0.734375   0.515625 0
  0.718750   0.984375 0
  0.718750   0.953125 0
  0.718750   0.921875 0
  0.953125   0.562500 0
  0.718750   0.812500 0
  0.953125   0.531250 0
  0.718750   0.781250 0
  0.718750   0.750000 0
  0.953125   0.656250 0
  0.718750   0.718750 0
  0.953125   0.625000 0
  0.718750   0.687500 0
  0.953125   0.593750 0
  0.718750   0.656250 0
  0.671875   1.000000 0
  0.718750   0.640625 0
  0.718750   0.609375 0
  0.953125   0.515625 0
  0.718750   0.578125 0
  0.968750   0.718750 0
  0.968750   0.687500 0
  0.953125   0.671875 0
  0.703125   0.968750 0
  0.703125   0.937500 0
  0.937500   0.656250 0
  0.703125   0.906250 0
  0.937500   0.546875 0
  0.703125   0.796875 0
  0.937500   0.515625 0
  0.703125   0.765625 0
  0.937500   0.671875 0
  0.703125   0.734375 0
  0.937500   0.640625 0
  0.703125   0.703125 0
  0.937500   0.609375 0
  0.703125   0.671875 0
  0.937500   0.578125 0
  0.703125   0.640625 0
  0.656250   0.984375 0
  0.703125   0.625000 0
  0.703125   0.593750 0
  0.718750   0.796875 0
  0.953125   0.734375 0
  0.812500   1.000000 0
  0.859375   0.656250 0
  0.703125   0.781250 0
  0.937500   0.718750 0
  0.953125   0.703125 0
  0.796875   0.984375 0
  0.843750   0.640625 0
  0.812500   0.968750 0
  0.859375   0.625000 0
  0.796875   0.953125 0
  0.843750   0.609375 0
  0.687500   0.953125 0
  0.687500   0.921875 0
  0.687500   0.890625 0
  0.921875   0.734375 0
  0.687500   0.796875 0
  0.687500   0.781250 0
  0.921875   0.703125 0
  0.687500   0.765625 0
  0.687500   0.750000 0
  0.921875   0.656250 0
  0.687500   0.718750 0
  0.921875   0.625000 0
  0.687500   0.687500 0
  0.921875   0.593750 0
  0.687500   0.656250 0
  0.640625   1.000000 0
  0.921875   0.562500 0
  0.687500   0.625000 0
  0.640625   0.968750 0
  0.687500   0.609375 0
  0.687500   0.578125 0
  0.937500   0.687500 0
  0.921875   0.671875 0
  0.671875   0.921875 0
  0.906250   0.656250 0
  0.671875   0.906250 0
  0.671875   0.875000 0
  0.906250   0.718750 0
  0.671875   0.781250 0
  0.671875   0.765625 0
  0.671875   0.734375 0
  0.906250   0.640625 0
  0.671875   0.703125 0
  0.906250   0.609375 0
  0.671875   0.671875 0
  0.906250   0.578125 0
  0.671875   0.640625 0
  0.625000   0.984375 0
  0.671875   0.609375 0
  0.625000   0.953125 0
  0.671875   0.593750 0
  0.671875   0.562500 0
  0.765625   0.953125 0
  0.812500   0.609375 0
  0.656250   1.000000 0
  0.656250   0.953125 0
  0.656250   0.906250 0
  0.890625   0.640625 0
  0.656250   0.890625 0
  0.656250   0.859375 0
  0.890625   0.734375 0
  0.656250   0.796875 0
  0.812500   0.921875 0
  0.562500   1.000000 0
  0.625000   0.828125 0
  0.812500   0.843750 0
  0.843750   0.593750 0
  0.812500   0.812500 0
  0.625000   0.718750 0
  0.828125   0.687500 0
  0.640625   0.593750 0
  0.812500   0.781250 0
  0.625000   0.687500 0
  0.765625   0.828125 0
  0.640625   0.562500 0
  0.812500   0.750000 0
  0.562500   0.828125 0
  0.781250   0.875000 0
  0.546875   0.937500 0
  0.781250   0.671875 0
  0.781250   0.593750 0
  0.546875   0.656250 0
  0.796875   0.750000 0
  0.562500   0.812500 0
  0.796875   0.546875 0
  0.765625   0.796875 0
  0.765625   0.593750 0
  1.000000   0.531250 0
  0.812500   0.718750 0
  0.859375   0.562500 0
  0.625000   0.625000 0
  0.812500   0.703125 0
  0.812500   0.906250 0
  0.578125   0.968750 0
  0.984375   0.593750 0
  0.828125   0.578125 0
  0.828125   0.781250 0
  0.593750   0.843750 0
  0.812500   0.671875 0
  0.625000   0.578125 0
  0.796875   0.671875 0
  0.562500   0.734375 0
  0.984375   0.562500 0
  0.828125   0.546875 0
  0.812500   0.640625 0
  0.750000   0.812500 0
  0.625000   0.546875 0
  0.796875   0.640625 0
  0.562500   0.703125 0
  0.828125   0.515625 0
  0.781250   0.734375 0
  0.546875   0.796875 0
  0.781250   0.531250 0
  0.750000   0.781250 0
  0.625000   0.515625 0
  0.796875   0.609375 0
  0.562500   0.671875 0
  0.765625   0.656250 0
  0.765625   0.859375 0
  0.531250   0.921875 0
  0.812500   0.578125 0
  0.562500   0.656250 0
  0.984375   0.687500 0
  0.750000   0.750000 0
  0.812500   0.562500 0
  0.812500   0.765625 0
  0.578125   0.828125 0
  0.562500   0.625000 0
  0.984375   0.656250 0
  0.750000   0.718750 0
  0.812500   0.531250 0
  0.781250   0.656250 0
  0.546875   0.718750 0
  0.781250   0.625000 0
  0.546875   0.687500 0
  0.750000   0.640625 0
  0.796875   0.531250 0
  0.562500   0.593750 0
  0.984375   0.625000 0
  0.750000   0.687500 0
  0.546875   0.984375 0
  0.609375   0.812500 0
  0.796875   0.875000 0
  0.546875   0.953125 0
  0.609375   0.578125 0
  0.843750   0.515625 0
  0.765625   0.515625 0
  0.765625   0.718750 0
  0.531250   0.781250 0
  0.984375   0.546875 0
  0.750000   0.609375 0
  0.796875   0.828125 0
  0.671875   0.968750 0
  0.796875   0.796875 0
  0.796875   0.765625 0
  0.609375   0.671875 0
  0.796875   0.734375 0
  0.546875   0.812500 0
  0.796875   0.703125 0
  0.843750   0.546875 0
  0.609375   0.609375 0
  0.796875   0.687500 0
  0.562500   0.953125 0
  0.796875   0.656250 0
  0.609375   0.562500 0
  0.796875   0.625000 0
  0.609375   0.531250 0
  0.546875   0.640625 0
  0.765625   0.671875 0
  0.531250   0.734375 0
  0.796875   0.515625 0
  0.765625   0.640625 0
  0.531250   0.703125 0
  0.703125   1.000000 0
  0.765625   0.609375 0
  0.531250   0.671875 0
  0.765625   0.578125 0
  0.531250   0.640625 0
  0.546875   0.609375 0
  0.531250   1.000000 0
  0.890625   0.593750 0
  0.656250   0.656250 0
  0.781250   0.515625 0
  0.546875   0.578125 0
  0.531250   0.968750 0
  0.890625   0.562500 0
  0.656250   0.625000 0
  0.609375   0.968750 0
  0.781250   0.859375 0
  0.656250   0.593750 0
  0.750000   0.703125 0
  0.515625   0.765625 0
  0.781250   0.812500 0
  0.781250   0.781250 0
  0.593750   0.687500 0
  0.781250   0.750000 0
  0.593750   0.656250 0
  0.781250   0.718750 0
  0.531250   0.796875 0
  0.828125   0.562500 0
  0.593750   0.625000 0
  0.781250   0.687500 0
  0.828125   0.531250 0
  0.593750   0.593750 0
  0.812500   0.625000 0
  0.578125   0.687500 0
  0.781250   0.640625 0
  0.781250   0.609375 0
  0.593750   0.515625 0
  0.515625   0.781250 0
  0.812500   0.546875 0
  0.578125   0.609375 0
  0.812500   0.515625 0
  0.578125   0.578125 0
  0.750000   0.656250 0
  0.515625   0.718750 0
  0.750000   0.625000 0
  0.515625   0.687500 0
  0.687500   0.984375 0
  0.750000   0.593750 0
  0.515625   0.656250 0
  0.531250   0.546875 0
  0.750000   0.562500 0
  0.515625   0.625000 0
  0.531250   0.515625 0
  0.984375   0.515625 0
  0.750000   0.578125 0
  0.515625   0.531250 0
  0.828125   0.796875 0
  0.640625   0.703125 0
  0.828125   0.765625 0
[...]
CELL_DATA 7648
SCALARS scalar_value float 1
LOOKUP_TABLE default
0
0
2.37157e-10
-2.93585e-10
0
3.49574e-10
0.00274266
-0.00908914
-0.0202729
-0.00167306
0.218428
0.158317
0.250929
0.00770963
0.067311
0.300449
0.112026
0.129602
-3.61984e-06
-1.63487e-06
9.51249e-06
8.13517e-06
-1.22775e-06
9.20007e-07
-1.3552e-10
-2.5045e-10
0
3.69588e-10
0
0
0
0
0
1.67607e-09
5.71206e-08
-4.60391e-09
0.536146
0.479182
0
0
-0.226777
-0.140539
0
0
5.19617e-08
-7.69719e-08
1.68808e-07
1.43928e-07
2.86193e-07
4.4012e-08
-2.58762e-07
2.16722e-08
-3.71076e-09
5.48996e-09
6.36381e-08
-2.79757e-07
0.000253942
0.00030186
2.24705e-05
0.000110509
3.55767e-05
-7.39497e-06
4.4189e-07
2.12014e-06
8.03171e-06
-9.47188e-06
4.02695e-06
1.61895e-05
3.56323e-06
1.09924e-05
-1.04224e-06
1.44467e-05
5.21785e-06
2.53508e-05
-2.13605e-08
-1.82422e-08
1.09478e-08
5.19142e-09
2.46976e-10
-3.32627e-09
4.22769e-09
-4.64792e-09
1.87483e-08
1.12735e-08
-5.57062e-09
6.46315e-09
-1.60224e-08
0
0
0
-1.08925e-06
1.18436e-05
-1.37526e-05
-8.16938e-07
2.67839e-05
-1.47286e-05
2.3531e-05
1.18887e-05
-2.12194e-05
3.30092e-05
-3.35565e-05
-1.14057e-06
8.47998e-06
1.79398e-06
2.30843e-06
0
0
0
0
0
0
0
1.27269e-08
-3.45024e-09
1.12734e-08
2.7466e-09
4.42075e-10
0
0
0.0212708
0.0615279
0.0655848
0.0227731
-0.0907375
-0.127477
-0.0548224
-0.00341268
0
0
0
0
-3.16088e-10
0
0
0
0.103315
-0.0163572
-0.000523842
-0.00964955
-0.169958
0
0
-1.92091e-05
-5.95313e-05
6.42753e-05
-5.33363e-05
0.000154431
-8.3695e-05
8.16316e-05
4.22702e-05
3.95942e-05
-1.20596e-08
-2.59755e-09
-8.99754e-09
-1.01427e-08
-4.48049e-07
-1.17948e-06
-2.89497e-07
-2.36173e-06
-3.38571e-05
-1.08667e-05
-0.202097
-0.19989
-0.0888702
-0.0454635
9.00267e-10
0.0673383
-0.138856
-0.232011
-0.0288933
0
0
0
0
1.67261e-09
0
0.00949303
0.0224965
0.00369551
0.00126927
-0.0309924
-0.00118728
0.00501571
0.00470468
1.58622e-09
-2.89496e-09
1.21799e-09
9.9433e-10
1.43275e-10
-5.48493e-10
3.97988e-10
2.63338e-10
-3.02639e-10
0.0017064
-0.000434422
0.00318335
0.000616042
0
0
0
0
0.0114772
-0.0080699
-0.0224444
-0.0173523
1.28635e-08
-3.5571e-09
0.0153765
0.0284005
0.00635069
0.0063167
0.0190167
-0.000785345
0.0315057
-0.0259438
0.0283776
0.0101747
-0.027799
-0.0338794
2.4792e-06
9.68235e-07
1.29743e-05
1.50281e-05
-5.54023e-05
3.58319e-05
7.28232e-05
3.44992e-06
9.13021e-06
4.76719e-05
2.37061e-05
0.00450042
0.0138492
0.00429433
-0.0059584
-4.98121e-09
1.78055e-09
-1.9375e-09
-1.58835e-09
0.0114024
0.0270631
0.000951447
0.0154866
2.4414e-10
-4.63262e-10
6.88534e-10
3.27553e-10
0
0
0
0
0
0
0
0
0
0
0
0
0
-1.21962e-09
3.14195e-10
-8.14623e-10
-2.63905e-10
1.46843e-09
-3.04787e-09
3.56146e-09
9.62757e-10
0
-1.48311e-10
1.73203e-10
0
-6.36139e-05
5.98982e-05
-7.10635e-05
-1.42333e-05
-6.39164e-07
-1.32131e-05
-7.66534e-07
-2.72762e-06
2.63448e-06
-2.20334e-07
-4.86321e-09
1.38191e-09
-2.55591e-09
5.98687e-10
1.43468e-10
0
-4.51883e-09
-5.70338e-10
-7.45202e-10
0
0
0
0
-1.08461e-05
-7.32977e-06
-0.12443
-0.05081
-2.33553e-09
2.73513e-08
9.82966e-09
0.000546975
-1.9576e-05
0.0476258
0.0749091
1.8146e-05
0.118954
-0.00203437
0.121792
-5.8108e-05
-0.00505613
0.295166
-2.95664e-06
0.468855
3.26418e-07
-1.72652e-06
2.49144e-06
0
0
0
1.76719e-06
1.5492e-06
0.000215271
2.59241e-05
1.71332e-07
-1.23766e-10
-4.48225e-08
0.00110113
3.35555e-05
-0.000316823
0.00114303
0.0335619
1.93041e-07
-0.0174423
0.221907
0.00728012
0.0103693
-2.45911e-05
-0.00139751
0
0
4.21128e-09
3.09498e-09
4.63114e-10
1.62354e-09
-6.23124e-08
1.15829e-08
2.18323e-10
-1.75629e-07
0.176798
-4.45435e-06
-0.0144006
0
0.00117459
-1.16029e-09
-8.96909e-10
0
-2.34325e-09
-1.10547e-10
0.00810949
2.93324e-07
-2.72575e-07
-1.32523e-07
0.000185884
0
-2.09824e-05
-9.99246e-06
1.31838e-05
-1.62106e-05
5.21265e-05
0
0
0
0
-8.16354e-09
0.0859874
3.75671e-06
0.00686617
0.00136905
-6.38556e-07
0.000146395
2.47079e-10
0.00916369
0
0
0
1.64919e-07
-6.59098e-08
-9.28889e-08
4.10736e-06
6.8051e-07
-3.5066e-06
1.00631e-06
6.0418e-08
1.34861e-08
0.000129975
3.39104e-05
-2.92757e-06
2.23946e-08
0
-0.0376327
0
-0.00925481
-1.45804e-10
-8.2534e-07
0.0608415
9.27112e-05
0
-0.0225605
8.70573e-05
1.22364e-10
4.40808e-08
0
-2.91779e-10
0
0
1.21158e-07
0
1.26036e-09
-2.17211e-09
0.00403007
0
2.27398e-09
-8.67496e-06
0.00146004
0.000577512
-0.0217505
3.26332e-05
0
-2.56413e-10
-2.96051e-08
2.40931e-07
-0.00699101
-4.01252e-05
0
-1.31404e-09
6.71074e-06
-2.32582e-09
6.62867e-10
0
-0.0496277
0
-1.25635e-08
2.34376e-05
1.60392e-05
2.9743e-10
9.05292e-09
2.71337e-08
0
0
0
-3.93007e-05
-7.30125e-05
0.0036174
0.00560129
0
0
-1.86891e-06
-0.0211406
0.0192928
0.44251
0.569543
-8.40362e-10
5.46996e-05
-8.43624e-06
-6.14122e-05
-3.26162e-10
9.13633e-10
0.00319661
1.16878e-08
-8.35082e-10
6.02728e-09
1.98654e-09
-5.66606e-09
-1.34082e-06
0.0165452
-0.0168735
0.894991
2.81272e-09
-6.90393e-08
0
0
0.000174162
0.944502
-2.71359e-05
0.0923222
0.050171
0.713645
-0.0404358
5.77643e-05
0.000380056
1.99767e-07
-2.08852e-07
1.65137e-08
1.72161e-09
3.30413e-05
-6.10458e-07
-4.76869e-06
-2.60113e-06
-5.52005e-06
-4.12817e-06
-1.10164e-05
0
-0.0003132
-7.38607e-10
-6.99362e-08
0.110015
0.524906
0.838312
-2.34538e-07
-6.68133e-06
1.03727e-05
-1.53592e-10
4.46196e-06
0
0
-1.054e-09
-2.67866e-10
1.22882e-07
4.76304e-09
4.19711e-08
-8.06207e-09
-1.79532e-08
-8.55198e-09
-4.38265e-08
0
-4.40933e-05
-0.0004613
-2.60111e-10
0.000332393
5.15643e-08
0
-7.3884e-07
1.12908e-05
9.52853e-08
-7.19845e-09
-2.46642e-07
-4.82999e-09
3.31043e-07
-1.54516e-07
0
2.80766e-08
0
-1.65247e-08
2.00688e-07
-2.65997e-08
-5.98202e-08
-0.000595945
-1.61398e-08
0.0104534
-0.0100142
1.37891e-09
-2.70802e-09
-2.69582e-06
9.13469e-06
0.0058808
-2.34048e-09
0.00390303
5.23427e-08
-3.19903e-07
-3.47092e-10
-1.14202e-09
1.66444e-08
-1.61198e-09
-7.08854e-06
0.00022588
-1.53968e-05
-4.62375e-08
0.398366
1.50069e-09
0.0103508
-4.47967e-09
0.00479557
0.905465
1.15593
-1.59734e-07
1.21007
-6.64518e-08
0.940093
1.21601e-07
0.0618544
1.1874
1.1178
0
-5.1924e-10
2.22427e-10
-9.05185e-10
0.000959736
-1.78933e-10
-0.000805785
0.000287507
8.90476e-05
3.22514e-10
-0.000340916
-0.0269598
0
6.88872e-10
-0.000655692
-1.77793e-09
1.16772e-09
0
0
0.000486242
-4.89817e-10
1.54228e-05
7.29889e-05
-9.4348e-05
3.21815e-07
-1.43947e-09
0.748974
9.46864e-07
0
2.06537e-06
2.01575e-08
-3.89296e-05
-2.81366e-08
3.54934e-09
0.115097
-2.67473e-05
-0.00131618
-5.31809e-09
-9.70449e-05
0
-4.15944e-05
-1.30219e-05
0.000817828
0.133993
0.118866
4.6004e-06
0.00100979
0.0227485
0.000362118
0.266793
4.90411e-07
1.93669e-05
0.00143888
-0.0084603
-0.000211658
0
0
0
7.21964e-06
1.13341e-05
0
3.85344e-09
1.50691e-10
0
3.77567e-10
0
0
-7.38429e-09
0.00540679
0.000903905
-2.20711e-05
0.00328034
0.00171011
-2.09072e-05
-5.68932e-10
-1.07703e-06
-3.21514e-10
0.53561
9.21859e-06
0.450522
-1.37157e-06
0.00618541
-0.285391
-9.68744e-09
0.039905
0
0
0
2.78994e-06
0
-0.000724471
0
-0.000363305
-1.07939e-09
-0.128976
0.409822
1.82096e-07
0.286432
3.11713e-08
5.47915e-06
2.84838e-05
1.82152e-08
-7.24049e-07
2.30211e-08
-1.6184e-08
-2.13525e-08
0.0500545
-5.20259e-08
7.42316e-08
1.25045e-07
-3.32495e-07
0
0
0
0
0
0
0.757005
0
0
1.91966e-08
-1.02683e-09
-2.03819e-10
0.161623
0
-3.13855e-10
0
3.24558e-08
3.90345e-09
-2.53517e-06
-2.00173e-08
-0.00115027
7.56878e-09
0
0.995751
3.3694e-08
0.131626
1.67457e-10
0.31085
0.452746
-3.98803e-10
0
0.115905
0.00649527
0.00035672
2.43651e-09
-0.00378304
1.43124e-08
0
0
0.46595
3.72393e-05
2.3331e-05
0
0.887357
-0.000333455
0.99766
1.18493
6.68249e-05
0
2.62973e-09
-1.13108e-06
0
0
-0.000111062
0.0318075
0
1.42712e-05
4.79583e-05
-4.47916e-07
7.46119e-07
0.000235867
1.62286e-05
-0.296611
1.27905e-10
4.73405e-09
0
1.43009e-06
2.43349e-05
-3.39169e-07
0
-6.3429e-09
0
5.92092e-08
-3.33003e-09
7.453e-06
0
0
-0.000158515
7.79999e-09
0.000889468
3.25868e-06
0.0324583
6.38394e-05
0
0.000243719
0.064529
2.96919e-05
0
-0.0760917
-8.78592e-09
0.102723
0
1.03103e-08
0
0
-1.6503e-08
0.100237
0
0.0496605
6.53262e-09
-8.76365e-09
0
0
-3.34081e-05
0.000116362
0.00192752
0
-1.52726e-09
0.000582828
0.00949276
0
2.06484e-08
1.52559e-05
0.00780614
-8.38188e-06
4.10504e-05
-5.83322e-08
-0.000556487
-0.00298544
0.000728839
1.86643e-05
0.154354
9.3788e-08
4.08986e-09
0.000400131
-1.04141e-09
-0.0097424
0
0
0.000429787
0
0.462325
-0.000189518
0
-0.000129839
-6.00728e-06
-9.20796e-06
0.00304587
-0.251963
0.00122408
1.1753e-07
0.000664283
0.000913786
0
2.0717e-05
0.0125445
-0.00181725
0
0.0140034
5.33486e-05
3.83328e-10
1.45091e-09
-1.41204e-07
-4.14349e-10
0
1.34539e-07
0
0
2.25292e-08
-0.00132119
0
3.352e-07
0.00206652
-2.16975e-05
7.20779e-07
-5.86538e-08
-1.94924e-05
0.00127153
-1.84601e-08
1.03215e-10
0.00249765
-2.16629e-05
-0.0218857
4.20273e-09
0.00155059
4.61779e-09
-7.22344e-10
-9.54901e-09
6.98462e-09
0.0282522
8.30977e-09
-0.000687564
0.397327
-2.55503e-06
0.0134997
0.00105775
0.000104874
5.15521e-08
0.0107988
3.11949e-08
0.00442171
-8.41582e-05
0
3.25274e-05
-0.000206334
0.000273757
0.0289179
-0.00051329
-7.56722e-06
0
0
-1.23265e-09
0
4.90483e-07
0.00788011
-1.17838e-09
-1.62176e-07
0.00353847
0
0
0
-2.8186e-05
0.000622887
0
-0.00757004
4.12129e-09
0.00142199
-0.000335483
-0.25647
0
-1.692e-05
7.6288e-06
4.49038e-08
0.401294
0.328267
-1.76131e-05
0.148679
0.0015866
0
0.407677
0
0
0.177013
-0.000178745
0
0
0
7.9195e-10
0
-9.31057e-10
-5.8228e-10
5.26268e-06
0
-1.84815e-08
-4.13256e-08
-5.32471e-10
0.012096
-1.91288e-07
0
0
0.316985
-7.52791e-06
-7.68541e-09
-3.83331e-06
0
-1.37681e-09
5.36854e-10
0
4.14959e-10
0.190841
-1.13225e-06
2.21695e-09
0
4.38115e-09
-0.0021716
1.87379e-08
2.88475e-10
-0.000274701
3.55868e-10
0.0230388
2.4367e-05
0
9.25418e-07
4.89836e-05
0
1.04514
-0.00064571
0
0.000214899
0
0.212896
0.742722
0
1.23672
-7.6448e-06
4.56055e-09
0
0
0.526881
0.0984485
-7.57503e-10
0.16009
0
1.15687
0.764234
-6.02165e-08
-1.84278e-06
0
0.00148239
-0.00553808
0.712386
-4.35868e-07
0.955319
0
1.64599e-07
0
0
-1.33276e-09
-0.000495735
-1.51881e-05
0
0.000310877
1.18266e-08
-0.00148321
1.03262
0.000324278
-7.03266e-09
0.043269
-4.17459e-05
0
0.000479217
0
1.16724
-1.63298e-08
-1.15062e-05
1.01032
0
0.00160729
0
5.89115e-06
0
0.00167295
1.05804e-07
-0.00899431
-5.43625e-05
1.78365e-10
5.90408e-09
7.59175e-05
7.98522e-06
1.27442e-10
0
0
0.320915
1.99889e-10
3.20022e-08
0
0.516902
2.19857e-08
0
0
0.285695
-5.42534e-05
-0.00198129
-8.59966e-07
2.26026e-10
-2.61042e-10
-0.0115949
0.00593358
-0.00187708
-0.000609332
-2.56858e-05
0.14592
9.89872e-05
0.103581
0.0235553
0.000538179
0.162489
6.78128e-09
-6.72436e-09
2.60283e-10
0
0.00140154
0
-7.22414e-08
0
0
0.432206
0.112852
0.00109474
0.43952
0
-4.75072e-09
-5.42568e-07
-2.40996e-09
5.90788e-10
4.27492e-09
-4.66293e-09
-1.64317e-07
-4.82973e-08
0.539776
1.5511e-07
-1.06336e-07
-2.10715e-09
1.46714e-09
2.80535e-05
0
-3.63538e-09
0.00130068
-7.77776e-09
0.00332383
-0.152614
-8.00823e-05
0
5.75675e-05
-2.87539e-08
-7.30342e-10
-3.94319e-05
0
-9.19815e-09
0.616592
-8.90066e-10
1.09394e-07
9.99127e-08
1.46411e-08
1.88428e-08
-3.60584e-09
2.01299e-09
-4.30167e-09
0.319679
-3.57286e-09
0.105433
1.55696e-09
5.5898e-07
-0.00361681
-8.09549e-07
-8.38608e-07
-5.64574e-05
-3.23883e-08
0.000581041
3.43909e-05
3.11758e-06
0.149648
0.801521
0
0
0
0
3.36855e-09
1.62549e-09
0
0
-0.207263
-0.291384
1.36935e-05
-0.209931
6.72739e-10
0.543579
0.362489
0.207407
9.02517e-09
6.74695e-08
0
0
0
1.30868e-09
0
0
-1.50616e-08
1.43207e-09
0
-1.63681e-08
-0.0352979
1.48949e-08
-1.18497e-07
0.0377157
4.07233e-08
0.247397
-1.54279e-09
0
0
0
0.0214153
0
0
0
0.0533206
0.00181635
0.0044683
0
0
-0.000253996
0
0
0.00238834
0
0.000442781
0
0.000808435
0
0.000242162
1.90785e-08
-0.00326283
0
0.000140893
0
2.06541e-05
1.7018e-09
3.21867e-05
3.45608e-07
1.11186
-7.68345e-07
0.053302
-1.44242e-09
0.00446859
8.96817e-10
2.30708e-10
-6.15637e-09
1.53364e-09
-2.6682e-09
-1.30023e-09
-8.16321e-10
2.72974e-10
5.37375e-08
-4.372e-09
-1.67338e-09
1.85958e-05
2.181e-08
0
2.50142e-09
2.65629e-06
-2.74764e-06
0.000505529
2.08385e-09
0.141952
-0.0797624
0
6.08357e-05
0
7.59009e-08
0.460825
0.287164
-4.65697e-09
-0.00532562
1.17991e-09
0.699846
0.000925126
0
1.08308e-09
0.0336362
0.000740854
-1.07237e-05
0.0121402
6.26784e-07
1.49881e-06
-2.20872e-07
-1.70441e-05
-6.71673e-08
-0.000249134
0.00187064
0.00141438
0
0
0.00227676
0
0.840601
5.43917e-09
2.25748e-09
-9.6464e-05
3.90127e-10
7.64139e-06
4.13793e-05
-0.000420715
-3.06241e-05
1.19072e-05
1.25529e-05
0.859358
0
0.046291
-7.56896e-09
0
1.71889e-10
-1.57264e-05
0
0.0125109
0.190227
0.0107004
0
8.16886e-10
-0.042407
-1.62058e-08
0
-1.06608e-07
0
0
-3.88274e-09
0
0
0
0
7.39578e-08
0.0365415
1.00158
3.0758e-05
-6.78813e-06
1.85625e-05
-1.4707e-05
1.56239e-06
-0.00359625
2.41847e-09
0
0
-7.54218e-10
-4.83263e-09
0
0
0
0
0
0
0
-2.09704e-10
0.099648
3.72578e-10
1.89413e-10
-5.5797e-10
1.52009e-09
0
0
0
0
0.000684
0.050281
-4.94421e-05
-0.0012392
0.0251734
0.0213826
-3.07326e-06
5.22851e-06
8.75802e-05
-6.36748e-05
-0.00581418
-0.000327645
0.000131224
0.0630767
3.28613e-10
-3.02707e-10
0
0.00113792
0.0358384
0.000824328
-7.05748e-08
-0.0782842
0.44418
0.204292
0.0624872
1.01803e-07
-5.41827e-07
3.61919e-07
-6.26931e-07
0.861799
2.81769e-06
6.15586e-05
-1.59538e-06
0.0832449
0.354777
0.706374
0
-6.25519e-08
3.54235e-06
0
0
0
6.90433e-07
1.9075e-08
-3.07161e-07
-2.43942e-07
0.000119147
0.086624
0.114584
0.257085
0.343649
0.0752737
-0.028806
4.58359e-07
0
0
4.25526e-10
0.0450972
0.892355
-0.0159301
-5.9449e-05
-4.02693e-08
-8.79489e-09
0
0
0
0
4.02852e-06
6.95048e-06
2.97731e-07
1.30905e-05
-3.31249e-08
-6.50625e-09
-6.21906e-08
1.15465e-08
-1.0085e-08
7.45956e-05
0.000239124
8.9637e-09
-2.84475e-09
2.67511e-07
-8.929e-07
2.34516e-06
0.726619
2.18713e-07
0.248526
-0.00311758
0.0872267
7.55786e-06
1.50334e-05
1.89795e-05
2.99291e-05
-4.67779e-08
0.864201
0.469666
0.705286
0.104494
0
0
0
0.00541522
1.71649e-07
0.971998
9.96132e-07
1.15391
1.11018
3.03262e-08
7.00778e-05
-2.43397e-08
3.16919e-06
1.028e-07
-4.68396e-07
0.00957734
0.147174
0.000351827
-0.0092384
-1.07829e-08
-0.00888859
8.92089e-09
-0.0147122
0.117483
0.718993
0.434794
0.128295
-0.00050565
6.2176e-08
3.29354e-06
1.81486e-07
-7.69528e-07
0.00446783
1.10729
3.38828e-06
-0.045407
6.29629e-07
-4.40105e-07
7.28254e-07
0.899165
0.190699
-1.78707e-07
0.391287
-3.39868e-10
0
0
0
-7.55798e-08
6.0971e-08
5.69727e-07
0
-2.17857e-08
1.36375e-07
-3.96145e-10
0.147785
0.0506003
0.348666
-0.0626493
-5.39245e-07
1.85721e-05
-3.35304e-07
-3.17104e-07
0.00211669
-8.82059e-05
1.3808e-07
-0.126138
0
0
0
2.22605e-06
2.50765e-06
-0.0433056
-0.000212395
0.000193612
-1.97162e-06
2.38667e-05
1.17792
-9.02773e-10
-9.88292e-10
0.0302871
0
0
0
0
0.101433
0
0
0
0.0976913
0.188394
0.00993901
0.130329
6.60651e-08
-4.39747e-08
0
0
0
0
-0.000239081
0.15841
0.000474426
0.232995
0.116515
0
0
-2.97075e-09
-1.49146e-10
-1.78384e-09
0
0
0
0
-1.05868e-06
3.47203e-06
-3.24362e-06
1.42885e-06
-8.45976e-08
0.120148
0.00344149
-4.63135e-05
-0.0259142
0
0.385285
0.950052
4.33706e-05
9.85467e-07
4.79821e-05
-0.234381
-0.0771293
-0.000116428
0.072786
0.00268793
-8.40751e-07
0.0114064
0
1.96166e-06
6.66455e-08
5.49624e-07
1.60037e-05
-8.03885e-06
0.100499
8.43995e-09
-8.61343e-07
0.385708
0.169429
0.479068
4.9266e-07
-5.75386e-07
0
-3.05514e-10
-7.07391e-07
0
-6.63747e-06
0.002322
0
0
0
-7.57523e-08
1.92476e-07
3.38519e-08
0
0
0
-4.07802e-05
-4.6662e-05
1.09556e-09
-1.335e-09
5.37107e-09
0.136577
0
0
-1.05227e-07
-7.87402e-08
-1.79296e-07
-2.58517e-08
-4.88808e-05
-6.51432e-07
0
1.97897e-08
-7.45804e-09
8.53246e-09
-4.16098e-10
1.52261e-09
-3.89566e-10
0.123345
-4.17546e-08
-1.55679e-09
1.40727e-09
-1.10354e-10
0.0353694
1.08521
0.118961
0.883012
0.849203
4.78597e-10
2.12967e-09
-2.85898e-06
-0.00430558
0.125448
0
0
0.176184
0.259089
0
1.22072
-1.25979e-06
1.79382e-06
3.62017e-06
0.0315397
0.114729
0.000636246
0.00634338
-0.0143495
7.33205e-06
-4.22139e-06
-1.03293e-06
4.11652e-06
-4.60711e-09
0.0986213
0.313904
0.269675
0.024829
0
0
1.15834e-10
0
0
5.17091e-08
-1.89296e-05
-6.43587e-05
-1.25712e-08
0
0
0
0
9.85345e-06
0.446528
0.906912
0.643063
0
0
0
0
0
0.0990083
-4.32563e-06
-4.21243e-06
0
-1.28809e-05
1.00936e-06
0.000238184
0.000501844
3.53235e-05
9.43339e-08
1.70184e-08
-2.39386e-08
2.4571e-08
-1.62803e-10
0
0
0
0
1.96223e-05
-1.16248e-05
-1.82876e-05
0
0
0.135613
0.407769
2.79818e-07
2.53057e-09
2.4923e-09
-5.80607e-09
1.99665e-09
-5.58499e-06
0
0
0
0
0.149381
0
2.17207e-05
0.178658
0.149002
0.0343782
0.0727084
0.013527
0.00050224
-3.05617e-06
-0.0113728
-9.67475e-05
0
0
0
-0.0429263
0.126372
-0.0187062
-0.0626077
-7.77482e-05
1.9382e-07
1.35044e-07
0
9.59985e-07
9.25244e-07
0
0
0
-0.000520434
4.61792e-08
-4.09096e-08
0.0143386
1.11709e-06
2.77151e-06
0
0
0
3.7453e-10
-0.147164
0
0
0
0.0373781
-0.15259
-0.181872
-0.183483
-1.93368e-08
-6.30214e-08
0
0
0
1.19772
0.827011
0.722037
0
0
-1.18528e-10
0.00536912
-8.19745e-06
8.96385e-05
0.000236777
0.000298716
0
0.000951765
0.000285578
0.00025496
-3.97852e-05
0.203112
1.00194e-10
-0.000221769
-0.000134626
-1.8522e-05
1.2237
4.4888e-07
1.07767
-2.25919e-06
-2.47418e-06
1.02475e-06
-7.54798e-06
0
-3.75096e-10
-1.7052e-10
-0.0207725
-0.00748522
0.000168318
0
0
0
0
-3.15403e-10
0
0
0
5.81001e-09
8.15114e-06
-8.78924e-10
-3.01485e-10
0
0
9.07225e-10
0.835947
-1.908e-07
-0.0165403
1.15306
0.54491
8.41217e-10
0.144603
0.20777
-0.0425477
-7.00214e-07
3.44248e-07
3.48537e-07
-0.0109469
0.0533363
6.53778e-07
1.37279e-05
0
-3.23898e-10
0
0.0675026
0.0143784
0.00220588
0.00196792
-0.015118
2.19126e-08
2.9072e-08
-2.56157e-08
7.20444e-09
-0.00537874
8.55651e-09
1.21202e-08
-1.35674e-05
0.000507836
0.00323082
-0.00435669
-1.4307e-07
2.18339e-07
-2.45185e-07
0.0254657
-0.0330371
0.0600642
3.52282e-08
0.0874544
-0.0033194
-0.0342833
-0.00111725
-0.000119413
0.22878
7.17995e-07
-0.000562089
5.38779e-05
-1.26762e-10
0
1.17061e-10
0.000101815
0.000351558
0.283176
8.91752e-08
0.0422088
7.73226e-06
9.3474e-05
0.000133411
-1.59992e-06
0.00291715
7.08394e-05
-2.01821e-05
-4.36865e-05
5.19326e-05
0
0
0
0
-2.14623e-10
0.0210773
-1.36407e-08
2.52333e-09
3.21363e-09
0
6.28991e-09
0.105392
-3.53131e-10
-1.6388e-10
1.19984e-10
0
0
0
0
0
0.0628388
0.0314267
0
0
-3.32849e-10
3.06606e-08
-7.72944e-09
6.57847e-09
8.57378e-10
9.91355e-10
0
0
0
0
1.54832e-06
-1.12377e-07
0
2.53845e-10
0.169916
-0.109108
-0.133021
-0.134009
0.0501738
0.278517
4.44922e-05
2.51812e-06
-5.86969e-06
-3.73542e-05
3.1892e-05
-0.000134852
0
0
0
0
6.58165e-10
-1.12243e-06
6.84275e-07
-1.13404e-06
6.36389e-06
-9.89047e-05
5.34967e-05
-0.000236305
-0.00151291
-0.00317327
0.00239858
-0.0073619
-2.25759e-05
5.57511e-05
9.03789e-05
6.46066e-05
0.000233957
0.000134865
0.000720688
-0.000816893
0.000585055
0.000844226
-7.87446e-05
-0.000450878
-8.18273e-10
-1.58689e-09
9.53531e-07
-6.51716e-06
2.44517e-07
-8.78327e-06
6.40471e-07
-2.71646e-05
-9.68436e-05
-0.000176704
-0.000116743
-0.00112709
-0.0022596
-0.00276903
1.0038e-06
7.28358e-06
9.10153e-06
8.50303e-05
0.00020039
0.000226599
0.000537863
-0.000237625
7.91709e-05
0.000671503
-0.00273598
0.002513
-0.000693911
-1.46129e-09
-2.16551e-08
8.71892e-06
-1.08687e-05
-0.000107039
7.38806e-06
-3.43548e-05
-0.000104088
-0.000246159
-0.000355082
-7.99041e-05
-0.000614235
0.000242907
3.74589e-05
-0.00106123
1.37885e-05
2.62616e-05
3.80724e-05
8.48068e-05
0.000206402
0.000111099
0.000763404
0.000374607
0.000659024
-0.00115436
0.00171333
-0.00817764
-7.14985e-10
7.20835e-10
-1.14775e-07
4.64476e-05
0.000204953
0.000194133
-8.41068e-05
-6.14569e-05
3.67074e-05
-4.99611e-06
-0.000263525
-0.000344188
-0.000609275
0.000449759
0.00113148
0.0692105
-8.06837e-05
-0.000106535
-0.000107217
-4.7186e-05
1.01049e-06
7.79548e-06
0.000165451
0.000471977
0.00124688
0.00169511
0.000577355
-0.0126022
0.108994
1.44139e-10
-1.44863e-09
9.19942e-09
-1.31579e-06
-4.10298e-06
-3.03276e-05
0.000461449
0.000300277
0.000196858
-0.00030832
-0.000731972
-0.00132517
-0.00216777
-0.00405008
-0.00714927
0.0584578
4.07951e-07
1.16259e-05
0.000189817
0.000614808
0.000416911
0.000118115
-0.000113598
-0.000249772
-0.000608695
-0.00134264
-0.00211859
-0.00174008
0.00210978
0.0230025
0.110019
0.402792
-2.08743e-10
4.17951e-10