# vtk DataFile Version 2.0
Unstructured Grid by M++
ASCII
DATASET UNSTRUCTURED_GRID
POINTS 4072 float
  0.828125   0.890625 0
  0.875000   0.531250 0
  0.828125   0.750000 0
  0.593750   0.968750 0
  0.828125   0.671875 0
  0.828125   0.875000 0
  0.593750   0.937500 0
  0.828125   0.656250 0
  0.828125   0.640625 0
  0.828125   0.843750 0
  0.593750   0.906250 0
  0.828125   0.625000 0
  0.781250   0.968750 0
  0.828125   0.609375 0
  0.828125   0.812500 0
  0.593750   0.875000 0
  0.593750   0.828125 0
  0.593750   0.796875 0
  0.828125   0.703125 0
  0.593750   0.765625 0
  0.828125   0.937500 0
  0.812500   0.875000 0
  0.859375   0.515625 0
  0.812500   0.734375 0
  0.812500   0.937500 0
  0.578125   1.000000 0
  0.578125   0.750000 0
  0.812500   0.687500 0
  0.578125   0.953125 0
  0.812500   0.656250 0
  0.812500   0.859375 0
  0.578125   0.921875 0
  0.812500   0.828125 0
  0.578125   0.890625 0
  0.812500   0.593750 0
  0.812500   0.796875 0
  0.578125   0.859375 0
  0.578125   0.812500 0
  0.578125   0.781250 0
  0.796875   1.000000 0
  0.796875   0.859375 0
  0.796875   0.718750 0
  0.562500   0.984375 0
  0.562500   0.937500 0
  0.796875   0.843750 0
  0.562500   0.906250 0
  0.796875   0.812500 0
  0.562500   0.875000 0
  0.796875   0.578125 0
  0.796875   0.781250 0
  0.562500   0.843750 0
  0.812500   0.984375 0
  0.562500   0.796875 0
  0.812500   0.953125 0
  0.562500   0.765625 0
  0.796875   0.937500 0
  0.546875   0.750000 0
  0.781250   0.984375 0
  0.828125   0.593750 0
  0.781250   0.843750 0
  0.781250   0.937500 0
  0.546875   1.000000 0
  0.781250   0.703125 0
  0.546875   0.968750 0
  0.546875   0.921875 0
  0.781250   0.828125 0
  0.546875   0.890625 0
  0.781250   0.796875 0
  0.546875   0.859375 0
  0.781250   0.562500 0
  0.781250   0.765625 0
  0.546875   0.828125 0
  0.796875   0.968750 0
  0.546875   0.781250 0
  0.765625   1.000000 0
  0.765625   0.968750 0
  0.531250   0.984375 0
  0.765625   0.687500 0
  0.531250   0.953125 0
  0.531250   0.937500 0
  0.531250   0.906250 0
  0.765625   0.812500 0
  0.531250   0.875000 0
  0.765625   0.781250 0
  0.531250   0.843750 0
  0.781250   1.000000 0
  0.765625   0.546875 0
  0.765625   0.750000 0
  0.531250   0.812500 0
  0.781250   0.953125 0
  0.531250   0.765625 0
  0.515625   0.750000 0
  0.750000   0.984375 0
  0.750000   0.953125 0
  0.796875   0.593750 0
  0.796875   0.562500 0
  0.750000   0.843750 0
  0.750000   0.937500 0
  0.515625   1.000000 0
  0.750000   0.906250 0
  0.515625   0.968750 0
  0.750000   0.671875 0
  0.750000   0.875000 0
  0.515625   0.937500 0
  0.515625   0.921875 0
  0.515625   0.890625 0
  0.750000   0.796875 0
  0.515625   0.859375 0
  0.750000   0.765625 0
  0.515625   0.828125 0
  1.000000   0.718750 0
  0.750000   0.531250 0
  0.750000   0.734375 0
  0.515625   0.796875 0
  0.734375   1.000000 0
  0.734375   0.968750 0
  0.734375   0.937500 0
  0.781250   0.578125 0
  0.781250   0.546875 0
  0.968750   0.578125 0
  0.734375   0.828125 0
  0.968750   0.546875 0
  0.734375   0.796875 0
  0.734375   0.765625 0
  0.968750   0.671875 0
  0.734375   0.734375 0
  0.968750   0.640625 0
  0.734375   0.703125 0
  0.968750   0.609375 0
  0.734375   0.671875 0
  0.734375   0.656250 0
  0.734375   0.625000 0
  0.968750   0.531250 0
  0.734375   0.593750 0
  0.984375   0.734375 0
  0.984375   0.703125 0
  0.734375   0.515625 0
  0.718750   0.984375 0
  0.718750   0.953125 0
  0.718750   0.921875 0
  0.953125   0.562500 0
  0.718750   0.812500 0
  0.953125   0.531250 0
  0.718750   0.781250 0
  0.718750   0.750000 0
  0.953125   0.656250 0
  0.718750   0.718750 0
  0.953125   0.625000 0
  0.718750   0.687500 0
  0.953125   0.593750 0
  0.718750   0.656250 0
  0.671875   1.000000 0
  0.718750   0.640625 0
  0.718750   0.609375 0
  0.953125   0.515625 0
  0.718750   0.578125 0
  0.968750   0.718750 0
  0.968750   0.687500 0
  0.953125   0.671875 0
  0.703125   0.968750 0
  0.703125   0.937500 0
  0.937500   0.656250 0
  0.703125   0.906250 0
  0.937500   0.546875 0
  0.703125   0.796875 0
  0.937500   0.515625 0
  0.703125   0.765625 0
  0.937500   0.671875 0
  0.703125   0.734375 0
  0.937500   0.640625 0
  0.703125   0.703125 0
  0.937500   0.609375 0
  0.703125   0.671875 0
  0.937500   0.578125 0
  0.703125   0.640625 0
  0.656250   0.984375 0
  0.703125   0.625000 0
  0.703125   0.593750 0
  0.718750   0.796875 0
  0.953125   0.734375 0
  0.812500   1.000000 0
  0.859375   0.656250 0
  0.703125   0.781250 0
  0.937500   0.718750 0
  0.953125   0.703125 0
  0.796875   0.984375 0
  0.843750   0.640625 0
  0.812500   0.968750 0
  0.859375   0.625000 0
  0.796875   0.953125 0
  0.843750   0.609375 0
  0.687500   0.953125 0
  0.687500   0.921875 0
  0.687500   0.890625 0
  0.921875   0.734375 0
  0.687500   0.796875 0
  0.687500   0.781250 0
  0.921875   0.703125 0
  0.687500   0.765625 0
  0.687500   0.750000 0
  0.921875   0.656250 0
  0.687500   0.718750 0
  0.921875   0.625000 0
  0.687500   0.687500 0
  0.921875   0.593750 0
  0.687500   0.656250 0
  0.640625   1.000000 0
  0.921875   0.562500 0
  0.687500   0.625000 0
  0.640625   0.968750 0
  0.687500   0.609375 0
  0.687500   0.578125 0
  0.937500   0.687500 0
  0.921875   0.671875 0
  0.671875   0.921875 0
  0.906250   0.656250 0
  0.671875   0.906250 0
  0.671875   0.875000 0
  0.906250   0.718750 0
  0.671875   0.781250 0
  0.671875   0.765625 0
  0.671875   0.734375 0
  0.906250   0.640625 0
  0.671875   0.703125 0
  0.906250   0.609375 0
  0.671875   0.671875 0
  0.906250   0.578125 0
  0.671875   0.640625 0
  0.625000   0.984375 0
  0.671875   0.609375 0
  0.625000   0.953125 0
  0.671875   0.593750 0
  0.671875   0.562500 0
  0.765625   0.953125 0
  0.812500   0.609375 0
  0.656250   1.000000 0
  0.656250   0.953125 0
  0.656250   0.906250 0
  0.890625   0.640625 0
  0.656250   0.890625 0
  0.656250   0.859375 0
  0.890625   0.734375 0
  0.656250   0.796875 0
  0.812500   0.921875 0
  0.562500   1.000000 0
  0.625000   0.828125 0
  0.812500   0.843750 0
  0.843750   0.593750 0
  0.812500   0.812500 0
  0.625000   0.718750 0
  0.828125   0.687500 0
  0.640625   0.593750 0
  0.812500   0.781250 0
  0.625000   0.687500 0
  0.765625   0.828125 0
  0.640625   0.562500 0
  0.812500   0.750000 0
  0.562500   0.828125 0
  0.781250   0.875000 0
  0.546875   0.937500 0
  0.781250   0.671875 0
  0.781250   0.593750 0
  0.546875   0.656250 0
  0.796875   0.750000 0
  0.562500   0.812500 0
  0.796875   0.546875 0
  0.765625   0.796875 0
  0.765625   0.593750 0
  1.000000   0.531250 0
  0.812500   0.718750 0
  0.859375   0.562500 0
  0.625000   0.625000 0
  0.812500   0.703125 0
  0.812500   0.906250 0
  0.578125   0.968750 0
  0.984375   0.593750 0
  0.828125   0.578125 0
  0.828125   0.781250 0
  0.593750   0.843750 0
  0.812500   0.671875 0
  0.625000   0.578125 0
  0.796875   0.671875 0
  0.562500   0.734375 0
  0.984375   0.562500 0
  0.828125   0.546875 0
  0.812500   0.640625 0
  0.750000   0.812500 0
  0.625000   0.546875 0
  0.796875   0.640625 0
  0.562500   0.703125 0
  0.828125   0.515625 0
  0.781250   0.734375 0
  0.546875   0.796875 0
  0.781250   0.531250 0
  0.750000   0.781250 0
  0.625000   0.515625 0
  0.796875   0.609375 0
  0.562500   0.671875 0
  0.765625   0.656250 0
  0.765625   0.859375 0
  0.531250   0.921875 0
  0.812500   0.578125 0
  0.562500   0.656250 0
  0.984375   0.687500 0
  0.750000   0.750000 0
  0.812500   0.562500 0
  0.812500   0.765625 0
  0.578125   0.828125 0
  0.562500   0.625000 0
  0.984375   0.656250 0
  0.750000   0.718750 0
  0.812500   0.531250 0
  0.781250   0.656250 0
  0.546875   0.718750 0
  0.781250   0.625000 0
  0.546875   0.687500 0
  0.750000   0.640625 0
  0.796875   0.531250 0
  0.562500   0.593750 0
  0.984375   0.625000 0
  0.750000   0.687500 0
  0.546875   0.984375 0
  0.609375   0.812500 0
  0.796875   0.875000 0
  0.546875   0.953125 0
  0.609375   0.578125 0
  0.843750   0.515625 0
  0.765625   0.515625 0
  0.765625   0.718750 0
  0.531250   0.781250 0
  0.984375   0.546875 0
  0.750000   0.609375 0
  0.796875   0.828125 0
  0.671875   0.968750 0
  0.796875   0.796875 0
  0.796875   0.765625 0
  0.609375   0.671875 0
  0.796875   0.734375 0
  0.546875   0.812500 0
  0.796875   0.703125 0
  0.843750   0.546875 0
  0.609375   0.609375 0
  0.796875   0.687500 0
  0.562500   0.953125 0
  0.796875   0.656250 0
  0.609375   0.562500 0
  0.796875   0.625000 0
  0.609375   0.531250 0
  0.546875   0.640625 0
  0.765625   0.671875 0
  0.531250   0.734375 0
  0.796875   0.515625 0
  0.765625   0.640625 0
  0.531250   0.703125 0
  0.703125   1.000000 0
  0.765625   0.609375 0
  0.531250   0.671875 0
  0.765625   0.578125 0
  0.531250   0.640625 0
  0.546875   0.609375 0
  0.531250   1.000000 0
  0.890625   0.593750 0
  0.656250   0.656250 0
  0.781250   0.515625 0
  0.546875   0.578125 0
  0.531250   0.968750 0
  0.890625   0.562500 0
  0.656250   0.625000 0
  0.609375   0.968750 0
  0.781250   0.859375 0
  0.656250   0.593750 0
  0.750000   0.703125 0
  0.515625   0.765625 0
  0.781250   0.812500 0
  0.781250   0.781250 0
  0.593750   0.687500 0
  0.781250   0.750000 0
  0.593750   0.656250 0
  0.781250   0.718750 0
  0.531250   0.796875 0
  0.828125   0.562500 0
  0.593750   0.625000 0
  0.781250   0.687500 0
  0.828125   0.531250 0
  0.593750   0.593750 0
  0.812500   0.625000 0
  0.578125   0.687500 0
  0.781250   0.640625 0
  0.781250   0.609375 0
  0.593750   0.515625 0
  0.515625   0.781250 0
  0.812500   0.546875 0
  0.578125   0.609375 0
  0.812500   0.515625 0
  0.578125   0.578125 0
  0.750000   0.656250 0
  0.515625   0.718750 0
  0.750000   0.625000 0
  0.515625   0.687500 0
  0.687500   0.984375 0
  0.750000   0.593750 0
  0.515625   0.656250 0
  0.531250   0.546875 0
  0.750000   0.562500 0
  0.515625   0.625000 0
  0.531250   0.515625 0
  0.984375   0.515625 0
  0.750000   0.578125 0
  0.515625   0.531250 0
  0.828125   0.796875 0
  0.640625   0.703125 0
  0.828125   0.765625 0
[...]
CELL_DATA 7648
SCALARS scalar_value float 1
LOOKUP_TABLE default
-0.000188558
-0.000265591
8.90713e-09
-5.97154e-09
2.23869e-09
1.02953e-09
-3.89883e-05
3.10727e-05
-2.0315e-05
-6.27534e-05
0.00500913
0.00178263
0.0162109
-0.00642235
0.0719837
0.0172082
0.0950515
-0.00354001
-0.0278912
0.00673871
-0.0103432
-0.0463658
-0.00411467
-0.0198371
-0.0359731
-0.0779713
-0.160834
-0.0287326
-0.157006
0.00346262
0.26789
-0.0198336
3.78336e-10
-5.04919e-10
5.47661e-10
3.11833e-10
0.02539
-0.00243242
0.000421887
-0.000134838
0.000638499
0.000390315
0.75682
0.675086
3.79239e-09
-5.02558e-09
8.78568e-09
1.06853e-08
1.32694e-08
-2.01426e-08
6.5002e-09
2.12911e-08
1.29061e-08
-1.40587e-08
-2.22835e-08
-5.40942e-08
-0.0307707
-0.0260233
0.0280076
-0.00190279
0.0339244
0.00825924
1.9666e-06
-9.54558e-08
-3.6666e-06
5.45264e-06
-2.57703e-06
-2.33429e-06
-5.93342e-07
-1.27131e-05
1.38414e-07
1.48773e-06
-2.2012e-07
0.0220122
-0.235384
-2.94398e-09
3.37919e-09
-1.05415e-09
-6.18602e-09
1.22144e-08
-4.92987e-09
3.17094e-09
7.23302e-09
1.27691e-09
5.39604e-09
-1.60701e-08
-1.05901e-08
2.19349e-05
-2.04721e-06
-8.16677e-05
-2.7332e-07
-7.31024e-07
2.05645e-06
-2.60953e-07
1.07918e-06
1.677e-06
1.43153e-06
-5.37919e-07
9.53243e-06
-9.69435e-06
-3.76232e-06
-2.30314e-07
-1.9398e-07
-2.22947e-07
0.062189
0
0
0
4.30271e-07
1.35436e-07
4.56406e-07
-3.53812e-09
1.08352e-09
-3.2074e-10
1.12654e-09
2.52591e-10
0
1.56737e-10
0
-3.28917e-05
5.42949e-05
-3.33875e-05
1.64225e-05
6.44903e-05
-5.12943e-05
-1.69927e-05
3.6143e-05
-1.0378e-07
1.58911e-08
1.8876e-07
-2.33855e-08
-4.81028e-10
0
-1.21746e-09
0
0.000160172
0.000168514
-8.98946e-05
-2.72196e-05
0.00194417
-2.60878e-09
8.70844e-10
4.78909e-06
-1.05853e-05
2.09334e-05
-0.000112769
-0.000352634
1.5258e-05
-0.0338062
0.0318489
0.0536669
-3.35121e-05
-0.000131136
0.000108784
-0.000206252
3.5899e-05
-3.27417e-05
1.36999e-05
-3.32463e-06
-3.39871e-06
1.5516e-06
0.00306534
-0.00117983
0.00290927
0.000410197
0.186173
0.000297015
-0.000538247
-0.00012361
0.000737047
-4.95328e-09
-2.01406e-08
-3.25042e-08
-4.08459e-08
4.15765e-10
-1.82825e-10
2.74869e-05
-2.28999e-05
9.51039e-05
-3.00059e-05
-6.04251e-05
-8.17382e-06
-7.52493e-05
-7.23829e-05
-0.000461631
-0.000419241
0.00170357
-0.000134684
-0.000227537
-0.000595373
0.00139968
0.586693
0.400057
6.50337e-05
-3.38372e-05
8.40619e-05
-8.72412e-06
-1.2161e-06
-1.36257e-06
-5.31645e-07
5.0023e-07
2.74327e-05
-9.41667e-05
0.00011211
2.00715e-05
8.96274e-10
-5.52194e-10
-3.45877e-05
0.000112935
0.000124879
-9.47535e-05
0.000102216
0.00119038
-0.00136621
-0.000159618
1.36419e-05
-6.36252e-05
7.64387e-05
2.03505e-05
1.99882e-07
2.3133e-07
1.20658e-06
1.37501e-06
-2.34668e-07
2.42532e-07
6.38217e-06
-2.99072e-06
9.47617e-07
3.73697e-06
5.58251e-06
3.36472e-05
-1.87567e-05
3.05959e-06
3.33683e-06
-5.61829e-10
2.39989e-09
-1.15611e-08
-1.58809e-09
2.8848e-05
-2.28649e-05
1.39271e-05
1.88011e-05
-2.84608e-08
1.42619e-08
-3.30425e-08
-9.43892e-09
-0.054608
0.0331135
1.13915e-07
2.72828e-07
2.00053e-07
4.53365e-07
1.05055e-07
6.42679e-08
-1.52657e-08
1.68773e-07
-9.43052e-09
3.5853e-08
-2.53354e-08
-3.21889e-10
0
-1.39878e-10
0
4.18694e-10
-1.3325e-10
0
3.04166e-10
0
0
0
0
-1.42827e-06
7.18213e-07
1.89298e-05
-1.42921e-06
6.03707e-07
-1.15483e-06
-1.04211e-07
-0.069844
-0.0472909
0.0428267
0.000394501
0.000307192
0.000413193
6.23698e-05
0.00015426
8.53858e-05
3.49734e-05
3.75066e-05
2.15709e-06
-4.02067e-05
-8.5814e-05
-2.90772e-05
5.22082e-06
-0.00013846
-2.77418e-05
-0.000298597
-0.000434729
1.68443e-10
9.96319e-09
-5.06867e-10
0.0155017
-5.90774e-05
0.00445208
0.00512898
-3.96363e-06
0.000140759
-0.00117966
0.000149919
-7.51835e-06
5.50412e-06
0.0415471
-4.64083e-07
-0.00198062
-5.94153e-09
-1.63151e-08
-3.29713e-08
1.36223e-08
0
0.00107702
-0.0950055
-3.48119e-06
-0.0215621
-0.0223547
-1.53635e-07
-2.46013e-07
-2.19321e-09
0.102759
4.24465e-06
0.272131
0.00307922
-0.00108691
2.44685e-08
0.000205183
8.30224e-05
0.00105949
-0.00148041
1.72653e-05
0.00106445
5.18718e-06
-6.27561e-06
1.38535e-05
-0.227409
1.1417e-05
9.93084e-07
-1.17428e-10
-7.30909e-10
0.218324
4.6692e-09
-0.000105158
-1.42557e-07
0.000190784
0
-0.000113679
0.00837838
2.31947e-05
-5.01242e-06
-0.0764606
0.773989
0.00570757
-1.21055e-07
-4.06086e-07
1.93388e-09
0.0100165
1.13104e-05
0.0725425
2.17246e-06
2.5787e-06
1.53692e-06
0.189301
4.84857e-05
0.320695
0.297753
-3.08445e-08
1.90636e-10
0.000110528
-2.08073e-05
-0.00846024
-0.00121917
-5.14729e-08
-0.00372484
7.0319e-07
0.00173656
-2.03075e-09
-3.27824e-09
7.15846e-10
-6.50522e-07
5.23995e-07
8.4565e-09
0.000210857
0.000422514
1.18584e-05
-0.00453174
7.70549e-08
0.00181389
-0.0142577
0.020656
0.000720232
6.88958e-07
2.92766e-07
2.5305e-06
4.02278e-09
-2.50766e-05
-7.75039e-09
0.00179159
2.84754e-05
-3.8522e-05
5.72118e-08
3.57088e-05
-3.63225e-06
4.53125e-09
0.00639217
-1.12712e-06
-0.016881
-1.58244e-06
1.75333e-07
-2.18923e-08
6.17771e-07
0.164657
-5.07527e-10
-3.59917e-06
2.45144e-08
0.347416
-0.000193251
0.0119399
3.36941e-05
0.00012462
-2.23923e-08
0
0
-7.70388e-07
0.0720702
0.000163446
4.76366e-07
-4.91068e-10
5.89563e-07
-0.0217308
-9.0498e-07
-2.94193e-06
0
0.00411587
0
9.1894e-05
1.84613e-05
2.05022e-05
-4.41273e-09
-6.49831e-07
2.25659e-06
4.08182e-07
4.21135e-07
2.99651e-07
5.32324e-05
0.000140837
-0.00654461
0.00949015
-1.31274e-09
5.64698e-09
9.08942e-09
-1.37842e-05
-6.50649e-05
0.00444162
-0.00341854
4.37666e-08
0.00158272
0.0476743
0.000165627
-1.63275e-08
4.24975e-08
-0.00935142
3.444e-09
-3.53034e-08
1.68304e-08
1.57966e-08
-1.14158e-08
0.00120022
9.28526e-05
-2.08814e-05
-0.00435571
0.402287
0.146665
3.69294e-09
1.6186e-05
-0.0168676
-0.00490925
5.68799e-06
0.143637
0.159255
-0.00151369
-0.00131944
0.0134266
-0.0275568
0.101645
-0.0380319
0.153494
-5.13366e-08
9.40781e-07
0.0982704
-9.9608e-06
-5.18816e-07
-1.10424e-05
0.078451
3.08789e-06
6.81967e-09
0.000152656
1.67589e-08
-7.21075e-08
0.00534099
0.00511022
3.44708e-05
-1.61319e-08
-0.000547749
0.0144865
-1.61883e-07
-0.0631462
-1.35058e-07
-2.3039e-07
0.62776
3.80845e-07
8.67033e-06
0.00588276
0.163797
3.64493e-06
1.05656
0.395262
-0.0123897
-2.13231e-08
2.8518e-08
-4.17348e-05
0
0.00031346
5.92951e-08
0.976018
-7.34431e-05
2.07732e-06
-9.94391e-10
9.3102e-05
-3.37655e-08
0.136047
9.46797e-05
0.000100777
-5.48444e-10
0.000144047
-1.01617e-08
-0.000130875
0.000182529
-0.000158719
4.65513e-09
-3.95441e-05
0.174657
-7.10461e-06
2.77277e-05
6.73754e-09
1.37524e-09
-0.0818299
3.91103e-05
-0.00144334
5.10022e-08
-8.27389e-05
-1.05384e-06
0.138674
0
0
0.152896
0
7.11716e-06
0.0557828
9.37617e-05
-5.33469e-08
0.000599548
-2.22772e-09
0.00366128
-2.0907e-08
0.00429922
-0.00139533
-0.00156689
-4.04024e-09
0.00189501
-9.74085e-09
-0.000880771
7.81955e-09
0.00642743
0.00110648
0.00074763
1.77281e-07
4.67093e-10
-1.21479e-10
5.64102e-10
3.53698e-05
1.06347e-10
-4.65311e-05
3.33523e-05
2.95726e-06
0
7.14778e-06
0.000217468
0
-5.63946e-10
-5.39506e-05
2.38092e-09
-7.11814e-10
0
0
5.04027e-05
1.48488e-09
6.89723e-07
9.55349e-06
-1.56891e-05
-5.76992e-09
0.000398593
0.00267222
0.000462335
5.85053e-09
9.01256e-05
-0.000325586
0.000148177
-1.68477e-07
4.15438e-07
0.000336977
4.17858e-05
-3.68863e-05
-1.39811e-08
0.216627
0.0444564
0.129808
1.29465e-06
4.24816e-05
0.000115984
-0.00843848
1.27258e-06
0.141495
-0.0133479
3.16411e-05
-0.0200688
-0.015452
1.01681e-05
-0.0190458
0.000105535
0.0343513
-1.69059e-05
-2.42742e-05
7.97695e-06
0.000128776
-1.75095e-07
-4.61543e-06
0.556144
-1.65687e-06
0.621574
6.04143e-06
1.11939e-06
-0.0339185
-0.178393
0.000141083
-0.000167918
0.000126885
8.15677e-06
-0.000116522
-1.25499e-06
-0.00525489
-4.01751e-07
0.0421518
0.000880701
-1.79008e-06
0.00473599
0.0719487
1.85902e-05
-0.000239609
1.42042e-06
-1.18693e-05
0.807913
0.74992
1.25188e-05
-3.21242e-06
0
-8.72967e-05
0
3.14711e-05
1.24593e-06
-7.018e-05
-0.000386496
1.57632e-06
0.00991526
-8.56672e-07
0.0254668
0.000619626
-3.44521e-07
0.117848
2.71222e-09
4.34457e-07
6.49652e-07
-0.000544555
4.83923e-07
-4.874e-07
1.43206e-07
2.57663e-06
0.000415199
-0.000288284
0.000450684
0.000461813
0
-3.45437e-05
0.00556405
0
0.000369744
-4.84889e-07
1.13041e-10
0.0326142
-0.00986954
0
0
0.000241419
-5.68543e-09
8.94671e-06
0.141239
-0.144225
7.1415e-05
0.000149396
3.20562e-10
-0.00253002
-1.67561e-08
-0.0020985
0.000286077
0.000870026
0.0150747
3.83046e-08
0
-0.000437434
0.00030508
0.00660374
-3.04882e-09
-0.000139045
0.192953
-0.000348959
6.09225e-10
0.00353334
-6.81281e-06
-0.0209766
2.14384e-10
0.00190241
2.52877e-05
0.00717162
-0.0010444
5.67548e-06
3.2328e-10
0.00275519
-2.57339e-06
4.24196e-07
6.67833e-09
0.0109205
0.00905983
2.08425e-10
-8.35755e-07
-0.0001913
5.75141e-06
-3.1429e-07
-0.0085666
-0.0115145
-0.00047409
-1.22167e-09
-1.01399e-07
7.69792e-09
5.32946e-06
-9.74197e-07
-3.5087e-08
0.000255803
-2.14194e-10
8.69189e-10
6.91128e-05
1.45144e-07
9.83413e-05
0
0
-1.8336e-05
0.371151
0.000141922
-5.65866e-05
-6.37428e-05
9.47846e-06
-7.50959e-09
-0.000265367
0.000119538
-1.93481e-06
0
0.000593913
3.48466e-09
-0.00741919
-0.129327
-1.98401e-09
-0.184106
-2.12905e-08
2.59021e-08
0.00323299
0
0.006593
-7.24884e-09
-1.21257e-08
-0.202779
-5.88956e-08
0.000292011
-0.000334949
-9.28529e-05
-1.5525e-10
-7.80091e-09
-0.00422577
0.00106555
0
-5.47631e-07
1.00996e-07
-0.00175207
-1.06367e-06
2.00799e-06
0.676831
0.000404503
-0.00147709
0.00040611
0.0206012
0.0051537
0.136097
4.02471e-07
7.19998e-06
0.105068
1.54346e-05
-1.00967e-10
0
0.00595195
-7.60375e-09
0.00319906
-0.0163267
-6.21745e-05
0.00016031
0.00258032
-0.0195189
0.266573
0.00429142
0.0085543
4.21785e-08
9.49609e-06
0.000111163
0
-8.44936e-07
0.0671243
0.000958758
0.000561227
0.16685
0.000150392
0
0.116989
0.144806
-2.67868e-07
-2.44537e-05
1.7771e-08
-2.9541e-09
-3.65332e-09
2.1932e-08
-4.47599e-06
0
-2.58647e-05
0.0232906
-9.98965e-05
-4.54601e-05
6.41587e-08
0.104885
0.0218484
-2.12802e-08
0.301599
0.00595033
-0.000442146
0.000155196
3.5368e-09
0.0207024
6.65155e-10
5.1694e-09
2.89883e-09
-1.04278e-09
0.00502617
2.0016e-08
-8.72294e-05
-0.00518868
-0.0114978
7.0879e-05
4.53368e-05
0.0483008
3.60407e-09
-0.0185062
1.31067e-08
0.252001
-1.55937e-06
-1.16867e-08
0.0223837
1.5871e-05
0.0105092
8.61435e-06
0.164645
-1.0256e-06
0
0
0.000354742
5.0443e-09
-1.44374e-06
-0.0148695
1.1608e-10
-3.3462e-08
0.00552486
0
0.199254
-1.37234e-08
0.132364
0.0762502
-0.000311562
0.000181253
4.94103e-10
-0.000100257
2.79953e-05
-0.000569152
-9.80077e-07
-3.21384e-06
-0.00099375
0.139571
-0.00415112
-0.00691174
1.7691e-06
0.121272
4.75774e-05
0
0.00273827
2.03593e-08
2.76468e-08
0.00033539
-2.69e-05
1.11211e-08
1.27882e-09
0.00364832
0.00602021
2.84298e-07
0.160249
0.000444931
0.113169
0
-1.1086e-09
-8.95892e-09
0
-8.679e-05
-2.10678e-08
2.8653e-10
0.0202011
-0.00728503
-0.000570489
-0.0961651
-0.00972502
-8.78897e-10
2.28642e-05
0.009676
0
0.0323689
0.00730534
-2.08526e-07
-1.08879e-06
-1.03923e-10
4.09064e-10
4.11016e-06
0.168874
2.75059e-07
7.66062e-05
0
-0.0118693
-0.0159062
6.97141e-10
1.30041e-07
0.000138475
8.07511e-09
2.68415e-05
-5.49869e-05
0
-3.65396e-05
8.73175e-10
0.000690336
-0.00427967
0
0.00783567
2.72969e-06
1.62441e-08
0
-0.000162181
0.000657501
-9.96958e-05
0.800843
-0.00256132
-1.17469e-10
-0.00229719
-0.00206068
8.27221e-06
-0.000507502
0
4.9945e-05
1.62276e-06
0.00126446
-8.56851e-08
0.000496408
4.85138e-06
-0.000166496
-0.207933
-1.63183e-06
-3.66001e-10
-0.000135774
-1.85254e-06
-0.000203328
3.46663e-06
0.183879
-6.89227e-05
0.000155991
-0.000102725
2.04646e-05
0.00304154
-3.17621e-05
5.02284e-10
5.12725e-05
-6.98111e-06
0.00104713
-1.13119e-08
9.1249e-07
-0.00198706
-0.000185445
-1.2297e-05
7.71109e-06
6.18684e-06
0
0.00756444
1.41278e-08
0.0847124
-1.30309e-06
-4.88283e-07
-9.73317e-07
-0.015157
-0.0088176
1.06858
4.45847e-07
-4.74266e-05
-0.0121008
-7.43733e-06
6.94797e-09
0
0.0096635
1.69137e-07
3.0578e-10
-0.0017172
-0.00286395
-0.000135675
0.109396
0.0427356
0.508453
-7.57838e-07
5.54192e-05
0.000366803
-4.51047e-05
-2.96768e-05
3.15175e-06
0.00181892
-3.32698e-07
0.000149985
-0.000462095
0.175829
0.00231341
0
-0.10909
-0.00062637
-4.90731e-10
-1.05329e-05
-7.58257e-10
-0.000291493
-1.74817e-07
0
0.0124263
-0.00320654
9.55674e-05
-0.00248849
-4.65107e-05
9.97969e-10
-0.00581349
-0.0779781
0.0929406
0.151122
0.070492
0.0524117
-1.61805e-08
0.000483103
-0.128938
-0.121547
-0.0116823
-1.68327e-10
6.83486e-05
8.99793e-06
-3.71453e-10
-5.78155e-05
0
0.000136356
0.00198471
-8.95416e-07
8.07551e-10
1.18567e-05
0.437789
-0.196536
-9.179e-06
-0.183186
-0.00885807
-0.0148209
-0.101394
-0.0170171
0.0602025
-0.00689537
-0.0530402
0.0344186
0.00615756
0.00299149
0.000148822
-3.21873e-07
-0.0014525
1.22152e-08
0.0342813
0.000299661
-0.0658326
-9.14497e-08
2.93793e-05
-3.56816e-08
-9.92994e-05
0.0293468
0.000875022
0.00629896
-0.00189733
-0.140561
-0.105726
-3.18409e-08
-0.140394
-1.74983e-09
4.29047e-10
0
0
-0.00204261
-0.0015132
-0.00156173
-0.00195676
0.0255603
-1.53533e-05
-0.000647417
-0.00122759
-5.0084e-06
-0.0459997
9.96581e-09
1.01849e-07
2.02351e-08
0.0017736
5.70705e-08
3.95551e-07
-1.3899e-09
-1.10711e-05
-8.32126e-10
-1.39021e-09
-0.000374478
-0.0212161
-1.95487e-08
-0.000864166
7.13135e-09
0.000377868
-8.57388e-09
2.92268e-06
0.959477
0
-0.00594084
0
0
0
0.00615052
-0.0050272
0.0208443
0
-1.13212e-10
-0.0233364
-7.78515e-10
0
0.00387057
0
-0.0127586
0
-0.0254587
0
-2.59319e-05
-1.09263e-09
-0.000333497
-6.1814e-10
-1.72857e-05
8.76841e-10
8.76457e-06
-3.06304e-10
-1.36523e-05
-1.00014e-06
-0.00187342
0.0956422
0.00171152
0.11855
0.231642
-6.9225e-07
-1.17875e-06
1.8709e-05
-0.259083
-5.29764e-08
-3.68872e-07
1.63169e-07
-6.9579e-08
0.122634
0.204049
0.000182728
-7.53563e-05
0.428224
4.95643e-07
0.750515
-0.0313853
0.00021375
-0.000242757
-0.0403446
0.000518767
-0.000374796
4.05852e-10
-5.64053e-05
2.07605e-08
5.76497e-09
0.000563803
-0.000632983
-4.4163e-09
-0.000369252
0.0780121
0.0044156
5.53133e-05
-2.51583e-08
3.72767e-07
-0.00176114
-0.00623583
-0.0504744
0.00609433
3.98492e-05
6.66082e-06
3.4054e-07
-8.59571e-06
4.96677e-07
-2.85576e-05
0.0095697
5.01393e-05
5.83141e-06
-4.6552e-07
-8.8818e-05
0
-0.00332587
1.02404e-09
0.0830462
9.50101e-05
1.40252e-10
-0.00014088
0.000175526
0.000237769
-0.000160264
1.03537e-06
9.80257e-07
-0.00725037
0
0.0117089
1.53024e-09
-4.58359e-05
-0.0763038
2.13822e-05
2.38619e-10
-0.00172949
0.00525259
0.00101104
0
-5.6507e-08
0.000263062
-4.83679e-09
-1.4401e-06
-0.0057282
-2.61772e-06
0.254772
-6.54024e-10
8.62713e-06
1.4903e-07
-9.75405e-07
1.93793e-07
-0.000477828
0.000462574
-0.00244268
-0.00555808
1.13455e-06
-1.2324e-06
3.37862e-06
-1.79075e-06
-3.28748e-05
-1.359e-10
0.00204261
-0.00078386
-0.177658
0.50364
0.327851
0.315355
-9.61556e-08
0.667015
4.7571e-07
0.779794
-2.20125e-08
0.684383
0.00697649
-0.0309326
-0.158779
-0.0946539
-0.101096
5.61027e-06
-1.82111e-06
2.42915e-06
3.1517e-10
0.130412
-0.00107943
0.000134888
0.151906
-0.0141011
-0.0157829
0.0448369
3.35366e-05
5.49811e-07
0.170236
1.69344e-05
-3.64668e-05
-0.0432233
-0.00187633
0
0
0
2.93038e-05
-0.00542513
0.0222821
-4.74647e-09
-0.00295331
0.0203154
-0.00421295
-0.00509577
0.135475
5.00542e-06
-0.0361146
-0.0906473
-0.00375421
-5.5316e-07
1.53251e-05
-0.0173311
-6.04875e-05
0.00118583
-0.00169393
0
5.40396e-06
7.97602e-06
1.21193e-07
-5.14469e-08
-1.97042e-08
0.131189
-0.119792
0.0153558
0.051786
2.09796e-05
0.00456878
0.0745554
-0.00125302
0.0112178
0.0513958
0.000175962
-0.0734306
-0.0797707
-0.0158006
0.550346
0.00390113
0.00613547
-0.000156328
-3.83504e-05
0.830052
0.533985
0
0
1.46048e-10
0
6.20484e-07
1.50937e-09
9.24969e-07
-0.0120263
5.00701e-07
-1.36911e-08
0.0629689
6.01188e-08
1.08953e-07
0.0440819
-0.00404206
6.33956e-10
2.60843e-08
7.38447e-08
-1.24235e-07
1.96974e-07
0.00337602
7.59181e-08
-0.00180673
-6.28154e-05
0.0108943
7.70012e-06
-6.20235e-07
-2.203e-05
-0.053756
0.105301
-0.0043143
0.0323519
-0.00520365
-0.00204971
-1.75486e-08
-1.41968e-08
-4.38415e-08
5.13164e-05
0.0814575
0.0049113
-1.51174e-07
-0.00142337
0.00326948
-2.18107e-09
0.208121
0
7.41661e-07
6.69129e-08
0.0817532
0.00769629
0.00437792
-1.73225e-05
0.000233768
5.94492e-09
0.00089378
-3.46894e-10
-0.000380049
0.122547
-0.00342958
0.0127907
0.0987907
0.000943473
-0.000306806
5.12616e-05
-0.0219835
-0.00028854
0.000437661
5.39567e-05
-0.000202421
0.00031162
0.148739
0.0354271
1.10656e-07
-0.00178936
-0.00203834
2.57088e-08
-0.000326915
0.0932782
2.93339e-07
-6.44949e-07
-2.49583e-05
0.121722
0.00222172
0.0448149
3.41198e-07
0.00965063
0.000717485
0
0.0563476
0.00515536
0.0129289
0.0750996
9.93599e-07
0.0637387
4.08706e-07
0.0634321
5.82161e-05
-1.19567e-05
-7.06425e-09
0.000335832
0
0
0
0.000110526
3.26027e-05
-0.000122152
0.252796
-0.010044
0.119773
0.151061
-0.00323904
0.00778593
0.468792
0.00131779
8.72389e-09
1.12199e-08
1.19614e-08
9.0845e-09
-0.00190958
-5.93358e-08
-1.85361e-07
-1.72018e-07
0.0110072
0.000892951
0.0294065
0.00154083
4.00095e-10
-1.04008e-08
8.58665e-10
1.03411e-10
-5.56995e-10
6.95551e-10
0.000101018
-0.000122094
-0.00252213
0.00859252
-0.000882194
0.622473
3.21885e-05
0.156691
0.545196
0.178404
4.98933e-05
-7.95934e-05
-1.73064e-06
5.96723e-05
0.0874759
1.05569e-06
5.70598e-06
9.17767e-07
-2.07692e-08
-0.00468022
0.000766843
5.90506e-06
0.000487074
8.97528e-09
0.00211088
-0.00418999
-0.000132886
0.123654
-3.60301e-05
0.000974309
0.000695048
-1.2516e-05
0.177564
0.0160671
-0.00871104
0.000430091
-3.26907e-10
4.5196e-06
2.38211e-06
6.37796e-06
-0.0207774
-0.0315221
-0.00427426
-0.000214808
-5.07966e-06
0.0120502
-0.000810874
0.000542142
3.61586e-06
-3.09994e-05
-6.42583e-07
2.4174e-05
0.00145959
-3.97133e-10
0.15277
-0.0163817
-3.0798e-09
-2.36047e-09
-1.22117e-08
7.08886e-10
9.91539e-09
-0.036553
0.453815
0.10735
-0.00225667
-2.23162e-06
-1.10463e-05
0.59859
0.0538791
0.185666
0.00579797
1.23444e-07
-1.34747e-08
8.63885e-06
8.76689e-06
-1.93873e-05
2.085e-05
-1.68605e-05
-8.84134e-06
-1.54026e-07
6.88285e-08
2.9628e-07
-5.5692e-07
0.143616
-0.139046
-0.0694585
0.00020832
0.174187
-1.84593e-10
1.6911e-10
0
0.00326212
-0.00248386
0.0530121
-0.0107962
-0.00195516
0
-2.65592e-10
0.0724459
0.000845762
0.00220437
-1.06612e-10
-6.98004e-10
0.000456248
-0.000308145
0
0.00444918
-0.0393058
-0.0456408
0.0132157
-0.00506004
0.00432786
0.0190424
-0.00947701
0.00336309
-1.24596e-06
-1.27942e-06
0.000230722
0.0472139
-0.079852
0.00210364
0.00245684
0.00432551
-0.00160198
2.19583e-08
0.00251288
-0.0638619
1.14556e-08
2.29562e-08
0.149809
3.64832e-07
-2.16897e-06
0.18838
1.42997e-08
-9.74066e-08
-2.64469e-08
-1.22154e-07
-0.00034499
0.000929498
0.00192524
-0.00105283
3.21664e-10
1.30148e-08
3.22731e-09
-3.20029e-08
-1.5964e-07
-0.000757537
0.000629092
0.00042891
-0.00161749
0.000897413
0.0558966
-0.0373618
0.00285581
1.57389e-07
0.0546522
-1.40008e-07
1.35957e-05
1.28434e-05
-0.0197198
-0.0296337
2.42697e-08
-0.153671
0.918678
-1.64591e-06
3.66213e-06
-0.0478239
-2.72769e-09
1.95397e-07
0.148975
-0.0043522
-0.0288934
-1.1665e-10
-4.19096e-10
2.66886e-10
0
0.0691808
2.07686e-10
0
7.68013e-10
-1.05367e-09
-0.000725756
-7.00177e-10
-1.8955e-06
-2.06166e-05
-6.12769e-05
0.000177907
-0.024007
-0.0243828
0.274571
-7.7054e-05
-3.69579e-06
-8.77847e-05
3.35846e-10
8.88862e-10
7.17957e-09
0.000408626
5.84839e-05
-0.000134291
6.39307e-05
0.0224709
-0.000222873
-9.1922e-05
1.49145e-09
5.97642e-05
-2.48217e-05
0
-2.72065e-09
-1.28965e-10
0.000190294
1.47689e-07
1.72348e-06
-0.00310152
0.0232013
-0.0225357
-7.09756e-09
6.27929e-09
4.57002e-09
0.00213116
-4.19156e-05
-6.38095e-06
1.01018e-05
2.59722e-06
-0.00252185
-0.000410633
0.000225581
-0.000185493
0.326636
0.210213
-1.05202e-06
-0.000137209
-0.000270558
0.00430075
-0.00420337
-0.00224583
1.08461
0.882795
0.696548
-0.000521083
-0.0646686
0.032322
1.71126e-05
-7.96687e-07
0
-0.0101311
-1.23046e-05
-1.56376e-05
-3.21619e-06
0.000802842
0
3.31688e-05
-2.13069e-05
3.35143e-05
0.00219808
-1.1792e-06
-0.000817763
0.00550707
-1.23271e-08
-1.42066e-06
2.53276e-06
1.37683e-10
7.07714e-09
2.19439e-09
-5.14692e-05
3.29014e-05
5.99026e-06
1.18609e-09
-0.00138501
0
1.18915e-09
0.151694
-1.56172e-10
-2.74584e-10
5.02911e-09