# vtk DataFile Version 2.0
Unstructured Grid by M++
ASCII
DATASET UNSTRUCTURED_GRID
POINTS 4072 float
  0.828125   0.890625 0
  0.875000   0.531250 0
  0.828125   0.750000 0
  0.593750   0.968750 0
  0.828125   0.671875 0
  0.828125   0.875000 0
  0.593750   0.937500 0
  0.828125   0.656250 0
  0.828125   0.640625 0
  0.828125   0.843750 0
  0.593750   0.906250 0
  0.828125   0.625000 0
  0.781250   0.968750 0
  0.828125   0.609375 0
  0.828125   0.812500 0
  0.593750   0.875000 0
  0.593750   0.828125 0
  0.593750   0.796875 0
  0.828125   0.703125 0
  0.593750   0.765625 0
  0.828125   0.937500 0
  0.812500   0.875000 0
  0.859375   0.515625 0
  0.812500   0.734375 0
  0.812500   0.937500 0
  0.578125   1.000000 0
  0.578125   0.750000 0
  0.812500   0.687500 0
  0.578125   0.953125 0
  0.812500   0.656250 0
  0.812500   0.859375 0
  0.578125   0.921875 0
  0.812500   0.828125 0
  0.578125   0.890625 0
  0.812500   0.593750 0
  0.812500   0.796875 0
  0.578125   0.859375 0
  0.578125   0.812500 0
  0.578125   0.781250 0
  0.796875   1.000000 0
  0.796875   0.859375 0
  0.796875   0.718750 0
  0.562500   0.984375 0
  0.562500   0.937500 0
  0.796875   0.843750 0
  0.562500   0.906250 0
  0.796875   0.812500 0
  0.562500   0.875000 0
  0.796875   0.578125 0
  0.796875   0.781250 0
  0.562500   0.843750 0
  0.812500   0.984375 0
  0.562500   0.796875 0
  0.812500   0.953125 0
  0.562500   0.765625 0
  0.796875   0.937500 0
  0.546875   0.750000 0
  0.781250   0.984375 0
  0.828125   0.593750 0
  0.781250   0.843750 0
  0.781250   0.937500 0
  0.546875   1.000000 0
  0.781250   0.703125 0
  0.546875   0.968750 0
  0.546875   0.921875 0
  0.781250   0.828125 0
  0.546875   0.890625 0
  0.781250   0.796875 0
  0.546875   0.859375 0
  0.781250   0.562500 0
  0.781250   0.765625 0
  0.546875   0.828125 0
  0.796875   0.968750 0
  0.546875   0.781250 0
  0.765625   1.000000 0
  0.765625   0.968750 0
  0.531250   0.984375 0
  0.765625   0.687500 0
  0.531250   0.953125 0
  0.531250   0.937500 0
  0.531250   0.906250 0
  0.765625   0.812500 0
  0.531250   0.875000 0
  0.765625   0.781250 0
  0.531250   0.843750 0
  0.781250   1.000000 0
  0.765625   0.546875 0
  0.765625   0.750000 0
  0.531250   0.812500 0
  0.781250   0.953125 0
  0.531250   0.765625 0
  0.515625   0.750000 0
  0.750000   0.984375 0
  0.750000   0.953125 0
  0.796875   0.593750 0
  0.796875   0.562500 0
  0.750000   0.843750 0
  0.750000   0.937500 0
  0.515625   1.000000 0
  0.750000   0.906250 0
  0.515625   0.968750 0
  0.750000   0.671875 0
  0.750000   0.875000 0
  0.515625   0.937500 0
  0.515625   0.921875 0
  0.515625   0.890625 0
  0.750000   0.796875 0
  0.515625   0.859375 0
  0.750000   0.765625 0
  0.515625   0.828125 0
  1.000000   0.718750 0
  0.750000   0.531250 0
  0.750000   0.734375 0
  0.515625   0.796875 0
  0.734375   1.000000 0
  0.734375   0.968750 0
  0.734375   0.937500 0
  0.781250   0.578125 0
  0.781250   0.546875 0
  0.968750   0.578125 0
  0.734375   0.828125 0
  0.968750   0.546875 0
  0.734375   0.796875 0
  0.734375   0.765625 0
  0.968750   0.671875 0
  0.734375   0.734375 0
  0.968750   0.640625 0
  0.734375   0.703125 0
  0.968750   0.609375 0
  0.734375   0.671875 0
  0.734375   0.656250 0
  0.734375   0.625000 0
  0.968750   0.531250 0
  0.734375   0.593750 0
  0.984375   0.734375 0
  0.984375   0.703125 0
  0.734375   0.515625 0
  0.718750   0.984375 0
  0.718750   0.953125 0
  0.718750   0.921875 0
  0.953125   0.562500 0
  0.718750   0.812500 0
  0.953125   0.531250 0
  0.718750   0.781250 0
  0.718750   0.750000 0
  0.953125   0.656250 0
  0.718750   0.718750 0
  0.953125   0.625000 0
  0.718750   0.687500 0
  0.953125   0.593750 0
  0.718750   0.656250 0
  0.671875   1.000000 0
  0.718750   0.640625 0
  0.718750   0.609375 0
  0.953125   0.515625 0
  0.718750   0.578125 0
  0.968750   0.718750 0
  0.968750   0.687500 0
  0.953125   0.671875 0
  0.703125   0.968750 0
  0.703125   0.937500 0
  0.937500   0.656250 0
  0.703125   0.906250 0
  0.937500   0.546875 0
  0.703125   0.796875 0
  0.937500   0.515625 0
  0.703125   0.765625 0
  0.937500   0.671875 0
  0.703125   0.734375 0
  0.937500   0.640625 0
  0.703125   0.703125 0
  0.937500   0.609375 0
  0.703125   0.671875 0
  0.937500   0.578125 0
  0.703125   0.640625 0
  0.656250   0.984375 0
  0.703125   0.625000 0
  0.703125   0.593750 0
  0.718750   0.796875 0
  0.953125   0.734375 0
  0.812500   1.000000 0
  0.859375   0.656250 0
  0.703125   0.781250 0
  0.937500   0.718750 0
  0.953125   0.703125 0
  0.796875   0.984375 0
  0.843750   0.640625 0
  0.812500   0.968750 0
  0.859375   0.625000 0
  0.796875   0.953125 0
  0.843750   0.609375 0
  0.687500   0.953125 0
  0.687500   0.921875 0
  0.687500   0.890625 0
  0.921875   0.734375 0
  0.687500   0.796875 0
  0.687500   0.781250 0
  0.921875   0.703125 0
  0.687500   0.765625 0
  0.687500   0.750000 0
  0.921875   0.656250 0
  0.687500   0.718750 0
  0.921875   0.625000 0
  0.687500   0.687500 0
  0.921875   0.593750 0
  0.687500   0.656250 0
  0.640625   1.000000 0
  0.921875   0.562500 0
  0.687500   0.625000 0
  0.640625   0.968750 0
  0.687500   0.609375 0
  0.687500   0.578125 0
  0.937500   0.687500 0
  0.921875   0.671875 0
  0.671875   0.921875 0
  0.906250   0.656250 0
  0.671875   0.906250 0
  0.671875   0.875000 0
  0.906250   0.718750 0
  0.671875   0.781250 0
  0.671875   0.765625 0
  0.671875   0.734375 0
  0.906250   0.640625 0
  0.671875   0.703125 0
  0.906250   0.609375 0
  0.671875   0.671875 0
  0.906250   0.578125 0
  0.671875   0.640625 0
  0.625000   0.984375 0
  0.671875   0.609375 0
  0.625000   0.953125 0
  0.671875   0.593750 0
  0.671875   0.562500 0
  0.765625   0.953125 0
  0.812500   0.609375 0
  0.656250   1.000000 0
  0.656250   0.953125 0
  0.656250   0.906250 0
  0.890625   0.640625 0
  0.656250   0.890625 0
  0.656250   0.859375 0
  0.890625   0.734375 0
  0.656250   0.796875 0
  0.812500   0.921875 0
  0.562500   1.000000 0
  0.625000   0.828125 0
  0.812500   0.843750 0
  0.843750   0.593750 0
  0.812500   0.812500 0
  0.625000   0.718750 0
  0.828125   0.687500 0
  0.640625   0.593750 0
  0.812500   0.781250 0
  0.625000   0.687500 0
  0.765625   0.828125 0
  0.640625   0.562500 0
  0.812500   0.750000 0
  0.562500   0.828125 0
  0.781250   0.875000 0
  0.546875   0.937500 0
  0.781250   0.671875 0
  0.781250   0.593750 0
  0.546875   0.656250 0
  0.796875   0.750000 0
  0.562500   0.812500 0
  0.796875   0.546875 0
  0.765625   0.796875 0
  0.765625   0.593750 0
  1.000000   0.531250 0
  0.812500   0.718750 0
  0.859375   0.562500 0
  0.625000   0.625000 0
  0.812500   0.703125 0
  0.812500   0.906250 0
  0.578125   0.968750 0
  0.984375   0.593750 0
  0.828125   0.578125 0
  0.828125   0.781250 0
  0.593750   0.843750 0
  0.812500   0.671875 0
  0.625000   0.578125 0
  0.796875   0.671875 0
  0.562500   0.734375 0
  0.984375   0.562500 0
  0.828125   0.546875 0
  0.812500   0.640625 0
  0.750000   0.812500 0
  0.625000   0.546875 0
  0.796875   0.640625 0
  0.562500   0.703125 0
  0.828125   0.515625 0
  0.781250   0.734375 0
  0.546875   0.796875 0
  0.781250   0.531250 0
  0.750000   0.781250 0
  0.625000   0.515625 0
  0.796875   0.609375 0
  0.562500   0.671875 0
  0.765625   0.656250 0
  0.765625   0.859375 0
  0.531250   0.921875 0
  0.812500   0.578125 0
  0.562500   0.656250 0
  0.984375   0.687500 0
  0.750000   0.750000 0
  0.812500   0.562500 0
  0.812500   0.765625 0
  0.578125   0.828125 0
  0.562500   0.625000 0
  0.984375   0.656250 0
  0.750000   0.718750 0
  0.812500   0.531250 0
  0.781250   0.656250 0
  0.546875   0.718750 0
  0.781250   0.625000 0
  0.546875   0.687500 0
  0.750000   0.640625 0
  0.796875   0.531250 0
  0.562500   0.593750 0
  0.984375   0.625000 0
  0.750000   0.687500 0
  0.546875   0.984375 0
  0.609375   0.812500 0
  0.796875   0.875000 0
  0.546875   0.953125 0
  0.609375   0.578125 0
  0.843750   0.515625 0
  0.765625   0.515625 0
  0.765625   0.718750 0
  0.531250   0.781250 0
  0.984375   0.546875 0
  0.750000   0.609375 0
  0.796875   0.828125 0
  0.671875   0.968750 0
  0.796875   0.796875 0
  0.796875   0.765625 0
  0.609375   0.671875 0
  0.796875   0.734375 0
  0.546875   0.812500 0
  0.796875   0.703125 0
  0.843750   0.546875 0
  0.609375   0.609375 0
  0.796875   0.687500 0
  0.562500   0.953125 0
  0.796875   0.656250 0
  0.609375   0.562500 0
  0.796875   0.625000 0
  0.609375   0.531250 0
  0.546875   0.640625 0
  0.765625   0.671875 0
  0.531250   0.734375 0
  0.796875   0.515625 0
  0.765625   0.640625 0
  0.531250   0.703125 0
  0.703125   1.000000 0
  0.765625   0.609375 0
  0.531250   0.671875 0
  0.765625   0.578125 0
  0.531250   0.640625 0
  0.546875   0.609375 0
  0.531250   1.000000 0
  0.890625   0.593750 0
  0.656250   0.656250 0
  0.781250   0.515625 0
  0.546875   0.578125 0
  0.531250   0.968750 0
  0.890625   0.562500 0
  0.656250   0.625000 0
  0.609375   0.968750 0
  0.781250   0.859375 0
  0.656250   0.593750 0
  0.750000   0.703125 0
  0.515625   0.765625 0
  0.781250   0.812500 0
  0.781250   0.781250 0
  0.593750   0.687500 0
  0.781250   0.750000 0
  0.593750   0.656250 0
  0.781250   0.718750 0
  0.531250   0.796875 0
  0.828125   0.562500 0
  0.593750   0.625000 0
  0.781250   0.687500 0
  0.828125   0.531250 0
  0.593750   0.593750 0
  0.812500   0.625000 0
  0.578125   0.687500 0
  0.781250   0.640625 0
  0.781250   0.609375 0
  0.593750   0.515625 0
  0.515625   0.781250 0
  0.812500   0.546875 0
  0.578125   0.609375 0
  0.812500   0.515625 0
  0.578125   0.578125 0
  0.750000   0.656250 0
  0.515625   0.718750 0
  0.750000   0.625000 0
  0.515625   0.687500 0
  0.687500   0.984375 0
  0.750000   0.593750 0
  0.515625   0.656250 0
  0.531250   0.546875 0
  0.750000   0.562500 0
  0.515625   0.625000 0
  0.531250   0.515625 0
  0.984375   0.515625 0
  0.750000   0.578125 0
  0.515625   0.531250 0
  0.828125   0.796875 0
  0.640625   0.703125 0
  0.828125   0.765625 0
[...]
CELL_DATA 7648
SCALARS scalar_value float 1
LOOKUP_TABLE default
3.90689e-07
5.53645e-07
-1.17497e-07
1.0086e-07
-3.78196e-08
-5.19476e-08
-0.000749864
-0.000231529
0.000223499
-0.000725203
0.0292514
0.00407
0.0502544
-0.0253212
0.151843
0.0381995
0.150981
-0.0172379
0.422319
1.02214
0.358873
0.85927
1.10762
0.679761
0.0338084
0.0103704
0.00875614
-0.000495825
0.00190145
0.000580908
0.00034746
5.79693e-05
-7.12128e-10
-1.40625e-09
-5.84119e-09
3.15041e-10
0.0615852
-0.0129776
1.16106e-07
9.77583e-08
-0.0103956
-0.00901989
0.000265184
0.000247676
1.94739e-09
-3.33374e-09
2.44817e-09
4.85186e-09
-5.22488e-09
1.70601e-08
2.31006e-08
4.19971e-08
-6.17437e-08
8.33791e-08
-4.24156e-08
-2.54793e-08
-0.178005
-0.120135
-0.0257933
-0.0682684
0.254914
0.901785
2.3532e-06
-1.51491e-06
-9.88094e-07
5.56406e-06
-2.23078e-07
-1.9183e-06
-3.52943e-07
-1.16898e-05
6.84824e-08
2.50865e-06
-4.47155e-07
0.248804
0.0162414
-8.73725e-08
6.90911e-08
-9.30779e-08
-6.24662e-09
8.34184e-08
-1.8727e-07
1.70186e-07
1.19611e-07
5.01429e-08
-4.07575e-08
-4.91129e-08
-1.26458e-07
-3.61142e-06
-2.77087e-06
3.50067e-07
-3.16005e-07
2.47062e-06
-1.8842e-06
-4.15621e-07
1.03343e-05
-4.50316e-06
1.5343e-05
4.80138e-06
3.36196e-05
-4.26886e-05
-2.07444e-05
-4.32953e-07
5.38464e-06
-3.25345e-07
1.15174
0
0
0
-6.62921e-08
-9.72316e-09
-4.97102e-08
0
3.43439e-10
0
-3.46174e-09
0
1.43858e-10
0
1.03041e-10
-0.00173817
0.00019765
0.00275066
3.61473e-05
-0.00137496
-0.00152175
-0.00537169
0.0077533
-2.23219e-10
-8.88798e-10
-1.79192e-08
2.14026e-09
4.29263e-08
-1.23425e-08
3.19434e-08
1.02537e-08
-0.00212526
0.0011833
0.00229861
0.00324301
-0.00417553
4.02791e-10
0
2.56608e-06
2.37436e-05
1.71846e-05
0.000468134
-4.18687e-05
1.8571e-05
-0.15484
-0.103228
0.00856022
0.000464234
-6.33834e-05
0.000398199
-0.000158991
-8.51781e-05
-7.32023e-05
-8.92034e-05
4.67942e-05
-1.58047e-05
-5.82277e-06
0.00556096
0.00663802
-0.000259212
0.00128066
0.00616252
-0.0021824
0.00966675
-0.00629434
-2.31301e-09
-3.04878e-09
1.66427e-09
3.19204e-10
7.11051e-10
-1.13068e-09
0
-0.00051577
-0.000192725
0.000648515
0.000100519
-0.000208618
0.000363109
0.000964087
0.00077049
0.000197226
-0.000471666
0.000740734
0.000265475
0.000182443
9.13551e-05
8.19003e-06
0.000317963
-6.94229e-05
6.53967e-05
-5.18839e-05
-4.5631e-05
1.29606e-05
4.25685e-08
1.69841e-07
1.07124e-07
-4.05413e-08
7.69787e-05
-0.000182637
0.000378034
0.000142036
-1.30411e-09
3.96569e-10
-0.000452079
1.36816e-05
0.000637173
-0.000281459
0.000558686
0.0041733
-0.00425537
-3.73289e-05
-0.000137849
0.000173677
0.00076987
0.000528766
-2.83346e-07
1.55344e-06
1.12899e-06
3.95046e-06
5.65263e-07
-6.22613e-06
-7.71713e-06
3.4889e-07
-1.13331e-06
4.50075e-07
4.12649e-06
-4.92367e-05
2.6548e-05
-0.000155824
-3.02959e-05
2.35315e-07
-1.48183e-07
1.98872e-07
1.24801e-07
-0.000614765
0.000356227
5.51328e-06
-0.00049019
1.43483e-07
-7.64877e-08
8.6789e-08
6.72604e-08
-0.000220703
-4.30511e-05
-7.64984e-08
-3.46512e-08
4.53055e-08
-3.26038e-08
1.20979e-08
-5.80854e-09
2.22338e-09
8.11436e-09
9.13703e-10
5.51114e-09
-1.14749e-10
3.98375e-08
-1.37865e-08
4.65063e-08
1.12683e-08
-4.9144e-08
1.25451e-07
-1.51128e-07
-5.69901e-08
-3.99535e-10
1.20484e-08
-1.46734e-08
-4.09536e-10
3.97035e-07
-2.89161e-06
1.91337e-05
1.18119e-05
1.00187e-05
1.73249e-05
-1.91768e-06
0.670678
0.997299
1.08079
-5.61565e-05
9.09836e-05
-5.07839e-05
6.16997e-06
-2.26579e-05
-1.29383e-07
-2.75536e-05
-2.91106e-06
3.90561e-05
-7.54189e-08
-2.04404e-07
-1.03197e-07
-3.14566e-06
0.000222774
0.000315077
-0.00448434
-0.00395
5.26982e-10
-2.23881e-08
-3.08251e-10
0.0299662
0.000111212
0.0112518
0.0164434
-4.55953e-08
-0.00184226
-0.00227966
-0.00132694
9.97554e-06
0.00384732
0.112847
-2.22612e-07
-0.00227616
-4.57871e-07
-3.91963e-08
-4.70745e-08
0
0
-3.92299e-06
0.891123
-2.60411e-05
-0.0645036
0.53797
6.36253e-07
4.29052e-08
4.51475e-08
0.288409
4.27942e-06
0.0795235
-0.0103393
0.0136921
-7.32124e-08
-0.000179696
0.055331
0.00304786
-0.00358049
-1.2099e-05
0.00264935
-2.2231e-05
-1.50263e-05
-2.72392e-05
0.0327589
-2.46949e-05
1.69832e-06
4.28011e-09
-9.62377e-10
0.0010727
1.84962e-08
-0.0020792
4.21889e-07
-0.000391568
-4.04992e-09
7.90213e-05
-0.00518993
7.66823e-06
4.23514e-05
0.00768677
0.000337546
-0.0294196
-2.20221e-06
5.70736e-06
9.32126e-07
-0.0136813
2.81986e-06
1.15956
2.25369e-06
-4.51516e-06
5.82566e-06
0.0124085
-4.15684e-06
0.000356271
0.000307062
-6.01573e-10
-1.01119e-09
0.00171199
-8.03407e-06
0.0195583
-0.162331
-3.4247e-06
0.0999415
1.05632e-07
0.0287806
0
0
0
-1.51844e-06
1.53303e-06
9.03325e-08
0.00250085
0.00459584
-0.000535773
0.831238
-1.59999e-07
0.00396955
-0.0991675
0.0294428
-0.0118926
5.09716e-07
-6.29401e-09
-0.000214779
4.46147e-08
-0.000590614
-1.18118e-08
-0.00144389
0.000384147
-1.0375e-05
1.93634e-08
-0.000543439
1.22687e-05
1.26972e-08
0.0604644
4.76804e-09
-0.000440755
-3.81921e-08
-9.76107e-08
2.09601e-07
1.85295e-07
0.000138793
1.64906e-09
-2.65099e-05
-3.30695e-09
-6.95881e-05
6.69483e-05
-0.234598
-7.58476e-05
-0.000847028
7.09918e-06
0
0
-6.00803e-09
0.261999
0.00632431
3.76113e-07
-1.39116e-10
3.41883e-08
0.44525
-1.55557e-07
7.17305e-08
0
-0.00338412
0
-6.43713e-05
-0.000759074
-9.56601e-05
3.50053e-08
-1.40522e-06
3.92276e-06
4.66795e-09
-3.45509e-08
7.1868e-09
7.2868e-05
6.82195e-05
0.137882
-0.130675
0
0
8.7429e-06
0.000784671
-0.000979954
0.12643
-0.0138796
-9.06835e-08
-0.050173
1.10946
-1.10385e-05
-2.02041e-07
-3.33454e-08
0.0260444
-2.59537e-07
9.35112e-08
-1.13753e-07
-2.11631e-07
1.65202e-07
0.0389985
0.000142338
-7.42037e-05
-0.0564327
-5.49153e-06
0.0236367
3.82647e-10
-1.05084e-05
-0.162158
-0.00252448
-1.00725e-06
0.163518
0.125486
0.0291164
-0.00436056
0.15055
-0.0383637
0.0974282
0.469432
0.0441968
3.66689e-08
-2.66886e-06
0.214606
9.75668e-06
2.72009e-05
7.64859e-06
1.19695
-2.89007e-06
3.58221e-10
-0.000891993
2.6633e-07
2.78902e-07
0.0217507
0.00148876
0.0142487
-1.5235e-07
-0.00058855
0.0971732
-2.7665e-08
0.558495
3.2075e-07
-7.71557e-08
0.000715448
7.14123e-07
-4.61443e-05
0.118358
0.0537646
4.11274e-05
-8.69874e-06
0.00359693
0.194207
-1.23837e-09
-2.43821e-05
-0.000169088
1.78764e-09
-0.000479648
-3.23634e-07
-9.51638e-05
-0.00137356
6.54567e-06
-1.72444e-08
-9.91196e-05
-1.57639e-07
-0.000373439
5.48027e-05
-0.000254121
0
0.00222615
-1.00196e-10
-4.94313e-05
0.0017509
0.00427447
3.79742e-08
-2.37886e-05
0.00406387
-0.000178618
0.000203359
-2.21312e-08
1.83874e-08
0.636058
0.000303792
-0.00332823
1.6475e-08
0.00127443
-7.05561e-07
0.0600547
0
1.80175e-10
0.335342
1.88297e-10
-2.28439e-05
0.589665
-8.01768e-05
-7.96776e-08
-0.0175051
-5.11029e-07
0.0111304
6.95637e-08
-0.0585191
0.00898768
0.0457997
-3.21801e-08
0.00969925
8.80807e-08
0.0148874
1.78585e-10
0.332749
-0.023443
-0.0504828
2.52732e-07
2.68705e-10
-6.30536e-10
3.22837e-09
6.53448e-05
5.40793e-10
-0.00114269
0.000128104
3.25373e-05
-2.16603e-09
-5.47392e-05
0.0128416
0
-1.23147e-10
0.000378219
-8.32299e-10
-3.71149e-09
0
0
5.88359e-05
-3.79705e-09
-6.36752e-06
1.71945e-05
-2.42397e-05
-2.69015e-08
-1.13195e-05
0.0554047
0.000906057
-2.72799e-10
7.83588e-05
-0.000206433
-7.80074e-05
4.73143e-07
1.60017e-06
0.000631478
0.000186499
-2.23368e-05
-1.90732e-07
0.156666
0.000714732
0.306616
-5.47924e-06
0.000135444
-0.000636319
-0.0350941
5.71636e-06
0.134815
0.0406982
-6.59609e-05
0.0239524
0.909581
6.86657e-06
-0.161172
0.000441861
0.0561389
-5.44438e-06
7.58137e-07
1.01333e-06
-0.000169022
1.67538e-06
1.92375e-05
0.000731496
-1.01452e-06
9.12702e-05
2.58643e-06
2.03878e-07
0.018894
0.0229109
0.00224843
0.000686363
8.53945e-05
0.00388799
0.00394934
-6.77514e-07
-0.00155316
-9.29051e-07
-6.07987e-06
-0.00833851
9.04462e-06
0.000118681
1.13453
-6.77134e-05
0.00071602
-5.51131e-08
0.0031064
-0.000205932
-0.000198402
2.09656e-06
2.85373e-06
0
-0.000222697
0
-1.92139e-05
2.31528e-08
0.000902543
0.0480201
5.35619e-06
0.126845
-1.64231e-06
0.837658
-0.0021329
-2.36012e-07
-0.0212084
2.27921e-08
3.60992e-07
9.61838e-07
0.000707958
1.45264e-06
-2.67718e-06
1.68792e-06
9.09715e-06
7.15602e-08
1.95584e-06
-1.24668e-05
-5.42666e-06
0
1.98326e-06
0.0616149
0
-2.1539e-05
-7.70756e-07
0
0.0362134
-0.138461
0
4.49456e-09
-2.66355e-05
-3.09428e-08
-4.69762e-05
0.0839748
0.694588
-0.000630765
-0.0018804
0
-0.0379576
7.94929e-08
-0.124555
0.000237766
-0.00292205
0.0927787
-1.48339e-07
0
0.0217112
0.00195938
-0.0722219
2.57182e-09
0.000213952
0.0230059
7.66401e-06
0
0.0844838
0.000849346
0.710268
0
0.0165966
-0.000225259
-0.00129173
-0.0179672
0.00013922
0
0.00166497
-6.79583e-07
-2.03516e-08
0
0.285774
0.0446531
0
1.57133e-06
4.88684e-05
1.05572e-05
1.153e-05
0.477378
0.301631
-0.00698453
1.86584e-08
-1.27069e-08
-1.22182e-09
0.000157545
-3.41053e-05
-1.71977e-07
-8.51881e-07
-2.02945e-09
0
-5.16416e-05
-2.1589e-08
-0.000374366
0
0
-7.37536e-05
0.00112731
-0.000517698
-0.000316001
0.001144
1.72702e-05
6.45366e-10
-0.000521846
-0.00178763
-1.56299e-06
2.71576e-10
0.000838094
-9.16191e-09
-0.108664
0.0146203
-1.93264e-07
0.00855373
2.36657e-09
9.62537e-08
-0.0981484
0
-0.00019646
-1.35295e-07
-1.16259e-07
0.00336004
-7.00909e-10
0.00118704
-0.000150376
-0.000202566
0
-3.44043e-08
0.0106277
0.00229908
0
-1.57633e-06
-2.1421e-06
-0.0262882
7.39572e-06
-7.68567e-07
0.000261013
0.00102809
-0.017043
0.00654475
1.00808
0.0259282
-0.00318509
-4.08154e-07
-3.30963e-05
0.108034
0.00440076
8.04881e-09
0
0.0293967
0
-0.0225279
-0.0187777
3.2497e-06
-9.72563e-05
0.40414
0.890074
0.0908872
0.00347981
-0.202519
-4.9432e-07
1.22687e-05
-0.000306921
0
-8.29897e-06
0.170082
0.00644708
-1.88697e-06
0.103403
5.27426e-05
-5.49246e-09
-1.82539e-06
0.0401704
2.12676e-07
9.71994e-06
-6.20211e-08
3.00531e-10
4.36345e-10
1.34699e-08
-0.000535984
0
0.000106978
-0.12678
0.000127112
-0.000167845
-1.15383e-07
0.362664
-0.156568
3.36946e-07
0.00310744
-0.272714
-0.0186822
0.00140831
-1.64561e-08
-0.114126
-1.19941e-07
7.30123e-09
2.24131e-07
-4.32905e-09
0.144412
1.9044e-07
7.66422e-05
-0.00262487
0.546655
0.000138509
0.000125092
0.111155
-2.8703e-09
0.150033
-5.78835e-08
0.127778
1.02752e-06
1.25362e-09
0.259437
-2.55311e-05
-0.227979
-0.000537854
0.103103
2.17255e-05
-1.0679e-10
0
-4.15981e-05
0
1.5296e-05
0.12527
1.18612e-08
-5.83966e-07
-0.121207
0
0.000496288
-4.91049e-09
0.323788
0.422188
4.65681e-06
0.000112407
-2.72396e-10
0.00139624
-4.35779e-05
-0.017542
5.21433e-08
2.72568e-06
1.03875
0.00822826
-0.00680081
-0.0305523
-1.65665e-06
0.164355
0.000331703
0
-0.0235319
9.53383e-09
-2.60886e-09
0.0117149
-0.000113079
-1.22168e-09
0
2.36389e-06
-0.00199452
4.10777e-09
0.000139072
-1.88331e-05
0.0851868
0
9.63018e-10
4.79711e-08
-1.26181e-10
0.0903429
6.00022e-08
1.30881e-10
2.59058e-06
-0.0334533
0.00111219
0.0503612
0.430673
0
-8.92198e-06
-0.0123981
0
0.00763452
0.00504889
-1.20905e-06
-3.92249e-08
0
-6.83434e-08
-0.000939834
0.00188851
-2.488e-07
-0.00028723
0
0.237709
0.974427
0
-1.87458e-07
-0.000240288
-5.55843e-10
0.040723
6.96361e-07
0
0.00204373
0
-0.000184073
-0.00333599
0
-0.00509091
1.6893e-05
-2.28096e-07
0
-1.26254e-05
0.0460055
0.00922437
4.61365e-05
-0.0453634
0
-0.0537651
0.0628361
-7.42829e-06
0.000322679
-3.23318e-10
0.000130961
0.000124016
0.041271
-6.61145e-08
0.0251572
-4.40902e-06
-7.18196e-05
0.0134396
6.3929e-08
2.58923e-08
0.000282204
1.08508e-05
1.07515e-06
0.000438207
0.00328972
-0.000237911
0.0353716
0.000341682
-1.79025e-05
0.166399
0.000166335
0
-0.000370156
3.92726e-06
-0.046734
5.79552e-08
4.13443e-06
-0.0168327
2.10128e-06
5.42944e-05
-5.59327e-07
0.000491215
6.93851e-09
-0.174714
-4.9039e-08
0.174046
-1.92691e-06
1.55997e-07
1.03096e-06
0.406432
-0.0425807
0.000250959
-5.91038e-09
3.50052e-07
-0.021236
1.42441e-05
-3.53583e-08
0
0.0431682
-5.13239e-07
0
-8.11739e-07
-0.096206
0.000411297
0.142861
1.16256
0.00047581
-2.58182e-05
0.000529863
0.0016253
-0.000390413
2.18221e-05
3.33659e-06
0.146158
1.90598e-06
-0.00149222
-0.00230658
0.143947
-0.164263
-4.24045e-10
0.0663932
-0.00125206
0
0.00071022
0
-0.00186617
-5.31309e-09
1.85651e-10
0.179671
-0.0232688
0.000379706
-0.0224471
2.96718e-06
7.80117e-08
1.0034
0.0704194
0.118375
0.17441
0.123831
1.09747
7.30757e-08
-0.0116224
0.851939
0.689094
-0.00382018
-1.44982e-08
-0.000537022
-5.02194e-07
5.58365e-08
0.000634572
1.64167e-07
0.0017831
-0.00920074
-2.94509e-05
0
4.68357e-05
0.000443192
0.0197186
-8.85023e-05
0.00176246
0.003169
-0.0149702
0.562946
0.424601
0.836765
-0.0212198
0.242518
0.279195
0.00334051
0.0045918
-0.0140742
3.35761e-07
0.0122908
3.20808e-08
0.306153
-0.00523464
0.693241
-2.90585e-06
2.73825e-06
1.30974e-07
0.000158304
0.842339
0.120135
0.117923
-0.0146905
0.00975577
0.00208967
8.53133e-10
0.00281032
-2.15165e-08
-3.20155e-08
0
0
0.00594316
-0.00253131
0.876733
0.0131758
-0.0041543
-0.00210147
-0.0135943
0.00787364
2.34946e-05
0.499718
-9.1784e-10
-1.97845e-09
-2.16293e-09
0.00161365
6.81695e-09
-2.02517e-08
4.53072e-09
2.39425e-05
-1.47278e-09
-3.90661e-10
0.000875808
0.0383235
6.8447e-08
0.0201364
-1.71919e-08
-0.0146462
3.11713e-08
2.59604e-06
-0.00011399
0
0.196781
0
0
0
0.121483
-0.218103
-0.21905
0
0
-0.167127
0
0
-0.251541
0
-0.0740152
0
-0.129262
0
3.07885e-06
-1.02152e-09
-0.000262689
-6.8423e-10
2.50685e-05
0
2.98882e-05
-1.28681e-09
1.57544e-05
2.35326e-05
-0.0191434
0.104161
0.105469
-0.0199625
0.157351
-1.44478e-06
-1.36143e-06
-5.22057e-06
0.054777
9.37823e-07
3.26427e-07
9.34274e-07
-7.76715e-08
0.0222999
0.00127655
-2.33275e-05
0.000104293
0.00120271
-6.83111e-10
-0.000665191
0.380028
5.63346e-05
-2.20657e-05
6.77934e-05
0.000659519
-0.00660988
1.34586e-09
-2.68288e-05
2.05723e-09
-1.29376e-08
-0.0266322
0.0273674
2.29212e-08
-0.000129011
0.209198
0.0761872
0.000196311
-7.13172e-08
-4.00547e-07
0.17445
-0.172253
0.84876
0.117556
0.000391021
-1.78579e-05
1.20407e-05
1.78335e-05
8.49082e-09
-0.000391569
-0.235722
0.000237753
-6.28549e-08
1.00453e-07
-0.179433
-2.06137e-10
-0.000744426
-2.58651e-07
0.10496
-0.000564179
-1.00514e-08
5.42708e-05
-0.000187202
0.00106103
-0.00069999
-2.54775e-07
-1.58018e-07
-0.0338486
3.62266e-09
0.0382904
2.2532e-07
1.00508e-06
0.0349469
0.000176519
-8.15589e-09
0.0251533
-0.0902182
0.00688802
0
-3.20059e-08
0.000295951
-2.89463e-08
1.09426e-09
0.00556353
-1.70158e-07
0.000883073
9.84459e-08
-2.46608e-07
1.55922e-09
-1.38229e-08
4.30486e-09
-0.00758515
0.00861154
0.0315995
-0.0525994
-4.36096e-07
3.55165e-06
-5.74923e-07
-3.83165e-07
9.29891e-05
-1.53039e-10
1.1289e-06
3.21581e-06
0.0197948
0.00134659
0.000222192
0.00128701
4.7736e-08
0.000145154
-5.99608e-08
-0.00018309
-3.20526e-08
0.000335939
-0.0734162
0.0553281
0.0129911
0.0380439
0.0497873
-2.21344e-07
-4.81386e-06
6.71703e-08
2.15992e-09
0.217305
-0.0215913
0.000225349
0.142846
0.208494
0.219641
1.12542
1.41704e-07
-3.35402e-05
0.220682
-4.59776e-05
-2.3659e-05
0.473818
-0.0041899
0
0
0
0.00139088
0.204687
0.461864
2.16141e-09
-0.00984693
0.0467672
-0.0236672
-0.0183223
0.123396
6.5763e-05
0.497056
0.798704
-0.000699961
1.71293e-05
6.27106e-05
0.496812
0.0208649
-0.0173721
-0.0137413
0
7.89131e-06
-2.88039e-05
1.61442e-08
2.78449e-09
7.25294e-09
1.17046
0.796493
1.06368
1.13665
8.78138e-05
0.00260723
0.310931
-0.0112609
0.205447
0.360129
-0.000846896
0.830064
0.00475574
0.00531306
-0.00033091
0.057389
0.00302177
0.00727709
-0.000768347
9.02866e-05
4.00749e-05
0
0
0
0
1.71542e-05
-4.44302e-06
3.53478e-06
0.499293
5.3085e-07
1.95686e-07
0.171845
-1.94198e-07
8.56083e-07
0.699747
-0.151439
7.60028e-08
6.59533e-08
1.28169e-07
1.87145e-07
-1.88677e-07
-0.00239941
1.35961e-07
0.00844781
-0.000242225
-0.0433033
-6.70259e-06
-7.59496e-07
1.52928e-05
0.726061
0.148413
-0.0077698
0.0827598
-0.0319423
-0.00412839
-1.08464e-09
-8.7196e-10
-6.75159e-10
0.000291455
0.14118
0.00384856
-5.80114e-07
0.0208874
0.0108204
1.48581e-09
0.0639233
1.14371e-07
3.60556e-06
1.74679e-07
0.117593
-0.0718681
0.0313741
5.58307e-06
-0.00462417
2.29899e-07
0.00224084
-1.91562e-07
0.00793392
0.209619
-0.00827365
0.157389
0.260267
0.0192501
-6.81888e-05
-0.000354663
0.102795
-0.000206005
0.00130908
0.0166625
5.95935e-05
-0.00303035
-0.00907671
0.334694
8.98675e-06
0.0246713
-0.0279199
-3.30161e-07
0.0409547
0.324521
-1.30319e-08
2.51962e-07
9.04692e-07
0.0997013
-0.0248895
0.519807
-9.62193e-08
0.0116947
-0.0183191
0
0.19254
-0.00199781
0.112651
0.134301
2.53949e-06
0.601017
-1.48312e-06
0.213793
9.69335e-05
-4.76354e-05
-3.06053e-08
-0.00259514
0
0
0
5.47962e-06
-1.4962e-05
0.00707732
0.113711
0.152871
0.343105
0.0286769
-0.0546285
0.15045
0.000463022
0.195336
0
0
0
0
-0.0390073
-8.69591e-09
3.23489e-08
4.4356e-10
-0.0994291
-0.00598776
0.405364
0.293272
8.17907e-08
2.10083e-08
0
0
0
1.69227e-10
-0.00050017
-0.00852201
-0.0993471
0.239304
0.00500982
-0.000430873
6.53917e-06
-1.60604e-05
-0.000176328
-3.67985e-05
-1.05431e-06
-1.14751e-07
-1.71021e-06
-2.50287e-06
1.11778
-1.79514e-05
-7.75187e-06
7.56988e-06
-6.07551e-08
-0.0202719
0.000702023
2.79427e-07
-0.00657705
0
0.0485772
-0.0216177
-0.000157819
-0.0164548
0.000252414
-0.0106775
0.0070753
-5.55429e-05
0.179801
-0.143124
0.407674
-0.0185902
0
-5.18449e-05
-1.7605e-05
-5.55745e-05
1.01471
0.603103
-0.0248022
-6.66736e-05
-6.54532e-05
0.139116
0.00854496
-0.0142107
1.14085e-05
-6.14736e-05
-3.07517e-07
-1.1716e-05
-0.0114767
3.86407e-10
0.106149
0.216463
0
-4.50587e-10
0
-1.15628e-07
-7.37884e-08
0.00297654
0.000126543
2.7277e-05
5.37367e-06
-1.04405e-05
-2.51424e-05
0.000737968
-0.000592205
0.000721833
-0.153008
-8.51567e-09
1.03483e-09
-7.81583e-05
5.57737e-05
-5.64221e-05
-5.70808e-05
1.26398e-05
-3.24897e-05
6.4716e-07
5.06321e-07
3.67077e-07
-1.19435e-06
0.00175551
0.0074496
0.00613076
-0.14561
0.225518
0
0
0
0.00777011
-0.00675745
0.144768
-0.0292232
0.000725089
0
-1.04752e-09
1.10213
-0.0058612
0.128536
0
-1.31875e-09
0.0676908
0.0402871
-1.8991e-10
-0.00364646
1.10365
0.822063
1.1939
0.216716
-0.146345
-0.140202
0.054096
0.00627605
-8.07851e-06
4.49293e-05
0.000565207
0.19021
0.0942145
-0.00926025
0.0547732
0.0655769
0.161332
-1.3161e-09
0.000104403
2.95671e-06
-4.73834e-10
1.27017e-08
0.00236954
-1.15016e-06
-1.45129e-06
0.00085257
1.17146e-10
3.6092e-09
-4.49688e-09
1.74439e-08
-0.000891229
-0.0301208
-0.0125113
0.018257
0
0
0
9.4397e-10
-5.09635e-09
-0.000520909
0.00152041
-0.00301876
-1.29405e-06
0.00222153
0.0616017
-0.13375
0.331695
1.95378e-06
0.257762
1.46724e-06
-3.60973e-06
-3.46252e-05
-0.000307715
-2.67155e-05
-5.84686e-10
0.00257089
-6.0874e-05
6.94342e-06
-1.28646e-06
0.475175
3.4865e-10
1.7358e-08
0.175402
-0.0267536
0.611068
-2.41416e-10
-8.98588e-10
4.01163e-10
-3.05486e-10
0.370738
0
0
0
0
-0.0641922
0
-6.5497e-06
-0.00101114
-0.00282871
0.00128746
0.0181732
0.0873244
0.06883
0.000501202
0.000230619
0.000256369
0
2.05817e-10
-4.9186e-10
0.00685913
-0.00224816
0.00179816
-0.00290074
0.0648369
-0.000213063
0.000360361
0
-0.000147021
7.46178e-05
0
1.49176e-10
0
-0.0196546
1.36056e-05
-4.51986e-05
0.0977554
0.480794
0.82219
-1.01077e-09
-2.85802e-10
-1.18767e-09
0.000524079
0.0104804
3.60241e-05
1.52003e-05
5.21738e-06
-0.0708503
0.00651405
-0.00585932
-0.0120212
0.00240091
0.00751826
3.01546e-06
2.9651e-06
7.61402e-06
-0.0139746
0.0142682
-0.0184994
0.00014471
0.000236532
0.000276662
-0.00958841
0.714934
0.142292
4.13229e-05
3.88051e-05
0
0.157642
4.68918e-05
2.62901e-05
-2.78897e-05
-0.00285768
0
-1.62104e-05
-4.60945e-05
-4.78526e-06
-0.0315404
2.66225e-05
0.0178347
0.978373
2.01059e-05
1.71602e-05
-9.86683e-06
-8.28666e-09
-3.83497e-08
-2.12332e-08
-0.0011782
-0.00052859
0.000109425
0
3.07366e-05
0
0
0.00192658
0
0
0
0.0183833
1.14647
-2.28654e-06
1.70632e-06
-9.72949e-05
7.99143e-05
0.0001803
0.0134816
0.464394
-0.00211044
-0.0507435
-0.0297469
5.63861e-09
-0.00290947
-0.00343868
0.00159324
0.869247
0.248735
0.00388407
0.000346665
0.000203951
0.140906
1.1151
-3.08211e-10
8.20487e-09
-1.86573e-10
-0.00288084
0.0020586
0.00101235
0.001324
0.000141293
0.402242
0.440788
0.329389
0.157451
0.000234769
-2.55104e-07
-2.26491e-07
0.000150376
0.190799
0.00603407
0.00237044
-9.35149e-09
-2.76893e-08
-1.17715e-09
-0.00209721
0.00608254
8.24911e-05
-1.9007e-07
0.00273341
-0.00111371
-0.000698323
-5.01482e-05
0.00174724
0.0384479
-2.05852e-07