# vtk DataFile Version 2.0
Unstructured Grid by M++
ASCII
DATASET UNSTRUCTURED_GRID
POINTS 4072 float
  0.828125   0.890625 0
  0.875000   0.531250 0
  0.828125   0.750000 0
  0.593750   0.968750 0
  0.828125   0.671875 0
  0.828125   0.875000 0
  0.593750   0.937500 0
  0.828125   0.656250 0
  0.828125   0.640625 0
  0.828125   0.843750 0
  0.593750   0.906250 0
  0.828125   0.625000 0
  0.781250   0.968750 0
  0.828125   0.609375 0
  0.828125   0.812500 0
  0.593750   0.875000 0
  0.593750   0.828125 0
  0.593750   0.796875 0
  0.828125   0.703125 0
  0.593750   0.765625 0
  0.828125   0.937500 0
  0.812500   0.875000 0
  0.859375   0.515625 0
  0.812500   0.734375 0
  0.812500   0.937500 0
  0.578125   1.000000 0
  0.578125   0.750000 0
  0.812500   0.687500 0
  0.578125   0.953125 0
  0.812500   0.656250 0
  0.812500   0.859375 0
  0.578125   0.921875 0
  0.812500   0.828125 0
  0.578125   0.890625 0
  0.812500   0.593750 0
  0.812500   0.796875 0
  0.578125   0.859375 0
  0.578125   0.812500 0
  0.578125   0.781250 0
  0.796875   1.000000 0
  0.796875   0.859375 0
  0.796875   0.718750 0
  0.562500   0.984375 0
  0.562500   0.937500 0
  0.796875   0.843750 0
  0.562500   0.906250 0
  0.796875   0.812500 0
  0.562500   0.875000 0
  0.796875   0.578125 0
  0.796875   0.781250 0
  0.562500   0.843750 0
  0.812500   0.984375 0
  0.562500   0.796875 0
  0.812500   0.953125 0
  0.562500   0.765625 0
  0.796875   0.937500 0
  0.546875   0.750000 0
  0.781250   0.984375 0
  0.828125   0.593750 0
  0.781250   0.843750 0
  0.781250   0.937500 0
  0.546875   1.000000 0
  0.781250   0.703125 0
  0.546875   0.968750 0
  0.546875   0.921875 0
  0.781250   0.828125 0
  0.546875   0.890625 0
  0.781250   0.796875 0
  0.546875   0.859375 0
  0.781250   0.562500 0
  0.781250   0.765625 0
  0.546875   0.828125 0
  0.796875   0.968750 0
  0.546875   0.781250 0
  0.765625   1.000000 0
  0.765625   0.968750 0
  0.531250   0.984375 0
  0.765625   0.687500 0
  0.531250   0.953125 0
  0.531250   0.937500 0
  0.531250   0.906250 0
  0.765625   0.812500 0
  0.531250   0.875000 0
  0.765625   0.781250 0
  0.531250   0.843750 0
  0.781250   1.000000 0
  0.765625   0.546875 0
  0.765625   0.750000 0
  0.531250   0.812500 0
  0.781250   0.953125 0
  0.531250   0.765625 0
  0.515625   0.750000 0
  0.750000   0.984375 0
  0.750000   0.953125 0
  0.796875   0.593750 0
  0.796875   0.562500 0
  0.750000   0.843750 0
  0.750000   0.937500 0
  0.515625   1.000000 0
  0.750000   0.906250 0
  0.515625   0.968750 0
  0.750000   0.671875 0
  0.750000   0.875000 0
  0.515625   0.937500 0
  0.515625   0.921875 0
  0.515625   0.890625 0
  0.750000   0.796875 0
  0.515625   0.859375 0
  0.750000   0.765625 0
  0.515625   0.828125 0
  1.000000   0.718750 0
  0.750000   0.531250 0
  0.750000   0.734375 0
  0.515625   0.796875 0
  0.734375   1.000000 0
  0.734375   0.968750 0
  0.734375   0.937500 0
  0.781250   0.578125 0
  0.781250   0.546875 0
  0.968750   0.578125 0
  0.734375   0.828125 0
  0.968750   0.546875 0
  0.734375   0.796875 0
  0.734375   0.765625 0
  0.968750   0.671875 0
  0.734375   0.734375 0
  0.968750   0.640625 0
  0.734375   0.703125 0
  0.968750   0.609375 0
  0.734375   0.671875 0
  0.734375   0.656250 0
  0.734375   0.625000 0
  0.968750   0.531250 0
  0.734375   0.593750 0
  0.984375   0.734375 0
  0.984375   0.703125 0
  0.734375   0.515625 0
  0.718750   0.984375 0
  0.718750   0.953125 0
  0.718750   0.921875 0
  0.953125   0.562500 0
  0.718750   0.812500 0
  0.953125   0.531250 0
  0.718750   0.781250 0
  0.718750   0.750000 0
  0.953125   0.656250 0
  0.718750   0.718750 0
  0.953125   0.625000 0
  0.718750   0.687500 0
  0.953125   0.593750 0
  0.718750   0.656250 0
  0.671875   1.000000 0
  0.718750   0.640625 0
  0.718750   0.609375 0
  0.953125   0.515625 0
  0.718750   0.578125 0
  0.968750   0.718750 0
  0.968750   0.687500 0
  0.953125   0.671875 0
  0.703125   0.968750 0
  0.703125   0.937500 0
  0.937500   0.656250 0
  0.703125   0.906250 0
  0.937500   0.546875 0
  0.703125   0.796875 0
  0.937500   0.515625 0
  0.703125   0.765625 0
  0.937500   0.671875 0
  0.703125   0.734375 0
  0.937500   0.640625 0
  0.703125   0.703125 0
  0.937500   0.609375 0
  0.703125   0.671875 0
  0.937500   0.578125 0
  0.703125   0.640625 0
  0.656250   0.984375 0
  0.703125   0.625000 0
  0.703125   0.593750 0
  0.718750   0.796875 0
  0.953125   0.734375 0
  0.812500   1.000000 0
  0.859375   0.656250 0
  0.703125   0.781250 0
  0.937500   0.718750 0
  0.953125   0.703125 0
  0.796875   0.984375 0
  0.843750   0.640625 0
  0.812500   0.968750 0
  0.859375   0.625000 0
  0.796875   0.953125 0
  0.843750   0.609375 0
  0.687500   0.953125 0
  0.687500   0.921875 0
  0.687500   0.890625 0
  0.921875   0.734375 0
  0.687500   0.796875 0
  0.687500   0.781250 0
  0.921875   0.703125 0
  0.687500   0.765625 0
  0.687500   0.750000 0
  0.921875   0.656250 0
  0.687500   0.718750 0
  0.921875   0.625000 0
  0.687500   0.687500 0
  0.921875   0.593750 0
  0.687500   0.656250 0
  0.640625   1.000000 0
  0.921875   0.562500 0
  0.687500   0.625000 0
  0.640625   0.968750 0
  0.687500   0.609375 0
  0.687500   0.578125 0
  0.937500   0.687500 0
  0.921875   0.671875 0
  0.671875   0.921875 0
  0.906250   0.656250 0
  0.671875   0.906250 0
  0.671875   0.875000 0
  0.906250   0.718750 0
  0.671875   0.781250 0
  0.671875   0.765625 0
  0.671875   0.734375 0
  0.906250   0.640625 0
  0.671875   0.703125 0
  0.906250   0.609375 0
  0.671875   0.671875 0
  0.906250   0.578125 0
  0.671875   0.640625 0
  0.625000   0.984375 0
  0.671875   0.609375 0
  0.625000   0.953125 0
  0.671875   0.593750 0
  0.671875   0.562500 0
  0.765625   0.953125 0
  0.812500   0.609375 0
  0.656250   1.000000 0
  0.656250   0.953125 0
  0.656250   0.906250 0
  0.890625   0.640625 0
  0.656250   0.890625 0
  0.656250   0.859375 0
  0.890625   0.734375 0
  0.656250   0.796875 0
  0.812500   0.921875 0
  0.562500   1.000000 0
  0.625000   0.828125 0
  0.812500   0.843750 0
  0.843750   0.593750 0
  0.812500   0.812500 0
  0.625000   0.718750 0
  0.828125   0.687500 0
  0.640625   0.593750 0
  0.812500   0.781250 0
  0.625000   0.687500 0
  0.765625   0.828125 0
  0.640625   0.562500 0
  0.812500   0.750000 0
  0.562500   0.828125 0
  0.781250   0.875000 0
  0.546875   0.937500 0
  0.781250   0.671875 0
  0.781250   0.593750 0
  0.546875   0.656250 0
  0.796875   0.750000 0
  0.562500   0.812500 0
  0.796875   0.546875 0
  0.765625   0.796875 0
  0.765625   0.593750 0
  1.000000   0.531250 0
  0.812500   0.718750 0
  0.859375   0.562500 0
  0.625000   0.625000 0
  0.812500   0.703125 0
  0.812500   0.906250 0
  0.578125   0.968750 0
  0.984375   0.593750 0
  0.828125   0.578125 0
  0.828125   0.781250 0
  0.593750   0.843750 0
  0.812500   0.671875 0
  0.625000   0.578125 0
  0.796875   0.671875 0
  0.562500   0.734375 0
  0.984375   0.562500 0
  0.828125   0.546875 0
  0.812500   0.640625 0
  0.750000   0.812500 0
  0.625000   0.546875 0
  0.796875   0.640625 0
  0.562500   0.703125 0
  0.828125   0.515625 0
  0.781250   0.734375 0
  0.546875   0.796875 0
  0.781250   0.531250 0
  0.750000   0.781250 0
  0.625000   0.515625 0
  0.796875   0.609375 0
  0.562500   0.671875 0
  0.765625   0.656250 0
  0.765625   0.859375 0
  0.531250   0.921875 0
  0.812500   0.578125 0
  0.562500   0.656250 0
  0.984375   0.687500 0
  0.750000   0.750000 0
  0.812500   0.562500 0
  0.812500   0.765625 0
  0.578125   0.828125 0
  0.562500   0.625000 0
  0.984375   0.656250 0
  0.750000   0.718750 0
  0.812500   0.531250 0
  0.781250   0.656250 0
  0.546875   0.718750 0
  0.781250   0.625000 0
  0.546875   0.687500 0
  0.750000   0.640625 0
  0.796875   0.531250 0
  0.562500   0.593750 0
  0.984375   0.625000 0
  0.750000   0.687500 0
  0.546875   0.984375 0
  0.609375   0.812500 0
  0.796875   0.875000 0
  0.546875   0.953125 0
  0.609375   0.578125 0
  0.843750   0.515625 0
  0.765625   0.515625 0
  0.765625   0.718750 0
  0.531250   0.781250 0
  0.984375   0.546875 0
  0.750000   0.609375 0
  0.796875   0.828125 0
  0.671875   0.968750 0
  0.796875   0.796875 0
  0.796875   0.765625 0
  0.609375   0.671875 0
  0.796875   0.734375 0
  0.546875   0.812500 0
  0.796875   0.703125 0
  0.843750   0.546875 0
  0.609375   0.609375 0
  0.796875   0.687500 0
  0.562500   0.953125 0
  0.796875   0.656250 0
  0.609375   0.562500 0
  0.796875   0.625000 0
  0.609375   0.531250 0
  0.546875   0.640625 0
  0.765625   0.671875 0
  0.531250   0.734375 0
  0.796875   0.515625 0
  0.765625   0.640625 0
  0.531250   0.703125 0
  0.703125   1.000000 0
  0.765625   0.609375 0
  0.531250   0.671875 0
  0.765625   0.578125 0
  0.531250   0.640625 0
  0.546875   0.609375 0
  0.531250   1.000000 0
  0.890625   0.593750 0
  0.656250   0.656250 0
  0.781250   0.515625 0
  0.546875   0.578125 0
  0.531250   0.968750 0
  0.890625   0.562500 0
  0.656250   0.625000 0
  0.609375   0.968750 0
  0.781250   0.859375 0
  0.656250   0.593750 0
  0.750000   0.703125 0
  0.515625   0.765625 0
  0.781250   0.812500 0
  0.781250   0.781250 0
  0.593750   0.687500 0
  0.781250   0.750000 0
  0.593750   0.656250 0
  0.781250   0.718750 0
  0.531250   0.796875 0
  0.828125   0.562500 0
  0.593750   0.625000 0
  0.781250   0.687500 0
  0.828125   0.531250 0
  0.593750   0.593750 0
  0.812500   0.625000 0
  0.578125   0.687500 0
  0.781250   0.640625 0
  0.781250   0.609375 0
  0.593750   0.515625 0
  0.515625   0.781250 0
  0.812500   0.546875 0
  0.578125   0.609375 0
  0.812500   0.515625 0
  0.578125   0.578125 0
  0.750000   0.656250 0
  0.515625   0.718750 0
  0.750000   0.625000 0
  0.515625   0.687500 0
  0.687500   0.984375 0
  0.750000   0.593750 0
  0.515625   0.656250 0
  0.531250   0.546875 0
  0.750000   0.562500 0
  0.515625   0.625000 0
  0.531250   0.515625 0
  0.984375   0.515625 0
  0.750000   0.578125 0
  0.515625   0.531250 0
  0.828125   0.796875 0
  0.640625   0.703125 0
  0.828125   0.765625 0
[...]
CELL_DATA 7648
SCALARS scalar_value float 1
LOOKUP_TABLE default
-0.000169913
-0.000376837
4.6695e-10
-5.28848e-10
4.39839e-10
3.18561e-10
-3.05191e-05
3.62002e-05
-2.41469e-05
-5.63811e-05
0.00522587
-0.00054515
0.0111522
-0.00504338
0.0272617
0.00873134
0.0365629
-0.00422015
0.0130947
-0.0214005
0.0270535
0.00207365
-0.0133519
-0.0165446
-0.0930444
-0.0763724
-0.00576698
-0.0241094
0.113367
0.057426
0.00100656
0.016846
7.74504e-10
-4.60333e-10
1.17215e-09
4.05754e-10
0.0131631
-0.000839875
5.55915e-05
-0.000212065
0.000484692
-3.73009e-05
-0.186288
-0.189025
5.60473e-09
-7.17944e-09
1.00769e-08
2.39937e-08
1.08534e-08
-1.09566e-08
-2.52609e-09
1.86382e-08
3.7739e-09
6.58726e-09
-2.48676e-08
-9.99318e-09
0.0112843
0.00974749
-0.0116073
-0.00646599
-0.00541197
-0.00370274
1.77424e-06
-3.63677e-07
-3.67949e-06
5.01334e-06
-2.14218e-06
-2.06006e-08
-6.21375e-07
-1.34037e-05
2.05355e-07
1.11984e-06
-1.87969e-07
0.00423533
-0.0540994
-1.27824e-08
1.15789e-08
-9.1053e-09
-6.7239e-09
1.89607e-09
-1.28761e-08
1.25445e-08
9.06915e-09
1.40767e-08
-8.13302e-09
2.1777e-09
-7.09941e-09
-8.10263e-06
-1.49503e-06
1.88918e-05
-3.25384e-07
-7.2913e-07
2.03654e-06
-2.85856e-07
8.38308e-07
1.87144e-06
1.11148e-06
-7.45544e-07
8.3874e-06
-8.10604e-06
-3.33077e-06
-3.00105e-07
-2.80842e-07
-2.49391e-07
-0.0136452
0
0
0
-6.314e-07
1.38856e-07
-3.83768e-07
-5.89329e-08
2.3596e-09
-9.86809e-10
6.06068e-09
8.35351e-10
2.53812e-10
5.36213e-10
0
-1.02224e-05
3.34183e-05
-3.62511e-05
2.31519e-05
2.18362e-05
-1.23449e-05
4.44996e-05
7.74185e-06
1.43089e-09
4.64317e-09
-1.80944e-08
-7.50128e-09
-2.75643e-10
1.34916e-10
-2.98165e-10
-1.00196e-10
0.00014737
0.000157209
-0.000145218
-9.54924e-05
0.00121393
1.14844e-08
4.74027e-10
3.2106e-06
3.34943e-06
-5.60512e-06
8.49316e-05
-7.90157e-05
6.16974e-06
0.00724918
-0.0190807
-0.00950281
-4.56171e-05
3.44243e-05
5.27335e-05
-1.70929e-05
6.02222e-05
5.79522e-06
4.97252e-05
-4.44195e-06
-3.12199e-06
1.58851e-06
0.00187716
-0.000883136
0.00147485
0.000330296
0.0382261
0.000109887
-0.000315263
0.000125997
0.000261237
-2.00272e-07
-7.46613e-08
-3.01849e-08
-4.93362e-08
1.98807e-09
-6.36475e-10
2.09732e-05
-4.73754e-06
2.57696e-05
-4.71815e-05
-2.48856e-05
-4.48453e-05
-8.52682e-05
-9.58748e-05
-0.000296896
-0.000348864
0.00090526
2.44838e-05
-6.82943e-05
-0.000329609
0.00360821
-0.181751
0.501913
5.70764e-05
-2.81339e-05
6.7777e-05
-1.27726e-05
-3.02444e-06
-9.67076e-07
-2.42256e-06
8.02812e-07
2.60859e-05
-8.84925e-05
0.00010289
1.48772e-05
1.29464e-09
-7.53493e-10
-2.98053e-05
0.000107302
0.000100064
-8.72425e-05
9.34775e-05
0.00109221
-0.001188
-0.000129644
1.51541e-05
-6.77549e-05
7.6341e-05
1.94315e-05
-3.15543e-08
4.38663e-08
1.45235e-06
5.08624e-07
-1.59402e-06
1.66037e-06
3.91856e-06
-3.37745e-06
1.34523e-06
3.23178e-06
4.39284e-06
3.81006e-05
-2.46128e-05
5.40318e-06
4.25606e-06
2.01873e-09
-2.07723e-10
6.19908e-10
0
3.4604e-05
-2.44154e-05
1.00034e-05
1.68079e-05
2.38826e-09
1.27346e-10
-2.91334e-09
0
0.10588
0.258393
6.89298e-08
-1.09101e-07
-3.48039e-08
-2.62659e-07
5.0448e-08
1.5682e-07
2.29358e-07
2.46081e-07
9.28396e-08
4.82017e-07
1.95349e-07
1.14105e-09
-2.52843e-10
3.98561e-10
2.06933e-10
-1.40755e-09
2.25659e-09
-2.70525e-09
-5.09899e-10
0
0
0
0
-4.05981e-06
3.61377e-06
1.63505e-06
-1.36291e-07
8.87278e-07
-7.905e-07
-4.01412e-08
0.0239247
-0.0346394
-0.0285408
-0.0001201
-1.97821e-05
-0.000303405
8.20462e-05
0.000182539
-7.16876e-05
4.61307e-05
8.57625e-05
4.26364e-06
1.11763e-05
-1.82996e-05
-3.04221e-05
-8.56723e-06
0.000100061
6.29491e-05
-0.000452133
-0.00046621
1.2006e-10
9.59075e-09
-3.70195e-10
-0.0190942
6.14228e-06
0.00428987
0.00500831
-2.1557e-06
8.1338e-05
-0.00107733
8.431e-05
5.03922e-07
-7.19775e-05
0.0297754
-1.73151e-08
-0.000381897
-4.60011e-08
-4.94109e-09
7.69234e-09
2.40523e-08
-3.12934e-09
0.00192222
-0.0153122
8.3733e-07
0.00280704
-0.0102365
9.04217e-08
1.84165e-07
-1.05114e-08
0.0435347
-1.18419e-06
0.28923
0.00165092
-0.000800596
1.53244e-08
0.000229423
-0.00125307
0.000996285
-0.00131995
1.88861e-05
0.00100131
5.78932e-06
3.56146e-06
5.40726e-06
-0.0592991
5.1723e-06
3.99795e-06
-1.07149e-09
-7.05124e-10
-0.136523
-1.77296e-09
0.000100335
9.75144e-08
0.000219226
0
-0.000118558
0.00711122
-1.76862e-05
7.97814e-06
0.0852593
-0.158473
-0.00741895
-1.20173e-07
5.76916e-07
4.51446e-08
0.00706508
7.30367e-06
0.0146612
2.99589e-06
7.08109e-06
1.68533e-06
0.259653
-5.64947e-06
-0.0622105
-0.0360684
-2.51633e-08
3.44373e-10
1.37233e-05
-2.49313e-05
-0.00275241
0.00586759
-2.11203e-07
-0.00131235
1.93711e-07
-0.00121429
1.63569e-09
4.93171e-10
9.57153e-10
6.68395e-08
1.51571e-08
6.81161e-08
-2.16768e-05
0.000443153
-5.98445e-05
-0.0222655
-1.14582e-07
0.000269529
0.00545284
-0.00980614
0.00058618
-9.17637e-07
6.97125e-07
1.76884e-05
-1.62965e-08
-2.67972e-05
2.36567e-09
0.000404207
3.64536e-05
-3.97765e-05
-1.68664e-08
3.59994e-05
-4.14427e-06
0
0.0112972
-1.39542e-06
0.136246
-2.42645e-06
3.8401e-07
7.90281e-08
2.53098e-07
0.143776
-2.46957e-09
-2.81038e-06
-5.87056e-08
0.0853626
2.46658e-05
0.00964474
2.77424e-05
-0.000182767
4.19588e-09
0
0
1.26741e-06
0.0282085
1.06756e-05
4.27211e-07
1.05311e-09
1.00152e-08
0.0153011
6.30133e-07
-5.20877e-07
0
0.00215584
0
3.99207e-05
-0.00016646
0.000177164
-2.33141e-09
-2.0374e-06
2.83117e-06
1.67901e-07
7.09434e-07
3.14647e-07
-1.67442e-05
-4.70076e-05
-0.0246908
-0.00946145
-1.42833e-10
5.2991e-09
-2.08075e-06
-2.4148e-05
-5.91095e-05
-0.00158218
0.000951783
4.62785e-09
-0.00081021
0.0375939
-6.42554e-06
3.39556e-09
-8.05609e-09
0.00375283
-8.33746e-09
5.96322e-09
-6.04895e-09
-1.42119e-09
3.89054e-09
-0.000864438
8.58616e-05
-2.06188e-05
0.000791539
0.470479
0.0553096
3.70184e-08
1.69581e-05
-0.0042941
0.00153292
3.79807e-06
0.0538024
0.0652025
0.000776225
-0.000978537
-0.00152597
-0.00312886
0.0252687
0.00180175
-0.0234119
-2.907e-10
2.90164e-06
0.0298187
-9.0446e-06
4.35276e-06
-3.23146e-06
0.0210142
3.41102e-06
2.91339e-08
0.000114282
-2.40825e-09
5.50094e-08
0.00532075
0.00352914
0.000743607
-4.96405e-08
0.000256241
-0.00264454
5.19493e-08
0.0193443
-3.98581e-07
1.68257e-07
0.180996
5.14923e-07
3.14286e-06
0.0083231
0.0512768
4.93803e-07
-0.00129578
0.0917854
-0.0291965
-1.07785e-07
8.15394e-07
-3.22326e-05
1.49396e-10
-0.00013709
-3.15089e-08
0.0133853
0.000117779
1.0837e-06
2.08019e-08
-0.000144989
-1.49341e-08
0.121941
0.00011393
-0.000141178
-2.55784e-09
-2.02483e-05
-3.80183e-08
0.000209713
2.88799e-05
0.00116517
-1.36249e-09
-4.21506e-05
0.111803
2.07244e-07
2.03135e-05
7.12052e-09
2.4793e-09
-0.00220225
-5.1373e-05
-0.00130545
2.39829e-09
-7.47027e-05
-6.77145e-07
0.0728467
0
0
0.0359072
0
5.55604e-06
0.00139819
9.8708e-05
-1.28578e-08
-0.000642467
-6.9358e-08
0.00395411
4.48736e-08
-0.00213758
9.13066e-05
0.000237806
-2.37012e-09
-0.000289896
-7.66787e-09
0.000180373
4.91492e-09
0.00012325
0.000559251
-0.000116871
-3.81782e-09
6.5865e-10
-1.59356e-10
6.27933e-10
3.00782e-05
1.32108e-10
-0.000211475
2.64542e-05
9.2536e-06
-1.80951e-10
-3.02791e-06
-1.62594e-05
0
-8.13799e-10
-3.244e-06
2.33107e-09
-7.79859e-10
0
0
7.99133e-06
2.68904e-09
7.85691e-06
9.43631e-06
-1.53561e-05
-4.62592e-10
-0.000245234
0.00203613
-1.4259e-05
8.7475e-09
3.57093e-05
9.68233e-06
4.93803e-05
1.96431e-07
-5.05331e-08
8.00245e-05
6.22734e-05
-3.75589e-05
-3.66241e-09
0.277955
0.0106752
0.184121
6.58404e-06
3.52993e-05
5.5972e-05
-0.00573713
5.1911e-07
0.149791
-0.0101792
1.8716e-05
-0.0158599
0.0348513
-9.44124e-06
0.00720413
0.000100408
-0.0123967
-1.32839e-06
-4.04089e-06
1.92543e-05
-1.2871e-05
-2.48995e-07
1.03186e-05
0.155064
-5.30518e-07
0.104652
4.37496e-06
2.00403e-05
-0.0488585
-0.0304608
0.000388619
0.000164029
8.67382e-05
-9.28987e-05
0.000385186
-1.6219e-06
-0.0121627
-2.79346e-08
0.244495
0.00178209
-2.79776e-06
0.00195491
-0.000442642
1.89206e-05
-4.9025e-05
-2.61343e-07
0.000229827
0.211061
0.465659
1.30692e-05
-2.55871e-06
0
-0.000114363
0
3.594e-05
-2.96846e-07
-1.30317e-05
-0.00101916
2.61447e-06
-0.00103279
2.49239e-07
-0.0120147
0.000419506
1.98761e-08
0.145101
-1.62525e-09
-2.05983e-07
-2.44714e-07
-0.000180595
-2.24482e-07
1.85087e-07
3.42184e-07
-7.28438e-07
-6.41569e-05
-0.000280214
-1.63841e-05
0.000176714
0
7.32771e-05
0.000782788
0
0.00024074
-2.31493e-07
1.96661e-10
0.00996846
0.00225056
8.08728e-10
2.33312e-10
-0.000244048
-1.18623e-09
-0.000146668
0.116094
-0.0608219
0.000111588
-0.000222112
-3.99483e-10
-0.0014009
2.01993e-08
-0.000557668
-0.00012802
0.00038979
0.0149788
-3.59828e-09
0
-0.000109292
0.00034689
-0.00378467
-2.91547e-09
-0.000112417
0.0479681
0.000489105
-3.86318e-09
-0.00516553
0.000209367
-0.0168665
2.23036e-09
0.000185314
2.97898e-05
0.00402921
-0.00237878
4.09376e-05
2.39797e-10
0.000732462
-3.37765e-06
4.6548e-07
2.55377e-09
0.0299988
-0.00349109
-8.25779e-10
5.10752e-07
-0.000142141
-1.67669e-06
1.01986e-06
-0.019844
-0.0309698
-9.83112e-05
-1.71986e-10
1.30399e-07
-4.24143e-08
0.000176133
-1.31701e-06
-6.35604e-08
5.22903e-05
1.01588e-10
3.80137e-10
4.8808e-05
4.04296e-09
-7.66315e-05
0
0
-1.51586e-05
0.0932145
0.000102925
2.41769e-05
-0.000112985
8.92639e-06
-6.9339e-09
1.31663e-05
0.000209096
-1.91008e-06
-8.93459e-10
0.000187697
5.84537e-10
0.00266558
-0.0617047
-3.40077e-09
0.0455483
2.28264e-07
8.24766e-09
0.000127005
-1.26287e-10
0.00716443
-7.22158e-09
3.86539e-09
0.145936
6.34356e-08
0.000397688
-9.47331e-05
-8.58502e-05
8.40963e-10
-5.01555e-08
0.0015425
0.00100106
0
1.71276e-07
1.39097e-06
-0.00409397
1.43205e-06
2.25247e-06
-0.0934835
0.000158303
0.00043233
0.000247366
-0.0208432
0.00526019
0.155755
-1.62893e-06
-2.18329e-06
0.0852108
-7.67425e-05
6.71651e-10
0
-0.0161465
-1.64177e-08
0.00111055
-0.00171215
2.99321e-05
0.000169559
0.00993965
-0.00507236
0.239485
0.00214496
-0.00360632
-4.17585e-08
8.20297e-06
8.35633e-05
0
2.8781e-06
0.0622252
0.000513733
0.000417416
0.0732412
1.40877e-05
-2.7889e-10
0.331998
0.0802642
6.99004e-07
2.33511e-05
1.13582e-08
2.59676e-09
7.12647e-09
2.17856e-08
3.50279e-05
-1.02663e-10
-0.00013889
-0.006945
1.03561e-05
-5.31876e-05
-9.83646e-08
0.119196
-0.00174836
1.78528e-08
0.0778067
-0.00146937
0.000844496
0.000145378
8.65321e-09
-0.00785125
-4.83666e-09
5.80617e-09
3.67315e-09
-3.93491e-10
-0.00121038
-6.02893e-09
-7.14041e-05
-0.00297979
0.000805582
6.76148e-05
3.8033e-05
0.00535111
1.43671e-08
0.00530866
1.4729e-08
0.203803
-2.29991e-06
6.96065e-09
0.00794433
2.97768e-05
0.00361227
2.77415e-05
0.0760571
-1.30049e-06
0
0
-5.98137e-05
-2.59679e-09
1.59764e-06
0.00538169
8.61885e-10
-8.52053e-08
-0.01234
-1.87438e-10
-0.054893
1.389e-07
0.100662
0.0220323
0.000148103
1.49619e-05
6.7358e-10
-8.05273e-05
3.46517e-05
0.000105967
4.94865e-08
6.46132e-07
-0.014381
0.129405
0.00482791
-0.00323299
1.76576e-06
0.0521339
8.18484e-05
0
0.000415444
1.89054e-07
-2.93104e-08
0.00090637
-2.12308e-05
-2.9337e-08
-2.60544e-09
0.00165419
-0.00152479
2.26811e-07
0.525965
-0.000309944
0.19363
-6.62501e-10
-1.42279e-09
-2.45458e-08
-2.85517e-10
0.00778314
-5.19836e-09
1.62806e-08
-0.0191303
0.00185581
-0.000299896
-0.0704841
0.00292517
-7.62934e-10
5.73193e-06
-0.00197519
0
0.0512508
0.00467397
-1.10655e-07
-3.22223e-07
1.13579e-09
-4.49704e-09
-0.000223201
0.119751
-4.52554e-07
5.53184e-05
0
-0.00473029
-0.0259042
8.87783e-10
1.70997e-07
-0.000106394
-1.33653e-08
0.000179606
-4.45678e-05
0
0.000671088
5.70304e-10
0.00215583
0.00285216
0
0.00294204
-2.73398e-06
-3.04468e-08
0
0.000376327
-0.00124086
-5.08664e-05
0.301328
0.00647858
-1.16467e-10
0.00137764
-0.00195516
-2.16704e-06
8.34405e-05
0
4.13454e-05
-2.12466e-07
0.000273666
-2.21657e-08
0.000807324
0.000339036
6.37871e-05
0.021402
-1.07232e-06
1.25775e-09
-0.000111269
-1.46019e-06
1.73388e-05
4.84635e-05
0.0214782
-6.022e-05
0.00304187
-0.000121745
-2.90294e-05
-0.000349318
-2.90341e-05
8.33205e-10
-2.65098e-05
4.97969e-06
-0.000515627
-1.66963e-08
1.89582e-06
-0.000239223
0.000332057
-1.32299e-05
7.71359e-06
-5.35828e-05
0
0.00388655
2.53943e-08
0.0864342
2.43235e-07
-4.39892e-07
4.70014e-06
0.0167631
-0.00334974
-0.0614677
2.78179e-07
4.65881e-05
0.00406857
2.81721e-06
1.98501e-08
-1.38827e-10
0.00455092
-1.61993e-07
-6.65892e-10
-0.000750601
0.00463506
-3.32356e-05
0.116061
-0.0434925
0.359516
9.3839e-05
-0.000269186
0.000310687
-4.94181e-05
-3.27568e-05
-4.15294e-06
-0.000906619
4.404e-06
0.000145942
-0.000413154
0.184981
0.00224079
0
0.00374255
-3.05135e-05
-4.23428e-10
-5.16963e-05
7.59248e-10
-0.00030767
-1.28788e-07
1.1797e-10
0.00310207
-0.00152025
0.000113324
-0.000952669
8.77075e-06
7.77273e-09
-0.00484642
0.0229922
0.0938676
0.133156
0.0425928
0.0632612
-1.59243e-08
-0.00037472
0.0113083
-0.0473124
-0.011131
-1.05167e-09
-0.000140725
9.34837e-06
3.69205e-09
0.000200462
9.00901e-09
0.000330469
0.00197039
-5.70001e-07
6.74284e-10
1.03267e-05
-0.182442
-0.0641091
-1.497e-05
0.114798
0.00492735
-0.0117171
-0.0112009
0.0289018
0.0243659
-0.000822014
-0.044554
-0.0328062
0.00234166
0.000119928
-5.13831e-05
1.41754e-06
-0.00141556
5.45448e-07
0.0100983
0.000394059
-0.0066171
-1.2087e-07
2.95928e-05
7.98853e-09
-0.000112187
-0.0234231
0.00881317
-0.00518882
-0.000395816
0.0731722
0.102406
1.08426e-07
0.152603
-3.01433e-09
-1.53974e-09
2.95895e-10
0
-0.00227698
-0.000712227
-0.0220499
-0.00169583
0.0131611
-0.00223513
-0.00150181
-0.00258402
3.71996e-06
-0.0355507
-3.87444e-08
1.83936e-07
-3.49352e-08
-0.000129907
2.10871e-07
-5.36393e-08
-7.8356e-09
3.73672e-06
0
-2.92745e-09
-0.000215338
-0.0399526
-2.43985e-08
-0.000233504
-1.61736e-08
8.86932e-05
-8.6736e-09
-9.92818e-07
-0.190859
0
0.00933323
3.60014e-10
0
0
0.00591396
0.00600209
0.00300482
4.72841e-10
0
0.0124195
-4.71486e-10
0
0.0056685
0
0.00194934
1.25588e-10
0.0134533
0
-2.84384e-05
-6.15203e-10
-9.98059e-05
-4.74594e-08
-1.97095e-05
-7.70082e-10
8.05375e-06
-1.51892e-10
-1.46963e-05
2.66914e-07
-3.97685e-05
0.090705
-0.0108708
0.155869
0.167383
-2.42668e-06
-1.74157e-06
1.0499e-06
-0.120912
2.09291e-06
1.31585e-06
1.47649e-06
2.7976e-07
0.00189052
-0.0280739
7.82807e-05
0.000118312
0.0317645
1.18115e-07
0.302752
0.00570488
5.35619e-05
7.53947e-05
0.198428
0.000157223
-0.000158709
-4.14879e-10
-5.65375e-05
-8.77165e-09
1.96244e-08
-8.83364e-05
-0.00156724
-1.11589e-08
-0.000255423
0.0176178
0.000469083
5.19847e-05
1.89217e-07
-1.22902e-06
-0.00132992
0.00354642
-0.00408252
-0.00250152
-0.000371481
-0.000224026
8.94676e-07
1.1647e-05
-1.3192e-07
-7.841e-05
0.00272167
0.000193619
8.33655e-06
-1.16679e-06
0.0125393
-1.34796e-10
-0.00130688
-2.27112e-09
0.0397295
0.000209751
-3.58258e-10
8.88926e-05
-5.43113e-05
-7.18559e-05
0.000180016
1.69093e-06
1.55819e-06
-0.00618509
1.31272e-10
-0.00396143
6.22255e-09
-2.75126e-05
-0.142855
2.95948e-05
0
0.0115883
0.00758574
-5.66858e-05
0
3.87934e-07
0.000232212
-7.86202e-10
-1.26339e-06
0.000645257
3.99676e-06
-0.101561
3.99145e-09
8.94343e-06
4.50566e-07
-1.54716e-06
4.61464e-07
0.000878609
0.000165323
0.00159588
0.00125936
1.3684e-06
-1.48818e-06
3.39327e-06
-1.73138e-06
-4.63689e-05
-2.12008e-10
0.00230653
-0.00132726
-0.0241535
0.116458
0.450612
-0.0710829
-8.60085e-08
0.440141
6.45552e-07
0.11499
-1.19002e-07
0.268685
-0.00219914
-0.0887493
0.0418176
-0.12715
-0.108865
4.28931e-06
1.81791e-05
1.30197e-06
4.78739e-10
0.0606743
0.0095261
-0.000137799
0.0720321
0.00528085
0.009579
-0.00649726
3.47095e-05
3.09616e-06
0.241058
1.91552e-05
-3.66822e-05
0.00926869
-0.00149271
0
0
0
0.000164633
0.00318237
0.00402209
-1.88917e-08
-0.00186177
0.00955052
-0.00444671
-0.00361601
0.0450211
-7.84512e-06
-0.0175557
-0.035847
0.00144362
-1.0748e-06
1.33541e-05
-0.00580661
6.41547e-05
0.000557535
-0.00127462
0
1.44198e-07
-2.75209e-07
4.23108e-07
3.22192e-08
2.14324e-07
0.0250271
-0.024943
0.0405268
0.0267345
1.74491e-05
0.00203723
0.0185778
-0.000520457
0.00275982
0.0103017
6.25876e-05
-0.00305663
0.0645676
-0.00884832
0.109801
-0.00145588
0.00187537
-0.000208688
0.000218383
-0.21734
0.389584
3.46776e-10
-2.72844e-10
0
0
2.7201e-07
3.82119e-07
7.24304e-07
-0.0269098
7.94493e-07
7.8721e-07
0.0354026
-1.10379e-06
1.7981e-06
-0.016535
0.0144489
-2.2268e-10
3.21494e-10
-2.10305e-08
-6.66451e-08
1.32412e-07
0.00129901
1.88676e-10
-0.0010315
-0.000263711
2.40994e-05
0.00010496
-4.09792e-05
6.88645e-06
-0.0148206
0.00514663
0.000492842
0.0197754
-0.00494117
-0.000877117
-2.53568e-08
3.01493e-08
-1.81426e-08
-2.37489e-05
0.0278304
0.00200922
1.21911e-07
-0.00114692
0.0015241
-3.20141e-09
0.248676
7.77907e-08
-7.00938e-08
1.87354e-08
0.134455
0.00768469
0.00214029
-2.01523e-05
0.000206787
8.46456e-09
1.59554e-05
-1.03405e-08
0.000329485
0.0411226
-0.000415587
0.00281079
0.0289723
-0.000212431
5.58884e-05
-2.50363e-07
-0.0355213
7.97176e-05
0.000209095
0.00236499
-0.000262502
0.000289005
0.17977
0.0344921
-6.06394e-07
-0.00162216
-0.000171107
-2.78272e-08
0.000227923
0.00954369
2.58224e-08
-5.64287e-07
1.67727e-05
0.0263403
0.00203484
-0.0149233
-1.53459e-06
-0.0013159
0.000166758
0
0.0234298
0.000126276
0.0126248
0.066327
-8.65134e-08
0.0222057
-1.84632e-07
0.0371854
4.78283e-05
-7.75474e-06
-1.69763e-09
8.42005e-05
0
0
0
5.50177e-06
2.04658e-06
3.92514e-06
0.293246
-0.0332547
0.0657275
0.241162
0.000345043
0.0143465
0.573062
-0.0007985
6.7275e-09
-2.39533e-08
-2.87961e-08
-3.9912e-08
-0.00634337
2.50102e-07
-1.86502e-07
1.09676e-07
-0.0063987
0.000411062
0.00366013
-0.00203897
8.41803e-09
-9.91177e-09
-1.60458e-09
9.34105e-09
6.11129e-09
2.44935e-08
0.000110435
2.91135e-05
0.00109662
0.00153838
-0.000134631
-0.0858589
0.000119712
0.250214
0.350647
0.309135
1.99572e-05
-5.79715e-05
-1.79342e-05
2.13956e-06
-0.00820922
9.67811e-08
5.61763e-06
9.1366e-07
4.52746e-08
-0.00187026
0.000578191
9.17395e-06
0.000428692
5.66788e-09
-0.00246515
0.00188238
-1.08679e-05
0.175984
0.000111674
0.000738515
0.000209583
-1.08611e-05
0.101264
-0.0104173
0.00326497
0.00107665
-4.95502e-10
-6.19567e-07
-1.05853e-06
1.69963e-06
-0.0107837
0.00148005
-0.00197232
-2.78514e-05
5.94778e-06
0.00159447
-0.000324854
0.000458321
2.31951e-06
8.42171e-07
2.67736e-07
1.13419e-05
0.000236462
1.13987e-08
0.151112
-0.0236711
-3.87906e-08
-2.75498e-08
-2.87718e-08
-8.61639e-09
1.29213e-08
0.0699713
-0.0508375
-0.020972
-0.0017279
-2.17608e-06
-1.04e-05
0.209005
0.133242
0.126452
-0.00157748
9.31281e-08
3.30435e-09
3.37315e-05
4.64348e-07
-1.08635e-05
2.66085e-05
-1.86172e-05
-7.83338e-06
1.36023e-07
-2.43639e-07
-4.90177e-08
1.64294e-07
-0.0110918
0.154862
0.194653
0.000816636
0.080315
-2.83369e-10
2.55416e-10
0
0.00233008
-0.000423839
0.04368
-0.00835446
-0.000283208
0
-1.29399e-10
-0.00195301
-0.000218536
-9.88749e-06
0
5.34952e-10
-0.000930887
-0.00147111
0
-0.00272242
0.0138693
0.0086105
-0.00859033
0.00314581
-0.000797132
-0.00428234
0.000898297
0.00235399
-5.04598e-06
0.000299186
-0.000567292
0.00121741
-0.0611576
-0.00158531
-0.00145923
-0.0010424
0.0017911
-9.87005e-09
0.00755002
0.0250808
4.65704e-09
2.37373e-07
0.138547
1.06045e-05
-1.35518e-06
0.11926
-4.18761e-08
-1.65898e-07
-8.94929e-08
-2.00301e-07
-5.29267e-05
-0.000952543
0.000170382
-7.16577e-07
5.74196e-09
-2.28314e-08
5.77209e-09
-1.14332e-08
6.55318e-08
-0.000529817
0.000867165
0.000770782
-0.000432109
0.000386919
-0.012156
0.00528835
-0.014985
1.79298e-06
0.0193427
4.52328e-06
-2.06751e-06
4.09645e-06
0.00507048
0.0131143
1.77387e-08
0.0679836
0.249627
-2.99919e-06
3.62794e-06
0.00476998
4.96418e-09
7.43776e-07
0.0739642
-0.00442206
-0.0411742
0
-2.16157e-10
1.87852e-10
0
0.0695146
1.63211e-09
1.31835e-09
3.13358e-10
1.2304e-09
-0.000113731
0
-3.25581e-06
-2.0921e-05
-2.65423e-05
3.3702e-05
-0.0206661
-0.0238145
0.269823
-0.000104346
-4.35637e-06
-0.000107636
1.38182e-09
1.04055e-08
-3.41485e-09
0.000163174
4.81732e-05
-0.000181365
-4.79299e-06
-0.0155296
3.03316e-05
4.54255e-05
1.49003e-09
0.00013551
3.84444e-05
0
-2.05952e-09
0
0.000441918
-1.2573e-06
-2.8446e-05
-0.0177678
0.000107752
0.0207866
-3.20189e-08
-9.2089e-09
-5.01253e-08
0.00129689
5.63554e-06
5.97825e-06
4.83125e-06
0.000111915
0.00172232
-0.000232461
0.00034509
-0.000241337
0.0625249
0.0735419
0.000337568
0.000474139
0.000318106
-0.000857856
-0.00100661
-0.000508657
0.0392003
-0.234891
-0.190277
-0.000328405
-0.000647118