# vtk DataFile Version 2.0
Unstructured Grid by M++
ASCII
DATASET UNSTRUCTURED_GRID
POINTS 4072 float
  0.828125   0.890625 0
  0.875000   0.531250 0
  0.828125   0.750000 0
  0.593750   0.968750 0
  0.828125   0.671875 0
  0.828125   0.875000 0
  0.593750   0.937500 0
  0.828125   0.656250 0
  0.828125   0.640625 0
  0.828125   0.843750 0
  0.593750   0.906250 0
  0.828125   0.625000 0
  0.781250   0.968750 0
  0.828125   0.609375 0
  0.828125   0.812500 0
  0.593750   0.875000 0
  0.593750   0.828125 0
  0.593750   0.796875 0
  0.828125   0.703125 0
  0.593750   0.765625 0
  0.828125   0.937500 0
  0.812500   0.875000 0
  0.859375   0.515625 0
  0.812500   0.734375 0
  0.812500   0.937500 0
  0.578125   1.000000 0
  0.578125   0.750000 0
  0.812500   0.687500 0
  0.578125   0.953125 0
  0.812500   0.656250 0
  0.812500   0.859375 0
  0.578125   0.921875 0
  0.812500   0.828125 0
  0.578125   0.890625 0
  0.812500   0.593750 0
  0.812500   0.796875 0
  0.578125   0.859375 0
  0.578125   0.812500 0
  0.578125   0.781250 0
  0.796875   1.000000 0
  0.796875   0.859375 0
  0.796875   0.718750 0
  0.562500   0.984375 0
  0.562500   0.937500 0
  0.796875   0.843750 0
  0.562500   0.906250 0
  0.796875   0.812500 0
  0.562500   0.875000 0
  0.796875   0.578125 0
  0.796875   0.781250 0
  0.562500   0.843750 0
  0.812500   0.984375 0
  0.562500   0.796875 0
  0.812500   0.953125 0
  0.562500   0.765625 0
  0.796875   0.937500 0
  0.546875   0.750000 0
  0.781250   0.984375 0
  0.828125   0.593750 0
  0.781250   0.843750 0
  0.781250   0.937500 0
  0.546875   1.000000 0
  0.781250   0.703125 0
  0.546875   0.968750 0
  0.546875   0.921875 0
  0.781250   0.828125 0
  0.546875   0.890625 0
  0.781250   0.796875 0
  0.546875   0.859375 0
  0.781250   0.562500 0
  0.781250   0.765625 0
  0.546875   0.828125 0
  0.796875   0.968750 0
  0.546875   0.781250 0
  0.765625   1.000000 0
  0.765625   0.968750 0
  0.531250   0.984375 0
  0.765625   0.687500 0
  0.531250   0.953125 0
  0.531250   0.937500 0
  0.531250   0.906250 0
  0.765625   0.812500 0
  0.531250   0.875000 0
  0.765625   0.781250 0
  0.531250   0.843750 0
  0.781250   1.000000 0
  0.765625   0.546875 0
  0.765625   0.750000 0
  0.531250   0.812500 0
  0.781250   0.953125 0
  0.531250   0.765625 0
  0.515625   0.750000 0
  0.750000   0.984375 0
  0.750000   0.953125 0
  0.796875   0.593750 0
  0.796875   0.562500 0
  0.750000   0.843750 0
  0.750000   0.937500 0
  0.515625   1.000000 0
  0.750000   0.906250 0
  0.515625   0.968750 0
  0.750000   0.671875 0
  0.750000   0.875000 0
  0.515625   0.937500 0
  0.515625   0.921875 0
  0.515625   0.890625 0
  0.750000   0.796875 0
  0.515625   0.859375 0
  0.750000   0.765625 0
  0.515625   0.828125 0
  1.000000   0.718750 0
  0.750000   0.531250 0
  0.750000   0.734375 0
  0.515625   0.796875 0
  0.734375   1.000000 0
  0.734375   0.968750 0
  0.734375   0.937500 0
  0.781250   0.578125 0
  0.781250   0.546875 0
  0.968750   0.578125 0
  0.734375   0.828125 0
  0.968750   0.546875 0
  0.734375   0.796875 0
  0.734375   0.765625 0
  0.968750   0.671875 0
  0.734375   0.734375 0
  0.968750   0.640625 0
  0.734375   0.703125 0
  0.968750   0.609375 0
  0.734375   0.671875 0
  0.734375   0.656250 0
  0.734375   0.625000 0
  0.968750   0.531250 0
  0.734375   0.593750 0
  0.984375   0.734375 0
  0.984375   0.703125 0
  0.734375   0.515625 0
  0.718750   0.984375 0
  0.718750   0.953125 0
  0.718750   0.921875 0
  0.953125   0.562500 0
  0.718750   0.812500 0
  0.953125   0.531250 0
  0.718750   0.781250 0
  0.718750   0.750000 0
  0.953125   0.656250 0
  0.718750   0.718750 0
  0.953125   0.625000 0
  0.718750   0.687500 0
  0.953125   0.593750 0
  0.718750   0.656250 0
  0.671875   1.000000 0
  0.718750   0.640625 0
  0.718750   0.609375 0
  0.953125   0.515625 0
  0.718750   0.578125 0
  0.968750   0.718750 0
  0.968750   0.687500 0
  0.953125   0.671875 0
  0.703125   0.968750 0
  0.703125   0.937500 0
  0.937500   0.656250 0
  0.703125   0.906250 0
  0.937500   0.546875 0
  0.703125   0.796875 0
  0.937500   0.515625 0
  0.703125   0.765625 0
  0.937500   0.671875 0
  0.703125   0.734375 0
  0.937500   0.640625 0
  0.703125   0.703125 0
  0.937500   0.609375 0
  0.703125   0.671875 0
  0.937500   0.578125 0
  0.703125   0.640625 0
  0.656250   0.984375 0
  0.703125   0.625000 0
  0.703125   0.593750 0
  0.718750   0.796875 0
  0.953125   0.734375 0
  0.812500   1.000000 0
  0.859375   0.656250 0
  0.703125   0.781250 0
  0.937500   0.718750 0
  0.953125   0.703125 0
  0.796875   0.984375 0
  0.843750   0.640625 0
  0.812500   0.968750 0
  0.859375   0.625000 0
  0.796875   0.953125 0
  0.843750   0.609375 0
  0.687500   0.953125 0
  0.687500   0.921875 0
  0.687500   0.890625 0
  0.921875   0.734375 0
  0.687500   0.796875 0
  0.687500   0.781250 0
  0.921875   0.703125 0
  0.687500   0.765625 0
  0.687500   0.750000 0
  0.921875   0.656250 0
  0.687500   0.718750 0
  0.921875   0.625000 0
  0.687500   0.687500 0
  0.921875   0.593750 0
  0.687500   0.656250 0
  0.640625   1.000000 0
  0.921875   0.562500 0
  0.687500   0.625000 0
  0.640625   0.968750 0
  0.687500   0.609375 0
  0.687500   0.578125 0
  0.937500   0.687500 0
  0.921875   0.671875 0
  0.671875   0.921875 0
  0.906250   0.656250 0
  0.671875   0.906250 0
  0.671875   0.875000 0
  0.906250   0.718750 0
  0.671875   0.781250 0
  0.671875   0.765625 0
  0.671875   0.734375 0
  0.906250   0.640625 0
  0.671875   0.703125 0
  0.906250   0.609375 0
  0.671875   0.671875 0
  0.906250   0.578125 0
  0.671875   0.640625 0
  0.625000   0.984375 0
  0.671875   0.609375 0
  0.625000   0.953125 0
  0.671875   0.593750 0
  0.671875   0.562500 0
  0.765625   0.953125 0
  0.812500   0.609375 0
  0.656250   1.000000 0
  0.656250   0.953125 0
  0.656250   0.906250 0
  0.890625   0.640625 0
  0.656250   0.890625 0
  0.656250   0.859375 0
  0.890625   0.734375 0
  0.656250   0.796875 0
  0.812500   0.921875 0
  0.562500   1.000000 0
  0.625000   0.828125 0
  0.812500   0.843750 0
  0.843750   0.593750 0
  0.812500   0.812500 0
  0.625000   0.718750 0
  0.828125   0.687500 0
  0.640625   0.593750 0
  0.812500   0.781250 0
  0.625000   0.687500 0
  0.765625   0.828125 0
  0.640625   0.562500 0
  0.812500   0.750000 0
  0.562500   0.828125 0
  0.781250   0.875000 0
  0.546875   0.937500 0
  0.781250   0.671875 0
  0.781250   0.593750 0
  0.546875   0.656250 0
  0.796875   0.750000 0
  0.562500   0.812500 0
  0.796875   0.546875 0
  0.765625   0.796875 0
  0.765625   0.593750 0
  1.000000   0.531250 0
  0.812500   0.718750 0
  0.859375   0.562500 0
  0.625000   0.625000 0
  0.812500   0.703125 0
  0.812500   0.906250 0
  0.578125   0.968750 0
  0.984375   0.593750 0
  0.828125   0.578125 0
  0.828125   0.781250 0
  0.593750   0.843750 0
  0.812500   0.671875 0
  0.625000   0.578125 0
  0.796875   0.671875 0
  0.562500   0.734375 0
  0.984375   0.562500 0
  0.828125   0.546875 0
  0.812500   0.640625 0
  0.750000   0.812500 0
  0.625000   0.546875 0
  0.796875   0.640625 0
  0.562500   0.703125 0
  0.828125   0.515625 0
  0.781250   0.734375 0
  0.546875   0.796875 0
  0.781250   0.531250 0
  0.750000   0.781250 0
  0.625000   0.515625 0
  0.796875   0.609375 0
  0.562500   0.671875 0
  0.765625   0.656250 0
  0.765625   0.859375 0
  0.531250   0.921875 0
  0.812500   0.578125 0
  0.562500   0.656250 0
  0.984375   0.687500 0
  0.750000   0.750000 0
  0.812500   0.562500 0
  0.812500   0.765625 0
  0.578125   0.828125 0
  0.562500   0.625000 0
  0.984375   0.656250 0
  0.750000   0.718750 0
  0.812500   0.531250 0
  0.781250   0.656250 0
  0.546875   0.718750 0
  0.781250   0.625000 0
  0.546875   0.687500 0
  0.750000   0.640625 0
  0.796875   0.531250 0
  0.562500   0.593750 0
  0.984375   0.625000 0
  0.750000   0.687500 0
  0.546875   0.984375 0
  0.609375   0.812500 0
  0.796875   0.875000 0
  0.546875   0.953125 0
  0.609375   0.578125 0
  0.843750   0.515625 0
  0.765625   0.515625 0
  0.765625   0.718750 0
  0.531250   0.781250 0
  0.984375   0.546875 0
  0.750000   0.609375 0
  0.796875   0.828125 0
  0.671875   0.968750 0
  0.796875   0.796875 0
  0.796875   0.765625 0
  0.609375   0.671875 0
  0.796875   0.734375 0
  0.546875   0.812500 0
  0.796875   0.703125 0
  0.843750   0.546875 0
  0.609375   0.609375 0
  0.796875   0.687500 0
  0.562500   0.953125 0
  0.796875   0.656250 0
  0.609375   0.562500 0
  0.796875   0.625000 0
  0.609375   0.531250 0
  0.546875   0.640625 0
  0.765625   0.671875 0
  0.531250   0.734375 0
  0.796875   0.515625 0
  0.765625   0.640625 0
  0.531250   0.703125 0
  0.703125   1.000000 0
  0.765625   0.609375 0
  0.531250   0.671875 0
  0.765625   0.578125 0
  0.531250   0.640625 0
  0.546875   0.609375 0
  0.531250   1.000000 0
  0.890625   0.593750 0
  0.656250   0.656250 0
  0.781250   0.515625 0
  0.546875   0.578125 0
  0.531250   0.968750 0
  0.890625   0.562500 0
  0.656250   0.625000 0
  0.609375   0.968750 0
  0.781250   0.859375 0
  0.656250   0.593750 0
  0.750000   0.703125 0
  0.515625   0.765625 0
  0.781250   0.812500 0
  0.781250   0.781250 0
  0.593750   0.687500 0
  0.781250   0.750000 0
  0.593750   0.656250 0
  0.781250   0.718750 0
  0.531250   0.796875 0
  0.828125   0.562500 0
  0.593750   0.625000 0
  0.781250   0.687500 0
  0.828125   0.531250 0
  0.593750   0.593750 0
  0.812500   0.625000 0
  0.578125   0.687500 0
  0.781250   0.640625 0
  0.781250   0.609375 0
  0.593750   0.515625 0
  0.515625   0.781250 0
  0.812500   0.546875 0
  0.578125   0.609375 0
  0.812500   0.515625 0
  0.578125   0.578125 0
  0.750000   0.656250 0
  0.515625   0.718750 0
  0.750000   0.625000 0
  0.515625   0.687500 0
  0.687500   0.984375 0
  0.750000   0.593750 0
  0.515625   0.656250 0
  0.531250   0.546875 0
  0.750000   0.562500 0
  0.515625   0.625000 0
  0.531250   0.515625 0
  0.984375   0.515625 0
  0.750000   0.578125 0
  0.515625   0.531250 0
  0.828125   0.796875 0
  0.640625   0.703125 0
  0.828125   0.765625 0
[...]
CELL_DATA 7648
SCALARS scalar_value float 1
LOOKUP_TABLE default
-0.000208273
-0.000280898
4.35988e-09
-2.78373e-09
1.31883e-09
4.2818e-10
-3.62802e-05
3.0862e-05
-1.86977e-05
-6.03941e-05
0.00510752
0.00121547
0.014115
-0.00604531
0.0581581
0.0145027
0.0790192
-0.00363414
0.0341246
-0.0538713
0.0643341
-0.00301729
-0.0332201
-0.00819703
0.0713615
0.000870764
-0.0723685
-0.00300491
-0.189593
-0.148548
-0.085407
-0.0659678
5.45605e-10
-5.5607e-10
7.15466e-10
3.57783e-10
0.022917
-0.00136846
0.000440636
-0.000177108
0.000481874
3.60068e-05
0.429549
0.304273
5.20807e-09
-6.8403e-09
1.05817e-08
1.73262e-08
1.44953e-08
-1.89968e-08
5.85603e-09
1.5545e-08
4.60861e-09
-4.7728e-09
-1.30503e-08
-4.58238e-08
0.0219172
0.0162658
-0.0231559
-0.0198019
-0.00733919
-0.00907163
2.03488e-06
-2.85851e-07
-3.71994e-06
5.3391e-06
-2.49279e-06
-1.94466e-06
-7.24274e-07
-1.2987e-05
1.16461e-08
1.65193e-06
-2.1197e-07
0.0203234
-0.239302
-6.58926e-09
7.15361e-09
-4.49697e-09
-9.13854e-09
9.44249e-09
-2.8065e-09
2.68199e-09
2.14748e-09
-9.76698e-09
6.05507e-09
-1.32511e-08
-3.16986e-09
7.77367e-06
-1.09757e-05
-6.98373e-05
-2.87226e-07
-6.48143e-07
1.91234e-06
-2.6991e-07
1.08312e-06
1.95017e-06
1.16342e-06
-6.93504e-07
9.32313e-06
-9.08998e-06
-3.64915e-06
-2.26076e-07
-1.69412e-07
-2.66907e-07
-0.0272279
0
0
0
3.31583e-07
1.76902e-07
4.47646e-07
-2.27261e-08
1.76298e-09
-5.75246e-10
2.10675e-09
4.78083e-10
1.02504e-10
1.40614e-10
0
-3.09728e-05
4.62869e-05
-1.15722e-05
2.64767e-05
5.1031e-05
-2.29983e-05
1.59679e-06
-3.5643e-05
-8.92266e-08
2.19541e-09
1.93849e-07
-1.77322e-08
-1.43413e-10
0
-5.92766e-10
0
0.000148667
0.000165801
-0.000105982
-4.73648e-05
0.00172891
-9.77617e-10
7.80863e-10
3.53352e-06
-5.58314e-06
1.23553e-05
-5.6231e-05
-0.000311576
1.43412e-05
-0.00200084
-0.0421107
-0.00877933
-0.000119603
-0.000173775
3.28744e-05
-0.000313314
5.10139e-05
-2.05348e-05
2.71769e-05
-9.19053e-07
-3.32534e-06
1.34462e-06
0.00265301
-0.00108926
0.0025346
0.000408084
0.144371
0.000163623
-0.000464831
3.83759e-05
0.000428871
-1.05217e-08
5.63642e-09
-3.96929e-08
-3.3988e-08
5.32207e-10
-1.73096e-10
3.51775e-05
-1.97384e-05
5.3651e-05
-3.45728e-05
-3.66936e-05
-1.5371e-05
-7.68452e-05
-7.47208e-05
-0.000361963
-0.000728843
0.00318579
-0.000402785
-0.000122334
0.000144081
0.00167122
0.280877
0.512133
6.46013e-05
-3.3351e-05
8.03364e-05
-8.84164e-06
-1.45175e-06
-1.1057e-06
-5.6596e-07
5.10304e-07
3.15945e-05
-9.68794e-05
0.00010946
1.49459e-05
9.60764e-10
-5.75619e-10
-3.28098e-05
0.000112488
0.000117824
-8.86285e-05
9.76762e-05
0.00116992
-0.0013223
-0.000148888
1.56099e-05
-6.79104e-05
7.64299e-05
2.10524e-05
1.84343e-07
1.3002e-07
1.0903e-06
1.15897e-06
-7.05768e-07
7.54423e-07
6.17545e-06
-3.01061e-06
9.55195e-07
3.58857e-06
5.42304e-06
3.62525e-05
-2.29309e-05
3.8813e-06
7.34667e-06
1.44148e-09
5.05834e-10
-3.57372e-09
-3.67424e-10
2.9313e-05
-1.78022e-05
8.56564e-06
1.19862e-05
-1.85583e-08
1.10123e-08
-3.29817e-08
-7.06614e-09
-0.0342504
0.100479
-7.68001e-08
1.52735e-07
2.08561e-07
4.10985e-07
2.15467e-07
1.66236e-07
1.52485e-08
2.65388e-07
2.56465e-09
7.80096e-08
7.25617e-09
-4.18512e-10
1.39249e-10
-2.54408e-10
0
5.0485e-10
-4.76645e-10
4.08873e-10
3.65383e-10
0
0
0
0
-2.16043e-06
1.59532e-06
1.50508e-05
-1.90509e-06
6.85062e-07
-1.22336e-06
-3.89934e-08
0.042623
-0.0716298
-0.0653695
0.000195766
0.000325512
0.000177992
0.000204037
4.12218e-05
0.000377471
4.23914e-05
4.60473e-05
5.15377e-06
-4.64196e-05
-8.34926e-05
-3.65691e-05
-2.87777e-06
0.000130486
-1.79758e-05
-0.000330734
-0.00043163
1.518e-10
1.30817e-08
-4.06363e-10
-0.0297602
-4.18002e-05
0.00444183
0.00514244
-3.57878e-06
0.000122222
-0.00115242
0.000141731
-5.68396e-06
-1.75205e-05
0.0403021
-4.58623e-07
-0.00134603
3.85808e-08
-2.17392e-08
-1.54797e-08
2.24576e-08
-5.3835e-10
0.00400077
-0.000932549
-2.86505e-06
-0.00129376
-0.0140337
-4.76703e-07
-3.07821e-07
-9.13817e-09
0.0933863
4.11276e-06
0.283671
0.00273676
-0.00111896
2.18976e-08
0.000214715
-0.00028568
0.00104799
-0.00144158
1.79253e-05
0.00105275
6.87205e-06
-3.59284e-07
1.24251e-05
-0.140803
1.08468e-05
6.60625e-07
-4.05798e-10
-7.6855e-10
-0.0227873
2.54399e-09
-9.93859e-05
1.76934e-08
0.000199094
1.86714e-10
-0.000116198
0.0134726
2.33425e-05
2.4965e-06
-0.181837
0.364532
-0.0127999
-9.62704e-08
-3.36085e-07
3.17033e-08
0.0112998
1.14491e-05
0.0265994
3.16765e-06
3.767e-06
9.35187e-07
0.207999
3.02194e-05
-0.0347226
-0.103408
-1.90399e-08
1.94362e-10
6.37933e-05
-1.63071e-05
-0.00990207
0.000686387
-1.22668e-07
-0.00579947
9.34994e-07
-0.00980915
-7.00794e-10
-2.79907e-09
7.49495e-10
-2.99025e-07
3.02886e-07
2.10998e-07
0.000192748
0.00038748
-0.000295726
-0.0498907
-7.66511e-08
0.000883202
0.00608926
-0.0160519
-7.58834e-05
3.44792e-07
5.16173e-07
3.77848e-05
-1.92252e-08
-3.05433e-05
2.75694e-09
0.000809143
8.71809e-06
-3.88489e-05
1.126e-08
4.17784e-05
-3.87334e-06
-2.33809e-09
0.0740192
-1.3567e-06
0.0231457
-1.84165e-06
1.77167e-07
1.16414e-08
6.20515e-07
0.208804
-6.81162e-10
-1.07267e-06
-2.64497e-08
0.208582
-0.000117729
0.0202938
3.77883e-05
3.41074e-06
-1.30849e-08
0
0
-1.04079e-07
0.042807
0.000114137
6.03502e-07
0
3.50954e-07
0.0312113
-4.41605e-07
-2.64696e-06
0
0.00370709
0
-6.39492e-05
-0.000212263
8.12469e-05
-7.13581e-09
-1.12943e-06
3.73894e-06
4.15892e-07
4.09616e-07
4.07729e-07
3.49429e-05
0.000107046
-0.0156468
-0.0161486
-1.17684e-09
6.16488e-09
1.22715e-07
-2.92361e-05
-6.37502e-05
-0.00217732
0.00205054
4.67354e-08
0.00288443
0.0978513
0.000152758
-1.26712e-08
2.76927e-08
-0.00440099
-1.15189e-08
-2.05969e-08
3.58852e-09
5.31457e-09
-9.21029e-10
-0.00123995
9.23067e-05
-2.13456e-05
0.000811849
0.505149
0.137776
9.49552e-09
2.15535e-05
0.00410284
-0.00211808
5.46502e-06
0.119509
0.135264
-0.00118791
-0.00138668
0.00222527
-0.0139102
0.059443
-0.00684669
0.122117
-4.94771e-08
1.18831e-06
0.065418
-1.4983e-05
-1.3692e-06
-3.14544e-06
0.0473202
2.83867e-06
1.31806e-08
0.000148835
1.76317e-08
-4.76592e-08
0.00538788
0.00487862
-0.000628488
-1.85301e-08
-0.000318999
0.0049271
-6.40288e-08
0.0321236
-2.97131e-07
-2.41607e-07
0.543046
1.54185e-07
7.12861e-06
0.0564686
0.14157
8.16041e-06
0.923229
0.309807
-0.0278878
-4.84571e-08
5.24662e-07
-3.86753e-05
1.51146e-10
0.000212043
3.64606e-08
0.811471
0.000120503
1.6538e-06
7.89526e-09
-0.000151164
-2.82262e-08
0.163518
0.000121245
-0.000279733
-9.9523e-10
-0.000162784
-1.79852e-08
0.000182241
0.000781087
0.00173216
3.07387e-09
-3.72737e-05
0.146133
-1.89285e-07
1.90072e-05
6.12955e-09
2.65506e-09
0.00019872
-0.000101785
-0.00140669
5.64631e-08
-9.45854e-05
-1.61375e-06
0.0890696
0
0
-0.000318047
0
8.09613e-06
0.0443284
0.000138062
-1.29641e-08
-0.00118217
-2.20342e-08
0.00926025
1.08477e-08
-0.0069598
0.000794768
9.43606e-05
-1.17064e-08
-0.00133093
-1.32258e-08
0.00129029
1.28556e-08
0.00437521
0.00124242
0.0011787
2.60776e-07
3.95117e-10
-1.22145e-10
7.35591e-10
4.33982e-05
1.0694e-10
-0.000103092
3.07113e-05
5.49457e-06
-1.79578e-10
1.03894e-05
-0.000306038
0
-4.71389e-10
-3.40132e-05
2.49633e-09
-9.1095e-10
0
0
3.53868e-05
1.12086e-09
1.13601e-05
9.66774e-06
-1.5661e-05
-4.84636e-09
0.000284557
-0.00519734
-2.58539e-05
6.24884e-09
1.16763e-05
-0.000265606
0.000165505
-1.10099e-07
2.1551e-07
0.000314445
4.59586e-05
-3.85646e-05
-1.22965e-08
0.237702
-0.189474
0.143167
2.35022e-06
4.01404e-05
3.83714e-05
-0.00788056
1.18224e-06
0.141296
-0.0122274
3.08735e-05
-0.0192223
0.0648535
6.95426e-06
0.0125767
0.00010613
-0.0283803
-9.89915e-06
-1.71071e-05
1.17364e-05
9.01428e-05
-2.6545e-07
-4.9195e-06
0.443381
-1.39184e-06
0.468862
5.16545e-06
4.1475e-06
-0.0466965
-0.175821
0.000246452
-8.18109e-05
7.6928e-05
-2.19905e-05
0.000191576
-7.7309e-07
0.00435894
-3.04327e-07
0.0718643
0.00115906
-2.65257e-06
0.00424967
-0.0152705
2.37816e-05
0.000340421
9.63852e-07
0.000476116
0.711684
0.802958
1.46468e-05
-3.22432e-06
0
-0.000104059
0
3.28581e-05
1.12144e-06
-2.08116e-05
0.00593933
3.52267e-06
0.00507462
-7.92407e-07
0.0204966
-1.15384e-05
-5.18073e-07
0.141769
1.53734e-09
5.44318e-07
6.81769e-07
-0.000496261
3.55526e-07
-3.00612e-07
8.43295e-09
1.10255e-06
0.000328392
-0.000299116
0.000418595
0.00043888
0
-8.43874e-06
-0.00729466
0
0.000255273
-9.36378e-07
1.37749e-10
0.0905561
0.000565899
2.35871e-10
0
6.36385e-05
-4.63502e-09
-0.000155709
0.144057
-0.0344452
9.14048e-05
-9.94361e-05
2.7819e-10
-0.000315349
-3.36403e-08
-0.00461382
0.000135574
0.00322741
0.0149063
2.58806e-08
0
0.0011199
0.000308015
-0.00329984
-3.14933e-09
-0.000115442
0.162289
-0.000335293
1.14998e-10
0.0068717
8.46544e-05
-0.0169713
5.90844e-10
-0.00137074
3.06214e-05
0.00822332
-0.000812999
1.45372e-05
5.08373e-10
0.00104143
-2.83839e-06
3.66978e-07
6.49359e-09
0.0515892
-0.00606438
0
2.81888e-07
-0.000310021
3.87444e-06
3.45485e-07
-0.0132342
-0.0178008
0.000286296
-1.26895e-09
-1.52082e-07
1.83787e-10
-4.09385e-05
-6.73357e-07
-3.85937e-08
0.000106785
-1.08282e-10
1.29149e-09
7.64887e-05
7.56088e-08
0.000147622
0
0
-1.74551e-05
0.229167
0.000144972
5.0255e-05
-7.53838e-05
9.17982e-06
-7.50484e-09
-0.000257451
0.000163627
-2.0363e-06
-3.06073e-10
0.000339374
1.05898e-08
0.00370814
-0.0662589
-7.32296e-09
-0.103852
-1.80589e-09
1.37212e-08
-0.0013244
0
0.00622874
-6.5629e-10
-2.9348e-09
-0.154724
-5.14425e-08
0.000499068
-0.000177639
-9.0218e-05
-1.0816e-10
-2.70815e-08
0.000706001
0.00105245
0
-2.82277e-07
4.37098e-07
-0.0163446
-7.35327e-07
2.2544e-06
0.380264
0.000374298
-4.16644e-06
3.51013e-05
0.00762059
0.00522443
0.121808
1.191e-07
3.26089e-06
0.0880985
-1.16709e-05
-1.05833e-09
0
-0.0286911
-2.22802e-08
0.00109272
-0.0146062
-3.6818e-05
0.000191112
0.0111367
-0.0142742
0.270179
0.00379522
0.00362743
3.17273e-08
5.94154e-06
0.000105013
0
4.10368e-06
0.0689678
0.000272115
0.000466744
0.144384
0.000122336
0
0.168681
0.0876606
-3.59264e-07
2.67485e-06
1.60267e-08
-3.37713e-09
-3.18836e-09
2.42442e-08
1.92746e-05
0
7.52679e-05
-0.00993614
-7.846e-05
-4.15921e-06
-1.05601e-08
0.105815
0.0117464
-7.86672e-10
0.130034
0.0037431
-0.0012268
0.000155007
2.70271e-09
-0.013227
6.68506e-10
7.48565e-09
5.93149e-09
-1.08633e-09
0.00847002
9.64025e-09
-8.70906e-05
-0.0047747
0.0108801
7.09006e-05
4.31726e-05
-0.00647342
7.17063e-09
0.00495319
1.13178e-08
0.250554
-1.09463e-06
-7.47567e-09
0.0209489
1.99532e-05
0.0162187
1.71548e-05
0.144775
-9.86452e-07
0
0
0.000431788
5.13165e-09
-1.62018e-06
0.00735366
5.82173e-10
6.925e-09
-0.00972115
0
-0.0954975
-5.74883e-08
0.123523
0.0675037
-0.000345383
0.000140146
5.17339e-10
-0.00010289
3.02051e-05
4.52684e-05
-4.59814e-07
-2.96296e-06
0.00281663
0.126986
-0.000812254
-0.00256421
1.86479e-06
0.104637
7.39534e-05
-1.0753e-10
-0.00119469
5.29894e-08
2.27264e-08
0.00232996
-2.38777e-05
7.39182e-09
9.27346e-10
0.00517264
0.0267947
3.88932e-07
0.262845
0.0004645
0.128888
-2.03709e-10
-1.13406e-09
-7.76476e-09
-1.20443e-10
-0.000291315
-1.95663e-08
2.15245e-09
0.00801113
0.00671986
-0.000873859
0.0017448
-0.00118172
-1.50193e-09
2.03564e-05
-0.0054733
0
-0.043295
0.00737803
-3.14764e-07
-8.46046e-07
0
-1.13475e-09
-6.47865e-05
0.151659
4.01284e-07
7.36529e-05
0
-0.0036789
-0.0562349
8.60649e-10
1.63569e-07
8.41321e-05
7.3197e-09
-0.000175182
-5.13418e-05
0
0.000687003
8.81395e-10
0.0021931
-0.00180354
0
0.00570067
3.10828e-06
-5.30506e-09
0
-7.1812e-05
-0.00290127
-7.26498e-05
0.737367
0.00155235
-3.02197e-10
0.00226077
-0.00413022
4.41575e-06
-0.000411272
0
4.85654e-05
-4.4347e-06
-0.000527831
-1.06311e-07
0.000696952
-0.000105586
-2.24865e-05
-0.283376
-1.57708e-06
0
-0.000130448
-1.48851e-06
-0.0002025
1.23776e-05
0.130087
-7.12252e-05
-0.00064416
-0.000115866
8.2388e-06
0.0150465
-3.92634e-05
6.64014e-10
1.62452e-05
-7.41878e-06
0.00340528
-6.4324e-09
1.38055e-06
-0.00141376
-0.000170675
-1.28975e-05
7.30739e-06
-5.01355e-05
0
0.00195146
1.23023e-08
0.0877965
-1.2458e-06
-5.88292e-07
-1.04209e-07
0.0533531
-0.0174324
0.850067
4.22571e-07
-4.09027e-05
0.00611633
-1.07603e-05
6.2656e-09
0
0.00765798
1.31525e-07
3.23732e-10
-0.00168289
0.00376323
-0.000138893
0.11128
-0.0867545
0.536224
0.000247407
-0.000180221
0.000389415
-7.04565e-05
-2.72903e-05
2.55307e-06
0.00104176
5.20677e-07
0.000171005
-0.000447878
0.175992
-0.00801062
0
-0.023541
-1.23773e-05
-5.68776e-10
-2.62204e-05
-6.44753e-10
-0.000300467
-2.14926e-07
0
0.00899446
-0.00280564
0.000106056
-0.00198388
-3.35665e-05
4.0002e-09
0.0107965
0.0601269
0.138649
0.0797031
0.145449
0.106839
-1.41094e-08
-0.000721978
0.0782506
-0.0608632
-0.0194193
-7.37402e-10
-9.93675e-06
8.39515e-06
9.06691e-10
4.95359e-05
3.84214e-10
0.000147968
0.00195438
-1.30216e-06
7.36914e-10
1.1249e-05
0.105093
-0.135572
-1.09849e-05
-0.215589
0.0123339
-0.0142741
0.0135046
0.0578536
0.0428149
-0.00155545
-0.0580777
-0.0988008
0.00506754
-0.00043809
-0.0020624
-1.5779e-08
-0.00149748
1.36437e-07
-0.00591668
-6.89748e-05
0.0380748
-1.44632e-07
2.95836e-05
-3.52158e-08
-0.000106205
0.0185719
-0.0026931
0.000775855
-0.000600853
-0.109333
-0.153719
-3.72123e-08
-0.165378
-3.34662e-09
0
0
0
-0.00233769
-0.000998666
-0.0199148
-0.00224813
0.000533479
-0.0015182
-0.00233326
-0.00170227
-4.22174e-07
-0.0505942
-4.19246e-09
1.52035e-07
9.83771e-09
0.00528268
1.0266e-07
4.61843e-07
-2.75596e-09
-7.44965e-06
0
-2.2084e-09
-0.000317618
0.0415266
-1.45493e-08
0.00022402
3.17758e-09
-0.000611787
-7.6841e-09
-4.29577e-06
0.548122
0
0.0055814
0
0
0
0.00768406
0.0172722
0.00343217
0
0
0.0173555
-1.16185e-09
0
0.00665849
0
-0.00933088
0
0.00893963
0
-2.67306e-05
-8.70556e-10
-0.000224591
-1.04985e-08
-1.78219e-05
6.16344e-10
8.64839e-06
-2.94045e-10
-1.397e-05
-5.40874e-07
-0.00162397
0.0648082
-0.00476582
0.118502
0.224173
-5.94779e-07
-8.63887e-07
1.51117e-05
-0.0590958
9.64255e-08
-3.37899e-07
-6.35903e-09
-6.25395e-08
0.115124
-0.0183818
-0.000106441
-4.859e-05
0.273172
5.64451e-07
0.763927
0.00137586
7.44052e-05
-0.00015721
-0.0051302
0.000472991
-0.000689958
0
-5.67038e-05
1.12816e-08
5.68876e-09
0.00028954
-0.000918116
-3.3111e-09
-0.000188074
-0.00529869
-0.00118332
5.60797e-05
-8.94206e-08
3.96856e-07
0.00209761
0.0108542
-0.0140841
0.00433278
-5.46498e-05
1.64562e-05
6.09008e-07
-5.63875e-06
7.12971e-07
-4.26676e-05
0.0143893
8.12201e-05
7.84833e-06
-9.61579e-09
0.00109713
0
-0.00276354
-2.04653e-09
-0.0121459
0.000164371
0
-6.84913e-05
0.000127141
0.000158193
-5.02652e-05
1.17478e-06
1.1993e-06
-0.00695726
0
-0.00380147
5.8589e-10
-5.3985e-05
0.0381612
2.39594e-05
2.04038e-10
0.00549549
0.00690945
-0.000412197
0
1.76645e-08
0.000256784
-3.67938e-09
-1.63538e-06
-0.00115293
-3.91176e-06
-0.0177074
-6.10479e-10
9.04217e-06
1.81117e-07
-1.30199e-06
2.67275e-07
0.00190944
0.000532602
0.000719203
-0.00514334
1.40855e-06
-1.23012e-06
3.36886e-06
-1.70767e-06
-3.96963e-05
-1.71638e-10
0.00290339
-0.000961891
-0.145226
0.368691
0.43107
0.05466
-2.8224e-08
0.696924
4.73842e-07
0.605328
-1.19114e-07
0.651126
-0.00990083
0.108835
-0.129729
0.0109525
0.0572933
5.29831e-06
9.32358e-06
1.98321e-06
-1.5725e-10
0.118095
0.00127656
5.95771e-05
0.135825
0.00746247
0.00752018
-0.0282551
3.40252e-05
7.04102e-07
0.192061
1.62607e-05
-3.7063e-05
0.0331065
-0.00178274
0
0
0
6.02827e-05
0.00907331
0.0158666
-9.63367e-09
-0.00262262
0.0175613
-0.00427726
-0.00470677
0.0873979
7.42654e-07
-0.0739092
-0.0628737
-0.000414035
-1.1451e-06
1.50118e-05
-0.0363344
0.000207783
0.000762571
-0.00135986
0
5.69576e-06
6.47907e-06
2.22866e-07
-5.98074e-08
-8.57836e-09
0.0328262
-0.0115937
0.0839627
0.0612834
2.04842e-05
0.00363996
0.0569098
-0.000751243
0.00810058
0.0375097
0.000148124
0.00746821
-0.181193
-0.158429
0.38654
0.00120468
0.00530362
-0.000185779
8.37174e-05
0.446496
0.549279
-1.56739e-10
0
2.60363e-10
0
7.866e-07
3.05285e-07
8.42738e-07
-0.0188353
1.11404e-06
3.85075e-07
0.038847
-4.87223e-07
6.17206e-07
0.0301139
0.00581414
-1.2349e-08
2.93913e-08
7.23366e-08
-3.05028e-07
1.86627e-07
0.00252301
2.97848e-08
-0.00150543
-0.000158308
0.00320349
5.14429e-05
-1.01582e-06
-1.93795e-05
-0.0282613
0.0716966
-0.00222905
0.0304293
-0.00506496
-0.00169055
-3.67911e-08
-1.2658e-08
-4.7404e-08
3.63307e-05
0.0430251
0.00382622
-1.38826e-07
-0.00232902
0.0032683
-1.93299e-09
0.219111
1.98967e-09
7.24049e-07
1.0947e-07
0.0939535
0.00816468
0.00381325
-1.82365e-05
-0.000357253
4.3832e-09
0.000434276
-4.67707e-10
0.000284899
0.099656
-0.00185097
0.00887306
0.0780934
0.00160471
-0.000236176
4.31091e-05
-0.0348503
7.82487e-05
0.000393479
-0.000822355
-0.000305406
0.000446504
0.153223
0.0366577
-1.11569e-06
-0.000247026
0.00260331
-3.21855e-08
0.00164182
-0.102052
1.79108e-07
-3.99583e-07
-1.06667e-05
0.0710398
0.00334412
-0.0234583
-6.78313e-08
-0.00375738
-0.00210944
0
0.0455467
-0.00162518
0.0120147
0.0720141
3.43572e-07
0.0552218
5.67553e-07
-0.00685321
5.34703e-05
-1.03971e-05
-5.35719e-09
0.000250168
0
0
0
0.000104864
3.36773e-05
0.000156959
0.270164
-0.0201114
0.100767
0.172977
0.00498828
0.157819
0.58896
0.0105922
6.63112e-09
1.15265e-08
2.20784e-09
1.01739e-09
-0.00853121
-3.19123e-08
-1.66989e-07
-5.43499e-08
-0.00894645
0.000872605
0.0199126
-0.000195888
1.62359e-09
-1.46114e-08
8.7499e-10
4.36593e-10
-2.73597e-10
1.43807e-09
0.000117382
-7.38796e-06
0.000242118
0.00587954
-0.000676137
0.390151
4.15043e-05
0.206588
0.567284
0.195079
5.75026e-05
-8.49702e-05
1.98774e-06
5.48368e-05
-0.0201243
1.2995e-06
2.4105e-06
1.05677e-06
-3.35179e-08
-0.00399607
0.000711588
4.8462e-06
0.000480352
9.54536e-09
0.00366693
-0.00245745
-2.26874e-05
0.135852
1.47471e-05
0.000686867
0.000232747
-1.25616e-05
0.162869
-0.0122366
-0.0266715
0.00203529
-4.56435e-10
4.39554e-06
-1.31737e-06
5.13449e-06
-0.0270353
0.00769958
-0.00375673
-0.00028208
7.50725e-06
0.00767316
6.48635e-05
-0.000360068
1.11465e-07
-3.52657e-05
-7.16059e-07
2.34648e-05
0.00175682
-1.73822e-08
0.153573
-0.0195513
-6.82691e-09
-2.39145e-08
-2.44753e-08
2.52544e-09
1.88491e-08
-0.167298
0.115898
0.0148563
-0.0257608
-2.25817e-06
-1.08238e-05
0.550843
0.0960927
0.184695
-0.00536214
1.44208e-07
-1.05909e-08
1.87914e-05
9.77566e-06
-2.86426e-05
2.61932e-05
-1.74672e-05
-8.63587e-06
-1.53801e-07
-3.66688e-07
4.06399e-07
-5.19225e-07
-0.046009
-0.236553
-0.142709
-0.00664379
0.155868
-2.16179e-10
1.98261e-10
0
0.00303154
-0.00209376
0.0531077
-0.00993274
-0.00150785
0
-2.21317e-10
-0.026267
0.00107874
0.00158754
0
-1.08659e-10
8.07604e-05
-0.000642612
0
-0.00224379
0.0647284
0.0227905
-0.0249287
0.0119012
-0.0102138
0.00594467
-0.0101902
0.00304327
-3.97868e-06
7.17141e-05
9.36255e-05
0.010263
0.153584
0.00191084
0.00313146
-0.00311284
0.00564844
2.28618e-08
0.00242943
-0.0416225
9.91118e-09
6.87454e-08
0.137255
1.35592e-06
-1.92327e-06
0.176184
7.59329e-09
-9.74305e-08
-1.06096e-07
-1.44383e-07
-6.29478e-05
6.06876e-05
-0.00141728
-3.57712e-05
1.96952e-09
1.4253e-08
4.73515e-09
-3.00174e-08
-2.0514e-07
-0.000711994
0.00082224
0.000892658
-0.0014364
0.000550463
-0.0109319
-0.00480186
-0.00244863
1.15723e-06
-0.0244232
1.33489e-06
9.3633e-06
9.46934e-06
-0.00857741
-0.0265889
3.25853e-08
-0.106905
0.840159
-2.51072e-06
3.81847e-06
0.0252973
-2.18314e-09
3.35397e-07
0.13291
-0.00436672
-0.111897
-1.02082e-10
-3.60073e-10
2.68201e-10
0
0.0879224
4.7859e-10
0
8.29054e-10
-6.61697e-10
0.00124593
-7.08932e-10
-2.22443e-06
5.27161e-05
-3.33303e-05
6.35581e-05
-0.0236701
-0.0256814
0.281987
-8.14576e-05
-5.18814e-06
-9.43525e-05
4.54346e-10
2.27897e-09
4.98435e-09
0.000329784
1.95651e-05
-0.000130579
5.24713e-05
-0.0171345
-8.78674e-05
-1.18623e-05
1.63284e-09
7.64969e-05
-6.50285e-05
0
-2.81767e-09
-1.13906e-10
0.000258029
8.29607e-07
-1.55697e-05
-0.0103241
0.0420395
0.0301021
-1.80153e-08
3.28073e-09
-4.10637e-09
0.0013261
7.36136e-05
-4.57972e-06
2.31733e-05
2.83525e-05
-0.00231202
-0.000429979
0.000512006
-0.00065943
0.229869
0.161998
0.000167448
-6.36749e-05
-5.02006e-05
-0.00162254
0.00152083
-0.00149409
0.905409
0.491241
0.391899
-0.0100289
-0.0122245
0.0124472
1.26638e-05
-5.14598e-06
0
-0.0177049
-1.27777e-05
-1.67331e-05
-2.87346e-06
0.000796713
0
3.34229e-05
-2.02841e-05
3.42856e-05
0.000578621
8.93805e-07
-0.000788494
-0.000369465
7.19544e-07
-1.81681e-06
2.0872e-06
1.67153e-09
1.14432e-08
2.27777e-09