# vtk DataFile Version 2.0
Unstructured Grid by M++
ASCII
DATASET UNSTRUCTURED_GRID
POINTS 4072 float
  0.828125   0.890625 0
  0.875000   0.531250 0
  0.828125   0.750000 0
  0.593750   0.968750 0
  0.828125   0.671875 0
  0.828125   0.875000 0
  0.593750   0.937500 0
  0.828125   0.656250 0
  0.828125   0.640625 0
  0.828125   0.843750 0
  0.593750   0.906250 0
  0.828125   0.625000 0
  0.781250   0.968750 0
  0.828125   0.609375 0
  0.828125   0.812500 0
  0.593750   0.875000 0
  0.593750   0.828125 0
  0.593750   0.796875 0
  0.828125   0.703125 0
  0.593750   0.765625 0
  0.828125   0.937500 0
  0.812500   0.875000 0
  0.859375   0.515625 0
  0.812500   0.734375 0
  0.812500   0.937500 0
  0.578125   1.000000 0
  0.578125   0.750000 0
  0.812500   0.687500 0
  0.578125   0.953125 0
  0.812500   0.656250 0
  0.812500   0.859375 0
  0.578125   0.921875 0
  0.812500   0.828125 0
  0.578125   0.890625 0
  0.812500   0.593750 0
  0.812500   0.796875 0
  0.578125   0.859375 0
  0.578125   0.812500 0
  0.578125   0.781250 0
  0.796875   1.000000 0
  0.796875   0.859375 0
  0.796875   0.718750 0
  0.562500   0.984375 0
  0.562500   0.937500 0
  0.796875   0.843750 0
  0.562500   0.906250 0
  0.796875   0.812500 0
  0.562500   0.875000 0
  0.796875   0.578125 0
  0.796875   0.781250 0
  0.562500   0.843750 0
  0.812500   0.984375 0
  0.562500   0.796875 0
  0.812500   0.953125 0
  0.562500   0.765625 0
  0.796875   0.937500 0
  0.546875   0.750000 0
  0.781250   0.984375 0
  0.828125   0.593750 0
  0.781250   0.843750 0
  0.781250   0.937500 0
  0.546875   1.000000 0
  0.781250   0.703125 0
  0.546875   0.968750 0
  0.546875   0.921875 0
  0.781250   0.828125 0
  0.546875   0.890625 0
  0.781250   0.796875 0
  0.546875   0.859375 0
  0.781250   0.562500 0
  0.781250   0.765625 0
  0.546875   0.828125 0
  0.796875   0.968750 0
  0.546875   0.781250 0
  0.765625   1.000000 0
  0.765625   0.968750 0
  0.531250   0.984375 0
  0.765625   0.687500 0
  0.531250   0.953125 0
  0.531250   0.937500 0
  0.531250   0.906250 0
  0.765625   0.812500 0
  0.531250   0.875000 0
  0.765625   0.781250 0
  0.531250   0.843750 0
  0.781250   1.000000 0
  0.765625   0.546875 0
  0.765625   0.750000 0
  0.531250   0.812500 0
  0.781250   0.953125 0
  0.531250   0.765625 0
  0.515625   0.750000 0
  0.750000   0.984375 0
  0.750000   0.953125 0
  0.796875   0.593750 0
  0.796875   0.562500 0
  0.750000   0.843750 0
  0.750000   0.937500 0
  0.515625   1.000000 0
  0.750000   0.906250 0
  0.515625   0.968750 0
  0.750000   0.671875 0
  0.750000   0.875000 0
  0.515625   0.937500 0
  0.515625   0.921875 0
  0.515625   0.890625 0
  0.750000   0.796875 0
  0.515625   0.859375 0
  0.750000   0.765625 0
  0.515625   0.828125 0
  1.000000   0.718750 0
  0.750000   0.531250 0
  0.750000   0.734375 0
  0.515625   0.796875 0
  0.734375   1.000000 0
  0.734375   0.968750 0
  0.734375   0.937500 0
  0.781250   0.578125 0
  0.781250   0.546875 0
  0.968750   0.578125 0
  0.734375   0.828125 0
  0.968750   0.546875 0
  0.734375   0.796875 0
  0.734375   0.765625 0
  0.968750   0.671875 0
  0.734375   0.734375 0
  0.968750   0.640625 0
  0.734375   0.703125 0
  0.968750   0.609375 0
  0.734375   0.671875 0
  0.734375   0.656250 0
  0.734375   0.625000 0
  0.968750   0.531250 0
  0.734375   0.593750 0
  0.984375   0.734375 0
  0.984375   0.703125 0
  0.734375   0.515625 0
  0.718750   0.984375 0
  0.718750   0.953125 0
  0.718750   0.921875 0
  0.953125   0.562500 0
  0.718750   0.812500 0
  0.953125   0.531250 0
  0.718750   0.781250 0
  0.718750   0.750000 0
  0.953125   0.656250 0
  0.718750   0.718750 0
  0.953125   0.625000 0
  0.718750   0.687500 0
  0.953125   0.593750 0
  0.718750   0.656250 0
  0.671875   1.000000 0
  0.718750   0.640625 0
  0.718750   0.609375 0
  0.953125   0.515625 0
  0.718750   0.578125 0
  0.968750   0.718750 0
  0.968750   0.687500 0
  0.953125   0.671875 0
  0.703125   0.968750 0
  0.703125   0.937500 0
  0.937500   0.656250 0
  0.703125   0.906250 0
  0.937500   0.546875 0
  0.703125   0.796875 0
  0.937500   0.515625 0
  0.703125   0.765625 0
  0.937500   0.671875 0
  0.703125   0.734375 0
  0.937500   0.640625 0
  0.703125   0.703125 0
  0.937500   0.609375 0
  0.703125   0.671875 0
  0.937500   0.578125 0
  0.703125   0.640625 0
  0.656250   0.984375 0
  0.703125   0.625000 0
  0.703125   0.593750 0
  0.718750   0.796875 0
  0.953125   0.734375 0
  0.812500   1.000000 0
  0.859375   0.656250 0
  0.703125   0.781250 0
  0.937500   0.718750 0
  0.953125   0.703125 0
  0.796875   0.984375 0
  0.843750   0.640625 0
  0.812500   0.968750 0
  0.859375   0.625000 0
  0.796875   0.953125 0
  0.843750   0.609375 0
  0.687500   0.953125 0
  0.687500   0.921875 0
  0.687500   0.890625 0
  0.921875   0.734375 0
  0.687500   0.796875 0
  0.687500   0.781250 0
  0.921875   0.703125 0
  0.687500   0.765625 0
  0.687500   0.750000 0
  0.921875   0.656250 0
  0.687500   0.718750 0
  0.921875   0.625000 0
  0.687500   0.687500 0
  0.921875   0.593750 0
  0.687500   0.656250 0
  0.640625   1.000000 0
  0.921875   0.562500 0
  0.687500   0.625000 0
  0.640625   0.968750 0
  0.687500   0.609375 0
  0.687500   0.578125 0
  0.937500   0.687500 0
  0.921875   0.671875 0
  0.671875   0.921875 0
  0.906250   0.656250 0
  0.671875   0.906250 0
  0.671875   0.875000 0
  0.906250   0.718750 0
  0.671875   0.781250 0
  0.671875   0.765625 0
  0.671875   0.734375 0
  0.906250   0.640625 0
  0.671875   0.703125 0
  0.906250   0.609375 0
  0.671875   0.671875 0
  0.906250   0.578125 0
  0.671875   0.640625 0
  0.625000   0.984375 0
  0.671875   0.609375 0
  0.625000   0.953125 0
  0.671875   0.593750 0
  0.671875   0.562500 0
  0.765625   0.953125 0
  0.812500   0.609375 0
  0.656250   1.000000 0
  0.656250   0.953125 0
  0.656250   0.906250 0
  0.890625   0.640625 0
  0.656250   0.890625 0
  0.656250   0.859375 0
  0.890625   0.734375 0
  0.656250   0.796875 0
  0.812500   0.921875 0
  0.562500   1.000000 0
  0.625000   0.828125 0
  0.812500   0.843750 0
  0.843750   0.593750 0
  0.812500   0.812500 0
  0.625000   0.718750 0
  0.828125   0.687500 0
  0.640625   0.593750 0
  0.812500   0.781250 0
  0.625000   0.687500 0
  0.765625   0.828125 0
  0.640625   0.562500 0
  0.812500   0.750000 0
  0.562500   0.828125 0
  0.781250   0.875000 0
  0.546875   0.937500 0
  0.781250   0.671875 0
  0.781250   0.593750 0
  0.546875   0.656250 0
  0.796875   0.750000 0
  0.562500   0.812500 0
  0.796875   0.546875 0
  0.765625   0.796875 0
  0.765625   0.593750 0
  1.000000   0.531250 0
  0.812500   0.718750 0
  0.859375   0.562500 0
  0.625000   0.625000 0
  0.812500   0.703125 0
  0.812500   0.906250 0
  0.578125   0.968750 0
  0.984375   0.593750 0
  0.828125   0.578125 0
  0.828125   0.781250 0
  0.593750   0.843750 0
  0.812500   0.671875 0
  0.625000   0.578125 0
  0.796875   0.671875 0
  0.562500   0.734375 0
  0.984375   0.562500 0
  0.828125   0.546875 0
  0.812500   0.640625 0
  0.750000   0.812500 0
  0.625000   0.546875 0
  0.796875   0.640625 0
  0.562500   0.703125 0
  0.828125   0.515625 0
  0.781250   0.734375 0
  0.546875   0.796875 0
  0.781250   0.531250 0
  0.750000   0.781250 0
  0.625000   0.515625 0
  0.796875   0.609375 0
  0.562500   0.671875 0
  0.765625   0.656250 0
  0.765625   0.859375 0
  0.531250   0.921875 0
  0.812500   0.578125 0
  0.562500   0.656250 0
  0.984375   0.687500 0
  0.750000   0.750000 0
  0.812500   0.562500 0
  0.812500   0.765625 0
  0.578125   0.828125 0
  0.562500   0.625000 0
  0.984375   0.656250 0
  0.750000   0.718750 0
  0.812500   0.531250 0
  0.781250   0.656250 0
  0.546875   0.718750 0
  0.781250   0.625000 0
  0.546875   0.687500 0
  0.750000   0.640625 0
  0.796875   0.531250 0
  0.562500   0.593750 0
  0.984375   0.625000 0
  0.750000   0.687500 0
  0.546875   0.984375 0
  0.609375   0.812500 0
  0.796875   0.875000 0
  0.546875   0.953125 0
  0.609375   0.578125 0
  0.843750   0.515625 0
  0.765625   0.515625 0
  0.765625   0.718750 0
  0.531250   0.781250 0
  0.984375   0.546875 0
  0.750000   0.609375 0
  0.796875   0.828125 0
  0.671875   0.968750 0
  0.796875   0.796875 0
  0.796875   0.765625 0
  0.609375   0.671875 0
  0.796875   0.734375 0
  0.546875   0.812500 0
  0.796875   0.703125 0
  0.843750   0.546875 0
  0.609375   0.609375 0
  0.796875   0.687500 0
  0.562500   0.953125 0
  0.796875   0.656250 0
  0.609375   0.562500 0
  0.796875   0.625000 0
  0.609375   0.531250 0
  0.546875   0.640625 0
  0.765625   0.671875 0
  0.531250   0.734375 0
  0.796875   0.515625 0
  0.765625   0.640625 0
  0.531250   0.703125 0
  0.703125   1.000000 0
  0.765625   0.609375 0
  0.531250   0.671875 0
  0.765625   0.578125 0
  0.531250   0.640625 0
  0.546875   0.609375 0
  0.531250   1.000000 0
  0.890625   0.593750 0
  0.656250   0.656250 0
  0.781250   0.515625 0
  0.546875   0.578125 0
  0.531250   0.968750 0
  0.890625   0.562500 0
  0.656250   0.625000 0
  0.609375   0.968750 0
  0.781250   0.859375 0
  0.656250   0.593750 0
  0.750000   0.703125 0
  0.515625   0.765625 0
  0.781250   0.812500 0
  0.781250   0.781250 0
  0.593750   0.687500 0
  0.781250   0.750000 0
  0.593750   0.656250 0
  0.781250   0.718750 0
  0.531250   0.796875 0
  0.828125   0.562500 0
  0.593750   0.625000 0
  0.781250   0.687500 0
  0.828125   0.531250 0
  0.593750   0.593750 0
  0.812500   0.625000 0
  0.578125   0.687500 0
  0.781250   0.640625 0
  0.781250   0.609375 0
  0.593750   0.515625 0
  0.515625   0.781250 0
  0.812500   0.546875 0
  0.578125   0.609375 0
  0.812500   0.515625 0
  0.578125   0.578125 0
  0.750000   0.656250 0
  0.515625   0.718750 0
  0.750000   0.625000 0
  0.515625   0.687500 0
  0.687500   0.984375 0
  0.750000   0.593750 0
  0.515625   0.656250 0
  0.531250   0.546875 0
  0.750000   0.562500 0
  0.515625   0.625000 0
  0.531250   0.515625 0
  0.984375   0.515625 0
  0.750000   0.578125 0
  0.515625   0.531250 0
  0.828125   0.796875 0
  0.640625   0.703125 0
  0.828125   0.765625 0
[...]
CELL_DATA 7648
SCALARS scalar_value float 1
LOOKUP_TABLE default
-0.000235287
-0.000301465
-5.82967e-09
5.0196e-09
-2.09107e-09
-2.58691e-09
-2.30933e-05
3.57709e-05
-2.51563e-05
-4.84533e-05
0.00433672
-0.00152945
0.00948024
-0.00367826
0.0110586
0.00604526
0.0105266
-0.00428358
-0.000108075
0.0017017
-0.00220762
-0.00155132
0.00952074
-0.0112748
0.00632836
-0.0243401
-0.0250309
-0.00499791
0.0524948
-0.00503997
-0.0764174
-0.00324672
5.29197e-10
-1.24484e-10
2.12316e-10
1.82295e-10
0.00446164
0.000142501
3.93988e-05
5.31274e-05
0.000163314
0.000175412
-0.0176136
-0.0430409
1.40976e-09
-1.58517e-09
1.5801e-09
7.12498e-09
3.78422e-10
-3.27671e-09
-1.35684e-09
1.00791e-08
1.11239e-09
6.0841e-09
-2.07371e-08
-8.5821e-09
0.000286983
0.000622607
0.00160345
-0.00104717
0.00194994
0.00198396
1.47599e-06
-5.26144e-07
-3.29685e-06
4.54868e-06
-1.2488e-06
7.87166e-07
-7.99826e-07
-1.28807e-05
4.65363e-07
6.09502e-07
6.38579e-09
-0.0021118
-0.00218183
-1.69736e-08
1.7912e-08
-1.95037e-08
-1.65172e-08
-4.37381e-09
-1.70383e-08
1.89213e-08
-2.08272e-09
1.99445e-08
-2.55795e-08
1.10485e-08
7.98984e-09
-9.29619e-06
-2.67854e-05
9.81401e-06
-3.32963e-07
-6.64325e-07
1.81864e-06
-3.18049e-07
8.74366e-07
1.7603e-06
9.47187e-07
-7.04533e-07
7.44664e-06
-6.94186e-06
-3.08441e-06
-3.17642e-07
-3.39546e-07
-3.21688e-07
0.0013066
0
0
0
-2.85275e-07
-2.9893e-08
-4.41472e-07
-1.13068e-08
9.31143e-10
-5.36801e-10
2.88477e-09
4.68547e-10
1.91095e-10
4.97847e-10
0
7.41082e-06
2.90077e-05
-2.60277e-05
3.18113e-05
1.06869e-05
-1.49735e-05
3.32901e-05
3.02498e-05
1.43031e-08
1.36068e-08
-6.25781e-08
-8.35349e-09
2.16081e-09
-6.19921e-10
1.77297e-09
5.08238e-10
0.000138404
0.000142125
-0.000162004
-0.000126662
0.000209143
7.02228e-09
-2.28085e-10
3.04625e-06
2.8802e-06
-1.13412e-05
9.51167e-05
0.000164892
-9.17861e-06
-0.00199242
0.000902182
0.00199283
2.32514e-05
-1.17642e-05
4.91112e-05
-0.000180971
8.32276e-05
-6.83391e-06
4.22984e-05
-4.36159e-06
-2.97952e-06
1.50707e-06
0.00109431
-0.000353761
0.000859522
-3.14284e-05
0.0224353
-0.000134353
-1.62746e-05
-9.86134e-05
1.16353e-05
-1.15322e-07
7.62643e-08
1.86953e-07
1.37572e-07
1.32385e-09
-5.86681e-10
1.3945e-05
8.53058e-08
8.2059e-06
-5.53277e-05
-2.89718e-06
-6.66888e-05
-0.000100894
-0.000105215
9.14582e-05
-0.000174658
2.19691e-05
-0.000118842
0.000165192
-3.26987e-05
0.000113817
-0.0115083
0.122366
4.70521e-05
-2.09907e-05
5.48988e-05
-1.65505e-05
-4.33019e-07
2.88611e-07
-3.11054e-07
-3.77593e-07
2.2769e-05
-7.67558e-05
8.83591e-05
1.22554e-05
2.43908e-10
-2.13392e-10
-2.19252e-05
9.25833e-05
7.26268e-05
-7.54936e-05
7.75518e-05
0.000918354
-0.000987488
-9.65884e-05
1.22988e-05
-6.38656e-05
7.27764e-05
2.00948e-05
4.5015e-08
1.10629e-07
1.16417e-06
1.86022e-06
-3.21932e-06
1.88806e-06
2.31772e-06
-3.53072e-06
1.27664e-06
2.40427e-06
3.76933e-06
3.50697e-05
-2.44905e-05
5.59172e-06
5.20088e-06
1.29824e-08
-7.55025e-09
9.94994e-09
6.49756e-09
3.61882e-05
-2.71496e-05
8.54571e-06
1.52109e-05
1.08857e-08
-6.09135e-09
1.09913e-08
5.229e-09
0.143527
0.164509
-3.56322e-07
2.39561e-07
4.5633e-07
9.36294e-07
4.76133e-07
5.89961e-07
3.11138e-07
8.78619e-07
-4.50354e-08
-1.52018e-06
-4.72548e-07
3.39364e-09
-1.02709e-09
2.91572e-09
8.51814e-10
-4.11912e-09
8.70711e-09
-1.02168e-08
-3.5126e-09
0
7.04119e-10
-8.54648e-10
0
-2.72286e-06
2.65459e-06
-4.58107e-06
2.35204e-06
1.32596e-06
2.88506e-06
-1.86542e-07
-0.00408512
0.00353721
0.0043447
6.09531e-06
3.13065e-05
-0.0001019
0.00010649
-6.93441e-05
7.50294e-05
4.3275e-05
4.8606e-05
-6.02358e-06
0.000100085
3.65818e-05
0.000213196
-2.56895e-05
1.27277e-05
1.57018e-05
-0.000594934
-0.000454663
0
1.6399e-08
0
0.00710222
1.06912e-05
0.00377508
0.00443647
-1.81379e-07
7.53183e-05
-0.000923017
8.09268e-05
3.49528e-06
-0.000115593
0.00682185
-2.27747e-08
4.64795e-05
-4.83989e-08
2.01942e-08
-2.30013e-08
1.73077e-09
-1.71735e-08
0.000369278
0.0139615
-8.2259e-07
-0.00281634
-0.00492126
-3.87075e-07
-3.5876e-07
-2.4856e-08
-0.00859269
-1.86623e-06
0.113954
0.000454231
-0.000281135
2.10945e-08
0.000224293
-0.0018226
0.000868116
-0.00113138
1.88671e-05
0.000875348
1.82798e-06
6.55413e-06
-2.34805e-06
-0.00294249
-1.16081e-06
-1.26132e-06
0
-2.71823e-10
-0.045435
-4.04283e-09
0.000318488
3.77706e-09
0.000218008
-4.28256e-10
-0.000111973
-0.000457425
1.92179e-05
-8.5922e-06
0.0124322
0.0597886
-0.00358367
-1.90922e-09
5.60791e-08
8.17681e-08
0.00455149
-7.06885e-07
-0.00173689
-7.63926e-06
-9.87172e-06
-4.90798e-06
0.217776
-5.70446e-06
-0.057748
-0.0941199
3.54117e-07
3.36552e-10
-8.95849e-06
2.90714e-05
-0.00152566
0.00548231
-1.19822e-07
0.00244056
5.70124e-07
-0.00469775
1.08198e-08
2.82795e-08
-7.03794e-09
-2.3934e-07
2.05648e-07
2.98907e-07
9.59603e-05
-9.1806e-05
-3.55694e-05
0.0033098
-2.44165e-07
0.000429579
-2.14266e-05
0.00104411
0.000316303
-4.18707e-07
5.11735e-07
2.42698e-05
1.3196e-08
-3.28291e-05
-4.40896e-09
9.41763e-05
3.19616e-05
-3.80715e-05
6.32316e-09
3.90326e-05
-4.03194e-06
4.46955e-09
-0.0285036
-5.33118e-07
0.167866
-4.97503e-07
-5.69754e-07
6.98179e-08
1.93025e-07
0.167106
-1.6001e-09
-7.26047e-07
-6.97333e-08
-0.00870634
8.18613e-05
-0.0001803
-1.74953e-05
-0.000134433
9.46222e-08
0
0
7.02194e-07
0.00603622
-8.69018e-05
2.37507e-07
2.13175e-10
1.88237e-08
-0.00185188
8.01079e-08
8.29591e-08
0
0.000434801
1.18632e-10
-1.02275e-05
2.55161e-05
-4.05232e-05
4.41725e-09
-8.41505e-07
1.4206e-06
7.18497e-08
-5.2994e-08
3.86505e-07
-1.74416e-05
-3.69535e-05
-0.00331936
0.00140496
7.59404e-09
-2.35454e-09
3.75717e-07
-3.11982e-05
-5.1049e-05
5.33586e-05
0.000278391
-1.29218e-08
0.000344421
-0.00628487
-6.19816e-05
-5.11522e-09
-1.10934e-08
-0.000797076
-1.96289e-08
1.12047e-08
-7.11964e-09
-1.07724e-08
8.56726e-09
-1.9151e-05
7.33495e-05
-1.71839e-05
0.000115493
0.099455
0.0221114
-8.13874e-08
-6.66183e-07
-0.00240827
-0.00038625
2.99414e-06
0.00323866
0.00463315
-0.000138352
-0.000519344
0.00789772
-0.00217354
-0.0157225
0.0106035
-0.0128499
1.07165e-08
-3.57059e-06
0.00361526
3.94867e-06
3.96714e-07
7.29844e-06
-0.00484041
3.16683e-06
-1.0374e-07
3.49157e-05
7.24571e-09
7.29569e-08
0.00474883
0.00149673
0.000491636
-2.55786e-08
5.32238e-05
0.00176942
2.13555e-09
-0.0023634
-6.71599e-07
-3.84326e-07
0.0273604
-7.71441e-07
-1.09965e-06
0.00587905
0.00979339
-2.3623e-06
-0.00759533
-0.0307971
0.00286199
-1.20443e-08
1.01972e-06
-1.81711e-05
4.83968e-10
-0.000173473
-6.32476e-08
-0.0194573
-3.58534e-05
1.89506e-06
2.08027e-08
-0.000174425
0
0.208337
0.000246563
9.10508e-05
-1.07876e-09
-5.29083e-05
-8.99e-09
-1.97845e-05
0.000128669
2.12317e-05
-6.35932e-09
-4.10456e-05
0.234949
1.32631e-06
1.68712e-05
1.04195e-08
7.01369e-09
0.00982685
2.71205e-05
-0.00112249
-9.32722e-09
-8.7941e-05
-8.19595e-07
0.0387685
0
0
0.0175571
0
6.54814e-06
-0.0314661
-9.27307e-05
-4.99788e-08
0.000825102
5.20661e-08
0.00104624
2.9562e-08
-9.76417e-05
2.88844e-05
-7.37744e-05
3.81508e-09
5.98264e-05
-2.31996e-08
0.000105449
1.99451e-09
-0.0034367
0.000432893
-4.64156e-05
2.88958e-07
1.04555e-09
-3.51353e-10
1.76225e-09
-5.58733e-06
2.97267e-10
-0.000115785
1.68255e-05
4.14021e-06
-5.84452e-10
-2.65049e-05
5.35381e-07
0
-1.27022e-09
1.49117e-05
4.94784e-09
-2.17754e-09
0
0
-6.44062e-05
2.91033e-09
7.50789e-06
8.90602e-06
-1.43694e-05
1.11301e-09
-5.68806e-05
0.000653302
-7.7181e-05
2.42449e-09
-4.60667e-05
-0.000148688
-8.29717e-05
2.10854e-07
1.21216e-07
-0.000123858
-2.77127e-06
-3.66494e-05
-2.65485e-08
0.140806
-0.0824477
0.0995257
-9.44006e-06
2.89454e-05
-3.53071e-06
-0.00231189
7.92528e-07
0.0732233
-0.00481262
2.1605e-06
-0.00747962
-0.00270172
-3.10581e-06
0.00423961
8.65998e-05
0.0104574
7.35654e-06
6.98208e-06
3.9703e-06
-2.98527e-05
-2.45124e-07
-1.11782e-05
0.0616574
8.37984e-07
0.0148308
-1.67697e-06
6.81328e-06
-5.51233e-06
-0.0179318
0.000163336
0.000130628
-4.56547e-05
-0.000152278
0.000275514
-2.07033e-06
0.00162905
-3.50893e-08
0.407387
0.000668085
-2.70394e-06
-2.42861e-05
0.00330316
1.80264e-05
-1.75041e-06
4.66124e-08
3.39762e-05
0.0454483
0.0561692
1.30175e-06
-2.01982e-06
0
-2.69016e-05
0
3.79031e-05
-4.49677e-07
2.58746e-05
-0.00131023
6.32514e-06
0.000341887
-2.42218e-07
-0.0270546
0.000338439
-1.79142e-07
0.149141
-5.48123e-09
1.66734e-07
1.69958e-07
-1.19597e-05
4.15715e-08
-1.0191e-07
5.20391e-08
7.15496e-07
-1.94692e-05
-0.000311032
-5.56839e-06
-0.00016034
0
-9.07369e-05
0.00104366
0
0.000124015
-4.9346e-07
0
0.0195463
0.000166475
-1.07958e-09
6.84646e-10
-0.000139819
2.80038e-09
-0.000173357
0.0994185
0.0143711
6.35601e-05
-0.000129305
-1.88933e-10
-0.000753366
-5.94191e-08
0.000160101
5.86566e-05
2.48357e-06
0.0142104
-1.24619e-08
0
4.78828e-05
9.70423e-05
-6.96729e-05
-6.17543e-09
-9.95626e-06
0.00913775
7.23102e-05
-3.09637e-10
-0.00146831
2.57356e-05
0.0104922
-2.46933e-09
-0.000692268
-1.98487e-05
-0.000609146
-0.000719473
2.71213e-05
-1.13041e-09
0.000317948
-3.2535e-06
3.38673e-07
4.67323e-08
-0.0102378
-3.64067e-05
1.969e-10
-1.43258e-06
-1.70227e-06
1.29687e-06
5.80164e-07
-0.01309
-0.00116764
-2.0029e-05
1.48955e-09
-5.05478e-08
-3.07553e-08
-0.000123706
1.14538e-06
-1.14271e-08
-0.000104099
3.59941e-10
2.75091e-09
0.000114456
7.6203e-08
5.80761e-06
0
0
-1.21582e-05
0.0374476
5.75954e-05
-3.27606e-05
-0.000135155
8.27466e-06
-2.14162e-09
0.000104727
0.000238715
-1.64821e-06
-2.40168e-10
-8.97773e-06
-8.12842e-09
0.000682764
-0.0446591
-8.9023e-09
0.00225919
-4.59614e-07
2.04182e-08
1.22535e-05
0
0.00407229
-2.55002e-08
-8.0041e-09
0.0721595
1.93414e-07
-0.000111658
9.0739e-05
-7.30249e-05
-3.32508e-10
1.16694e-08
0.000672281
0.000870707
8.91303e-10
-1.28396e-07
1.29515e-06
-0.000792434
2.14648e-06
1.73395e-06
0.01214
-7.23927e-05
0.000461542
0.000213363
-0.0204879
0.0047376
0.201678
-1.38781e-07
-9.93651e-06
0.00300324
-0.000129443
1.58379e-09
0
-0.00188507
1.88617e-07
0.000402688
-0.00525539
-6.68923e-06
-8.6872e-05
-0.00695715
-0.00498749
0.0675629
0.000340298
-0.000845905
-7.80032e-08
8.00434e-06
6.07248e-05
0
9.88584e-06
0.0170911
-0.000148246
0.000114299
0.00579103
-7.8941e-05
-8.31177e-10
0.291569
-0.00520505
-4.88239e-07
4.27829e-06
6.65263e-09
1.34667e-08
1.0518e-08
1.04647e-08
-1.90264e-05
2.14024e-10
0.000158908
0.00068698
4.62568e-05
-1.40371e-05
-5.89872e-08
0.0510156
0.00029909
3.04697e-08
-0.0143644
0.000837096
-0.000283209
0.000124889
6.33806e-09
1.27204e-05
-1.15382e-08
1.39756e-08
1.18122e-08
0
-0.000334065
1.06665e-08
-5.08567e-05
-0.000927784
0.022002
6.12882e-05
3.13882e-05
0.00524337
5.06199e-09
0.000270312
1.42406e-08
0.0478963
-4.17094e-06
2.89011e-09
0.00042908
4.19358e-05
-0.00048651
2.82935e-05
0.00604598
3.13339e-06
0
2.03629e-10
7.35973e-05
6.32736e-08
6.36029e-08
0.00103906
2.52578e-09
4.54696e-08
-0.00194412
1.02003e-09
-0.060384
-8.89868e-08
0.104386
-0.0198316
-9.07582e-05
-9.30192e-05
2.07739e-10
-6.22055e-05
4.05029e-05
2.97595e-05
-1.93376e-06
3.04271e-06
-0.00359872
0.249669
0.000285769
-0.000393522
1.63159e-06
0.0110877
-1.70228e-05
1.7355e-10
0.000129202
3.22182e-08
-4.04875e-08
0.000219326
-1.52154e-05
-4.02041e-08
1.03367e-08
0.00219689
0.00317108
-7.06791e-07
0.246698
3.10511e-05
0.194718
4.08692e-10
-1.86531e-10
-1.19522e-08
-2.15018e-10
0.000247027
-2.80883e-09
-7.1158e-08
0.00951898
0.00104098
0.000334585
-0.00343568
0.00425857
1.32486e-08
6.70411e-07
0.00118453
2.02962e-10
-0.0099462
0.00243505
-8.18097e-08
2.05231e-07
-1.841e-10
-1.07353e-08
-0.000126237
0.194468
5.92547e-07
2.42635e-05
0
-0.000123167
0.00541759
-2.65648e-10
3.34829e-08
-9.67532e-05
-4.09097e-08
-1.36295e-05
-3.29981e-05
0
0.000256337
7.54272e-10
0.000545184
-0.000168961
1.90842e-10
-0.000361092
-7.02505e-06
-2.62841e-08
2.01488e-10
-3.34443e-05
-0.000776
-2.11114e-05
0.0263508
0.000843089
3.90201e-10
0.000572796
-0.00031847
-7.71845e-07
9.18436e-05
0
3.47357e-05
7.87006e-07
-6.5056e-05
1.1142e-08
0.000398599
7.89787e-05
-3.02678e-05
-0.00350539
-1.69938e-07
3.18495e-09
-7.44297e-05
-1.99193e-06
-0.000297755
6.65711e-06
-0.0129859
-2.33505e-05
0.000643449
-6.47565e-05
2.34697e-06
-0.00125576
1.92048e-05
-5.19067e-09
-6.74276e-07
-1.45613e-05
0.000285419
-2.04068e-08
2.87368e-06
0.000658139
-0.000207207
-1.40332e-05
3.40988e-06
2.25633e-05
4.1945e-10
0.00221994
8.85883e-09
0.0286851
-1.07582e-06
-7.13376e-07
-1.77785e-07
-0.0128512
-0.00674924
0.018324
7.14769e-07
-3.039e-05
0.00151089
-4.32889e-06
1.00514e-08
1.60454e-10
-0.000712692
-1.65166e-07
-8.0343e-10
0.000108151
0.00109697
0.000197592
0.0469958
0.00591136
0.0972528
7.99144e-05
-0.000103745
5.55499e-05
4.26624e-05
1.42876e-05
-3.81514e-06
-0.00257397
3.60296e-06
0.000153612
-0.000353077
0.107212
-0.000998775
0
0.00180361
-3.47636e-05
2.74454e-10
-2.89996e-06
9.04513e-10
-3.91363e-05
-3.50698e-07
1.506e-10
0.000310725
0.000186236
4.10353e-05
0.000296995
5.36832e-08
1.69776e-08
-0.00489005
0.018269
0.0258656
-0.00242863
0.0120978
-0.00945015
-1.54911e-08
-3.73961e-05
0.00649181
0.00769235
0.0015125
-3.12787e-09
-7.0039e-05
4.74033e-06
8.81787e-09
0.000100051
1.85925e-08
0.000170253
0.000408866
-5.36432e-07
6.29245e-10
8.79397e-06
-0.0495408
-0.00554263
-6.10647e-06
0.0410408
-0.000680917
-0.00581031
0.00564515
-0.0065545
-0.00421395
0.000117066
0.00930038
-0.00552254
0.000180767
0.000840752
-0.000128196
1.51215e-07
-0.00026212
2.55628e-07
-0.0177278
0.000111651
0.00760438
-2.64745e-07
2.76044e-05
-5.84373e-08
-0.000108201
-0.0370423
-0.00475674
-0.00025387
0.000832473
0.00546682
0.0171296
1.28242e-07
0.0338591
-8.67597e-09
-3.90925e-09
-1.39985e-09
1.34839e-09
-0.0006919
-0.000114085
-0.0158382
-0.000527322
-0.00186792
-0.000753672
-0.000414751
-0.000775841
4.68823e-06
0.0103843
-1.06569e-08
-2.11693e-08
-1.6402e-08
0.00103603
3.38742e-09
-5.82684e-07
-3.56366e-09
2.76417e-06
-1.72128e-10
-1.06184e-09
-2.56392e-05
-0.00132106
-8.55e-09
-4.15148e-05
-1.24907e-08
-4.6696e-06
-1.26952e-08
-3.73131e-06
0.0784273
-1.50504e-10
0.0010508
-1.4477e-09
6.98122e-10
0
-0.000233982
-0.00191582
0.00243619
0
1.01297e-09
0.000674746
8.48071e-09
-2.65665e-10
0.00106293
-2.32392e-10
-0.00264652
-1.1444e-09
-0.000671698
1.18337e-09
-2.81753e-05
-3.98351e-10
-7.70895e-06
-1.9514e-08
-2.02818e-05
-1.06626e-09
7.32117e-06
0
-1.41385e-05
1.8831e-06
0.000830607
0.0766367
-0.00117963
0.184181
0.0330642
-1.72508e-07
4.87702e-07
1.87014e-07
0.00577952
1.97864e-07
-2.49262e-07
-4.1185e-07
-3.24463e-07
-0.0195535
0.00640434
-0.000184163
7.8165e-05
-0.0221772
4.35553e-07
-0.00217179
-0.00300793
9.10968e-05
0.000135595
0.10569
-4.54445e-06
2.07583e-05
0
-5.29226e-05
-3.03514e-09
1.90324e-08
2.56886e-05
-0.00179706
-7.90355e-09
-8.72445e-05
-0.00729542
0.000516175
2.48402e-05
-3.86299e-07
3.21271e-07
3.93355e-05
-0.000938613
-0.000979796
-0.000205103
0.000289529
0.000117565
1.28569e-06
3.76994e-05
1.38395e-07
-4.54619e-05
0.00477
6.11753e-05
7.7476e-06
-7.27842e-07
0.000910868
-1.7295e-10
-0.000227787
-1.37619e-08
-0.014108
-7.9386e-05
-1.0157e-09
9.43047e-05
-0.000110856
-0.000175059
-1.94735e-05
8.11904e-07
6.50859e-07
-0.00421958
3.82753e-10
7.86543e-05
1.71168e-08
8.51269e-06
-0.0232931
1.03771e-05
-4.96647e-10
0.00181412
-3.59533e-05
-2.31913e-05
0
-6.62096e-08
0.000193455
2.54311e-09
-1.06162e-06
-2.665e-05
1.40748e-05
-0.0214682
9.66896e-09
6.18818e-06
4.75568e-07
-1.67819e-06
5.08218e-07
0.000534141
5.95177e-05
0.000265567
-0.00120667
1.24144e-06
-1.15303e-06
3.06225e-06
-1.55974e-06
-4.69362e-05
0
-0.000514049
-0.000270936
0.0115009
0.0273703
0.0715694
0.0194064
1.83295e-07
0.0722442
-5.61293e-07
0.0176698
-5.8155e-07
0.0442892
0.000707836
0.0192748
-0.0126002
-0.0134923
-0.00423938
1.34917e-06
-1.2612e-06
3.03368e-07
2.00808e-10
-0.00041666
0.0016401
-1.521e-05
0.00429923
0.00256319
0.0033561
0.0122717
3.28493e-05
4.53427e-06
0.131319
1.66563e-05
-3.47642e-05
-0.000405049
-0.00110031
0
0
0
0.000153171
-0.000140036
-0.00433496
-6.38981e-09
-0.000889441
0.00468776
-0.00430016
-0.00212516
0.00660344
-4.72925e-06
-0.00111186
0.00389543
-2.87504e-05
-1.27941e-06
1.10688e-05
-0.0402753
9.48933e-05
0.000343411
-0.000639331
0
1.87349e-06
-6.1926e-07
-8.61443e-07
3.3676e-07
-2.66603e-07
-0.00581833
0.0033229
-0.00476963
-0.0035539
1.34333e-05
0.000188354
7.45605e-05
0.000449726
-0.000228166
-0.000650357
-7.56071e-07
-0.000821198
0.00265663
-0.0179416
-0.0138876
8.52296e-05
-0.000248432
-0.000202078
-5.63102e-05
0.00690443
0.0397416
3.14741e-10
1.612e-09
-1.37007e-09
1.37121e-09
2.0326e-07
4.33019e-07
6.33126e-07
0.00336035
6.70962e-07
3.1796e-07
-0.0207443
-3.97031e-07
6.55836e-07
-0.0391788
-0.000206116
1.336e-08
2.04313e-08
1.33536e-09
-1.24269e-08
5.08885e-08
0.000650738
2.44181e-08
-0.000599746
-8.47441e-05
-0.00020293
-6.48444e-05
4.78439e-05
2.33285e-05
-0.0115491
-0.0410343
-0.000307873
0.00509207
-0.00405088
-0.000246559
2.97656e-07
9.0391e-08
3.96165e-07
-7.96237e-05
-0.0333708
0.000882058
5.70636e-08
-0.000660362
0.000664992
-3.95796e-09
0.186984
3.79693e-09
3.80532e-07
-1.9137e-08
0.13638
0.00520351
0.000302609
-2.17109e-05
0.000144979
1.67768e-08
-0.000179618
-2.07364e-08
0.000174669
0.00196097
-0.000114504
0.000598955
0.000918326
-0.000376875
-9.60867e-05
-2.73397e-05
-0.00982986
3.76969e-05
-2.10331e-05
0.000802498
4.20038e-05
3.0685e-06
0.223466
-0.0217406
6.17428e-07
-0.00066397
-0.000651041
4.5713e-08
0.000516031
-0.0211834
-3.50932e-07
4.82652e-07
-2.58051e-06
-0.00464287
0.00093715
0.00419038
-9.78584e-08
0.000780626
0.000204728
0
0.0121451
-0.000368816
0.0165179
0.0608519
6.3691e-07
0.0117206
5.2837e-07
-0.00250308
4.0011e-05
-5.03958e-06
2.21494e-09
-2.38725e-05
0
0
0
9.43656e-05
4.74885e-05
-5.62087e-05
0.132705
-0.00369904
0.0487291
0.224372
0.000551423
0.0256077
0.128166
-0.000448247
-1.38453e-08
1.00702e-08
5.21715e-08
1.05825e-07
-0.000783097
1.29706e-07
2.08319e-07
1.47286e-07
3.75553e-05
-1.34614e-05
-0.00119148
-0.00246001
-8.31605e-10
-1.63498e-08
-1.95347e-09
-2.63378e-08
-2.89489e-08
-7.03991e-08
5.46179e-05
2.3718e-05
0.00256191
-0.00114019
0.00032239
-0.0127151
1.8361e-05
0.34934
0.0805629
0.274494
5.317e-06
4.95909e-05
-1.64452e-05
6.178e-07
-0.0209768
-1.28418e-06
-8.56148e-06
1.16648e-06
1.77609e-08
0.000314987
0.000351523
2.35413e-06
0.000325123
-3.56105e-08
-0.000467327
-0.000407387
-1.73025e-05
0.253635
4.39209e-05
0.000107827
2.87417e-05
-9.01269e-06
0.0166289
0.000932486
-0.00339464
0.000535899
1.93539e-10
-1.20382e-07
-1.65577e-06
-4.58374e-07
0.012402
0.00946547
0.000162811
-0.00015616
2.25381e-05
0.000627269
-2.21947e-05
0.000104575
6.48477e-06
-2.28929e-05
4.0313e-07
7.63896e-08
0.000154286
2.37489e-07
0.16742
-0.00884157
8.01228e-08
-5.65759e-08
1.77728e-07
6.80693e-09
2.0577e-08
0.0315417
-0.0317749
-0.00832343
-0.00966057
-2.15741e-06
-9.62295e-06
0.0824076
0.186993
0.18183
-0.00163715
-1.94624e-08
-9.12604e-10
1.63503e-05
-3.14116e-06
-2.53349e-05
2.03028e-05
-1.83487e-05
-7.04e-06
8.96785e-08
-3.09384e-07
1.33177e-07
-1.72184e-07
-0.0106763
0.0254382
0.02197
-0.000816698
0.00386576
-1.45529e-10
1.38342e-10
0
0.00130741
6.74991e-05
0.0103908
-0.00474573
0.000131936
0
0
0.00305929
-0.000381176
-0.00165882
0
0
-0.00164328
-0.00186196
0
-0.000482673
0.00872909
0.00234386
0.0121127
0.00229445
9.5502e-06
0.000976134
-0.000967534
0.0013675
4.18809e-06
-0.000213443
0.000445755
0.00314778
0.00202452
-0.000415464
-0.000351094
0.000129464
1.4389e-05
-7.68729e-08
0.00169144
0.00548864
1.44207e-07
-6.61133e-08
0.20238
1.81241e-06
-2.09127e-06
0.223331
-7.10947e-08
1.11986e-07
-5.33152e-08
3.0477e-07
-5.38157e-05
-0.000204505
0.000168773
-5.10253e-05
7.62993e-09
-2.05458e-08
-3.23783e-09
9.62063e-08
3.54566e-08
2.98966e-06
0.000173444
2.15185e-05
-0.000275552
7.57078e-05
0.00281774
-0.00162856
-0.000921143
-1.53458e-06
-0.000122171
8.37562e-07
-2.70021e-07
-2.2382e-06
-0.00243864
0.00616561
-5.65685e-08
0.0218852
0.0120221
-4.51985e-06
2.90547e-06
-0.000978765
2.14877e-07
-2.18227e-06
0.0129575
-0.00410645
0.0187647
0
0
0
0
0.00501948
-1.01185e-09
-1.2012e-09
-6.24595e-09
-2.2996e-09
0.000656407
6.0899e-10
2.38695e-06
7.20093e-06
-1.06619e-05
-1.40328e-06
-0.00948503
-0.0106399
0.0906487
-0.000106662
1.09275e-06
-0.000106974
6.67062e-10
2.97315e-09
-6.45379e-10
1.73152e-05
7.94539e-06
-0.000181981
-5.69258e-05
-0.000574056
-9.48239e-05
-1.22699e-05