# vtk DataFile Version 2.0
Unstructured Grid by M++
ASCII
DATASET UNSTRUCTURED_GRID
POINTS 4072 float
  0.828125   0.890625 0
  0.875000   0.531250 0
  0.828125   0.750000 0
  0.593750   0.968750 0
  0.828125   0.671875 0
  0.828125   0.875000 0
  0.593750   0.937500 0
  0.828125   0.656250 0
  0.828125   0.640625 0
  0.828125   0.843750 0
  0.593750   0.906250 0
  0.828125   0.625000 0
  0.781250   0.968750 0
  0.828125   0.609375 0
  0.828125   0.812500 0
  0.593750   0.875000 0
  0.593750   0.828125 0
  0.593750   0.796875 0
  0.828125   0.703125 0
  0.593750   0.765625 0
  0.828125   0.937500 0
  0.812500   0.875000 0
  0.859375   0.515625 0
  0.812500   0.734375 0
  0.812500   0.937500 0
  0.578125   1.000000 0
  0.578125   0.750000 0
  0.812500   0.687500 0
  0.578125   0.953125 0
  0.812500   0.656250 0
  0.812500   0.859375 0
  0.578125   0.921875 0
  0.812500   0.828125 0
  0.578125   0.890625 0
  0.812500   0.593750 0
  0.812500   0.796875 0
  0.578125   0.859375 0
  0.578125   0.812500 0
  0.578125   0.781250 0
  0.796875   1.000000 0
  0.796875   0.859375 0
  0.796875   0.718750 0
  0.562500   0.984375 0
  0.562500   0.937500 0
  0.796875   0.843750 0
  0.562500   0.906250 0
  0.796875   0.812500 0
  0.562500   0.875000 0
  0.796875   0.578125 0
  0.796875   0.781250 0
  0.562500   0.843750 0
  0.812500   0.984375 0
  0.562500   0.796875 0
  0.812500   0.953125 0
  0.562500   0.765625 0
  0.796875   0.937500 0
  0.546875   0.750000 0
  0.781250   0.984375 0
  0.828125   0.593750 0
  0.781250   0.843750 0
  0.781250   0.937500 0
  0.546875   1.000000 0
  0.781250   0.703125 0
  0.546875   0.968750 0
  0.546875   0.921875 0
  0.781250   0.828125 0
  0.546875   0.890625 0
  0.781250   0.796875 0
  0.546875   0.859375 0
  0.781250   0.562500 0
  0.781250   0.765625 0
  0.546875   0.828125 0
  0.796875   0.968750 0
  0.546875   0.781250 0
  0.765625   1.000000 0
  0.765625   0.968750 0
  0.531250   0.984375 0
  0.765625   0.687500 0
  0.531250   0.953125 0
  0.531250   0.937500 0
  0.531250   0.906250 0
  0.765625   0.812500 0
  0.531250   0.875000 0
  0.765625   0.781250 0
  0.531250   0.843750 0
  0.781250   1.000000 0
  0.765625   0.546875 0
  0.765625   0.750000 0
  0.531250   0.812500 0
  0.781250   0.953125 0
  0.531250   0.765625 0
  0.515625   0.750000 0
  0.750000   0.984375 0
  0.750000   0.953125 0
  0.796875   0.593750 0
  0.796875   0.562500 0
  0.750000   0.843750 0
  0.750000   0.937500 0
  0.515625   1.000000 0
  0.750000   0.906250 0
  0.515625   0.968750 0
  0.750000   0.671875 0
  0.750000   0.875000 0
  0.515625   0.937500 0
  0.515625   0.921875 0
  0.515625   0.890625 0
  0.750000   0.796875 0
  0.515625   0.859375 0
  0.750000   0.765625 0
  0.515625   0.828125 0
  1.000000   0.718750 0
  0.750000   0.531250 0
  0.750000   0.734375 0
  0.515625   0.796875 0
  0.734375   1.000000 0
  0.734375   0.968750 0
  0.734375   0.937500 0
  0.781250   0.578125 0
  0.781250   0.546875 0
  0.968750   0.578125 0
  0.734375   0.828125 0
  0.968750   0.546875 0
  0.734375   0.796875 0
  0.734375   0.765625 0
  0.968750   0.671875 0
  0.734375   0.734375 0
  0.968750   0.640625 0
  0.734375   0.703125 0
  0.968750   0.609375 0
  0.734375   0.671875 0
  0.734375   0.656250 0
  0.734375   0.625000 0
  0.968750   0.531250 0
  0.734375   0.593750 0
  0.984375   0.734375 0
  0.984375   0.703125 0
  0.734375   0.515625 0
  0.718750   0.984375 0
  0.718750   0.953125 0
  0.718750   0.921875 0
  0.953125   0.562500 0
  0.718750   0.812500 0
  0.953125   0.531250 0
  0.718750   0.781250 0
  0.718750   0.750000 0
  0.953125   0.656250 0
  0.718750   0.718750 0
  0.953125   0.625000 0
  0.718750   0.687500 0
  0.953125   0.593750 0
  0.718750   0.656250 0
  0.671875   1.000000 0
  0.718750   0.640625 0
  0.718750   0.609375 0
  0.953125   0.515625 0
  0.718750   0.578125 0
  0.968750   0.718750 0
  0.968750   0.687500 0
  0.953125   0.671875 0
  0.703125   0.968750 0
  0.703125   0.937500 0
  0.937500   0.656250 0
  0.703125   0.906250 0
  0.937500   0.546875 0
  0.703125   0.796875 0
  0.937500   0.515625 0
  0.703125   0.765625 0
  0.937500   0.671875 0
  0.703125   0.734375 0
  0.937500   0.640625 0
  0.703125   0.703125 0
  0.937500   0.609375 0
  0.703125   0.671875 0
  0.937500   0.578125 0
  0.703125   0.640625 0
  0.656250   0.984375 0
  0.703125   0.625000 0
  0.703125   0.593750 0
  0.718750   0.796875 0
  0.953125   0.734375 0
  0.812500   1.000000 0
  0.859375   0.656250 0
  0.703125   0.781250 0
  0.937500   0.718750 0
  0.953125   0.703125 0
  0.796875   0.984375 0
  0.843750   0.640625 0
  0.812500   0.968750 0
  0.859375   0.625000 0
  0.796875   0.953125 0
  0.843750   0.609375 0
  0.687500   0.953125 0
  0.687500   0.921875 0
  0.687500   0.890625 0
  0.921875   0.734375 0
  0.687500   0.796875 0
  0.687500   0.781250 0
  0.921875   0.703125 0
  0.687500   0.765625 0
  0.687500   0.750000 0
  0.921875   0.656250 0
  0.687500   0.718750 0
  0.921875   0.625000 0
  0.687500   0.687500 0
  0.921875   0.593750 0
  0.687500   0.656250 0
  0.640625   1.000000 0
  0.921875   0.562500 0
  0.687500   0.625000 0
  0.640625   0.968750 0
  0.687500   0.609375 0
  0.687500   0.578125 0
  0.937500   0.687500 0
  0.921875   0.671875 0
  0.671875   0.921875 0
  0.906250   0.656250 0
  0.671875   0.906250 0
  0.671875   0.875000 0
  0.906250   0.718750 0
  0.671875   0.781250 0
  0.671875   0.765625 0
  0.671875   0.734375 0
  0.906250   0.640625 0
  0.671875   0.703125 0
  0.906250   0.609375 0
  0.671875   0.671875 0
  0.906250   0.578125 0
  0.671875   0.640625 0
  0.625000   0.984375 0
  0.671875   0.609375 0
  0.625000   0.953125 0
  0.671875   0.593750 0
  0.671875   0.562500 0
  0.765625   0.953125 0
  0.812500   0.609375 0
  0.656250   1.000000 0
  0.656250   0.953125 0
  0.656250   0.906250 0
  0.890625   0.640625 0
  0.656250   0.890625 0
  0.656250   0.859375 0
  0.890625   0.734375 0
  0.656250   0.796875 0
  0.812500   0.921875 0
  0.562500   1.000000 0
  0.625000   0.828125 0
  0.812500   0.843750 0
  0.843750   0.593750 0
  0.812500   0.812500 0
  0.625000   0.718750 0
  0.828125   0.687500 0
  0.640625   0.593750 0
  0.812500   0.781250 0
  0.625000   0.687500 0
  0.765625   0.828125 0
  0.640625   0.562500 0
  0.812500   0.750000 0
  0.562500   0.828125 0
  0.781250   0.875000 0
  0.546875   0.937500 0
  0.781250   0.671875 0
  0.781250   0.593750 0
  0.546875   0.656250 0
  0.796875   0.750000 0
  0.562500   0.812500 0
  0.796875   0.546875 0
  0.765625   0.796875 0
  0.765625   0.593750 0
  1.000000   0.531250 0
  0.812500   0.718750 0
  0.859375   0.562500 0
  0.625000   0.625000 0
  0.812500   0.703125 0
  0.812500   0.906250 0
  0.578125   0.968750 0
  0.984375   0.593750 0
  0.828125   0.578125 0
  0.828125   0.781250 0
  0.593750   0.843750 0
  0.812500   0.671875 0
  0.625000   0.578125 0
  0.796875   0.671875 0
  0.562500   0.734375 0
  0.984375   0.562500 0
  0.828125   0.546875 0
  0.812500   0.640625 0
  0.750000   0.812500 0
  0.625000   0.546875 0
  0.796875   0.640625 0
  0.562500   0.703125 0
  0.828125   0.515625 0
  0.781250   0.734375 0
  0.546875   0.796875 0
  0.781250   0.531250 0
  0.750000   0.781250 0
  0.625000   0.515625 0
  0.796875   0.609375 0
  0.562500   0.671875 0
  0.765625   0.656250 0
  0.765625   0.859375 0
  0.531250   0.921875 0
  0.812500   0.578125 0
  0.562500   0.656250 0
  0.984375   0.687500 0
  0.750000   0.750000 0
  0.812500   0.562500 0
  0.812500   0.765625 0
  0.578125   0.828125 0
  0.562500   0.625000 0
  0.984375   0.656250 0
  0.750000   0.718750 0
  0.812500   0.531250 0
  0.781250   0.656250 0
  0.546875   0.718750 0
  0.781250   0.625000 0
  0.546875   0.687500 0
  0.750000   0.640625 0
  0.796875   0.531250 0
  0.562500   0.593750 0
  0.984375   0.625000 0
  0.750000   0.687500 0
  0.546875   0.984375 0
  0.609375   0.812500 0
  0.796875   0.875000 0
  0.546875   0.953125 0
  0.609375   0.578125 0
  0.843750   0.515625 0
  0.765625   0.515625 0
  0.765625   0.718750 0
  0.531250   0.781250 0
  0.984375   0.546875 0
  0.750000   0.609375 0
  0.796875   0.828125 0
  0.671875   0.968750 0
  0.796875   0.796875 0
  0.796875   0.765625 0
  0.609375   0.671875 0
  0.796875   0.734375 0
  0.546875   0.812500 0
  0.796875   0.703125 0
  0.843750   0.546875 0
  0.609375   0.609375 0
  0.796875   0.687500 0
  0.562500   0.953125 0
  0.796875   0.656250 0
  0.609375   0.562500 0
  0.796875   0.625000 0
  0.609375   0.531250 0
  0.546875   0.640625 0
  0.765625   0.671875 0
  0.531250   0.734375 0
  0.796875   0.515625 0
  0.765625   0.640625 0
  0.531250   0.703125 0
  0.703125   1.000000 0
  0.765625   0.609375 0
  0.531250   0.671875 0
  0.765625   0.578125 0
  0.531250   0.640625 0
  0.546875   0.609375 0
  0.531250   1.000000 0
  0.890625   0.593750 0
  0.656250   0.656250 0
  0.781250   0.515625 0
  0.546875   0.578125 0
  0.531250   0.968750 0
  0.890625   0.562500 0
  0.656250   0.625000 0
  0.609375   0.968750 0
  0.781250   0.859375 0
  0.656250   0.593750 0
  0.750000   0.703125 0
  0.515625   0.765625 0
  0.781250   0.812500 0
  0.781250   0.781250 0
  0.593750   0.687500 0
  0.781250   0.750000 0
  0.593750   0.656250 0
  0.781250   0.718750 0
  0.531250   0.796875 0
  0.828125   0.562500 0
  0.593750   0.625000 0
  0.781250   0.687500 0
  0.828125   0.531250 0
  0.593750   0.593750 0
  0.812500   0.625000 0
  0.578125   0.687500 0
  0.781250   0.640625 0
  0.781250   0.609375 0
  0.593750   0.515625 0
  0.515625   0.781250 0
  0.812500   0.546875 0
  0.578125   0.609375 0
  0.812500   0.515625 0
  0.578125   0.578125 0
  0.750000   0.656250 0
  0.515625   0.718750 0
  0.750000   0.625000 0
  0.515625   0.687500 0
  0.687500   0.984375 0
  0.750000   0.593750 0
  0.515625   0.656250 0
  0.531250   0.546875 0
  0.750000   0.562500 0
  0.515625   0.625000 0
  0.531250   0.515625 0
  0.984375   0.515625 0
  0.750000   0.578125 0
  0.515625   0.531250 0
  0.828125   0.796875 0
  0.640625   0.703125 0
  0.828125   0.765625 0
[...]
CELL_DATA 7648
SCALARS scalar_value float 1
LOOKUP_TABLE default
-6.52045e-05
-3.20462e-05
-4.76431e-09
4.17428e-09
-2.00479e-09
-1.85063e-09
-2.01095e-05
2.45891e-05
-1.75122e-05
-3.94817e-05
0.00264109
-0.000981054
0.00601873
-0.00222036
0.00709377
0.00386583
0.00647278
-0.00265654
0.000211239
3.7414e-05
-9.20011e-05
-0.00029094
0.00162778
-0.00268323
0.000892116
0.000651109
-0.00132001
0.000471524
0.00217437
0.000471133
-0.00291625
0.000847635
7.62253e-10
-1.3411e-10
1.12391e-09
2.04648e-10
0.00272838
0.00101968
-3.31681e-05
-0.000134205
-3.03682e-05
0.000227597
0.00542669
0.00210672
3.89964e-09
-4.89954e-09
7.25477e-09
1.67336e-08
8.81135e-09
-1.02232e-08
-1.44464e-09
1.25883e-08
2.53092e-09
2.34462e-09
-8.30334e-10
4.45537e-09
2.77426e-06
0.000179686
0.000246239
-0.000256383
0.000127347
0.000305328
1.13588e-06
-3.09903e-07
-2.64805e-06
3.3435e-06
-1.31422e-06
1.0264e-08
-7.63629e-07
-1.3172e-05
5.54331e-07
7.9237e-07
2.60988e-08
-0.000389493
-0.00175275
-1.27633e-08
1.32683e-08
-1.16979e-08
-1.22642e-08
7.90516e-10
-1.02579e-08
1.1204e-08
1.70645e-09
4.19499e-09
-7.0013e-09
2.11314e-09
1.89943e-09
7.69148e-07
1.72388e-05
6.12032e-05
-2.52066e-07
-4.91323e-07
1.37376e-06
-2.45457e-07
8.47174e-07
1.32474e-06
9.04877e-07
-5.19021e-07
5.9679e-06
-5.49666e-06
-2.65848e-06
-2.52253e-07
-2.52882e-07
-2.58086e-07
-0.000143575
0
0
0
1.51146e-07
2.66481e-08
1.405e-07
1.59672e-10
1.69238e-09
-7.41622e-10
4.25809e-09
6.35948e-10
2.07869e-10
4.70813e-10
0
6.33714e-06
2.00647e-05
-1.93993e-05
2.83342e-05
3.00857e-06
-8.081e-06
2.47715e-05
2.13815e-05
-1.23571e-08
1.10958e-09
4.03187e-08
-1.31029e-09
1.58141e-09
-5.62959e-10
1.70959e-09
4.75108e-10
5.53269e-05
0.00011969
-0.00010593
-7.96498e-05
-0.00013075
-4.26821e-10
1.5695e-10
3.03642e-06
-1.84629e-06
-2.16976e-06
5.45594e-06
-1.96303e-06
-4.14529e-06
2.18432e-05
-3.70439e-05
2.84781e-05
7.6754e-06
8.50491e-06
2.53512e-05
-1.76835e-05
-7.35271e-06
-1.63886e-05
-2.46898e-05
-1.24372e-06
-2.55628e-06
1.16083e-06
0.000610312
-9.03525e-05
0.000482229
-0.000141298
-0.00988478
-0.000141224
1.64895e-05
-0.000153707
-1.82461e-05
5.36064e-08
9.07471e-08
-3.76211e-07
-2.17603e-07
1.52921e-09
-5.58192e-10
9.39534e-06
3.01826e-06
4.48479e-06
-4.7854e-05
3.03074e-06
-5.92784e-05
-8.53165e-05
-8.84685e-05
-2.45528e-05
3.37371e-05
-6.74678e-05
-3.92175e-05
-1.12536e-05
4.19859e-05
-9.15765e-05
0.0135829
0.00371018
3.59966e-05
-1.50197e-05
4.21038e-05
-1.49628e-05
7.83712e-08
-2.12641e-07
-5.51019e-08
8.90215e-08
1.5393e-05
-5.46336e-05
6.19604e-05
7.8842e-06
7.62065e-10
-4.43623e-10
-1.43444e-05
6.58256e-05
4.20287e-05
-5.45533e-05
5.00575e-05
0.00060433
-0.00065175
-5.91747e-05
8.4338e-06
-4.945e-05
5.5229e-05
1.49205e-05
1.07973e-07
6.8999e-08
1.20778e-06
1.49661e-06
-2.0234e-06
9.12553e-07
2.67342e-06
-2.56929e-06
7.68805e-07
2.18963e-06
3.01574e-06
2.45968e-05
-1.71572e-05
3.56342e-06
3.02687e-06
7.07903e-09
-4.5322e-09
6.8409e-09
3.97548e-09
2.4886e-05
-1.90677e-05
5.10075e-06
9.38682e-06
8.14746e-09
-5.71069e-09
1.11146e-08
4.86747e-09
0.195393
0.159434
3.37604e-07
2.04408e-07
-6.0461e-08
-2.6609e-08
-5.76827e-08
-2.94193e-07
-4.0152e-08
-4.46363e-07
-2.70853e-07
5.84373e-08
3.04519e-07
1.63501e-09
-5.26437e-10
1.58657e-09
4.39858e-10
-1.96139e-09
4.21715e-09
-4.8914e-09
-1.87505e-09
0
4.44765e-10
-5.29431e-10
0
-2.19004e-06
3.06011e-06
-4.67865e-07
-1.23959e-07
7.97183e-07
-3.27011e-07
-1.80184e-07
-2.2465e-05
-9.47855e-05
0.000169346
1.00609e-05
2.46599e-05
5.05554e-05
-2.69198e-05
1.7257e-05
8.12123e-05
-4.52733e-05
-3.13217e-05
1.09058e-05
2.95511e-05
5.01599e-05
-1.55631e-05
6.10541e-06
-2.53774e-07
9.96042e-06
-0.000407232
-0.000296271
0
1.52363e-08
0
0.000693816
-8.03145e-06
0.00244422
0.0029052
-9.71478e-07
9.88977e-06
-0.000618158
1.40466e-05
1.07613e-06
-7.46154e-05
0.00305971
-7.55424e-08
6.80651e-05
3.21162e-08
-2.46759e-08
-1.72653e-08
6.85375e-10
-1.0095e-09
0.000273273
0.00126929
-6.96472e-07
-0.00033454
-0.00108708
2.27755e-09
2.13239e-07
-9.59795e-09
-0.00086554
1.97497e-06
0.00328809
-4.46745e-05
1.12477e-05
7.93244e-09
0.000172282
-0.00126118
0.000587378
-0.00076298
1.59165e-05
0.000589745
-5.1397e-06
-7.53534e-06
1.60783e-07
-0.00676244
-1.53569e-06
6.50137e-07
-9.87762e-10
-5.01249e-10
0.0116385
-4.76966e-09
0.000237926
-4.43427e-08
0.000168901
-5.67152e-10
-9.0564e-05
0.000206983
-5.80528e-06
1.77923e-05
0.00765708
-0.0109391
-2.20257e-05
-1.82528e-07
5.49763e-07
7.36663e-08
0.00103845
7.15639e-07
-9.37208e-05
2.45977e-07
3.33503e-06
-6.94809e-07
0.00705255
-1.63834e-06
-0.000490654
-0.0014797
1.42557e-07
3.36071e-10
-9.24824e-06
-2.01191e-05
-0.000450385
0.000867852
-2.402e-07
0.000123528
-3.84391e-07
-0.000144857
2.4672e-08
1.21324e-08
5.55293e-09
-3.87636e-08
1.99167e-08
3.95959e-08
2.46263e-06
4.05344e-06
-4.02937e-06
8.71677e-05
-4.01847e-08
-2.13291e-05
2.39389e-05
2.22485e-05
-8.24074e-05
-2.50386e-07
-1.39446e-07
1.54088e-05
1.73857e-08
-2.35037e-05
-7.27043e-09
-4.78103e-05
2.15855e-05
-3.09993e-05
2.30863e-08
2.75229e-05
-3.41674e-06
6.01097e-09
6.56458e-05
2.26518e-07
0.159942
5.31817e-08
7.54932e-08
2.74606e-08
-7.9889e-09
0.128295
-1.88451e-09
1.10323e-06
6.15819e-08
-0.0114778
-1.79932e-05
-0.000232943
-2.98629e-05
-6.37498e-05
2.26721e-07
0
0
3.50647e-07
-0.00438947
-6.07169e-05
-4.88146e-09
-1.94233e-10
1.15936e-07
5.07988e-06
5.44081e-08
-2.79029e-07
0
-3.86375e-05
0
1.99481e-05
-1.67229e-05
-1.30832e-05
6.00816e-09
-4.71343e-07
4.12641e-07
-6.47883e-09
3.78321e-08
-1.41007e-07
5.82626e-08
1.01028e-05
0.000987905
0.000125905
-1.08772e-08
-3.88917e-08
-2.02328e-06
-2.19547e-05
-4.14335e-05
-0.000150075
-2.25253e-05
-1.301e-08
-2.05071e-05
-0.00551774
1.44611e-05
-5.24442e-09
-4.25919e-09
3.32108e-05
-1.4039e-08
5.43363e-09
-5.18028e-09
-7.27197e-09
6.09322e-09
-2.62624e-05
5.12292e-05
-1.20429e-05
-0.000146321
-0.00402425
-0.00667378
2.71695e-09
8.27717e-07
0.000658406
0.000627869
2.89995e-06
-0.00127631
-0.0014114
4.72299e-05
-0.000193125
0.000161813
0.000131118
-0.00579521
0.00260014
0.00394094
6.08412e-09
2.44781e-06
-0.00174883
-7.83404e-06
6.14891e-06
1.89718e-06
-0.000878083
2.43063e-06
9.48074e-09
1.93403e-05
7.75969e-09
4.10388e-08
0.0031493
0.000861169
4.54652e-05
-2.27913e-08
1.65615e-05
3.34569e-05
-3.70202e-08
0.000117461
3.78357e-07
9.54679e-08
0.00425419
4.73757e-07
-3.18182e-07
-0.000205193
-0.011295
5.51666e-06
0.00116396
0.000420978
0.00295257
4.53804e-09
9.93749e-07
-1.10896e-05
3.02222e-10
1.11621e-05
-3.42211e-08
0.017016
-7.47791e-06
1.50807e-06
6.47197e-09
1.7572e-05
-2.03685e-09
0.0862672
1.27109e-05
-2.08598e-05
-1.06708e-10
-1.37509e-05
7.7575e-10
-1.88756e-05
-2.15542e-05
2.92772e-05
-5.76961e-09
-3.4057e-05
0.0425294
3.0838e-06
1.20985e-05
9.45333e-09
4.50141e-09
0.000167829
-9.80126e-06
-0.000755562
-3.68222e-09
-7.46976e-05
-3.24504e-07
-0.00411281
0
0
0.000290649
0
-2.63112e-06
0.000136801
2.23767e-05
-8.53738e-09
3.94727e-05
-2.11885e-08
0.000514252
1.96711e-08
6.08604e-05
-0.000137077
5.57718e-05
-2.26525e-09
-0.0001394
-1.12681e-08
-2.69245e-05
7.24349e-09
-0.0029657
8.82025e-05
0.000175419
3.78155e-08
8.31687e-10
-2.48362e-10
1.1949e-09
-2.52232e-05
2.10959e-10
-1.71992e-06
1.10784e-05
-1.49731e-06
-3.61459e-10
-1.20549e-06
1.86061e-05
0
-1.01337e-09
1.79383e-06
3.79698e-09
-1.47023e-09
0
0
-6.55209e-05
2.71277e-09
-3.66572e-06
7.28069e-06
-1.16131e-05
2.37028e-09
6.06007e-05
6.59401e-06
6.39796e-06
5.25204e-10
6.87801e-05
-4.90007e-05
1.88625e-05
5.57881e-08
2.95108e-08
-9.29301e-05
9.46905e-06
-3.03129e-05
-8.31014e-09
0.00159296
-0.00227023
-1.36858e-06
7.66239e-07
2.10954e-05
-2.82591e-05
-0.000874689
7.44373e-07
0.00620592
-0.00138429
-2.79851e-06
-0.00281511
0.000471093
1.50103e-06
0.000270182
5.66932e-05
-5.52615e-05
-7.78602e-06
-4.9961e-06
8.2613e-07
-1.4461e-05
-1.86568e-07
2.59437e-05
-0.0142364
-5.53459e-07
-0.0195281
6.37437e-07
3.92032e-07
-0.00252519
0.00467862
-1.02944e-05
-1.68965e-05
1.12496e-05
-0.00011568
-1.5334e-05
-1.60785e-06
-0.000270337
-1.83808e-07
-0.00290878
7.72108e-05
-1.98849e-06
5.46293e-05
-0.000607143
1.39432e-05
-1.93368e-06
1.49553e-07
-6.61775e-05
-0.0309674
-0.0350235
9.62527e-07
-1.70385e-06
0
7.00918e-06
0
3.19453e-05
9.54726e-08
4.68887e-05
-8.06184e-05
-1.28404e-06
-6.12119e-05
-9.25703e-08
-0.00395329
-5.93209e-05
-3.73702e-08
0.0220501
-4.55949e-09
-3.2477e-08
1.91104e-08
3.7225e-05
9.13558e-08
-2.46543e-07
-8.79665e-08
7.41855e-07
-2.39908e-05
-1.06042e-05
2.08328e-05
-1.93756e-05
0
5.45062e-05
4.31378e-05
0
-3.92032e-05
-1.23525e-07
1.00677e-10
-0.00045373
-0.000136224
-1.27291e-10
3.78226e-10
9.26723e-06
2.61973e-09
-3.24202e-05
0.0124217
-0.000155312
5.3662e-05
1.19681e-05
-6.13436e-10
-0.0002356
-6.03309e-10
-0.000169153
-4.72564e-06
0.000211587
0.0102886
-8.90956e-09
0
1.19778e-05
-1.25168e-05
-3.51634e-06
-4.75093e-09
2.78775e-05
-0.0143679
5.14382e-05
3.81202e-09
-3.02077e-05
3.216e-06
0.000391871
-2.92813e-09
-5.60245e-05
2.30504e-06
-9.8217e-05
-0.000221848
4.61953e-07
-1.54078e-09
1.45259e-05
-2.39945e-06
1.55876e-08
-4.24e-08
-0.00173416
1.80035e-05
4.97077e-10
-2.19105e-06
-1.60254e-05
1.16441e-06
7.89041e-07
-0.00223799
0.00100987
-2.30668e-05
1.93756e-09
-1.03632e-08
-6.60096e-10
8.33159e-05
1.90535e-06
-1.85163e-08
-2.55814e-05
3.32833e-10
-7.98223e-09
1.4828e-05
4.99986e-08
-8.84028e-06
0
0
-9.50965e-06
-0.0131709
4.11111e-05
-8.13596e-06
-0.000110581
6.69566e-06
-4.5036e-10
-2.39999e-05
0.00015239
-1.17434e-06
1.59826e-10
-2.73502e-05
0
2.41673e-06
-0.000764104
-6.29759e-09
-0.000989973
1.93924e-07
2.97853e-09
0.000209831
-8.3348e-10
0.00121694
-5.55857e-09
-1.23665e-09
0.00141305
2.36668e-07
3.21761e-06
-2.551e-05
-5.19253e-05
4.74738e-09
1.20996e-08
3.00037e-07
0.000581386
6.67661e-09
-1.9307e-08
7.60324e-07
5.84853e-05
5.1266e-07
1.41613e-06
-0.000144661
-0.000101785
-4.37799e-05
-2.63192e-05
0.00125343
0.00318485
0.0478848
-4.2924e-07
-1.06497e-05
-0.000356881
-9.00258e-05
1.76097e-09
0
0.000403105
-1.87023e-07
-3.59534e-05
-0.00039372
4.89002e-05
1.37002e-05
-8.23107e-05
-0.000147698
0.00457787
2.12896e-05
-0.000472721
-6.00999e-08
7.21196e-06
4.57611e-05
0
-2.59284e-06
0.00406821
-6.04975e-05
5.17737e-05
-0.00149587
8.6529e-06
-4.54546e-10
-0.0020385
0.00171495
3.6898e-07
2.70014e-05
1.29329e-08
6.30719e-10
0
1.65131e-08
-2.62084e-05
0
-8.31961e-05
8.15801e-05
-6.88865e-06
-7.88297e-05
-3.70031e-08
-0.000796761
-5.95155e-05
1.99509e-08
-0.00812071
0.000292179
-3.88941e-05
0.000104955
7.2574e-09
2.19053e-05
-5.45186e-09
1.03576e-08
7.28699e-09
1.00675e-10
-3.13103e-05
2.98835e-09
-3.66118e-05
-0.000449721
-0.00918481
4.28204e-05
2.33236e-05
-0.00128206
9.80464e-09
-2.08915e-05
1.62719e-08
0.00500232
-2.39608e-06
-4.44439e-10
-0.000395229
3.87177e-05
-0.000171027
2.27347e-05
-0.00150653
-1.61379e-07
0
0
1.301e-05
-3.59447e-08
1.03359e-06
2.90138e-05
1.47383e-09
-3.70586e-08
0.000333897
1.42572e-08
-0.00154294
7.83809e-08
0.00762679
-0.000406467
3.57644e-05
-9.2281e-05
4.28227e-10
-5.14042e-05
3.52139e-05
1.88265e-05
-3.25435e-07
6.74973e-07
0.00152483
0.0327901
0.00023087
-9.28273e-05
1.25469e-06
0.00611481
-5.56903e-05
0
2.33774e-06
-3.09918e-09
2.63376e-09
-4.35169e-05
-1.13346e-05
-1.82253e-09
1.45318e-09
0.000193858
-0.000426863
3.225e-09
-0.0290084
7.42791e-05
0.00449269
-1.20976e-10
-7.41464e-10
-1.79866e-08
-2.34824e-10
-0.000467661
-8.5758e-09
1.10636e-08
0.000617698
2.39918e-05
-3.10786e-06
0.00121878
0.000921298
1.00381e-09
1.29906e-06
-0.000246032
0
-0.00104069
0.00107227
-2.21343e-07
-2.99173e-07
4.21541e-09
-5.7475e-09
1.97364e-06
0.086153
-3.52969e-07
1.19284e-05
0
0.000162631
0.00151774
3.83649e-10
9.63962e-08
2.5315e-05
-2.68199e-09
0.000167492
-2.37502e-05
0
-4.12313e-05
5.09174e-10
1.23608e-05
0.000438488
0
-2.74985e-05
-3.45932e-06
-1.78352e-08
0
-2.53918e-06
-0.000162165
-5.98228e-06
-0.0431883
2.23231e-05
2.44998e-09
0.000137862
-0.000171366
8.76556e-07
2.23295e-06
0
2.6187e-05
2.28016e-06
0.000194318
-1.1318e-08
9.70118e-05
-1.43346e-05
1.39851e-05
0.00928758
-3.28313e-07
1.62174e-09
-5.32667e-05
-1.94225e-06
2.78436e-05
-2.7376e-05
-0.00915915
-6.11175e-06
-1.51427e-05
-5.25513e-05
-9.38817e-06
-8.31127e-05
3.1632e-05
7.27569e-09
3.15764e-05
2.42096e-05
-6.53103e-06
-9.82728e-09
1.68641e-06
-2.89769e-05
0.00010671
-1.26856e-05
2.83669e-07
-1.6689e-05
5.11579e-10
0.000825787
1.80588e-08
0.00475404
-1.0264e-06
1.33194e-07
7.12615e-07
0.000858954
-0.000606064
0.0106159
2.09265e-08
5.49481e-05
6.30445e-05
-2.53265e-06
1.46993e-08
-1.72433e-10
-0.000181976
-5.29437e-08
-6.1259e-09
-8.36508e-05
8.26741e-05
9.53492e-06
0.00549451
2.35445e-06
0.0149497
2.24061e-06
-6.16e-05
-3.09487e-05
5.02653e-05
3.63219e-05
-8.06594e-07
-0.00196926
2.48093e-06
7.07722e-05
-0.000237264
0.0067937
-4.92216e-05
-1.02057e-10
0.00312704
-2.22258e-05
-1.53079e-10
3.0837e-06
0
-2.00628e-05
7.68778e-08
1.23201e-10
-0.00095216
0.000210403
8.4687e-06
7.26635e-05
-3.12089e-07
1.02441e-08
-0.0010321
0.00144327
-0.00050352
-0.000186018
0.00015198
-4.47583e-05
-1.81691e-08
4.59043e-05
-8.73485e-05
0.00020336
-8.21412e-05
-1.80931e-09
2.76391e-05
6.48588e-07
4.7637e-09
-1.68171e-05
9.42198e-09
-1.22261e-05
-6.23852e-05
-5.40385e-07
3.81226e-10
7.04685e-06
-0.000251081
0.0023082
1.19939e-06
0.000982656
-0.00012552
-0.00278012
5.11409e-05
0.000122588
-5.34638e-08
8.99409e-05
-0.000188755
0.000211625
-8.10809e-06
-1.55859e-05
2.37473e-06
3.41527e-07
7.46344e-05
-2.23163e-07
-0.00441078
-7.21875e-05
-0.00304167
-1.80779e-07
2.22712e-05
-1.01695e-08
-8.829e-05
0.000904823
-0.000349972
0.000227963
-3.67723e-06
-3.9157e-05
0.000530639
7.00477e-08
-0.000986527
-5.54418e-09
-1.97169e-09
-1.54079e-08
1.34584e-08
-0.000124604
7.15808e-05
-0.0026474
-4.84744e-05
8.09977e-05
-0.000229477
5.37216e-05
-0.000189058
-5.6609e-06
0.00068726
-5.12858e-10
2.35837e-08
1.22099e-09
6.73191e-05
1.05693e-08
8.38703e-08
-5.4433e-09
-5.0587e-06
-7.90218e-10
-2.03827e-09
-7.82992e-07
-0.000403804
-1.72391e-08
4.63857e-05
-6.30942e-09
-0.000140965
-1.16443e-08
1.78831e-07
-0.0128439
-2.17428e-09
-0.000102377
-1.77801e-08
1.50849e-08
-1.67302e-09
-0.00038649
0.000145062
-0.000323241
-9.63425e-09
-1.1174e-09
-3.59572e-05
-2.32529e-08
-9.35142e-10
-0.000579823
-1.92271e-09
-0.000688855
-8.04939e-09
-0.000692812
8.66506e-09
-2.33289e-05
-3.56129e-10
4.09381e-06
4.65001e-10
-1.702e-05
0
5.88289e-06
0
-1.16484e-05
6.44806e-07
-2.88169e-05
-0.00129768
0.000512294
0.033638
0.00530982
-5.52087e-07
-5.70124e-07
8.61206e-07
0.00215683
4.90799e-07
4.11168e-07
5.27155e-07
-5.67211e-08
-0.00730954
-0.000213565
-7.88623e-06
-2.26487e-05
0.00364313
-1.96802e-07
-0.00301519
-1.76373e-05
7.8018e-07
-2.00449e-05
0.000740144
-1.00732e-05
5.14103e-05
3.67309e-10
-4.26212e-05
2.84679e-09
6.77936e-09
0.000175107
-0.00117149
-9.23614e-09
-4.19252e-05
0.00155875
0.000125773
1.09637e-05
9.72268e-08
-4.37138e-07
-0.000323167
-8.65582e-05
-0.000319434
3.24797e-05
-6.45131e-05
-7.63663e-05
7.81281e-07
3.98966e-05
7.52886e-08
-2.20243e-06
0.000170122
-2.26119e-05
1.33862e-06
-1.31276e-07
-0.000432897
-1.4093e-10
-0.000143313
-7.53938e-09
0.000431823
1.43731e-05
-5.10357e-10
-2.20284e-05
2.307e-05
6.13536e-06
8.7397e-06
9.81598e-07
8.22689e-07
-0.0026053
4.7146e-10
-9.64667e-05
8.18373e-09
6.91152e-07
0.000500045
-1.40604e-06
-6.08508e-10
-0.000358838
-0.000280449
-1.32038e-05
0
-1.82236e-07
0.000127859
2.04469e-09
-2.04161e-07
-0.000126952
-3.16022e-07
-0.014543
4.61123e-09
9.12426e-07
-1.12445e-07
-9.26968e-08
-1.95868e-07
-2.6972e-05
-2.43962e-05
-6.04763e-06
-2.64405e-05
9.4739e-07
-7.98872e-07
2.37192e-06
-1.23657e-06
-3.97655e-05
0
-8.97085e-05
-5.35064e-05
0.00417261
0.00761813
0.0364769
0.00638801
-3.77763e-08
-0.00594203
1.2138e-07
-0.0162168
1.03166e-07
-0.000874048
4.87915e-05
0.000337267
-0.00112528
0.00021017
-0.000956119
3.97323e-09
9.96744e-08
-3.1725e-07
8.32613e-10
-0.00119883
-0.00018183
1.22295e-05
-0.0014157
9.14646e-05
7.18711e-05
-4.46449e-05
2.66619e-05
4.57524e-06
0.000743442
1.31889e-05
-2.86872e-05
0.00155492
-0.00066157
0
0
0
2.13049e-05
-6.47547e-05
-0.00520401
-1.28024e-08
-0.000498471
0.00298604
-0.00267274
-0.0012258
-0.00763748
9.47468e-07
-0.00134198
-0.00121358
7.85262e-06
-1.05607e-06
8.80088e-06
0.0134952
0.000197076
8.05917e-05
-0.00026219
0
5.82844e-07
-1.12738e-06
-7.99528e-08
1.28651e-08
-1.54597e-07
-0.000151307
-0.000492998
0.00018933
-0.000167206
1.02303e-05
5.50579e-05
-0.000748761
0.00102347
-0.00131995
-0.000505164
-4.43448e-06
-0.00131354
0.00186378
0.0042924
-0.0142204
0.000182325
2.5074e-05
-0.000106791
1.27156e-05
0.00138184
-0.00378608
1.09942e-08
1.56132e-08
-1.37711e-08
1.1806e-08
2.74562e-07
4.09369e-07
4.63441e-07
0.000718003
2.607e-07
1.78707e-07
-0.00195387
-3.04883e-07
3.92034e-07
0.000572847
-0.000424148
2.21583e-09
6.77998e-09
-1.92584e-08
-4.3451e-08
1.23388e-07
0.000426615
-1.3388e-08
-0.000241649
5.67179e-06
5.02273e-06
1.79201e-05
-1.39865e-05
-1.88792e-05
0.000677659
0.0189812
0.000792202
0.00279052
-0.00256033
-0.000112105
-5.58517e-08
1.71321e-07
1.65721e-08
-7.46521e-05
0.000175291
0.00065887
-4.52116e-08
-0.000262526
0.000507822
-3.39846e-09
0.00731127
8.62535e-09
3.92833e-07
2.52374e-09
0.00159181
0.00118751
-0.0003026
-1.85428e-05
-6.07079e-05
9.09894e-09
-5.99028e-05
-1.04461e-08
-7.09404e-05
-0.0011129
0.00092715
-0.000639199
-0.000936743
-5.89052e-05
-7.682e-05
-7.331e-07
0.0286947
1.49223e-06
-7.16008e-05
0.00012151
-2.39089e-05
-3.54821e-05
0.01742
-0.00127551
6.60603e-07
1.76267e-05
-1.93962e-05
-2.57674e-08
-4.03428e-05
0.000107424
6.22517e-08
-9.96374e-08
-8.65541e-07
0.00519133
-9.20108e-05
1.03779e-05
1.82912e-07
8.1711e-06
-4.10904e-05
0
0.00790195
0.000212265
0.0150035
0.0465506
3.74818e-08
0.000820343
-2.65691e-08
0.00567358
3.03646e-05
-2.89089e-06
2.68151e-09
2.60447e-06
0
0
0
4.3306e-05
-1.54498e-06
-0.000149049
0.00246429
0.00115602
0.00527502
0.00621578
1.19756e-05
-8.20619e-05
-0.0426287
-4.13832e-05
1.15176e-08
-8.55756e-07
-3.23487e-07
-7.28574e-07
2.20738e-05
-1.12646e-07
9.02306e-09
-7.25441e-08
6.5812e-05
-0.000165159
-6.61036e-06
-0.00149721
3.5004e-09
-1.56404e-08
4.89785e-09
2.19985e-08
7.72847e-09
1.29e-08
3.4604e-05
1.10871e-05
0.000312016
-0.00172649
0.000373993
0.0104974
-3.65302e-06
-0.00277012
-0.00582596
-0.0132266
-1.0113e-05
2.53381e-05
-8.39937e-06
-5.79492e-06
0.00245131
-1.81589e-06
4.02699e-06
8.47612e-07
6.67347e-10
0.000759797
0.000165703
-1.8047e-06
0.000177366
8.02297e-08
7.62087e-06
-4.22903e-06
-8.54678e-06
0.022127
-1.97864e-05
-3.29794e-05
-4.93633e-06
-7.13767e-06
0.00571783
2.07503e-05
0.00544571
0.000266632
-1.82873e-10
-2.18628e-06
6.038e-07
-1.48667e-06
0.000177398
-0.000517543
0.000448914
-6.01193e-05
-1.5067e-05
-0.000348756
4.76956e-05
-2.54293e-05
1.49871e-06
-1.3556e-05
-4.33496e-07
1.67032e-06
-5.46359e-05
-1.9056e-07
0.0122555
-0.00167307
-6.18228e-08
-1.40894e-07
-3.37741e-07
8.63556e-10
8.36431e-09
0.000771516
3.60799e-05
-0.00119806
-0.000252993
-1.90248e-06
-7.72436e-06
-0.00509355
0.121856
0.108225
-8.36166e-05
1.804e-08
-1.44814e-09
-3.83925e-05
2.35223e-06
-1.07218e-05
-4.66663e-05
-1.52035e-05
-5.59492e-06
4.46688e-08
-1.55757e-08
5.09373e-09
-2.5612e-08
0.0172625
-9.68663e-05
-0.00830372
-1.05597e-05
-0.00257736
-2.06137e-10
1.92249e-10
0
0.00070472
4.1386e-05
0.00349314
-0.00269121
0.000111605
0
0
-0.00406468
-6.32064e-05
-0.00142187
0
-4.3073e-10
-0.00118103
-0.00124673
0
9.16908e-06
-0.000274826
-0.00131223
0.000172514
3.28248e-05
8.96403e-06
3.12462e-05
-5.60408e-05
0.00075929
2.44295e-06
7.36248e-05
-6.07196e-05
2.0704e-05
-0.00410554
4.26101e-05
2.85218e-05
-1.20715e-05
0.000165894
-1.88577e-09
0.000188349
-0.000838839
1.81819e-08
-2.19229e-08
0.0652615
-8.02039e-07
-1.94563e-06
0.0594418
1.87602e-07
-6.56979e-08
5.56554e-08
-2.029e-08
-1.53969e-05
4.72192e-05
-2.60207e-05
4.65352e-05
6.17206e-09
-3.70699e-07
-2.3943e-08
-2.24186e-08
3.13885e-09
0.000119532
-2.096e-05
-7.79808e-05
3.43961e-05
-3.77794e-06
3.88549e-05
-2.48128e-05
-0.000489127
2.01583e-06
-0.000945994
5.64616e-07
9.23996e-07
5.27522e-07
0.000101421
5.43234e-05
1.32217e-08
-0.000444454
-0.0186539
-2.88342e-06
2.48378e-06
0.00143831
1.32582e-08
-2.35564e-07
0.00589249
-0.00258257
0.000603295
0
0
0
0