# vtk DataFile Version 2.0
Unstructured Grid by M++
ASCII
DATASET UNSTRUCTURED_GRID
POINTS 4072 float
  0.828125   0.890625 0
  0.875000   0.531250 0
  0.828125   0.750000 0
  0.593750   0.968750 0
  0.828125   0.671875 0
  0.828125   0.875000 0
  0.593750   0.937500 0
  0.828125   0.656250 0
  0.828125   0.640625 0
  0.828125   0.843750 0
  0.593750   0.906250 0
  0.828125   0.625000 0
  0.781250   0.968750 0
  0.828125   0.609375 0
  0.828125   0.812500 0
  0.593750   0.875000 0
  0.593750   0.828125 0
  0.593750   0.796875 0
  0.828125   0.703125 0
  0.593750   0.765625 0
  0.828125   0.937500 0
  0.812500   0.875000 0
  0.859375   0.515625 0
  0.812500   0.734375 0
  0.812500   0.937500 0
  0.578125   1.000000 0
  0.578125   0.750000 0
  0.812500   0.687500 0
  0.578125   0.953125 0
  0.812500   0.656250 0
  0.812500   0.859375 0
  0.578125   0.921875 0
  0.812500   0.828125 0
  0.578125   0.890625 0
  0.812500   0.593750 0
  0.812500   0.796875 0
  0.578125   0.859375 0
  0.578125   0.812500 0
  0.578125   0.781250 0
  0.796875   1.000000 0
  0.796875   0.859375 0
  0.796875   0.718750 0
  0.562500   0.984375 0
  0.562500   0.937500 0
  0.796875   0.843750 0
  0.562500   0.906250 0
  0.796875   0.812500 0
  0.562500   0.875000 0
  0.796875   0.578125 0
  0.796875   0.781250 0
  0.562500   0.843750 0
  0.812500   0.984375 0
  0.562500   0.796875 0
  0.812500   0.953125 0
  0.562500   0.765625 0
  0.796875   0.937500 0
  0.546875   0.750000 0
  0.781250   0.984375 0
  0.828125   0.593750 0
  0.781250   0.843750 0
  0.781250   0.937500 0
  0.546875   1.000000 0
  0.781250   0.703125 0
  0.546875   0.968750 0
  0.546875   0.921875 0
  0.781250   0.828125 0
  0.546875   0.890625 0
  0.781250   0.796875 0
  0.546875   0.859375 0
  0.781250   0.562500 0
  0.781250   0.765625 0
  0.546875   0.828125 0
  0.796875   0.968750 0
  0.546875   0.781250 0
  0.765625   1.000000 0
  0.765625   0.968750 0
  0.531250   0.984375 0
  0.765625   0.687500 0
  0.531250   0.953125 0
  0.531250   0.937500 0
  0.531250   0.906250 0
  0.765625   0.812500 0
  0.531250   0.875000 0
  0.765625   0.781250 0
  0.531250   0.843750 0
  0.781250   1.000000 0
  0.765625   0.546875 0
  0.765625   0.750000 0
  0.531250   0.812500 0
  0.781250   0.953125 0
  0.531250   0.765625 0
  0.515625   0.750000 0
  0.750000   0.984375 0
  0.750000   0.953125 0
  0.796875   0.593750 0
  0.796875   0.562500 0
  0.750000   0.843750 0
  0.750000   0.937500 0
  0.515625   1.000000 0
  0.750000   0.906250 0
  0.515625   0.968750 0
  0.750000   0.671875 0
  0.750000   0.875000 0
  0.515625   0.937500 0
  0.515625   0.921875 0
  0.515625   0.890625 0
  0.750000   0.796875 0
  0.515625   0.859375 0
  0.750000   0.765625 0
  0.515625   0.828125 0
  1.000000   0.718750 0
  0.750000   0.531250 0
  0.750000   0.734375 0
  0.515625   0.796875 0
  0.734375   1.000000 0
  0.734375   0.968750 0
  0.734375   0.937500 0
  0.781250   0.578125 0
  0.781250   0.546875 0
  0.968750   0.578125 0
  0.734375   0.828125 0
  0.968750   0.546875 0
  0.734375   0.796875 0
  0.734375   0.765625 0
  0.968750   0.671875 0
  0.734375   0.734375 0
  0.968750   0.640625 0
  0.734375   0.703125 0
  0.968750   0.609375 0
  0.734375   0.671875 0
  0.734375   0.656250 0
  0.734375   0.625000 0
  0.968750   0.531250 0
  0.734375   0.593750 0
  0.984375   0.734375 0
  0.984375   0.703125 0
  0.734375   0.515625 0
  0.718750   0.984375 0
  0.718750   0.953125 0
  0.718750   0.921875 0
  0.953125   0.562500 0
  0.718750   0.812500 0
  0.953125   0.531250 0
  0.718750   0.781250 0
  0.718750   0.750000 0
  0.953125   0.656250 0
  0.718750   0.718750 0
  0.953125   0.625000 0
  0.718750   0.687500 0
  0.953125   0.593750 0
  0.718750   0.656250 0
  0.671875   1.000000 0
  0.718750   0.640625 0
  0.718750   0.609375 0
  0.953125   0.515625 0
  0.718750   0.578125 0
  0.968750   0.718750 0
  0.968750   0.687500 0
  0.953125   0.671875 0
  0.703125   0.968750 0
  0.703125   0.937500 0
  0.937500   0.656250 0
  0.703125   0.906250 0
  0.937500   0.546875 0
  0.703125   0.796875 0
  0.937500   0.515625 0
  0.703125   0.765625 0
  0.937500   0.671875 0
  0.703125   0.734375 0
  0.937500   0.640625 0
  0.703125   0.703125 0
  0.937500   0.609375 0
  0.703125   0.671875 0
  0.937500   0.578125 0
  0.703125   0.640625 0
  0.656250   0.984375 0
  0.703125   0.625000 0
  0.703125   0.593750 0
  0.718750   0.796875 0
  0.953125   0.734375 0
  0.812500   1.000000 0
  0.859375   0.656250 0
  0.703125   0.781250 0
  0.937500   0.718750 0
  0.953125   0.703125 0
  0.796875   0.984375 0
  0.843750   0.640625 0
  0.812500   0.968750 0
  0.859375   0.625000 0
  0.796875   0.953125 0
  0.843750   0.609375 0
  0.687500   0.953125 0
  0.687500   0.921875 0
  0.687500   0.890625 0
  0.921875   0.734375 0
  0.687500   0.796875 0
  0.687500   0.781250 0
  0.921875   0.703125 0
  0.687500   0.765625 0
  0.687500   0.750000 0
  0.921875   0.656250 0
  0.687500   0.718750 0
  0.921875   0.625000 0
  0.687500   0.687500 0
  0.921875   0.593750 0
  0.687500   0.656250 0
  0.640625   1.000000 0
  0.921875   0.562500 0
  0.687500   0.625000 0
  0.640625   0.968750 0
  0.687500   0.609375 0
  0.687500   0.578125 0
  0.937500   0.687500 0
  0.921875   0.671875 0
  0.671875   0.921875 0
  0.906250   0.656250 0
  0.671875   0.906250 0
  0.671875   0.875000 0
  0.906250   0.718750 0
  0.671875   0.781250 0
  0.671875   0.765625 0
  0.671875   0.734375 0
  0.906250   0.640625 0
  0.671875   0.703125 0
  0.906250   0.609375 0
  0.671875   0.671875 0
  0.906250   0.578125 0
  0.671875   0.640625 0
  0.625000   0.984375 0
  0.671875   0.609375 0
  0.625000   0.953125 0
  0.671875   0.593750 0
  0.671875   0.562500 0
  0.765625   0.953125 0
  0.812500   0.609375 0
  0.656250   1.000000 0
  0.656250   0.953125 0
  0.656250   0.906250 0
  0.890625   0.640625 0
  0.656250   0.890625 0
  0.656250   0.859375 0
  0.890625   0.734375 0
  0.656250   0.796875 0
  0.812500   0.921875 0
  0.562500   1.000000 0
  0.625000   0.828125 0
  0.812500   0.843750 0
  0.843750   0.593750 0
  0.812500   0.812500 0
  0.625000   0.718750 0
  0.828125   0.687500 0
  0.640625   0.593750 0
  0.812500   0.781250 0
  0.625000   0.687500 0
  0.765625   0.828125 0
  0.640625   0.562500 0
  0.812500   0.750000 0
  0.562500   0.828125 0
  0.781250   0.875000 0
  0.546875   0.937500 0
  0.781250   0.671875 0
  0.781250   0.593750 0
  0.546875   0.656250 0
  0.796875   0.750000 0
  0.562500   0.812500 0
  0.796875   0.546875 0
  0.765625   0.796875 0
  0.765625   0.593750 0
  1.000000   0.531250 0
  0.812500   0.718750 0
  0.859375   0.562500 0
  0.625000   0.625000 0
  0.812500   0.703125 0
  0.812500   0.906250 0
  0.578125   0.968750 0
  0.984375   0.593750 0
  0.828125   0.578125 0
  0.828125   0.781250 0
  0.593750   0.843750 0
  0.812500   0.671875 0
  0.625000   0.578125 0
  0.796875   0.671875 0
  0.562500   0.734375 0
  0.984375   0.562500 0
  0.828125   0.546875 0
  0.812500   0.640625 0
  0.750000   0.812500 0
  0.625000   0.546875 0
  0.796875   0.640625 0
  0.562500   0.703125 0
  0.828125   0.515625 0
  0.781250   0.734375 0
  0.546875   0.796875 0
  0.781250   0.531250 0
  0.750000   0.781250 0
  0.625000   0.515625 0
  0.796875   0.609375 0
  0.562500   0.671875 0
  0.765625   0.656250 0
  0.765625   0.859375 0
  0.531250   0.921875 0
  0.812500   0.578125 0
  0.562500   0.656250 0
  0.984375   0.687500 0
  0.750000   0.750000 0
  0.812500   0.562500 0
  0.812500   0.765625 0
  0.578125   0.828125 0
  0.562500   0.625000 0
  0.984375   0.656250 0
  0.750000   0.718750 0
  0.812500   0.531250 0
  0.781250   0.656250 0
  0.546875   0.718750 0
  0.781250   0.625000 0
  0.546875   0.687500 0
  0.750000   0.640625 0
  0.796875   0.531250 0
  0.562500   0.593750 0
  0.984375   0.625000 0
  0.750000   0.687500 0
  0.546875   0.984375 0
  0.609375   0.812500 0
  0.796875   0.875000 0
  0.546875   0.953125 0
  0.609375   0.578125 0
  0.843750   0.515625 0
  0.765625   0.515625 0
  0.765625   0.718750 0
  0.531250   0.781250 0
  0.984375   0.546875 0
  0.750000   0.609375 0
  0.796875   0.828125 0
  0.671875   0.968750 0
  0.796875   0.796875 0
  0.796875   0.765625 0
  0.609375   0.671875 0
  0.796875   0.734375 0
  0.546875   0.812500 0
  0.796875   0.703125 0
  0.843750   0.546875 0
  0.609375   0.609375 0
  0.796875   0.687500 0
  0.562500   0.953125 0
  0.796875   0.656250 0
  0.609375   0.562500 0
  0.796875   0.625000 0
  0.609375   0.531250 0
  0.546875   0.640625 0
  0.765625   0.671875 0
  0.531250   0.734375 0
  0.796875   0.515625 0
  0.765625   0.640625 0
  0.531250   0.703125 0
  0.703125   1.000000 0
  0.765625   0.609375 0
  0.531250   0.671875 0
  0.765625   0.578125 0
  0.531250   0.640625 0
  0.546875   0.609375 0
  0.531250   1.000000 0
  0.890625   0.593750 0
  0.656250   0.656250 0
  0.781250   0.515625 0
  0.546875   0.578125 0
  0.531250   0.968750 0
  0.890625   0.562500 0
  0.656250   0.625000 0
  0.609375   0.968750 0
  0.781250   0.859375 0
  0.656250   0.593750 0
  0.750000   0.703125 0
  0.515625   0.765625 0
  0.781250   0.812500 0
  0.781250   0.781250 0
  0.593750   0.687500 0
  0.781250   0.750000 0
  0.593750   0.656250 0
  0.781250   0.718750 0
  0.531250   0.796875 0
  0.828125   0.562500 0
  0.593750   0.625000 0
  0.781250   0.687500 0
  0.828125   0.531250 0
  0.593750   0.593750 0
  0.812500   0.625000 0
  0.578125   0.687500 0
  0.781250   0.640625 0
  0.781250   0.609375 0
  0.593750   0.515625 0
  0.515625   0.781250 0
  0.812500   0.546875 0
  0.578125   0.609375 0
  0.812500   0.515625 0
  0.578125   0.578125 0
  0.750000   0.656250 0
  0.515625   0.718750 0
  0.750000   0.625000 0
  0.515625   0.687500 0
  0.687500   0.984375 0
  0.750000   0.593750 0
  0.515625   0.656250 0
  0.531250   0.546875 0
  0.750000   0.562500 0
  0.515625   0.625000 0
  0.531250   0.515625 0
  0.984375   0.515625 0
  0.750000   0.578125 0
  0.515625   0.531250 0
  0.828125   0.796875 0
  0.640625   0.703125 0
  0.828125   0.765625 0
[...]
CELL_DATA 7648
SCALARS scalar_value float 1
LOOKUP_TABLE default
6.28367e-05
5.1257e-06
-5.1689e-09
4.51334e-09
-2.02497e-09
-2.14838e-09
-1.98102e-05
2.32762e-05
-1.65439e-05
-3.84034e-05
0.00246343
-0.000919993
0.0056452
-0.00208331
0.00676261
0.00363011
0.00619237
-0.00248528
0.00016376
3.32664e-05
-8.40882e-05
-0.000242044
0.00117076
-0.00188921
0.000217636
-0.000496355
8.99374e-05
-0.000100133
-0.000363012
-0.00135556
0.00113145
-0.000678213
7.19273e-10
-1.34891e-10
1.00007e-09
2.00872e-10
0.00257911
0.00100359
-3.37226e-05
-3.18558e-05
-3.39533e-05
0.000218215
0.00564134
0.00323892
3.70394e-09
-4.63441e-09
6.79747e-09
1.59855e-08
8.15891e-09
-1.03246e-08
-5.64874e-10
1.18273e-08
2.48121e-09
2.76823e-09
-3.54288e-09
2.93447e-09
-1.11104e-05
0.000155472
0.000189927
-0.000211993
0.000102891
0.000279738
1.10376e-06
-2.89753e-07
-2.57061e-06
3.22767e-06
-1.27975e-06
3.60564e-08
-7.18591e-07
-1.3276e-05
5.53956e-07
7.50478e-07
2.5608e-08
-0.000306155
-0.00289147
-1.38965e-08
1.45132e-08
-1.32611e-08
-1.34831e-08
3.07294e-10
-1.15549e-08
1.26403e-08
1.24848e-09
5.28011e-09
-8.86763e-09
3.11207e-09
2.76834e-09
4.54051e-06
2.92162e-05
4.15465e-05
-2.40641e-07
-4.71246e-07
1.3224e-06
-2.34311e-07
8.3916e-07
1.27414e-06
8.96343e-07
-4.96948e-07
5.79443e-06
-5.3299e-06
-2.60067e-06
-2.40959e-07
-2.40893e-07
-2.46664e-07
-6.152e-05
0
0
0
8.59098e-08
2.49275e-08
1.40125e-07
-9.45193e-10
1.64488e-09
-7.38641e-10
4.22172e-09
6.35357e-10
2.13569e-10
4.93278e-10
0
5.54302e-06
1.92322e-05
-1.85096e-05
2.7372e-05
2.70766e-06
-7.54851e-06
2.33328e-05
2.00966e-05
-1.30317e-08
-4.46668e-09
2.65204e-08
2.35624e-09
1.82233e-09
-5.91246e-10
1.73991e-09
4.99449e-10
4.66694e-05
0.000116704
-9.87571e-05
-7.3232e-05
-0.000138942
-9.29073e-10
-1.19827e-10
2.79573e-06
-1.63274e-06
-2.21621e-06
3.60888e-06
-3.52793e-06
-3.64429e-06
2.88006e-05
-3.6257e-05
3.76307e-05
4.09083e-06
1.53616e-05
1.18606e-05
-5.34056e-05
1.23048e-05
-1.61671e-05
-3.85636e-06
-1.44677e-06
-2.49863e-06
1.11779e-06
0.000574067
-8.03368e-05
0.000454788
-0.000138221
-0.00612602
-0.000133185
1.32689e-05
-0.000146745
-1.55043e-05
4.1447e-08
1.74904e-07
-1.67026e-07
4.15176e-09
1.55808e-09
-5.83939e-10
9.09315e-06
3.17191e-06
4.5343e-06
-4.66305e-05
3.12025e-06
-5.77343e-05
-8.30379e-05
-8.60408e-05
-5.40123e-06
-2.88808e-05
-1.44061e-05
-3.51454e-05
-1.3175e-05
-3.04143e-05
3.06498e-05
0.0106764
-0.00288392
3.48306e-05
-1.44716e-05
4.07891e-05
-1.45841e-05
3.9487e-10
-4.36621e-08
1.028e-07
7.3997e-08
1.45878e-05
-5.22285e-05
5.91008e-05
7.39899e-06
7.19845e-10
-4.29322e-10
-1.36154e-05
6.28476e-05
3.92851e-05
-5.22139e-05
4.70139e-05
0.00057042
-0.000616534
-5.58109e-05
7.94417e-06
-4.75944e-05
5.30263e-05
1.42287e-05
9.50424e-08
7.90451e-08
1.176e-06
1.43912e-06
-1.98912e-06
9.79281e-07
2.58944e-06
-2.49679e-06
7.65588e-07
2.11795e-06
2.86557e-06
2.34144e-05
-1.62769e-05
3.33894e-06
2.81397e-06
9.20625e-09
-5.66851e-09
8.19418e-09
4.9023e-09
2.35026e-05
-1.8011e-05
4.74604e-06
8.76872e-06
7.85032e-09
-5.28699e-09
8.9122e-09
4.59552e-09
0.149781
0.132051
6.17373e-08
1.50122e-07
1.20885e-08
4.78512e-07
5.65594e-08
-1.36289e-07
-1.87132e-07
-2.3824e-07
-3.98949e-07
-1.1359e-07
8.93423e-08
1.99265e-09
-6.35804e-10
1.94427e-09
5.28817e-10
-2.40798e-09
5.34407e-09
-6.25719e-09
-2.32072e-09
0
5.24407e-10
-6.2599e-10
0
-2.20574e-06
2.88926e-06
-5.53473e-07
6.93162e-08
8.35301e-07
-9.53673e-08
-1.70962e-07
1.52124e-05
-8.71828e-05
0.000152017
2.83687e-05
7.01364e-07
1.31054e-06
1.1923e-05
-2.29487e-05
5.28802e-05
-4.00356e-05
-3.76508e-05
6.93594e-06
5.83181e-05
5.93574e-05
3.97146e-05
2.38781e-05
4.15384e-06
1.63462e-05
-0.000383956
-0.000277351
0
1.62466e-08
0
0.000440097
-7.02769e-06
0.00229545
0.00273038
-9.09111e-07
3.51212e-06
-0.000585278
7.41033e-06
9.72388e-07
-6.84776e-05
0.00291037
-7.07772e-08
6.04792e-05
3.02077e-08
-1.97537e-08
-2.02989e-08
3.85745e-09
-8.60196e-09
2.49559e-05
0.000897176
-7.88973e-07
-0.000270278
-0.000964003
1.70569e-08
2.05435e-07
-1.14782e-08
-0.000856528
1.55804e-06
0.00281372
-5.93001e-05
2.69681e-05
9.59024e-09
0.000165495
-0.00117646
0.000555584
-0.000722774
1.54982e-05
0.000557639
-3.74153e-06
-7.18785e-06
-6.88113e-08
-0.00482724
-1.34484e-06
9.18958e-07
-8.47334e-10
-4.77134e-10
0.00716346
-4.29262e-09
0.000223682
-4.66289e-08
0.000162327
-4.50537e-10
-8.7936e-05
-0.000155083
-1.95276e-05
1.3056e-05
0.00560532
-0.00735837
-4.74638e-05
-1.80178e-07
5.05073e-07
7.56352e-08
0.000951256
1.48171e-06
9.252e-05
-3.14972e-07
2.36366e-06
-9.12807e-07
0.0052761
4.48577e-06
0.000582766
0.0015711
1.2201e-07
3.15621e-10
-8.85217e-06
-1.694e-05
-0.000433818
0.000768981
-2.27013e-07
7.60838e-05
-9.02982e-08
-0.000103907
2.14895e-08
2.53083e-08
4.40567e-09
-3.72823e-08
3.05066e-08
3.58747e-08
-5.41267e-06
1.09131e-05
-6.30106e-06
3.1258e-05
-4.32372e-08
-7.16952e-06
7.18443e-06
2.90025e-05
-8.89279e-05
-4.04665e-08
-1.23676e-07
1.44536e-05
1.3316e-08
-2.23208e-05
-4.21314e-09
-4.17042e-05
2.02996e-05
-3.00956e-05
1.59643e-08
2.6184e-05
-3.33554e-06
3.48024e-09
0.000722417
3.23064e-07
0.115737
1.27854e-07
-5.7733e-08
2.80367e-08
-1.9316e-08
0.0941875
-1.91497e-09
1.24298e-06
4.56528e-08
-0.00860768
-1.77406e-05
-0.000177836
-2.92646e-05
-6.27685e-05
2.36746e-07
0
0
5.49477e-08
7.84191e-05
-5.43762e-05
-2.58816e-08
-1.76237e-10
8.10918e-08
1.63211e-05
-1.28191e-08
-1.99545e-07
0
-4.58663e-05
0
6.41338e-06
-1.99572e-05
-6.28662e-06
5.03574e-09
-2.21507e-07
1.04469e-07
9.52321e-08
5.91498e-08
3.37865e-08
-5.86831e-07
5.69715e-06
0.00100051
0.000102245
9.12014e-10
-3.55069e-08
-1.94744e-06
-2.07809e-05
-4.02758e-05
-0.000147523
-2.21548e-05
-1.02013e-08
-1.36782e-05
-0.00272289
8.49497e-06
-6.52143e-09
-4.52788e-09
3.61035e-05
-1.53797e-08
6.01448e-09
-6.25378e-09
-8.76123e-09
7.57505e-09
-2.92375e-05
4.88703e-05
-1.14703e-05
-0.000143097
-0.0032481
-0.00440006
-2.09416e-09
7.00197e-07
0.000452616
0.000638556
2.77698e-06
-0.00121653
-0.00137751
4.62456e-05
-0.000177697
3.18192e-05
0.000127986
-0.00413821
0.00182394
0.00580184
4.36778e-09
1.95883e-06
0.00351998
-7.39662e-06
6.35301e-06
1.92237e-06
-0.000618967
2.34528e-06
6.76724e-09
1.9182e-05
9.64109e-09
4.47806e-08
0.0029618
0.000812372
3.59394e-05
-2.15295e-08
2.21232e-05
8.97949e-06
-2.84317e-08
9.27991e-05
5.24616e-07
2.12245e-08
0.0038164
5.35967e-07
-1.38181e-06
-0.00121912
-0.00489029
2.79889e-06
8.62837e-05
0.00330067
0.0022495
-9.1159e-10
9.42206e-07
-1.07324e-05
3.43952e-10
8.98246e-06
-3.76882e-08
0.0128106
-6.28781e-06
1.49097e-06
7.63541e-09
-3.01346e-05
-3.00733e-09
0.0550667
3.02339e-05
2.16208e-06
0
-3.14198e-05
6.62728e-10
-2.11321e-05
7.39885e-06
-8.72079e-06
-5.37195e-09
-3.31462e-05
0.0245197
3.18759e-06
1.17097e-05
1.0032e-08
5.08069e-09
-4.79802e-05
-6.05033e-06
-0.000715571
-1.85004e-09
-7.28287e-05
-9.53615e-08
-0.00267705
0
0
3.19871e-05
0
-1.75376e-06
0.000274953
1.41941e-05
-1.01869e-08
-1.70891e-05
-1.85161e-08
0.000505458
2.00484e-08
6.29731e-05
-0.000133125
5.32609e-05
-1.79412e-09
-0.000136077
-1.28607e-08
-2.52438e-05
7.1435e-09
-0.00277995
7.74896e-05
0.000170922
1.312e-07
8.9872e-10
-2.74864e-10
1.33732e-09
-2.48911e-05
2.33442e-10
7.45932e-09
1.07582e-05
-1.5959e-06
-4.12104e-10
-4.81373e-07
1.89445e-05
0
-1.094e-09
1.33691e-06
4.14539e-09
-1.64519e-09
0
0
-6.32589e-05
2.8513e-09
-2.74922e-06
7.07937e-06
-1.12759e-05
1.90787e-09
-9.44572e-06
-3.72928e-06
-1.49914e-05
-5.0865e-10
6.35204e-05
-6.90582e-05
1.14971e-05
6.82789e-08
3.64967e-08
-8.55885e-05
9.18602e-06
-2.94951e-05
-1.0767e-08
0.000917188
0.000334596
-0.000497669
2.14631e-07
2.03115e-05
-2.85944e-05
-0.000827718
7.22016e-07
0.00577937
-0.00130656
-2.8195e-06
-0.00264975
0.000233398
8.77404e-07
0.000171759
5.33385e-05
-0.00010184
-9.5311e-06
-9.45463e-06
1.74756e-06
-1.79598e-05
-1.79349e-07
2.60084e-05
-0.0103116
-6.37467e-07
-0.0121467
1.14632e-06
1.42362e-06
-0.00305698
0.00327442
-1.08917e-05
-1.78222e-05
1.42826e-05
-0.000108897
-1.81439e-05
-1.54427e-06
0.000181967
-1.64936e-07
-0.00252238
6.38957e-05
-1.90799e-06
7.49115e-05
-0.000399183
1.35185e-05
-2.40077e-06
9.58747e-08
-6.34598e-05
-0.0207187
-0.0278559
1.73272e-06
-1.67284e-06
0
7.04695e-06
0
3.10585e-05
3.0461e-07
4.68675e-05
-7.10577e-05
1.98338e-06
-0.000100715
-3.04557e-08
-0.00300246
-6.31792e-05
1.51471e-08
0.0134418
-4.22039e-09
-3.8786e-08
-1.59139e-08
3.67155e-05
7.52944e-08
-2.5155e-07
1.85409e-08
7.78742e-07
-6.79223e-06
3.8314e-05
-4.02291e-05
2.09386e-05
0
3.16729e-05
2.78556e-05
0
1.04779e-05
2.55613e-08
0
0.000312712
-0.000135146
-3.3696e-09
4.38247e-10
-4.50056e-05
2.35956e-09
-6.3825e-05
0.0079439
-0.000132714
5.25993e-05
-1.63154e-05
-3.27065e-10
-0.000217359
-3.20681e-09
-0.000173314
1.1717e-05
0.000207504
0.00974036
-8.4714e-09
0
1.13991e-05
-1.2214e-05
2.81969e-06
-5.17853e-09
2.6918e-05
-0.00813851
6.71556e-05
-1.67346e-09
-1.27646e-05
4.43507e-06
0.000318387
-6.84019e-09
-4.42967e-05
2.824e-06
-4.77115e-05
-0.000227175
-1.42712e-07
-1.99204e-09
1.29966e-05
-2.34781e-06
3.54207e-08
-1.85155e-08
-0.00110864
1.26478e-05
4.79314e-09
-2.13778e-06
-1.72061e-05
1.07202e-06
7.80188e-07
-0.00201771
0.00109901
-2.32047e-05
1.61395e-09
9.47332e-10
1.36278e-09
7.29819e-05
1.83197e-06
-1.68129e-08
-2.488e-05
3.13168e-10
1.76129e-09
3.042e-05
1.7315e-08
-9.73426e-06
0
0
-9.23551e-06
-0.00900447
4.00855e-05
-1.08511e-05
-0.000105996
6.50287e-06
2.63794e-10
-2.50211e-05
0.00014085
-1.12322e-06
1.34992e-10
-2.49078e-05
-7.09106e-10
-2.44063e-07
-0.000121768
-7.92226e-09
0.000382808
3.6226e-08
4.98766e-09
0.000205274
0
0.00114013
-8.00508e-09
-2.54044e-09
-1.40812e-05
2.65968e-07
6.14236e-06
-2.67691e-05
-4.96692e-05
-1.32799e-09
1.15393e-09
-8.17831e-06
0.000549414
1.41912e-08
-2.754e-08
7.54796e-07
3.56376e-05
6.45834e-07
1.37956e-06
-0.0003622
-9.84986e-05
-4.5453e-05
-2.78859e-05
0.00117
0.0029972
0.0287589
-2.58125e-07
-1.04236e-05
-0.000151376
-8.35162e-05
1.13064e-09
0
0.00027759
2.68649e-08
-4.51936e-05
-0.000221368
1.57171e-05
1.31884e-05
-0.000113118
-0.00017152
0.00423606
2.21409e-05
-0.000436042
-6.27131e-08
7.12903e-06
4.44295e-05
0
-1.63082e-06
0.0038585
-5.86885e-05
-3.02895e-05
-0.00148846
1.01055e-05
-5.292e-10
-0.00417684
0.000580994
3.35328e-07
-6.32169e-06
1.27905e-08
-3.16906e-10
-8.01016e-10
1.60497e-08
-2.54798e-05
0
-4.36611e-05
7.19724e-05
-6.81297e-06
-6.53959e-05
-3.84759e-08
-0.000693605
-4.38052e-05
2.20227e-08
-0.0037291
0.000265111
-4.12443e-05
0.000102512
7.41773e-09
1.38403e-05
-6.6471e-09
1.13971e-08
9.27597e-09
0
-2.44937e-05
5.15272e-09
-3.54226e-05
-0.000427353
-0.00565617
4.06638e-05
2.24988e-05
-0.00097532
9.49599e-09
-2.26669e-05
1.67696e-08
0.00471424
-2.37983e-06
-1.21411e-09
-0.00026835
3.77189e-05
-0.000121511
2.18269e-05
-0.00151992
5.34488e-08
0
0
3.61512e-06
-7.22215e-08
1.04637e-06
2.00392e-05
1.69475e-09
-3.26053e-08
0.000239626
1.54039e-08
-0.000600091
-1.14645e-07
0.00592199
-0.000352396
4.80225e-05
-8.95152e-05
4.15669e-10
-5.03605e-05
3.42641e-05
1.89658e-05
-5.15712e-08
5.82745e-07
0.00120132
0.0185357
0.000245742
-0.00012768
1.21091e-06
0.00586832
-5.41514e-05
0
4.0054e-07
2.12402e-08
-2.29949e-10
-4.91012e-05
-1.10059e-05
4.43253e-10
8.48515e-09
-9.93395e-05
-0.000179768
1.40529e-07
-0.0352289
2.81106e-05
0.00238829
-1.21865e-10
-6.94016e-10
-1.78826e-08
-2.41011e-10
-0.000412139
-8.36122e-09
6.60109e-09
0.000397766
1.24423e-05
2.55524e-05
-0.000490549
0.000823556
4.29413e-10
6.60754e-07
-3.57446e-05
1.53829e-10
-0.000946389
0.00100961
-2.04107e-07
-2.50083e-07
-3.86072e-09
-6.69814e-09
2.45945e-06
0.055885
-4.0108e-07
1.1494e-05
0
8.88311e-05
0.000826633
3.31059e-10
9.35478e-08
2.5224e-05
-1.05354e-09
0.00016315
-2.29324e-05
0
-4.61223e-05
2.33223e-10
-2.19539e-06
0.000453672
0
1.34095e-05
-3.22532e-06
-1.98567e-08
0
-8.14191e-06
-0.000145972
-7.08946e-06
-0.0325073
2.76656e-05
2.85319e-09
0.000138568
-0.000191
9.83485e-07
9.98866e-06
0
2.52918e-05
2.39579e-06
0.000189753
-9.13605e-09
8.6403e-05
1.88183e-05
6.57912e-07
0.0057281
-1.52624e-07
1.91329e-09
-5.16467e-05
-1.88243e-06
0.000127013
-2.72741e-05
-0.00681951
-5.80543e-06
-2.64543e-05
-5.15293e-05
-1.71132e-05
-5.53809e-05
3.09592e-05
5.23822e-09
3.13906e-05
2.94279e-05
-1.27511e-05
-1.12602e-08
1.58527e-06
-6.77498e-05
0.000168165
-1.24106e-05
8.83943e-08
-1.51631e-05
4.43045e-10
0.00078809
1.75733e-08
0.0044876
-9.34213e-07
2.78106e-07
5.83902e-07
0.000737057
-0.000375689
0.0120974
2.0712e-08
5.71009e-05
5.48654e-05
-7.74418e-07
1.46421e-08
2.49752e-10
-0.000124159
-6.29711e-08
1.76456e-09
-5.55736e-06
0.000108777
-2.08268e-06
0.00515685
-3.99834e-05
0.00553773
2.96765e-05
-6.13045e-05
-3.00716e-05
4.84333e-05
3.55818e-05
-1.06477e-06
-0.00184242
2.512e-06
6.14039e-05
-0.000224885
0.00623021
-3.6099e-05
-1.02003e-10
0.00227629
7.88277e-06
0
2.85589e-06
0
-1.42454e-05
9.95384e-08
1.3223e-10
-0.000952144
0.00018796
8.09375e-06
4.63608e-05
-1.78111e-06
1.16062e-08
-0.000679703
0.00156818
-9.75082e-05
-0.000132123
0.000103408
1.12605e-05
-1.87024e-08
4.3226e-05
-9.98162e-05
0.000165839
-0.000191508
-2.08491e-09
2.69998e-05
2.43438e-07
5.53577e-09
-1.69946e-05
1.1131e-08
-1.31102e-05
-7.52362e-05
-5.5119e-07
0
6.84664e-06
0.000791283
0.00127878
1.28282e-06
-0.00114559
1.29629e-05
-0.00261825
-5.33744e-05
8.07296e-05
8.79958e-05
-1.45162e-05
6.52933e-06
0.000226038
-4.18209e-05
2.77571e-05
5.09124e-06
1.70614e-07
8.16087e-05
-2.04281e-07
-0.00299915
-7.087e-05
-0.00185206
-1.75292e-07
2.1623e-05
-1.21679e-08
-8.57652e-05
0.00109945
-0.000314075
0.000186683
-5.67606e-05
0.000153797
-2.66031e-05
-2.53265e-08
-0.00135454
-6.25738e-09
-2.33812e-09
-1.79167e-08
1.49642e-08
-0.000101403
7.44342e-05
-0.00212955
-2.67866e-05
9.24709e-05
-0.000214511
6.46537e-05
-0.000168276
-2.10731e-06
0.0006677
-2.24197e-09
3.23397e-08
-2.05225e-09
5.12134e-05
3.13645e-08
1.63014e-07
-5.37805e-09
-2.58575e-06
-7.83565e-10
-1.97293e-09
-1.64643e-06
0.000211893
-1.68295e-08
4.31811e-05
-7.15473e-09
-0.000136445
-1.23371e-08
2.21268e-06
-0.0129659
-1.79074e-09
-4.37048e-05
-1.33633e-08
1.08568e-08
-8.81818e-10
-0.000315219
3.53953e-05
-0.000186196
-1.44933e-08
-1.07354e-08
-1.3901e-05
-8.36977e-09
-2.15777e-09
-0.000481622
-2.33439e-09
-0.000527776
-1.6681e-08
-0.000471664
1.54252e-08
-2.26655e-05
-3.72954e-10
3.58193e-06
1.47337e-09
-1.65538e-05
0
5.71095e-06
0
-1.13273e-05
7.13153e-07
-7.45122e-05
-0.00126516
0.000477308
0.0201574
0.00506458
-4.11134e-07
-5.87707e-07
6.9948e-07
0.0006397
3.30893e-07
2.99783e-07
4.86868e-07
-2.40103e-07
-0.00517291
-0.00175093
4.36754e-05
-2.1944e-05
0.00739065
-2.90426e-07
0.00288916
2.84674e-05
8.66133e-06
-2.10286e-05
-0.00215642
-7.8706e-06
4.81312e-05
3.55508e-10
-4.13587e-05
3.53155e-09
8.32144e-09
0.000169913
-0.00109024
-9.41761e-09
-4.18466e-05
0.000892982
0.000136506
1.06072e-05
-1.27943e-07
-3.76088e-07
-0.000318438
-8.00998e-05
-0.000196832
3.82393e-05
-3.00188e-05
-5.05799e-05
8.12328e-07
3.89466e-05
-1.20458e-08
-1.40307e-06
9.02585e-05
-2.22585e-05
8.00957e-07
6.89946e-08
-0.000493442
-1.51358e-10
-0.000138687
-9.9037e-09
-2.22594e-05
1.44187e-05
-6.05983e-10
-2.17098e-05
2.34285e-05
7.40361e-06
1.06502e-05
9.55866e-07
7.93263e-07
-0.00244934
3.82813e-10
-9.442e-05
1.02891e-08
3.21769e-07
-0.000291748
-2.06898e-06
-5.23286e-10
-0.00037441
-0.000212711
-1.31943e-05
0
-2.5927e-07
0.000121065
1.79699e-09
-3.28648e-07
-7.80468e-05
-3.86425e-08
-0.0116491
5.59183e-09
5.33498e-07
-1.91426e-07
-2.49694e-07
-9.27432e-08
-6.12308e-05
-2.22398e-05
-9.47361e-06
-1.50273e-05
9.19395e-07
-7.63846e-07
2.29211e-06
-1.19658e-06
-3.87268e-05
0
0.000138306
-7.34623e-05
0.00310417
0.00560089
0.0199864
0.00456044
-1.31305e-08
-0.00253782
-4.67373e-09
-0.0131496
1.01065e-07
0.000876593
2.98237e-05
8.97906e-05
-0.000660956
0.000148566
-0.00101278
-1.78326e-07
-5.20046e-07
-3.23455e-07
7.72206e-10
-0.00122509
-0.000182614
6.78067e-06
-0.00144277
6.02321e-05
6.7028e-05
-0.000400166
2.58879e-05
4.50246e-06
5.24192e-05
1.28222e-05
-2.79108e-05
0.00106863
-0.000623232
0
0
0
1.86464e-05
-7.61671e-05
-0.00497609
-1.23624e-08
-0.00046954
0.00281167
-0.00249959
-0.00114859
-0.00194419
6.63479e-07
-0.00158937
-0.000640783
1.08644e-05
-1.01042e-06
8.55839e-06
0.0106527
0.000190294
7.10192e-05
-0.000243621
0
3.6706e-07
-9.8872e-07
4.93969e-08
8.00447e-10
-8.88387e-08
-0.000110214
-0.000305614
0.000157881
-0.000144842
9.95108e-06
6.51473e-05
-0.000632599
0.000997016
-0.0012954
-0.000372486
-3.64068e-06
-0.00140116
0.00240912
0.00355177
-0.0109565
0.000112759
5.5788e-05
-9.70253e-05
1.35537e-05
-0.00041755
-0.00303693
4.24349e-09
1.05812e-08
-5.52981e-09
3.32733e-09
2.85133e-07
3.9863e-07
4.4766e-07
0.000737728
4.50944e-08
3.48325e-08
-0.00169897
-9.09052e-08
1.63024e-07
0.000841902
-0.00046572
3.67972e-09
8.05976e-09
-1.84955e-08
-3.27479e-08
1.13689e-07
0.000403177
-9.93674e-09
-0.000223979
5.76625e-06
4.91977e-05
1.14759e-05
-1.08483e-05
-1.33729e-05
0.000579096
0.0194835
0.000796041
0.00264789
-0.00240199
-0.000108366
-5.01757e-08
5.23984e-08
2.02269e-07
-7.25685e-05
0.000485949
0.000621678
-3.19197e-08
-0.000243639
0.00047964
-3.26666e-09
0.00606714
6.48664e-09
3.72254e-07
-1.14599e-09
0.000512408
0.00109723
-0.000315826
-1.80369e-05
-6.20626e-05
1.09681e-08
-5.79551e-05
-1.23762e-08
-6.95423e-05
-0.0010308
0.000921617
-0.000656769
-0.000836382
-5.11174e-05
-6.78373e-05
-6.09911e-06
0.0228312
3.644e-06
-6.93089e-05
0.000113233
-1.81239e-05
-3.26252e-05
0.0111658
-0.000540885
5.13897e-07
3.16991e-05
-6.42845e-06
-2.27453e-08
-4.78505e-05
-1.95343e-05
1.10188e-07
1.27424e-07
-1.30599e-06
0.00652672
-0.000100395
-1.63385e-05
-1.61526e-08
-9.67211e-05
-2.68621e-05
0
0.00751775
0.00021555
0.0144191
0.0446809
4.71023e-08
0.000494491
-5.17523e-08
0.00635496
2.93544e-05
-2.73312e-06
2.41295e-09
5.84122e-06
0
0
0
5.08188e-05
2.63458e-06
-0.000143533
0.00188707
0.00121672
0.00355926
0.00399354
-2.75281e-07
-9.58426e-05
-0.0428407
-2.0512e-05
-4.42079e-08
-6.78632e-07
-1.46719e-07
-4.39612e-07
-3.72485e-05
-1.88072e-07
7.3334e-09
-4.825e-08
6.39202e-05
-0.000166259
0.000140762
-0.00136903
3.14647e-09
-1.66359e-08
1.7044e-09
1.25809e-08
1.01682e-08
2.09816e-09
3.36586e-05
1.01748e-05
0.000230402
-0.00166252
0.00035544
0.00567101
-2.37779e-05
-0.0103409
-0.0139062
-0.0230684
-4.03947e-06
5.67813e-05
1.27431e-05
9.52837e-07
0.00207583
-1.76592e-06
3.5077e-06
8.54901e-07
4.04127e-10
0.000733938
0.000152808
-1.09512e-06
0.000165249
1.33932e-09
1.35699e-05
6.77687e-06
-8.13621e-06
0.013239
-1.89452e-05
-3.52234e-05
-4.85414e-06
-6.92682e-06
0.00550303
5.73223e-05
0.00552227
0.000206265
-1.36556e-10
-2.45869e-06
5.62598e-07
-2.15579e-06
0.000137601
-0.000422476
0.000427045
-7.02882e-05
-1.18809e-05
-0.000379547
4.49071e-05
-2.352e-05
3.98417e-06
-1.59143e-05
-5.33986e-07
6.50474e-07
-7.06636e-05
-9.5704e-08
0.00863414
-0.00154907
-3.69432e-07
6.74847e-09
-3.46689e-07
1.69645e-09
9.76971e-09
-0.00117078
0.0019981
0.000920275
-0.000491438
-1.8646e-06
-7.49407e-06
-0.0065883
0.082938
0.0746804
-8.64689e-05
1.41857e-08
0
-1.87953e-05
1.31199e-06
-1.4659e-05
-3.18308e-05
-1.47822e-05
-5.42466e-06
5.62909e-08
8.58868e-08
-4.00584e-08
1.18791e-08
0.0113177
-0.00146919
-0.00550931
-3.84428e-06
-0.00166114
-2.05149e-10
1.91605e-10
0
0.000658091
3.52333e-05
0.00332249
-0.0025337
0.000101359
0
0
-0.00260132
-5.97897e-05
-0.00133967
0
-4.15684e-10
-0.00110353
-0.00116142
0
1.61446e-05
0.0001537
-0.000930506
5.59479e-05
2.16045e-05
-2.90508e-06
3.54999e-05
-4.52628e-05
0.00071181
2.38484e-06
5.36461e-05
-2.00325e-05
-2.97651e-05
-0.00250792
4.4132e-05
2.9919e-05
-1.42434e-05
0.000161997
1.06326e-10
4.58832e-06
0.00018487
3.84629e-09
3.0614e-08
0.0404702
-2.55268e-07
-1.88095e-06
0.0357084
4.82909e-08
-2.55046e-08
-4.08571e-09
1.88546e-08
-1.63981e-05
4.57626e-05
-2.55156e-05
4.48636e-05
-2.75994e-08
-2.98592e-07
-3.78253e-08
6.50706e-08
-5.18428e-08
0.000117208
-2.15746e-05
-7.65912e-05
-2.25401e-05
-7.49091e-06
2.18294e-05
-1.36376e-05
-0.000426936
1.68909e-06
-0.00153775
2.50309e-07
8.62356e-07
-5.33099e-07
-0.000408268
0.00039471
1.27766e-08
0.00102886
-0.0151425
-2.72494e-06
2.41235e-06
0.000933651
7.69944e-09
-4.96424e-08
0.00566774
-0.00241803
0.000590085
0
0
0
0