# vtk DataFile Version 2.0
Unstructured Grid by M++
ASCII
DATASET UNSTRUCTURED_GRID
POINTS 4072 float
  0.828125   0.890625 0
  0.875000   0.531250 0
  0.828125   0.750000 0
  0.593750   0.968750 0
  0.828125   0.671875 0
  0.828125   0.875000 0
  0.593750   0.937500 0
  0.828125   0.656250 0
  0.828125   0.640625 0
  0.828125   0.843750 0
  0.593750   0.906250 0
  0.828125   0.625000 0
  0.781250   0.968750 0
  0.828125   0.609375 0
  0.828125   0.812500 0
  0.593750   0.875000 0
  0.593750   0.828125 0
  0.593750   0.796875 0
  0.828125   0.703125 0
  0.593750   0.765625 0
  0.828125   0.937500 0
  0.812500   0.875000 0
  0.859375   0.515625 0
  0.812500   0.734375 0
  0.812500   0.937500 0
  0.578125   1.000000 0
  0.578125   0.750000 0
  0.812500   0.687500 0
  0.578125   0.953125 0
  0.812500   0.656250 0
  0.812500   0.859375 0
  0.578125   0.921875 0
  0.812500   0.828125 0
  0.578125   0.890625 0
  0.812500   0.593750 0
  0.812500   0.796875 0
  0.578125   0.859375 0
  0.578125   0.812500 0
  0.578125   0.781250 0
  0.796875   1.000000 0
  0.796875   0.859375 0
  0.796875   0.718750 0
  0.562500   0.984375 0
  0.562500   0.937500 0
  0.796875   0.843750 0
  0.562500   0.906250 0
  0.796875   0.812500 0
  0.562500   0.875000 0
  0.796875   0.578125 0
  0.796875   0.781250 0
  0.562500   0.843750 0
  0.812500   0.984375 0
  0.562500   0.796875 0
  0.812500   0.953125 0
  0.562500   0.765625 0
  0.796875   0.937500 0
  0.546875   0.750000 0
  0.781250   0.984375 0
  0.828125   0.593750 0
  0.781250   0.843750 0
  0.781250   0.937500 0
  0.546875   1.000000 0
  0.781250   0.703125 0
  0.546875   0.968750 0
  0.546875   0.921875 0
  0.781250   0.828125 0
  0.546875   0.890625 0
  0.781250   0.796875 0
  0.546875   0.859375 0
  0.781250   0.562500 0
  0.781250   0.765625 0
  0.546875   0.828125 0
  0.796875   0.968750 0
  0.546875   0.781250 0
  0.765625   1.000000 0
  0.765625   0.968750 0
  0.531250   0.984375 0
  0.765625   0.687500 0
  0.531250   0.953125 0
  0.531250   0.937500 0
  0.531250   0.906250 0
  0.765625   0.812500 0
  0.531250   0.875000 0
  0.765625   0.781250 0
  0.531250   0.843750 0
  0.781250   1.000000 0
  0.765625   0.546875 0
  0.765625   0.750000 0
  0.531250   0.812500 0
  0.781250   0.953125 0
  0.531250   0.765625 0
  0.515625   0.750000 0
  0.750000   0.984375 0
  0.750000   0.953125 0
  0.796875   0.593750 0
  0.796875   0.562500 0
  0.750000   0.843750 0
  0.750000   0.937500 0
  0.515625   1.000000 0
  0.750000   0.906250 0
  0.515625   0.968750 0
  0.750000   0.671875 0
  0.750000   0.875000 0
  0.515625   0.937500 0
  0.515625   0.921875 0
  0.515625   0.890625 0
  0.750000   0.796875 0
  0.515625   0.859375 0
  0.750000   0.765625 0
  0.515625   0.828125 0
  1.000000   0.718750 0
  0.750000   0.531250 0
  0.750000   0.734375 0
  0.515625   0.796875 0
  0.734375   1.000000 0
  0.734375   0.968750 0
  0.734375   0.937500 0
  0.781250   0.578125 0
  0.781250   0.546875 0
  0.968750   0.578125 0
  0.734375   0.828125 0
  0.968750   0.546875 0
  0.734375   0.796875 0
  0.734375   0.765625 0
  0.968750   0.671875 0
  0.734375   0.734375 0
  0.968750   0.640625 0
  0.734375   0.703125 0
  0.968750   0.609375 0
  0.734375   0.671875 0
  0.734375   0.656250 0
  0.734375   0.625000 0
  0.968750   0.531250 0
  0.734375   0.593750 0
  0.984375   0.734375 0
  0.984375   0.703125 0
  0.734375   0.515625 0
  0.718750   0.984375 0
  0.718750   0.953125 0
  0.718750   0.921875 0
  0.953125   0.562500 0
  0.718750   0.812500 0
  0.953125   0.531250 0
  0.718750   0.781250 0
  0.718750   0.750000 0
  0.953125   0.656250 0
  0.718750   0.718750 0
  0.953125   0.625000 0
  0.718750   0.687500 0
  0.953125   0.593750 0
  0.718750   0.656250 0
  0.671875   1.000000 0
  0.718750   0.640625 0
  0.718750   0.609375 0
  0.953125   0.515625 0
  0.718750   0.578125 0
  0.968750   0.718750 0
  0.968750   0.687500 0
  0.953125   0.671875 0
  0.703125   0.968750 0
  0.703125   0.937500 0
  0.937500   0.656250 0
  0.703125   0.906250 0
  0.937500   0.546875 0
  0.703125   0.796875 0
  0.937500   0.515625 0
  0.703125   0.765625 0
  0.937500   0.671875 0
  0.703125   0.734375 0
  0.937500   0.640625 0
  0.703125   0.703125 0
  0.937500   0.609375 0
  0.703125   0.671875 0
  0.937500   0.578125 0
  0.703125   0.640625 0
  0.656250   0.984375 0
  0.703125   0.625000 0
  0.703125   0.593750 0
  0.718750   0.796875 0
  0.953125   0.734375 0
  0.812500   1.000000 0
  0.859375   0.656250 0
  0.703125   0.781250 0
  0.937500   0.718750 0
  0.953125   0.703125 0
  0.796875   0.984375 0
  0.843750   0.640625 0
  0.812500   0.968750 0
  0.859375   0.625000 0
  0.796875   0.953125 0
  0.843750   0.609375 0
  0.687500   0.953125 0
  0.687500   0.921875 0
  0.687500   0.890625 0
  0.921875   0.734375 0
  0.687500   0.796875 0
  0.687500   0.781250 0
  0.921875   0.703125 0
  0.687500   0.765625 0
  0.687500   0.750000 0
  0.921875   0.656250 0
  0.687500   0.718750 0
  0.921875   0.625000 0
  0.687500   0.687500 0
  0.921875   0.593750 0
  0.687500   0.656250 0
  0.640625   1.000000 0
  0.921875   0.562500 0
  0.687500   0.625000 0
  0.640625   0.968750 0
  0.687500   0.609375 0
  0.687500   0.578125 0
  0.937500   0.687500 0
  0.921875   0.671875 0
  0.671875   0.921875 0
  0.906250   0.656250 0
  0.671875   0.906250 0
  0.671875   0.875000 0
  0.906250   0.718750 0
  0.671875   0.781250 0
  0.671875   0.765625 0
  0.671875   0.734375 0
  0.906250   0.640625 0
  0.671875   0.703125 0
  0.906250   0.609375 0
  0.671875   0.671875 0
  0.906250   0.578125 0
  0.671875   0.640625 0
  0.625000   0.984375 0
  0.671875   0.609375 0
  0.625000   0.953125 0
  0.671875   0.593750 0
  0.671875   0.562500 0
  0.765625   0.953125 0
  0.812500   0.609375 0
  0.656250   1.000000 0
  0.656250   0.953125 0
  0.656250   0.906250 0
  0.890625   0.640625 0
  0.656250   0.890625 0
  0.656250   0.859375 0
  0.890625   0.734375 0
  0.656250   0.796875 0
  0.812500   0.921875 0
  0.562500   1.000000 0
  0.625000   0.828125 0
  0.812500   0.843750 0
  0.843750   0.593750 0
  0.812500   0.812500 0
  0.625000   0.718750 0
  0.828125   0.687500 0
  0.640625   0.593750 0
  0.812500   0.781250 0
  0.625000   0.687500 0
  0.765625   0.828125 0
  0.640625   0.562500 0
  0.812500   0.750000 0
  0.562500   0.828125 0
  0.781250   0.875000 0
  0.546875   0.937500 0
  0.781250   0.671875 0
  0.781250   0.593750 0
  0.546875   0.656250 0
  0.796875   0.750000 0
  0.562500   0.812500 0
  0.796875   0.546875 0
  0.765625   0.796875 0
  0.765625   0.593750 0
  1.000000   0.531250 0
  0.812500   0.718750 0
  0.859375   0.562500 0
  0.625000   0.625000 0
  0.812500   0.703125 0
  0.812500   0.906250 0
  0.578125   0.968750 0
  0.984375   0.593750 0
  0.828125   0.578125 0
  0.828125   0.781250 0
  0.593750   0.843750 0
  0.812500   0.671875 0
  0.625000   0.578125 0
  0.796875   0.671875 0
  0.562500   0.734375 0
  0.984375   0.562500 0
  0.828125   0.546875 0
  0.812500   0.640625 0
  0.750000   0.812500 0
  0.625000   0.546875 0
  0.796875   0.640625 0
  0.562500   0.703125 0
  0.828125   0.515625 0
  0.781250   0.734375 0
  0.546875   0.796875 0
  0.781250   0.531250 0
  0.750000   0.781250 0
  0.625000   0.515625 0
  0.796875   0.609375 0
  0.562500   0.671875 0
  0.765625   0.656250 0
  0.765625   0.859375 0
  0.531250   0.921875 0
  0.812500   0.578125 0
  0.562500   0.656250 0
  0.984375   0.687500 0
  0.750000   0.750000 0
  0.812500   0.562500 0
  0.812500   0.765625 0
  0.578125   0.828125 0
  0.562500   0.625000 0
  0.984375   0.656250 0
  0.750000   0.718750 0
  0.812500   0.531250 0
  0.781250   0.656250 0
  0.546875   0.718750 0
  0.781250   0.625000 0
  0.546875   0.687500 0
  0.750000   0.640625 0
  0.796875   0.531250 0
  0.562500   0.593750 0
  0.984375   0.625000 0
  0.750000   0.687500 0
  0.546875   0.984375 0
  0.609375   0.812500 0
  0.796875   0.875000 0
  0.546875   0.953125 0
  0.609375   0.578125 0
  0.843750   0.515625 0
  0.765625   0.515625 0
  0.765625   0.718750 0
  0.531250   0.781250 0
  0.984375   0.546875 0
  0.750000   0.609375 0
  0.796875   0.828125 0
  0.671875   0.968750 0
  0.796875   0.796875 0
  0.796875   0.765625 0
  0.609375   0.671875 0
  0.796875   0.734375 0
  0.546875   0.812500 0
  0.796875   0.703125 0
  0.843750   0.546875 0
  0.609375   0.609375 0
  0.796875   0.687500 0
  0.562500   0.953125 0
  0.796875   0.656250 0
  0.609375   0.562500 0
  0.796875   0.625000 0
  0.609375   0.531250 0
  0.546875   0.640625 0
  0.765625   0.671875 0
  0.531250   0.734375 0
  0.796875   0.515625 0
  0.765625   0.640625 0
  0.531250   0.703125 0
  0.703125   1.000000 0
  0.765625   0.609375 0
  0.531250   0.671875 0
  0.765625   0.578125 0
  0.531250   0.640625 0
  0.546875   0.609375 0
  0.531250   1.000000 0
  0.890625   0.593750 0
  0.656250   0.656250 0
  0.781250   0.515625 0
  0.546875   0.578125 0
  0.531250   0.968750 0
  0.890625   0.562500 0
  0.656250   0.625000 0
  0.609375   0.968750 0
  0.781250   0.859375 0
  0.656250   0.593750 0
  0.750000   0.703125 0
  0.515625   0.765625 0
  0.781250   0.812500 0
  0.781250   0.781250 0
  0.593750   0.687500 0
  0.781250   0.750000 0
  0.593750   0.656250 0
  0.781250   0.718750 0
  0.531250   0.796875 0
  0.828125   0.562500 0
  0.593750   0.625000 0
  0.781250   0.687500 0
  0.828125   0.531250 0
  0.593750   0.593750 0
  0.812500   0.625000 0
  0.578125   0.687500 0
  0.781250   0.640625 0
  0.781250   0.609375 0
  0.593750   0.515625 0
  0.515625   0.781250 0
  0.812500   0.546875 0
  0.578125   0.609375 0
  0.812500   0.515625 0
  0.578125   0.578125 0
  0.750000   0.656250 0
  0.515625   0.718750 0
  0.750000   0.625000 0
  0.515625   0.687500 0
  0.687500   0.984375 0
  0.750000   0.593750 0
  0.515625   0.656250 0
  0.531250   0.546875 0
  0.750000   0.562500 0
  0.515625   0.625000 0
  0.531250   0.515625 0
  0.984375   0.515625 0
  0.750000   0.578125 0
  0.515625   0.531250 0
  0.828125   0.796875 0
  0.640625   0.703125 0
  0.828125   0.765625 0
[...]
CELL_DATA 7648
SCALARS scalar_value float 1
LOOKUP_TABLE default
-6.4534e-05
-2.10819e-05
-9.77644e-09
8.32828e-09
-3.88102e-09
-3.63177e-09
-1.69195e-05
1.46856e-05
-1.03315e-05
-2.99553e-05
0.00136843
-0.000562792
0.00325097
-0.00123415
0.00432173
0.00207888
0.00404015
-0.00143663
6.10753e-05
-3.10857e-06
-4.85378e-05
-9.55544e-05
0.000528611
-0.000668135
2.63131e-05
4.08248e-05
2.40399e-05
-2.52529e-05
3.29683e-05
3.51076e-05
2.13508e-05
-1.90258e-05
4.9284e-10
-1.21752e-10
2.34265e-10
1.4615e-10
0.00151527
0.000690147
6.75151e-06
-7.41973e-05
-3.66598e-05
0.000142628
0.000753452
0.00036901
2.39376e-09
-2.96286e-09
4.34006e-09
1.12943e-08
5.37677e-09
-1.20293e-08
4.97907e-09
8.05872e-09
3.31212e-09
1.43459e-09
-1.13041e-08
-3.94671e-09
-1.53601e-05
9.5804e-05
0.000100313
-0.000129206
9.56714e-05
0.000141701
8.64643e-07
-1.87275e-07
-1.94822e-06
2.46908e-06
-9.6273e-07
1.23779e-07
-4.72257e-07
-1.3641e-05
5.24352e-07
4.03248e-07
1.10605e-08
-0.000148403
-0.00033089
-1.08567e-08
1.13088e-08
-1.10659e-08
-1.02307e-08
-1.20247e-09
-9.76862e-09
1.07139e-08
1.86452e-10
8.84961e-09
-1.1283e-08
4.32629e-09
3.1468e-09
6.66623e-07
-1.0953e-05
9.03112e-06
-1.65817e-07
-3.27605e-07
9.55045e-07
-1.60852e-07
7.60668e-07
9.11888e-07
8.14538e-07
-3.39097e-07
4.51201e-06
-4.10546e-06
-2.14937e-06
-1.65012e-07
-1.53078e-07
-1.67837e-07
5.48419e-06
0
0
0
3.36951e-08
1.03913e-08
4.6834e-08
5.96524e-10
1.08225e-09
-4.9552e-10
2.84035e-09
4.29373e-10
1.50674e-10
3.55873e-10
0
1.49614e-07
1.38824e-05
-1.26069e-05
1.95468e-05
1.88664e-06
-4.6646e-06
1.46539e-05
1.23615e-05
-8.15802e-10
4.40673e-09
1.12033e-08
-2.1272e-09
3.02717e-09
-1.04281e-09
3.24143e-09
8.63659e-10
-1.9805e-06
9.19638e-05
-5.27166e-05
-3.27075e-05
-0.000140777
-3.41072e-10
0
1.71345e-06
-5.9656e-07
-2.26759e-06
1.00245e-06
2.77466e-07
-1.94944e-06
2.3267e-05
-3.5102e-05
3.41152e-05
1.41239e-06
-1.00515e-05
3.47626e-06
1.02833e-05
9.40223e-07
-1.02633e-06
2.23507e-06
2.27374e-06
-2.05118e-06
8.05256e-07
0.000348274
-3.62527e-05
0.000280343
-9.95181e-05
-0.000563059
-7.67281e-05
-5.41536e-06
-9.17717e-05
1.97931e-07
-4.91878e-08
-6.70967e-08
-3.43277e-08
-9.47144e-08
1.07354e-09
-4.18283e-10
7.1195e-06
3.70939e-06
4.47677e-06
-3.69715e-05
3.39437e-06
-4.56247e-05
-6.53821e-05
-6.75061e-05
2.17571e-06
-1.70104e-05
-3.13381e-06
-9.12686e-07
-1.08207e-06
-2.247e-05
-1.81093e-06
-0.000952503
0.00207358
2.64277e-05
-1.07138e-05
3.12021e-05
-1.15105e-05
-1.46339e-07
-2.1769e-07
-7.16011e-08
1.40995e-07
9.23965e-06
-3.59626e-05
3.99562e-05
4.18534e-06
4.0268e-10
-2.64846e-10
-9.09383e-06
4.27346e-05
2.25812e-05
-3.62118e-05
2.76938e-05
0.000350795
-0.000388183
-3.48672e-05
4.62601e-06
-3.42691e-05
3.74434e-05
9.32538e-06
7.54555e-08
5.06783e-08
8.14085e-07
1.05055e-06
-1.63638e-06
1.00036e-06
1.85154e-06
-1.93508e-06
6.86158e-07
1.63362e-06
1.95036e-06
1.55431e-05
-1.05392e-05
1.85976e-06
1.45314e-06
1.22167e-08
-8.70695e-09
1.37014e-08
7.44205e-09
1.45792e-05
-1.11834e-05
2.6431e-06
5.1513e-06
1.60674e-08
-1.08889e-08
1.96183e-08
9.17241e-09
0.00503004
0.00610155
-1.27038e-10
5.53188e-08
1.23565e-08
2.80485e-07
1.2402e-08
2.26545e-07
4.19967e-08
2.87978e-07
-4.29831e-07
-1.53263e-07
-2.80139e-07
2.339e-09
-8.29817e-10
2.70609e-09
6.84969e-10
-2.82964e-09
6.63752e-09
-7.79457e-09
-3.25708e-09
0
7.91207e-10
-9.57729e-10
0
-1.67915e-06
1.88212e-06
-5.03539e-07
3.22412e-07
6.92035e-07
2.78583e-07
-1.25481e-07
4.19105e-06
-5.13553e-05
7.28019e-05
-8.56557e-06
6.31369e-06
3.40304e-06
9.01016e-06
6.97462e-06
-8.11285e-06
1.34001e-05
1.90626e-05
1.6342e-06
-3.23847e-06
3.94536e-06
-1.71637e-05
-1.24119e-05
5.03502e-06
8.6407e-06
-0.000233059
-0.000156339
0
1.18518e-08
0
2.25834e-05
-2.82508e-06
0.00134217
0.00160191
-5.28979e-07
-2.98132e-05
-0.000370669
-2.78226e-05
7.3832e-07
-2.93367e-05
0.00180433
-6.64636e-08
2.33195e-05
3.50936e-08
2.91962e-09
-3.52808e-08
3.47021e-09
-2.35256e-09
-3.56781e-05
8.52976e-05
-3.53883e-07
-0.000141448
-0.000626843
5.06702e-08
4.51088e-08
-1.18398e-08
-0.000789998
6.53256e-07
0.00197414
-8.18739e-05
8.55223e-05
9.83675e-09
0.000116643
-0.00062308
0.00034604
-0.000458608
1.22891e-05
0.000346938
-1.31097e-06
-6.50547e-07
-1.0506e-06
-0.000701936
-1.40694e-06
5.47577e-07
0
-3.82547e-10
-0.000234648
-1.20606e-09
0.000130637
-7.24048e-08
0.000114681
-8.93935e-10
-6.8465e-05
-7.46878e-05
1.77579e-06
1.40134e-07
-0.000237185
-0.00044605
-0.000138783
-8.88606e-08
3.69308e-07
3.46206e-08
0.000585788
1.00848e-06
-0.00010255
-1.25065e-06
6.16465e-08
-1.31376e-06
0.0025689
-4.43683e-07
6.31117e-05
-3.73952e-05
-6.69806e-08
1.93666e-10
-7.2333e-06
1.27901e-06
-0.000286703
0.000429722
-1.43054e-07
-2.01956e-05
-1.45874e-07
-1.68097e-05
-1.1452e-08
-4.61044e-09
2.00253e-09
-9.16297e-08
5.7982e-08
-1.74957e-08
1.18973e-06
3.24217e-06
-4.59158e-07
2.62262e-05
4.51613e-09
2.17531e-06
1.01538e-05
1.64546e-05
-7.33804e-05
-1.61529e-08
8.49376e-09
8.73904e-06
2.41821e-08
-1.45256e-05
-8.51366e-09
-4.09427e-05
1.25366e-05
-2.33511e-05
2.26788e-08
1.74046e-05
-2.72035e-06
7.25027e-09
0.00110136
-1.22418e-07
0.0041523
-1.92086e-07
8.22761e-08
1.82353e-08
2.43982e-08
0.00533549
-1.30964e-09
1.85986e-06
1.22757e-08
-0.00129991
-1.09911e-05
-3.28329e-05
-2.32366e-05
-5.74577e-05
2.912e-07
0
0
8.22378e-08
0.000599904
-1.33641e-05
-1.55989e-07
-2.2884e-10
7.02069e-08
2.20583e-05
-6.54969e-08
-1.7243e-07
0
-3.56643e-05
0
-9.97107e-06
-1.41564e-05
-4.85533e-06
9.35457e-09
-2.7732e-07
3.71646e-07
1.64209e-07
1.16228e-07
1.52224e-07
-2.21298e-06
-1.40625e-06
0.0006598
7.69625e-06
-3.82455e-09
2.54416e-08
-8.43357e-07
-1.31213e-05
-3.12869e-05
-9.78422e-05
-7.06971e-06
-2.26832e-08
-1.46054e-05
-0.000475425
-1.61074e-06
-1.03352e-08
-8.19125e-09
2.88733e-05
-1.85335e-08
1.10718e-08
-8.32082e-09
-1.48717e-08
1.03659e-08
-1.95296e-05
3.31764e-05
-7.72196e-06
-9.71491e-05
0.00536065
-0.000555018
-5.09333e-09
-7.51636e-07
2.92253e-05
0.000499081
1.97503e-06
-0.000562435
-0.000749422
2.32279e-05
-9.72101e-05
0.000263412
-1.0984e-05
-0.00103176
0.000584922
0.000543279
1.31097e-08
6.75877e-07
0.000732765
2.25952e-06
8.752e-07
2.02655e-06
1.68163e-05
1.75081e-06
-6.1966e-09
1.70526e-05
1.50269e-08
3.04493e-08
0.00174161
0.000490415
4.5925e-06
-1.94723e-08
8.13446e-06
9.63041e-06
-3.586e-08
6.01142e-05
3.13954e-08
2.68968e-08
-0.000404021
1.56635e-07
-4.91417e-07
8.75108e-05
0.00105281
2.2089e-06
-0.00175156
0.00102892
0.000561948
-4.23999e-10
5.40777e-07
-8.40724e-06
3.02167e-10
-2.69301e-06
-3.21279e-08
-0.00246997
-5.34252e-06
1.10781e-06
9.97263e-09
7.57625e-06
-7.99443e-09
0.00220752
2.68476e-05
5.75598e-06
0
-5.83312e-06
-3.19383e-10
4.15371e-06
-8.7122e-06
-6.79438e-07
-2.74648e-09
-2.61153e-05
0.00141085
3.50709e-06
9.10933e-06
7.16074e-09
4.15469e-09
0.000212933
-4.94433e-06
-0.000453437
-8.57909e-09
-5.79278e-05
-2.50352e-07
-0.000692142
0
0
-0.000446205
0
1.43771e-07
0.000183661
-1.63415e-06
-1.33086e-08
-0.000151878
-6.70985e-09
0.000337003
2.01957e-08
3.53928e-05
-9.19066e-05
2.85671e-05
-1.59585e-09
-9.36287e-05
-1.15902e-08
-9.24078e-06
5.22664e-09
-0.00146404
3.14164e-05
0.000119263
-3.71066e-08
6.76496e-10
-2.21151e-10
1.07994e-09
-1.99701e-05
1.88603e-10
1.41683e-06
8.59396e-06
-1.47139e-06
-3.60696e-10
4.4401e-07
1.65801e-05
0
-8.17304e-10
-1.09403e-07
3.11269e-09
-1.31904e-09
0
0
-4.68084e-05
2.02678e-09
-3.3558e-07
5.57961e-06
-8.77849e-06
-9.05607e-10
2.50781e-05
-2.43094e-05
-1.15119e-05
3.99667e-10
2.96535e-06
1.15177e-05
-1.68896e-06
1.99655e-08
5.08054e-08
-4.04307e-05
6.43783e-06
-2.32084e-05
-1.563e-08
0.00020343
-1.9604e-05
-0.00099165
-1.46494e-06
1.48232e-05
-2.45664e-05
-0.000511966
5.10725e-07
0.00386957
-0.00080701
-2.50086e-06
-0.00161425
0.000113386
-1.02128e-07
1.66894e-05
3.18827e-05
0.000168744
4.00861e-07
1.45929e-06
7.72517e-07
-6.32528e-06
-1.25973e-07
-5.43349e-06
-0.00126111
-2.04296e-07
0.000578167
8.12628e-07
5.1451e-07
-0.000102191
0.000178366
-3.9593e-06
-1.14915e-05
9.25602e-06
-6.22583e-05
-1.22457e-05
-1.14577e-06
-8.05166e-05
-9.88957e-08
0.00631394
1.79269e-05
-1.35175e-06
0.000142639
-0.000232021
1.0548e-05
-3.62757e-06
8.39399e-08
-4.12527e-05
-0.0001382
-0.000579658
9.7912e-07
-1.31532e-06
0
5.29069e-06
0
2.42434e-05
1.3746e-09
3.95877e-05
-4.47084e-05
-6.0298e-07
-0.000217188
-9.81947e-08
-0.00136705
-5.66235e-05
-4.00784e-08
0.00349145
-2.07565e-09
3.08351e-08
5.62454e-08
2.73973e-05
8.28805e-08
-1.82592e-07
-8.81045e-08
5.73966e-07
-5.25436e-06
-2.55337e-05
8.43701e-06
6.85593e-06
0
1.97985e-05
-6.19435e-06
0
1.15579e-05
-9.05342e-08
0
3.28182e-05
-8.75781e-05
-1.51269e-10
4.3048e-10
2.57601e-05
7.23354e-10
2.48388e-05
0.00280158
-2.29863e-05
4.26491e-05
-1.23155e-05
1.4663e-10
-0.000122262
-9.73612e-09
-0.000129232
4.7913e-06
0.000139655
0.00594143
-1.77499e-08
0
8.15692e-06
-5.16384e-06
2.4206e-06
-3.85952e-09
1.86718e-05
0.00130263
-1.86296e-05
-1.58018e-09
2.3789e-05
6.12645e-06
0.000319122
-5.69582e-10
-6.79916e-06
2.98806e-06
0.000121461
-0.000211571
-8.68982e-07
2.03118e-10
-3.81172e-06
-1.85291e-06
9.81358e-08
3.38872e-08
-7.55411e-05
1.25129e-05
1.02472e-10
-1.64744e-06
-1.37074e-05
1.05002e-06
6.44461e-07
-0.00117276
0.000991097
-1.98624e-05
3.17553e-09
-1.5554e-08
1.25099e-09
-2.14233e-06
1.21866e-06
-1.48416e-08
2.59408e-06
1.9149e-10
3.9256e-09
3.74364e-07
4.02143e-08
-8.09474e-06
0
0
-7.20803e-06
-0.000762273
3.19695e-05
-4.06473e-06
-7.20683e-05
5.0735e-06
-2.3823e-10
-1.87355e-05
6.71084e-05
-7.65748e-07
2.07227e-10
-1.02082e-05
-2.84488e-09
5.94803e-06
-1.26786e-05
-8.56595e-09
-3.66831e-05
-1.51858e-07
9.26636e-09
0.000135659
0
0.000689132
-1.20679e-08
-5.49173e-09
-1.46706e-05
-2.17155e-07
3.68853e-06
-2.02958e-05
-3.44953e-05
-7.16815e-10
1.98363e-08
-7.29114e-06
0.000340945
1.68567e-09
-5.64554e-08
6.46326e-07
-1.28031e-05
6.44675e-07
1.09227e-06
-0.00103189
-7.34091e-05
-3.22146e-05
-2.2861e-05
0.00105659
0.00176515
0.0039734
-1.55995e-07
-8.36644e-06
2.87308e-05
-4.07786e-05
2.5288e-09
0
-0.000179038
2.24584e-08
-6.04577e-05
1.93794e-05
1.01795e-05
3.68475e-06
-0.000229125
7.88988e-05
0.00316831
4.65632e-05
-0.0002735
-3.34275e-08
6.35834e-06
3.44495e-05
0
5.36392e-07
0.00251562
-5.05283e-05
1.18059e-05
-0.000919156
7.16306e-06
-5.18814e-10
0.00765908
-0.000205895
1.04382e-07
8.45747e-06
9.30852e-09
-5.14876e-10
-5.38885e-10
1.39002e-08
-1.9674e-05
0
2.08183e-05
5.21068e-05
-3.96629e-06
1.18733e-05
-2.79869e-08
-0.000757541
-2.22349e-05
2.61881e-08
0.00109958
0.000177932
-2.95528e-05
8.18874e-05
5.09592e-09
2.81994e-06
-6.96677e-09
8.68419e-09
1.01598e-08
-1.05535e-10
-2.17678e-05
8.9888e-09
-2.69322e-05
-0.000266544
-0.000332949
2.60362e-05
1.66682e-05
-0.000108569
6.41015e-09
-7.31055e-06
1.17279e-08
0.00350429
-1.97998e-06
9.21511e-10
2.51323e-05
2.96409e-05
1.64489e-05
1.52813e-05
-0.00104486
4.93172e-07
0
0
-8.44575e-06
5.06771e-08
8.61215e-07
1.26799e-05
1.51498e-09
-1.60718e-08
-8.15256e-05
3.28782e-10
-0.000182342
-1.18171e-09
0.00329536
-0.000382317
-2.01405e-05
-6.86578e-05
2.59246e-10
-4.1346e-05
2.68262e-05
1.60099e-05
-9.06379e-08
3.9214e-07
0.000571991
0.00162948
0.000228401
-0.000218488
8.9465e-07
0.00391422
-4.01279e-05
0
-3.94053e-06
4.25429e-09
1.55943e-09
-5.45122e-05
-8.6254e-06
1.43134e-09
2.33905e-09
-9.64276e-06
-3.72274e-05
5.42983e-08
0.0102212
-2.33868e-06
-4.26117e-05
0
-3.69867e-10
-1.22768e-08
-1.68872e-10
-0.000162765
-6.6432e-09
-1.02067e-08
-4.18519e-05
-1.90896e-05
1.80238e-05
6.9688e-05
0.000470505
-1.98702e-10
1.852e-07
-7.68988e-05
0
-0.00047506
0.00061129
-1.38067e-07
-9.27293e-08
-1.79258e-09
-6.09889e-09
-1.5175e-06
0.00453149
-9.37155e-08
8.78491e-06
0
-0.000151517
1.37879e-05
0
8.27076e-08
1.61648e-05
8.11172e-10
0.000114614
-1.72036e-05
0
-3.92116e-05
0
-4.35292e-05
0.000377725
0
0.000147274
-2.19942e-06
-2.27435e-08
0
-3.87429e-06
-7.67674e-05
-1.79553e-05
0.00543259
5.40519e-05
-4.02105e-10
0.000121716
-0.00022397
5.47479e-07
4.80938e-06
0
1.89239e-05
2.82871e-06
0.000129959
-7.374e-09
3.76535e-05
-5.20898e-06
-9.91861e-06
5.86956e-05
-2.56857e-07
1.94072e-09
-3.98845e-05
-1.39488e-06
-4.84762e-05
-2.23543e-05
-0.0012112
-4.54875e-06
-5.20792e-05
-4.18846e-05
-4.20224e-07
-1.49684e-06
2.43924e-05
9.30529e-10
2.57644e-05
-8.43751e-06
-2.48841e-05
-9.23472e-09
1.12963e-06
-0.000163065
-3.18305e-05
-9.65476e-06
7.59242e-07
-6.4035e-06
8.67607e-10
0.000510373
1.25881e-08
0.00297686
-6.89688e-07
2.42258e-08
3.7316e-07
-0.000167134
-5.13196e-05
-0.00131548
1.00151e-07
9.51511e-06
2.27146e-05
1.79532e-06
1.00182e-08
0
7.82451e-05
-3.09534e-08
8.58496e-10
-3.90161e-06
0.000172149
-3.02259e-05
0.00345338
-6.92101e-06
-0.00164602
-5.67394e-06
-5.5052e-05
-1.98028e-05
3.49043e-05
2.76055e-05
-1.19592e-06
-0.000979915
1.89388e-06
6.7685e-06
-0.0001431
0.00411736
1.23093e-05
-1.04386e-10
0.000563982
-1.52691e-05
0
1.5098e-06
0
-9.28541e-06
1.49128e-08
1.01329e-10
-0.000723481
5.74023e-05
6.94638e-06
-5.52167e-05
-8.88548e-07
9.71739e-09
-0.000294047
0.000303973
-3.02204e-05
-1.98482e-05
5.47676e-05
-1.57993e-05
-1.31314e-08
2.51245e-05
-3.64326e-05
6.58056e-05
-4.57683e-05
-1.85148e-09
1.73802e-05
8.23066e-07
5.07122e-09
-1.01811e-05
1.04836e-08
-6.57404e-06
-0.00010087
-6.16523e-07
0
5.36237e-06
-0.000543367
0.000329251
9.5663e-07
-3.45414e-05
-5.37883e-05
-0.00157314
2.92896e-05
2.75401e-05
2.84342e-05
-7.37812e-05
3.15331e-05
2.79707e-05
-9.54843e-06
-5.51871e-06
1.00474e-05
1.33745e-07
8.67665e-05
-8.88135e-08
-0.000904402
-4.72712e-05
-0.000130398
-1.28057e-07
1.68379e-05
-1.51239e-08
-6.69358e-05
0.00118236
-0.000501821
-2.19129e-05
-0.000176337
6.11158e-05
5.38767e-05
-8.5613e-08
-0.000190483
-5.07943e-09
-2.36144e-09
-7.31798e-10
1.46294e-09
-9.35378e-06
6.87437e-05
-0.0011701
5.31997e-05
-4.05758e-05
-0.000135377
8.32946e-05
-7.61097e-05
5.76303e-07
0.000203214
8.3404e-10
9.78276e-09
1.03267e-09
-1.49628e-05
7.52789e-09
5.50142e-08
-3.59969e-09
1.38127e-06
-1.11348e-09
-1.28716e-09
-5.83267e-06
-0.000172162
-1.27563e-08
1.90321e-05
-5.20729e-09
-9.29845e-05
-8.7644e-09
1.46809e-06
-0.000691893
0
0.000157633
1.45711e-10
-3.74861e-10
1.2175e-10
-6.23284e-05
-0.000163022
0.000118467
-2.15611e-09
-2.28148e-09
0.000136308
9.14934e-10
0
-0.000282343
0
-0.000397257
-8.34499e-10
4.08182e-05
5.62685e-10
-1.76391e-05
-4.90142e-10
5.73921e-07
5.60775e-10
-1.29974e-05
1.04895e-10
4.43902e-06
0
-8.92084e-06
8.96877e-07
-0.000179917
-0.000805907
0.000194841
0.0037977
0.00370294
-2.81916e-07
-2.78981e-07
4.39953e-07
-0.00046015
2.14928e-07
1.37631e-07
2.11314e-07
-8.41952e-08
-0.00112465
-0.00077749
-1.77612e-05
-1.31245e-05
0.0013912
-1.78132e-08
0.00418748
1.73928e-05
8.49253e-06
-1.51814e-05
0.0107267
3.01423e-06
2.69072e-05
5.11356e-10
-3.20328e-05
1.059e-09
8.04785e-09
0.000118315
-0.000571802
-6.43886e-09
-3.94297e-05
0.000267696
0.000154656
8.59306e-06
-4.60344e-08
-1.40346e-07
-0.000220955
-5.41503e-05
5.97452e-06
2.8741e-05
1.56993e-05
1.26797e-05
7.02321e-07
3.07273e-05
8.05577e-08
-6.64031e-07
-1.21428e-05
-1.40371e-05
8.66299e-07
-4.33579e-08
-0.000491184
-1.15478e-10
-9.19572e-05
-1.32255e-08
3.34016e-05
4.42539e-06
-6.79478e-10
-1.32565e-05
1.55902e-05
4.31125e-06
3.32037e-06
6.11667e-07
4.77529e-07
-0.00142747
7.54124e-10
-5.79301e-05
1.12342e-08
-7.0937e-07
-3.20959e-05
9.41129e-07
-1.04196e-09
-0.000328749
1.74104e-05
-1.0615e-05
0
-9.96215e-08
7.64558e-05
3.26535e-10
-2.69296e-07
-6.71928e-05
3.3503e-07
-0.00052466
5.87578e-09
8.65181e-07
-1.57791e-08
-2.53607e-07
8.80588e-08
-5.38547e-05
-5.66608e-06
-1.66427e-05
-1.13962e-06
6.82701e-07
-5.17455e-07
1.70572e-06
-9.0118e-07
-3.06142e-05
0
8.83815e-06
-1.01158e-05
0.000591017
-9.59692e-05
-0.00160714
0.000707884
-4.58964e-08
-0.000938695
1.37063e-07
-0.00142774
5.11251e-08
-0.000720844
-1.15771e-05
-1.5883e-05
-0.000176783
5.0772e-05
-0.000168241
6.04502e-07
-1.03024e-06
3.24506e-07
1.13951e-09
-0.00101889
-0.000137126
-1.45209e-06
-0.00109135
-2.33464e-06
7.95169e-05
0.000256207
2.01357e-05
3.80657e-06
-0.000598962
1.01824e-05
-2.19368e-05
1.77366e-05
-0.000389567
0
0
0
1.29061e-05
-0.000111177
-0.00308937
-8.35941e-09
-0.000282349
0.00162095
-0.00142994
-0.000670697
0.000811362
2.19471e-06
0.00010561
-0.000303919
1.49086e-05
-6.6475e-07
6.75349e-06
0.000582923
0.000129171
2.8353e-05
-0.000139502
0
5.95242e-07
-1.69066e-06
3.39875e-08
-7.41897e-09
2.2124e-08
-4.58136e-05
-0.000112377
7.29681e-05
-6.58136e-05
7.90995e-06
0.000107635
-9.43281e-07
0.000656787
-0.000905591
0.000245858
4.51037e-07
5.29822e-05
0.000332555
0.000634077
-0.00137742
-3.27351e-05
0.000154894
-4.15511e-05
4.33992e-06
-0.000885574
0.00475724
-8.68042e-10
-1.10468e-10
9.23029e-10
-1.64144e-09
3.47664e-07
3.06203e-07
3.39951e-07
0.000771497
1.71509e-07
8.88407e-08
-0.000652233
-1.34822e-07
2.01782e-07
0.000793002
-0.000573425
5.96936e-09
1.25596e-08
-1.05973e-08
-3.34714e-08
9.37237e-08
0.000247409
2.70518e-09
-0.000126874
9.40429e-07
0.000173679
-1.80932e-06
8.11826e-07
-9.86075e-07
-0.000128819
0.0013717
0.000592569
0.00159627
-0.00138375
-7.51748e-05
1.03942e-08
-1.00141e-07
-1.04912e-07
-5.66481e-05
0.000961904
0.000375066
2.90397e-09
-0.000139324
0.000290983
-2.37157e-09
0.00356682
5.10603e-09
2.4461e-07
-3.6424e-09
-0.000722987
0.000653653
-0.000303931
-1.41113e-05
-4.20432e-05
1.03034e-08
-5.36984e-05
-1.1634e-08
-4.73866e-05
-0.00037474
0.000658327
-0.00055699
-0.000191405
-4.28148e-05
2.19443e-05
-9.13164e-06
0.00492236
7.46388e-06
-5.06328e-05
7.49481e-05
-1.45331e-05
-1.51645e-05
0.00372836
0.000392432
9.22743e-07
6.26389e-05
1.23809e-05
-1.03625e-08
-4.89245e-05
-2.72665e-05
1.21145e-07
-1.44076e-07
-1.05818e-06
0.000425328
-6.9817e-05
2.38392e-05
2.11678e-08
-6.01177e-05
-6.3647e-05
0
0.00474799
0.000154419
0.00955807
0.0311983
1.2638e-07
0.000354314
-7.20343e-08
0.000318212
2.21264e-05
-1.75832e-06
6.31472e-10
1.93899e-05
0
0
0
4.96054e-07
-1.92202e-06
-9.46186e-05
0.00112477
0.000996932
0.0016483
0.00121539
-3.23432e-05
-0.000531055
0.00795246
1.51296e-05
3.41414e-08
6.60183e-08
6.3331e-08
9.47249e-08
-0.000195002
8.98713e-08
-9.75206e-08
-3.26685e-08
5.15754e-05
-0.000142341
0.000700977
-0.000597365
2.0903e-09
-1.21888e-08
2.44691e-10
-1.5156e-08
-1.09359e-08
-1.28906e-08
2.67012e-05
5.20548e-06
0.000275494
-0.00105693
0.000199074
-0.0020019
2.34573e-05
0.00334108
0.00403003
0.00770695
-7.73109e-07
-2.92937e-06
-1.31519e-05
-9.80889e-07
-1.92656e-05
-1.67588e-06
-7.43689e-07
6.51954e-07
3.47893e-09
0.000460078
8.45711e-05
8.0692e-08
9.66274e-05
1.07625e-08
2.02193e-05
3.12662e-05
-5.55612e-06
0.00296372
-1.15146e-05
-3.41293e-05
-2.53499e-06
-5.37363e-06
0.00384529
0.000107026
0.00022527
6.40197e-05
0
-1.19047e-06
3.68299e-07
-6.69707e-07
-0.000168864
2.01542e-05
0.000236905
2.33546e-05
-1.33378e-06
-0.000392806
2.54376e-05
-7.79399e-06
-6.11483e-07
-1.0818e-06
1.92132e-08
-2.60654e-07
-7.20567e-05
-2.6702e-10
0.00392053
-0.000927094
3.45224e-08
5.25402e-08
1.83237e-08
1.52825e-09
1.07735e-08
-0.00031803
5.96225e-05
-2.02465e-05
-9.85349e-05
-1.56305e-06
-5.79163e-06
-0.00161446
0.0031641
0.00496946
-7.9858e-05
8.73769e-09
-9.22957e-10
4.57229e-06
2.24374e-06
-1.32008e-06
8.30474e-06
-1.16038e-05
-4.1708e-06
4.21757e-08
3.62332e-08
1.20024e-08
-4.72981e-08
0.00102025
-0.000750269
-0.000117481
1.42256e-05
-0.000288016
-1.34501e-10
1.26566e-10
0
0.000382479
1.10587e-05
0.00211622
-0.00149864
4.86316e-05
0
0
-1.89427e-05
-5.33379e-05
-0.00075201
0
-5.85392e-10
-0.000589852
-0.000611186
0
3.28981e-05
-0.000314257
5.08849e-05
-0.000309117
-1.35454e-05
-1.31428e-05
2.7613e-05
-3.02395e-05
0.000422624
1.94021e-06
-1.94134e-06
2.57566e-05
-7.95618e-06
-0.000370739
2.84902e-05
1.2047e-05
-1.70514e-06
0.000103162
1.36948e-09
-2.08411e-05
-3.99821e-05
-2.76235e-09
9.85546e-09
0.00418242
4.83565e-07
-1.40825e-06
0.00159992
-5.52119e-08
-1.02682e-07
-7.5288e-08
-1.11722e-07
-1.62012e-05
2.76803e-05
-9.33799e-06
2.64684e-05
-5.13503e-09
7.8294e-08
1.03791e-08
-1.23746e-07
-6.91696e-08
8.34748e-05
-2.4817e-05
-6.88516e-05
-1.39379e-05
-8.26389e-06
1.50845e-05
2.3246e-06
-0.000187616
8.31049e-07
0.000105784
3.17218e-07
5.49107e-07
-6.55295e-07
-7.53089e-05
-6.83236e-05
-3.70971e-10
3.24235e-05
-0.00154636
-1.88029e-06
1.806e-06
0.000362553