# vtk DataFile Version 2.0
Unstructured Grid by M++
ASCII
DATASET UNSTRUCTURED_GRID
POINTS 4072 float
  0.828125   0.890625 0
  0.875000   0.531250 0
  0.828125   0.750000 0
  0.593750   0.968750 0
  0.828125   0.671875 0
  0.828125   0.875000 0
  0.593750   0.937500 0
  0.828125   0.656250 0
  0.828125   0.640625 0
  0.828125   0.843750 0
  0.593750   0.906250 0
  0.828125   0.625000 0
  0.781250   0.968750 0
  0.828125   0.609375 0
  0.828125   0.812500 0
  0.593750   0.875000 0
  0.593750   0.828125 0
  0.593750   0.796875 0
  0.828125   0.703125 0
  0.593750   0.765625 0
  0.828125   0.937500 0
  0.812500   0.875000 0
  0.859375   0.515625 0
  0.812500   0.734375 0
  0.812500   0.937500 0
  0.578125   1.000000 0
  0.578125   0.750000 0
  0.812500   0.687500 0
  0.578125   0.953125 0
  0.812500   0.656250 0
  0.812500   0.859375 0
  0.578125   0.921875 0
  0.812500   0.828125 0
  0.578125   0.890625 0
  0.812500   0.593750 0
  0.812500   0.796875 0
  0.578125   0.859375 0
  0.578125   0.812500 0
  0.578125   0.781250 0
  0.796875   1.000000 0
  0.796875   0.859375 0
  0.796875   0.718750 0
  0.562500   0.984375 0
  0.562500   0.937500 0
  0.796875   0.843750 0
  0.562500   0.906250 0
  0.796875   0.812500 0
  0.562500   0.875000 0
  0.796875   0.578125 0
  0.796875   0.781250 0
  0.562500   0.843750 0
  0.812500   0.984375 0
  0.562500   0.796875 0
  0.812500   0.953125 0
  0.562500   0.765625 0
  0.796875   0.937500 0
  0.546875   0.750000 0
  0.781250   0.984375 0
  0.828125   0.593750 0
  0.781250   0.843750 0
  0.781250   0.937500 0
  0.546875   1.000000 0
  0.781250   0.703125 0
  0.546875   0.968750 0
  0.546875   0.921875 0
  0.781250   0.828125 0
  0.546875   0.890625 0
  0.781250   0.796875 0
  0.546875   0.859375 0
  0.781250   0.562500 0
  0.781250   0.765625 0
  0.546875   0.828125 0
  0.796875   0.968750 0
  0.546875   0.781250 0
  0.765625   1.000000 0
  0.765625   0.968750 0
  0.531250   0.984375 0
  0.765625   0.687500 0
  0.531250   0.953125 0
  0.531250   0.937500 0
  0.531250   0.906250 0
  0.765625   0.812500 0
  0.531250   0.875000 0
  0.765625   0.781250 0
  0.531250   0.843750 0
  0.781250   1.000000 0
  0.765625   0.546875 0
  0.765625   0.750000 0
  0.531250   0.812500 0
  0.781250   0.953125 0
  0.531250   0.765625 0
  0.515625   0.750000 0
  0.750000   0.984375 0
  0.750000   0.953125 0
  0.796875   0.593750 0
  0.796875   0.562500 0
  0.750000   0.843750 0
  0.750000   0.937500 0
  0.515625   1.000000 0
  0.750000   0.906250 0
  0.515625   0.968750 0
  0.750000   0.671875 0
  0.750000   0.875000 0
  0.515625   0.937500 0
  0.515625   0.921875 0
  0.515625   0.890625 0
  0.750000   0.796875 0
  0.515625   0.859375 0
  0.750000   0.765625 0
  0.515625   0.828125 0
  1.000000   0.718750 0
  0.750000   0.531250 0
  0.750000   0.734375 0
  0.515625   0.796875 0
  0.734375   1.000000 0
  0.734375   0.968750 0
  0.734375   0.937500 0
  0.781250   0.578125 0
  0.781250   0.546875 0
  0.968750   0.578125 0
  0.734375   0.828125 0
  0.968750   0.546875 0
  0.734375   0.796875 0
  0.734375   0.765625 0
  0.968750   0.671875 0
  0.734375   0.734375 0
  0.968750   0.640625 0
  0.734375   0.703125 0
  0.968750   0.609375 0
  0.734375   0.671875 0
  0.734375   0.656250 0
  0.734375   0.625000 0
  0.968750   0.531250 0
  0.734375   0.593750 0
  0.984375   0.734375 0
  0.984375   0.703125 0
  0.734375   0.515625 0
  0.718750   0.984375 0
  0.718750   0.953125 0
  0.718750   0.921875 0
  0.953125   0.562500 0
  0.718750   0.812500 0
  0.953125   0.531250 0
  0.718750   0.781250 0
  0.718750   0.750000 0
  0.953125   0.656250 0
  0.718750   0.718750 0
  0.953125   0.625000 0
  0.718750   0.687500 0
  0.953125   0.593750 0
  0.718750   0.656250 0
  0.671875   1.000000 0
  0.718750   0.640625 0
  0.718750   0.609375 0
  0.953125   0.515625 0
  0.718750   0.578125 0
  0.968750   0.718750 0
  0.968750   0.687500 0
  0.953125   0.671875 0
  0.703125   0.968750 0
  0.703125   0.937500 0
  0.937500   0.656250 0
  0.703125   0.906250 0
  0.937500   0.546875 0
  0.703125   0.796875 0
  0.937500   0.515625 0
  0.703125   0.765625 0
  0.937500   0.671875 0
  0.703125   0.734375 0
  0.937500   0.640625 0
  0.703125   0.703125 0
  0.937500   0.609375 0
  0.703125   0.671875 0
  0.937500   0.578125 0
  0.703125   0.640625 0
  0.656250   0.984375 0
  0.703125   0.625000 0
  0.703125   0.593750 0
  0.718750   0.796875 0
  0.953125   0.734375 0
  0.812500   1.000000 0
  0.859375   0.656250 0
  0.703125   0.781250 0
  0.937500   0.718750 0
  0.953125   0.703125 0
  0.796875   0.984375 0
  0.843750   0.640625 0
  0.812500   0.968750 0
  0.859375   0.625000 0
  0.796875   0.953125 0
  0.843750   0.609375 0
  0.687500   0.953125 0
  0.687500   0.921875 0
  0.687500   0.890625 0
  0.921875   0.734375 0
  0.687500   0.796875 0
  0.687500   0.781250 0
  0.921875   0.703125 0
  0.687500   0.765625 0
  0.687500   0.750000 0
  0.921875   0.656250 0
  0.687500   0.718750 0
  0.921875   0.625000 0
  0.687500   0.687500 0
  0.921875   0.593750 0
  0.687500   0.656250 0
  0.640625   1.000000 0
  0.921875   0.562500 0
  0.687500   0.625000 0
  0.640625   0.968750 0
  0.687500   0.609375 0
  0.687500   0.578125 0
  0.937500   0.687500 0
  0.921875   0.671875 0
  0.671875   0.921875 0
  0.906250   0.656250 0
  0.671875   0.906250 0
  0.671875   0.875000 0
  0.906250   0.718750 0
  0.671875   0.781250 0
  0.671875   0.765625 0
  0.671875   0.734375 0
  0.906250   0.640625 0
  0.671875   0.703125 0
  0.906250   0.609375 0
  0.671875   0.671875 0
  0.906250   0.578125 0
  0.671875   0.640625 0
  0.625000   0.984375 0
  0.671875   0.609375 0
  0.625000   0.953125 0
  0.671875   0.593750 0
  0.671875   0.562500 0
  0.765625   0.953125 0
  0.812500   0.609375 0
  0.656250   1.000000 0
  0.656250   0.953125 0
  0.656250   0.906250 0
  0.890625   0.640625 0
  0.656250   0.890625 0
  0.656250   0.859375 0
  0.890625   0.734375 0
  0.656250   0.796875 0
  0.812500   0.921875 0
  0.562500   1.000000 0
  0.625000   0.828125 0
  0.812500   0.843750 0
  0.843750   0.593750 0
  0.812500   0.812500 0
  0.625000   0.718750 0
  0.828125   0.687500 0
  0.640625   0.593750 0
  0.812500   0.781250 0
  0.625000   0.687500 0
  0.765625   0.828125 0
  0.640625   0.562500 0
  0.812500   0.750000 0
  0.562500   0.828125 0
  0.781250   0.875000 0
  0.546875   0.937500 0
  0.781250   0.671875 0
  0.781250   0.593750 0
  0.546875   0.656250 0
  0.796875   0.750000 0
  0.562500   0.812500 0
  0.796875   0.546875 0
  0.765625   0.796875 0
  0.765625   0.593750 0
  1.000000   0.531250 0
  0.812500   0.718750 0
  0.859375   0.562500 0
  0.625000   0.625000 0
  0.812500   0.703125 0
  0.812500   0.906250 0
  0.578125   0.968750 0
  0.984375   0.593750 0
  0.828125   0.578125 0
  0.828125   0.781250 0
  0.593750   0.843750 0
  0.812500   0.671875 0
  0.625000   0.578125 0
  0.796875   0.671875 0
  0.562500   0.734375 0
  0.984375   0.562500 0
  0.828125   0.546875 0
  0.812500   0.640625 0
  0.750000   0.812500 0
  0.625000   0.546875 0
  0.796875   0.640625 0
  0.562500   0.703125 0
  0.828125   0.515625 0
  0.781250   0.734375 0
  0.546875   0.796875 0
  0.781250   0.531250 0
  0.750000   0.781250 0
  0.625000   0.515625 0
  0.796875   0.609375 0
  0.562500   0.671875 0
  0.765625   0.656250 0
  0.765625   0.859375 0
  0.531250   0.921875 0
  0.812500   0.578125 0
  0.562500   0.656250 0
  0.984375   0.687500 0
  0.750000   0.750000 0
  0.812500   0.562500 0
  0.812500   0.765625 0
  0.578125   0.828125 0
  0.562500   0.625000 0
  0.984375   0.656250 0
  0.750000   0.718750 0
  0.812500   0.531250 0
  0.781250   0.656250 0
  0.546875   0.718750 0
  0.781250   0.625000 0
  0.546875   0.687500 0
  0.750000   0.640625 0
  0.796875   0.531250 0
  0.562500   0.593750 0
  0.984375   0.625000 0
  0.750000   0.687500 0
  0.546875   0.984375 0
  0.609375   0.812500 0
  0.796875   0.875000 0
  0.546875   0.953125 0
  0.609375   0.578125 0
  0.843750   0.515625 0
  0.765625   0.515625 0
  0.765625   0.718750 0
  0.531250   0.781250 0
  0.984375   0.546875 0
  0.750000   0.609375 0
  0.796875   0.828125 0
  0.671875   0.968750 0
  0.796875   0.796875 0
  0.796875   0.765625 0
  0.609375   0.671875 0
  0.796875   0.734375 0
  0.546875   0.812500 0
  0.796875   0.703125 0
  0.843750   0.546875 0
  0.609375   0.609375 0
  0.796875   0.687500 0
  0.562500   0.953125 0
  0.796875   0.656250 0
  0.609375   0.562500 0
  0.796875   0.625000 0
  0.609375   0.531250 0
  0.546875   0.640625 0
  0.765625   0.671875 0
  0.531250   0.734375 0
  0.796875   0.515625 0
  0.765625   0.640625 0
  0.531250   0.703125 0
  0.703125   1.000000 0
  0.765625   0.609375 0
  0.531250   0.671875 0
  0.765625   0.578125 0
  0.531250   0.640625 0
  0.546875   0.609375 0
  0.531250   1.000000 0
  0.890625   0.593750 0
  0.656250   0.656250 0
  0.781250   0.515625 0
  0.546875   0.578125 0
  0.531250   0.968750 0
  0.890625   0.562500 0
  0.656250   0.625000 0
  0.609375   0.968750 0
  0.781250   0.859375 0
  0.656250   0.593750 0
  0.750000   0.703125 0
  0.515625   0.765625 0
  0.781250   0.812500 0
  0.781250   0.781250 0
  0.593750   0.687500 0
  0.781250   0.750000 0
  0.593750   0.656250 0
  0.781250   0.718750 0
  0.531250   0.796875 0
  0.828125   0.562500 0
  0.593750   0.625000 0
  0.781250   0.687500 0
  0.828125   0.531250 0
  0.593750   0.593750 0
  0.812500   0.625000 0
  0.578125   0.687500 0
  0.781250   0.640625 0
  0.781250   0.609375 0
  0.593750   0.515625 0
  0.515625   0.781250 0
  0.812500   0.546875 0
  0.578125   0.609375 0
  0.812500   0.515625 0
  0.578125   0.578125 0
  0.750000   0.656250 0
  0.515625   0.718750 0
  0.750000   0.625000 0
  0.515625   0.687500 0
  0.687500   0.984375 0
  0.750000   0.593750 0
  0.515625   0.656250 0
  0.531250   0.546875 0
  0.750000   0.562500 0
  0.515625   0.625000 0
  0.531250   0.515625 0
  0.984375   0.515625 0
  0.750000   0.578125 0
  0.515625   0.531250 0
  0.828125   0.796875 0
  0.640625   0.703125 0
  0.828125   0.765625 0
[...]
CELL_DATA 7648
SCALARS scalar_value float 1
LOOKUP_TABLE default
-4.18351e-05
-2.19928e-05
-9.27565e-09
7.91016e-09
-3.70698e-09
-3.45328e-09
-1.65336e-05
1.39091e-05
-9.77651e-06
-2.9006e-05
0.00127447
-0.000533019
0.00303891
-0.00115963
0.00407707
0.00193928
0.00381672
-0.00134647
5.85129e-05
-2.69813e-06
-4.60873e-05
-9.14684e-05
0.000501376
-0.000636174
2.63246e-05
3.56968e-05
2.34768e-05
-2.83691e-05
2.58348e-05
2.95438e-05
3.01821e-05
-3.51523e-05
4.78975e-10
-1.21593e-10
1.82196e-10
1.42505e-10
0.00141397
0.000649747
-4.85294e-06
-6.02786e-05
-3.57746e-05
0.000135041
0.000697511
0.000329429
2.32234e-09
-2.87283e-09
4.20715e-09
1.10623e-08
5.24696e-09
-1.22686e-08
5.46474e-09
7.75899e-09
3.37133e-09
1.34538e-09
-1.18356e-08
-4.47278e-09
-1.43535e-05
9.20113e-05
9.60568e-05
-0.000123658
9.11241e-05
0.000131391
8.37909e-07
-1.79305e-07
-1.88005e-06
2.39048e-06
-9.28119e-07
1.21236e-07
-4.53436e-07
-1.36406e-05
5.21231e-07
3.71948e-07
1.01162e-08
-0.000141669
-0.000123187
-1.05164e-08
1.09333e-08
-1.06293e-08
-9.86714e-09
-1.07184e-09
-9.42474e-09
1.03159e-08
2.7242e-10
8.71987e-09
-1.09515e-08
4.06127e-09
2.92532e-09
6.45404e-07
-8.21779e-06
1.27087e-05
-1.59093e-07
-3.12818e-07
9.17213e-07
-1.54336e-07
7.50533e-07
8.74619e-07
8.03931e-07
-3.22899e-07
4.37527e-06
-3.97542e-06
-2.0991e-06
-1.58216e-07
-1.44006e-07
-1.60659e-07
4.64819e-06
0
0
0
6.66396e-09
1.30383e-08
2.02581e-08
-1.169e-09
1.04902e-09
-4.79426e-10
2.7565e-09
4.15385e-10
1.45393e-10
3.43195e-10
0
-3.0041e-07
1.33675e-05
-1.20608e-05
1.87037e-05
1.86938e-06
-4.43956e-06
1.39102e-05
1.17224e-05
-2.42869e-09
3.51722e-09
9.85175e-09
-1.72571e-09
2.88192e-09
-9.94042e-10
3.10178e-09
8.24071e-10
-5.45297e-06
8.90662e-05
-4.86959e-05
-2.92917e-05
-0.000137542
1.50838e-10
1.0812e-10
1.64896e-06
-5.47289e-07
-2.21273e-06
1.06269e-06
7.57652e-07
-1.87141e-06
2.18309e-05
-3.32597e-05
3.21051e-05
1.87718e-06
-8.89265e-06
3.56046e-06
9.64735e-06
-3.31728e-07
-8.28868e-07
5.39889e-07
2.23024e-06
-2.0016e-06
7.72808e-07
0.000328004
-3.32851e-05
0.000264402
-9.49846e-05
-0.00052151
-7.16309e-05
-6.61017e-06
-8.6407e-05
1.20392e-06
-8.56109e-08
-4.54936e-08
-9.68323e-08
-1.1299e-07
1.03854e-09
-4.03423e-10
6.91742e-06
3.71277e-06
4.41578e-06
-3.58941e-05
3.39126e-06
-4.42891e-05
-6.34532e-05
-6.54972e-05
1.63105e-06
-1.63339e-05
-3.06977e-06
-9.71637e-07
-3.14309e-06
-1.88217e-05
3.89377e-07
-0.000500626
0.00305682
2.55458e-05
-1.03309e-05
3.01856e-05
-1.11701e-05
-1.66625e-07
-1.66142e-07
-8.94681e-08
1.08693e-07
8.73713e-06
-3.43904e-05
3.81343e-05
3.88924e-06
3.83511e-10
-2.55119e-10
-8.67894e-06
4.08029e-05
2.11336e-05
-3.4649e-05
2.60218e-05
0.000330825
-0.000367273
-3.29592e-05
4.31538e-06
-3.29152e-05
3.58893e-05
8.84448e-06
7.60569e-08
4.54126e-08
7.79158e-07
1.01143e-06
-1.58417e-06
9.67477e-07
1.77833e-06
-1.87179e-06
6.70567e-07
1.58616e-06
1.86382e-06
1.48093e-05
-1.00138e-05
1.73721e-06
1.35539e-06
1.1612e-08
-8.25957e-09
1.30026e-08
7.06355e-09
1.37817e-05
-1.05753e-05
2.4849e-06
4.86467e-06
1.52207e-08
-1.04061e-08
1.87159e-08
8.78219e-09
0.00429258
0.00540638
-1.0071e-07
-3.52185e-08
2.39776e-08
6.93299e-08
-5.34252e-09
2.09048e-07
1.48984e-07
2.72471e-07
-3.75274e-07
-4.0406e-09
-1.66757e-07
2.22481e-09
-7.89283e-10
2.57099e-09
6.51942e-10
-2.69065e-09
6.30905e-09
-7.40725e-09
-3.09272e-09
0
7.5448e-10
-9.12283e-10
0
-1.61269e-06
1.8067e-06
-4.77774e-07
3.0492e-07
6.61987e-07
2.63225e-07
-1.19362e-07
3.76067e-06
-4.90043e-05
6.90818e-05
-8.12298e-06
6.48325e-06
5.30883e-06
8.84713e-06
9.47619e-06
-3.68977e-06
9.15813e-06
1.45868e-05
2.04962e-06
1.13286e-05
1.12164e-05
1.53537e-08
-1.04738e-05
4.62162e-06
8.11485e-06
-0.000219488
-0.000145727
0
1.14977e-08
-1.02342e-10
1.54114e-05
-2.6688e-06
0.00125739
0.00150078
-5.06714e-07
-3.18659e-05
-0.000350868
-3.00733e-05
7.26505e-07
-2.60359e-05
0.00169139
-6.70166e-08
2.10948e-05
3.63469e-08
4.49932e-09
-3.63388e-08
2.92525e-09
3.98032e-10
-3.61314e-05
6.9003e-05
-2.94285e-07
-0.000133589
-0.000594442
4.72624e-08
5.70684e-08
-1.1517e-08
-0.000767613
6.36735e-07
0.00193448
-7.96211e-05
8.74593e-05
9.73156e-09
0.000111666
-0.000574359
0.000326715
-0.000434087
1.19405e-05
0.000327559
-1.30838e-06
-9.09181e-07
-8.48697e-07
-0.000727433
-1.22109e-06
5.74975e-07
0
-3.78656e-10
-0.000365288
-9.63021e-10
0.000122419
-7.56636e-08
0.000109806
-8.56277e-10
-6.63833e-05
-7.51868e-05
8.96425e-07
1.22138e-06
4.50801e-05
-0.00034901
-0.000139237
-8.33857e-08
3.51387e-07
3.28802e-08
0.000552668
1.08809e-06
-0.000105074
-1.20424e-06
6.12419e-08
-1.26989e-06
0.00249887
-2.16385e-07
5.02423e-05
-3.11586e-05
-7.44622e-08
1.8462e-10
-7.1445e-06
1.22867e-06
-0.000270998
0.00040516
-1.36119e-07
-1.98085e-05
-4.2329e-08
-1.45866e-05
-1.55472e-08
-1.22774e-08
1.72882e-09
-7.93158e-08
5.01662e-08
-1.58756e-08
9.23688e-07
2.9154e-06
-6.08323e-07
2.54335e-05
3.20996e-09
1.76935e-06
1.0303e-05
1.64088e-05
-7.14676e-05
-1.2105e-08
3.95799e-09
8.2611e-06
2.36256e-08
-1.38157e-05
-8.10599e-09
-3.99298e-05
1.18707e-05
-2.26328e-05
2.24741e-08
1.65898e-05
-2.6534e-06
6.91122e-09
0.00105371
-6.86023e-08
0.00362851
-1.64661e-07
1.96534e-08
1.78239e-08
1.80502e-08
0.00489863
-1.26721e-09
1.88402e-06
1.30092e-08
-0.0012138
-1.03759e-05
-2.96251e-05
-2.25513e-05
-5.64994e-05
2.95202e-07
0
0
6.76477e-08
0.000378436
-1.00154e-05
-1.67563e-07
-2.00067e-10
7.22262e-08
2.14429e-05
-6.68641e-08
-1.86129e-07
0
-3.20588e-05
0
-8.90182e-06
-1.35258e-05
-4.72519e-06
9.06528e-09
-2.54219e-07
3.28054e-07
1.36267e-07
1.05313e-07
1.75269e-07
-2.18979e-06
-1.21851e-06
0.000612321
5.51768e-06
-8.40639e-09
2.86806e-08
-8.20676e-07
-1.24323e-05
-3.02875e-05
-9.21619e-05
-5.45205e-06
-2.16218e-08
-1.42439e-05
-0.000524455
-1.42453e-06
-9.921e-09
-7.74379e-09
2.71147e-05
-1.79153e-08
1.04861e-08
-7.92328e-09
-1.41076e-08
9.86105e-09
-1.8063e-05
3.16845e-05
-7.37456e-06
-9.18173e-05
0.00418614
-0.000531598
5.55133e-10
-7.32072e-07
1.31676e-05
0.000473404
1.90163e-06
-0.000502697
-0.00068429
2.07883e-05
-9.08739e-05
0.000273746
-1.2555e-05
-0.000974358
0.000551093
0.000340454
1.23342e-08
6.5244e-07
0.000445402
2.26376e-06
8.85418e-07
2.08567e-06
2.17627e-05
1.68996e-06
-1.75952e-09
1.66992e-05
1.44424e-08
2.98165e-08
0.00163181
0.000460418
3.31111e-06
-1.93144e-08
6.79266e-06
9.48112e-06
-3.60128e-08
5.70338e-05
9.34258e-08
5.5403e-09
-0.000363896
1.97185e-07
-4.45381e-07
0.000138222
0.000674072
2.21294e-06
-0.0012144
0.000580296
0.000529292
-3.73737e-09
4.99673e-07
-8.16345e-06
2.89258e-10
-3.21507e-06
-3.12467e-08
-0.00197249
-5.16976e-06
1.06418e-06
9.83194e-09
8.09092e-06
-8.18421e-09
0.0019562
2.2201e-05
5.25576e-06
0
-6.01364e-06
-1.46606e-09
3.34092e-06
-8.26699e-06
-1.16821e-06
-2.5524e-09
-2.53376e-05
0.00128968
3.4954e-06
8.84473e-06
6.9254e-09
3.98777e-09
0.000231207
-4.69069e-06
-0.000429248
-8.00115e-09
-5.62629e-05
-2.21045e-07
-0.000664688
0
0
-0.000458749
0
1.2653e-07
0.000145877
-1.5289e-06
-1.34333e-08
-0.000149251
-5.91369e-09
0.000317636
1.98268e-08
3.25224e-05
-8.7198e-05
2.60746e-05
-1.68776e-09
-8.87149e-05
-1.12876e-08
-7.68457e-06
5.17824e-09
-0.00134383
2.85392e-05
0.000113221
1.92256e-09
6.51153e-10
-2.12248e-10
1.03657e-09
-1.93614e-05
1.81024e-10
1.2894e-06
8.36275e-06
-1.42566e-06
-3.45239e-10
4.10404e-07
1.60382e-05
0
-7.86763e-10
-1.89586e-07
2.9981e-09
-1.26616e-09
0
0
-4.51256e-05
1.95742e-09
-3.42881e-07
5.41886e-06
-8.51231e-06
-1.11226e-09
2.43242e-05
-2.42694e-05
-1.10816e-05
3.99808e-10
2.29473e-06
1.01829e-05
-1.53292e-06
2.0934e-08
4.66417e-08
-3.67965e-05
6.12957e-06
-2.25144e-05
-1.51602e-08
0.000245139
-1.62926e-05
-0.000932549
-1.4267e-06
1.4259e-05
-2.37458e-05
-0.000480982
4.88875e-07
0.0036819
-0.000759142
-2.4484e-06
-0.00151715
0.00010715
-7.87912e-08
1.3234e-05
2.99831e-05
0.000176502
-9.74572e-08
9.03197e-07
9.29895e-07
-5.66847e-06
-1.20369e-07
-2.9147e-06
-0.0011642
-2.63565e-07
0.000608788
8.64391e-07
6.65088e-07
-9.54021e-05
0.000354469
-3.23889e-06
-1.0706e-05
8.68149e-06
-5.79672e-05
-1.13089e-05
-1.10672e-06
-7.47858e-05
-9.34035e-08
0.00758838
1.54334e-05
-1.29552e-06
0.000143143
-0.000230077
1.02378e-05
-3.58451e-06
9.23214e-08
-3.90574e-05
-3.23091e-05
-0.000480782
1.12101e-06
-1.27018e-06
0
5.10564e-06
0
2.35056e-05
7.35374e-08
3.83725e-05
-4.24884e-05
-7.73417e-07
-0.000217711
-8.66723e-08
-0.00129606
-5.48255e-05
-3.50803e-08
0.00335139
-1.92172e-09
2.52641e-08
4.83348e-08
2.62426e-05
7.44177e-08
-1.68048e-07
-7.4132e-08
5.44103e-07
4.11829e-07
-1.87417e-05
1.30886e-05
6.79301e-06
0
2.49249e-05
-7.32122e-06
0
8.87279e-06
-7.62457e-08
0
3.25969e-05
-8.21253e-05
3.13818e-10
4.10903e-10
2.32167e-05
6.17136e-10
2.14691e-05
0.0026978
-2.17551e-05
4.14466e-05
-1.18045e-05
1.1799e-10
-0.000114697
-1.00061e-08
-0.000122543
5.52779e-06
0.000131939
0.00558395
-1.68008e-08
0
7.76152e-06
-4.49096e-06
3.0537e-06
-3.71832e-09
1.78527e-05
0.000847574
-1.32891e-05
-3.78665e-10
2.43472e-05
5.99273e-06
0.000312238
5.16064e-10
-5.07985e-06
2.88331e-06
0.000125181
-0.000205392
-8.22651e-07
3.47754e-10
-3.73504e-06
-1.79117e-06
8.99315e-08
2.36495e-08
-5.71342e-05
1.29577e-05
-4.77357e-10
-1.59336e-06
-1.31619e-05
9.91355e-07
6.16258e-07
-0.00110546
0.000945401
-1.92054e-05
3.0382e-09
-1.34084e-08
-1.38312e-10
-2.72312e-06
1.15499e-06
-1.47628e-08
-2.12679e-06
1.8354e-10
2.25681e-09
-6.3535e-07
3.88239e-08
-7.43324e-06
0
0
-6.99093e-06
-0.000716266
3.10396e-05
-3.43205e-06
-6.86477e-05
4.92132e-06
-3.15319e-10
-1.78318e-05
6.07888e-05
-7.29617e-07
1.7527e-10
-9.11319e-06
-2.65721e-09
6.91264e-06
-1.2295e-05
-8.19989e-09
-3.26887e-05
-7.72869e-08
9.13695e-09
0.000127842
0
0.000648145
-1.17008e-08
-5.22046e-09
-1.1451e-05
-2.23748e-07
3.24831e-06
-1.94174e-05
-3.30278e-05
-2.10092e-10
1.84133e-08
-6.2363e-06
0.000321853
1.13499e-09
-5.05873e-08
6.28831e-07
-1.36124e-05
6.15489e-07
1.06059e-06
-0.000670963
-7.08536e-05
-3.02553e-05
-2.17138e-05
0.00100578
0.00165379
0.00376027
-1.5333e-07
-8.12981e-06
2.65261e-05
-3.70486e-05
2.38968e-09
0
-0.000190172
-2.67628e-08
-5.94658e-05
2.32928e-05
1.09627e-05
3.13009e-06
-0.000227434
8.41309e-05
0.00305165
4.86414e-05
-0.000258599
-3.22e-08
6.25184e-06
3.33678e-05
0
5.07259e-07
0.00237142
-4.97829e-05
1.13676e-05
-0.000851187
6.7686e-06
-4.95119e-10
0.00757741
-0.000175082
1.22994e-07
7.71623e-06
9.15587e-09
-3.7826e-10
-1.62781e-10
1.38381e-08
-1.9077e-05
0
1.75839e-05
5.06695e-05
-3.73704e-06
1.01577e-05
-2.73696e-08
-0.000728051
-2.19547e-05
2.53173e-08
0.00108794
0.000173037
-2.90784e-05
7.94226e-05
4.93973e-09
3.23108e-06
-6.63813e-09
8.37144e-09
9.70562e-09
-1.15246e-10
-2.19927e-05
8.57175e-09
-2.60389e-05
-0.00025018
-0.000320222
2.46521e-05
1.60652e-05
-8.39977e-05
6.24268e-09
-5.70571e-06
1.14037e-08
0.00335932
-1.91359e-06
5.19621e-10
2.94103e-05
2.87495e-05
1.85577e-05
1.4623e-05
-0.000978254
4.70226e-07
0
0
-6.9627e-06
4.80727e-08
8.19976e-07
1.28933e-05
1.44929e-09
-1.48233e-08
-9.16406e-05
-5.56685e-10
-0.000178846
7.68454e-08
0.00315942
-0.000389002
-1.54602e-05
-6.64821e-05
2.49764e-10
-4.0261e-05
2.60143e-05
1.54361e-05
2.93396e-09
3.90132e-07
0.000546701
0.00152869
0.000219173
-0.000216453
8.61668e-07
0.0037037
-3.86541e-05
0
-3.99598e-06
8.5811e-09
1.37129e-09
-5.32911e-05
-8.37058e-06
6.57792e-10
0
2.80352e-06
-3.5992e-05
4.64896e-08
0.0094324
1.29902e-06
-1.37901e-05
0
-3.50974e-10
-1.19668e-08
-1.62961e-10
-0.000148966
-6.61414e-09
-5.86535e-09
-8.21238e-05
-1.95385e-05
1.53682e-05
0.000144109
0.000443324
-3.76247e-10
1.86346e-07
-7.48637e-05
0
-0.000435668
0.000574268
-1.31396e-07
-1.10189e-07
-7.72367e-10
-5.83193e-09
-1.9305e-06
0.00420538
-1.29402e-07
8.50124e-06
0
-0.000156704
4.19865e-06
0
8.26975e-08
1.52678e-05
9.48487e-10
0.000108978
-1.66116e-05
0
-3.77801e-05
0
-4.43086e-05
0.000359757
0
0.000149311
-2.12127e-06
-2.20663e-08
0
-3.09589e-06
-7.19367e-05
-1.89055e-05
0.00385862
5.41286e-05
-5.26015e-10
0.000117803
-0.000219459
5.90245e-07
3.84297e-06
0
1.82615e-05
2.83113e-06
0.000123084
-7.58088e-09
3.44033e-05
-4.53744e-06
-8.89809e-06
-1.62729e-05
-2.18192e-07
1.85063e-09
-3.86161e-05
-1.34225e-06
-2.67292e-05
-2.17064e-05
-0.00113838
-4.42749e-06
-5.16874e-05
-4.07114e-05
-6.65528e-07
1.68134e-07
2.36526e-05
1.96038e-09
2.50366e-05
-5.57081e-06
-2.45543e-05
-8.99471e-09
1.09465e-06
-0.000160816
-9.91911e-06
-9.27331e-06
7.24235e-07
-5.96566e-06
8.25065e-10
0.000481368
1.23506e-08
0.0028145
-6.6797e-07
5.56584e-08
3.76371e-07
-0.000194527
-4.46829e-05
-0.000706234
8.45223e-08
2.07699e-05
2.11027e-05
1.28472e-06
9.7544e-09
0
8.41478e-05
-3.12355e-08
2.71047e-10
-1.46772e-05
0.000170185
-3.05591e-05
0.00327508
-6.80348e-06
-0.00159865
-6.59528e-06
-5.40382e-05
-1.88007e-05
3.35622e-05
2.67017e-05
-1.14459e-06
-0.000902357
1.81262e-06
2.65584e-06
-0.000135474
0.00393221
1.34122e-05
-1.05321e-10
0.000526753
-1.41394e-05
0
1.42171e-06
0
-8.91125e-06
3.13831e-08
0
-0.000688779
4.79536e-05
6.80767e-06
-5.87557e-05
-1.06049e-06
9.33003e-09
-0.000282797
0.000289149
-2.86587e-05
-1.80462e-05
5.2015e-05
-1.54694e-05
-1.27869e-08
2.34729e-05
-3.45805e-05
6.28544e-05
-4.56383e-05
-1.77119e-09
1.64786e-05
8.03393e-07
4.8488e-09
-9.43662e-06
1.0025e-08
-5.75319e-06
-9.95885e-05
-6.21067e-07
0
5.20348e-06
-0.000195573
0.00030862
8.92139e-07
-3.57145e-05
-5.19327e-05
-0.00147588
2.81017e-05
2.75488e-05
2.74002e-05
-7.19039e-05
3.00888e-05
2.72068e-05
-1.03965e-05
-5.4078e-06
9.93727e-06
1.25564e-07
8.47677e-05
-6.47308e-08
-0.000855707
-4.48433e-05
-8.87586e-05
-1.21905e-07
1.6329e-05
-1.51594e-08
-6.49156e-05
0.00111463
-0.000491596
-3.46465e-05
-0.000172938
5.21973e-05
5.87755e-05
1.98012e-08
-0.000177542
-4.87625e-09
-2.25147e-09
3.47001e-10
-4.89348e-10
-4.56817e-06
6.67404e-05
-0.00111051
5.63186e-05
-3.82638e-05
-0.000128383
8.19564e-05
-6.99097e-05
6.53769e-08
0.000191434
0
1.29736e-08
4.63546e-10
-1.43347e-05
1.16324e-08
3.50095e-08
-3.49446e-09
7.7326e-07
-1.07595e-09
-1.2476e-09
-6.02015e-06
-0.000183736
-1.2587e-08
1.6856e-05
-5.03597e-09
-8.81828e-05
-8.48057e-09
1.25531e-06
-0.000662008
1.44892e-10
0.000161395
1.10163e-09
-1.02237e-09
1.18882e-10
-5.11117e-05
-0.000166865
0.00012701
6.48793e-10
-1.69859e-09
0.000138464
-4.57425e-09
0
-0.000266995
0
-0.000385685
-5.49903e-10
5.61773e-05
1.53052e-10
-1.70998e-05
-4.98207e-10
4.01548e-07
-9.95872e-10
-1.26131e-05
0
4.30375e-06
0
-8.66274e-06
8.60444e-07
-0.000176621
-0.00077374
0.000169596
0.00362846
0.00353674
-2.78616e-07
-3.02169e-07
4.50839e-07
-0.000502657
2.12372e-07
1.43052e-07
2.30581e-07
-9.81331e-08
-0.00105455
-0.000617724
-1.68495e-05
-1.23784e-05
0.000908363
-5.88162e-08
0.00280261
1.72838e-05
7.84784e-06
-1.43194e-05
0.0101647
3.5621e-06
2.51492e-05
4.96865e-10
-3.10419e-05
1.64533e-09
7.96225e-09
0.000112505
-0.000526804
-6.24426e-09
-3.88277e-05
0.000252658
0.000151277
8.37732e-06
-7.99246e-08
-1.56795e-07
-0.000208928
-5.24691e-05
8.62574e-06
2.6949e-05
1.34201e-05
1.08731e-05
6.71663e-07
2.98071e-05
6.9991e-08
-7.31089e-07
-1.34018e-05
-1.32176e-05
8.6252e-07
-1.32644e-08
-0.000470581
-1.11049e-10
-8.63746e-05
-1.25717e-08
3.32869e-05
3.77445e-06
-6.46806e-10
-1.25044e-05
1.47353e-05
3.73935e-06
2.6826e-06
5.80764e-07
4.49133e-07
-0.00133572
7.21886e-10
-5.37982e-05
1.0705e-08
-6.38434e-07
-3.11715e-05
1.07992e-06
-9.91086e-10
-0.000312135
2.58919e-05
-1.02363e-05
0
-9.09308e-08
7.23221e-05
2.37153e-10
-2.50554e-07
-6.55083e-05
2.69407e-07
-0.000517072
5.59876e-09
8.33055e-07
1.132e-07
-2.70752e-07
1.69057e-07
-5.25661e-05
-4.28124e-06
-1.63842e-05
-1.12121e-06
6.5642e-07
-4.92525e-07
1.64436e-06
-8.70165e-07
-2.97119e-05
0
-7.05928e-06
-2.05029e-05
0.00055364
-6.83186e-05
-0.0015412
0.000642212
2.01526e-08
-0.000849514
7.88194e-08
-0.00132187
2.34369e-08
-0.000642892
-1.25584e-05
-1.48287e-05
-0.000165178
4.89339e-05
-0.000161899
5.32196e-07
-1.09049e-06
2.42165e-07
1.09595e-09
-0.00097411
-0.000127985
-1.15838e-06
-0.00103202
-3.84912e-06
7.82281e-05
0.000295292
1.95213e-05
3.72258e-06
-0.000535808
9.89934e-06
-2.12751e-05
5.49209e-08
-0.000368989
0
0
0
1.26701e-05
-0.000109806
-0.00289928
-8.14678e-09
-0.000265131
0.00151115
-0.00133771
-0.000628635
0.000513195
2.08002e-06
0.000145619
-0.000302336
1.46043e-05
-6.28815e-07
6.55914e-06
0.000395998
0.000122638
2.56056e-05
-0.000130901
0
5.39141e-07
-1.72712e-06
5.36422e-08
-9.40577e-09
2.64297e-08
-4.34281e-05
-0.000106329
6.9286e-05
-6.22876e-05
7.68939e-06
0.000108509
3.84441e-05
0.000616502
-0.00085682
0.000277278
6.91139e-07
8.5481e-05
0.000319981
0.000590057
-0.00128076
-3.40248e-05
0.000155823
-3.72434e-05
3.65328e-06
-0.000665694
0.00331095
-8.48706e-10
-1.88738e-09
1.05615e-09
-1.95802e-09
3.52492e-07
2.95763e-07
3.29031e-07
0.000743786
1.4996e-07
7.65972e-08
-0.000603845
-1.19789e-07
1.85259e-07
0.000730916
-0.000554685
5.64465e-09
1.23644e-08
-1.01828e-08
-3.51805e-08
9.35926e-08
0.000233063
3.39616e-09
-0.000118949
5.09153e-07
0.000174044
-1.69405e-06
8.96436e-07
-1.29402e-06
-0.000157595
0.000910203
0.000560453
0.00149254
-0.00129391
-7.1179e-05
4.6534e-09
-7.75246e-08
-1.89868e-07
-5.49382e-05
0.000925186
0.000352189
5.05393e-09
-0.000130744
0.000273586
-2.2944e-09
0.00344095
4.98451e-09
2.32964e-07
-3.60994e-09
-0.000685065
0.000615642
-0.000296259
-1.36843e-05
-3.97562e-05
9.88132e-09
-5.29806e-05
-1.11287e-08
-4.49271e-05
-0.000321612
0.000621184
-0.000534365
-0.000145167
-4.2114e-05
1.84128e-05
-8.2546e-06
0.00468231
6.8018e-06
-4.87427e-05
7.13563e-05
-1.38475e-05
-1.37746e-05
0.00359071
0.000371571
9.01256e-07
6.23308e-05
1.18758e-05
-9.43286e-09
-4.70014e-05
-2.65306e-05
7.44997e-08
-8.02618e-08
-1.18994e-06
0.000274981
-6.84077e-05
2.31288e-05
-2.45005e-08
-5.88901e-05
-6.18549e-05
0
0.00447542
0.000145536
0.0090483
0.0298504
1.09428e-07
0.000351656
-6.67988e-08
0.000213156
2.13716e-05
-1.6665e-06
5.09733e-10
1.98889e-05
0
0
0
-2.46329e-07
-2.03115e-06
-8.95111e-05
0.00112856
0.000942646
0.0015929
0.00120378
-3.27403e-05
-0.000553314
0.0061738
1.55931e-05
5.09706e-08
9.41351e-08
1.53035e-08
6.00331e-08
-0.000196202
1.47502e-07
-3.20214e-08
-1.86084e-08
4.98459e-05
-0.000137971
0.000717554
-0.000535106
2.12318e-09
-1.18454e-08
0
-1.30591e-08
-8.93041e-09
-6.54518e-09
2.59142e-05
4.86279e-06
0.000273553
-0.000992051
0.000183415
-0.00154144
2.03374e-05
0.00663344
0.00389092
0.00867166
-1.38335e-06
6.75501e-06
-1.21277e-05
-1.16202e-06
-8.69386e-05
-1.62585e-06
-7.90752e-07
6.24013e-07
3.69507e-09
0.000429991
7.92634e-05
5.79662e-08
9.09659e-05
3.83665e-08
1.97576e-05
3.1326e-05
-5.34627e-06
0.00285182
-1.09045e-05
-3.31481e-05
-2.3051e-06
-5.20789e-06
0.00365276
0.000106926
0.000157767
6.03935e-05
0
-1.21539e-06
4.22922e-07
-6.76196e-07
-0.000164367
4.03968e-05
0.000218162
1.97357e-05
-1.3178e-06
-0.000381642
2.37462e-05
-6.3366e-06
-6.92732e-07
-7.33216e-07
-5.89049e-08
-2.34046e-07
-7.01101e-05
-4.81398e-08
0.00377078
-0.000876665
8.80696e-09
-1.53506e-08
-4.51574e-08
1.35633e-09
1.0632e-08
-2.44784e-05
4.66226e-05
-8.08228e-06
-8.11694e-05
-1.52891e-06
-5.61042e-06
-0.00154123
0.00277292
0.0045888
-7.7705e-05
1.08191e-08
-6.9969e-10
2.17903e-06
2.11064e-06
-9.21275e-07
4.95023e-06
-1.12619e-05
-4.03765e-06
4.17809e-08
4.18829e-08
6.90873e-09
-4.06573e-08
0.000893568
-0.000821517
-7.02673e-05
1.42098e-05
-0.000264492
-1.29786e-10
1.22108e-10
0
0.000358922
1.00256e-05
0.00198922
-0.00140387
4.49766e-05
0
0
1.09451e-05
-5.26262e-05
-0.000697327
0
-5.71311e-10
-0.000544201
-0.000563134
0
3.26015e-05
-0.000328443
5.27901e-05
-0.000296135
-1.37413e-05
-1.29566e-05
2.60093e-05
-2.98402e-05
0.000397241
1.88217e-06
-2.12399e-06
2.28548e-05
-8.29188e-06
-0.00035443
2.65824e-05
1.00483e-05
-3.08714e-07
9.6847e-05
2.4404e-09
-2.38431e-05
-2.66273e-05
-3.69445e-09
1.45065e-08
0.00392719
4.45312e-07
-1.35684e-06
0.00142064
6.65074e-09
-9.05137e-08
-8.07871e-08
-7.20633e-08
-1.54235e-05
2.5843e-05
-7.69344e-06
2.47347e-05
1.25635e-08
5.58239e-08
2.47452e-08
-7.39337e-08
-5.21102e-08
7.94919e-05
-2.42591e-05
-6.68389e-05
-4.09121e-06
-8.33493e-06
1.4046e-05
1.69072e-06
-0.000176977
8.02695e-07
0.000148512
2.95122e-07
5.71254e-07
-5.3158e-07
-7.98798e-05
-6.8035e-05
4.58572e-10
3.83926e-05
-0.00137504
-1.807e-06
1.7394e-06