# vtk DataFile Version 2.0
Unstructured Grid by M++
ASCII
DATASET UNSTRUCTURED_GRID
POINTS 4072 float
  0.828125   0.890625 0
  0.875000   0.531250 0
  0.828125   0.750000 0
  0.593750   0.968750 0
  0.828125   0.671875 0
  0.828125   0.875000 0
  0.593750   0.937500 0
  0.828125   0.656250 0
  0.828125   0.640625 0
  0.828125   0.843750 0
  0.593750   0.906250 0
  0.828125   0.625000 0
  0.781250   0.968750 0
  0.828125   0.609375 0
  0.828125   0.812500 0
  0.593750   0.875000 0
  0.593750   0.828125 0
  0.593750   0.796875 0
  0.828125   0.703125 0
  0.593750   0.765625 0
  0.828125   0.937500 0
  0.812500   0.875000 0
  0.859375   0.515625 0
  0.812500   0.734375 0
  0.812500   0.937500 0
  0.578125   1.000000 0
  0.578125   0.750000 0
  0.812500   0.687500 0
  0.578125   0.953125 0
  0.812500   0.656250 0
  0.812500   0.859375 0
  0.578125   0.921875 0
  0.812500   0.828125 0
  0.578125   0.890625 0
  0.812500   0.593750 0
  0.812500   0.796875 0
  0.578125   0.859375 0
  0.578125   0.812500 0
  0.578125   0.781250 0
  0.796875   1.000000 0
  0.796875   0.859375 0
  0.796875   0.718750 0
  0.562500   0.984375 0
  0.562500   0.937500 0
  0.796875   0.843750 0
  0.562500   0.906250 0
  0.796875   0.812500 0
  0.562500   0.875000 0
  0.796875   0.578125 0
  0.796875   0.781250 0
  0.562500   0.843750 0
  0.812500   0.984375 0
  0.562500   0.796875 0
  0.812500   0.953125 0
  0.562500   0.765625 0
  0.796875   0.937500 0
  0.546875   0.750000 0
  0.781250   0.984375 0
  0.828125   0.593750 0
  0.781250   0.843750 0
  0.781250   0.937500 0
  0.546875   1.000000 0
  0.781250   0.703125 0
  0.546875   0.968750 0
  0.546875   0.921875 0
  0.781250   0.828125 0
  0.546875   0.890625 0
  0.781250   0.796875 0
  0.546875   0.859375 0
  0.781250   0.562500 0
  0.781250   0.765625 0
  0.546875   0.828125 0
  0.796875   0.968750 0
  0.546875   0.781250 0
  0.765625   1.000000 0
  0.765625   0.968750 0
  0.531250   0.984375 0
  0.765625   0.687500 0
  0.531250   0.953125 0
  0.531250   0.937500 0
  0.531250   0.906250 0
  0.765625   0.812500 0
  0.531250   0.875000 0
  0.765625   0.781250 0
  0.531250   0.843750 0
  0.781250   1.000000 0
  0.765625   0.546875 0
  0.765625   0.750000 0
  0.531250   0.812500 0
  0.781250   0.953125 0
  0.531250   0.765625 0
  0.515625   0.750000 0
  0.750000   0.984375 0
  0.750000   0.953125 0
  0.796875   0.593750 0
  0.796875   0.562500 0
  0.750000   0.843750 0
  0.750000   0.937500 0
  0.515625   1.000000 0
  0.750000   0.906250 0
  0.515625   0.968750 0
  0.750000   0.671875 0
  0.750000   0.875000 0
  0.515625   0.937500 0
  0.515625   0.921875 0
  0.515625   0.890625 0
  0.750000   0.796875 0
  0.515625   0.859375 0
  0.750000   0.765625 0
  0.515625   0.828125 0
  1.000000   0.718750 0
  0.750000   0.531250 0
  0.750000   0.734375 0
  0.515625   0.796875 0
  0.734375   1.000000 0
  0.734375   0.968750 0
  0.734375   0.937500 0
  0.781250   0.578125 0
  0.781250   0.546875 0
  0.968750   0.578125 0
  0.734375   0.828125 0
  0.968750   0.546875 0
  0.734375   0.796875 0
  0.734375   0.765625 0
  0.968750   0.671875 0
  0.734375   0.734375 0
  0.968750   0.640625 0
  0.734375   0.703125 0
  0.968750   0.609375 0
  0.734375   0.671875 0
  0.734375   0.656250 0
  0.734375   0.625000 0
  0.968750   0.531250 0
  0.734375   0.593750 0
  0.984375   0.734375 0
  0.984375   0.703125 0
  0.734375   0.515625 0
  0.718750   0.984375 0
  0.718750   0.953125 0
  0.718750   0.921875 0
  0.953125   0.562500 0
  0.718750   0.812500 0
  0.953125   0.531250 0
  0.718750   0.781250 0
  0.718750   0.750000 0
  0.953125   0.656250 0
  0.718750   0.718750 0
  0.953125   0.625000 0
  0.718750   0.687500 0
  0.953125   0.593750 0
  0.718750   0.656250 0
  0.671875   1.000000 0
  0.718750   0.640625 0
  0.718750   0.609375 0
  0.953125   0.515625 0
  0.718750   0.578125 0
  0.968750   0.718750 0
  0.968750   0.687500 0
  0.953125   0.671875 0
  0.703125   0.968750 0
  0.703125   0.937500 0
  0.937500   0.656250 0
  0.703125   0.906250 0
  0.937500   0.546875 0
  0.703125   0.796875 0
  0.937500   0.515625 0
  0.703125   0.765625 0
  0.937500   0.671875 0
  0.703125   0.734375 0
  0.937500   0.640625 0
  0.703125   0.703125 0
  0.937500   0.609375 0
  0.703125   0.671875 0
  0.937500   0.578125 0
  0.703125   0.640625 0
  0.656250   0.984375 0
  0.703125   0.625000 0
  0.703125   0.593750 0
  0.718750   0.796875 0
  0.953125   0.734375 0
  0.812500   1.000000 0
  0.859375   0.656250 0
  0.703125   0.781250 0
  0.937500   0.718750 0
  0.953125   0.703125 0
  0.796875   0.984375 0
  0.843750   0.640625 0
  0.812500   0.968750 0
  0.859375   0.625000 0
  0.796875   0.953125 0
  0.843750   0.609375 0
  0.687500   0.953125 0
  0.687500   0.921875 0
  0.687500   0.890625 0
  0.921875   0.734375 0
  0.687500   0.796875 0
  0.687500   0.781250 0
  0.921875   0.703125 0
  0.687500   0.765625 0
  0.687500   0.750000 0
  0.921875   0.656250 0
  0.687500   0.718750 0
  0.921875   0.625000 0
  0.687500   0.687500 0
  0.921875   0.593750 0
  0.687500   0.656250 0
  0.640625   1.000000 0
  0.921875   0.562500 0
  0.687500   0.625000 0
  0.640625   0.968750 0
  0.687500   0.609375 0
  0.687500   0.578125 0
  0.937500   0.687500 0
  0.921875   0.671875 0
  0.671875   0.921875 0
  0.906250   0.656250 0
  0.671875   0.906250 0
  0.671875   0.875000 0
  0.906250   0.718750 0
  0.671875   0.781250 0
  0.671875   0.765625 0
  0.671875   0.734375 0
  0.906250   0.640625 0
  0.671875   0.703125 0
  0.906250   0.609375 0
  0.671875   0.671875 0
  0.906250   0.578125 0
  0.671875   0.640625 0
  0.625000   0.984375 0
  0.671875   0.609375 0
  0.625000   0.953125 0
  0.671875   0.593750 0
  0.671875   0.562500 0
  0.765625   0.953125 0
  0.812500   0.609375 0
  0.656250   1.000000 0
  0.656250   0.953125 0
  0.656250   0.906250 0
  0.890625   0.640625 0
  0.656250   0.890625 0
  0.656250   0.859375 0
  0.890625   0.734375 0
  0.656250   0.796875 0
  0.812500   0.921875 0
  0.562500   1.000000 0
  0.625000   0.828125 0
  0.812500   0.843750 0
  0.843750   0.593750 0
  0.812500   0.812500 0
  0.625000   0.718750 0
  0.828125   0.687500 0
  0.640625   0.593750 0
  0.812500   0.781250 0
  0.625000   0.687500 0
  0.765625   0.828125 0
  0.640625   0.562500 0
  0.812500   0.750000 0
  0.562500   0.828125 0
  0.781250   0.875000 0
  0.546875   0.937500 0
  0.781250   0.671875 0
  0.781250   0.593750 0
  0.546875   0.656250 0
  0.796875   0.750000 0
  0.562500   0.812500 0
  0.796875   0.546875 0
  0.765625   0.796875 0
  0.765625   0.593750 0
  1.000000   0.531250 0
  0.812500   0.718750 0
  0.859375   0.562500 0
  0.625000   0.625000 0
  0.812500   0.703125 0
  0.812500   0.906250 0
  0.578125   0.968750 0
  0.984375   0.593750 0
  0.828125   0.578125 0
  0.828125   0.781250 0
  0.593750   0.843750 0
  0.812500   0.671875 0
  0.625000   0.578125 0
  0.796875   0.671875 0
  0.562500   0.734375 0
  0.984375   0.562500 0
  0.828125   0.546875 0
  0.812500   0.640625 0
  0.750000   0.812500 0
  0.625000   0.546875 0
  0.796875   0.640625 0
  0.562500   0.703125 0
  0.828125   0.515625 0
  0.781250   0.734375 0
  0.546875   0.796875 0
  0.781250   0.531250 0
  0.750000   0.781250 0
  0.625000   0.515625 0
  0.796875   0.609375 0
  0.562500   0.671875 0
  0.765625   0.656250 0
  0.765625   0.859375 0
  0.531250   0.921875 0
  0.812500   0.578125 0
  0.562500   0.656250 0
  0.984375   0.687500 0
  0.750000   0.750000 0
  0.812500   0.562500 0
  0.812500   0.765625 0
  0.578125   0.828125 0
  0.562500   0.625000 0
  0.984375   0.656250 0
  0.750000   0.718750 0
  0.812500   0.531250 0
  0.781250   0.656250 0
  0.546875   0.718750 0
  0.781250   0.625000 0
  0.546875   0.687500 0
  0.750000   0.640625 0
  0.796875   0.531250 0
  0.562500   0.593750 0
  0.984375   0.625000 0
  0.750000   0.687500 0
  0.546875   0.984375 0
  0.609375   0.812500 0
  0.796875   0.875000 0
  0.546875   0.953125 0
  0.609375   0.578125 0
  0.843750   0.515625 0
  0.765625   0.515625 0
  0.765625   0.718750 0
  0.531250   0.781250 0
  0.984375   0.546875 0
  0.750000   0.609375 0
  0.796875   0.828125 0
  0.671875   0.968750 0
  0.796875   0.796875 0
  0.796875   0.765625 0
  0.609375   0.671875 0
  0.796875   0.734375 0
  0.546875   0.812500 0
  0.796875   0.703125 0
  0.843750   0.546875 0
  0.609375   0.609375 0
  0.796875   0.687500 0
  0.562500   0.953125 0
  0.796875   0.656250 0
  0.609375   0.562500 0
  0.796875   0.625000 0
  0.609375   0.531250 0
  0.546875   0.640625 0
  0.765625   0.671875 0
  0.531250   0.734375 0
  0.796875   0.515625 0
  0.765625   0.640625 0
  0.531250   0.703125 0
  0.703125   1.000000 0
  0.765625   0.609375 0
  0.531250   0.671875 0
  0.765625   0.578125 0
  0.531250   0.640625 0
  0.546875   0.609375 0
  0.531250   1.000000 0
  0.890625   0.593750 0
  0.656250   0.656250 0
  0.781250   0.515625 0
  0.546875   0.578125 0
  0.531250   0.968750 0
  0.890625   0.562500 0
  0.656250   0.625000 0
  0.609375   0.968750 0
  0.781250   0.859375 0
  0.656250   0.593750 0
  0.750000   0.703125 0
  0.515625   0.765625 0
  0.781250   0.812500 0
  0.781250   0.781250 0
  0.593750   0.687500 0
  0.781250   0.750000 0
  0.593750   0.656250 0
  0.781250   0.718750 0
  0.531250   0.796875 0
  0.828125   0.562500 0
  0.593750   0.625000 0
  0.781250   0.687500 0
  0.828125   0.531250 0
  0.593750   0.593750 0
  0.812500   0.625000 0
  0.578125   0.687500 0
  0.781250   0.640625 0
  0.781250   0.609375 0
  0.593750   0.515625 0
  0.515625   0.781250 0
  0.812500   0.546875 0
  0.578125   0.609375 0
  0.812500   0.515625 0
  0.578125   0.578125 0
  0.750000   0.656250 0
  0.515625   0.718750 0
  0.750000   0.625000 0
  0.515625   0.687500 0
  0.687500   0.984375 0
  0.750000   0.593750 0
  0.515625   0.656250 0
  0.531250   0.546875 0
  0.750000   0.562500 0
  0.515625   0.625000 0
  0.531250   0.515625 0
  0.984375   0.515625 0
  0.750000   0.578125 0
  0.515625   0.531250 0
  0.828125   0.796875 0
  0.640625   0.703125 0
  0.828125   0.765625 0
[...]
CELL_DATA 7648
SCALARS scalar_value float 1
LOOKUP_TABLE default
9.35771e-06
-1.05008e-05
-7.8528e-09
6.69942e-09
-3.13137e-09
-2.93799e-09
-1.51325e-05
1.15539e-05
-8.10159e-06
-2.5839e-05
0.000996032
-0.000443678
0.00240469
-0.000935228
0.00331823
0.00152118
0.00311743
-0.00107779
5.09837e-05
-5.59293e-07
-3.84868e-05
-7.91282e-05
0.000415316
-0.000534687
2.17397e-05
3.17175e-05
2.10765e-05
-2.75662e-05
2.10651e-05
3.27466e-05
2.21878e-05
-2.34163e-05
4.42275e-10
-1.20244e-10
0
1.31957e-10
0.00110703
0.00052071
9.02441e-07
4.54469e-06
-3.2323e-05
0.000111553
0.000544966
0.000269366
2.1366e-09
-2.63845e-09
3.85711e-09
1.04584e-08
4.91089e-09
-1.29657e-08
6.85264e-09
6.80611e-09
3.42051e-09
1.27353e-09
-1.34699e-08
-6.05895e-09
-1.10979e-05
7.9467e-05
8.25985e-05
-0.000105452
7.47384e-05
0.000103261
7.48252e-07
-1.5557e-07
-1.65751e-06
2.13092e-06
-8.1647e-07
1.06714e-07
-3.97403e-07
-1.35963e-05
5.11997e-07
2.7989e-07
8.685e-09
-0.000120706
0.000152011
-9.74576e-09
1.0072e-08
-9.62342e-09
-9.01411e-09
-6.99256e-10
-8.67728e-09
9.4298e-09
5.05032e-10
8.5023e-09
-1.0233e-08
3.36954e-09
2.37381e-09
1.23228e-06
-4.51909e-07
6.1472e-06
-1.38683e-07
-2.6523e-07
7.94727e-07
-1.34683e-07
7.14709e-07
7.54232e-07
7.6649e-07
-2.70864e-07
3.92748e-06
-3.5496e-06
-1.93137e-06
-1.37743e-07
-1.14851e-07
-1.38851e-07
8.16583e-07
0
0
0
-4.93395e-08
1.15828e-08
-5.16733e-08
-3.93708e-09
9.6462e-10
-4.39442e-10
2.54826e-09
3.80699e-10
1.32505e-10
3.12581e-10
0
-1.54163e-06
1.17623e-05
-1.03735e-05
1.59955e-05
1.83472e-06
-3.79458e-06
1.17091e-05
9.85039e-06
-1.37263e-09
3.41526e-09
1.28953e-09
-1.87269e-09
2.45418e-09
-8.4355e-10
2.62583e-09
7.00598e-10
-1.46563e-05
7.92516e-05
-3.67596e-05
-1.94433e-05
-0.000124789
1.28393e-09
0
1.4594e-06
-4.20487e-07
-1.99641e-06
1.24805e-06
1.87324e-06
-1.64544e-06
1.74216e-05
-2.74355e-05
2.56935e-05
2.39215e-06
-5.85387e-06
3.76692e-06
5.22851e-06
-1.52377e-06
-8.11006e-07
-1.4326e-06
1.96947e-06
-1.83671e-06
6.6795e-07
0.000266497
-2.48401e-05
0.000215788
-8.04955e-05
-0.000465704
-5.64014e-05
-9.51948e-06
-7.00127e-05
3.68801e-06
1.55552e-08
9.05565e-08
7.03888e-08
1.06872e-07
9.53239e-10
-3.67569e-10
6.25181e-06
3.65403e-06
4.15212e-06
-3.23096e-05
3.33481e-06
-3.98641e-05
-5.71009e-05
-5.88912e-05
3.47038e-07
-1.34074e-05
-3.0171e-06
-1.55326e-06
-3.58698e-06
-1.49365e-05
-2.27195e-06
8.21208e-05
0.00146956
2.26707e-05
-9.08961e-06
2.68632e-05
-1.00506e-05
-2.05549e-07
-1.6377e-08
-2.13411e-07
5.40865e-09
7.19516e-06
-2.94535e-05
3.24476e-05
2.9911e-06
3.3213e-10
-2.29757e-10
-7.41476e-06
3.47826e-05
1.68021e-05
-2.97372e-05
2.09807e-05
0.000270032
-0.000303132
-2.71025e-05
3.36646e-06
-2.86009e-05
3.09801e-05
7.34473e-06
7.72694e-08
2.99875e-08
6.72452e-07
8.86395e-07
-1.40555e-06
8.46274e-07
1.54702e-06
-1.66253e-06
6.11805e-07
1.42989e-06
1.58552e-06
1.2546e-05
-8.42084e-06
1.39016e-06
1.07405e-06
1.0102e-08
-7.08601e-09
1.11425e-08
6.05929e-09
1.13737e-05
-8.75119e-06
2.03368e-06
4.03353e-06
1.28146e-08
-8.72443e-09
1.54919e-08
7.37427e-09
0.00311666
0.00418581
-8.46487e-09
-3.27746e-08
1.33084e-08
-1.26455e-07
4.76544e-09
-1.08257e-07
-1.658e-08
-1.62889e-07
-3.39222e-07
3.78214e-08
8.16069e-08
1.93783e-09
-6.81367e-10
2.21162e-09
5.63159e-10
-2.34377e-09
5.48666e-09
-6.44415e-09
-2.65981e-09
0
6.46049e-10
-7.8014e-10
0
-1.4053e-06
1.58191e-06
-3.98137e-07
2.50302e-07
5.68487e-07
2.1363e-07
-9.98771e-08
2.30853e-06
-4.10996e-05
5.75782e-05
-5.08863e-06
6.59536e-06
3.59719e-06
7.79367e-06
9.21962e-06
1.07026e-08
1.54355e-06
4.05012e-06
2.13764e-06
2.46965e-05
9.37711e-06
2.67322e-05
-1.75587e-06
3.58392e-06
6.76629e-06
-0.000178368
-0.000114183
0
1.0652e-08
-1.07443e-10
1.20225e-06
-2.26898e-06
0.00100229
0.001197
-4.44532e-07
-3.65707e-05
-0.000289806
-3.53427e-05
6.84715e-07
-1.65411e-05
0.00134194
-6.83807e-08
1.54161e-05
4.00258e-08
8.93062e-09
-3.91119e-08
-1.81899e-09
-1.22418e-09
-2.78747e-05
5.1472e-05
-2.071e-07
-0.000110145
-0.000486772
4.12614e-08
2.87841e-08
-1.08159e-08
-0.000676799
5.89712e-07
0.00175773
-7.00301e-05
8.98678e-05
9.6477e-09
9.58011e-05
-0.000430339
0.000267707
-0.000358772
1.0793e-05
0.000268408
-1.36327e-06
-1.43195e-06
-7.67884e-07
-0.000704744
-1.09615e-06
4.0644e-07
1.9295e-10
-3.68161e-10
-0.000405368
-2.99681e-10
9.7833e-05
-8.48933e-08
9.42478e-05
-7.33895e-10
-5.95529e-05
-6.91988e-05
-8.24744e-07
2.27852e-06
0.000494545
3.8851e-05
-0.000132633
-6.75085e-08
3.00792e-07
2.69193e-08
0.000449435
9.79483e-07
-0.000107054
-1.02592e-06
9.65905e-08
-1.10297e-06
0.00223627
1.07544e-06
4.68061e-05
-2.99576e-05
1.71195e-08
1.59699e-10
-6.87415e-06
7.74335e-07
-0.000221396
0.000330905
-1.14387e-07
-1.4168e-05
1.27105e-07
-8.63429e-06
3.19203e-09
-7.13435e-10
4.90607e-10
-5.16201e-08
3.2074e-08
-1.54993e-08
3.78796e-07
1.85209e-06
-8.9521e-07
2.25059e-05
3.08767e-09
7.45448e-07
1.08056e-05
1.56781e-05
-6.46456e-05
2.35591e-08
3.13664e-08
6.89138e-06
1.92758e-08
-1.16611e-05
-7.03203e-09
-3.63101e-05
9.94294e-06
-2.02773e-05
1.89015e-08
1.40944e-05
-2.43297e-06
5.99882e-09
0.000878474
-3.50313e-08
0.00274546
-1.47208e-07
-4.73286e-08
1.59297e-08
1.80602e-08
0.0040007
-1.16368e-09
1.90821e-06
6.93867e-09
-0.000992293
-8.61686e-06
-2.12098e-05
-2.03113e-05
-5.27852e-05
3.05758e-07
0
0
8.88497e-09
-6.00967e-06
-7.21411e-07
-2.0254e-07
0
5.49653e-08
1.96607e-05
-7.47129e-08
-1.72745e-07
0
-2.02802e-05
0
-5.56062e-06
-1.16022e-05
-4.33789e-06
7.62248e-09
-1.399e-07
1.79619e-07
-4.6349e-08
3.50126e-08
-2.30972e-08
-2.02033e-06
-5.71365e-07
0.000463024
3.99056e-07
-1.24071e-09
-6.49876e-09
-7.49518e-07
-1.03622e-05
-2.695e-05
-7.45869e-05
-9.44283e-07
-1.78794e-08
-1.32046e-05
-0.000607784
-7.07719e-07
-8.64828e-09
-6.63082e-09
2.178e-05
-1.6092e-08
8.9571e-09
-7.00889e-09
-1.21017e-08
8.64445e-09
-1.36523e-05
2.70451e-05
-6.2765e-06
-7.52008e-05
0.000812722
-0.000481525
-1.48677e-09
-4.43566e-07
-2.11055e-05
0.000387378
1.66961e-06
-0.000332855
-0.000492933
1.36968e-05
-7.21308e-05
0.000278606
-1.47592e-05
-0.000807282
0.000453341
0.000126359
1.00349e-08
5.9457e-07
-6.36126e-05
1.94563e-06
9.25947e-07
1.98572e-06
1.86402e-05
1.49248e-06
-8.22265e-10
1.54042e-05
1.26893e-08
2.75329e-08
0.00130128
0.000369204
1.99891e-07
-1.88321e-08
3.83394e-06
8.9606e-06
-3.07788e-08
4.70832e-05
8.41991e-08
-2.50598e-08
-0.000233719
1.40569e-07
-5.19418e-07
0.000204276
4.65363e-05
1.89289e-06
-0.000244982
0.000105816
0.000433245
-7.99562e-09
3.69867e-07
-7.35775e-06
2.57924e-10
-4.27645e-06
-2.84448e-08
-0.000441603
-4.75248e-06
9.27805e-07
9.59371e-09
4.66175e-06
-8.36435e-09
0.00159692
8.65695e-06
3.85243e-06
-2.46418e-10
-5.34046e-06
-3.21537e-09
2.19059e-06
-7.22449e-06
-2.16456e-06
-2.04807e-09
-2.27525e-05
0.00115084
3.39536e-06
7.97771e-06
6.36146e-09
3.59438e-09
0.000258211
-3.8997e-06
-0.000354697
-6.27118e-09
-5.07505e-05
-1.27539e-07
-0.000582495
0
0
-0.000418672
0
4.05122e-08
3.92673e-05
-8.65726e-07
-1.38686e-08
-0.000131422
-3.79301e-09
0.000256668
1.86143e-08
2.41137e-05
-7.24042e-05
1.87096e-05
-1.85078e-09
-7.3318e-05
-1.06509e-08
-3.2902e-06
5.01483e-09
-0.000987442
2.05313e-05
9.41674e-05
4.3662e-08
5.90375e-10
-1.90784e-10
9.32954e-10
-1.73603e-05
1.62694e-10
9.20791e-07
7.59584e-06
-1.27139e-06
-3.0786e-10
2.97927e-07
1.41392e-05
0
-7.1367e-10
-4.03832e-07
2.72552e-09
-1.14018e-09
0
0
-3.9742e-05
1.79069e-09
-3.64833e-07
4.89043e-06
-7.64034e-06
-1.65482e-09
1.41769e-05
-2.3208e-05
-9.519e-06
8.66904e-10
1.76288e-06
5.40425e-06
-8.12386e-07
2.01992e-08
3.80686e-08
-2.63876e-05
5.21807e-06
-2.02028e-05
-1.39167e-08
0.000351461
-1.01957e-05
-0.000730331
-1.23228e-06
1.24269e-05
-2.08612e-05
-0.000385188
4.21047e-07
0.0030579
-0.000610707
-2.27553e-06
-0.00122011
8.65179e-05
-1.18129e-09
5.45625e-06
2.42997e-05
0.000183274
-1.27778e-06
-9.36758e-07
1.17936e-06
-4.24949e-06
-1.02006e-07
1.58705e-06
-0.00100021
-2.00342e-07
0.000567679
6.99525e-07
1.10989e-06
-7.54953e-05
0.000577856
-1.31081e-06
-8.41466e-06
7.14853e-06
-4.50697e-05
-8.60137e-06
-9.80631e-07
-6.95835e-05
-7.61024e-08
0.00473786
8.83056e-06
-1.11467e-06
0.000139081
-0.000211463
9.21989e-06
-3.23562e-06
7.91636e-08
-3.24339e-05
8.66708e-05
-0.000239942
1.14576e-06
-1.12082e-06
0
4.55538e-06
0
2.10845e-05
1.09274e-07
3.41115e-05
-3.51838e-05
-7.35501e-07
-0.000210162
-6.04804e-08
-0.00107329
-4.89229e-05
-2.30427e-08
0.00292285
-1.52456e-09
2.34322e-08
3.52032e-08
2.25118e-05
5.75054e-08
-1.34201e-07
-4.56729e-08
4.58481e-07
4.44361e-07
-8.57282e-06
1.04534e-05
1.19814e-05
0
1.63585e-05
-9.7744e-06
0
9.74855e-06
-4.1437e-08
0
3.11815e-05
-6.53868e-05
5.59255e-10
3.62784e-10
1.27973e-05
3.71399e-10
1.16252e-05
0.00234214
-1.89284e-05
3.7396e-05
-1.02182e-05
0
-9.21335e-05
-1.08615e-08
-0.000101082
5.20279e-06
0.000107892
0.00449529
-1.41495e-08
0
6.62126e-06
-2.6667e-06
4.80297e-06
-3.38306e-09
1.53464e-05
0.000102685
-4.49596e-06
-8.84371e-10
2.45998e-05
5.44868e-06
0.000280744
8.09776e-10
-7.00362e-07
2.5221e-06
0.000126884
-0.000182045
-6.65704e-07
2.21008e-10
-4.00467e-06
-1.58516e-06
5.35851e-08
-5.63079e-09
-2.38173e-05
1.38248e-05
-7.63316e-10
-1.41709e-06
-1.14786e-05
8.21072e-07
5.2963e-07
-0.000900348
0.000780132
-1.68774e-05
2.5718e-09
-4.43388e-09
-4.422e-09
-1.839e-06
9.52083e-07
-1.45061e-08
-7.45247e-07
1.64496e-10
-1.34438e-09
-1.24001e-06
2.71723e-08
-5.60498e-06
0
0
-6.27728e-06
-0.000625473
2.79269e-05
-2.25888e-06
-5.78862e-05
4.42168e-06
-6.98951e-10
-1.50686e-05
4.24227e-05
-6.13222e-07
0
-6.11465e-06
-2.10894e-09
9.29225e-06
-1.01078e-05
-7.39016e-09
-2.82497e-05
4.32453e-08
8.84853e-09
0.000103619
-1.45137e-10
0.000522356
-1.08347e-08
-4.40328e-09
-9.30107e-06
7.70834e-08
2.01715e-06
-1.6677e-05
-2.84191e-05
1.04258e-09
1.37844e-08
-3.27225e-06
0.000263581
-4.93643e-10
-3.85433e-08
5.67924e-07
-1.44619e-05
5.24621e-07
9.54472e-07
-0.000176165
-6.2737e-05
-2.44434e-05
-1.82453e-05
0.000824366
0.00131804
0.00327553
-6.82547e-08
-7.3496e-06
2.24489e-05
-2.61462e-05
2.06971e-09
0
-0.000203389
-2.39089e-08
-5.47227e-05
2.89519e-05
3.31943e-06
1.85469e-06
-0.000208984
8.19548e-05
0.00263361
5.34513e-05
-0.000211863
-2.82382e-08
5.86116e-06
2.98082e-05
0
3.77894e-07
0.00191402
-4.68253e-05
1.01186e-05
-0.000644914
5.60628e-06
-4.37118e-10
0.0034254
-9.71436e-05
6.77447e-08
1.09811e-06
8.72816e-09
1.0405e-09
1.17909e-09
1.36481e-08
-1.71576e-05
0
9.74782e-06
4.53366e-05
-3.0898e-06
5.31572e-06
-2.53734e-08
-0.000619457
-2.07977e-05
2.27776e-08
0.000933357
0.00015476
-2.71167e-05
7.09947e-05
4.55937e-09
4.26058e-06
-5.85262e-09
7.63593e-09
8.66642e-09
-1.33314e-10
-2.20451e-05
7.37839e-09
-2.31215e-05
-0.000199528
-0.000304362
2.03589e-05
1.41029e-05
-2.96879e-05
5.81723e-09
-1.29415e-06
1.06081e-08
0.00285881
-1.68756e-06
1.0668e-09
3.43766e-05
2.58181e-05
2.18581e-05
1.25403e-05
-0.000768933
3.94206e-07
0
0
-4.22336e-06
-6.99593e-09
7.01445e-07
1.30483e-05
1.29215e-09
-1.12836e-08
-0.000108545
8.14214e-10
-0.000150462
1.96355e-08
0.0026816
-0.000389604
-7.07728e-06
-5.94361e-05
2.25172e-10
-3.65978e-05
2.33468e-05
1.35348e-05
-1.33682e-07
3.83722e-07
0.000466993
0.00138238
0.000185853
-0.000201289
7.54809e-07
0.0030379
-3.39796e-05
0
-3.99424e-06
1.3034e-08
-3.36981e-09
-4.82626e-05
-7.53083e-06
-4.16103e-09
-7.5989e-10
-5.92614e-07
-3.08788e-05
-4.06332e-08
0.00394739
2.03956e-06
9.41034e-05
0
-3.00194e-10
-1.11931e-08
-1.48537e-10
-0.00011185
-6.47184e-09
1.3509e-09
-7.48329e-05
-1.97094e-05
9.14556e-06
0.000239089
0.000360619
7.60556e-10
3.67809e-07
-6.7753e-05
0
-0.00034724
0.000461177
-1.10249e-07
-7.77238e-08
1.27799e-09
-5.20551e-09
-2.9432e-06
0.00357673
-8.03182e-08
7.55791e-06
0
-0.000159967
-1.23296e-05
0
8.25439e-08
1.26524e-05
-3.26253e-09
9.11365e-05
-1.46878e-05
0
-3.31037e-05
1.24506e-10
-4.44706e-05
0.00029795
0
0.000146859
-1.87277e-06
-2.01256e-08
0
-2.20742e-06
-5.77408e-05
-2.12228e-05
0.00107507
5.23152e-05
-3.19984e-10
0.000103363
-0.000198964
6.63018e-07
1.71153e-06
0
1.61061e-05
2.78146e-06
0.000101536
-8.27535e-09
2.52599e-05
-5.8906e-07
-5.9846e-06
-8.70611e-05
-5.75673e-08
1.6318e-09
-3.44416e-05
-1.17121e-06
1.35015e-05
-1.95669e-05
-0.000930701
-4.01159e-06
-4.86865e-05
-3.67477e-05
-8.6007e-07
4.11907e-06
2.12389e-05
8.77891e-10
2.26177e-05
6.8275e-07
-2.28767e-05
-8.55465e-09
9.83211e-07
-0.000145884
1.5884e-05
-8.1025e-06
6.21869e-07
-4.80608e-06
7.01434e-10
0.000390211
1.17265e-08
0.00229213
-5.92337e-07
-1.34605e-08
2.1687e-07
-0.000240105
-3.01595e-05
0.000202376
6.22834e-08
2.08637e-05
1.62336e-05
6.8304e-07
9.09694e-09
0
9.20725e-05
-2.92717e-08
-1.34729e-09
-8.78626e-06
0.000157363
-3.08447e-05
0.00269243
-6.42134e-06
-0.00143627
-3.29675e-06
-5.02205e-05
-1.5832e-05
2.93261e-05
2.37712e-05
-9.74943e-07
-0.000672479
1.56038e-06
-8.4462e-06
-0.000112012
0.00330394
1.54778e-05
-1.09123e-10
0.000428703
-1.20494e-05
0
1.18863e-06
0
-7.80782e-06
-4.15814e-10
0
-0.00057418
2.23433e-05
6.28952e-06
-6.444e-05
-1.4283e-06
8.43333e-09
-0.000240586
0.00023742
-2.48524e-05
-1.52002e-05
4.29853e-05
-1.36752e-05
-1.19388e-08
1.86424e-05
-2.88947e-05
5.26333e-05
-4.13735e-05
-1.57989e-09
1.38255e-05
7.83066e-07
4.32463e-09
-7.2904e-06
8.96098e-09
-3.49514e-06
-9.27963e-05
-6.31556e-07
1.44627e-10
4.68201e-06
0.00032787
0.000253186
6.84354e-07
-2.88889e-05
-4.74216e-05
-0.0011804
2.40427e-05
2.55221e-05
2.39674e-05
-6.56718e-05
2.81861e-05
2.34003e-05
-1.04117e-05
-6.01014e-06
9.3044e-06
5.53583e-08
7.67954e-05
4.85615e-08
-0.000713585
-3.74918e-05
-8.97292e-06
-1.02065e-07
1.46656e-05
-1.52004e-08
-5.82798e-05
0.000879581
-0.000433659
-6.57182e-05
-0.000152756
4.28825e-05
4.57342e-05
6.18834e-08
-0.000144157
-4.3989e-09
-1.98586e-09
-7.85313e-10
8.33636e-10
7.16013e-06
5.94631e-05
-0.000916983
6.21455e-05
-3.5817e-05
-0.000106738
7.55857e-05
-5.24667e-05
-3.32303e-07
0.000156738
-1.8195e-09
1.17482e-08
-1.73575e-09
-1.49213e-05
1.2455e-08
-4.8373e-08
-3.23261e-09
1.58525e-07
-9.88975e-10
-1.14678e-09
-6.30769e-06
-0.000161511
-1.21227e-08
1.06292e-05
-4.75679e-09
-7.31343e-05
-7.80075e-09
1.08339e-06
-0.000812346
-1.64918e-10
0.000161247
-1.5693e-09
1.38231e-09
-1.862e-10
-2.49362e-05
-0.000166068
0.000138696
-3.11242e-10
1.44251e-09
0.000135952
-4.15612e-09
0
-0.000220324
0
-0.000339784
2.31037e-10
8.57899e-05
0
-1.53315e-05
-5.17064e-10
9.72087e-09
-4.24552e-09
-1.13515e-05
0
3.86047e-06
0
-7.81569e-06
7.38801e-07
-0.000157415
-0.000653932
9.78323e-05
0.00317135
0.00297778
-1.60205e-07
-1.95887e-07
5.81389e-07
-0.00049455
1.16134e-07
7.06751e-08
1.42159e-07
2.69641e-08
-0.000868114
-0.000305549
-1.43993e-05
-1.02438e-05
0.000354618
-4.44494e-08
0.000929962
1.63242e-05
6.36984e-06
-1.17321e-05
0.00759231
4.72361e-06
2.00732e-05
3.99434e-10
-2.78017e-05
6.39235e-10
7.9419e-09
9.41569e-05
-0.0003942
-5.76996e-09
-3.63917e-05
0.000206585
0.000136363
7.64674e-06
1.49847e-08
-8.17272e-08
-0.000170862
-4.62326e-05
1.29466e-05
2.15918e-05
7.29427e-06
5.75885e-06
5.76522e-07
2.67831e-05
4.5765e-08
-9.31938e-07
-1.52776e-05
-1.08052e-05
8.80034e-07
-1.88168e-07
-0.000391398
-1.00362e-10
-6.87323e-05
-1.09519e-08
2.98847e-05
2.2815e-06
-5.64598e-10
-1.0352e-05
1.22324e-05
2.1727e-06
1.28558e-06
4.89479e-07
3.65824e-07
-0.00106022
6.21124e-10
-4.13222e-05
9.44534e-09
-1.4274e-06
-2.63961e-05
1.21219e-06
-8.4035e-10
-0.000252761
4.20555e-05
-8.80456e-06
0
3.99114e-08
5.96503e-05
0
-1.00616e-07
-5.95341e-05
8.44384e-07
-0.000657294
4.93314e-09
8.61315e-07
7.36488e-08
-1.35197e-07
1.68655e-08
-4.77225e-05
-5.05134e-07
-1.52425e-05
-8.19605e-07
5.71028e-07
-4.12956e-07
1.44539e-06
-7.69419e-07
-2.67113e-05
0
-2.70545e-06
-1.91951e-05
0.00044705
1.18204e-05
-0.00141399
0.000511529
4.1226e-08
-0.000618868
-2.92605e-08
-0.00106563
-2.62432e-08
-0.000467573
-1.41774e-05
-1.18306e-05
-0.000139004
4.18236e-05
-0.000133331
3.97103e-07
-8.88096e-07
1.40623e-07
1.00809e-09
-0.000817861
-9.76255e-05
-2.28453e-07
-0.000837484
-7.10199e-06
7.12667e-05
0.000360624
1.75132e-05
3.44153e-06
-0.000338163
8.96177e-06
-1.90732e-05
-2.92323e-05
-0.00030595
0
0
0
1.18539e-05
-0.00010093
-0.00231705
-7.60612e-09
-0.000212739
0.00118088
-0.00106313
-0.000502466
7.75636e-06
1.77501e-06
0.000188601
-0.000276442
1.32485e-05
-5.13756e-07
5.91983e-06
3.8308e-05
0.000102188
1.80375e-05
-0.000105194
0
3.85287e-07
-1.63766e-06
-2.61134e-08
2.54224e-08
6.29362e-09
-3.66504e-05
-8.78372e-05
5.78739e-05
-5.0828e-05
6.96198e-06
0.000107489
0.000135644
0.000489632
-0.000700786
0.000345684
1.26279e-06
0.000120834
0.000260615
0.000478105
-0.00103562
-3.09833e-05
0.000151384
-2.5036e-05
2.10457e-06
-0.000295604
0.000457859
1.42513e-09
1.66069e-09
-1.74077e-09
1.7208e-09
3.65429e-07
2.61374e-07
2.93699e-07
0.000633377
7.73045e-08
3.10455e-08
-0.000472163
-4.56625e-08
9.47434e-08
0.000531684
-0.000473597
4.76244e-09
1.18234e-08
-9.05659e-09
-3.98514e-08
9.27319e-08
0.000189371
5.32574e-09
-9.53236e-05
-6.07614e-07
0.000166022
-1.14943e-06
7.06436e-07
-1.71806e-06
-0.000209641
9.08263e-05
0.000454883
0.0011752
-0.00102539
-5.83394e-05
1.63719e-08
3.1638e-08
2.56322e-08
-4.93296e-05
0.000758703
0.000282826
1.13213e-08
-0.000105091
0.000220768
-2.06883e-09
0.00298852
4.42146e-09
1.97318e-07
-3.56413e-09
-0.000529701
0.000498807
-0.000267121
-1.22852e-05
-3.28654e-05
8.94079e-09
-4.99955e-05
-9.96397e-09
-3.74796e-05
-0.000175897
0.000500924
-0.000455891
-2.37555e-05
-3.94058e-05
1.01598e-05
-5.96953e-06
0.00438111
5.27685e-06
-4.28227e-05
5.97918e-05
-1.18013e-05
-9.87668e-06
0.00314739
0.000272783
7.83756e-07
5.91246e-05
9.63238e-06
-6.73494e-09
-4.0277e-05
-2.25273e-05
-4.62934e-08
2.56804e-08
-1.22246e-06
0.000122163
-6.19296e-05
2.16383e-05
-8.91053e-08
-5.38014e-05
-5.61022e-05
0
0.00363386
0.000117337
0.00745445
0.0256103
7.45888e-08
0.000316563
-5.4645e-08
0.000114246
1.89134e-05
-1.37415e-06
2.18903e-10
2.059e-05
0
0
0
-3.59802e-07
-1.92645e-06
-7.36539e-05
0.00109784
0.000757648
0.00137827
0.00115515
-3.23855e-05
-0.000512999
0.00181414
1.58921e-05
-2.95876e-09
-1.67639e-07
-4.35475e-08
-1.62973e-07
-0.000188898
-3.85616e-08
5.53774e-08
3.09802e-08
4.33809e-05
-0.000122629
0.000733633
-0.000357221
2.19362e-09
-1.10257e-08
-5.37603e-10
3.79725e-09
1.84385e-09
1.71872e-09
2.32777e-05
3.9717e-06
0.000254789
-0.000790897
0.000136269
-0.000405973
7.49112e-06
0.00553745
0.00121726
0.00452873
1.72423e-07
1.22982e-05
-3.28101e-06
7.15808e-07
-0.000215686
-1.43765e-06
-7.21778e-07
5.3717e-07
4.16326e-09
0.000336905
6.36398e-05
-2.53606e-08
7.40356e-05
9.10804e-09
1.78552e-05
3.00305e-05
-4.67146e-06
0.00253972
-9.14113e-06
-2.95343e-05
-1.6398e-06
-4.66464e-06
0.00302827
0.000101005
0.000101592
5.22847e-05
0
-1.20883e-06
4.7813e-07
-7.35815e-07
-0.00013118
8.03339e-05
0.000161856
1.07472e-05
-1.39902e-06
-0.000337949
1.88359e-05
-2.26467e-06
-5.85179e-07
-4.89944e-07
-8.40635e-08
1.05615e-08
-6.37246e-05
5.99914e-08
0.00325163
-0.000722944
-5.76283e-08
-5.40288e-08
8.11266e-09
9.58393e-10
1.04029e-08
0.000337887
3.32526e-05
-2.25126e-05
-6.97196e-05
-1.41482e-06
-5.01766e-06
-0.00132421
0.00218461
0.00382117
-6.87664e-05
1.00286e-08
-2.05304e-10
-9.9136e-07
1.73703e-06
-4.64684e-07
-7.14284e-08
-1.01404e-05
-3.60205e-06
3.89155e-08
5.16766e-08
-1.24646e-09
-2.8754e-08
0.000663195
-0.00081112
-7.08823e-05
1.35774e-05
-0.000218321
-1.17922e-10
1.10917e-10
0
0.000288305
7.64794e-06
0.00159157
-0.00111785
3.49343e-05
0
0
6.26565e-05
-4.96239e-05
-0.000533439
0
-4.61183e-10
-0.000408982
-0.000421316
0
3.04196e-05
-0.000316255
4.80395e-05
-0.000238298
-1.35819e-05
-1.19345e-05
2.0879e-05
-2.80411e-05
0.000320777
1.65075e-06
-1.13144e-06
1.40216e-05
-7.62563e-06
-0.00031765
2.10283e-05
4.42465e-06
3.44602e-06
7.74452e-05
-4.69022e-09
-2.298e-05
-2.38251e-05
9.03543e-09
9.4828e-09
0.00338789
3.20037e-07
-1.19004e-06
0.00121078
6.49747e-08
4.67564e-08
3.56195e-08
5.69075e-08
-1.31917e-05
2.0461e-05
-3.06224e-06
1.96535e-05
6.19071e-09
-5.41708e-08
-2.39827e-09
1.04769e-07
4.13271e-08
6.69181e-05
-2.23927e-05
-6.01253e-05
-7.98645e-06
-8.22179e-06
1.089e-05
-3.75744e-07
-0.000152972
7.19662e-07
0.000197481
1.39762e-07
6.68352e-07
-5.45282e-07
-7.02825e-05
-7.10197e-05
-2.74519e-09
3.2989e-05
-0.00109147
-1.57355e-06
1.52361e-06