# vtk DataFile Version 2.0
Unstructured Grid by M++
ASCII
DATASET UNSTRUCTURED_GRID
POINTS 4072 float
  0.828125   0.890625 0
  0.875000   0.531250 0
  0.828125   0.750000 0
  0.593750   0.968750 0
  0.828125   0.671875 0
  0.828125   0.875000 0
  0.593750   0.937500 0
  0.828125   0.656250 0
  0.828125   0.640625 0
  0.828125   0.843750 0
  0.593750   0.906250 0
  0.828125   0.625000 0
  0.781250   0.968750 0
  0.828125   0.609375 0
  0.828125   0.812500 0
  0.593750   0.875000 0
  0.593750   0.828125 0
  0.593750   0.796875 0
  0.828125   0.703125 0
  0.593750   0.765625 0
  0.828125   0.937500 0
  0.812500   0.875000 0
  0.859375   0.515625 0
  0.812500   0.734375 0
  0.812500   0.937500 0
  0.578125   1.000000 0
  0.578125   0.750000 0
  0.812500   0.687500 0
  0.578125   0.953125 0
  0.812500   0.656250 0
  0.812500   0.859375 0
  0.578125   0.921875 0
  0.812500   0.828125 0
  0.578125   0.890625 0
  0.812500   0.593750 0
  0.812500   0.796875 0
  0.578125   0.859375 0
  0.578125   0.812500 0
  0.578125   0.781250 0
  0.796875   1.000000 0
  0.796875   0.859375 0
  0.796875   0.718750 0
  0.562500   0.984375 0
  0.562500   0.937500 0
  0.796875   0.843750 0
  0.562500   0.906250 0
  0.796875   0.812500 0
  0.562500   0.875000 0
  0.796875   0.578125 0
  0.796875   0.781250 0
  0.562500   0.843750 0
  0.812500   0.984375 0
  0.562500   0.796875 0
  0.812500   0.953125 0
  0.562500   0.765625 0
  0.796875   0.937500 0
  0.546875   0.750000 0
  0.781250   0.984375 0
  0.828125   0.593750 0
  0.781250   0.843750 0
  0.781250   0.937500 0
  0.546875   1.000000 0
  0.781250   0.703125 0
  0.546875   0.968750 0
  0.546875   0.921875 0
  0.781250   0.828125 0
  0.546875   0.890625 0
  0.781250   0.796875 0
  0.546875   0.859375 0
  0.781250   0.562500 0
  0.781250   0.765625 0
  0.546875   0.828125 0
  0.796875   0.968750 0
  0.546875   0.781250 0
  0.765625   1.000000 0
  0.765625   0.968750 0
  0.531250   0.984375 0
  0.765625   0.687500 0
  0.531250   0.953125 0
  0.531250   0.937500 0
  0.531250   0.906250 0
  0.765625   0.812500 0
  0.531250   0.875000 0
  0.765625   0.781250 0
  0.531250   0.843750 0
  0.781250   1.000000 0
  0.765625   0.546875 0
  0.765625   0.750000 0
  0.531250   0.812500 0
  0.781250   0.953125 0
  0.531250   0.765625 0
  0.515625   0.750000 0
  0.750000   0.984375 0
  0.750000   0.953125 0
  0.796875   0.593750 0
  0.796875   0.562500 0
  0.750000   0.843750 0
  0.750000   0.937500 0
  0.515625   1.000000 0
  0.750000   0.906250 0
  0.515625   0.968750 0
  0.750000   0.671875 0
  0.750000   0.875000 0
  0.515625   0.937500 0
  0.515625   0.921875 0
  0.515625   0.890625 0
  0.750000   0.796875 0
  0.515625   0.859375 0
  0.750000   0.765625 0
  0.515625   0.828125 0
  1.000000   0.718750 0
  0.750000   0.531250 0
  0.750000   0.734375 0
  0.515625   0.796875 0
  0.734375   1.000000 0
  0.734375   0.968750 0
  0.734375   0.937500 0
  0.781250   0.578125 0
  0.781250   0.546875 0
  0.968750   0.578125 0
  0.734375   0.828125 0
  0.968750   0.546875 0
  0.734375   0.796875 0
  0.734375   0.765625 0
  0.968750   0.671875 0
  0.734375   0.734375 0
  0.968750   0.640625 0
  0.734375   0.703125 0
  0.968750   0.609375 0
  0.734375   0.671875 0
  0.734375   0.656250 0
  0.734375   0.625000 0
  0.968750   0.531250 0
  0.734375   0.593750 0
  0.984375   0.734375 0
  0.984375   0.703125 0
  0.734375   0.515625 0
  0.718750   0.984375 0
  0.718750   0.953125 0
  0.718750   0.921875 0
  0.953125   0.562500 0
  0.718750   0.812500 0
  0.953125   0.531250 0
  0.718750   0.781250 0
  0.718750   0.750000 0
  0.953125   0.656250 0
  0.718750   0.718750 0
  0.953125   0.625000 0
  0.718750   0.687500 0
  0.953125   0.593750 0
  0.718750   0.656250 0
  0.671875   1.000000 0
  0.718750   0.640625 0
  0.718750   0.609375 0
  0.953125   0.515625 0
  0.718750   0.578125 0
  0.968750   0.718750 0
  0.968750   0.687500 0
  0.953125   0.671875 0
  0.703125   0.968750 0
  0.703125   0.937500 0
  0.937500   0.656250 0
  0.703125   0.906250 0
  0.937500   0.546875 0
  0.703125   0.796875 0
  0.937500   0.515625 0
  0.703125   0.765625 0
  0.937500   0.671875 0
  0.703125   0.734375 0
  0.937500   0.640625 0
  0.703125   0.703125 0
  0.937500   0.609375 0
  0.703125   0.671875 0
  0.937500   0.578125 0
  0.703125   0.640625 0
  0.656250   0.984375 0
  0.703125   0.625000 0
  0.703125   0.593750 0
  0.718750   0.796875 0
  0.953125   0.734375 0
  0.812500   1.000000 0
  0.859375   0.656250 0
  0.703125   0.781250 0
  0.937500   0.718750 0
  0.953125   0.703125 0
  0.796875   0.984375 0
  0.843750   0.640625 0
  0.812500   0.968750 0
  0.859375   0.625000 0
  0.796875   0.953125 0
  0.843750   0.609375 0
  0.687500   0.953125 0
  0.687500   0.921875 0
  0.687500   0.890625 0
  0.921875   0.734375 0
  0.687500   0.796875 0
  0.687500   0.781250 0
  0.921875   0.703125 0
  0.687500   0.765625 0
  0.687500   0.750000 0
  0.921875   0.656250 0
  0.687500   0.718750 0
  0.921875   0.625000 0
  0.687500   0.687500 0
  0.921875   0.593750 0
  0.687500   0.656250 0
  0.640625   1.000000 0
  0.921875   0.562500 0
  0.687500   0.625000 0
  0.640625   0.968750 0
  0.687500   0.609375 0
  0.687500   0.578125 0
  0.937500   0.687500 0
  0.921875   0.671875 0
  0.671875   0.921875 0
  0.906250   0.656250 0
  0.671875   0.906250 0
  0.671875   0.875000 0
  0.906250   0.718750 0
  0.671875   0.781250 0
  0.671875   0.765625 0
  0.671875   0.734375 0
  0.906250   0.640625 0
  0.671875   0.703125 0
  0.906250   0.609375 0
  0.671875   0.671875 0
  0.906250   0.578125 0
  0.671875   0.640625 0
  0.625000   0.984375 0
  0.671875   0.609375 0
  0.625000   0.953125 0
  0.671875   0.593750 0
  0.671875   0.562500 0
  0.765625   0.953125 0
  0.812500   0.609375 0
  0.656250   1.000000 0
  0.656250   0.953125 0
  0.656250   0.906250 0
  0.890625   0.640625 0
  0.656250   0.890625 0
  0.656250   0.859375 0
  0.890625   0.734375 0
  0.656250   0.796875 0
  0.812500   0.921875 0
  0.562500   1.000000 0
  0.625000   0.828125 0
  0.812500   0.843750 0
  0.843750   0.593750 0
  0.812500   0.812500 0
  0.625000   0.718750 0
  0.828125   0.687500 0
  0.640625   0.593750 0
  0.812500   0.781250 0
  0.625000   0.687500 0
  0.765625   0.828125 0
  0.640625   0.562500 0
  0.812500   0.750000 0
  0.562500   0.828125 0
  0.781250   0.875000 0
  0.546875   0.937500 0
  0.781250   0.671875 0
  0.781250   0.593750 0
  0.546875   0.656250 0
  0.796875   0.750000 0
  0.562500   0.812500 0
  0.796875   0.546875 0
  0.765625   0.796875 0
  0.765625   0.593750 0
  1.000000   0.531250 0
  0.812500   0.718750 0
  0.859375   0.562500 0
  0.625000   0.625000 0
  0.812500   0.703125 0
  0.812500   0.906250 0
  0.578125   0.968750 0
  0.984375   0.593750 0
  0.828125   0.578125 0
  0.828125   0.781250 0
  0.593750   0.843750 0
  0.812500   0.671875 0
  0.625000   0.578125 0
  0.796875   0.671875 0
  0.562500   0.734375 0
  0.984375   0.562500 0
  0.828125   0.546875 0
  0.812500   0.640625 0
  0.750000   0.812500 0
  0.625000   0.546875 0
  0.796875   0.640625 0
  0.562500   0.703125 0
  0.828125   0.515625 0
  0.781250   0.734375 0
  0.546875   0.796875 0
  0.781250   0.531250 0
  0.750000   0.781250 0
  0.625000   0.515625 0
  0.796875   0.609375 0
  0.562500   0.671875 0
  0.765625   0.656250 0
  0.765625   0.859375 0
  0.531250   0.921875 0
  0.812500   0.578125 0
  0.562500   0.656250 0
  0.984375   0.687500 0
  0.750000   0.750000 0
  0.812500   0.562500 0
  0.812500   0.765625 0
  0.578125   0.828125 0
  0.562500   0.625000 0
  0.984375   0.656250 0
  0.750000   0.718750 0
  0.812500   0.531250 0
  0.781250   0.656250 0
  0.546875   0.718750 0
  0.781250   0.625000 0
  0.546875   0.687500 0
  0.750000   0.640625 0
  0.796875   0.531250 0
  0.562500   0.593750 0
  0.984375   0.625000 0
  0.750000   0.687500 0
  0.546875   0.984375 0
  0.609375   0.812500 0
  0.796875   0.875000 0
  0.546875   0.953125 0
  0.609375   0.578125 0
  0.843750   0.515625 0
  0.765625   0.515625 0
  0.765625   0.718750 0
  0.531250   0.781250 0
  0.984375   0.546875 0
  0.750000   0.609375 0
  0.796875   0.828125 0
  0.671875   0.968750 0
  0.796875   0.796875 0
  0.796875   0.765625 0
  0.609375   0.671875 0
  0.796875   0.734375 0
  0.546875   0.812500 0
  0.796875   0.703125 0
  0.843750   0.546875 0
  0.609375   0.609375 0
  0.796875   0.687500 0
  0.562500   0.953125 0
  0.796875   0.656250 0
  0.609375   0.562500 0
  0.796875   0.625000 0
  0.609375   0.531250 0
  0.546875   0.640625 0
  0.765625   0.671875 0
  0.531250   0.734375 0
  0.796875   0.515625 0
  0.765625   0.640625 0
  0.531250   0.703125 0
  0.703125   1.000000 0
  0.765625   0.609375 0
  0.531250   0.671875 0
  0.765625   0.578125 0
  0.531250   0.640625 0
  0.546875   0.609375 0
  0.531250   1.000000 0
  0.890625   0.593750 0
  0.656250   0.656250 0
  0.781250   0.515625 0
  0.546875   0.578125 0
  0.531250   0.968750 0
  0.890625   0.562500 0
  0.656250   0.625000 0
  0.609375   0.968750 0
  0.781250   0.859375 0
  0.656250   0.593750 0
  0.750000   0.703125 0
  0.515625   0.765625 0
  0.781250   0.812500 0
  0.781250   0.781250 0
  0.593750   0.687500 0
  0.781250   0.750000 0
  0.593750   0.656250 0
  0.781250   0.718750 0
  0.531250   0.796875 0
  0.828125   0.562500 0
  0.593750   0.625000 0
  0.781250   0.687500 0
  0.828125   0.531250 0
  0.593750   0.593750 0
  0.812500   0.625000 0
  0.578125   0.687500 0
  0.781250   0.640625 0
  0.781250   0.609375 0
  0.593750   0.515625 0
  0.515625   0.781250 0
  0.812500   0.546875 0
  0.578125   0.609375 0
  0.812500   0.515625 0
  0.578125   0.578125 0
  0.750000   0.656250 0
  0.515625   0.718750 0
  0.750000   0.625000 0
  0.515625   0.687500 0
  0.687500   0.984375 0
  0.750000   0.593750 0
  0.515625   0.656250 0
  0.531250   0.546875 0
  0.750000   0.562500 0
  0.515625   0.625000 0
  0.531250   0.515625 0
  0.984375   0.515625 0
  0.750000   0.578125 0
  0.515625   0.531250 0
  0.828125   0.796875 0
  0.640625   0.703125 0
  0.828125   0.765625 0
[...]
CELL_DATA 7648
SCALARS scalar_value float 1
LOOKUP_TABLE default
-6.70747e-05
-2.34737e-05
-9.9014e-09
8.43162e-09
-3.92147e-09
-3.67614e-09
-1.70168e-05
1.48878e-05
-1.04766e-05
-3.01942e-05
0.00139305
-0.000570593
0.00330634
-0.0012536
0.00438486
0.00211531
0.00409761
-0.00146021
6.17443e-05
-3.23357e-06
-4.91038e-05
-9.67782e-05
0.000536103
-0.000676567
2.89264e-05
3.78922e-05
2.34851e-05
-2.69058e-05
2.70407e-05
2.29896e-05
4.04947e-05
-4.31841e-05
4.96607e-10
-1.218e-10
2.48333e-10
1.47134e-10
0.00154158
0.000700437
1.35864e-06
-7.6922e-05
-3.68663e-05
0.000144591
0.000797485
0.000365393
2.4136e-09
-2.98787e-09
4.37679e-09
1.1359e-08
5.41301e-09
-1.1968e-08
4.85146e-09
8.13487e-09
3.29236e-09
1.46462e-09
-1.1168e-08
-3.81172e-09
-1.56687e-05
9.67534e-05
0.000101433
-0.00013062
9.66794e-05
0.000144919
8.71392e-07
-1.89361e-07
-1.96558e-06
2.48906e-06
-9.71578e-07
1.24203e-07
-4.77202e-07
-1.364e-05
5.25161e-07
4.11494e-07
1.13427e-08
-0.000150029
-0.000401177
-1.09551e-08
1.14165e-08
-1.11888e-08
-1.03337e-08
-1.23516e-09
-9.86651e-09
1.08265e-08
1.65859e-10
8.88245e-09
-1.13724e-08
4.39597e-09
3.20494e-09
6.58242e-07
-1.1525e-05
7.63611e-06
-1.67558e-07
-3.314e-07
9.6472e-07
-1.62555e-07
7.63207e-07
9.21426e-07
8.17176e-07
-3.43237e-07
4.54681e-06
-4.1386e-06
-2.1621e-06
-1.66773e-07
-1.55408e-07
-1.69716e-07
5.61208e-06
0
0
0
3.95808e-08
9.44899e-09
5.12693e-08
1.01028e-09
1.09152e-09
-5.00024e-10
2.86384e-09
4.33287e-10
1.52148e-10
3.5941e-10
0
2.6911e-07
1.4013e-05
-1.27495e-05
1.97618e-05
1.89203e-06
-4.72323e-06
1.48476e-05
1.25332e-05
-2.34159e-10
4.68792e-09
1.12121e-08
-2.26919e-09
3.06304e-09
-1.05458e-09
3.27374e-09
8.73184e-10
-1.0394e-06
9.26968e-05
-5.3771e-05
-3.36071e-05
-0.000141539
-4.2947e-10
0
1.73061e-06
-6.10214e-07
-2.28037e-06
9.88295e-07
1.45373e-07
-1.9704e-06
2.3591e-05
-3.55182e-05
3.45959e-05
1.31285e-06
-1.01729e-05
3.08921e-06
1.02396e-05
1.37218e-06
-1.09787e-06
2.80675e-06
2.28039e-06
-2.06373e-06
8.13551e-07
0.000353545
-3.70412e-05
0.000284488
-0.000100677
-0.000570174
-7.80587e-05
-5.08653e-06
-9.31627e-05
-7.8304e-08
-3.45541e-08
-6.44732e-08
-1.63075e-08
-8.00413e-08
1.08333e-09
-4.22431e-10
7.17099e-06
3.70695e-06
4.4907e-06
-3.72445e-05
3.39424e-06
-4.59636e-05
-6.58723e-05
-6.80168e-05
2.69011e-06
-1.80557e-05
-3.2256e-06
-3.96677e-07
-2.51094e-06
-2.12735e-05
2.35133e-06
-0.00109635
0.00161991
2.66526e-05
-1.08117e-05
3.1461e-05
-1.1597e-05
-1.4618e-07
-2.28601e-07
-7.66096e-08
1.45935e-07
9.36952e-06
-3.63684e-05
4.04274e-05
4.26204e-06
4.07924e-10
-2.67542e-10
-9.20014e-06
4.32342e-05
2.29585e-05
-3.66145e-05
2.814e-05
0.000355981
-0.000393635
-3.53625e-05
4.70681e-06
-3.4616e-05
3.78427e-05
9.44952e-06
7.53011e-08
5.2056e-08
8.23173e-07
1.06059e-06
-1.64938e-06
1.00824e-06
1.87043e-06
-1.95111e-06
6.89904e-07
1.64571e-06
1.97256e-06
1.5733e-05
-1.06753e-05
1.89109e-06
1.48079e-06
1.23776e-08
-8.82343e-09
1.38832e-08
7.54005e-09
1.47873e-05
-1.13426e-05
2.6854e-06
5.2283e-06
1.62749e-08
-1.09957e-08
1.98013e-08
9.2573e-09
0.005284
0.00636504
3.44525e-08
8.10694e-08
7.72856e-09
3.26213e-07
1.75595e-08
2.12405e-07
7.30465e-09
2.65027e-07
-4.41452e-07
-1.91035e-07
-2.93654e-07
2.36927e-09
-8.40288e-10
2.74089e-09
6.93485e-10
-2.86665e-09
6.72474e-09
-7.89784e-09
-3.29979e-09
0
8.00257e-10
-9.69044e-10
0
-1.69627e-06
1.90199e-06
-5.10186e-07
3.26831e-07
6.99813e-07
2.82392e-07
-1.2705e-07
4.40138e-06
-5.22082e-05
7.36011e-05
-8.95868e-06
5.53333e-06
2.46989e-06
8.94214e-06
8.13195e-06
-1.00503e-05
1.45877e-05
2.00435e-05
1.48303e-06
-7.87806e-06
1.54503e-06
-2.04995e-05
-1.27166e-05
5.14964e-06
8.79856e-06
-0.000236594
-0.000159114
0
1.19529e-08
0
2.48068e-05
-2.86851e-06
0.00136431
0.00162826
-5.35032e-07
-2.92369e-05
-0.000375757
-2.72097e-05
7.41241e-07
-3.0209e-05
0.00183347
-6.63308e-08
2.39318e-05
3.47769e-08
2.49761e-09
-3.49971e-08
3.33232e-09
-3.07367e-09
-4.29157e-05
9.28846e-05
-3.72891e-07
-0.000143418
-0.000634771
5.18626e-08
3.91822e-08
-1.19297e-08
-0.000795191
6.57981e-07
0.00198315
-8.23766e-05
8.49284e-05
9.87002e-09
0.00011792
-0.000635839
0.000351057
-0.000464938
1.23777e-05
0.000351974
-1.31938e-06
-5.70487e-07
-1.11805e-06
-0.000702345
-1.45901e-06
5.31222e-07
0
-3.83641e-10
-0.000169185
-1.27093e-09
0.000132783
-7.15487e-08
0.000115926
-9.02213e-10
-6.89945e-05
-7.63143e-05
1.95787e-06
-2.1768e-07
-0.000317566
-0.000469733
-0.000138543
-9.03582e-08
3.73845e-07
3.50696e-08
0.000594232
9.72561e-07
-0.00010167
-1.26135e-06
6.36032e-08
-1.32367e-06
0.00258632
-3.53011e-07
5.19366e-05
-2.71906e-05
-5.98281e-08
1.96086e-10
-7.25748e-06
1.27419e-06
-0.000290753
0.000436105
-1.44765e-07
-2.01931e-05
-1.69131e-07
-1.7431e-05
-9.50433e-09
-2.71404e-09
1.85534e-09
-9.47874e-08
6.01181e-08
-1.82475e-08
1.19539e-06
3.40052e-06
-4.27671e-07
2.65363e-05
5.04855e-09
2.21452e-06
1.00234e-05
1.66205e-05
-7.39707e-05
-1.47917e-08
1.19048e-08
8.86582e-06
2.41838e-08
-1.47094e-05
-8.60494e-09
-4.12214e-05
1.27093e-05
-2.3534e-05
2.25867e-08
1.76174e-05
-2.73731e-06
7.32729e-09
0.0011039
-1.4013e-07
0.00433322
-1.97134e-07
9.9105e-08
1.83435e-08
2.71805e-08
0.00546638
-1.32153e-09
1.85259e-06
1.18108e-08
-0.0013192
-1.11532e-05
-3.36821e-05
-2.3411e-05
-5.76897e-05
2.90119e-07
0
0
8.31512e-08
0.000668947
-1.4256e-05
-1.53033e-07
-2.32177e-10
6.85459e-08
2.20664e-05
-6.58943e-08
-1.6784e-07
0
-3.65642e-05
0
-1.02868e-05
-1.43447e-05
-4.8584e-06
9.40063e-09
-2.78718e-07
3.78988e-07
1.60575e-07
1.17812e-07
1.33777e-07
-2.21621e-06
-1.44867e-06
0.00067195
8.37165e-06
-2.37841e-09
2.21543e-08
-8.49264e-07
-1.33008e-05
-3.15402e-05
-9.93005e-05
-7.50343e-06
-2.28961e-08
-1.45781e-05
-0.000461326
-1.64901e-06
-1.04459e-08
-8.30419e-09
2.93027e-05
-1.87102e-08
1.12233e-08
-8.42987e-09
-1.50723e-08
1.05024e-08
-1.99537e-05
3.35588e-05
-7.81318e-06
-9.85221e-05
0.00560681
-0.000565075
-6.59889e-09
-7.53211e-07
3.35402e-05
0.000505508
1.99397e-06
-0.00057822
-0.000766454
2.38655e-05
-9.88745e-05
0.000259595
-1.03524e-05
-0.00104915
0.000593695
0.000613865
1.32784e-08
6.82837e-07
0.000821651
2.24476e-06
8.77266e-07
2.00234e-06
1.50562e-05
1.76636e-06
-7.3752e-09
1.71391e-05
1.51883e-08
3.06337e-08
0.00177017
0.000498204
4.95005e-06
-1.95165e-08
8.51255e-06
9.68576e-06
-3.55814e-08
6.10045e-05
9.9607e-09
3.11832e-08
-0.000423435
1.4047e-07
-5.1127e-07
7.02421e-05
0.00117154
2.18734e-06
-0.00188864
0.00118265
0.000572232
4.37526e-10
5.51319e-07
-8.46917e-06
3.05717e-10
-2.54258e-06
-3.2377e-08
-0.00257697
-5.35283e-06
1.11908e-06
1.00115e-08
7.13513e-06
-7.93514e-09
0.00229748
2.80298e-05
6.03172e-06
0
-6.20136e-06
0
4.01301e-06
-8.66968e-06
-5.54899e-07
-2.79911e-09
-2.63126e-05
0.00145333
3.50866e-06
9.17683e-06
7.22699e-09
4.20143e-09
0.00020762
-5.00655e-06
-0.000459756
-8.69403e-09
-5.83502e-05
-2.56146e-07
-0.000699969
0
0
-0.000437215
0
1.4673e-07
0.000193505
-1.64421e-06
-1.32716e-08
-0.000152238
-6.96014e-09
0.000341982
2.02993e-08
3.61567e-05
-9.31152e-05
2.92177e-05
-1.57184e-09
-9.48908e-05
-1.16755e-08
-9.65199e-06
5.24173e-09
-0.00149546
3.21877e-05
0.000120813
-4.84877e-08
6.83551e-10
-2.23612e-10
1.092e-09
-2.01246e-05
1.90697e-10
1.44925e-06
8.6526e-06
-1.48279e-06
-3.64949e-10
4.52095e-07
1.67165e-05
0
-8.25813e-10
-8.74016e-08
3.14482e-09
-1.33378e-09
0
0
-4.72401e-05
2.04618e-09
-3.34537e-07
5.62042e-06
-8.84624e-06
-8.49948e-10
2.47555e-05
-2.42779e-05
-1.16583e-05
4.2442e-10
3.22411e-06
1.17344e-05
-1.71544e-06
1.95602e-08
5.1972e-08
-4.1391e-05
6.51581e-06
-2.33845e-05
-1.57532e-08
0.000192365
-2.21009e-05
-0.00100528
-1.47177e-06
1.49671e-05
-2.47673e-05
-0.00051996
5.16376e-07
0.00391689
-0.00081936
-2.51402e-06
-0.00163942
0.000115522
-1.07439e-07
1.75979e-05
3.23693e-05
0.00016621
5.12267e-07
1.53743e-06
7.28929e-07
-6.51364e-06
-1.27407e-07
-6.14264e-06
-0.00126757
-1.84773e-07
0.000550217
7.92321e-07
4.85579e-07
-0.000105891
0.000120958
-4.14971e-06
-1.1696e-05
9.41604e-06
-6.33766e-05
-1.24941e-05
-1.15574e-06
-7.56119e-05
-1.00308e-07
0.00577141
1.86047e-05
-1.36614e-06
0.000142357
-0.000232269
1.06268e-05
-3.62805e-06
8.04205e-08
-4.18261e-05
-0.000138265
-0.000625104
9.53146e-07
-1.32675e-06
0
5.33912e-06
0
2.44311e-05
-1.99478e-08
3.98899e-05
-4.52639e-05
-5.30711e-07
-0.000216801
-1.0107e-07
-0.00138609
-5.70433e-05
-4.11876e-08
0.00353021
-2.11741e-09
3.28278e-08
5.84811e-08
2.76916e-05
8.5161e-08
-1.86626e-07
-9.13989e-08
5.8205e-07
6.8054e-08
-2.61329e-05
1.234e-05
2.56985e-06
0
1.74882e-05
-5.86559e-06
0
8.2443e-06
-9.34627e-08
0
3.22023e-05
-8.89857e-05
-2.56538e-10
4.35786e-10
2.60932e-05
7.52857e-10
2.5565e-05
0.00282836
-2.27817e-05
4.29523e-05
-1.25024e-05
1.51712e-10
-0.000124244
-9.66339e-09
-0.000130929
5.21496e-06
0.000141637
0.00603423
-1.7983e-08
0
8.24933e-06
-5.34572e-06
2.24811e-06
-3.89915e-09
1.88846e-05
0.00144531
-2.09433e-05
-1.66382e-09
2.35909e-05
6.15696e-06
0.000321007
-7.91813e-10
-7.26393e-06
3.01385e-06
0.000120217
-0.000213048
-8.80142e-07
1.55574e-10
-3.16065e-06
-1.86849e-06
1.00927e-07
3.41203e-08
-8.1281e-05
1.23626e-05
2.34475e-10
-1.66123e-06
-1.38408e-05
1.06439e-06
6.51847e-07
-0.00119019
0.0010021
-2.00261e-05
3.20593e-09
-1.58784e-08
1.4178e-09
-1.88757e-06
1.23498e-06
-1.48632e-08
1.56825e-06
1.93687e-10
3.93159e-09
7.24292e-07
4.0017e-08
-8.27811e-06
0
0
-7.26321e-06
-0.000791674
3.22045e-05
-4.23886e-06
-7.29477e-05
5.11225e-06
-2.3513e-10
-1.89647e-05
6.87651e-05
-7.75012e-07
2.12057e-10
-1.05014e-05
-2.89283e-09
5.69244e-06
-1.4736e-05
-8.66761e-09
-3.49894e-05
-1.64109e-07
9.30299e-09
0.000137669
1.03787e-10
0.000699754
-1.21663e-08
-5.56012e-09
-1.16548e-05
-1.984e-07
3.80497e-06
-2.05334e-05
-3.48724e-05
-7.64248e-10
2.00961e-08
-7.51012e-06
0.000345899
1.3802e-09
-5.8043e-08
6.50674e-07
-1.26543e-05
6.52176e-07
1.10029e-06
-0.00113178
-7.40656e-05
-3.27068e-05
-2.31403e-05
0.00106965
0.00179425
0.00403302
-1.51832e-07
-8.42653e-06
2.79205e-05
-4.17566e-05
2.56337e-09
0
-0.000175182
3.58238e-08
-6.06666e-05
1.82514e-05
9.31911e-06
3.84244e-06
-0.000229021
7.64519e-05
0.00319698
4.59931e-05
-0.000277336
-3.37704e-08
6.38458e-06
3.47244e-05
0
5.42071e-07
0.0025525
-5.06811e-05
1.22483e-05
-0.000936735
7.27221e-06
-5.25261e-10
0.00749932
-0.000212819
9.49291e-08
8.42365e-06
9.35073e-09
-4.5916e-10
-5.68928e-10
1.39177e-08
-1.98269e-05
0
2.17189e-05
5.24786e-05
-4.02807e-06
1.23122e-05
-2.81311e-08
-0.000764641
-2.22942e-05
2.64368e-08
0.00109567
0.000179351
-2.9723e-05
8.25099e-05
5.13968e-09
2.71315e-06
-7.0562e-09
8.7726e-09
1.02838e-08
-1.02726e-10
-2.17064e-05
9.09547e-09
-2.71597e-05
-0.000270763
-0.00033737
2.6397e-05
1.68222e-05
-0.000116132
6.45695e-09
-7.73545e-06
1.18192e-08
0.00354036
-1.99654e-06
1.08404e-09
2.3576e-05
2.98675e-05
1.57981e-05
1.54503e-05
-0.00106188
4.98543e-07
0
0
-7.62773e-06
4.75621e-08
8.72067e-07
1.26529e-05
1.53312e-09
-1.63925e-08
-7.85893e-05
4.72511e-10
-0.000195038
-2.13806e-08
0.00332979
-0.000380092
-2.1244e-05
-6.92137e-05
2.61872e-10
-4.16192e-05
2.70327e-05
1.61581e-05
-1.29248e-07
3.92737e-07
0.000576947
0.00166553
0.000230633
-0.000218788
9.03048e-07
0.00396817
-4.05064e-05
0
-3.93251e-06
3.18534e-09
1.33701e-09
-5.4794e-05
-8.6902e-06
1.34986e-09
2.82978e-09
2.33769e-06
-3.99334e-05
5.11189e-08
0.0102108
-3.51455e-06
-4.66111e-05
0
-3.75039e-10
-1.23635e-08
-1.70525e-10
-0.000166522
-6.65074e-09
-1.10297e-08
-7.874e-05
-1.8938e-05
1.8755e-05
4.73735e-05
0.000477482
0
1.85281e-07
-7.76282e-05
0
-0.000484238
0.000620885
-1.39789e-07
-8.49418e-08
-1.82265e-09
-6.17281e-09
-1.40854e-06
0.00461989
-7.92248e-08
8.85691e-06
0
-0.000149713
1.65802e-05
0
8.27142e-08
1.64002e-05
4.80934e-10
0.000116058
-1.73547e-05
0
-3.96082e-05
0
-4.32657e-05
0.000382184
0
0.000146496
-2.2196e-06
-2.29209e-08
0
-2.00177e-06
-7.80427e-05
-1.77035e-05
0.00589429
5.39639e-05
-3.53408e-10
0.000122665
-0.000224957
5.37305e-07
5.07608e-06
0
1.90929e-05
2.82667e-06
0.000131723
-7.32671e-09
3.85199e-05
-5.72294e-06
-1.02777e-05
9.20331e-05
-2.63009e-07
1.96519e-09
-4.0207e-05
-1.40831e-06
-5.51682e-05
-2.25184e-05
-0.00123527
-4.57922e-06
-5.21292e-05
-4.21799e-05
-3.6895e-07
-1.92806e-06
2.45807e-05
4.18156e-10
2.59486e-05
-9.07893e-06
-2.49441e-05
-9.30437e-09
1.13867e-06
-0.000163412
-3.71918e-05
-9.74017e-06
7.74244e-07
-6.52559e-06
8.77854e-10
0.000517864
1.26538e-08
0.00301821
-6.95121e-07
1.08464e-08
3.61695e-07
-0.000158525
-5.31442e-05
-0.00148009
9.93933e-08
6.30693e-06
2.31537e-05
1.95047e-06
1.0092e-08
0
7.64423e-05
-3.07653e-08
8.9763e-10
-1.50785e-05
0.000172458
-3.01113e-05
0.00349858
-6.95845e-06
-0.00166939
-7.24501e-06
-5.52968e-05
-2.00641e-05
3.52491e-05
2.78355e-05
-1.20861e-06
-0.00100019
1.91479e-06
7.87625e-06
-0.000145077
0.00416377
1.19745e-05
-1.0416e-10
0.000570782
-1.51243e-05
0
1.53361e-06
0
-9.46352e-06
8.43591e-09
1.02403e-10
-0.000732225
5.99383e-05
6.98015e-06
-5.41557e-05
-8.41107e-07
9.82617e-09
-0.000297407
0.000309498
-3.0629e-05
-1.94561e-05
5.70295e-05
-1.61325e-05
-1.32285e-08
2.55592e-05
-3.7042e-05
6.70641e-05
-4.73154e-05
-1.87369e-09
1.76175e-05
8.25643e-07
5.1327e-09
-1.03776e-05
1.06104e-08
-6.79239e-06
-0.000101122
-6.1526e-07
0
5.4028e-06
-0.000630346
0.000328629
9.7299e-07
-4.25285e-05
-5.36525e-05
-0.0015984
2.98069e-05
2.81792e-05
2.85119e-05
-7.36326e-05
3.05543e-05
2.83397e-05
-1.04146e-05
-5.1889e-06
1.00609e-05
1.32225e-07
8.72303e-05
-9.00517e-08
-0.000916779
-4.78981e-05
-0.000142758
-1.29615e-07
1.69678e-05
-1.51095e-08
-6.74499e-05
0.00119929
-0.000503432
-1.84015e-05
-0.000176923
5.77809e-05
6.58843e-05
-1.06739e-07
-0.000196472
-5.13635e-09
-2.39133e-09
-8.68467e-10
1.72111e-09
-1.06779e-05
6.92334e-05
-0.00118539
5.22897e-05
-3.85673e-05
-0.000137188
8.35769e-05
-7.77629e-05
7.55314e-07
0.000205382
9.94439e-10
8.6626e-09
1.08628e-09
-1.37079e-05
6.26258e-09
5.62239e-08
-3.62919e-09
1.56767e-06
-1.12298e-09
-1.2982e-09
-5.77689e-06
-0.000164175
-1.28028e-08
1.96055e-05
-5.2593e-09
-9.42198e-05
-8.84435e-09
1.55346e-06
-0.000704175
0
0.000156384
-1.42469e-10
-1.50936e-10
1.08633e-10
-6.55654e-05
-0.000161716
0.000115938
-2.49703e-09
-1.78497e-09
0.000135321
2.0489e-09
0
-0.000286058
0
-0.000399855
-6.14905e-10
3.60712e-05
4.4725e-10
-1.77767e-05
-4.87899e-10
6.22223e-07
8.6362e-10
-1.30952e-05
0
4.47351e-06
0
-8.98653e-06
9.05827e-07
-0.000180503
-0.000812033
0.000201506
0.00385018
0.00374466
-2.77187e-07
-2.65083e-07
4.4785e-07
-0.000442223
2.09979e-07
1.31354e-07
2.00475e-07
-7.29369e-08
-0.00114024
-0.000830202
-1.773e-05
-1.33222e-05
0.00155611
-3.07323e-09
0.00462645
1.75227e-05
8.63567e-06
-1.54061e-05
0.0107847
2.85874e-06
2.73712e-05
5.11931e-10
-3.22847e-05
8.13083e-10
8.07734e-09
0.000119804
-0.00058359
-6.49342e-09
-3.95721e-05
0.000271829
0.000155403
8.64746e-06
-3.03983e-08
-1.30345e-07
-0.000224024
-5.46112e-05
5.2341e-06
2.9186e-05
1.62932e-05
1.31517e-05
7.1021e-07
3.09612e-05
8.32103e-08
-6.4714e-07
-1.16715e-05
-1.42515e-05
8.90597e-07
-6.14825e-08
-0.000496172
-1.16706e-10
-9.33784e-05
-1.34006e-08
3.53387e-05
4.61045e-06
-6.88156e-10
-1.34556e-05
1.58155e-05
4.44931e-06
3.50208e-06
6.19785e-07
4.85003e-07
-0.00145141
7.61386e-10
-5.90067e-05
1.13777e-08
-7.18645e-07
-3.25626e-05
8.96892e-07
-1.05399e-09
-0.000332774
1.49412e-05
-1.0709e-05
0
-9.50576e-08
7.75286e-05
3.51591e-10
-2.65454e-07
-6.76734e-05
3.80402e-07
-0.000529463
5.95091e-09
8.63342e-07
-5.12854e-08
-2.36942e-07
5.79239e-08
-5.42504e-05
-6.03584e-06
-1.66991e-05
-1.25682e-06
6.894e-07
-5.23853e-07
1.72138e-06
-9.09092e-07
-3.08429e-05
0
-1.1206e-05
-1.34484e-05
0.000605524
-0.000100315
-0.00159054
0.000717024
-6.27662e-08
-0.000972584
1.48956e-07
-0.00147128
5.62744e-08
-0.000730883
-1.13037e-05
-1.64982e-05
-0.000174503
5.17418e-05
-0.000174102
6.2383e-07
-1.0102e-06
3.45893e-07
1.15137e-09
-0.00102994
-0.000139367
-1.52273e-06
-0.00110631
-1.85185e-06
7.97602e-05
0.0002448
2.02919e-05
3.82775e-06
-0.000614936
1.02543e-05
-2.2104e-05
2.34859e-05
-0.000394971
0
0
0
1.29668e-05
-0.000111398
-0.00313856
-8.41887e-09
-0.000286829
0.00164955
-0.00145405
-0.000681659
0.000905517
2.22708e-06
9.21388e-05
-0.000304242
1.49772e-05
-6.73947e-07
6.80293e-06
0.000638494
0.000130851
2.9086e-05
-0.000141753
0
6.09165e-07
-1.67451e-06
2.28965e-08
-4.61937e-09
1.76997e-08
-4.60897e-05
-0.000114078
7.39219e-05
-6.65893e-05
7.96597e-06
0.000107315
-1.17687e-05
0.000667104
-0.000918022
0.000236972
3.84449e-07
4.20335e-05
0.000345143
0.00064655
-0.00140745
-3.22429e-05
0.000154448
-4.26927e-05
4.53526e-06
-0.000966867
0.00512777
-7.51457e-10
4.32263e-10
7.40785e-10
-1.2707e-09
3.46375e-07
3.08848e-07
3.4275e-07
0.000778117
1.74959e-07
9.02593e-08
-0.000666496
-1.35467e-07
2.02671e-07
0.000808114
-0.00057767
6.05334e-09
1.26011e-08
-1.07072e-08
-3.30325e-08
9.37579e-08
0.000251133
2.52123e-09
-0.00012895
1.05816e-06
0.000173312
-1.82877e-06
7.6913e-07
-8.93346e-07
-0.000120508
0.00151269
0.000600659
0.00162312
-0.00140721
-7.61862e-05
1.21829e-08
-1.00264e-07
-7.44256e-08
-5.70834e-05
0.000976953
0.000381013
2.34321e-09
-0.000141568
0.000295509
-2.39181e-09
0.00359829
5.13203e-09
2.4765e-07
-3.64987e-09
-0.000732953
0.000663526
-0.000305771
-1.42198e-05
-4.26369e-05
1.04204e-08
-5.38583e-05
-1.17738e-08
-4.80303e-05
-0.000388933
0.000667741
-0.000562588
-0.00020391
-4.29924e-05
2.28904e-05
-9.3589e-06
0.00500176
7.67208e-06
-5.112e-05
7.58702e-05
-1.47069e-05
-1.55342e-05
0.00376432
0.000400343
9.25994e-07
6.26522e-05
1.24831e-05
-1.062e-08
-4.9394e-05
-2.78908e-05
1.28204e-07
-1.56846e-07
-1.01868e-06
0.000479147
-7.05621e-05
2.37449e-05
3.32701e-08
-6.05687e-05
-6.38495e-05
0
0.00481843
0.000156673
0.00968923
0.0315451
1.30583e-07
0.000354042
-7.36359e-08
0.000355565
2.23189e-05
-1.78207e-06
6.64982e-10
1.92388e-05
0
0
0
7.76594e-07
-1.88283e-06
-9.59366e-05
0.00112299
0.00101036
0.00166287
0.00121873
-3.21993e-05
-0.000524275
0.00835915
1.49919e-05
2.73182e-08
5.04045e-08
7.17217e-08
9.07452e-08
-0.00019436
6.60503e-08
-1.10468e-07
-3.48645e-08
5.19737e-05
-0.000143422
0.000695747
-0.000613824
2.08412e-09
-1.22875e-08
5.2669e-10
-1.4503e-08
-1.08512e-08
-1.38187e-08
2.69e-05
5.29956e-06
0.000275555
-0.00107365
0.000203142
-0.00210891
2.38562e-05
0.00213343
0.00390793
0.0071266
-3.93525e-07
-6.03749e-06
-1.29089e-05
-9.27743e-07
8.12165e-07
-1.68827e-06
-7.23949e-07
6.59189e-07
3.41678e-09
0.000467825
8.59787e-05
8.56113e-08
9.81117e-05
4.04279e-09
2.03181e-05
3.12222e-05
-5.60822e-06
0.00299915
-1.1676e-05
-3.43634e-05
-2.59621e-06
-5.41578e-06
0.00389421
0.000106869
0.000249728
6.51298e-05
0
-1.18448e-06
3.54421e-07
-6.77274e-07
-0.000170195
1.45664e-05
0.000241786
2.4251e-05
-1.3474e-06
-0.000395433
2.58831e-05
-8.18059e-06
-5.75338e-07
-1.19661e-06
4.85894e-08
-2.5466e-07
-7.23925e-05
1.29471e-08
0.00395904
-0.00094022
3.0521e-08
6.62079e-08
2.82116e-08
1.57337e-09
1.08157e-08
-0.000413455
5.85069e-05
4.82817e-06
-9.09647e-05
-1.57166e-06
-5.83775e-06
-0.00165318
0.00326866
0.00508568
-8.03501e-05
8.01703e-09
-9.73828e-10
5.35953e-06
2.2782e-06
-1.44203e-06
9.32787e-06
-1.16907e-05
-4.20469e-06
4.2224e-08
3.51333e-08
1.33042e-08
-4.90539e-08
0.00103114
-0.000717576
-0.000143992
1.42188e-05
-0.000298045
-1.35816e-10
1.27808e-10
0
0.000388633
1.13519e-05
0.00214885
-0.00152331
4.96009e-05
0
0
-2.82674e-05
-5.35236e-05
-0.000766258
0
-5.85442e-10
-0.000601785
-0.000623775
0
3.29459e-05
-0.000308362
5.0424e-05
-0.000311356
-1.34017e-05
-1.31849e-05
2.8086e-05
-3.03431e-05
0.000429242
1.95362e-06
-1.8296e-06
2.64846e-05
-8.0584e-06
-0.000370386
2.89747e-05
1.25684e-05
-2.07085e-06
0.000104801
6.22917e-10
-2.4464e-05
-2.94397e-05
-1.60861e-09
8.04548e-09
0.00426656
4.9269e-07
-1.42134e-06
0.00165273
-6.47422e-08
-1.00319e-07
-6.79498e-08
-1.15553e-07
-1.63809e-05
2.81642e-05
-9.77007e-06
2.69211e-05
-8.65541e-09
7.54626e-08
5.56471e-09
-1.24388e-07
-6.89506e-08
8.44942e-05
-2.48747e-05
-6.93344e-05
-4.67178e-06
-8.28842e-06
1.53122e-05
2.47823e-06
-0.000190642
8.38726e-07
9.2538e-05
3.1732e-07
5.47724e-07
-7.10435e-07
-8.49192e-05
-5.98418e-05
-7.53953e-10
4.27038e-05
-0.00158024
-1.89917e-06
1.823e-06
0.000363693
1.70929e-09
7.09326e-09
0.00391939
-0.00140718