# vtk DataFile Version 2.0
Unstructured Grid by M++
ASCII
DATASET UNSTRUCTURED_GRID
POINTS 4072 float
  0.828125   0.890625 0
  0.875000   0.531250 0
  0.828125   0.750000 0
  0.593750   0.968750 0
  0.828125   0.671875 0
  0.828125   0.875000 0
  0.593750   0.937500 0
  0.828125   0.656250 0
  0.828125   0.640625 0
  0.828125   0.843750 0
  0.593750   0.906250 0
  0.828125   0.625000 0
  0.781250   0.968750 0
  0.828125   0.609375 0
  0.828125   0.812500 0
  0.593750   0.875000 0
  0.593750   0.828125 0
  0.593750   0.796875 0
  0.828125   0.703125 0
  0.593750   0.765625 0
  0.828125   0.937500 0
  0.812500   0.875000 0
  0.859375   0.515625 0
  0.812500   0.734375 0
  0.812500   0.937500 0
  0.578125   1.000000 0
  0.578125   0.750000 0
  0.812500   0.687500 0
  0.578125   0.953125 0
  0.812500   0.656250 0
  0.812500   0.859375 0
  0.578125   0.921875 0
  0.812500   0.828125 0
  0.578125   0.890625 0
  0.812500   0.593750 0
  0.812500   0.796875 0
  0.578125   0.859375 0
  0.578125   0.812500 0
  0.578125   0.781250 0
  0.796875   1.000000 0
  0.796875   0.859375 0
  0.796875   0.718750 0
  0.562500   0.984375 0
  0.562500   0.937500 0
  0.796875   0.843750 0
  0.562500   0.906250 0
  0.796875   0.812500 0
  0.562500   0.875000 0
  0.796875   0.578125 0
  0.796875   0.781250 0
  0.562500   0.843750 0
  0.812500   0.984375 0
  0.562500   0.796875 0
  0.812500   0.953125 0
  0.562500   0.765625 0
  0.796875   0.937500 0
  0.546875   0.750000 0
  0.781250   0.984375 0
  0.828125   0.593750 0
  0.781250   0.843750 0
  0.781250   0.937500 0
  0.546875   1.000000 0
  0.781250   0.703125 0
  0.546875   0.968750 0
  0.546875   0.921875 0
  0.781250   0.828125 0
  0.546875   0.890625 0
  0.781250   0.796875 0
  0.546875   0.859375 0
  0.781250   0.562500 0
  0.781250   0.765625 0
  0.546875   0.828125 0
  0.796875   0.968750 0
  0.546875   0.781250 0
  0.765625   1.000000 0
  0.765625   0.968750 0
  0.531250   0.984375 0
  0.765625   0.687500 0
  0.531250   0.953125 0
  0.531250   0.937500 0
  0.531250   0.906250 0
  0.765625   0.812500 0
  0.531250   0.875000 0
  0.765625   0.781250 0
  0.531250   0.843750 0
  0.781250   1.000000 0
  0.765625   0.546875 0
  0.765625   0.750000 0
  0.531250   0.812500 0
  0.781250   0.953125 0
  0.531250   0.765625 0
  0.515625   0.750000 0
  0.750000   0.984375 0
  0.750000   0.953125 0
  0.796875   0.593750 0
  0.796875   0.562500 0
  0.750000   0.843750 0
  0.750000   0.937500 0
  0.515625   1.000000 0
  0.750000   0.906250 0
  0.515625   0.968750 0
  0.750000   0.671875 0
  0.750000   0.875000 0
  0.515625   0.937500 0
  0.515625   0.921875 0
  0.515625   0.890625 0
  0.750000   0.796875 0
  0.515625   0.859375 0
  0.750000   0.765625 0
  0.515625   0.828125 0
  1.000000   0.718750 0
  0.750000   0.531250 0
  0.750000   0.734375 0
  0.515625   0.796875 0
  0.734375   1.000000 0
  0.734375   0.968750 0
  0.734375   0.937500 0
  0.781250   0.578125 0
  0.781250   0.546875 0
  0.968750   0.578125 0
  0.734375   0.828125 0
  0.968750   0.546875 0
  0.734375   0.796875 0
  0.734375   0.765625 0
  0.968750   0.671875 0
  0.734375   0.734375 0
  0.968750   0.640625 0
  0.734375   0.703125 0
  0.968750   0.609375 0
  0.734375   0.671875 0
  0.734375   0.656250 0
  0.734375   0.625000 0
  0.968750   0.531250 0
  0.734375   0.593750 0
  0.984375   0.734375 0
  0.984375   0.703125 0
  0.734375   0.515625 0
  0.718750   0.984375 0
  0.718750   0.953125 0
  0.718750   0.921875 0
  0.953125   0.562500 0
  0.718750   0.812500 0
  0.953125   0.531250 0
  0.718750   0.781250 0
  0.718750   0.750000 0
  0.953125   0.656250 0
  0.718750   0.718750 0
  0.953125   0.625000 0
  0.718750   0.687500 0
  0.953125   0.593750 0
  0.718750   0.656250 0
  0.671875   1.000000 0
  0.718750   0.640625 0
  0.718750   0.609375 0
  0.953125   0.515625 0
  0.718750   0.578125 0
  0.968750   0.718750 0
  0.968750   0.687500 0
  0.953125   0.671875 0
  0.703125   0.968750 0
  0.703125   0.937500 0
  0.937500   0.656250 0
  0.703125   0.906250 0
  0.937500   0.546875 0
  0.703125   0.796875 0
  0.937500   0.515625 0
  0.703125   0.765625 0
  0.937500   0.671875 0
  0.703125   0.734375 0
  0.937500   0.640625 0
  0.703125   0.703125 0
  0.937500   0.609375 0
  0.703125   0.671875 0
  0.937500   0.578125 0
  0.703125   0.640625 0
  0.656250   0.984375 0
  0.703125   0.625000 0
  0.703125   0.593750 0
  0.718750   0.796875 0
  0.953125   0.734375 0
  0.812500   1.000000 0
  0.859375   0.656250 0
  0.703125   0.781250 0
  0.937500   0.718750 0
  0.953125   0.703125 0
  0.796875   0.984375 0
  0.843750   0.640625 0
  0.812500   0.968750 0
  0.859375   0.625000 0
  0.796875   0.953125 0
  0.843750   0.609375 0
  0.687500   0.953125 0
  0.687500   0.921875 0
  0.687500   0.890625 0
  0.921875   0.734375 0
  0.687500   0.796875 0
  0.687500   0.781250 0
  0.921875   0.703125 0
  0.687500   0.765625 0
  0.687500   0.750000 0
  0.921875   0.656250 0
  0.687500   0.718750 0
  0.921875   0.625000 0
  0.687500   0.687500 0
  0.921875   0.593750 0
  0.687500   0.656250 0
  0.640625   1.000000 0
  0.921875   0.562500 0
  0.687500   0.625000 0
  0.640625   0.968750 0
  0.687500   0.609375 0
  0.687500   0.578125 0
  0.937500   0.687500 0
  0.921875   0.671875 0
  0.671875   0.921875 0
  0.906250   0.656250 0
  0.671875   0.906250 0
  0.671875   0.875000 0
  0.906250   0.718750 0
  0.671875   0.781250 0
  0.671875   0.765625 0
  0.671875   0.734375 0
  0.906250   0.640625 0
  0.671875   0.703125 0
  0.906250   0.609375 0
  0.671875   0.671875 0
  0.906250   0.578125 0
  0.671875   0.640625 0
  0.625000   0.984375 0
  0.671875   0.609375 0
  0.625000   0.953125 0
  0.671875   0.593750 0
  0.671875   0.562500 0
  0.765625   0.953125 0
  0.812500   0.609375 0
  0.656250   1.000000 0
  0.656250   0.953125 0
  0.656250   0.906250 0
  0.890625   0.640625 0
  0.656250   0.890625 0
  0.656250   0.859375 0
  0.890625   0.734375 0
  0.656250   0.796875 0
  0.812500   0.921875 0
  0.562500   1.000000 0
  0.625000   0.828125 0
  0.812500   0.843750 0
  0.843750   0.593750 0
  0.812500   0.812500 0
  0.625000   0.718750 0
  0.828125   0.687500 0
  0.640625   0.593750 0
  0.812500   0.781250 0
  0.625000   0.687500 0
  0.765625   0.828125 0
  0.640625   0.562500 0
  0.812500   0.750000 0
  0.562500   0.828125 0
  0.781250   0.875000 0
  0.546875   0.937500 0
  0.781250   0.671875 0
  0.781250   0.593750 0
  0.546875   0.656250 0
  0.796875   0.750000 0
  0.562500   0.812500 0
  0.796875   0.546875 0
  0.765625   0.796875 0
  0.765625   0.593750 0
  1.000000   0.531250 0
  0.812500   0.718750 0
  0.859375   0.562500 0
  0.625000   0.625000 0
  0.812500   0.703125 0
  0.812500   0.906250 0
  0.578125   0.968750 0
  0.984375   0.593750 0
  0.828125   0.578125 0
  0.828125   0.781250 0
  0.593750   0.843750 0
  0.812500   0.671875 0
  0.625000   0.578125 0
  0.796875   0.671875 0
  0.562500   0.734375 0
  0.984375   0.562500 0
  0.828125   0.546875 0
  0.812500   0.640625 0
  0.750000   0.812500 0
  0.625000   0.546875 0
  0.796875   0.640625 0
  0.562500   0.703125 0
  0.828125   0.515625 0
  0.781250   0.734375 0
  0.546875   0.796875 0
  0.781250   0.531250 0
  0.750000   0.781250 0
  0.625000   0.515625 0
  0.796875   0.609375 0
  0.562500   0.671875 0
  0.765625   0.656250 0
  0.765625   0.859375 0
  0.531250   0.921875 0
  0.812500   0.578125 0
  0.562500   0.656250 0
  0.984375   0.687500 0
  0.750000   0.750000 0
  0.812500   0.562500 0
  0.812500   0.765625 0
  0.578125   0.828125 0
  0.562500   0.625000 0
  0.984375   0.656250 0
  0.750000   0.718750 0
  0.812500   0.531250 0
  0.781250   0.656250 0
  0.546875   0.718750 0
  0.781250   0.625000 0
  0.546875   0.687500 0
  0.750000   0.640625 0
  0.796875   0.531250 0
  0.562500   0.593750 0
  0.984375   0.625000 0
  0.750000   0.687500 0
  0.546875   0.984375 0
  0.609375   0.812500 0
  0.796875   0.875000 0
  0.546875   0.953125 0
  0.609375   0.578125 0
  0.843750   0.515625 0
  0.765625   0.515625 0
  0.765625   0.718750 0
  0.531250   0.781250 0
  0.984375   0.546875 0
  0.750000   0.609375 0
  0.796875   0.828125 0
  0.671875   0.968750 0
  0.796875   0.796875 0
  0.796875   0.765625 0
  0.609375   0.671875 0
  0.796875   0.734375 0
  0.546875   0.812500 0
  0.796875   0.703125 0
  0.843750   0.546875 0
  0.609375   0.609375 0
  0.796875   0.687500 0
  0.562500   0.953125 0
  0.796875   0.656250 0
  0.609375   0.562500 0
  0.796875   0.625000 0
  0.609375   0.531250 0
  0.546875   0.640625 0
  0.765625   0.671875 0
  0.531250   0.734375 0
  0.796875   0.515625 0
  0.765625   0.640625 0
  0.531250   0.703125 0
  0.703125   1.000000 0
  0.765625   0.609375 0
  0.531250   0.671875 0
  0.765625   0.578125 0
  0.531250   0.640625 0
  0.546875   0.609375 0
  0.531250   1.000000 0
  0.890625   0.593750 0
  0.656250   0.656250 0
  0.781250   0.515625 0
  0.546875   0.578125 0
  0.531250   0.968750 0
  0.890625   0.562500 0
  0.656250   0.625000 0
  0.609375   0.968750 0
  0.781250   0.859375 0
  0.656250   0.593750 0
  0.750000   0.703125 0
  0.515625   0.765625 0
  0.781250   0.812500 0
  0.781250   0.781250 0
  0.593750   0.687500 0
  0.781250   0.750000 0
  0.593750   0.656250 0
  0.781250   0.718750 0
  0.531250   0.796875 0
  0.828125   0.562500 0
  0.593750   0.625000 0
  0.781250   0.687500 0
  0.828125   0.531250 0
  0.593750   0.593750 0
  0.812500   0.625000 0
  0.578125   0.687500 0
  0.781250   0.640625 0
  0.781250   0.609375 0
  0.593750   0.515625 0
  0.515625   0.781250 0
  0.812500   0.546875 0
  0.578125   0.609375 0
  0.812500   0.515625 0
  0.578125   0.578125 0
  0.750000   0.656250 0
  0.515625   0.718750 0
  0.750000   0.625000 0
  0.515625   0.687500 0
  0.687500   0.984375 0
  0.750000   0.593750 0
  0.515625   0.656250 0
  0.531250   0.546875 0
  0.750000   0.562500 0
  0.515625   0.625000 0
  0.531250   0.515625 0
  0.984375   0.515625 0
  0.750000   0.578125 0
  0.515625   0.531250 0
  0.828125   0.796875 0
  0.640625   0.703125 0
  0.828125   0.765625 0
[...]
CELL_DATA 7648
SCALARS scalar_value float 1
LOOKUP_TABLE default
-1.07118e-05
-2.93212e-06
-1.06224e-08
9.01755e-09
-4.01387e-09
-3.99711e-09
-1.81359e-05
1.758e-05
-1.24176e-05
-3.31576e-05
0.00172642
-0.000676715
0.00404991
-0.00151456
0.00520161
0.00260258
0.00483349
-0.00177893
7.2564e-05
-2.24022e-06
-5.6016e-05
-0.000113284
0.000633757
-0.00080395
1.81423e-05
1.79704e-05
7.34927e-05
-7.71747e-05
-2.17104e-05
0.000103384
7.88284e-05
-7.32272e-05
5.54807e-10
-1.23579e-10
4.57585e-10
1.62219e-10
0.00188816
0.000826982
1.20146e-05
3.22251e-05
-3.86183e-05
0.000170088
0.00145357
0.000506575
2.73775e-09
-3.39672e-09
4.97216e-09
1.24375e-08
6.02664e-09
-1.12378e-08
3.12746e-09
9.12448e-09
2.93797e-09
2.04128e-09
-9.453e-09
-2.02483e-09
-1.8694e-05
0.000109305
0.000116052
-0.000149086
0.000109376
0.000184466
9.54668e-07
-2.18146e-07
-2.18303e-06
2.74005e-06
-1.08376e-06
1.18845e-07
-5.45973e-07
-1.35888e-05
5.36567e-07
5.2378e-07
1.60287e-08
-0.000173628
-0.00181726
-1.25541e-08
1.3139e-08
-1.30523e-08
-1.19622e-08
-1.56441e-09
-1.14176e-08
1.25704e-08
0
9.29054e-09
-1.26049e-08
5.27059e-09
3.9333e-09
2.35099e-06
-6.65571e-06
-2.35154e-05
-1.90922e-07
-3.79504e-07
1.08778e-06
-1.85388e-07
7.93147e-07
1.04271e-06
8.48369e-07
-3.96002e-07
4.98435e-06
-4.5551e-06
-2.31993e-06
-1.90535e-07
-1.84954e-07
-1.9468e-07
4.2356e-06
0
0
0
-2.30949e-08
-1.69481e-09
-6.39909e-08
-1.00441e-09
1.24265e-09
-5.72789e-10
3.24835e-09
4.96277e-10
1.75313e-10
4.14669e-10
0
1.92838e-06
1.57334e-05
-1.46199e-05
2.2487e-05
2.03291e-06
-5.50991e-06
1.75872e-05
1.49344e-05
8.53314e-09
8.58142e-09
-7.20113e-09
-4.63481e-09
3.31736e-09
-1.10857e-09
3.34392e-09
9.1769e-10
1.2631e-05
0.000101611
-6.80129e-05
-4.59432e-05
-0.000148366
1.34712e-09
0
1.98636e-06
-8.36212e-07
-2.38229e-06
9.44595e-07
-1.84852e-06
-2.29924e-06
2.81423e-05
-4.12916e-05
4.00948e-05
-7.36039e-07
-1.14751e-05
-7.8089e-07
-6.38644e-06
1.32542e-05
-3.11826e-06
1.61317e-05
2.16584e-06
-2.21964e-06
9.18787e-07
0.000423787
-4.83885e-05
0.000339322
-0.000115172
-0.000853561
-9.59163e-05
-6.8288e-08
-0.000111446
-4.28767e-06
1.09111e-07
4.84884e-08
-4.99607e-08
1.46807e-08
1.24102e-09
-4.87587e-10
7.82045e-06
3.62194e-06
4.60735e-06
-4.06289e-05
3.35975e-06
-5.01816e-05
-7.1995e-05
-7.44095e-05
2.91556e-06
-2.01517e-05
5.6537e-06
5.63685e-06
-5.54035e-06
-1.04575e-05
5.86663e-06
-0.00278206
-0.0103822
2.94908e-05
-1.20568e-05
3.47195e-05
-1.26757e-05
-3.05156e-07
-6.99472e-08
-3.53806e-07
4.20432e-08
1.10772e-05
-4.164e-05
4.65888e-05
5.28046e-06
4.90372e-10
-3.11273e-10
-1.05946e-05
4.97315e-05
2.80562e-05
-4.18277e-05
3.40919e-05
0.000424963
-0.000465585
-4.18843e-05
5.76969e-06
-3.9059e-05
4.299e-05
1.10599e-05
7.46526e-08
6.95264e-08
9.4476e-07
1.19099e-06
-1.79922e-06
1.07988e-06
2.11658e-06
-2.14936e-06
7.29017e-07
1.80038e-06
2.25966e-06
1.82354e-05
-1.24806e-05
2.3285e-06
1.86397e-06
1.42876e-08
-9.95793e-09
1.54628e-08
8.47491e-09
1.75769e-05
-1.34715e-05
3.29056e-06
6.29901e-06
1.69473e-08
-1.08027e-08
1.83365e-08
9.0795e-09
0.0149995
0.0170287
2.55612e-07
1.1732e-07
-2.70798e-08
-2.78465e-08
1.91468e-08
-2.11478e-07
-1.22627e-07
-3.80883e-07
-3.58452e-07
-9.89324e-08
8.23241e-08
2.72781e-09
-9.48874e-10
3.08701e-09
7.80736e-10
-3.31185e-09
7.76513e-09
-9.15313e-09
-3.73191e-09
0
8.73369e-10
-1.06033e-09
0
-1.91558e-06
2.18247e-06
-5.81587e-07
3.65332e-07
7.95799e-07
3.02393e-07
-1.4525e-07
5.72187e-06
-6.05156e-05
8.66113e-05
-8.7533e-06
4.32204e-06
-2.73948e-05
2.81818e-06
1.05729e-05
-4.09497e-05
2.13625e-05
1.62134e-05
-1.70898e-06
-2.73277e-05
-3.14664e-05
-1.13781e-05
-2.04489e-06
6.68592e-06
1.12346e-05
-0.00028375
-0.000196546
0
1.36312e-08
0
7.2001e-05
-3.65597e-06
0.00166108
0.00198046
-6.28768e-07
-2.04776e-05
-0.000443573
-1.78107e-05
7.809e-07
-4.21545e-05
0.00220902
-6.53804e-08
3.31516e-05
3.06477e-08
-3.53113e-09
-3.09449e-08
0
9.38429e-10
8.71535e-07
0.000254249
-6.61668e-07
-0.00017129
-0.000735976
7.65453e-08
-9.45273e-08
-1.31798e-08
-0.00084276
7.57432e-07
0.00207129
-8.51879e-05
7.35416e-05
1.03968e-08
0.000134216
-0.00080795
0.000417446
-0.000548757
1.34868e-05
0.000418607
-1.25757e-06
-2.66103e-07
-2.31413e-06
-0.000554175
-2.11195e-06
1.6116e-07
-2.57718e-10
-4.02841e-10
0.000701828
-2.18977e-09
0.000161641
-6.04059e-08
0.000131861
-8.6425e-10
-7.56458e-05
-9.43361e-05
-2.54711e-06
-5.13709e-06
-0.00141358
-0.00048497
-0.000125134
-1.10108e-07
4.26787e-07
4.27002e-08
0.00070574
7.16395e-07
-7.26715e-05
-1.30853e-06
2.24192e-07
-1.39191e-06
0.00287745
2.93448e-06
9.56952e-05
-9.71517e-05
9.00207e-08
2.30809e-10
-7.61973e-06
-3.80975e-08
-0.000341655
0.0005248
-1.67126e-07
-1.23529e-05
-6.00233e-08
-2.91506e-05
2.04318e-09
-3.12852e-09
-4.84983e-09
-1.24633e-07
8.29669e-08
-2.99614e-08
1.71323e-06
4.75483e-06
-2.68869e-07
2.90079e-05
1.18908e-08
3.71441e-06
8.84359e-06
1.73776e-05
-7.97918e-05
1.08945e-07
1.01906e-07
1.05898e-05
1.82609e-08
-1.71676e-05
-8.26013e-09
-4.34826e-05
1.51034e-05
-2.58392e-05
1.64887e-08
2.04102e-05
-2.94941e-06
6.99695e-09
0.00116159
-3.12369e-07
0.0102697
-3.00629e-07
9.97067e-08
1.99885e-08
6.62722e-08
0.00993742
-1.51356e-09
1.71551e-06
-1.0381e-08
-0.00188921
-1.3431e-05
-5.15641e-05
-2.55897e-05
-6.0113e-05
2.74779e-07
0
0
-6.40232e-08
0.00220175
-2.66664e-05
-1.12789e-07
0
1.54396e-08
2.31278e-05
-1.1329e-07
-9.48595e-08
0
-4.65057e-05
0
-8.48429e-06
-1.66367e-05
-5.10373e-06
8.38335e-09
-1.02888e-07
2.30201e-07
-1.5886e-07
2.29929e-08
-1.95193e-07
-2.10476e-06
-1.49898e-06
0.000820677
2.0556e-05
1.88976e-09
-1.0369e-08
-1.01157e-06
-1.57001e-05
-3.46846e-05
-0.000117858
-1.32301e-05
-2.10717e-08
-1.53732e-05
-0.000252171
-1.44705e-06
-1.15356e-08
-8.87507e-09
3.47511e-05
-2.06776e-08
1.21508e-08
-9.66625e-09
-1.6816e-08
1.20681e-08
-2.48968e-05
3.85965e-05
-8.99922e-06
-0.000115875
0.0046537
-0.000811849
-4.64457e-09
-5.32177e-07
0.000114514
0.000579542
2.24336e-06
-0.000794242
-0.000992127
3.23063e-05
-0.000121784
0.000186093
3.72972e-06
-0.00130192
0.000725039
0.0026159
1.24994e-08
8.3519e-07
0.00283893
1.30249e-06
1.44263e-06
1.58495e-06
-5.24967e-05
1.96406e-06
-9.7175e-09
1.80907e-05
1.68934e-08
3.4025e-08
0.00215244
0.000601022
1.09103e-05
-1.99874e-08
1.42984e-05
9.34894e-06
-2.57911e-08
7.03489e-05
-2.64194e-07
7.58309e-09
-0.000535147
-1.54441e-07
-1.40926e-06
-0.000343465
0.00349559
9.24571e-07
-0.00301168
0.00455574
0.000725061
-2.26602e-10
6.86488e-07
-9.24521e-06
3.55024e-10
9.94962e-08
-3.55836e-08
-0.00241374
-6.09126e-06
1.26806e-06
1.04926e-08
-1.65101e-05
-6.79802e-09
0.00447401
4.17995e-05
9.9675e-06
-2.66029e-10
-6.20263e-06
-1.63022e-09
7.08745e-06
-7.73344e-06
-1.54735e-06
-3.56735e-09
-2.87623e-05
0.00250493
3.47998e-06
1.00327e-05
8.30308e-09
4.90063e-09
0.00011102
-5.6319e-06
-0.000542804
-7.51207e-09
-6.35911e-05
-1.76811e-07
-0.000833164
0
0
-0.000215736
0
5.86862e-08
0.000315525
-7.42996e-07
-1.26183e-08
-0.000143711
-1.02471e-08
0.000404034
2.16348e-08
4.62668e-05
-0.000108436
3.78534e-05
-1.34155e-09
-0.000110838
-1.29112e-08
-1.52466e-05
5.62073e-09
-0.00191609
4.34866e-05
0.000140322
-6.56442e-08
7.92152e-10
-2.59775e-10
1.27102e-09
-2.20301e-05
2.21251e-10
1.78144e-06
9.38426e-06
-1.60878e-06
-4.2449e-10
5.06092e-07
1.81504e-05
0
-9.57554e-10
2.43874e-07
3.64682e-09
-1.55396e-09
0
0
-5.27622e-05
2.3566e-09
-4.56513e-07
6.13338e-06
-9.69814e-06
0
-1.14847e-05
-2.24271e-05
-1.35363e-05
1.56879e-09
1.08846e-05
2.4239e-06
-1.17299e-06
1.84363e-08
6.84201e-08
-5.47293e-05
7.62649e-06
-2.55731e-05
-1.73127e-08
8.15588e-05
1.5678e-05
-0.00112161
-1.38271e-06
1.67965e-05
-2.69905e-05
-0.000623595
5.92294e-07
0.00449228
-0.00097966
-2.66909e-06
-0.00196987
0.000130015
-1.15684e-07
3.74621e-05
3.90242e-05
0.000112655
2.0421e-07
-4.11994e-07
9.28667e-07
-9.83955e-06
-1.45564e-07
-9.75609e-06
-0.00180431
1.90919e-07
2.54644e-05
4.78977e-07
1.19849e-06
-0.000309529
-0.000854479
-6.80763e-06
-1.43676e-05
1.1684e-05
-7.82613e-05
-1.56939e-05
-1.28339e-06
-5.84528e-05
-1.19096e-07
-0.00494313
2.89698e-05
-1.54997e-06
0.000132548
-0.000224321
1.16217e-05
-3.63942e-06
2.25197e-08
-4.93922e-05
-0.00104947
-0.00224645
8.08519e-07
-1.46603e-06
0
5.98704e-06
0
2.67831e-05
-1.74528e-07
4.33407e-05
-5.22552e-05
1.75307e-06
-0.000201268
-9.72892e-08
-0.00165505
-6.24422e-05
-2.92958e-08
0.00426614
-2.73302e-09
5.96918e-08
6.61267e-08
3.13308e-05
1.03883e-07
-2.31405e-07
-8.98417e-08
6.79227e-07
2.41143e-05
-1.62621e-05
1.15324e-05
-1.23055e-05
0
-2.30869e-05
-9.37396e-08
0
-3.92377e-06
-5.04959e-08
0
5.49313e-05
-0.000106855
0
5.04408e-10
5.25001e-06
1.20736e-09
1.72042e-05
0.00331257
-2.69202e-05
4.66367e-05
-1.67379e-05
-1.35063e-10
-0.000151349
-8.48334e-09
-0.000151349
3.59641e-06
0.000166733
0.00725859
-1.87124e-08
0
9.21814e-06
-7.83537e-06
5.31881e-07
-4.52191e-09
2.16767e-05
0.00391447
-3.51641e-05
2.64333e-09
1.91852e-05
6.39348e-06
0.000339301
4.60343e-10
-1.45448e-05
3.28882e-06
9.21665e-05
-0.000227574
-9.64845e-07
-3.22497e-10
-3.97313e-06
-2.05715e-06
-8.21847e-09
-1.51758e-08
-0.000205821
1.05755e-05
0
-1.83439e-06
-1.56841e-05
1.17981e-06
7.35606e-07
-0.00142636
0.00111427
-2.18076e-05
3.12672e-09
-3.41903e-09
-5.74305e-09
7.19457e-06
1.44385e-06
-1.51278e-08
1.26838e-05
2.27337e-10
-2.70628e-09
1.1038e-05
1.3567e-08
-1.05421e-05
0
0
-7.95631e-06
-0.00123313
3.50905e-05
-7.43196e-06
-8.42872e-05
5.6001e-06
-9.88327e-10
-2.18999e-05
9.13942e-05
-8.93537e-07
0
-1.47111e-05
-3.3981e-09
2.26889e-06
-2.37027e-05
-1.01243e-08
-2.3624e-05
1.47122e-08
9.73023e-09
0.000163222
0
0.000839484
-1.34914e-08
-6.29032e-09
-3.56678e-05
1.25994e-07
5.51085e-06
-2.3446e-05
-3.97824e-05
3.83865e-10
1.46369e-08
-1.10612e-05
0.000411625
-9.12971e-09
-7.82116e-08
6.99784e-07
-6.61818e-06
7.40553e-07
1.19936e-06
-0.00225979
-8.25182e-05
-3.91132e-05
-2.67134e-05
0.00120288
0.00218155
0.00527532
7.6515e-08
-9.16913e-06
3.36872e-05
-5.50263e-05
2.55636e-09
0
-0.000103935
7.10819e-09
-6.13843e-05
-9.86642e-06
-1.58827e-05
6.47929e-06
-0.000222403
1.6444e-05
0.00351892
3.76478e-05
-0.000327184
-3.97715e-08
6.6854e-06
3.81608e-05
0
4.58788e-07
0.00301683
-5.27179e-05
3.38872e-06
-0.00116212
8.65378e-06
-6.09285e-10
-0.000544539
-0.000338182
-1.31492e-07
-7.83004e-06
1.01452e-08
2.3168e-09
1.89177e-09
1.42622e-08
-2.17801e-05
0
3.45449e-05
5.69393e-05
-4.91465e-06
1.35897e-05
-3.0982e-08
-0.0008117
-2.35881e-05
2.90642e-08
0.000956537
0.0001949
-3.14346e-05
9.00093e-05
5.85835e-09
1.69863e-06
-8.26149e-09
1.01629e-08
1.20296e-08
0
-2.063e-05
1.04044e-08
-3.00265e-05
-0.000325105
-0.000467105
3.11032e-05
1.87747e-05
-0.000248009
7.22946e-09
-1.35894e-05
1.336e-08
0.00395865
-2.18562e-06
3.42008e-09
-1.18726e-05
3.26968e-05
1.3112e-07
1.76258e-05
-0.00127234
5.27887e-07
0
0
4.06316e-07
-1.19338e-08
1.01381e-06
1.1823e-05
1.78775e-09
-2.12394e-08
-2.01265e-05
-5.47417e-09
-0.000416743
-3.06195e-08
0.00379103
-0.000341238
-2.26678e-05
-7.62693e-05
3.04249e-10
-4.49361e-05
2.96158e-05
1.76004e-05
-4.15699e-07
4.08432e-07
0.000675827
0.00251553
0.000253511
-0.000211867
1.00955e-06
0.00465129
-4.53666e-05
0
-3.52809e-06
-4.52052e-10
-5.68079e-09
-5.70434e-05
-9.5025e-06
-7.34943e-09
-9.71551e-10
3.95423e-05
-2.37392e-05
-1.42509e-07
-0.00197723
-3.50389e-05
2.4995e-05
0
-4.56993e-10
-1.3825e-08
-1.9657e-10
-0.000224027
-6.90574e-09
-1.88217e-09
-0.000212671
-1.50406e-05
2.97888e-05
-0.000523676
0.000571727
2.14001e-09
4.03196e-07
-6.96124e-05
0
-0.00064263
0.000747226
-1.61749e-07
8.04642e-08
1.4587e-09
-7.23335e-09
1.70788e-07
0.00676191
1.83509e-07
9.75417e-06
0
-0.000111494
7.41707e-05
0
8.33686e-08
1.9597e-05
-7.14543e-09
0.000134253
-1.92681e-05
0
-4.40257e-05
2.55678e-10
-3.70353e-05
0.000431534
0
0.000126041
-2.49137e-06
-2.51661e-08
0
8.6908e-06
-9.60185e-05
-1.40709e-05
0.0110343
5.05134e-05
3.98237e-10
0.000132432
-0.000230099
6.02513e-07
8.93245e-06
0
2.12317e-05
2.75494e-06
0.000154013
-6.92563e-09
5.103e-05
8.06664e-06
-1.25846e-05
0.000650477
1.60987e-09
2.28552e-09
-4.42378e-05
-1.57745e-06
-5.06472e-05
-2.45232e-05
-0.00164328
-4.95509e-06
-5.04574e-05
-4.57617e-05
-3.49479e-06
-1.04424e-05
2.69387e-05
-4.24065e-09
2.81966e-05
-8.92641e-06
-2.44488e-05
-1.0383e-08
1.26049e-06
-0.000157577
-6.96466e-05
-1.08082e-05
7.44218e-07
-8.43468e-06
8.96456e-10
0.000612991
1.37855e-08
0.0035323
-7.58299e-07
-2.13052e-07
-3.6059e-08
-2.40807e-07
-9.25474e-05
-0.00174211
-1.71466e-08
-3.00934e-05
2.92123e-05
3.82938e-06
1.13267e-08
0
3.992e-05
-3.07106e-08
-6.37436e-10
-3.32967e-05
0.000168727
-2.70271e-05
0.00405364
-6.67961e-06
-0.00220989
-3.04329e-06
-5.79808e-05
-2.35739e-05
3.97215e-05
3.07291e-05
-1.33636e-06
-0.00127255
2.181e-06
2.36151e-05
-0.000171092
0.00472654
5.44694e-06
-1.02318e-10
0.000749567
-1.75537e-05
0
1.88956e-06
1.5539e-10
-1.09615e-05
-7.41121e-08
1.18524e-10
-0.000836087
9.65009e-05
7.35624e-06
-3.42649e-05
-1.47457e-06
1.14641e-08
-0.000337804
0.000394127
-3.15811e-05
-3.16903e-05
6.40233e-05
-1.77224e-05
-1.48893e-08
3.14569e-05
-4.45067e-05
8.19477e-05
-5.52709e-05
-2.18871e-09
2.08354e-05
8.66078e-07
6.00559e-09
-1.29884e-05
1.24359e-08
-9.65223e-06
-0.000101071
-5.96739e-07
2.4298e-10
5.91031e-06
-0.00163118
0.000414532
1.16694e-06
-7.85454e-05
-5.35956e-05
-0.0019321
3.05377e-05
3.30163e-05
3.26406e-05
-7.93056e-05
3.20667e-05
3.65378e-05
-1.16544e-05
-2.22649e-06
9.81557e-06
-3.94996e-08
9.10931e-05
1.02148e-07
-0.00110236
-5.61658e-05
-0.000349246
-1.47245e-07
1.85979e-05
-1.5041e-08
-7.3898e-05
0.00136121
-0.000499496
3.57961e-05
-0.000171496
6.24687e-05
0.000104718
8.72918e-09
-0.000258359
-5.99515e-09
-2.78844e-09
6.93629e-09
-7.17786e-09
-3.16309e-05
7.43262e-05
-0.00138963
3.61247e-05
-4.67492e-05
-0.000161118
8.45478e-05
-0.000101617
4.02772e-06
0.000244776
-7.90314e-10
-3.70243e-09
-1.49597e-09
-1.98797e-05
-3.94565e-09
-1.08187e-07
-4.11323e-09
4.36968e-06
-1.03675e-09
-1.47869e-09
-4.77983e-06
8.96097e-05
-1.36447e-08
2.74464e-05
-6.10102e-09
-0.000109981
-1.01504e-08
2.76998e-06
-0.00187125
3.8634e-10
0.000124362
3.16295e-09
-2.35277e-09
0
-0.000117813
-0.000131483
6.3788e-05
9.15585e-09
9.89841e-09
0.000113696
-8.28348e-10
1.11412e-09
-0.000341169
8.33115e-10
-0.000427281
9.21797e-09
-4.67569e-05
-7.76429e-09
-1.95037e-05
-4.53841e-10
1.39152e-06
-3.62844e-09
-1.43204e-05
-1.53371e-10
4.90723e-06
0
-9.81109e-06
9.78247e-07
-0.0001761
-0.000906274
0.000293095
0.0048419
0.00424049
-1.30997e-08
7.22503e-08
7.63888e-07
-0.00010296
-2.61389e-08
-9.61546e-08
-9.10048e-08
2.00855e-07
-0.00144808
-0.00196531
-2.76056e-05
-1.60834e-05
0.00557606
1.92427e-07
0.0122716
1.96334e-05
1.15246e-05
-1.8276e-05
0.00651119
2.84283e-07
3.37969e-05
3.71987e-10
-3.54599e-05
-3.05283e-09
8.60887e-09
0.000138687
-0.00074324
-7.39303e-09
-4.0964e-05
0.000312164
0.000159978
9.3163e-06
1.88672e-07
1.37686e-07
-0.000262066
-5.95982e-05
-1.41132e-05
3.51868e-05
2.33539e-05
1.75061e-05
8.01719e-07
3.38764e-05
7.4102e-08
-4.84874e-07
-2.66795e-06
-1.71158e-05
1.14149e-06
-4.13075e-07
-0.00053986
-1.35205e-10
-0.000111005
-1.55067e-08
3.0022e-05
7.6169e-06
-7.91345e-10
-1.62355e-05
1.88354e-05
6.424e-06
6.29244e-06
7.31268e-07
5.87231e-07
-0.00177161
7.35686e-10
-7.27798e-05
1.33165e-08
-3.17777e-06
-6.33804e-05
9.46517e-09
-1.07054e-09
-0.000374475
-2.99362e-05
-1.19835e-05
0
1.62509e-07
9.16772e-05
7.46277e-10
1.2121e-07
-7.1708e-05
2.31157e-06
-0.00123513
6.94962e-09
1.12399e-06
-1.13149e-07
2.0838e-07
-1.8465e-07
-5.80937e-05
-1.12541e-05
-1.65876e-05
-1.38103e-06
7.73323e-07
-6.05644e-07
1.91984e-06
-1.0092e-06
-3.36793e-05
0
-4.05801e-05
-1.38118e-05
0.000808857
-0.000119706
-0.0017321
0.00108675
-5.56075e-08
-0.00127203
7.95333e-08
-0.00267356
-4.09903e-08
-0.000937562
-5.36729e-06
-1.84682e-05
-0.000264315
8.5794e-05
-0.000231271
6.33945e-07
-7.90806e-07
5.31025e-07
1.08239e-09
-0.00115193
-0.000165767
-1.88111e-06
-0.00128307
6.2855e-06
7.9648e-05
3.61958e-05
2.22553e-05
4.08521e-06
-0.000758685
1.11516e-05
-2.41841e-05
0.000150512
-0.000466624
0
0
0
1.38378e-05
-0.000108968
-0.00377895
-9.40324e-09
-0.000346144
0.00202971
-0.00178025
-0.000828734
0.00289076
2.55894e-06
-0.000240438
-0.000275054
1.53604e-05
-7.9111e-07
7.4219e-06
0.0017774
0.000152377
3.98005e-05
-0.000172315
0
6.17589e-07
-1.40836e-06
-1.61919e-07
5.37546e-08
-6.39023e-08
-5.48402e-05
-0.000129591
8.52273e-05
-7.68323e-05
8.66568e-06
9.95406e-05
-0.000177634
0.000796326
-0.00107174
9.09489e-05
-6.52378e-07
-0.000235987
0.000451587
0.000988345
-0.00217402
-1.41195e-05
0.000140232
-5.86803e-05
7.61941e-06
-0.00248371
0.00708555
-2.09152e-10
-3.32321e-09
2.64177e-10
1.74304e-10
3.2809e-07
3.41768e-07
3.78349e-07
0.000832065
8.40467e-08
5.79598e-09
-0.000863126
1.79105e-08
3.97681e-08
0.000978841
-0.00060402
7.12481e-09
1.31175e-08
-1.2454e-08
-2.7786e-08
9.52019e-08
0.000300475
0
-0.000157241
2.72817e-06
0.000157607
-1.32193e-06
-8.25011e-07
2.23931e-07
2.81859e-05
0.00468856
0.000696402
0.00197314
-0.00172271
-8.86421e-05
3.64794e-08
5.7662e-08
7.01853e-08
-6.25499e-05
0.000998708
0.00045975
-5.40697e-09
-0.000172065
0.000355505
-2.66903e-09
0.00401045
5.12934e-09
2.88686e-07
-3.82959e-09
-0.000730064
0.000794458
-0.000323786
-1.55795e-05
-5.03764e-05
1.21864e-08
-5.55047e-05
-1.38118e-08
-5.62789e-05
-0.000589687
0.000781437
-0.000624562
-0.000387276
-4.4744e-05
2.9142e-05
-1.22652e-05
0.00703318
1.02588e-05
-5.74504e-05
8.75493e-05
-1.66902e-05
-2.07423e-05
0.00446884
0.000388015
8.93614e-07
6.01254e-05
1.22501e-05
-1.45197e-08
-5.40901e-05
-3.44455e-05
-8.81271e-08
-1.04773e-07
-8.96552e-07
0.00209387
-7.47193e-05
2.22246e-05
3.58995e-08
-6.74797e-05
-6.66335e-05
0
0.00573463
0.000184044
0.0113704
0.0360199
1.64405e-07
0.000344938
-1.09786e-07
0.00156345
2.47525e-05
-2.08982e-06
1.17309e-09
1.64275e-05
0
0
0
9.43659e-06
-4.89277e-07
-0.000112974
0.00109664
0.00115874
0.00187764
0.00138263
-2.80717e-05
-0.000214199
0.00539253
1.11103e-05
-4.86692e-09
1.02338e-07
-3.73118e-08
1.3182e-08
-0.00017325
-1.11723e-07
-1.34715e-08
2.23109e-08
5.61664e-05
-0.000155597
0.000589633
-0.000842084
2.12596e-09
-1.39492e-08
-3.18527e-10
3.22366e-09
3.79896e-09
0
2.93417e-05
6.65388e-06
0.000266271
-0.001288
0.000256385
-0.00272117
5.76451e-06
-0.0200164
-0.00531065
-0.012079
7.70786e-06
-3.39172e-05
3.70815e-06
4.90261e-06
0.000378081
-1.82253e-06
-9.43104e-08
7.53114e-07
2.16741e-09
0.000566888
0.000105298
8.1219e-08
0.000118301
4.51792e-09
2.09073e-05
2.88474e-05
-6.2947e-06
0.003755
-1.39255e-05
-3.67207e-05
-3.43043e-06
-5.94538e-06
0.00449728
9.97635e-05
0.00107456
8.53567e-05
0
-1.33239e-06
2.28187e-07
-1.19207e-06
-0.000139562
-8.22587e-05
0.000306054
2.4701e-05
-1.80205e-06
-0.000418467
3.19958e-05
-1.35001e-05
1.04477e-06
-4.27104e-06
3.54663e-07
-1.03445e-07
-7.77954e-05
-8.56517e-08
0.00456426
-0.00111812
-6.94248e-08
5.02853e-08
-9.17344e-08
2.12298e-09
1.13717e-08
-0.00182105
-0.000106582
-8.16574e-05
3.62623e-05
-1.67783e-06
-6.41765e-06
-0.00220085
0.00682942
0.00809636
-8.45823e-05
0
-8.41731e-10
1.93046e-05
2.29349e-06
-4.90151e-06
2.16288e-05
-1.27819e-05
-4.63118e-06
4.57824e-08
6.36509e-08
1.12222e-08
-5.46658e-08
0.0015386
-0.000269469
-0.000684901
1.28539e-05
-0.000466681
-1.56988e-10
1.47746e-10
0
0.000471816
1.64855e-05
0.00256451
-0.00185128
6.37505e-05
0
0
-0.000238467
-5.52766e-05
-0.00095575
0
-4.21133e-10
-0.000762534
-0.00079399
0
3.21471e-05
-0.000118199
2.64449e-05
-0.000311426
-1.06241e-05
-1.30477e-05
3.33013e-05
-3.16538e-05
0.000517959
2.07291e-06
3.17741e-06
3.43431e-05
-4.52462e-06
-0.000460858
3.54315e-05
1.94748e-05
-7.10653e-06
0.000125824
-1.15464e-08
-4.01889e-05
1.48084e-05
2.4274e-08
-2.14423e-08
0.00586218
5.58029e-07
-1.58451e-06
0.00303168
2.96593e-08
3.46186e-08
9.53746e-08
1.48558e-08
-1.89251e-05
3.45594e-05
-1.56134e-05
3.30522e-05
2.36868e-08
-2.97223e-08
6.61982e-09
4.87656e-08
6.38554e-08
9.73068e-05
-2.59947e-05
-7.48963e-05
9.98798e-06
-7.95744e-06
1.85126e-05
4.3957e-06
-0.000245059
9.70287e-07
-0.000258821
7.84276e-09
7.60859e-07
-1.92462e-06
-7.57311e-05
-0.000115052
-7.67737e-09
4.76471e-05
-0.00321092
-2.1478e-06
2.03681e-06
0.000373678
3.36945e-08
-3.61195e-07
0.00456213
-0.00172469