# vtk DataFile Version 2.0
Unstructured Grid by M++
ASCII
DATASET UNSTRUCTURED_GRID
POINTS 4072 float
  0.828125   0.890625 0
  0.875000   0.531250 0
  0.828125   0.750000 0
  0.593750   0.968750 0
  0.828125   0.671875 0
  0.828125   0.875000 0
  0.593750   0.937500 0
  0.828125   0.656250 0
  0.828125   0.640625 0
  0.828125   0.843750 0
  0.593750   0.906250 0
  0.828125   0.625000 0
  0.781250   0.968750 0
  0.828125   0.609375 0
  0.828125   0.812500 0
  0.593750   0.875000 0
  0.593750   0.828125 0
  0.593750   0.796875 0
  0.828125   0.703125 0
  0.593750   0.765625 0
  0.828125   0.937500 0
  0.812500   0.875000 0
  0.859375   0.515625 0
  0.812500   0.734375 0
  0.812500   0.937500 0
  0.578125   1.000000 0
  0.578125   0.750000 0
  0.812500   0.687500 0
  0.578125   0.953125 0
  0.812500   0.656250 0
  0.812500   0.859375 0
  0.578125   0.921875 0
  0.812500   0.828125 0
  0.578125   0.890625 0
  0.812500   0.593750 0
  0.812500   0.796875 0
  0.578125   0.859375 0
  0.578125   0.812500 0
  0.578125   0.781250 0
  0.796875   1.000000 0
  0.796875   0.859375 0
  0.796875   0.718750 0
  0.562500   0.984375 0
  0.562500   0.937500 0
  0.796875   0.843750 0
  0.562500   0.906250 0
  0.796875   0.812500 0
  0.562500   0.875000 0
  0.796875   0.578125 0
  0.796875   0.781250 0
  0.562500   0.843750 0
  0.812500   0.984375 0
  0.562500   0.796875 0
  0.812500   0.953125 0
  0.562500   0.765625 0
  0.796875   0.937500 0
  0.546875   0.750000 0
  0.781250   0.984375 0
  0.828125   0.593750 0
  0.781250   0.843750 0
  0.781250   0.937500 0
  0.546875   1.000000 0
  0.781250   0.703125 0
  0.546875   0.968750 0
  0.546875   0.921875 0
  0.781250   0.828125 0
  0.546875   0.890625 0
  0.781250   0.796875 0
  0.546875   0.859375 0
  0.781250   0.562500 0
  0.781250   0.765625 0
  0.546875   0.828125 0
  0.796875   0.968750 0
  0.546875   0.781250 0
  0.765625   1.000000 0
  0.765625   0.968750 0
  0.531250   0.984375 0
  0.765625   0.687500 0
  0.531250   0.953125 0
  0.531250   0.937500 0
  0.531250   0.906250 0
  0.765625   0.812500 0
  0.531250   0.875000 0
  0.765625   0.781250 0
  0.531250   0.843750 0
  0.781250   1.000000 0
  0.765625   0.546875 0
  0.765625   0.750000 0
  0.531250   0.812500 0
  0.781250   0.953125 0
  0.531250   0.765625 0
  0.515625   0.750000 0
  0.750000   0.984375 0
  0.750000   0.953125 0
  0.796875   0.593750 0
  0.796875   0.562500 0
  0.750000   0.843750 0
  0.750000   0.937500 0
  0.515625   1.000000 0
  0.750000   0.906250 0
  0.515625   0.968750 0
  0.750000   0.671875 0
  0.750000   0.875000 0
  0.515625   0.937500 0
  0.515625   0.921875 0
  0.515625   0.890625 0
  0.750000   0.796875 0
  0.515625   0.859375 0
  0.750000   0.765625 0
  0.515625   0.828125 0
  1.000000   0.718750 0
  0.750000   0.531250 0
  0.750000   0.734375 0
  0.515625   0.796875 0
  0.734375   1.000000 0
  0.734375   0.968750 0
  0.734375   0.937500 0
  0.781250   0.578125 0
  0.781250   0.546875 0
  0.968750   0.578125 0
  0.734375   0.828125 0
  0.968750   0.546875 0
  0.734375   0.796875 0
  0.734375   0.765625 0
  0.968750   0.671875 0
  0.734375   0.734375 0
  0.968750   0.640625 0
  0.734375   0.703125 0
  0.968750   0.609375 0
  0.734375   0.671875 0
  0.734375   0.656250 0
  0.734375   0.625000 0
  0.968750   0.531250 0
  0.734375   0.593750 0
  0.984375   0.734375 0
  0.984375   0.703125 0
  0.734375   0.515625 0
  0.718750   0.984375 0
  0.718750   0.953125 0
  0.718750   0.921875 0
  0.953125   0.562500 0
  0.718750   0.812500 0
  0.953125   0.531250 0
  0.718750   0.781250 0
  0.718750   0.750000 0
  0.953125   0.656250 0
  0.718750   0.718750 0
  0.953125   0.625000 0
  0.718750   0.687500 0
  0.953125   0.593750 0
  0.718750   0.656250 0
  0.671875   1.000000 0
  0.718750   0.640625 0
  0.718750   0.609375 0
  0.953125   0.515625 0
  0.718750   0.578125 0
  0.968750   0.718750 0
  0.968750   0.687500 0
  0.953125   0.671875 0
  0.703125   0.968750 0
  0.703125   0.937500 0
  0.937500   0.656250 0
  0.703125   0.906250 0
  0.937500   0.546875 0
  0.703125   0.796875 0
  0.937500   0.515625 0
  0.703125   0.765625 0
  0.937500   0.671875 0
  0.703125   0.734375 0
  0.937500   0.640625 0
  0.703125   0.703125 0
  0.937500   0.609375 0
  0.703125   0.671875 0
  0.937500   0.578125 0
  0.703125   0.640625 0
  0.656250   0.984375 0
  0.703125   0.625000 0
  0.703125   0.593750 0
  0.718750   0.796875 0
  0.953125   0.734375 0
  0.812500   1.000000 0
  0.859375   0.656250 0
  0.703125   0.781250 0
  0.937500   0.718750 0
  0.953125   0.703125 0
  0.796875   0.984375 0
  0.843750   0.640625 0
  0.812500   0.968750 0
  0.859375   0.625000 0
  0.796875   0.953125 0
  0.843750   0.609375 0
  0.687500   0.953125 0
  0.687500   0.921875 0
  0.687500   0.890625 0
  0.921875   0.734375 0
  0.687500   0.796875 0
  0.687500   0.781250 0
  0.921875   0.703125 0
  0.687500   0.765625 0
  0.687500   0.750000 0
  0.921875   0.656250 0
  0.687500   0.718750 0
  0.921875   0.625000 0
  0.687500   0.687500 0
  0.921875   0.593750 0
  0.687500   0.656250 0
  0.640625   1.000000 0
  0.921875   0.562500 0
  0.687500   0.625000 0
  0.640625   0.968750 0
  0.687500   0.609375 0
  0.687500   0.578125 0
  0.937500   0.687500 0
  0.921875   0.671875 0
  0.671875   0.921875 0
  0.906250   0.656250 0
  0.671875   0.906250 0
  0.671875   0.875000 0
  0.906250   0.718750 0
  0.671875   0.781250 0
  0.671875   0.765625 0
  0.671875   0.734375 0
  0.906250   0.640625 0
  0.671875   0.703125 0
  0.906250   0.609375 0
  0.671875   0.671875 0
  0.906250   0.578125 0
  0.671875   0.640625 0
  0.625000   0.984375 0
  0.671875   0.609375 0
  0.625000   0.953125 0
  0.671875   0.593750 0
  0.671875   0.562500 0
  0.765625   0.953125 0
  0.812500   0.609375 0
  0.656250   1.000000 0
  0.656250   0.953125 0
  0.656250   0.906250 0
  0.890625   0.640625 0
  0.656250   0.890625 0
  0.656250   0.859375 0
  0.890625   0.734375 0
  0.656250   0.796875 0
  0.812500   0.921875 0
  0.562500   1.000000 0
  0.625000   0.828125 0
  0.812500   0.843750 0
  0.843750   0.593750 0
  0.812500   0.812500 0
  0.625000   0.718750 0
  0.828125   0.687500 0
  0.640625   0.593750 0
  0.812500   0.781250 0
  0.625000   0.687500 0
  0.765625   0.828125 0
  0.640625   0.562500 0
  0.812500   0.750000 0
  0.562500   0.828125 0
  0.781250   0.875000 0
  0.546875   0.937500 0
  0.781250   0.671875 0
  0.781250   0.593750 0
  0.546875   0.656250 0
  0.796875   0.750000 0
  0.562500   0.812500 0
  0.796875   0.546875 0
  0.765625   0.796875 0
  0.765625   0.593750 0
  1.000000   0.531250 0
  0.812500   0.718750 0
  0.859375   0.562500 0
  0.625000   0.625000 0
  0.812500   0.703125 0
  0.812500   0.906250 0
  0.578125   0.968750 0
  0.984375   0.593750 0
  0.828125   0.578125 0
  0.828125   0.781250 0
  0.593750   0.843750 0
  0.812500   0.671875 0
  0.625000   0.578125 0
  0.796875   0.671875 0
  0.562500   0.734375 0
  0.984375   0.562500 0
  0.828125   0.546875 0
  0.812500   0.640625 0
  0.750000   0.812500 0
  0.625000   0.546875 0
  0.796875   0.640625 0
  0.562500   0.703125 0
  0.828125   0.515625 0
  0.781250   0.734375 0
  0.546875   0.796875 0
  0.781250   0.531250 0
  0.750000   0.781250 0
  0.625000   0.515625 0
  0.796875   0.609375 0
  0.562500   0.671875 0
  0.765625   0.656250 0
  0.765625   0.859375 0
  0.531250   0.921875 0
  0.812500   0.578125 0
  0.562500   0.656250 0
  0.984375   0.687500 0
  0.750000   0.750000 0
  0.812500   0.562500 0
  0.812500   0.765625 0
  0.578125   0.828125 0
  0.562500   0.625000 0
  0.984375   0.656250 0
  0.750000   0.718750 0
  0.812500   0.531250 0
  0.781250   0.656250 0
  0.546875   0.718750 0
  0.781250   0.625000 0
  0.546875   0.687500 0
  0.750000   0.640625 0
  0.796875   0.531250 0
  0.562500   0.593750 0
  0.984375   0.625000 0
  0.750000   0.687500 0
  0.546875   0.984375 0
  0.609375   0.812500 0
  0.796875   0.875000 0
  0.546875   0.953125 0
  0.609375   0.578125 0
  0.843750   0.515625 0
  0.765625   0.515625 0
  0.765625   0.718750 0
  0.531250   0.781250 0
  0.984375   0.546875 0
  0.750000   0.609375 0
  0.796875   0.828125 0
  0.671875   0.968750 0
  0.796875   0.796875 0
  0.796875   0.765625 0
  0.609375   0.671875 0
  0.796875   0.734375 0
  0.546875   0.812500 0
  0.796875   0.703125 0
  0.843750   0.546875 0
  0.609375   0.609375 0
  0.796875   0.687500 0
  0.562500   0.953125 0
  0.796875   0.656250 0
  0.609375   0.562500 0
  0.796875   0.625000 0
  0.609375   0.531250 0
  0.546875   0.640625 0
  0.765625   0.671875 0
  0.531250   0.734375 0
  0.796875   0.515625 0
  0.765625   0.640625 0
  0.531250   0.703125 0
  0.703125   1.000000 0
  0.765625   0.609375 0
  0.531250   0.671875 0
  0.765625   0.578125 0
  0.531250   0.640625 0
  0.546875   0.609375 0
  0.531250   1.000000 0
  0.890625   0.593750 0
  0.656250   0.656250 0
  0.781250   0.515625 0
  0.546875   0.578125 0
  0.531250   0.968750 0
  0.890625   0.562500 0
  0.656250   0.625000 0
  0.609375   0.968750 0
  0.781250   0.859375 0
  0.656250   0.593750 0
  0.750000   0.703125 0
  0.515625   0.765625 0
  0.781250   0.812500 0
  0.781250   0.781250 0
  0.593750   0.687500 0
  0.781250   0.750000 0
  0.593750   0.656250 0
  0.781250   0.718750 0
  0.531250   0.796875 0
  0.828125   0.562500 0
  0.593750   0.625000 0
  0.781250   0.687500 0
  0.828125   0.531250 0
  0.593750   0.593750 0
  0.812500   0.625000 0
  0.578125   0.687500 0
  0.781250   0.640625 0
  0.781250   0.609375 0
  0.593750   0.515625 0
  0.515625   0.781250 0
  0.812500   0.546875 0
  0.578125   0.609375 0
  0.812500   0.515625 0
  0.578125   0.578125 0
  0.750000   0.656250 0
  0.515625   0.718750 0
  0.750000   0.625000 0
  0.515625   0.687500 0
  0.687500   0.984375 0
  0.750000   0.593750 0
  0.515625   0.656250 0
  0.531250   0.546875 0
  0.750000   0.562500 0
  0.515625   0.625000 0
  0.531250   0.515625 0
  0.984375   0.515625 0
  0.750000   0.578125 0
  0.515625   0.531250 0
  0.828125   0.796875 0
  0.640625   0.703125 0
  0.828125   0.765625 0
[...]
CELL_DATA 7648
SCALARS scalar_value float 1
LOOKUP_TABLE default
-5.8695e-05
-2.10481e-05
-1.06684e-08
9.05798e-09
-4.10566e-09
-3.97017e-09
-1.7771e-05
1.66284e-05
-1.17275e-05
-3.21532e-05
0.00160712
-0.000638599
0.00378525
-0.00142166
0.00491752
0.00242961
0.00457921
-0.00166495
6.7908e-05
-2.98323e-06
-5.41007e-05
-0.000106785
0.000598948
-0.000756988
2.30141e-05
4.50796e-05
3.44175e-05
-4.29062e-05
5.07384e-05
9.10046e-05
-3.00305e-05
1.64559e-05
5.32359e-10
-1.22607e-10
3.78724e-10
1.56401e-10
0.00176634
0.000784563
1.17677e-05
-2.74738e-05
-3.82132e-05
0.000161194
0.00104895
0.000467246
2.6098e-09
-3.23522e-09
4.73772e-09
1.20034e-08
5.77954e-09
-1.14758e-08
3.74316e-09
8.76845e-09
3.06776e-09
1.81666e-09
-1.00514e-08
-2.67924e-09
-1.76771e-05
0.000105063
0.000110768
-0.000142665
0.000105468
0.000169444
9.2649e-07
-2.07683e-07
-2.10876e-06
2.65392e-06
-1.04519e-06
1.23181e-07
-5.20829e-07
-1.36149e-05
5.32384e-07
4.83671e-07
1.42542e-08
-0.000164916
-0.00121095
-1.19349e-08
1.24788e-08
-1.23563e-08
-1.13442e-08
-1.47708e-09
-1.08166e-08
1.19052e-08
0
9.14894e-09
-1.21621e-08
4.97104e-09
3.69081e-09
1.34006e-06
-1.10166e-05
-1.29365e-05
-1.82621e-07
-3.62902e-07
1.04536e-06
-1.77258e-07
7.83279e-07
1.00084e-06
8.38078e-07
-3.77796e-07
4.83442e-06
-4.41217e-06
-2.26628e-06
-1.82101e-07
-1.74772e-07
-1.85828e-07
6.71406e-06
0
0
0
3.32442e-08
4.86526e-10
1.18788e-08
1.57077e-09
1.18326e-09
-5.44397e-10
3.09637e-09
4.71754e-10
1.6644e-10
3.93603e-10
0
1.32851e-06
1.51272e-05
-1.39649e-05
2.15522e-05
1.96732e-06
-5.22819e-06
1.65821e-05
1.40866e-05
5.72768e-09
7.50719e-09
2.55012e-09
-3.91098e-09
3.29714e-09
-1.11953e-09
3.41796e-09
9.26107e-10
7.57284e-06
9.86169e-05
-6.29279e-05
-4.15047e-05
-0.000146672
1.62522e-10
0
1.88875e-06
-7.4592e-07
-2.36088e-06
9.18447e-07
-1.09564e-06
-2.16912e-06
2.66797e-05
-3.94551e-05
3.87324e-05
-1.89037e-07
-1.21999e-05
1.78564e-06
3.48599e-06
7.64771e-06
-2.10062e-06
1.04997e-05
2.28215e-06
-2.16662e-06
8.82496e-07
0.000398903
-4.41748e-05
0.000319945
-0.000110233
-0.000738496
-8.95652e-05
-1.97291e-06
-0.000105028
-2.68835e-06
8.71743e-08
2.59874e-08
2.05848e-08
4.06556e-08
1.17953e-09
-4.62663e-10
7.59679e-06
3.66272e-06
4.57948e-06
-3.94791e-05
3.37859e-06
-4.87454e-05
-6.99063e-05
-7.22252e-05
2.82184e-06
-1.74816e-05
1.28661e-06
1.86579e-06
1.7732e-06
-2.19056e-05
-6.26616e-06
-0.00245315
-0.00535183
2.85154e-05
-1.1627e-05
3.36019e-05
-1.23085e-05
-2.3756e-07
-1.9897e-07
-2.54387e-07
1.17184e-07
1.04766e-05
-3.97967e-05
4.44286e-05
4.92134e-06
4.583e-10
-2.94056e-10
-1.0104e-05
4.74577e-05
2.62414e-05
-4.00078e-05
3.19673e-05
0.000400543
-0.000440208
-3.95776e-05
5.39535e-06
-3.75206e-05
4.12021e-05
1.04974e-05
7.44608e-08
6.36907e-08
9.01499e-07
1.14514e-06
-1.7511e-06
1.06224e-06
2.0308e-06
-2.08222e-06
7.17255e-07
1.7467e-06
2.15926e-06
1.73527e-05
-1.18434e-05
2.16733e-06
1.72378e-06
1.3742e-08
-9.72028e-09
1.52259e-08
8.28276e-09
1.65868e-05
-1.27131e-05
3.07373e-06
5.90965e-06
1.73296e-08
-1.12799e-08
1.97767e-08
9.47367e-09
0.00961749
0.0110108
2.86357e-07
1.92992e-07
-2.98864e-08
2.94514e-07
3.37334e-08
-9.25341e-08
-1.8236e-07
-2.02324e-07
-4.29927e-07
-2.7005e-07
-1.07799e-07
2.61912e-09
-9.20843e-10
3.00546e-09
7.58265e-10
-3.17541e-09
7.45377e-09
-8.77265e-09
-3.62808e-09
0
8.6208e-10
-1.04638e-09
0
-1.84017e-06
2.07889e-06
-5.61158e-07
3.58632e-07
7.64712e-07
3.03435e-07
-1.39336e-07
5.20256e-06
-5.70484e-05
8.18162e-05
-9.06017e-06
7.20612e-06
-1.31249e-05
3.41717e-06
8.49803e-06
-2.86948e-05
2.19918e-05
2.20654e-05
-4.8403e-07
-3.20955e-05
-2.10641e-05
-2.95736e-05
-9.06822e-06
6.17986e-06
1.02036e-05
-0.000267025
-0.000183181
0
1.29792e-08
0
5.03646e-05
-3.32936e-06
0.00155563
0.00185532
-5.92726e-07
-2.3822e-05
-0.000419672
-2.13649e-05
7.65191e-07
-3.78555e-05
0.0020788
-6.55245e-08
2.96052e-05
3.21364e-08
-1.32148e-09
-3.24542e-08
5.55813e-10
-2.99475e-09
7.24378e-06
0.00017508
-5.55607e-07
-0.000161341
-0.000701017
6.75669e-08
-4.45233e-08
-1.27318e-08
-0.000830198
7.11519e-07
0.00204354
-8.50702e-05
7.83195e-05
1.02158e-08
0.000128575
-0.000746555
0.000394005
-0.000519156
1.31079e-05
0.000395071
-1.29466e-06
-1.76465e-07
-1.91375e-06
-0.00057583
-1.93646e-06
2.72538e-07
-1.72283e-10
-3.94791e-10
0.000353146
-1.85305e-09
0.000151359
-6.42913e-08
0.000126357
-9.14735e-10
-7.33679e-05
-7.78731e-05
7.58584e-07
-3.71643e-06
-0.00111085
-0.00047839
-0.00013161
-1.02948e-07
4.10489e-07
3.93791e-08
0.000666575
7.46838e-07
-8.90968e-05
-1.31526e-06
1.3411e-07
-1.38539e-06
0.0027519
1.26243e-06
0.000109977
-0.000107651
4.9789e-08
2.17922e-10
-7.48086e-06
7.56102e-07
-0.000324146
0.000492529
-1.59281e-07
-1.64781e-05
-2.01354e-07
-2.39775e-05
3.37087e-09
2.34369e-09
-2.80391e-09
-1.18374e-07
7.67858e-08
-2.70687e-08
1.7421e-06
3.95965e-06
-2.07604e-07
2.73357e-05
1.11015e-08
3.68308e-06
9.48945e-06
1.66458e-05
-7.76874e-05
4.79892e-08
6.75219e-08
9.96051e-06
2.13257e-08
-1.62978e-05
-8.79865e-09
-4.27606e-05
1.42273e-05
-2.5049e-05
1.9343e-08
1.94216e-05
-2.87691e-06
7.46326e-09
0.00116998
-2.78879e-07
0.00696924
-2.68509e-07
1.595e-07
1.89803e-08
5.57789e-08
0.00745711
-1.43853e-09
1.77175e-06
-3.52289e-10
-0.00161641
-1.2601e-05
-4.39283e-05
-2.48475e-05
-5.93805e-05
2.80446e-07
0
0
1.88116e-08
0.0015273
-2.21704e-05
-1.27118e-07
-1.66383e-10
3.82617e-08
2.34609e-05
-8.88455e-08
-1.20893e-07
0
-4.34814e-05
0
-9.97598e-06
-1.58037e-05
-5.04869e-06
9.09345e-09
-2.04114e-07
3.40307e-07
-3.0627e-08
8.41484e-08
-1.20027e-07
-2.18588e-06
-1.61931e-06
0.00077117
1.51268e-05
4.30009e-09
-1.30999e-08
-9.31984e-07
-1.48478e-05
-3.36163e-05
-0.000111526
-1.12198e-05
-2.27898e-08
-1.53792e-05
-0.000326258
-1.70404e-06
-1.13466e-08
-8.97187e-09
3.29965e-05
-2.01846e-08
1.21859e-08
-9.35274e-09
-1.65602e-08
1.16599e-08
-2.31046e-05
3.68292e-05
-8.58375e-06
-0.000109949
0.00594092
-0.000689063
-9.69186e-09
-6.33678e-07
8.16844e-05
0.000555944
2.15534e-06
-0.000716898
-0.000912886
2.93616e-05
-0.000113495
0.00021738
-3.13799e-06
-0.00119453
0.00067527
0.0016705
1.35574e-08
7.64706e-07
0.00192311
1.82344e-06
1.0813e-06
1.71645e-06
-1.838e-05
1.8958e-06
-1.29876e-08
1.77936e-05
1.65461e-08
3.24955e-08
0.00201687
0.000564785
8.5126e-06
-1.98448e-08
1.21051e-05
9.34978e-06
-3.00305e-08
6.70851e-05
-1.94904e-07
3.94706e-08
-0.000515897
-5.5405e-08
-9.85018e-07
-0.000143222
0.00256794
1.56441e-06
-0.00286298
0.00315248
0.000656431
3.63825e-09
6.39614e-07
-8.97957e-06
3.3789e-10
-9.89258e-07
-3.45147e-08
-0.00286529
-5.92765e-06
1.21574e-06
1.03329e-08
-4.09855e-06
-7.26993e-09
0.00333353
3.74022e-05
7.82626e-06
-1.01724e-10
-4.65664e-06
2.43675e-10
7.01252e-06
-9.1628e-06
-6.95919e-07
-3.28232e-09
-2.79291e-05
0.00200635
3.49982e-06
9.73729e-06
7.88717e-09
4.64398e-09
0.000149589
-5.49014e-06
-0.000513476
-8.57172e-09
-6.18108e-05
-2.37956e-07
-0.000778623
0
0
-0.000324284
0
1.26737e-07
0.000274786
-1.32592e-06
-1.28813e-08
-0.000149856
-9.10875e-09
0.000382946
2.12258e-08
4.26897e-05
-0.000103192
3.48253e-05
-1.40091e-09
-0.000105398
-1.24696e-08
-1.32542e-05
5.44924e-09
-0.00176688
3.92452e-05
0.000133675
-9.78717e-08
7.51478e-10
-2.46685e-10
1.20585e-09
-2.13868e-05
2.10246e-10
1.6941e-06
9.13443e-06
-1.57035e-06
-4.03697e-10
5.03645e-07
1.77536e-05
0
-9.08017e-10
1.16358e-07
3.45755e-09
-1.47334e-09
0
0
-5.08494e-05
2.23698e-09
-3.74262e-07
5.95767e-06
-9.40618e-06
-3.4241e-10
8.25514e-06
-2.34289e-05
-1.28163e-05
1.07273e-09
7.24167e-06
9.16006e-06
-1.59473e-06
1.64378e-08
6.28442e-08
-4.98875e-05
7.23399e-06
-2.48287e-05
-1.68627e-08
0.000107494
-1.63852e-05
-0.00110036
-1.45705e-06
1.61653e-05
-2.62972e-05
-0.000587483
5.65084e-07
0.00429905
-0.000923741
-2.61827e-06
-0.00185377
0.000126175
-1.30207e-07
2.88436e-05
3.66484e-05
0.000136219
7.96782e-07
1.05035e-06
6.80848e-07
-8.50748e-06
-1.3934e-07
-1.02133e-05
-0.00157679
6.42809e-08
0.000327252
5.68352e-07
7.04923e-07
-0.000172911
-0.000505153
-5.86267e-06
-1.34441e-05
1.08402e-05
-7.29962e-05
-1.45736e-05
-1.23894e-06
-8.88275e-05
-1.1238e-07
-0.00112342
2.49935e-05
-1.48632e-06
0.000137325
-0.000228355
1.12798e-05
-3.62586e-06
4.05028e-08
-4.67281e-05
-0.0005641
-0.00122054
7.46878e-07
-1.41957e-06
0
5.7583e-06
0
2.59788e-05
-1.70818e-07
4.22357e-05
-4.98217e-05
6.54149e-07
-0.000209046
-1.09678e-07
-0.00155357
-6.07426e-05
-4.08306e-08
0.00395852
-2.5035e-09
5.28907e-08
7.08562e-08
3.01028e-05
1.02241e-07
-2.1974e-07
-1.00946e-07
6.47012e-07
1.8273e-05
-1.96376e-05
8.471e-07
1.03605e-05
0
-9.85191e-06
-2.47821e-06
0
6.61975e-06
-8.60884e-08
0
4.15289e-05
-0.000100754
-4.25878e-10
4.81848e-10
1.91449e-05
1.0344e-09
2.5334e-05
0.00311017
-2.47542e-05
4.5402e-05
-1.44243e-05
0
-0.000141565
-8.91193e-09
-0.000144679
1.98558e-06
0.000158176
0.00682753
-1.916e-08
0
8.8781e-06
-6.94347e-06
1.05196e-06
-4.28615e-09
2.06994e-05
0.00301551
-3.12471e-05
1.83501e-09
2.12465e-05
6.35359e-06
0.000331481
-5.74085e-10
-1.17206e-05
3.2069e-06
0.000104651
-0.000223545
-9.5245e-07
-2.95962e-10
-5.29133e-06
-1.99425e-06
6.63534e-08
8.89974e-10
-0.000149911
1.12643e-05
4.60787e-10
-1.77514e-06
-1.50528e-05
1.16702e-06
7.10161e-07
-0.00134203
0.00108254
-2.12454e-05
3.28415e-09
-1.10924e-08
-1.93275e-09
2.6181e-06
1.37158e-06
-1.50416e-08
1.63865e-08
2.14568e-10
-1.27132e-09
5.88375e-06
2.68474e-08
-9.76272e-06
0
0
-7.71904e-06
-0.00100287
3.41166e-05
-6.14563e-06
-8.03482e-05
5.43291e-06
-6.04299e-10
-2.09004e-05
8.32737e-05
-8.52511e-07
1.62405e-10
-1.31563e-05
-3.26453e-09
3.41808e-06
-1.40181e-05
-9.62533e-09
-5.09817e-05
-9.54347e-08
9.59215e-09
0.000154461
0
0.000790298
-1.30327e-08
-6.12575e-09
-3.00843e-05
7.08608e-08
4.87492e-06
-2.24279e-05
-3.80671e-05
0
1.86216e-08
-9.92901e-06
0.000388397
-6.24429e-09
-7.24564e-08
6.8405e-07
-9.2299e-06
7.13221e-07
1.16585e-06
-0.00199418
-7.95802e-05
-3.69835e-05
-2.55633e-05
0.00116028
0.00204422
0.00474493
-2.95177e-08
-8.9176e-06
3.45331e-05
-5.02835e-05
2.69109e-09
0
-0.000135015
6.90912e-08
-6.16104e-05
2.92367e-06
-4.46783e-06
5.44372e-06
-0.000226159
4.44404e-05
0.00341647
4.07188e-05
-0.000309776
-3.70254e-08
6.58815e-06
3.69877e-05
0
5.31219e-07
0.00285816
-5.20853e-05
-1.23223e-05
-0.0010846
8.15903e-06
-5.81446e-10
0.00319416
-0.000289154
-4.59865e-08
4.64754e-07
9.80882e-09
1.32799e-09
6.66816e-10
1.41077e-08
-2.11045e-05
0
3.02695e-05
5.53014e-05
-4.5821e-06
1.4807e-05
-2.9739e-08
-0.000805345
-2.30802e-05
2.84758e-08
0.00103183
0.000189447
-3.06939e-05
8.74999e-05
5.57554e-09
1.94321e-06
-7.84942e-09
9.637e-09
1.14345e-08
0
-2.103e-05
1.00487e-08
-2.90425e-05
-0.000306252
-0.000399671
2.94486e-05
1.81021e-05
-0.000191624
6.92154e-09
-1.14804e-05
1.27495e-08
0.00382309
-2.12577e-06
2.79813e-09
5.43457e-06
3.17322e-05
7.43078e-06
1.687e-05
-0.00120165
5.29673e-07
0
0
-6.66237e-06
-2.83668e-09
9.65763e-07
1.20545e-05
1.6984e-09
-1.9479e-08
-4.49092e-05
-1.89466e-09
-0.000274608
-8.16647e-08
0.00361606
-0.000356399
-3.23849e-05
-7.38367e-05
2.87637e-10
-4.38253e-05
2.87338e-05
1.71763e-05
-4.15417e-07
4.00487e-07
0.000638655
0.00212108
0.000247027
-0.000216603
9.72882e-07
0.00441696
-4.36839e-05
0
-3.76943e-06
-1.52004e-09
-3.53989e-09
-5.65904e-05
-9.2247e-06
-3.94167e-09
1.84144e-09
-6.73763e-06
-2.67472e-05
-6.28365e-08
0.00499551
-2.20541e-05
-4.21797e-05
0
-4.24953e-10
-1.32366e-08
-1.8657e-10
-0.000201766
-6.77503e-09
-8.64516e-09
-4.61269e-05
-1.68519e-05
2.56997e-05
-0.000266299
0.000538417
1.73638e-09
3.27171e-07
-7.5422e-05
0
-0.000586047
0.000702788
-1.54327e-07
1.91692e-08
7.69219e-10
-6.85259e-09
-3.87311e-07
0.00570693
9.7689e-08
9.44786e-06
0
-0.000128593
4.97185e-05
0
8.29356e-08
1.84589e-05
-5.21605e-09
0.000128048
-1.86091e-05
0
-4.2517e-05
1.38532e-10
-3.98455e-05
0.000416327
0
0.0001355
-2.39329e-06
-2.45417e-08
0
-4.44403e-06
-8.93955e-05
-1.53935e-05
0.00994556
5.2334e-05
2.68635e-10
0.000129591
-0.000230025
5.40003e-07
7.48356e-06
0
2.04957e-05
2.789e-06
0.000146411
-7.02429e-09
4.63755e-05
9.74888e-06
-1.1938e-05
0.000404093
-1.55301e-07
2.17863e-09
-4.28608e-05
-1.51949e-06
-7.40671e-05
-2.38522e-05
-0.00144052
-4.82699e-06
-5.15792e-05
-4.45639e-05
-1.36919e-06
-6.87886e-06
2.61346e-05
-4.29735e-09
2.74433e-05
-1.1633e-05
-2.49022e-05
-9.98695e-09
1.21654e-06
-0.000161979
-7.49402e-05
-1.04617e-05
7.81369e-07
-7.67792e-06
9.24062e-10
0.000580016
1.33176e-08
0.00335796
-7.37641e-07
-1.4778e-07
1.31979e-07
-6.77393e-05
-7.58666e-05
-0.00232508
2.2381e-08
-2.32673e-05
2.69441e-05
3.28872e-06
1.0832e-08
0
5.55752e-05
-2.90679e-08
-2.2652e-10
-2.95363e-06
0.000171753
-2.85112e-05
0.00386667
-6.80518e-06
-0.00192097
-5.94638e-07
-5.71484e-05
-2.23365e-05
3.81629e-05
2.9742e-05
-1.30196e-06
-0.00117572
2.08978e-06
1.78388e-05
-0.00016193
0.00453658
8.33246e-06
-1.02785e-10
0.000678049
-1.8498e-05
0
1.7559e-06
0
-1.01806e-05
-5.28847e-08
1.12573e-10
-0.000802134
8.2971e-05
7.23645e-06
-4.25737e-05
-8.44671e-07
1.08566e-08
-0.000322558
0.000345497
-3.19073e-05
-2.48252e-05
5.84207e-05
-1.7096e-05
-1.42279e-08
2.93459e-05
-4.10822e-05
7.37368e-05
-4.60698e-05
-2.07723e-09
1.96854e-05
8.56917e-07
5.69496e-09
-1.20721e-05
1.17745e-08
-8.66654e-06
-0.000101845
-6.03646e-07
0
5.73659e-06
-0.00141816
0.000390805
1.10424e-06
-2.26174e-05
-5.6867e-05
-0.00181451
3.05987e-05
2.81444e-05
3.18211e-05
-7.93886e-05
3.61933e-05
3.13031e-05
-7.92249e-06
-4.99023e-06
9.99452e-06
4.69834e-08
9.02288e-05
1.61094e-09
-0.00103384
-5.32887e-05
-0.000270304
-1.41471e-07
1.80393e-05
-1.49849e-08
-7.16912e-05
0.0013179
-0.000506554
1.50434e-05
-0.000176404
7.1844e-05
6.29167e-05
-8.96957e-08
-0.000222964
-5.678e-09
-2.65463e-09
2.58049e-09
-2.5675e-09
-2.3464e-05
7.28315e-05
-0.00131538
4.27384e-05
-5.1755e-05
-0.000152666
8.48108e-05
-9.27461e-05
2.81743e-06
0.000230354
5.15551e-10
-1.05029e-09
-3.17391e-10
-1.95956e-05
-2.48735e-09
-2.27349e-08
-3.92157e-09
3.53523e-06
-1.12755e-09
-1.40763e-09
-5.1851e-06
-3.97777e-05
-1.3283e-08
2.46323e-05
-5.7886e-09
-0.000104557
-9.64429e-09
2.43174e-06
-0.00119341
0
0.000138891
0
0
0
-9.69341e-05
-0.000144431
8.56267e-05
3.77463e-09
8.12931e-09
0.000124283
2.18089e-09
7.40542e-10
-0.000321371
3.25352e-10
-0.000419169
6.01108e-09
-1.20545e-05
-4.70471e-09
-1.89123e-05
-4.66644e-10
1.0923e-06
-3.46747e-10
-1.39014e-05
0
4.7585e-06
0
-9.52891e-06
9.62603e-07
-0.000180386
-0.000873281
0.000260248
0.00441847
0.00407728
-1.35144e-07
-6.04612e-08
6.07172e-07
-0.000236357
8.30135e-08
2.03414e-09
2.33169e-08
1.12324e-07
-0.00132035
-0.00147378
-2.48626e-05
-1.50773e-05
0.00379562
1.40914e-07
0.00945395
1.85533e-05
1.04931e-05
-1.72912e-05
0.00910258
1.30201e-06
3.14691e-05
4.46097e-10
-3.43704e-05
-1.95333e-09
8.41459e-09
0.000132216
-0.000686162
-7.03806e-09
-4.05678e-05
0.000299456
0.000159518
9.08971e-06
1.45612e-07
3.16811e-08
-0.000249274
-5.7828e-05
-5.50032e-06
3.31257e-05
2.12225e-05
1.68098e-05
7.73808e-07
3.28837e-05
8.88268e-08
-5.23713e-07
-6.99572e-06
-1.61079e-05
1.16303e-06
-3.24614e-07
-0.00052913
-1.2835e-10
-0.00010505
-1.49024e-08
2.93237e-05
6.46069e-06
-7.59848e-10
-1.52215e-05
1.77622e-05
5.76022e-06
5.24855e-06
6.91136e-07
5.50502e-07
-0.00165793
7.76432e-10
-6.80031e-05
1.26573e-08
-1.91821e-06
-4.11695e-05
3.86619e-07
-1.10584e-09
-0.000362408
-1.14754e-05
-1.15661e-05
0
5.36436e-08
8.6692e-05
5.9447e-10
-7.26868e-08
-7.02128e-05
1.55107e-06
-0.000843976
6.61195e-09
9.3676e-07
-1.92169e-07
6.03966e-08
-1.77733e-07
-5.67831e-05
-9.35187e-06
-1.68236e-05
-1.01342e-06
7.44723e-07
-5.77322e-07
1.85155e-06
-9.74757e-07
-3.27153e-05
0
2.69443e-05
-3.73582e-05
0.000710407
-0.000158421
-0.00176377
0.000940865
-1.18651e-07
-0.00116427
1.5831e-07
-0.00203242
3.17914e-08
-0.000920263
-7.89498e-06
-2.14741e-05
-0.000231721
6.80642e-05
-0.000191535
7.11957e-07
-8.10089e-07
5.44389e-07
1.16507e-09
-0.00111411
-0.000157323
-1.92025e-06
-0.00122546
2.76812e-06
8.02668e-05
0.000121587
2.15825e-05
3.99895e-06
-0.000726663
1.08449e-05
-2.34763e-05
9.19903e-05
-0.000441207
0
0
0
1.35048e-05
-0.000111105
-0.00355564
-9.00996e-09
-0.000325175
0.00189531
-0.0016636
-0.000776379
0.00204775
2.50825e-06
-8.18126e-05
-0.000288591
1.53398e-05
-7.50676e-07
7.21027e-06
0.00126719
0.000144939
3.57864e-05
-0.000161338
0
6.60977e-07
-1.50347e-06
-1.21395e-07
3.9449e-08
-5.35254e-08
-5.20232e-05
-0.000124405
8.20047e-05
-7.42165e-05
8.42674e-06
0.000103026
-0.000114393
0.000752449
-0.00101997
0.000148535
-2.53913e-07
-0.000104229
0.000371282
0.000817223
-0.00177221
-2.29702e-05
0.00014707
-5.2853e-05
6.45382e-06
-0.00187831
0.0072841
4.79999e-10
5.77399e-10
-7.91721e-10
1.72844e-09
3.34765e-07
3.30563e-07
3.66044e-07
0.000819972
1.46436e-07
5.69697e-08
-0.000783195
-6.71526e-08
1.29695e-07
0.00092826
-0.000600938
6.76997e-09
1.30484e-08
-1.17328e-08
-2.9366e-08
9.43406e-08
0.000283061
9.10895e-10
-0.000147063
2.11625e-06
0.000165671
-1.7189e-06
-4.58884e-08
-4.84532e-08
-3.24196e-05
0.00322175
0.000665215
0.00185093
-0.00161034
-8.4437e-05
2.94176e-08
-1.34294e-08
1.05491e-07
-6.0678e-05
0.0010046
0.00043196
-2.49533e-09
-0.00016111
0.000334321
-2.56936e-09
0.00385728
5.18995e-09
2.73753e-07
-3.74711e-09
-0.000754976
0.000747974
-0.000318813
-1.5115e-05
-4.76731e-05
1.15257e-08
-5.50444e-05
-1.30661e-08
-5.3432e-05
-0.000516408
0.000743815
-0.000605437
-0.000318976
-4.42342e-05
2.93499e-05
-1.14067e-05
0.00606591
9.25319e-06
-5.52417e-05
8.3523e-05
-1.59665e-05
-1.88382e-05
0.00416169
0.000406297
9.23938e-07
6.16289e-05
1.27553e-05
-1.30202e-08
-5.28132e-05
-3.18997e-05
3.83801e-08
-1.89249e-07
-8.49249e-07
0.00129837
-7.20946e-05
2.43082e-05
8.50522e-08
-6.42151e-05
-6.67612e-05
0
0.00541485
0.000175061
0.0107894
0.0344641
1.58618e-07
0.00034778
-9.71015e-08
0.000951966
2.39156e-05
-1.98198e-06
9.8149e-10
1.75914e-05
0
0
0
5.04017e-06
-1.25348e-06
-0.00010706
0.00110154
0.00111303
0.00178724
0.0012905
-3.00097e-05
-0.00035567
0.00888773
1.28519e-05
-1.24917e-08
-7.72036e-10
1.75287e-08
-1.63416e-08
-0.000183475
-1.15004e-07
-9.42133e-08
-1.4541e-08
5.5016e-05
-0.000151764
0.00063505
-0.00075937
2.08368e-09
-1.33001e-08
2.16755e-09
-3.16364e-10
-1.5618e-09
-6.50667e-09
2.85168e-05
6.20826e-06
0.000271827
-0.00121399
0.000237772
-0.00267383
1.64754e-05
-0.0120492
-0.000544648
-0.00348204
4.27309e-06
-2.97313e-05
-4.63679e-06
2.04669e-06
0.000218861
-1.77943e-06
-3.9128e-07
7.2087e-07
2.71697e-09
0.000532798
9.82804e-05
1.03405e-07
0.00011103
-7.80089e-09
2.09029e-05
3.00745e-05
-6.049e-06
0.00340732
-1.31074e-05
-3.60499e-05
-3.12372e-06
-5.76378e-06
0.00429401
0.000103306
0.000645908
7.67968e-05
0
-1.21838e-06
2.3964e-07
-9.0167e-07
-0.00015879
-4.43492e-05
0.000283519
2.82602e-05
-1.5746e-06
-0.000412973
2.97961e-05
-1.1591e-05
2.02434e-07
-2.74087e-06
2.94307e-07
-1.92261e-07
-7.63861e-05
1.75576e-08
0.0043149
-0.00105413
-8.52792e-08
9.69964e-08
-3.61315e-08
1.94515e-09
1.11877e-08
-0.00130404
1.02483e-05
-0.000121952
-4.55713e-05
-1.64186e-06
-6.21899e-06
-0.00186964
0.00493561
0.00647296
-8.35232e-05
1.21975e-09
-1.10798e-09
1.43963e-05
2.42402e-06
-3.15617e-06
1.87334e-05
-1.24086e-05
-4.48497e-06
4.3149e-08
4.30919e-08
1.75592e-08
-5.82181e-08
0.00135297
-0.000408622
-0.000435981
1.36366e-05
-0.000386982
-1.48745e-10
1.40001e-10
0
0.000442047
1.44034e-05
0.0024214
-0.00173527
5.84589e-05
0
0
-0.000139935
-5.46997e-05
-0.000888785
0
-5.06539e-10
-0.000705283
-0.000733201
0
3.27551e-05
-0.000214946
3.99578e-05
-0.00031926
-1.21846e-05
-1.31772e-05
3.14608e-05
-3.11138e-05
0.000486385
2.04404e-06
5.4553e-07
3.20335e-05
-5.65944e-06
-0.000430078
3.32402e-05
1.71032e-05
-5.33844e-06
0.000118511
-8.9236e-09
-1.77367e-05
-4.75532e-05
1.74263e-08
-1.35319e-08
0.00511595
5.50455e-07
-1.52877e-06
0.00236128
-2.6767e-08
-2.25489e-08
5.07986e-08
-5.25439e-08
-1.81402e-05
3.23215e-05
-1.35634e-05
3.08797e-05
3.02313e-09
-3.05651e-08
-1.17922e-08
2.79297e-09
5.12113e-09
9.29537e-05
-2.58792e-05
-7.32119e-05
-6.98356e-06
-8.04402e-06
1.75048e-05
3.76584e-06
-0.000222833
9.15654e-07
-9.08204e-05
1.67986e-07
6.40025e-07
-1.40937e-06
-4.7871e-05
-0.000114928
-5.79606e-09
1.26799e-05
-0.00241397
-2.05971e-06
1.96367e-06
0.000369038
2.79801e-08
-3.13533e-07
0.00434346