# vtk DataFile Version 2.0
Unstructured Grid by M++
ASCII
DATASET UNSTRUCTURED_GRID
POINTS 4072 float
  0.828125   0.890625 0
  0.875000   0.531250 0
  0.828125   0.750000 0
  0.593750   0.968750 0
  0.828125   0.671875 0
  0.828125   0.875000 0
  0.593750   0.937500 0
  0.828125   0.656250 0
  0.828125   0.640625 0
  0.828125   0.843750 0
  0.593750   0.906250 0
  0.828125   0.625000 0
  0.781250   0.968750 0
  0.828125   0.609375 0
  0.828125   0.812500 0
  0.593750   0.875000 0
  0.593750   0.828125 0
  0.593750   0.796875 0
  0.828125   0.703125 0
  0.593750   0.765625 0
  0.828125   0.937500 0
  0.812500   0.875000 0
  0.859375   0.515625 0
  0.812500   0.734375 0
  0.812500   0.937500 0
  0.578125   1.000000 0
  0.578125   0.750000 0
  0.812500   0.687500 0
  0.578125   0.953125 0
  0.812500   0.656250 0
  0.812500   0.859375 0
  0.578125   0.921875 0
  0.812500   0.828125 0
  0.578125   0.890625 0
  0.812500   0.593750 0
  0.812500   0.796875 0
  0.578125   0.859375 0
  0.578125   0.812500 0
  0.578125   0.781250 0
  0.796875   1.000000 0
  0.796875   0.859375 0
  0.796875   0.718750 0
  0.562500   0.984375 0
  0.562500   0.937500 0
  0.796875   0.843750 0
  0.562500   0.906250 0
  0.796875   0.812500 0
  0.562500   0.875000 0
  0.796875   0.578125 0
  0.796875   0.781250 0
  0.562500   0.843750 0
  0.812500   0.984375 0
  0.562500   0.796875 0
  0.812500   0.953125 0
  0.562500   0.765625 0
  0.796875   0.937500 0
  0.546875   0.750000 0
  0.781250   0.984375 0
  0.828125   0.593750 0
  0.781250   0.843750 0
  0.781250   0.937500 0
  0.546875   1.000000 0
  0.781250   0.703125 0
  0.546875   0.968750 0
  0.546875   0.921875 0
  0.781250   0.828125 0
  0.546875   0.890625 0
  0.781250   0.796875 0
  0.546875   0.859375 0
  0.781250   0.562500 0
  0.781250   0.765625 0
  0.546875   0.828125 0
  0.796875   0.968750 0
  0.546875   0.781250 0
  0.765625   1.000000 0
  0.765625   0.968750 0
  0.531250   0.984375 0
  0.765625   0.687500 0
  0.531250   0.953125 0
  0.531250   0.937500 0
  0.531250   0.906250 0
  0.765625   0.812500 0
  0.531250   0.875000 0
  0.765625   0.781250 0
  0.531250   0.843750 0
  0.781250   1.000000 0
  0.765625   0.546875 0
  0.765625   0.750000 0
  0.531250   0.812500 0
  0.781250   0.953125 0
  0.531250   0.765625 0
  0.515625   0.750000 0
  0.750000   0.984375 0
  0.750000   0.953125 0
  0.796875   0.593750 0
  0.796875   0.562500 0
  0.750000   0.843750 0
  0.750000   0.937500 0
  0.515625   1.000000 0
  0.750000   0.906250 0
  0.515625   0.968750 0
  0.750000   0.671875 0
  0.750000   0.875000 0
  0.515625   0.937500 0
  0.515625   0.921875 0
  0.515625   0.890625 0
  0.750000   0.796875 0
  0.515625   0.859375 0
  0.750000   0.765625 0
  0.515625   0.828125 0
  1.000000   0.718750 0
  0.750000   0.531250 0
  0.750000   0.734375 0
  0.515625   0.796875 0
  0.734375   1.000000 0
  0.734375   0.968750 0
  0.734375   0.937500 0
  0.781250   0.578125 0
  0.781250   0.546875 0
  0.968750   0.578125 0
  0.734375   0.828125 0
  0.968750   0.546875 0
  0.734375   0.796875 0
  0.734375   0.765625 0
  0.968750   0.671875 0
  0.734375   0.734375 0
  0.968750   0.640625 0
  0.734375   0.703125 0
  0.968750   0.609375 0
  0.734375   0.671875 0
  0.734375   0.656250 0
  0.734375   0.625000 0
  0.968750   0.531250 0
  0.734375   0.593750 0
  0.984375   0.734375 0
  0.984375   0.703125 0
  0.734375   0.515625 0
  0.718750   0.984375 0
  0.718750   0.953125 0
  0.718750   0.921875 0
  0.953125   0.562500 0
  0.718750   0.812500 0
  0.953125   0.531250 0
  0.718750   0.781250 0
  0.718750   0.750000 0
  0.953125   0.656250 0
  0.718750   0.718750 0
  0.953125   0.625000 0
  0.718750   0.687500 0
  0.953125   0.593750 0
  0.718750   0.656250 0
  0.671875   1.000000 0
  0.718750   0.640625 0
  0.718750   0.609375 0
  0.953125   0.515625 0
  0.718750   0.578125 0
  0.968750   0.718750 0
  0.968750   0.687500 0
  0.953125   0.671875 0
  0.703125   0.968750 0
  0.703125   0.937500 0
  0.937500   0.656250 0
  0.703125   0.906250 0
  0.937500   0.546875 0
  0.703125   0.796875 0
  0.937500   0.515625 0
  0.703125   0.765625 0
  0.937500   0.671875 0
  0.703125   0.734375 0
  0.937500   0.640625 0
  0.703125   0.703125 0
  0.937500   0.609375 0
  0.703125   0.671875 0
  0.937500   0.578125 0
  0.703125   0.640625 0
  0.656250   0.984375 0
  0.703125   0.625000 0
  0.703125   0.593750 0
  0.718750   0.796875 0
  0.953125   0.734375 0
  0.812500   1.000000 0
  0.859375   0.656250 0
  0.703125   0.781250 0
  0.937500   0.718750 0
  0.953125   0.703125 0
  0.796875   0.984375 0
  0.843750   0.640625 0
  0.812500   0.968750 0
  0.859375   0.625000 0
  0.796875   0.953125 0
  0.843750   0.609375 0
  0.687500   0.953125 0
  0.687500   0.921875 0
  0.687500   0.890625 0
  0.921875   0.734375 0
  0.687500   0.796875 0
  0.687500   0.781250 0
  0.921875   0.703125 0
  0.687500   0.765625 0
  0.687500   0.750000 0
  0.921875   0.656250 0
  0.687500   0.718750 0
  0.921875   0.625000 0
  0.687500   0.687500 0
  0.921875   0.593750 0
  0.687500   0.656250 0
  0.640625   1.000000 0
  0.921875   0.562500 0
  0.687500   0.625000 0
  0.640625   0.968750 0
  0.687500   0.609375 0
  0.687500   0.578125 0
  0.937500   0.687500 0
  0.921875   0.671875 0
  0.671875   0.921875 0
  0.906250   0.656250 0
  0.671875   0.906250 0
  0.671875   0.875000 0
  0.906250   0.718750 0
  0.671875   0.781250 0
  0.671875   0.765625 0
  0.671875   0.734375 0
  0.906250   0.640625 0
  0.671875   0.703125 0
  0.906250   0.609375 0
  0.671875   0.671875 0
  0.906250   0.578125 0
  0.671875   0.640625 0
  0.625000   0.984375 0
  0.671875   0.609375 0
  0.625000   0.953125 0
  0.671875   0.593750 0
  0.671875   0.562500 0
  0.765625   0.953125 0
  0.812500   0.609375 0
  0.656250   1.000000 0
  0.656250   0.953125 0
  0.656250   0.906250 0
  0.890625   0.640625 0
  0.656250   0.890625 0
  0.656250   0.859375 0
  0.890625   0.734375 0
  0.656250   0.796875 0
  0.812500   0.921875 0
  0.562500   1.000000 0
  0.625000   0.828125 0
  0.812500   0.843750 0
  0.843750   0.593750 0
  0.812500   0.812500 0
  0.625000   0.718750 0
  0.828125   0.687500 0
  0.640625   0.593750 0
  0.812500   0.781250 0
  0.625000   0.687500 0
  0.765625   0.828125 0
  0.640625   0.562500 0
  0.812500   0.750000 0
  0.562500   0.828125 0
  0.781250   0.875000 0
  0.546875   0.937500 0
  0.781250   0.671875 0
  0.781250   0.593750 0
  0.546875   0.656250 0
  0.796875   0.750000 0
  0.562500   0.812500 0
  0.796875   0.546875 0
  0.765625   0.796875 0
  0.765625   0.593750 0
  1.000000   0.531250 0
  0.812500   0.718750 0
  0.859375   0.562500 0
  0.625000   0.625000 0
  0.812500   0.703125 0
  0.812500   0.906250 0
  0.578125   0.968750 0
  0.984375   0.593750 0
  0.828125   0.578125 0
  0.828125   0.781250 0
  0.593750   0.843750 0
  0.812500   0.671875 0
  0.625000   0.578125 0
  0.796875   0.671875 0
  0.562500   0.734375 0
  0.984375   0.562500 0
  0.828125   0.546875 0
  0.812500   0.640625 0
  0.750000   0.812500 0
  0.625000   0.546875 0
  0.796875   0.640625 0
  0.562500   0.703125 0
  0.828125   0.515625 0
  0.781250   0.734375 0
  0.546875   0.796875 0
  0.781250   0.531250 0
  0.750000   0.781250 0
  0.625000   0.515625 0
  0.796875   0.609375 0
  0.562500   0.671875 0
  0.765625   0.656250 0
  0.765625   0.859375 0
  0.531250   0.921875 0
  0.812500   0.578125 0
  0.562500   0.656250 0
  0.984375   0.687500 0
  0.750000   0.750000 0
  0.812500   0.562500 0
  0.812500   0.765625 0
  0.578125   0.828125 0
  0.562500   0.625000 0
  0.984375   0.656250 0
  0.750000   0.718750 0
  0.812500   0.531250 0
  0.781250   0.656250 0
  0.546875   0.718750 0
  0.781250   0.625000 0
  0.546875   0.687500 0
  0.750000   0.640625 0
  0.796875   0.531250 0
  0.562500   0.593750 0
  0.984375   0.625000 0
  0.750000   0.687500 0
  0.546875   0.984375 0
  0.609375   0.812500 0
  0.796875   0.875000 0
  0.546875   0.953125 0
  0.609375   0.578125 0
  0.843750   0.515625 0
  0.765625   0.515625 0
  0.765625   0.718750 0
  0.531250   0.781250 0
  0.984375   0.546875 0
  0.750000   0.609375 0
  0.796875   0.828125 0
  0.671875   0.968750 0
  0.796875   0.796875 0
  0.796875   0.765625 0
  0.609375   0.671875 0
  0.796875   0.734375 0
  0.546875   0.812500 0
  0.796875   0.703125 0
  0.843750   0.546875 0
  0.609375   0.609375 0
  0.796875   0.687500 0
  0.562500   0.953125 0
  0.796875   0.656250 0
  0.609375   0.562500 0
  0.796875   0.625000 0
  0.609375   0.531250 0
  0.546875   0.640625 0
  0.765625   0.671875 0
  0.531250   0.734375 0
  0.796875   0.515625 0
  0.765625   0.640625 0
  0.531250   0.703125 0
  0.703125   1.000000 0
  0.765625   0.609375 0
  0.531250   0.671875 0
  0.765625   0.578125 0
  0.531250   0.640625 0
  0.546875   0.609375 0
  0.531250   1.000000 0
  0.890625   0.593750 0
  0.656250   0.656250 0
  0.781250   0.515625 0
  0.546875   0.578125 0
  0.531250   0.968750 0
  0.890625   0.562500 0
  0.656250   0.625000 0
  0.609375   0.968750 0
  0.781250   0.859375 0
  0.656250   0.593750 0
  0.750000   0.703125 0
  0.515625   0.765625 0
  0.781250   0.812500 0
  0.781250   0.781250 0
  0.593750   0.687500 0
  0.781250   0.750000 0
  0.593750   0.656250 0
  0.781250   0.718750 0
  0.531250   0.796875 0
  0.828125   0.562500 0
  0.593750   0.625000 0
  0.781250   0.687500 0
  0.828125   0.531250 0
  0.593750   0.593750 0
  0.812500   0.625000 0
  0.578125   0.687500 0
  0.781250   0.640625 0
  0.781250   0.609375 0
  0.593750   0.515625 0
  0.515625   0.781250 0
  0.812500   0.546875 0
  0.578125   0.609375 0
  0.812500   0.515625 0
  0.578125   0.578125 0
  0.750000   0.656250 0
  0.515625   0.718750 0
  0.750000   0.625000 0
  0.515625   0.687500 0
  0.687500   0.984375 0
  0.750000   0.593750 0
  0.515625   0.656250 0
  0.531250   0.546875 0
  0.750000   0.562500 0
  0.515625   0.625000 0
  0.531250   0.515625 0
  0.984375   0.515625 0
  0.750000   0.578125 0
  0.515625   0.531250 0
  0.828125   0.796875 0
  0.640625   0.703125 0
  0.828125   0.765625 0
[...]
CELL_DATA 7648
SCALARS scalar_value float 1
LOOKUP_TABLE default
3.31931e-05
8.3559e-05
-1.28959e-08
1.08097e-08
-5.29931e-09
-4.70508e-09
-2.14193e-05
3.07238e-05
-2.18959e-05
-4.41938e-05
0.00350281
-0.00127504
0.00774138
-0.00290384
0.00862245
0.00493776
0.00785539
-0.00348145
0.000620192
0.000261205
-0.000216186
-0.00080713
0.00447811
-0.00948718
0.00408974
0.0062282
-0.00490733
0.00179602
0.00620269
0.0125531
-0.00550104
0.00287152
7.7458e-10
0
1.16432e-09
1.3453e-10
0.00344766
0.000901107
6.85029e-05
8.2639e-06
5.42958e-06
0.000259304
0.00793281
-0.0075665
2.75605e-09
-3.50038e-09
5.72725e-09
1.21763e-08
8.10359e-09
-6.9455e-09
-4.96113e-09
1.42635e-08
4.39663e-09
-3.6456e-09
1.13282e-08
3.72044e-09
-2.5318e-05
0.000463771
0.000753075
-0.000667498
4.1613e-05
0.000280323
1.29038e-06
-4.34607e-07
-2.96904e-06
3.95169e-06
-1.34089e-06
3.76369e-08
-9.30111e-07
-1.26928e-05
5.2108e-07
7.76185e-07
1.90614e-08
-0.00129451
0.00490027
-5.83473e-09
6.04812e-09
-6.52999e-09
-5.32319e-09
-3.36884e-09
-5.52835e-09
6.2639e-09
-7.56109e-10
1.00631e-08
-1.01091e-08
5.72432e-09
2.59209e-09
-2.976e-06
-2.03218e-05
3.19133e-05
-3.01704e-07
-5.81859e-07
1.60596e-06
-2.92332e-07
8.72333e-07
1.55323e-06
9.33628e-07
-6.18447e-07
6.73849e-06
-6.24168e-06
-2.89932e-06
-2.98259e-07
-3.03585e-07
-3.03321e-07
-0.000756848
0
0
0
7.24017e-08
-4.19837e-09
1.88156e-07
6.37282e-09
1.04872e-09
-4.17375e-10
2.36966e-09
3.60228e-10
1.1483e-10
2.37957e-10
0
9.08119e-06
2.41376e-05
-2.3574e-05
3.16738e-05
5.37737e-06
-1.12821e-05
3.08087e-05
2.67742e-05
7.28196e-09
-4.86089e-09
-8.20404e-09
3.94043e-09
3.86125e-09
-1.37246e-09
4.35934e-09
1.11989e-09
9.82873e-05
0.00013198
-0.000138297
-0.00010815
-4.13069e-05
-3.13677e-09
-4.3665e-10
3.99067e-06
-2.09595e-06
-3.23379e-06
2.74871e-05
3.83672e-05
-7.50034e-06
-7.78307e-05
0.000215878
-0.000108136
3.2867e-06
-2.46401e-05
-8.28668e-06
0.000111453
-5.30784e-05
2.68859e-05
-9.14186e-06
1.12796e-05
-2.79757e-06
1.34965e-06
0.00079462
-0.000158281
0.000621521
-0.000138578
-0.0270177
-0.000173759
2.89995e-05
-0.000176432
-2.84183e-05
1.15831e-07
5.0422e-07
3.21854e-07
4.37462e-07
7.77717e-10
-2.77164e-10
1.0995e-05
1.99214e-06
4.48032e-06
-5.27524e-05
1.88776e-06
-6.52469e-05
-9.47103e-05
-9.85367e-05
-4.10597e-05
1.97472e-05
3.30694e-05
4.76844e-05
-3.75253e-05
9.92573e-06
0.000215067
-0.00659595
0.0219526
4.13852e-05
-1.77146e-05
4.81715e-05
-1.63388e-05
2.00115e-07
-1.50214e-07
3.23638e-07
1.57252e-07
1.91548e-05
-6.58543e-05
7.53631e-05
1.01142e-05
5.80059e-10
-2.82101e-10
-1.80084e-05
7.96435e-05
5.5993e-05
-6.53363e-05
6.44356e-05
0.000764624
-0.000819533
-7.62188e-05
1.06075e-05
-5.76e-05
6.49673e-05
1.79193e-05
1.85085e-07
-6.47079e-08
1.13899e-06
1.89204e-06
-2.4393e-06
7.4966e-07
2.81664e-06
-2.97513e-06
8.88153e-07
2.41853e-06
3.69044e-06
3.01617e-05
-2.11976e-05
4.72942e-06
4.24589e-06
1.3482e-08
-1.07212e-08
1.67835e-08
9.05436e-09
3.12399e-05
-2.38352e-05
6.99638e-06
1.2456e-05
2.0462e-08
-1.49202e-08
2.53993e-08
1.24637e-08
0.257519
0.16736
2.0463e-07
4.2608e-07
8.91208e-08
8.13608e-07
1.5076e-08
-1.28152e-07
-3.05086e-07
-3.2166e-07
-7.17427e-07
-7.14908e-07
-8.68102e-07
2.38974e-09
-9.31247e-10
3.17786e-09
7.63101e-10
-2.89932e-09
7.17415e-09
-8.45761e-09
-3.85958e-09
0
9.77177e-10
-1.19615e-09
0
-1.61792e-06
3.20322e-06
5.58997e-07
-6.32646e-07
8.38598e-07
-4.07452e-07
-1.96685e-07
0.000271007
-0.000139014
7.44003e-05
-4.45341e-05
1.23993e-05
-4.43711e-06
2.96534e-05
6.98168e-05
-8.63345e-05
7.15504e-05
4.6363e-05
-3.33117e-06
5.84685e-05
3.80658e-05
8.46769e-06
-1.07015e-05
-3.49927e-05
-3.45395e-05
-0.000513058
-0.0003824
0
6.49771e-09
0
0.00424625
-1.1371e-05
0.00314167
0.00371792
-9.06248e-07
4.23883e-05
-0.000773511
4.715e-05
1.99058e-06
-0.000101108
0.00389065
-8.62013e-08
0.000106914
2.76873e-08
-2.93511e-08
-4.09203e-09
2.32398e-08
2.72803e-10
0.000122547
0.00885324
1.45744e-06
-0.000818492
-0.00338783
3.0101e-07
-9.79418e-09
-8.78742e-09
-0.00248616
3.79241e-06
0.0161171
9.72612e-05
-9.78283e-05
3.31877e-09
0.000201829
-0.00162717
0.000734659
-0.000951533
1.76602e-05
0.00073903
3.02261e-06
4.88751e-06
-6.43805e-07
0.000149822
3.96376e-07
5.68936e-07
-1.07938e-09
-4.67815e-10
0.0303162
-6.096e-09
0.000302191
-3.77576e-08
0.000197249
-1.17128e-09
-0.000102144
0.000767505
1.77381e-05
-1.06149e-05
-0.00710142
-0.00421837
-0.000233218
7.57365e-09
4.27275e-07
-1.67735e-08
0.00218088
2.13269e-06
-0.00198907
-2.05508e-08
2.18628e-06
-1.48192e-06
0.0586615
-2.62977e-06
-0.010041
-0.0213959
-4.96891e-07
3.87434e-10
-1.14486e-05
1.68072e-05
-0.000607104
0.00221634
-1.88512e-07
0.00076666
7.20073e-08
-0.0010429
-1.0614e-07
-1.07247e-07
1.76958e-08
9.4763e-08
-7.10947e-08
-2.3446e-07
-4.43972e-05
2.70736e-05
-6.43221e-06
5.00449e-05
1.70374e-07
-8.217e-05
-9.23125e-05
0.000287483
-0.000172232
6.57112e-07
1.4891e-07
1.99118e-05
2.75203e-08
-2.88221e-05
-8.32615e-09
4.07524e-06
2.73657e-05
-3.49106e-05
1.62574e-08
3.36366e-05
-3.76492e-06
7.13248e-09
-0.0204479
2.52328e-08
0.269032
4.15329e-08
-1.34839e-07
2.56403e-08
-1.20015e-09
0.194119
-9.48712e-10
3.08885e-07
4.19885e-08
-0.0216627
-1.06928e-06
-0.00154138
-2.97053e-05
-7.78671e-05
1.71176e-07
0
0
-6.83876e-07
-0.0146039
-8.55821e-05
1.03465e-07
-4.05418e-10
-4.36179e-08
-0.000121191
-2.737e-07
4.05091e-08
0
6.81165e-05
0
-6.61378e-06
-7.85754e-06
-2.79041e-05
1.29383e-08
3.98219e-07
-6.00162e-07
3.48437e-07
1.70144e-07
9.57993e-08
4.08764e-06
4.01375e-05
0.000573042
0.000975377
-6.79158e-08
1.74846e-07
-5.80672e-07
-2.72226e-05
-4.65029e-05
-8.10544e-05
3.49552e-05
-2.84459e-08
5.70667e-05
-0.0277405
4.20137e-05
-1.86744e-08
-7.45642e-09
-0.000118629
-2.62221e-08
1.18693e-08
-6.77365e-09
-1.8362e-08
9.6046e-09
9.65849e-06
6.23786e-05
-1.47388e-05
-8.72708e-05
-0.0203488
-0.0215164
-1.24217e-08
-1.95349e-06
0.0016098
0.000329283
3.32995e-06
-0.000908005
-0.000819154
-6.10729e-06
-0.000287302
0.00321767
0.00150277
-0.0174314
0.00661907
-0.00321653
1.41868e-08
2.52123e-06
-0.0273565
1.80209e-05
-4.9532e-06
4.39955e-06
-0.00158793
2.81802e-06
-2.98598e-08
2.17866e-05
2.47311e-08
1.88737e-08
0.00401194
0.00111416
0.000178895
-2.55998e-08
-0.000111567
-0.000135548
-2.99178e-08
0.000279707
1.68045e-07
-1.70105e-07
-0.0106499
7.2531e-08
6.57373e-07
0.00941387
-0.0113531
1.94802e-06
0.0119304
-0.0027287
0.0083747
8.51606e-09
1.16071e-06
-1.3284e-05
2.11196e-10
1.30434e-06
-2.83889e-08
0.0200441
5.538e-06
1.60507e-06
9.75621e-09
6.05004e-05
1.4754e-09
0.251308
-4.18779e-06
-6.5867e-05
4.01803e-10
-2.57831e-07
5.66042e-09
2.46953e-05
-2.84601e-05
0.000114546
-7.05454e-09
-3.79264e-05
0.195486
2.41426e-06
1.40869e-05
3.92759e-09
2.47802e-09
0.006539
-2.8777e-05
-0.000943489
-5.81906e-09
-8.24206e-05
1.30236e-07
-0.00875918
0
0
0.0132752
0
-4.50322e-06
-0.0060039
2.66854e-05
-5.88049e-09
0.000573536
-8.17129e-09
0.000532199
2.66387e-08
4.2648e-05
-0.000116491
3.66054e-05
-3.42566e-09
-0.00010292
-6.53692e-09
-4.41438e-06
4.75158e-09
-0.00363957
0.000191677
0.000134796
1.17313e-07
4.0642e-10
-1.41939e-10
6.61996e-10
-2.30587e-05
1.22331e-10
-2.5461e-05
1.2956e-05
-6.75521e-08
-2.50592e-10
-1.06726e-05
1.39633e-05
0
-4.82593e-10
5.24135e-06
1.71875e-09
-7.93367e-10
0
0
-7.25982e-05
1.21297e-09
-3.69944e-06
8.16018e-06
-1.30947e-05
3.55303e-09
2.50801e-05
0.000104542
3.1502e-05
-1.77977e-09
-6.25036e-05
0.000146635
3.70301e-05
-9.79875e-08
2.49705e-08
-0.000126819
-3.21628e-06
-3.38201e-05
-2.3192e-08
0.0230559
0.00133203
0.0153632
-1.81578e-06
2.48233e-05
-2.14461e-05
-0.00120024
8.69306e-07
0.0141344
-0.00211299
-1.87761e-06
-0.00378064
0.00122938
5.82841e-06
0.00146238
7.23961e-05
0.00115516
4.64918e-06
3.08631e-06
9.30405e-07
4.05801e-05
-2.18349e-07
-2.25765e-05
0.00806978
-2.27613e-07
-0.049662
1.6528e-06
-4.70925e-07
0.0106552
-0.0119441
1.88258e-05
8.017e-06
-1.76191e-05
-0.000143073
3.22464e-05
-1.93362e-06
-0.000442993
-2.68169e-07
0.071356
0.000190319
-2.36043e-06
-6.23774e-05
-0.00122159
1.59756e-05
1.03875e-06
-1.88305e-07
-5.17536e-05
-0.0288888
-0.00115027
1.96388e-06
-1.79963e-06
0
2.07773e-06
0
3.55905e-05
1.58012e-07
4.16349e-05
-0.000207331
-9.26138e-06
0.000224227
-2.90862e-08
-0.0155007
2.02346e-05
-4.04743e-08
0.11699
-5.75082e-09
1.27171e-07
1.03742e-07
3.24063e-05
7.36728e-08
-7.92697e-08
-2.94798e-07
3.77887e-07
7.6327e-05
1.34119e-05
0.000102398
6.59676e-06
0
9.31711e-06
0.000175148
0
5.78904e-05
8.27982e-08
0
-0.00430727
-7.24263e-05
3.01042e-09
3.48602e-10
9.77786e-05
3.42498e-09
0.00014349
0.0741767
-0.00203421
5.81741e-05
3.04872e-05
1.67845e-09
-0.00039277
-1.22716e-09
1.2889e-06
-1.05987e-05
0.000148469
0.0126255
-2.2637e-08
0
1.71427e-05
4.23296e-06
0.00012683
-2.07849e-09
2.45425e-05
-0.00650673
-0.000137752
3.24108e-09
-0.000201855
-1.25981e-05
0.00444543
5.19542e-09
-0.000172349
-6.06121e-06
-0.000466259
-0.000187138
7.82166e-06
3.9063e-09
2.95118e-05
-2.67956e-06
1.91058e-07
1.58111e-07
-0.00872209
0.00011189
-4.27189e-09
-2.24869e-06
6.04357e-06
1.16665e-06
9.13473e-07
-0.0051362
0.00179486
-2.04618e-05
4.2651e-09
-7.90458e-08
1.03567e-08
-8.91994e-05
2.04886e-06
-2.57451e-08
3.37283e-05
3.95049e-10
1.2036e-08
-8.69721e-05
-3.45982e-08
-8.94332e-06
0
0
-1.0769e-05
-0.0208832
4.6697e-05
3.54592e-05
-0.000128709
7.54217e-06
1.64391e-09
1.33059e-06
0.000202976
-1.41217e-06
3.85516e-10
-3.5482e-05
-6.70499e-09
9.4093e-05
-0.00325451
-6.44784e-09
-0.0113212
-7.32017e-07
1.31218e-08
0.000155346
4.94617e-10
0.00193318
-1.49268e-08
-1.18044e-08
0.00267053
-1.15736e-06
-1.81157e-05
-5.24352e-06
-6.25331e-05
-1.40515e-09
1.35007e-08
8.08701e-05
0.000731207
-1.80182e-09
-1.74504e-08
7.89563e-07
0.000366245
-6.05473e-08
1.51001e-06
0.00215604
-0.000108687
5.50276e-05
4.57154e-05
0.00211422
0.00403803
0.186021
2.84321e-07
-1.11807e-05
-0.00259926
-0.000117274
3.02892e-09
0
0.000543789
-1.45465e-07
5.48793e-05
-0.001778
1.01747e-05
-2.48181e-05
-0.0039519
-0.00215187
0.010303
6.33365e-05
-0.00097691
5.55233e-09
7.58659e-06
5.21971e-05
0
-3.50328e-06
0.00556364
-0.000118825
0.000168968
-0.000728413
-1.00665e-05
-4.20396e-10
0.024212
-0.000835096
-6.50427e-08
-6.44129e-06
8.00414e-09
-2.4497e-09
-3.05335e-09
1.38958e-08
-2.74958e-05
0
7.31758e-05
0.000248023
-1.48754e-06
0.00012704
-3.14973e-08
0.00272352
-0.000247044
3.62567e-08
-0.0471948
0.00139772
-0.00019018
0.000115242
3.3711e-09
0.000239888
-6.2153e-09
4.61809e-09
8.45023e-09
1.78689e-10
-0.000142765
1.58964e-08
-4.26208e-05
-0.000581345
-0.0136924
5.26397e-05
2.72024e-05
-0.00536492
6.22164e-09
1.91876e-05
7.30399e-09
0.00878107
-2.85991e-06
3.45943e-09
-0.00205643
4.22057e-05
-0.00125417
2.65444e-05
-0.0006863
3.08216e-07
0
0
-2.63789e-05
3.32075e-07
1.46454e-06
0.000120696
1.06029e-09
-3.45052e-08
0.00124383
-3.42639e-09
-0.00550634
1.74976e-07
0.0478495
-0.00425098
-0.000128244
-0.00010144
2.73072e-10
-5.57993e-05
3.891e-05
1.80318e-05
-4.97701e-07
1.57071e-06
0.00769585
0.176676
-1.88843e-05
0.000163715
1.45142e-06
0.0074923
-5.3425e-05
0
2.20104e-05
2.55737e-08
4.60546e-09
2.0088e-05
-1.29583e-05
8.76596e-09
-2.0796e-10
0.00027634
-0.001415
3.09355e-07
0.0135132
-5.92426e-05
0.0573296
2.89619e-10
-5.61464e-10
-9.68703e-09
-1.27969e-10
-0.00139863
-6.61677e-09
-5.22994e-08
-0.00113108
0.000217109
-0.000168211
0.00919691
0.00222283
-8.03954e-10
7.90217e-09
-0.000404467
-2.25364e-10
-0.00134822
0.00147199
-2.75086e-07
1.91592e-07
-3.13197e-09
-4.31787e-09
-2.13383e-05
0.218086
-4.89148e-08
1.52409e-05
0
0.000786027
0.00638708
-5.83389e-10
7.77933e-08
3.51653e-06
4.27991e-09
0.000146571
-2.78289e-05
0
1.46256e-05
-4.74211e-10
0.00014441
0.000144885
0
-0.000302991
-5.08301e-06
-3.16668e-08
0
2.44435e-05
-0.000350036
-7.28307e-06
-0.0186483
-0.000189536
-5.87164e-09
0.000138808
-1.27986e-05
1.95883e-06
-8.83662e-05
0
3.036e-05
1.59949e-06
0.000133091
-2.85118e-08
0.000183737
4.27141e-05
1.25656e-05
0.0302592
-3.40576e-07
1.64352e-09
-6.15217e-05
-2.12879e-06
-5.67221e-05
-2.24777e-05
-0.0225784
-9.545e-06
0.000106353
-5.72121e-05
3.16957e-05
-0.000351325
3.17051e-05
1.25566e-08
2.68955e-05
-2.36823e-05
6.50253e-05
-2.07604e-09
2.36587e-06
0.000287544
-0.000161706
-1.36329e-05
2.92058e-07
-3.42825e-06
1.11351e-09
0.00126467
1.21026e-08
0.00719216
-1.76097e-06
2.12287e-08
-1.60645e-07
2.14842e-05
-0.00288607
-0.0123299
1.50623e-07
5.68694e-05
0.000253345
-4.92968e-07
7.84392e-09
0
-0.000653678
4.93142e-08
1.92537e-09
0.000113297
-1.48821e-06
0.000104442
0.00982489
-0.000710746
0.107465
-1.93767e-05
-7.30039e-05
-2.13046e-05
5.49509e-05
3.48058e-05
7.49034e-07
-0.00247396
1.92325e-06
0.000114656
-0.000294983
0.0210642
-0.000321186
0
0.00668689
-6.2043e-05
0
2.94804e-06
-1.79015e-10
-1.55568e-05
2.21411e-08
0
-0.000711683
0.000296997
1.43341e-05
0.000229128
3.54547e-07
5.81863e-09
-0.00401469
0.000374566
-0.00484728
-0.00210707
-0.00163076
0.0010897
-8.19347e-09
3.91742e-05
-0.000867311
-0.000263589
-0.000546054
-1.28024e-09
1.30298e-05
-7.00651e-07
3.63337e-09
3.60902e-06
7.8001e-09
2.5911e-05
6.18247e-05
-5.04021e-07
-5.71643e-10
7.93959e-06
0.00511577
0.00727349
-3.97885e-07
0.0159728
9.50999e-05
-0.00360609
-0.000912548
0.001486
0.000511652
0.000559353
-0.00212238
0.00191798
0.000261272
-4.41015e-05
-2.67929e-05
-2.77143e-07
-5.1558e-06
-2.33104e-07
-0.0138689
-4.87807e-05
-0.00949533
-1.96957e-07
2.51309e-05
-1.61813e-08
-9.92915e-05
-0.00404403
-0.00270876
0.000429509
0.000451079
-0.00489382
0.00761416
8.50421e-08
0.0023403
-2.96126e-09
-1.99237e-09
2.6196e-09
-4.26668e-09
-0.000296896
3.14838e-05
-0.00970249
-0.000209122
0.00081722
-0.000333106
-5.87828e-05
-0.000340814
-1.06743e-06
0.000664402
1.33072e-09
1.53676e-08
-3.43572e-10
-2.5363e-05
2.99242e-08
2.82989e-07
-3.04531e-09
4.07523e-07
-2.11016e-09
-1.26759e-09
-9.22979e-07
-0.000724948
-1.22273e-08
4.97267e-05
6.87685e-10
-0.00013722
-4.71791e-09
-1.30387e-06
0.0163845
9.37539e-10
-0.000667721
5.40021e-09
-5.29435e-09
9.58481e-10
-0.000988613
-0.000596938
-0.000590072
7.46884e-09
3.80204e-09
-0.000232406
-5.6333e-08
2.52406e-10
-0.00141592
5.95184e-10
-0.00243078
1.37804e-10
-0.00223981
-1.42913e-09
-2.61288e-05
-3.11939e-10
4.87402e-06
9.40643e-09
-1.89606e-05
0
6.6432e-06
0
-1.30348e-05
1.49184e-06
0.000370404
0.0101091
0.000553822
0.154766
0.00793384
4.19883e-07
1.34416e-07
9.71999e-07
0.025952
-3.76161e-07
-2.26194e-07
-1.84964e-07
-3.44661e-07
-0.0194125
0.00351273
-0.000147583
-1.03268e-05
-0.00480612
-1.4767e-07
-0.00566969
0.00042746
-6.26414e-05
1.35574e-05
0.019615
-2.04924e-05
6.05609e-05
7.92725e-10
-4.81729e-05
-2.93166e-09
-1.1327e-09
0.000170426
-0.00153892
-4.26634e-09
-4.65307e-05
0.00393797
4.32259e-05
1.4055e-05
-1.84036e-07
1.53354e-07
-0.000210802
-0.000352184
-0.000775045
-1.7663e-05
-2.11807e-05
6.55976e-05
9.00385e-07
4.23726e-05
1.3283e-07
-1.29401e-05
0.00076623
-9.98371e-06
3.27234e-07
6.87584e-08
-0.000926134
0
-0.000171561
-1.46256e-08
0.00316901
-3.95199e-05
-6.54068e-10
-4.03408e-06
-4.09069e-06
-3.60463e-05
-6.04692e-05
8.26018e-07
7.26794e-07
-0.00335371
1.01102e-09
-4.0518e-05
1.04941e-08
2.62355e-06
0.00704817
7.94023e-06
-1.35007e-09
-0.000416794
-0.000735008
-1.26986e-05
0
-3.51539e-07
0.000159825
2.9045e-09
-4.93476e-07
-0.000255189
-2.17078e-06
-0.00670417
5.25906e-09
-9.25269e-07
-5.63212e-07
-2.44973e-07
-3.3907e-07
-4.66933e-05
-2.40793e-05
4.58334e-05
-0.000123584
1.06803e-06
-9.6041e-07
2.72269e-06
-1.40888e-06
-4.40518e-05
0
0.000480068
-0.000195807
0.0092263
-0.0050545
0.126171
0.00698799
-2.64928e-08
-0.00807825
4.1615e-08
-0.0182954
1.07855e-07
-0.0131285
0.000249941
0.00305431
-0.00480449
0.0033703
0.000833226
6.77114e-07
-1.82803e-06
3.0219e-07
2.02704e-09
-0.00139398
-0.000265943
6.34348e-05
-0.000847482
0.000464428
0.000322456
0.0102539
3.00391e-05
4.7628e-06
0.022378
1.49135e-05
-3.20293e-05
0.00786119
-0.000859441
0
0
0
5.40536e-05
6.43474e-06
-0.00576935
-8.21329e-09
-0.000643208
0.00378921
-0.00350512
-0.00161879
-0.0139572
6.93525e-06
0.00552338
-0.00541292
-1.8865e-05
-1.23269e-06
9.90432e-06
-0.00696572
0.000209982
0.000153053
-0.000383152
0
-3.02411e-07
-5.46175e-06
2.15448e-07
-7.48123e-08
3.21389e-08
0.000145561
-0.00119954
0.000663629
-0.000129816
1.15893e-05
2.06772e-05
-0.00107134
0.000992899
-0.00118986
-0.0010723
-7.40686e-06
0.00191296
-0.00333428
0.00634272
-0.0235331
0.000746103
-0.000175628
-0.000156278
-5.34668e-05
-0.00677888
-0.0205237
-5.01995e-09
-6.92286e-09
5.94394e-09
-7.65156e-09
2.27308e-07
4.42795e-07
5.41259e-07
0.00320842
-1.51498e-07
-1.51662e-07
-0.00918879
2.04658e-07
-3.37498e-07
-0.00640082
-0.00153534
9.77429e-09
1.88448e-08
-5.69542e-09
-1.29065e-07
1.54981e-07
0.000548146
-1.51223e-08
-0.000350575
-9.48053e-06
-0.000326667
7.14973e-06
-1.69679e-07
-2.43187e-06
-0.00452731
-0.0366847
0.000539647
0.00352584
-0.00331907
-0.000128629
5.45746e-08
-6.38175e-07
-1.01133e-06
-8.20471e-05
-0.0150462
0.000832735
-1.26471e-07
-0.000395216
0.000646305
-3.89653e-09
0.0450651
2.16303e-08
4.86365e-07
3.22495e-08
0.0353354
0.00233765
-0.00014483
-2.0575e-05
-2.50973e-05
7.27557e-09
-8.68676e-05
-8.57323e-09
-2.15373e-05
-0.000978364
0.000736319
-0.000339254
-0.00103116
-5.94592e-05
0.000171024
4.51264e-06
0.0325829
-1.94259e-05
-7.23611e-05
0.000196312
-4.20265e-05
-4.13636e-05
0.121687
-0.0143274
2.46665e-06
-0.000114893
-0.000231378
-3.49324e-08
0.000130904
0.00286448
2.99851e-07
9.59325e-08
-1.30388e-06
-0.00310572
-0.00026145
-0.00086593
-7.81984e-08
2.24342e-05
0.000273543
0
0.00964746
-1.10833e-05
0.0168314
0.0545502
-3.1431e-08
0.010258
-2.63712e-07
-0.0034959
3.50593e-05
-3.75824e-06
3.34884e-09
-1.56945e-05
0
0
0
-0.000101116
-2.90806e-05
-0.000159826
0.0200492
0.000832676
0.0359608
0.0652614
0.000145974
0.0156407
0.00365248
-0.000193705
3.39523e-07
3.19799e-07
1.20654e-07
6.4153e-08
0.000283012
-1.57788e-07
5.71479e-08
-2.84335e-07
0.000129074
-0.000132203
-0.00083928
-0.00210064
1.82754e-09
-6.76056e-09
1.19116e-08
-8.96829e-08
-6.66184e-08
-5.71396e-08
4.06346e-05
1.58762e-05
0.00175395
-0.00181532
0.000416908
0.0269302
7.77806e-06
0.0989568
0.0193831
0.0527086
-8.49916e-06
2.0388e-05
-7.20185e-06
-4.12633e-06
-0.00317167
-3.21184e-06
-5.55807e-06
9.01289e-07
1.7204e-10
0.000755251
0.000241305
-5.2239e-06
0.000242736
3.06231e-07
-4.75685e-05
-0.000120511
-1.18292e-05
0.14788
-1.34404e-05
-1.74831e-06
-1.1864e-06
-8.08444e-06
0.00737322
0.000542812
-0.00210082
0.000980336
0
-1.81509e-06
2.06051e-06
3.81511e-07
0.00407634
0.00348411
0.000474409
0.000168671
4.69093e-06
-3.15725e-05
5.12237e-05
-1.41636e-05
-1.12311e-05
3.74824e-05
-9.38566e-08
-1.70021e-06
0.000156009
-4.91345e-08
0.0844799
-0.00312926
9.99128e-08
1.43601e-07
1.7668e-07
-3.65304e-10
8.27508e-09
0.00873898
-0.0176022
-0.00397932
0.00167353
-2.05659e-06
-8.73853e-06
0.0599638
0.267727
0.21249
-0.000285357
-1.2623e-08
8.84167e-10
3.44849e-05
4.82169e-06
4.01857e-05
6.58453e-05
-1.69974e-05
-6.35113e-06
2.23198e-08
2.25035e-07
7.17618e-10
-4.58696e-08
0.0164089
0.0257133
-0.0152995
-0.000190818
-0.0103165
-1.16733e-10
1.08685e-10
0
0.000955535
6.8186e-05
0.00453707
-0.00345524
0.00016058
0
0
-0.0138885
-0.000110948
-0.00172058
0
-8.80222e-10
-0.00150668
-0.00162458
0
-8.85343e-05
-0.0019211
0.000737453
0.00181572
0.000409069
2.18904e-05
4.72163e-05
-0.000205822
0.00100554
2.61654e-06
2.49165e-06
-1.56813e-05
-0.00100062
-0.00884682
-2.62575e-05
-4.11554e-05
4.56056e-05
0.000131204
7.39445e-09
0.000116224
-0.00241417
-1.53636e-08
6.08588e-08
0.208133
-4.37421e-06
-2.31275e-06
0.22157
5.1817e-07
-2.19548e-07
5.34087e-09
3.88112e-08
3.63221e-05
9.96223e-06
1.04121e-05
3.44634e-05
1.05692e-07
3.20274e-07
1.55311e-07
3.63659e-07
-1.68247e-07
0.000110429
4.97207e-05
4.51817e-05
-0.00020172
-2.26881e-05
-8.69367e-05
-0.000146416
-0.000521611
2.52502e-06
0.00826088
-5.39116e-07
1.58265e-06
-6.92092e-07
0.00120976
-0.000598424
-6.84909e-09
-0.0087315
-0.0215318
-3.82665e-06
2.70599e-06
0.00793395
1.04816e-09
1.4659e-07
0.00736367
-0.00337106
0.0105994
0
0
0
0
-0.00941096
1.50905e-08
1.17987e-08
1.77727e-08
-7.13562e-08
0.000711347
0
3.00672e-06
2.15625e-05
4.14728e-06
-1.42987e-05
-0.00392635
-0.00387094
0.0127236
-9.88893e-05
2.47354e-06
-9.86102e-05
-2.96354e-10