# vtk DataFile Version 2.0
Unstructured Grid by M++
ASCII
DATASET UNSTRUCTURED_GRID
POINTS 4072 float
  0.828125   0.890625 0
  0.875000   0.531250 0
  0.828125   0.750000 0
  0.593750   0.968750 0
  0.828125   0.671875 0
  0.828125   0.875000 0
  0.593750   0.937500 0
  0.828125   0.656250 0
  0.828125   0.640625 0
  0.828125   0.843750 0
  0.593750   0.906250 0
  0.828125   0.625000 0
  0.781250   0.968750 0
  0.828125   0.609375 0
  0.828125   0.812500 0
  0.593750   0.875000 0
  0.593750   0.828125 0
  0.593750   0.796875 0
  0.828125   0.703125 0
  0.593750   0.765625 0
  0.828125   0.937500 0
  0.812500   0.875000 0
  0.859375   0.515625 0
  0.812500   0.734375 0
  0.812500   0.937500 0
  0.578125   1.000000 0
  0.578125   0.750000 0
  0.812500   0.687500 0
  0.578125   0.953125 0
  0.812500   0.656250 0
  0.812500   0.859375 0
  0.578125   0.921875 0
  0.812500   0.828125 0
  0.578125   0.890625 0
  0.812500   0.593750 0
  0.812500   0.796875 0
  0.578125   0.859375 0
  0.578125   0.812500 0
  0.578125   0.781250 0
  0.796875   1.000000 0
  0.796875   0.859375 0
  0.796875   0.718750 0
  0.562500   0.984375 0
  0.562500   0.937500 0
  0.796875   0.843750 0
  0.562500   0.906250 0
  0.796875   0.812500 0
  0.562500   0.875000 0
  0.796875   0.578125 0
  0.796875   0.781250 0
  0.562500   0.843750 0
  0.812500   0.984375 0
  0.562500   0.796875 0
  0.812500   0.953125 0
  0.562500   0.765625 0
  0.796875   0.937500 0
  0.546875   0.750000 0
  0.781250   0.984375 0
  0.828125   0.593750 0
  0.781250   0.843750 0
  0.781250   0.937500 0
  0.546875   1.000000 0
  0.781250   0.703125 0
  0.546875   0.968750 0
  0.546875   0.921875 0
  0.781250   0.828125 0
  0.546875   0.890625 0
  0.781250   0.796875 0
  0.546875   0.859375 0
  0.781250   0.562500 0
  0.781250   0.765625 0
  0.546875   0.828125 0
  0.796875   0.968750 0
  0.546875   0.781250 0
  0.765625   1.000000 0
  0.765625   0.968750 0
  0.531250   0.984375 0
  0.765625   0.687500 0
  0.531250   0.953125 0
  0.531250   0.937500 0
  0.531250   0.906250 0
  0.765625   0.812500 0
  0.531250   0.875000 0
  0.765625   0.781250 0
  0.531250   0.843750 0
  0.781250   1.000000 0
  0.765625   0.546875 0
  0.765625   0.750000 0
  0.531250   0.812500 0
  0.781250   0.953125 0
  0.531250   0.765625 0
  0.515625   0.750000 0
  0.750000   0.984375 0
  0.750000   0.953125 0
  0.796875   0.593750 0
  0.796875   0.562500 0
  0.750000   0.843750 0
  0.750000   0.937500 0
  0.515625   1.000000 0
  0.750000   0.906250 0
  0.515625   0.968750 0
  0.750000   0.671875 0
  0.750000   0.875000 0
  0.515625   0.937500 0
  0.515625   0.921875 0
  0.515625   0.890625 0
  0.750000   0.796875 0
  0.515625   0.859375 0
  0.750000   0.765625 0
  0.515625   0.828125 0
  1.000000   0.718750 0
  0.750000   0.531250 0
  0.750000   0.734375 0
  0.515625   0.796875 0
  0.734375   1.000000 0
  0.734375   0.968750 0
  0.734375   0.937500 0
  0.781250   0.578125 0
  0.781250   0.546875 0
  0.968750   0.578125 0
  0.734375   0.828125 0
  0.968750   0.546875 0
  0.734375   0.796875 0
  0.734375   0.765625 0
  0.968750   0.671875 0
  0.734375   0.734375 0
  0.968750   0.640625 0
  0.734375   0.703125 0
  0.968750   0.609375 0
  0.734375   0.671875 0
  0.734375   0.656250 0
  0.734375   0.625000 0
  0.968750   0.531250 0
  0.734375   0.593750 0
  0.984375   0.734375 0
  0.984375   0.703125 0
  0.734375   0.515625 0
  0.718750   0.984375 0
  0.718750   0.953125 0
  0.718750   0.921875 0
  0.953125   0.562500 0
  0.718750   0.812500 0
  0.953125   0.531250 0
  0.718750   0.781250 0
  0.718750   0.750000 0
  0.953125   0.656250 0
  0.718750   0.718750 0
  0.953125   0.625000 0
  0.718750   0.687500 0
  0.953125   0.593750 0
  0.718750   0.656250 0
  0.671875   1.000000 0
  0.718750   0.640625 0
  0.718750   0.609375 0
  0.953125   0.515625 0
  0.718750   0.578125 0
  0.968750   0.718750 0
  0.968750   0.687500 0
  0.953125   0.671875 0
  0.703125   0.968750 0
  0.703125   0.937500 0
  0.937500   0.656250 0
  0.703125   0.906250 0
  0.937500   0.546875 0
  0.703125   0.796875 0
  0.937500   0.515625 0
  0.703125   0.765625 0
  0.937500   0.671875 0
  0.703125   0.734375 0
  0.937500   0.640625 0
  0.703125   0.703125 0
  0.937500   0.609375 0
  0.703125   0.671875 0
  0.937500   0.578125 0
  0.703125   0.640625 0
  0.656250   0.984375 0
  0.703125   0.625000 0
  0.703125   0.593750 0
  0.718750   0.796875 0
  0.953125   0.734375 0
  0.812500   1.000000 0
  0.859375   0.656250 0
  0.703125   0.781250 0
  0.937500   0.718750 0
  0.953125   0.703125 0
  0.796875   0.984375 0
  0.843750   0.640625 0
  0.812500   0.968750 0
  0.859375   0.625000 0
  0.796875   0.953125 0
  0.843750   0.609375 0
  0.687500   0.953125 0
  0.687500   0.921875 0
  0.687500   0.890625 0
  0.921875   0.734375 0
  0.687500   0.796875 0
  0.687500   0.781250 0
  0.921875   0.703125 0
  0.687500   0.765625 0
  0.687500   0.750000 0
  0.921875   0.656250 0
  0.687500   0.718750 0
  0.921875   0.625000 0
  0.687500   0.687500 0
  0.921875   0.593750 0
  0.687500   0.656250 0
  0.640625   1.000000 0
  0.921875   0.562500 0
  0.687500   0.625000 0
  0.640625   0.968750 0
  0.687500   0.609375 0
  0.687500   0.578125 0
  0.937500   0.687500 0
  0.921875   0.671875 0
  0.671875   0.921875 0
  0.906250   0.656250 0
  0.671875   0.906250 0
  0.671875   0.875000 0
  0.906250   0.718750 0
  0.671875   0.781250 0
  0.671875   0.765625 0
  0.671875   0.734375 0
  0.906250   0.640625 0
  0.671875   0.703125 0
  0.906250   0.609375 0
  0.671875   0.671875 0
  0.906250   0.578125 0
  0.671875   0.640625 0
  0.625000   0.984375 0
  0.671875   0.609375 0
  0.625000   0.953125 0
  0.671875   0.593750 0
  0.671875   0.562500 0
  0.765625   0.953125 0
  0.812500   0.609375 0
  0.656250   1.000000 0
  0.656250   0.953125 0
  0.656250   0.906250 0
  0.890625   0.640625 0
  0.656250   0.890625 0
  0.656250   0.859375 0
  0.890625   0.734375 0
  0.656250   0.796875 0
  0.812500   0.921875 0
  0.562500   1.000000 0
  0.625000   0.828125 0
  0.812500   0.843750 0
  0.843750   0.593750 0
  0.812500   0.812500 0
  0.625000   0.718750 0
  0.828125   0.687500 0
  0.640625   0.593750 0
  0.812500   0.781250 0
  0.625000   0.687500 0
  0.765625   0.828125 0
  0.640625   0.562500 0
  0.812500   0.750000 0
  0.562500   0.828125 0
  0.781250   0.875000 0
  0.546875   0.937500 0
  0.781250   0.671875 0
  0.781250   0.593750 0
  0.546875   0.656250 0
  0.796875   0.750000 0
  0.562500   0.812500 0
  0.796875   0.546875 0
  0.765625   0.796875 0
  0.765625   0.593750 0
  1.000000   0.531250 0
  0.812500   0.718750 0
  0.859375   0.562500 0
  0.625000   0.625000 0
  0.812500   0.703125 0
  0.812500   0.906250 0
  0.578125   0.968750 0
  0.984375   0.593750 0
  0.828125   0.578125 0
  0.828125   0.781250 0
  0.593750   0.843750 0
  0.812500   0.671875 0
  0.625000   0.578125 0
  0.796875   0.671875 0
  0.562500   0.734375 0
  0.984375   0.562500 0
  0.828125   0.546875 0
  0.812500   0.640625 0
  0.750000   0.812500 0
  0.625000   0.546875 0
  0.796875   0.640625 0
  0.562500   0.703125 0
  0.828125   0.515625 0
  0.781250   0.734375 0
  0.546875   0.796875 0
  0.781250   0.531250 0
  0.750000   0.781250 0
  0.625000   0.515625 0
  0.796875   0.609375 0
  0.562500   0.671875 0
  0.765625   0.656250 0
  0.765625   0.859375 0
  0.531250   0.921875 0
  0.812500   0.578125 0
  0.562500   0.656250 0
  0.984375   0.687500 0
  0.750000   0.750000 0
  0.812500   0.562500 0
  0.812500   0.765625 0
  0.578125   0.828125 0
  0.562500   0.625000 0
  0.984375   0.656250 0
  0.750000   0.718750 0
  0.812500   0.531250 0
  0.781250   0.656250 0
  0.546875   0.718750 0
  0.781250   0.625000 0
  0.546875   0.687500 0
  0.750000   0.640625 0
  0.796875   0.531250 0
  0.562500   0.593750 0
  0.984375   0.625000 0
  0.750000   0.687500 0
  0.546875   0.984375 0
  0.609375   0.812500 0
  0.796875   0.875000 0
  0.546875   0.953125 0
  0.609375   0.578125 0
  0.843750   0.515625 0
  0.765625   0.515625 0
  0.765625   0.718750 0
  0.531250   0.781250 0
  0.984375   0.546875 0
  0.750000   0.609375 0
  0.796875   0.828125 0
  0.671875   0.968750 0
  0.796875   0.796875 0
  0.796875   0.765625 0
  0.609375   0.671875 0
  0.796875   0.734375 0
  0.546875   0.812500 0
  0.796875   0.703125 0
  0.843750   0.546875 0
  0.609375   0.609375 0
  0.796875   0.687500 0
  0.562500   0.953125 0
  0.796875   0.656250 0
  0.609375   0.562500 0
  0.796875   0.625000 0
  0.609375   0.531250 0
  0.546875   0.640625 0
  0.765625   0.671875 0
  0.531250   0.734375 0
  0.796875   0.515625 0
  0.765625   0.640625 0
  0.531250   0.703125 0
  0.703125   1.000000 0
  0.765625   0.609375 0
  0.531250   0.671875 0
  0.765625   0.578125 0
  0.531250   0.640625 0
  0.546875   0.609375 0
  0.531250   1.000000 0
  0.890625   0.593750 0
  0.656250   0.656250 0
  0.781250   0.515625 0
  0.546875   0.578125 0
  0.531250   0.968750 0
  0.890625   0.562500 0
  0.656250   0.625000 0
  0.609375   0.968750 0
  0.781250   0.859375 0
  0.656250   0.593750 0
  0.750000   0.703125 0
  0.515625   0.765625 0
  0.781250   0.812500 0
  0.781250   0.781250 0
  0.593750   0.687500 0
  0.781250   0.750000 0
  0.593750   0.656250 0
  0.781250   0.718750 0
  0.531250   0.796875 0
  0.828125   0.562500 0
  0.593750   0.625000 0
  0.781250   0.687500 0
  0.828125   0.531250 0
  0.593750   0.593750 0
  0.812500   0.625000 0
  0.578125   0.687500 0
  0.781250   0.640625 0
  0.781250   0.609375 0
  0.593750   0.515625 0
  0.515625   0.781250 0
  0.812500   0.546875 0
  0.578125   0.609375 0
  0.812500   0.515625 0
  0.578125   0.578125 0
  0.750000   0.656250 0
  0.515625   0.718750 0
  0.750000   0.625000 0
  0.515625   0.687500 0
  0.687500   0.984375 0
  0.750000   0.593750 0
  0.515625   0.656250 0
  0.531250   0.546875 0
  0.750000   0.562500 0
  0.515625   0.625000 0
  0.531250   0.515625 0
  0.984375   0.515625 0
  0.750000   0.578125 0
  0.515625   0.531250 0
  0.828125   0.796875 0
  0.640625   0.703125 0
  0.828125   0.765625 0
[...]
CELL_DATA 7648
SCALARS scalar_value float 1
LOOKUP_TABLE default
1.04032e-05
-6.4628e-06
-7.03479e-09
5.9968e-09
-2.76713e-09
-2.63195e-09
-1.366e-05
9.5416e-06
-6.70271e-06
-2.27272e-05
0.000768787
-0.000367947
0.00188094
-0.000746517
0.00266157
0.00117657
0.00250617
-0.000854879
4.40593e-05
1.79371e-06
-3.16736e-05
-6.8057e-05
0.000336056
-0.000436209
1.77586e-05
2.89296e-05
1.73126e-05
-2.45258e-05
1.7226e-05
3.0038e-05
1.75561e-05
-2.03383e-05
4.1501e-10
-1.16327e-10
0
1.22018e-10
0.000851273
0.000406886
2.27536e-06
1.12697e-05
-2.85414e-05
9.11945e-05
0.000441705
0.000218044
1.98917e-09
-2.45284e-09
3.58129e-09
9.95087e-09
4.64502e-09
-1.34486e-08
7.89747e-09
5.903e-09
3.31245e-09
1.39208e-09
-1.4809e-08
-7.34139e-09
-8.50284e-06
6.72218e-05
6.98033e-05
-8.79956e-05
5.84238e-05
8.32315e-05
6.59672e-07
-1.35538e-07
-1.44602e-06
1.87846e-06
-7.11656e-07
8.85481e-08
-3.49238e-07
-1.34941e-05
5.04052e-07
2.03189e-07
9.52058e-09
-0.000101111
0.000171089
-9.21579e-09
9.49135e-09
-8.99371e-09
-8.45041e-09
-5.43052e-10
-8.19405e-09
8.86625e-09
5.70827e-10
8.51901e-09
-9.92739e-09
3.03002e-09
2.11924e-09
1.469e-06
1.39897e-06
4.1135e-07
-1.2095e-07
-2.20797e-07
6.80187e-07
-1.17903e-07
6.77006e-07
6.41861e-07
7.26706e-07
-2.22522e-07
3.49631e-06
-3.14134e-06
-1.76623e-06
-1.20301e-07
-8.80113e-08
-1.2022e-07
-3.43579e-06
0
0
0
-3.75977e-08
8.47159e-09
-4.36474e-08
-2.95917e-09
8.99339e-10
-4.09696e-10
2.39075e-09
3.55055e-10
1.2344e-10
2.91583e-10
0
-2.3896e-06
1.02835e-05
-8.91372e-06
1.35041e-05
1.81094e-06
-3.27276e-06
9.91818e-06
8.35813e-06
0
3.73553e-09
3.13077e-10
-2.09771e-09
2.19707e-09
-7.49978e-10
2.31883e-09
6.23056e-10
-2.03126e-05
6.95421e-05
-2.71433e-05
-1.18569e-05
-0.000110529
1.10002e-09
0
1.29043e-06
-3.28061e-07
-1.75808e-06
1.32875e-06
2.39194e-06
-1.43953e-06
1.36523e-05
-2.23021e-05
2.00386e-05
2.19065e-06
-4.03393e-06
3.35859e-06
2.03608e-06
-1.02825e-06
-8.74904e-07
-1.11115e-06
1.63994e-06
-1.67513e-06
5.69657e-07
0.000214294
-1.81858e-05
0.00017429
-6.73951e-05
-0.000430269
-4.38581e-05
-1.10428e-05
-5.60766e-05
5.06957e-06
2.84641e-08
-4.07865e-08
-1.16194e-08
-4.93943e-08
8.91801e-10
-3.42894e-10
5.60138e-06
3.49808e-06
3.81949e-06
-2.87876e-05
3.20896e-06
-3.55376e-05
-5.09693e-05
-5.2521e-05
5.16261e-08
-1.14816e-05
-2.986e-06
-1.62331e-06
-3.27e-06
-1.27114e-05
-2.79552e-06
0.000292967
7.76792e-05
1.99276e-05
-7.91585e-06
2.3685e-05
-8.97096e-06
-1.64448e-07
-3.47017e-08
-1.82643e-07
2.00027e-08
5.84944e-06
-2.50352e-05
2.74002e-05
2.23771e-06
2.91361e-10
-2.09504e-10
-6.37549e-06
2.94072e-05
1.31167e-05
-2.5317e-05
1.67781e-05
0.000218336
-0.00024767
-2.20527e-05
2.56348e-06
-2.46479e-05
2.65364e-05
6.0264e-06
7.67328e-08
1.81134e-08
5.77853e-07
7.70272e-07
-1.23074e-06
7.24002e-07
1.33546e-06
-1.46113e-06
5.47312e-07
1.27702e-06
1.32226e-06
1.05602e-05
-7.05391e-06
1.10251e-06
8.53441e-07
9.25828e-09
-6.42399e-09
1.01071e-08
5.48883e-09
9.34436e-06
-7.23798e-06
1.6788e-06
3.36882e-06
1.14788e-08
-7.67428e-09
1.35851e-08
6.47955e-09
0.00271707
0.00357519
8.45931e-08
6.11087e-08
2.2764e-09
1.22362e-07
1.13239e-08
3.87474e-08
-3.35336e-08
2.1362e-08
-3.6419e-07
-1.09784e-07
-1.16116e-07
1.77102e-09
-6.17633e-10
2.00339e-09
5.1032e-10
-2.1431e-09
5.01651e-09
-5.89657e-09
-2.41065e-09
0
5.79124e-10
-6.99616e-10
0
-1.21947e-06
1.38239e-06
-3.26128e-07
2.06617e-07
4.86113e-07
1.73655e-07
-8.24039e-08
1.19505e-06
-3.40596e-05
4.7202e-05
-3.11117e-06
5.6352e-06
1.00332e-06
6.63271e-06
7.50114e-06
-1.01582e-06
-7.03748e-08
9.16899e-07
1.73534e-06
1.11801e-05
1.40702e-06
1.38387e-05
1.08066e-06
2.92604e-06
5.75743e-06
-0.000143664
-8.81691e-05
0
1.00512e-08
-1.07516e-10
-6.12002e-06
-1.97027e-06
0.000789419
0.00094337
-3.91965e-07
-3.83791e-05
-0.000237271
-3.75966e-05
6.35334e-07
-9.29527e-06
0.00104322
-6.85777e-08
1.15378e-05
4.26844e-08
1.22663e-08
-4.09098e-08
8.70774e-10
-1.2661e-09
-2.61057e-05
5.4958e-05
-1.85021e-07
-8.99785e-05
-0.000386117
3.83063e-08
1.15042e-08
-1.04665e-08
-0.000575281
5.37489e-07
0.00153423
-5.94139e-05
8.75426e-05
9.71994e-09
8.12676e-05
-0.000314577
0.000217223
-0.000293548
9.68382e-06
0.000217856
-1.37619e-06
-1.53358e-06
-7.91761e-07
-0.000608237
-1.09879e-06
2.68026e-07
3.00648e-10
-3.58127e-10
-0.000325213
1.70858e-10
7.74591e-05
-9.12731e-08
7.99632e-05
-6.4365e-10
-5.29826e-05
-6.19205e-05
-1.10807e-06
1.91699e-06
0.0005282
9.76202e-05
-0.000118738
-5.42574e-08
2.57953e-07
2.12725e-08
0.000359256
7.52393e-07
-9.969e-05
-8.58838e-07
1.25229e-07
-9.38393e-07
0.00193025
1.65331e-06
3.89077e-05
-2.5236e-05
2.98829e-09
1.41121e-10
-6.58762e-06
3.67608e-07
-0.000177788
0.000267347
-9.4834e-08
-6.38091e-06
4.45559e-08
-4.44592e-06
-4.26672e-09
-1.66744e-09
-8.29574e-10
-3.61295e-08
2.18294e-08
-1.73039e-08
3.0026e-08
1.16651e-06
-9.27787e-07
1.96717e-05
4.59532e-09
4.49899e-08
1.08512e-05
1.46689e-05
-5.78591e-05
3.33608e-08
3.19483e-08
5.77897e-06
1.62817e-08
-9.83732e-06
-6.24902e-09
-3.2671e-05
8.38304e-06
-1.80243e-05
1.59197e-08
1.19224e-05
-2.21864e-06
5.31784e-09
0.000690147
-5.30964e-08
0.00242812
-1.23742e-07
-2.67297e-09
1.38274e-08
1.90951e-08
0.00344702
-1.08872e-09
1.85187e-06
6.2532e-09
-0.000813142
-7.22059e-06
-1.45858e-05
-1.81742e-05
-4.84714e-05
3.12632e-07
0
0
-7.28678e-09
-0.000127533
5.78165e-06
-2.31626e-07
0
4.24987e-08
1.7659e-05
-7.1205e-08
-1.35474e-07
0
-1.02406e-05
0
-3.65726e-06
-9.96412e-06
-3.93378e-06
6.58618e-09
-8.78117e-08
1.21359e-07
-9.80987e-09
2.62336e-08
-1.64355e-08
-1.78958e-06
-8.24033e-08
0.00033564
-2.76535e-06
-1.23927e-09
9.19749e-09
-6.67109e-07
-8.63382e-06
-2.36752e-05
-5.9532e-05
2.18337e-06
-1.56961e-08
-1.19606e-05
-0.000590265
-1.42668e-07
-7.73892e-09
-6.15172e-09
1.73955e-05
-1.44503e-08
8.20864e-09
-6.56535e-09
-1.09969e-08
8.01956e-09
-1.02342e-05
2.29162e-05
-5.38508e-06
-6.07894e-05
1.81977e-05
-0.000435616
-5.33035e-09
-2.53686e-07
-3.67772e-05
0.000307628
1.45478e-06
-0.000205742
-0.000342451
8.27464e-06
-5.66372e-05
0.000253728
-1.47229e-05
-0.00065971
0.000369025
0.00013126
8.98346e-09
5.38855e-07
-0.000219077
1.51742e-06
8.74271e-07
1.69476e-06
7.30648e-06
1.30525e-06
-8.20951e-09
1.40047e-05
1.14963e-08
2.52863e-08
0.00102533
0.000292275
-1.69018e-06
-1.81973e-08
2.2988e-06
8.46295e-06
-2.59312e-08
3.8108e-05
2.89261e-08
-1.13136e-08
-0.000144833
7.31937e-08
-5.33733e-07
0.000192371
-0.000152829
1.549e-06
-0.000178381
7.25941e-05
0.000352549
-5.88826e-09
2.5203e-07
-6.57195e-06
2.3855e-10
-4.65643e-06
-2.6079e-08
-3.16453e-05
-4.23214e-06
8.04899e-07
9.55193e-09
1.64898e-06
-8.03684e-09
0.00146311
4.90273e-07
3.13242e-06
-2.19893e-10
-4.73239e-06
-2.52631e-09
1.67177e-06
-6.27731e-06
-2.6098e-06
-1.72337e-09
-2.02143e-05
0.00107524
3.21111e-06
7.14035e-06
5.97006e-09
3.34679e-09
0.000249178
-3.2683e-06
-0.000290219
-5.65763e-09
-4.54002e-05
-8.79469e-08
-0.000502835
0
0
-0.000331138
0
-2.68297e-08
-3.30736e-05
-2.66666e-07
-1.4103e-08
-0.000107263
-2.25067e-09
0.000203633
1.76859e-08
1.75951e-05
-5.93662e-05
1.28725e-05
-1.84961e-09
-5.98224e-05
-1.03176e-08
-1.14738e-07
4.8084e-09
-0.000701389
1.45031e-05
7.73313e-05
1.42087e-08
5.50204e-10
-1.7709e-10
8.67234e-10
-1.54495e-05
1.50998e-10
6.88292e-07
6.84491e-06
-1.12458e-06
-2.84785e-10
2.16665e-07
1.22343e-05
0
-6.65238e-10
-5.54103e-07
2.54562e-09
-1.06018e-09
0
0
-3.47527e-05
1.67533e-09
-3.53354e-07
4.38426e-06
-6.80328e-06
-2.00863e-09
7.47781e-06
-2.12202e-05
-8.18561e-06
9.31853e-10
1.47621e-06
2.21398e-06
-2.10104e-07
1.77347e-08
3.31828e-08
-1.83542e-05
4.44695e-06
-1.79359e-05
-1.32313e-08
0.000399213
-8.15197e-06
-0.000547469
-1.02678e-06
1.06992e-05
-1.79674e-05
-0.000303045
3.60537e-07
0.00247265
-0.000482805
-2.10457e-06
-0.00096738
6.63397e-05
5.09217e-08
4.61603e-07
1.95694e-05
0.000171195
-1.56107e-06
-1.49695e-06
9.96595e-07
-3.44101e-06
-8.49065e-08
1.90706e-06
-0.000864643
-1.08481e-07
0.00041241
5.08221e-07
1.00973e-06
-6.49503e-05
0.000545821
-6.1619e-08
-6.62368e-06
6.02117e-06
-3.43963e-05
-6.58069e-06
-8.61967e-07
-6.25581e-05
-6.06573e-08
0.00133635
4.28545e-06
-9.45755e-07
0.000129069
-0.000182597
8.23737e-06
-2.72936e-06
6.25107e-08
-2.68751e-05
2.62305e-05
-0.000214892
9.20061e-07
-9.77665e-07
0
4.09616e-06
0
1.87605e-05
4.83628e-08
2.97882e-05
-2.83159e-05
-5.30221e-07
-0.00019319
-5.10939e-08
-0.000870824
-4.33265e-05
-1.89613e-08
0.00246431
-1.27046e-09
2.26736e-08
3.097e-08
1.91025e-05
4.92792e-08
-1.13317e-07
-3.31871e-08
3.95471e-07
1.72423e-06
-5.68303e-06
8.69418e-06
9.35513e-06
0
6.23153e-06
-1.08015e-05
0
8.16791e-06
-3.04188e-08
0
2.82518e-05
-5.12711e-05
0
3.33854e-10
6.82647e-06
2.56564e-10
6.2913e-06
0.00195316
-1.6191e-05
3.33893e-05
-8.87113e-06
0
-7.32757e-05
-1.1536e-08
-8.19904e-05
4.51528e-06
8.70598e-05
0.00357274
-1.26955e-08
0
5.60344e-06
-1.44689e-06
5.86235e-06
-3.16107e-09
1.31745e-05
-0.000134977
-3.46699e-06
0
2.32915e-05
4.85793e-06
0.000241396
0
2.1939e-06
2.16908e-06
0.000118257
-0.000157095
-5.37766e-07
0
-3.65559e-06
-1.38588e-06
3.15816e-08
1.35389e-08
-7.78615e-06
1.36984e-05
0
-1.24927e-06
-9.96925e-06
6.96625e-07
4.53258e-07
-0.000724042
0.000616933
-1.4531e-05
2.2617e-09
-3.54509e-09
-3.89885e-09
5.04212e-08
7.66293e-07
-1.40886e-08
1.14453e-06
1.54404e-10
9.33936e-10
-6.76735e-07
2.10838e-08
-4.37834e-06
0
0
-5.58939e-06
-0.000561216
2.48709e-05
-1.76897e-06
-4.82186e-05
3.94226e-06
-6.94379e-10
-1.2715e-05
2.81511e-05
-5.05485e-07
0
-3.97466e-06
-1.82842e-09
1.04495e-05
-8.51628e-06
-6.94774e-09
-2.3429e-05
-6.45085e-08
8.82781e-09
8.28247e-05
0
0.000414838
-1.04558e-08
-3.90836e-09
-8.05969e-06
-5.92847e-08
1.12276e-06
-1.42871e-05
-2.42986e-05
0
1.18285e-08
-1.1194e-06
0.000213897
4.04334e-10
-3.21363e-08
5.05339e-07
-1.41661e-05
4.47084e-07
8.49006e-07
-0.000198135
-5.5279e-05
-1.97426e-05
-1.53818e-05
0.000649332
0.0010376
0.00280865
-3.24601e-08
-6.59153e-06
1.85868e-05
-1.75698e-05
1.84973e-09
0
-0.000193001
2.32599e-08
-4.88197e-05
2.95231e-05
-3.91549e-07
1.13438e-06
-0.000177818
6.73487e-05
0.00220639
5.50227e-05
-0.000170709
-2.45868e-08
5.43034e-06
2.63796e-05
0
2.67057e-07
0.00151053
-4.31763e-05
9.52937e-06
-0.000475315
4.68075e-06
-4.02344e-10
0.000973653
-6.32329e-05
3.11368e-08
-9.25342e-07
8.32662e-09
1.11045e-09
1.10339e-09
1.3374e-08
-1.53541e-05
0
5.73232e-06
3.95315e-05
-2.58712e-06
2.37489e-06
-2.34998e-08
-0.000509004
-1.90749e-05
2.06151e-08
0.00071902
0.000134565
-2.47951e-05
6.25039e-05
4.28237e-09
4.60396e-06
-5.39638e-09
7.15153e-09
8.08948e-09
-1.33986e-10
-2.10848e-05
6.67529e-09
-2.0331e-05
-0.000156148
-0.000281242
1.65549e-05
1.22407e-05
-6.88677e-07
5.48064e-09
1.64468e-06
1.00162e-08
0.0023687
-1.46937e-06
1.37826e-09
3.2826e-05
2.2998e-05
2.22914e-05
1.06578e-05
-0.000589026
3.29023e-07
0
0
-2.37936e-06
2.3812e-08
6.03302e-07
1.24298e-05
1.19623e-09
-8.40587e-09
-0.000108797
6.02524e-10
-0.000121777
-3.35447e-08
0.00219507
-0.000364776
-4.6772e-06
-5.27555e-05
2.05852e-10
-3.2962e-05
2.07833e-05
1.16777e-05
-2.03213e-07
3.71858e-07
0.000388525
0.00126311
0.000152435
-0.000178796
6.54097e-07
0.00244908
-2.97064e-05
0
-3.7171e-06
9.22529e-09
-3.56479e-09
-4.25903e-05
-6.71831e-06
-4.05921e-09
8.8787e-10
-3.19062e-06
-2.78649e-05
-4.87387e-08
0.00113249
9.6467e-08
0.0001703
0
-2.59427e-10
-1.05901e-08
-1.38353e-10
-8.49773e-05
-6.25064e-09
-6.86949e-09
-6.57399e-05
-1.86612e-05
5.90738e-06
0.000228993
0.000289673
9.65742e-10
4.11713e-07
-6.07526e-05
0
-0.000283982
0.000365232
-9.12847e-08
-4.79148e-08
-2.2924e-10
-4.82828e-09
-3.45933e-06
0.00308825
-3.1326e-08
6.63419e-06
0
-0.000149444
-1.95787e-05
0
8.14398e-08
1.05365e-05
-3.6206e-09
7.52691e-05
-1.28578e-05
0
-2.89049e-05
0
-4.21527e-05
0.000239096
0
0.00013548
-1.63597e-06
-1.88131e-08
0
-5.4489e-07
-4.59697e-05
-2.21589e-05
0.000123964
4.81642e-05
0
8.8282e-05
-0.000174141
5.98788e-07
6.65488e-07
0
1.40533e-05
2.64938e-06
8.26855e-05
-8.75318e-09
1.82797e-05
4.48112e-07
-4.27762e-06
-5.16709e-05
-5.34789e-08
1.50213e-09
-3.04187e-05
-1.00937e-06
1.00256e-05
-1.75135e-05
-0.000760987
-3.58359e-06
-4.41321e-05
-3.2816e-05
-9.05934e-07
6.21794e-06
1.89416e-05
-1.09788e-09
2.02674e-05
1.69209e-06
-2.05254e-05
-8.37722e-09
8.7662e-07
-0.000125378
9.74825e-06
-6.84848e-06
5.22424e-07
-3.9629e-06
6.23126e-10
0.000310631
1.11827e-08
0.00182296
-5.16679e-07
-6.12526e-08
1.20046e-07
-0.000241126
-2.00515e-05
0.000414421
3.60472e-08
8.5998e-06
1.20557e-05
7.16588e-07
8.58924e-09
0
8.85041e-05
-2.63562e-08
0
-8.46266e-06
0.000139091
-3.06778e-05
0.00215848
-5.94398e-06
-0.00120349
-1.49187e-06
-4.5916e-05
-1.34112e-05
2.54704e-05
2.10105e-05
-8.24545e-07
-0.000487454
1.33798e-06
-1.57363e-05
-9.17603e-05
0.00269804
1.57501e-05
-1.13817e-10
0.000348913
-1.03975e-05
0
1.02529e-06
0
-6.84315e-06
-1.62199e-08
0
-0.000468352
4.47894e-06
5.71509e-06
-6.38246e-05
-1.20059e-06
7.8728e-09
-0.000195627
0.000190428
-2.09266e-05
-1.30024e-05
3.59208e-05
-1.18838e-05
-1.12991e-08
1.47882e-05
-2.4248e-05
4.37937e-05
-3.72013e-05
-1.46317e-09
1.16412e-05
6.5916e-07
4.00877e-09
-5.64062e-06
8.32748e-09
-1.9529e-06
-8.3713e-05
-6.35505e-07
0
4.17915e-06
0.000272328
0.000203869
4.99055e-07
-2.43137e-05
-4.27087e-05
-0.000931394
2.03351e-05
2.33858e-05
2.05226e-05
-5.87848e-05
2.57046e-05
1.95527e-05
-1.01578e-05
-6.16069e-06
8.44218e-06
2.93644e-08
6.78506e-05
3.19112e-08
-0.000583298
-3.1281e-05
2.38868e-05
-8.40936e-08
1.30708e-05
-1.51615e-08
-5.18883e-05
0.000663117
-0.000357699
-8.22457e-05
-0.000126501
3.58995e-05
3.75008e-05
-6.55494e-08
-0.000117474
-4.09806e-09
-1.8289e-09
-7.24969e-10
-1.54507e-10
1.3967e-05
5.19299e-05
-0.000737631
6.27946e-05
-3.21972e-05
-8.77761e-05
6.7618e-05
-3.91078e-05
-1.71264e-07
0.00012398
-1.41e-09
8.24383e-09
-1.51111e-09
-1.42485e-05
8.51012e-09
-4.73334e-08
-3.03347e-09
2.43824e-07
-8.67498e-10
-1.06832e-09
-6.18715e-06
-0.000122906
-1.16675e-08
5.91884e-06
-4.6996e-09
-5.99112e-05
-7.32676e-09
1.14634e-06
-0.000812731
0
0.00014892
-2.70881e-10
2.07074e-10
0
-1.0819e-05
-0.000152356
0.000134058
6.6288e-10
0
0.00012363
1.86809e-10
-2.0907e-10
-0.000179206
-1.42238e-10
-0.000287912
-1.27237e-09
9.41106e-05
1.08092e-09
-1.36325e-05
-5.25548e-10
-1.71693e-07
-3.48371e-09
-1.01384e-05
0
3.43404e-06
0
-7.0018e-06
6.28907e-07
-0.000132449
-0.000533585
4.48618e-05
0.00269879
0.00244688
-9.36792e-08
-1.1211e-07
5.70342e-07
-0.000396834
6.22681e-08
3.4888e-08
7.59658e-08
4.21241e-08
-0.00070963
-0.000140714
-1.22432e-05
-8.54488e-06
0.000304654
-7.92161e-09
0.000648029
1.51483e-05
5.37433e-06
-9.6196e-06
0.00638959
5.11344e-06
1.60638e-05
3.35412e-10
-2.47115e-05
-1.40134e-10
8.0824e-09
7.78574e-05
-0.00028798
-5.42273e-09
-3.34609e-05
0.000164879
0.000118645
6.91287e-06
4.56513e-08
-3.60717e-08
-0.000137393
-3.95721e-05
1.40708e-05
1.72759e-05
3.91461e-06
2.79383e-06
4.92556e-07
2.38758e-05
3.68065e-08
-1.06378e-06
-1.53357e-05
-8.85549e-06
8.15764e-07
-1.93624e-07
-0.000309591
0
-5.32923e-05
-1.00536e-08
2.72083e-05
1.43743e-06
-5.16274e-10
-8.64163e-06
1.02047e-05
1.08977e-06
5.67519e-07
4.11844e-07
2.96094e-07
-0.000831631
5.46538e-10
-3.11285e-05
8.72517e-09
-1.44871e-06
-2.23029e-05
1.1021e-06
-7.44869e-10
-0.00019512
4.60084e-05
-7.38665e-06
0
3.70092e-08
4.87032e-05
0
-6.44949e-08
-5.35219e-05
9.88259e-07
-0.000626303
4.54541e-09
7.55381e-07
-3.89266e-08
-7.15615e-08
-2.6774e-08
-4.27853e-05
2.0773e-06
-1.36352e-05
-5.30396e-07
4.90858e-07
-3.39225e-07
1.2576e-06
-6.74012e-07
-2.37636e-05
0
-3.29102e-06
-1.40789e-05
0.000363371
5.13346e-05
-0.00120518
0.000416765
-1.4051e-08
-0.000451569
1.10039e-08
-0.00087635
-1.35455e-08
-0.000332345
-1.43298e-05
-9.96727e-06
-0.000113351
3.49554e-05
-0.000108597
3.47314e-07
-6.38654e-07
1.518e-07
8.92535e-10
-0.000666553
-7.03832e-05
4.26874e-07
-0.000661698
-8.6645e-06
6.1809e-05
0.000357967
1.55913e-05
3.15983e-06
-0.000184793
8.04612e-06
-1.69157e-05
-3.83322e-05
-0.000251419
0
0
0
1.09456e-05
-8.83616e-05
-0.00182449
-7.17652e-09
-0.000168373
0.000907905
-0.000836538
-0.000396781
-0.000151632
1.50643e-06
0.000169809
-0.000234803
1.16967e-05
-4.07024e-07
5.30079e-06
-0.000102481
8.41874e-05
1.2409e-05
-8.36782e-05
0
3.10652e-07
-1.41289e-06
-5.00141e-08
2.9105e-08
2.16026e-09
-3.05637e-05
-7.04695e-05
4.78078e-05
-3.96752e-05
6.25441e-06
0.000101909
0.000190354
0.000379558
-0.000561822
0.000371105
1.55314e-06
0.000107876
0.00020967
0.000388962
-0.000851558
-2.24643e-05
0.000139513
-1.57851e-05
1.25415e-06
-6.47088e-05
3.01758e-05
0
-4.03071e-10
0
-3.70562e-10
3.7377e-07
2.28506e-07
2.60236e-07
0.000514856
4.9009e-08
1.83859e-08
-0.000379274
-2.37486e-08
5.39796e-08
0.000364107
-0.000382148
4.29482e-09
1.15595e-08
-8.12557e-09
-4.25121e-08
9.05484e-08
0.000152313
6.85204e-09
-7.55917e-05
-1.27998e-06
0.000149429
-7.1971e-07
3.63998e-07
-1.54642e-06
-0.000215639
-0.000169519
0.000358899
0.00090764
-0.000803558
-4.67949e-05
2.9081e-08
-2.00423e-08
-1.19154e-08
-4.39175e-05
0.000587586
0.000224467
1.6384e-08
-8.36218e-05
0.00017625
-1.88424e-09
0.00251162
3.69446e-09
1.66011e-07
-3.64159e-09
-0.000386954
0.000398309
-0.000235518
-1.09387e-05
-2.71473e-05
8.37986e-09
-4.62473e-05
-9.27115e-09
-3.1221e-05
-7.32408e-05
0.000393309
-0.000379527
5.49477e-05
-3.61924e-05
5.67206e-06
-4.52365e-06
0.00433859
4.39914e-06
-3.75133e-05
4.92327e-05
-1.0138e-05
-6.97723e-06
0.00266925
0.000177525
6.60534e-07
5.39451e-05
7.39399e-06
-4.61432e-09
-3.38028e-05
-1.90447e-05
-9.19128e-09
-9.27908e-09
-9.60642e-07
0.000136382
-5.54534e-05
1.99737e-05
-6.11845e-08
-4.83668e-05
-5.02782e-05
0
0.00290902
9.27715e-05
0.00605931
0.0218121
5.8135e-08
0.000257766
-4.62489e-08
0.000134032
1.65706e-05
-1.1053e-06
0
2.01732e-05
0
0
0
1.04744e-07
-1.52619e-06
-5.98907e-05
0.00100893
0.000585087
0.00113632
0.0010595
-3.03499e-05
-0.000411112
0.000312648
1.51553e-05
1.73005e-08
4.41957e-08
2.4738e-08
6.40114e-08
-0.000171048
-8.71909e-09
-1.82714e-08
2.60165e-09
3.63225e-05
-0.000107062
0.000706645
-0.000221985
2.15341e-09
-1.04329e-08
0
-6.02967e-09
-4.83561e-09
-6.70874e-09
2.06788e-05
3.36195e-06
0.000223503
-0.000618495
9.79133e-05
-0.000192667
2.31779e-06
0.0016278
4.31167e-05
0.00123999
1.66697e-06
2.54208e-06
7.4908e-07
1.70863e-06
-0.00025461
-1.23745e-06
-5.69616e-07
4.60311e-07
4.29404e-09
0.000257873
5.08381e-05
-7.95087e-08
5.98148e-05
9.58126e-09
1.57547e-05
2.75421e-05
-4.04418e-06
0.00220124
-7.70977e-06
-2.57629e-05
-1.16048e-06
-4.14223e-06
0.0024597
8.9749e-05
0.000122716
4.73447e-05
0
-1.08236e-06
4.22501e-07
-6.97273e-07
-9.14918e-05
9.10416e-05
0.00011603
5.90993e-06
-1.29906e-06
-0.000290422
1.49441e-05
6.35238e-07
-4.09035e-07
-6.04704e-07
-1.84349e-08
1.24e-07
-5.71966e-05
6.28469e-09
0.00270618
-0.000590809
7.8028e-08
4.87515e-08
3.54522e-08
7.98241e-10
1.03442e-08
0.000293953
3.05201e-05
-1.98354e-05
-6.43544e-05
-1.30181e-06
-4.44955e-06
-0.00111563
0.00196218
0.00329776
-5.86044e-05
7.52715e-09
-2.44686e-10
-1.00253e-06
1.45612e-06
-5.5176e-07
-6.81887e-07
-9.06274e-06
-3.18536e-06
3.5248e-08
4.95022e-08
-2.45089e-09
-2.46764e-08
0.000563576
-0.000686086
-7.79137e-05
1.25012e-05
-0.00018832
-1.08966e-10
1.02546e-10
0
0.000229381
6.36194e-06
0.0012465
-0.000878885
2.72946e-05
0
0
8.08077e-05
-4.58637e-05
-0.00039916
0
-3.85149e-10
-0.000299931
-0.000307588
0
2.74149e-05
-0.000264527
3.74895e-05
-0.000176559
-1.28176e-05
-1.08233e-05
1.65639e-05
-2.55378e-05
0.00025646
1.39876e-06
2.18557e-07
7.82744e-06
-6.19315e-06
-0.000276989
1.6662e-05
4.10507e-07
5.8442e-06
6.10611e-05
-6.0793e-09
-2.13999e-05
-2.19576e-05
1.09608e-08
3.46628e-09
0.00291813
2.26325e-07
-1.03412e-06
0.00113361
-4.41614e-08
-8.89583e-09
1.56097e-08
-1.62235e-08
-1.13234e-05
1.61886e-05
2.5875e-07
1.55961e-05
8.04976e-10
1.9137e-08
5.17054e-09
-6.89561e-08
5.98184e-09
5.57667e-05
-2.03596e-05
-5.36074e-05
-7.95221e-06
-7.85238e-06
8.24711e-06
-1.82901e-06
-0.000138896
6.39272e-07
0.000181121
7.1478e-08
6.23457e-07
-5.79289e-07
-6.30209e-05
-6.37391e-05
-5.01246e-09
2.94837e-05
-0.00089803
-1.35499e-06
1.32053e-06
0.000283887
1.67367e-08
-1.29884e-07
0.00244469
-0.000804288
-0.000176304
0
0
0
0
-0.000179521
1.02032e-09
1.00642e-09
-3.40801e-10
-2.93949e-09
-7.33283e-05
0