# vtk DataFile Version 2.0
Unstructured Grid by M++
ASCII
DATASET UNSTRUCTURED_GRID
POINTS 4072 float
  0.828125   0.890625 0
  0.875000   0.531250 0
  0.828125   0.750000 0
  0.593750   0.968750 0
  0.828125   0.671875 0
  0.828125   0.875000 0
  0.593750   0.937500 0
  0.828125   0.656250 0
  0.828125   0.640625 0
  0.828125   0.843750 0
  0.593750   0.906250 0
  0.828125   0.625000 0
  0.781250   0.968750 0
  0.828125   0.609375 0
  0.828125   0.812500 0
  0.593750   0.875000 0
  0.593750   0.828125 0
  0.593750   0.796875 0
  0.828125   0.703125 0
  0.593750   0.765625 0
  0.828125   0.937500 0
  0.812500   0.875000 0
  0.859375   0.515625 0
  0.812500   0.734375 0
  0.812500   0.937500 0
  0.578125   1.000000 0
  0.578125   0.750000 0
  0.812500   0.687500 0
  0.578125   0.953125 0
  0.812500   0.656250 0
  0.812500   0.859375 0
  0.578125   0.921875 0
  0.812500   0.828125 0
  0.578125   0.890625 0
  0.812500   0.593750 0
  0.812500   0.796875 0
  0.578125   0.859375 0
  0.578125   0.812500 0
  0.578125   0.781250 0
  0.796875   1.000000 0
  0.796875   0.859375 0
  0.796875   0.718750 0
  0.562500   0.984375 0
  0.562500   0.937500 0
  0.796875   0.843750 0
  0.562500   0.906250 0
  0.796875   0.812500 0
  0.562500   0.875000 0
  0.796875   0.578125 0
  0.796875   0.781250 0
  0.562500   0.843750 0
  0.812500   0.984375 0
  0.562500   0.796875 0
  0.812500   0.953125 0
  0.562500   0.765625 0
  0.796875   0.937500 0
  0.546875   0.750000 0
  0.781250   0.984375 0
  0.828125   0.593750 0
  0.781250   0.843750 0
  0.781250   0.937500 0
  0.546875   1.000000 0
  0.781250   0.703125 0
  0.546875   0.968750 0
  0.546875   0.921875 0
  0.781250   0.828125 0
  0.546875   0.890625 0
  0.781250   0.796875 0
  0.546875   0.859375 0
  0.781250   0.562500 0
  0.781250   0.765625 0
  0.546875   0.828125 0
  0.796875   0.968750 0
  0.546875   0.781250 0
  0.765625   1.000000 0
  0.765625   0.968750 0
  0.531250   0.984375 0
  0.765625   0.687500 0
  0.531250   0.953125 0
  0.531250   0.937500 0
  0.531250   0.906250 0
  0.765625   0.812500 0
  0.531250   0.875000 0
  0.765625   0.781250 0
  0.531250   0.843750 0
  0.781250   1.000000 0
  0.765625   0.546875 0
  0.765625   0.750000 0
  0.531250   0.812500 0
  0.781250   0.953125 0
  0.531250   0.765625 0
  0.515625   0.750000 0
  0.750000   0.984375 0
  0.750000   0.953125 0
  0.796875   0.593750 0
  0.796875   0.562500 0
  0.750000   0.843750 0
  0.750000   0.937500 0
  0.515625   1.000000 0
  0.750000   0.906250 0
  0.515625   0.968750 0
  0.750000   0.671875 0
  0.750000   0.875000 0
  0.515625   0.937500 0
  0.515625   0.921875 0
  0.515625   0.890625 0
  0.750000   0.796875 0
  0.515625   0.859375 0
  0.750000   0.765625 0
  0.515625   0.828125 0
  1.000000   0.718750 0
  0.750000   0.531250 0
  0.750000   0.734375 0
  0.515625   0.796875 0
  0.734375   1.000000 0
  0.734375   0.968750 0
  0.734375   0.937500 0
  0.781250   0.578125 0
  0.781250   0.546875 0
  0.968750   0.578125 0
  0.734375   0.828125 0
  0.968750   0.546875 0
  0.734375   0.796875 0
  0.734375   0.765625 0
  0.968750   0.671875 0
  0.734375   0.734375 0
  0.968750   0.640625 0
  0.734375   0.703125 0
  0.968750   0.609375 0
  0.734375   0.671875 0
  0.734375   0.656250 0
  0.734375   0.625000 0
  0.968750   0.531250 0
  0.734375   0.593750 0
  0.984375   0.734375 0
  0.984375   0.703125 0
  0.734375   0.515625 0
  0.718750   0.984375 0
  0.718750   0.953125 0
  0.718750   0.921875 0
  0.953125   0.562500 0
  0.718750   0.812500 0
  0.953125   0.531250 0
  0.718750   0.781250 0
  0.718750   0.750000 0
  0.953125   0.656250 0
  0.718750   0.718750 0
  0.953125   0.625000 0
  0.718750   0.687500 0
  0.953125   0.593750 0
  0.718750   0.656250 0
  0.671875   1.000000 0
  0.718750   0.640625 0
  0.718750   0.609375 0
  0.953125   0.515625 0
  0.718750   0.578125 0
  0.968750   0.718750 0
  0.968750   0.687500 0
  0.953125   0.671875 0
  0.703125   0.968750 0
  0.703125   0.937500 0
  0.937500   0.656250 0
  0.703125   0.906250 0
  0.937500   0.546875 0
  0.703125   0.796875 0
  0.937500   0.515625 0
  0.703125   0.765625 0
  0.937500   0.671875 0
  0.703125   0.734375 0
  0.937500   0.640625 0
  0.703125   0.703125 0
  0.937500   0.609375 0
  0.703125   0.671875 0
  0.937500   0.578125 0
  0.703125   0.640625 0
  0.656250   0.984375 0
  0.703125   0.625000 0
  0.703125   0.593750 0
  0.718750   0.796875 0
  0.953125   0.734375 0
  0.812500   1.000000 0
  0.859375   0.656250 0
  0.703125   0.781250 0
  0.937500   0.718750 0
  0.953125   0.703125 0
  0.796875   0.984375 0
  0.843750   0.640625 0
  0.812500   0.968750 0
  0.859375   0.625000 0
  0.796875   0.953125 0
  0.843750   0.609375 0
  0.687500   0.953125 0
  0.687500   0.921875 0
  0.687500   0.890625 0
  0.921875   0.734375 0
  0.687500   0.796875 0
  0.687500   0.781250 0
  0.921875   0.703125 0
  0.687500   0.765625 0
  0.687500   0.750000 0
  0.921875   0.656250 0
  0.687500   0.718750 0
  0.921875   0.625000 0
  0.687500   0.687500 0
  0.921875   0.593750 0
  0.687500   0.656250 0
  0.640625   1.000000 0
  0.921875   0.562500 0
  0.687500   0.625000 0
  0.640625   0.968750 0
  0.687500   0.609375 0
  0.687500   0.578125 0
  0.937500   0.687500 0
  0.921875   0.671875 0
  0.671875   0.921875 0
  0.906250   0.656250 0
  0.671875   0.906250 0
  0.671875   0.875000 0
  0.906250   0.718750 0
  0.671875   0.781250 0
  0.671875   0.765625 0
  0.671875   0.734375 0
  0.906250   0.640625 0
  0.671875   0.703125 0
  0.906250   0.609375 0
  0.671875   0.671875 0
  0.906250   0.578125 0
  0.671875   0.640625 0
  0.625000   0.984375 0
  0.671875   0.609375 0
  0.625000   0.953125 0
  0.671875   0.593750 0
  0.671875   0.562500 0
  0.765625   0.953125 0
  0.812500   0.609375 0
  0.656250   1.000000 0
  0.656250   0.953125 0
  0.656250   0.906250 0
  0.890625   0.640625 0
  0.656250   0.890625 0
  0.656250   0.859375 0
  0.890625   0.734375 0
  0.656250   0.796875 0
  0.812500   0.921875 0
  0.562500   1.000000 0
  0.625000   0.828125 0
  0.812500   0.843750 0
  0.843750   0.593750 0
  0.812500   0.812500 0
  0.625000   0.718750 0
  0.828125   0.687500 0
  0.640625   0.593750 0
  0.812500   0.781250 0
  0.625000   0.687500 0
  0.765625   0.828125 0
  0.640625   0.562500 0
  0.812500   0.750000 0
  0.562500   0.828125 0
  0.781250   0.875000 0
  0.546875   0.937500 0
  0.781250   0.671875 0
  0.781250   0.593750 0
  0.546875   0.656250 0
  0.796875   0.750000 0
  0.562500   0.812500 0
  0.796875   0.546875 0
  0.765625   0.796875 0
  0.765625   0.593750 0
  1.000000   0.531250 0
  0.812500   0.718750 0
  0.859375   0.562500 0
  0.625000   0.625000 0
  0.812500   0.703125 0
  0.812500   0.906250 0
  0.578125   0.968750 0
  0.984375   0.593750 0
  0.828125   0.578125 0
  0.828125   0.781250 0
  0.593750   0.843750 0
  0.812500   0.671875 0
  0.625000   0.578125 0
  0.796875   0.671875 0
  0.562500   0.734375 0
  0.984375   0.562500 0
  0.828125   0.546875 0
  0.812500   0.640625 0
  0.750000   0.812500 0
  0.625000   0.546875 0
  0.796875   0.640625 0
  0.562500   0.703125 0
  0.828125   0.515625 0
  0.781250   0.734375 0
  0.546875   0.796875 0
  0.781250   0.531250 0
  0.750000   0.781250 0
  0.625000   0.515625 0
  0.796875   0.609375 0
  0.562500   0.671875 0
  0.765625   0.656250 0
  0.765625   0.859375 0
  0.531250   0.921875 0
  0.812500   0.578125 0
  0.562500   0.656250 0
  0.984375   0.687500 0
  0.750000   0.750000 0
  0.812500   0.562500 0
  0.812500   0.765625 0
  0.578125   0.828125 0
  0.562500   0.625000 0
  0.984375   0.656250 0
  0.750000   0.718750 0
  0.812500   0.531250 0
  0.781250   0.656250 0
  0.546875   0.718750 0
  0.781250   0.625000 0
  0.546875   0.687500 0
  0.750000   0.640625 0
  0.796875   0.531250 0
  0.562500   0.593750 0
  0.984375   0.625000 0
  0.750000   0.687500 0
  0.546875   0.984375 0
  0.609375   0.812500 0
  0.796875   0.875000 0
  0.546875   0.953125 0
  0.609375   0.578125 0
  0.843750   0.515625 0
  0.765625   0.515625 0
  0.765625   0.718750 0
  0.531250   0.781250 0
  0.984375   0.546875 0
  0.750000   0.609375 0
  0.796875   0.828125 0
  0.671875   0.968750 0
  0.796875   0.796875 0
  0.796875   0.765625 0
  0.609375   0.671875 0
  0.796875   0.734375 0
  0.546875   0.812500 0
  0.796875   0.703125 0
  0.843750   0.546875 0
  0.609375   0.609375 0
  0.796875   0.687500 0
  0.562500   0.953125 0
  0.796875   0.656250 0
  0.609375   0.562500 0
  0.796875   0.625000 0
  0.609375   0.531250 0
  0.546875   0.640625 0
  0.765625   0.671875 0
  0.531250   0.734375 0
  0.796875   0.515625 0
  0.765625   0.640625 0
  0.531250   0.703125 0
  0.703125   1.000000 0
  0.765625   0.609375 0
  0.531250   0.671875 0
  0.765625   0.578125 0
  0.531250   0.640625 0
  0.546875   0.609375 0
  0.531250   1.000000 0
  0.890625   0.593750 0
  0.656250   0.656250 0
  0.781250   0.515625 0
  0.546875   0.578125 0
  0.531250   0.968750 0
  0.890625   0.562500 0
  0.656250   0.625000 0
  0.609375   0.968750 0
  0.781250   0.859375 0
  0.656250   0.593750 0
  0.750000   0.703125 0
  0.515625   0.765625 0
  0.781250   0.812500 0
  0.781250   0.781250 0
  0.593750   0.687500 0
  0.781250   0.750000 0
  0.593750   0.656250 0
  0.781250   0.718750 0
  0.531250   0.796875 0
  0.828125   0.562500 0
  0.593750   0.625000 0
  0.781250   0.687500 0
  0.828125   0.531250 0
  0.593750   0.593750 0
  0.812500   0.625000 0
  0.578125   0.687500 0
  0.781250   0.640625 0
  0.781250   0.609375 0
  0.593750   0.515625 0
  0.515625   0.781250 0
  0.812500   0.546875 0
  0.578125   0.609375 0
  0.812500   0.515625 0
  0.578125   0.578125 0
  0.750000   0.656250 0
  0.515625   0.718750 0
  0.750000   0.625000 0
  0.515625   0.687500 0
  0.687500   0.984375 0
  0.750000   0.593750 0
  0.515625   0.656250 0
  0.531250   0.546875 0
  0.750000   0.562500 0
  0.515625   0.625000 0
  0.531250   0.515625 0
  0.984375   0.515625 0
  0.750000   0.578125 0
  0.515625   0.531250 0
  0.828125   0.796875 0
  0.640625   0.703125 0
  0.828125   0.765625 0
[...]
CELL_DATA 7648
SCALARS scalar_value float 1
LOOKUP_TABLE default
7.06966e-06
-5.3912e-06
-6.73268e-09
5.73739e-09
-2.63646e-09
-2.5174e-09
-1.27847e-05
8.54483e-06
-6.01365e-06
-2.10133e-05
0.000659908
-0.000330255
0.00162797
-0.000654001
0.00233493
0.00101102
0.00220062
-0.000746442
4.02663e-05
2.9015e-06
-2.82129e-05
-6.20697e-05
0.000294971
-0.000383509
1.57309e-05
2.71792e-05
1.52613e-05
-2.28636e-05
1.51568e-05
2.82157e-05
1.5386e-05
-1.90193e-05
4.01753e-10
-1.12902e-10
-1.05516e-10
1.16248e-10
0.000728106
0.000350467
2.28272e-06
7.77657e-06
-2.64074e-05
8.09981e-05
0.000390994
0.000190483
1.91031e-09
-2.35391e-09
3.43682e-09
9.6625e-09
4.50235e-09
-1.3629e-08
8.36396e-09
5.4098e-09
3.2064e-09
1.4958e-09
-1.54232e-08
-7.93712e-09
-7.32753e-06
6.06224e-05
6.29358e-05
-7.86986e-05
4.9964e-05
7.42288e-05
6.10494e-07
-1.25517e-07
-1.3317e-06
1.73952e-06
-6.55145e-07
7.83207e-08
-3.24521e-07
-1.34125e-05
4.99641e-07
1.6449e-07
1.06422e-08
-9.06872e-05
0.000148735
-8.93572e-09
9.19177e-09
-8.69113e-09
-8.16793e-09
-5.12787e-10
-7.9469e-09
8.58623e-09
5.62761e-10
8.54143e-09
-9.80903e-09
2.92037e-09
2.04221e-09
1.41098e-06
1.31778e-06
-5.23961e-07
-1.11662e-07
-1.97121e-07
6.18619e-07
-1.09152e-07
6.54693e-07
5.81526e-07
7.03354e-07
-1.96856e-07
3.26156e-06
-2.91705e-06
-1.67427e-06
-1.11396e-07
-7.38721e-08
-1.10761e-07
-5.47538e-06
0
0
0
-2.91553e-08
7.55714e-09
-3.35489e-08
-2.38808e-09
8.64481e-10
-3.94049e-10
2.30657e-09
3.4161e-10
1.18822e-10
2.8101e-10
0
-2.72662e-06
9.49612e-06
-8.17627e-06
1.21853e-05
1.77525e-06
-3.03275e-06
9.01992e-06
7.6221e-06
2.45529e-10
3.54017e-09
7.46847e-10
-1.96863e-09
2.10092e-09
-7.14917e-10
2.20865e-09
5.93846e-10
-2.21942e-05
6.40966e-05
-2.26194e-05
-8.48329e-06
-0.000102269
9.01601e-10
0
1.19901e-06
-2.83539e-07
-1.62198e-06
1.32255e-06
2.50948e-06
-1.32525e-06
1.1823e-05
-1.97551e-05
1.72768e-05
1.99151e-06
-3.39434e-06
3.04389e-06
9.76082e-07
-7.61424e-07
-8.47472e-07
-8.46081e-07
1.44914e-06
-1.58539e-06
5.16997e-07
0.00018852
-1.50959e-05
0.000153706
-6.07198e-05
-0.00040529
-3.78149e-05
-1.14312e-05
-4.92108e-05
5.49041e-06
-5.80669e-09
-1.48436e-08
-6.18624e-08
-4.77497e-08
8.59827e-10
-3.30433e-10
5.2416e-06
3.37238e-06
3.60579e-06
-2.68349e-05
3.10808e-06
-3.31425e-05
-4.76062e-05
-4.90307e-05
3.29581e-08
-1.05402e-05
-2.90018e-06
-1.50394e-06
-2.99827e-06
-1.16418e-05
-2.8022e-06
0.000323605
-0.000165735
1.84386e-05
-7.2839e-06
2.1956e-05
-8.38254e-06
-1.38307e-07
-4.33624e-08
-1.48249e-07
2.92806e-08
5.17735e-06
-2.27496e-05
2.47972e-05
1.86428e-06
2.70261e-10
-1.98593e-10
-5.8677e-06
2.66508e-05
1.13072e-05
-2.30327e-05
1.48635e-05
0.000192793
-0.000219981
-1.94293e-05
2.16294e-06
-2.2579e-05
2.42227e-05
5.34994e-06
7.56803e-08
1.25982e-08
5.27988e-07
7.07746e-07
-1.13584e-06
6.58084e-07
1.22316e-06
-1.35151e-06
5.09941e-07
1.19198e-06
1.17928e-06
9.54401e-06
-6.36921e-06
9.52491e-07
7.42871e-07
8.91467e-09
-6.16567e-09
9.70972e-09
5.26642e-09
8.34968e-06
-6.49593e-06
1.51469e-06
3.0643e-06
1.09955e-08
-7.31384e-09
1.29615e-08
6.1731e-09
0.00251589
0.00325515
5.11577e-08
4.1506e-08
4.71184e-09
1.04211e-07
4.5025e-09
8.44357e-08
5.27083e-08
8.66948e-08
-3.4927e-07
-1.01334e-07
-1.19031e-07
1.70196e-09
-5.92258e-10
1.92127e-09
4.89299e-10
-2.05987e-09
4.82375e-09
-5.67159e-09
-2.31229e-09
0
5.53718e-10
-6.69038e-10
0
-1.12175e-06
1.27584e-06
-2.88615e-07
1.85846e-07
4.4354e-07
1.5509e-07
-7.33895e-08
7.06486e-07
-3.04499e-05
4.187e-05
-2.47076e-06
5.06206e-06
3.6012e-08
5.94411e-06
6.67304e-06
-1.56228e-06
-1.3413e-07
5.34101e-07
1.5041e-06
6.75951e-06
-1.05524e-07
8.23107e-06
1.16936e-06
2.64944e-06
5.25255e-06
-0.000126576
-7.56723e-05
0
9.73208e-09
-1.06287e-10
-8.94046e-06
-1.82015e-06
0.000686042
0.000820033
-3.63932e-07
-3.82925e-05
-0.000211015
-3.76895e-05
6.04443e-07
-6.10746e-06
0.000897313
-6.81011e-08
1.00198e-05
4.37846e-08
1.37948e-08
-4.15868e-08
5.13868e-10
-1.15018e-09
-2.49824e-05
5.78664e-05
-1.76493e-07
-7.98087e-05
-0.000334528
3.67418e-08
8.73047e-09
-1.03092e-08
-0.000517893
5.0436e-07
0.00139935
-5.35825e-05
8.47556e-05
9.75272e-09
7.36086e-05
-0.000260376
0.000192044
-0.00026097
9.07682e-06
0.000192506
-1.29068e-06
-1.43952e-06
-7.58075e-07
-0.000542981
-1.03893e-06
2.31232e-07
3.48498e-10
-3.52137e-10
-0.000275296
3.75736e-10
6.75088e-05
-9.37619e-08
7.2466e-05
-6.08487e-10
-4.93794e-05
-5.78513e-05
-1.04564e-06
1.63972e-06
0.000487624
7.17017e-05
-0.000109374
-4.76412e-08
2.36103e-07
1.83149e-08
0.000314285
6.67349e-07
-9.317e-05
-7.75227e-07
1.3196e-07
-8.52831e-07
0.00174869
1.63134e-06
3.50752e-05
-2.26722e-05
-2.05137e-08
1.32474e-10
-6.415e-06
2.12761e-07
-0.000155953
0.000235641
-8.47064e-08
-2.23814e-06
1.90985e-08
-2.52379e-06
-7.54158e-09
-6.86802e-09
8.83048e-10
-2.99427e-08
1.75638e-08
-1.83526e-08
-1.04917e-07
8.81781e-07
-8.80272e-07
1.8096e-05
5.56886e-09
-2.13715e-07
1.06796e-05
1.39918e-05
-5.40874e-05
3.20383e-08
2.84711e-08
5.25343e-06
1.54264e-08
-8.93069e-06
-5.88191e-09
-3.06338e-05
7.60947e-06
-1.67966e-05
1.49009e-08
1.08213e-05
-2.09974e-06
5.00789e-09
0.000590425
-5.17614e-08
0.0022497
-1.0904e-07
1.60693e-09
1.26047e-08
1.69158e-08
0.00312531
-1.04958e-09
1.78594e-06
5.7397e-09
-0.000720001
-6.54503e-06
-1.13315e-05
-1.70109e-05
-4.58455e-05
3.14675e-07
0
0
-8.06793e-09
-0.0001461
8.37936e-06
-2.45532e-07
0
3.94326e-08
1.6494e-05
-6.83693e-08
-1.2366e-07
0
-5.64607e-06
0
-3.01027e-06
-9.12621e-06
-3.69536e-06
6.23661e-09
-7.39867e-08
1.06875e-07
1.31387e-09
3.39589e-08
4.92159e-09
-1.65317e-06
1.09401e-07
0.000274576
-4.00407e-06
-4.77189e-09
1.268e-08
-6.1718e-07
-7.78609e-06
-2.18905e-05
-5.21192e-05
3.42059e-06
-1.49843e-08
-1.11942e-05
-0.000554573
8.16408e-08
-7.38138e-09
-5.97616e-09
1.5303e-05
-1.37142e-08
7.93363e-09
-6.37278e-09
-1.05721e-08
7.75938e-09
-8.68468e-06
2.07977e-05
-4.9887e-06
-5.36186e-05
-1.5843e-05
-0.000405649
-4.96557e-09
-2.20782e-07
-4.07476e-05
0.000266994
1.33951e-06
-0.000149931
-0.000273637
5.87139e-06
-4.91312e-05
0.000233354
-1.4357e-05
-0.000582471
0.000325721
0.000147259
8.66782e-09
5.04627e-07
-0.00024078
1.29602e-06
8.18624e-07
1.51616e-06
1.35172e-06
1.20407e-06
-7.26395e-09
1.31929e-05
1.10243e-08
2.40658e-08
0.000891063
0.000254669
-2.39532e-06
-1.77453e-08
1.7577e-06
8.14902e-06
-2.42472e-08
3.35538e-05
1.81146e-08
-8.02803e-09
-0.000118265
5.68833e-08
-5.12079e-07
0.000174733
-0.000185312
1.36533e-06
-0.000190852
9.33476e-05
0.000311564
-4.85833e-09
1.90458e-07
-6.13755e-06
2.29712e-10
-4.6971e-06
-2.49056e-08
8.83647e-06
-3.90855e-06
7.39571e-07
9.52989e-09
6.004e-07
-7.7236e-09
0.00137423
-1.70048e-06
2.84627e-06
-1.84068e-10
-4.41289e-06
-2.11681e-09
1.50504e-06
-5.80541e-06
-2.72195e-06
-1.59224e-09
-1.88088e-05
0.00101491
3.07446e-06
6.68132e-06
5.76821e-09
3.22889e-09
0.000235037
-2.98163e-06
-0.000257939
-5.51542e-09
-4.2459e-05
-7.61623e-08
-0.000456571
0
0
-0.000279651
0
-4.95771e-08
-6.06285e-05
-1.95766e-08
-1.41115e-08
-9.33416e-05
-1.55912e-09
0.000177408
1.71988e-08
1.46234e-05
-5.27919e-05
1.01865e-05
-1.801e-09
-5.30515e-05
-1.01608e-08
1.20781e-06
4.66344e-09
-0.000568387
1.17756e-05
6.88372e-05
8.77063e-09
5.30454e-10
-1.70601e-10
8.36006e-10
-1.44124e-05
1.45466e-10
6.1349e-07
6.42732e-06
-1.04629e-06
-2.74241e-10
1.8778e-07
1.11853e-05
0
-6.41351e-10
-6.16461e-07
2.45653e-09
-1.02205e-09
0
0
-3.20903e-05
1.61645e-09
-3.3423e-07
4.10552e-06
-6.34656e-06
-2.15021e-09
5.20366e-06
-1.98998e-05
-7.52935e-06
8.36918e-10
1.22792e-06
1.18829e-06
3.31647e-08
1.61651e-08
3.08874e-08
-1.46751e-05
4.05661e-06
-1.66753e-05
-1.29478e-08
0.00040445
-7.42625e-06
-0.000458609
-9.22934e-07
9.76332e-06
-1.63971e-05
-0.000262707
3.28724e-07
0.00216972
-0.000419676
-2.00964e-06
-0.000843136
5.59368e-05
6.82194e-08
-1.65484e-06
1.72824e-05
0.000159914
-1.48112e-06
-1.45724e-06
8.8935e-07
-3.09365e-06
-7.57746e-08
1.63221e-06
-0.000784887
-8.51772e-08
0.000321702
4.47362e-07
9.08018e-07
-5.82136e-05
0.000491037
3.98279e-07
-5.7989e-06
5.4835e-06
-2.92845e-05
-5.69954e-06
-7.98131e-07
-5.84826e-05
-5.2685e-08
0.00069767
2.39568e-06
-8.55217e-07
0.000121891
-0.0001648
7.69988e-06
-2.422e-06
5.94495e-08
-2.41343e-05
-2.37118e-05
-0.000234842
8.18675e-07
-9.00111e-07
0
3.86629e-06
0
1.74917e-05
3.53459e-08
2.73807e-05
-2.47581e-05
-4.36473e-07
-0.000181253
-4.85876e-08
-0.000766321
-4.03229e-05
-1.81031e-08
0.00219904
-1.16741e-09
2.18405e-08
2.97506e-08
1.73372e-05
4.59007e-08
-1.0373e-07
-2.87167e-08
3.64122e-07
1.94541e-06
-4.86493e-06
7.72414e-06
8.14508e-06
0
3.93174e-06
-1.09492e-05
0
7.2674e-06
-2.82736e-08
0
2.65196e-05
-4.44104e-05
0
3.212e-10
4.84702e-06
2.28382e-10
4.55091e-06
0.00173156
-1.46839e-05
3.11668e-05
-8.15268e-06
0
-6.39789e-05
-1.17816e-08
-7.23829e-05
4.07948e-06
7.67093e-05
0.00311947
-1.21699e-08
0
5.07088e-06
-9.74924e-07
6.19352e-06
-3.05073e-09
1.20711e-05
-0.000176577
-3.34526e-06
3.08508e-10
2.22107e-05
4.52429e-06
0.000217785
1.55088e-10
3.33235e-06
1.97791e-06
0.000111022
-0.000143131
-4.81605e-07
1.11618e-10
-3.44995e-06
-1.27735e-06
3.5616e-08
1.498e-08
-1.5651e-06
1.32883e-05
-1.99421e-10
-1.15831e-06
-9.18004e-06
6.36416e-07
4.13933e-07
-0.000636239
0.0005317
-1.32476e-05
2.14534e-09
-3.92846e-09
-3.1785e-09
8.39528e-07
6.67588e-07
-1.37719e-08
1.47495e-06
1.51143e-10
6.63078e-10
-4.50646e-07
1.99641e-08
-3.87194e-06
0
0
-5.21228e-06
-0.000521949
2.31818e-05
-1.59264e-06
-4.32547e-05
3.67989e-06
-6.12653e-10
-1.15422e-05
2.17304e-05
-4.48317e-07
0
-3.05942e-06
-1.74786e-09
1.0663e-05
-7.89742e-06
-6.74029e-09
-2.10394e-05
-7.22677e-08
8.84197e-09
7.25672e-05
0
0.000361852
-1.03174e-08
-3.73846e-09
-7.46626e-06
-9.98153e-08
7.37024e-07
-1.30667e-05
-2.21547e-05
0
1.13949e-08
-2.31201e-07
0.000189042
-4.52246e-10
-2.93757e-08
4.6982e-07
-1.3748e-05
4.077e-07
7.89932e-07
-0.000208036
-5.1318e-05
-1.75081e-05
-1.40026e-05
0.000559002
0.000901132
0.00253039
-2.64581e-08
-6.17692e-06
1.65447e-05
-1.36487e-05
1.74844e-09
0
-0.000181684
3.18321e-09
-4.52951e-05
2.89249e-05
-8.68567e-07
8.61311e-07
-0.000157894
5.83096e-05
0.00197396
5.4638e-05
-0.00015002
-2.26086e-08
5.16696e-06
2.45053e-05
0
2.20811e-07
0.00130945
-4.08865e-05
8.56101e-06
-0.000395139
4.2365e-06
-3.87114e-10
0.000576746
-5.59806e-05
2.46617e-08
-1.08327e-06
8.07845e-09
9.12355e-10
8.96926e-10
1.31639e-08
-1.43779e-05
0
4.43238e-06
3.62087e-05
-2.34725e-06
1.44523e-06
-2.23945e-08
-0.000449985
-1.78956e-05
1.9649e-08
0.00060259
0.000122944
-2.33675e-05
5.77646e-05
4.13611e-09
4.55495e-06
-5.19861e-09
6.90996e-09
7.82979e-09
-1.29591e-10
-2.01953e-05
6.42316e-09
-1.88124e-05
-0.000134914
-0.000260024
1.45921e-05
1.12324e-05
9.47427e-06
5.2968e-09
2.77097e-06
9.69563e-09
0.00210819
-1.35197e-06
1.30684e-09
3.10149e-05
2.14569e-05
2.19338e-05
9.67936e-06
-0.000501345
2.97308e-07
0
0
-1.77939e-06
2.89914e-08
5.52948e-07
1.18231e-05
1.15252e-09
-7.00576e-09
-0.000104775
-1.22557e-10
-0.000107429
2.75273e-08
0.00193125
-0.000343731
-4.14914e-06
-4.9121e-05
1.95582e-10
-3.09425e-05
1.93828e-05
1.06672e-05
-1.59499e-07
3.62288e-07
0.00034582
0.00117752
0.000134615
-0.000164743
5.99836e-07
0.00215299
-2.74465e-05
0
-3.51187e-06
7.91815e-09
-2.79535e-09
-3.93308e-05
-6.27181e-06
-3.31216e-09
6.32614e-10
-3.49693e-06
-2.60631e-05
-3.71816e-08
0.000523366
-7.03039e-07
0.000194838
0
-2.38037e-10
-1.02572e-08
-1.33152e-10
-7.29439e-05
-6.08415e-09
-7.15868e-09
-6.13517e-05
-1.77698e-05
4.75149e-06
0.000208131
0.00025443
8.27017e-10
3.85696e-07
-5.68057e-05
0
-0.000253503
0.000318174
-8.14325e-08
-4.22601e-08
0
-4.65614e-09
-3.57814e-06
0.00279543
-2.34399e-08
6.12838e-06
0
-0.000140295
-2.2076e-05
0
8.03345e-08
9.50946e-06
-3.00206e-09
6.72219e-05
-1.18664e-05
0
-2.67388e-05
0
-4.01819e-05
0.000208648
0
0.000127008
-1.50545e-06
-1.8204e-08
0
-9.28826e-08
-4.01429e-05
-2.20862e-05
-9.13583e-05
4.51728e-05
-2.51286e-10
7.9966e-05
-0.000159565
5.47932e-07
3.30934e-07
0
1.29424e-05
2.54217e-06
7.32485e-05
-8.90814e-09
1.5075e-05
7.43514e-07
-3.65924e-06
-2.33463e-05
-6.26746e-08
1.44577e-09
-2.82169e-05
-9.22459e-07
6.66171e-06
-1.63949e-05
-0.000672954
-3.33916e-06
-4.12357e-05
-3.06311e-05
-8.5842e-07
6.97459e-06
1.76932e-05
3.70606e-10
1.89753e-05
1.48957e-06
-1.90808e-05
-8.30521e-09
8.17966e-07
-0.000113243
6.42475e-06
-6.16577e-06
4.71199e-07
-3.57324e-06
5.91971e-10
0.000271082
1.08619e-08
0.00158649
-4.75471e-07
-5.13321e-08
9.88504e-08
-0.00023128
-1.527e-05
0.000448164
3.54844e-08
5.32637e-06
1.00259e-05
7.04694e-07
8.31149e-09
0
8.37925e-05
-2.47196e-08
0
-7.81922e-06
0.000127832
-3.0553e-05
0.00188601
-5.62708e-06
-0.0010602
-9.62694e-07
-4.33346e-05
-1.22451e-05
2.34379e-05
1.95234e-05
-7.48847e-07
-0.000400991
1.22262e-06
-1.83706e-05
-8.15491e-05
0.00237895
1.54995e-05
-1.16539e-10
0.000308567
-9.54802e-06
0
9.5222e-07
0
-6.30276e-06
-9.86377e-09
0
-0.000413969
-2.89778e-06
5.37579e-06
-6.18281e-05
-1.08223e-06
7.60475e-09
-0.000170823
0.000165643
-1.88598e-05
-1.19132e-05
3.24451e-05
-1.0888e-05
-1.09478e-08
1.29649e-05
-2.18828e-05
3.92645e-05
-3.47886e-05
-1.40982e-09
1.05647e-05
5.88716e-07
3.86513e-09
-4.88983e-06
8.03893e-09
-1.34388e-06
-7.80925e-05
-6.34527e-07
0
3.90473e-06
0.000220137
0.00017756
4.04674e-07
-2.18779e-05
-3.99759e-05
-0.000809655
1.83486e-05
2.21022e-05
1.867e-05
-5.4957e-05
2.42269e-05
1.75068e-05
-9.83983e-06
-6.08061e-06
7.91216e-06
2.4614e-08
6.26939e-05
1.71803e-08
-0.000514265
-2.82054e-05
3.35792e-05
-7.48281e-08
1.22002e-05
-1.50306e-08
-4.83832e-05
0.000555591
-0.000313498
-8.67063e-05
-0.000111441
3.23969e-05
3.38446e-05
1.12319e-08
-0.000103456
-3.95427e-09
-1.76049e-09
0
-3.09557e-10
1.63037e-05
4.7737e-05
-0.000645085
6.16292e-05
-3.00893e-05
-7.81609e-05
6.28199e-05
-3.29295e-05
-9.82377e-08
0.000106834
-1.09944e-09
7.35711e-09
-1.17673e-09
-1.36727e-05
7.5016e-09
-3.614e-08
-2.92675e-09
2.77786e-07
-8.13288e-10
-1.02631e-09
-5.9871e-06
-0.000104318
-1.13763e-08
3.83831e-06
-4.70182e-09
-5.32505e-05
-7.0812e-09
1.0986e-06
-0.000736459
0
0.000139206
0
-1.16016e-10
0
-6.07041e-06
-0.000141703
0.000127487
7.98658e-10
9.80046e-10
0.000114474
-3.70958e-09
0
-0.000158351
0
-0.000258445
0
9.34884e-05
0
-1.27114e-05
-5.26974e-10
-2.09368e-07
-2.86426e-09
-9.4754e-06
0
3.20195e-06
0
-6.55561e-06
5.7288e-07
-0.000118038
-0.000469455
2.22413e-05
0.00242117
0.00216941
-7.68711e-08
-9.08425e-08
5.28896e-07
-0.000334985
4.92467e-08
2.83283e-08
5.98102e-08
2.25463e-08
-0.000627139
-0.000106505
-1.12085e-05
-7.7236e-06
0.000317634
-3.4194e-09
0.000635954
1.44424e-05
4.90189e-06
-8.60746e-06
0.00606102
5.10656e-06
1.4171e-05
3.17819e-10
-2.3022e-05
-1.61388e-10
8.16533e-09
6.95787e-05
-0.000238321
-5.2387e-09
-3.1648e-05
0.000142969
0.000108349
6.49857e-06
2.60977e-08
-2.82846e-08
-0.000120656
-3.5831e-05
1.40265e-05
1.52445e-05
2.81606e-06
1.83918e-06
4.49349e-07
2.22886e-05
3.40085e-08
-1.10647e-06
-1.50257e-05
-7.92035e-06
7.28361e-07
-1.51918e-07
-0.000266162
0
-4.56857e-05
-9.68652e-09
2.5605e-05
1.11814e-06
-4.96054e-10
-7.81554e-06
9.21915e-06
6.54149e-07
3.23368e-07
3.71854e-07
2.60706e-07
-0.000720764
5.16857e-10
-2.6305e-05
8.41433e-09
-1.32756e-06
-2.0063e-05
1.0111e-06
-7.07572e-10
-0.000165492
4.52304e-05
-6.63015e-06
0
1.93162e-08
4.32082e-05
0
-7.37372e-08
-5.01052e-05
9.15659e-07
-0.000568514
4.37782e-09
6.73227e-07
-2.28973e-09
-7.67836e-08
3.84846e-09
-4.00487e-05
3.09929e-06
-1.26609e-05
-3.58767e-07
4.47889e-07
-3.00206e-07
1.15646e-06
-6.2247e-07
-2.21295e-05
0
-3.46491e-06
-1.25634e-05
0.000321349
5.35008e-05
-0.00105894
0.000369026
-5.55904e-09
-0.000386668
1.8277e-08
-0.000778147
-1.09258e-08
-0.000282974
-1.40199e-05
-9.21533e-06
-9.98044e-05
3.1618e-05
-9.56177e-05
3.19669e-07
-5.69396e-07
1.47324e-07
8.37749e-10
-0.000587214
-5.7077e-05
6.68738e-07
-0.000573234
-9.06777e-06
5.61396e-05
0.000340237
1.45411e-05
3.00188e-06
-0.000119497
7.53786e-06
-1.57138e-05
-4.03027e-05
-0.000224071
0
0
0
1.03901e-05
-8.0642e-05
-0.00158458
-6.94099e-09
-0.00014653
0.000776944
-0.000726751
-0.000345281
-0.0001761
1.34766e-06
0.000151583
-0.00020923
1.08027e-05
-3.50842e-07
4.9616e-06
-0.000140059
7.51004e-05
9.87168e-06
-7.31411e-05
0
2.82473e-07
-1.28102e-06
-3.82597e-08
2.3632e-08
3.79621e-10
-2.743e-05
-6.13717e-05
4.26387e-05
-3.3899e-05
5.86422e-06
9.73939e-05
0.000207336
0.000325536
-0.000491967
0.000372107
1.62156e-06
9.48472e-05
0.000182654
0.000344228
-0.000755282
-1.70962e-05
0.000131059
-1.16689e-05
9.42473e-07
-1.35878e-05
3.68564e-05
0
-1.35039e-10
0
0
3.76452e-07
2.1075e-07
2.42071e-07
0.00045027
4.17685e-08
1.61257e-08
-0.000337005
-2.04434e-08
4.40336e-08
0.000285993
-0.000331739
4.13724e-09
1.14459e-08
-7.6324e-09
-4.32424e-08
8.87023e-08
0.000133971
7.57126e-09
-6.59759e-05
-1.5051e-06
0.000138304
-5.43867e-07
2.01299e-07
-1.34291e-06
-0.00020752
-0.000222483
0.000310505
0.000777984
-0.000696191
-4.07471e-05
2.53262e-08
-3.94285e-08
-8.0366e-08
-4.09409e-05
0.000499117
0.000195944
1.87577e-08
-7.30695e-05
0.000154388
-1.79244e-09
0.00224589
3.26922e-09
1.49684e-07
-3.70462e-09
-0.000318372
0.000348474
-0.000217482
-1.02079e-05
-2.43647e-05
8.11337e-09
-4.38812e-05
-8.95415e-09
-2.81378e-05
-3.06158e-05
0.000339522
-0.000339093
8.48005e-05
-3.42006e-05
4.21272e-06
-3.95662e-06
0.0043226
4.00988e-06
-3.47464e-05
4.37964e-05
-9.30534e-06
-5.6896e-06
0.00239312
0.000132265
5.97163e-07
5.05662e-05
6.34716e-06
-3.60038e-09
-3.04031e-05
-1.72067e-05
-5.2418e-09
-1.72258e-08
-8.639e-07
0.000151431
-5.18522e-05
1.89547e-05
-4.86748e-08
-4.52765e-05
-4.70345e-05
0
0.00254927
8.07139e-05
0.00535939
0.0198527
5.23513e-08
0.000221243
-4.19586e-08
0.000147231
1.53006e-05
-9.67399e-07
0
1.96019e-05
0
0
0
1.98412e-07
-1.29818e-06
-5.30107e-05
0.000942012
0.000497689
0.000999182
0.000987781
-2.87827e-05
-0.000349876
-4.12059e-05
1.45356e-05
2.7792e-08
3.62565e-08
1.24583e-08
3.50983e-09
-0.00015873
5.18489e-08
-1.3152e-08
-6.93773e-09
3.24325e-05
-9.84251e-05
0.000679116
-0.000161732
2.09462e-09
-1.01121e-08
9.99028e-10
-7.62833e-09
-6.48817e-09
-6.97679e-09
1.92424e-05
3.10765e-06
0.000203503
-0.000533992
8.00512e-05
-0.000154985
1.4641e-06
0.000688101
-0.000163859
0.000523224
1.82638e-06
3.47444e-07
1.08286e-06
1.76401e-06
-0.000255805
-1.12906e-06
-4.91274e-07
4.20235e-07
4.2789e-09
0.00021962
4.46356e-05
-9.55593e-08
5.28282e-05
2.55471e-08
1.45651e-05
2.5895e-05
-3.70856e-06
0.00199619
-7.00663e-06
-2.36751e-05
-9.60494e-07
-3.85588e-06
0.00216938
8.23664e-05
0.000133162
4.50346e-05
0
-9.96461e-07
3.82459e-07
-6.54142e-07
-7.09723e-05
8.9536e-05
9.45326e-05
4.34031e-06
-1.18427e-06
-0.000263741
1.31073e-05
1.82844e-06
-3.31676e-07
-6.2078e-07
-3.81791e-09
1.2351e-07
-5.35219e-05
-3.84056e-08
0.00240224
-0.000524559
-3.80489e-08
1.64664e-08
-5.95579e-08
7.63984e-10
1.03053e-08
0.000250398
2.87541e-05
-1.84467e-05
-6.03399e-05
-1.23866e-06
-4.1392e-06
-0.00099406
0.0018272
0.00298701
-5.28239e-05
6.69452e-09
-2.72831e-10
-7.77346e-07
1.30045e-06
-5.7096e-07
-5.54935e-07
-8.47354e-06
-2.95659e-06
3.33513e-08
4.68657e-08
-2.23035e-09
-2.34768e-08
0.00051761
-0.000600628
-8.10417e-05
1.18274e-05
-0.000172108
-1.04246e-10
0
0
0.000200429
5.87626e-06
0.00107634
-0.000762598
2.38242e-05
0
0
8.48553e-05
-4.34898e-05
-0.000335444
0
-3.64214e-10
-0.000248776
-0.000254402
0
2.5568e-05
-0.000231284
3.20265e-05
-0.00014469
-1.22609e-05
-1.02076e-05
1.44821e-05
-2.38995e-05
0.000224767
1.26434e-06
7.97355e-07
5.44234e-06
-5.48152e-06
-0.000251846
1.46337e-05
-1.23761e-06
6.68804e-06
5.30799e-05
-4.79206e-09
-2.04221e-05
-2.05612e-05
8.87295e-09
3.46204e-09
0.00263686
1.87561e-07
-9.50938e-07
0.00107296
5.4173e-09
-2.26177e-08
-1.05745e-08
-1.89144e-08
-1.03802e-05
1.41835e-05
1.62675e-06
1.36797e-05
9.22433e-09
1.98472e-08
1.09225e-08
-2.20196e-08
-1.10259e-08
5.01425e-05
-1.91891e-05
-5.00316e-05
-7.37799e-06
-7.57687e-06
6.97952e-06
-2.35183e-06
-0.000132442
5.93313e-07
0.000163271
5.79407e-08
5.74435e-07
-5.60403e-07
-5.89258e-05
-5.95152e-05
-4.38166e-09
2.76802e-05
-0.000799118
-1.23679e-06
1.21143e-06
0.000256016
1.40667e-08
-1.05612e-07
0.00215222
-0.000697215
-0.000143552
0
0
0
0
-0.000178338
5.69142e-10
6.08164e-10
1.13845e-09
-5.68472e-09