# vtk DataFile Version 2.0
Unstructured Grid by M++
ASCII
DATASET UNSTRUCTURED_GRID
POINTS 4072 float
  0.828125   0.890625 0
  0.875000   0.531250 0
  0.828125   0.750000 0
  0.593750   0.968750 0
  0.828125   0.671875 0
  0.828125   0.875000 0
  0.593750   0.937500 0
  0.828125   0.656250 0
  0.828125   0.640625 0
  0.828125   0.843750 0
  0.593750   0.906250 0
  0.828125   0.625000 0
  0.781250   0.968750 0
  0.828125   0.609375 0
  0.828125   0.812500 0
  0.593750   0.875000 0
  0.593750   0.828125 0
  0.593750   0.796875 0
  0.828125   0.703125 0
  0.593750   0.765625 0
  0.828125   0.937500 0
  0.812500   0.875000 0
  0.859375   0.515625 0
  0.812500   0.734375 0
  0.812500   0.937500 0
  0.578125   1.000000 0
  0.578125   0.750000 0
  0.812500   0.687500 0
  0.578125   0.953125 0
  0.812500   0.656250 0
  0.812500   0.859375 0
  0.578125   0.921875 0
  0.812500   0.828125 0
  0.578125   0.890625 0
  0.812500   0.593750 0
  0.812500   0.796875 0
  0.578125   0.859375 0
  0.578125   0.812500 0
  0.578125   0.781250 0
  0.796875   1.000000 0
  0.796875   0.859375 0
  0.796875   0.718750 0
  0.562500   0.984375 0
  0.562500   0.937500 0
  0.796875   0.843750 0
  0.562500   0.906250 0
  0.796875   0.812500 0
  0.562500   0.875000 0
  0.796875   0.578125 0
  0.796875   0.781250 0
  0.562500   0.843750 0
  0.812500   0.984375 0
  0.562500   0.796875 0
  0.812500   0.953125 0
  0.562500   0.765625 0
  0.796875   0.937500 0
  0.546875   0.750000 0
  0.781250   0.984375 0
  0.828125   0.593750 0
  0.781250   0.843750 0
  0.781250   0.937500 0
  0.546875   1.000000 0
  0.781250   0.703125 0
  0.546875   0.968750 0
  0.546875   0.921875 0
  0.781250   0.828125 0
  0.546875   0.890625 0
  0.781250   0.796875 0
  0.546875   0.859375 0
  0.781250   0.562500 0
  0.781250   0.765625 0
  0.546875   0.828125 0
  0.796875   0.968750 0
  0.546875   0.781250 0
  0.765625   1.000000 0
  0.765625   0.968750 0
  0.531250   0.984375 0
  0.765625   0.687500 0
  0.531250   0.953125 0
  0.531250   0.937500 0
  0.531250   0.906250 0
  0.765625   0.812500 0
  0.531250   0.875000 0
  0.765625   0.781250 0
  0.531250   0.843750 0
  0.781250   1.000000 0
  0.765625   0.546875 0
  0.765625   0.750000 0
  0.531250   0.812500 0
  0.781250   0.953125 0
  0.531250   0.765625 0
  0.515625   0.750000 0
  0.750000   0.984375 0
  0.750000   0.953125 0
  0.796875   0.593750 0
  0.796875   0.562500 0
  0.750000   0.843750 0
  0.750000   0.937500 0
  0.515625   1.000000 0
  0.750000   0.906250 0
  0.515625   0.968750 0
  0.750000   0.671875 0
  0.750000   0.875000 0
  0.515625   0.937500 0
  0.515625   0.921875 0
  0.515625   0.890625 0
  0.750000   0.796875 0
  0.515625   0.859375 0
  0.750000   0.765625 0
  0.515625   0.828125 0
  1.000000   0.718750 0
  0.750000   0.531250 0
  0.750000   0.734375 0
  0.515625   0.796875 0
  0.734375   1.000000 0
  0.734375   0.968750 0
  0.734375   0.937500 0
  0.781250   0.578125 0
  0.781250   0.546875 0
  0.968750   0.578125 0
  0.734375   0.828125 0
  0.968750   0.546875 0
  0.734375   0.796875 0
  0.734375   0.765625 0
  0.968750   0.671875 0
  0.734375   0.734375 0
  0.968750   0.640625 0
  0.734375   0.703125 0
  0.968750   0.609375 0
  0.734375   0.671875 0
  0.734375   0.656250 0
  0.734375   0.625000 0
  0.968750   0.531250 0
  0.734375   0.593750 0
  0.984375   0.734375 0
  0.984375   0.703125 0
  0.734375   0.515625 0
  0.718750   0.984375 0
  0.718750   0.953125 0
  0.718750   0.921875 0
  0.953125   0.562500 0
  0.718750   0.812500 0
  0.953125   0.531250 0
  0.718750   0.781250 0
  0.718750   0.750000 0
  0.953125   0.656250 0
  0.718750   0.718750 0
  0.953125   0.625000 0
  0.718750   0.687500 0
  0.953125   0.593750 0
  0.718750   0.656250 0
  0.671875   1.000000 0
  0.718750   0.640625 0
  0.718750   0.609375 0
  0.953125   0.515625 0
  0.718750   0.578125 0
  0.968750   0.718750 0
  0.968750   0.687500 0
  0.953125   0.671875 0
  0.703125   0.968750 0
  0.703125   0.937500 0
  0.937500   0.656250 0
  0.703125   0.906250 0
  0.937500   0.546875 0
  0.703125   0.796875 0
  0.937500   0.515625 0
  0.703125   0.765625 0
  0.937500   0.671875 0
  0.703125   0.734375 0
  0.937500   0.640625 0
  0.703125   0.703125 0
  0.937500   0.609375 0
  0.703125   0.671875 0
  0.937500   0.578125 0
  0.703125   0.640625 0
  0.656250   0.984375 0
  0.703125   0.625000 0
  0.703125   0.593750 0
  0.718750   0.796875 0
  0.953125   0.734375 0
  0.812500   1.000000 0
  0.859375   0.656250 0
  0.703125   0.781250 0
  0.937500   0.718750 0
  0.953125   0.703125 0
  0.796875   0.984375 0
  0.843750   0.640625 0
  0.812500   0.968750 0
  0.859375   0.625000 0
  0.796875   0.953125 0
  0.843750   0.609375 0
  0.687500   0.953125 0
  0.687500   0.921875 0
  0.687500   0.890625 0
  0.921875   0.734375 0
  0.687500   0.796875 0
  0.687500   0.781250 0
  0.921875   0.703125 0
  0.687500   0.765625 0
  0.687500   0.750000 0
  0.921875   0.656250 0
  0.687500   0.718750 0
  0.921875   0.625000 0
  0.687500   0.687500 0
  0.921875   0.593750 0
  0.687500   0.656250 0
  0.640625   1.000000 0
  0.921875   0.562500 0
  0.687500   0.625000 0
  0.640625   0.968750 0
  0.687500   0.609375 0
  0.687500   0.578125 0
  0.937500   0.687500 0
  0.921875   0.671875 0
  0.671875   0.921875 0
  0.906250   0.656250 0
  0.671875   0.906250 0
  0.671875   0.875000 0
  0.906250   0.718750 0
  0.671875   0.781250 0
  0.671875   0.765625 0
  0.671875   0.734375 0
  0.906250   0.640625 0
  0.671875   0.703125 0
  0.906250   0.609375 0
  0.671875   0.671875 0
  0.906250   0.578125 0
  0.671875   0.640625 0
  0.625000   0.984375 0
  0.671875   0.609375 0
  0.625000   0.953125 0
  0.671875   0.593750 0
  0.671875   0.562500 0
  0.765625   0.953125 0
  0.812500   0.609375 0
  0.656250   1.000000 0
  0.656250   0.953125 0
  0.656250   0.906250 0
  0.890625   0.640625 0
  0.656250   0.890625 0
  0.656250   0.859375 0
  0.890625   0.734375 0
  0.656250   0.796875 0
  0.812500   0.921875 0
  0.562500   1.000000 0
  0.625000   0.828125 0
  0.812500   0.843750 0
  0.843750   0.593750 0
  0.812500   0.812500 0
  0.625000   0.718750 0
  0.828125   0.687500 0
  0.640625   0.593750 0
  0.812500   0.781250 0
  0.625000   0.687500 0
  0.765625   0.828125 0
  0.640625   0.562500 0
  0.812500   0.750000 0
  0.562500   0.828125 0
  0.781250   0.875000 0
  0.546875   0.937500 0
  0.781250   0.671875 0
  0.781250   0.593750 0
  0.546875   0.656250 0
  0.796875   0.750000 0
  0.562500   0.812500 0
  0.796875   0.546875 0
  0.765625   0.796875 0
  0.765625   0.593750 0
  1.000000   0.531250 0
  0.812500   0.718750 0
  0.859375   0.562500 0
  0.625000   0.625000 0
  0.812500   0.703125 0
  0.812500   0.906250 0
  0.578125   0.968750 0
  0.984375   0.593750 0
  0.828125   0.578125 0
  0.828125   0.781250 0
  0.593750   0.843750 0
  0.812500   0.671875 0
  0.625000   0.578125 0
  0.796875   0.671875 0
  0.562500   0.734375 0
  0.984375   0.562500 0
  0.828125   0.546875 0
  0.812500   0.640625 0
  0.750000   0.812500 0
  0.625000   0.546875 0
  0.796875   0.640625 0
  0.562500   0.703125 0
  0.828125   0.515625 0
  0.781250   0.734375 0
  0.546875   0.796875 0
  0.781250   0.531250 0
  0.750000   0.781250 0
  0.625000   0.515625 0
  0.796875   0.609375 0
  0.562500   0.671875 0
  0.765625   0.656250 0
  0.765625   0.859375 0
  0.531250   0.921875 0
  0.812500   0.578125 0
  0.562500   0.656250 0
  0.984375   0.687500 0
  0.750000   0.750000 0
  0.812500   0.562500 0
  0.812500   0.765625 0
  0.578125   0.828125 0
  0.562500   0.625000 0
  0.984375   0.656250 0
  0.750000   0.718750 0
  0.812500   0.531250 0
  0.781250   0.656250 0
  0.546875   0.718750 0
  0.781250   0.625000 0
  0.546875   0.687500 0
  0.750000   0.640625 0
  0.796875   0.531250 0
  0.562500   0.593750 0
  0.984375   0.625000 0
  0.750000   0.687500 0
  0.546875   0.984375 0
  0.609375   0.812500 0
  0.796875   0.875000 0
  0.546875   0.953125 0
  0.609375   0.578125 0
  0.843750   0.515625 0
  0.765625   0.515625 0
  0.765625   0.718750 0
  0.531250   0.781250 0
  0.984375   0.546875 0
  0.750000   0.609375 0
  0.796875   0.828125 0
  0.671875   0.968750 0
  0.796875   0.796875 0
  0.796875   0.765625 0
  0.609375   0.671875 0
  0.796875   0.734375 0
  0.546875   0.812500 0
  0.796875   0.703125 0
  0.843750   0.546875 0
  0.609375   0.609375 0
  0.796875   0.687500 0
  0.562500   0.953125 0
  0.796875   0.656250 0
  0.609375   0.562500 0
  0.796875   0.625000 0
  0.609375   0.531250 0
  0.546875   0.640625 0
  0.765625   0.671875 0
  0.531250   0.734375 0
  0.796875   0.515625 0
  0.765625   0.640625 0
  0.531250   0.703125 0
  0.703125   1.000000 0
  0.765625   0.609375 0
  0.531250   0.671875 0
  0.765625   0.578125 0
  0.531250   0.640625 0
  0.546875   0.609375 0
  0.531250   1.000000 0
  0.890625   0.593750 0
  0.656250   0.656250 0
  0.781250   0.515625 0
  0.546875   0.578125 0
  0.531250   0.968750 0
  0.890625   0.562500 0
  0.656250   0.625000 0
  0.609375   0.968750 0
  0.781250   0.859375 0
  0.656250   0.593750 0
  0.750000   0.703125 0
  0.515625   0.765625 0
  0.781250   0.812500 0
  0.781250   0.781250 0
  0.593750   0.687500 0
  0.781250   0.750000 0
  0.593750   0.656250 0
  0.781250   0.718750 0
  0.531250   0.796875 0
  0.828125   0.562500 0
  0.593750   0.625000 0
  0.781250   0.687500 0
  0.828125   0.531250 0
  0.593750   0.593750 0
  0.812500   0.625000 0
  0.578125   0.687500 0
  0.781250   0.640625 0
  0.781250   0.609375 0
  0.593750   0.515625 0
  0.515625   0.781250 0
  0.812500   0.546875 0
  0.578125   0.609375 0
  0.812500   0.515625 0
  0.578125   0.578125 0
  0.750000   0.656250 0
  0.515625   0.718750 0
  0.750000   0.625000 0
  0.515625   0.687500 0
  0.687500   0.984375 0
  0.750000   0.593750 0
  0.515625   0.656250 0
  0.531250   0.546875 0
  0.750000   0.562500 0
  0.515625   0.625000 0
  0.531250   0.515625 0
  0.984375   0.515625 0
  0.750000   0.578125 0
  0.515625   0.531250 0
  0.828125   0.796875 0
  0.640625   0.703125 0
  0.828125   0.765625 0
[...]
CELL_DATA 7648
SCALARS scalar_value float 1
LOOKUP_TABLE default
2.90729e-06
-4.36647e-06
-6.31668e-09
5.38125e-09
-2.46495e-09
-2.3587e-09
-1.12976e-05
7.07118e-06
-5.00861e-06
-1.82127e-05
0.000506037
-0.000273594
0.00126684
-0.000519409
0.00185739
0.000775984
0.00175252
-0.000590023
3.41869e-05
4.25604e-06
-2.30571e-05
-5.2499e-05
0.000233567
-0.000303144
1.26516e-05
2.41173e-05
1.21703e-05
-2.01099e-05
1.2001e-05
2.50534e-05
1.21608e-05
-1.6743e-05
3.81122e-10
-1.05967e-10
-1.71725e-10
1.06333e-10
0.000553641
0.00026938
2.16011e-06
3.29556e-06
-2.30912e-05
6.59068e-05
0.000314427
0.000147982
1.77888e-09
-2.18967e-09
3.20014e-09
9.15999e-09
4.26285e-09
-1.3806e-08
8.99334e-09
4.61385e-09
2.98802e-09
1.68754e-09
-1.62541e-08
-8.76442e-09
-5.75566e-06
5.03438e-05
5.22444e-05
-6.43866e-05
3.76322e-05
6.16369e-05
5.31209e-07
-1.09829e-07
-1.14906e-06
1.51516e-06
-5.65245e-07
6.20677e-08
-2.86245e-07
-1.3237e-05
4.91692e-07
1.05146e-07
1.30076e-08
-7.45747e-05
0.000111181
-8.44399e-09
8.6748e-09
-8.18823e-09
-7.69241e-09
-5.09611e-10
-7.51362e-09
8.10645e-09
5.08926e-10
8.52644e-09
-9.59419e-09
2.79405e-09
1.96152e-09
1.18634e-06
9.07453e-07
-7.11602e-07
-9.70273e-08
-1.60084e-07
5.21366e-07
-9.54336e-08
6.1582e-07
4.86534e-07
6.62169e-07
-1.56824e-07
2.88127e-06
-2.55891e-06
-1.52251e-06
-9.73334e-08
-5.2156e-08
-9.58809e-08
-7.91723e-06
0
0
0
-2.28421e-08
6.90659e-09
-2.54995e-08
-1.96803e-09
8.06005e-10
-3.67817e-10
2.16413e-09
3.1909e-10
1.11147e-10
2.63455e-10
0
-3.04597e-06
8.26347e-06
-7.05339e-06
1.01486e-05
1.72299e-06
-2.67796e-06
7.70459e-06
6.53379e-06
1.40464e-10
3.1735e-09
1.22409e-09
-1.73806e-09
1.96817e-09
-6.67891e-10
2.06455e-09
5.54688e-10
-2.35542e-05
5.52092e-05
-1.63684e-05
-4.11971e-06
-8.87017e-05
7.32204e-10
0
1.05101e-06
-2.16545e-07
-1.39958e-06
1.24583e-06
2.53148e-06
-1.13638e-06
9.21527e-06
-1.60447e-05
1.33581e-05
1.66534e-06
-2.66932e-06
2.54345e-06
2.38471e-08
-4.98277e-07
-7.40944e-07
-5.62126e-07
1.15677e-06
-1.43778e-06
4.33893e-07
0.000150929
-1.04915e-05
0.000123645
-5.06992e-05
-0.000356625
-2.91669e-05
-1.15495e-05
-3.92005e-05
5.77543e-06
-1.05557e-08
3.81757e-08
3.1077e-08
3.8701e-08
8.06141e-10
-3.0972e-10
4.64157e-06
3.1068e-06
3.22431e-06
-2.36308e-05
2.89203e-06
-2.92283e-05
-4.21692e-05
-4.338e-05
4.35401e-08
-9.06463e-06
-2.70676e-06
-1.25384e-06
-2.52643e-06
-1.00037e-05
-2.71615e-06
0.000296542
-0.00028806
1.60488e-05
-6.27205e-06
1.91806e-05
-7.43037e-06
-1.10199e-07
-3.96881e-08
-1.13505e-07
2.48224e-08
4.1804e-06
-1.92462e-05
2.08479e-05
1.33695e-06
2.36393e-10
-1.80385e-10
-5.16207e-06
2.2438e-05
8.59672e-06
-1.95165e-05
1.20387e-05
0.000155009
-0.000179093
-1.55312e-05
1.59168e-06
-1.93551e-05
2.06658e-05
4.35272e-06
7.30405e-08
4.74602e-09
4.48966e-07
6.07571e-07
-9.84919e-07
5.54684e-07
1.04628e-06
-1.17607e-06
4.47967e-07
1.05308e-06
9.50542e-07
8.01386e-06
-5.35451e-06
7.46478e-07
5.90567e-07
8.39332e-09
-5.79118e-09
9.13645e-09
4.94506e-09
6.88913e-06
-5.41638e-06
1.27207e-06
2.60213e-06
1.0339e-08
-6.85023e-09
1.21826e-08
5.78047e-09
0.0021438
0.00269496
1.94792e-08
1.49978e-08
6.94556e-09
3.54367e-08
4.38565e-09
3.62144e-08
3.84901e-08
2.88849e-08
-3.485e-07
-6.39384e-08
-6.54093e-08
1.59772e-09
-5.55258e-10
1.80215e-09
4.58713e-10
-1.9339e-09
4.533e-09
-5.33112e-09
-2.16922e-09
0
5.1841e-10
-6.26426e-10
0
-9.68311e-07
1.10574e-06
-2.29984e-07
1.5499e-07
3.77105e-07
1.2816e-07
-5.95143e-08
8.33208e-08
-2.50115e-05
3.3916e-05
-1.82836e-06
4.21137e-06
-7.82054e-07
4.92138e-06
5.50279e-06
-1.9786e-06
-6.79424e-08
3.53297e-07
1.16882e-06
3.55356e-06
-5.91627e-07
4.14126e-06
8.14749e-07
2.25739e-06
4.47877e-06
-0.000101508
-5.86519e-05
0
9.18035e-09
-1.02918e-10
-1.22743e-05
-1.58567e-06
0.000537666
0.00064292
-3.18514e-07
-3.66979e-05
-0.000172017
-3.63621e-05
5.50145e-07
-2.04603e-06
0.000688644
-6.65547e-08
7.86422e-06
4.51097e-08
1.59488e-08
-4.23287e-08
4.82912e-10
-7.89879e-10
-2.27565e-05
6.01195e-05
-1.58484e-07
-6.4616e-05
-0.000258626
3.32239e-08
7.0631e-09
-1.00253e-08
-0.000426846
4.45394e-07
0.00117619
-4.4647e-05
7.84303e-05
9.75014e-09
6.17238e-05
-0.000185871
0.000154802
-0.000212641
8.09382e-06
0.000155206
-1.1004e-06
-1.21213e-06
-6.69666e-07
-0.000433029
-9.00356e-07
1.94812e-07
4.15167e-10
-3.41141e-10
-0.000189029
6.54966e-10
5.31394e-05
-9.65461e-08
6.07864e-05
-5.64265e-10
-4.35524e-05
-5.12449e-05
-8.62534e-07
1.23893e-06
0.000395144
3.57548e-05
-9.31596e-05
-3.76589e-08
2.02053e-07
1.3835e-08
0.000248645
5.60985e-07
-8.0386e-05
-6.51795e-07
1.31794e-07
-7.23172e-07
0.00145108
1.37024e-06
2.94381e-05
-1.87086e-05
-2.21336e-08
1.19835e-10
-6.09049e-06
4.08409e-08
-0.000123905
0.000188917
-6.91329e-08
3.35372e-06
1.59297e-08
2.47676e-08
-5.96903e-09
-6.68123e-09
7.26539e-10
-2.14579e-08
1.16228e-08
-1.91672e-08
-2.65426e-07
5.13011e-07
-7.66566e-07
1.55716e-05
6.60583e-09
-5.16385e-07
1.01368e-05
1.2728e-05
-4.79262e-05
2.65145e-08
2.46137e-08
4.4622e-06
1.44807e-08
-7.58123e-06
-5.41283e-09
-2.7302e-05
6.47509e-06
-1.48161e-05
1.37975e-08
9.15555e-06
-1.90488e-06
4.61469e-09
0.000443312
-4.50502e-08
0.0019188
-8.98639e-08
7.24211e-10
1.06182e-08
1.30722e-08
0.00257207
-9.83807e-10
1.62767e-06
4.96991e-09
-0.000576962
-5.55034e-06
-6.69523e-06
-1.51406e-05
-4.12729e-05
3.15153e-07
0
0
-4.60465e-09
-0.00014624
1.11477e-05
-2.64571e-07
0
3.70631e-08
1.45401e-05
-6.31176e-08
-1.15627e-07
0
2.00843e-07
0
-2.31151e-06
-7.83287e-06
-3.29327e-06
5.81587e-09
-6.00932e-08
9.17502e-08
-1.43502e-09
3.13202e-08
1.95826e-09
-1.42919e-06
3.24104e-07
0.000190075
-5.41401e-06
-4.41426e-09
9.32026e-09
-5.33548e-07
-6.53912e-06
-1.89641e-05
-4.1375e-05
4.79092e-06
-1.40947e-08
-9.8662e-06
-0.000476175
3.32652e-07
-6.90313e-09
-5.69827e-09
1.2333e-05
-1.26779e-08
7.52471e-09
-6.04544e-09
-9.95568e-09
7.34093e-09
-6.59507e-06
1.7576e-05
-4.4029e-06
-4.31209e-05
3.34827e-05
-0.00035119
-3.27378e-09
-1.93386e-07
-4.26319e-05
0.000207396
1.15616e-06
-7.81854e-05
-0.000181388
2.76567e-06
-3.81525e-05
0.000196055
-1.34917e-05
-0.000465281
0.000260783
0.000160112
8.27014e-09
4.44087e-07
-0.000236452
9.86486e-07
7.15185e-07
1.24763e-06
-6.17398e-06
1.04232e-06
-5.04703e-09
1.18311e-05
1.03716e-08
2.20809e-08
0.000698243
0.000200375
-3.19473e-06
-1.68517e-08
1.12538e-06
7.57442e-06
-2.24094e-08
2.68445e-05
1.14772e-08
-5.8631e-09
-9.50572e-05
4.37321e-08
-4.57981e-07
0.000142374
-0.000189514
1.08718e-06
-0.000194141
0.000122199
0.000250255
-4.11873e-09
9.71525e-08
-5.43038e-06
2.15609e-10
-4.6068e-06
-2.30675e-08
3.59716e-05
-3.36353e-06
6.35478e-07
9.43619e-09
-3.15468e-07
-7.11989e-09
0.00119563
-2.39648e-06
2.43842e-06
-1.50669e-10
-3.9241e-06
-1.79216e-09
1.29474e-06
-5.08232e-06
-2.77437e-06
-1.41942e-09
-1.6503e-05
0.000888627
2.7941e-06
5.92637e-06
5.42699e-09
3.03546e-09
0.000204702
-2.57672e-06
-0.00021014
-5.34816e-09
-3.76966e-05
-6.23112e-08
-0.000380822
0
0
-0.000202321
0
-6.77297e-08
-8.95583e-05
2.59588e-07
-1.39343e-08
-7.18351e-05
-5.98439e-10
0.000139477
1.63457e-08
1.06482e-05
-4.30403e-05
6.55766e-06
-1.67417e-09
-4.30546e-05
-9.87857e-09
2.7861e-06
4.38392e-09
-0.000387651
8.00114e-06
5.62325e-05
5.54181e-09
4.9786e-10
-1.60066e-10
7.85066e-10
-1.27515e-05
1.36495e-10
5.56548e-07
5.74806e-06
-9.24495e-07
-2.57391e-10
1.61156e-07
9.49231e-06
0
-6.01874e-10
-6.89086e-07
2.30842e-09
-9.59729e-10
0
0
-2.78833e-05
1.51784e-09
-2.95049e-07
3.65406e-06
-5.60966e-06
-2.326e-09
2.9884e-06
-1.7584e-05
-6.5333e-06
7.10966e-10
8.90439e-07
2.45782e-07
3.06352e-07
1.39148e-08
2.72324e-08
-9.66832e-06
3.4629e-06
-1.46104e-05
-1.2486e-08
0.000389272
-6.61264e-06
-0.000334281
-7.72648e-07
8.27084e-06
-1.39011e-05
-0.000204296
2.7859e-07
0.00171815
-0.000328117
-1.85726e-06
-0.000662926
4.08223e-05
8.28091e-08
-4.32786e-06
1.40046e-05
0.000138191
-1.23915e-06
-1.22022e-06
7.40779e-07
-2.59465e-06
-6.14689e-08
1.16576e-06
-0.000651497
-6.49932e-08
0.000195309
3.77345e-07
7.53627e-07
-4.61066e-05
0.00038774
8.57282e-07
-4.65369e-06
4.67851e-06
-2.20569e-05
-4.56064e-06
-6.96636e-07
-5.17713e-05
-4.03965e-08
0.000378559
7.46535e-08
-7.12469e-07
0.000108663
-0.000135641
6.82258e-06
-1.96427e-06
5.76601e-08
-2.00957e-05
-8.48412e-05
-0.000253379
6.85024e-07
-7.76537e-07
0
3.51641e-06
0
1.54466e-05
3.3445e-08
2.35002e-05
-1.94691e-05
-3.21632e-07
-0.000159514
-4.48133e-08
-0.000609791
-3.55547e-05
-1.72538e-08
0.0017725
-1.03042e-09
2.01403e-08
2.77738e-08
1.46216e-05
4.0034e-08
-8.79311e-08
-2.22185e-08
3.14209e-07
1.90938e-06
-4.05982e-06
6.31089e-06
6.60198e-06
0
2.22958e-06
-1.07184e-05
0
5.96038e-06
-2.70642e-08
0
2.35817e-05
-3.45941e-05
4.61403e-10
3.01466e-10
2.88255e-06
2.11506e-10
2.78202e-06
0.00138092
-1.23316e-05
2.75548e-05
-7.01037e-06
1.04319e-10
-5.05644e-05
-1.19739e-08
-5.82308e-05
3.40317e-06
6.15883e-05
0.00246317
-1.14529e-08
0
4.23207e-06
-4.60734e-07
6.38964e-06
-2.86698e-09
1.0394e-05
-0.000186972
-3.16797e-06
0
2.00905e-05
3.9806e-06
0.00017902
6.13839e-10
4.57425e-06
1.67481e-06
9.73998e-05
-0.000120813
-4.1109e-07
2.7084e-10
-3.1332e-06
-1.10398e-06
3.51593e-08
1.02691e-08
6.6859e-06
1.2236e-05
-6.77844e-10
-1.01322e-06
-7.94578e-06
5.4405e-07
3.52689e-07
-0.000507573
0.00040547
-1.12257e-05
1.99692e-09
-3.86939e-09
-2.54631e-09
1.58116e-06
5.15709e-07
-1.31324e-08
1.47238e-06
1.47581e-10
1.71567e-10
-2.60278e-07
1.92798e-08
-3.20987e-06
0
0
-4.60211e-06
-0.00045043
2.04449e-05
-1.34273e-06
-3.57189e-05
3.25619e-06
-5.18612e-10
-9.79046e-06
1.327e-05
-3.58807e-07
0
-1.90656e-06
-1.6731e-09
1.04903e-05
-7.05934e-06
-6.38193e-09
-1.73585e-05
-4.53686e-08
8.81741e-09
5.76948e-05
0
0.000284967
-1.00801e-08
-3.53509e-09
-6.69087e-06
-5.9583e-08
2.3607e-07
-1.12013e-05
-1.8866e-05
5.83883e-10
1.09872e-08
8.17991e-07
0.000152474
0
-2.51387e-08
4.11003e-07
-1.28396e-05
3.46678e-07
6.93019e-07
-0.000201903
-4.50699e-05
-1.4328e-05
-1.20149e-05
0.000426098
0.000705308
0.00206869
-2.20586e-08
-5.50844e-06
1.34306e-05
-8.43833e-06
1.615e-09
0
-0.000158863
-1.62773e-08
-3.94226e-05
2.72083e-05
-8.37178e-07
5.23502e-07
-0.000124822
4.47191e-05
0.00161383
5.23177e-05
-0.000119497
-1.94755e-08
4.70389e-06
2.14897e-05
0
1.64693e-07
0.00101784
-3.68269e-05
6.88158e-06
-0.000284233
3.58905e-06
-3.63323e-10
0.000371924
-5.31062e-05
2.01317e-08
-9.2396e-07
7.62525e-09
7.01982e-10
7.08006e-10
1.27369e-08
-1.2811e-05
0
3.03675e-06
3.08131e-05
-1.99755e-06
5.57727e-07
-2.04759e-08
-0.000360224
-1.57422e-05
1.82588e-08
0.000432918
0.000104011
-2.08706e-05
4.99167e-05
3.88819e-09
4.20822e-06
-4.88841e-09
6.50461e-09
7.39891e-09
-1.18577e-10
-1.83438e-05
6.09617e-09
-1.6384e-05
-0.00010416
-0.000217624
1.16421e-05
9.61817e-06
2.02084e-05
4.98353e-09
3.98264e-06
9.1422e-09
0.00171076
-1.16644e-06
1.12947e-09
2.75838e-05
1.89738e-05
2.07621e-05
8.18778e-06
-0.0003768
2.49948e-07
0
0
-1.22256e-06
2.38011e-08
4.73093e-07
1.0556e-05
1.08252e-09
-4.94637e-09
-9.45366e-05
3.68858e-10
-8.52513e-05
3.64219e-08
0.00152709
-0.000302758
-3.65681e-06
-4.32792e-05
1.78556e-10
-2.76434e-05
1.71255e-05
9.04636e-06
-1.10245e-07
3.42519e-07
0.000279423
0.00101357
0.000107505
-0.000141005
5.13561e-07
0.00171716
-2.39005e-05
0
-3.16115e-06
6.88439e-09
-2.04845e-09
-3.40208e-05
-5.54792e-06
-2.5868e-09
0
-3.44995e-06
-2.29527e-05
-2.63782e-08
0.00011191
-1.35323e-06
0.000211413
0
-2.03579e-10
-9.68185e-09
-1.24498e-10
-5.65229e-05
-5.75459e-09
-4.7091e-09
-5.43772e-05
-1.60267e-05
3.3849e-06
0.000168466
0.000202908
6.38644e-10
3.24693e-07
-5.03343e-05
0
-0.000210763
0.000250163
-6.61322e-08
-4.03992e-08
5.04227e-10
-4.37861e-09
-3.56955e-06
0.00229892
-1.86683e-08
5.30771e-06
0
-0.000122758
-2.45392e-05
0
7.7873e-08
8.00342e-06
-2.31221e-09
5.52004e-05
-1.0285e-05
0
-2.3411e-05
0
-3.63066e-05
0.000163437
0
0.000111563
-1.29463e-06
-1.72223e-08
0
1.96252e-07
-3.16768e-05
-2.11347e-05
-0.000237561
3.96081e-05
-4.42611e-10
6.68747e-05
-0.000135667
4.64481e-07
-1.12178e-08
0
1.1159e-05
2.31192e-06
5.93471e-05
-9.01303e-09
1.06094e-05
8.80858e-07
-2.925e-06
1.62012e-05
-5.77082e-08
1.35781e-09
-2.46832e-05
-7.84768e-07
2.75875e-06
-1.45957e-05
-0.000539038
-2.93157e-06
-3.62372e-05
-2.70755e-05
-7.3145e-07
7.68701e-06
1.56899e-05
9.77249e-10
1.6883e-05
1.03866e-06
-1.66536e-05
-8.1708e-09
7.2261e-07
-9.38252e-05
2.7754e-06
-5.04466e-06
4.0073e-07
-3.02056e-06
5.50887e-10
0.000213601
1.02897e-08
0.00124077
-4.1036e-07
-2.6729e-08
8.2511e-08
-0.000206523
-8.38843e-06
0.000404984
3.72598e-08
2.90818e-06
7.16435e-06
6.2549e-07
7.83399e-09
0
7.39935e-05
-2.23436e-08
-7.77703e-10
-6.6246e-06
0.000108989
-3.03382e-05
0.001484
-5.04444e-06
-0.000833201
-5.26788e-07
-3.88812e-05
-1.05634e-05
2.02558e-05
1.7155e-05
-6.3502e-07
-0.000282577
1.04354e-06
-2.08013e-05
-6.64465e-05
0.00189732
1.46433e-05
-1.20972e-10
0.000248253
-8.2066e-06
0
8.50421e-07
0
-5.41986e-06
-4.12616e-09
0
-0.000332896
-1.16124e-05
4.80104e-06
-5.69588e-05
-9.16113e-07
7.16101e-09
-0.00013265
0.000128304
-1.56578e-05
-1.02978e-05
2.71925e-05
-9.28735e-06
-1.03363e-08
1.03813e-05
-1.8284e-05
3.24038e-05
-3.07512e-05
-1.3242e-09
8.96423e-06
4.94501e-07
3.63412e-09
-3.86116e-06
7.571e-09
-6.5803e-07
-6.85049e-05
-6.28125e-07
0
3.45921e-06
0.000160032
0.000137725
2.64921e-07
-1.80469e-05
-3.53948e-05
-0.000634067
1.52696e-05
1.98864e-05
1.57681e-05
-4.87092e-05
2.16809e-05
1.43832e-05
-9.14211e-06
-5.77752e-06
6.99106e-06
2.08511e-08
5.42312e-05
1.15368e-08
-0.000409261
-2.3651e-05
4.19886e-05
-6.06584e-08
1.07958e-05
-1.46317e-08
-4.27093e-05
0.000402865
-0.000244114
-8.83048e-05
-8.80726e-05
2.72522e-05
2.83881e-05
3.99279e-08
-8.20283e-05
-3.71784e-09
-1.65348e-09
-4.24403e-10
0
1.84516e-05
4.1009e-05
-0.000507373
5.79958e-05
-2.65367e-05
-6.37799e-05
5.47482e-05
-2.43768e-05
-2.86099e-08
8.14113e-05
-8.58457e-10
6.72849e-09
-8.78903e-10
-1.25585e-05
6.75784e-09
-2.65518e-08
-2.74608e-09
2.81885e-07
-7.44798e-10
-9.55813e-10
-5.50895e-06
-8.00322e-05
-1.08337e-08
1.1457e-06
-4.7137e-09
-4.33731e-05
-6.66512e-09
9.37913e-07
-0.000599583
0
0.000121181
-5.91983e-10
5.08337e-10
0
-1.22902e-06
-0.000122158
0.000113375
4.85916e-10
4.31821e-10
9.79942e-05
-4.7049e-09
0
-0.000127323
0
-0.000211671
-2.68249e-10
8.76215e-05
2.17962e-10
-1.12205e-05
-5.26165e-10
-2.08223e-07
-2.35519e-09
-8.40389e-06
0
2.82657e-06
0
-5.83367e-06
4.8697e-07
-9.54278e-05
-0.000372728
-5.47438e-06
0.00196739
0.00175079
-6.15473e-08
-7.18786e-08
4.49075e-07
-0.000240471
3.85595e-08
2.34678e-08
4.66095e-08
1.12345e-08
-0.000501936
-8.55383e-05
-9.64295e-06
-6.51855e-06
0.000325962
-2.36028e-09
0.000629
1.31919e-05
4.18505e-06
-7.14762e-06
0.00575984
4.85134e-06
1.14907e-05
2.97034e-10
-2.03016e-05
0
8.26861e-09
5.72103e-05
-0.000170123
-4.92631e-09
-2.84555e-05
0.000110267
9.16333e-05
5.8183e-06
1.2195e-08
-2.29482e-08
-9.61367e-05
-2.98346e-05
1.34611e-05
1.23834e-05
1.71614e-06
9.03727e-07
3.82147e-07
1.97318e-05
2.98238e-08
-1.1359e-06
-1.42217e-05
-6.57178e-06
6.00075e-07
-1.10952e-07
-0.000201557
0
-3.46498e-05
-9.12632e-09
2.28323e-05
7.24464e-07
-4.65407e-10
-6.6031e-06
7.77248e-06
1.4482e-07
5.30943e-08
3.09351e-07
2.06079e-07
-0.000561877
4.7916e-10
-1.95808e-05
7.92438e-09
-1.12472e-06
-1.65984e-05
8.67157e-07
-6.58673e-10
-0.000122436
4.14624e-05
-5.50451e-06
0
1.10236e-08
3.49676e-05
0
-6.98305e-08
-4.44457e-05
7.62275e-07
-0.000468682
4.11571e-09
5.59638e-07
7.16621e-09
-7.65086e-08
4.85878e-09
-3.55865e-05
4.24865e-06
-1.10491e-05
-8.26761e-08
3.7968e-07
-2.3915e-07
9.94936e-07
-5.39961e-07
-1.94498e-05
0
-3.52075e-06
-1.07664e-05
0.000258562
4.05637e-05
-0.000823313
0.000296774
3.39626e-09
-0.00030668
1.42643e-08
-0.000624952
-7.0362e-09
-0.00022519
-1.31088e-05
-8.11241e-06
-7.91642e-05
2.66111e-05
-7.57764e-05
2.76297e-07
-4.86604e-07
1.32835e-07
7.67094e-10
-0.000467848
-3.8607e-05
9.18523e-07
-0.000444261
-9.22257e-06
4.68765e-05
0.000298296
1.28488e-05
2.74486e-06
-3.962e-05
6.70463e-06
-1.37431e-05
-4.1164e-05
-0.000183217
0
0
0
9.41593e-06
-6.78468e-05
-0.00124175
-6.53887e-09
-0.000115211
0.000591494
-0.000569451
-0.000271145
-0.000176571
1.09149e-06
0.000120524
-0.000167889
9.36245e-06
-2.64022e-07
4.41163e-06
-0.000170418
6.15461e-05
6.3637e-06
-5.78345e-05
0
2.42752e-07
-1.08077e-06
-2.57858e-08
1.70979e-08
1.05369e-09
-2.26887e-05
-4.7744e-05
3.48611e-05
-2.54202e-05
5.23175e-06
8.84393e-05
0.000219054
0.00024853
-0.000389676
0.000358676
1.62273e-06
7.30771e-05
0.000141608
0.000276809
-0.000605827
-8.8538e-06
0.000115721
-6.30575e-06
5.6951e-07
4.54496e-06
9.89761e-05
5.94684e-10
1.69648e-10
-7.31004e-10
3.27896e-10
3.77117e-07
1.82401e-07
2.1281e-07
0.000351723
3.41598e-08
1.40836e-08
-0.000277392
-1.77759e-08
3.51379e-08
0.000181201
-0.000254971
3.94543e-09
1.121e-08
-6.83044e-09
-4.35763e-08
8.48819e-08
0.000107246
8.60189e-09
-5.19759e-05
-1.6963e-06
0.000118938
-3.22798e-07
1.11909e-08
-1.02853e-06
-0.000184583
-0.00025463
0.000240088
0.000593645
-0.000542683
-3.22485e-05
1.90195e-08
-2.97386e-08
-5.94322e-08
-3.61113e-05
0.000370191
0.000154693
2.20921e-08
-5.77765e-05
0.000122685
-1.65176e-09
0.00182851
2.56942e-09
1.24116e-07
-3.8128e-09
-0.00022462
0.000275759
-0.000187904
-9.02348e-06
-2.03075e-05
7.66271e-09
-3.96672e-05
-8.43773e-09
-2.35895e-05
2.071e-05
0.000261754
-0.000277366
0.000116473
-3.06966e-05
2.67839e-06
-3.23735e-06
0.00427281
3.42764e-06
-3.04562e-05
3.56227e-05
-8.03307e-06
-3.99111e-06
0.00194818
7.20672e-05
5.03547e-07
4.46069e-05
4.91929e-06
-2.1292e-09
-2.52575e-05
-1.43397e-05
-4.96941e-09
-1.6626e-08
-7.32304e-07
0.000161436
-4.59828e-05
1.71658e-05
-4.03297e-08
-4.0137e-05
-4.17398e-05
0
0.00202407
6.33678e-05
0.00432853
0.0168665
4.4847e-08
0.000162979
-3.42517e-08
0.000154301
1.32611e-05
-7.43701e-07
0
1.83037e-05
0
0
0
2.05468e-07
-9.7774e-07
-4.28708e-05
0.000818107
0.000371132
0.000784657
0.00085361
-2.58246e-05
-0.000256519
-0.000291054
1.33183e-05
2.44556e-08
-7.10824e-08
-1.42444e-08
-7.08987e-08
-0.000136992
3.49523e-08
0
0
2.6392e-05
-8.45819e-05
0.000620715
-8.3317e-05
1.95889e-09
-9.55043e-09
2.4948e-10
-5.2922e-09
-4.36368e-09
-4.56111e-09
1.69101e-05
2.70535e-06
0.000169811
-0.00041288
5.59746e-05
-0.000107347
9.04505e-07
7.48459e-05
-0.000269098
4.95394e-05
1.60587e-06
-5.16942e-07
7.92709e-07
1.50488e-06
-0.000240089
-9.61723e-07
-3.85665e-07
3.57341e-07
4.16123e-09
0.000165759
3.48258e-05
-1.04886e-07
4.24482e-05
2.5237e-08
1.26744e-05
2.29671e-05
-3.18189e-06
0.00165256
-5.96095e-06
-2.03539e-05
-7.26815e-07
-3.39501e-06
0.0017379
6.97363e-05
0.000137352
4.12078e-05
0
-8.56136e-07
3.20551e-07
-5.73437e-07
-4.23933e-05
8.06566e-05
6.5207e-05
2.71072e-06
-9.73594e-07
-0.000221232
1.05102e-05
3.2351e-06
-2.37711e-07
-5.7186e-07
5.21901e-09
9.92095e-08
-4.7469e-05
2.8742e-08
0.00192635
-0.000426056
-3.24792e-09
-1.56936e-08
1.69731e-08
7.51125e-10
1.01809e-08
0.000191292
2.55551e-05
-1.62291e-05
-5.33822e-05
-1.1337e-06
-3.64101e-06
-0.00079946
0.00156973
0.00245708
-4.36585e-05
6.0943e-09
-2.75511e-10
-5.09111e-07
1.05156e-06
-5.31613e-07
-3.50067e-07
-7.52066e-06
-2.59146e-06
3.05581e-08
4.23792e-08
-1.82961e-09
-2.16643e-08
0.00044004
-0.000459415
-8.35101e-05
1.06761e-05
-0.000144867
0
0
0
0.000158222
5.29189e-06
0.000831332
-0.000595493
1.90626e-05
0
0
8.63308e-05
-3.92636e-05
-0.000246703
0
-3.40101e-10
-0.000178297
-0.000181366
0
2.24174e-05
-0.000178582
2.44055e-05
-9.90943e-05
-1.12411e-05
-9.23062e-06
1.15119e-05
-2.09876e-05
0.000178755
1.06425e-06
1.41531e-06
2.94123e-06
-4.43956e-06
-0.000208655
1.1806e-05
-3.16849e-06
7.44613e-06
4.1646e-05
-3.55357e-09
-1.86352e-05
-1.8038e-05
6.86181e-09
3.68365e-09
0.00216443
1.40171e-07
-8.19858e-07
0.000943291
3.80315e-08
-5.41341e-09
-7.14132e-09
-2.73775e-09
-8.93063e-06
1.13656e-05
3.23432e-06
1.09695e-05
9.79243e-09
-1.13866e-08
9.26723e-09
4.09787e-08
-3.63332e-09
4.19628e-05
-1.72438e-05
-4.42545e-05
-6.21263e-06
-7.05116e-06
5.20109e-06
-2.82584e-06
-0.000121625
5.16474e-07
0.000131937
4.85636e-08
4.88444e-07
-5.02524e-07
-5.21844e-05
-5.26853e-05
-3.26697e-09
2.45805e-05
-0.000642742
-1.04893e-06
1.03822e-06
0.000209708
1.06463e-08
-7.23135e-08
0.00171987
-0.000544306
-9.56451e-05
0
0
0
0
-0.000169039
3.61415e-10
4.73092e-10