# vtk DataFile Version 2.0
Unstructured Grid by M++
ASCII
DATASET UNSTRUCTURED_GRID
POINTS 4072 float
  0.828125   0.890625 0
  0.875000   0.531250 0
  0.828125   0.750000 0
  0.593750   0.968750 0
  0.828125   0.671875 0
  0.828125   0.875000 0
  0.593750   0.937500 0
  0.828125   0.656250 0
  0.828125   0.640625 0
  0.828125   0.843750 0
  0.593750   0.906250 0
  0.828125   0.625000 0
  0.781250   0.968750 0
  0.828125   0.609375 0
  0.828125   0.812500 0
  0.593750   0.875000 0
  0.593750   0.828125 0
  0.593750   0.796875 0
  0.828125   0.703125 0
  0.593750   0.765625 0
  0.828125   0.937500 0
  0.812500   0.875000 0
  0.859375   0.515625 0
  0.812500   0.734375 0
  0.812500   0.937500 0
  0.578125   1.000000 0
  0.578125   0.750000 0
  0.812500   0.687500 0
  0.578125   0.953125 0
  0.812500   0.656250 0
  0.812500   0.859375 0
  0.578125   0.921875 0
  0.812500   0.828125 0
  0.578125   0.890625 0
  0.812500   0.593750 0
  0.812500   0.796875 0
  0.578125   0.859375 0
  0.578125   0.812500 0
  0.578125   0.781250 0
  0.796875   1.000000 0
  0.796875   0.859375 0
  0.796875   0.718750 0
  0.562500   0.984375 0
  0.562500   0.937500 0
  0.796875   0.843750 0
  0.562500   0.906250 0
  0.796875   0.812500 0
  0.562500   0.875000 0
  0.796875   0.578125 0
  0.796875   0.781250 0
  0.562500   0.843750 0
  0.812500   0.984375 0
  0.562500   0.796875 0
  0.812500   0.953125 0
  0.562500   0.765625 0
  0.796875   0.937500 0
  0.546875   0.750000 0
  0.781250   0.984375 0
  0.828125   0.593750 0
  0.781250   0.843750 0
  0.781250   0.937500 0
  0.546875   1.000000 0
  0.781250   0.703125 0
  0.546875   0.968750 0
  0.546875   0.921875 0
  0.781250   0.828125 0
  0.546875   0.890625 0
  0.781250   0.796875 0
  0.546875   0.859375 0
  0.781250   0.562500 0
  0.781250   0.765625 0
  0.546875   0.828125 0
  0.796875   0.968750 0
  0.546875   0.781250 0
  0.765625   1.000000 0
  0.765625   0.968750 0
  0.531250   0.984375 0
  0.765625   0.687500 0
  0.531250   0.953125 0
  0.531250   0.937500 0
  0.531250   0.906250 0
  0.765625   0.812500 0
  0.531250   0.875000 0
  0.765625   0.781250 0
  0.531250   0.843750 0
  0.781250   1.000000 0
  0.765625   0.546875 0
  0.765625   0.750000 0
  0.531250   0.812500 0
  0.781250   0.953125 0
  0.531250   0.765625 0
  0.515625   0.750000 0
  0.750000   0.984375 0
  0.750000   0.953125 0
  0.796875   0.593750 0
  0.796875   0.562500 0
  0.750000   0.843750 0
  0.750000   0.937500 0
  0.515625   1.000000 0
  0.750000   0.906250 0
  0.515625   0.968750 0
  0.750000   0.671875 0
  0.750000   0.875000 0
  0.515625   0.937500 0
  0.515625   0.921875 0
  0.515625   0.890625 0
  0.750000   0.796875 0
  0.515625   0.859375 0
  0.750000   0.765625 0
  0.515625   0.828125 0
  1.000000   0.718750 0
  0.750000   0.531250 0
  0.750000   0.734375 0
  0.515625   0.796875 0
  0.734375   1.000000 0
  0.734375   0.968750 0
  0.734375   0.937500 0
  0.781250   0.578125 0
  0.781250   0.546875 0
  0.968750   0.578125 0
  0.734375   0.828125 0
  0.968750   0.546875 0
  0.734375   0.796875 0
  0.734375   0.765625 0
  0.968750   0.671875 0
  0.734375   0.734375 0
  0.968750   0.640625 0
  0.734375   0.703125 0
  0.968750   0.609375 0
  0.734375   0.671875 0
  0.734375   0.656250 0
  0.734375   0.625000 0
  0.968750   0.531250 0
  0.734375   0.593750 0
  0.984375   0.734375 0
  0.984375   0.703125 0
  0.734375   0.515625 0
  0.718750   0.984375 0
  0.718750   0.953125 0
  0.718750   0.921875 0
  0.953125   0.562500 0
  0.718750   0.812500 0
  0.953125   0.531250 0
  0.718750   0.781250 0
  0.718750   0.750000 0
  0.953125   0.656250 0
  0.718750   0.718750 0
  0.953125   0.625000 0
  0.718750   0.687500 0
  0.953125   0.593750 0
  0.718750   0.656250 0
  0.671875   1.000000 0
  0.718750   0.640625 0
  0.718750   0.609375 0
  0.953125   0.515625 0
  0.718750   0.578125 0
  0.968750   0.718750 0
  0.968750   0.687500 0
  0.953125   0.671875 0
  0.703125   0.968750 0
  0.703125   0.937500 0
  0.937500   0.656250 0
  0.703125   0.906250 0
  0.937500   0.546875 0
  0.703125   0.796875 0
  0.937500   0.515625 0
  0.703125   0.765625 0
  0.937500   0.671875 0
  0.703125   0.734375 0
  0.937500   0.640625 0
  0.703125   0.703125 0
  0.937500   0.609375 0
  0.703125   0.671875 0
  0.937500   0.578125 0
  0.703125   0.640625 0
  0.656250   0.984375 0
  0.703125   0.625000 0
  0.703125   0.593750 0
  0.718750   0.796875 0
  0.953125   0.734375 0
  0.812500   1.000000 0
  0.859375   0.656250 0
  0.703125   0.781250 0
  0.937500   0.718750 0
  0.953125   0.703125 0
  0.796875   0.984375 0
  0.843750   0.640625 0
  0.812500   0.968750 0
  0.859375   0.625000 0
  0.796875   0.953125 0
  0.843750   0.609375 0
  0.687500   0.953125 0
  0.687500   0.921875 0
  0.687500   0.890625 0
  0.921875   0.734375 0
  0.687500   0.796875 0
  0.687500   0.781250 0
  0.921875   0.703125 0
  0.687500   0.765625 0
  0.687500   0.750000 0
  0.921875   0.656250 0
  0.687500   0.718750 0
  0.921875   0.625000 0
  0.687500   0.687500 0
  0.921875   0.593750 0
  0.687500   0.656250 0
  0.640625   1.000000 0
  0.921875   0.562500 0
  0.687500   0.625000 0
  0.640625   0.968750 0
  0.687500   0.609375 0
  0.687500   0.578125 0
  0.937500   0.687500 0
  0.921875   0.671875 0
  0.671875   0.921875 0
  0.906250   0.656250 0
  0.671875   0.906250 0
  0.671875   0.875000 0
  0.906250   0.718750 0
  0.671875   0.781250 0
  0.671875   0.765625 0
  0.671875   0.734375 0
  0.906250   0.640625 0
  0.671875   0.703125 0
  0.906250   0.609375 0
  0.671875   0.671875 0
  0.906250   0.578125 0
  0.671875   0.640625 0
  0.625000   0.984375 0
  0.671875   0.609375 0
  0.625000   0.953125 0
  0.671875   0.593750 0
  0.671875   0.562500 0
  0.765625   0.953125 0
  0.812500   0.609375 0
  0.656250   1.000000 0
  0.656250   0.953125 0
  0.656250   0.906250 0
  0.890625   0.640625 0
  0.656250   0.890625 0
  0.656250   0.859375 0
  0.890625   0.734375 0
  0.656250   0.796875 0
  0.812500   0.921875 0
  0.562500   1.000000 0
  0.625000   0.828125 0
  0.812500   0.843750 0
  0.843750   0.593750 0
  0.812500   0.812500 0
  0.625000   0.718750 0
  0.828125   0.687500 0
  0.640625   0.593750 0
  0.812500   0.781250 0
  0.625000   0.687500 0
  0.765625   0.828125 0
  0.640625   0.562500 0
  0.812500   0.750000 0
  0.562500   0.828125 0
  0.781250   0.875000 0
  0.546875   0.937500 0
  0.781250   0.671875 0
  0.781250   0.593750 0
  0.546875   0.656250 0
  0.796875   0.750000 0
  0.562500   0.812500 0
  0.796875   0.546875 0
  0.765625   0.796875 0
  0.765625   0.593750 0
  1.000000   0.531250 0
  0.812500   0.718750 0
  0.859375   0.562500 0
  0.625000   0.625000 0
  0.812500   0.703125 0
  0.812500   0.906250 0
  0.578125   0.968750 0
  0.984375   0.593750 0
  0.828125   0.578125 0
  0.828125   0.781250 0
  0.593750   0.843750 0
  0.812500   0.671875 0
  0.625000   0.578125 0
  0.796875   0.671875 0
  0.562500   0.734375 0
  0.984375   0.562500 0
  0.828125   0.546875 0
  0.812500   0.640625 0
  0.750000   0.812500 0
  0.625000   0.546875 0
  0.796875   0.640625 0
  0.562500   0.703125 0
  0.828125   0.515625 0
  0.781250   0.734375 0
  0.546875   0.796875 0
  0.781250   0.531250 0
  0.750000   0.781250 0
  0.625000   0.515625 0
  0.796875   0.609375 0
  0.562500   0.671875 0
  0.765625   0.656250 0
  0.765625   0.859375 0
  0.531250   0.921875 0
  0.812500   0.578125 0
  0.562500   0.656250 0
  0.984375   0.687500 0
  0.750000   0.750000 0
  0.812500   0.562500 0
  0.812500   0.765625 0
  0.578125   0.828125 0
  0.562500   0.625000 0
  0.984375   0.656250 0
  0.750000   0.718750 0
  0.812500   0.531250 0
  0.781250   0.656250 0
  0.546875   0.718750 0
  0.781250   0.625000 0
  0.546875   0.687500 0
  0.750000   0.640625 0
  0.796875   0.531250 0
  0.562500   0.593750 0
  0.984375   0.625000 0
  0.750000   0.687500 0
  0.546875   0.984375 0
  0.609375   0.812500 0
  0.796875   0.875000 0
  0.546875   0.953125 0
  0.609375   0.578125 0
  0.843750   0.515625 0
  0.765625   0.515625 0
  0.765625   0.718750 0
  0.531250   0.781250 0
  0.984375   0.546875 0
  0.750000   0.609375 0
  0.796875   0.828125 0
  0.671875   0.968750 0
  0.796875   0.796875 0
  0.796875   0.765625 0
  0.609375   0.671875 0
  0.796875   0.734375 0
  0.546875   0.812500 0
  0.796875   0.703125 0
  0.843750   0.546875 0
  0.609375   0.609375 0
  0.796875   0.687500 0
  0.562500   0.953125 0
  0.796875   0.656250 0
  0.609375   0.562500 0
  0.796875   0.625000 0
  0.609375   0.531250 0
  0.546875   0.640625 0
  0.765625   0.671875 0
  0.531250   0.734375 0
  0.796875   0.515625 0
  0.765625   0.640625 0
  0.531250   0.703125 0
  0.703125   1.000000 0
  0.765625   0.609375 0
  0.531250   0.671875 0
  0.765625   0.578125 0
  0.531250   0.640625 0
  0.546875   0.609375 0
  0.531250   1.000000 0
  0.890625   0.593750 0
  0.656250   0.656250 0
  0.781250   0.515625 0
  0.546875   0.578125 0
  0.531250   0.968750 0
  0.890625   0.562500 0
  0.656250   0.625000 0
  0.609375   0.968750 0
  0.781250   0.859375 0
  0.656250   0.593750 0
  0.750000   0.703125 0
  0.515625   0.765625 0
  0.781250   0.812500 0
  0.781250   0.781250 0
  0.593750   0.687500 0
  0.781250   0.750000 0
  0.593750   0.656250 0
  0.781250   0.718750 0
  0.531250   0.796875 0
  0.828125   0.562500 0
  0.593750   0.625000 0
  0.781250   0.687500 0
  0.828125   0.531250 0
  0.593750   0.593750 0
  0.812500   0.625000 0
  0.578125   0.687500 0
  0.781250   0.640625 0
  0.781250   0.609375 0
  0.593750   0.515625 0
  0.515625   0.781250 0
  0.812500   0.546875 0
  0.578125   0.609375 0
  0.812500   0.515625 0
  0.578125   0.578125 0
  0.750000   0.656250 0
  0.515625   0.718750 0
  0.750000   0.625000 0
  0.515625   0.687500 0
  0.687500   0.984375 0
  0.750000   0.593750 0
  0.515625   0.656250 0
  0.531250   0.546875 0
  0.750000   0.562500 0
  0.515625   0.625000 0
  0.531250   0.515625 0
  0.984375   0.515625 0
  0.750000   0.578125 0
  0.515625   0.531250 0
  0.828125   0.796875 0
  0.640625   0.703125 0
  0.828125   0.765625 0
[...]
CELL_DATA 7648
SCALARS scalar_value float 1
LOOKUP_TABLE default
-0.0224559
-0.0112664
-0.341994
-0.3476
-0.341959
-0.358904
-0.57192
-0.557539
-0.550289
-0.550792
-0.465929
-0.456985
-0.451424
-0.455225
-0.443999
-0.440418
-0.431731
-0.445799
-0.175129
-0.157026
-0.173377
-0.170319
-0.15873
-0.153761
-0.0648235
-0.0587748
-0.0470688
-0.0643826
-0.0293805
-0.0234542
-0.0117428
-0.0292053
-0.543035
-0.536236
-0.521955
-0.543363
-0.41309
-0.414545
-0.00567079
-0.00560679
-0.404919
-0.39983
-0.0117593
-0.00588629
-0.503469
-0.495719
-0.501343
-0.482252
-0.497696
-0.486904
-0.490491
-0.47322
-0.461689
-0.454223
-0.458189
-0.443374
-0.208917
-0.210908
-0.193077
-0.206315
-0.195093
-0.190531
-0.474834
-0.470205
-0.466784
-0.467737
-0.455883
-0.443825
-0.453158
-0.466987
-0.46707
-0.461868
-0.472388
-0.18841
-0.0366651
-0.408588
-0.414674
-0.409237
-0.42627
-0.3805
-0.391826
-0.397769
-0.397255
-0.374407
-0.38016
-0.374651
-0.391398
-0.0547903
-0.0439972
-0.0388448
-0.574598
-0.558743
-0.550525
-0.551316
-0.536255
-0.529336
-0.515714
-0.536468
-0.516421
-0.510402
-0.509859
-0.529024
-0.514415
-0.506412
-0.152012
-0.581546
-0.581732
-0.562822
-0.222747
-0.213795
-0.197506
-0.220475
-0.504788
-0.498831
-0.486027
-0.505615
-0.50611
-0.487576
-0.506356
-0.488772
-0.477415
-0.473073
-0.470391
-0.459827
-0.455738
-0.462153
-0.445223
-0.2669
-0.259479
-0.250581
-0.262684
-0.364623
-0.358947
-0.347581
-0.364664
-0.583401
-0.573783
-0.580431
-0.558452
-0.418448
-0.218747
-0.211061
-0.428775
-0.421529
-0.419417
-0.413384
-0.406805
-0.410712
-0.202353
-0.191179
-0.186475
-0.16632
-0.160391
-0.149263
-0.16559
-0.198619
-0.193556
-0.182276
-0.199983
-0.529335
-0.50846
-0.419501
-0.414755
-0.403843
-0.42113
-0.097212
-0.422943
-0.417985
-0.406294
-0.424827
-0.0347369
-0.0393161
-0.0344441
-0.0487422
-0.48699
-0.481105
-0.49594
-0.490409
-0.478104
-0.497075
-0.472804
-0.47953
-0.474182
-0.491532
-0.126851
-0.115564
-0.110339
-0.109476
-0.0920928
-0.0807448
-0.075364
-0.0167169
-0.00387353
-0.49792
-0.492327
-0.480588
-0.498446
-0.0570872
-0.0514753
-0.0415185
-0.055621
-0.563608
-0.551599
-0.545763
-0.545063
-0.523207
-0.516976
-0.532422
-0.525808
-0.512096
-0.532465
-0.525256
-0.510494
-0.501255
-0.504026
-0.526207
-0.513285
-0.506004
-0.507378
-0.427608
-0.422929
-0.427813
-0.413614
-0.429085
-0.431239
-0.418425
-0.46196
-0.462387
-0.459197
-0.465824
-0.578204
-0.570421
-0.576557
-0.556731
-0.364348
-0.358795
-0.347542
-0.364527
-0.536769
-0.530195
-0.536865
-0.517225
-0.330889
-0.325335
-0.314459
-0.330752
-0.0113705
-0.00573122
-0.101772
-0.0969082
-0.0932019
-0.0944153
-0.0881142
-0.0887584
-0.0854725
-0.0924453
-0.0937677
-0.0939027
-0.0884348
-0.398906
-0.393218
-0.38172
-0.39905
-0.393016
-0.381535
-0.375703
-0.375917
-0.393309
-0.381815
-0.376045
-0.3761
-0.401014
-0.405399
-0.391443
-0.363461
-0.357024
-0.344338
-0.362915
-0.166882
-0.155474
-0.150452
-0.125953
-0.114686
-0.131162
-0.0973503
-0.0800514
-0.0965144
-0.130349
-0.112897
-0.129483
-0.0278477
-0.0221681
-0.011128
-0.0274544
-0.217068
-0.21098
-0.453255
-0.464514
-0.583693
-0.431664
-0.557381
-0.223541
-0.257582
-0.57954
-0.555257
-0.426182
-0.559357
-0.570633
-0.536117
-0.416765
-0.53648
-0.382276
-0.449213
-0.398132
-0.465487
-0.46382
-0.474532
-0.0851096
-0.0886466
-0.0289951
-0.162049
-0.215416
-0.212951
-0.215114
-0.290301
-0.119147
-0.396823
-0.283506
-0.364834
-0.288139
-0.446252
-0.437408
-0.423372
-0.551267
-0.528151
-0.532325
-0.524591
-0.562529
-0.554163
-0.0931061
-0.0762197
-0.128387
-0.0603281
-0.110457
-0.126767
-0.513602
-0.535457
-0.02566
-0.510734
-0.432528
-0.459825
-0.528915
-0.324787
-0.561921
-0.0935848
-0.106764
-0.111833
-0.0372213
-0.0091893
-0.260648
-0.30819
-0.299794
-0.303282
-0.22616
-0.0912515
-0.197318
-0.316861
-0.301837
-0.29587
-0.230633
-0.0382699
-0.00589752
-0.00588531
-0.0626805
-0.564184
-0.47623
-0.230577
-0.248382
-0.25026
-0.326474
-0.232733
-0.25629
-0.261313
-0.0252122
-0.0100948
-0.0255958
-0.26317
-0.273162
-0.286095
-0.202821
-0.185838
-0.200853
-0.154025
-0.294366
-0.168695
-0.206919
-0.189345
-0.204881
-0.271179
-0.253447
-0.498086
-0.298324
-0.491262
-0.292551
-0.198459
-0.479722
-0.551855
-0.282521
-0.496186
-0.571555
-0.29718
-0.104078
-0.0887277
-0.0285854
-0.0727484
-0.0853784
-0.321043
-0.098468
-0.0406336
-0.480271
-0.562318
-0.108718
-0.0593713
-0.293
-0.244949
-0.434832
-0.349969
-0.557137
-0.595568
-0.594745
-0.263784
-0.151445
-0.484579
-0.569208
-0.290071
-0.271814
-0.171727
-0.273485
-0.265903
-0.252132
-0.431447
-0.231876
-0.143245
-0.229943
-0.219712
-0.313964
-0.179539
-0.185747
-0.0502421
-0.0405928
-0.0353223
-0.402539
-0.366847
-0.306453
-0.255818
-0.0202712
-0.0348893
-0.260406
-0.510412
-0.52969
-0.300527
-0.31809
-0.309377
-0.217918
-0.20079
-0.344537
-0.33034
-0.325139
-0.237827
-0.314228
-0.330804
-0.341542
-0.341887
-0.34733
-0.260461
-0.565582
-0.552803
-0.318674
-0.00754559
-0.117701
-0.07019
-0.0868808
-0.243464
-0.367856
-0.441361
-0.382834
-0.366837
-0.312375
-0.39879
-0.225691
-0.226436
-0.115844
-0.121467
-0.0798636
-0.314657
-0.323353
-0.186621
-0.216051
-0.211799
-0.227409
-0.187159
-0.459765
-0.0811246
-0.430923
-0.324298
-0.306195
-0.532219
-0.320115
-0.31934
-0.396663
-0.25057
-0.182901
-0.279475
-0.168532
-0.105532
-0.100815
-0.0470696
-0.124085
-0.165527
-0.0964644
-0.104116
-0.147361
-0.00400313
-0.0349345
-0.102713
-0.243516
-0.458948
-0.444693
-0.451665
-0.405484
-0.312975
-0.00811839
-0.18428
-0.39836
-0.391167
-0.148468
-0.589721
-0.0647663
-0.243329
-0.161333
-0.253047
-0.145222
-0.234974
-0.144163
-0.162514
-0.151394
-0.557725
-0.532814
-0.10379
-0.52658
-0.514172
-0.450013
-0.43324
-0.211712
-0.236267
-0.547325
-0.309281
-0.457205
-0.199904
-0.138235
-0.582105
-0.582726
-0.118581
-0.563228
-0.315151
-0.249822
-0.299389
-0.380052
-0.324513
-0.339043
-0.261342
-0.322893
-0.241836
-0.354607
-0.348764
-0.42432
-0.336738
-0.413212
-0.355104
-0.430571
-0.460524
-0.336968
-0.33097
-0.0824081
-0.469335
-0.46345
-0.451384
-0.385669
-0.469638
-0.408574
-0.449515
-0.435295
-0.445575
-0.382193
-0.422657
-0.445766
-0.462967
-0.393557
-0.450845
-0.445145
-0.500208
-0.594
-0.39797
-0.468741
-0.270377
-0.574668
-0.566401
-0.520237
-0.142475
-0.324759
-0.179638
-0.273682
-0.237635
-0.182327
-0.322497
-0.290358
-0.278908
-0.43952
-0.249324
-0.550474
-0.346281
-0.254115
-0.0117889
-0.22005
-0.279527
-0.567713
-0.426703
-0.314976
-0.392367
-0.299029
-0.297728
-0.4646
-0.338013
-0.133514
-0.384762
-0.239219
-0.5466
-0.224865
-0.059649
-0.0432715
-0.0584608
-0.228997
-0.582425
-0.0774538
-0.0576423
-0.119682
-0.0447745
-0.108502
-0.0424369
-0.0537885
-0.0502114
-0.337313
-0.316526
-0.23303
-0.493051
-0.29677
-0.441753
-0.075959
-0.397054
-0.00377839
-0.370696
-0.457105
-0.38516
-0.194915
-0.532554
-0.412508
-0.269413
-0.355966
-0.0274827
-0.0109108
-0.0746701
-0.438962
-0.481807
-0.417885
-0.46366
-0.492712
-0.263126
-0.45323
-0.310727
-0.1593
-0.372499
-0.256405
-0.179195
-0.239788
-0.225871
-0.155824
-0.581099
-0.238388
-0.253504
-0.42446
-0.245302
-0.249084
-0.219963
-0.238662
-0.0227079
-0.0281896
-0.0456247
-0.0284897
-0.575382
-0.0614759
-0.322977
-0.556485
-0.0628089
-0.264985
-0.543594
-0.0765211
-0.282404
-0.0923227
-0.433934
-0.159744
-0.564929
-0.176709
-0.174676
-0.113045
-0.417838
-0.150248
-0.130775
-0.331455
-0.362941
-0.283835
-0.132015
-0.295282
-0.463937
-0.325434
-0.594249
-0.390417
-0.357322
-0.224533
-0.444454
-0.371244
-0.0809361
-0.0621852
-0.0723358
-0.312276
-0.398005
-0.222851
-0.0910614
-0.327459
-0.412663
-0.33649
-0.342469
-0.423355
-0.110878
-0.127812
-0.451082
-0.0254317
-0.0495956
-0.215399
-0.262556
-0.085727
-0.448489
-0.23673
-0.224545
-0.318955
-0.245737
-0.256057
-0.410583
-0.330552
-0.235257
-0.18894
-0.243693
-0.444655
-0.412724
-0.039774
-0.585156
-0.0675319
-0.213816
-0.284629
-0.223632
-0.324639
-0.556461
-0.475556
-0.0770491
-0.447166
-0.214678
-0.473924
-0.555223
-0.278534
-0.273635
-0.487512
-0.578326
-0.295626
-0.42677
-0.363685
-0.280871
-0.0473003
-0.358229
-0.0413036
-0.0863942
-0.357296
-0.27741
-0.0693188
-0.285244
-0.363267
-0.346909
-0.0295053
-0.0788231
-0.250694
-0.25439
-0.570364
-0.0748557
-0.299138
-0.242322
-0.576268
-0.0103543
-0.269674
-0.437225
-0.261426
-0.381757
-0.449179
-0.015819
-0.412011
-0.279097
-0.276843
-0.199293
-0.509012
-0.116777
-0.180707
-0.481225
-0.0826431
-0.514582
-0.313467
-0.575277
-0.229503
-0.0345075
-0.372417
-0.227996
-0.0556002
-0.354461
-0.219453
-0.20354
-0.32205
-0.416334
-0.230688
-0.310903
-0.568427
-0.463677
-0.543744
-0.291614
-0.349668
-0.272072
-0.011388
-0.350518
-0.26522
-0.427941
-0.0147101
-0.122564
-0.143289
-0.0724765
-0.447318
-0.173647
-0.196326
-0.478714
-0.421114
-0.166631
-0.233976
-0.228687
-0.268325
-0.213405
-0.328082
-0.202775
-0.222084
-0.308247
-0.0633203
-0.257894
-0.235561
-0.506554
-0.467795
-0.226661
-0.392702
-0.432563
-0.364065
-0.598938
-0.257786
-0.340912
-0.458521
-0.332111
-0.191897
-0.573029
-0.550841
-0.224462
-0.484537
-0.24649
-0.448848
-0.338836
-0.415535
-0.28023
-0.212723
-0.459415
-0.244381
-0.488906
-0.333958
-0.324812
-0.500022
-0.188658
-0.10862
-0.0396256
-0.285486
-0.244507
-0.433693
-0.356969
-0.259477
-0.0261204
-0.0118011
-0.066882
-0.217465
-0.266638
-0.0451546
-0.445497
-0.52404
-0.440523
-0.475718
-0.406504
-0.0103811
-0.433622
-0.181528
-0.123722
-0.335144
-0.309258
-0.572249
-0.417922
-0.379912
-0.21057
-0.374291
-0.139646
-0.149551
-0.388547
-0.459653
-0.165627
-0.0839053
-0.0231295
-0.0820387
-0.147997
-0.0267819
-0.113815
-0.195807
-0.15197
-0.515633
-0.459318
-0.499586
-0.269935
-0.440619
-0.065817
-0.00582141
-0.307657
-0.243363
-0.0731944
-0.208445
-0.151107
-0.121808
-0.111222
-0.104751
-0.0313662
-0.302711
-0.380445
-0.270308
-0.0739567
-0.409798
-0.330655
-0.0777392
-0.137235
-0.448567
-0.524892
-0.275903
-0.198987
-0.144221
-0.454471
-0.330949
-0.142469
-0.348616
-0.475187
-0.556546
-0.257871
-0.166305
-0.386769
-0.35161
-0.124215
-0.352924
-0.430793
-0.32942
-0.144977
-0.0740664
-0.31402
-0.476499
-0.0366683
-0.318515
-0.103712
-0.337992
-0.325925
-0.178331
-0.245617
-0.358957
-0.533321
-0.544675
-0.313162
-0.428269
-0.354404
-0.0568886
-0.17724
-0.0552036
-0.0360719
-0.416216
-0.442277
-0.462721
-0.0393409
-0.399183
-0.0779285
-0.430693
-0.356137
-0.410264
-0.124217
-0.27817
-0.428691
-0.0102344
-0.402513
-0.060644
-0.341543
-0.429373
-0.446425
-0.37361
-0.0562891
-0.568056
-0.0527129
-0.241553
-0.347549
-0.243769
-0.464414
-0.332945
-0.409944
-0.26367
-0.146094
-0.215787
-0.229462
-0.00425774
-0.0101816
-0.0446188
-0.306108
-0.0883606
-0.466399
-0.0865411
-0.3199
-0.29735
-0.0687494
-0.0057273
-0.304649
-0.405594
-0.316044
-0.149014
-0.0222462
-0.0913135
-0.369003
-0.376639
-0.389811
-0.374972
-0.37733
-0.468859
-0.398796
-0.512607
-0.483589
-0.281955
-0.295232
-0.579288
-0.084044
-0.13295
-0.196017
-0.414006
-0.23894
-0.167386
-0.0936634
-0.487871
-0.418511
-0.420015
-0.423211
-0.404973
-0.0376063
-0.415336
-0.172322
-0.0778018
-0.077037
-0.0832018
-0.0774794
-0.131057
-0.442188
-0.367552
-0.119386
-0.113974
-0.117414
-0.427584
-0.352893
-0.0368609
-0.415857
-0.338003
-0.39825
-0.317041
-0.402674
-0.474377
-0.188741
-0.497775
-0.00903755
-0.0594978
-0.431503
-0.0235663
-0.135072
-0.354808
-0.118387
-0.129922
-0.136238
-0.128838
-0.112125
-0.100508
-0.116472
-0.133972
-0.37842
-0.189093
-0.392677
-0.205364
-0.134888
-0.336885
-0.187636
-0.344814
-0.56409
-0.34553
-0.544739
-0.216297
-0.235509
-0.35631
-0.341075
-0.0414359
-0.023622
-0.0749364
-0.0295514
-0.427026
-0.410225
-0.0207812
-0.0259236
-0.406666
-0.408596
-0.197307
-0.422137
-0.0997246
-0.37501
-0.376633
-0.390956
-0.123193
-0.114908
-0.196892
-0.1892
-0.173261
-0.0989376
-0.164793
-0.172953
-0.478979
-0.105582
-0.291113
-0.497626
-0.421797
-0.0530372
-0.457068
-0.384067
-0.445438
-0.37218
-0.443474
-0.0714604
-0.0047752
-0.036706
-0.271258
-0.0364867
-0.0419861
-0.0527883
-0.286522
-0.244641
-0.25494
-0.0205576
-0.00513851
-0.239747
-0.00507304
-0.00521294
-0.253598
-0.0208915
-0.237696
-0.00518906
-0.239211
-0.0104259
-0.534057
-0.602466
-0.438657
-0.212193
-0.516491
-0.23274
-0.535702
-0.596866
-0.553385
-0.305081
-0.357459
-0.15843
-0.33986
-0.136431
-0.355421
-0.159212
-0.139119
-0.140347
-0.0756031
-0.166112
-0.166153
-0.144895
-0.158422
-0.0968016
-0.0203252
-0.0981492
-0.338804
-0.0395922
-0.116026
-0.0325064
-0.165328
-0.194849
-0.294983
-0.0316601
-0.441686
-0.40279
-0.313151
-0.569136
-0.276297
-0.438899
-0.366009
-0.57542
-0.460985
-0.387246
-0.0963016
-0.32138
-0.435713
-0.134901
-0.158894
-0.26609
-0.224099
-0.194321
-0.25582
-0.23732
-0.226728
-0.338122
-0.443769
-0.230297
-0.419869
-0.243644
-0.359371
-0.00525614
-0.025957
-0.26836
-0.481596
-0.349068
-0.358578
-0.0943135
-0.331193
-0.410503
-0.316075
-0.309055
-0.28941
-0.284415
-0.440944
-0.45261
-0.387488
-0.330409
-0.264385
-0.381258
-0.00535715
-0.059125
-0.241843
-0.34188
-0.285045
-0.303216
-0.396412
-0.562747
-0.181434
-0.492181
-0.587262
-0.0206291
-0.17016
-0.01059
-0.0190622
-0.398637
-0.0210524
-0.00506186
-0.00515407
-0.0202382
-0.181216
-0.390728
-0.358029
-0.200408
-0.467357
-0.471769
-0.474031
-0.481473
-0.514908
-0.536801
-0.00577743
-0.0114957
-0.0655765
-0.0654035
-0.00553711
-0.0294717
-0.0814622
-0.0116317
-0.0705087
-0.023411
-0.0793532
-0.0291896
-0.290322
-0.0651994
-0.0474275
-0.0593845
-0.0654721
-0.0686846
-0.0702142
-0.084937
-0.296202
-0.300388
-0.301791
-0.397978
-0.317226
-0.272955
-0.272263
-0.201264
-0.546363
-0.545318
-0.237111
-0.550763
-0.567478
-0.209289
-0.481502
-0.55665
-0.562975
-0.575632
-0.406974
-0.277159
-0.458242
-0.477032
-0.428444
-0.427378
-0.43264
-0.442441
-0.127213
-0.182914
-0.14265
-0.148548
-0.331073
-0.478234
-0.480418
-0.196959
-0.383087
-0.371569
-0.365736
-0.537177
-0.205453
-0.219828
-0.101798
-0.0907422
-0.0923899
-0.137467
-0.120412
-0.132249
-0.138771
-0.464396
-0.400896
-0.427559
-0.429031
-0.432364
-0.440429
-0.460714
-0.167861
-0.0414336
-0.0473863
-0.0412124
-0.291109
-0.369159
-0.46649
-0.308256
-0.00823474
-0.0183032
-0.0581652
-0.0416242
-0.05242
-0.057574
-0.495766
-0.488235
-0.49134
-0.239408
-0.209172
-0.213404
-0.14175
-0.202962
-0.187531
-0.233066
-0.251822
-0.357772
-0.340036
-0.437383
-0.436687
-0.441599
-0.371281
-0.45116
-0.382442
-0.35119
-0.287894
-0.252777
-0.241344
-0.242701
-0.208254
-0.194759
-0.383817
-0.397976
-0.403195
-0.413605
-0.0810901
-0.0754594
-0.066786
-0.462355
-0.124955
-0.337392
-0.41275
-0.348719
-0.354471
-0.609415
-0.247764
-0.407455
-0.408174
-0.422785
-0.17761
-0.267756
-0.454573
-0.516142
-0.298212
-0.380898
-0.310843
-0.392291
-0.317557
-0.398407
-0.399416
-0.403741
-0.4134
-0.253537
-0.208543
-0.209187
-0.195742
-0.178265
-0.39477
-0.354437
-0.196558
-0.409787
-0.181757
-0.166134
-0.242601
-0.360426
-0.296486
-0.374515
-0.301603
-0.0950225
-0.0649289
-0.0668742
-0.0538309
-0.102926
-0.146397
-0.147665
-0.257351
-0.152663
-0.163864
-0.518385
-0.453692
-0.278915
-0.458887
-0.459029
-0.267035
-0.210774
-0.281068
-0.126
-0.515573
-0.527639
-0.542636
-0.456295
-0.518698
-0.525051
-0.537612
-0.227189
-0.223746
-0.389403
-0.271123
-0.272809
-0.192947
-0.213378
-0.339662
-0.0969651
-0.0317021
-0.278976
-0.0248762
-0.00990743
-0.0198152
-0.0246936
-0.292547
-0.0789814
-0.0682871
-0.0764125
-0.289146
-0.434171
-0.451167
-0.454755
-0.413928
-0.425342
-0.0565499
-0.0402819
-0.0506315
-0.0552768
-0.43304
-0.428732
-0.241614
-0.444773
-0.460029
-0.0198305
-0.0955907
-0.00749521
-0.0150409
-0.0181027
-0.00545058
-0.00553381
-0.0109696
-0.021838
-0.204408
-0.232747
-0.236367
-0.375309
-0.391376
-0.447974
-0.47797
-0.358955
-0.46853
-0.00997328
-0.313997
-0.329149
-0.246925
-0.163037
-0.362247
-0.404584
-0.420611
-0.492477
-0.387674
-0.255692
-0.150318
-0.274429
-0.173894
-0.20235
-0.197153
-0.184135
-0.206254
-0.210174
-0.43444
-0.1931
-0.209411
-0.388347
-0.385414
-0.373141
-0.177336
-0.176751
-0.101775
-0.104011
-0.187556
-0.00992166
-0.199826
-0.286674
-0.00495996
-0.00499314
-0.0197897
-0.407948
-0.407485
-0.0226112
-0.00585826
-0.0116746
-0.0233052
-0.549199
-0.547727
-0.0394699
-0.046299
-0.0588466
-0.293916
-0.23967
-0.255296
-0.165246
-0.165262
-0.159402
-0.147856
-0.534909
-0.528946
-0.293214
-0.279891
-0.28312
-0.275926
-0.0373576
-0.041996
-0.0337845
-0.296566
-0.104155
-0.517842
-0.524573
-0.537415
-0.449571
-0.365775
-0.366139
-0.371327
-0.382156
-0.576065
-0.577788
-0.203622
-0.291275
-0.463601
-0.307279
-0.307571
-0.503864
-0.551579
-0.341828
-0.345786
-0.170726
-0.179004
-0.189216
-0.279493
-0.297562
-0.220045
-0.239883
-0.434717
-0.252463
-0.25013
-0.241471
-0.21005
-0.0822079
-0.292773
-0.29407
-0.299425
-0.259593
-0.12584
-0.0638971
-0.046771
-0.114694
-0.118468
-0.0971325
-0.381708
-0.394609
-0.0840425
-0.0534737
-0.0398
-0.0492418
-0.0542954
-0.213284
-0.330488
-0.336704
-0.349193
-0.00500974
-0.00496726
-0.0199964
-0.0624013
-0.0632461
-0.430351
-0.215656
-0.222228
-0.0229308
-0.232964
-0.184653
-0.204307
-0.269431
-0.344265
-0.119279
-0.16587
-0.159298
-0.146842
-0.0583661
-0.0408158
-0.0969498
-0.0410871
-0.00583786
-0.443479
-0.454226
-0.213837
-0.100512
-0.0995232
-0.403133
-0.418315
-0.140379
-0.556814
-0.557055
-0.563617
-0.576749
-0.184971
-0.0516557
-0.0360395
-0.0410129
-0.0354579
-0.307833
-0.217863
-0.267276
-0.436755
-0.439009
-0.443039
-0.321015
-0.303883
-0.305131
-0.509211
-0.508395
-0.527042
-0.258821
-0.240323
-0.260091
-0.452654
-0.440402
-0.450036
-0.456702
-0.228124
-0.198398
-0.183043
-0.277614
-0.193594
-0.199243
-0.271289
-0.272022
-0.289576
-0.460953
-0.141163
-0.141814
-0.323219
-0.160678
-0.177037
-0.0778266
-0.0639799
-0.0680379
-0.0814045
-0.416274
-0.0944959
-0.0895189
-0.0784555
-0.274128
-0.419822
-0.407909
-0.401168
-0.0842018
-0.103317
-0.0904744
-0.0733266
-0.0793016
-0.347766
-0.362195
-0.389472
-0.00522289
-0.010186
-0.0209722
-0.261485
-0.211305
-0.222466
-0.449461
-0.464931
-0.54388
-0.289628
-0.481267
-0.498495
-0.491237
-0.442571
-0.543835
-0.510327
-0.509876
-0.528319
-0.344035
-0.194961
-0.358841
-0.178183
-0.275213
-0.256637
-0.249501
-0.308149
-0.308853
-0.325057
-0.508857
-0.51619
-0.410242
-0.10932
-0.0460456
-0.123133
-0.12926
-0.0229753
-0.120384
-0.101238
-0.106079
-0.0834122
-0.195706
-0.125096
-0.107739
-0.024863
-0.074737
-0.0928451
-0.364148
-0.126218
-0.330489
-0.330649
-0.366598
-0.462169
-0.436715
-0.434676
-0.453704
-0.14018
-0.145804
-0.143578
-0.471033
-0.468717
-0.189945
-0.201391
-0.410629
-0.416409
-0.428101
-0.374551
-0.392459
-0.423953
-0.407197
-0.404758
-0.102022
-0.10128
-0.0956944
-0.083685
-0.4288
-0.3754
-0.375026
-0.2266
-0.263091
-0.445677
-0.488543
-0.474112
-0.469765
-0.492584
-0.465556
-0.461107
-0.469997
-0.565635
-0.473676
-0.486804
-0.494409
-0.309991
-0.269349
-0.31162
-0.542342
-0.414685
-0.426296
-0.0633741
-0.0464272
-0.0579149
-0.400158
-0.41067
-0.380327
-0.222474
-0.394523
-0.23569
-0.228326
-0.264862
-0.337467
-0.280422
-0.412922
-0.42407
-0.234869
-0.252169
-0.0264967
-0.0107894
-0.0214635
-0.027003
-0.29894
-0.37173
-0.285043
-0.294361
-0.0386632
-0.293941
-0.281009
-0.275848
-0.266653
-0.262242
-0.264158
-0.0287565
-0.0115913
-0.0401586
-0.0405047
-0.0574248
-0.443667
-0.455593
-0.518831
-0.537553
-0.024202
-0.0266313
-0.0272395
-0.0306037
-0.0285069
-0.0301255
-0.0247317
-0.0100189
-0.0199395
-0.0249956
-0.51866
-0.534607
-0.0235882
-0.0230055
-0.437155
-0.448809
-0.458732
-0.451477
-0.388412
-0.387756
-0.287025
-0.195695
-0.357694
-0.337191
-0.404935
-0.405945
-0.0540853
-0.0392591
-0.0488814
-0.053401
-1.13066
-1.01794
-0.983264
-0.842381
-0.803052
-0.766205
-0.748604
-0.714253
-0.680058
-0.645161
-0.608698
-0.589594
-0.790497
-0.772356
-0.754694
-0.737379
-0.720266
-0.703232
-0.686172
-0.668995
-0.651605
-0.633877
-0.615641
-0.596711
-1.14689
-1.11543
-1.0357
-1.00246
-0.965891
-0.82096
-0.784322
-0.766668
-0.74933
-0.732212
-0.698281
-0.664264
-0.629358
-0.591693
-0.808094
-0.790136
-0.772551
-0.755247
-0.738145
-0.721175
-0.704276
-0.687396
-0.67048
-0.653446
-0.636131
-0.618237
-0.59928
-1.13179
-1.10029
-1.02115
-0.987528
-0.946648
-0.80121
-0.766814
-0.749838
-0.732954
-0.716142
-0.699386
-0.682676