# vtk DataFile Version 2.0
Unstructured Grid by M++
ASCII
DATASET UNSTRUCTURED_GRID
POINTS 15808 float
  0.773438   0.992188 0
  0.546875   0.914062 0
  0.875000   0.867188 0
  0.546875   0.890625 0
  0.679688   0.921875 0
  0.671875   0.929688 0
  0.890625   1.000000 0
  0.656250   0.992188 0
  0.593750   0.929688 0
  0.851562   0.937500 0
  0.898438   0.929688 0
  0.867188   0.921875 0
  0.593750   0.960938 0
  0.992188   0.671875 0
  0.742188   0.679688 0
  0.929688   0.929688 0
  0.601562   0.968750 0
  0.929688   0.921875 0
  0.921875   0.929688 0
  0.648438   0.992188 0
  0.929688   0.960938 0
  0.609375   1.000000 0
  0.929688   0.953125 0
  0.609375   0.953125 0
  0.742188   0.960938 0
  0.937500   0.945312 0
  0.523438   1.000000 0
  0.710938   1.000000 0
  0.710938   0.992188 0
  0.523438   0.734375 0
  0.523438   0.742188 0
  0.515625   0.742188 0
  0.507812   0.750000 0
  0.914062   0.968750 0
  0.585938   0.820312 0
  0.578125   0.820312 0
  0.546875   0.882812 0
  0.570312   0.835938 0
  0.710938   0.960938 0
  0.523438   0.703125 0
  0.914062   0.937500 0
  0.734375   0.960938 0
  0.726562   0.945312 0
  0.718750   0.945312 0
  0.710938   0.953125 0
  0.695312   0.953125 0
  0.695312   0.945312 0
  0.507812   0.687500 0
  0.601562   0.937500 0
  0.914062   0.906250 0
  0.609375   0.945312 0
  0.601562   0.945312 0
  0.898438   0.921875 0
  0.609375   0.976562 0
  0.734375   0.671875 0
  0.742188   0.984375 0
  0.546875   0.726562 0
  0.726562   0.984375 0
  0.726562   0.976562 0
  0.539062   0.718750 0
  0.539062   0.726562 0
  0.718750   1.000000 0
  0.734375   0.992188 0
  0.515625   0.625000 0
  0.570312   0.750000 0
  0.507812   0.804688 0
  0.687500   0.851562 0
  0.820312   0.796875 0
  0.593750   0.906250 0
  0.882812   0.500000 0
  0.898438   0.500000 0
  0.687500   1.000000 0
  0.695312   1.000000 0
  0.882812   0.562500 0
  0.703125   1.000000 0
  0.703125   0.992188 0
  0.695312   0.984375 0
  0.695312   0.976562 0
  0.507812   0.718750 0
  0.882812   0.492188 0
  0.882812   0.484375 0
  0.718750   0.710938 0
  0.781250   0.859375 0
  0.585938   0.601562 0
  0.570312   0.609375 0
  0.570312   0.617188 0
  0.515625   0.851562 0
  0.578125   0.843750 0
  0.578125   0.859375 0
  0.578125   0.890625 0
  0.585938   0.593750 0
  0.601562   0.914062 0
  0.945312   0.625000 0
  0.710938   0.734375 0
  0.882812   0.875000 0
  1.000000   0.820312 0
  0.703125   0.867188 0
  0.507812   0.812500 0
  0.796875   0.992188 0
  0.796875   1.000000 0
  0.804688   1.000000 0
  0.640625   0.835938 0
  0.804688   0.984375 0
  0.726562   0.718750 0
  0.976562   0.796875 0
  0.734375   0.984375 0
  0.578125   0.828125 0
  0.742188   0.976562 0
  0.570312   0.828125 0
  0.734375   0.976562 0
  0.742188   0.968750 0
  0.570312   0.820312 0
  0.734375   0.968750 0
  0.554688   0.710938 0
  0.796875   0.960938 0
  0.843750   0.843750 0
  0.921875   0.742188 0
  0.906250   0.929688 0
  0.625000   0.929688 0
  0.921875   0.914062 0
  0.921875   0.921875 0
  0.617188   0.921875 0
  0.867188   1.000000 0
  0.679688   0.984375 0
  0.687500   0.976562 0
  0.976562   0.742188 0
  0.664062   1.000000 0
  0.671875   0.984375 0
  0.914062   0.992188 0
  0.906250   0.992188 0
  0.906250   0.984375 0
  0.601562   0.992188 0
  0.929688   0.976562 0
  0.921875   0.976562 0
  0.921875   0.968750 0
  0.601562   1.000000 0
  0.617188   0.953125 0
  0.617188   0.968750 0
  0.617188   0.960938 0
  0.625000   0.960938 0
  0.507812   0.617188 0
  0.593750   0.757812 0
  0.851562   0.984375 0
  0.640625   0.968750 0
  0.632812   0.968750 0
  0.625000   0.968750 0
  0.937500   0.960938 0
  0.757812   0.695312 0
  0.945312   0.953125 0
  0.945312   0.945312 0
  0.937500   0.953125 0
  0.648438   0.953125 0
  0.953125   0.945312 0
  0.562500   0.750000 0
  0.562500   0.742188 0
  0.734375   1.000000 0
  0.742188   1.000000 0
  0.742188   0.992188 0
  0.554688   0.742188 0
  0.562500   0.718750 0
  0.554688   0.734375 0
  0.546875   0.734375 0
  0.742188   0.765625 0
  0.531250   0.750000 0
  0.507812   0.984375 0
  0.945312   0.679688 0
  0.632812   0.937500 0
  0.609375   0.960938 0
  0.882812   0.929688 0
  0.875000   0.929688 0
  0.585938   0.921875 0
  0.804688   0.937500 0
  0.593750   0.921875 0
  0.890625   0.921875 0
  0.867188   0.953125 0
  0.875000   0.921875 0
  0.585938   0.992188 0
  0.851562   0.843750 0
  0.609375   0.804688 0
  0.757812   0.953125 0
  0.773438   0.937500 0
  0.750000   0.953125 0
  0.765625   0.937500 0
  0.750000   0.945312 0
  0.515625   0.703125 0
  0.515625   0.695312 0
  0.507812   0.695312 0
  0.609375   0.632812 0
  0.539062   0.882812 0
  0.601562   0.632812 0
  0.632812   0.882812 0
  0.695312   0.921875 0
  0.625000   0.937500 0
  0.945312   0.968750 0
  0.937500   0.968750 0
  0.648438   0.898438 0
  0.640625   0.953125 0
  0.546875   0.742188 0
  0.867188   0.914062 0
  0.640625   0.945312 0
  0.656250   0.906250 0
  0.593750   1.000000 0
  0.640625   0.804688 0
  0.945312   0.710938 0
  0.632812   0.945312 0
  0.539062   0.734375 0
  0.695312   0.804688 0
  0.515625   0.757812 0
  0.703125   0.921875 0
  0.718750   0.882812 0
  0.664062   0.968750 0
  0.664062   0.960938 0
  0.671875   0.960938 0
  0.679688   0.968750 0
  0.687500   0.968750 0
  0.679688   0.960938 0
  0.992188   0.960938 0
  1.000000   0.960938 0
  0.515625   0.804688 0
  0.562500   0.523438 0
  0.906250   0.921875 0
  0.742188   0.773438 0
  0.914062   0.921875 0
  0.750000   0.773438 0
  0.562500   0.515625 0
  0.554688   0.515625 0
  0.585938   0.976562 0
  0.554688   0.523438 0
  0.539062   0.875000 0
  0.867188   0.945312 0
  0.859375   0.945312 0
  0.859375   0.937500 0
  0.578125   0.976562 0
  0.546875   0.523438 0
  0.539062   0.531250 0
  0.976562   0.828125 0
  0.562500   0.875000 0
  0.929688   0.945312 0
  0.929688   0.937500 0
  0.679688   0.703125 0
  0.554688   0.921875 0
  0.562500   0.898438 0
  0.632812   1.000000 0
  0.960938   0.953125 0
  0.960938   0.945312 0
  0.953125   0.953125 0
  0.851562   0.960938 0
  0.523438   0.890625 0
  0.617188   0.875000 0
  0.960938   0.585938 0
  0.570312   0.882812 0
  0.554688   0.890625 0
  0.664062   0.953125 0
  0.664062   0.945312 0
  0.968750   0.945312 0
  0.539062   0.523438 0
  0.515625   0.789062 0
  0.726562   0.804688 0
  0.664062   0.937500 0
  0.570312   0.968750 0
  0.539062   0.515625 0
  0.562500   0.906250 0
  0.570312   0.906250 0
  0.710938   0.820312 0
  0.656250   0.953125 0
  0.835938   0.515625 0
  0.531250   0.773438 0
  0.531250   0.765625 0
  0.515625   0.781250 0
  0.531250   0.523438 0
  0.523438   0.585938 0
  0.867188   0.773438 0
  0.710938   0.773438 0
  0.531250   0.515625 0
  0.523438   0.515625 0
  0.625000   0.875000 0
  0.851562   0.796875 0
  0.507812   0.546875 0
  0.554688   0.984375 0
  0.523438   0.531250 0
  0.960938   0.812500 0
  0.890625   0.492188 0
  0.546875   0.781250 0
  0.890625   0.500000 0
  0.546875   0.789062 0
  0.507812   0.820312 0
  0.671875   0.968750 0
  0.851562   0.531250 0
  0.695312   0.632812 0
  0.851562   0.789062 0
  0.539062   0.546875 0
  0.617188   0.882812 0
  0.640625   0.609375 0
  0.507812   0.906250 0
  0.531250   0.859375 0
  0.523438   0.859375 0
  0.523438   0.867188 0
  0.968750   0.992188 0
  0.968750   0.734375 0
  0.859375   1.000000 0
  0.859375   0.992188 0
  0.867188   0.984375 0
  0.523438   0.945312 0
  0.539062   0.960938 0
  0.578125   0.648438 0
  0.601562   0.921875 0
  0.515625   0.679688 0
  0.554688   0.945312 0
  0.585938   0.687500 0
  0.554688   0.882812 0
  0.593750   0.875000 0
  0.546875   0.945312 0
  0.890625   0.656250 0
  0.984375   0.976562 0
  0.828125   0.820312 0
  0.992188   0.968750 0
  0.531250   0.929688 0
  0.515625   0.585938 0
  0.585938   0.765625 0
  0.523438   0.820312 0
  0.515625   0.820312 0
  0.726562   0.835938 0
  0.523438   0.828125 0
  0.984375   0.945312 0
  0.812500   0.804688 0
  0.976562   0.953125 0
  0.976562   0.945312 0
  0.648438   0.921875 0
  0.382812   0.546875 0
  0.500000   0.695312 0
  0.492188   0.687500 0
  0.148438   0.976562 0
  0.281250   0.671875 0
  0.148438   0.968750 0
  0.460938   0.312500 0
  0.882812   0.593750 0
  0.484375   0.679688 0
  0.140625   0.968750 0
  0.273438   0.664062 0
  0.843750   0.468750 0
  0.234375   0.539062 0
  0.226562   0.531250 0
  0.671875   0.695312 0
  0.617188   0.640625 0
  0.250000   0.554688 0
  0.851562   0.476562 0
  0.242188   0.546875 0
  0.460938   0.531250 0
  0.281250   0.984375 0
  0.460938   0.546875 0
  0.460938   0.554688 0
  0.445312   0.156250 0
  0.257812   0.507812 0
  0.421875   0.554688 0
  0.281250   0.921875 0
  0.273438   0.914062 0
  0.273438   0.921875 0
  0.734375   0.687500 0
  0.109375   0.773438 0
  0.710938   0.703125 0
  0.406250   0.570312 0
  0.265625   0.968750 0
  0.445312   0.531250 0
  0.273438   0.976562 0
  0.453125   0.539062 0
  0.445312   0.539062 0
  0.453125   0.546875 0
  0.070312   0.773438 0
  0.640625   0.437500 0
  0.476562   0.812500 0
  0.851562   0.562500 0
  0.429688   0.281250 0
  0.023438   0.632812 0
  0.625000   0.562500 0
  0.023438   0.640625 0
  0.015625   0.632812 0
  0.617188   0.562500 0
  0.367188   0.304688 0
  0.789062   0.585938 0
  0.671875   0.867188 0
  0.046875   0.953125 0
  0.359375   0.296875 0
  0.804688   0.562500 0
  0.179688   0.648438 0
  0.781250   0.578125 0
  0.351562   0.289062 0
  0.773438   0.570312 0
  0.171875   0.648438 0
  0.414062   0.570312 0
  0.726562   0.625000 0
  0.101562   0.710938 0
  0.703125   0.640625 0
  0.718750   0.617188 0
  0.093750   0.703125 0
  0.492188   0.531250 0
  0.484375   0.531250 0
  0.500000   0.515625 0
  0.398438   0.656250 0
  0.046875   0.601562 0
  0.039062   0.593750 0
  0.500000   0.875000 0
  0.007812   0.625000 0
  0.609375   0.554688 0
  0.601562   0.546875 0
  0.421875   0.875000 0
  0.414062   0.867188 0
  0.476562   0.617188 0
  0.000000   0.648438 0
  0.601562   0.578125 0
  0.476562   0.789062 0
  0.937500   0.445312 0
  0.429688   0.562500 0
[...]
POINT_DATA 15808
SCALARS scalar_value float 1
LOOKUP_TABLE default
0
6.85449e-05
0
0.000365536
1.72861e-05
6.62031e-06
0
-2.15025e-09
8.40833e-06
0
0
0
-8.94742e-08
0
0.00179453
0
-4.5872e-08
0
0
-3.61077e-09
0
0
0
-8.82808e-08
0
0
0
0
0
0.0127271
0.0118196
0.0116027
0.0105232
0
0.00407715
0.00408073
0.000545107
0.00279995
0
0.0167671
0
0
0
1.41365e-10
0
2.20772e-09
-7.70908e-09
0.0189582
1.16814e-06
0
-1.55242e-07
-1.58272e-07
0
-4.12849e-08
0.00356779
0
0.0162835
0
0
0.0156345
0.0145734
0
0
0.0315841
0.024372
0.005103
0.000881726
0
0.000126487
0
0
0
0
0
0
0
0
0
0.014367
0
0
0.00547924
0
0.0618295
0.0478255
0.0448627
0.00180876
0.0022623
0.00138884
0.000356344
0.0639471
6.3795e-05
0
0.00571846
0
0
0.000110081
0.00445233
0
0
0
0.00243356
0
0.00313086
0
0
0.00339947
0
0.0033965
0
0
0.00406821
0
0.021276
0
0
0
0
7.78608e-06
0
0
2.6064e-05
0
0
-2.7123e-10
0
0
-1.55713e-10
0
0
0
-1.18123e-08
0
0
0
0
-8.17002e-08
-4.29446e-08
-8.48114e-08
-7.43063e-08
0.0334995
0.020083
0
-1.40353e-08
-2.56491e-08
-3.6354e-08
0
0.000276567
0
0
0
-1.25281e-08
0
0.0213257
0.0210608
0
0
0
0.0170474
0.0221529
0.0182891
0.0150442
0.000221009
0.0111647
-1.63594e-08
0
1.11068e-06
-8.94785e-08
0
0
2.7921e-05
0
2.75397e-05
0
0
0
-1.14179e-08
0
0.00557228
0
0
0
0
0
0.016634
0.0177808
0.0177208
0.0417674
0.000547039
0.0485556
0.000468179
2.78307e-06
1.11782e-06
0
0
0.000183294
-3.33777e-08
0.0137227
0
-7.64616e-08
0.000101952
0
0.00498353
0
-1.0471e-07
0.0134802
0.00271639
0.0098037
1.78675e-07
7.26302e-09
-5.00578e-10
-1.20951e-08
-6.0544e-09
8.64258e-10
6.66993e-10
-3.19672e-09
0
0
0.00514384
0.0711738
0
0.000160582
0
5.13196e-05
0.0734157
0.0687027
-4.02053e-08
0.0663669
0.000777239
0
0
0
-3.96653e-08
0.0630336
0.0587273
0
0.000769922
0
0
0.015154
2.89928e-05
0.000227768
0
0
0
0
0
0.00037079
0.000705932
0
0.000537059
0.000363822
8.64427e-09
-5.05427e-08
0
0.0610814
0.00655288
0.000273131
9.91105e-07
-4.25116e-08
0.0634429
0.000131855
0.000130832
0.000656239
6.51964e-09
2.18265e-08
0.00842485
0.00939309
0.00733355
0.0600719
0.041755
0
0.00282335
0.0624343
0.062012
0.000688882
0
0.0527426
-1.38321e-08
0.0573068
0
0
0.00785455
0
0.00716311
0.00385693
7.12139e-10
0
0.0220281
0
0.0541179
0.000493598
0.03859
0.000140132
0.00140422
0.00140762
0.00106822
0
0
0
0
0
-1.48524e-07
-8.29543e-08
0.0402217
2.71035e-05
0.0202782
-1.49608e-07
0.0435253
0.000542959
0.000744646
-1.48414e-07
0
0
0
0
9.06189e-06
0.0416028
0.0135448
0.00388027
0.00386471
3.4025e-05
0.00327689
0
0
0
0
2.32142e-05
0.0669773
0.0177051
0.0189785
0
0.00644325
0
0.156087
0
0.0204305
0
0.00522858
8.95175e-08
0.00195099
0.000826937
0.0169259
0.0354087
0.006978
7.35883e-09
0.00442063
0.066297
0
0.0597748
0.0568248
0.261921
0.00585602
0.074791
2.35565e-09
-1.7274e-10
-5.72249e-10
0.00291119
0
0.00836805
0.0691055
0
0.0752648
0
0.0670256
0.0712566
0.0631383
0
0.111821
0.00460161
0
0.201029
0
0.0670267
0
0
0.0590142
0.159405
4.65595e-05
0.000735092
0
0.151562
5.44014e-06
1.36756e-07
0.000160801
0.143968
0.000477455
2.10248e-08
0.0700943
0.00925565
0
0.0178242
0.0138892
0
0.0585589
0.0596205
0.0627384
0.0421959
0
0
0.000811919
0
0.0596267
0.0648056
0.000938093
0.00133288
0.0345587
0
0.0593277
0.00650875
0
0.0684625
7.87588e-09
3.44484e-06
1.90732e-09
0.000582068
5.2048e-07
0.000213048
0.0214167
2.43473e-07
4.88125e-06
0.000649648
0
0
0
0
0.0250181
0.00672122
0
0.0610737
0
0
-7.98324e-09
0.247307
6.42665e-07
0
0.0870408
0.0744746
0.0245368
0
0.00201475
0
0.0492168
0.0396471
0.0034944
0
0.0630636
0
3.49282e-05
0
2.13922e-07
0.0356235
0
0.0620799
0.0309651
0.232752
0.0645856
0
0.0656567
0
0
0
0
0.0749146
0.0756566
0
0
0.0148194
5.23157e-05
0
2.91445e-05
0
0
0.0186947
8.3373e-05
0.000578188
0
0.0768998
0
0.103989
0
0.109418
0.00716982
0.00787839
0.0162042
0.0100449
0.027009
0.0293262
0
0
0.0742052
0.000819052
0.0660869
0
0
0.0981826
0.0372914
2.63307e-07
2.21705e-07
0.00828205
0.00833772
0
0.0144434
1.09497e-10
0
0
0
0
0
0
0
0
0
5.82585e-05
0.0186035
0.0203417
-6.42306e-10
0
0.0363801
0.000807357
0.000577398
0
7.76084e-07
3.18491e-08
1.08705e-09
0
0.126088
0.0158444
0
0.124755
0.00445374
0.00509177
0.00577008
6.36352e-05
0
0.244288
0.24431
0
2.34248e-06
0.177763
0.000176235
0
0
0.01212
0.0829173
0.00207944
0
0.000481606
0
0.0670428
2.54196e-07
2.03933e-09
6.76623e-08
4.2099e-07
2.74887e-06
0
0.0050853
0.066127
0.0718448
0
0.0619329
0
0.000420327
0
5.38494e-05
4.61479e-10
0
0.00015693
0
2.7983e-06
1.08744e-08
0.00306845
0
0.00962785
0.00562401
0
0.0136042
0.00514411
0
0.00277321
0
0.0374955
0
0.0503172
0
3.89245e-07
0.000207028
0.066467
0
9.53892e-10
0
6.13688e-10
0
0.0111278
0
0.000266499
-9.15841e-10
0
0.0395991
0.057852
4.52319e-05
7.56585e-06
0.0605541
0
0
0
0.0863987
0.0836643
0.0151426
0.0135114
0
0.0127952
0.0123404
0.0114027
0
0
0.023078
0
0.0248666
0
0
0
0
0
8.1627e-09
0
0
0
0.0612586
0
8.63632e-08
0
0
0
0
0.0854055
0.0115819
0.0179676
0.0250865
0.00862773
0.00942938
0.0103594
0.00703782
0.0118156
0.00107846
2.15267e-09
0.00424081
0
0.00278516
0.00281964
0.0921671
0.0985145
0.066438
0.0648859
1.37692e-05
5.55749e-05
0.0858526
0.0530778
0.0560564
0.0537831
0
0.0839234
0.080334
1.26823e-06
1.18834e-10
0.0875248
0.102146
1.55645e-10
0
0.0669096
0
0.0694027
0
0.0719792
0.0961467
9.78213e-10
0.000168881
0
0.00144755
0.00184197
0.00227882
0.00184603
0.00229574
0.00233041
1.69903e-08
0
1.94107e-06
1.34125e-07
0
0
4.64159e-06
0.0458941
0.0536553
0.0450352
0
0.0478055
0.055383
0.0148384
0
0
0
0
0
0
0.0280891
0.0300062
0.0321397
0.0578529
8.15671e-05
0.0592969
2.8489e-05
0.00204067
0.00265442
1.65556e-06
0.000200883
0.000579627
0.0651939
0
0.000112895
0
0
0.000310322
0
0
8.55706e-05
0.00387145
0.00158865
0
0
0
0
0.000292907
0.00106492
0.0387864
0.0458374
0.0529642
0
0.00470988
0
0.00565882
0.000143527
0
0.046193
0.0488363
3.1322e-05
0
0
0.0308771
0
0.0233222
2.43646e-06
0
0
0
0.000884387
0.00120046
0
1.3362e-08
0
-1.02554e-10
1.3873e-08
0
0
0.0838673
0.000442054
0
0.0231364
0
0.022336
0.0246957
0
0.0533037
0.0461405
0
0.0478781
0
0.0279584
0
0.0275828
0.0310303
0.071489
0
0.054163
0.0264197
3.65724e-10
0
0
0
0
0
0.0379695
0
0
0.00296916
0
0.00212623
0
0.0016408
0.0171428
0
0.0204521
0
0.0595889
0
0.00057211
0
0.0658858
0.157331
2.98717e-08
0.00216864
0
0
0
0.00273232
0
0
0
0
0
0.00168011
0
0.000972379
0.0251469
0
0.0299911
0.00174262
0.0378928
0
0.0379464
0.0288852
0
1.11897e-08
0
0.272417
0.264078
0
0.00380422
0
0.25392
0.00853872
0.070629
0.00342018
0.0757303
0
0.00508793
3.00103e-05
0.0294029
0.0237911
0
0.000501896
0
0
0
0
0.0235543
0
0.0230958
0
0
0.00265544
3.83063e-09
1.6793e-08
0.00204204
0
0
0.255275
0.0131945
1.56368e-10
0
0
0.0159816
0
0.0145908
0
0.0274301
0.0148047
0
2.07939e-07
0
0.0846
0.0917469
0.0113244
0.00131348
0
0.0320023
0
0.018427
0.124965
0.0921971
6.50519e-05
1.56905e-10
0
0.0251382
0.0862291
0.000134837
0.0991023
0
6.3722e-10
0
0.0182921
0.0121051
0.018163
-1.34524e-09
0.00768214
0
0.147404
0
0.0134877
0.0938494
0
0.136647
0.0978855
0
0.0112262
2.11649e-09
0.0914164
0
0.000509331
0
0.0903524
0
0.0792102
0.00631996
0
0
0
0.0663143
9.29403e-08
0.0252568
0.000509263
0.0278122
0
0.00132305
0.0312582
0
0.0338569
3.54587e-05
0.0493379
0
0.00156991
0
0
0.00739547
0
0
0.00536363
0
0.00390373
0
-1.06163e-08
0
0.00271003
0
0.0021562
0
0.00112872
0
0
0
1.90685e-07
0.00163597
0
0.136155
0.00123234
0.00322898
0
0.0386407
0.0293739
0.0359711
0.0333005
0.00137689
0
0.00134564
0.011979
0
0.00039893
0
0.0863013
0
0.0106427
0.0841868
0.0118123
0
1.0335e-06
0.0808256
0.0821366
0.0102956
0
4.38147e-06
0.0797508
1.79835e-05
0.0783243
0.00173185
0
0.00237349
0
0.0403274
3.16719e-07
0
4.13751e-07
0.00376896
0.00178314
0.00074137
0.00770266
0
2.0434e-05
0
0
7.69709e-06
0
0
1.34379e-05
4.85702e-05
0
0.0262784
0.0509649
4.8318e-06
0.245659
0.0616908
0.0666631
0.0669084
0
0.01801
0
0.0215657
0.00164817
0.0557074
0.000559764
0
0.020719
0
0.205119
0
0
0.0205959
0.0698359
0.00151671
0.0131769
0.218308
0
0.230784
0.0291176
0.0948811
0
0
0
0.0769406
0
0.0222336
0.00077218
0.0546429
0.00533166
0.0322079
0.0411099
0.0512394
0
0.0575749
0
0.0148088
0.0632951
0.00171916
0
0.00948697
0.0892021
0.00729324
0
0.000208295
0.0502364
0
0.0149678
0.0584567
0.000699734
0
0.080084
6.76807e-05
0
0.00142372
0.0544089
0
0
0.0504762
1.67023e-05
0
0.000547825
0
0.11472
0
3.37843e-05
0.0315252
0
0.0378213
-5.04819e-10
0
0.0452263
0.0406149
0
0
0.000127516
0.30242
0.314151
3.15202e-10
0
0
2.19634e-05
0
0.34051
0
0.330278
0
5.0986e-05
0
0
0.0249495
0.331844
0.311356
0.0136265
0.0108699
0.0145894
0
0
0.00987757
0
0.000114731
0
0.000351744
0
4.94232e-06
0
0
5.88029e-05
7.88626e-08
0.0332875
0.0297636
0
0
0.00803885
0.0336552
0.0193982
0.265297
0.000214325
0
0.168026
1.37328e-07
1.30247e-06
1.1437e-05
0.00260495
0
0.00435097
0
0
0.00217274
0
0
0.00314501
0.000135991
0
0.0283811
0.0148796
0
0.000406038
0
0.000302613
0.0228863
0.0213315
0.236278
0.107878
0.196518
0.0238666
0
0
0.00379143
0.0324206
0.165865
3.81838e-05
0
0.000206792
0
0.0329309
0.0351061
-3.8167e-08
0
0.195804
0.0258778
0.0270826
0.200991
0.102236
0.00442548
0.0729089
0
4.95985e-05
0
0.00147876
0
0.00620287
7.39484e-06
0
0.187957
0.0199903
0
0.00152792
8.19884e-06
0
0.0131635
0.0161884
0.00870873
2.15926e-05
2.73016e-09
-1.16942e-07
0
0
2.90793e-06
0
5.53358e-06
0.0274291
0
0.00276969
0
0.00387708
0
0.0142943
0
2.21233e-09
0.0108716
0.0148598
0.00518527
0.113917
0
0.0714472
0
-1.0241e-08
0.262457
0
0.0150921
0
0.0131048
0
2.4821e-10
0.0644542
0.0778416
0.0175266
0
0
0.000536543
0
0.000157535
1.26303e-08
1.32252e-05
0.0209422
0
0
0.00117818
0.00146298
0.027001
0
3.98548e-06
-1.5161e-09
0
0
0.0630999
0
0.00345292
4.76487e-07
0
0
0.0157913
-6.99919e-08
0.0284948
0
0
-5.81969e-08
0
0
0.110205
0.00294501
0.0164178
1.95217e-09
0
0
1.52339e-05
3.55149e-07
0
1.79788e-05
0.0345706
0
0
0
0
0.000115785
2.76563e-06
0
8.00782e-05
0
0.0856564
0.0133351
0
6.20806e-05
1.13601e-09
0.104999
0
0.00227608
0.284654
0
8.20241e-08
0.00933903
0
0
0
0.00222157
0
0
0.000459374
0.0194785
0
9.73515e-06
-5.74761e-09
0
0.00242891
0.00461703
0.0355746
0
0
0.00250847
0
0
0.00107051
0
2.98316e-09
0
7.56075e-05
0
3.06712e-08
0.0111051
0
0.00306048
3.52966e-06
0
6.90228e-10
0
0.0731969
0.00180856
0
0
0
-3.01081e-08
6.83737e-08
0
0
0.000211494
0
0
0
7.21799e-07
0.000712399
0.0518019
5.66958e-08
0
0.000106035
0
0.000105752
0
0
0
3.93697e-08
2.84528e-10
0
0.00120987
0
0.00125184
0.00139272
0
0.000851077
0.127718
0.00279294
0.000880481
0.00035066
0.0187926
5.04918e-05
8.93298e-06
1.56184e-06
0
5.20132e-05
0.0872418
0
0.0202576
7.91924e-07
0.0395563
0.0177396
2.17482e-06
0.035728
0
0
0.0092622
0
0.057989
0.0504131
0.000917507
0
0
0
0
0
0
0.0621389
0.0441869
0.00231767
0
0.0413761
0
0.000268177
0
0
0.0163597
0
0.00144091
0.000286675
1.79773e-06
0
0.000475081
4.40112e-06
0
4.58714e-06
0.0504368
0.0511919
1.34302e-05
0
0
0
0.00189592
0.0226896
0
0
0
0
0.00795018
0.00188939
0
7.11823e-07
1.734e-05
0
0
1.72104e-07
0.0198901
0.00113259
3.30773e-05
0
0.0340788
0.0201178
0.0374169
0.0465367
0.0180419
1.53671e-06
0
0.0266773
0.0171101
0
0.0296973
-6.57503e-10
0
9.13863e-10
0.000536097
0
0
7.65436e-05
1.13034e-07
0
7.35928e-09
0
0
0.000137233
0
0
0
0.00196702
0.000156083
6.00489e-07
0
0.0600888
0.0487641
0
0.0037756
0.0686401
6.0834e-05
0
0.00515255
0
0
-6.06249e-10
0
0.00358964
0
0
0
0.000219628
0
5.61516e-06
0.00444748
0
0
0
0
0.0011766
2.07768e-05
0.00061822
0
0
0.000194021
0
0.00274774
0
0.00153964
5.64349e-09
0
0.0750216
0.00761095
0.0327657
0
0.0170711
0.0408193
0.0604699
0.0373804
3.36131e-06
0
0.000809478
0.0632399
0
2.08338e-05
-1.23508e-08
0
0.00812515
0
4.06838e-05
7.49114e-05
0
0.295441
0.125817
0
0
0
0
0.00105921
0
0
8.20489e-05
6.80202e-06
0
0.041802
0
0.0683064
0
0
0.0112186
3.19328e-05
0
0.0224517
0
0.0104111
0.0103227
0
0.00955168
5.93798e-06
7.10628e-06
0.0245546
0
0
0.00053164
0
0
0.000792395
0.00392271
0
6.90033e-10
0
0
0.000311879
0
0.000312577
0.000101064
0
0
0
0
3.47549e-05
0.000992736
4.17936e-10
0
5.41514e-10
6.45939e-08
0
0
0
0
6.2737e-05
0.0236069
0
0
0.0163555
0
0.023039
0
0
0.0190513
0.0354651
0
0
0
0.0123036
0.000313184
0.0295186
0
0.000190143
0
6.2858e-09
4.64713e-07
-1.41296e-10
0
0
0.0842825
0
0.00755492
0.126508
0.0133469
0.0932223
0.00831709
0
0.0127838
0.114448
0.0105479
0.0789716
0.0899787
4.83441e-09
0
0.11389
0
0
0.000796327
0
0
0
0.00149929
0
0
0.00226046
0
3.7949e-07
0.041238
0
0.0417434
0.0030608
0.0710593
0
0.00103875
0
0.00135166
8.42582e-07
0.006748
0
0
0.0594273
0
0.0469594
0
0
0
0
0
0.0613031
0
0
0
0.00643651
0
0.0609081
1.64519e-10
0
0
0.0114283
0
0
0.0113755
1.61408e-08
0.0521098
0.00398737
0
1.47176e-10
0
0.0475108
0
0.0409701
0
0.0451213
0
0.0421894
0.0579466
0.0432214
0.0142774
0
0.242686
0
6.21645e-05
-3.55551e-10
0
0
7.10344e-10
0
5.41279e-10
2.24097e-06
0
4.41315e-08
0
0.0149295
0
0.0105277
5.02879e-09
-1.51495e-10
1.16435e-10
4.10753e-10
0.0649216
0.000603543
0.0402118
0.0175291
0.0145627
0.110015
0
0
0.0163129
0
2.34484e-05
0
0
4.59689e-06
0
0
-5.95992e-10
0
0
8.06864e-06
0.0484279
7.85055e-06
0.0218773
0.0191426
0
0.017461
0
0
0
0.0197356
0
0
0.0167585
0
0.0239759
3.71135e-05
0
0
2.48027e-05
0.020785
0.0622174
0.000486096
0.061047
0.000190146
0.0602692
1.91041e-06
0
0.000124596
0.125665
0
0.0669582
0.00128333
3.90092e-07
1.53871e-10
0
0.0210976
0
0
0
3.47975e-09
0
-1.39492e-10
0
0
0
-2.06958e-10
0.0460971
0
0.0423493
0.0652961
0.0466622
0
0.0716048
0.0643458
0.0479925
0
0.000221285
0.0298556
0
0.0223457
0
0
2.75341e-08
0
2.94229e-06
3.13483e-07
0
0.0625712
0
0
5.82623e-05
0
0.085407
0.00112397
0
0.000451362
0.0433848
0.0358003
0.000172475
0.000111774
0
0
0.000267137
1.25608e-05
0
3.07664e-07
0.0132734
0
1.22403e-09
3.03667e-08
4.52906e-08
0
8.50841e-07
2.76997e-09
0.0569543
0.00148633
0
0.000116793
0
0.0763725
0
5.98706e-05
0
4.60709e-06
0
0.0154653
0.0442735
-2.20897e-09
0.0611496
3.06605e-07
7.11129e-06
2.13125e-05
0.0128221
0
0.0118139
0.0902672
0
0
0.0113581
0
0.0478095
0.0675779
3.42978e-05
0
0.000533449
0.000186611
0.0635997
0.0830193
0.0028818
0.000122188
0
0.0013218
0
0.0334291
0.0356433
1.16044e-05
0.00280164
0.0142036
0.0132443
0.0312017
9.63981e-10
0.0255531
0
0.175718
0.0239597
0
0.190988
0.0253295
0
0.0232845
0
2.16957e-09
4.14631e-05
8.15053e-07
1.15531e-07
0.0163691
0.0171288
0
0.0189963
0.0131671
1.16971e-07
5.8737e-05
0.0471496
0
0.000119674
0.0115857
9.40414e-07
2.1375e-05
0.000873454
0.00049788
0.0249981
0
0
0.00102924
1.37869e-06
0
0
0.035541
0
-6.72477e-10
0
-3.37655e-09
0
0.00625771
0.0641636
0
0.00184499
0
0.0190459
0.0479098
0
0.0404947
0
0.00826943
0.0261178
0
0.0233899
0
0
0
-2.46071e-08
0.000200393
0
0.0176955
0
9.58074e-05
0
0.00142484
7.00568e-05
0
0.00214257
0.000150586
0
0.0103861
0.0760456
0.0123615
0.0764444
0.00889525
0.0756733
0
1.00442e-05
0.0624606
0
0.0759587
0.0781856
0.0055446
0.00739099
0.0989713
0.0397033
0
0.0612358
0.05381
0
0
0.0089827
0.0087197
0.00750006
0.00724727
0
8.55402e-08
-3.56624e-09
0
4.69963e-07
0
1.4495e-07
0
0
0
0
-1.06516e-08
0
7.64501e-10
0.0412815
0.0317594
0
0.00241199
0
0
0.0231435
0.0040984
0.00333002
5.44301e-05
0
7.95827e-06
2.66117e-05
0
0
-5.3375e-10
0
0
0.0338087
0
0.0514188
0.000266321
0
0.000600549
0.00378552
0.0570113
0.0554356
0.0536162
0.0507398
0.0119814
0
0
0.00670091
0
0.00537883
0
0
0.00558963
0.00601408
0
0
0.0841332
0.0741596
0.124746
0.11082
0.0976365
0.126392
0.113057
0.0954086
0.081985
0.0754529
0.0111905
0
0
0.00621554
0
0
0.0018217
0.0103812
0
0
0.0103725
0.0306254
0.0165479
0.0152922
0.000513344
0.000336673
0
0.000342867
0.00391581
0.00331079
-8.00853e-09
0
0.0438049
0.0463701
0.0494273
0.0432025
7.16667e-06
9.8008e-05
0
2.4073e-05
0
7.41284e-06
0.0535037
0.00186834
-1.0172e-09
0
1.69259e-10
0
0
0.00145231
0
0
0
0
0
0
0
0.00339528
0.00277199
1.2895e-05
0.0159659
0
0
0.023207
0
0
0
0
0.00663997
0.276503
5.09384e-05
0.328787
0.118777
0.00387352
0.000979406
0.00334559
0.0010689
-3.95289e-08
4.39492e-06
1.6376e-07
2.08286e-06
0.0926269
0.0993448
0.101851
1.16749e-10
0.00248279
0.00286699
0
0
1.32074e-05
0
0.352041
0.156175
0.117637
0.100439
0.111795
0.0944081
0.0970152
0.0955814
-7.66413e-08
0.108257
0
4.81382e-09
0.17618
0.105928
0.114088
0.119905
0.121369
0.118084
0.108106
0.103347
0.119455
0.124764
5.80712e-05
0.0475204
1.92308e-06
0.000602623
0
0.399778
5.64521e-05
0.339469
7.63042e-08
0.146894
0.0734037
0
0.000345059
0.376087
0.000149826
0.0815711
0.267311
0.304624
0.265967
0.263158
0.298639
0.00435983
0
0.309731
7.61103e-09
0.195823
1.17312e-08
0.0825686
1.40775e-09
0
0.00108095
-4.01523e-08
1.17965e-07
0
0.326455
7.61863e-05
0.000583885
0
-7.16555e-08
0.214493
4.26184e-07
-3.89456e-08
0.209941
0
0.0135786
0
0.39141
0.229622
1.1676e-10
0.000106965
0.00103067
0.000190284
0
0.246085
1.19434e-06
0
0.0080849
0.0994078
0.0381342
0.0311722
0
0.042376
8.45919e-07
0.000259455
0
0.000489733
0.0835514
-1.35058e-10
0.22181
0.223236
2.72107e-08
0.299826
8.63234e-07
0.0803467
0.000104654
0
0
0.0288345
0.0758458
5.8e-07
0.141516
-1.23701e-09
0.38619
0.0123224
0
0.00426745
7.65169e-05
0
0.0200497
0.324195
0.0104591
0
0.328297
0.138626
0.142412
0.333514
2.22144e-09
0.210376
0.256039
0.104142
0.261115
0.258712
0.0796741
0.00123686
7.12283e-05
0
0.266522
0.00269893
0.0443673
2.25032e-07
0
0.3064
0.0289481
0
0
0.0249505
0
0
4.70577e-10
0.399293
2.03144e-10
0.369852
0.0185939
0
0
0
0.195016
0.199645
0.04147
1.82651e-06
0.0901732
0.0305785
0.139527
1.12426e-07
0.137738
-3.61618e-08
-3.87567e-08
3.43124e-05
0.0382454
0
2.63618e-05
0.102466
0.0433243
0
2.90578e-10
0
3.61825e-05
0.347344
0
-7.67701e-08
0.08773
0
0.357081
-8.01832e-08
0
0.000103344
0.0346031
0.0120278
3.6621e-05
-3.90679e-08
0
0.0251838
0.349357
2.0177e-10
0
0.167231
1.91349e-10
0.0242378
0
0
1.64985e-10
0.000383549
0
0.277572
0.151911
0.151687
1.4035e-06
0.159431
1.40216e-06
0.0565664
0
0.164432
3.21619e-05
0.0974711
0
0.276482
0.0209078
0.301117
-1.08055e-08
0.0509772
0.263015
0.0986788
0.097819
0.0198136
0
2.9711e-10
0.0486669
0
0.0013203
0
0
0
0
0.342127
0.347121
0.181591
0.106576
0.271732
0.000384257
0
0.000643113
0.108291
-3.64261e-08
2.87805e-08
-3.34614e-08
0.225703
0.183562
0.00014886
0.0634879
0
0.267679
0.0833221
0.00026137
0.0649656
0.355774
0
0
0.311533
1.68645e-10
0
0.0971041
0
0
0.12125
0.124762
4.87599e-08
0.000653049
0
0.160845
0.0191822
0.0125444
0.171282
0
0.021789
0.192243
0.00254067
0
0.165571
6.07654e-10
0
0.346994
0.162864
0
-6.11346e-10
0.0209026
4.15645e-07
0.000229614
1.12912e-10
0.152294
5.67603e-08
0.138437
0.165259
0.206847
0
0.210497
0.12359
0.274292
0.107011
6.84932e-08
0.142684
0.169532
0.0154834
0
0.0027987
0.00163121
4.98941e-05
1.67011e-07
2.13479e-07
0.119105
4.60411e-06
0.000140479
0
0.0422837
0.0153924
3.7984e-08
0.283222
0
0.0272598
0
0
0.0238903
4.78252e-10
0.157139
0
5.62792e-05
1.32175e-06
0.000881354
0.308151
0
0
0.312037
0
0.00387096
5.03098e-08
7.60674e-08
0.31745
0
0.149603
4.8677e-05
0.29161
0.0365742
0.00154904
9.0578e-05
1.62712e-05
0.000605903
0
0
0
3.41714e-05
0.0494675
0.0127515
0
0.40272
0
0.119425
0.0282144
0.00352689
0.203832
1.54183e-10
0.114359
0.0302551
0.00216935
0.336162
0.000707741
0.0094471
0
0.00482818
0.00214157
2.05635e-05
0.0417254
4.30213e-07
0.207596
0.11844
0.295311
0.129742
0.144309
0
0
0.312337
0.113752
0.00942686
0.00361416
0.143874
1.32138e-07
0.0951046
0.0507146
1.58668e-07
0.00956443
2.34561e-07
0.0167589
0
2.50271e-06
0.00019605
0
0.218093
0
0
0
0.102188
-7.4141e-10
0.0896657
2.76673e-05
0.0571415
6.00049e-06
0.206069
0.0775626
1.00028e-09
0.254151
0.152465
0.000781442
0
9.07483e-05
0
0.00119472
0.0530928
0.202101
0
0.00403167
0.000188078
0
0.19547
0.361572
0.246242
0.066493
0.0915268
0
0.148938
0.0166414
0
3.94652e-05
0.000131296
0
0
0
0.0639323
8.07524e-06
0.00270116
0
3.82225e-08
3.70738e-08
0.0801004
0.0576125
0
0.00344622
0.0674198
1.76152e-05
0.254248
0
0.302773
9.49122e-06
0.00166614
0.00319489
0.0185107
0
0.00300669
0
0.0593549
5.94126e-05
0.12985
0.0102523
0
0.00258548
0
1.94693e-09
0.0963943
0.0738754
0
0.0291059
0.130576
6.35444e-07
0.0928831
0
0.164826
0
0
0.00506529
0
0
0.153548
0.161709
0.169021
0
0.00143064
0
0.35865
0.00769167
0
0.0306933
6.24945e-07
0.187076
0.215299
0.00566719
4.89403e-05
0.0100626
0
0.00228598
0.00183319
0
0
0