# vtk DataFile Version 2.0
Unstructured Grid by M++
ASCII
DATASET UNSTRUCTURED_GRID
POINTS 289 float
  0.562500   1.000000 0
  0.562500   0.937500 0
  0.625000   0.625000 0
  0.562500   0.875000 0
  0.625000   1.000000 0
  0.562500   0.625000 0
  0.625000   0.937500 0
  0.562500   0.562500 0
  0.562500   0.812500 0
  0.562500   0.750000 0
  0.562500   0.687500 0
  0.625000   0.875000 0
  0.625000   0.812500 0
  0.625000   0.687500 0
  0.625000   0.750000 0
  0.687500   0.125000 0
  0.875000   0.062500 0
  0.750000   0.437500 0
  0.687500   0.062500 0
  0.875000   0.000000 0
  0.937500   0.375000 0
  0.687500   0.000000 0
  0.937500   0.312500 0
  0.625000   0.125000 0
  0.625000   0.062500 0
  0.812500   0.000000 0
  0.875000   0.375000 0
  0.687500   0.375000 0
  0.625000   0.000000 0
  0.875000   0.312500 0
  0.750000   0.375000 0
  0.750000   0.312500 0
  0.562500   0.375000 0
  0.625000   0.562500 0
  0.625000   0.500000 0
  1.000000   0.000000 0
  1.000000   0.187500 0
  0.750000   0.187500 0
  0.687500   0.687500 0
  0.000000   0.187500 0
  0.750000   0.750000 0
  0.062500   0.250000 0
  0.875000   0.750000 0
  0.875000   0.812500 0
  0.187500   0.312500 0
  0.437500   0.312500 0
  0.687500   0.812500 0
  0.000000   0.375000 0
  0.500000   0.375000 0
  0.937500   0.812500 0
  0.937500   0.875000 0
  0.250000   0.375000 0
  0.375000   0.250000 0
  0.812500   0.687500 0
  0.812500   0.750000 0
  0.125000   0.250000 0
  0.500000   0.250000 0
  0.937500   0.687500 0
  0.250000   0.187500 0
  0.250000   0.250000 0
  0.750000   0.250000 0
  1.000000   0.750000 0
  0.312500   0.250000 0
  0.312500   0.312500 0
  0.812500   0.312500 0
  0.562500   0.312500 0
  0.500000   0.812500 0
  0.375000   1.000000 0
  0.500000   0.562500 0
  0.437500   0.187500 0
  0.687500   0.187500 0
  0.687500   1.000000 0
  0.000000   0.500000 0
  0.937500   1.000000 0
  0.250000   0.562500 0
  0.250000   0.500000 0
  0.437500   0.750000 0
  0.625000   0.375000 0
  0.562500   0.000000 0
  0.500000   0.875000 0
  0.375000   0.125000 0
  0.812500   0.562500 0
  0.125000   0.062500 0
  0.125000   0.125000 0
  0.875000   0.187500 0
  0.875000   0.125000 0
  0.437500   0.500000 0
  0.875000   0.937500 0
  0.187500   0.437500 0
  0.187500   0.500000 0
  0.937500   0.125000 0
  0.125000   0.687500 0
  0.125000   0.750000 0
  0.375000   0.750000 0
  0.312500   0.687500 0
  0.500000   0.625000 0
  0.250000   0.625000 0
  0.750000   0.812500 0
  0.062500   0.312500 0
  0.062500   0.375000 0
  1.000000   0.812500 0
  0.312500   0.375000 0
  0.937500   0.750000 0
  0.250000   0.312500 0
  0.500000   0.312500 0
  0.687500   0.437500 0
  0.000000   0.000000 0
  0.500000   0.000000 0
  0.937500   0.437500 0
  0.250000   0.000000 0
  0.437500   0.250000 0
  0.875000   0.687500 0
  0.187500   0.250000 0
  0.375000   0.062500 0
  0.375000   0.000000 0
  0.375000   0.375000 0
  0.375000   0.312500 0
  0.812500   0.812500 0
  0.125000   0.312500 0
  0.875000   0.875000 0
  0.187500   0.375000 0
  0.437500   0.437500 0
  0.437500   0.375000 0
  0.687500   0.937500 0
  0.687500   0.875000 0
  0.000000   0.437500 0
  0.937500   0.937500 0
  0.250000   0.437500 0
  0.500000   0.500000 0
  0.500000   0.437500 0
  1.000000   0.875000 0
  1.000000   0.937500 0
  0.312500   0.437500 0
  0.750000   0.875000 0
  0.062500   0.437500 0
  0.562500   0.500000 0
  0.562500   0.437500 0
  0.750000   0.562500 0
  0.062500   0.125000 0
  1.000000   0.562500 0
  1.000000   0.625000 0
  0.312500   0.125000 0
  0.562500   0.125000 0
  0.812500   0.937500 0
  0.125000   0.500000 0
  0.375000   0.500000 0
  0.437500   0.000000 0
  0.937500   0.562500 0
  0.937500   0.500000 0
  0.250000   0.062500 0
  0.687500   0.500000 0
  0.000000   0.062500 0
  0.500000   0.062500 0
  0.687500   0.625000 0
  0.687500   0.562500 0
  0.000000   0.125000 0
  0.937500   0.625000 0
  0.250000   0.125000 0
  0.500000   0.187500 0
  0.500000   0.125000 0
  0.875000   0.562500 0
  0.187500   0.062500 0
  0.437500   0.125000 0
  0.437500   0.062500 0
  0.750000   1.000000 0
  0.750000   0.937500 0
  0.062500   0.500000 0
  1.000000   1.000000 0
  0.312500   0.500000 0
  0.812500   0.625000 0
  0.125000   0.187500 0
  0.375000   0.187500 0
  0.875000   0.625000 0
  0.187500   0.187500 0
  0.187500   0.125000 0
  0.750000   0.687500 0
  0.750000   0.625000 0
  0.062500   0.187500 0
  1.000000   0.687500 0
  0.312500   0.187500 0
  0.687500   0.750000 0
  0.000000   0.312500 0
  0.000000   0.250000 0
  1.000000   0.500000 0
  0.312500   0.062500 0
  0.562500   0.062500 0
  0.375000   0.437500 0
  0.625000   0.437500 0
  0.750000   0.500000 0
  0.062500   0.062500 0
  0.062500   0.000000 0
  0.812500   0.875000 0
  0.125000   0.437500 0
  0.125000   0.375000 0
  0.500000   0.750000 0
  0.500000   0.687500 0
  0.250000   0.687500 0
  0.000000   0.687500 0
  0.312500   0.750000 0
  0.062500   0.750000 0
  0.125000   0.812500 0
  0.375000   0.812500 0
  0.375000   0.687500 0
  0.375000   0.625000 0
  0.125000   0.625000 0
  0.000000   0.750000 0
  0.250000   0.750000 0
  0.187500   0.687500 0
  0.500000   0.937500 0
  0.000000   0.875000 0
  0.000000   0.937500 0
  0.250000   0.937500 0
  0.437500   0.562500 0
  0.875000   1.000000 0
  0.187500   0.562500 0
  0.312500   1.000000 0
  0.000000   0.812500 0
  0.250000   0.875000 0
  0.250000   0.812500 0
  0.187500   0.750000 0
  0.187500   0.812500 0
  0.437500   0.812500 0
  0.062500   1.000000 0
  0.062500   0.937500 0
  0.937500   0.187500 0
  0.937500   0.250000 0
  0.000000   0.625000 0
  0.000000   0.562500 0
  0.312500   0.812500 0
  0.062500   0.812500 0
  0.125000   0.875000 0
  0.375000   0.937500 0
  0.375000   0.875000 0
  0.500000   1.000000 0
  0.000000   1.000000 0
  0.250000   1.000000 0
  0.437500   0.687500 0
  0.437500   0.625000 0
  0.187500   0.625000 0
  0.312500   0.937500 0
  0.312500   0.875000 0
  0.062500   0.875000 0
  0.062500   0.562500 0
  0.312500   0.625000 0
  0.312500   0.562500 0
  0.125000   0.937500 0
  0.062500   0.687500 0
  0.062500   0.625000 0
  0.125000   1.000000 0
  1.000000   0.250000 0
  1.000000   0.312500 0
  0.187500   0.875000 0
  0.437500   0.875000 0
  0.812500   1.000000 0
  0.125000   0.562500 0
  0.375000   0.562500 0
  0.187500   0.937500 0
  0.437500   1.000000 0
  0.437500   0.937500 0
  0.187500   1.000000 0
  1.000000   0.062500 0
  0.750000   0.000000 0
  0.750000   0.062500 0
  0.875000   0.437500 0
  0.187500   0.000000 0
  0.875000   0.500000 0
  0.812500   0.062500 0
  0.812500   0.125000 0
  0.812500   0.250000 0
  0.562500   0.187500 0
  0.562500   0.250000 0
  0.625000   0.312500 0
  0.312500   0.000000 0
  1.000000   0.437500 0
  0.937500   0.062500 0
  0.125000   0.000000 0
  0.812500   0.500000 0
  0.750000   0.125000 0
  1.000000   0.125000 0
  0.812500   0.187500 0
  0.625000   0.187500 0
  0.625000   0.250000 0
  0.875000   0.250000 0
  1.000000   0.375000 0
  0.937500   0.000000 0
  0.812500   0.375000 0
  0.812500   0.437500 0
  0.687500   0.250000 0
  0.687500   0.312500 0
CELLS 256 1280
4 80 162 171 69
4 52 171 110 69
4 56 110 158 69
4 52 110 116 45
4 48 122 104 45
4 56 104 110 45
4 51 103 101 63
4 115 101 116 63
4 52 116 62 63
4 144 166 192 134
4 52 62 171 179
4 80 171 141 179
4 115 186 101 132
4 157 141 58 179
4 59 62 103 63
4 59 58 62 179
4 51 127 120 88
4 75 89 127 88
4 51 101 127 132
4 107 152 146 163
4 155 151 138 189
4 157 149 141 184
4 80 141 113 184
4 47 99 125 134
4 193 120 192 88
4 144 192 89 88
4 145 186 86 121
4 109 149 264 161
4 114 146 113 163
4 80 113 162 163
4 182 39 41 177
4 159 158 162 69
4 159 162 152 163
4 157 174 149 161
4 75 127 168 132
4 155 138 39 177
4 145 168 186 132
4 72 125 166 134
4 55 118 41 98
4 193 192 99 134
4 193 99 118 98
4 59 103 112 44
4 51 120 103 44
4 193 118 120 44
4 83 170 138 177
4 275 82 190 189
4 83 138 82 189
4 275 264 82 161
4 83 82 174 161
4 83 174 170 173
4 55 112 118 44
4 48 129 122 121
4 128 86 129 121
4 106 190 151 189
4 109 272 149 184
4 115 116 122 45
4 115 122 186 121
4 55 41 170 177
4 47 181 99 98
4 182 41 181 98
4 114 113 272 184
4 55 170 112 173
4 59 112 58 173
4 157 58 174 173
4 194 66 76 221
4 194 76 195 236
4 67 231 257 258
4 93 202 76 236
4 92 91 219 207
4 209 241 210 223
4 204 91 247 246
4 209 216 241 229
4 206 218 219 220
4 204 238 91 207
4 203 243 255 244
4 128 68 86 212
4 67 215 231 239
4 96 74 243 244
4 203 237 202 236
4 205 199 216 229
4 206 219 196 207
4 233 257 208 258
4 203 255 237 212
4 205 197 199 246
4 96 196 238 207
4 248 222 245 223
4 226 227 247 242
4 95 237 68 212
4 96 243 196 94
4 92 199 91 246
4 95 195 237 236
4 206 196 198 94
4 92 200 199 229
4 230 241 200 229
4 206 198 218 228
4 93 76 201 221
4 217 251 218 220
4 203 202 243 94
4 232 201 252 221
4 144 89 254 214
4 234 210 222 223
4 217 211 251 256
4 92 219 200 220
4 93 198 202 94
4 232 252 231 258
4 204 254 238 214
4 145 255 168 244
4 235 259 211 256
4 230 200 251 220
4 93 201 198 228
4 230 245 241 223
4 72 166 227 242
4 217 218 240 228
4 79 252 66 221
4 75 74 89 214
4 217 240 211 239
4 79 208 252 258
4 145 86 255 212
4 226 247 197 246
4 96 238 74 214
4 235 211 215 239
4 230 251 245 256
4 144 254 166 242
4 232 240 201 228
4 75 168 74 244
4 204 247 254 242
4 248 245 259 256
4 232 231 240 239
4 249 250 225 22
4 282 84 225 224
4 281 280 287 70
4 48 32 129 136
4 23 280 142 269
4 48 104 32 65
4 60 31 287 288
4 265 263 148 108
4 23 15 280 70
4 85 267 16 266
4 35 260 284 274
4 265 276 263 286
4 277 262 267 266
4 183 148 273 108
4 85 16 90 274
4 56 158 270 269
4 277 37 15 70
4 34 135 187 136
4 159 152 142 185
4 278 90 260 274
4 277 267 37 279
4 281 270 280 269
4 278 36 90 224
4 60 37 268 279
4 281 271 270 65
4 85 90 84 224
4 56 270 104 65
4 60 287 37 70
4 159 142 158 269
4 249 225 36 224
4 77 32 271 65
4 60 268 31 64
4 282 225 29 22
4 30 27 31 288
4 85 84 267 279
4 26 29 20 22
4 28 21 24 18
4 128 129 135 136
4 30 17 27 105
4 281 287 271 288
4 282 268 84 279
4 26 20 263 108
4 23 24 15 18
4 19 16 25 266
4 188 150 17 105
4 77 271 27 288
4 282 29 268 64
4 107 78 152 185
4 77 187 32 136
4 30 31 285 64
4 283 20 250 22
4 261 262 21 18
4 30 285 17 286
4 283 273 20 108
4 19 284 16 274
4 277 15 262 18
4 188 17 276 286
4 77 27 187 105
4 28 24 78 185
4 26 285 29 64
4 261 25 262 266
4 23 142 24 185
4 34 187 150 105
4 26 263 285 286
4 140 156 139 147
4 119 43 50 49
4 130 131 50 126
4 265 148 160 147
4 11 12 124 46
4 194 195 9 10
4 14 12 9 8
4 176 169 175 53
4 14 9 13 10
4 140 178 156 57
4 40 175 54 53
4 183 139 148 147
4 213 253 87 143
4 176 137 169 81
4 2 13 5 10
4 167 73 131 126
4 172 160 156 147
4 176 175 153 38
4 172 156 111 57
4 194 9 66 8
4 40 180 175 38
4 42 111 102 57
4 79 66 3 8
4 40 97 180 46
4 213 87 73 126
4 2 153 13 38
4 172 169 160 81
4 61 102 178 57
4 11 3 12 8
4 40 54 97 117
4 42 102 43 49
4 79 3 208 1
4 133 124 97 46
4 14 13 180 38
4 172 111 169 53
4 233 208 0 1
4 34 150 33 154
4 133 165 124 123
4 14 180 12 46
4 42 54 111 53
4 119 50 87 126
4 2 33 153 154
4 265 160 276 81
4 164 71 165 123
4 42 43 54 117
4 61 100 102 49
4 128 135 68 7
4 11 6 3 1
4 133 97 191 117
4 130 50 100 49
4 188 137 150 154
4 95 68 5 7
4 4 0 6 1
4 133 191 165 143
4 176 153 137 154
4 95 5 195 10
4 164 165 253 143
4 11 124 6 123
4 34 33 135 7
4 119 191 43 117
4 188 276 137 81
4 2 5 33 7
4 4 6 71 123
4 119 87 191 143
CELL_TYPES 256
8
8
8
8
8
8
8
8
8
8
8
8
8
8
8
8
8
8
8
8
8
8
8
8
8
8
8
8
8
8
8
8
8
8
8
8
8
8
8
8
8
8
8
8
8
8
8
8
8
8
8
8
8
8
8
8
8
8
8
8
8
8
8
8
8
8
8
8
8
8
8
8
8
8
8
8
8
8
8
8
8
8
8
8
8
8
8
8
8
8
8
8
8
8
8
8
8
8
8
8
8
8
8
8
8
8
8
8
8
8
8
8
8
8
8
8
8
8
8
8
8
8
8
8
8
8
8
8
8
8
8
8
8
8
8
8
8
8
8
8
8
8
8
8
8
8
8
8
8
8
8
8
8
8
8
8
8
8
8
8
8
8
8
8
8
8
8
8
8
8
8
8
8
8
8
8
8
8
8
8
8
8
8
8
8
8
8
8
8
8
8
8
8
8
8
8
8
8
8
8
8
8
8
8
8
8
8
8
8
8
8
8
8
8
8
8
8
8
8
8
8
8
8
8
8
8
8
8
8
8
8
8
8
8
8
8
8
8
8
8
8
8
8
8
8
8
8
8
8
8
8
8
8
8
8
8
CELL_DATA 256
SCALARS scalar_value float 1
LOOKUP_TABLE default
1
1
1
1
0.1
1
1
1
1
1
1
1
0.1
1
1
1
1
1
1
1
1
1
1
1
1
1
0.1
1
1
1
1
1
1
1
1
1
0.1
1
1
1
1
1
1
1
1
1
1
1
1
1
1
0.1
0.1
1
1
0.1
0.1
1
1
1
1
1
1
1
1
1
1
1
1
1
1
1
1
1
0.1
0.1
1
1
0.1
1
1
1
0.1
1
1
1
1
0.1
1
1
0.1
1
1
1
1
1
1
1
1
1
1
1
1
1
1
1
0.1
1
1
1
1
1
1
1
1
1
1
0.1
1
1
1
1
1
1
1
1
1
1
1
1
1
0.1
1
0.1
1
1
1
1
1
1
1
1
1
1
1
0.1
1
1
1
1
1
1
1
1
1
1
1
1
0.1
1
1
1
1
1
1
0.1
1
1
1
1
1
1
1
1
1
1
0.1
1
1
1
1
1
1
1
1
0.1
1
1
1
1
0.1
1
1
1
1
1
1
1
1
1
1
1
1
1
1
1
0.1
1
1
1
1
1
1
1
1
1
1
1
1
1
1
1
1
1
1
1
1
1
0.1
1
1
1
1
0.1
1
1
1
1
0.1
1
1
1
1
0.1
1
1
1
0.1
1
1
0.1
1
1
0.1
1
1
