# vtk DataFile Version 2.0
Unstructured Grid by M++
ASCII
DATASET UNSTRUCTURED_GRID
POINTS 4072 float
  0.656250   0.890625 0
  0.703125   0.640625 0
  0.640625   0.890625 0
  0.703125   0.625000 0
  0.640625   0.875000 0
  0.703125   0.671875 0
  0.640625   0.921875 0
  0.718750   0.656250 0
  0.656250   0.906250 0
  0.703125   0.656250 0
  0.640625   0.906250 0
  0.546875   0.718750 0
  0.531250   0.734375 0
  0.578125   0.765625 0
  0.562500   0.765625 0
  0.812500   0.796875 0
  0.718750   0.625000 0
  0.656250   0.875000 0
  0.734375   0.609375 0
  0.671875   0.859375 0
  0.718750   0.609375 0
  0.656250   0.859375 0
  0.734375   0.593750 0
  0.671875   0.843750 0
  0.578125   0.984375 0
  0.640625   0.734375 0
  0.515625   0.734375 0
  0.531250   0.718750 0
  1.000000   0.984375 0
  0.515625   0.718750 0
  0.859375   0.921875 0
  0.921875   0.671875 0
  0.843750   0.921875 0
  0.906250   0.671875 0
  0.843750   0.937500 0
  0.906250   0.687500 0
  0.546875   0.656250 0
  0.546875   0.578125 0
  0.671875   0.625000 0
  0.609375   0.875000 0
  0.546875   0.593750 0
  0.593750   0.984375 0
  0.656250   0.734375 0
  0.578125   0.609375 0
  0.515625   0.859375 0
  0.578125   0.593750 0
  0.515625   0.843750 0
  0.937500   0.640625 0
  0.875000   0.890625 0
  0.953125   0.625000 0
  0.890625   0.875000 0
  0.781250   0.578125 0
  0.718750   0.828125 0
  0.734375   0.812500 0
  0.578125   0.578125 0
  0.515625   0.828125 0
  0.562500   0.578125 0
  0.578125   0.562500 0
  0.515625   0.812500 0
  1.000000   1.000000 0
  0.859375   0.734375 0
  0.796875   0.984375 0
  0.984375   0.734375 0
  0.921875   0.984375 0
  0.968750   0.734375 0
  0.906250   0.984375 0
  0.984375   0.718750 0
  0.921875   0.968750 0
  0.859375   0.718750 0
  0.796875   0.968750 0
  0.921875   0.796875 0
  0.984375   0.546875 0
  0.562500   0.812500 0
  0.906250   0.796875 0
  0.921875   0.781250 0
  0.671875   0.687500 0
  0.609375   0.937500 0
  0.671875   0.671875 0
  0.609375   0.921875 0
  0.687500   0.671875 0
  0.625000   0.921875 0
  0.671875   0.734375 0
  0.609375   0.984375 0
  0.687500   0.734375 0
  0.625000   0.984375 0
  0.765625   0.578125 0
  0.703125   0.828125 0
  0.781250   0.562500 0
  0.718750   0.812500 0
  0.750000   0.578125 0
  0.687500   0.828125 0
  0.765625   0.562500 0
  0.703125   0.812500 0
  0.625000   0.968750 0
  0.687500   0.718750 0
  0.625000   0.953125 0
  0.687500   0.703125 0
  0.625000   0.937500 0
  0.687500   0.687500 0
  0.609375   0.968750 0
  0.671875   0.718750 0
  0.609375   0.953125 0
  0.671875   0.703125 0
  0.609375   0.890625 0
  0.671875   0.640625 0
  0.625000   0.890625 0
  0.687500   0.640625 0
  0.609375   0.906250 0
  0.671875   0.656250 0
  0.625000   0.906250 0
  0.687500   0.656250 0
  0.593750   0.765625 0
  0.937500   0.953125 0
  0.546875   0.750000 0
  0.546875   0.734375 0
  0.531250   0.750000 0
  0.937500   0.671875 0
  0.515625   0.937500 0
  0.953125   0.671875 0
  0.890625   0.921875 0
  0.875000   0.921875 0
  0.531250   0.671875 0
  0.515625   0.687500 0
  0.921875   0.703125 0
  0.859375   0.953125 0
  0.828125   0.656250 0
  0.953125   0.656250 0
  0.531250   0.921875 0
  0.890625   0.906250 0
  0.953125   0.640625 0
  0.890625   0.890625 0
  0.937500   0.656250 0
  0.875000   0.906250 0
  0.671875   0.593750 0
  0.609375   0.843750 0
  0.656250   0.593750 0
  0.593750   0.843750 0
  0.671875   0.609375 0
  0.609375   0.859375 0
  0.656250   0.609375 0
  0.593750   0.859375 0
  0.578125   0.750000 0
  0.515625   1.000000 0
  0.921875   0.578125 0
  0.859375   0.828125 0
  0.937500   0.796875 0
  0.953125   0.781250 0
  0.953125   0.734375 0
  0.890625   0.984375 0
  0.937500   0.734375 0
  0.875000   0.984375 0
  0.953125   0.796875 0
  0.968750   0.796875 0
  0.984375   0.796875 0
  1.000000   0.796875 0
  0.562500   0.796875 0
  0.578125   0.781250 0
  0.562500   0.781250 0
  0.578125   0.640625 0
  0.515625   0.890625 0
  0.562500   0.640625 0
  0.578125   0.625000 0
  0.515625   0.875000 0
  0.875000   0.703125 0
  0.812500   0.953125 0
  0.562500   0.609375 0
  0.562500   0.593750 0
  0.546875   0.609375 0
  0.562500   0.562500 0
  0.562500   0.546875 0
  0.546875   0.562500 0
  0.750000   0.609375 0
  0.687500   0.859375 0
  0.765625   0.593750 0
  0.703125   0.843750 0
  0.750000   0.593750 0
  0.687500   0.843750 0
  0.968750   0.656250 0
  0.906250   0.906250 0
  0.984375   0.640625 0
  0.921875   0.890625 0
  0.968750   0.640625 0
  0.906250   0.890625 0
  0.984375   0.625000 0
  0.921875   0.875000 0
  0.968750   0.625000 0
  0.906250   0.875000 0
  0.531250   0.984375 0
  0.796875   0.953125 0
  0.859375   0.703125 0
  0.781250   0.953125 0
  0.843750   0.703125 0
  1.000000   0.531250 0
  0.937500   0.781250 0
  0.953125   0.765625 0
  0.937500   0.765625 0
  0.953125   0.750000 0
  0.937500   0.703125 0
  0.875000   0.953125 0
  0.953125   0.687500 0
  0.890625   0.937500 0
  0.937500   0.687500 0
  0.875000   0.937500 0
  0.828125   0.640625 0
  0.828125   0.625000 0
  0.546875   0.687500 0
  0.546875   0.671875 0
  0.531250   0.687500 0
  0.953125   0.718750 0
  0.890625   0.968750 0
  0.953125   0.703125 0
  0.890625   0.953125 0
  0.984375   1.000000 0
  0.953125   0.515625 0
  0.531250   0.781250 0
  0.890625   0.765625 0
  0.890625   0.796875 0
  0.890625   0.781250 0
  0.562500   0.671875 0
  0.921875   0.656250 0
  0.578125   0.656250 0
  0.515625   0.906250 0
  0.562500   0.656250 0
  0.890625   0.750000 0
  0.828125   1.000000 0
  0.875000   0.734375 0
  0.812500   0.984375 0
  0.953125   1.000000 0
  0.750000   0.984375 0
  0.812500   0.734375 0
  0.984375   0.781250 0
  1.000000   0.781250 0
  1.000000   0.765625 0
  0.937500   0.718750 0
  0.875000   0.968750 0
  0.921875   0.718750 0
  0.859375   0.968750 0
  0.968750   0.531250 0
  0.546875   0.796875 0
  0.906250   0.781250 0
  0.984375   0.515625 0
  0.921875   0.765625 0
  0.906250   0.765625 0
  0.968750   0.781250 0
  0.984375   0.765625 0
  0.968750   0.765625 0
  0.984375   0.750000 0
  0.906250   1.000000 0
  0.968750   0.750000 0
  0.968750   0.718750 0
  0.906250   0.968750 0
  0.984375   0.703125 0
  0.921875   0.953125 0
  0.968750   0.703125 0
  0.906250   0.953125 0
  0.984375   0.687500 0
  0.562500   0.953125 0
  0.921875   0.937500 0
  0.968750   0.687500 0
  0.906250   0.937500 0
  1.000000   0.859375 0
  0.734375   0.531250 0
  0.671875   0.781250 0
  0.734375   0.546875 0
  0.671875   0.796875 0
  0.718750   0.546875 0
  0.656250   0.796875 0
  0.687500   0.921875 0
  0.750000   0.671875 0
  0.828125   0.812500 0
  0.828125   0.796875 0
  0.578125   0.812500 0
  0.578125   0.796875 0
  0.937500   0.859375 0
  0.703125   0.796875 0
  0.765625   0.546875 0
  0.718750   0.781250 0
  0.781250   0.531250 0
  0.687500   0.796875 0
  0.750000   0.546875 0
  0.703125   0.781250 0
  0.765625   0.531250 0
  0.609375   0.765625 0
  0.984375   0.828125 0
  1.000000   0.812500 0
  0.984375   0.812500 0
  1.000000   0.750000 0
  0.937500   1.000000 0
  0.953125   0.984375 0
  0.937500   0.984375 0
  0.609375   0.781250 0
  0.593750   0.781250 0
  0.593750   0.796875 0
  0.531250   0.609375 0
  0.515625   0.609375 0
  0.515625   0.562500 0
  0.875000   0.796875 0
  0.859375   0.812500 0
  0.609375   0.812500 0
  0.609375   0.796875 0
  0.593750   0.812500 0
  0.578125   0.671875 0
  0.515625   0.921875 0
  0.859375   1.000000 0
  0.921875   0.750000 0
  0.875000   1.000000 0
  0.937500   0.750000 0
  0.921875   0.734375 0
  0.859375   0.984375 0
  0.937500   0.921875 0
  0.593750   0.671875 0
  0.625000   0.609375 0
  0.562500   0.859375 0
  0.609375   0.609375 0
  0.546875   0.859375 0
  0.609375   0.671875 0
  0.546875   0.921875 0
  0.640625   0.671875 0
  0.578125   0.921875 0
  0.625000   0.671875 0
  0.562500   0.921875 0
  0.640625   0.625000 0
  0.578125   0.875000 0
  0.500000   0.906250 0
  0.078125   0.125000 0
  0.500000   0.796875 0
  0.078125   0.015625 0
  0.484375   0.843750 0
  0.468750   0.828125 0
  0.750000   0.234375 0
  0.062500   0.828125 0
  0.484375   0.562500 0
  0.296875   0.546875 0
  0.234375   0.796875 0
  0.281250   0.531250 0
  0.218750   0.781250 0
  0.296875   0.562500 0
  0.234375   0.812500 0
  0.281250   0.546875 0
  0.218750   0.796875 0
  0.265625   0.625000 0
  0.953125   0.046875 0
  0.281250   0.640625 0
  0.031250   0.546875 0
  0.500000   0.984375 0
  0.078125   0.203125 0
  0.484375   0.984375 0
  0.062500   0.203125 0
  0.718750   0.125000 0
  0.031250   0.687500 0
  0.703125   0.109375 0
  0.328125   0.625000 0
  0.343750   0.812500 0
  0.406250   0.562500 0
  0.687500   0.031250 0
  0.500000   0.859375 0
  0.468750   0.906250 0
  0.046875   0.125000 0
  0.468750   0.937500 0
  0.046875   0.156250 0
  0.062500   1.000000 0
  0.015625   0.546875 0
  0.812500   0.109375 0
  0.375000   0.812500 0
  0.437500   0.562500 0
  0.359375   0.796875 0
  0.421875   0.546875 0
  0.343750   0.781250 0
  0.406250   0.531250 0
  0.328125   0.687500 0
  0.500000   0.968750 0
  0.078125   0.187500 0
  0.031250   0.609375 0
  0.718750   0.031250 0
  0.031250   0.593750 0
  0.718750   0.015625 0
  0.703125   0.015625 0
  0.031250   0.515625 0
  0.046875   0.531250 0
  0.359375   0.687500 0
  0.375000   0.703125 0
  0.484375   0.750000 0
  0.046875   0.984375 0
  0.328125   0.656250 0
  0.343750   0.593750 0
  0.328125   0.578125 0
  0.265625   0.828125 0
  0.000000   0.515625 0
  0.500000   0.765625 0
  0.015625   0.531250 0
  0.468750   0.984375 0
  0.046875   0.203125 0
  0.375000   0.625000 0
  0.343750   0.703125 0
  0.468750   0.968750 0
  0.046875   0.187500 0
  0.359375   0.625000 0
  0.296875   0.875000 0
  0.734375   0.390625 0
  0.359375   0.718750 0
  0.015625   0.593750 0
  0.812500   0.156250 0
  0.750000   0.406250 0
  0.375000   0.734375 0
  0.453125   0.750000 0
  0.468750   0.875000 0
  0.046875   0.093750 0
  0.296875   0.812500 0
  0.484375   0.968750 0
  0.062500   0.187500 0
  0.296875   0.781250 0
  0.031250   0.968750 0
[...]
CELL_DATA 7648
SCALARS scalar_value float 1
LOOKUP_TABLE default
-0.574683
-0.56859
-0.57486
-0.289585
-0.280144
-0.294543
-0.568831
-0.556345
-0.550097
-0.549994
-0.271301
-0.278354
-0.274879
-0.288512
-0.260285
-0.258491
-0.247462
-0.266011
-0.530876
-0.537218
-0.243956
-0.237457
-0.226325
-0.242099
-0.528032
-0.522344
-0.51039
-0.528674
-0.521809
-0.509787
-0.503332
-0.504104
-0.537367
-0.239279
-0.228192
-0.517927
-0.223631
-0.22171
-0.492452
-0.487266
-0.49325
-0.476123
-0.205004
-0.198602
-0.187599
-0.20312
-0.459236
-0.454525
-0.459821
-0.444322
-0.170148
-0.163846
-0.152616
-0.16871
-0.201242
-0.195081
-0.184391
-0.199495
-0.48567
-0.48316
-0.490383
-0.473084
-0.428495
-0.425336
-0.429927
-0.417658
-0.132926
-0.12684
-0.115567
-0.131996
-0.486017
-0.475233
-0.47043
-0.469254
-0.181257
-0.185952
-0.17971
-0.196807
-0.425973
-0.417505
-0.412193
-0.413953
-0.111142
-0.11643
-0.110313
-0.127777
-0.430311
-0.425322
-0.429594
-0.415673
-0.135001
-0.128771
-0.117323
-0.133931
-0.406507
-0.400587
-0.402705
-0.390911
-0.0996179
-0.093497
-0.0819221
-0.0988976
-0.0277069
-0.022064
-0.011072
-0.0273383
-0.320709
-0.314858
-0.352631
-0.340582
-0.334
-0.334777
-0.0545676
-0.0438064
-0.038659
-0.0381201
-0.312698
-0.297494
-0.286528
-0.291877
-0.0223337
-0.0112018
-0.00563695
-0.00557712
-0.564742
-0.559988
-0.567375
-0.547387
-0.283472
-0.278709
-0.284815
-0.26791
-0.286173
-0.28752
-0.270911
-0.571007
-0.565992
-0.576034
-0.550261
-0.569256
-0.57583
-0.290129
-0.285961
-0.274578
-0.292808
-0.49895
-0.493051
-0.474719
-0.481341
-0.475507
-0.493771
-0.0217551
-0.0109237
-0.0055088
-0.257705
-0.240646
-0.176156
-0.458273
-0.18131
-0.465624
-0.175697
-0.452288
-0.455689
-0.192087
-0.458363
-0.462671
-0.0860785
-0.404762
-0.0685037
-0.400328
-0.0690215
-0.395695
-0.367857
-0.0685541
-0.0805883
-0.319803
-0.0210297
-0.316028
-0.308519
-0.0105735
-0.320879
-0.301849
-0.00534425
-0.299477
-0.3037
-0.00525144
-0.298449
-0.386733
-0.0847282
-0.384602
-0.369881
-0.0699826
-0.367602
-0.37005
-0.0611551
-0.25001
-0.253016
-0.239825
-0.520476
-0.363099
-0.0744648
-0.235405
-0.227981
-0.0199135
-0.313823
-0.320679
-0.00998488
-0.00520325
-0.292208
-0.00501667
-0.295215
-0.30447
-0.00498748
-0.293735
-0.3039
-0.345485
-0.0327623
-0.0408465
-0.334476
-0.0315763
-0.32939
-0.342364
-0.0415228
-0.354299
-0.328623
-0.0209812
-0.0294446
-0.0407049
-0.0355249
-0.041005
-0.0360208
-0.0516041
-0.47982
-0.197638
-0.464013
-0.192515
-0.456828
-0.362075
-0.0343045
-0.0707691
-0.458639
-0.181276
-0.487043
-0.379285
-0.0955397
-0.470756
-0.198863
-0.509535
-0.0407463
-0.34345
-0.234086
-0.0463967
-0.355858
-0.0404967
-0.341609
-0.0579049
-0.357951
-0.0230836
-0.316747
-0.0214071
-0.00924868
-0.308457
-0.0255132
-0.327153
-0.272243
-0.266323
-0.56265
-0.548929
-0.25398
-0.269445
-0.55689
-0.542084
-0.541222
-0.2569
-0.263353
-0.354373
-0.0400227
-0.0498526
-0.360056
-0.327125
-0.0398469
-0.34276
-0.0402521
-0.337417
-0.0255004
-0.322297
-0.0171449
-0.034734
-0.33738
-0.0350494
-0.335922
-0.242452
-0.571053
-0.24053
-0.253214
-0.29132
-0.292601
-0.275124
-0.274335
-0.268448
-0.025277
-0.170353
-0.0203098
-0.0492129
-0.0366991
-0.144355
-0.152023
-0.0291346
-0.023262
-0.326848
-0.0116447
-0.0289735
-0.208427
-0.214951
-0.210565
-0.226244
-0.248704
-0.530467
-0.229686
-0.509827
-0.228817
-0.50777
-0.519726
-0.504769
-0.218009
-0.23623
-0.521364
-0.49474
-0.232179
-0.498634
-0.2256
-0.229996
-0.32034
-0.0100689
-0.0200805
-0.289834
-0.0100218
-0.00568636
-0.303404
-0.00499291
-0.291707
-0.303145
-0.00502832
-0.288983
-0.0283086
-0.318237
-0.103067
-0.104049
-0.416079
-0.412301
-0.139071
-0.40103
-0.10145
-0.125077
-0.395001
-0.118129
-0.395935
-0.0904039
-0.208134
-0.212569
-0.0188139
-0.20762
-0.221772
-0.390162
-0.0928281
-0.391895
-0.375873
-0.0758681
-0.292122
-0.273051
-0.28609
-0.572519
-0.274655
-0.556195
-0.255181
-0.494363
-0.482171
-0.475971
-0.164695
-0.351
-0.0515103
-0.0626607
-0.333298
-0.0361024
-0.0443755
-0.347759
-0.351482
-0.0504227
-0.0640998
-0.370893
-0.0250149
-0.134881
-0.102758
-0.0091114
-0.100383
-0.114582
-0.333509
-0.0368153
-0.0416801
-0.025879
-0.0207448
-0.28152
-0.0103375
-0.0418549
-0.34305
-0.0409439
-0.0364088
-0.0366007
-0.0574122
-0.0522771
-0.345159
-0.0546463
-0.333902
-0.0375017
-0.0371947
-0.345625
-0.350809
-0.052634
-0.0597398
-0.365158
-0.510861
-0.231929
-0.220296
-0.0745052
-0.505007
-0.215946
-0.51165
-0.504262
-0.208718
-0.21385
-0.510548
-0.453793
-0.162504
-0.455082
-0.444287
-0.14062
-0.151366
-0.446895
-0.439488
-0.146348
-0.44046
-0.439372
-0.137346
-0.145185
-0.438437
-0.400329
-0.0526211
-0.0967127
-0.402929
-0.386232
-0.369911
-0.0795315
-0.39635
-0.384258
-0.0959349
-0.568093
-0.424632
-0.416203
-0.130359
-0.434249
-0.423463
-0.414243
-0.129596
-0.418523
-0.114737
-0.12352
-0.414416
-0.409124
-0.398507
-0.112261
-0.419528
-0.571917
-0.266896
-0.564183
-0.570236
-0.269482
-0.550689
-0.352852
-0.0457252
-0.0553287
-0.351757
-0.240281
-0.251887
-0.24664
-0.536054
-0.23092
-0.526517
-0.527788
-0.234611
-0.25203
-0.550264
-0.535626
-0.218271
-0.530485
-0.510608
-0.408071
-0.107925
-0.401133
-0.410922
-0.40024
-0.113123
-0.405386
-0.107106
-0.400046
-0.419597
-0.124348
-0.414944
-0.333426
-0.0395296
-0.337279
-0.340491
-0.0448933
-0.352841
-0.333511
-0.028779
-0.0391245
-0.33617
-0.353847
-0.0559754
-0.35257
-0.27645
-0.285279
-0.280124
-0.580951
-0.264728
-0.575399
-0.267683
-0.585099
-0.250389
-0.26912
-0.264908
-0.559599
-0.364778
-0.0227565
-0.0624044
-0.37007
-0.0565359
-0.353615
-0.337309
-0.0453331
-0.351963
-0.0618215
-0.463847
-0.458014
-0.430451
-0.0191236
-0.0251229
-0.310716
-0.0231991
-0.3264
-0.00788806
-0.449214
-0.476846
-0.186403
-0.490055
-0.201992
-0.487393
-0.208887
-0.464208
-0.213188
-0.218759
-0.495627
-0.456619
-0.20782
-0.46401
-0.220483
-0.512332
-0.277609
-0.263938
-0.267519
-0.562338
-0.279507
-0.458212
-0.440309
-0.118187
-0.440488
-0.45756
-0.143593
-0.445562
-0.428472
-0.439258
-0.126072
-0.439905
-0.167378
-0.457628
-0.16434
-0.161278
-0.452172
-0.45207
-0.153954
-0.150211
-0.445245
-0.443322
-0.142655
-0.409944
-0.399526
-0.10507
-0.39431
-0.39443
-0.0968696
-0.105533
-0.410862
-0.113711
-0.100753
-0.0536932
-0.166203
-0.456359
-0.454967
-0.164727
-0.350876
-0.0536694
-0.0532933
-0.0363452
-0.228174
-0.0332861
-0.426496
-0.418078
-0.131144
-0.294278
-0.544311
-0.413477
-0.401997
-0.11393
-0.544852
-0.49329
-0.206862
-0.502365
-0.492855
-0.475632
-0.191064
-0.422391
-0.0990262
-0.140153
-0.438761
-0.405539
-0.0893383
-0.121216
-0.424275
-0.0941662
-0.138664
-0.492091
-0.210623
-0.485514
-0.203319
-0.206087
-0.491025
-0.21264
-0.505054
-0.473349
-0.19501
-0.527573
-0.263966
-0.245721
-0.542108
-0.359334
-0.241077
-0.527308
-0.247466
-0.540867
-0.418733
-0.121199
-0.415728
-0.446984
-0.148286
-0.158335
-0.442686
-0.386861
-0.0879616
-0.383797
-0.27591
-0.328016
-0.0191714
-0.0337976
-0.436847
-0.14699
-0.452071
-0.291599
-0.417425
-0.117712
-0.15879
-0.441807
-0.345061
-0.028208
-0.0546481
-0.450546
-0.164283
-0.471658
-0.445687
-0.164292
-0.563602
-0.289319
-0.278061
-0.448625
-0.276368
-0.565784
-0.28825
-0.0582448
-0.0113157
-0.303626
-0.432265
-0.123169
-0.433355
-0.143155
-0.577712
-0.285635
-0.265494
-0.421573
-0.122342
-0.130921
-0.349922
-0.0280277
-0.318948
-0.252197
-0.55151
-0.268272
-0.366606
-0.377289
-0.427497
-0.119478
-0.545479
-0.275918
-0.261673
-0.563386
-0.434342
-0.175738
-0.451251
-0.10619
-0.399497
-0.403687
-0.19379
-0.46307
-0.472015
-0.181924
-0.122538
-0.414726
-0.418301
-0.549524
-0.269822
-0.255517
-0.448523
-0.160216
-0.0260296
-0.340287
-0.334012
-0.0443903
-0.456984
-0.257978
-0.570454
-0.547773
-0.272141
-0.353633
-0.410796
-0.127684
-0.523629
-0.230988
-0.0557768
-0.371329
-0.359431
-0.424587
-0.0228025
-0.240047
-0.529403
-0.255693
-0.142323
-0.430825
-0.434453
-0.444646
-0.159373
-0.19478
-0.0646108
-0.318532
-0.1321
-0.124878
-0.419431
-0.0107563
-0.293679
-0.00411486
-0.00479445
-0.306638
-0.29819
-0.120179
-0.407616
-0.0868434
-0.251194
-0.346039
-0.0570742
-0.0333228
-0.181848
-0.327565
-0.0410482
-0.343062
-0.0370915
-0.0396089
-0.19574
-0.48043
-0.188358
-0.345203
-0.0588337
-0.359986
-0.359087
-0.0570415
-0.0538772
-0.218343
-0.499741
-0.204099
-0.0283285
-0.327824
-0.314858
-0.0203026
-0.224408
-0.17626
-0.454557
-0.460072
-0.147563
-0.380152
-0.0788319
-0.386581
-0.010819
-0.306769
-0.297441
-0.00515907
-0.211636
-0.158466
-0.441095
-0.445296
-0.0115822
-0.310778
-0.205202
-0.411381
-0.398675
-0.0939786
-0.409768
-0.115464
-0.523419
-0.233414
-0.53105
-0.327267
-0.0205248
-0.039118
-0.237663
-0.530058
-0.251759
-0.0458645
-0.333279
-0.0354412
-0.358589
-0.349012
-0.0603715
-0.201009
-0.461574
-0.485103
-0.464095
-0.177055
-0.271031
-0.457377
-0.336411
-0.379976
-0.408116
-0.00550026
-0.29107
-0.109926
-0.421273
-0.446334
-0.293328
-0.310028
-0.225556
-0.248521
-0.551537
-0.543515
-0.48727
-0.197362
-0.202226
-0.323766
-0.0269179
-0.337326
-0.0927059
-0.182208
-0.439082
-0.566795
-0.263029
-0.574389
-0.56874
-0.287027
-0.274185
-0.381183
-0.392524
-0.21126
-0.473652
-0.461985
-0.222294
-0.369739
-0.0736025
-0.37696
-0.416253
-0.125141
-0.235739
-0.45587
-0.220838
-0.0499046
-0.358496
-0.358732
-0.346818
-0.0583293
-0.37099
-0.361202
-0.0321594
-0.423188
-0.128761
-0.437161
-0.309918
-0.00784069
-0.020858
-0.026452
-0.319191
-0.0153417
-0.324973
-0.313662
-0.426214
-0.0956856
-0.439188
-0.164481
-0.384593
-0.0899533
-0.394158
-0.286481
-0.28286
-0.199086
-0.457152
-0.146498
-0.5454
-0.264812
-0.558499
-0.5111
-0.236909
-0.222443
-0.52277
-0.315407
-0.020648
-0.0272546
-0.476171
-0.453559
-0.184345
-0.140989
-0.428459
-0.432463
-0.409512
-0.123389
-0.341804
-0.042356
-0.354176
-0.117298
-0.408486
-0.394702
-0.10804
-0.141615
-0.429027
-0.43296
-0.0101346
-0.296396
-0.00507701
-0.0112662
-0.468101
-0.19249
-0.224271
-0.212304
-0.11415
-0.385599
-0.0907352
-0.380187
-0.0799656
-0.433004
-0.140342
-0.429214
-0.35323
-0.119151
-0.417169
-0.422978
-0.0947357
-0.104099
-0.428087
-0.459143
-0.20737
-0.18452
-0.448446
-0.473483
-0.0431278
-0.34103
-0.0276802
-0.341159
-0.3314
-0.335638
-0.403221
-0.103575
-0.400075
-0.402864
-0.375519
-0.364024
-0.075923
-0.387506
-0.0909401
-0.404868
-0.392154
-0.086561
-0.384019
-0.426643
-0.486092
-0.219694
-0.473253
-0.105176
-0.422492
-0.4091
-0.115702
-0.418827
-0.42043
-0.408242
-0.396913
-0.111248
-0.509077
-0.249319
-0.230095
-0.0940297
-0.403771
-0.562966
-0.282153
-0.0780368
-0.0890558
-0.383982
-0.387884
-0.0409451
-0.0801742
-0.0950672
-0.393821
-0.382638
-0.39009
-0.0729117
-0.368735
-0.373015
-0.0634138
-0.377682
-0.57848
-0.256124
-0.267577
-0.553323
-0.0711558
-0.367657
-0.0721133
-0.368034
-0.370935
-0.237059
-0.0255985
-0.299489
-0.552611
-0.244992
-0.249591
-0.530447
-0.421448
-0.256463
-0.316106
-0.472537
-0.240046
-0.300806
-0.00577704
-0.308268
-0.00581116
-0.309891
-0.0231247
-0.325049
-0.557095
-0.266358
-0.0637453
-0.370667
-0.075891
-0.390547
-0.388181
-0.0726875
-0.371199
-0.0630289
-0.372672
-0.365206
-0.375971
-0.36232
-0.0676256
-0.375556
-0.0743154
-0.305473
-0.00568964
-0.0526051
-0.371005
-0.0742249
-0.0763743
-0.393549
-0.388375
-0.388463
-0.0688251
-0.0784352
-0.397692
-0.110086
-0.379092
-0.371384
-0.0643725
-0.381226
-0.0588151
-0.172569
-0.0763405
-0.377055
-0.363768
-0.068582
-0.0632725
-0.375814
-0.0917829
-0.412911
-0.405648
-0.0877666
-0.410088
-0.405529
-0.0855294
-0.356059
-0.0492569
-0.0648558
-0.398949
-0.273798
-0.253338
-0.400521
-0.102706
-0.402812
-0.119195
-0.0770904
-0.0469928
-0.334853
-0.101645
-0.255267
-0.0852286
-0.383175
-0.578386
-0.28204
-0.450979
-0.168256
-0.102194
-0.409019
-0.388369
-0.0771775
-0.49094
-0.083307
-0.439167
-0.158814
-0.456094
-0.177096
-0.470662
-0.457615
-0.175079
-0.136136
-0.209923
-0.186801
-0.442319
-0.194867
-0.492788
-0.187218
-0.309179
-0.0234127
-0.326167
-0.0220674
-0.024857
-0.171045
-0.235293
-0.429914
-0.170596
-0.258891
-0.246413
-0.215128
-0.194072
-0.208511
-0.436021
-0.144115
-0.122118
-0.394062
-0.0813665
-0.451635
-0.216138
-0.560629
-0.129617
-0.0227774
-0.322071
-0.108608
-0.112846
-0.00573625
-0.306826
-0.0225695
-0.395599
-0.128154
-0.378582
-0.0959972
-0.392509
-0.0811916
-0.0594362
-0.370704
-0.0883683
-0.0953164
-0.162361
-0.474657
-0.280845
-0.562126
-0.0114162
-0.257517
-0.203968
-0.511802
-0.195821
-0.476996
-0.182964
-0.491893
-0.468381
-0.481704
-0.492127
-0.039888
-0.0402092
-0.339991
-0.0570348
-0.354874
-0.0638615
-0.0466706
-0.0582806
-0.359758
-0.064267
-0.389934
-0.0507224
-0.0554191
-0.359701
-0.058781
-0.438779
-0.449541
-0.456679
-0.16473
-0.15826
-0.445774
-0.145942
-0.455699
-0.40616
-0.149174
-0.436465
-0.438294
-0.441519
-0.143482
-0.44953
-0.074804
-0.372481
-0.0914561
-0.386928
-0.398238
-0.399681
-0.102603
-0.0822832
-0.385606
-0.102796
-0.385509
-0.0823799
-0.386742
-0.0796565
-0.36842
-0.0668961
-0.179497
-0.16397
-0.175344
-0.0981749
-0.0614582
-0.182508
-0.469334
-0.454232
-0.156724
-0.435291
-0.135754
-0.447125
-0.186681
-0.451933
-0.157463
-0.0885614
-0.392964
-0.387092
-0.375831
-0.273389
-0.290089
-0.0101204
-0.284114
-0.28883
-0.0433453
-0.156489
-0.0624934
-0.179066
-0.055759
-0.247436
-0.36212
-0.0768691
-0.376184
-0.362461
-0.37846
-0.0674115
-0.39892
-0.0659168
-0.0722148
-0.376781
-0.0770263
-0.083654
-0.286403
-0.00997018
-0.0199317
-0.313237
-0.32605
-0.309224
-0.320462
-0.0102097
-0.226629
-0.229683
-0.550532
-0.222964
-0.212965
-0.528905
-0.178279
-0.469151
-0.183002
-0.193568
-0.462772
-0.46677
-0.469099
-0.186406
-0.477015
-0.108713
-0.402628
-0.109504
-0.404356
-0.125963
-0.418097
-0.411216
-0.41355
-0.423611
-0.123619
-0.14422
-0.435888
-0.425646
-0.1367
-0.0956414
-0.141932
-0.420577
-0.109073
-0.402285
-0.0983319
-0.413871
-0.428535
-0.214828
-0.200111
-0.210682
-0.217221
-0.469145
-0.179606
-0.482052
-0.209932
-0.489553
-0.205812
-0.0579446
-0.330318
-0.0253516
-0.0286925
-0.46892
-0.464963
-0.164608
-0.177173
-0.460523
-0.19854
-0.483885
-0.178349
-0.465633
-0.524428
-0.530915
-0.272124
-0.257745
-0.247439
-0.550945
-0.551446
-0.226194
-0.558634
-0.572818
-0.237497
-0.0491417
-0.353751
-0.0346849
-0.333982
-0.0349361
-0.333485
-0.337465
-0.0259643
-0.337461
-0.292987
-0.575221
-0.274511
-0.278188
-0.556599
-0.258492
-0.0780033
-0.381447
-0.102516
-0.392075
-0.0947529
-0.0823152
-0.378704
-0.0957607
-0.393404
-0.0917886
-0.0941479
-0.347814
-0.0736781
-0.0853225
-0.407263
-0.0906056
-0.394021
-0.0947638
-0.171886
-0.464132
-0.16528
-0.149349
-0.44607
-0.148924
-0.41094
-0.133394
-0.427476
-0.126307
-0.41558
-0.129817
-0.428761
-0.151971
-0.432352
-0.423666
-0.142093
-0.105138
-0.147396
-0.219779
-0.206817
-0.216186
-0.222306
-0.502322
-0.186375
-0.192943
-0.486561
-0.474677
-0.468061
-0.256867
-0.263264
-0.539409
-0.251019
-0.539337
-0.545148
-0.556544
-0.0403868
-0.317466
-0.323482
-0.0229621
-0.165257
-0.449395
-0.439352
-0.192578
-0.451793
-0.450955
-0.0292017
-0.0115238
-0.304586
-0.0289217
-0.307686
-0.314346
-0.0200433
-0.0248954
-0.326319
-0.356324
-0.0574886
-0.0703527
-0.350397
-0.197417
-0.503236
-0.198118
-0.464804
-0.46341
-0.467415
-0.335556
-0.0544362
-0.320618
-0.0395521
-0.360033
-0.343067
-0.354355
-0.0589248
-0.0469416
-0.0408234
-0.327384
-0.0649376
-0.392192
-0.0466234
-0.352817
-0.0647475
-0.346418
-0.35234
-0.0495658
-0.0539483
-0.359882
-0.34298
-0.0629298
-0.0460791
-0.496115
-0.262668
-0.500488
-0.505933
-0.209649
-0.276204
-0.52181
-0.211685
-0.215632
-0.225228
-0.530011
-0.498736
-0.0285575
-0.0115051
-0.025002
-0.302162
-0.0819662
-0.368184
-0.374116
-0.0753518
-0.50325
-0.508676
-0.522826
-0.530533
-0.2282
-0.545898
-0.293941
-0.545456
-0.55377
-0.240399
-0.571011
-0.545789
-0.544903
-0.0760676
-0.0830787
-0.0960246
-0.369323
-0.0651759
-0.362867
-0.0396935
-0.0706937
-0.370367
-0.304837
-0.304668
-0.56578
-0.310126
-0.320905
-0.523352
-0.231468
-0.217982
-0.234805
-0.457261
-0.468134
-0.47247
-0.48786
-0.482114
-0.116367
-0.403783
-0.093971
-0.397164
-0.100717
-0.404353
-0.0974503
-0.0807828
-0.0921486
-0.388481
-0.403856
-0.0824347
-0.404276
-0.251514
-0.243683
-0.243419
-0.213628
-0.222747
-0.241438
-0.233623
-0.237238
-0.235776
-0.243562
-0.241357
-0.245992
-0.252204
-0.0675336
-0.353717
-0.407925
-0.424069
-0.422204
-0.420165
-0.161042
-0.453646
-0.437316
-0.131787
-0.166028
-0.426523
-0.433112
-0.138116
-0.444646
-0.192113
-0.168478
-0.463288
-0.409795
-0.150343
-0.190621
-0.193303
-0.49768
-0.20826
-0.466395
-0.191627
-0.464203
-0.184571
-0.481894
-0.471578
-0.180445
-0.48408
-0.200407
-0.500443
-0.257992
-0.257562
-0.51845
-0.531113
-0.549912
-0.549936
-0.556122
-0.56849
-0.274623
-0.546383
-0.52383
-0.279861
-0.336986
-0.353958
-0.512761
-0.512633
-0.518908
-0.531305
-0.261171
-0.250014
-0.510868
-0.483733
-0.256204
-0.258331
-0.235535
-0.537498
-0.520963
-0.219831
-0.518757
-0.500883
-0.531247
-0.235511
-0.537455
-0.504911
-0.268227
-0.26665
-0.264758
-0.260323
-0.0103855
-0.301098
-0.00400404
-0.326273
-0.311599
-0.309678
-0.29567
-0.320586
-0.325818
-0.0043445
-0.00837144
-0.294475
-0.300558
-0.00543103
-0.00513797
-0.00508186
-0.0102362
-0.309643
-0.00583585
-0.0205525
-0.225644
-0.232076
-0.508168
-0.232531
-0.249232
-0.23414
-0.244766
-0.527173
-0.250123
-0.506844
-0.223551
-0.527037
-0.242536
-0.0260501
-0.296911
-0.302911
-0.00391608
-0.260109
-0.557663
-0.261736
-0.57681
-0.277302
-0.539678
-0.254436
-0.540343
-0.546175
-0.558068
-0.235884
-0.222589
-0.235438
-0.241139
-0.518783
-0.255849
-0.240859
-0.251201
-0.437312
-0.459214
-0.196946
-0.448902
-0.196015
-0.164836
-0.199891
-0.461223
-0.317577
-0.301703
-0.31258
-0.318528
-0.0156568
-0.0189756
-0.45229
-0.479016
-0.448756
-0.46226
-0.204301
-0.494186
-0.188195
-0.207
-0.437351
-0.180127
-0.141221
-0.189693
-0.191102
-0.424884
-0.153982
-0.443692
-0.423976
-0.136614
-0.163475
-0.437578
-0.190744
-0.145087
-0.183653
-0.190781
-0.196617
-0.424138
-0.160024
-0.440568
-0.17158
-0.425413
-0.0565079
-0.332632
-0.338553
-0.147304
-0.412361
-0.385975
-0.0900597
-0.411199
-0.422827
-0.50021
-0.0801195
-0.393766
-0.376516
-0.387885
-0.405267
-0.0963646
-0.428108
-0.410376
-0.421972
-0.308946
-0.00583612
-0.010399
-0.0058471
-0.0116862
-0.0233642
-0.279353
-0.283594
-0.00578904
-0.0116512
-0.0233752
-0.286414
-0.288361
-0.0292477
-0.0116949
-0.0292855
-0.312643
-0.305626
-0.0410609
-0.0468815
-0.0586006
-0.328207
-0.00520254
-0.00518181
-0.0208402
-0.438346
-0.158039
-0.449087
-0.139486
-0.430949
-0.435744
-0.46108
-0.442274
-0.454143
-0.473497
-0.186472
-0.175727
-0.441824
-0.462397
-0.2382
-0.248435
-0.252784
-0.501966
-0.213808
-0.526773
-0.236333
-0.213366
-0.196554
-0.200391
-0.478951
-0.186515
-0.437306
-0.193678
-0.207943
-0.377929
-0.394393
-0.0767423
-0.0831934
-0.0771129
-0.367317
-0.101011
-0.100328
-0.0828751
-0.389165
-0.171674
-0.155395
-0.166812
-0.173302
-0.459602
-0.442376
-0.45881
-0.111988
-0.118245
-0.405669
-0.423676
-0.147591
-0.437472
-0.443599
-0.4544
-0.217929
-0.224432
-0.504698
-0.522924
-0.150379
-0.156985
-0.434163
-0.440862
-0.452466
-0.182877
-0.189298
-0.470232
-0.476166
-0.487569
-0.259956
-0.271431
-0.539932
-0.319596
-0.30417
-0.0415353
-0.314839
-0.320778
-0.00847679
-0.0163266
-0.0428669
-0.0369243
-0.351192
-0.335233
-0.0333655
-0.510935
-0.517077
-0.507241
-0.513524
-0.246312
-0.242901
-0.536974
-0.227776
-0.515707
-0.529861
-0.536592
-0.282205
-0.265968
-0.26954
-0.260057
-0.55701
-0.569946
-0.444782
-0.45681
-0.299209
-0.295904
-0.304135
-0.316845
-0.651454
-0.645257
-0.634277
-0.935817
-0.927674
-0.914252
-0.933312
-0.637967
-0.636768
-0.651289
-0.879128
-0.883071
-0.882257
-0.886808
-0.895182
-0.885418
-0.883137
-0.879526
-0.647934
-0.639063
-0.632962
-0.636673
-0.691459
-0.692417
-0.70812
-1.00093
-1.00457
-0.998617
-1.01379
-1.14228
-1.13217
-1.12805
-0.814811
-0.818674
-0.818005
-0.822347
-1.15883
-1.15392
-1.15979
-1.14313
-0.847003
-0.842447
-0.848677
-0.831759
-1.1441
-1.13918
-0.844045
-0.833118
-0.828372
-0.827024
-1.16084
-1.15598
-1.16202
-1.14511
-0.850415
-0.845688
-0.85208
-0.834608
-1.12737
-1.12248
-1.12837
-1.11164
-0.816248
-0.811386
-0.817434
-1.07808
-1.07377
-0.778634
-0.767631
-0.762489
-0.76177