# vtk DataFile Version 2.0
Unstructured Grid by M++
ASCII
DATASET UNSTRUCTURED_GRID
POINTS 4072 float
  0.828125   0.890625 0
  0.875000   0.531250 0
  0.828125   0.750000 0
  0.593750   0.968750 0
  0.828125   0.671875 0
  0.828125   0.875000 0
  0.593750   0.937500 0
  0.828125   0.656250 0
  0.828125   0.640625 0
  0.828125   0.843750 0
  0.593750   0.906250 0
  0.828125   0.625000 0
  0.781250   0.968750 0
  0.828125   0.609375 0
  0.828125   0.812500 0
  0.593750   0.875000 0
  0.593750   0.828125 0
  0.593750   0.796875 0
  0.828125   0.703125 0
  0.593750   0.765625 0
  0.828125   0.937500 0
  0.812500   0.875000 0
  0.859375   0.515625 0
  0.812500   0.734375 0
  0.812500   0.937500 0
  0.578125   1.000000 0
  0.578125   0.750000 0
  0.812500   0.687500 0
  0.578125   0.953125 0
  0.812500   0.656250 0
  0.812500   0.859375 0
  0.578125   0.921875 0
  0.812500   0.828125 0
  0.578125   0.890625 0
  0.812500   0.593750 0
  0.812500   0.796875 0
  0.578125   0.859375 0
  0.578125   0.812500 0
  0.578125   0.781250 0
  0.796875   1.000000 0
  0.796875   0.859375 0
  0.796875   0.718750 0
  0.562500   0.984375 0
  0.562500   0.937500 0
  0.796875   0.843750 0
  0.562500   0.906250 0
  0.796875   0.812500 0
  0.562500   0.875000 0
  0.796875   0.578125 0
  0.796875   0.781250 0
  0.562500   0.843750 0
  0.812500   0.984375 0
  0.562500   0.796875 0
  0.812500   0.953125 0
  0.562500   0.765625 0
  0.796875   0.937500 0
  0.546875   0.750000 0
  0.781250   0.984375 0
  0.828125   0.593750 0
  0.781250   0.843750 0
  0.781250   0.937500 0
  0.546875   1.000000 0
  0.781250   0.703125 0
  0.546875   0.968750 0
  0.546875   0.921875 0
  0.781250   0.828125 0
  0.546875   0.890625 0
  0.781250   0.796875 0
  0.546875   0.859375 0
  0.781250   0.562500 0
  0.781250   0.765625 0
  0.546875   0.828125 0
  0.796875   0.968750 0
  0.546875   0.781250 0
  0.765625   1.000000 0
  0.765625   0.968750 0
  0.531250   0.984375 0
  0.765625   0.687500 0
  0.531250   0.953125 0
  0.531250   0.937500 0
  0.531250   0.906250 0
  0.765625   0.812500 0
  0.531250   0.875000 0
  0.765625   0.781250 0
  0.531250   0.843750 0
  0.781250   1.000000 0
  0.765625   0.546875 0
  0.765625   0.750000 0
  0.531250   0.812500 0
  0.781250   0.953125 0
  0.531250   0.765625 0
  0.515625   0.750000 0
  0.750000   0.984375 0
  0.750000   0.953125 0
  0.796875   0.593750 0
  0.796875   0.562500 0
  0.750000   0.843750 0
  0.750000   0.937500 0
  0.515625   1.000000 0
  0.750000   0.906250 0
  0.515625   0.968750 0
  0.750000   0.671875 0
  0.750000   0.875000 0
  0.515625   0.937500 0
  0.515625   0.921875 0
  0.515625   0.890625 0
  0.750000   0.796875 0
  0.515625   0.859375 0
  0.750000   0.765625 0
  0.515625   0.828125 0
  1.000000   0.718750 0
  0.750000   0.531250 0
  0.750000   0.734375 0
  0.515625   0.796875 0
  0.734375   1.000000 0
  0.734375   0.968750 0
  0.734375   0.937500 0
  0.781250   0.578125 0
  0.781250   0.546875 0
  0.968750   0.578125 0
  0.734375   0.828125 0
  0.968750   0.546875 0
  0.734375   0.796875 0
  0.734375   0.765625 0
  0.968750   0.671875 0
  0.734375   0.734375 0
  0.968750   0.640625 0
  0.734375   0.703125 0
  0.968750   0.609375 0
  0.734375   0.671875 0
  0.734375   0.656250 0
  0.734375   0.625000 0
  0.968750   0.531250 0
  0.734375   0.593750 0
  0.984375   0.734375 0
  0.984375   0.703125 0
  0.734375   0.515625 0
  0.718750   0.984375 0
  0.718750   0.953125 0
  0.718750   0.921875 0
  0.953125   0.562500 0
  0.718750   0.812500 0
  0.953125   0.531250 0
  0.718750   0.781250 0
  0.718750   0.750000 0
  0.953125   0.656250 0
  0.718750   0.718750 0
  0.953125   0.625000 0
  0.718750   0.687500 0
  0.953125   0.593750 0
  0.718750   0.656250 0
  0.671875   1.000000 0
  0.718750   0.640625 0
  0.718750   0.609375 0
  0.953125   0.515625 0
  0.718750   0.578125 0
  0.968750   0.718750 0
  0.968750   0.687500 0
  0.953125   0.671875 0
  0.703125   0.968750 0
  0.703125   0.937500 0
  0.937500   0.656250 0
  0.703125   0.906250 0
  0.937500   0.546875 0
  0.703125   0.796875 0
  0.937500   0.515625 0
  0.703125   0.765625 0
  0.937500   0.671875 0
  0.703125   0.734375 0
  0.937500   0.640625 0
  0.703125   0.703125 0
  0.937500   0.609375 0
  0.703125   0.671875 0
  0.937500   0.578125 0
  0.703125   0.640625 0
  0.656250   0.984375 0
  0.703125   0.625000 0
  0.703125   0.593750 0
  0.718750   0.796875 0
  0.953125   0.734375 0
  0.812500   1.000000 0
  0.859375   0.656250 0
  0.703125   0.781250 0
  0.937500   0.718750 0
  0.953125   0.703125 0
  0.796875   0.984375 0
  0.843750   0.640625 0
  0.812500   0.968750 0
  0.859375   0.625000 0
  0.796875   0.953125 0
  0.843750   0.609375 0
  0.687500   0.953125 0
  0.687500   0.921875 0
  0.687500   0.890625 0
  0.921875   0.734375 0
  0.687500   0.796875 0
  0.687500   0.781250 0
  0.921875   0.703125 0
  0.687500   0.765625 0
  0.687500   0.750000 0
  0.921875   0.656250 0
  0.687500   0.718750 0
  0.921875   0.625000 0
  0.687500   0.687500 0
  0.921875   0.593750 0
  0.687500   0.656250 0
  0.640625   1.000000 0
  0.921875   0.562500 0
  0.687500   0.625000 0
  0.640625   0.968750 0
  0.687500   0.609375 0
  0.687500   0.578125 0
  0.937500   0.687500 0
  0.921875   0.671875 0
  0.671875   0.921875 0
  0.906250   0.656250 0
  0.671875   0.906250 0
  0.671875   0.875000 0
  0.906250   0.718750 0
  0.671875   0.781250 0
  0.671875   0.765625 0
  0.671875   0.734375 0
  0.906250   0.640625 0
  0.671875   0.703125 0
  0.906250   0.609375 0
  0.671875   0.671875 0
  0.906250   0.578125 0
  0.671875   0.640625 0
  0.625000   0.984375 0
  0.671875   0.609375 0
  0.625000   0.953125 0
  0.671875   0.593750 0
  0.671875   0.562500 0
  0.765625   0.953125 0
  0.812500   0.609375 0
  0.656250   1.000000 0
  0.656250   0.953125 0
  0.656250   0.906250 0
  0.890625   0.640625 0
  0.656250   0.890625 0
  0.656250   0.859375 0
  0.890625   0.734375 0
  0.656250   0.796875 0
  0.812500   0.921875 0
  0.562500   1.000000 0
  0.625000   0.828125 0
  0.812500   0.843750 0
  0.843750   0.593750 0
  0.812500   0.812500 0
  0.625000   0.718750 0
  0.828125   0.687500 0
  0.640625   0.593750 0
  0.812500   0.781250 0
  0.625000   0.687500 0
  0.765625   0.828125 0
  0.640625   0.562500 0
  0.812500   0.750000 0
  0.562500   0.828125 0
  0.781250   0.875000 0
  0.546875   0.937500 0
  0.781250   0.671875 0
  0.781250   0.593750 0
  0.546875   0.656250 0
  0.796875   0.750000 0
  0.562500   0.812500 0
  0.796875   0.546875 0
  0.765625   0.796875 0
  0.765625   0.593750 0
  1.000000   0.531250 0
  0.812500   0.718750 0
  0.859375   0.562500 0
  0.625000   0.625000 0
  0.812500   0.703125 0
  0.812500   0.906250 0
  0.578125   0.968750 0
  0.984375   0.593750 0
  0.828125   0.578125 0
  0.828125   0.781250 0
  0.593750   0.843750 0
  0.812500   0.671875 0
  0.625000   0.578125 0
  0.796875   0.671875 0
  0.562500   0.734375 0
  0.984375   0.562500 0
  0.828125   0.546875 0
  0.812500   0.640625 0
  0.750000   0.812500 0
  0.625000   0.546875 0
  0.796875   0.640625 0
  0.562500   0.703125 0
  0.828125   0.515625 0
  0.781250   0.734375 0
  0.546875   0.796875 0
  0.781250   0.531250 0
  0.750000   0.781250 0
  0.625000   0.515625 0
  0.796875   0.609375 0
  0.562500   0.671875 0
  0.765625   0.656250 0
  0.765625   0.859375 0
  0.531250   0.921875 0
  0.812500   0.578125 0
  0.562500   0.656250 0
  0.984375   0.687500 0
  0.750000   0.750000 0
  0.812500   0.562500 0
  0.812500   0.765625 0
  0.578125   0.828125 0
  0.562500   0.625000 0
  0.984375   0.656250 0
  0.750000   0.718750 0
  0.812500   0.531250 0
  0.781250   0.656250 0
  0.546875   0.718750 0
  0.781250   0.625000 0
  0.546875   0.687500 0
  0.750000   0.640625 0
  0.796875   0.531250 0
  0.562500   0.593750 0
  0.984375   0.625000 0
  0.750000   0.687500 0
  0.546875   0.984375 0
  0.609375   0.812500 0
  0.796875   0.875000 0
  0.546875   0.953125 0
  0.609375   0.578125 0
  0.843750   0.515625 0
  0.765625   0.515625 0
  0.765625   0.718750 0
  0.531250   0.781250 0
  0.984375   0.546875 0
  0.750000   0.609375 0
  0.796875   0.828125 0
  0.671875   0.968750 0
  0.796875   0.796875 0
  0.796875   0.765625 0
  0.609375   0.671875 0
  0.796875   0.734375 0
  0.546875   0.812500 0
  0.796875   0.703125 0
  0.843750   0.546875 0
  0.609375   0.609375 0
  0.796875   0.687500 0
  0.562500   0.953125 0
  0.796875   0.656250 0
  0.609375   0.562500 0
  0.796875   0.625000 0
  0.609375   0.531250 0
  0.546875   0.640625 0
  0.765625   0.671875 0
  0.531250   0.734375 0
  0.796875   0.515625 0
  0.765625   0.640625 0
  0.531250   0.703125 0
  0.703125   1.000000 0
  0.765625   0.609375 0
  0.531250   0.671875 0
  0.765625   0.578125 0
  0.531250   0.640625 0
  0.546875   0.609375 0
  0.531250   1.000000 0
  0.890625   0.593750 0
  0.656250   0.656250 0
  0.781250   0.515625 0
  0.546875   0.578125 0
  0.531250   0.968750 0
  0.890625   0.562500 0
  0.656250   0.625000 0
  0.609375   0.968750 0
  0.781250   0.859375 0
  0.656250   0.593750 0
  0.750000   0.703125 0
  0.515625   0.765625 0
  0.781250   0.812500 0
  0.781250   0.781250 0
  0.593750   0.687500 0
  0.781250   0.750000 0
  0.593750   0.656250 0
  0.781250   0.718750 0
  0.531250   0.796875 0
  0.828125   0.562500 0
  0.593750   0.625000 0
  0.781250   0.687500 0
  0.828125   0.531250 0
  0.593750   0.593750 0
  0.812500   0.625000 0
  0.578125   0.687500 0
  0.781250   0.640625 0
  0.781250   0.609375 0
  0.593750   0.515625 0
  0.515625   0.781250 0
  0.812500   0.546875 0
  0.578125   0.609375 0
  0.812500   0.515625 0
  0.578125   0.578125 0
  0.750000   0.656250 0
  0.515625   0.718750 0
  0.750000   0.625000 0
  0.515625   0.687500 0
  0.687500   0.984375 0
  0.750000   0.593750 0
  0.515625   0.656250 0
  0.531250   0.546875 0
  0.750000   0.562500 0
  0.515625   0.625000 0
  0.531250   0.515625 0
  0.984375   0.515625 0
  0.750000   0.578125 0
  0.515625   0.531250 0
  0.828125   0.796875 0
  0.640625   0.703125 0
  0.828125   0.765625 0
[...]
CELL_DATA 7648
SCALARS scalar_value float 1
LOOKUP_TABLE default
0
0
3.17494e-09
2.72953e-09
1.71241e-09
4.42989e-09
0.00832134
0.00622221
0.00511752
0.00536029
0.00105242
0.00061025
0.000294518
0.000573334
0.000180511
0.00018008
0.000108418
0.000338012
3.85668e-10
1.40455e-10
3.51164e-10
2.84589e-10
1.5209e-10
1.10479e-10
0
0
0
0
0
0
0
0
9.8233e-05
7.24516e-05
5.65201e-05
5.33769e-05
5.09198e-05
3.02007e-05
0
0
4.69592e-05
3.47978e-05
0
0
1.64808e-05
2.09887e-05
3.01296e-05
1.48471e-05
5.03831e-05
5.07895e-05
7.26529e-05
3.16255e-05
1.0674e-05
9.7581e-06
1.3696e-05
5.95602e-06
2.5656e-09
2.77814e-09
1.04317e-09
2.0629e-09
1.11419e-09
8.08137e-10
0.000233277
0.000152851
0.000116895
8.41761e-05
5.40261e-05
2.38573e-05
2.2121e-05
2.74166e-05
2.25796e-05
1.87843e-05
2.9881e-05
7.71149e-10
0
3.81923e-07
3.44783e-07
2.26072e-07
5.30725e-07
9.75942e-08
1.58027e-07
1.4415e-07
2.3905e-07
1.3803e-07
1.47392e-07
9.87204e-08
2.41799e-07
0
0
0
0.00275635
0.00217392
0.00203754
0.00179028
0.00152895
0.00125995
0.000922746
0.00137036
0.000947172
0.000769942
0.000781984
0.00111136
0.000832001
0.000667626
1.03723e-10
7.46171e-06
1.52577e-05
9.8861e-06
0
0
0
0
8.42093e-06
5.80188e-06
4.31609e-06
4.09536e-06
1.98263e-06
1.04828e-06
1.08339e-06
0.00118024
0.000809608
0.000687917
0.000649348
0.000432095
0.00037082
0.000476838
0.000250583
0
0
0
0
3.76555e-09
2.40389e-09
1.47688e-09
2.16857e-09
0.010458
0.0088927
0.0103249
0.0066506
6.06177e-05
0
0
1.22082e-05
7.26764e-06
7.07268e-06
3.81802e-06
1.27966e-06
2.67328e-06
1.77002e-09
9.58537e-10
7.17706e-10
0
0
0
0
1.31545e-10
0
0
1.43616e-10
0.00131536
0.000753945
0.000100851
7.76219e-05
4.69277e-05
0.000102027
0
9.27473e-05
6.79761e-05
4.24999e-05
7.79841e-05
0
0
0
0
2.12879e-06
1.44501e-06
0.00104547
0.000786458
0.000544202
0.000788769
0.000404382
0.000416631
0.000313371
0.000597789
0
0
0
0
0
0
0
0
0
0.000614364
0.000480944
0.000334433
0.000542814
0
0
0
0
0.00940157
0.00696139
0.0061264
0.00567392
3.06277e-05
2.17068e-05
0.0045404
0.00372856
0.00271595
0.00415983
0.00395268
0.00294919
0.00267557
0.00240046
0.00331545
0.00239162
0.00217156
0.0018639
2.83408e-06
2.33175e-06
3.16369e-06
1.50741e-06
5.07286e-06
1.01964e-05
4.23416e-06
7.57735e-05
4.40042e-05
2.80737e-05
5.07181e-05
0.00950701
0.00764481
0.00869505
0.00597309
1.30665e-08
8.27011e-09
5.06075e-09
7.00498e-09
0.00395383
0.00329416
0.00392266
0.00247282
1.90545e-09
1.18561e-09
6.97119e-10
1.03635e-09
0
0
0
0
0
0
0
0
0
0
0
0
0
2.24618e-08
1.4627e-08
9.33699e-09
1.2903e-08
2.72996e-08
1.74878e-08
2.09573e-08
1.11551e-08
8.60456e-09
5.37307e-09
6.01821e-09
3.53634e-09
1.04199e-06
1.7216e-06
7.36535e-07
1.48415e-07
1.03588e-07
6.60021e-08
1.09757e-07
2.36847e-10
1.26245e-10
0
0
0
0
0
0
0
0
0
0
0
0
0
0
2.7416e-09
1.62796e-09
0.000450258
0.000908947
0.000138179
8.03305e-07
0.000208861
2.08731e-09
4.18431e-08
0.0101389
0.0073314
6.63502e-06
0.00654283
0.00903372
0.00396232
4.73902e-06
0.00413416
1.21358e-05
9.37792e-06
3.24202e-05
2.51831e-05
2.15553e-05
4.29271e-05
0
0
0
1.01204e-10
2.49608e-10
2.96278e-09
3.07328e-09
2.85333e-09
0
3.57476e-07
7.51527e-08
2.25291e-07
1.16515e-07
0.000211877
0.000136737
1.82919e-06
0.00562251
0.00318667
0.00471583
0.00422763
0.00397234
0.00722501
0
0
0
0
0
0
7.00147e-05
0.000124541
0
0.000108988
0.000163743
1.65647e-05
0.00344168
3.54993e-10
0.00589697
0
0
0
0
0
1.34015e-08
7.63654e-09
7.56905e-09
4.89733e-09
5.6818e-09
0
2.03952e-10
2.98861e-08
1.90934e-08
1.23543e-08
5.38508e-09
0
0
0
0
0.000161832
0.000688184
1.09922e-09
2.00517e-08
2.08081e-08
1.93034e-08
8.0576e-09
0
1.70025e-08
0
0
0
9.79118e-10
9.97086e-10
1.76325e-09
1.52505e-09
5.21396e-10
9.15763e-10
1.08302e-10
1.82174e-09
1.75556e-10
2.32571e-09
8.56043e-10
2.00421e-09
1.05443e-10
0
0.00149599
2.47788e-10
0.00121375
1.52952e-10
1.32327e-09
0.000865033
0.00245458
0
0.0014358
0.00371446
1.39686e-10
0
0
0
0
0
1.2773e-08
0
0
2.92524e-06
0.00805665
0
0
1.43869e-07
6.31075e-09
3.67218e-05
1.92788e-06
0.00245284
7.84333e-05
3.68668e-05
0
0
0.00117434
0.00340937
0
0
3.07769e-10
0
0
0
9.43322e-05
0
0
7.95064e-09
4.36714e-09
3.84239e-10
0
0
0
0
0
9.76613e-07
3.58468e-07
2.33261e-07
1.61687e-08
0
0
2.60632e-09
0.00204167
0.00335095
2.83939e-07
5.97197e-07
7.57224e-10
4.25758e-09
1.37734e-10
1.62449e-07
5.70012e-09
3.58886e-09
1.21333e-08
2.06345e-09
3.38551e-09
9.6778e-09
5.7015e-09
9.02815e-09
3.95588e-08
0.00971473
0.00727517
6.78315e-07
0
0
0
0
5.00271e-09
3.57515e-06
3.01354e-05
9.02958e-06
4.37822e-06
4.84476e-07
3.57243e-05
2.1541e-09
3.77195e-09
0
0
0
1.22617e-09
4.47585e-08
0
4.00027e-10
2.75425e-10
7.84069e-10
2.15168e-10
0.000106083
0
4.29082e-05
5.75568e-09
3.21413e-09
0.00501629
7.73649e-07
7.46285e-07
4.74447e-07
2.32207e-08
5.73898e-10
0
2.63064e-10
0
0
0
0
0
0
0
0
0
0
0
0
0.000119424
5.97222e-05
1.43846e-07
1.67221e-06
3.31083e-09
0
3.05249e-10
7.01265e-07
3.30542e-07
0
0.000643068
0
1.5903e-09
0
0
0
0
0
1.07664e-10
0
0.000317811
0.00256986
0
0.00267133
0.00193351
9.79003e-07
2.2722e-07
4.71e-10
5.0993e-09
0.00632473
1.27671e-09
0.00015869
0
0
3.33618e-05
6.99938e-05
0
4.46451e-05
4.85613e-08
1.23216e-08
3.12249e-08
2.00435e-07
4.44101e-07
3.17571e-08
3.76935e-08
8.73214e-09
1.41203e-08
3.70275e-06
2.6562e-06
1.37727e-06
1.59637e-06
8.53832e-07
3.16994e-06
1.3474e-06
0.000269345
1.76626e-06
1.27383e-06
0
5.28208e-07
3.60276e-07
2.54447e-07
3.3819e-06
2.95788e-07
6.39302e-06
7.48361e-05
2.7301e-05
1.7139e-07
2.23542e-06
9.33934e-05
1.00387e-07
7.0621e-07
6.72484e-06
4.99177e-07
3.30715e-07
7.98199e-07
8.27859e-06
9.27931e-06
1.05392e-06
1.19409e-08
0.00400698
0.00325755
9.58466e-05
0
6.68713e-07
3.22782e-10
0
1.17206e-09
0
7.15508e-08
1.11046e-09
6.06503e-10
0.000197779
2.37553e-08
0.00447259
2.35625e-08
1.90248e-08
0
2.85506e-09
7.47477e-09
0.00507076
0.000104978
5.50527e-07
5.04346e-07
2.095e-07
2.29405e-07
0.000159957
1.72458e-06
0
4.80877e-07
5.94064e-09
0.00620821
1.44262e-09
0
0
0
3.26567e-09
0.00327472
0
0
0
0
0
0
0
0
1.0322e-06
3.98664e-07
8.16219e-09
0.0014448
2.02647e-07
1.07849e-05
0
5.69397e-07
0
4.87205e-06
0.000103832
8.40368e-06
2.87685e-10
0.00345254
6.05924e-05
0
2.67106e-06
0
0
0
1.54267e-05
4.1959e-07
1.12486e-05
2.10003e-07
0.000439148
0
0.000335982
2.11625e-07
0
5.36468e-06
3.2826e-10
4.32234e-10
1.43212e-08
1.10469e-10
1.13637e-10
0.000514737
1.04644e-10
1.85808e-10
8.55239e-05
3.27999e-10
5.53488e-10
1.79424e-10
5.28127e-10
0
0
0
0
1.12694e-05
0
4.73746e-07
7.22691e-06
0
1.82941e-10
2.70351e-05
0
1.1687e-07
0
6.69685e-08
0
0.00027162
0
3.04567e-10
0
1.80275e-05
0
0
1.33771e-06
8.34918e-08
1.2674e-07
0
2.21774e-07
0.000671466
2.11425e-09
1.66727e-05
2.0058e-05
2.27469e-06
6.15615e-09
6.47739e-07
3.60935e-06
0
0
0
2.82395e-07
2.24837e-06
2.52379e-09
0
5.14874e-07
5.01622e-06
7.3187e-07
9.96548e-07
1.07157e-05
0
0
3.48608e-05
0
0
7.52007e-10
4.32184e-08
0
6.4493e-05
1.20946e-08
2.92807e-10
1.89278e-08
1.4734e-08
1.66569e-08
4.84996e-05
5.64967e-10
0
0
1.73008e-09
5.53363e-05
1.11218e-06
0
0.000254046
0
3.2197e-10
1.40808e-10
1.85614e-09
2.07628e-10
3.97127e-06
0.000240078
0
8.82639e-05
1.15157e-09
0.000787442
0.00254624
0
7.7099e-08
0.00134932
0.00386603
0
6.25734e-05
3.89482e-08
1.05829e-07
0
2.52294e-08
0
0
5.6623e-08
9.01893e-08
0
1.31668e-07
5.96504e-08
1.51386e-08
0
0
2.55059e-08
3.17193e-08
0.0112773
0
4.26245e-10
1.58396e-08
0.0106694
0
5.9188e-10
7.27565e-06
2.60967e-08
3.24343e-07
1.46913e-05
0
2.35986e-05
9.59102e-08
8.69699e-08
6.94399e-10
0.00328631
0
0
0.000301426
0
0.0024859
2.11603e-10
5.98366e-06
1.85811e-09
0
6.58749e-06
3.40765e-09
0
1.08697e-06
1.57744e-09
5.86174e-10
6.49994e-07
4.20351e-05
7.76908e-09
5.0864e-09
0.0101157
0.000175127
1.29595e-05
2.08167e-08
2.57698e-06
6.87682e-08
0
2.05412e-06
5.5234e-08
7.82731e-08
0
0
0
0
3.09438e-06
0
0
2.37993e-05
1.60252e-05
0
1.4238e-09
7.276e-09
6.35891e-08
4.2582e-10
1.34303e-08
1.08067e-09
5.08117e-09
2.06372e-09
0
1.42359e-08
1.11186e-08
0.00204763
2.10163e-06
6.72584e-09
5.1657e-08
4.39048e-07
2.3353e-08
0.000294393
3.33837e-08
1.53343e-08
0.0001344
1.29484e-06
0
0.0112626
0.0030984
1.27283e-09
8.31539e-06
1.87143e-08
1.81771e-06
1.48038e-06
2.31507e-06
0
1.17281e-09
0.000125331
9.42363e-09
0.00100225
9.35439e-07
2.83911e-08
1.38992e-06
0
0
0
4.53508e-09
1.72473e-08
1.17587e-07
7.61533e-08
1.28124e-08
0
0
0
3.04841e-09
3.08086e-08
0
0.000105011
1.55263e-05
7.77795e-05
0.000240224
4.4036e-05
0
1.85975e-05
2.6147e-10
0
7.67971e-07
1.84075e-07
0.00319854
5.89528e-05
4.21538e-06
0
8.86939e-06
0
0
1.53261e-05
0.000123555
0
0
0
0
0
0
0
7.76483e-10
0
4.0546e-05
4.68304e-06
2.82116e-06
2.33418e-08
3.20837e-06
0
0
2.72297e-07
5.87409e-09
0
2.15579e-09
0
0
0
0
0
3.22138e-07
2.5154e-07
0
0
1.23764e-07
7.47345e-07
0
0
8.10287e-05
3.5654e-06
3.18661e-08
3.76217e-10
0
1.29255e-05
6.34904e-07
0
2.9817e-06
0.000259403
1.54382e-05
3.60433e-08
0
1.14214e-05
1.67746e-06
0
1.66478e-06
1.85978e-05
9.01743e-09
0
0
5.63208e-07
0.00100745
0
3.43004e-07
0
8.64773e-07
4.31013e-07
0
1.30995e-08
1.41015e-09
0.00186066
0.00469548
5.35884e-07
2.58295e-06
4.11356e-06
0
0
0
0
5.23045e-08
6.69339e-05
0.000141965
0
5.54133e-06
0
2.70018e-05
2.78024e-06
1.48839e-05
0
4.43755e-08
2.93556e-05
0
7.93275e-06
0
1.61404e-06
2.01094e-06
4.53623e-05
4.55435e-06
0
0.00940136
0
9.03095e-09
8.50848e-10
1.47571e-08
6.91023e-06
1.1431e-06
1.58923e-06
0
0
6.42719e-10
2.24508e-09
0
0
0
1.91497e-07
0
3.97285e-06
0
3.17696e-07
1.15004e-09
0
0
1.4805e-07
1.14537e-06
4.95094e-07
0
0
0
4.28549e-06
4.9768e-06
7.90667e-06
3.01271e-06
3.39059e-07
0.000669704
1.17513e-06
0.00234825
0.00134099
8.66486e-08
1.13025e-07
0.00033481
0
0
0
1.31178e-05
0
1.01449e-10
0
5.80377e-07
3.86511e-05
3.9705e-05
1.3692e-05
1.94955e-05
0
1.90466e-07
3.00061e-10
0
0
0
0
0
2.08457e-06
5.14853e-06
0
0
0
1.49007e-07
1.3847e-06
0
9.97913e-08
8.81816e-07
8.01835e-08
4.61432e-07
2.64984e-05
0.000239341
0
0.000547601
0
0
2.37137e-05
0
0
3.93176e-06
0
0
0
0
0
0
0
0
9.44102e-06
0
1.64001e-05
0
0
1.19077e-06
1.06226e-10
4.67763e-08
0.00318209
3.40112e-08
0.00343601
1.84167e-09
4.14045e-09
2.56292e-06
9.86641e-07
0
0
0
0
2.87785e-07
6.48199e-08
0
0
2.67079e-05
3.78258e-05
1.15782e-09
6.05025e-05
0
5.19558e-06
7.00841e-06
1.17862e-05
0
0
0
0
0
0
0
0
5.65864e-06
0
0
1.14158e-05
4.53596e-05
0
7.34135e-06
1.38237e-05
4.67037e-06
8.47027e-06
1.21033e-06
0
0
0
2.39392e-08
0
0
0
5.692e-08
5.08734e-09
9.31414e-09
0
0
4.1247e-09
0
0
9.3277e-09
0
3.61729e-09
0
3.51401e-09
0
0.00154684
0.00050981
9.66715e-05
0
0.000927009
0
0.00157696
0.000157182
0.00243544
1.17256e-08
2.14272e-06
1.11077e-10
1.18626e-06
0
3.28702e-06
0
0
0
0
0
0
0
0
0
0
0
7.0893e-07
0
0
0
2.03326e-10
5.42612e-10
1.77147e-07
0
0.000166331
2.57526e-05
1.22177e-10
0.00373754
0
4.24002e-06
6.8726e-06
0.00863111
2.66991e-06
9.48755e-06
0
3.5974e-07
3.34025e-05
0
0
5.08662e-08
5.44042e-09
4.74573e-10
3.06412e-08
2.46252e-09
1.02491e-09
4.50954e-08
6.22443e-05
1.86883e-10
9.26889e-06
1.00655e-08
1.93095e-06
0
0
2.6254e-08
7.24604e-07
2.98511e-06
1.4907e-08
0
5.01706e-07
3.44282e-08
3.21398e-07
2.86315e-07
1.46299e-07
1.01649e-07
6.34556e-06
1.17794e-05
1.91809e-05
3.25681e-10
4.72215e-08
3.2817e-08
0
0
1.45992e-08
9.34683e-10
6.34584e-08
1.35751e-07
2.81161e-05
5.07085e-06
0
0.00153678
0.000428205
0
2.49299e-10
0
0
4.2416e-08
0
0
0
0
4.63909e-10
1.61202e-05
3.82428e-06
1.58339e-09
0.000164587
0.00022131
0.000236195
0.000356088
0.00144449
3.87309e-05
0
0
0
0
0
0
0
0
0
0
0
0
1.08824e-07
0
0
0
0
0
0
0
0
1.78749e-07
1.49422e-07
7.29307e-07
4.14354e-07
4.25298e-08
2.96594e-08
2.29736e-10
0.00206542
0.00245014
7.43962e-09
0.00598227
0.00768433
6.88637e-10
0.00182893
3.25976e-05
2.1336e-05
2.45163e-05
4.1624e-06
3.43024e-08
0.000200248
1.01579e-05
0.000142943
9.85645e-05
0.000172757
0.000290388
0
0
0
0
9.84228e-07
0.000288699
0.000300971
0
1.55918e-05
9.41948e-06
7.16503e-06
1.93756e-05
1.00632e-10
3.93244e-10
0
0
0
0
0
0
0
0.000155409
1.87845e-05
6.07555e-05
5.95744e-05
6.67963e-05
0.000100111
0.000273008
0
0
0
0
8.37394e-08
3.75137e-06
0.000611426
2.26169e-07
0
0
0
0
0
0
0.000535317
0.000431092
0.000481629
6.56226e-09
0
0
0
0
0
4.81331e-09
1.05718e-08
3.94441e-08
2.26315e-08
4.64257e-06
4.80582e-06
6.14963e-06
9.6121e-06
1.0124e-05
1.61454e-05
1.65023e-06
6.00821e-08
5.97941e-09
2.22892e-09
2.80261e-09
4.8622e-10
0
7.43847e-06
2.52604e-05
4.09316e-05
6.88106e-05
0
0
0
0.000212628
0
1.8244e-06
1.2787e-06
3.12222e-06
4.22645e-06
0.0008004
1.38736e-08
9.28949e-07
1.09435e-06
2.09195e-06
2.92531e-10
5.28223e-08
0.000232627
0.000935742
2.26455e-07
5.87694e-08
3.77636e-07
9.37606e-08
5.23641e-07
1.7929e-05
1.51308e-05
2.09924e-05
3.39952e-05
2.8116e-08
2.7531e-10
6.64017e-10
0
1.80923e-10
1.08775e-05
2.06078e-06
9.56252e-10
2.89207e-05
4.3241e-10
1.54884e-10
8.72002e-10
2.96202e-06
2.32908e-07
1.77827e-07
3.10201e-07
0
0
0
0
0
0
0
0
0
1.59319e-10
5.23702e-06
0.000236488
9.45654e-08
0.000340406
0.000226842
1.62336e-09
2.16358e-09
2.81507e-09
0
0.00108726
0.00147293
0.000165133
0.00040942
2.53613e-06
1.91869e-06
2.4643e-06
7.10839e-10
5.88781e-10
1.91182e-05
4.76194e-08
4.12117e-08
8.14221e-10
2.05609e-09
1.1556e-06
0
0
6.48713e-08
0
0
0
0
7.73561e-08
0
0
0
7.61434e-08
0.00013587
0.000147212
0.000166945
5.73467e-07
9.02836e-07
0
0
0
0
3.91461e-05
0.000125819
5.62374e-09
0.000107261
0.000342833
0
0
0
0
0
0
0
0
0
2.04803e-10
7.44873e-10
1.1911e-09
2.3075e-07
4.08438e-07
0.000166872
0.00142903
2.49663e-07
0.000666956
0
4.04669e-07
6.94612e-07
2.17318e-08
1.62291e-10
1.51293e-06
3.48631e-05
7.71042e-05
0.000440735
1.49072e-05
1.1253e-08
0
3.50025e-08
0
1.33684e-10
0
0
9.51454e-10
7.99088e-10
8.10072e-05
1.10963e-10
2.40727e-10
1.08363e-05
1.15717e-05
7.18198e-06
0
0
0
0
7.15215e-10
0
1.15174e-09
1.28436e-07
0
0
0
5.81776e-07
7.81799e-07
0
0
0
0
0.0021448
0.00208908
0
0
0
8.59065e-08
0
0
0
0
0
0
0.00153208
0.00129177
6.95608e-10
2.14439e-10
3.69667e-10
3.51749e-10
0
0
0
1.6363e-07
0
1.09052e-05
7.47993e-06
9.22779e-06
0.000442781
6.74516e-06
5.66697e-06
8.78004e-06
1.49459e-05
5.19804e-05
0.000194659
2.28968e-10
1.63058e-07
0.000448032
0
1.32327e-10
0.00187976
0.00531471
5.47355e-10
1.68434e-06
1.35867e-10
1.05033e-10
3.55421e-10
6.61179e-08
1.64527e-07
4.68809e-09
1.31547e-08
0.000212973
3.74443e-09
3.38811e-09
3.00881e-09
1.36484e-09
0
1.81481e-07
2.02334e-07
2.53686e-07
3.6014e-08
0
0
0
0
0
0
5.35763e-07
7.26497e-07
0
0
0
0
0
2.79015e-09
9.92157e-07
1.38508e-06
2.27196e-06
0
0
0
0
0
0.000165627
3.67945e-09
5.45531e-09
0
9.89737e-09
6.54046e-10
1.9263e-09
5.18513e-08
1.01929e-07
0
0
0
0
0
0
0
0
0
4.53979e-05
7.17434e-05
6.7837e-10
0
0
3.02641e-05
8.52147e-05
0
6.52325e-05
0.000121891
8.81028e-05
0.000104095
4.071e-10
0
0
0
0
1.95229e-07
0
7.12512e-09
0.000164584
0.000190335
0.00021823
7.40808e-07
3.11673e-07
2.78499e-07
0.00110208
0.00147479
0.00197013
0
0
0
0.00030609
0.000187981
0.000295283
0.000396508
1.88461e-09
1.71191e-10
1.40824e-10
0
2.36056e-10
4.03384e-10
0
0
0
0.000471492
0
0
5.33315e-07
1.6028e-10
4.13953e-10
0
0
0
0
7.6271e-05
0
0
0
7.54616e-08
5.64955e-05
3.57519e-05
3.09142e-05
0
0
0
0
0
2.35337e-06
4.02309e-06
9.49478e-06
0
0
0
2.50973e-08
4.35591e-10
1.35441e-09
7.8494e-05
0.000157651
3.2143e-06
9.93418e-08
0.000299014
0.00053855
0.000446172
0.000117389
6.09016e-06
0.000767399
0.000857275
0.00128532
1.24038e-06
0
2.28259e-06
1.59167e-10
4.5818e-09
1.57329e-09
2.28571e-09
2.38448e-10
4.31073e-10
6.45804e-10
0.00202777
0.00242755
2.45523e-06
0
0
0
0
0
0
0
0
0
1.66382e-10
0
0
0
0
0
5.5167e-06
0
8.59202e-07
1.14208e-06
6.09723e-06
1.40562e-06
0.000121469
0.000146302
0.000254342
0
0
0
0.000515129
0.000619059
0
1.38371e-10
2.02543e-08
2.9946e-08
4.59861e-08
5.94646e-06
1.31704e-05
3.70413e-05
1.72401e-05
2.08745e-05
0
0
0
0
5.03726e-05
3.78871e-08
6.39271e-08
4.88947e-09
3.75095e-08
0.000347098
0.00170873
1.64032e-05
2.23564e-05
3.52098e-05
0.000694718
0.000713774
0.00090224
0.000403158
0.000814657
0.00119371
0.00131466
3.33671e-07
6.25094e-08
4.27777e-07
0.000244637
2.02011e-05
3.21027e-05
0
0
0
1.54388e-06
3.21059e-06
1.26296e-05
6.48158e-10
2.16839e-05
1.27725e-09
5.68767e-09
3.50456e-08
6.93336e-08
9.36885e-08
2.792e-06
3.45056e-06
7.97269e-09
2.0521e-08
0
0
0
0
7.1003e-10
7.10332e-06
2.2786e-10
4.30493e-10
0
2.60694e-10
1.34815e-10
8.30034e-08
0
0
0
0
0
0
0
0
0.000132517
0.000200803
1.44155e-06
4.39465e-06
0
0
0
0
0
0
0
0
0
0
0.000144213
0.000190429
0
0
0.000217057
0.00034286
0.000344594
0.000306364
2.12132e-05
2.14387e-05
1.272e-07
0
1.55989e-07
1.1118e-07
9.14234e-07
1.75952e-06
0
0
0
0
0.00158512
0.0675333
0.124024
0.340401
0.340923
0.288394
0.247609
0.159557
0.0871417
0.0411439
0.0172482
0.0109198
0.329558
0.301971
0.264401
0.221229
0.177102
0.135895
0.100164
0.0710826
0.0487028
0.0323323
0.0209016
0.0132607
0.000520343
0.00258376
0.041183
0.0862953
0.145029
0.342035
0.321114
0.292083
0.254413
0.2122
0.129959
0.0677403
0.0306598
0.012626
0.339423
0.327187
0.302446
0.267888
0.227357
0.184919
0.144213
0.107933
0.0776263
0.0537625
0.0359949
0.0234751
0.0150884
0.00100359
0.00423661
0.0579041
0.11105
0.166355
0.32997
0.286925
0.251749
0.2121
0.171549
0.133171
0.0992161
0.0709665
0.0487987
0.0210083
0.318059
0.294853
0.262511
0.22459
0.18459
0.145672
0.110318
0.0801406
0.0558544
0.0374231
0.0243214
0.0157512
0.000348009
0.00180002
0.00688147
0.0824511
0.1373
0.185289
0.300434
0.241652
0.204832
0.167064
0.130946
0.0984757
0.070927
0.0488447
0.0321753
0.0134381
0.314698
0.302916
0.280509
0.250145
0.214997
0.177978
0.141707
0.108312
0.0792803
0.0554094
0.036871
0.0234366
0.014956
0.000282109
0.000683675
0.00305802
0.0194676
0.0537933
0.114883
0.299858
0.298305
0.256987
0.192829
0.1583
0.125061
0.0947976
0.0686635
0.0472597
0.0189519
0.0156936
0.0454381
0.294306
0.296873
0.283571
0.261634
0.233369
0.201228
0.167524
0.134377
0.103543
0.0763121
0.0534657
0.0353004
0.0218233
0.0134121
0.000220451
0.00120515
0.0049497
0.0298673
0.0796737
0.14232
0.289572
0.29044
0.288168
0.261687
0.210232
0.148139
0.117823
0.0899532
0.0655252
0.0451457
0.0290614
0.0112204
0.000148145
0.00727558
0.0240682
0.0677364
0.284692
0.285661
0.278339
0.263835
0.242701
0.216492
0.187088
0.156437
0.126269
0.0980072
0.0727299
0.0511724
0.0337146
0.0205191
0.0122213
0.000163846
0.000409732
0.00196175
0.00764351
0.0142397
0.0443238
0.110286
0.271807
0.275248
0.27237
0.262662
0.223733
0.16875
0.111737
0.0858195
0.0629011
0.0435624
0.0165981
0.000284571
0.0110237
0.0355253
0.094965
0.269862
0.270372
0.263461
0.249381
0.229049
0.20412
0.176522
0.148017
0.120046
0.0937265
0.0700024
0.013991
0.0086389
9.00603e-08
0.00416223
1.02305e-06
1.08509e-07
3.51612e-07
9.80812e-07
3.15107e-05
0.000133828
0.00615267
0.00033982
0.000694586
0.00210066
0.00479684
0.00872448
0.0131135
0.0150555
0.017467
0.0169882
0.0135598
0.00873868
0.00434341
0.00291712
2.9246e-06
6.34622e-05
0.00780836
0.0106306
0.00754045
2.27198e-08
0.00427209
5.91949e-08
0.00212653
5.36609e-09
9.81637e-08
2.36305e-07
1.3322e-06
2.90475e-05
9.61071e-05
0.000245319
0.0495961
0.000529797
0.0199911
0.00169438
0.0037088
0.00634251
0.00896471
0.00998268
0.0108669
0.00984962
0.0073378
0.004366
4.03593e-08
0.00207466
3.55649e-06
0.0512573
0.108716
5.22118e-05
0.0622046
0.0285547
0.00527438
0.00674976
0.00382281
1.57388e-08
0.00200222
6.44245e-09
0.00615415
0.256038
1.68367e-08
3.6928e-08
0.241144
6.61534e-08
0.197686
1.61493e-07
1.59081e-06
2.65243e-05
0.192178
0.0695379
8.0742e-05
0.00021163
0.0336308
0.000461166
0.012361
0.00134355
0.00268892
0.00428879
0.00569944
0.00615681
0.00636665
0.00629533
0.0053505
0.00374447
0.00206415
4.46748e-08
0.211044
4.54077e-06
0.0335006
0.0852654
5.39119e-05
0.0453613
0.0193949
0.00330739
0.00399009
0
0.00189074
1.21568e-08
0.00112137
7.14167e-10
5.96057e-09
0.00917858
0.242411
1.31792e-08
0.21672
3.9386e-08
0.168637
1.10371e-07
0.117935
2.24648e-06
0.0716279
3.03606e-05
0.210969
0.0520458
9.25957e-05
0.000221285
0.0233981
0.000413553
0.00099318
0.00180304
0.00269089
0.00307795
0.00337294
0.00354051
0.00355783
0.00342004
0.00314261
0.0027594
4.79234e-09
0.001852
0.00106957
7.51082e-09
0.222202
9.90326e-05
0.0330769
0.0138415
0.00192879
0.00220566
0
0.000976736
7.58677e-10
4.57227e-09
0.222941
8.95231e-09
0.187186
2.46154e-08
0.142081
8.81268e-05