# vtk DataFile Version 2.0
Unstructured Grid by M++
ASCII
DATASET UNSTRUCTURED_GRID
POINTS 4072 float
  0.828125   0.890625 0
  0.875000   0.531250 0
  0.828125   0.750000 0
  0.593750   0.968750 0
  0.828125   0.671875 0
  0.828125   0.875000 0
  0.593750   0.937500 0
  0.828125   0.656250 0
  0.828125   0.640625 0
  0.828125   0.843750 0
  0.593750   0.906250 0
  0.828125   0.625000 0
  0.781250   0.968750 0
  0.828125   0.609375 0
  0.828125   0.812500 0
  0.593750   0.875000 0
  0.593750   0.828125 0
  0.593750   0.796875 0
  0.828125   0.703125 0
  0.593750   0.765625 0
  0.828125   0.937500 0
  0.812500   0.875000 0
  0.859375   0.515625 0
  0.812500   0.734375 0
  0.812500   0.937500 0
  0.578125   1.000000 0
  0.578125   0.750000 0
  0.812500   0.687500 0
  0.578125   0.953125 0
  0.812500   0.656250 0
  0.812500   0.859375 0
  0.578125   0.921875 0
  0.812500   0.828125 0
  0.578125   0.890625 0
  0.812500   0.593750 0
  0.812500   0.796875 0
  0.578125   0.859375 0
  0.578125   0.812500 0
  0.578125   0.781250 0
  0.796875   1.000000 0
  0.796875   0.859375 0
  0.796875   0.718750 0
  0.562500   0.984375 0
  0.562500   0.937500 0
  0.796875   0.843750 0
  0.562500   0.906250 0
  0.796875   0.812500 0
  0.562500   0.875000 0
  0.796875   0.578125 0
  0.796875   0.781250 0
  0.562500   0.843750 0
  0.812500   0.984375 0
  0.562500   0.796875 0
  0.812500   0.953125 0
  0.562500   0.765625 0
  0.796875   0.937500 0
  0.546875   0.750000 0
  0.781250   0.984375 0
  0.828125   0.593750 0
  0.781250   0.843750 0
  0.781250   0.937500 0
  0.546875   1.000000 0
  0.781250   0.703125 0
  0.546875   0.968750 0
  0.546875   0.921875 0
  0.781250   0.828125 0
  0.546875   0.890625 0
  0.781250   0.796875 0
  0.546875   0.859375 0
  0.781250   0.562500 0
  0.781250   0.765625 0
  0.546875   0.828125 0
  0.796875   0.968750 0
  0.546875   0.781250 0
  0.765625   1.000000 0
  0.765625   0.968750 0
  0.531250   0.984375 0
  0.765625   0.687500 0
  0.531250   0.953125 0
  0.531250   0.937500 0
  0.531250   0.906250 0
  0.765625   0.812500 0
  0.531250   0.875000 0
  0.765625   0.781250 0
  0.531250   0.843750 0
  0.781250   1.000000 0
  0.765625   0.546875 0
  0.765625   0.750000 0
  0.531250   0.812500 0
  0.781250   0.953125 0
  0.531250   0.765625 0
  0.515625   0.750000 0
  0.750000   0.984375 0
  0.750000   0.953125 0
  0.796875   0.593750 0
  0.796875   0.562500 0
  0.750000   0.843750 0
  0.750000   0.937500 0
  0.515625   1.000000 0
  0.750000   0.906250 0
  0.515625   0.968750 0
  0.750000   0.671875 0
  0.750000   0.875000 0
  0.515625   0.937500 0
  0.515625   0.921875 0
  0.515625   0.890625 0
  0.750000   0.796875 0
  0.515625   0.859375 0
  0.750000   0.765625 0
  0.515625   0.828125 0
  1.000000   0.718750 0
  0.750000   0.531250 0
  0.750000   0.734375 0
  0.515625   0.796875 0
  0.734375   1.000000 0
  0.734375   0.968750 0
  0.734375   0.937500 0
  0.781250   0.578125 0
  0.781250   0.546875 0
  0.968750   0.578125 0
  0.734375   0.828125 0
  0.968750   0.546875 0
  0.734375   0.796875 0
  0.734375   0.765625 0
  0.968750   0.671875 0
  0.734375   0.734375 0
  0.968750   0.640625 0
  0.734375   0.703125 0
  0.968750   0.609375 0
  0.734375   0.671875 0
  0.734375   0.656250 0
  0.734375   0.625000 0
  0.968750   0.531250 0
  0.734375   0.593750 0
  0.984375   0.734375 0
  0.984375   0.703125 0
  0.734375   0.515625 0
  0.718750   0.984375 0
  0.718750   0.953125 0
  0.718750   0.921875 0
  0.953125   0.562500 0
  0.718750   0.812500 0
  0.953125   0.531250 0
  0.718750   0.781250 0
  0.718750   0.750000 0
  0.953125   0.656250 0
  0.718750   0.718750 0
  0.953125   0.625000 0
  0.718750   0.687500 0
  0.953125   0.593750 0
  0.718750   0.656250 0
  0.671875   1.000000 0
  0.718750   0.640625 0
  0.718750   0.609375 0
  0.953125   0.515625 0
  0.718750   0.578125 0
  0.968750   0.718750 0
  0.968750   0.687500 0
  0.953125   0.671875 0
  0.703125   0.968750 0
  0.703125   0.937500 0
  0.937500   0.656250 0
  0.703125   0.906250 0
  0.937500   0.546875 0
  0.703125   0.796875 0
  0.937500   0.515625 0
  0.703125   0.765625 0
  0.937500   0.671875 0
  0.703125   0.734375 0
  0.937500   0.640625 0
  0.703125   0.703125 0
  0.937500   0.609375 0
  0.703125   0.671875 0
  0.937500   0.578125 0
  0.703125   0.640625 0
  0.656250   0.984375 0
  0.703125   0.625000 0
  0.703125   0.593750 0
  0.718750   0.796875 0
  0.953125   0.734375 0
  0.812500   1.000000 0
  0.859375   0.656250 0
  0.703125   0.781250 0
  0.937500   0.718750 0
  0.953125   0.703125 0
  0.796875   0.984375 0
  0.843750   0.640625 0
  0.812500   0.968750 0
  0.859375   0.625000 0
  0.796875   0.953125 0
  0.843750   0.609375 0
  0.687500   0.953125 0
  0.687500   0.921875 0
  0.687500   0.890625 0
  0.921875   0.734375 0
  0.687500   0.796875 0
  0.687500   0.781250 0
  0.921875   0.703125 0
  0.687500   0.765625 0
  0.687500   0.750000 0
  0.921875   0.656250 0
  0.687500   0.718750 0
  0.921875   0.625000 0
  0.687500   0.687500 0
  0.921875   0.593750 0
  0.687500   0.656250 0
  0.640625   1.000000 0
  0.921875   0.562500 0
  0.687500   0.625000 0
  0.640625   0.968750 0
  0.687500   0.609375 0
  0.687500   0.578125 0
  0.937500   0.687500 0
  0.921875   0.671875 0
  0.671875   0.921875 0
  0.906250   0.656250 0
  0.671875   0.906250 0
  0.671875   0.875000 0
  0.906250   0.718750 0
  0.671875   0.781250 0
  0.671875   0.765625 0
  0.671875   0.734375 0
  0.906250   0.640625 0
  0.671875   0.703125 0
  0.906250   0.609375 0
  0.671875   0.671875 0
  0.906250   0.578125 0
  0.671875   0.640625 0
  0.625000   0.984375 0
  0.671875   0.609375 0
  0.625000   0.953125 0
  0.671875   0.593750 0
  0.671875   0.562500 0
  0.765625   0.953125 0
  0.812500   0.609375 0
  0.656250   1.000000 0
  0.656250   0.953125 0
  0.656250   0.906250 0
  0.890625   0.640625 0
  0.656250   0.890625 0
  0.656250   0.859375 0
  0.890625   0.734375 0
  0.656250   0.796875 0
  0.812500   0.921875 0
  0.562500   1.000000 0
  0.625000   0.828125 0
  0.812500   0.843750 0
  0.843750   0.593750 0
  0.812500   0.812500 0
  0.625000   0.718750 0
  0.828125   0.687500 0
  0.640625   0.593750 0
  0.812500   0.781250 0
  0.625000   0.687500 0
  0.765625   0.828125 0
  0.640625   0.562500 0
  0.812500   0.750000 0
  0.562500   0.828125 0
  0.781250   0.875000 0
  0.546875   0.937500 0
  0.781250   0.671875 0
  0.781250   0.593750 0
  0.546875   0.656250 0
  0.796875   0.750000 0
  0.562500   0.812500 0
  0.796875   0.546875 0
  0.765625   0.796875 0
  0.765625   0.593750 0
  1.000000   0.531250 0
  0.812500   0.718750 0
  0.859375   0.562500 0
  0.625000   0.625000 0
  0.812500   0.703125 0
  0.812500   0.906250 0
  0.578125   0.968750 0
  0.984375   0.593750 0
  0.828125   0.578125 0
  0.828125   0.781250 0
  0.593750   0.843750 0
  0.812500   0.671875 0
  0.625000   0.578125 0
  0.796875   0.671875 0
  0.562500   0.734375 0
  0.984375   0.562500 0
  0.828125   0.546875 0
  0.812500   0.640625 0
  0.750000   0.812500 0
  0.625000   0.546875 0
  0.796875   0.640625 0
  0.562500   0.703125 0
  0.828125   0.515625 0
  0.781250   0.734375 0
  0.546875   0.796875 0
  0.781250   0.531250 0
  0.750000   0.781250 0
  0.625000   0.515625 0
  0.796875   0.609375 0
  0.562500   0.671875 0
  0.765625   0.656250 0
  0.765625   0.859375 0
  0.531250   0.921875 0
  0.812500   0.578125 0
  0.562500   0.656250 0
  0.984375   0.687500 0
  0.750000   0.750000 0
  0.812500   0.562500 0
  0.812500   0.765625 0
  0.578125   0.828125 0
  0.562500   0.625000 0
  0.984375   0.656250 0
  0.750000   0.718750 0
  0.812500   0.531250 0
  0.781250   0.656250 0
  0.546875   0.718750 0
  0.781250   0.625000 0
  0.546875   0.687500 0
  0.750000   0.640625 0
  0.796875   0.531250 0
  0.562500   0.593750 0
  0.984375   0.625000 0
  0.750000   0.687500 0
  0.546875   0.984375 0
  0.609375   0.812500 0
  0.796875   0.875000 0
  0.546875   0.953125 0
  0.609375   0.578125 0
  0.843750   0.515625 0
  0.765625   0.515625 0
  0.765625   0.718750 0
  0.531250   0.781250 0
  0.984375   0.546875 0
  0.750000   0.609375 0
  0.796875   0.828125 0
  0.671875   0.968750 0
  0.796875   0.796875 0
  0.796875   0.765625 0
  0.609375   0.671875 0
  0.796875   0.734375 0
  0.546875   0.812500 0
  0.796875   0.703125 0
  0.843750   0.546875 0
  0.609375   0.609375 0
  0.796875   0.687500 0
  0.562500   0.953125 0
  0.796875   0.656250 0
  0.609375   0.562500 0
  0.796875   0.625000 0
  0.609375   0.531250 0
  0.546875   0.640625 0
  0.765625   0.671875 0
  0.531250   0.734375 0
  0.796875   0.515625 0
  0.765625   0.640625 0
  0.531250   0.703125 0
  0.703125   1.000000 0
  0.765625   0.609375 0
  0.531250   0.671875 0
  0.765625   0.578125 0
  0.531250   0.640625 0
  0.546875   0.609375 0
  0.531250   1.000000 0
  0.890625   0.593750 0
  0.656250   0.656250 0
  0.781250   0.515625 0
  0.546875   0.578125 0
  0.531250   0.968750 0
  0.890625   0.562500 0
  0.656250   0.625000 0
  0.609375   0.968750 0
  0.781250   0.859375 0
  0.656250   0.593750 0
  0.750000   0.703125 0
  0.515625   0.765625 0
  0.781250   0.812500 0
  0.781250   0.781250 0
  0.593750   0.687500 0
  0.781250   0.750000 0
  0.593750   0.656250 0
  0.781250   0.718750 0
  0.531250   0.796875 0
  0.828125   0.562500 0
  0.593750   0.625000 0
  0.781250   0.687500 0
  0.828125   0.531250 0
  0.593750   0.593750 0
  0.812500   0.625000 0
  0.578125   0.687500 0
  0.781250   0.640625 0
  0.781250   0.609375 0
  0.593750   0.515625 0
  0.515625   0.781250 0
  0.812500   0.546875 0
  0.578125   0.609375 0
  0.812500   0.515625 0
  0.578125   0.578125 0
  0.750000   0.656250 0
  0.515625   0.718750 0
  0.750000   0.625000 0
  0.515625   0.687500 0
  0.687500   0.984375 0
  0.750000   0.593750 0
  0.515625   0.656250 0
  0.531250   0.546875 0
  0.750000   0.562500 0
  0.515625   0.625000 0
  0.531250   0.515625 0
  0.984375   0.515625 0
  0.750000   0.578125 0
  0.515625   0.531250 0
  0.828125   0.796875 0
  0.640625   0.703125 0
  0.828125   0.765625 0
[...]
CELL_DATA 7648
SCALARS scalar_value float 1
LOOKUP_TABLE default
0
0
0
0
0
0
0.000595406
0.000391268
0.000283806
0.000318404
3.89559e-05
1.94245e-05
7.82068e-06
1.73172e-05
4.12543e-06
4.05071e-06
2.11045e-06
8.85754e-06
0
0
0
0
0
0
0
0
0
0
0
0
0
0
4.6748e-06
3.13195e-06
2.16818e-06
2.30855e-06
7.76312e-07
3.56836e-07
0
0
6.52571e-07
4.42492e-07
0
0
4.56268e-07
5.84271e-07
9.29551e-07
3.65804e-07
1.73201e-06
1.73108e-06
2.77336e-06
9.42982e-07
2.30631e-07
2.03663e-07
3.17827e-07
1.08074e-07
0
0
0
0
0
0
8.46808e-06
4.92802e-06
3.42174e-06
2.33341e-06
1.25576e-06
4.37874e-07
4.1131e-07
5.87307e-07
5.08209e-07
3.77915e-07
8.42051e-07
0
0
3.37666e-09
3.05958e-09
1.81026e-09
5.32683e-09
6.09226e-10
1.1151e-09
1.02181e-09
1.86697e-09
8.94385e-10
9.96485e-10
6.04835e-10
1.85462e-09
0
0
0
0.000273672
0.000190549
0.000166901
0.000142512
0.0001098
8.32391e-05
5.34064e-05
9.62038e-05
5.35036e-05
3.80441e-05
4.10644e-05
7.08135e-05
4.68065e-05
3.4204e-05
0
3.32033e-07
7.71905e-07
3.9224e-07
0
0
0
0
2.0887e-07
1.2987e-07
8.52575e-08
9.06011e-08
3.8795e-08
1.62888e-08
1.8679e-08
3.87711e-05
2.31919e-05
1.78647e-05
1.73142e-05
1.00298e-05
7.85849e-06
1.09343e-05
4.68661e-06
0
0
0
0
0
0
0
0
0.000888514
0.000680495
0.000839517
0.00044833
8.16557e-07
0
0
1.84134e-07
9.5552e-08
9.09395e-08
4.24203e-08
1.0751e-08
2.73651e-08
0
0
0
0
0
0
0
0
0
0
0
8.52129e-05
4.01135e-05
1.75884e-06
1.24199e-06
6.58906e-07
1.76508e-06
0
1.57614e-06
1.05446e-06
5.78711e-07
1.28815e-06
0
0
0
0
3.74328e-08
2.28901e-08
4.11138e-05
2.81356e-05
1.70448e-05
2.94849e-05
1.15298e-05
1.24991e-05
8.6446e-06
2.04656e-05
0
0
0
0
0
0
0
0
0
2.25188e-05
1.64968e-05
1.00228e-05
2.11753e-05
0
0
0
0
0.000835077
0.000540273
0.000431602
0.000407306
1.06004e-06
6.79705e-07
0.000281065
0.000214206
0.000137111
0.00026129
0.000223175
0.000147486
0.000126188
0.000111446
0.000191666
0.000121029
0.000101325
8.64853e-05
3.98262e-08
2.77231e-08
3.97731e-08
1.54129e-08
6.2847e-08
1.47736e-07
4.85603e-08
1.97221e-06
1.0033e-06
5.71097e-07
1.23109e-06
0.000716516
0.000504824
0.000605025
0.000351624
0
0
0
0
0.000206114
0.00015236
0.00019357
0.000101578
0
0
0
0
0
0
0
0
0
0
0
0
0
0
0
0
0
1.13665e-10
0
0
0
1.40398e-10
0
0
0
0
0
0
0
8.55971e-09
1.5679e-08
5.33446e-09
8.19795e-10
5.32396e-10
2.99008e-10
6.27544e-10
0
0
0
0
0
0
0
0
0
0
0
0
0
0
0
0
0
0
1.20933e-05
3.07664e-05
9.37856e-06
8.94344e-09
1.22306e-05
0
1.29024e-10
0.000873111
0.000534573
8.60915e-08
0.000449214
0.000730732
0.00021917
5.57996e-08
0.00022844
1.23467e-07
1.69211e-07
4.17044e-07
6.98683e-07
5.67492e-07
1.4153e-06
0
0
0
0
0
0
0
0
0
3.0302e-09
2.27499e-10
1.24869e-09
3.86881e-10
4.29351e-06
2.41441e-06
2.36239e-08
0.000353253
0.000160548
0.000285898
0.000239033
0.000306854
0.000529372
0
0
0
0
0
0
2.69808e-06
5.91589e-06
0
4.65706e-06
3.23187e-06
3.57115e-07
0.00017634
0
0.00049966
0
0
0
0
0
0
0
0
0
0
0
0
1.04436e-10
0
0
0
0
0
0
0
9.55781e-06
2.23641e-05
0
0
0
0
0
0
0
0
0
0
0
0
0
0
0
0
0
0
0
0
0
0
0
0
5.08745e-05
0
3.84232e-05
0
0
2.42199e-05
0.000166904
0
5.04841e-05
0.000340096
0
0
0
0
0
0
0
0
0
5.20996e-08
0.000717758
0
0
5.84355e-10
0
6.74926e-07
1.2552e-08
0.000217631
5.61829e-06
2.40138e-06
0
0
3.97883e-05
0.000332076
0
0
0
0
0
0
1.49387e-06
0
0
0
0
0
0
0
0
0
0
7.64485e-09
2.1524e-09
9.13641e-10
0
0
0
0
7.83337e-05
0.000164181
1.10313e-09
2.80716e-09
0
0
0
8.02512e-10
0
0
0
0
0
0
0
0
1.07513e-10
0.000834757
0.000549264
3.21428e-09
0
0
0
0
0
2.52674e-08
5.83955e-07
8.54274e-08
3.43499e-08
2.1185e-09
4.60184e-07
0
0
0
0
0
0
1.69394e-10
0
0
0
0
0
2.96463e-06
0
7.04789e-07
0
0
0.000305824
3.79789e-09
3.601e-09
4.23674e-09
0
0
0
0
0
0
0
0
0
0
0
0
0
0
0
0
3.2505e-06
1.26583e-06
1.25548e-09
1.46922e-08
0
0
0
5.82261e-09
2.68463e-09
0
5.36237e-05
0
0
0
0
0
0
0
0
0
2.01766e-05
0.000150777
0
0.000150805
9.54589e-05
1.22595e-08
2.01992e-09
0
0
0.000429446
0
3.53942e-06
0
0
1.8849e-06
4.35526e-06
0
2.19908e-06
1.80889e-10
0
1.05158e-10
1.42564e-09
1.94255e-09
1.35194e-10
0
0
0
2.64377e-08
1.74121e-08
1.67134e-08
9.26624e-09
9.10549e-09
2.22007e-08
1.6606e-08
6.02814e-06
1.04647e-08
6.93194e-09
0
6.53009e-09
4.00834e-09
2.50752e-09
3.15939e-08
3.23226e-09
7.46618e-08
1.76648e-06
4.99342e-07
1.52099e-09
1.91525e-08
1.30372e-06
7.89789e-10
8.89954e-09
6.94223e-08
5.56242e-09
3.32044e-09
1.23745e-08
4.23381e-07
1.02398e-07
1.47442e-08
0
0.000414248
0.000287905
4.06776e-06
0
2.67222e-09
0
0
0
0
2.90951e-10
0
0
4.20056e-06
0
0.000330862
1.02317e-10
0
0
0
0
0.000430129
1.57722e-06
2.51423e-09
3.91838e-09
7.83435e-10
8.57693e-10
4.20471e-06
1.0465e-08
0
3.22604e-09
0
0.000425502
0
0
0
0
0
0.000356967
0
0
0
0
0
0
0
0
6.14229e-09
2.01528e-09
0
5.28154e-05
8.24483e-10
1.63862e-07
0
5.05384e-09
0
3.3069e-08
2.79366e-06
6.78889e-08
0
0.000213851
7.47766e-07
0
1.86901e-08
0
0
0
2.52532e-07
5.17712e-09
1.51707e-07
2.06675e-09
1.62135e-05
0
7.22323e-06
6.87617e-10
0
4.44156e-08
0
0
0
0
0
3.96234e-05
0
0
1.26919e-06
0
0
0
0
0
0
0
0
5.12356e-07
0
1.77623e-09
2.57693e-07
0
0
1.05776e-06
0
3.73751e-10
0
4.679e-10
0
1.74073e-05
0
0
0
2.55957e-07
0
0
7.40946e-09
4.75145e-10
4.1002e-10
0
8.06381e-10
2.19467e-05
0
9.71401e-07
1.83387e-07
1.63612e-08
0
7.3109e-09
2.93856e-08
0
0
0
9.42103e-10
2.03735e-08
0
0
2.03261e-09
5.79973e-08
3.33933e-09
4.81458e-09
1.53199e-07
0
0
7.20877e-07
0
0
0
1.14929e-10
0
1.50448e-06
0
0
0
0
0
5.83907e-07
0
0
0
0
1.19566e-06
1.25243e-08
0
1.86394e-05
0
0
0
0
0
1.24079e-07
7.84761e-06
0
1.77088e-06
0
2.32547e-05
0.000216521
0
2.63301e-10
4.89672e-05
0.000421332
0
1.00134e-06
1.94887e-10
3.3926e-10
0
1.14339e-10
0
0
2.93869e-10
2.69525e-10
0
4.3269e-10
3.22718e-10
0
0
0
0
0
0.00107624
0
0
0
0.000938404
0
0
1.01371e-07
0
2.18987e-09
2.48624e-07
0
3.04873e-07
3.13866e-10
2.92807e-10
0
0.000167035
0
0
9.67034e-06
0
0.000111876
0
2.38111e-07
0
0
4.65802e-08
0
0
7.52606e-09
0
0
3.19418e-09
5.24982e-07
0
0
0.000982668
4.29352e-06
4.55693e-07
0
1.74995e-08
2.10301e-10
0
1.3331e-08
1.74933e-10
5.55349e-10
0
0
0
0
4.80552e-08
0
0
6.51215e-07
2.35546e-07
0
0
0
2.12937e-10
0
0
0
0
0
0
0
0
8.53102e-05
3.30505e-08
0
2.97519e-10
4.38213e-09
1.06456e-10
2.46692e-05
0
0
3.09186e-06
7.24154e-09
0
0.00103043
0.000210688
0
1.83687e-07
0
2.54286e-08
8.87056e-09
2.33541e-08
0
0
3.098e-06
0
3.72093e-05
5.01602e-09
1.05625e-10
2.44581e-08
0
0
0
0
0
9.25658e-10
4.01245e-10
0
0
0
0
0
0
0
2.05081e-06
4.83471e-07
1.40754e-06
7.27031e-06
4.97509e-07
0
3.13795e-07
0
0
3.81381e-09
6.20577e-10
0.000323369
9.53249e-07
3.82583e-08
0
6.56935e-08
0
0
1.35126e-07
3.26051e-06
0
0
0
0
0
0
0
0
0
1.40909e-06
8.24836e-08
5.62466e-08
0
4.91867e-08
0
0
8.91345e-10
0
0
0
0
0
0
0
0
1.29193e-09
1.78654e-09
0
0
8.90028e-10
4.15005e-09
0
0
1.73961e-06
8.80429e-08
0
0
0
2.89101e-07
3.6204e-09
0
1.9961e-08
7.28793e-06
6.19942e-07
1.00429e-10
0
9.6806e-08
9.94916e-09
0
9.12052e-09
3.06613e-07
0
0
0
2.54392e-09
3.33617e-05
0
1.4238e-09
0
3.86107e-09
1.73561e-09
0
0
0
0.000102503
0.000332976
2.37933e-09
3.68356e-08
3.00291e-08
0
0
0
0
3.2969e-10
1.26039e-06
4.20491e-06
0
5.90644e-08
0
4.57753e-07
1.58294e-08
1.87637e-07
0
1.00166e-10
4.79183e-07
0
9.13215e-08
0
7.89901e-09
2.70686e-08
9.84337e-07
3.35768e-08
0
0.000778074
0
0
0
0
1.35292e-07
6.35217e-09
1.47822e-08
0
0
0
0
0
0
0
5.87638e-10
0
6.98698e-08
0
1.21235e-09
0
0
0
4.49338e-10
8.995e-09
2.25489e-09
0
0
0
3.39193e-08
4.33217e-08
7.81432e-08
2.55311e-08
2.10786e-09
1.95877e-05
9.69741e-09
0.000104788
5.08479e-05
2.66579e-10
3.09419e-10
2.41392e-05
0
0
0
1.7321e-07
0
0
0
7.95769e-09
5.31815e-07
4.95577e-07
2.02292e-07
2.0297e-07
0
1.51774e-09
0
0
0
0
0
0
2.91397e-08
4.07833e-08
0
0
0
1.19419e-09
9.63728e-09
0
7.09144e-10
5.43239e-09
5.11244e-10
2.27024e-09
2.82443e-07
8.15892e-06
0
2.50406e-05
0
0
4.04555e-07
0
0
2.92946e-08
0
0
0
0
0
0
0
0
7.30691e-08
0
1.52843e-07
0
0
6.86617e-09
0
2.1621e-10
0.000247048
1.55442e-10
0.000230254
0
0
1.76466e-08
5.14505e-09
0
0
0
0
2.59021e-09
4.15603e-10
0
0
2.9259e-07
4.44223e-07
0
8.37759e-07
0
3.69573e-08
5.20998e-08
1.03384e-07
0
0
0
0
0
0
0
0
1.12675e-07
0
0
2.85323e-07
6.66083e-07
0
1.4246e-07
1.38293e-07
7.95811e-08
7.47058e-08
1.52545e-08
0
0
0
0
0
0
0
1.5292e-10
0
0
0
0
0
0
0
0
0
0
0
0
0
8.7946e-05
4.53072e-05
1.76386e-06
0
4.86152e-05
0
0.000109589
1.22451e-05
0.000187088
0
1.32973e-08
0
6.77462e-09
0
2.40429e-08
0
0
0
0
0
0
0
0
0
0
0
4.35977e-09
0
0
0
0
0
7.35147e-10
0
3.44e-06
3.11568e-07
0
0.000301626
0
6.94705e-08
5.68017e-08
0.000669564
4.22985e-08
9.17358e-08
0
1.31939e-09
6.25537e-07
0
0
1.35465e-10
0
0
0
0
0
1.89647e-10
1.25242e-06
0
1.24155e-07
0
1.44659e-08
0
0
0
1.01283e-08
2.0493e-08
0
0
2.80967e-09
1.95788e-10
1.60208e-09
1.33788e-09
5.54877e-10
3.78396e-10
9.73387e-08
2.15338e-07
2.16739e-07
0
1.24761e-10
1.67845e-10
0
0
0
0
1.8353e-10
4.34353e-10
2.81366e-07
1.76773e-07
0
6.30159e-05
3.36386e-05
0
0
0
0
2.41529e-10
0
0
0
0
0
1.71634e-07
2.29933e-08
0
5.30083e-06
7.55546e-06
8.48167e-06
1.46973e-05
6.75165e-05
1.51823e-06
0
0
0
0
0
0
0
0
0
0
0
0
2.92677e-10
0
0
0
0
0
0
0
0
6.54255e-10
5.17872e-10
5.18628e-09
1.83532e-09
0
0
0
0.000134572
0.000153537
0
0.000464304
0.000720367
0
7.71914e-05
1.45372e-06
9.49157e-07
1.25053e-06
4.41876e-08
0
4.11742e-06
2.25281e-07
2.81675e-06
1.83272e-06
3.67518e-06
7.08944e-06
0
0
0
0
4.31359e-09
1.07752e-05
1.10948e-05
0
1.59614e-07
8.49858e-08
6.02114e-08
6.8569e-07
0
0
0
0
0
0
0
0
0
4.59664e-06
1.874e-07
9.62349e-07
8.39737e-07
1.05e-06
1.80533e-06
6.81676e-06
0
0
0
0
2.56698e-10
2.48395e-08
1.66233e-05
1.0285e-09
0
0
0
0
0
0
2.49355e-05
1.84888e-05
2.18871e-05
0
0
0
0
0
0
0
0
1.93623e-10
0
7.60687e-08
7.06515e-08
1.09112e-07
8.80184e-08
2.10335e-07
1.67787e-07
1.10958e-08
1.51822e-10
0
0
0
0
0
6.24805e-08
3.14742e-07
5.708e-07
1.09492e-06
0
0
0
5.13718e-06
0
1.09947e-08
1.4255e-08
2.12704e-08
3.13576e-08
7.36131e-05
0
9.54074e-09
1.05139e-08
2.70943e-08
0
1.42678e-10
4.90343e-06
4.41909e-05
8.93318e-10
3.33626e-10
1.67856e-09
6.00378e-10
2.49455e-09
2.03586e-07
1.50724e-07
2.46837e-07
4.59404e-07
0
0
0
0
0
1.15075e-07
1.12951e-08
0
3.73013e-07
0
0
0
1.76864e-08
8.60509e-10
1.16442e-09
1.2234e-09
0
0
0
0
0
0
0
0
0
0
1.3159e-07
5.74582e-06
2.86676e-10
9.33439e-06
5.23941e-06
0
0
0
0
4.87939e-05
7.53541e-05
8.61175e-06
1.08647e-05
5.63079e-08
4.16971e-08
6.07599e-08
0
0
2.09144e-07
1.30336e-10
1.10798e-10
0
0
5.32426e-09
0
0
1.57383e-10
0
0
0
0
2.18948e-10
0
0
0
1.92283e-10
2.3183e-06
2.85558e-06
3.20506e-06
5.61913e-09
1.00267e-08
0
0
0
0
6.84395e-07
1.91337e-06
0
1.85844e-06
8.1094e-06
0
0
0
0
0
0
0
0
0
0
0
0
1.45426e-09
3.34145e-09
3.15155e-06
5.50936e-05
1.37188e-09
1.9259e-05
0
1.45219e-09
2.8387e-09
0
0
1.15068e-08
3.8427e-07
1.06351e-06
1.77558e-05
1.62653e-07
0
0
0
0
0
0
0
0
0
1.23131e-06
0
0
1.07363e-07
1.12967e-07
6.18468e-08
0
0
0
0
0
0
0
4.26857e-10
0
0
0
5.60406e-09
7.99148e-09
0
0
0
0
0.000170832
0.00015319
0
0
0
2.31356e-10
0
0
0
0
0
0
9.76215e-05
7.79698e-05
0
0
0
0
0
0
0
4.82234e-10
0
3.06814e-07
2.08433e-07
2.92748e-07
1.19876e-05
5.69714e-08
4.70854e-08
8.04949e-08
1.55653e-07
2.93014e-06
1.30379e-05
0
6.00798e-10
1.16528e-05
0
0
7.66822e-05
0.000332395
0
8.47693e-09
0
0
0
1.65149e-10
4.9791e-10
0
0
4.6226e-06
0
0
0
0
0
6.54291e-10
7.27263e-10
9.83083e-10
0
0
0
0
0
0
0
3.57163e-09
5.51352e-09
0
0
0
0
0
0
5.25677e-09
7.93005e-09
1.46838e-08
0
0
0
0
0
3.29785e-06
0
0
0
0
0
0
1.41704e-10
4.66782e-10
0
0
0
0
0
0
0
0
0
9.57465e-07
1.79132e-06
0
0
0
4.02768e-07
1.46777e-06
0
3.20431e-06
6.55528e-06
4.76714e-06
6.42253e-06
0
0
0
0
0
7.15253e-10
0
0
2.83837e-06
3.27825e-06
4.08336e-06
3.66921e-09
1.26298e-09
1.12403e-09
4.69916e-05
6.62672e-05
0.000105051
0
0
0
6.91997e-06
3.52523e-06
6.37575e-06
9.36562e-06
0
0
0
0
0
0
0
0
0
1.22598e-05
0
0
2.52284e-09
0
0
0
0
0
0
1.20746e-06
0
0
0
2.2547e-10
8.51319e-07
4.73105e-07
3.84473e-07
0
0
0
0
0
1.26345e-08
2.5057e-08
8.3097e-08
0
0
0
0
0
0
1.79611e-06
4.46977e-06
8.8302e-08
3.22253e-10
1.04548e-05
2.31129e-05
1.89299e-05
2.00323e-06
1.90301e-07
3.44212e-05
3.5899e-05
6.97062e-05
5.99708e-09
0
1.33195e-08
0
0
0
0
0
0
0
8.15351e-05
0.000104199
2.44044e-08
0
0
0
0
0
0
0
0
0
0
0
0
0
0
0
3.63804e-08
0
4.61638e-09
6.10083e-09
4.92658e-08
1.99223e-08
2.28872e-06
2.83685e-06
6.00715e-06
0
0
0
1.52621e-05
1.87571e-05
0
0
1.02581e-10
1.67903e-10
2.89909e-10
5.07144e-08
1.37705e-07
5.45844e-07
2.07652e-07
2.4801e-07
0
0
0
0
7.98391e-07
1.94507e-10
3.6102e-10
0
0
8.61429e-06
7.02994e-05
4.02853e-07
5.96422e-07
1.08955e-06
2.12819e-05
2.21022e-05
3.0107e-05
2.79319e-05
2.69438e-05
4.50144e-05
5.34113e-05
1.53066e-09
1.96178e-10
1.86624e-09
1.39356e-05
2.71804e-07
4.94649e-07
0
0
0
1.26648e-08
3.33518e-08
1.02528e-07
0
2.09158e-07
0
0
0
2.93211e-10
2.8751e-10
2.8828e-08
3.93322e-08
0
0
0
0
0
0
0
6.34607e-08
0
0
0
0
0
2.46154e-10
0
0
0
0
0
0
0
0
2.64401e-06
4.57252e-06
2.81456e-08
1.2344e-07
0
0
0
0
0
0
0
0
0
0
6.74222e-06
9.90753e-06
0
0
4.67951e-06
8.43853e-06
8.93572e-06
7.4307e-06
2.37236e-07
2.42834e-07
4.88223e-10
0
7.99571e-10
5.02269e-10
6.89093e-09
1.61359e-08
0
0
0
0
0.00359428
0.136992
0.230221
0.363077
0.279705
0.172886
0.124621
0.0549997
0.0199926
0.00616883
0.00167451
0.000850428
0.248134
0.194191
0.143523
0.100299
0.0664488
0.0418689
0.0251774
0.0145018
0.00803308
0.00430049
0.00223856
0.00114161
0.00120393
0.00593672
0.0870591
0.168679
0.259905
0.335529
0.236716
0.183745
0.13517
0.0942921
0.0393732
0.0136284
0.00403516
0.00108211
0.307001
0.256157
0.202929
0.152493
0.108742
0.07364
0.0474231
0.0290972
0.017053
0.00958066
0.00518862
0.0027343
0.00142055
0.00238659
0.00993827
0.118365
0.208179
0.288508
0.289268
0.185866
0.138336
0.0979846
0.0660528
0.0423916
0.0259215
0.0151248
0.00844594
0.00238457
0.254355
0.202608
0.153637
0.110986
0.07636
0.0500254
0.0312075
0.0185479
0.0105184
0.00571335
0.00300497
0.00157795
0.000869124
0.00441681
0.0164407
0.161248
0.248217
0.312254
0.227921
0.134324
0.0962545
0.0658049
0.042872
0.0265865
0.0156778
0.00878766
0.00469106
0.00128535
0.287675
0.240816
0.192522
0.147001
0.107301
0.0748013
0.0497284
0.0314729
0.0189262
0.0107915
0.005824
0.00298412
0.00153021
0.000735143
0.00176429
0.00772009
0.0451688
0.112187
0.214194
0.323213
0.251128
0.163607
0.0898187
0.0622471
0.0411462
0.0258661
0.0154049
0.00864738
0.00223685
0.0372118
0.0970941
0.31681
0.257128
0.215986
0.17357
0.133683
0.0986926
0.069727
0.0470394
0.0302075
0.0183864
0.0105436
0.00564464
0.00279036
0.00134352
0.000598471
0.00321093
0.0127577
0.0679123
0.158467
0.256999
0.284594
0.275073
0.250483
0.180682
0.110224
0.0567681
0.0380612
0.0242613
0.01461
0.00823613
0.00428552
0.00103145
0.000407318
0.0185799
0.0562585
0.138511
0.269651
0.249934
0.221412
0.187292
0.151788
0.118054
0.0880953
0.0630172
0.0431085
0.0280871
0.017321
0.0100208
0.0053645
0.00260347
0.00119881
0.000461841
0.00114572
0.0053706
0.0199075
0.0355443
0.0975669
0.209582
0.262118
0.247508
0.224331
0.194727
0.12927
0.0730698
0.0350094
0.0225567
0.0137307
0.00781213
0.00190454
0.000804557
0.0282224
0.0808988
0.18562
0.253377
0.231034
0.202688
0.170633
0.137895
0.107125
0.0800812
0.0575744
0.0397037
0.02612
0.0162769
0.00415004
0.00180461
8.60595e-08
0.000590079
1.12229e-06
1.46356e-07
5.07658e-07
1.26072e-06
4.87777e-05
0.000209138
0.000800179
0.000522772
0.00103985
0.00289613
0.00586792
0.0090652
0.0110819
0.0113009
0.0100716
0.00730398
0.00423071
0.00192686
0.000651849
0.000351739
3.94164e-06
9.26546e-05
0.00667122
0.00724203
0.00178991
1.8081e-08
0.000699248
4.97856e-08
0.000228372
5.29618e-09
1.2253e-07
2.89002e-07
1.69823e-06
4.12325e-05
0.000135041
0.000334607
0.00952124
0.000693653
0.00250157
0.0020016
0.00382224
0.00548115
0.00624118
0.00615021
0.00511085
0.00342711
0.00183139
0.000755491
4.99513e-08
0.000231417
4.49657e-06
0.0239075
0.0335472
6.67212e-05
0.0133666
0.00411182
0.00370256
0.00374726
0.000712647
1.01735e-08
0.000246898
5.82601e-09
0.0139205
0.24562
1.6535e-08
3.88745e-08
0.173703
7.20696e-08
0.105529
1.71487e-07
1.91151e-06
3.30103e-05
0.319364
0.015976
9.77432e-05
0.000246333
0.005222
0.000512963
0.00120875
0.00133311
0.00230001
0.00304489
0.00323281
0.00307918
0.00278338
0.00238569
0.00148527
0.000735029
0.000271643
5.19128e-08
0.132453
5.11278e-06
0.0131981
0.0224718
5.79404e-05
0.00810969
0.0022866
0.00188623
0.00178575
0
0.000273041
6.61268e-09
0.000105338
4.97506e-10
4.85856e-09
0.0208098
0.2276
1.14891e-08
0.146528
3.60942e-08
0.0815385
1.04749e-07
0.0402555
2.46155e-06
0.0168631
3.24572e-05
0.33965
0.0100736
9.23892e-05
0.00021397
0.00300143
0.000382481
0.0008146
0.00126364
0.00155183
0.00158767
0.00154201
0.00142183
0.00124413
0.00103232
0.000811551
0.000604035
2.31704e-09
0.00028253
0.000105465
5.73115e-09
0.179762
8.58252e-05
0.0050163
0.00137481
0.000884363
0.000787715
0
0.000109919
4.67655e-10
3.24345e-09
0.19389
6.62682e-09
0.115758
1.85007e-08
0.0622006
6.98699e-05
0.356678
0.00644633
0.00010214
0.000165415
0.00180441
0.000246719
0.00044443
0.000632501
0.00072727
0.000721642
0.000680231
0.000609139
0.000518209
0.000418886
3.54201e-10
0.000235712
1.81734e-09
0.264138
0.000111436
7.46699e-05
2.45433e-10
6.80963e-10
1.60881e-09
3.30131e-09
0.139234
6.0106e-09
0.0109435
0.104509
1.69741e-08
4.79839e-05
6.60429e-05
0.00302971
0.000137602
3.57292e-08
0.000370838
0.00038359
0
0.000323912
0
0.000217408
0.000276261
0.000224537
0.000174288
0.000129675
0.000950775
9.3762e-10
0.274584
6.4975e-05
0
3.52676e-10
0.188799
1.93229e-09
0.15003
3.73268e-09
0.0848182
1.12247e-08
0.00745909
4.63405e-05
0.365423
0.00393441
6.6367e-05
9.5559e-05
0.000132129
0.000217218
0.000289988
0.000315005
0.000279301
0.000244027
0.000203076
0.000161243
2.42666e-10
1.67179e-05
0.282195
8.95531e-05
7.60517e-10
0.233343
4.45155e-05
1.75575e-10
4.39127e-10
9.72957e-10
1.96398e-09
0.0971546
3.73336e-09
0.00575447
0.073706
1.56762e-05
0.00122099
0.00631376
3.34613e-05
0.00165993
6.64085e-05
0.000157444
0.00015487
0
0.00012502
0
0.000387607
0
0
5.46793e-10
0.138398
0
1.09795e-07
0
0.106002
1.71249e-09
1.57746e-07
0.00419022
0
2.82269e-07
0
0.0672195
1.35205e-07
9.32242e-07
0.0015528
0
1.39126e-10
1.98306e-05
2.35688e-10
2.88794e-10
2.35812e-05
0.00412424
0.000179681
2.73671e-09
5.44997e-08
0.0717548
0.000508854
0.00079019
0.0010802
1.06142e-05
0.00128384
0.00127225
8.60728e-08
2.25727e-07
0.0440421
0.00287394
0.00182534
0.00060855
1.08811e-05
1.53191e-05
0.00594804
0.00240155
0.00894785
5.52782e-07
0.0115703
0.00294507
0.000121611
0.257059
1.78047e-05
0.0213004
0.00339671
0.029062
1.57967e-06
0.000165147
0.00279118
0.0617266
0.00382425
0.00256852
9.39651e-07
0.000564892
1.5325e-05
4.00951e-06
0.00104441
0.000561489
0.000884194
0.144073
0.0034843
0.0106097
4.68475e-06
1.10549e-05
0.198715
0.0030728
5.53837e-06
0.00499842
0.00110055
0.245836
0.00256734
0.00202911
0.28458
6.16824e-06
0.00161369
0.000417872
5.02255e-06
0.0907632
0.0018838
0.196553
0.00160649
0.0011086
0
0.000310069
0.0546916
0.263599
0.00752402
5.10806e-08
0.12997
6.35155e-05
0.000428183
0.0183114
4.04614e-07
2.97248e-05
0.271566
0
0.00681255
0.052251
9.724e-07
4.47769e-05
0.00101083
2.23836e-05
0.108922
5.85192e-05
0
8.50122e-05
4.5489e-05
0
0.000587673
0.152909
0.0290714
1.84868e-07
0.077046
4.17347e-07
0.00151651
0.0010729
0.148936
0.00491395
0.357026
5.63208e-06
0
8.83285e-06
1.05277e-08
0.319361
0.000438432
0.255558
0.00976147
0.388028
4.28905e-06
0
2.20156e-05
0.340075
0.00211318
5.85151e-06
9.37814e-08
0.292673
0.000148686
0.0216725
0
4.55606e-05
0
0
2.53375e-09
0
0.0676616
0.00572417
9.67149e-05
1.88862e-05
0
1.5335e-10
1.09493e-08
0.0632214
0.00181729
0.000122762
2.99264e-09
2.82566e-08
0.0473247
0.000126869
0.00237528
0.000821816
4.63715e-08
0.0296332
0.000107452
0.00989871
0.00137384
0.0146515
2.32178e-07
0.0473465
0.141677
0
0.000128002
0.0372122
2.92009e-05
1.04764e-09
0.269649
0.000165813
0.364422
7.21022e-07
0.166416
0.00600947
0.218783
0
0.0168452
0.0972627
1.52409e-05
0.0078577
9.0183e-09
0.211448
0.327857
5.13735e-07
0
0.216199
0.0103041
0.220316
3.49783e-09
0.000337796
1.59417e-06
0.126704
0.000856414
0.145696
0.00637079
5.42282e-07
0.369729
7.84981e-07
0.000218215
0.0113126
0.0331626
2.33747e-10
0.0264386
0.17347
2.87754e-10
0.321151
5.36143e-07
0.00136934
0.00325726
0.0134556
1.16157e-09
0.1038
0.32517
2.64516e-06
0.0855402
0
0.377714