# vtk DataFile Version 2.0
Unstructured Grid by M++
ASCII
DATASET UNSTRUCTURED_GRID
POINTS 4072 float
  0.828125   0.890625 0
  0.875000   0.531250 0
  0.828125   0.750000 0
  0.593750   0.968750 0
  0.828125   0.671875 0
  0.828125   0.875000 0
  0.593750   0.937500 0
  0.828125   0.656250 0
  0.828125   0.640625 0
  0.828125   0.843750 0
  0.593750   0.906250 0
  0.828125   0.625000 0
  0.781250   0.968750 0
  0.828125   0.609375 0
  0.828125   0.812500 0
  0.593750   0.875000 0
  0.593750   0.828125 0
  0.593750   0.796875 0
  0.828125   0.703125 0
  0.593750   0.765625 0
  0.828125   0.937500 0
  0.812500   0.875000 0
  0.859375   0.515625 0
  0.812500   0.734375 0
  0.812500   0.937500 0
  0.578125   1.000000 0
  0.578125   0.750000 0
  0.812500   0.687500 0
  0.578125   0.953125 0
  0.812500   0.656250 0
  0.812500   0.859375 0
  0.578125   0.921875 0
  0.812500   0.828125 0
  0.578125   0.890625 0
  0.812500   0.593750 0
  0.812500   0.796875 0
  0.578125   0.859375 0
  0.578125   0.812500 0
  0.578125   0.781250 0
  0.796875   1.000000 0
  0.796875   0.859375 0
  0.796875   0.718750 0
  0.562500   0.984375 0
  0.562500   0.937500 0
  0.796875   0.843750 0
  0.562500   0.906250 0
  0.796875   0.812500 0
  0.562500   0.875000 0
  0.796875   0.578125 0
  0.796875   0.781250 0
  0.562500   0.843750 0
  0.812500   0.984375 0
  0.562500   0.796875 0
  0.812500   0.953125 0
  0.562500   0.765625 0
  0.796875   0.937500 0
  0.546875   0.750000 0
  0.781250   0.984375 0
  0.828125   0.593750 0
  0.781250   0.843750 0
  0.781250   0.937500 0
  0.546875   1.000000 0
  0.781250   0.703125 0
  0.546875   0.968750 0
  0.546875   0.921875 0
  0.781250   0.828125 0
  0.546875   0.890625 0
  0.781250   0.796875 0
  0.546875   0.859375 0
  0.781250   0.562500 0
  0.781250   0.765625 0
  0.546875   0.828125 0
  0.796875   0.968750 0
  0.546875   0.781250 0
  0.765625   1.000000 0
  0.765625   0.968750 0
  0.531250   0.984375 0
  0.765625   0.687500 0
  0.531250   0.953125 0
  0.531250   0.937500 0
  0.531250   0.906250 0
  0.765625   0.812500 0
  0.531250   0.875000 0
  0.765625   0.781250 0
  0.531250   0.843750 0
  0.781250   1.000000 0
  0.765625   0.546875 0
  0.765625   0.750000 0
  0.531250   0.812500 0
  0.781250   0.953125 0
  0.531250   0.765625 0
  0.515625   0.750000 0
  0.750000   0.984375 0
  0.750000   0.953125 0
  0.796875   0.593750 0
  0.796875   0.562500 0
  0.750000   0.843750 0
  0.750000   0.937500 0
  0.515625   1.000000 0
  0.750000   0.906250 0
  0.515625   0.968750 0
  0.750000   0.671875 0
  0.750000   0.875000 0
  0.515625   0.937500 0
  0.515625   0.921875 0
  0.515625   0.890625 0
  0.750000   0.796875 0
  0.515625   0.859375 0
  0.750000   0.765625 0
  0.515625   0.828125 0
  1.000000   0.718750 0
  0.750000   0.531250 0
  0.750000   0.734375 0
  0.515625   0.796875 0
  0.734375   1.000000 0
  0.734375   0.968750 0
  0.734375   0.937500 0
  0.781250   0.578125 0
  0.781250   0.546875 0
  0.968750   0.578125 0
  0.734375   0.828125 0
  0.968750   0.546875 0
  0.734375   0.796875 0
  0.734375   0.765625 0
  0.968750   0.671875 0
  0.734375   0.734375 0
  0.968750   0.640625 0
  0.734375   0.703125 0
  0.968750   0.609375 0
  0.734375   0.671875 0
  0.734375   0.656250 0
  0.734375   0.625000 0
  0.968750   0.531250 0
  0.734375   0.593750 0
  0.984375   0.734375 0
  0.984375   0.703125 0
  0.734375   0.515625 0
  0.718750   0.984375 0
  0.718750   0.953125 0
  0.718750   0.921875 0
  0.953125   0.562500 0
  0.718750   0.812500 0
  0.953125   0.531250 0
  0.718750   0.781250 0
  0.718750   0.750000 0
  0.953125   0.656250 0
  0.718750   0.718750 0
  0.953125   0.625000 0
  0.718750   0.687500 0
  0.953125   0.593750 0
  0.718750   0.656250 0
  0.671875   1.000000 0
  0.718750   0.640625 0
  0.718750   0.609375 0
  0.953125   0.515625 0
  0.718750   0.578125 0
  0.968750   0.718750 0
  0.968750   0.687500 0
  0.953125   0.671875 0
  0.703125   0.968750 0
  0.703125   0.937500 0
  0.937500   0.656250 0
  0.703125   0.906250 0
  0.937500   0.546875 0
  0.703125   0.796875 0
  0.937500   0.515625 0
  0.703125   0.765625 0
  0.937500   0.671875 0
  0.703125   0.734375 0
  0.937500   0.640625 0
  0.703125   0.703125 0
  0.937500   0.609375 0
  0.703125   0.671875 0
  0.937500   0.578125 0
  0.703125   0.640625 0
  0.656250   0.984375 0
  0.703125   0.625000 0
  0.703125   0.593750 0
  0.718750   0.796875 0
  0.953125   0.734375 0
  0.812500   1.000000 0
  0.859375   0.656250 0
  0.703125   0.781250 0
  0.937500   0.718750 0
  0.953125   0.703125 0
  0.796875   0.984375 0
  0.843750   0.640625 0
  0.812500   0.968750 0
  0.859375   0.625000 0
  0.796875   0.953125 0
  0.843750   0.609375 0
  0.687500   0.953125 0
  0.687500   0.921875 0
  0.687500   0.890625 0
  0.921875   0.734375 0
  0.687500   0.796875 0
  0.687500   0.781250 0
  0.921875   0.703125 0
  0.687500   0.765625 0
  0.687500   0.750000 0
  0.921875   0.656250 0
  0.687500   0.718750 0
  0.921875   0.625000 0
  0.687500   0.687500 0
  0.921875   0.593750 0
  0.687500   0.656250 0
  0.640625   1.000000 0
  0.921875   0.562500 0
  0.687500   0.625000 0
  0.640625   0.968750 0
  0.687500   0.609375 0
  0.687500   0.578125 0
  0.937500   0.687500 0
  0.921875   0.671875 0
  0.671875   0.921875 0
  0.906250   0.656250 0
  0.671875   0.906250 0
  0.671875   0.875000 0
  0.906250   0.718750 0
  0.671875   0.781250 0
  0.671875   0.765625 0
  0.671875   0.734375 0
  0.906250   0.640625 0
  0.671875   0.703125 0
  0.906250   0.609375 0
  0.671875   0.671875 0
  0.906250   0.578125 0
  0.671875   0.640625 0
  0.625000   0.984375 0
  0.671875   0.609375 0
  0.625000   0.953125 0
  0.671875   0.593750 0
  0.671875   0.562500 0
  0.765625   0.953125 0
  0.812500   0.609375 0
  0.656250   1.000000 0
  0.656250   0.953125 0
  0.656250   0.906250 0
  0.890625   0.640625 0
  0.656250   0.890625 0
  0.656250   0.859375 0
  0.890625   0.734375 0
  0.656250   0.796875 0
  0.812500   0.921875 0
  0.562500   1.000000 0
  0.625000   0.828125 0
  0.812500   0.843750 0
  0.843750   0.593750 0
  0.812500   0.812500 0
  0.625000   0.718750 0
  0.828125   0.687500 0
  0.640625   0.593750 0
  0.812500   0.781250 0
  0.625000   0.687500 0
  0.765625   0.828125 0
  0.640625   0.562500 0
  0.812500   0.750000 0
  0.562500   0.828125 0
  0.781250   0.875000 0
  0.546875   0.937500 0
  0.781250   0.671875 0
  0.781250   0.593750 0
  0.546875   0.656250 0
  0.796875   0.750000 0
  0.562500   0.812500 0
  0.796875   0.546875 0
  0.765625   0.796875 0
  0.765625   0.593750 0
  1.000000   0.531250 0
  0.812500   0.718750 0
  0.859375   0.562500 0
  0.625000   0.625000 0
  0.812500   0.703125 0
  0.812500   0.906250 0
  0.578125   0.968750 0
  0.984375   0.593750 0
  0.828125   0.578125 0
  0.828125   0.781250 0
  0.593750   0.843750 0
  0.812500   0.671875 0
  0.625000   0.578125 0
  0.796875   0.671875 0
  0.562500   0.734375 0
  0.984375   0.562500 0
  0.828125   0.546875 0
  0.812500   0.640625 0
  0.750000   0.812500 0
  0.625000   0.546875 0
  0.796875   0.640625 0
  0.562500   0.703125 0
  0.828125   0.515625 0
  0.781250   0.734375 0
  0.546875   0.796875 0
  0.781250   0.531250 0
  0.750000   0.781250 0
  0.625000   0.515625 0
  0.796875   0.609375 0
  0.562500   0.671875 0
  0.765625   0.656250 0
  0.765625   0.859375 0
  0.531250   0.921875 0
  0.812500   0.578125 0
  0.562500   0.656250 0
  0.984375   0.687500 0
  0.750000   0.750000 0
  0.812500   0.562500 0
  0.812500   0.765625 0
  0.578125   0.828125 0
  0.562500   0.625000 0
  0.984375   0.656250 0
  0.750000   0.718750 0
  0.812500   0.531250 0
  0.781250   0.656250 0
  0.546875   0.718750 0
  0.781250   0.625000 0
  0.546875   0.687500 0
  0.750000   0.640625 0
  0.796875   0.531250 0
  0.562500   0.593750 0
  0.984375   0.625000 0
  0.750000   0.687500 0
  0.546875   0.984375 0
  0.609375   0.812500 0
  0.796875   0.875000 0
  0.546875   0.953125 0
  0.609375   0.578125 0
  0.843750   0.515625 0
  0.765625   0.515625 0
  0.765625   0.718750 0
  0.531250   0.781250 0
  0.984375   0.546875 0
  0.750000   0.609375 0
  0.796875   0.828125 0
  0.671875   0.968750 0
  0.796875   0.796875 0
  0.796875   0.765625 0
  0.609375   0.671875 0
  0.796875   0.734375 0
  0.546875   0.812500 0
  0.796875   0.703125 0
  0.843750   0.546875 0
  0.609375   0.609375 0
  0.796875   0.687500 0
  0.562500   0.953125 0
  0.796875   0.656250 0
  0.609375   0.562500 0
  0.796875   0.625000 0
  0.609375   0.531250 0
  0.546875   0.640625 0
  0.765625   0.671875 0
  0.531250   0.734375 0
  0.796875   0.515625 0
  0.765625   0.640625 0
  0.531250   0.703125 0
  0.703125   1.000000 0
  0.765625   0.609375 0
  0.531250   0.671875 0
  0.765625   0.578125 0
  0.531250   0.640625 0
  0.546875   0.609375 0
  0.531250   1.000000 0
  0.890625   0.593750 0
  0.656250   0.656250 0
  0.781250   0.515625 0
  0.546875   0.578125 0
  0.531250   0.968750 0
  0.890625   0.562500 0
  0.656250   0.625000 0
  0.609375   0.968750 0
  0.781250   0.859375 0
  0.656250   0.593750 0
  0.750000   0.703125 0
  0.515625   0.765625 0
  0.781250   0.812500 0
  0.781250   0.781250 0
  0.593750   0.687500 0
  0.781250   0.750000 0
  0.593750   0.656250 0
  0.781250   0.718750 0
  0.531250   0.796875 0
  0.828125   0.562500 0
  0.593750   0.625000 0
  0.781250   0.687500 0
  0.828125   0.531250 0
  0.593750   0.593750 0
  0.812500   0.625000 0
  0.578125   0.687500 0
  0.781250   0.640625 0
  0.781250   0.609375 0
  0.593750   0.515625 0
  0.515625   0.781250 0
  0.812500   0.546875 0
  0.578125   0.609375 0
  0.812500   0.515625 0
  0.578125   0.578125 0
  0.750000   0.656250 0
  0.515625   0.718750 0
  0.750000   0.625000 0
  0.515625   0.687500 0
  0.687500   0.984375 0
  0.750000   0.593750 0
  0.515625   0.656250 0
  0.531250   0.546875 0
  0.750000   0.562500 0
  0.515625   0.625000 0
  0.531250   0.515625 0
  0.984375   0.515625 0
  0.750000   0.578125 0
  0.515625   0.531250 0
  0.828125   0.796875 0
  0.640625   0.703125 0
  0.828125   0.765625 0
[...]
CELL_DATA 7648
SCALARS scalar_value float 1
LOOKUP_TABLE default
0
0
3.02701e-08
2.61645e-08
1.71701e-08
4.0319e-08
0.0202605
0.0159594
0.0137346
0.0140744
0.00335833
0.00207916
0.00109145
0.00198942
0.000714213
0.000713941
0.000458225
0.00124812
5.96134e-09
2.35729e-09
5.41206e-09
4.5436e-09
2.5525e-09
1.91003e-09
0
0
0
0
0
0
0
0
0.000280953
0.000215464
0.000176383
0.000159096
0.000237655
0.000157595
0
0
0.000226405
0.000174218
0
0
5.90082e-05
7.48172e-05
0.000102873
5.57266e-05
0.000164257
0.000166392
0.000227188
0.000109968
4.24197e-05
3.94805e-05
5.30609e-05
2.56742e-05
3.34443e-08
3.63335e-08
1.48384e-08
2.78586e-08
1.58391e-08
1.18351e-08
0.000747256
0.000515052
0.000410013
0.000302764
0.000209064
0.000102165
9.40903e-05
0.000110057
8.94457e-05
7.77522e-05
0.000107608
1.13292e-08
0
2.23773e-06
2.0171e-06
1.38394e-06
2.93988e-06
6.68514e-07
1.02381e-06
9.31955e-07
1.48117e-06
9.35833e-07
9.77052e-07
6.83085e-07
1.51272e-06
0
0
0
0.00585234
0.00485457
0.00467487
0.00415203
0.00370498
0.00315381
0.0024413
0.00334545
0.00254107
0.00218737
0.00215743
0.0028192
0.00222151
0.00185023
1.79783e-09
2.21692e-05
4.29613e-05
3.07651e-05
0
0
0
0
3.16601e-05
2.27848e-05
1.78637e-05
1.6207e-05
8.29019e-06
4.83572e-06
4.79097e-06
0.00395116
0.00286986
0.00252594
0.00237199
0.00167354
0.00148408
0.00184495
0.00105765
4.25707e-10
2.84421e-10
1.64409e-10
2.76946e-10
3.45423e-08
2.30725e-08
1.49172e-08
2.09378e-08
0.023954
0.0211522
0.0239627
0.016653
0.00029766
0
0
5.70046e-05
3.60506e-05
3.54291e-05
2.04321e-05
7.75917e-06
1.48095e-05
2.38137e-08
1.35897e-08
1.05406e-08
8.3249e-10
5.17443e-10
3.12321e-10
4.42839e-10
1.94054e-09
1.41367e-09
8.16834e-10
2.05231e-09
0.00332991
0.00206134
0.000440995
0.000351821
0.000225289
0.000447553
1.28903e-10
0.000410359
0.000312564
0.000206869
0.000349541
0
0
0
0
9.28592e-06
6.59418e-06
0.00325683
0.00254549
0.00186244
0.00250779
0.00143806
0.00145115
0.00113004
0.00196961
1.31406e-10
0
0
0
0
0
0
0
0
0.00196989
0.00158587
0.00116741
0.00170288
0
0
0
0
0.0209868
0.0164207
0.0150054
0.0138043
9.99768e-05
7.38695e-05
0.011723
0.00991549
0.00761488
0.0106892
0.0105792
0.00828832
0.00768671
0.00694904
0.0088067
0.00671038
0.00628428
0.00541577
1.37793e-05
1.21875e-05
1.61345e-05
8.40961e-06
2.57327e-05
4.83596e-05
2.22352e-05
0.000279511
0.000171734
0.000115
0.000192999
0.0226598
0.0191308
0.0212971
0.0156378
1.07998e-07
7.15113e-08
4.61334e-08
6.09283e-08
0.0109459
0.00951734
0.0110294
0.00749508
1.9145e-08
1.24541e-08
7.71438e-09
1.09391e-08
0
0
0
0
0
0
0
0
0
0
0
0
0
1.69575e-07
1.15613e-07
7.77262e-08
1.02693e-07
2.04275e-07
1.37921e-07
1.64249e-07
9.20877e-08
7.1645e-08
4.71163e-08
5.2437e-08
3.24336e-08
6.33929e-06
1.00097e-05
4.73937e-06
1.0853e-06
7.82145e-07
5.27039e-07
7.92387e-07
3.76876e-09
2.11398e-09
1.64382e-09
0
0
0
0
0
0
0
0
0
0
0
0
0
3.34177e-08
2.07225e-08
0.0016373
0.00300078
0.000343572
4.25227e-06
0.00054868
2.98575e-08
3.9707e-07
0.0231158
0.0177847
3.3003e-05
0.0163032
0.021061
0.0107636
2.46509e-05
0.0112198
6.73773e-05
4.10037e-05
0.000161773
9.13956e-05
7.95236e-05
0.000143925
0
0
0
1.73376e-09
3.39123e-09
3.86985e-08
3.9962e-08
2.9943e-08
0
2.14177e-06
7.17738e-07
1.63235e-06
1.06437e-06
0.000875075
0.000599094
9.12768e-06
0.0144785
0.00898221
0.0122771
0.0113063
0.00940076
0.0174589
0
0
0
0
0
0
0.000217623
0.000355645
0
0.000324347
0.000678296
6.7213e-05
0.00962512
4.12299e-09
0.0134777
0
0
0
0
0
1.59688e-07
7.30444e-08
7.46321e-08
4.86208e-08
7.01471e-08
0
3.49181e-09
2.6644e-07
1.78573e-07
1.1988e-07
6.60656e-08
0
0
0
0
0.000424562
0.00231762
1.31409e-08
2.20368e-07
2.27344e-07
1.68229e-07
9.60935e-08
3.96583e-10
2.01873e-07
0
0
0
1.15469e-08
1.14839e-08
1.92304e-08
1.98706e-08
7.44728e-09
1.22883e-08
1.81172e-09
1.93808e-08
2.7465e-09
3.01414e-08
1.20825e-08
2.59018e-08
1.40329e-09
6.7084e-10
0.0049035
3.01724e-09
0.00410125
1.94446e-09
1.77098e-08
0.00307599
0.00610682
1.14643e-09
0.00467313
0.00820166
1.78197e-09
1.83616e-10
0
0
0
0
1.15429e-07
0
0
1.26576e-05
0.018003
0
0
1.20547e-06
8.17448e-08
0.000158333
1.30055e-05
0.00545641
0.000191036
9.3444e-05
1.31485e-09
9.63526e-10
0.00389061
0.00731215
6.81633e-10
6.15613e-10
4.72992e-09
9.04515e-10
2.66379e-10
0
0.000432882
0
1.94903e-10
8.94089e-08
5.18837e-08
4.46162e-09
3.66228e-10
5.57828e-10
0
0
0
6.0945e-06
2.50259e-06
1.98816e-06
1.93567e-07
0
0
2.8967e-08
0.00636935
0.00951629
2.40751e-06
4.65239e-06
8.37763e-09
5.22979e-08
2.33046e-09
1.23619e-06
5.25934e-08
3.45992e-08
1.37792e-07
2.10106e-08
3.25081e-08
8.45291e-08
5.18901e-08
7.85846e-08
3.96814e-07
0.0219702
0.0173442
5.2581e-06
0
3.2259e-10
0
0
6.29842e-08
2.34821e-05
0.000126289
5.21294e-05
2.74084e-05
3.89181e-06
0.000177836
2.85369e-08
5.09569e-08
2.93999e-10
3.89863e-10
1.02328e-10
1.2982e-08
3.84722e-07
1.11741e-09
5.22954e-09
3.7256e-09
9.6879e-09
3.44079e-09
0.000380215
0
0.000194013
5.36819e-08
3.23201e-08
0.0130327
5.90127e-06
5.73558e-06
2.79377e-06
2.3174e-07
8.37136e-09
1.14902e-09
4.19778e-09
0
0
0
0
2.73722e-10
1.49457e-10
2.1093e-10
1.18193e-10
0
0
1.48358e-10
1.13619e-10
0.000433335
0.000241846
8.53803e-07
9.94767e-06
3.26576e-08
0
4.5009e-09
4.28563e-06
2.0258e-06
1.75726e-10
0.00146886
0
1.9428e-08
1.01439e-09
1.11351e-10
6.31969e-10
0
3.67016e-10
1.75149e-09
9.9879e-10
0.000807214
0.00680394
1.75417e-10
0.00717603
0.00548798
4.92968e-06
1.33232e-06
7.49005e-09
5.79953e-08
0.0157573
1.35827e-08
0.000626234
9.47363e-10
7.88764e-10
8.96059e-05
0.00018048
3.24149e-10
0.000126549
4.19198e-07
1.39621e-07
2.82027e-07
1.3061e-06
3.61818e-06
2.61102e-07
3.90552e-07
7.96326e-08
1.60611e-07
2.39046e-05
1.77989e-05
7.02952e-06
1.12995e-05
4.61987e-06
2.06577e-05
6.82249e-06
0.00106623
1.23835e-05
9.26958e-06
0
2.68877e-06
1.92049e-06
1.42953e-06
1.95793e-05
1.59157e-06
3.35435e-05
0.00028901
0.000117415
1.00845e-06
1.34311e-05
0.000447208
6.23602e-07
3.55659e-06
3.72174e-05
2.65101e-06
1.83884e-06
3.69366e-06
2.3205e-05
4.99094e-05
5.07111e-06
1.16985e-07
0.00840365
0.00729134
0.000286375
1.15818e-10
5.58218e-06
4.79426e-09
4.57864e-10
1.44841e-08
1.08602e-09
5.9386e-07
1.23147e-08
7.11284e-09
0.000795548
2.38196e-07
0.0107941
1.9074e-07
2.07025e-07
0
3.69181e-08
7.60209e-08
0.011583
0.000489638
4.33813e-06
3.17386e-06
1.81093e-06
1.97838e-06
0.000592929
1.19836e-05
7.01052e-10
3.20127e-06
7.77439e-08
0.0153872
2.10682e-08
0
0
0
3.88191e-08
0.00670476
0
0
0
0
0
0
0
0
7.27506e-06
3.02806e-06
9.02378e-08
0.00464229
1.69487e-06
5.00456e-05
0
3.38533e-06
0
3.228e-05
0.000377841
5.16718e-05
4.4804e-09
0.00893755
0.00030611
8.04147e-10
1.74511e-05
0
0
0
6.93924e-05
2.14191e-06
5.53327e-05
1.1826e-06
0.00140933
3.91704e-10
0.00134429
1.95482e-06
2.12705e-10
3.28885e-05
4.15057e-09
6.65688e-09
1.55251e-07
1.55759e-09
1.95546e-09
0.00121243
1.45084e-09
2.44826e-09
0.000402896
4.23351e-09
6.87183e-09
2.48143e-09
6.68526e-09
0
0
0
0
3.31673e-05
0
4.08081e-06
2.3516e-05
0
2.36863e-09
8.41719e-05
0
1.08269e-06
0
4.38441e-07
2.93468e-10
0.000688494
7.22769e-10
4.82702e-09
2.04241e-10
8.70035e-05
5.93891e-10
0
9.65795e-06
6.0113e-07
1.16709e-06
1.15594e-10
1.93526e-06
0.00226082
2.12213e-08
4.43169e-05
0.000115561
1.47318e-05
7.32527e-08
3.41338e-06
2.21195e-05
0
0
0
2.56503e-06
1.31963e-05
3.28475e-08
0
4.35053e-06
2.64057e-05
5.82525e-06
7.72243e-06
5.12978e-05
0
2.25077e-10
0.000141845
0
0
1.15768e-08
4.36656e-07
0
0.000249773
1.31064e-07
3.89662e-09
1.70804e-07
1.65915e-07
1.83084e-07
0.000248958
6.27732e-09
8.04521e-10
0
2.03592e-08
0.000221546
5.9095e-06
0
0.000611555
0
4.39159e-09
1.81026e-09
2.309e-08
2.5322e-09
1.36704e-05
0.000809722
0
0.000365937
1.49979e-08
0.00276546
0.0057807
4.19717e-10
6.98702e-07
0.00434987
0.00791599
6.35184e-10
0.000284429
2.94787e-07
9.8121e-07
0
1.9957e-07
0
0
4.24136e-07
8.6055e-07
0
1.20396e-06
4.37125e-07
1.26536e-07
0
0
2.61672e-07
3.13998e-07
0.0244715
0
4.97373e-09
1.73046e-07
0.0240133
0
7.09461e-09
3.50963e-05
2.96072e-07
2.17082e-06
6.51307e-05
0
0.00011798
8.8345e-07
7.92683e-07
1.01262e-08
0.00916552
3.12863e-10
2.49598e-10
0.00102685
0
0.00733432
2.58337e-09
1.86232e-05
2.60662e-08
0
4.27014e-05
4.67325e-08
0
7.17538e-06
2.14772e-08
8.65554e-09
4.97932e-06
0.000213612
9.31324e-08
4.91116e-08
0.0218383
0.000666023
4.22784e-05
1.95162e-07
1.7072e-05
6.53153e-07
0
1.39689e-05
5.17484e-07
5.08321e-07
0
4.22107e-10
0
0
1.41634e-05
0
0
8.5463e-05
7.60703e-05
0
1.7848e-08
8.74153e-08
5.81167e-07
5.96023e-09
1.1767e-07
1.52083e-08
6.30647e-08
2.12489e-08
0
1.6014e-07
1.25326e-07
0.00622995
9.58914e-06
8.05745e-08
3.66749e-07
2.44138e-06
1.84178e-07
0.000672296
3.49048e-07
1.29533e-07
0.000525348
9.31837e-06
1.31446e-09
0.0248638
0.00771792
1.83243e-08
3.27398e-05
2.0636e-07
8.7085e-06
1.03849e-05
1.28559e-05
7.01986e-10
1.75743e-08
0.000476434
1.18258e-07
0.00319205
6.91881e-06
2.47567e-07
6.08294e-06
0
0
0
4.71005e-08
1.89794e-07
7.29148e-07
5.69225e-07
1.4896e-07
0
0
0
3.94577e-08
3.20524e-07
0
0.000438753
5.30996e-05
0.000335786
0.000838202
0.000231199
0
8.27729e-05
4.13589e-09
4.43636e-10
5.90365e-06
1.68278e-06
0.00674237
0.000269258
2.47002e-05
0
5.60922e-05
0
0
9.01419e-05
0.000455933
0
0
0
0
0
0
0
1.129e-08
0
0.000131796
2.02882e-05
1.16724e-05
2.56604e-07
1.47805e-05
0
0
2.48974e-06
6.51809e-08
0
2.90049e-08
0
0
1.20614e-10
0
0
2.69135e-06
1.64991e-06
5.46407e-10
0
7.95668e-07
5.43051e-06
0
0
0.000327415
1.3515e-05
3.42097e-07
6.16023e-09
0
5.14022e-05
4.56588e-06
0
1.97845e-05
0.000930866
4.77049e-05
3.5817e-07
0
6.86159e-05
1.19132e-05
0
1.21903e-05
8.35728e-05
8.05908e-08
0
0
4.4558e-06
0.00337564
0
2.85686e-06
0
6.91192e-06
3.63082e-06
4.83362e-10
1.36941e-07
1.42355e-08
0.00504282
0.0115028
4.27245e-06
1.23699e-05
2.62873e-05
0
1.35534e-09
0
0
3.5793e-07
0.000285212
0.000496522
0
3.02459e-05
0
0.000120312
1.98432e-05
7.54913e-05
0
4.8249e-07
0.000133232
0
4.19254e-05
0
1.22907e-05
9.81962e-06
0.000181167
2.93425e-05
0
0.0216374
0
9.81215e-08
9.03782e-09
1.66991e-07
2.8614e-05
8.27552e-06
9.1556e-06
2.43061e-10
0
9.77536e-09
3.17071e-08
0
0
0
1.80747e-06
0
1.72411e-05
0
2.74427e-06
1.25204e-08
0
0
1.41205e-06
7.13864e-06
3.91681e-06
1.45473e-09
0
0
2.65007e-05
2.96135e-05
4.44757e-05
1.81795e-05
2.33591e-06
0.00236478
7.13251e-06
0.00695571
0.00421791
8.18144e-07
1.12402e-06
0.000810308
0
2.12934e-10
0
6.52368e-05
0
1.64068e-09
0
2.83105e-06
0.000190309
0.000201828
6.4705e-05
0.000107477
0
1.16984e-06
4.7773e-09
0
0
0
0
5.50576e-10
9.98349e-06
3.17555e-05
3.04298e-10
2.38873e-10
1.88514e-10
9.14869e-07
9.11385e-06
0
6.46077e-07
6.13199e-06
5.43926e-07
3.54203e-06
0.000144028
0.000789864
0
0.00160266
0
0
0.000105112
0
5.24427e-10
2.49463e-05
2.50012e-10
4.52214e-10
6.79815e-10
3.3917e-10
1.64223e-10
0
1.26702e-10
3.58278e-10
5.87995e-05
2.4313e-10
9.45423e-05
3.78919e-10
7.55163e-10
8.4836e-06
1.90836e-09
3.71185e-07
0.00749882
2.70247e-07
0.00862027
2.47175e-08
5.1931e-08
1.70248e-05
7.4281e-06
0
0
0
0
1.675e-06
4.39422e-07
0
0
0.000143693
0.000197176
1.63952e-08
0.000294207
0
3.38006e-05
4.46135e-05
6.98769e-05
0
2.68738e-10
0
0
0
0
0
0
2.32882e-05
0
1.15478e-09
4.26742e-05
0.000213865
0
3.05287e-05
7.68854e-05
2.05727e-05
4.98192e-05
6.06747e-06
0
0
0
2.70157e-07
0
0
0
5.77622e-07
6.57989e-08
1.14092e-07
0
0
5.5306e-08
0
0
1.11076e-07
0
4.66609e-08
0
4.6679e-08
0
0.00414524
0.00113708
0.000415141
0
0.00257396
0
0.00388683
0.000369793
0.00577988
1.11604e-07
1.49186e-05
1.90325e-09
8.5535e-06
7.87618e-10
2.11201e-05
1.41847e-10
0
0
0
1.51369e-10
1.02324e-10
0
0
1.12181e-10
0
0
4.93605e-06
0
0
0
3.23092e-09
7.60003e-09
1.47016e-06
0
0.00067738
0.000131931
1.56591e-09
0.00866461
7.43551e-10
1.9061e-05
4.15438e-05
0.0204783
1.21199e-05
5.36949e-05
1.00977e-10
3.14486e-06
0.000142445
0
1.00677e-10
5.11966e-07
6.74631e-08
7.60886e-09
3.19538e-07
2.95536e-08
1.33105e-08
3.72286e-07
0.000258284
2.53588e-09
4.56506e-05
1.24634e-07
1.23117e-05
0
0
2.79272e-07
3.49961e-06
1.96109e-05
1.22953e-07
0
3.63926e-06
2.46713e-07
2.45722e-06
2.25084e-06
1.26231e-06
8.85134e-07
2.96992e-05
5.11069e-05
0.000101415
3.80224e-09
4.77495e-07
2.45786e-07
0
0
1.52686e-07
9.87362e-09
6.21843e-07
1.27134e-06
0.000155694
1.66761e-05
1.64434e-10
0.00469115
0.0010022
0
3.84233e-09
0
0
3.03153e-07
0
0
0
0
6.78537e-09
8.7363e-05
2.65454e-05
2.11962e-08
0.000555096
0.000727786
0.000760815
0.00108082
0.00419176
0.000120195
0
0
0
0
0
0
0
0
0
0
0
0
1.0891e-06
0
0
0
0
0
0
0
1.04555e-09
1.56718e-06
1.34949e-06
4.73382e-06
3.33588e-06
4.65616e-07
3.34488e-07
3.67577e-09
0.00523235
0.0063004
8.82874e-08
0.0141379
0.0168765
1.07684e-08
0.00550663
9.6243e-05
6.319e-05
6.86765e-05
2.27467e-05
3.76123e-07
0.000821488
3.98644e-05
0.000593939
0.000423018
0.000696391
0.00110182
4.64927e-10
8.00425e-10
7.28738e-10
1.01429e-09
7.88198e-06
0.000915714
0.000963258
1.10021e-09
8.5799e-05
5.48272e-05
4.29933e-05
6.28864e-05
1.46181e-09
5.13716e-09
0
0
0
8.09992e-10
3.50445e-10
6.32558e-10
9.17035e-10
0.000545471
0.000105242
0.000281581
0.000287357
0.000310047
0.000438765
0.00102711
1.45243e-09
0
0
0
8.00734e-07
2.52121e-05
0.00222202
1.80046e-06
0
0
0
0
0
0
0.00154827
0.0012881
0.00140382
7.85075e-08
9.64635e-10
5.49521e-10
1.07092e-09
6.15557e-10
3.79229e-10
5.93811e-08
1.22108e-07
3.0165e-07
1.87111e-07
2.10404e-05
2.29262e-05
2.70226e-05
5.5594e-05
4.13805e-05
8.82547e-05
1.10096e-05
6.23863e-07
6.16782e-08
2.51347e-08
3.07708e-08
7.35665e-09
8.62965e-10
4.52318e-05
0.000128508
0.000197596
0.00031328
0
0
0
0.000811253
4.5039e-10
1.2697e-05
6.87853e-06
2.05567e-05
2.68204e-05
0.00176088
1.56087e-07
5.16643e-06
6.27496e-06
1.05071e-05
4.62052e-09
5.28208e-07
0.000943734
0.0027095
1.91543e-06
4.19747e-07
3.02484e-06
6.34198e-07
4.06589e-06
9.57146e-05
8.52413e-05
0.000110619
0.000168529
2.90869e-07
3.96741e-09
9.03992e-09
7.97719e-10
2.78267e-09
5.93773e-05
1.50179e-05
1.29535e-08
0.000144312
6.6291e-09
2.57008e-09
1.06094e-08
2.07762e-05
2.01767e-06
1.20679e-06
2.61088e-06
0
0
0
0
2.53157e-10
9.37359e-10
1.22093e-09
1.479e-10
1.43284e-09
2.54552e-09
1.96563e-05
0.000910555
8.96309e-07
0.00124403
0.000891288
1.84256e-08
2.89755e-08
3.03383e-08
6.06356e-10
0.00320453
0.00411256
0.000454209
0.00149856
1.00584e-05
7.69148e-06
9.36737e-06
9.04712e-09
7.54867e-09
0.000102335
4.74878e-07
4.16104e-07
1.18703e-08
2.74786e-08
9.06849e-06
1.34972e-10
0
6.81165e-07
0
0
0
0
7.66591e-07
0
0
0
7.86174e-07
0.000602511
0.000622018
0.000704272
3.21254e-06
4.78253e-06
0
0
0
0
0.000172727
0.000580526
6.86508e-08
0.000474808
0.00132418
0
0
0
0
0
0
0
0
0
3.37922e-09
9.23668e-09
1.417e-08
1.59212e-06
2.51145e-06
0.000709121
0.0044622
1.81215e-06
0.00236889
0
3.54938e-06
5.75352e-06
2.22803e-07
2.70208e-09
9.58819e-06
0.00018598
0.000373177
0.00136249
8.05055e-05
1.38444e-07
1.37062e-09
3.62942e-07
0
1.91161e-09
1.27325e-09
7.21945e-10
1.34589e-08
1.14835e-08
0.000377723
1.72558e-09
3.34748e-09
6.14706e-05
6.50999e-05
4.27163e-05
5.54776e-10
5.79048e-10
0
0
1.00953e-08
0
1.62354e-08
1.16965e-06
0
0
0
3.28846e-06
4.32571e-06
0
0
0
0
0.00499134
0.00504673
0
0
0
8.65431e-07
1.18048e-10
1.8374e-10
3.32493e-10
3.09629e-10
2.31339e-10
1.31682e-10
0.00392619
0.00337973
7.90917e-09
2.69539e-09
4.44488e-09
4.30645e-09
0
0
0
1.57076e-06
1.89956e-10
3.89166e-05
2.68726e-05
3.14287e-05
0.00160569
4.04388e-05
3.43611e-05
5.0854e-05
8.17481e-05
0.000139525
0.000485832
3.8449e-09
1.42228e-06
0.00166372
1.03536e-09
1.68759e-09
0.00577071
0.0137361
6.07657e-09
1.27026e-05
2.25968e-09
1.77381e-09
5.45585e-09
6.87037e-07
1.56515e-06
5.79596e-08
1.49912e-07
0.000848157
4.04296e-08
3.68912e-08
3.52309e-08
2.0097e-08
0
1.59418e-06
1.77635e-06
2.15701e-06
3.75371e-07
0
0
0
0
0
1.21682e-10
3.57259e-06
4.58119e-06
0
0
0
0
0
3.44418e-08
7.32103e-06
9.87475e-06
1.53379e-05
0
0
0
0
0
0.000683479
4.50505e-08
6.45572e-08
0
1.10888e-07
9.57185e-09
2.60176e-08
5.16212e-07
8.04226e-07
3.37492e-10
2.14135e-10
1.83555e-10
1.03084e-10
0
0
0
0
0
0.000183392
0.000269706
1.00169e-08
0
0
0.000150112
0.000375754
7.57249e-10
0.000184726
0.000332014
0.000239897
0.000268927
6.22597e-09
0
0
0
0
1.72258e-06
0
7.30896e-08
0.000723514
0.000832397
0.000926391
5.63579e-06
2.59488e-06
2.3299e-06
0.00331745
0.00434712
0.00541634
1.03391e-10
0
1.69259e-10
0.00120668
0.000800777
0.00118367
0.00153055
2.56955e-08
2.58579e-09
2.1961e-09
2.55878e-10
3.51348e-09
5.75278e-09
1.68431e-10
2.74301e-10
4.18262e-10
0.00175088
0
0
4.1792e-06
2.68139e-09
6.39742e-09
0
0
0
0
0.000347323
0
0
0
7.22401e-07
0.000263221
0.000176296
0.000156389
0
1.63319e-10
0
0
0
1.71946e-05
2.75861e-05
5.66128e-05
0
0
0
2.88142e-07
6.79384e-09
1.89242e-08
0.000308262
0.000565506
1.16761e-05
9.21437e-07
0.000982359
0.00162465
0.00134415
0.000520905
2.09237e-05
0.00227011
0.00260004
0.0035133
9.56211e-06
1.43779e-09
1.62325e-05
2.77144e-09
4.84714e-08
1.82019e-08
2.57983e-08
2.89288e-09
4.98447e-09
7.12698e-09
0.00624442
0.00727694
1.37915e-05
0
0
0
0
0
0
0
0
0
2.72745e-09
0
0
0
0
0
3.67537e-05
4.4568e-10
6.31762e-06
8.38464e-06
3.72456e-05
6.70931e-06
0.000514302
0.000611368
0.000978508
1.00534e-09
1.08105e-09
1.10075e-09
0.00180189
0.00214191
1.12659e-09
2.39993e-09
1.53015e-07
2.16205e-07
3.15074e-07
3.55796e-05
7.20326e-05
0.000174837
8.88882e-05
0.000107921
1.31298e-10
1.11995e-10
0
0
0.000230335
2.83054e-07
4.57752e-07
5.64512e-08
3.86736e-07
0.00130417
0.00519877
6.16374e-05
8.13517e-05
0.00011993
0.00238851
0.00244277
0.00299449
0.000989546
0.00271865
0.00377055
0.00403629
2.64189e-06
5.8784e-07
3.44573e-06
0.000648652
9.96341e-05
0.000149212
0
0
0
9.44079e-06
1.77016e-05
7.67051e-05
8.68726e-09
0.000122599
1.52316e-08
6.98851e-08
3.61308e-07
5.67232e-07
8.83737e-07
1.53458e-05
1.81736e-05
9.46425e-08
2.23181e-07
0
0
0
0
7.97805e-09
4.18255e-05
2.82625e-09
5.0541e-09
0
3.1773e-09
1.74745e-09
7.95597e-07
3.93787e-10
2.0283e-10
1.79378e-10
0
0
0
0
0
0.000548135
0.000784805
6.04674e-06
1.57921e-05
0
0
0
0
0
0
0
0
0
0
0.000413748
0.000523399
0
0
0.000866526
0.00129285
0.00127544
0.00116409
0.000112398
0.000112981
1.0925e-06
1.16764e-09
1.17091e-06
8.80311e-07
5.79742e-06
1.02242e-05
0
0
0
0
0.00103874
0.0469194
0.0890147
0.297382
0.327452
0.310833
0.284751
0.211345
0.134587
0.0747634
0.0371039
0.0256057
0.326848
0.317353
0.295836
0.264661
0.227382
0.187866
0.149523
0.114862
0.0853623
0.0615661
0.0432936
0.0299192
0.000337102
0.00168788
0.0281491
0.0607784
0.105323
0.308817
0.321757
0.310179
0.287524
0.256226
0.181053
0.110178
0.0586882
0.0285768
0.315996
0.321074
0.314031
0.295474
0.267422
0.232814
0.195022
0.157276
0.122223
0.0916764
0.066588
0.0471638
0.0329405
0.000643916
0.00275121
0.0400795
0.0792961
0.122056
0.311874
0.302883
0.282264
0.253488
0.21932
0.182759
0.146633
0.113276
0.0843254
0.0427364
0.311345
0.305065
0.288027
0.26221
0.230123
0.194599
0.158452
0.124152
0.0935823
0.0679614
0.0479476
0.0336951
0.000218197
0.00114293
0.00444642
0.0579417
0.099119
0.137213
0.301104
0.271277
0.244529
0.21283
0.178649
0.144385
0.112134
0.0835206
0.0596679
0.0293693
0.295129
0.298917
0.292024
0.275578
0.251437
0.221708
0.188696
0.154729
0.121936
0.0920672
0.0664049
0.0459246
0.0319092
0.000173737
0.000423683
0.00192459
0.0127837
0.0368895
0.0819785
0.265552
0.289085
0.275704
0.231918
0.202643
0.171031
0.139029
0.108412
0.0806508
0.0383891
0.0102082
0.0308661
0.260912
0.284881
0.285151
0.276682
0.260395
0.23769
0.210211
0.179789
0.148282
0.117443
0.0887972
0.063574
0.0429267
0.0289881
0.000133463
0.000739112
0.00309747
0.0197892
0.0555487
0.10254
0.263793
0.26866
0.275155
0.271966
0.241907
0.191551
0.162422
0.132733
0.103942
0.077355
0.054116
0.0250757
8.91793e-05
0.00457887
0.0157657
0.0467491
0.261458
0.271387
0.274033
0.270984
0.261297
0.245286
0.223905
0.198489
0.17049
0.14138
0.112573
0.0853904
0.0610008
0.0406271
0.0267404
9.76502e-05
0.000245537
0.0011934
0.00477487
0.00907184
0.0297446
0.0780391
0.246777
0.256527
0.262362
0.263208
0.246233
0.207113
0.155126
0.127459
0.100376
0.0750611
0.0341874
0.000169609
0.00694557
0.0235232
0.0665387
0.247122
0.256338
0.259784
0.256972
0.247684
0.232486
0.212478
0.188923
0.163039
0.135968
0.108934
0.0194284
0.0137149
7.97613e-08
0.00770094
8.64208e-07
8.4253e-08
2.67106e-07
7.79843e-07
2.36239e-05
0.000100035
0.0117401