# vtk DataFile Version 2.0
Unstructured Grid by M++
ASCII
DATASET UNSTRUCTURED_GRID
POINTS 4072 float
  0.828125   0.890625 0
  0.875000   0.531250 0
  0.828125   0.750000 0
  0.593750   0.968750 0
  0.828125   0.671875 0
  0.828125   0.875000 0
  0.593750   0.937500 0
  0.828125   0.656250 0
  0.828125   0.640625 0
  0.828125   0.843750 0
  0.593750   0.906250 0
  0.828125   0.625000 0
  0.781250   0.968750 0
  0.828125   0.609375 0
  0.828125   0.812500 0
  0.593750   0.875000 0
  0.593750   0.828125 0
  0.593750   0.796875 0
  0.828125   0.703125 0
  0.593750   0.765625 0
  0.828125   0.937500 0
  0.812500   0.875000 0
  0.859375   0.515625 0
  0.812500   0.734375 0
  0.812500   0.937500 0
  0.578125   1.000000 0
  0.578125   0.750000 0
  0.812500   0.687500 0
  0.578125   0.953125 0
  0.812500   0.656250 0
  0.812500   0.859375 0
  0.578125   0.921875 0
  0.812500   0.828125 0
  0.578125   0.890625 0
  0.812500   0.593750 0
  0.812500   0.796875 0
  0.578125   0.859375 0
  0.578125   0.812500 0
  0.578125   0.781250 0
  0.796875   1.000000 0
  0.796875   0.859375 0
  0.796875   0.718750 0
  0.562500   0.984375 0
  0.562500   0.937500 0
  0.796875   0.843750 0
  0.562500   0.906250 0
  0.796875   0.812500 0
  0.562500   0.875000 0
  0.796875   0.578125 0
  0.796875   0.781250 0
  0.562500   0.843750 0
  0.812500   0.984375 0
  0.562500   0.796875 0
  0.812500   0.953125 0
  0.562500   0.765625 0
  0.796875   0.937500 0
  0.546875   0.750000 0
  0.781250   0.984375 0
  0.828125   0.593750 0
  0.781250   0.843750 0
  0.781250   0.937500 0
  0.546875   1.000000 0
  0.781250   0.703125 0
  0.546875   0.968750 0
  0.546875   0.921875 0
  0.781250   0.828125 0
  0.546875   0.890625 0
  0.781250   0.796875 0
  0.546875   0.859375 0
  0.781250   0.562500 0
  0.781250   0.765625 0
  0.546875   0.828125 0
  0.796875   0.968750 0
  0.546875   0.781250 0
  0.765625   1.000000 0
  0.765625   0.968750 0
  0.531250   0.984375 0
  0.765625   0.687500 0
  0.531250   0.953125 0
  0.531250   0.937500 0
  0.531250   0.906250 0
  0.765625   0.812500 0
  0.531250   0.875000 0
  0.765625   0.781250 0
  0.531250   0.843750 0
  0.781250   1.000000 0
  0.765625   0.546875 0
  0.765625   0.750000 0
  0.531250   0.812500 0
  0.781250   0.953125 0
  0.531250   0.765625 0
  0.515625   0.750000 0
  0.750000   0.984375 0
  0.750000   0.953125 0
  0.796875   0.593750 0
  0.796875   0.562500 0
  0.750000   0.843750 0
  0.750000   0.937500 0
  0.515625   1.000000 0
  0.750000   0.906250 0
  0.515625   0.968750 0
  0.750000   0.671875 0
  0.750000   0.875000 0
  0.515625   0.937500 0
  0.515625   0.921875 0
  0.515625   0.890625 0
  0.750000   0.796875 0
  0.515625   0.859375 0
  0.750000   0.765625 0
  0.515625   0.828125 0
  1.000000   0.718750 0
  0.750000   0.531250 0
  0.750000   0.734375 0
  0.515625   0.796875 0
  0.734375   1.000000 0
  0.734375   0.968750 0
  0.734375   0.937500 0
  0.781250   0.578125 0
  0.781250   0.546875 0
  0.968750   0.578125 0
  0.734375   0.828125 0
  0.968750   0.546875 0
  0.734375   0.796875 0
  0.734375   0.765625 0
  0.968750   0.671875 0
  0.734375   0.734375 0
  0.968750   0.640625 0
  0.734375   0.703125 0
  0.968750   0.609375 0
  0.734375   0.671875 0
  0.734375   0.656250 0
  0.734375   0.625000 0
  0.968750   0.531250 0
  0.734375   0.593750 0
  0.984375   0.734375 0
  0.984375   0.703125 0
  0.734375   0.515625 0
  0.718750   0.984375 0
  0.718750   0.953125 0
  0.718750   0.921875 0
  0.953125   0.562500 0
  0.718750   0.812500 0
  0.953125   0.531250 0
  0.718750   0.781250 0
  0.718750   0.750000 0
  0.953125   0.656250 0
  0.718750   0.718750 0
  0.953125   0.625000 0
  0.718750   0.687500 0
  0.953125   0.593750 0
  0.718750   0.656250 0
  0.671875   1.000000 0
  0.718750   0.640625 0
  0.718750   0.609375 0
  0.953125   0.515625 0
  0.718750   0.578125 0
  0.968750   0.718750 0
  0.968750   0.687500 0
  0.953125   0.671875 0
  0.703125   0.968750 0
  0.703125   0.937500 0
  0.937500   0.656250 0
  0.703125   0.906250 0
  0.937500   0.546875 0
  0.703125   0.796875 0
  0.937500   0.515625 0
  0.703125   0.765625 0
  0.937500   0.671875 0
  0.703125   0.734375 0
  0.937500   0.640625 0
  0.703125   0.703125 0
  0.937500   0.609375 0
  0.703125   0.671875 0
  0.937500   0.578125 0
  0.703125   0.640625 0
  0.656250   0.984375 0
  0.703125   0.625000 0
  0.703125   0.593750 0
  0.718750   0.796875 0
  0.953125   0.734375 0
  0.812500   1.000000 0
  0.859375   0.656250 0
  0.703125   0.781250 0
  0.937500   0.718750 0
  0.953125   0.703125 0
  0.796875   0.984375 0
  0.843750   0.640625 0
  0.812500   0.968750 0
  0.859375   0.625000 0
  0.796875   0.953125 0
  0.843750   0.609375 0
  0.687500   0.953125 0
  0.687500   0.921875 0
  0.687500   0.890625 0
  0.921875   0.734375 0
  0.687500   0.796875 0
  0.687500   0.781250 0
  0.921875   0.703125 0
  0.687500   0.765625 0
  0.687500   0.750000 0
  0.921875   0.656250 0
  0.687500   0.718750 0
  0.921875   0.625000 0
  0.687500   0.687500 0
  0.921875   0.593750 0
  0.687500   0.656250 0
  0.640625   1.000000 0
  0.921875   0.562500 0
  0.687500   0.625000 0
  0.640625   0.968750 0
  0.687500   0.609375 0
  0.687500   0.578125 0
  0.937500   0.687500 0
  0.921875   0.671875 0
  0.671875   0.921875 0
  0.906250   0.656250 0
  0.671875   0.906250 0
  0.671875   0.875000 0
  0.906250   0.718750 0
  0.671875   0.781250 0
  0.671875   0.765625 0
  0.671875   0.734375 0
  0.906250   0.640625 0
  0.671875   0.703125 0
  0.906250   0.609375 0
  0.671875   0.671875 0
  0.906250   0.578125 0
  0.671875   0.640625 0
  0.625000   0.984375 0
  0.671875   0.609375 0
  0.625000   0.953125 0
  0.671875   0.593750 0
  0.671875   0.562500 0
  0.765625   0.953125 0
  0.812500   0.609375 0
  0.656250   1.000000 0
  0.656250   0.953125 0
  0.656250   0.906250 0
  0.890625   0.640625 0
  0.656250   0.890625 0
  0.656250   0.859375 0
  0.890625   0.734375 0
  0.656250   0.796875 0
  0.812500   0.921875 0
  0.562500   1.000000 0
  0.625000   0.828125 0
  0.812500   0.843750 0
  0.843750   0.593750 0
  0.812500   0.812500 0
  0.625000   0.718750 0
  0.828125   0.687500 0
  0.640625   0.593750 0
  0.812500   0.781250 0
  0.625000   0.687500 0
  0.765625   0.828125 0
  0.640625   0.562500 0
  0.812500   0.750000 0
  0.562500   0.828125 0
  0.781250   0.875000 0
  0.546875   0.937500 0
  0.781250   0.671875 0
  0.781250   0.593750 0
  0.546875   0.656250 0
  0.796875   0.750000 0
  0.562500   0.812500 0
  0.796875   0.546875 0
  0.765625   0.796875 0
  0.765625   0.593750 0
  1.000000   0.531250 0
  0.812500   0.718750 0
  0.859375   0.562500 0
  0.625000   0.625000 0
  0.812500   0.703125 0
  0.812500   0.906250 0
  0.578125   0.968750 0
  0.984375   0.593750 0
  0.828125   0.578125 0
  0.828125   0.781250 0
  0.593750   0.843750 0
  0.812500   0.671875 0
  0.625000   0.578125 0
  0.796875   0.671875 0
  0.562500   0.734375 0
  0.984375   0.562500 0
  0.828125   0.546875 0
  0.812500   0.640625 0
  0.750000   0.812500 0
  0.625000   0.546875 0
  0.796875   0.640625 0
  0.562500   0.703125 0
  0.828125   0.515625 0
  0.781250   0.734375 0
  0.546875   0.796875 0
  0.781250   0.531250 0
  0.750000   0.781250 0
  0.625000   0.515625 0
  0.796875   0.609375 0
  0.562500   0.671875 0
  0.765625   0.656250 0
  0.765625   0.859375 0
  0.531250   0.921875 0
  0.812500   0.578125 0
  0.562500   0.656250 0
  0.984375   0.687500 0
  0.750000   0.750000 0
  0.812500   0.562500 0
  0.812500   0.765625 0
  0.578125   0.828125 0
  0.562500   0.625000 0
  0.984375   0.656250 0
  0.750000   0.718750 0
  0.812500   0.531250 0
  0.781250   0.656250 0
  0.546875   0.718750 0
  0.781250   0.625000 0
  0.546875   0.687500 0
  0.750000   0.640625 0
  0.796875   0.531250 0
  0.562500   0.593750 0
  0.984375   0.625000 0
  0.750000   0.687500 0
  0.546875   0.984375 0
  0.609375   0.812500 0
  0.796875   0.875000 0
  0.546875   0.953125 0
  0.609375   0.578125 0
  0.843750   0.515625 0
  0.765625   0.515625 0
  0.765625   0.718750 0
  0.531250   0.781250 0
  0.984375   0.546875 0
  0.750000   0.609375 0
  0.796875   0.828125 0
  0.671875   0.968750 0
  0.796875   0.796875 0
  0.796875   0.765625 0
  0.609375   0.671875 0
  0.796875   0.734375 0
  0.546875   0.812500 0
  0.796875   0.703125 0
  0.843750   0.546875 0
  0.609375   0.609375 0
  0.796875   0.687500 0
  0.562500   0.953125 0
  0.796875   0.656250 0
  0.609375   0.562500 0
  0.796875   0.625000 0
  0.609375   0.531250 0
  0.546875   0.640625 0
  0.765625   0.671875 0
  0.531250   0.734375 0
  0.796875   0.515625 0
  0.765625   0.640625 0
  0.531250   0.703125 0
  0.703125   1.000000 0
  0.765625   0.609375 0
  0.531250   0.671875 0
  0.765625   0.578125 0
  0.531250   0.640625 0
  0.546875   0.609375 0
  0.531250   1.000000 0
  0.890625   0.593750 0
  0.656250   0.656250 0
  0.781250   0.515625 0
  0.546875   0.578125 0
  0.531250   0.968750 0
  0.890625   0.562500 0
  0.656250   0.625000 0
  0.609375   0.968750 0
  0.781250   0.859375 0
  0.656250   0.593750 0
  0.750000   0.703125 0
  0.515625   0.765625 0
  0.781250   0.812500 0
  0.781250   0.781250 0
  0.593750   0.687500 0
  0.781250   0.750000 0
  0.593750   0.656250 0
  0.781250   0.718750 0
  0.531250   0.796875 0
  0.828125   0.562500 0
  0.593750   0.625000 0
  0.781250   0.687500 0
  0.828125   0.531250 0
  0.593750   0.593750 0
  0.812500   0.625000 0
  0.578125   0.687500 0
  0.781250   0.640625 0
  0.781250   0.609375 0
  0.593750   0.515625 0
  0.515625   0.781250 0
  0.812500   0.546875 0
  0.578125   0.609375 0
  0.812500   0.515625 0
  0.578125   0.578125 0
  0.750000   0.656250 0
  0.515625   0.718750 0
  0.750000   0.625000 0
  0.515625   0.687500 0
  0.687500   0.984375 0
  0.750000   0.593750 0
  0.515625   0.656250 0
  0.531250   0.546875 0
  0.750000   0.562500 0
  0.515625   0.625000 0
  0.531250   0.515625 0
  0.984375   0.515625 0
  0.750000   0.578125 0
  0.515625   0.531250 0
  0.828125   0.796875 0
  0.640625   0.703125 0
  0.828125   0.765625 0
[...]
CELL_DATA 7648
SCALARS scalar_value float 1
LOOKUP_TABLE default
8.77596e-09
5.8853e-09
2.20363e-05
1.94278e-05
1.50144e-05
2.47778e-05
0.154105
0.142105
0.137048
0.135168
0.0604073
0.0471766
0.0342646
0.0468744
0.0280488
0.0276959
0.0222281
0.0366972
2.65909e-05
1.44272e-05
2.42599e-05
2.26381e-05
1.5437e-05
1.28464e-05
3.48998e-07
2.53282e-07
1.63677e-07
2.65838e-07
7.553e-08
5.41337e-08
3.6053e-08
5.64199e-08
0.00333514
0.00288915
0.00274442
0.00217153
0.0156514
0.0148062
6.38881e-09
4.4457e-09
0.0154953
0.0134797
6.51431e-08
5.18855e-08
0.00143774
0.00178685
0.00213598
0.00158154
0.0029441
0.00308948
0.00364417
0.00255406
0.00148902
0.00151911
0.00179053
0.00125208
7.93109e-05
8.59012e-05
4.82033e-05
7.35028e-05
5.08653e-05
4.23097e-05
0.0134841
0.0110349
0.0100047
0.00809478
0.00708255
0.00485732
0.00432948
0.00421021
0.00337408
0.00333545
0.00301832
4.11024e-05
4.3537e-07
0.000291197
0.000258753
0.000207382
0.00031095
0.000152104
0.000189837
0.000169781
0.000236232
0.000217439
0.000204149
0.000164432
0.000254864
2.42913e-08
1.53822e-08
1.4195e-08
0.0278346
0.0271633
0.0286533
0.0260912
0.0272521
0.0255559
0.0238277
0.0248288
0.0265035
0.0276017
0.0244358
0.0235436
0.0219393
0.020513
1.22865e-05
0.000314196
0.00051115
0.000502248
5.31503e-07
4.16445e-07
3.09917e-07
3.93891e-07
0.000914211
0.000759891
0.000706237
0.000561357
0.000349568
0.000281786
0.000245779
0.0811761
0.0706731
0.0679004
0.0645478
0.0550094
0.0529333
0.0587674
0.044959
1.56305e-06
1.21032e-06
8.59207e-07
1.17935e-06
2.18995e-05
1.7228e-05
1.34223e-05
1.60031e-05
0.157054
0.152986
0.160316
0.141016
0.0222281
2.79268e-07
2.12922e-07
0.00366835
0.00286549
0.00293044
0.00214726
0.00125537
0.00172943
6.35715e-05
4.42994e-05
3.86201e-05
5.62067e-06
4.05071e-06
2.92816e-06
3.42945e-06
7.74536e-06
6.13275e-06
4.42158e-06
7.08896e-06
0.0285423
0.0221917
0.021959
0.0196082
0.0153471
0.0223002
2.13391e-06
0.0210465
0.0181725
0.0146064
0.0187624
1.31311e-09
1.01981e-09
6.88444e-10
1.51538e-09
0.000442605
0.00036611
0.0536338
0.0472233
0.0414021
0.0439824
0.0360841
0.0341292
0.0297251
0.0386449
1.69683e-06
1.17348e-06
1.25213e-06
8.37987e-07
4.06526e-07
2.74112e-07
2.87781e-07
1.03837e-07
3.78947e-08
0.0356151
0.0314787
0.027928
0.0293413
1.55451e-08
1.05716e-08
6.5943e-09
9.62877e-09
0.120398
0.112188
0.114365
0.103776
0.00181255
0.00153148
0.105339
0.0975744
0.0884106
0.0954603
0.105327
0.0958472
0.0944788
0.0881395
0.0871591
0.0789476
0.0805647
0.0710617
0.00106489
0.00117915
0.00142733
0.00100903
0.00214161
0.00324181
0.0021083
0.00808281
0.00597128
0.00468244
0.00620474
0.160892
0.154304
0.160523
0.144108
4.69137e-05
3.6497e-05
2.85776e-05
3.17934e-05
0.123469
0.119244
0.126568
0.108729
1.69306e-05
1.29424e-05
9.74631e-06
1.15639e-05
7.9214e-08
6.418e-08
1.17947e-07
7.4776e-08
5.67254e-08
3.9318e-08
3.58342e-08
1.99106e-08
1.2553e-08
2.30043e-08
1.25524e-08
1.12696e-08
8.93233e-09
5.35465e-05
4.29682e-05
3.47504e-05
3.92396e-05
6.21927e-05
5.06352e-05
5.88421e-05
3.98039e-05
3.21094e-05
2.54436e-05
2.76063e-05
2.05582e-05
0.000989017
0.00135065
0.000904032
0.000328574
0.000265134
0.000216133
0.000235567
1.90731e-05
1.30337e-05
1.13615e-05
1.07983e-06
7.55771e-07
9.71083e-07
3.73036e-07
1.80343e-07
2.4976e-07
7.05111e-07
3.63744e-07
5.7604e-07
9.05093e-09
6.44856e-09
4.26692e-09
6.93356e-09
6.50054e-05
4.73212e-05
0.0436974
0.0587801
0.00269129
0.00038538
0.00498722
9.79944e-05
0.000306172
0.144849
0.132413
0.00259159
0.137855
0.139938
0.118435
0.002295
0.121863
0.00789775
0.00219089
0.0127355
0.00265359
0.00236804
0.00310809
8.01201e-09
6.82206e-09
3.98703e-08
1.17085e-05
9.37449e-06
9.0359e-05
9.18976e-05
3.29726e-05
2.60906e-07
0.000313233
0.000567004
0.000463861
0.000703719
0.0373501
0.031059
0.000726645
0.133704
0.110509
0.11246
0.111683
0.0648355
0.127905
1.2152e-07
5.80927e-08
4.88324e-07
8.0195e-07
2.46903e-07
4.05301e-07
0.00332419
0.00416443
1.75844e-07
0.00431566
0.0277938
0.00281155
0.114685
6.19704e-06
0.0846312
8.47878e-07
2.71727e-07
2.93872e-07
3.82001e-07
7.73887e-08
0.000274675
5.78005e-05
6.43391e-05
4.38232e-05
0.000132365
1.00348e-07
2.30719e-05
0.000155965
0.000123395
9.47444e-05
0.000125295
1.10346e-08
4.4098e-08
3.58231e-08
2.30249e-09
0.00387641
0.0487506
2.3172e-05
0.000271154
0.000275113
9.59718e-05
0.000160379
1.68617e-06
0.000331246
2.38229e-10
1.023e-10
2.01406e-10
1.9091e-05
1.77154e-05
2.42894e-05
4.91606e-05
2.60226e-05
3.41808e-05
1.13021e-05
2.24679e-05
1.35406e-05
7.12141e-05
3.94072e-05
6.14847e-05
3.69476e-06
2.40675e-06
0.0911687
5.44558e-06
0.0842695
4.11283e-06
4.7827e-05
0.0743429
0.0491339
2.95219e-06
0.0875528
0.0455394
3.80925e-06
2.68895e-06
7.93294e-08
1.61909e-07
3.57394e-08
5.39485e-08
7.45838e-05
1.23193e-07
2.56544e-07
0.000580805
0.104751
1.87798e-07
4.8715e-07
0.000595666
0.00018613
0.00801023
0.00284721
0.0304929
0.00141587
0.000791282
3.72552e-06
8.09804e-06
0.0788697
0.0366096
2.04888e-06
2.002e-06
2.13256e-05
2.63553e-06
1.1921e-06
4.78427e-07
0.0261635
2.70932e-07
2.11035e-06
0.000127469
9.09392e-05
6.71253e-06
2.07676e-06
2.75966e-06
6.26587e-09
3.99205e-09
2.5868e-09
0.00106922
0.000624727
0.00106267
0.00032483
1.67965e-10
4.47728e-10
3.76708e-05
0.10151
0.116546
0.00115917
0.0016681
1.06319e-05
0.000100881
1.57081e-05
0.000413096
3.49517e-05
2.68181e-05
0.000194664
2.00275e-05
2.4565e-05
4.57176e-05
3.21004e-05
4.15102e-05
0.00036132
0.13065
0.121787
0.00184119
3.23281e-08
3.9258e-06
3.34467e-09
9.04108e-08
0.000139132
0.00498468
0.00564143
0.00720729
0.00498732
0.00154147
0.0135908
7.64303e-05
0.000136547
3.70163e-06
4.41859e-06
2.2744e-06
1.40569e-05
0.000197618
9.14152e-06
1.28997e-05
1.03192e-05
1.9043e-05
1.8463e-05
0.0100731
5.7102e-09
0.0111351
3.76887e-05
3.03819e-05
0.118286
0.00197248
0.00195154
0.000401739
0.000214881
3.08855e-05
3.00992e-06
2.11295e-05
1.67092e-07
1.23255e-07
3.13067e-07
3.2783e-07
1.80368e-06
2.4159e-06
3.02995e-06
1.10451e-06
3.91329e-08
4.05123e-07
2.29997e-06
6.72962e-07
0.0120928
0.00984907
0.000117422
0.00151678
2.8314e-05
6.08781e-08
1.7816e-05
0.000702432
0.000330465
1.84646e-06
0.00876099
6.95154e-07
3.75888e-05
6.63982e-06
6.55692e-07
5.08099e-06
5.24574e-07
3.38051e-06
9.99563e-06
6.9353e-06
0.00658447
0.0672167
2.60842e-06
0.0740584
0.0674043
0.000376305
0.000172676
3.78235e-05
8.70527e-05
0.126477
1.51249e-05
0.0221886
3.8817e-06
7.06723e-06
0.000908451
0.00159473
3.94817e-06
0.00149874
0.000216197
0.000203735
0.000170283
0.000267332
0.00165495
0.000121175
0.000387314
5.27254e-05
0.00022346
0.00441833
0.00373064
0.000579863
0.00287542
0.000472476
0.00395689
0.000537192
0.0397429
0.00305465
0.00259177
5.64214e-08
0.0002177
0.000182066
0.000161665
0.00268991
0.000156866
0.00331503
0.0100142
0.00579087
0.000133786
0.00209407
0.0290933
0.0001002
0.00027473
0.00429504
0.000244662
0.000198845
0.00022013
0.000271548
0.0052115
0.000335176
9.51878e-05
0.0393898
0.0422938
0.0038585
1.36597e-06
0.00251919
1.93758e-05
1.61908e-06
2.94411e-05
6.22372e-06
0.000267413
1.651e-05
1.17655e-05
0.0297283
0.000225074
0.0802177
8.11043e-05
0.000256152
4.60659e-08
8.57665e-05
7.11412e-05
0.0721112
0.0298798
0.00164081
0.00057713
0.00097392
0.00102897
0.0178338
0.00295
6.56521e-06
0.00068125
0.000182094
0.121394
7.6225e-05
2.69722e-08
1.2181e-08
2.13196e-08
6.84585e-05
0.0285419
7.08459e-08
5.68623e-07
3.08247e-07
3.63931e-07
2.05543e-07
9.36739e-09
8.68966e-07
6.45582e-07
0.0019014
0.00105213
0.00012228
0.0854134
0.000814324
0.00307918
4.05309e-07
0.000518344
2.80237e-08
0.00667246
0.0105263
0.00838047
2.19989e-05
0.0823315
0.0238886
2.52291e-06
0.00341313
1.71469e-07
8.30766e-08
4.70844e-08
0.0038842
0.000176887
0.00435488
0.000135931
0.0262267
1.58807e-06
0.0493107
0.00130731
1.60949e-06
0.00561624
9.02079e-06
2.89144e-05
0.000191562
5.0099e-06
1.29542e-05
0.00790883
4.44239e-06
6.19352e-06
0.0261527
9.7842e-06
1.37374e-05
7.33303e-06
1.41531e-05
1.26303e-08
1.24253e-08
3.95758e-08
1.8058e-08
0.000455022
4.26454e-08
0.002079
0.000443811
8.53624e-08
5.65364e-06
0.0013347
5.34616e-07
0.000716556
3.7609e-09
8.44867e-05
2.54803e-06
0.00561762
4.6382e-06
2.33914e-05
2.70396e-06
0.00640283
4.69591e-06
1.68956e-08
0.00264544
0.000174286
0.00075533
1.50121e-06
0.00102837
0.049392
1.87904e-05
0.000440443
0.0141621
0.00285868
0.000125622
0.000304422
0.00354388
1.75381e-06
5.82339e-08
2.89328e-09
0.00157905
0.00191886
8.03604e-05
5.166e-09
0.0021102
0.00264056
0.00236413
0.00282985
0.00365055
8.18977e-09
2.54317e-06
0.00568124
1.6434e-09
1.05037e-09
5.12283e-05
0.000400623
3.60967e-09
0.00863828
0.000163353
9.97482e-06
0.000107626
0.000225463
0.000242006
0.0210006
8.01692e-06
2.90773e-06
1.71327e-07
3.46891e-05
0.00859951
0.000594354
2.76922e-08
0.00431117
2.01903e-09
1.3102e-05
4.05152e-06
4.8224e-05
4.55865e-06
0.00031152
0.0179405
1.12571e-06
0.0156149
3.711e-05
0.0677448
0.0350814
1.51488e-06
0.000453965
0.0816219
0.033882
1.94499e-06
0.0160438
9.57679e-05
0.000657641
2.05121e-07
7.54474e-05
1.49514e-07
8.41994e-09
0.000139856
0.000630303
1.12905e-09
0.000765272
0.000130331
5.87531e-05
9.56384e-08
5.66131e-09
0.000263019
0.000280752
0.12857
1.64787e-09
7.73165e-06
0.000215928
0.142375
0
1.26454e-05
0.00246807
0.000414273
0.000485486
0.00344663
8.01058e-08
0.00930937
0.000588903
0.000519007
3.73222e-05
0.102697
3.86105e-06
1.52839e-06
0.0232745
7.29036e-07
0.10325
4.67854e-06
0.000306843
8.378e-05
4.9031e-10
0.00802266
0.000130865
3.08377e-08
0.00154426
6.30318e-05
3.43605e-05
0.00177471
0.0181215
0.000157924
4.01584e-05
0.114142
0.0212204
0.000788953
0.000134436
0.00364185
0.000486629
8.53907e-09
0.00337268
0.000377609
9.4766e-05
4.60518e-08
4.69434e-06
4.72586e-07
6.53895e-08
0.000787329
8.73957e-08
1.57818e-07
0.00212186
0.00533096
4.64036e-08
3.8108e-05
0.000150337
0.000390543
1.91082e-05
6.80766e-05
4.83345e-05
0.000122275
2.13851e-05
7.44118e-07
0.000235175
0.000175427
0.096461
0.000524474
0.000139088
9.2389e-05
0.000261865
6.8113e-05
0.00404627
0.000358122
6.36006e-05
0.0184084
0.00256633
1.01386e-05
0.137519
0.0624993
6.53815e-05
0.00108868
0.000258114
0.000560341
0.00273014
0.00146043
2.12422e-06
6.90071e-05
0.0156001
0.000237121
0.0560441
0.00223091
0.000137924
0.00029883
8.51901e-08
5.41668e-07
6.17167e-10
4.88183e-05
0.0002387
0.000115707
0.000189832
0.000243941
1.13888e-10
5.5984e-08
4.77498e-09
9.01718e-05
0.000343731
2.71421e-08
0.0188127
0.00113171
0.0160844
0.020601
0.020583
1.19734e-09
0.00454615
2.06729e-05
4.84014e-06
0.00219232
0.00112711
0.0315038
0.0167934
0.00346963
1.52923e-07
0.00950052
7.25146e-08
6.86148e-08
0.0121187
0.0136108
9.45578e-08
4.76402e-09
2.79064e-08
5.6178e-07
9.74208e-08
9.79796e-08
4.98565e-07
4.0162e-05
3.30012e-08
0.00233556
0.000930301
0.000469049
0.000341408
0.000854272
2.38842e-09
2.02209e-08
0.00155815
9.00575e-05
1.35955e-06
7.53925e-05
4.69662e-08
3.71162e-07
1.73997e-06
5.81377e-09
2.95248e-07
0.00124021
0.000353278
1.88558e-06
2.2469e-09
0.000141281
0.00158125
1.05958e-06
4.67826e-07
0.0131731
0.000414365
0.000415824
3.41018e-05
3.44352e-08
0.00202075
0.00130713
5.01987e-08
0.00401106
0.0244693
0.000752857
0.000321067
6.52328e-08
0.0101357
0.00333816
1.22511e-08
0.00366206
0.00475707
4.88909e-05
2.44283e-08
1.27853e-07
0.00168263
0.0721018
2.81664e-07
0.00141152
8.06224e-09
0.00275616
0.00180152
2.61084e-06
0.000150954
1.27768e-05
0.053116
0.0891135
0.00164701
0.000867836
0.00470117
6.01195e-08
7.65427e-06
6.08674e-07
4.42351e-09
8.00032e-05
0.013397
0.0121818
1.92094e-08
0.00338607
9.83485e-07
0.00676103
0.00520814
0.00644789
5.32102e-07
0.000571186
0.00793966
0
0.0042098
3.34348e-08
0.00399919
0.00070214
0.00690466
0.00577844
4.15533e-08
0.136596
1.50593e-08
0.000124141
9.78443e-06
0.000228502
0.00113022
0.00239564
0.00118321
1.17121e-06
7.76711e-07
4.30513e-05
0.000100432
5.4091e-08
7.10099e-10
1.98381e-08
0.00127849
1.08959e-07
0.000793347
2.61912e-09
0.00150046
1.55692e-05
1.55588e-09
9.49044e-09
0.00106537
0.00125523
0.00154344
1.01426e-05
1.29255e-07
2.66039e-07
0.00427975
0.00427246
0.00528785
0.0028294
0.000559703
0.0602052
0.00111046
0.099878
0.0697689
0.000601811
0.00096001
0.00576549
1.17078e-06
2.36552e-06
1.12006e-07
0.00530807
3.52305e-07
9.19844e-06
8.36948e-08
0.000200865
0.0153088
0.0171826
0.00444524
0.0121444
8.65614e-09
0.000177199
2.3446e-05
8.91565e-07
6.63659e-07
8.91457e-07
7.84109e-07
5.28941e-06
0.000644939
0.00501847
3.55095e-06
3.10991e-06
2.36629e-06
0.000139194
0.00191612
6.50575e-09
0.000118116
0.00156332
0.000116772
0.00125281
0.0151437
0.0160814
1.19226e-07
0.0221878
7.44001e-08
4.37332e-07
0.00575901
6.94727e-08
4.71946e-06
0.00448885
2.98907e-06
4.44712e-06
5.87057e-06
3.50423e-06
2.23967e-06
1.49148e-06
1.73407e-06
3.49651e-06
0.00961056
1.43483e-06
0.0121283
1.87499e-06
6.9514e-06
0.00225023
1.52837e-05
0.000152848
0.0507048
0.00011072
0.0719457
6.69728e-05
0.000112605
0.0038282
0.00255857
1.80669e-07
8.4736e-08
6.5313e-09
1.15264e-07
0.000210318
9.44352e-05
1.06911e-10
1.57364e-10
0.0147653
0.0179899
5.18682e-05
0.0215545
1.16416e-06
0.00665595
0.00803037
0.00998238
4.38665e-07
3.44661e-06
2.25562e-07
2.38736e-07
1.26198e-07
8.45248e-07
1.33786e-07
1.75501e-07
0.000896904
2.21546e-07
2.89537e-06
0.00119743
0.0136216
1.07162e-06
0.00123999
0.00849432
0.00102924
0.00668417
0.000454972
5.21433e-08
6.51045e-08
1.90017e-10
0.000380541
2.65231e-10
2.84178e-10
4.69663e-10
0.000571281
0.000154663
0.000219061
1.39234e-10
0
0.000144023
0
0
0.000199027
0
0.00011276
0
0.000122139
0
0.0425088
0.0063573
0.0193353
3.03041e-07
0.0302595
3.74336e-07
0.0307965
0.00244746
0.0406865
8.46043e-05
0.00388094
1.25637e-05
0.00255198
7.12229e-06
0.00411142
1.1127e-06
5.9122e-07
7.21468e-07
1.20404e-06
1.11369e-06
8.33166e-07
6.09603e-07
6.46184e-07
1.93164e-06
1.26239e-07
5.72341e-07
0.00128005
6.54895e-07
2.51174e-07
2.13297e-07
1.652e-05
2.4785e-05
0.000698431
1.0723e-07
0.0264682
0.0110575
3.39717e-06
0.055434
2.23518e-06
0.00105625
0.00610675
0.149081
0.000648401
0.00637849
1.7731e-06
0.00172868
0.00689531
3.66109e-07
8.50589e-07
0.000456914
0.000129305
3.91753e-05
0.000329115
5.40593e-05
3.23272e-05
0.000171868
0.0113616
7.06354e-06
0.00359115
0.000241119
0.0023193
1.32136e-09
2.75314e-09
0.000332131
0.000238222
0.00393843
5.32193e-05
1.10549e-06
0.00108492
6.48552e-05
0.00088166
0.000880885
0.000677481
0.000499321
0.0019671
0.00261881
0.00981434
5.8302e-06
0.000434404
7.49846e-05
1.85079e-09
3.18307e-07
0.00016847
1.04619e-05
0.000549958
0.00093509
0.0166495
0.000327884
1.12189e-06
0.0712722
0.00645534
1.83852e-09
1.77432e-05
1.79187e-09
1.27887e-07
7.84421e-05
2.7735e-09
4.97165e-10
8.58462e-10
1.06833e-09
2.56267e-05
0.00888249
0.00622853
5.6493e-05
0.0119634
0.0144222
0.0140658
0.0163143
0.0550838
0.001864
1.40776e-08
1.273e-08
5.8119e-07
6.42468e-07
6.77986e-08
1.33275e-07
2.55353e-08
7.30409e-08
2.2959e-08
1.11452e-07
3.57454e-08
1.48996e-07
0.000945491
4.3231e-07
2.44921e-07
3.80598e-07
5.10661e-07
3.39242e-08
4.25809e-08
7.38817e-08
2.67882e-06
0.000914785
0.000890471
0.000933586
0.00144406
0.000561403
0.000453956
2.02525e-05
0.0447775
0.0561593
0.000149695
0.0980657
0.0939928
4.98048e-05
0.0795238
0.00129703
0.000869987
0.000796478
0.0025786
0.000473175
0.0343739
0.00130959
0.0253674
0.0211828
0.0272981
0.0348377
5.07126e-06
3.86135e-06
6.77545e-06
8.2485e-06
0.00307527
0.0161947
0.0178772
9.56312e-06
0.00914709
0.00711304
0.00620653
0.00113953
5.21366e-06
1.23197e-05
2.6163e-08
1.24099e-08
1.44499e-08
6.87003e-06
4.0314e-06
6.00105e-06
7.6961e-06
0.0137375
0.012404
0.0185621
0.0205449
0.020203
0.023809
0.0310161
1.04955e-05
2.09406e-07
2.81193e-07
2.34848e-07
0.000652055
0.00558211
0.0608934
0.000741966
5.53279e-08
5.7825e-08
6.94851e-10
3.89654e-10
6.50422e-10
9.47573e-10
0.0201798
0.0185351
0.0184779
0.000141103
3.71738e-06
2.35636e-06
8.71621e-06
2.73022e-06
2.01999e-06
0.00011807
0.000195859
0.000103698
8.74245e-05
0.00126333
0.00163391
0.00148483
0.00712425
0.00174789
0.00926339
0.0023736
0.000643887
6.18661e-05
3.50245e-05
3.96436e-05
3.24724e-05
8.12359e-06
0.00730105
0.0112514
0.0140882
0.0181395
7.07136e-09
4.6339e-09
2.99822e-09
0.0257109
4.86303e-06
0.0030803
0.00074899
0.00408654
0.00472607
0.00942437
0.000215759
0.000624005
0.000830733
0.00089557
2.2423e-05
0.000463254
0.0379681
0.0358284
0.000937487
0.000108853
0.00121741
0.000135057
0.001464
0.010163
0.0104926
0.0112537
0.0139485
0.000296452
1.42139e-05
2.63581e-05
8.23366e-06
1.28884e-05
0.00634684
0.00432277
3.70006e-05
0.0111471
2.85066e-05
1.51461e-05
1.93701e-05
0.00522812
0.0010509
0.000288528
0.00122524
1.35399e-06
1.50384e-08
2.47636e-08
1.94604e-08
4.18627e-06
6.92875e-06
8.65685e-06
8.19704e-07
9.23811e-06
1.34516e-05
0.000575686
0.0324043
0.000644126
0.0371998
0.0334025
2.64213e-05
7.46235e-05
3.60418e-05
7.45866e-06
0.0440859
0.0475591
0.00473899
0.0410285
0.000358282
0.00028634
0.00029381
2.09185e-05
1.77783e-05
0.00996005
0.000429156
0.000405416
4.19837e-05
7.14459e-05
0.00331982
2.2172e-06
1.42454e-07
0.000706579
2.63623e-10
1.40382e-10
2.17404e-10
3.04163e-10
0.000691899
9.84783e-09
1.1167e-08
1.61514e-08
0.000770665
0.0319753
0.029203
0.0321342
0.000359617
0.000437732
1.20703e-09
5.78927e-10
9.93134e-10
1.39622e-09
0.00936615
0.0332889
0.000135997
0.0258061
0.0452726
1.24395e-07
1.82769e-07
3.97865e-08
6.53807e-08
6.87017e-08
2.45998e-09
3.2513e-09
3.22699e-09
4.94179e-09
2.05582e-05
1.80747e-05
2.38737e-05
0.000396319
0.00042796
0.0331484
0.0721523
0.000515261
0.0612712
1.16907e-10
0.00191796
0.00254856
0.000225788
1.5876e-05
0.00179853
0.0179165
0.0258554
0.0226651
0.00872665
0.000260122
1.26608e-05
0.000396273
6.16916e-08
6.46024e-06
4.93253e-06
3.41402e-06
4.47866e-05
4.16245e-05
0.0239906
8.23208e-06
1.06365e-05
0.00804981
0.00750046
0.00596786
3.01297e-06
3.44496e-06
1.54419e-07
1.86014e-07
3.34013e-05
2.08526e-10
5.09584e-05
0.000744757
1.51474e-10
2.6626e-10
3.06819e-10
0.000387621
0.000493546
1.7595e-07
2.76499e-08
2.67223e-08
3.99044e-08
0.0325755
0.0375552
2.74541e-07
3.40409e-07
5.30138e-07
0.00079493
6.9811e-07
9.09325e-07
2.45723e-06
2.08046e-06
1.89137e-06
1.33242e-06
0.035522
0.0326091
1.14635e-05
5.67602e-06
7.98114e-06
8.30648e-06
2.88263e-07
3.83566e-07
2.88205e-07
0.00117549
2.77385e-06
0.000952721
0.000681335
0.00067465
0.0429006
0.00593213
0.0054213
0.00670188
0.00877418
0.00139896
0.00382147
2.40099e-05
0.000777779
0.0502255
2.63499e-06
3.59264e-06
0.0924462
0.129621
7.72597e-06
0.0040407
1.37992e-05
1.18789e-05
2.46326e-05
0.000696488
0.00115074
0.000112492
0.000211406
0.0309198
4.73309e-05
4.58465e-05
5.91797e-05
7.4681e-05
1.54015e-06
0.000877775
0.00096614
0.00105723
0.000378954
3.44808e-08
1.90114e-07
1.23392e-07
3.2356e-08
4.67809e-08
2.05039e-06
0.000764731
0.000809961
1.36889e-06
2.24196e-09
2.04319e-09
3.07633e-09
4.80747e-09
6.94635e-05
0.00216323
0.00258862
0.00331679
0
1.0722e-10
1.89536e-10
3.21726e-09
7.1052e-09
0.0278297
8.71461e-05
0.000110246
1.88156e-08
0.000154186
3.51733e-05
6.9356e-05
0.000452296
0.00030661
4.11978e-06
1.46732e-06
1.37877e-06
9.45149e-07
1.9003e-07
8.74551e-08
1.3629e-08
1.17661e-07
5.87171e-08
0.00726991
0.00836742
4.04926e-05
1.93645e-08
1.69894e-08
0.0122718
0.0198157
6.85804e-06
0.00215798
0.00340194
0.00247965
0.00237137
2.69914e-05
8.39435e-10
3.43114e-10
4.95992e-10
4.09079e-10
0.00104959
1.99601e-07
7.0245e-05
0.0362895
0.0398899
0.0412456
0.00190155
0.00120193
0.00112948
0.0487924
0.0599878
0.0599565
6.21899e-07
4.87718e-07
8.5506e-07
0.0440982
0.0371265
0.0448686
0.0511496
7.67001e-05
1.10357e-05
1.0646e-05
1.10141e-06
1.42774e-05
1.99554e-05
8.47388e-07
1.15823e-06
1.50025e-06
0.0525853
8.48173e-07
1.01538e-06
0.00166466
1.5957e-05
2.82148e-05
5.53805e-09
2.42849e-09
3.21584e-09
4.04617e-07
0.0195314
1.46206e-07
1.35093e-07
8.94369e-08
0.000543521
0.0160332
0.0130245
0.0125304
1.28059e-06
2.48126e-06
1.81207e-07
8.78499e-08
1.22073e-07
0.00484345
0.00629185
0.00844961
6.87308e-08
8.34284e-08
1.3278e-07
0.000415049
3.31233e-05
6.17646e-05
0.0113945
0.0154505
0.000316074
0.000663738
0.0200614
0.0250571
0.0202764
0.0281019
0.000467938
0.0322814
0.0392519
0.0385442
0.00334869
5.58795e-06
0.00437351
1.97088e-05
5.2517e-05
2.75015e-05
3.54378e-05