# vtk DataFile Version 2.0
Unstructured Grid by M++
ASCII
DATASET UNSTRUCTURED_GRID
POINTS 4072 float
  0.828125   0.890625 0
  0.875000   0.531250 0
  0.828125   0.750000 0
  0.593750   0.968750 0
  0.828125   0.671875 0
  0.828125   0.875000 0
  0.593750   0.937500 0
  0.828125   0.656250 0
  0.828125   0.640625 0
  0.828125   0.843750 0
  0.593750   0.906250 0
  0.828125   0.625000 0
  0.781250   0.968750 0
  0.828125   0.609375 0
  0.828125   0.812500 0
  0.593750   0.875000 0
  0.593750   0.828125 0
  0.593750   0.796875 0
  0.828125   0.703125 0
  0.593750   0.765625 0
  0.828125   0.937500 0
  0.812500   0.875000 0
  0.859375   0.515625 0
  0.812500   0.734375 0
  0.812500   0.937500 0
  0.578125   1.000000 0
  0.578125   0.750000 0
  0.812500   0.687500 0
  0.578125   0.953125 0
  0.812500   0.656250 0
  0.812500   0.859375 0
  0.578125   0.921875 0
  0.812500   0.828125 0
  0.578125   0.890625 0
  0.812500   0.593750 0
  0.812500   0.796875 0
  0.578125   0.859375 0
  0.578125   0.812500 0
  0.578125   0.781250 0
  0.796875   1.000000 0
  0.796875   0.859375 0
  0.796875   0.718750 0
  0.562500   0.984375 0
  0.562500   0.937500 0
  0.796875   0.843750 0
  0.562500   0.906250 0
  0.796875   0.812500 0
  0.562500   0.875000 0
  0.796875   0.578125 0
  0.796875   0.781250 0
  0.562500   0.843750 0
  0.812500   0.984375 0
  0.562500   0.796875 0
  0.812500   0.953125 0
  0.562500   0.765625 0
  0.796875   0.937500 0
  0.546875   0.750000 0
  0.781250   0.984375 0
  0.828125   0.593750 0
  0.781250   0.843750 0
  0.781250   0.937500 0
  0.546875   1.000000 0
  0.781250   0.703125 0
  0.546875   0.968750 0
  0.546875   0.921875 0
  0.781250   0.828125 0
  0.546875   0.890625 0
  0.781250   0.796875 0
  0.546875   0.859375 0
  0.781250   0.562500 0
  0.781250   0.765625 0
  0.546875   0.828125 0
  0.796875   0.968750 0
  0.546875   0.781250 0
  0.765625   1.000000 0
  0.765625   0.968750 0
  0.531250   0.984375 0
  0.765625   0.687500 0
  0.531250   0.953125 0
  0.531250   0.937500 0
  0.531250   0.906250 0
  0.765625   0.812500 0
  0.531250   0.875000 0
  0.765625   0.781250 0
  0.531250   0.843750 0
  0.781250   1.000000 0
  0.765625   0.546875 0
  0.765625   0.750000 0
  0.531250   0.812500 0
  0.781250   0.953125 0
  0.531250   0.765625 0
  0.515625   0.750000 0
  0.750000   0.984375 0
  0.750000   0.953125 0
  0.796875   0.593750 0
  0.796875   0.562500 0
  0.750000   0.843750 0
  0.750000   0.937500 0
  0.515625   1.000000 0
  0.750000   0.906250 0
  0.515625   0.968750 0
  0.750000   0.671875 0
  0.750000   0.875000 0
  0.515625   0.937500 0
  0.515625   0.921875 0
  0.515625   0.890625 0
  0.750000   0.796875 0
  0.515625   0.859375 0
  0.750000   0.765625 0
  0.515625   0.828125 0
  1.000000   0.718750 0
  0.750000   0.531250 0
  0.750000   0.734375 0
  0.515625   0.796875 0
  0.734375   1.000000 0
  0.734375   0.968750 0
  0.734375   0.937500 0
  0.781250   0.578125 0
  0.781250   0.546875 0
  0.968750   0.578125 0
  0.734375   0.828125 0
  0.968750   0.546875 0
  0.734375   0.796875 0
  0.734375   0.765625 0
  0.968750   0.671875 0
  0.734375   0.734375 0
  0.968750   0.640625 0
  0.734375   0.703125 0
  0.968750   0.609375 0
  0.734375   0.671875 0
  0.734375   0.656250 0
  0.734375   0.625000 0
  0.968750   0.531250 0
  0.734375   0.593750 0
  0.984375   0.734375 0
  0.984375   0.703125 0
  0.734375   0.515625 0
  0.718750   0.984375 0
  0.718750   0.953125 0
  0.718750   0.921875 0
  0.953125   0.562500 0
  0.718750   0.812500 0
  0.953125   0.531250 0
  0.718750   0.781250 0
  0.718750   0.750000 0
  0.953125   0.656250 0
  0.718750   0.718750 0
  0.953125   0.625000 0
  0.718750   0.687500 0
  0.953125   0.593750 0
  0.718750   0.656250 0
  0.671875   1.000000 0
  0.718750   0.640625 0
  0.718750   0.609375 0
  0.953125   0.515625 0
  0.718750   0.578125 0
  0.968750   0.718750 0
  0.968750   0.687500 0
  0.953125   0.671875 0
  0.703125   0.968750 0
  0.703125   0.937500 0
  0.937500   0.656250 0
  0.703125   0.906250 0
  0.937500   0.546875 0
  0.703125   0.796875 0
  0.937500   0.515625 0
  0.703125   0.765625 0
  0.937500   0.671875 0
  0.703125   0.734375 0
  0.937500   0.640625 0
  0.703125   0.703125 0
  0.937500   0.609375 0
  0.703125   0.671875 0
  0.937500   0.578125 0
  0.703125   0.640625 0
  0.656250   0.984375 0
  0.703125   0.625000 0
  0.703125   0.593750 0
  0.718750   0.796875 0
  0.953125   0.734375 0
  0.812500   1.000000 0
  0.859375   0.656250 0
  0.703125   0.781250 0
  0.937500   0.718750 0
  0.953125   0.703125 0
  0.796875   0.984375 0
  0.843750   0.640625 0
  0.812500   0.968750 0
  0.859375   0.625000 0
  0.796875   0.953125 0
  0.843750   0.609375 0
  0.687500   0.953125 0
  0.687500   0.921875 0
  0.687500   0.890625 0
  0.921875   0.734375 0
  0.687500   0.796875 0
  0.687500   0.781250 0
  0.921875   0.703125 0
  0.687500   0.765625 0
  0.687500   0.750000 0
  0.921875   0.656250 0
  0.687500   0.718750 0
  0.921875   0.625000 0
  0.687500   0.687500 0
  0.921875   0.593750 0
  0.687500   0.656250 0
  0.640625   1.000000 0
  0.921875   0.562500 0
  0.687500   0.625000 0
  0.640625   0.968750 0
  0.687500   0.609375 0
  0.687500   0.578125 0
  0.937500   0.687500 0
  0.921875   0.671875 0
  0.671875   0.921875 0
  0.906250   0.656250 0
  0.671875   0.906250 0
  0.671875   0.875000 0
  0.906250   0.718750 0
  0.671875   0.781250 0
  0.671875   0.765625 0
  0.671875   0.734375 0
  0.906250   0.640625 0
  0.671875   0.703125 0
  0.906250   0.609375 0
  0.671875   0.671875 0
  0.906250   0.578125 0
  0.671875   0.640625 0
  0.625000   0.984375 0
  0.671875   0.609375 0
  0.625000   0.953125 0
  0.671875   0.593750 0
  0.671875   0.562500 0
  0.765625   0.953125 0
  0.812500   0.609375 0
  0.656250   1.000000 0
  0.656250   0.953125 0
  0.656250   0.906250 0
  0.890625   0.640625 0
  0.656250   0.890625 0
  0.656250   0.859375 0
  0.890625   0.734375 0
  0.656250   0.796875 0
  0.812500   0.921875 0
  0.562500   1.000000 0
  0.625000   0.828125 0
  0.812500   0.843750 0
  0.843750   0.593750 0
  0.812500   0.812500 0
  0.625000   0.718750 0
  0.828125   0.687500 0
  0.640625   0.593750 0
  0.812500   0.781250 0
  0.625000   0.687500 0
  0.765625   0.828125 0
  0.640625   0.562500 0
  0.812500   0.750000 0
  0.562500   0.828125 0
  0.781250   0.875000 0
  0.546875   0.937500 0
  0.781250   0.671875 0
  0.781250   0.593750 0
  0.546875   0.656250 0
  0.796875   0.750000 0
  0.562500   0.812500 0
  0.796875   0.546875 0
  0.765625   0.796875 0
  0.765625   0.593750 0
  1.000000   0.531250 0
  0.812500   0.718750 0
  0.859375   0.562500 0
  0.625000   0.625000 0
  0.812500   0.703125 0
  0.812500   0.906250 0
  0.578125   0.968750 0
  0.984375   0.593750 0
  0.828125   0.578125 0
  0.828125   0.781250 0
  0.593750   0.843750 0
  0.812500   0.671875 0
  0.625000   0.578125 0
  0.796875   0.671875 0
  0.562500   0.734375 0
  0.984375   0.562500 0
  0.828125   0.546875 0
  0.812500   0.640625 0
  0.750000   0.812500 0
  0.625000   0.546875 0
  0.796875   0.640625 0
  0.562500   0.703125 0
  0.828125   0.515625 0
  0.781250   0.734375 0
  0.546875   0.796875 0
  0.781250   0.531250 0
  0.750000   0.781250 0
  0.625000   0.515625 0
  0.796875   0.609375 0
  0.562500   0.671875 0
  0.765625   0.656250 0
  0.765625   0.859375 0
  0.531250   0.921875 0
  0.812500   0.578125 0
  0.562500   0.656250 0
  0.984375   0.687500 0
  0.750000   0.750000 0
  0.812500   0.562500 0
  0.812500   0.765625 0
  0.578125   0.828125 0
  0.562500   0.625000 0
  0.984375   0.656250 0
  0.750000   0.718750 0
  0.812500   0.531250 0
  0.781250   0.656250 0
  0.546875   0.718750 0
  0.781250   0.625000 0
  0.546875   0.687500 0
  0.750000   0.640625 0
  0.796875   0.531250 0
  0.562500   0.593750 0
  0.984375   0.625000 0
  0.750000   0.687500 0
  0.546875   0.984375 0
  0.609375   0.812500 0
  0.796875   0.875000 0
  0.546875   0.953125 0
  0.609375   0.578125 0
  0.843750   0.515625 0
  0.765625   0.515625 0
  0.765625   0.718750 0
  0.531250   0.781250 0
  0.984375   0.546875 0
  0.750000   0.609375 0
  0.796875   0.828125 0
  0.671875   0.968750 0
  0.796875   0.796875 0
  0.796875   0.765625 0
  0.609375   0.671875 0
  0.796875   0.734375 0
  0.546875   0.812500 0
  0.796875   0.703125 0
  0.843750   0.546875 0
  0.609375   0.609375 0
  0.796875   0.687500 0
  0.562500   0.953125 0
  0.796875   0.656250 0
  0.609375   0.562500 0
  0.796875   0.625000 0
  0.609375   0.531250 0
  0.546875   0.640625 0
  0.765625   0.671875 0
  0.531250   0.734375 0
  0.796875   0.515625 0
  0.765625   0.640625 0
  0.531250   0.703125 0
  0.703125   1.000000 0
  0.765625   0.609375 0
  0.531250   0.671875 0
  0.765625   0.578125 0
  0.531250   0.640625 0
  0.546875   0.609375 0
  0.531250   1.000000 0
  0.890625   0.593750 0
  0.656250   0.656250 0
  0.781250   0.515625 0
  0.546875   0.578125 0
  0.531250   0.968750 0
  0.890625   0.562500 0
  0.656250   0.625000 0
  0.609375   0.968750 0
  0.781250   0.859375 0
  0.656250   0.593750 0
  0.750000   0.703125 0
  0.515625   0.765625 0
  0.781250   0.812500 0
  0.781250   0.781250 0
  0.593750   0.687500 0
  0.781250   0.750000 0
  0.593750   0.656250 0
  0.781250   0.718750 0
  0.531250   0.796875 0
  0.828125   0.562500 0
  0.593750   0.625000 0
  0.781250   0.687500 0
  0.828125   0.531250 0
  0.593750   0.593750 0
  0.812500   0.625000 0
  0.578125   0.687500 0
  0.781250   0.640625 0
  0.781250   0.609375 0
  0.593750   0.515625 0
  0.515625   0.781250 0
  0.812500   0.546875 0
  0.578125   0.609375 0
  0.812500   0.515625 0
  0.578125   0.578125 0
  0.750000   0.656250 0
  0.515625   0.718750 0
  0.750000   0.625000 0
  0.515625   0.687500 0
  0.687500   0.984375 0
  0.750000   0.593750 0
  0.515625   0.656250 0
  0.531250   0.546875 0
  0.750000   0.562500 0
  0.515625   0.625000 0
  0.531250   0.515625 0
  0.984375   0.515625 0
  0.750000   0.578125 0
  0.515625   0.531250 0
  0.828125   0.796875 0
  0.640625   0.703125 0
  0.828125   0.765625 0
[...]
CELL_DATA 7648
SCALARS scalar_value float 1
LOOKUP_TABLE default
6.41633e-05
5.24745e-05
0.00112926
0.0009901
0.000881498
0.00105712
0.195815
0.201109
0.20517
0.202686
0.156984
0.153816
0.153434
0.151781
0.150061
0.146005
0.140979
0.147059
0.0073801
0.00542413
0.00686108
0.0069395
0.00573057
0.00530652
0.000699378
0.000581718
0.000457427
0.000578832
0.000296025
0.000244559
0.000197794
0.000241712
0.0051066
0.00485057
0.00517353
0.00373115
0.125431
0.142681
5.94653e-05
4.39712e-05
0.110451
0.105198
0.000301188
0.000266872
0.00388228
0.00480041
0.00512764
0.0049971
0.00648413
0.00754718
0.00798733
0.00809469
0.00616523
0.00739266
0.00800644
0.0077568
0.0122447
0.0130953
0.0099017
0.0123963
0.0103862
0.0096503
0.0353192
0.0336355
0.0338874
0.029766
0.0315726
0.0286884
0.0243752
0.0204281
0.0166781
0.0179729
0.0123533
0.00933522
0.00110023
0.0035358
0.00296425
0.00269156
0.00296401
0.00308829
0.00315853
0.00265695
0.00350261
0.0049866
0.00412346
0.00368555
0.00419023
9.11036e-05
7.17256e-05
7.55055e-05
0.0230716
0.0259208
0.0299096
0.0272811
0.0334461
0.0337003
0.03705
0.0299755
0.0441893
0.0530969
0.0433966
0.0311909
0.0336527
0.0345616
0.00509428
0.000598892
0.000845842
0.00105048
0.000220575
0.000194684
0.0001681
0.000184438
0.00283479
0.00264918
0.00283036
0.00203711
0.00150939
0.00157509
0.00125551
0.21172
0.210774
0.211312
0.20894
0.205652
0.205704
0.208481
0.200763
0.000366839
0.00032285
0.000280701
0.000305758
0.000946238
0.000858303
0.000795497
0.000807128
0.185602
0.191562
0.189434
0.197427
0.168498
0.000151164
0.000132181
0.0284744
0.0268775
0.0287454
0.026216
0.0216678
0.0226661
0.0109539
0.00924059
0.00885241
0.00254235
0.00210682
0.00181165
0.00178435
0.0022866
0.00195414
0.0017311
0.00181701
0.0402142
0.0371344
0.125745
0.12117
0.113896
0.122153
0.00218929
0.115502
0.109828
0.104333
0.105959
1.11212e-05
9.09937e-06
7.07058e-06
1.12716e-05
0.00207704
0.00194995
0.118305
0.113959
0.11518
0.101905
0.110197
0.0995237
0.0947948
0.0976397
0.00143266
0.00119077
0.00128641
0.000981179
0.000661146
0.000537654
0.000575247
0.000382809
0.00022141
0.08523
0.0815073
0.0838795
0.0698263
5.43019e-05
4.28701e-05
3.3052e-05
3.84796e-05
0.119586
0.126952
0.138456
0.12613
0.0038613
0.00362705
0.143691
0.142502
0.145947
0.131724
0.152618
0.155185
0.159649
0.15349
0.129874
0.133805
0.143605
0.130814
0.0101194
0.0128484
0.0142857
0.0130293
0.0197074
0.0255123
0.0222804
0.0316136
0.0269297
0.0238861
0.0263654
0.193967
0.199144
0.197105
0.203307
0.00152321
0.00135671
0.00127749
0.00117869
0.206802
0.209917
0.208532
0.212204
0.0010457
0.000917484
0.000834831
0.000813109
0.000346969
0.00031137
0.000154608
0.000116938
0.000101499
7.74906e-05
7.6434e-05
5.20079e-05
3.89063e-05
5.53865e-05
3.66574e-05
3.16843e-05
2.90414e-05
0.00124706
0.00115041
0.00109954
0.00106945
0.00141884
0.00137121
0.00159247
0.001239
0.00100382
0.000940779
0.00100575
0.000873937
0.0155417
0.0193059
0.0170084
0.00902039
0.00801339
0.00757933
0.00664755
0.00605276
0.0050141
0.00478837
0.00104961
0.000880718
0.000918801
0.000599
0.000400148
0.000439442
0.000677202
0.000476239
0.000523342
5.9608e-05
4.80443e-05
3.9111e-05
4.53912e-05
0.00922209
0.00779999
0.142224
0.153646
0.00311406
0.00324385
0.00625079
0.0196165
0.0185364
0.153831
0.156213
0.0231577
0.195452
0.153587
0.202806
0.0244796
0.204026
0.100901
0.0147126
0.111177
0.0114063
0.0101283
0.0101409
2.25671e-05
2.11694e-05
0.000190189
0.00547772
0.00180107
0.0137244
0.0141255
0.00275282
0.000246951
0.00464711
0.0372494
0.0117803
0.0390612
0.186368
0.180054
0.00672089
0.199515
0.204912
0.153278
0.159044
0.0735566
0.149251
0.000202978
0.000135594
0.00042159
0.00131335
0.00029604
0.000347062
0.00622991
0.00627376
0.000540933
0.00738773
0.128034
0.0154885
0.205546
0.000584168
0.0912132
0.00109089
0.000395808
0.000368159
0.000836718
0.000335197
0.03148
0.0036343
0.00420384
0.00308506
0.0167783
0.000166601
0.00927621
0.00710967
0.00644331
0.00556562
0.0173646
5.79774e-05
0.000237402
0.0002047
1.2578e-05
0.00492106
0.129425
0.00318438
0.0229655
0.0236839
0.00459499
0.0184249
0.000487054
0.0348835
3.0161e-06
1.88185e-06
2.73541e-06
0.00222974
0.00199292
0.00229116
0.00853445
0.00625199
0.00675317
0.0045042
0.00200324
0.00450821
0.0112096
0.00842038
0.00999722
0.000695642
0.000602832
0.213783
0.000649313
0.213532
0.000563142
0.0087805
0.212718
0.0628488
0.000492189
0.212231
0.0442225
0.000513992
0.00248456
0.000136407
0.000511374
8.73277e-05
0.000103342
0.00396749
0.000171615
0.000662991
0.00263133
0.106583
0.000204422
0.000932619
0.0242684
0.0266448
0.0497485
0.0525328
0.0297179
0.00160434
0.00100614
0.000747384
0.00475659
0.209441
0.0328311
0.000368235
0.000436411
0.00621173
0.000535878
0.00036177
0.000188736
0.172069
0.000145392
0.00149836
0.0132316
0.0114374
0.000653181
0.00077043
0.000905803
2.95386e-05
2.30238e-05
1.76059e-05
0.0193032
0.0143503
0.0498392
0.0346363
2.47233e-06
4.47483e-06
0.00348922
0.212874
0.207941
0.0419458
0.0464879
0.000941169
0.0131172
0.0072005
0.0118888
0.00182658
0.0015861
0.0185067
0.00144322
0.0013727
0.00196296
0.00147906
0.00168041
0.0234826
0.131773
0.138824
0.0505388
0.000228209
0.00301802
1.37867e-05
0.000169522
0.0218468
0.0982915
0.0321508
0.105217
0.0919876
0.0467507
0.109122
0.0152657
0.0229166
0.00279047
0.00300785
0.00290352
0.00108873
0.00807042
0.00527816
0.0024169
0.00210399
0.00281125
0.00719208
0.0370069
1.8816e-05
0.0698244
0.002129
0.0022497
0.158857
0.0553587
0.0534767
0.00626291
0.0154863
0.00741881
0.000524715
0.00655819
0.000204504
0.000164063
0.000729095
0.000290383
0.000812994
0.0025066
0.00283696
0.000729358
0.000267621
0.00103086
0.00213013
0.000237855
0.0460898
0.05087
0.0013344
0.024914
0.00194246
0.000283733
0.00488992
0.0117565
0.00563898
0.00129146
0.00819328
0.00116026
0.00541121
0.00292344
0.000222596
0.00269868
0.000209902
0.00206057
0.00382308
0.0032031
0.00759832
0.100984
0.00237522
0.114861
0.119111
0.00263466
0.00187923
0.0118954
0.00982896
0.156532
0.00123849
0.090138
0.00105378
0.00408914
0.00131032
0.00204202
0.00313791
0.00236646
0.00877567
0.0231147
0.00786423
0.00558684
0.0642656
0.00490814
0.0275621
0.0028954
0.0209474
0.0703556
0.0656003
0.00507546
0.0600367
0.00512494
0.0643876
0.00424393
0.182007
0.0636269
0.0594084
0.000111465
0.00159124
0.00151711
0.00156004
0.0379783
0.00135332
0.0369448
0.0460931
0.0363742
0.00147554
0.0332401
0.184044
0.00129517
0.00192358
0.0497194
0.00199174
0.00184909
0.00126625
0.000444031
0.0548235
0.00206013
0.00584567
0.0335833
0.0427549
0.00652662
0.00107371
0.0828864
0.00533994
0.000348266
0.00454473
0.00242642
0.00974113
0.00166651
0.00143726
0.125755
0.0163914
0.0979009
0.00301006
0.0246291
0.000235072
0.0145156
0.00486218
0.0762451
0.184097
0.0529238
0.0105755
0.0445583
0.043582
0.0676662
0.0673443
0.00369086
0.0137758
0.026468
0.149091
0.017137
8.82494e-05
5.60736e-05
7.02945e-05
0.0089103
0.0216697
0.000170204
0.00105818
0.000297156
0.000820727
0.00024433
4.38512e-05
0.0013712
0.00115807
0.0421885
0.0311176
0.0124242
0.210132
0.0307622
0.0219961
0.000727123
0.00859053
0.000204661
0.116756
0.0402201
0.123198
0.0079342
0.117535
0.175565
0.000556923
0.0570909
0.000533541
0.000358747
0.000109866
0.0261601
0.00132079
0.0398597
0.00132951
0.0669484
0.000446986
0.202179
0.062817
0.00085466
0.0976354
0.00138476
0.00799824
0.0169179
0.00108398
0.00543068
0.0078467
0.000936892
0.00109549
0.176119
0.00155569
0.00190949
0.0014594
0.00205736
8.66939e-05
7.97917e-05
0.000169146
0.000107855
0.000840661
0.000145219
0.076682
0.00104042
0.000262449
0.00096635
0.002607
0.000881467
0.0343008
1.57266e-05
0.00127553
0.00148762
0.00652541
0.00202619
0.00732188
0.00219931
0.0524928
0.00247763
3.63061e-05
0.0617822
0.00485117
0.0361403
0.00127308
0.0409846
0.156883
0.0011976
0.000640683
0.151949
0.049
0.0146382
0.00242493
0.0517778
0.00210798
0.000193958
1.29625e-05
0.0686881
0.0296715
0.0147668
1.85431e-05
0.0763336
0.0307197
0.0772487
0.0835551
0.0315734
2.44045e-05
0.00187749
0.0290417
1.3714e-05
7.29405e-06
0.0139985
0.0257155
1.52093e-05
0.0399561
0.0149686
0.00174634
0.00539662
0.0221331
0.0253819
0.168837
0.000654122
0.00071953
0.000122004
0.00465185
0.0435267
0.00685688
0.000135784
0.00458056
1.06262e-05
0.00296373
0.000615442
0.00735589
0.000500741
0.000854732
0.0551814
0.00154899
0.0760213
0.00659268
0.208012
0.0372652
0.000325522
0.0230382
0.207966
0.0263217
0.000351884
0.0943883
0.00266159
0.0318163
0.000536476
0.002359
0.000447402
2.60089e-05
0.00428923
0.0332849
7.85347e-06
0.0373541
0.00357071
0.00223655
0.000349563
2.18221e-05
0.019245
0.0189643
0.119417
9.76238e-06
0.000834665
0.018732
0.143706
1.45777e-06
0.0016222
0.0197087
0.038204
0.0104555
0.0217425
0.000399416
0.0737148
0.0288658
0.0257936
0.00989627
0.160408
0.0029125
0.000605321
0.0695729
0.00105121
0.208474
0.000526919
0.00065807
0.0176211
5.16961e-06
0.126064
0.0225706
0.000117922
0.031664
0.0136775
0.00995983
0.0579952
0.156279
0.0178858
0.00265008
0.107216
0.0807863
0.0017785
0.00695568
0.0762317
0.0263731
7.09875e-05
0.0792061
0.0212175
0.00139486
0.000271879
0.00316437
0.000332598
0.000180562
0.00454984
8.57046e-05
0.000114833
0.00635932
0.0439292
6.17152e-05
0.00594198
0.0170604
0.0207568
0.00430502
0.00335579
0.0108934
0.0154232
0.00165583
0.00123288
0.0266841
0.0169193
0.209092
0.00276036
0.0159551
0.00182749
0.00246289
0.00200385
0.00386534
0.0252203
0.00263586
0.0763321
0.0632838
0.00558577
0.131535
0.0801762
0.0154198
0.00381543
0.0218806
0.00348531
0.0690042
0.0175217
0.000397702
0.0164536
0.0640677
0.0299074
0.128977
0.0671637
0.00621138
0.00146153
8.36175e-05
0.000723069
5.42973e-06
0.00373141
0.0204332
0.00148684
0.00587991
0.0287057
1.9962e-06
0.000270114
2.26368e-05
0.0143518
0.0296036
0.000125145
0.0892885
0.00276327
0.0838845
0.0663542
0.168901
1.24427e-05
0.0310238
0.00730423
0.00328372
0.0712972
0.0573577
0.0261494
0.130251
0.0472125
0.000111044
0.134098
7.89881e-05
7.65879e-05
0.143932
0.0539014
9.0403e-05
1.74085e-05
0.000154296
0.000876734
9.28153e-05
0.000388039
0.000641676
0.00987366
5.17629e-05
0.00487989
0.00444523
0.00192278
0.0333305
0.00543165
1.14609e-05
0.000137014
0.06835
0.00956901
0.00181557
0.0128067
6.2366e-05
0.000358388
0.00160907
2.0205e-05
0.000864847
0.0458241
0.00766624
0.000445704
1.14943e-05
0.00205164
0.0386831
0.00146089
0.000343019
0.0640703
0.00139555
0.0368575
0.0114219
5.30129e-05
0.0110967
0.0328647
6.48413e-05
0.0700028
0.0797878
0.00150762
0.0211681
7.37992e-05
0.134131
0.0843378
3.05605e-05
0.09159
0.0336436
0.00246149
4.42731e-05
0.00032496
0.0516589
0.205669
0.000677017
0.0593619
2.39915e-05
0.0844453
0.0697655
0.000954795
0.0128606
0.000742378
0.0831586
0.111922
0.0497063
0.00736444
0.0746279
0.000211828
0.00292332
0.00112008
2.58257e-05
0.00137942
0.0712533
0.0418953
0.000100557
0.0403758
0.00137319
0.0461043
0.108553
0.0574588
0.000566574
0.0445754
0.0545921
1.6812e-06
0.0452431
0.000111716
0.0989448
0.00554493
0.0345569
0.105006
0.000156789
0.143643
5.67551e-05
0.0119022
0.000676263
0.021669
0.00480226
0.0647418
0.0158214
0.00037757
0.000481516
0.012452
0.0197307
0.000271643
8.51865e-06
9.36535e-05
0.0629246
0.000210525
0.00367902
1.28223e-05
0.0641769
0.00146762
9.34769e-06
8.02096e-05
0.0574072
0.0227466
0.0541356
0.00439051
0.000456345
0.000489274
0.0608512
0.0567057
0.0597561
0.0424499
0.0124339
0.200155
0.017704
0.20728
0.150988
0.0360894
0.0558238
0.0061112
0.00148116
0.00173013
9.56416e-05
0.047858
0.000164463
0.0035016
0.000130488
0.00132748
0.137919
0.150662
0.0370613
0.135462
4.52189e-05
0.00225516
0.00719173
0.00127459
0.00102786
0.00121336
0.00115976
0.00313345
0.00418781
0.0691856
0.00255222
0.00243855
0.00191066
0.00173392
0.0371139
3.49676e-05
0.00173159
0.0355072
0.00202213
0.0361768
0.151624
0.0468015
9.97555e-05
0.0468225
0.000396332
0.000860518
0.0392817
0.000291521
0.00275071
0.0788954
0.00225191
0.00276066
0.00321168
0.00233431
0.00191984
0.00155215
0.0015464
0.00224254
0.133998
0.000552744
0.142396
0.000613358
0.00387375
0.0489372
0.00748866
0.00560818
0.056554
0.00409769
0.0952648
0.0133448
0.0183746
0.0844492
0.07683
0.000512297
0.000335867
2.65665e-05
0.000399354
0.00225429
0.00158718
1.91901e-06
2.39549e-06
0.14818
0.159796
0.010688
0.164681
0.00130531
0.114613
0.124767
0.131297
0.000442036
0.00263502
0.000140398
0.000147132
0.000104994
0.00104963
0.000109545
0.000125992
0.00354175
0.000308647
0.00045001
0.00362322
0.0884984
0.00186888
0.00571882
0.0873
0.00589447
0.0813534
0.00320272
0.000140153
0.000310615
2.71761e-06
0.0364368
3.28393e-06
3.44561e-06
4.67094e-06
0.0422092
0.0239207
0.0281423
2.21945e-06
1.44199e-06
0.0235133
1.62729e-06
1.03528e-06
0.0257869
1.58114e-06
0.0194857
1.2366e-06
0.0211786
1.21492e-06
0.0661825
0.00573957
0.0970783
0.000161489
0.0547917
0.000172435
0.0408791
0.00252247
0.0482406
0.0049268
0.0904816
0.00548216
0.0719432
0.00400036
0.0808364
0.000565819
0.000413217
0.000502937
0.00165647
0.000528194
0.000433529
0.000394778
0.00038389
0.00197719
0.000524528
0.000806805
0.0305523
0.00138643
0.000250873
0.000691144
0.00542751
0.00568139
0.0270093
0.000430733
0.115413
0.0897454
0.000445334
0.0589025
0.00042707
0.00711937
0.0813344
0.189744
0.00339821
0.0698677
0.00184999
0.0701811
0.0423493
0.000292778
0.000458042
0.0290355
0.0162342
0.0123028
0.0234135
0.00733595
0.00563527
0.00667207
0.0600927
0.00133647
0.0336655
0.029901
0.040672
1.41888e-05
1.99024e-05
0.0310612
0.00151346
0.0745303
0.00177884
0.00131235
0.0290156
0.00128332
0.0275042
0.0288799
0.0282632
0.0227159
0.0154748
0.0166165
0.103445
0.000554263
0.027616
0.00177464
1.89647e-05
0.00068379
0.0142045
0.000715774
0.0392177
0.0524847
0.159296
0.000802959
0.000493173
0.145059
0.00639377
1.55376e-05
0.00542825
1.71111e-05
0.000446024
0.00155881
2.14114e-05
6.85349e-06
1.01557e-05
1.05316e-05
0.0064669
0.0849543
0.116193
0.00996032
0.0367476
0.0409913
0.0378204
0.0365918
0.102366
0.00353131
0.000106339
9.54438e-05
0.00100902
0.00108828
0.000323845
0.000443405
6.39902e-05
0.000327149
6.35414e-05
0.000409386
8.06503e-05
0.000480874
0.0554767
0.000814034
0.00060919
0.000777596
0.000917906
9.00709e-05
0.000111913
0.000138897
0.000416921
0.046079
0.048651
0.0181134
0.0560748
0.0442659
0.040207
0.00796163
0.0605097
0.0773101
0.0190651
0.11363
0.0931685
0.0139263
0.158693
0.00225922
0.00156711
0.00127345
0.0325801
0.0404231
0.173283
0.00465063
0.134266
0.136481
0.138052
0.143988
0.00372414
0.0013546
0.00431817
0.00461369
0.0894148
0.0419025
0.0482728
0.00563168
0.0931732
0.0862884
0.0845664
0.00246905
0.00125033
0.00210526
4.33802e-05
2.89218e-05
3.15383e-05
0.0036066
0.00280467
0.00344433
0.00393011
0.0480989
0.139786
0.143774
0.157111
0.150323
0.154896
0.109921
0.00541582
0.000570094
0.00067342
0.000620152
0.042885
0.107004
0.205332
0.0259383
0.000327726
0.000320972
5.8729e-06
4.10314e-06
5.59797e-06
6.94221e-06
0.0400768
0.0397993
0.0365309
0.0195481
0.000953625
0.000678276
0.00435797
0.000797891
0.000703915
0.0177223
0.0241382
0.00316083
0.00358296
0.00969751
0.0138561
0.0106957
0.0892527
0.0100306
0.0967832
0.0447857
0.0461676
0.00489161
0.00374163
0.00410304
0.0101783
0.00517146
0.112893
0.1134
0.115728
0.123158
2.13508e-05
1.86351e-05
1.51162e-05
0.0952572
0.00338652
0.0658795
0.00941162
0.0728097
0.0772491
0.00821884
0.0225302
0.00850397
0.0117321
0.00917046
0.00735154
0.0299781
0.183034
0.0686054
0.0348771
0.00233304
0.0381389
0.00239586
0.0415524
0.118535
0.127813
0.124753
0.131529
0.0213522
0.003582
0.00545353
0.00538786
0.00409747
0.0651113
0.100058
0.00735191
0.0850713
0.00810417
0.00604942
0.0024658
0.107575
0.0425507
0.00683662
0.0442941
0.00151712
4.90897e-05
6.99574e-05
7.19516e-05
0.00400815
0.00333196
0.00390342
0.000285482
0.00389596
0.00468017
0.00183906
0.157076
0.0345144
0.158249
0.162812
0.00270558
0.0130384
0.00312126
0.00537677
0.0849252
0.0800589
0.00654543
0.134496
0.00136176
0.00113979
0.00102717
0.00374606
0.00325945
0.0927961
0.0312797
0.0323459
0.00981407
0.0131771
0.0919641
0.00231457
0.00046918
0.0488324
3.33448e-06
2.59348e-06
3.23692e-06
4.00905e-06
0.0463903
3.45686e-05
3.95994e-05
4.82213e-05
0.0507712
0.183831
0.164666
0.172147
0.0038916
0.00388222
7.81484e-06
5.04203e-06
6.91968e-06
8.37785e-06
0.0589176
0.189636
0.0204207
0.161718
0.190885
0.000418015
0.000327732
0.000227671
0.000293383
0.000306839
2.49014e-05
3.28516e-05
2.96079e-05
3.66277e-05
0.00836357
0.00250122
0.00292176
0.00935041
0.00771812
0.178929
0.156468
0.0130637
0.203097
2.12464e-06
0.0742107
0.0831555
0.0170955
0.00603244
0.0330147
0.161411
0.177602
0.0548259
0.105894
0.0311583
0.00697631
0.0341489
7.12415e-05
0.00152961
0.00130869
0.00111566
0.0109521
0.0111215
0.165305
0.00271471
0.00255039
0.111193
0.079318
0.0744257
0.00116318
0.001472
0.000206993
0.000249777
0.00743524
3.61343e-06
0.0108353
0.0381837
2.95523e-06
4.44245e-06
4.40504e-06
0.00465783
0.00622062
0.000646483
0.000170524
0.000160524
0.000197785
0.0365621
0.0467428
0.000699162
0.000777714
0.00099682
0.0508485
0.000252098
0.000269219
0.0012892
0.00100003
0.00109097
0.000943387
0.05184
0.0502872
0.00122865
0.000856918
0.00104842
0.0011626
0.000724647
0.000852982
0.000716215
0.0606729
0.00262112
0.00259797
0.00193741
0.00169903
0.146122
0.0864606
0.0883854
0.0910348
0.0988002
0.00196952
0.00438652
0.00935849
0.031955
0.193347
0.000399366
0.000467557
0.207986
0.198684
0.000616218
0.0990923
0.00598618
0.00580146
0.00803785
0.0480158
0.0595238
0.0143654
0.0198842
0.136655
0.00410764
0.00455413
0.00749889
0.0170858
0.0019072
0.0355576
0.0386466
0.0387399
0.0266137
5.2623e-05
0.000460122
0.000375919
4.99981e-05
6.09029e-05
0.00208552
0.015623
0.0140895
0.00168231
1.45053e-05
1.46431e-05
1.83495e-05
2.4211e-05
0.00996146
0.0508432
0.0550456
0.0596479
1.83202e-06
2.18926e-06
2.73883e-06
1.75547e-05
2.99363e-05
0.132451
0.011689
0.013163
0.00011676
0.0152049
0.00821026
0.0117744
0.030619
0.00984208
0.00332824
0.000660604
0.000695632
0.000589071
0.000476459
0.000307444
3.07383e-05
0.000377844
0.000291867
0.0376352
0.0350735
0.0115576
3.70211e-05
3.55477e-05
0.118387
0.127428
0.0041738
0.00332267
0.00469488
0.00348635
0.0029912
0.00810714
6.37248e-06
3.76351e-06
4.64294e-06
4.13444e-06
0.0529275
0.00012618
0.00497158
0.19151
0.196526
0.196635
0.056613
0.0468613
0.0479804
0.0986109
0.115543
0.0977711
0.000212931
0.000196144
0.000252651
0.193305
0.190335
0.196508
0.201302
0.016169
0.00325273
0.00352538
0.00027467
0.00401117
0.00484053
0.000244005
0.000286887
0.000313761
0.198074
0.000619928
0.000793953
0.0603529
0.00593107
0.00776087
1.85483e-05
1.17171e-05
1.38151e-05
0.000700817
0.116988
0.000253281
0.000270391
0.000220578
0.0290967
0.100025
0.0956234
0.0986603
0.00158721
0.00226277
0.000359991
0.000240033
0.000294922
0.10606
0.1162
0.120114
0.000325833
0.000357824
0.00046364
0.0386159
0.0107541
0.0143162
0.0540321
0.0566086
0.000986156
0.040493
0.0574797
0.0567891
0.0457632
0.170712
0.00123903
0.0659996
0.0815382
0.0637503
0.0913185
0.00156901
0.0985842
0.00858069
0.00409567
0.00291612
0.00351006
0.000574065
0.000727521
0.000718879
0.211131
0.210689
0.0237503
2.89852e-05
0.000226975
3.64561e-05
4.3543e-05
0.000513687
4.35902e-05
2.79422e-05
3.39254e-05
0.00178075
0.00706699
0.000760887
0.000528751
0.000406022
0.000437956
0.000867422
0.123706
0.00350981
0.0449795
0.055756
0.0761774
0.00255364
0.109625
0.120278
0.117988
0.00418025
0.00454479
0.00447228
0.124588
0.136706
0.00628615
0.00780314
0.00112355
0.0011842
0.00122378
0.0659842
0.0754369
0.0763992
0.0681674
0.0792466
0.00196868
0.00177555
0.00169719
0.00135721
0.0819538
0.00208793
0.00276197
0.0105992
0.0281874
0.142446
0.1539
0.00593967
0.00753105
0.00610817
0.145606
0.150621
0.149416
0.00784931
0.141115
0.141572
0.132993
0.0332393
0.0236368
0.0428058
0.00760624
0.0625853
0.0648244
0.000352218
0.000297257
0.000375118
0.0265165
0.0274698
0.141715
0.00465265
0.151821
0.00403137
0.017111
0.0287535
0.00876823
0.0353298
0.0202399
0.0177206
0.018762
0.02416
2.69445e-05
2.263e-05
2.81975e-05
3.50788e-05
0.0010954
0.0932426
0.000789681
0.000927342
0.000908939
0.000715459
0.000658713
0.0314692
0.000375549
0.000313705
0.000319237
0.000144828
0.000125704
0.000182745
0.000240922