# vtk DataFile Version 2.0
Unstructured Grid by M++
ASCII
DATASET UNSTRUCTURED_GRID
POINTS 4072 float
  0.828125   0.890625 0
  0.875000   0.531250 0
  0.828125   0.750000 0
  0.593750   0.968750 0
  0.828125   0.671875 0
  0.828125   0.875000 0
  0.593750   0.937500 0
  0.828125   0.656250 0
  0.828125   0.640625 0
  0.828125   0.843750 0
  0.593750   0.906250 0
  0.828125   0.625000 0
  0.781250   0.968750 0
  0.828125   0.609375 0
  0.828125   0.812500 0
  0.593750   0.875000 0
  0.593750   0.828125 0
  0.593750   0.796875 0
  0.828125   0.703125 0
  0.593750   0.765625 0
  0.828125   0.937500 0
  0.812500   0.875000 0
  0.859375   0.515625 0
  0.812500   0.734375 0
  0.812500   0.937500 0
  0.578125   1.000000 0
  0.578125   0.750000 0
  0.812500   0.687500 0
  0.578125   0.953125 0
  0.812500   0.656250 0
  0.812500   0.859375 0
  0.578125   0.921875 0
  0.812500   0.828125 0
  0.578125   0.890625 0
  0.812500   0.593750 0
  0.812500   0.796875 0
  0.578125   0.859375 0
  0.578125   0.812500 0
  0.578125   0.781250 0
  0.796875   1.000000 0
  0.796875   0.859375 0
  0.796875   0.718750 0
  0.562500   0.984375 0
  0.562500   0.937500 0
  0.796875   0.843750 0
  0.562500   0.906250 0
  0.796875   0.812500 0
  0.562500   0.875000 0
  0.796875   0.578125 0
  0.796875   0.781250 0
  0.562500   0.843750 0
  0.812500   0.984375 0
  0.562500   0.796875 0
  0.812500   0.953125 0
  0.562500   0.765625 0
  0.796875   0.937500 0
  0.546875   0.750000 0
  0.781250   0.984375 0
  0.828125   0.593750 0
  0.781250   0.843750 0
  0.781250   0.937500 0
  0.546875   1.000000 0
  0.781250   0.703125 0
  0.546875   0.968750 0
  0.546875   0.921875 0
  0.781250   0.828125 0
  0.546875   0.890625 0
  0.781250   0.796875 0
  0.546875   0.859375 0
  0.781250   0.562500 0
  0.781250   0.765625 0
  0.546875   0.828125 0
  0.796875   0.968750 0
  0.546875   0.781250 0
  0.765625   1.000000 0
  0.765625   0.968750 0
  0.531250   0.984375 0
  0.765625   0.687500 0
  0.531250   0.953125 0
  0.531250   0.937500 0
  0.531250   0.906250 0
  0.765625   0.812500 0
  0.531250   0.875000 0
  0.765625   0.781250 0
  0.531250   0.843750 0
  0.781250   1.000000 0
  0.765625   0.546875 0
  0.765625   0.750000 0
  0.531250   0.812500 0
  0.781250   0.953125 0
  0.531250   0.765625 0
  0.515625   0.750000 0
  0.750000   0.984375 0
  0.750000   0.953125 0
  0.796875   0.593750 0
  0.796875   0.562500 0
  0.750000   0.843750 0
  0.750000   0.937500 0
  0.515625   1.000000 0
  0.750000   0.906250 0
  0.515625   0.968750 0
  0.750000   0.671875 0
  0.750000   0.875000 0
  0.515625   0.937500 0
  0.515625   0.921875 0
  0.515625   0.890625 0
  0.750000   0.796875 0
  0.515625   0.859375 0
  0.750000   0.765625 0
  0.515625   0.828125 0
  1.000000   0.718750 0
  0.750000   0.531250 0
  0.750000   0.734375 0
  0.515625   0.796875 0
  0.734375   1.000000 0
  0.734375   0.968750 0
  0.734375   0.937500 0
  0.781250   0.578125 0
  0.781250   0.546875 0
  0.968750   0.578125 0
  0.734375   0.828125 0
  0.968750   0.546875 0
  0.734375   0.796875 0
  0.734375   0.765625 0
  0.968750   0.671875 0
  0.734375   0.734375 0
  0.968750   0.640625 0
  0.734375   0.703125 0
  0.968750   0.609375 0
  0.734375   0.671875 0
  0.734375   0.656250 0
  0.734375   0.625000 0
  0.968750   0.531250 0
  0.734375   0.593750 0
  0.984375   0.734375 0
  0.984375   0.703125 0
  0.734375   0.515625 0
  0.718750   0.984375 0
  0.718750   0.953125 0
  0.718750   0.921875 0
  0.953125   0.562500 0
  0.718750   0.812500 0
  0.953125   0.531250 0
  0.718750   0.781250 0
  0.718750   0.750000 0
  0.953125   0.656250 0
  0.718750   0.718750 0
  0.953125   0.625000 0
  0.718750   0.687500 0
  0.953125   0.593750 0
  0.718750   0.656250 0
  0.671875   1.000000 0
  0.718750   0.640625 0
  0.718750   0.609375 0
  0.953125   0.515625 0
  0.718750   0.578125 0
  0.968750   0.718750 0
  0.968750   0.687500 0
  0.953125   0.671875 0
  0.703125   0.968750 0
  0.703125   0.937500 0
  0.937500   0.656250 0
  0.703125   0.906250 0
  0.937500   0.546875 0
  0.703125   0.796875 0
  0.937500   0.515625 0
  0.703125   0.765625 0
  0.937500   0.671875 0
  0.703125   0.734375 0
  0.937500   0.640625 0
  0.703125   0.703125 0
  0.937500   0.609375 0
  0.703125   0.671875 0
  0.937500   0.578125 0
  0.703125   0.640625 0
  0.656250   0.984375 0
  0.703125   0.625000 0
  0.703125   0.593750 0
  0.718750   0.796875 0
  0.953125   0.734375 0
  0.812500   1.000000 0
  0.859375   0.656250 0
  0.703125   0.781250 0
  0.937500   0.718750 0
  0.953125   0.703125 0
  0.796875   0.984375 0
  0.843750   0.640625 0
  0.812500   0.968750 0
  0.859375   0.625000 0
  0.796875   0.953125 0
  0.843750   0.609375 0
  0.687500   0.953125 0
  0.687500   0.921875 0
  0.687500   0.890625 0
  0.921875   0.734375 0
  0.687500   0.796875 0
  0.687500   0.781250 0
  0.921875   0.703125 0
  0.687500   0.765625 0
  0.687500   0.750000 0
  0.921875   0.656250 0
  0.687500   0.718750 0
  0.921875   0.625000 0
  0.687500   0.687500 0
  0.921875   0.593750 0
  0.687500   0.656250 0
  0.640625   1.000000 0
  0.921875   0.562500 0
  0.687500   0.625000 0
  0.640625   0.968750 0
  0.687500   0.609375 0
  0.687500   0.578125 0
  0.937500   0.687500 0
  0.921875   0.671875 0
  0.671875   0.921875 0
  0.906250   0.656250 0
  0.671875   0.906250 0
  0.671875   0.875000 0
  0.906250   0.718750 0
  0.671875   0.781250 0
  0.671875   0.765625 0
  0.671875   0.734375 0
  0.906250   0.640625 0
  0.671875   0.703125 0
  0.906250   0.609375 0
  0.671875   0.671875 0
  0.906250   0.578125 0
  0.671875   0.640625 0
  0.625000   0.984375 0
  0.671875   0.609375 0
  0.625000   0.953125 0
  0.671875   0.593750 0
  0.671875   0.562500 0
  0.765625   0.953125 0
  0.812500   0.609375 0
  0.656250   1.000000 0
  0.656250   0.953125 0
  0.656250   0.906250 0
  0.890625   0.640625 0
  0.656250   0.890625 0
  0.656250   0.859375 0
  0.890625   0.734375 0
  0.656250   0.796875 0
  0.812500   0.921875 0
  0.562500   1.000000 0
  0.625000   0.828125 0
  0.812500   0.843750 0
  0.843750   0.593750 0
  0.812500   0.812500 0
  0.625000   0.718750 0
  0.828125   0.687500 0
  0.640625   0.593750 0
  0.812500   0.781250 0
  0.625000   0.687500 0
  0.765625   0.828125 0
  0.640625   0.562500 0
  0.812500   0.750000 0
  0.562500   0.828125 0
  0.781250   0.875000 0
  0.546875   0.937500 0
  0.781250   0.671875 0
  0.781250   0.593750 0
  0.546875   0.656250 0
  0.796875   0.750000 0
  0.562500   0.812500 0
  0.796875   0.546875 0
  0.765625   0.796875 0
  0.765625   0.593750 0
  1.000000   0.531250 0
  0.812500   0.718750 0
  0.859375   0.562500 0
  0.625000   0.625000 0
  0.812500   0.703125 0
  0.812500   0.906250 0
  0.578125   0.968750 0
  0.984375   0.593750 0
  0.828125   0.578125 0
  0.828125   0.781250 0
  0.593750   0.843750 0
  0.812500   0.671875 0
  0.625000   0.578125 0
  0.796875   0.671875 0
  0.562500   0.734375 0
  0.984375   0.562500 0
  0.828125   0.546875 0
  0.812500   0.640625 0
  0.750000   0.812500 0
  0.625000   0.546875 0
  0.796875   0.640625 0
  0.562500   0.703125 0
  0.828125   0.515625 0
  0.781250   0.734375 0
  0.546875   0.796875 0
  0.781250   0.531250 0
  0.750000   0.781250 0
  0.625000   0.515625 0
  0.796875   0.609375 0
  0.562500   0.671875 0
  0.765625   0.656250 0
  0.765625   0.859375 0
  0.531250   0.921875 0
  0.812500   0.578125 0
  0.562500   0.656250 0
  0.984375   0.687500 0
  0.750000   0.750000 0
  0.812500   0.562500 0
  0.812500   0.765625 0
  0.578125   0.828125 0
  0.562500   0.625000 0
  0.984375   0.656250 0
  0.750000   0.718750 0
  0.812500   0.531250 0
  0.781250   0.656250 0
  0.546875   0.718750 0
  0.781250   0.625000 0
  0.546875   0.687500 0
  0.750000   0.640625 0
  0.796875   0.531250 0
  0.562500   0.593750 0
  0.984375   0.625000 0
  0.750000   0.687500 0
  0.546875   0.984375 0
  0.609375   0.812500 0
  0.796875   0.875000 0
  0.546875   0.953125 0
  0.609375   0.578125 0
  0.843750   0.515625 0
  0.765625   0.515625 0
  0.765625   0.718750 0
  0.531250   0.781250 0
  0.984375   0.546875 0
  0.750000   0.609375 0
  0.796875   0.828125 0
  0.671875   0.968750 0
  0.796875   0.796875 0
  0.796875   0.765625 0
  0.609375   0.671875 0
  0.796875   0.734375 0
  0.546875   0.812500 0
  0.796875   0.703125 0
  0.843750   0.546875 0
  0.609375   0.609375 0
  0.796875   0.687500 0
  0.562500   0.953125 0
  0.796875   0.656250 0
  0.609375   0.562500 0
  0.796875   0.625000 0
  0.609375   0.531250 0
  0.546875   0.640625 0
  0.765625   0.671875 0
  0.531250   0.734375 0
  0.796875   0.515625 0
  0.765625   0.640625 0
  0.531250   0.703125 0
  0.703125   1.000000 0
  0.765625   0.609375 0
  0.531250   0.671875 0
  0.765625   0.578125 0
  0.531250   0.640625 0
  0.546875   0.609375 0
  0.531250   1.000000 0
  0.890625   0.593750 0
  0.656250   0.656250 0
  0.781250   0.515625 0
  0.546875   0.578125 0
  0.531250   0.968750 0
  0.890625   0.562500 0
  0.656250   0.625000 0
  0.609375   0.968750 0
  0.781250   0.859375 0
  0.656250   0.593750 0
  0.750000   0.703125 0
  0.515625   0.765625 0
  0.781250   0.812500 0
  0.781250   0.781250 0
  0.593750   0.687500 0
  0.781250   0.750000 0
  0.593750   0.656250 0
  0.781250   0.718750 0
  0.531250   0.796875 0
  0.828125   0.562500 0
  0.593750   0.625000 0
  0.781250   0.687500 0
  0.828125   0.531250 0
  0.593750   0.593750 0
  0.812500   0.625000 0
  0.578125   0.687500 0
  0.781250   0.640625 0
  0.781250   0.609375 0
  0.593750   0.515625 0
  0.515625   0.781250 0
  0.812500   0.546875 0
  0.578125   0.609375 0
  0.812500   0.515625 0
  0.578125   0.578125 0
  0.750000   0.656250 0
  0.515625   0.718750 0
  0.750000   0.625000 0
  0.515625   0.687500 0
  0.687500   0.984375 0
  0.750000   0.593750 0
  0.515625   0.656250 0
  0.531250   0.546875 0
  0.750000   0.562500 0
  0.515625   0.625000 0
  0.531250   0.515625 0
  0.984375   0.515625 0
  0.750000   0.578125 0
  0.515625   0.531250 0
  0.828125   0.796875 0
  0.640625   0.703125 0
  0.828125   0.765625 0
[...]
CELL_DATA 7648
SCALARS scalar_value float 1
LOOKUP_TABLE default
0
0
5.78072e-09
4.97638e-09
3.15821e-09
7.96982e-09
0.0106241
0.00805411
0.00670615
0.00698116
0.00144263
0.000850827
0.000419522
0.000803378
0.000261525
0.000261111
0.000159821
0.000481314
7.94359e-10
2.95411e-10
7.22638e-10
5.91096e-10
3.19921e-10
2.34177e-10
0
0
0
0
0
0
0
0
0.000130905
9.75462e-05
7.70704e-05
7.18969e-05
7.70515e-05
4.70436e-05
0
0
7.17016e-05
5.36579e-05
0
0
2.32947e-05
2.96354e-05
4.20655e-05
2.12478e-05
6.94991e-05
7.01408e-05
9.91137e-05
4.43496e-05
1.55029e-05
1.42354e-05
1.97531e-05
8.83124e-06
5.05922e-09
5.48379e-09
2.10366e-09
4.10594e-09
2.24678e-09
1.64215e-09
0.00032016
0.000212563
0.000164278
0.00011906
7.78939e-05
3.5316e-05
3.2691e-05
3.99052e-05
3.27372e-05
2.75544e-05
4.22558e-05
1.56816e-09
0
6.13513e-07
5.5365e-07
3.67306e-07
8.40301e-07
1.63208e-07
2.60519e-07
2.37522e-07
3.89566e-07
2.30109e-07
2.44356e-07
1.65497e-07
3.94972e-07
0
0
0
0.00339566
0.00271392
0.00256183
0.0022575
0.00195004
0.00162087
0.00120437
0.00175144
0.00124045
0.00102349
0.00103178
0.0014349
0.00108875
0.000882289
2.1998e-10
1.00368e-05
2.02369e-05
1.34613e-05
0
0
0
0
1.20536e-05
8.39965e-06
6.33501e-06
5.93996e-06
2.91669e-06
1.58214e-06
1.61701e-06
0.0016385
0.00114093
0.000978762
0.000922289
0.000623178
0.000539587
0.000687782
0.000369716
0
0
0
0
6.7878e-09
4.38387e-09
2.72877e-09
3.96058e-09
0.0131318
0.011281
0.0130135
0.0085518
9.29662e-05
0
0
1.84807e-05
1.11751e-05
1.09027e-05
5.98635e-06
2.07212e-06
4.22966e-06
3.51864e-09
1.93105e-09
1.45917e-09
1.03187e-10
0
0
0
2.67615e-10
1.91484e-10
1.06038e-10
2.89887e-10
0.0016968
0.00099268
0.000150123
0.000116637
7.15716e-05
0.000152005
0
0.000138482
0.000102522
6.50516e-05
0.000116827
0
0
0
0
3.16708e-06
2.17514e-06
0.00142405
0.0010821
0.000759782
0.0010802
0.0005703
0.000584372
0.000443556
0.000826381
0
0
0
0
0
0
0
0
0
0.000843201
0.000664923
0.000469297
0.000740555
0
0
0
0
0.0117319
0.00881375
0.00783461
0.00724267
4.22535e-05
3.02748e-05
0.00588752
0.00487274
0.00359912
0.00538681
0.00517473
0.00391108
0.00356924
0.00320838
0.00433113
0.00316955
0.00290182
0.00249305
4.33289e-06
3.63282e-06
4.89787e-06
2.38869e-06
7.84772e-06
1.54997e-05
6.60876e-06
0.000107892
6.35845e-05
4.10815e-05
7.27992e-05
0.0120704
0.00983445
0.0111226
0.00777658
2.29347e-08
1.46853e-08
9.10888e-09
1.24568e-08
0.00522182
0.00440143
0.00520408
0.00334605
3.51618e-09
2.21291e-09
1.31858e-09
1.93664e-09
0
0
0
0
0
0
0
0
0
0
0
0
0
3.85122e-08
2.53768e-08
1.64165e-08
2.24243e-08
4.67041e-08
3.03259e-08
3.62862e-08
1.95725e-08
1.51289e-08
9.57362e-09
1.0706e-08
6.37409e-09
1.68952e-06
2.75879e-06
1.21162e-06
2.52249e-07
1.7752e-07
1.14757e-07
1.85888e-07
4.91379e-10
2.65329e-10
2.01175e-10
0
0
0
0
0
0
0
0
0
0
0
0
0
5.31231e-09
3.18962e-09
0.000638819
0.00125738
0.000177425
1.257e-06
0.000272176
4.21579e-09
7.6051e-08
0.012717
0.00935002
1.02117e-05
0.00840097
0.0113996
0.00520506
7.37756e-06
0.00542999
1.92126e-05
1.39471e-05
4.99404e-05
3.56816e-05
3.06837e-05
5.96024e-05
0
0
0
2.13975e-10
4.97493e-10
5.84693e-09
6.05823e-09
5.32137e-09
0
5.77397e-07
1.36832e-07
3.82168e-07
2.09768e-07
0.00031059
0.000203547
2.81744e-06
0.0072835
0.00422727
0.00612859
0.00553374
0.00503345
0.0092058
0
0
0
0
0
0
9.53819e-05
0.000165917
0
0.000146796
0.000240353
2.41592e-05
0.00455648
6.7977e-10
0.00740261
0
0
0
0
0
2.58233e-08
1.39067e-08
1.38947e-08
9.00461e-09
1.10534e-08
0
4.31136e-10
5.34787e-08
3.45909e-08
2.25939e-08
1.04577e-08
0
0
0
0
0.00021079
0.000956802
2.12012e-09
3.78637e-08
3.9233e-08
3.43205e-08
1.55366e-08
0
3.27452e-08
0
0
0
1.88179e-09
1.90444e-09
3.3212e-09
3.00595e-09
1.05207e-09
1.81854e-09
2.27533e-10
3.4096e-09
3.62547e-10
4.57864e-09
1.72235e-09
3.94244e-09
2.08993e-10
0
0.00206626
4.80268e-10
0.00168978
2.99739e-10
2.62638e-09
0.00122052
0.00315174
1.70094e-10
0.00197865
0.0046216
2.73977e-10
0
0
0
0
0
2.29243e-08
0
0
4.34352e-06
0.010055
0
0
2.53248e-07
1.24265e-08
5.44292e-05
3.21056e-06
0.00305875
0.000100156
4.75697e-05
1.93069e-10
1.14441e-10
0.00162554
0.00421054
0
0
6.32798e-10
1.31724e-10
0
0
0.000142129
0
0
1.50933e-08
8.40732e-09
7.35753e-10
0
0
0
0
0
1.5935e-06
6.02314e-07
4.12384e-07
3.12086e-08
0
0
4.935e-09
0.00278354
0.00445528
5.01641e-07
1.03226e-06
1.43217e-09
8.26826e-09
2.90119e-10
2.79109e-07
1.02902e-08
6.55241e-09
2.30994e-08
3.82023e-09
6.17514e-09
1.7228e-08
1.0258e-08
1.60582e-08
7.29453e-08
0.0121649
0.00923728
1.17106e-06
0
0
0
0
9.77255e-09
5.90915e-06
4.43546e-05
1.44341e-05
7.14749e-06
8.44152e-07
5.50041e-05
4.26362e-09
7.50714e-09
0
0
0
2.29312e-09
7.9345e-08
1.34035e-10
7.89348e-10
5.48282e-10
1.52525e-09
4.469e-10
0.000149907
0
6.44002e-05
1.0418e-08
5.92977e-09
0.00651559
1.3301e-06
1.28559e-06
7.62597e-07
4.27529e-08
1.16444e-09
1.70123e-10
5.46244e-10
0
0
0
0
0
0
0
0
0
0
0
0
0.000169284
8.70953e-05
2.31761e-07
2.69428e-06
6.07888e-09
0
6.20925e-10
1.1378e-06
5.36881e-07
0
0.000807535
0
3.08382e-09
1.26663e-10
0
0
0
0
2.24571e-10
1.23291e-10
0.000410512
0.00335376
0
0.00349971
0.00257
1.51212e-06
3.65027e-07
9.76977e-10
9.70794e-09
0.00812402
2.39046e-09
0.00022996
1.28598e-10
0
4.37089e-05
9.07322e-05
0
5.9335e-05
8.61948e-08
2.3441e-08
5.60735e-08
3.30701e-07
7.75889e-07
5.56247e-08
7.01145e-08
1.57111e-08
2.68999e-08
6.09789e-06
4.41683e-06
2.13455e-06
2.69222e-06
1.3433e-06
5.23283e-06
2.08419e-06
0.00039049
2.97146e-06
2.16379e-06
0
8.17892e-07
5.64567e-07
4.04208e-07
5.4109e-06
4.64595e-07
9.97124e-06
0.000107806
4.04507e-05
2.75539e-07
3.61128e-06
0.000142386
1.63659e-07
1.09064e-06
1.06359e-05
7.81619e-07
5.24024e-07
1.20552e-06
1.09674e-05
1.45677e-05
1.6085e-06
2.18946e-08
0.00491906
0.00406774
0.000129224
0
1.17686e-06
6.57848e-10
0
2.27938e-09
1.38895e-10
1.2572e-07
2.10072e-09
1.16382e-09
0.000288068
4.37884e-08
0.00569581
4.11237e-08
3.58253e-08
0
5.61904e-09
1.3836e-08
0.00636481
0.000158907
9.54433e-07
8.2451e-07
3.7189e-07
4.07057e-07
0.000227934
2.89418e-06
0
7.98061e-07
1.17299e-08
0.00796394
2.92847e-09
0
0
0
6.28786e-09
0.00399553
0
0
0
0
0
0
0
0
1.73807e-06
6.84248e-07
1.54259e-08
0.00198386
3.56589e-07
1.63033e-05
0
9.17108e-07
0
8.07545e-06
0.000147313
1.36608e-05
5.93435e-10
0.00447914
9.36704e-05
1.15607e-10
4.4116e-06
0
0
0
2.31303e-05
6.50101e-07
1.72552e-05
3.33771e-07
0.000602695
0
0.00048868
3.82106e-07
0
8.70928e-06
6.42135e-10
8.89611e-10
2.69338e-08
2.22224e-10
2.4059e-10
0.000651699
2.09578e-10
3.67332e-10
0.000129756
6.45097e-10
1.07784e-09
3.59214e-10
1.03374e-09
0
0
0
0
1.51214e-05
0
8.40394e-07
9.956e-06
0
3.60037e-10
3.68293e-05
0
2.11224e-07
0
1.1067e-07
0
0.000350626
0
6.31461e-10
0
2.75135e-05
0
0
2.26764e-06
1.41343e-07
2.28719e-07
0
3.94746e-07
0.000933309
3.90049e-09
2.17809e-05
3.2081e-05
3.74758e-06
1.18584e-08
1.01232e-06
5.86227e-06
0
0
0
5.07828e-07
3.60996e-06
4.9742e-09
0
9.08628e-07
7.83094e-06
1.27141e-06
1.71944e-06
1.63245e-05
0
0
5.09225e-05
0
0
1.54715e-09
7.98557e-08
0
9.29888e-05
2.27427e-08
5.80483e-10
3.3963e-08
2.79959e-08
3.14385e-08
7.52642e-05
1.06966e-09
1.125e-10
0
3.32269e-09
8.04754e-05
1.74081e-06
0
0.000323449
0
6.4203e-10
2.76709e-10
3.61563e-09
4.02572e-10
5.55173e-06
0.000333799
0
0.000129526
2.26962e-09
0.00110671
0.00319161
0
1.38482e-07
0.00185426
0.00471698
0
9.40809e-05
6.6827e-08
1.91287e-07
0
4.37845e-08
0
0
9.68507e-08
1.64256e-07
0
2.37178e-07
1.01478e-07
2.66453e-08
0
0
4.72987e-08
5.82792e-08
0.0139677
0
8.17188e-10
2.98525e-08
0.0133403
0
1.14215e-09
1.11091e-05
4.96746e-08
5.38776e-07
2.19455e-05
0
3.63633e-05
1.73036e-07
1.56454e-07
1.40911e-09
0.00434974
0
0
0.000420173
0
0.00333771
4.10393e-10
8.14716e-06
3.73214e-09
0
1.08596e-05
6.80904e-09
0
1.79925e-06
3.14452e-09
1.19298e-09
1.11833e-06
6.50374e-05
1.49999e-08
9.28595e-09
0.0125104
0.000251295
1.78693e-05
3.77429e-08
4.27093e-06
1.25048e-07
0
3.42612e-06
1.00066e-07
1.29091e-07
0
0
0
0
4.66286e-06
0
0
3.36668e-05
2.43539e-05
0
2.77908e-09
1.40546e-08
1.14466e-07
8.54919e-10
2.39146e-08
2.17335e-09
9.89697e-09
3.83125e-09
0
2.70211e-08
2.11236e-08
0.00277168
3.16403e-06
1.29804e-08
8.71947e-08
6.95792e-07
4.0499e-08
0.000369623
6.22371e-08
2.70595e-08
0.000194231
2.19294e-06
1.59919e-10
0.0140129
0.00397945
2.5734e-09
1.20488e-05
3.5366e-08
2.77175e-06
2.48976e-06
3.6663e-06
1.00758e-10
2.39688e-09
0.000179776
1.84088e-08
0.00137326
1.59453e-06
5.04965e-08
2.06914e-06
0
0
0
8.43707e-09
3.25718e-08
1.91628e-07
1.30149e-07
2.45245e-08
0
0
0
6.0019e-09
5.73411e-08
0
0.00015445
2.16795e-05
0.000115376
0.000336966
6.87582e-05
0
2.78033e-05
5.41706e-10
0
1.32187e-06
3.31339e-07
0.00393283
8.86861e-05
6.76613e-06
0
1.45318e-05
0
0
2.46376e-05
0.000175871
0
0
0
0
0
0
0
1.57478e-09
0
5.58828e-05
6.95701e-06
4.13952e-06
4.40454e-08
4.84231e-06
0
0
4.90553e-07
1.11118e-08
0
4.28696e-09
0
0
0
0
0
5.6697e-07
4.1558e-07
0
0
2.03632e-07
1.26836e-06
0
0
0.000118086
5.11237e-06
5.97658e-08
7.86372e-10
0
1.87559e-05
1.07451e-06
0
4.94563e-06
0.000366634
2.09851e-05
6.62929e-08
0
1.84574e-05
2.82898e-06
0
2.83079e-06
2.78732e-05
1.61431e-08
0
0
9.77507e-07
0.00139848
0
6.02716e-07
0
1.50443e-06
7.59758e-07
0
2.4406e-08
2.60506e-09
0.00244355
0.00600391
9.31947e-07
3.93569e-06
6.75669e-06
0
1.73945e-10
0
0
8.74372e-08
9.89243e-05
0.00019933
0
8.73217e-06
0
4.03698e-05
4.69871e-06
2.30141e-05
0
8.35636e-08
4.40957e-05
0
1.23958e-05
0
2.77418e-06
3.08089e-06
6.59334e-05
7.49062e-06
0
0.0118256
0
1.69934e-08
1.59242e-09
2.80765e-08
1.01455e-05
1.93847e-06
2.54072e-06
0
0
1.31771e-09
4.51902e-09
0
0
0
3.47775e-07
0
5.90437e-06
0
5.63601e-07
2.16555e-09
0
0
2.69506e-07
1.86817e-06
8.59028e-07
1.78257e-10
0
0
6.97832e-06
8.02196e-06
1.25607e-05
4.87275e-06
5.67694e-07
0.000942444
1.90422e-06
0.00315601
0.00183182
1.57346e-07
2.08033e-07
0.000426923
0
0
0
2.01782e-05
0
2.11283e-10
0
8.88655e-07
5.9277e-05
6.14368e-05
2.07867e-05
3.08042e-05
0
3.09706e-07
6.22837e-10
0
0
0
0
0
3.17843e-06
8.37926e-06
0
0
0
2.42241e-07
2.29048e-06
0
1.64471e-07
1.47944e-06
1.33766e-07
7.94249e-07
4.17251e-05
0.000330967
0
0.000733712
0
0
3.54112e-05
0
0
6.44501e-06
0
0
0
0
0
0
0
0
1.54037e-05
0
2.62209e-05
0
0
2.0111e-06
2.27301e-10
8.11799e-08
0.00402808
5.90584e-08
0.00442098
3.65881e-09
8.08217e-09
4.24824e-06
1.68909e-06
0
0
0
0
4.61489e-07
1.08107e-07
0
0
4.19393e-05
5.89178e-05
2.33255e-09
9.25419e-05
0
8.56989e-06
1.14968e-05
1.89797e-05
0
0
0
0
0
0
0
0
8.29437e-06
0
1.71957e-10
1.63183e-05
6.88528e-05
0
1.07897e-05
2.19049e-05
6.96683e-06
1.36172e-05
1.86742e-06
0
0
0
4.54916e-08
0
0
0
1.0523e-07
1.00095e-08
1.80733e-08
0
0
8.19333e-09
0
0
1.79647e-08
0
7.11054e-09
0
6.96076e-09
0
0.00202519
0.000636116
0.000143218
0
0.0012248
0
0.0020198
0.000198899
0.00308805
2.13308e-08
3.59521e-06
2.34899e-10
2.00852e-06
0
5.404e-06
0
0
0
0
0
0
0
0
0
0
0
1.1897e-06
0
0
0
4.21636e-10
1.0894e-09
3.11064e-07
0
0.000243032
3.99451e-05
2.3991e-10
0.00471104
1.06942e-10
6.35673e-06
1.11279e-05
0.0109398
4.01465e-06
1.50994e-05
0
6.40406e-07
4.93762e-05
0
0
9.39126e-08
1.05954e-08
9.86572e-10
5.70776e-08
4.75299e-09
2.01871e-09
7.90818e-08
9.13443e-05
3.72279e-10
1.42245e-05
1.95924e-08
3.16782e-06
0
0
4.91282e-08
1.10674e-06
4.93794e-06
2.61517e-08
0
8.50931e-07
5.82412e-08
5.52542e-07
4.95815e-07
2.59513e-07
1.80721e-07
9.60716e-06
1.74864e-05
2.99907e-05
6.24451e-10
8.72826e-08
5.61609e-08
0
0
2.72029e-08
1.74692e-09
1.1627e-07
2.45863e-07
4.45104e-05
7.00466e-06
0
0.00208255
0.000541177
0
5.12909e-10
0
0
7.17134e-08
0
0
0
0
9.4184e-10
2.53708e-05
6.41811e-06
3.14317e-09
0.00022893
0.000305811
0.000324615
0.00048188
0.00193126
5.27252e-05
0
0
0
0
0
0
0
0
0
0
0
0
2.00644e-07
0
0
0
0
0
0
0
1.55007e-10
3.18363e-07
2.68091e-07
1.20239e-06
7.2194e-07
8.02369e-08
5.63745e-08
4.77061e-10
0.00266456
0.00317354
1.4324e-08
0.00757697
0.00954498
1.42269e-09
0.00246981
4.37897e-05
2.86812e-05
3.24765e-05
6.56132e-06
6.47111e-08
0.000293036
1.47072e-05
0.000209947
0.000145916
0.000251701
0.000416518
0
1.05899e-10
0
1.20804e-10
1.7137e-06
0.000395153
0.000412817
1.30553e-10
2.46391e-05
1.51026e-05
1.15791e-05
2.66844e-05
2.04004e-10
7.75943e-10
0
0
0
0
0
0
1.08136e-10
0.000218365
2.98093e-05
9.17209e-05
9.0933e-05
0.000100895
0.000148961
0.000390721
1.77923e-10
0
0
0
1.52452e-07
6.23969e-06
0.000867061
3.92914e-07
0
0
0
0
0
0
0.00071523
0.00058097
0.000644916
1.26577e-08
1.32785e-10
0
1.26609e-10
0
0
9.35862e-09
2.02051e-08
6.7849e-08
3.97059e-08
6.971e-06
7.31161e-06
9.15814e-06
1.53856e-05
1.47998e-05
2.54695e-05
2.7397e-06
1.11774e-07
1.11077e-08
4.23603e-09
5.28917e-09
9.95491e-10
1.00732e-10
1.20527e-05
3.90921e-05
6.25041e-05
0.0001035
0
0
0
0.00030542
0
3.06331e-06
2.00687e-06
5.16824e-06
6.92935e-06
0.000995093
2.63517e-08
1.47081e-06
1.74645e-06
3.22594e-06
6.05936e-10
9.73606e-08
0.000339437
0.00125018
3.99717e-07
9.93532e-08
6.57314e-07
1.56306e-07
9.04185e-07
2.80824e-05
2.4039e-05
3.27666e-05
5.22296e-05
5.22572e-08
5.56852e-10
1.32362e-09
0
3.72013e-10
1.71468e-05
3.50079e-06
1.90367e-09
4.45496e-05
8.88917e-10
3.24855e-10
1.68967e-09
4.98241e-06
4.13785e-07
2.96423e-07
5.47016e-07
0
0
0
0
0
1.14108e-10
1.49526e-10
0
1.79197e-10
3.30812e-10
7.49112e-06
0.000340227
1.71931e-07
0.000483133
0.000328116
3.08959e-09
4.29727e-09
5.28698e-09
0
0.00145968
0.00194959
0.000217828
0.000581822
3.67966e-06
2.79131e-06
3.5356e-06
1.39257e-09
1.15575e-09
2.99937e-05
8.76858e-08
7.61062e-08
1.65258e-09
4.08118e-09
2.00137e-06
0
0
1.21083e-07
0
0
0
0
1.42146e-07
0
0
0
1.41499e-07
0.000202927
0.000217035
0.000246106
9.10543e-07
1.413e-06
0
0
0
0
5.83693e-05
0.000189983
1.09004e-08
0.00016008
0.000493883
0
0
0
0
0
0
0
0
0
4.28647e-10
1.45046e-09
2.29487e-09
3.86328e-07
6.63696e-07
0.00024646
0.0019484
4.23748e-07
0.000940003
0
7.21263e-07
1.21985e-06
4.02908e-08
3.40712e-10
2.47796e-06
5.46445e-05
0.000117839
0.000598981
2.34271e-05
2.18688e-08
1.58636e-10
6.50638e-08
0
2.69925e-10
1.74835e-10
0
1.9156e-09
1.61488e-09
0.000122572
2.28838e-10
4.82452e-10
1.72412e-05
1.839e-05
1.1579e-05
0
0
0
0
1.43889e-09
0
2.31754e-09
2.31093e-07
0
0
0
9.25761e-07
1.23676e-06
0
0
0
0
0.00270626
0.00266142
0
0
0
1.58593e-07
0
0
0
0
0
0
0.00198213
0.00168047
1.32456e-09
4.18917e-10
7.13987e-10
6.82477e-10
0
0
0
2.98478e-07
0
1.53974e-05
1.05779e-05
1.28679e-05
0.000627725
1.08969e-05
9.17913e-06
1.40567e-05
2.35779e-05
6.80974e-05
0.000250219
4.81544e-10
2.90099e-07
0.000638804
1.53619e-10
2.59518e-10
0.00255037
0.00689058
1.03607e-09
2.88737e-06
2.8508e-10
2.21174e-10
7.30671e-10
1.23057e-07
2.99364e-07
9.12078e-09
2.50702e-08
0.000309397
7.03817e-09
6.381e-09
5.77057e-09
2.77656e-09
0
3.23523e-07
3.60689e-07
4.48469e-07
6.7092e-08
0
0
0
0
0
0
8.89569e-07
1.18889e-06
0
0
0
0
0
5.42437e-09
1.69119e-06
2.34006e-06
3.78491e-06
0
0
0
0
0
0.000242873
7.13889e-09
1.04923e-08
0
1.87722e-08
1.32834e-09
3.83373e-09
9.54546e-08
1.7675e-07
0
0
0
0
0
0
0
0
0
6.61831e-05
0.000102652
1.38018e-09
0
0
4.6519e-05
0.000127095
0
8.66855e-05
0.000160348
0.000115874
0.000135017
8.36286e-10
0
0
0
0
3.48153e-07
0
1.32192e-08
0.000245325
0.000283426
0.000322348
1.27262e-06
5.48004e-07
4.90173e-07
0.0014878
0.00197992
0.00259689
0
0
0
0.000443286
0.000277835
0.00042958
0.000571187
3.75714e-09
3.5044e-10
2.90608e-10
0
4.8138e-10
8.13668e-10
0
0
0
0.00067227
0
0
9.22623e-07
3.369e-10
8.52685e-10
0
0
0
0
0.000114748
0
0
0
1.37523e-07
8.54959e-05
5.49058e-05
4.77963e-05
0
0
0
0
0
4.00199e-06
6.72921e-06
1.53082e-05
0
0
0
4.79263e-08
8.98774e-10
2.71725e-09
0.000113548
0.000222728
4.55723e-06
1.79496e-07
0.000412855
0.000727175
0.000602435
0.000175344
8.51065e-06
0.00103101
0.00115959
0.00169151
2.13791e-06
1.98017e-10
3.85241e-06
3.37885e-10
8.56677e-09
3.00963e-09
4.34535e-09
4.61733e-10
8.24572e-10
1.22064e-09
0.00275406
0.00327386
3.89833e-06
0
0
0
0
0
0
0
0
0
3.47673e-10
0
0
0
0
0
9.16079e-06
0
1.46297e-06
1.94437e-06
9.89908e-06
2.1411e-06
0.000179299
0.000215229
0.000366162
1.18575e-10
1.28719e-10
1.30631e-10
0.000723372
0.000866918
1.29672e-10
2.9338e-10
3.47314e-08
5.07533e-08
7.68932e-08
9.60084e-06
2.07759e-05
5.62327e-05
2.6778e-05
3.24527e-05
0
0
0
0
7.58449e-05
6.47978e-08
1.08139e-07
9.34386e-09
6.968e-08
0.000496694
0.00231385
2.34812e-05
3.17288e-05
4.91295e-05
0.000971363
0.000996804
0.0012499
0.000516045
0.00113007
0.00163223
0.00178401
5.78947e-07
1.13361e-07
7.45804e-07
0.000319612
3.10101e-05
4.85278e-05
0
0
0
2.50573e-06
5.07279e-06
2.0477e-05
1.28695e-09
3.45039e-05
2.46104e-09
1.10509e-08
6.50921e-08
1.21352e-07
1.70114e-07
4.40971e-06
5.38995e-06
1.53538e-08
3.86436e-08
0
0
0
0
1.34805e-09
1.14168e-05
4.43661e-10
8.26578e-10
0
5.05398e-10
2.65472e-10
1.51336e-07
0
0
0
0
0
0
0
0
0.000194408
0.000290271
2.12212e-06
6.21373e-06
0
0
0
0
0
0
0
0
0
0
0.000192379
0.00025117
0
0
0.000315544
0.000491093
0.000491086
0.000439657
3.31935e-05
3.34982e-05
2.2535e-07
1.36299e-10
2.67027e-07
1.92992e-07
1.49796e-06
2.81865e-06
0
0
0
0
0.00142712
0.0616944
0.11429
0.330739
0.339787
0.296441
0.258969
0.173299
0.0986061
0.0486169
0.0213155
0.0138073
0.33128
0.308295
0.2745
0.233825
0.190753
0.149288
0.112313
0.0814066
0.0569967
0.0386818
0.0255714
0.0165957
0.000467141
0.00232401
0.0374613
0.079123
0.134077
0.335215
0.323624
0.298985
0.264801
0.224811
0.143047
0.0777068
0.0367286
0.0158128
0.335376
0.327882
0.307709
0.276997
0.239168
0.198097
0.157471
0.120229
0.0882745
0.06245
0.0427274
0.0284838
0.0187158
0.00089862
0.00380418
0.052848
0.102205
0.154232
0.327281
0.293146
0.261397
0.224029
0.184496
0.145962
0.11092
0.0809837
0.0568764
0.0255705
0.318417
0.299602
0.270972
0.23572
0.197172
0.158504
0.122385
0.0907193
0.0645615
0.0441937
0.0293544
0.0194274
0.000309775
0.00160712
0.00617
0.0755621
0.126752
0.172224
0.302606
0.250918
0.216223
0.179451
0.143258
0.109829
0.0807112
0.0567552
0.0382005
0.0166654
0.311352
0.303815
0.28541
0.258411
0.225688
0.190016
0.154016
0.119953
0.089549
0.0638877
0.0434325
0.0282309
0.0184272
0.000249945
0.000606649
0.00272354
0.0175244
0.0489782
0.105729
0.292116
0.297712
0.263572
0.203922
0.170226
0.136881
0.105712
0.0780902
0.054871
0.0230257
0.0140925
0.041267
0.28679
0.295502
0.285827
0.267302
0.241879
0.211772
0.179178
0.146212
0.114727
0.0861936
0.0616255
0.0415713
0.026306
0.0165775
0.000194448
0.00106631
0.00440101
0.0269476
0.0728674
0.131333
0.284352
0.286351
0.286534
0.266176
0.219742
0.15974
0.129238
0.100473
0.0746097
0.0524673
0.0345257
0.0139925
0.00013048
0.00647793
0.0216506
0.0617811
0.280247
0.283701
0.279075
0.267543
0.24923
0.225368
0.197628
0.167846
0.137742
0.108812
0.0822744
0.059054
0.0397491
0.024773
0.0151519
0.000143931
0.000360404
0.00173176
0.006792
0.0127168
0.0401254
0.101276
0.266805
0.272081
0.271623
0.264723
0.231205
0.179529
0.122836
0.0960491
0.0717514
0.0507104
0.0202508
0.000249969
0.00981667
0.0320466
0.0869736
0.265524
0.268516
0.264416
0.253248
0.235616
0.2129
0.186847
0.159138
0.131214
0.104254
0.0793266
0.0153995
0.00985347
8.79744e-08
0.00494335
9.86521e-07
1.02364e-07
3.29699e-07
9.30753e-07
2.94176e-05
0.000124835
0.00736863
0.000317508
0.000650811
0.00198489
0.0045869
0.00847803
0.0130052
0.0151071
0.0179912
0.0180171
0.0148508
0.00991403
0.00512936
0.00352406
2.76553e-06
5.95843e-05
0.00773574
0.0107699
0.00849041
2.26139e-08
0.00499917
5.86129e-08
0.00259951
5.21355e-09
9.33297e-08
2.25162e-07
1.2661e-06
2.73438e-05
9.05744e-05
0.000231915
0.0573258
0.00050297
0.0241703
0.0016255
0.00360684
0.00627649
0.00906299
0.0102151
0.0114225
0.0106705
0.00822123
0.00508027
3.83799e-08
0.00252793
3.38477e-06
0.0539496
0.11949
4.96723e-05
0.0709722
0.0339788
0.00532801
0.00697879
0.00441362
1.60038e-08
0.0024151
6.31482e-09
0.00554978
0.25121
1.63791e-08
3.56982e-08
0.243326
6.37554e-08
0.205492
1.56049e-07
1.52104e-06
2.52944e-05
0.178973
0.0787659
7.72396e-05
0.00020329
0.0396918
0.000445027
0.0153236
0.00131143
0.00266364
0.00432759
0.00588049
0.00643246
0.00674161
0.00676223
0.00593085
0.00430067
0.00247302
4.27551e-08
0.215771
4.36973e-06
0.0358454
0.095091
5.22038e-05
0.0526717
0.0235404
0.00341078
0.00421533
0
0.00224232
1.25755e-08
0.00139076
7.17922e-10
5.90593e-09
0.00827877
0.238185
1.29801e-08
0.219936
3.86323e-08
0.176895
1.07934e-07
0.128087
2.16668e-06