# vtk DataFile Version 2.0
Unstructured Grid by M++
ASCII
DATASET UNSTRUCTURED_GRID
POINTS 4072 float
  0.828125   0.890625 0
  0.875000   0.531250 0
  0.828125   0.750000 0
  0.593750   0.968750 0
  0.828125   0.671875 0
  0.828125   0.875000 0
  0.593750   0.937500 0
  0.828125   0.656250 0
  0.828125   0.640625 0
  0.828125   0.843750 0
  0.593750   0.906250 0
  0.828125   0.625000 0
  0.781250   0.968750 0
  0.828125   0.609375 0
  0.828125   0.812500 0
  0.593750   0.875000 0
  0.593750   0.828125 0
  0.593750   0.796875 0
  0.828125   0.703125 0
  0.593750   0.765625 0
  0.828125   0.937500 0
  0.812500   0.875000 0
  0.859375   0.515625 0
  0.812500   0.734375 0
  0.812500   0.937500 0
  0.578125   1.000000 0
  0.578125   0.750000 0
  0.812500   0.687500 0
  0.578125   0.953125 0
  0.812500   0.656250 0
  0.812500   0.859375 0
  0.578125   0.921875 0
  0.812500   0.828125 0
  0.578125   0.890625 0
  0.812500   0.593750 0
  0.812500   0.796875 0
  0.578125   0.859375 0
  0.578125   0.812500 0
  0.578125   0.781250 0
  0.796875   1.000000 0
  0.796875   0.859375 0
  0.796875   0.718750 0
  0.562500   0.984375 0
  0.562500   0.937500 0
  0.796875   0.843750 0
  0.562500   0.906250 0
  0.796875   0.812500 0
  0.562500   0.875000 0
  0.796875   0.578125 0
  0.796875   0.781250 0
  0.562500   0.843750 0
  0.812500   0.984375 0
  0.562500   0.796875 0
  0.812500   0.953125 0
  0.562500   0.765625 0
  0.796875   0.937500 0
  0.546875   0.750000 0
  0.781250   0.984375 0
  0.828125   0.593750 0
  0.781250   0.843750 0
  0.781250   0.937500 0
  0.546875   1.000000 0
  0.781250   0.703125 0
  0.546875   0.968750 0
  0.546875   0.921875 0
  0.781250   0.828125 0
  0.546875   0.890625 0
  0.781250   0.796875 0
  0.546875   0.859375 0
  0.781250   0.562500 0
  0.781250   0.765625 0
  0.546875   0.828125 0
  0.796875   0.968750 0
  0.546875   0.781250 0
  0.765625   1.000000 0
  0.765625   0.968750 0
  0.531250   0.984375 0
  0.765625   0.687500 0
  0.531250   0.953125 0
  0.531250   0.937500 0
  0.531250   0.906250 0
  0.765625   0.812500 0
  0.531250   0.875000 0
  0.765625   0.781250 0
  0.531250   0.843750 0
  0.781250   1.000000 0
  0.765625   0.546875 0
  0.765625   0.750000 0
  0.531250   0.812500 0
  0.781250   0.953125 0
  0.531250   0.765625 0
  0.515625   0.750000 0
  0.750000   0.984375 0
  0.750000   0.953125 0
  0.796875   0.593750 0
  0.796875   0.562500 0
  0.750000   0.843750 0
  0.750000   0.937500 0
  0.515625   1.000000 0
  0.750000   0.906250 0
  0.515625   0.968750 0
  0.750000   0.671875 0
  0.750000   0.875000 0
  0.515625   0.937500 0
  0.515625   0.921875 0
  0.515625   0.890625 0
  0.750000   0.796875 0
  0.515625   0.859375 0
  0.750000   0.765625 0
  0.515625   0.828125 0
  1.000000   0.718750 0
  0.750000   0.531250 0
  0.750000   0.734375 0
  0.515625   0.796875 0
  0.734375   1.000000 0
  0.734375   0.968750 0
  0.734375   0.937500 0
  0.781250   0.578125 0
  0.781250   0.546875 0
  0.968750   0.578125 0
  0.734375   0.828125 0
  0.968750   0.546875 0
  0.734375   0.796875 0
  0.734375   0.765625 0
  0.968750   0.671875 0
  0.734375   0.734375 0
  0.968750   0.640625 0
  0.734375   0.703125 0
  0.968750   0.609375 0
  0.734375   0.671875 0
  0.734375   0.656250 0
  0.734375   0.625000 0
  0.968750   0.531250 0
  0.734375   0.593750 0
  0.984375   0.734375 0
  0.984375   0.703125 0
  0.734375   0.515625 0
  0.718750   0.984375 0
  0.718750   0.953125 0
  0.718750   0.921875 0
  0.953125   0.562500 0
  0.718750   0.812500 0
  0.953125   0.531250 0
  0.718750   0.781250 0
  0.718750   0.750000 0
  0.953125   0.656250 0
  0.718750   0.718750 0
  0.953125   0.625000 0
  0.718750   0.687500 0
  0.953125   0.593750 0
  0.718750   0.656250 0
  0.671875   1.000000 0
  0.718750   0.640625 0
  0.718750   0.609375 0
  0.953125   0.515625 0
  0.718750   0.578125 0
  0.968750   0.718750 0
  0.968750   0.687500 0
  0.953125   0.671875 0
  0.703125   0.968750 0
  0.703125   0.937500 0
  0.937500   0.656250 0
  0.703125   0.906250 0
  0.937500   0.546875 0
  0.703125   0.796875 0
  0.937500   0.515625 0
  0.703125   0.765625 0
  0.937500   0.671875 0
  0.703125   0.734375 0
  0.937500   0.640625 0
  0.703125   0.703125 0
  0.937500   0.609375 0
  0.703125   0.671875 0
  0.937500   0.578125 0
  0.703125   0.640625 0
  0.656250   0.984375 0
  0.703125   0.625000 0
  0.703125   0.593750 0
  0.718750   0.796875 0
  0.953125   0.734375 0
  0.812500   1.000000 0
  0.859375   0.656250 0
  0.703125   0.781250 0
  0.937500   0.718750 0
  0.953125   0.703125 0
  0.796875   0.984375 0
  0.843750   0.640625 0
  0.812500   0.968750 0
  0.859375   0.625000 0
  0.796875   0.953125 0
  0.843750   0.609375 0
  0.687500   0.953125 0
  0.687500   0.921875 0
  0.687500   0.890625 0
  0.921875   0.734375 0
  0.687500   0.796875 0
  0.687500   0.781250 0
  0.921875   0.703125 0
  0.687500   0.765625 0
  0.687500   0.750000 0
  0.921875   0.656250 0
  0.687500   0.718750 0
  0.921875   0.625000 0
  0.687500   0.687500 0
  0.921875   0.593750 0
  0.687500   0.656250 0
  0.640625   1.000000 0
  0.921875   0.562500 0
  0.687500   0.625000 0
  0.640625   0.968750 0
  0.687500   0.609375 0
  0.687500   0.578125 0
  0.937500   0.687500 0
  0.921875   0.671875 0
  0.671875   0.921875 0
  0.906250   0.656250 0
  0.671875   0.906250 0
  0.671875   0.875000 0
  0.906250   0.718750 0
  0.671875   0.781250 0
  0.671875   0.765625 0
  0.671875   0.734375 0
  0.906250   0.640625 0
  0.671875   0.703125 0
  0.906250   0.609375 0
  0.671875   0.671875 0
  0.906250   0.578125 0
  0.671875   0.640625 0
  0.625000   0.984375 0
  0.671875   0.609375 0
  0.625000   0.953125 0
  0.671875   0.593750 0
  0.671875   0.562500 0
  0.765625   0.953125 0
  0.812500   0.609375 0
  0.656250   1.000000 0
  0.656250   0.953125 0
  0.656250   0.906250 0
  0.890625   0.640625 0
  0.656250   0.890625 0
  0.656250   0.859375 0
  0.890625   0.734375 0
  0.656250   0.796875 0
  0.812500   0.921875 0
  0.562500   1.000000 0
  0.625000   0.828125 0
  0.812500   0.843750 0
  0.843750   0.593750 0
  0.812500   0.812500 0
  0.625000   0.718750 0
  0.828125   0.687500 0
  0.640625   0.593750 0
  0.812500   0.781250 0
  0.625000   0.687500 0
  0.765625   0.828125 0
  0.640625   0.562500 0
  0.812500   0.750000 0
  0.562500   0.828125 0
  0.781250   0.875000 0
  0.546875   0.937500 0
  0.781250   0.671875 0
  0.781250   0.593750 0
  0.546875   0.656250 0
  0.796875   0.750000 0
  0.562500   0.812500 0
  0.796875   0.546875 0
  0.765625   0.796875 0
  0.765625   0.593750 0
  1.000000   0.531250 0
  0.812500   0.718750 0
  0.859375   0.562500 0
  0.625000   0.625000 0
  0.812500   0.703125 0
  0.812500   0.906250 0
  0.578125   0.968750 0
  0.984375   0.593750 0
  0.828125   0.578125 0
  0.828125   0.781250 0
  0.593750   0.843750 0
  0.812500   0.671875 0
  0.625000   0.578125 0
  0.796875   0.671875 0
  0.562500   0.734375 0
  0.984375   0.562500 0
  0.828125   0.546875 0
  0.812500   0.640625 0
  0.750000   0.812500 0
  0.625000   0.546875 0
  0.796875   0.640625 0
  0.562500   0.703125 0
  0.828125   0.515625 0
  0.781250   0.734375 0
  0.546875   0.796875 0
  0.781250   0.531250 0
  0.750000   0.781250 0
  0.625000   0.515625 0
  0.796875   0.609375 0
  0.562500   0.671875 0
  0.765625   0.656250 0
  0.765625   0.859375 0
  0.531250   0.921875 0
  0.812500   0.578125 0
  0.562500   0.656250 0
  0.984375   0.687500 0
  0.750000   0.750000 0
  0.812500   0.562500 0
  0.812500   0.765625 0
  0.578125   0.828125 0
  0.562500   0.625000 0
  0.984375   0.656250 0
  0.750000   0.718750 0
  0.812500   0.531250 0
  0.781250   0.656250 0
  0.546875   0.718750 0
  0.781250   0.625000 0
  0.546875   0.687500 0
  0.750000   0.640625 0
  0.796875   0.531250 0
  0.562500   0.593750 0
  0.984375   0.625000 0
  0.750000   0.687500 0
  0.546875   0.984375 0
  0.609375   0.812500 0
  0.796875   0.875000 0
  0.546875   0.953125 0
  0.609375   0.578125 0
  0.843750   0.515625 0
  0.765625   0.515625 0
  0.765625   0.718750 0
  0.531250   0.781250 0
  0.984375   0.546875 0
  0.750000   0.609375 0
  0.796875   0.828125 0
  0.671875   0.968750 0
  0.796875   0.796875 0
  0.796875   0.765625 0
  0.609375   0.671875 0
  0.796875   0.734375 0
  0.546875   0.812500 0
  0.796875   0.703125 0
  0.843750   0.546875 0
  0.609375   0.609375 0
  0.796875   0.687500 0
  0.562500   0.953125 0
  0.796875   0.656250 0
  0.609375   0.562500 0
  0.796875   0.625000 0
  0.609375   0.531250 0
  0.546875   0.640625 0
  0.765625   0.671875 0
  0.531250   0.734375 0
  0.796875   0.515625 0
  0.765625   0.640625 0
  0.531250   0.703125 0
  0.703125   1.000000 0
  0.765625   0.609375 0
  0.531250   0.671875 0
  0.765625   0.578125 0
  0.531250   0.640625 0
  0.546875   0.609375 0
  0.531250   1.000000 0
  0.890625   0.593750 0
  0.656250   0.656250 0
  0.781250   0.515625 0
  0.546875   0.578125 0
  0.531250   0.968750 0
  0.890625   0.562500 0
  0.656250   0.625000 0
  0.609375   0.968750 0
  0.781250   0.859375 0
  0.656250   0.593750 0
  0.750000   0.703125 0
  0.515625   0.765625 0
  0.781250   0.812500 0
  0.781250   0.781250 0
  0.593750   0.687500 0
  0.781250   0.750000 0
  0.593750   0.656250 0
  0.781250   0.718750 0
  0.531250   0.796875 0
  0.828125   0.562500 0
  0.593750   0.625000 0
  0.781250   0.687500 0
  0.828125   0.531250 0
  0.593750   0.593750 0
  0.812500   0.625000 0
  0.578125   0.687500 0
  0.781250   0.640625 0
  0.781250   0.609375 0
  0.593750   0.515625 0
  0.515625   0.781250 0
  0.812500   0.546875 0
  0.578125   0.609375 0
  0.812500   0.515625 0
  0.578125   0.578125 0
  0.750000   0.656250 0
  0.515625   0.718750 0
  0.750000   0.625000 0
  0.515625   0.687500 0
  0.687500   0.984375 0
  0.750000   0.593750 0
  0.515625   0.656250 0
  0.531250   0.546875 0
  0.750000   0.562500 0
  0.515625   0.625000 0
  0.531250   0.515625 0
  0.984375   0.515625 0
  0.750000   0.578125 0
  0.515625   0.531250 0
  0.828125   0.796875 0
  0.640625   0.703125 0
  0.828125   0.765625 0
[...]
CELL_DATA 7648
SCALARS scalar_value float 1
LOOKUP_TABLE default
0
0
0
0
0
0
0.000147122
9.12839e-05
6.22992e-05
7.24201e-05
7.20282e-06
3.37071e-06
1.26292e-06
2.92831e-06
6.25895e-07
6.0771e-07
2.98379e-07
1.41176e-06
0
0
0
0
0
0
0
0
0
0
0
0
0
0
9.62582e-07
6.17933e-07
4.056e-07
4.56731e-07
9.85355e-08
4.08472e-08
0
0
7.93289e-08
5.18024e-08
0
0
7.42304e-08
9.50558e-08
1.58083e-07
5.64802e-08
3.08166e-07
3.06948e-07
5.16761e-07
1.58233e-07
3.36813e-08
2.93585e-08
4.79864e-08
1.47218e-08
0
0
0
0
0
0
1.54491e-06
8.54819e-07
5.69092e-07
3.79922e-07
1.89383e-07
5.97891e-08
5.64229e-08
8.57763e-08
7.64046e-08
5.3984e-08
1.39045e-07
0
0
3.40163e-10
3.08907e-10
1.75233e-10
5.65614e-10
0
1.02488e-10
0
1.78889e-10
0
0
0
1.76495e-10
0
0
0
7.81077e-05
5.14178e-05
4.3639e-05
3.6781e-05
2.70955e-05
1.97609e-05
1.19691e-05
2.34779e-05
1.18994e-05
7.99372e-06
8.82585e-06
1.65317e-05
1.03428e-05
7.24323e-06
0
6.70454e-08
1.6473e-07
7.52378e-08
0
0
0
0
3.2499e-08
1.93422e-08
1.20348e-08
1.346e-08
5.48424e-09
2.0884e-09
2.50696e-09
6.78982e-06
3.82766e-06
2.80854e-06
2.76955e-06
1.51185e-06
1.1322e-06
1.62885e-06
6.40208e-07
0
0
0
0
0
0
0
0
0.000238824
0.000173772
0.000220333
0.000108218
9.8266e-08
0
0
2.31971e-08
1.13763e-08
1.07223e-08
4.71659e-09
1.06786e-09
2.93998e-09
0
0
0
0
0
0
0
0
0
0
0
2.01034e-05
8.64796e-06
2.35115e-07
1.59967e-07
8.04272e-08
2.35177e-07
0
2.08645e-07
1.34246e-07
6.9815e-08
1.68628e-07
0
0
0
0
5.04329e-09
2.95194e-09
7.81704e-06
5.12829e-06
2.93416e-06
5.48111e-06
1.9041e-06
2.11117e-06
1.4075e-06
3.65827e-06
0
0
0
0
0
0
0
0
0
4.15118e-06
2.95522e-06
1.69472e-06
4.02388e-06
0
0
0
0
0.00022767
0.000138735
0.000105976
0.000100909
1.90073e-07
1.16687e-07
6.51732e-05
4.79973e-05
2.90239e-05
6.10289e-05
4.96263e-05
3.10642e-05
2.58521e-05
2.26915e-05
4.31108e-05
2.56805e-05
2.06989e-05
1.76494e-05
4.91132e-09
3.19422e-09
4.69242e-09
1.6683e-09
7.28449e-09
1.82754e-08
5.45244e-09
3.12144e-07
1.50147e-07
8.14385e-08
1.89461e-07
0.000181216
0.000119855
0.000147006
7.92189e-05
0
0
0
0
4.42495e-05
3.08494e-05
4.03099e-05
1.95041e-05
0
0
0
0
0
0
0
0
0
0
0
0
0
0
0
0
0
0
0
0
0
0
0
0
0
0
0
0
0
8.38969e-10
1.60179e-09
4.96428e-10
0
0
0
0
0
0
0
0
0
0
0
0
0
0
0
0
0
0
0
0
0
0
1.94146e-06
5.45808e-06
2.27047e-06
9.91163e-10
2.75859e-06
0
0
0.000237279
0.000134088
1.01705e-08
0.000109551
0.000192445
4.84804e-05
6.34352e-09
5.04575e-05
1.32221e-08
2.32528e-08
4.90804e-08
1.14711e-07
9.06653e-08
2.48921e-07
0
0
0
0
0
0
0
0
0
3.00605e-10
0
1.04301e-10
0
6.1447e-07
3.26148e-07
2.79014e-09
8.25615e-05
3.4031e-05
6.57183e-05
5.32068e-05
7.88299e-05
0.000132745
0
0
0
0
0
0
5.04488e-07
1.21409e-06
0
9.09861e-07
4.5487e-07
5.29984e-08
3.76277e-05
0
0.00013402
0
0
0
0
0
0
0
0
0
0
0
0
0
0
0
0
0
0
0
0
2.16895e-06
3.9088e-06
0
0
0
0
0
0
0
0
0
0
0
0
0
0
0
0
0
0
0
0
0
0
0
0
8.9905e-06
0
6.5837e-06
0
0
3.93229e-06
4.0408e-05
0
9.11095e-06
9.41844e-05
0
0
0
0
0
0
0
0
0
7.04025e-09
0.000196345
0
0
0
0
9.27049e-08
1.11946e-09
5.90718e-05
1.39473e-06
5.72049e-07
0
0
7.07434e-06
9.40913e-05
0
0
0
0
0
0
1.92711e-07
0
0
0
0
0
0
0
0
0
0
7.36559e-10
1.85363e-10
0
0
0
0
0
1.46036e-05
3.42842e-05
0
2.19146e-10
0
0
0
0
0
0
0
0
0
0
0
0
0
0.000224228
0.000139291
2.51479e-10
0
0
0
0
0
2.34813e-09
8.16993e-08
8.93161e-09
3.32087e-09
1.60394e-10
5.41408e-08
0
0
0
0
0
0
0
0
0
0
0
0
4.84296e-07
0
9.2492e-08
0
0
7.05275e-05
3.01211e-10
2.83665e-10
4.30897e-10
0
0
0
0
0
0
0
0
0
0
0
0
0
0
0
0
5.25021e-07
1.8436e-07
1.26767e-10
1.4865e-09
0
0
0
5.78235e-10
2.62274e-10
0
1.42082e-05
0
0
0
0
0
0
0
0
0
4.71193e-06
3.42556e-05
0
3.36214e-05
2.00653e-05
1.42884e-09
2.04763e-10
0
0
0.000104084
0
5.26377e-07
0
0
4.21579e-07
1.0154e-06
0
4.62011e-07
0
0
0
1.32177e-10
1.4861e-10
0
0
0
0
2.44287e-09
1.55287e-09
1.91858e-09
7.8697e-10
9.92101e-10
2.03666e-09
1.91811e-09
8.99765e-07
8.95772e-10
5.72903e-10
0
7.60644e-10
4.46951e-10
2.65812e-10
3.27762e-09
3.5822e-10
8.48512e-09
2.68967e-07
6.82066e-08
1.54438e-10
1.9157e-09
1.5763e-07
0
1.04271e-09
7.50318e-09
6.19029e-10
3.54002e-10
1.58776e-09
9.08257e-08
1.1388e-08
1.8041e-09
0
0.000120816
7.83791e-05
7.93679e-07
0
1.951e-10
0
0
0
0
0
0
0
6.1098e-07
0
8.34751e-05
0
0
0
0
0
0.000115555
1.97811e-07
1.93602e-10
3.78475e-10
0
0
6.74186e-07
9.04915e-10
0
2.91234e-10
0
0.000103349
0
0
0
0
0
0.000106431
0
0
0
0
0
0
0
0
5.29485e-10
1.627e-10
0
9.71777e-06
0
2.06616e-08
0
5.15626e-10
0
3.00329e-09
4.48433e-07
6.62997e-09
0
4.97238e-05
8.5932e-08
0
1.71681e-09
0
0
0
3.28677e-08
6.03526e-10
1.82731e-08
2.19286e-10
3.00581e-06
0
1.05356e-06
0
0
4.40151e-09
0
0
0
0
0
1.01117e-05
0
0
1.59081e-07
0
0
0
0
0
0
0
0
1.04346e-07
0
1.26705e-10
4.71935e-08
0
0
2.00718e-07
0
0
0
0
0
4.09084e-06
0
0
0
3.16121e-08
0
0
6.166e-10
0
0
0
0
3.8479e-06
0
2.20668e-07
1.86494e-08
1.52347e-09
0
8.1624e-10
2.87709e-09
0
0
0
0
2.08742e-09
0
0
1.48467e-10
6.55785e-09
2.59385e-10
3.82516e-10
1.88889e-08
0
0
1.03502e-07
0
0
0
0
0
2.27599e-07
0
0
0
0
0
6.68009e-08
0
0
0
0
1.75096e-07
1.40058e-09
0
4.6682e-06
0
0
0
0
0
2.14829e-08
1.37637e-06
0
2.52703e-07
0
3.89985e-06
5.78121e-05
0
0
8.98031e-06
0.000125543
0
1.29387e-07
0
0
0
0
0
0
0
0
0
0
0
0
0
0
0
0
0.000303363
0
0
0
0.000256212
0
0
1.23479e-08
0
1.99722e-10
3.28271e-08
0
3.60989e-08
0
0
0
3.54156e-05
0
0
1.68893e-06
0
2.25598e-05
0
4.57918e-08
0
0
4.28767e-09
0
0
6.89969e-10
0
0
2.54063e-10
6.13211e-08
0
0
0.000279694
6.66651e-07
8.27224e-08
0
1.58589e-09
0
0
1.19134e-09
0
0
0
0
0
0
6.10924e-09
0
0
1.05081e-07
2.9453e-08
0
0
0
0
0
0
0
0
0
0
0
0
1.66093e-05
4.23684e-09
0
0
4.64964e-10
0
6.56255e-06
0
0
4.67246e-07
6.05196e-10
0
0.000285162
5.10915e-05
0
2.71244e-08
0
3.09791e-09
7.64897e-10
2.48846e-09
0
0
4.83201e-07
0
6.88631e-06
4.14436e-10
0
3.3062e-09
0
0
0
0
0
0
0
0
0
0
0
0
0
0
2.88449e-07
8.30117e-08
1.91697e-07
1.23691e-06
5.51419e-08
0
4.14457e-08
0
0
3.0679e-10
0
9.30076e-05
1.24403e-07
3.92392e-09
0
6.13666e-09
0
0
1.36051e-08
5.21433e-07
0
0
0
0
0
0
0
0
0
2.52444e-07
1.10495e-08
7.99618e-09
0
6.2192e-09
0
0
0
0
0
0
0
0
0
0
0
0
1.66368e-10
0
0
0
3.47646e-10
0
0
2.55857e-07
1.37488e-08
0
0
0
4.32973e-08
3.06665e-10
0
1.79454e-09
1.19877e-06
1.19303e-07
0
0
9.62484e-09
8.60586e-10
0
7.62048e-10
4.00694e-08
0
0
0
1.94963e-10
5.88108e-06
0
1.06465e-10
0
2.9623e-10
1.28272e-10
0
0
0
2.25971e-05
8.22051e-05
1.81141e-10
4.54025e-09
2.79858e-09
0
0
0
0
0
1.75066e-07
7.03892e-07
0
6.46291e-09
0
6.06663e-08
1.33497e-09
2.20364e-08
0
0
6.26624e-08
0
1.03316e-08
0
6.25143e-10
3.24591e-09
1.44486e-07
3.17527e-09
0
0.000206148
0
0
0
0
1.89514e-08
5.30421e-10
1.52521e-09
0
0
0
0
0
0
0
0
0
9.36791e-09
0
0
0
0
0
0
8.67347e-10
1.73697e-10
0
0
0
3.27518e-09
4.36105e-09
8.2844e-09
2.54309e-09
1.84582e-10
3.27364e-06
9.51195e-10
2.10555e-05
9.46794e-06
0
0
5.98708e-06
0
0
0
2.07207e-08
0
0
0
9.69665e-10
6.53044e-08
5.78859e-08
2.53022e-08
2.20447e-08
0
1.46828e-10
0
0
0
0
0
0
3.54474e-09
3.93259e-09
0
0
0
1.16036e-10
8.85392e-10
0
0
4.7525e-10
0
1.81204e-10
3.08525e-08
1.45163e-06
0
5.07343e-06
0
0
5.36511e-08
0
0
2.75446e-09
0
0
0
0
0
0
0
0
6.97686e-09
0
1.58046e-08
0
0
5.83152e-10
0
0
6.34388e-05
0
5.5509e-05
0
0
1.6195e-09
4.2277e-10
0
0
0
0
2.63413e-10
0
0
0
3.23782e-08
5.05252e-08
0
1.02198e-07
0
3.42767e-09
4.91146e-09
1.04405e-08
0
0
0
0
0
0
0
0
1.59222e-08
0
0
4.4428e-08
8.29784e-08
0
1.98729e-08
1.46685e-08
1.05231e-08
7.52767e-09
1.77949e-09
0
0
0
0
0
0
0
0
0
0
0
0
0
0
0
0
0
0
0
0
0
1.9687e-05
1.23757e-05
2.40713e-07
0
1.05072e-05
0
2.67277e-05
3.15395e-06
4.79083e-05
0
1.17272e-09
0
5.75507e-10
0
2.24991e-09
0
0
0
0
0
0
0
0
0
0
0
3.81087e-10
0
0
0
0
0
0
0
4.95257e-07
3.57773e-08
0
7.87525e-05
0
9.05335e-09
5.56603e-09
0.000172487
5.42805e-09
9.61365e-09
0
0
8.63796e-08
0
0
0
0
0
0
0
0
0
1.78936e-07
0
1.48924e-08
0
1.37091e-09
0
0
0
1.24237e-09
1.86156e-09
0
0
2.36277e-10
0
1.28585e-10
1.04544e-10
0
0
1.24849e-08
2.9733e-08
2.41983e-08
0
0
0
0
0
0
0
0
0
2.9684e-08
3.2096e-08
0
1.21684e-05
8.68102e-06
0
0
0
0
0
0
0
0
0
0
1.87025e-08
1.97557e-09
0
9.19454e-07
1.34229e-06
1.54152e-06
2.83423e-06
1.38543e-05
2.87642e-07
0
0
0
0
0
0
0
0
0
0
0
0
0
0
0
0
0
0
0
0
0
0
0
4.79294e-10
1.40266e-10
0
0
0
3.19821e-05
3.58413e-05
0
0.000119443
0.000202383
0
1.50732e-05
2.92301e-07
1.9102e-07
2.67363e-07
4.8229e-09
0
5.92878e-07
3.32587e-08
3.96621e-07
2.53198e-07
5.35589e-07
1.09373e-06
0
0
0
0
3.26814e-10
1.9918e-06
2.04591e-06
0
1.70803e-08
8.63891e-09
5.93829e-09
1.24537e-07
0
0
0
0
0
0
0
0
0
7.70686e-07
1.99471e-08
1.25335e-07
1.03199e-07
1.36255e-07
2.48514e-07
1.06404e-06
0
0
0
0
0
2.23887e-09
2.68815e-06
0
0
0
0
0
0
0
5.07668e-06
3.62489e-06
4.40019e-06
0
0
0
0
0
0
0
0
0
0
9.96873e-09
8.89943e-09
1.48277e-08
8.99948e-09
3.04274e-08
1.80593e-08
1.00465e-09
0
0
0
0
0
0
6.23063e-09
3.66872e-08
6.95757e-08
1.4086e-07
0
0
0
7.90688e-07
0
9.47484e-10
1.59737e-09
1.92532e-09
2.94115e-09
2.04239e-05
0
1.03116e-09
1.10859e-09
3.22151e-09
0
0
7.12732e-07
9.12348e-06
0
0
1.28341e-10
0
1.9618e-10
2.29909e-08
1.61074e-08
2.83581e-08
5.58798e-08
0
0
0
0
0
1.25488e-08
9.40861e-10
0
4.40444e-08
0
0
0
1.52535e-09
0
1.04709e-10
0
0
0
0
0
0
0
0
0
0
0
2.06555e-08
8.93688e-07
0
1.52739e-06
7.97355e-07
0
0
0
0
9.82292e-06
1.60657e-05
1.84302e-06
1.73763e-06
8.40398e-09
6.17562e-09
9.4987e-09
0
0
2.30347e-08
0
0
0
0
4.12411e-10
0
0
0
0
0
0
0
0
0
0
0
0
3.07878e-07
4.03273e-07
4.47704e-07
5.90633e-10
1.10906e-09
0
0
0
0
9.22678e-08
2.39683e-07
0
2.4983e-07
1.23765e-06
0
0
0
0
0
0
0
0
0
0
0
0
1.28892e-10
3.29032e-10
4.37155e-07
1.03293e-05
1.13926e-10
3.20317e-06
0
1.01625e-10
2.09581e-10
0
0
1.09696e-09
4.23937e-08
1.2872e-07
3.41082e-06
1.79706e-08
0
0
0
0
0
0
0
0
0
1.55896e-07
0
0
1.14727e-08
1.18692e-08
6.17447e-09
0
0
0
0
0
0
0
0
0
0
0
5.85158e-10
8.57461e-10
0
0
0
0
4.42061e-05
3.83557e-05
0
0
0
0
0
0
0
0
0
0
2.30004e-05
1.79e-05
0
0
0
0
0
0
0
0
0
5.04241e-08
3.41987e-08
5.08289e-08
1.9316e-06
5.63348e-09
4.6363e-09
8.24191e-09
1.67796e-08
6.53691e-07
3.13229e-06
0
0
1.85322e-06
0
0
1.47939e-05
7.76495e-05
0
6.80305e-10
0
0
0
0
0
0
0
6.77822e-07
0
0
0
0
0
0
0
0
0
0
0
0
0
0
0
3.21081e-10
5.23652e-10
0
0
0
0
0
0
4.3049e-10
6.70323e-10
1.3032e-09
0
0
0
0
0
4.6572e-07
0
0
0
0
0
0
0
0
0
0
0
0
0
0
0
0
0
1.3869e-07
2.7889e-07
0
0
0
4.83813e-08
1.95544e-07
0
6.71002e-07
1.42615e-06
1.04225e-06
1.48939e-06
0
0
0
0
0
0
0
0
3.7714e-07
4.32642e-07
5.61567e-07
2.92204e-10
0
0
9.24973e-06
1.33512e-05
2.28444e-05
0
0
0
1.03746e-06
4.8734e-07
9.34836e-07
1.42744e-06
0
0
0
0
0
0
0
0
0
1.94977e-06
0
0
1.98394e-10
0
0
0
0
0
0
1.54892e-07
0
0
0
0
1.07145e-07
5.64318e-08
4.46321e-08
0
0
0
0
0
1.03783e-09
2.19111e-09
8.4199e-09
0
0
0
0
0
0
2.70757e-07
7.38655e-07
1.44624e-08
0
1.89179e-06
4.57364e-06
3.70428e-06
2.66265e-07
3.28969e-08
6.94503e-06
7.01024e-06
1.52822e-05
4.75034e-10
0
1.14092e-09
0
0
0
0
0
0
0
1.56031e-05
2.0529e-05
2.591e-09
0
0
0
0
0
0
0
0
0
0
0
0
0
0
0
3.2444e-09
0
3.80936e-10
5.00719e-10
4.78576e-09
2.44545e-09
3.16503e-07
3.96749e-07
9.14531e-07
0
0
0
2.56116e-06
3.17375e-06
0
0
0
0
0
5.04971e-09
1.4907e-08
6.82407e-08
2.38822e-08
2.82925e-08
0
0
0
0
1.02899e-07
0
0
0
0
1.3358e-06
1.35742e-05
6.2058e-08
9.53207e-08
1.85218e-07
3.61253e-06
3.76841e-06
5.30614e-06
6.79073e-06
4.73768e-06
8.37454e-06
1.02889e-05
1.18694e-10
0
1.41346e-10
3.09834e-06
3.28236e-08
6.31667e-08
0
0
0
1.24297e-09
3.60635e-09
9.93937e-09
0
2.18455e-08
0
0
0
0
0
3.09881e-09
4.41068e-09
0
0
0
0
0
0
0
6.45052e-09
0
0
0
0
0
0
0
0
0
0
0
0
0
0
3.75003e-07
6.85579e-07
3.9822e-09
2.03839e-08
0
0
0
0
0
0
0
0
0
0
1.37114e-06
2.11392e-06
0
0
6.84161e-07
1.30423e-06
1.41695e-06
1.14286e-06
2.635e-08
2.71073e-08
0
0
0
0
6.53216e-10
1.65625e-09
0
0
0
0
0.00482287
0.177127
0.284228
0.333773
0.224378
0.118206
0.0780367
0.0285413
0.00850651
0.00214174
0.000474444
0.0002177
0.190616
0.137671
0.0934115
0.059655
0.0359787
0.0205751
0.0112038
0.00583467
0.00291981
0.00141191
0.000664139
0.000306199
0.00162235
0.00803524
0.114861
0.21406
0.31477
0.296027
0.180301
0.12909
0.0871866
0.0556051
0.0192095
0.00545072
0.00131904
0.000289857
0.260041
0.201463
0.147497
0.101967
0.0666096
0.0411649
0.0241134
0.0134223
0.00712268
0.0036191
0.00177214
0.000844868
0.000397616
0.00326231
0.0136149
0.153548
0.258133
0.342818
0.242035
0.13319
0.091172
0.0591611
0.0364048
0.0212601
0.0117987
0.00623616
0.00315113
0.000729145
0.203384
0.149892
0.104732
0.0694423
0.0436913
0.0260882
0.0147904
0.00797049
0.00409201
0.00201107
0.000957489
0.000455965
0.00120934
0.00614153
0.0227635
0.204226
0.301142
0.364911
0.178334
0.0896276
0.0589727
0.0368853
0.0219117
0.0123535
0.00660689
0.00335325
0.00161985
0.000364597
0.2483
0.193448
0.143402
0.101129
0.0679207
0.043406
0.0263609
0.015192
0.00829571
0.00428581
0.00209279
0.000969308
0.000448883
0.0010421
0.00249756
0.0109079
0.0619522
0.146564
0.263915
0.305309
0.208881
0.117855
0.055153
0.0350835
0.021207
0.0121492
0.00657347
0.00334341
0.000703799
0.0515041
0.128301
0.299704
0.217407
0.170913
0.127934
0.0913937
0.0623332
0.040523
0.025058
0.0146953
0.00814034
0.00423501
0.002051
0.000913388
0.000392312
0.000864028
0.0046277
0.0182481
0.0923062
0.201827
0.310497
0.255528
0.242974
0.211833
0.135888
0.072093
0.0317086
0.0195228
0.0113819
0.00624449
0.003195
0.0015028
0.000289432
0.000591119
0.0265141
0.0774086
0.178871
0.235653
0.211437
0.178636
0.142698
0.108496
0.0787592
0.0545958
0.0361184
0.0227531
0.0135951
0.00765684
0.00402907
0.00195357
0.000853322
0.000348482
0.00067823
0.00168119
0.00786457
0.0286768
0.0503263
0.130528
0.260041
0.229346
0.209307
0.181788
0.149878
0.0880205
0.0431736
0.0176558
0.0104447
0.00581297
0.00301085
0.00059645
0.00118522
0.0403924
0.109952
0.233745
0.218346
0.189971
0.158308
0.12585
0.095537
0.0694027
0.0483198
0.0322299
0.0205414
0.0124388
0.00710441
0.00198647
0.00072945
7.26083e-08
0.000199101
1.01863e-06
1.46624e-07
5.28681e-07
1.23871e-06
5.3253e-05
0.000229551
0.00025862
0.000569626
0.00111845
0.00299215
0.00570846
0.00811571
0.00893353
0.00858114
0.00670007
0.00419884
0.00207735
0.000800115
0.000226163
0.000110262
3.99142e-06
9.81096e-05
0.00540849
0.0052369
0.000769912
1.39773e-08
0.000252447
3.95733e-08
6.7766e-05
4.48997e-09
1.18156e-07
2.75968e-07
1.66774e-06
4.29929e-05
0.000140186
0.000342498
0.0037926
0.00069623
0.000816182
0.00191056
0.00340722
0.00446966
0.00456372
0.00422968
0.00307239
0.00177585
0.000807701
0.0002802
4.77664e-08
7.01627e-05
4.41048e-06
0.0143472
0.0166383
6.60111e-05
0.00558286
0.00142525
0.00271919
0.00244649
0.000273636
7.11023e-09
7.84843e-05
4.73194e-09
0.0188135
0.213074
1.40572e-08
3.43465e-08
0.13025
6.49096e-08
0.0681562
1.52295e-07
1.82328e-06
3.21763e-05
0.371547
0.00687696
9.41374e-05
0.000232937
0.00187289
0.000474415
0.000350998
0.00116499
0.00186579
0.00224901
0.00213387
0.001909
0.00161439
0.00128971
0.000690042
0.000289434
8.90086e-05
4.8128e-08
0.092406
4.71481e-06
0.00726991
0.0102354
5.26208e-05
0.00308014
0.000718374
0.00124873
0.00104796
0
9.31976e-05
4.23987e-09
2.94796e-05
3.52903e-10
3.75719e-09
0.0282137
0.194605
9.22637e-09
0.106088
2.98497e-08
0.049879
8.82511e-08
0.0207406
2.23253e-06
0.00727073
2.92826e-05
0.388065
0.00396328
8.10823e-05
0.000184727
0.000978229
0.000322708
0.000646888
0.000927393
0.00103311
0.000999868
0.000914718
0.000791212
0.000646939
0.000499731
0.000364378
0.000250614
1.40332e-09
9.89683e-05
3.02726e-05
4.3157e-09
0.142207
7.04993e-05
0.00175284
0.000396594
0.000525534
0.000413931
0
3.3466e-05
3.13045e-10
2.35021e-09
0.158998
4.9246e-09
0.0800063
1.39026e-08
0.036124
5.49278e-05
0.399686
0.00234749
8.10126e-05
0.000129448
0.000541026
0.00018861
0.000318867
0.000417922
0.000434544
0.000407349
0.00036125
0.000303147
0.000240755
0.000181011
1.91605e-10
8.71889e-05
1.02106e-09
0.244981
3.48363e-05
2.1366e-05
1.54117e-10
4.45587e-10
1.08855e-09
2.283e-09
0.104082
4.19087e-09
0.00779312
0.0716584
1.21279e-08
3.54325e-05
4.89604e-05
0.000981417
9.87135e-05
3.52638e-08
0.000219712
0.000203893
0
0.000151956
0
0.000325199
0.00012107
9.16027e-05
6.59728e-05
4.54071e-05
0.00108439
6.53727e-10
0.255902
1.93297e-05
0
2.21275e-10
0.158452
1.28849e-09
0.115915
2.52022e-09
0.0551783
7.7001e-09
0.00280568
3.33473e-05
0.4001
0.00133313
4.76182e-05
6.75069e-05
9.11007e-05
0.00014018
0.000171817
0.000168329
0.000132392
0.000108317
8.41057e-05
6.20991e-05
1.21059e-10
4.6684e-06
0.290747
2.9559e-05
3.89173e-10
0.207648
1.24832e-05
1.02873e-10
2.65859e-10
6.01737e-10
1.22505e-09
0.0674542
2.33962e-09
0.00370694
0.0470439
1.03957e-05
0.000494657
0.00233958
2.24167e-05
0.00049737
4.28709e-05
8.33824e-05
7.3431e-05
0
5.22543e-05
0
0.000586436
0
0
3.25669e-10
0.10805
0
1.01213e-07
0
0.0893682
7.83653e-10
1.43122e-07
0.00187837
0
2.55031e-07
0
0.0472605
7.32365e-08
8.79461e-07
0.000585286
0
0
1.97193e-05
1.10474e-10
1.29932e-10
6.42668e-06
0.00143776
0.000175034
1.25053e-09
4.60845e-08
0.0553342
0.000725351
0.000737469
0.00034027
5.27533e-06
0.00182589
0.00115426
4.31655e-08
1.97255e-07
0.0278738
0.00408569
0.00160284
0.00017486
1.56936e-05
7.05994e-06
0.00844692
0.00203153
0.0121557
2.75367e-07
0.0163687
0.0023883
0.000182472
0.312369
7.4802e-06
0.0298889
0.00262769
0.0393573
7.6219e-07
0.000147811
0.00107213
0.0837411
0.00265391
0.0037684
1.20168e-06
0.000582557
5.44811e-06
1.77685e-06
0.00151264
0.000478913
0.000278751
0.18457
0.0021313
0.0154497
6.35564e-06
3.46082e-06
0.246769
0.00175426
2.26997e-06
0.00722746
0.000878488
0.298364
0.001363
0.000998264
0.33937
2.30147e-06
0.00118405
0.000399456
1.58591e-06
0.121341
0.00117666
0.24495
0.000882213
0.000527133
0
0.000174847
0.0370794
0.268304
0.00704168
2.60341e-08
0.17181
1.93432e-05
0.000118265
0.0250363
1.85453e-07
9.62657e-06
0.31074
0
0.00302563
0.0702514
4.26444e-07
1.42634e-05
0.000331915
8.90616e-06
0.146476
2.4703e-05
0
0.000129345
1.69213e-05
0
0.000899518
0.115214
0.0399346
7.48776e-08
0.102531
1.60922e-07
0.000689026
0.000448864
0.191825
0.0064165
0.400032
1.88603e-06
0
5.62338e-06
9.22068e-09
0.304986
0.000153846
0.309506
0.0127209
0.397572
1.27348e-06
0
1.43802e-05
0.338597
0.000662129
3.07746e-06
9.00997e-08
0.263001
4.25602e-05
0.027152
0
2.89743e-05
0
0
1.84358e-09
0
0.0644928
0.00219131
5.59405e-05
1.74013e-05
0
0
8.41906e-09
0.0524484
0.000573786
6.50119e-05
1.3066e-09
2.18529e-08
0.0334122
6.04647e-05
0.00343889
0.000679552
2.1104e-08
0.017693
4.53671e-05
0.0142522
0.00105386
0.0201105
1.03857e-07
0.0260231
0.185934
0
6.44393e-05
0.0232116
1.69313e-05
7.71059e-10
0.243493
5.51375e-05
0.384156
1.8769e-07
0.13709
0.00465154
0.26947
0
0.00890524
0.12802
7.65643e-06
0.0119907
7.25368e-09
0.173907
0.303091
1.18997e-07
0
0.190572
0.00877626
0.273103
2.81878e-09
0.000295929
4.44927e-07
0.166003
0.000479549
0.186074
0.00403853
1.93925e-07
0.381306
2.03313e-07
0.000335231
0.00434908
0.0166636
1.35823e-10
0.036821
0.14703
1.92048e-10
0.290289
1.23022e-07
0.00208946
0.00102136
0.00561087
7.00375e-10
0.0742259
0.376333
8.73969e-07
0.0542002
0
0.406383
6.54861e-07
0.000308339
0.0232523
0
4.76326e-05
0.062462
3.77106e-06
0.000168412
0.00097217
0.353202
4.07454e-07
0.00179032
0.00839061
0
6.2035e-05
0.0424928
5.91913e-10
0.0919328
0.000327409
9.03178e-06
0.000132682
0.00221669
0.38049
2.46381e-07
0.00026128
2.64626e-07
0.400148
5.16731e-06
0
0.00122535
0.0196645
0.000971985
0.397697
7.79692e-06
0
0.000202939
0.0467308
1.54725e-07
0.319162
0.00177935
0
0
0.248106
1.29269e-06
0.00211757
0.00265854
0.000605175
0.136258
4.76265e-07
0.00850736
1.84524e-05
2.05897e-05
0
0.0095471
0.00437718
0.24122
6.5359e-07
0.00565462
0.000136692
2.28233e-05
0.000250029
1.20662e-09
0.327466
7.09354e-07
0.00298251
0.0982494
0.0010238
2.0269e-05
6.07418e-10
0.10412
0.0333815
3.42047e-06
0.00588177
0.000352781
1.19777e-08
0.390748
6.19995e-07
0.00124485
0.204618
0.00644131
1.46195e-05
0.189912
0.0870167
6.23259e-06
3.00585e-05
0.292522
0.232247
2.09541e-05
0.0013831
3.52733e-09
4.37417e-05
0.000391572
2.76644e-05
0.136285
0.0333109
0.00545451
8.75241e-05
0.390823
2.8047e-07
0.0159499
0.0386976
0
1.15267e-10
2.95261e-05
0.0573824
0.000191219
0.0485253
0.0805552
0.301287
0.000701759
7.00443e-07
0.011834
0.000430286
0
2.51516e-05
0.0181385
0
0.0689216
0.295059
0.00033805
0.291243
0.00248122
2.52858e-07
2.67385e-08
0.121048
2.66581e-07