# vtk DataFile Version 2.0
Unstructured Grid by M++
ASCII
DATASET UNSTRUCTURED_GRID
POINTS 4072 float
  0.828125   0.890625 0
  0.875000   0.531250 0
  0.828125   0.750000 0
  0.593750   0.968750 0
  0.828125   0.671875 0
  0.828125   0.875000 0
  0.593750   0.937500 0
  0.828125   0.656250 0
  0.828125   0.640625 0
  0.828125   0.843750 0
  0.593750   0.906250 0
  0.828125   0.625000 0
  0.781250   0.968750 0
  0.828125   0.609375 0
  0.828125   0.812500 0
  0.593750   0.875000 0
  0.593750   0.828125 0
  0.593750   0.796875 0
  0.828125   0.703125 0
  0.593750   0.765625 0
  0.828125   0.937500 0
  0.812500   0.875000 0
  0.859375   0.515625 0
  0.812500   0.734375 0
  0.812500   0.937500 0
  0.578125   1.000000 0
  0.578125   0.750000 0
  0.812500   0.687500 0
  0.578125   0.953125 0
  0.812500   0.656250 0
  0.812500   0.859375 0
  0.578125   0.921875 0
  0.812500   0.828125 0
  0.578125   0.890625 0
  0.812500   0.593750 0
  0.812500   0.796875 0
  0.578125   0.859375 0
  0.578125   0.812500 0
  0.578125   0.781250 0
  0.796875   1.000000 0
  0.796875   0.859375 0
  0.796875   0.718750 0
  0.562500   0.984375 0
  0.562500   0.937500 0
  0.796875   0.843750 0
  0.562500   0.906250 0
  0.796875   0.812500 0
  0.562500   0.875000 0
  0.796875   0.578125 0
  0.796875   0.781250 0
  0.562500   0.843750 0
  0.812500   0.984375 0
  0.562500   0.796875 0
  0.812500   0.953125 0
  0.562500   0.765625 0
  0.796875   0.937500 0
  0.546875   0.750000 0
  0.781250   0.984375 0
  0.828125   0.593750 0
  0.781250   0.843750 0
  0.781250   0.937500 0
  0.546875   1.000000 0
  0.781250   0.703125 0
  0.546875   0.968750 0
  0.546875   0.921875 0
  0.781250   0.828125 0
  0.546875   0.890625 0
  0.781250   0.796875 0
  0.546875   0.859375 0
  0.781250   0.562500 0
  0.781250   0.765625 0
  0.546875   0.828125 0
  0.796875   0.968750 0
  0.546875   0.781250 0
  0.765625   1.000000 0
  0.765625   0.968750 0
  0.531250   0.984375 0
  0.765625   0.687500 0
  0.531250   0.953125 0
  0.531250   0.937500 0
  0.531250   0.906250 0
  0.765625   0.812500 0
  0.531250   0.875000 0
  0.765625   0.781250 0
  0.531250   0.843750 0
  0.781250   1.000000 0
  0.765625   0.546875 0
  0.765625   0.750000 0
  0.531250   0.812500 0
  0.781250   0.953125 0
  0.531250   0.765625 0
  0.515625   0.750000 0
  0.750000   0.984375 0
  0.750000   0.953125 0
  0.796875   0.593750 0
  0.796875   0.562500 0
  0.750000   0.843750 0
  0.750000   0.937500 0
  0.515625   1.000000 0
  0.750000   0.906250 0
  0.515625   0.968750 0
  0.750000   0.671875 0
  0.750000   0.875000 0
  0.515625   0.937500 0
  0.515625   0.921875 0
  0.515625   0.890625 0
  0.750000   0.796875 0
  0.515625   0.859375 0
  0.750000   0.765625 0
  0.515625   0.828125 0
  1.000000   0.718750 0
  0.750000   0.531250 0
  0.750000   0.734375 0
  0.515625   0.796875 0
  0.734375   1.000000 0
  0.734375   0.968750 0
  0.734375   0.937500 0
  0.781250   0.578125 0
  0.781250   0.546875 0
  0.968750   0.578125 0
  0.734375   0.828125 0
  0.968750   0.546875 0
  0.734375   0.796875 0
  0.734375   0.765625 0
  0.968750   0.671875 0
  0.734375   0.734375 0
  0.968750   0.640625 0
  0.734375   0.703125 0
  0.968750   0.609375 0
  0.734375   0.671875 0
  0.734375   0.656250 0
  0.734375   0.625000 0
  0.968750   0.531250 0
  0.734375   0.593750 0
  0.984375   0.734375 0
  0.984375   0.703125 0
  0.734375   0.515625 0
  0.718750   0.984375 0
  0.718750   0.953125 0
  0.718750   0.921875 0
  0.953125   0.562500 0
  0.718750   0.812500 0
  0.953125   0.531250 0
  0.718750   0.781250 0
  0.718750   0.750000 0
  0.953125   0.656250 0
  0.718750   0.718750 0
  0.953125   0.625000 0
  0.718750   0.687500 0
  0.953125   0.593750 0
  0.718750   0.656250 0
  0.671875   1.000000 0
  0.718750   0.640625 0
  0.718750   0.609375 0
  0.953125   0.515625 0
  0.718750   0.578125 0
  0.968750   0.718750 0
  0.968750   0.687500 0
  0.953125   0.671875 0
  0.703125   0.968750 0
  0.703125   0.937500 0
  0.937500   0.656250 0
  0.703125   0.906250 0
  0.937500   0.546875 0
  0.703125   0.796875 0
  0.937500   0.515625 0
  0.703125   0.765625 0
  0.937500   0.671875 0
  0.703125   0.734375 0
  0.937500   0.640625 0
  0.703125   0.703125 0
  0.937500   0.609375 0
  0.703125   0.671875 0
  0.937500   0.578125 0
  0.703125   0.640625 0
  0.656250   0.984375 0
  0.703125   0.625000 0
  0.703125   0.593750 0
  0.718750   0.796875 0
  0.953125   0.734375 0
  0.812500   1.000000 0
  0.859375   0.656250 0
  0.703125   0.781250 0
  0.937500   0.718750 0
  0.953125   0.703125 0
  0.796875   0.984375 0
  0.843750   0.640625 0
  0.812500   0.968750 0
  0.859375   0.625000 0
  0.796875   0.953125 0
  0.843750   0.609375 0
  0.687500   0.953125 0
  0.687500   0.921875 0
  0.687500   0.890625 0
  0.921875   0.734375 0
  0.687500   0.796875 0
  0.687500   0.781250 0
  0.921875   0.703125 0
  0.687500   0.765625 0
  0.687500   0.750000 0
  0.921875   0.656250 0
  0.687500   0.718750 0
  0.921875   0.625000 0
  0.687500   0.687500 0
  0.921875   0.593750 0
  0.687500   0.656250 0
  0.640625   1.000000 0
  0.921875   0.562500 0
  0.687500   0.625000 0
  0.640625   0.968750 0
  0.687500   0.609375 0
  0.687500   0.578125 0
  0.937500   0.687500 0
  0.921875   0.671875 0
  0.671875   0.921875 0
  0.906250   0.656250 0
  0.671875   0.906250 0
  0.671875   0.875000 0
  0.906250   0.718750 0
  0.671875   0.781250 0
  0.671875   0.765625 0
  0.671875   0.734375 0
  0.906250   0.640625 0
  0.671875   0.703125 0
  0.906250   0.609375 0
  0.671875   0.671875 0
  0.906250   0.578125 0
  0.671875   0.640625 0
  0.625000   0.984375 0
  0.671875   0.609375 0
  0.625000   0.953125 0
  0.671875   0.593750 0
  0.671875   0.562500 0
  0.765625   0.953125 0
  0.812500   0.609375 0
  0.656250   1.000000 0
  0.656250   0.953125 0
  0.656250   0.906250 0
  0.890625   0.640625 0
  0.656250   0.890625 0
  0.656250   0.859375 0
  0.890625   0.734375 0
  0.656250   0.796875 0
  0.812500   0.921875 0
  0.562500   1.000000 0
  0.625000   0.828125 0
  0.812500   0.843750 0
  0.843750   0.593750 0
  0.812500   0.812500 0
  0.625000   0.718750 0
  0.828125   0.687500 0
  0.640625   0.593750 0
  0.812500   0.781250 0
  0.625000   0.687500 0
  0.765625   0.828125 0
  0.640625   0.562500 0
  0.812500   0.750000 0
  0.562500   0.828125 0
  0.781250   0.875000 0
  0.546875   0.937500 0
  0.781250   0.671875 0
  0.781250   0.593750 0
  0.546875   0.656250 0
  0.796875   0.750000 0
  0.562500   0.812500 0
  0.796875   0.546875 0
  0.765625   0.796875 0
  0.765625   0.593750 0
  1.000000   0.531250 0
  0.812500   0.718750 0
  0.859375   0.562500 0
  0.625000   0.625000 0
  0.812500   0.703125 0
  0.812500   0.906250 0
  0.578125   0.968750 0
  0.984375   0.593750 0
  0.828125   0.578125 0
  0.828125   0.781250 0
  0.593750   0.843750 0
  0.812500   0.671875 0
  0.625000   0.578125 0
  0.796875   0.671875 0
  0.562500   0.734375 0
  0.984375   0.562500 0
  0.828125   0.546875 0
  0.812500   0.640625 0
  0.750000   0.812500 0
  0.625000   0.546875 0
  0.796875   0.640625 0
  0.562500   0.703125 0
  0.828125   0.515625 0
  0.781250   0.734375 0
  0.546875   0.796875 0
  0.781250   0.531250 0
  0.750000   0.781250 0
  0.625000   0.515625 0
  0.796875   0.609375 0
  0.562500   0.671875 0
  0.765625   0.656250 0
  0.765625   0.859375 0
  0.531250   0.921875 0
  0.812500   0.578125 0
  0.562500   0.656250 0
  0.984375   0.687500 0
  0.750000   0.750000 0
  0.812500   0.562500 0
  0.812500   0.765625 0
  0.578125   0.828125 0
  0.562500   0.625000 0
  0.984375   0.656250 0
  0.750000   0.718750 0
  0.812500   0.531250 0
  0.781250   0.656250 0
  0.546875   0.718750 0
  0.781250   0.625000 0
  0.546875   0.687500 0
  0.750000   0.640625 0
  0.796875   0.531250 0
  0.562500   0.593750 0
  0.984375   0.625000 0
  0.750000   0.687500 0
  0.546875   0.984375 0
  0.609375   0.812500 0
  0.796875   0.875000 0
  0.546875   0.953125 0
  0.609375   0.578125 0
  0.843750   0.515625 0
  0.765625   0.515625 0
  0.765625   0.718750 0
  0.531250   0.781250 0
  0.984375   0.546875 0
  0.750000   0.609375 0
  0.796875   0.828125 0
  0.671875   0.968750 0
  0.796875   0.796875 0
  0.796875   0.765625 0
  0.609375   0.671875 0
  0.796875   0.734375 0
  0.546875   0.812500 0
  0.796875   0.703125 0
  0.843750   0.546875 0
  0.609375   0.609375 0
  0.796875   0.687500 0
  0.562500   0.953125 0
  0.796875   0.656250 0
  0.609375   0.562500 0
  0.796875   0.625000 0
  0.609375   0.531250 0
  0.546875   0.640625 0
  0.765625   0.671875 0
  0.531250   0.734375 0
  0.796875   0.515625 0
  0.765625   0.640625 0
  0.531250   0.703125 0
  0.703125   1.000000 0
  0.765625   0.609375 0
  0.531250   0.671875 0
  0.765625   0.578125 0
  0.531250   0.640625 0
  0.546875   0.609375 0
  0.531250   1.000000 0
  0.890625   0.593750 0
  0.656250   0.656250 0
  0.781250   0.515625 0
  0.546875   0.578125 0
  0.531250   0.968750 0
  0.890625   0.562500 0
  0.656250   0.625000 0
  0.609375   0.968750 0
  0.781250   0.859375 0
  0.656250   0.593750 0
  0.750000   0.703125 0
  0.515625   0.765625 0
  0.781250   0.812500 0
  0.781250   0.781250 0
  0.593750   0.687500 0
  0.781250   0.750000 0
  0.593750   0.656250 0
  0.781250   0.718750 0
  0.531250   0.796875 0
  0.828125   0.562500 0
  0.593750   0.625000 0
  0.781250   0.687500 0
  0.828125   0.531250 0
  0.593750   0.593750 0
  0.812500   0.625000 0
  0.578125   0.687500 0
  0.781250   0.640625 0
  0.781250   0.609375 0
  0.593750   0.515625 0
  0.515625   0.781250 0
  0.812500   0.546875 0
  0.578125   0.609375 0
  0.812500   0.515625 0
  0.578125   0.578125 0
  0.750000   0.656250 0
  0.515625   0.718750 0
  0.750000   0.625000 0
  0.515625   0.687500 0
  0.687500   0.984375 0
  0.750000   0.593750 0
  0.515625   0.656250 0
  0.531250   0.546875 0
  0.750000   0.562500 0
  0.515625   0.625000 0
  0.531250   0.515625 0
  0.984375   0.515625 0
  0.750000   0.578125 0
  0.515625   0.531250 0
  0.828125   0.796875 0
  0.640625   0.703125 0
  0.828125   0.765625 0
[...]
CELL_DATA 7648
SCALARS scalar_value float 1
LOOKUP_TABLE default
3.11528e-05
2.50274e-05
0.000867562
0.00076285
0.000671042
0.000828174
0.20757
0.211356
0.214771
0.212
0.155517
0.149135
0.144686
0.147468
0.139475
0.135759
0.129087
0.140061
0.00487397
0.00348501
0.00452559
0.00453867
0.00368181
0.00337256
0.000385078
0.000316266
0.000244142
0.000316057
0.000153059
0.000124794
9.91641e-05
0.000123868
0.00537309
0.00506338
0.00534316
0.00388715
0.112501
0.126925
2.83077e-05
2.07731e-05
0.1007
0.0952254
0.0001536
0.000134863
0.0038854
0.00479746
0.00517564
0.00491179
0.00657295
0.00753463
0.00804644
0.00785912
0.00587094
0.00690627
0.00752791
0.00708238
0.00853223
0.00912881
0.00671956
0.00855543
0.00704194
0.00646926
0.0349526
0.0328252
0.0327688
0.028568
0.0297967
0.0264113
0.0225539
0.0191478
0.0155897
0.0166858
0.0117006
0.00627276
0.000594777
0.00306724
0.00259415
0.00233131
0.00264087
0.00255562
0.00266322
0.00226014
0.00298076
0.00406745
0.00340294
0.00301633
0.00352322
4.69104e-05
3.61802e-05
3.76843e-05
0.0254075
0.0281703
0.0322216
0.0294067
0.0354986
0.0355448
0.0384945
0.0318834
0.0456493
0.0542388
0.0445754
0.0329018
0.0350197
0.0356587
0.00324216
0.000616639
0.000881664
0.00107413
0.000140516
0.000122799
0.000104672
0.000116439
0.00280553
0.00259515
0.00273721
0.00198927
0.00145187
0.00148153
0.00119032
0.211628
0.208348
0.208263
0.205073
0.199412
0.198946
0.203212
0.191878
0.000245443
0.000213707
0.000182395
0.000203351
0.000741884
0.000664709
0.000606217
0.000625078
0.19783
0.20323
0.201921
0.207555
0.153459
9.43726e-05
8.15463e-05
0.0255694
0.0237241
0.0252713
0.0226006
0.0181473
0.0194218
0.00755911
0.00626592
0.00595066
0.00160191
0.0013106
0.00110943
0.00110874
0.00148958
0.00126352
0.00109955
0.00119583
0.0421651
0.0383323
0.116492
0.111614
0.103147
0.113981
0.00127787
0.108006
0.101887
0.0953303
0.0989661
5.32276e-06
4.33987e-06
3.32852e-06
5.47101e-06
0.00198283
0.0018411
0.119924
0.114644
0.114463
0.102856
0.108643
0.0984921
0.0930856
0.0978227
0.000853065
0.000697175
0.000752648
0.000566954
0.000370611
0.000296188
0.000316471
0.000197883
0.000109538
0.0857447
0.0814273
0.0827397
0.0701823
2.81937e-05
2.19539e-05
1.65811e-05
1.97421e-05
0.129593
0.136115
0.147724
0.134428
0.00394828
0.00367468
0.151827
0.1497
0.151746
0.138939
0.160557
0.161701
0.16568
0.158903
0.136107
0.138732
0.148326
0.134684
0.00890487
0.0112016
0.0125535
0.0111966
0.017462
0.0228976
0.0194786
0.0301798
0.0253995
0.0222921
0.0249933
0.206498
0.21096
0.209647
0.213856
0.0012181
0.00107275
0.000992731
0.000934506
0.214398
0.216879
0.216623
0.217418
0.00078943
0.000684655
0.000612036
0.000608605
0.000177658
0.00015809
8.81986e-05
6.55934e-05
5.62294e-05
4.2515e-05
4.16425e-05
2.78101e-05
2.04878e-05
2.98342e-05
1.94259e-05
1.68507e-05
1.52414e-05
0.00103349
0.000941995
0.000886543
0.000875226
0.0011759
0.00111829
0.0012956
0.000998561
0.00081168
0.00074918
0.000801108
0.000687456
0.0131368
0.016436
0.0141535
0.00727053
0.00640548
0.005985
0.0053355
0.00395157
0.00321593
0.00304581
0.000616645
0.0005089
0.000540439
0.000335998
0.000217799
0.00024404
0.000396538
0.000271035
0.000307264
2.91616e-05
2.32297e-05
1.85615e-05
2.21754e-05
0.00645478
0.00538508
0.139014
0.152699
0.00335082
0.00292042
0.00668933
0.0134008
0.0140099
0.165944
0.16718
0.020556
0.205217
0.165281
0.209661
0.0213656
0.211387
0.0869187
0.0133792
0.0990597
0.0107441
0.00954493
0.00978606
1.20654e-05
1.12524e-05
9.64434e-05
0.00342332
0.0012206
0.00955547
0.00980258
0.00201472
0.000145276
0.00393936
0.0278196
0.00956561
0.0295779
0.175682
0.167615
0.00592746
0.208656
0.210459
0.162096
0.167663
0.0788458
0.159833
0.000112674
7.29581e-05
0.000248767
0.000734485
0.000169464
0.000205355
0.00642729
0.00660903
0.000285388
0.00766745
0.121409
0.0143301
0.211767
0.000427142
0.0981328
0.000625521
0.000222976
0.000209881
0.000454952
0.000171111
0.0225842
0.0027262
0.00314727
0.00229116
0.0118543
9.26719e-05
0.00593729
0.0054965
0.00492376
0.0042093
0.0121232
2.89202e-05
0.000119436
0.00010236
6.28491e-06
0.00525925
0.129123
0.00221524
0.0168452
0.017306
0.00352793
0.0131224
0.000318905
0.0252508
1.3971e-06
8.41717e-07
1.26241e-06
0.00158538
0.00142063
0.00165863
0.00587221
0.00417678
0.00458767
0.00287857
0.0014557
0.00292385
0.00779631
0.00569608
0.00692736
0.000472577
0.000399507
0.215751
0.000462067
0.214107
0.000396054
0.00601736
0.211143
0.0666665
0.000339758
0.213463
0.047988
0.000362743
0.00146311
7.57509e-05
0.000269684
4.69061e-05
5.68453e-05
0.00301819
9.72713e-05
0.000356336
0.00251766
0.115207
0.000118671
0.000515784
0.0190057
0.0187591
0.0457874
0.0442503
0.0322066
0.00172737
0.00107216
0.00050514
0.002915
0.208833
0.0358439
0.00025398
0.000293202
0.00408511
0.000361688
0.000235771
0.000121398
0.158417
9.09651e-05
0.000906008
0.00953759
0.00810303
0.000474797
0.000492784
0.000585552
1.49232e-05
1.14083e-05
8.59013e-06
0.0161093
0.01175
0.0383779
0.0250496
1.12994e-06
2.1158e-06
0.00253186
0.216811
0.214452
0.0332423
0.0377496
0.000686483
0.00928317
0.00453297
0.00955552
0.00139139
0.00119593
0.0134751
0.0010689
0.00104227
0.00152219
0.00114333
0.00131291
0.0176884
0.142717
0.148864
0.0410405
0.000111522
0.00180726
7.10933e-06
9.3143e-05
0.0151821
0.0820622
0.0296779
0.0898456
0.0769356
0.0376512
0.0982365
0.0103355
0.0159012
0.00167997
0.00182934
0.00167585
0.00080306
0.00629831
0.00324468
0.00163565
0.00141421
0.00194521
0.0045721
0.0355257
9.9233e-06
0.0645479
0.00160912
0.00166126
0.168283
0.0446463
0.0433367
0.00527729
0.0115159
0.00496576
0.000360046
0.00428911
0.000117278
9.34237e-05
0.000395841
0.00017165
0.000509246
0.00146114
0.00166873
0.000440841
0.000131567
0.000556577
0.00125974
0.000153876
0.0442019
0.0475818
0.00118025
0.0209735
0.0014433
0.000143443
0.00322481
0.0098787
0.00471645
0.000781036
0.00897639
0.000648784
0.00377051
0.00184712
0.000144937
0.00167731
0.000134394
0.00126401
0.0024483
0.00201641
0.00818794
0.105707
0.00140264
0.119925
0.123019
0.00242147
0.00166373
0.00778464
0.00701494
0.166896
0.000907496
0.0866681
0.000693596
0.00251104
0.00138255
0.00217767
0.00187186
0.00248125
0.00685432
0.0164348
0.00607497
0.00459219
0.0505311
0.00382083
0.0204978
0.00219362
0.0152366
0.0599305
0.0554252
0.00451441
0.0499401
0.00446627
0.0548196
0.00382465
0.172552
0.0528168
0.048938
6.11187e-05
0.00146195
0.00137815
0.00139855
0.0325576
0.00122626
0.0322448
0.0434714
0.0332969
0.00130762
0.0281796
0.170678
0.00113282
0.00177254
0.0434945
0.00181001
0.00166117
0.00118842
0.000463173
0.0483966
0.00191996
0.00439448
0.0368305
0.0462173
0.0067979
0.000642162
0.066538
0.00352304
0.000235754
0.00314185
0.00154789
0.00767765
0.00119785
0.00101586
0.120324
0.0121858
0.104252
0.00235774
0.0177597
0.000118724
0.00994914
0.00362705
0.0822
0.17098
0.0420941
0.00881582
0.0343298
0.0338467
0.0652723
0.0551695
0.00228508
0.0113993
0.0186155
0.158997
0.0115739
4.60049e-05
2.83061e-05
3.66539e-05
0.00628084
0.0240543
9.13583e-05
0.00058553
0.000174025
0.000446047
0.000140223
2.21182e-05
0.000768928
0.000642033
0.0349311
0.0250807
0.00896202
0.210913
0.0243022
0.0199319
0.000404276
0.0072093
9.95281e-05
0.0989261
0.0385032
0.105832
0.00508093
0.123562
0.160713
0.000373033
0.0485056
0.000281493
0.000183758
5.91885e-05
0.0238099
0.00121204
0.0353955
0.00119168
0.0668537
0.000293086
0.194458
0.0487221
0.00052701
0.0821542
0.000960042
0.005266
0.0123893
0.000728992
0.00343917
0.00855725
0.000631181
0.00074976
0.162086
0.0010758
0.00133644
0.000988214
0.00143355
4.24243e-05
3.92259e-05
8.65668e-05
5.34799e-05
0.000868186
7.56092e-05
0.0609301
0.00105358
0.000138553
0.000662745
0.00268574
0.000494272
0.0265186
8.1543e-06
0.00110023
0.000914259
0.00702668
0.0012786
0.00475984
0.0013173
0.047259
0.00154
2.00338e-05
0.0506734
0.00389251
0.0278854
0.000757449
0.0321592
0.152457
0.000899445
0.000674729
0.13458
0.0415053
0.0104619
0.00220413
0.0444694
0.00121283
0.000101462
6.65417e-06
0.0537923
0.0251583
0.0100496
9.74264e-06
0.06071
0.0266338
0.0618552
0.0675406
0.0280757
1.30635e-05
0.00113231
0.0270813
6.56104e-06
3.57042e-06
0.00928542
0.0193897
7.87447e-06
0.0376009
0.0109135
0.00119571
0.00413352
0.01596
0.0181782
0.153232
0.000484323
0.000477729
7.42682e-05
0.0032515
0.0406865
0.00592897
6.85882e-05
0.00496532
5.37605e-06
0.00197716
0.000427335
0.00511037
0.0003616
0.000853749
0.0540731
0.000880775
0.0718721
0.00451912
0.204879
0.0400678
0.000220795
0.0177128
0.207929
0.0291233
0.000242823
0.0878895
0.00214246
0.0246026
0.000288271
0.00188091
0.000237419
1.36986e-05
0.00341387
0.0254764
3.88054e-06
0.0286982
0.00287051
0.00175146
0.000182028
1.12622e-05
0.0143341
0.0142129
0.130144
4.8971e-06
0.000597693
0.0137488
0.15568
6.43694e-07
0.00114277
0.0176847
0.0279702
0.00860018
0.0199192
0.000202207
0.0668463
0.0222985
0.0198877
0.00651274
0.167743
0.00175013
0.000385414
0.0685423
0.000596801
0.212709
0.000378948
0.000670868
0.0119547
2.42811e-06
0.107928
0.0156285
6.07159e-05
0.0262848
0.00918524
0.00650986
0.0460192
0.140579
0.0127839
0.00197658
0.116661
0.0780519
0.00180906
0.00531888
0.0629044
0.0201929
3.4142e-05
0.0648397
0.0161654
0.00120484
0.000134899
0.00192328
0.000201111
9.58508e-05
0.00422169
5.07496e-05
6.98321e-05
0.00624934
0.0394079
3.55864e-05
0.00411637
0.0122124
0.0158796
0.00288648
0.00256602
0.00727568
0.0109411
0.00121777
0.000689128
0.0190343
0.0123016
0.212079
0.00260409
0.0114196
0.00152943
0.00220333
0.00161068
0.0042248
0.0188492
0.00204603
0.0731758
0.0515278
0.00344877
0.14309
0.0850548
0.0103451
0.00372727
0.0160772
0.00322709
0.0560057
0.0151639
0.000272445
0.0110604
0.0613401
0.0213029
0.130288
0.0537808
0.00480248
0.0013908
4.95559e-05
0.000412552
2.59605e-06
0.00275563
0.0150146
0.00129943
0.00468148
0.0204864
9.01786e-07
0.000137194
1.14589e-05
0.00990583
0.0215781
6.34839e-05
0.0846972
0.00279294
0.0789083
0.064916
0.153132
5.82928e-06
0.0281777
0.00468184
0.00199075
0.0569183
0.0441691
0.0287672
0.117195
0.0407322
6.76158e-05
0.115955
4.62617e-05
4.47875e-05
0.126258
0.051637
5.36155e-05
9.11795e-06
7.71755e-05
0.000493785
5.50204e-05
0.000199081
0.000366853
0.00654659
2.93996e-05
0.00499415
0.00420486
0.00185781
0.0241824
0.0049751
5.83202e-06
6.73473e-05
0.0534939
0.00686086
0.00103471
0.00881479
3.59354e-05
0.000209427
0.000951207
1.0663e-05
0.000460889
0.0360773
0.00628965
0.000296928
5.83979e-06
0.00176572
0.0317484
0.000831552
0.000206456
0.0604511
0.0013712
0.0269945
0.00743859
3.01448e-05
0.0102348
0.0268588
3.7428e-05
0.0590586
0.0781229
0.00154833
0.0159147
4.31517e-05
0.116432
0.0688702
1.66352e-05
0.0750967
0.0304667
0.00187836
2.48196e-05
0.000174625
0.0413688
0.203516
0.000363822
0.0463071
1.28349e-05
0.068135
0.0550521
0.000610085
0.00941437
0.000567795
0.0867503
0.118907
0.0399692
0.00654016
0.0634388
0.000110393
0.00187016
0.000619983
1.27741e-05
0.00117435
0.066817
0.0404967
5.03873e-05
0.0351152
0.000781737
0.0420532
0.0906763
0.0514563
0.000328511
0.0331448
0.049906
7.48961e-07
0.039749
5.81455e-05
0.0814473
0.00497223
0.0322689
0.0883726
8.10366e-05
0.155106
2.9237e-05
0.00862433
0.000509082
0.0157101
0.00458775
0.0522427
0.0135638
0.000244873
0.000293563
0.00819795
0.013495
0.000136641
3.94116e-06
4.72825e-05
0.0487428
0.000115322
0.00350112
6.55143e-06
0.0501687
0.00106072
4.67925e-06
3.85733e-05
0.0440637
0.0189949
0.0426961
0.00278631
0.000238101
0.000270982
0.0524455
0.0491297
0.0525009
0.0362858
0.0102086
0.19529
0.0149373
0.210917
0.153251
0.027148
0.0426097
0.00662818
0.000851313
0.00104382
5.73873e-05
0.0426912
0.000104172
0.00224191
7.3204e-05
0.00123101
0.123076
0.135207
0.0331184
0.119034
2.2564e-05
0.00196263
0.0046946
0.000724656
0.000580059
0.000692909
0.000657473
0.00193226
0.00384857
0.0597839
0.00154593
0.00146563
0.00114366
0.00151737
0.031024
1.74157e-05
0.00149241
0.0292831
0.00171133
0.0292657
0.134821
0.0459911
5.99267e-05
0.0473682
0.000199582
0.000475012
0.0357386
0.000149879
0.00169652
0.0661187
0.00135751
0.0016942
0.00199385
0.00142219
0.00114372
0.000908212
0.000916598
0.00137001
0.115932
0.000352926
0.124916
0.000397424
0.00239654
0.0406278
0.0047052
0.00440346
0.0606948
0.00321011
0.100773
0.00901527
0.0126695
0.0695651
0.0618226
0.000273335
0.000173678
1.36444e-05
0.000209073
0.00199439
0.00135206
8.64393e-07
1.09581e-06
0.131604
0.143595
0.00722514
0.149723
0.000758019
0.0971413
0.10683
0.113918
0.000257117
0.00158644
8.64614e-05
9.0624e-05
6.30296e-05
0.000603458
6.58217e-05
7.657e-05
0.00342415
0.000174263
0.000313756
0.00359014
0.0817002
0.00104692
0.00539856
0.0773083
0.00544402
0.070947
0.00293451
7.44521e-05
0.000157384
1.25257e-06
0.0265609
1.53342e-06
1.61336e-06
2.23004e-06
0.0314106
0.016697
0.0199732
1.00938e-06
6.35006e-07
0.0163553
7.20455e-07
4.45721e-07
0.0182298
7.0281e-07
0.0134132
5.39232e-07
0.014622
5.29725e-07
0.0690186
0.00630337
0.0916641
0.000100838
0.0562865
0.000109246
0.043091
0.00273892
0.0514306
0.00372636
0.0744761
0.00345184
0.05798
0.00246801
0.0670697
0.000351563
0.000249318
0.000302864
0.000941364
0.0003307
0.000269425
0.00024021
0.000235785
0.00115784
0.000270298
0.000458277
0.0250429
0.000762216
0.000146728
0.000364302
0.00353063
0.00380768
0.0212672
0.000221426
0.110263
0.0812293
0.000316407
0.0634946
0.000291388
0.00645754
0.0702601
0.201013
0.00320006
0.0616123
0.00108264
0.0552388
0.0389111
0.000175022
0.000283596
0.0218479
0.0115043
0.00806055
0.0174971
0.0051473
0.00386694
0.00522239
0.0562465
0.000909648
0.0297542
0.0213199
0.0343099
6.62816e-06
9.64224e-06
0.022538
0.00140791
0.0620993
0.00141493
0.000758656
0.0235542
0.00107964
0.022038
0.0230662
0.0221314
0.0176208
0.0138895
0.0151999
0.0906198
0.00040541
0.0208189
0.0014601
8.89365e-06
0.000374305
0.0104178
0.000538724
0.0291669
0.0400398
0.142506
0.000809702
0.000311242
0.148092
0.00697199
7.42033e-06
0.00355112
8.07372e-06
0.000232366
0.00130719
1.03044e-05
3.13238e-06
4.70463e-06
4.96172e-06
0.00430541
0.0757738
0.0980465
0.00685706
0.0358462
0.0403102
0.0373477
0.0367378
0.105268
0.00364838
5.17127e-05
4.63963e-05
0.000563295
0.000608423
0.000164522
0.00023301
3.43415e-05
0.000167279
3.37546e-05
0.000213157
4.36873e-05
0.000253297
0.0423153
0.000451057
0.000328979
0.000427792
0.000510929
4.79642e-05
5.95789e-05
7.64134e-05
0.000291187
0.0352421
0.0370661
0.0150353
0.0438951
0.0328891
0.0295585
0.00507222
0.0638648
0.0815288
0.0134059
0.121524
0.100914
0.00922454
0.161802
0.00234934
0.00162392
0.00133213
0.0280968
0.0297816
0.162851
0.00452531
0.124938
0.124734
0.128858
0.136912
0.00223798
0.000866831
0.00262739
0.00283769
0.0725545
0.0415664
0.0477704
0.00346583
0.0823961
0.0750949
0.0726988
0.00252117
0.000831852
0.0014406
2.43125e-05
1.57004e-05
1.71892e-05
0.00224842
0.00170378
0.00213008
0.00245577
0.0464979
0.122881
0.129896
0.142616
0.136482
0.142169
0.106976
0.00335649
0.000305329
0.000364897
0.000332926
0.0321512
0.0898129
0.20056
0.0205819
0.00016332
0.000160604
2.84744e-06
1.94523e-06
2.70739e-06
3.40812e-06
0.0407274
0.0401573
0.037123
0.0136509
0.000631398
0.000444431
0.00272083
0.000522199
0.000453268
0.0122853
0.0170785
0.00251917
0.0027828
0.00868894
0.0123471
0.00963829
0.0772259
0.00921509
0.0851491
0.0376065
0.0345432
0.00358028
0.00266564
0.0029268
0.00662392
0.00315951
0.0963154
0.0997146
0.103588
0.11215
1.12907e-05
9.58006e-06
7.60808e-06
0.0923346
0.00204472
0.0544072
0.00808626
0.0611452
0.0653096
0.00905273
0.0161328
0.00725415
0.0100004
0.00801603
0.00474917
0.0224657
0.172874
0.0702735
0.0276114
0.00192914
0.030659
0.00201716
0.0336948
0.103255
0.111375
0.109275
0.116761
0.0159377
0.00237598
0.00368673
0.00329253
0.00266632
0.0577103
0.082739
0.00499653
0.07743
0.00531006
0.00383675
0.00173808
0.0898899
0.0332578
0.00556645
0.0350318
0.000882235
2.56784e-05
3.7078e-05
3.70956e-05
0.00237477
0.00209153
0.00246676
0.000184332
0.0024751
0.00302599
0.00181581
0.147398
0.0263195
0.150027
0.153012
0.0019465
0.00893099
0.00227943
0.00326814
0.0870447
0.0829978
0.00694794
0.131624
0.00132417
0.00110373
0.00100552
0.00255216
0.00221302
0.0828394
0.0231194
0.0237455
0.00654935
0.00896642
0.0749324
0.00134798
0.000244644
0.036704
1.5402e-06
1.15569e-06
1.47157e-06
1.84294e-06
0.0348475
1.7993e-05
2.05685e-05
2.54567e-05
0.0383244
0.171459
0.15315
0.16101
0.00340733
0.00346594
3.87323e-06
2.42095e-06
3.39797e-06
4.1685e-06
0.0543228
0.177476
0.014196
0.14914
0.182435
0.000217679
0.000181168
0.000112736
0.000148472
0.000155352
1.16945e-05
1.54542e-05
1.40244e-05
1.76891e-05
0.00532842
0.00174666
0.00206107
0.0076307
0.00642955
0.167428
0.158441
0.0106105
0.198415
9.49029e-07
0.0587183
0.0667918
0.01268
0.00385115
0.0276631
0.145026
0.163368
0.0548845
0.0916424
0.022292
0.00434295
0.0249798
4.16014e-05
0.0010161
0.000861139
0.000719676
0.0072603
0.00732728
0.151476
0.00175737
0.00169115
0.0955013
0.0701487
0.0648599
0.000738236
0.000927148
0.000117551
0.000141569
0.00500703
1.61946e-06
0.00728715
0.0291418
1.31087e-06
1.99706e-06
2.00898e-06
0.00402646
0.00534014
0.000337166
8.46111e-05
7.9752e-05
9.99951e-05
0.03912
0.0496077
0.000375928
0.000422578
0.000551632
0.0384476
0.000162512
0.000177049
0.000797562
0.00062206
0.000668851
0.000567989
0.0542698
0.0523749
0.000878211
0.000594046
0.000735795
0.000811774
0.00038975
0.000463789
0.000385143
0.0467993
0.00153968
0.00260082
0.00193229
0.00171188
0.141758
0.0736912
0.0745403
0.0780163
0.0861128
0.00208388
0.00472543
0.00600172
0.0250777
0.186165
0.000280114
0.000332054
0.210201
0.20728
0.000458039
0.0816103
0.00376496
0.00361291
0.00518815
0.0360748
0.0458746
0.0101854
0.0144818
0.129524
0.0029903
0.00326265
0.00529142
0.0115264
0.00109388
0.027941
0.0303726
0.0307052
0.0198619
2.99003e-05
0.000248652
0.00019891
2.83299e-05
3.5039e-05
0.00122008
0.0129154
0.0118075
0.000967095
7.13173e-06
7.11761e-06
9.07791e-06
1.21671e-05
0.00697313
0.0419231
0.0457773
0.0503548
8.11239e-07
9.67385e-07
1.25035e-06
8.77263e-06
1.53019e-05
0.12485
0.00824221
0.00938019
5.77407e-05
0.0110243
0.00551194
0.0081323
0.0228026
0.00783745
0.00198333
0.000414817
0.000431551
0.000358174
0.000256769
0.000160518
1.68046e-05
0.000199069
0.000147937
0.0350549
0.0332732
0.00759341
2.05341e-05
1.94583e-05
0.10452
0.116497
0.00254881
0.00349312
0.00498298
0.00369308
0.00319593
0.00527554
3.11304e-06
1.77451e-06
2.22115e-06
1.95906e-06
0.0406466
7.77794e-05
0.00369226
0.180227
0.186237
0.186721
0.0453163
0.0366354
0.0372018
0.100692
0.118477
0.101652
0.000138689
0.000125729
0.000166494
0.184325
0.179343
0.187642
0.194065
0.0109322
0.00212844
0.0022849
0.000184106
0.00263818
0.00322653
0.000161477
0.000192198
0.000213743
0.191292
0.000371328
0.000473516
0.0475577
0.00380283
0.00512282
9.72894e-06
5.93697e-06
7.06779e-06
0.0003907
0.108389
0.000140139
0.000147906
0.000118369
0.0223037
0.0926407
0.0872854
0.0894289
0.000913023
0.00133833
0.000197603
0.000127887
0.000159002
0.0882366
0.0981013
0.103315
0.000165463
0.000183176
0.000241897
0.0282664
0.00699893
0.00958779
0.0509548
0.0546347
0.000974641
0.0304534
0.0567056
0.057199
0.0460111
0.158078
0.00124233
0.0671984
0.0830234
0.0661157
0.0744523
0.00102475
0.0816088
0.00545198
0.00301984
0.00209106
0.0025274
0.000412235
0.000527152
0.000531583
0.2145
0.21527
0.0202447
1.57323e-05
0.000117479
2.01253e-05
2.43763e-05
0.000270544
2.4411e-05
1.51424e-05
1.86603e-05
0.00102212
0.00446105
0.00044253
0.000298847
0.000210299
0.00023808
0.000492202
0.105486
0.00211041
0.0370202
0.0459989
0.0658972
0.0023828
0.103866
0.114176
0.114302
0.0026135
0.00281237
0.00278245
0.123315
0.135687
0.00388808
0.0049302
0.000933275
0.000995315
0.00104352
0.0573631
0.0671036
0.0702672
0.0612791
0.0715058
0.00116216
0.0010445
0.000990914
0.000778196
0.0760252
0.00170869
0.00226438
0.00754073
0.0208435
0.137442
0.157347
0.00578219
0.00726206
0.00612975
0.144572
0.148838
0.149444
0.00850549
0.14115
0.143472
0.135362
0.0266529
0.0180626
0.0344634
0.00813567
0.0565424
0.059419
0.000188117
0.000155651
0.000200013
0.0222921
0.0235338
0.123809
0.00315732
0.134562
0.00279267
0.0120275
0.0211079
0.00692042
0.0267792
0.0175096
0.0155492
0.0132869
0.017549
1.31375e-05
1.07084e-05
1.361e-05
1.71354e-05
0.000788133
0.0790372
0.000551105