# vtk DataFile Version 2.0
Unstructured Grid by M++
ASCII
DATASET UNSTRUCTURED_GRID
POINTS 4072 float
  0.828125   0.890625 0
  0.875000   0.531250 0
  0.828125   0.750000 0
  0.593750   0.968750 0
  0.828125   0.671875 0
  0.828125   0.875000 0
  0.593750   0.937500 0
  0.828125   0.656250 0
  0.828125   0.640625 0
  0.828125   0.843750 0
  0.593750   0.906250 0
  0.828125   0.625000 0
  0.781250   0.968750 0
  0.828125   0.609375 0
  0.828125   0.812500 0
  0.593750   0.875000 0
  0.593750   0.828125 0
  0.593750   0.796875 0
  0.828125   0.703125 0
  0.593750   0.765625 0
  0.828125   0.937500 0
  0.812500   0.875000 0
  0.859375   0.515625 0
  0.812500   0.734375 0
  0.812500   0.937500 0
  0.578125   1.000000 0
  0.578125   0.750000 0
  0.812500   0.687500 0
  0.578125   0.953125 0
  0.812500   0.656250 0
  0.812500   0.859375 0
  0.578125   0.921875 0
  0.812500   0.828125 0
  0.578125   0.890625 0
  0.812500   0.593750 0
  0.812500   0.796875 0
  0.578125   0.859375 0
  0.578125   0.812500 0
  0.578125   0.781250 0
  0.796875   1.000000 0
  0.796875   0.859375 0
  0.796875   0.718750 0
  0.562500   0.984375 0
  0.562500   0.937500 0
  0.796875   0.843750 0
  0.562500   0.906250 0
  0.796875   0.812500 0
  0.562500   0.875000 0
  0.796875   0.578125 0
  0.796875   0.781250 0
  0.562500   0.843750 0
  0.812500   0.984375 0
  0.562500   0.796875 0
  0.812500   0.953125 0
  0.562500   0.765625 0
  0.796875   0.937500 0
  0.546875   0.750000 0
  0.781250   0.984375 0
  0.828125   0.593750 0
  0.781250   0.843750 0
  0.781250   0.937500 0
  0.546875   1.000000 0
  0.781250   0.703125 0
  0.546875   0.968750 0
  0.546875   0.921875 0
  0.781250   0.828125 0
  0.546875   0.890625 0
  0.781250   0.796875 0
  0.546875   0.859375 0
  0.781250   0.562500 0
  0.781250   0.765625 0
  0.546875   0.828125 0
  0.796875   0.968750 0
  0.546875   0.781250 0
  0.765625   1.000000 0
  0.765625   0.968750 0
  0.531250   0.984375 0
  0.765625   0.687500 0
  0.531250   0.953125 0
  0.531250   0.937500 0
  0.531250   0.906250 0
  0.765625   0.812500 0
  0.531250   0.875000 0
  0.765625   0.781250 0
  0.531250   0.843750 0
  0.781250   1.000000 0
  0.765625   0.546875 0
  0.765625   0.750000 0
  0.531250   0.812500 0
  0.781250   0.953125 0
  0.531250   0.765625 0
  0.515625   0.750000 0
  0.750000   0.984375 0
  0.750000   0.953125 0
  0.796875   0.593750 0
  0.796875   0.562500 0
  0.750000   0.843750 0
  0.750000   0.937500 0
  0.515625   1.000000 0
  0.750000   0.906250 0
  0.515625   0.968750 0
  0.750000   0.671875 0
  0.750000   0.875000 0
  0.515625   0.937500 0
  0.515625   0.921875 0
  0.515625   0.890625 0
  0.750000   0.796875 0
  0.515625   0.859375 0
  0.750000   0.765625 0
  0.515625   0.828125 0
  1.000000   0.718750 0
  0.750000   0.531250 0
  0.750000   0.734375 0
  0.515625   0.796875 0
  0.734375   1.000000 0
  0.734375   0.968750 0
  0.734375   0.937500 0
  0.781250   0.578125 0
  0.781250   0.546875 0
  0.968750   0.578125 0
  0.734375   0.828125 0
  0.968750   0.546875 0
  0.734375   0.796875 0
  0.734375   0.765625 0
  0.968750   0.671875 0
  0.734375   0.734375 0
  0.968750   0.640625 0
  0.734375   0.703125 0
  0.968750   0.609375 0
  0.734375   0.671875 0
  0.734375   0.656250 0
  0.734375   0.625000 0
  0.968750   0.531250 0
  0.734375   0.593750 0
  0.984375   0.734375 0
  0.984375   0.703125 0
  0.734375   0.515625 0
  0.718750   0.984375 0
  0.718750   0.953125 0
  0.718750   0.921875 0
  0.953125   0.562500 0
  0.718750   0.812500 0
  0.953125   0.531250 0
  0.718750   0.781250 0
  0.718750   0.750000 0
  0.953125   0.656250 0
  0.718750   0.718750 0
  0.953125   0.625000 0
  0.718750   0.687500 0
  0.953125   0.593750 0
  0.718750   0.656250 0
  0.671875   1.000000 0
  0.718750   0.640625 0
  0.718750   0.609375 0
  0.953125   0.515625 0
  0.718750   0.578125 0
  0.968750   0.718750 0
  0.968750   0.687500 0
  0.953125   0.671875 0
  0.703125   0.968750 0
  0.703125   0.937500 0
  0.937500   0.656250 0
  0.703125   0.906250 0
  0.937500   0.546875 0
  0.703125   0.796875 0
  0.937500   0.515625 0
  0.703125   0.765625 0
  0.937500   0.671875 0
  0.703125   0.734375 0
  0.937500   0.640625 0
  0.703125   0.703125 0
  0.937500   0.609375 0
  0.703125   0.671875 0
  0.937500   0.578125 0
  0.703125   0.640625 0
  0.656250   0.984375 0
  0.703125   0.625000 0
  0.703125   0.593750 0
  0.718750   0.796875 0
  0.953125   0.734375 0
  0.812500   1.000000 0
  0.859375   0.656250 0
  0.703125   0.781250 0
  0.937500   0.718750 0
  0.953125   0.703125 0
  0.796875   0.984375 0
  0.843750   0.640625 0
  0.812500   0.968750 0
  0.859375   0.625000 0
  0.796875   0.953125 0
  0.843750   0.609375 0
  0.687500   0.953125 0
  0.687500   0.921875 0
  0.687500   0.890625 0
  0.921875   0.734375 0
  0.687500   0.796875 0
  0.687500   0.781250 0
  0.921875   0.703125 0
  0.687500   0.765625 0
  0.687500   0.750000 0
  0.921875   0.656250 0
  0.687500   0.718750 0
  0.921875   0.625000 0
  0.687500   0.687500 0
  0.921875   0.593750 0
  0.687500   0.656250 0
  0.640625   1.000000 0
  0.921875   0.562500 0
  0.687500   0.625000 0
  0.640625   0.968750 0
  0.687500   0.609375 0
  0.687500   0.578125 0
  0.937500   0.687500 0
  0.921875   0.671875 0
  0.671875   0.921875 0
  0.906250   0.656250 0
  0.671875   0.906250 0
  0.671875   0.875000 0
  0.906250   0.718750 0
  0.671875   0.781250 0
  0.671875   0.765625 0
  0.671875   0.734375 0
  0.906250   0.640625 0
  0.671875   0.703125 0
  0.906250   0.609375 0
  0.671875   0.671875 0
  0.906250   0.578125 0
  0.671875   0.640625 0
  0.625000   0.984375 0
  0.671875   0.609375 0
  0.625000   0.953125 0
  0.671875   0.593750 0
  0.671875   0.562500 0
  0.765625   0.953125 0
  0.812500   0.609375 0
  0.656250   1.000000 0
  0.656250   0.953125 0
  0.656250   0.906250 0
  0.890625   0.640625 0
  0.656250   0.890625 0
  0.656250   0.859375 0
  0.890625   0.734375 0
  0.656250   0.796875 0
  0.812500   0.921875 0
  0.562500   1.000000 0
  0.625000   0.828125 0
  0.812500   0.843750 0
  0.843750   0.593750 0
  0.812500   0.812500 0
  0.625000   0.718750 0
  0.828125   0.687500 0
  0.640625   0.593750 0
  0.812500   0.781250 0
  0.625000   0.687500 0
  0.765625   0.828125 0
  0.640625   0.562500 0
  0.812500   0.750000 0
  0.562500   0.828125 0
  0.781250   0.875000 0
  0.546875   0.937500 0
  0.781250   0.671875 0
  0.781250   0.593750 0
  0.546875   0.656250 0
  0.796875   0.750000 0
  0.562500   0.812500 0
  0.796875   0.546875 0
  0.765625   0.796875 0
  0.765625   0.593750 0
  1.000000   0.531250 0
  0.812500   0.718750 0
  0.859375   0.562500 0
  0.625000   0.625000 0
  0.812500   0.703125 0
  0.812500   0.906250 0
  0.578125   0.968750 0
  0.984375   0.593750 0
  0.828125   0.578125 0
  0.828125   0.781250 0
  0.593750   0.843750 0
  0.812500   0.671875 0
  0.625000   0.578125 0
  0.796875   0.671875 0
  0.562500   0.734375 0
  0.984375   0.562500 0
  0.828125   0.546875 0
  0.812500   0.640625 0
  0.750000   0.812500 0
  0.625000   0.546875 0
  0.796875   0.640625 0
  0.562500   0.703125 0
  0.828125   0.515625 0
  0.781250   0.734375 0
  0.546875   0.796875 0
  0.781250   0.531250 0
  0.750000   0.781250 0
  0.625000   0.515625 0
  0.796875   0.609375 0
  0.562500   0.671875 0
  0.765625   0.656250 0
  0.765625   0.859375 0
  0.531250   0.921875 0
  0.812500   0.578125 0
  0.562500   0.656250 0
  0.984375   0.687500 0
  0.750000   0.750000 0
  0.812500   0.562500 0
  0.812500   0.765625 0
  0.578125   0.828125 0
  0.562500   0.625000 0
  0.984375   0.656250 0
  0.750000   0.718750 0
  0.812500   0.531250 0
  0.781250   0.656250 0
  0.546875   0.718750 0
  0.781250   0.625000 0
  0.546875   0.687500 0
  0.750000   0.640625 0
  0.796875   0.531250 0
  0.562500   0.593750 0
  0.984375   0.625000 0
  0.750000   0.687500 0
  0.546875   0.984375 0
  0.609375   0.812500 0
  0.796875   0.875000 0
  0.546875   0.953125 0
  0.609375   0.578125 0
  0.843750   0.515625 0
  0.765625   0.515625 0
  0.765625   0.718750 0
  0.531250   0.781250 0
  0.984375   0.546875 0
  0.750000   0.609375 0
  0.796875   0.828125 0
  0.671875   0.968750 0
  0.796875   0.796875 0
  0.796875   0.765625 0
  0.609375   0.671875 0
  0.796875   0.734375 0
  0.546875   0.812500 0
  0.796875   0.703125 0
  0.843750   0.546875 0
  0.609375   0.609375 0
  0.796875   0.687500 0
  0.562500   0.953125 0
  0.796875   0.656250 0
  0.609375   0.562500 0
  0.796875   0.625000 0
  0.609375   0.531250 0
  0.546875   0.640625 0
  0.765625   0.671875 0
  0.531250   0.734375 0
  0.796875   0.515625 0
  0.765625   0.640625 0
  0.531250   0.703125 0
  0.703125   1.000000 0
  0.765625   0.609375 0
  0.531250   0.671875 0
  0.765625   0.578125 0
  0.531250   0.640625 0
  0.546875   0.609375 0
  0.531250   1.000000 0
  0.890625   0.593750 0
  0.656250   0.656250 0
  0.781250   0.515625 0
  0.546875   0.578125 0
  0.531250   0.968750 0
  0.890625   0.562500 0
  0.656250   0.625000 0
  0.609375   0.968750 0
  0.781250   0.859375 0
  0.656250   0.593750 0
  0.750000   0.703125 0
  0.515625   0.765625 0
  0.781250   0.812500 0
  0.781250   0.781250 0
  0.593750   0.687500 0
  0.781250   0.750000 0
  0.593750   0.656250 0
  0.781250   0.718750 0
  0.531250   0.796875 0
  0.828125   0.562500 0
  0.593750   0.625000 0
  0.781250   0.687500 0
  0.828125   0.531250 0
  0.593750   0.593750 0
  0.812500   0.625000 0
  0.578125   0.687500 0
  0.781250   0.640625 0
  0.781250   0.609375 0
  0.593750   0.515625 0
  0.515625   0.781250 0
  0.812500   0.546875 0
  0.578125   0.609375 0
  0.812500   0.515625 0
  0.578125   0.578125 0
  0.750000   0.656250 0
  0.515625   0.718750 0
  0.750000   0.625000 0
  0.515625   0.687500 0
  0.687500   0.984375 0
  0.750000   0.593750 0
  0.515625   0.656250 0
  0.531250   0.546875 0
  0.750000   0.562500 0
  0.515625   0.625000 0
  0.531250   0.515625 0
  0.984375   0.515625 0
  0.750000   0.578125 0
  0.515625   0.531250 0
  0.828125   0.796875 0
  0.640625   0.703125 0
  0.828125   0.765625 0
[...]
CELL_DATA 7648
SCALARS scalar_value float 1
LOOKUP_TABLE default
1.09243e-10
0
2.11627e-06
1.85251e-06
1.34181e-06
2.54794e-06
0.0846112
0.0736888
0.0684887
0.0681185
0.0240023
0.0170863
0.0108576
0.0168163
0.00815175
0.00811072
0.00596548
0.0120523
1.22907e-06
5.8617e-07
1.11564e-06
1.00257e-06
6.31485e-07
5.03772e-07
7.1655e-09
4.91837e-09
2.93782e-09
5.30306e-09
1.18392e-09
8.01021e-10
4.924e-10
8.56757e-10
0.00157649
0.00130532
0.00117365
0.000972701
0.0037528
0.00312074
0
0
0.00372478
0.00309415
9.396e-10
7.14067e-10
0.000518766
0.000649962
0.000819218
0.000538159
0.00119197
0.00122745
0.00152861
0.00092523
0.000464033
0.000453309
0.000560187
0.000339225
4.72257e-06
5.13556e-06
2.53421e-06
4.21134e-06
2.69027e-06
2.1438e-06
0.00535436
0.00409929
0.00353769
0.00276041
0.00220796
0.00132968
0.00120306
0.00125428
0.00100547
0.000949215
0.00100183
2.07045e-06
7.9821e-09
5.48547e-05
4.91628e-05
3.71091e-05
6.37585e-05
2.29631e-05
3.1117e-05
2.81131e-05
4.10152e-05
3.21355e-05
3.16318e-05
2.41548e-05
4.30757e-05
3.99894e-10
2.32597e-10
2.02522e-10
0.0183828
0.0168628
0.0171601
0.0155153
0.0152081
0.0137674
0.0119425
0.0138559
0.0129018
0.0124975
0.011544
0.012576
0.0109892
0.00984077
4.7838e-07
0.000137344
0.000238779
0.000208546
2.06004e-08
1.52771e-08
1.06483e-08
1.43682e-08
0.000308774
0.00024293
0.00021173
0.000176489
0.000101676
7.24863e-05
6.62033e-05
0.030876
0.0251307
0.0234721
0.0220903
0.017538
0.016438
0.0190569
0.0130612
7.81698e-08
5.70641e-08
3.72283e-08
5.56952e-08
2.22442e-06
1.64021e-06
1.18625e-06
1.50956e-06
0.0903869
0.0851955
0.0919189
0.0741254
0.00514669
9.49471e-09
6.81445e-09
0.000891584
0.000641052
0.000644468
0.000429252
0.000212436
0.000332885
3.60869e-06
2.31883e-06
1.93418e-06
2.17148e-07
1.47441e-07
9.90111e-08
1.25357e-07
3.68543e-07
2.82526e-07
1.86084e-07
3.59191e-07
0.0149928
0.0107324
0.00594546
0.0050932
0.00368429
0.00605533
5.77748e-08
0.00565573
0.00465747
0.00347242
0.00495402
0
0
0
0
0.000123279
9.61535e-05
0.0221362
0.0186476
0.0152697
0.0177339
0.0127197
0.0123212
0.0102868
0.0149426
5.03055e-08
3.22257e-08
3.41358e-08
2.16658e-08
9.17191e-09
5.72936e-09
5.95888e-09
1.68908e-09
5.17313e-10
0.0141848
0.0120951
0.00999683
0.0118463
2.58928e-10
1.65652e-10
0
1.51629e-10
0.073674
0.0643131
0.0630651
0.0574196
0.00073081
0.000587052
0.054656
0.0489541
0.0417213
0.0495419
0.0527265
0.0454123
0.0438219
0.0403452
0.0435439
0.0369834
0.0366382
0.0319662
0.000239247
0.000244293
0.000306525
0.00019266
0.000474023
0.000777674
0.000442324
0.00267695
0.00184468
0.00136285
0.00197332
0.090665
0.0833368
0.0889109
0.0741949
5.52797e-06
4.03662e-06
2.92487e-06
3.48757e-06
0.0586895
0.0548088
0.0601282
0.0473687
1.50354e-06
1.07825e-06
7.50335e-07
9.57712e-07
1.16657e-09
9.01956e-10
2.89191e-09
1.70992e-09
1.2265e-09
8.21728e-10
7.22892e-10
3.70205e-10
2.17173e-10
4.43169e-10
2.21719e-10
2.02025e-10
1.50702e-10
7.16066e-06
5.38989e-06
4.05269e-06
4.86744e-06
8.44062e-06
6.3828e-06
7.4868e-06
4.70515e-06
3.74169e-06
2.75403e-06
3.01866e-06
2.0892e-06
0.00017148
0.000246989
0.000144721
4.38975e-05
3.3886e-05
2.568e-05
3.15103e-05
8.34917e-07
5.26305e-07
4.39324e-07
3.01931e-08
1.95965e-08
2.76244e-08
8.47232e-09
3.58813e-09
5.50159e-09
2.02438e-08
9.17651e-09
1.70219e-08
1.18675e-10
0
0
0
4.14126e-06
2.82681e-06
0.0150705
0.0227532
0.0014776
8.3861e-05
0.00260323
5.1403e-06
2.8254e-05
0.0855423
0.0736407
0.000585344
0.0723037
0.0810225
0.0564066
0.000483362
0.058449
0.00151983
0.000569486
0.00288017
0.000867383
0.000770703
0.001145
1.39885e-10
1.12931e-10
5.81127e-10
4.53559e-07
5.23896e-07
5.43468e-06
5.55531e-06
2.64904e-06
7.29504e-09
5.58276e-05
5.16974e-05
6.38362e-05
6.90915e-05
0.0106646
0.00823921
0.000163161
0.0680618
0.050529
0.0580397
0.0561506
0.0370618
0.071589
2.7696e-09
1.1555e-09
1.45984e-08
1.79067e-08
6.44607e-09
1.19992e-08
0.0014323
0.00198158
3.02447e-09
0.00195695
0.00814226
0.000802088
0.0531552
4.46273e-07
0.049938
2.09727e-08
6.5595e-09
7.59488e-09
7.61113e-09
1.16554e-09
1.85647e-05
5.28776e-06
5.71858e-06
3.80994e-06
8.67168e-06
2.26682e-09
9.08208e-07
1.62198e-05
1.20344e-05
8.76095e-06
8.12914e-06
1.58728e-10
5.98541e-10
4.7724e-10
0
0.00201674
0.0183714
1.54013e-06
2.10802e-05
2.14923e-05
9.97492e-06
1.10224e-05
7.88332e-08
2.29556e-05
0
0
0
1.31008e-06
1.24527e-06
1.84859e-06
2.84895e-06
1.31187e-06
1.88617e-06
4.52664e-07
1.76632e-06
5.93824e-07
4.23095e-06
2.05477e-06
3.63312e-06
2.09423e-07
1.20273e-07
0.0362131
3.63226e-07
0.0322282
2.57526e-07
2.68336e-06
0.0267613
0.0265235
1.70572e-07
0.0344895
0.028208
2.37783e-07
7.64479e-08
1.75161e-09
2.73021e-09
6.85938e-10
1.13839e-09
7.38628e-06
2.95196e-09
4.68255e-09
0.000164454
0.0636272
4.96387e-09
1.00289e-08
6.55252e-05
1.13018e-05
0.00212706
0.000435851
0.0188879
0.000791697
0.000420245
2.04977e-07
2.85689e-07
0.0300166
0.0236074
1.11636e-07
1.04816e-07
9.74924e-07
1.43769e-07
5.45998e-08
1.85087e-08
0.00654528
9.18787e-09
6.73217e-08
9.22317e-06
6.05443e-06
4.82615e-07
8.6812e-08
1.21862e-07
0
0
0
0.000176018
9.03658e-05
0.000112714
2.23392e-05
0
0
2.85567e-06
0.0426813
0.0537056
0.000130745
0.000211067
8.15541e-07
6.50559e-06
6.05151e-07
5.34554e-05
3.45295e-06
2.49573e-06
1.42839e-05
1.71381e-06
2.31616e-06
4.90905e-06
3.28129e-06
4.51349e-06
3.14918e-05
0.078986
0.069212
0.000235347
4.01913e-10
1.20484e-07
0
1.95744e-09
8.42039e-06
0.000762344
0.00157824
0.00129515
0.000805944
0.000187853
0.00312684
4.2675e-06
7.75609e-06
1.12345e-07
1.39798e-07
5.45822e-08
1.14789e-06
2.16331e-05
3.24663e-07
7.48918e-07
5.73335e-07
1.21564e-06
7.79961e-07
0.00344397
0
0.00284361
3.6298e-06
2.5974e-06
0.0613079
0.000255822
0.00025204
7.14063e-05
1.84194e-05
1.53212e-06
1.72359e-07
9.29962e-07
4.23043e-09
3.00743e-09
5.96066e-09
9.47468e-09
7.0675e-08
6.57748e-08
8.64451e-08
3.73268e-08
4.83972e-10
7.42152e-09
6.39688e-08
2.78001e-08
0.00404467
0.00284569
2.16894e-05
0.000262307
2.50424e-06
9.03935e-10
8.52916e-07
0.000118881
5.6067e-05
5.95904e-08
0.00533053
1.52332e-08
2.40381e-06
2.59475e-07
2.72069e-08
1.82736e-07
2.04689e-08
1.15008e-07
4.13227e-07
2.64664e-07
0.00357946
0.0335558
7.38582e-08
0.0363811
0.0310321
8.76213e-05
3.27232e-05
1.65725e-06
6.15272e-06
0.068503
1.21803e-06
0.00685409
1.85174e-07
2.45583e-07
0.000451528
0.000835988
1.20695e-07
0.000705338
2.36713e-05
1.45798e-05
1.75392e-05
4.14161e-05
0.000186964
1.36495e-05
3.2789e-05
5.17442e-06
1.65546e-05
0.000724557
0.000582999
0.000129699
0.000416383
9.68917e-05
0.000639732
0.00012299
0.0119285
0.00044727
0.000361773
1.17564e-09
4.9383e-05
3.8856e-05
3.22469e-05
0.000486257
3.29404e-05
0.000678807
0.00307758
0.00155524
2.50824e-05
0.000360311
0.00717736
1.74292e-05
6.35765e-05
0.000835008
5.28837e-05
4.04154e-05
5.601e-05
0.000127694
0.0010542
8.23863e-05
8.70116e-06
0.0260189
0.02576
0.00174272
4.20466e-08
0.000292033
9.2123e-07
8.25075e-08
1.84255e-06
2.57119e-07
3.08522e-05
1.22638e-06
8.03148e-07
0.00901654
1.91492e-05
0.0444745
9.50454e-06
1.96475e-05
6.44491e-10
5.12131e-06
6.15324e-06
0.0427617
0.0075213
0.000202183
9.37596e-05
0.000103921
0.000111932
0.00581204
0.000428754
2.2471e-07
0.000104762
1.09502e-05
0.0661567
3.83095e-06
4.6813e-10
1.84436e-10
3.65693e-10
4.5385e-06
0.0196396
1.40055e-09
1.19397e-08
8.65565e-09
7.07269e-09
5.31888e-09
1.39842e-10
1.98079e-08
1.39054e-08
0.000270297
0.000133099
9.00489e-06
0.0337123
9.10901e-05
0.000765662
8.7457e-09
8.95152e-05
3.46724e-10
0.00104375
0.0035295
0.00143528
9.61431e-07
0.0421726
0.00549433
1.33318e-07
0.000546119
2.92004e-09
1.23444e-09
9.27302e-10
0.000999193
3.97471e-05
0.000975042
2.69074e-05
0.0102748
7.55392e-08
0.015069
0.000129057
5.94109e-08
0.000929422
5.53011e-07
1.35285e-06
1.47265e-05
2.63114e-07
5.10438e-07
0.00466034
2.37303e-07
3.5726e-07
0.00639202
5.87004e-07
8.73763e-07
3.99311e-07
8.81833e-07
1.5979e-10
1.62775e-10
6.04486e-10
2.41472e-10
0.000201461
7.2766e-10
0.000229413
0.000174444
1.48804e-09
3.33203e-07
0.000563974
1.18793e-08
7.12812e-05
0
1.36944e-05
8.88841e-08
0.00304995
1.8297e-07
1.0461e-06
7.98283e-08
0.00147548
1.69913e-07
3.19727e-10
0.000371364
2.35807e-05
7.57718e-05
4.44458e-08
0.000111609
0.0181382
1.6648e-06
0.000219904
0.0027347
0.000456693
8.49346e-06
6.6745e-05
0.000609861
4.47579e-08
9.90518e-10
0
0.000161729
0.000338267
4.67182e-06
0
0.000236551
0.000537535
0.000282271
0.000352262
0.000850295
1.35742e-10
7.96126e-08
0.00166124
0
0
2.37218e-06
3.49394e-05
0
0.00266126
1.24702e-05
5.75367e-07
1.08146e-05
1.67864e-05
1.79708e-05
0.00466741
6.16065e-07
1.45196e-07
5.19646e-09
2.32689e-06
0.00253265
0.000121433
4.00441e-10
0.00246375
0
7.00582e-07
2.47003e-07
2.98694e-06
3.05536e-07
0.00011388
0.0065505
2.68613e-08
0.00447336
2.14797e-06
0.0240106
0.0209914
7.66261e-08
4.49161e-05
0.0319006
0.0232294
1.05222e-07
0.00415414
1.25629e-05
6.49925e-05
3.76056e-09
9.33673e-06
2.59566e-09
1.46251e-10
1.80307e-05
6.02679e-05
0
7.71355e-05
1.75621e-05
6.6918e-06
1.53369e-09
0
2.19524e-05
2.44743e-05
0.0812946
0
5.46068e-07
1.65896e-05
0.0860327
0
8.39252e-07
0.000582813
3.05463e-05
7.28864e-05
0.000907788
1.12614e-09
0.00211232
5.81208e-05
5.13635e-05
1.84559e-06
0.0493159
1.18097e-07
6.18767e-08
0.00845839
1.71184e-08
0.0450053
3.12536e-07
0.000126705
4.38925e-06
0
0.00130757
7.31868e-06
5.02057e-10
0.000234672
3.39802e-06
1.64031e-06
0.000221784
0.00398385
1.08004e-05
3.62313e-06
0.0721496
0.00680483
0.00031275
1.31509e-05
0.00055667
4.59452e-05
0
0.000488464
3.57015e-05
1.55702e-05
6.20465e-10
1.49816e-07
1.49574e-08
1.21434e-09
0.000206476
2.30247e-09
4.7235e-09
0.000756925
0.00124783
1.0703e-09
2.34205e-06
1.02171e-05
3.80796e-05
9.98324e-07
7.03469e-06
2.54614e-06
7.92153e-06
1.78535e-06
1.64539e-08
1.67029e-05
1.28712e-05
0.0405894
0.000138869
9.41447e-06
1.35053e-05
5.34385e-05
8.53072e-06
0.00244856
2.99438e-05
7.05559e-06
0.00568694
0.000357843
3.67935e-07
0.0853769
0.0336488
3.2783e-06
0.000349004
1.99307e-05
0.000139297
0.000383935
0.000286511
1.15231e-07
3.36422e-06
0.00491786
1.51745e-05
0.0226097
0.000288761
1.45502e-05
8.19741e-05
2.23334e-09
1.32749e-08
0
4.037e-06
1.83497e-05
2.02426e-05
2.43034e-05
1.66656e-05
0
7.96974e-10
0
5.44756e-06
2.77851e-05
4.0542e-10
0.00540216
0.00042841
0.00442513
0.00725326
0.00449879
0
0.00117359
9.0423e-07
1.5553e-07
0.000268841
0.000110345
0.020914
0.00409833
0.000625172
4.55706e-09
0.00161745
1.83863e-09
1.71757e-09
0.00224875
0.00443211
2.5261e-09
0
3.83001e-10
1.28403e-08
2.61526e-09
1.57522e-09
1.24861e-08
2.02613e-06
7.11092e-10
0.000951206
0.000263251
0.000139308
2.53443e-05
0.000219622
0
2.53738e-10
0.000158739
6.56889e-06
3.3117e-08
4.3436e-06
1.08862e-09
1.05455e-08
4.9344e-08
0
5.10575e-09
0.000141853
5.36212e-05
9.61267e-08
0
2.36899e-05
0.000215389
2.50865e-08
1.45884e-08
0.00383661
0.000135916
3.20413e-05
1.44447e-06
7.49639e-10
0.000588349
0.000178375
1.18072e-09
0.000634528
0.00844374
0.000317365
2.80436e-05
1.61595e-09
0.00180562
0.000457524
2.17937e-10
0.000492571
0.00120998
4.98031e-06
4.95317e-10
2.40697e-09
0.00020837
0.0268038
5.49349e-09
0.000154615
1.34159e-10
0.000333555
0.00019882
1.11124e-07
1.20675e-05
1.13102e-06
0.0259336
0.0486808
0.000202767
0.000204031
0.000780005
9.92015e-10
3.17978e-07
1.29044e-08
0
1.22485e-05
0.00369517
0.00428518
2.72991e-10
0.00066273
2.30587e-08
0.00172504
0.000745288
0.00140953
1.46344e-08
4.51181e-05
0.00198534
0
0.00085976
5.78087e-10
0.000527302
0.000165661
0.00205203
0.000911779
6.72789e-10
0.0807327
2.4414e-10
9.4005e-06
8.03543e-07
1.70204e-05
0.000338475
0.000325374
0.000220757
5.21043e-08
2.6283e-08
1.98137e-06
5.33283e-06
7.70451e-10
0
2.96916e-10
0.000123929
2.34841e-09
0.000224512
0
0.000159104
1.19313e-06
0
1.09418e-10
0.000100165
0.000206141
0.00018595
3.89544e-07
2.08493e-09
5.71446e-09
0.000737772
0.000766414
0.00102232
0.000489538
8.22236e-05
0.0209147
0.00019234
0.0431358
0.0288932
5.67951e-05
8.63649e-05
0.00328833
2.86119e-08
7.45349e-08
3.11791e-09
0.00117622
1.26963e-08
3.826e-07
1.91644e-09
4.78309e-05
0.00339735
0.00376847
0.00104814
0.00238526
1.24231e-10
3.16079e-05
1.04502e-06
2.06904e-08
1.50357e-08
2.13003e-08
1.80021e-08
1.78151e-07
0.000159746
0.000874583
1.10399e-07
9.27339e-08
7.10211e-08
2.47803e-05
0.000294913
0
1.95763e-05
0.000223212
1.81691e-05
0.000158129
0.00307505
0.00607184
3.35756e-09
0.00969582
1.01649e-09
8.90761e-09
0.00148439
1.05352e-09
1.62315e-07
0.000736609
9.17336e-08
1.47904e-07
2.05867e-07
1.13943e-07
6.51343e-08
4.00435e-08
5.01719e-08
1.16159e-07
0.00165394
5.88612e-08
0.002282
8.25868e-08
2.39848e-07
0.000319573
5.55426e-07
1.8028e-05
0.0292263
1.30924e-05
0.0382411
3.74631e-06
6.85313e-06
0.000569247
0.000323482
3.18786e-09
1.30772e-09
1.01009e-10
1.87873e-09
4.03749e-05
1.46925e-05
0
0
0.00301685
0.00385886
2.75811e-06
0.0050122
3.04908e-08
0.00105761
0.00132573
0.00179663
1.23728e-08
1.03678e-07
7.26198e-09
7.7446e-09
3.58221e-09
2.13081e-08
3.83216e-09
5.32819e-09
0.000271851
5.46291e-09
1.69561e-07
0.000409506
0.00336689
2.27277e-08
0.000365883
0.001701
0.00027926
0.00124093
0.000106648
9.82212e-10
9.34704e-10
0
2.78525e-05
0
0
0
4.77804e-05
9.2081e-06
1.41444e-05
0
0
8.27746e-06
0
0
1.31039e-05
0
6.57865e-06
0
6.95291e-06
0
0.0209238
0.00395422
0.00538861
1.04279e-08
0.014071
1.36232e-08
0.0166458
0.00142895
0.0230105
7.91456e-06
0.000548445
4.93996e-07
0.000339916
2.47309e-07
0.000649335
4.07446e-08
1.8962e-08
2.34562e-08
2.89011e-08
4.18311e-08
3.00077e-08
2.00785e-08
2.19602e-08
5.15443e-08
1.90378e-09
1.3708e-08
0.000180921
1.28736e-08
6.88763e-09
3.56673e-09
7.17679e-07
1.28306e-06
7.81602e-05
1.68593e-09
0.00788858
0.00246216
2.11171e-07
0.0326452
1.21399e-07
0.000273254
0.00109433
0.0826004
0.000173203
0.00123908
4.68583e-08
0.000184319
0.00186236
1.09605e-08
3.02128e-08
4.03616e-05
8.4255e-06
1.7068e-06
2.74105e-05
3.53073e-06
1.8878e-06
1.94908e-05
0.00319552
3.93149e-07
0.000804113
1.5615e-05
0.000372667
0
0
2.5683e-05
5.77198e-05
0.000620778
6.26918e-06
2.81049e-08
0.000145322
9.31893e-06
0.000109855
0.000106383
7.25387e-05
5.21807e-05
0.000472177
0.000693976
0.00204521
4.16597e-07
3.80864e-05
1.01602e-05
0
6.31417e-09
1.34696e-05
8.6648e-07
4.78358e-05
8.80702e-05
0.00338949
0.000126713
4.34172e-08
0.0304161
0.00381665
0
8.00827e-07
0
2.09929e-09
1.13474e-05
0
0
0
0
1.25531e-06
0.00183525
0.0009336
3.19715e-06
0.00443129
0.00551638
0.00552695
0.00693807
0.0247389
0.000796073
1.69472e-10
1.54514e-10
1.24725e-08
1.39353e-08
9.61076e-10
2.19969e-09
4.82439e-10
1.06514e-09
4.1837e-10
1.76245e-09
7.06179e-10
2.48647e-09
8.45982e-05
9.05e-09
4.55811e-09
7.66248e-09
1.08369e-08
6.32159e-10
8.04088e-10
1.58102e-09
1.55623e-07
9.39231e-05
8.69878e-05
0.000147431
0.000166647
4.40713e-05
3.39407e-05
8.43932e-07
0.0235968
0.0291905
1.01332e-05
0.0557992
0.0579366
2.27139e-06
0.0346112
0.000581631
0.00038608
0.000376382
0.000500638
3.62853e-05
0.00987504
0.000421549
0.00725061
0.00563469
0.0080363
0.0111703
1.61456e-07
1.70865e-07
2.29932e-07
2.96098e-07
0.00037735
0.00646434
0.00698414
3.31713e-07
0.00185575
0.00133636
0.00111727
0.000457946
2.62949e-07
7.28127e-07
5.70978e-10
2.36124e-10
2.85498e-10
2.43475e-07
1.26468e-07
2.0381e-07
2.74801e-07
0.00477359
0.0024037
0.00444132
0.00481564
0.00487398
0.00614959
0.0101901
3.9304e-07
3.74106e-09
5.29568e-09
4.24195e-09
5.85773e-05
0.000846626
0.0206764
8.76326e-05
7.24922e-10
7.84918e-10
0
0
0
0
0.00905816
0.00802204
0.00828852
9.27533e-06
1.81504e-07
1.09904e-07
3.16011e-07
1.2595e-07
8.65111e-08
7.47226e-06
1.34448e-05
1.32399e-05
9.83591e-06
0.000313481
0.000380557
0.000380246
0.00134079
0.000496812
0.00188603
0.000363721
5.34093e-05
5.17579e-06
2.56913e-06
2.987e-06
1.48323e-06
2.72909e-07
0.00124403
0.00242063
0.00330062
0.00461491
1.22505e-10
0
0
0.00828803
1.5647e-07
0.000452654
0.000147488
0.000649839
0.000786312
0.00595939
1.58733e-05
0.000118234
0.000152535
0.000194129
9.9829e-07
4.11199e-05
0.0110804
0.0160062
0.000104587
1.56854e-05
0.000146715
2.10527e-05
0.000184375
0.0020222
0.00198923
0.00227807
0.00305566
2.47002e-05
7.09752e-07
1.4285e-06
2.68137e-07
5.79248e-07
0.0012798
0.000594423
2.02404e-06
0.00255774
1.33598e-06
6.22326e-07
1.28075e-06
0.000757865
0.000114722
4.20043e-05
0.0001395
3.50238e-08
2.56417e-10
4.47636e-10
3.20429e-10
1.13402e-07
2.58315e-07
3.29138e-07
3.46613e-08
3.64029e-07
5.74929e-07
0.000192658
0.00979794
6.19421e-05
0.0120179
0.00994076
1.91992e-06
4.30439e-06
2.8219e-06
2.2799e-07
0.0194714
0.0224241
0.00235293
0.01401
0.000110983
8.7063e-05
9.52655e-05
1.23855e-06
1.04603e-06
0.00209293
3.72643e-05
3.39622e-05
2.13188e-06
4.08693e-06
0.000417123
6.00652e-08
2.47468e-09
5.88662e-05
0
0
0
0
6.01004e-05
1.61925e-10
1.83645e-10
2.84606e-10
6.56209e-05
0.00843743
0.00800511
0.00894229
7.17438e-05
9.46411e-05
0
0
0
0
0.00242997
0.00862219
8.56955e-06
0.00670039
0.0140593
2.11682e-09
4.04917e-09
5.53594e-10
1.00431e-09
1.06295e-09
0
0
0
0
8.27265e-07
1.16168e-06
1.62742e-06
5.70536e-05
7.0999e-05
0.0091438
0.0301165
7.09391e-05
0.0211846
0
0.000206963
0.000297174
1.87307e-05
6.55897e-07
0.000288113
0.00378128
0.00619484
0.00923499
0.00172557
1.7063e-05
4.34714e-07
3.16767e-05
1.51122e-09
3.32261e-07
2.4037e-07
1.53169e-07
2.30217e-06
2.05753e-06
0.0058897
3.66195e-07
5.55307e-07
0.00147694
0.00147729
0.00109057
1.27336e-07
1.39697e-07
3.78906e-09
4.61515e-09
1.72577e-06
0
2.71083e-06
7.46846e-05
0
0
0
7.53772e-05
9.62825e-05
2.78549e-09
3.59006e-10
3.53248e-10
5.71066e-10
0.0189833
0.0207963
5.06081e-09
6.54996e-09
1.10272e-08
6.91548e-05
2.88102e-08
4.04295e-08
9.11642e-08
8.04494e-08
6.74145e-08
4.35031e-08
0.0182535
0.0163549
8.27503e-07
3.5267e-07
5.28053e-07
5.33696e-07
5.36767e-09
7.53531e-09
5.42914e-09
0.000111501
7.8724e-08
0.000342212
0.000240888
0.000253634
0.0147444
0.00105579
0.000930822
0.00124021
0.00176147
0.00069962
0.00209818
9.64032e-07
8.3032e-05
0.0163352
1.53647e-07
2.24962e-07
0.0383503
0.065321
5.95231e-07
0.00053649
5.55357e-07
4.57437e-07
1.11993e-06
5.83991e-05
0.000109627
7.26372e-06
1.5565e-05
0.00943436
3.73668e-06
3.5077e-06
3.99482e-06
3.71587e-06
3.87855e-08
9.37953e-05
0.00010392
0.000118271
3.19037e-05
7.58518e-10
3.64318e-09
2.14845e-09
7.13172e-10
1.10891e-09
5.52029e-08
0.000117274
0.000133788
3.41174e-08
0
0
0
0
4.37203e-06
0.000295369
0.000370315
0.000511645
0
0
0
0
1.09035e-10
0.00815392
5.59384e-06
7.43872e-06
2.46884e-10
1.13016e-05
1.75392e-06
3.95138e-06
3.99971e-05
3.76737e-05
1.25501e-07
5.67353e-08
5.12839e-08
3.23466e-08
3.57763e-09
1.43658e-09
2.58399e-10
1.99621e-09
8.17184e-10
0.00212703
0.00269327
1.9164e-06
3.94244e-10
3.40418e-10
0.00270231
0.00520964
2.36181e-07
0.00102304
0.00169642
0.00123011
0.00124627
1.25513e-06
0
0
0
0
0.000105812
6.31692e-09
6.01277e-06
0.00984144
0.0110666
0.0117146
0.000244485
0.00013655
0.000125209
0.021021
0.0264555
0.0287121
2.55949e-08
1.8855e-08
3.7741e-08
0.013364
0.0103209
0.0134638
0.0161115
4.10774e-06
5.13727e-07
4.70224e-07
5.19184e-08
6.77249e-07
1.00856e-06
3.75097e-08
5.50006e-08
7.61622e-08
0.0171634
2.73632e-08
3.17991e-08
0.00019809
6.57139e-07
1.31233e-06
0
0
0
8.89123e-09
0.00506799
3.30479e-09
2.86092e-09
1.73921e-09
5.13091e-05
0.00403539
0.00304285
0.00283961
3.16175e-08
6.96742e-08
3.8023e-09
1.61963e-09
2.36347e-09
0.000675547
0.000951228
0.00148758
9.81711e-10
1.24983e-09
2.16174e-09
3.03308e-05
1.46038e-06
3.19018e-06
0.0034153
0.00520245
0.000108338
6.26232e-05
0.0075535
0.0105045
0.00858736
0.00733903
0.00017276
0.0140178
0.0167357
0.0184786
0.000426652
2.70599e-07
0.000614661
7.51718e-07
4.28358e-06
1.96299e-06
2.62729e-06
3.44882e-07
5.34109e-07
6.88337e-07
0.0413358
0.0456263
0.000320402
2.02867e-10
9.47096e-10
3.2722e-10
4.86745e-10
2.89884e-09
4.99874e-10
1.95875e-10
3.00487e-10
3.62307e-08
6.59776e-07
1.93769e-08
8.69753e-09
1.99027e-09
3.8122e-09
1.43898e-08
0.00118492
1.54858e-07
0.000254701
0.000333601
0.00100322
0.000106733
0.00647714
0.00748326
0.0101374
2.99585e-07
3.13567e-07
3.2124e-07
0.0154011
0.0178515
3.64379e-07
6.50731e-07
6.4818e-06
8.31465e-06
1.08346e-05
0.000923566
0.00154692
0.00277583
0.00169942
0.00205898
5.70325e-08
4.90235e-08
4.13189e-08
2.51558e-08
0.00342044
1.1642e-05