# vtk DataFile Version 2.0
Unstructured Grid by M++
ASCII
DATASET UNSTRUCTURED_GRID
POINTS 4072 float
  0.828125   0.890625 0
  0.875000   0.531250 0
  0.828125   0.750000 0
  0.593750   0.968750 0
  0.828125   0.671875 0
  0.828125   0.875000 0
  0.593750   0.937500 0
  0.828125   0.656250 0
  0.828125   0.640625 0
  0.828125   0.843750 0
  0.593750   0.906250 0
  0.828125   0.625000 0
  0.781250   0.968750 0
  0.828125   0.609375 0
  0.828125   0.812500 0
  0.593750   0.875000 0
  0.593750   0.828125 0
  0.593750   0.796875 0
  0.828125   0.703125 0
  0.593750   0.765625 0
  0.828125   0.937500 0
  0.812500   0.875000 0
  0.859375   0.515625 0
  0.812500   0.734375 0
  0.812500   0.937500 0
  0.578125   1.000000 0
  0.578125   0.750000 0
  0.812500   0.687500 0
  0.578125   0.953125 0
  0.812500   0.656250 0
  0.812500   0.859375 0
  0.578125   0.921875 0
  0.812500   0.828125 0
  0.578125   0.890625 0
  0.812500   0.593750 0
  0.812500   0.796875 0
  0.578125   0.859375 0
  0.578125   0.812500 0
  0.578125   0.781250 0
  0.796875   1.000000 0
  0.796875   0.859375 0
  0.796875   0.718750 0
  0.562500   0.984375 0
  0.562500   0.937500 0
  0.796875   0.843750 0
  0.562500   0.906250 0
  0.796875   0.812500 0
  0.562500   0.875000 0
  0.796875   0.578125 0
  0.796875   0.781250 0
  0.562500   0.843750 0
  0.812500   0.984375 0
  0.562500   0.796875 0
  0.812500   0.953125 0
  0.562500   0.765625 0
  0.796875   0.937500 0
  0.546875   0.750000 0
  0.781250   0.984375 0
  0.828125   0.593750 0
  0.781250   0.843750 0
  0.781250   0.937500 0
  0.546875   1.000000 0
  0.781250   0.703125 0
  0.546875   0.968750 0
  0.546875   0.921875 0
  0.781250   0.828125 0
  0.546875   0.890625 0
  0.781250   0.796875 0
  0.546875   0.859375 0
  0.781250   0.562500 0
  0.781250   0.765625 0
  0.546875   0.828125 0
  0.796875   0.968750 0
  0.546875   0.781250 0
  0.765625   1.000000 0
  0.765625   0.968750 0
  0.531250   0.984375 0
  0.765625   0.687500 0
  0.531250   0.953125 0
  0.531250   0.937500 0
  0.531250   0.906250 0
  0.765625   0.812500 0
  0.531250   0.875000 0
  0.765625   0.781250 0
  0.531250   0.843750 0
  0.781250   1.000000 0
  0.765625   0.546875 0
  0.765625   0.750000 0
  0.531250   0.812500 0
  0.781250   0.953125 0
  0.531250   0.765625 0
  0.515625   0.750000 0
  0.750000   0.984375 0
  0.750000   0.953125 0
  0.796875   0.593750 0
  0.796875   0.562500 0
  0.750000   0.843750 0
  0.750000   0.937500 0
  0.515625   1.000000 0
  0.750000   0.906250 0
  0.515625   0.968750 0
  0.750000   0.671875 0
  0.750000   0.875000 0
  0.515625   0.937500 0
  0.515625   0.921875 0
  0.515625   0.890625 0
  0.750000   0.796875 0
  0.515625   0.859375 0
  0.750000   0.765625 0
  0.515625   0.828125 0
  1.000000   0.718750 0
  0.750000   0.531250 0
  0.750000   0.734375 0
  0.515625   0.796875 0
  0.734375   1.000000 0
  0.734375   0.968750 0
  0.734375   0.937500 0
  0.781250   0.578125 0
  0.781250   0.546875 0
  0.968750   0.578125 0
  0.734375   0.828125 0
  0.968750   0.546875 0
  0.734375   0.796875 0
  0.734375   0.765625 0
  0.968750   0.671875 0
  0.734375   0.734375 0
  0.968750   0.640625 0
  0.734375   0.703125 0
  0.968750   0.609375 0
  0.734375   0.671875 0
  0.734375   0.656250 0
  0.734375   0.625000 0
  0.968750   0.531250 0
  0.734375   0.593750 0
  0.984375   0.734375 0
  0.984375   0.703125 0
  0.734375   0.515625 0
  0.718750   0.984375 0
  0.718750   0.953125 0
  0.718750   0.921875 0
  0.953125   0.562500 0
  0.718750   0.812500 0
  0.953125   0.531250 0
  0.718750   0.781250 0
  0.718750   0.750000 0
  0.953125   0.656250 0
  0.718750   0.718750 0
  0.953125   0.625000 0
  0.718750   0.687500 0
  0.953125   0.593750 0
  0.718750   0.656250 0
  0.671875   1.000000 0
  0.718750   0.640625 0
  0.718750   0.609375 0
  0.953125   0.515625 0
  0.718750   0.578125 0
  0.968750   0.718750 0
  0.968750   0.687500 0
  0.953125   0.671875 0
  0.703125   0.968750 0
  0.703125   0.937500 0
  0.937500   0.656250 0
  0.703125   0.906250 0
  0.937500   0.546875 0
  0.703125   0.796875 0
  0.937500   0.515625 0
  0.703125   0.765625 0
  0.937500   0.671875 0
  0.703125   0.734375 0
  0.937500   0.640625 0
  0.703125   0.703125 0
  0.937500   0.609375 0
  0.703125   0.671875 0
  0.937500   0.578125 0
  0.703125   0.640625 0
  0.656250   0.984375 0
  0.703125   0.625000 0
  0.703125   0.593750 0
  0.718750   0.796875 0
  0.953125   0.734375 0
  0.812500   1.000000 0
  0.859375   0.656250 0
  0.703125   0.781250 0
  0.937500   0.718750 0
  0.953125   0.703125 0
  0.796875   0.984375 0
  0.843750   0.640625 0
  0.812500   0.968750 0
  0.859375   0.625000 0
  0.796875   0.953125 0
  0.843750   0.609375 0
  0.687500   0.953125 0
  0.687500   0.921875 0
  0.687500   0.890625 0
  0.921875   0.734375 0
  0.687500   0.796875 0
  0.687500   0.781250 0
  0.921875   0.703125 0
  0.687500   0.765625 0
  0.687500   0.750000 0
  0.921875   0.656250 0
  0.687500   0.718750 0
  0.921875   0.625000 0
  0.687500   0.687500 0
  0.921875   0.593750 0
  0.687500   0.656250 0
  0.640625   1.000000 0
  0.921875   0.562500 0
  0.687500   0.625000 0
  0.640625   0.968750 0
  0.687500   0.609375 0
  0.687500   0.578125 0
  0.937500   0.687500 0
  0.921875   0.671875 0
  0.671875   0.921875 0
  0.906250   0.656250 0
  0.671875   0.906250 0
  0.671875   0.875000 0
  0.906250   0.718750 0
  0.671875   0.781250 0
  0.671875   0.765625 0
  0.671875   0.734375 0
  0.906250   0.640625 0
  0.671875   0.703125 0
  0.906250   0.609375 0
  0.671875   0.671875 0
  0.906250   0.578125 0
  0.671875   0.640625 0
  0.625000   0.984375 0
  0.671875   0.609375 0
  0.625000   0.953125 0
  0.671875   0.593750 0
  0.671875   0.562500 0
  0.765625   0.953125 0
  0.812500   0.609375 0
  0.656250   1.000000 0
  0.656250   0.953125 0
  0.656250   0.906250 0
  0.890625   0.640625 0
  0.656250   0.890625 0
  0.656250   0.859375 0
  0.890625   0.734375 0
  0.656250   0.796875 0
  0.812500   0.921875 0
  0.562500   1.000000 0
  0.625000   0.828125 0
  0.812500   0.843750 0
  0.843750   0.593750 0
  0.812500   0.812500 0
  0.625000   0.718750 0
  0.828125   0.687500 0
  0.640625   0.593750 0
  0.812500   0.781250 0
  0.625000   0.687500 0
  0.765625   0.828125 0
  0.640625   0.562500 0
  0.812500   0.750000 0
  0.562500   0.828125 0
  0.781250   0.875000 0
  0.546875   0.937500 0
  0.781250   0.671875 0
  0.781250   0.593750 0
  0.546875   0.656250 0
  0.796875   0.750000 0
  0.562500   0.812500 0
  0.796875   0.546875 0
  0.765625   0.796875 0
  0.765625   0.593750 0
  1.000000   0.531250 0
  0.812500   0.718750 0
  0.859375   0.562500 0
  0.625000   0.625000 0
  0.812500   0.703125 0
  0.812500   0.906250 0
  0.578125   0.968750 0
  0.984375   0.593750 0
  0.828125   0.578125 0
  0.828125   0.781250 0
  0.593750   0.843750 0
  0.812500   0.671875 0
  0.625000   0.578125 0
  0.796875   0.671875 0
  0.562500   0.734375 0
  0.984375   0.562500 0
  0.828125   0.546875 0
  0.812500   0.640625 0
  0.750000   0.812500 0
  0.625000   0.546875 0
  0.796875   0.640625 0
  0.562500   0.703125 0
  0.828125   0.515625 0
  0.781250   0.734375 0
  0.546875   0.796875 0
  0.781250   0.531250 0
  0.750000   0.781250 0
  0.625000   0.515625 0
  0.796875   0.609375 0
  0.562500   0.671875 0
  0.765625   0.656250 0
  0.765625   0.859375 0
  0.531250   0.921875 0
  0.812500   0.578125 0
  0.562500   0.656250 0
  0.984375   0.687500 0
  0.750000   0.750000 0
  0.812500   0.562500 0
  0.812500   0.765625 0
  0.578125   0.828125 0
  0.562500   0.625000 0
  0.984375   0.656250 0
  0.750000   0.718750 0
  0.812500   0.531250 0
  0.781250   0.656250 0
  0.546875   0.718750 0
  0.781250   0.625000 0
  0.546875   0.687500 0
  0.750000   0.640625 0
  0.796875   0.531250 0
  0.562500   0.593750 0
  0.984375   0.625000 0
  0.750000   0.687500 0
  0.546875   0.984375 0
  0.609375   0.812500 0
  0.796875   0.875000 0
  0.546875   0.953125 0
  0.609375   0.578125 0
  0.843750   0.515625 0
  0.765625   0.515625 0
  0.765625   0.718750 0
  0.531250   0.781250 0
  0.984375   0.546875 0
  0.750000   0.609375 0
  0.796875   0.828125 0
  0.671875   0.968750 0
  0.796875   0.796875 0
  0.796875   0.765625 0
  0.609375   0.671875 0
  0.796875   0.734375 0
  0.546875   0.812500 0
  0.796875   0.703125 0
  0.843750   0.546875 0
  0.609375   0.609375 0
  0.796875   0.687500 0
  0.562500   0.953125 0
  0.796875   0.656250 0
  0.609375   0.562500 0
  0.796875   0.625000 0
  0.609375   0.531250 0
  0.546875   0.640625 0
  0.765625   0.671875 0
  0.531250   0.734375 0
  0.796875   0.515625 0
  0.765625   0.640625 0
  0.531250   0.703125 0
  0.703125   1.000000 0
  0.765625   0.609375 0
  0.531250   0.671875 0
  0.765625   0.578125 0
  0.531250   0.640625 0
  0.546875   0.609375 0
  0.531250   1.000000 0
  0.890625   0.593750 0
  0.656250   0.656250 0
  0.781250   0.515625 0
  0.546875   0.578125 0
  0.531250   0.968750 0
  0.890625   0.562500 0
  0.656250   0.625000 0
  0.609375   0.968750 0
  0.781250   0.859375 0
  0.656250   0.593750 0
  0.750000   0.703125 0
  0.515625   0.765625 0
  0.781250   0.812500 0
  0.781250   0.781250 0
  0.593750   0.687500 0
  0.781250   0.750000 0
  0.593750   0.656250 0
  0.781250   0.718750 0
  0.531250   0.796875 0
  0.828125   0.562500 0
  0.593750   0.625000 0
  0.781250   0.687500 0
  0.828125   0.531250 0
  0.593750   0.593750 0
  0.812500   0.625000 0
  0.578125   0.687500 0
  0.781250   0.640625 0
  0.781250   0.609375 0
  0.593750   0.515625 0
  0.515625   0.781250 0
  0.812500   0.546875 0
  0.578125   0.609375 0
  0.812500   0.515625 0
  0.578125   0.578125 0
  0.750000   0.656250 0
  0.515625   0.718750 0
  0.750000   0.625000 0
  0.515625   0.687500 0
  0.687500   0.984375 0
  0.750000   0.593750 0
  0.515625   0.656250 0
  0.531250   0.546875 0
  0.750000   0.562500 0
  0.515625   0.625000 0
  0.531250   0.515625 0
  0.984375   0.515625 0
  0.750000   0.578125 0
  0.515625   0.531250 0
  0.828125   0.796875 0
  0.640625   0.703125 0
  0.828125   0.765625 0
[...]
CELL_DATA 7648
SCALARS scalar_value float 1
LOOKUP_TABLE default
8.07507e-06
6.28037e-06
0.000512733
0.000452469
0.000389273
0.000505971
0.219999
0.220453
0.222326
0.219181
0.146374
0.135088
0.124517
0.134
0.116832
0.113881
0.105239
0.122809
0.00218982
0.00148992
0.00202756
0.00200499
0.00157547
0.00141628
0.000124683
0.000100102
7.47676e-05
0.000100837
4.42853e-05
3.52617e-05
2.71388e-05
3.52801e-05
0.00559294
0.00519532
0.00538036
0.00397345
0.0883642
0.0977576
7.07063e-06
5.12446e-06
0.0812815
0.0758321
4.33412e-05
3.74176e-05
0.00369599
0.00455852
0.00500675
0.00453675
0.0064228
0.00719066
0.00780773
0.00715148
0.00514656
0.00586297
0.00646856
0.00577155
0.00422039
0.00452222
0.00317099
0.00416519
0.0033212
0.0029919
0.0328381
0.0300805
0.029531
0.0254023
0.0256962
0.021776
0.0187605
0.0163076
0.0132192
0.013969
0.0101825
0.00290971
0.000185976
0.00226851
0.001945
0.00171472
0.00204313
0.00173665
0.00187132
0.00161039
0.00213101
0.00269622
0.00230442
0.00201113
0.00246792
1.35448e-05
1.00689e-05
1.02773e-05
0.0288674
0.0312657
0.0352144
0.0321617
0.0377746
0.037398
0.0394218
0.0340526
0.0462423
0.0537902
0.0446966
0.03462
0.0359669
0.0360676
0.00136335
0.000617695
0.000903152
0.00106183
5.91504e-05
5.07476e-05
4.22446e-05
4.8166e-05
0.00261308
0.00237267
0.00244633
0.00180748
0.00128315
0.00125722
0.00102441
0.201183
0.194045
0.192865
0.188538
0.1793
0.177981
0.18441
0.167972
0.000113074
9.65131e-05
7.96652e-05
9.2502e-05
0.000453265
0.000397061
0.000351868
0.000373091
0.211827
0.215745
0.216242
0.216657
0.123183
3.82106e-05
3.23048e-05
0.0201584
0.018134
0.0191739
0.0165496
0.0125979
0.0140679
0.0036735
0.00295074
0.0027596
0.000661569
0.000528959
0.000435245
0.000446889
0.00065541
0.000548735
0.00046215
0.000537102
0.043882
0.0388002
0.0969769
0.0919101
0.0823993
0.0959477
0.000460782
0.0911298
0.0847074
0.0771308
0.0832401
1.34681e-06
1.09034e-06
8.16847e-07
1.41794e-06
0.0017295
0.00157397
0.117011
0.110312
0.107711
0.0995779
0.100758
0.091982
0.0857121
0.09343
0.000318104
0.000252203
0.000271864
0.000200305
0.000123997
9.60523e-05
0.000102358
5.74825e-05
2.94161e-05
0.0825395
0.0773975
0.0768401
0.0674934
8.26164e-06
6.27595e-06
4.57045e-06
5.66057e-06
0.142971
0.14722
0.158277
0.143807
0.00390212
0.00357152
0.159768
0.15587
0.155049
0.145799
0.16755
0.165843
0.168739
0.161089
0.141146
0.141059
0.149739
0.1352
0.00677902
0.00837173
0.00951535
0.00814937
0.0134296
0.0180308
0.0146278
0.026575
0.0218774
0.0188348
0.0217279
0.220621
0.223275
0.223559
0.223379
0.000774444
0.000667869
0.000599285
0.000583647
0.218036
0.219107
0.221065
0.216274
0.000452242
0.000383895
0.000332508
0.000342599
5.05385e-05
4.42681e-05
3.0539e-05
2.20416e-05
1.84782e-05
1.37349e-05
1.32836e-05
8.57717e-06
6.14526e-06
9.32388e-06
5.89023e-06
5.14222e-06
4.54117e-06
0.000697824
0.00062219
0.000569676
0.000577062
0.000795122
0.000734918
0.000849226
0.000642062
0.000523581
0.000470216
0.000503429
0.000421959
0.00927468
0.0117615
0.00970937
0.00470431
0.00408221
0.00372876
0.00342929
0.00173758
0.00136985
0.00127847
0.000224541
0.000179847
0.000197368
0.000112588
6.91512e-05
8.03942e-05
0.000143916
9.34591e-05
0.000112258
7.67281e-06
5.98593e-06
4.6236e-06
5.82865e-06
0.00322176
0.00262242
0.127231
0.144268
0.00363595
0.00230329
0.00718183
0.00637835
0.00803202
0.1814
0.180027
0.0158657
0.213724
0.179848
0.212182
0.0160013
0.214773
0.063429
0.0107958
0.0768981
0.00926329
0.00823905
0.00881977
3.70427e-06
3.41165e-06
2.69623e-05
0.00139768
0.000577303
0.00472825
0.00482816
0.00109312
5.31339e-05
0.00280182
0.0156489
0.00627115
0.0170774
0.150294
0.140121
0.00453431
0.215705
0.210433
0.170771
0.175566
0.0852513
0.172354
3.72393e-05
2.28034e-05
9.1745e-05
0.000245158
5.91844e-05
7.60453e-05
0.00646754
0.00689622
8.58137e-05
0.00781012
0.105169
0.0119316
0.212936
0.000230037
0.106853
0.000217856
7.55155e-05
7.27214e-05
0.000144494
4.85307e-05
0.0117494
0.00154712
0.00177847
0.00127687
0.00602898
3.07268e-05
0.0025155
0.00329191
0.00288689
0.00242206
0.00604377
7.89011e-06
3.28697e-05
2.78682e-05
1.71546e-06
0.0056331
0.122397
0.00110041
0.00916036
0.00935869
0.00208932
0.00677427
0.000141475
0.0133428
3.32308e-07
1.8801e-07
2.97735e-07
0.000815962
0.000734807
0.000882343
0.0028403
0.0019157
0.00216965
0.00121815
0.000780251
0.00127127
0.00384239
0.0026703
0.00339197
0.000224324
0.000181219
0.208704
0.000237883
0.204657
0.000199521
0.00288825
0.198099
0.0707266
0.000165581
0.205255
0.0530993
0.000183633
0.000536217
2.50217e-05
8.09388e-05
1.46013e-05
1.84533e-05
0.00175773
3.3312e-05
0.000110629
0.00220678
0.12654
4.23914e-05
0.000168474
0.0116177
0.00942826
0.03761
0.0308381
0.03558
0.00187766
0.00114387
0.000237484
0.00114757
0.197713
0.0401263
0.000123115
0.000136285
0.00182017
0.000169666
0.000103732
5.18348e-05
0.129798
3.69422e-05
0.000347447
0.00501686
0.00413129
0.000253518
0.00020977
0.000254149
4.1623e-06
3.07425e-06
2.2516e-06
0.011111
0.00782213
0.0228054
0.013214
2.62251e-07
5.22675e-07
0.0013525
0.213314
0.215989
0.0207712
0.0246276
0.000370007
0.00472058
0.00186824
0.00614639
0.000812923
0.000685614
0.00721456
0.000593281
0.000604521
0.000918485
0.000684747
0.000802078
0.0100679
0.157214
0.160981
0.0268032
2.91908e-05
0.00068269
2.04656e-06
3.02191e-05
0.00746986
0.0563347
0.0245911
0.064393
0.0531075
0.0242149
0.0775935
0.00486321
0.00778537
0.00063961
0.000708903
0.000588547
0.000441902
0.0038377
0.00128295
0.000772833
0.000659852
0.000956564
0.00192348
0.0315919
2.97106e-06
0.0532936
0.000927156
0.000917002
0.177794
0.0288813
0.0282377
0.00371403
0.00641361
0.00228381
0.000173779
0.0018929
4.10214e-05
3.22519e-05
0.000125099
6.33747e-05
0.000209107
0.000525342
0.000609879
0.000169722
3.47514e-05
0.000173716
0.0004641
6.65689e-05
0.0391688
0.0402482
0.000895368
0.014687
0.000806099
4.00457e-05
0.00144559
0.00690151
0.00327427
0.000299835
0.0100678
0.000216373
0.00187083
0.00076646
6.33229e-05
0.000675453
5.70318e-05
0.000497283
0.00104052
0.000830892
0.00890341
0.109416
0.000516366
0.123539
0.124216
0.00197633
0.00126736
0.00343281
0.00362922
0.178469
0.000493841
0.076805
0.000310834
0.000992905
0.00144788
0.0023249
0.000702225
0.0025669
0.00418208
0.00846062
0.00363252
0.0030874
0.0311112
0.00232157
0.01144
0.00126914
0.00815747
0.0426895
0.0388854
0.00350148
0.034071
0.00334048
0.0389725
0.00303091
0.149316
0.0359515
0.0328359
1.97323e-05
0.00118892
0.00109783
0.00108804
0.0234942
0.000971884
0.0240782
0.0373706
0.0271633
0.000996074
0.0199375
0.141431
0.000842061
0.00145041
0.0325119
0.00144502
0.00129861
0.00100401
0.000475184
0.0367635
0.00160378
0.00250461
0.041566
0.0507936
0.00695631
0.000241702
0.0424114
0.00157983
0.000110667
0.00153824
0.000654167
0.00476321
0.000629448
0.000517746
0.105825
0.00678062
0.111381
0.00145069
0.00938636
3.29169e-05
0.00479842
0.00203619
0.0898296
0.142117
0.0265709
0.00607045
0.0204536
0.0204582
0.0582632
0.0367552
0.000914199
0.00773896
0.00933727
0.170135
0.00539887
1.35882e-05
7.89402e-06
1.0829e-05
0.00317667
0.0277209
2.84114e-05
0.000191668
6.32431e-05
0.000141389
4.91649e-05
6.15884e-06
0.000257984
0.00021101
0.0236033
0.0161503
0.00472307
0.2021
0.0150797
0.0159636
0.000133227
0.00503095
2.58497e-05
0.0696042
0.0340484
0.0764095
0.00216529
0.128906
0.130058
0.00017259
0.0343377
8.45953e-05
5.23409e-05
1.8535e-05
0.0192283
0.000982886
0.0272747
0.000926001
0.06355
0.000130418
0.172288
0.0291875
0.000210366
0.0573051
0.000472225
0.00235826
0.00670215
0.000339363
0.00143675
0.00951511
0.000294816
0.000360329
0.132597
0.000526619
0.000668608
0.000466033
0.000711743
1.11393e-05
1.03946e-05
2.46215e-05
1.43759e-05
0.000874318
2.22315e-05
0.0381233
0.00102318
4.16525e-05
0.000319873
0.00268984
0.000165347
0.0158424
2.36014e-06
0.000797647
0.000361391
0.00763101
0.000530053
0.00208494
0.000496013
0.0372465
0.000620389
6.48228e-06
0.0337866
0.00250311
0.0166212
0.000282126
0.0197545
0.138655
0.000511212
0.000704601
0.102563
0.0292287
0.00541563
0.00176276
0.0321158
0.000425864
3.00367e-05
1.89603e-06
0.0327816
0.0178273
0.00478129
2.88935e-06
0.0380638
0.0196845
0.0393043
0.043649
0.021741
4.00264e-06
0.000431934
0.0228524
1.6608e-06
9.38222e-07
0.00419375
0.0110604
2.27423e-06
0.032237
0.00585944
0.000575453
0.00243524
0.0084322
0.00947891
0.122123
0.000266883
0.000217354
2.8736e-05
0.00162552
0.0344295
0.00437519
1.90593e-05
0.00546086
1.49194e-06
0.000908234
0.000210787
0.00251814
0.000190232
0.00080864
0.0497392
0.000302864
0.061801
0.00217309
0.189659
0.0436356
0.000103885
0.0104667
0.197922
0.0333897
0.000117723
0.0734788
0.00138442
0.0146895
8.93448e-05
0.001194
7.19486e-05
4.11011e-06
0.00216289
0.0149594
1.03066e-06
0.0169968
0.00185255
0.00107632
5.33327e-05
3.25766e-06
0.00799472
0.00801948
0.145079
1.33623e-06
0.000311698
0.00746731
0.17153
1.40118e-07
0.0005786
0.0139146
0.0150908
0.00577721
0.0162733
5.62965e-05
0.0532685
0.0132841
0.0118084
0.00291812
0.17312
0.000664765
0.000162567
0.0635646
0.000204141
0.210071
0.000198139
0.000659841
0.00562589
5.93328e-07
0.0773481
0.00762191
1.75045e-05
0.0178836
0.00426109
0.00287765
0.0289217
0.1104
0.0066334
0.00111109
0.129712
0.0698055
0.00177045
0.00312285
0.0424509
0.0118369
8.68744e-06
0.0430532
0.0093966
0.000876297
3.63147e-05
0.000745218
7.72587e-05
2.91834e-05
0.00352361
1.8663e-05
2.6954e-05
0.00578848
0.0309132
1.24649e-05
0.00201927
0.00634676
0.00930315
0.00133442
0.00150987
0.00334927
0.00559215
0.000667458
0.000229781
0.00983396
0.00656766
0.207177
0.00222662
0.00592862
0.00105485
0.00171369
0.00103598
0.00471927
0.0105876
0.00123796
0.0645351
0.0339426
0.00137425
0.158914
0.0902292
0.00477339
0.00339722
0.00875932
0.00267535
0.0366703
0.0111758
0.000130724
0.00511438
0.0540305
0.0109333
0.126319
0.0343114
0.00287813
0.00120531
1.82416e-05
0.000142536
6.5455e-07
0.0015189
0.00817462
0.000965572
0.00296507
0.0105723
2.0435e-07
3.84241e-05
3.20215e-06
0.00483669
0.011617
1.77914e-05
0.0732347
0.00270182
0.067204
0.0594571
0.121774
1.42142e-06
0.0226759
0.00200091
0.000768649
0.0360338
0.0261435
0.0326399
0.0925506
0.0296842
2.61416e-05
0.0845989
1.66947e-05
1.61104e-05
0.0945855
0.045599
1.97821e-05
2.69153e-06
2.10508e-05
0.000166536
2.02937e-05
5.7035e-05
0.000127309
0.00297377
1.00208e-05
0.00494723
0.00362821
0.00165576
0.0128591
0.0040672
1.63842e-06
1.7789e-05
0.0325616
0.00358091
0.00035717
0.004276
1.25773e-05
7.5881e-05
0.000349927
3.18473e-06
0.000140521
0.0223383
0.00420976
0.000135999
1.63125e-06
0.00128059
0.0211147
0.000286317
7.87039e-05
0.0518451
0.00125976
0.0145954
0.00325032
1.03e-05
0.00849112
0.0177409
1.31481e-05
0.0413838
0.0715909
0.00154248
0.00902779
1.55075e-05
0.0856164
0.0454214
5.2519e-06
0.0498137
0.0243799
0.0011016
8.26217e-06
5.41927e-05
0.0264085
0.190172
0.00011334
0.0281172
3.93024e-06
0.0438559
0.0340579
0.000259556
0.00509867
0.000331302
0.0892342
0.126491
0.0256674
0.00506746
0.0450883
3.24327e-05
0.000793903
0.000203115
3.43282e-06
0.000832321
0.0566214
0.036433
1.38177e-05
0.0260183
0.000269013
0.0340005
0.0621365
0.0401239
0.000117172
0.018386
0.040443
1.65822e-07
0.0299804
1.7113e-05
0.0543357
0.00391577
0.0272994
0.0615295
2.34847e-05
0.169863
8.45091e-06
0.00458443
0.000288708
0.00837256
0.00403129
0.033853
0.00982624
0.000106755
0.0001147
0.00365702
0.00643856
3.77654e-05
9.39146e-07
1.31593e-05
0.0291207
3.71983e-05
0.00304689
1.8469e-06
0.0305215
0.000563235
1.27263e-06
9.80475e-06
0.0259053
0.0131055
0.0265411
0.00116424
7.01158e-05
8.8765e-05
0.0381018
0.0360445
0.0395097
0.0260128
0.00683127
0.177956
0.0105128
0.2073
0.149978
0.0154889
0.0247846
0.00729583
0.000297913
0.000398545
2.16053e-05
0.0331054
4.32649e-05
0.000952729
2.46082e-05
0.00101756
0.0954737
0.105781
0.0258443
0.0896296
6.16337e-06
0.00145299
0.00206921
0.000248608
0.000196262
0.000239512
0.0002243
0.000766702
0.00315541
0.0436519
0.000594044
0.000555441
0.000430266
0.00113153
0.0213549
4.74032e-06
0.00108333
0.0196626
0.00120496
0.0189585
0.103591
0.0425787
2.26192e-05
0.046202
5.50032e-05
0.000154542
0.028809
4.29152e-05
0.000673563
0.045912
0.000517166
0.000666457
0.000800827
0.00055234
0.000426531
0.000327965
0.000338912
0.00053486
0.0846866
0.00014957
0.0936291
0.000172956
0.000958533
0.0275793
0.00192852
0.00271776
0.0657854
0.00197502
0.106349
0.00423352
0.00616142
0.0466947
0.0396861
8.36418e-05
5.02447e-05
3.91265e-06
6.1849e-05
0.00151975
0.000960592
1.94941e-07
2.54074e-07
0.100953
0.112463
0.00339384
0.119871
0.000270089
0.0684255
0.0766106
0.0837414
9.23781e-05
0.00060347
3.41751e-05
3.58477e-05
2.37784e-05
0.000211234
2.48813e-05
2.95555e-05
0.00306257
5.93458e-05
0.000155328
0.00335403
0.0672419
0.000348692
0.00465625
0.0590725
0.00452026
0.0527422
0.00238631
2.27298e-05
4.40072e-05
2.94059e-07
0.0142242
3.68612e-07
3.8955e-07
5.57231e-07
0.0174833
0.00826881
0.0101932
2.31828e-07
1.37619e-07
0.00804351
1.57869e-07
9.26417e-08
0.00925215
1.54726e-07
0.0064903
1.14723e-07
0.0071017
1.12672e-07
0.0709852
0.00710316
0.0785938
4.08748e-05
0.0563836
4.54201e-05
0.045276
0.00302297
0.0551139
0.00214503
0.0498091
0.00142838
0.037408
0.000983333
0.0457058
0.000142061
9.55773e-05
0.000115824
0.000323394
0.000135366
0.00010874
9.34085e-05
9.31524e-05
0.000419299
7.76481e-05
0.000157003
0.0166441
0.000245588
5.31375e-05
0.000109018
0.00154238
0.00175744
0.013124
6.35417e-05
0.0966273
0.0645206
0.00016168
0.069367
0.000138993
0.00519796
0.0513945
0.21282
0.00273185
0.0466627
0.000391272
0.0339888
0.0319174
6.58603e-05
0.000113747
0.0124429
0.0058752
0.00355984
0.00981893
0.00258328
0.00186399
0.00320175
0.0475609
0.000432776
0.0227705
0.0109646
0.0240062
1.60762e-06
2.49771e-06
0.0120113
0.00117086
0.0426586
0.000892482
0.000268051
0.0153787
0.000748738
0.0140476
0.0146096
0.0135142
0.0105851
0.0109401
0.0123906
0.0682181
0.000218295
0.0118822
0.000977168
2.17226e-06
0.000119914
0.00565795
0.000305654
0.0162493
0.0233081
0.110599
0.000780479
0.000129139
0.146397
0.00775171
1.87302e-06
0.00156764
1.99469e-06
6.8347e-05
0.000903251
2.63809e-06
7.2994e-07
1.12373e-06
1.22164e-06
0.00196156
0.0586189
0.0684247
0.00331755
0.0328131
0.0374082
0.0349432
0.0354104
0.105459
0.00367308
1.3404e-05
1.20253e-05
0.000187053
0.000202698
4.61454e-05
6.94145e-05
1.06635e-05
4.74426e-05
1.02977e-05
6.24678e-05
1.37979e-05
7.5814e-05
0.0245818
0.000147702
0.000102885
0.000138293
0.0001687
1.47083e-05
1.8268e-05
2.48338e-05
0.000144424
0.0206938
0.0215675
0.0102652
0.0268797
0.0182176
0.0160628
0.00213812
0.0671481
0.085552
0.00677059
0.130869
0.111268
0.00415434
0.159925
0.00239389
0.00164459
0.00137311
0.0205417
0.0162554
0.138736
0.00410365
0.104969
0.101392
0.108908
0.119641
0.000850286
0.000370013
0.00102104
0.00112546
0.0471615
0.039174
0.0447773
0.00137097
0.062895
0.0557021
0.0528005
0.00248449
0.000380194
0.000693686
8.13481e-06
4.96192e-06
5.47834e-06
0.000909961
0.000658362
0.00084985
0.000998464
0.0417878
0.0925262
0.103103
0.113957
0.109223
0.116097
0.0969066
0.0013487
9.40942e-05
0.000114851
0.000103085
0.0181652
0.0621643
0.182888
0.0128875
4.41946e-05
4.38311e-05
7.31342e-07
4.80489e-07
6.92631e-07
8.95653e-07
0.0400817
0.0390215
0.0365521
0.00680212
0.000285822
0.000197398
0.00110677
0.000231467
0.000195153
0.0060426
0.00869864
0.00159992
0.0016853
0.00683858
0.00960192
0.00766326
0.0567783
0.00759246
0.0645032
0.0260705
0.0193908
0.00194887
0.00138186
0.00152167
0.00290033
0.0012336
0.0687637
0.0755431
0.081106
0.0905851
3.40877e-06
2.75179e-06
2.104e-06
0.0830369
0.000784208
0.0367485
0.00589199
0.042559
0.0460348
0.0102567
0.00841896
0.0052177
0.00717333
0.00602973
0.0020585
0.0127184
0.14851
0.0699509
0.0171966
0.00130605
0.0196298
0.00140994
0.0219177
0.0767218
0.0826234
0.0819665
0.0897772
0.00892227
0.0010777
0.00172912
0.00128438
0.00116681
0.044122
0.0556887
0.00236371
0.0621123
0.00236018
0.00160904
0.000881333
0.0616584
0.0203145
0.00367444
0.0218388
0.000315015
7.6204e-06
1.12683e-05
1.07407e-05
0.00087434
0.00085712
0.00102291
7.96203e-05
0.00103648
0.00130785
0.00168313
0.125569
0.0153725
0.130305
0.13057
0.0010234
0.00429966
0.00123129
0.00126026
0.0866912
0.084409
0.00734973
0.120577
0.00119367
0.0009874
0.000917666
0.00121773
0.00105033
0.0642535
0.0127768
0.0129455
0.00300791
0.00426778
0.049076
0.000484107
7.2203e-05
0.0207631
3.65148e-07
2.56971e-07
3.39214e-07
4.33451e-07
0.0197214
5.28588e-06
6.02461e-06
7.67535e-06
0.0218473
0.143746
0.128066
0.135939
0.00256414
0.00269891
1.03678e-06
6.13804e-07
8.96011e-07
1.126e-06
0.0446919
0.149525
0.00700307
0.122757
0.160113
6.41154e-05
5.9294e-05
3.03322e-05
4.15673e-05
4.35156e-05
2.86217e-06
3.78912e-06
3.48617e-06
4.55469e-06
0.00224264
0.000871862
0.0010483
0.0050526
0.00442719
0.141373
0.154632
0.00695868
0.181117
2.11796e-07
0.0364603
0.0426194
0.00702215
0.00163309
0.0191479
0.113496
0.133444
0.0524727
0.0674232
0.0115336
0.00174909
0.0135024
1.49098e-05
0.00046381
0.000386245
0.000311578
0.00329555
0.00328434
0.123104
0.000762841
0.000768865
0.0691336
0.0534255
0.048104
0.000310447
0.000383973
4.04326e-05
4.85589e-05
0.00232873
3.63924e-07
0.00339514
0.0170698
2.89039e-07
4.51388e-07
4.6586e-07
0.00296621
0.0038886
9.8922e-05
2.27227e-05
2.14798e-05
2.77967e-05
0.0422304
0.0527327
0.00011686
0.000133828
0.000180508
0.0219939
6.99223e-05
7.88806e-05
0.000319622
0.000252256
0.0002638
0.000216734
0.0562623
0.0538043
0.000456984
0.000292454
0.000370404
0.000404727
0.000121277
0.000147188
0.000119883
0.0277464
0.000561661
0.00247255
0.00182427
0.00164653
0.128269
0.0527561
0.0523371
0.0564254
0.064214
0.00219269
0.00513713
0.00255288
0.0153716
0.165652
0.000139827
0.000169671
0.20404
0.213333
0.000253855
0.0545007
0.00155505
0.00146434
0.00224527
0.020398
0.0271658
0.0051977
0.0077626
0.112383
0.00160937
0.00170879
0.00268364
0.00536435
0.00038211
0.0171715
0.0186864
0.0191715
0.0111404
1.02129e-05
7.78919e-05
5.99915e-05
9.63868e-06
1.22572e-05
0.000441466
0.00875223
0.00820567
0.000339084
1.89166e-06
1.85178e-06
2.43689e-06
3.35957e-06
0.00347932
0.0281144
0.0311848
0.0352433
1.78098e-07
2.11758e-07
2.90136e-07
2.39521e-06
4.35474e-06
0.107191
0.00416462
0.00483085
1.54382e-05
0.00585726
0.0025489
0.00396053
0.0127758
0.00495643
0.000742182
0.000170893
0.000174102
0.000139411
8.00178e-05
4.72669e-05
5.36425e-06
5.95637e-05
4.12795e-05
0.0295085
0.0289656
0.0033803
6.7308e-06
6.24864e-06
0.0797415
0.0948012
0.000997806
0.00363054
0.00526974
0.00389223
0.00342275
0.00231737
8.1176e-07
4.34522e-07
5.58333e-07
4.84842e-07
0.023983
3.07501e-05
0.00205806
0.153463
0.160527
0.161603
0.0289449
0.0224174
0.02242
0.0995745
0.118055
0.10391
6.05843e-05
5.341e-05
7.43622e-05
0.160994
0.15315
0.164198
0.172769
0.00512121
0.00094169
0.00099294
8.46972e-05
0.00117738
0.00147501
7.25833e-05
8.84066e-05
0.000101231
0.171036
0.000140656
0.00017769
0.0294618
0.00162326
0.00230183
2.89197e-06
1.65921e-06
2.01107e-06
0.000129409
0.0900312
4.60183e-05
4.75163e-05
3.67359e-05
0.013105
0.0767234
0.0704202
0.0712883
0.000320235
0.000493611
6.37675e-05
3.9127e-05
4.96765e-05
0.0600156
0.0685355
0.0748312
4.64067e-05
5.21576e-05
7.12725e-05
0.0152409
0.00305965
0.00441738
0.0437273
0.0488824
0.000905252
0.0173417
0.052785
0.0552827
0.044388
0.13098
0.00118457
0.066172
0.0817012
0.0673285
0.0488337
0.000453886
0.055071
0.0022795
0.00165981
0.00109316
0.00133288
0.000215232
0.00028026
0.000292624
0.21012
0.213091
0.0145219
4.94505e-06
3.40768e-05
6.51951e-06
8.09934e-06
8.11794e-05
8.12124e-06
4.75017e-06
6.01386e-06
0.000357571
0.00185048
0.000158408
0.000101624
6.13848e-05
7.53924e-05
0.000168276
0.0750354
0.00080325
0.0247374
0.0309058
0.0482556
0.00199705
0.0896405
0.0989581
0.102707
0.00106455
0.00112793
0.00112602
0.115207
0.127468
0.00154901
0.00204249
0.000631979
0.000688583
0.000740875
0.042336
0.0516327
0.0574516
0.04807
0.0564599
0.000426494
0.000380815
0.000356445
0.000271007
0.0631302
0.0011347
0.00151214
0.00387684
0.0115259
0.123075
0.156037
0.00526383
0.00652306
0.00588217
0.136033
0.139097
0.142522
0.00934475
0.13449
0.139941
0.13306
0.016992
0.0105524
0.0221329
0.00872633
0.0447859
0.0483209
5.77155e-05
4.60841e-05
6.11676e-05
0.0155561