# vtk DataFile Version 2.0
Unstructured Grid by M++
ASCII
DATASET UNSTRUCTURED_GRID
POINTS 4072 float
  0.828125   0.890625 0
  0.875000   0.531250 0
  0.828125   0.750000 0
  0.593750   0.968750 0
  0.828125   0.671875 0
  0.828125   0.875000 0
  0.593750   0.937500 0
  0.828125   0.656250 0
  0.828125   0.640625 0
  0.828125   0.843750 0
  0.593750   0.906250 0
  0.828125   0.625000 0
  0.781250   0.968750 0
  0.828125   0.609375 0
  0.828125   0.812500 0
  0.593750   0.875000 0
  0.593750   0.828125 0
  0.593750   0.796875 0
  0.828125   0.703125 0
  0.593750   0.765625 0
  0.828125   0.937500 0
  0.812500   0.875000 0
  0.859375   0.515625 0
  0.812500   0.734375 0
  0.812500   0.937500 0
  0.578125   1.000000 0
  0.578125   0.750000 0
  0.812500   0.687500 0
  0.578125   0.953125 0
  0.812500   0.656250 0
  0.812500   0.859375 0
  0.578125   0.921875 0
  0.812500   0.828125 0
  0.578125   0.890625 0
  0.812500   0.593750 0
  0.812500   0.796875 0
  0.578125   0.859375 0
  0.578125   0.812500 0
  0.578125   0.781250 0
  0.796875   1.000000 0
  0.796875   0.859375 0
  0.796875   0.718750 0
  0.562500   0.984375 0
  0.562500   0.937500 0
  0.796875   0.843750 0
  0.562500   0.906250 0
  0.796875   0.812500 0
  0.562500   0.875000 0
  0.796875   0.578125 0
  0.796875   0.781250 0
  0.562500   0.843750 0
  0.812500   0.984375 0
  0.562500   0.796875 0
  0.812500   0.953125 0
  0.562500   0.765625 0
  0.796875   0.937500 0
  0.546875   0.750000 0
  0.781250   0.984375 0
  0.828125   0.593750 0
  0.781250   0.843750 0
  0.781250   0.937500 0
  0.546875   1.000000 0
  0.781250   0.703125 0
  0.546875   0.968750 0
  0.546875   0.921875 0
  0.781250   0.828125 0
  0.546875   0.890625 0
  0.781250   0.796875 0
  0.546875   0.859375 0
  0.781250   0.562500 0
  0.781250   0.765625 0
  0.546875   0.828125 0
  0.796875   0.968750 0
  0.546875   0.781250 0
  0.765625   1.000000 0
  0.765625   0.968750 0
  0.531250   0.984375 0
  0.765625   0.687500 0
  0.531250   0.953125 0
  0.531250   0.937500 0
  0.531250   0.906250 0
  0.765625   0.812500 0
  0.531250   0.875000 0
  0.765625   0.781250 0
  0.531250   0.843750 0
  0.781250   1.000000 0
  0.765625   0.546875 0
  0.765625   0.750000 0
  0.531250   0.812500 0
  0.781250   0.953125 0
  0.531250   0.765625 0
  0.515625   0.750000 0
  0.750000   0.984375 0
  0.750000   0.953125 0
  0.796875   0.593750 0
  0.796875   0.562500 0
  0.750000   0.843750 0
  0.750000   0.937500 0
  0.515625   1.000000 0
  0.750000   0.906250 0
  0.515625   0.968750 0
  0.750000   0.671875 0
  0.750000   0.875000 0
  0.515625   0.937500 0
  0.515625   0.921875 0
  0.515625   0.890625 0
  0.750000   0.796875 0
  0.515625   0.859375 0
  0.750000   0.765625 0
  0.515625   0.828125 0
  1.000000   0.718750 0
  0.750000   0.531250 0
  0.750000   0.734375 0
  0.515625   0.796875 0
  0.734375   1.000000 0
  0.734375   0.968750 0
  0.734375   0.937500 0
  0.781250   0.578125 0
  0.781250   0.546875 0
  0.968750   0.578125 0
  0.734375   0.828125 0
  0.968750   0.546875 0
  0.734375   0.796875 0
  0.734375   0.765625 0
  0.968750   0.671875 0
  0.734375   0.734375 0
  0.968750   0.640625 0
  0.734375   0.703125 0
  0.968750   0.609375 0
  0.734375   0.671875 0
  0.734375   0.656250 0
  0.734375   0.625000 0
  0.968750   0.531250 0
  0.734375   0.593750 0
  0.984375   0.734375 0
  0.984375   0.703125 0
  0.734375   0.515625 0
  0.718750   0.984375 0
  0.718750   0.953125 0
  0.718750   0.921875 0
  0.953125   0.562500 0
  0.718750   0.812500 0
  0.953125   0.531250 0
  0.718750   0.781250 0
  0.718750   0.750000 0
  0.953125   0.656250 0
  0.718750   0.718750 0
  0.953125   0.625000 0
  0.718750   0.687500 0
  0.953125   0.593750 0
  0.718750   0.656250 0
  0.671875   1.000000 0
  0.718750   0.640625 0
  0.718750   0.609375 0
  0.953125   0.515625 0
  0.718750   0.578125 0
  0.968750   0.718750 0
  0.968750   0.687500 0
  0.953125   0.671875 0
  0.703125   0.968750 0
  0.703125   0.937500 0
  0.937500   0.656250 0
  0.703125   0.906250 0
  0.937500   0.546875 0
  0.703125   0.796875 0
  0.937500   0.515625 0
  0.703125   0.765625 0
  0.937500   0.671875 0
  0.703125   0.734375 0
  0.937500   0.640625 0
  0.703125   0.703125 0
  0.937500   0.609375 0
  0.703125   0.671875 0
  0.937500   0.578125 0
  0.703125   0.640625 0
  0.656250   0.984375 0
  0.703125   0.625000 0
  0.703125   0.593750 0
  0.718750   0.796875 0
  0.953125   0.734375 0
  0.812500   1.000000 0
  0.859375   0.656250 0
  0.703125   0.781250 0
  0.937500   0.718750 0
  0.953125   0.703125 0
  0.796875   0.984375 0
  0.843750   0.640625 0
  0.812500   0.968750 0
  0.859375   0.625000 0
  0.796875   0.953125 0
  0.843750   0.609375 0
  0.687500   0.953125 0
  0.687500   0.921875 0
  0.687500   0.890625 0
  0.921875   0.734375 0
  0.687500   0.796875 0
  0.687500   0.781250 0
  0.921875   0.703125 0
  0.687500   0.765625 0
  0.687500   0.750000 0
  0.921875   0.656250 0
  0.687500   0.718750 0
  0.921875   0.625000 0
  0.687500   0.687500 0
  0.921875   0.593750 0
  0.687500   0.656250 0
  0.640625   1.000000 0
  0.921875   0.562500 0
  0.687500   0.625000 0
  0.640625   0.968750 0
  0.687500   0.609375 0
  0.687500   0.578125 0
  0.937500   0.687500 0
  0.921875   0.671875 0
  0.671875   0.921875 0
  0.906250   0.656250 0
  0.671875   0.906250 0
  0.671875   0.875000 0
  0.906250   0.718750 0
  0.671875   0.781250 0
  0.671875   0.765625 0
  0.671875   0.734375 0
  0.906250   0.640625 0
  0.671875   0.703125 0
  0.906250   0.609375 0
  0.671875   0.671875 0
  0.906250   0.578125 0
  0.671875   0.640625 0
  0.625000   0.984375 0
  0.671875   0.609375 0
  0.625000   0.953125 0
  0.671875   0.593750 0
  0.671875   0.562500 0
  0.765625   0.953125 0
  0.812500   0.609375 0
  0.656250   1.000000 0
  0.656250   0.953125 0
  0.656250   0.906250 0
  0.890625   0.640625 0
  0.656250   0.890625 0
  0.656250   0.859375 0
  0.890625   0.734375 0
  0.656250   0.796875 0
  0.812500   0.921875 0
  0.562500   1.000000 0
  0.625000   0.828125 0
  0.812500   0.843750 0
  0.843750   0.593750 0
  0.812500   0.812500 0
  0.625000   0.718750 0
  0.828125   0.687500 0
  0.640625   0.593750 0
  0.812500   0.781250 0
  0.625000   0.687500 0
  0.765625   0.828125 0
  0.640625   0.562500 0
  0.812500   0.750000 0
  0.562500   0.828125 0
  0.781250   0.875000 0
  0.546875   0.937500 0
  0.781250   0.671875 0
  0.781250   0.593750 0
  0.546875   0.656250 0
  0.796875   0.750000 0
  0.562500   0.812500 0
  0.796875   0.546875 0
  0.765625   0.796875 0
  0.765625   0.593750 0
  1.000000   0.531250 0
  0.812500   0.718750 0
  0.859375   0.562500 0
  0.625000   0.625000 0
  0.812500   0.703125 0
  0.812500   0.906250 0
  0.578125   0.968750 0
  0.984375   0.593750 0
  0.828125   0.578125 0
  0.828125   0.781250 0
  0.593750   0.843750 0
  0.812500   0.671875 0
  0.625000   0.578125 0
  0.796875   0.671875 0
  0.562500   0.734375 0
  0.984375   0.562500 0
  0.828125   0.546875 0
  0.812500   0.640625 0
  0.750000   0.812500 0
  0.625000   0.546875 0
  0.796875   0.640625 0
  0.562500   0.703125 0
  0.828125   0.515625 0
  0.781250   0.734375 0
  0.546875   0.796875 0
  0.781250   0.531250 0
  0.750000   0.781250 0
  0.625000   0.515625 0
  0.796875   0.609375 0
  0.562500   0.671875 0
  0.765625   0.656250 0
  0.765625   0.859375 0
  0.531250   0.921875 0
  0.812500   0.578125 0
  0.562500   0.656250 0
  0.984375   0.687500 0
  0.750000   0.750000 0
  0.812500   0.562500 0
  0.812500   0.765625 0
  0.578125   0.828125 0
  0.562500   0.625000 0
  0.984375   0.656250 0
  0.750000   0.718750 0
  0.812500   0.531250 0
  0.781250   0.656250 0
  0.546875   0.718750 0
  0.781250   0.625000 0
  0.546875   0.687500 0
  0.750000   0.640625 0
  0.796875   0.531250 0
  0.562500   0.593750 0
  0.984375   0.625000 0
  0.750000   0.687500 0
  0.546875   0.984375 0
  0.609375   0.812500 0
  0.796875   0.875000 0
  0.546875   0.953125 0
  0.609375   0.578125 0
  0.843750   0.515625 0
  0.765625   0.515625 0
  0.765625   0.718750 0
  0.531250   0.781250 0
  0.984375   0.546875 0
  0.750000   0.609375 0
  0.796875   0.828125 0
  0.671875   0.968750 0
  0.796875   0.796875 0
  0.796875   0.765625 0
  0.609375   0.671875 0
  0.796875   0.734375 0
  0.546875   0.812500 0
  0.796875   0.703125 0
  0.843750   0.546875 0
  0.609375   0.609375 0
  0.796875   0.687500 0
  0.562500   0.953125 0
  0.796875   0.656250 0
  0.609375   0.562500 0
  0.796875   0.625000 0
  0.609375   0.531250 0
  0.546875   0.640625 0
  0.765625   0.671875 0
  0.531250   0.734375 0
  0.796875   0.515625 0
  0.765625   0.640625 0
  0.531250   0.703125 0
  0.703125   1.000000 0
  0.765625   0.609375 0
  0.531250   0.671875 0
  0.765625   0.578125 0
  0.531250   0.640625 0
  0.546875   0.609375 0
  0.531250   1.000000 0
  0.890625   0.593750 0
  0.656250   0.656250 0
  0.781250   0.515625 0
  0.546875   0.578125 0
  0.531250   0.968750 0
  0.890625   0.562500 0
  0.656250   0.625000 0
  0.609375   0.968750 0
  0.781250   0.859375 0
  0.656250   0.593750 0
  0.750000   0.703125 0
  0.515625   0.765625 0
  0.781250   0.812500 0
  0.781250   0.781250 0
  0.593750   0.687500 0
  0.781250   0.750000 0
  0.593750   0.656250 0
  0.781250   0.718750 0
  0.531250   0.796875 0
  0.828125   0.562500 0
  0.593750   0.625000 0
  0.781250   0.687500 0
  0.828125   0.531250 0
  0.593750   0.593750 0
  0.812500   0.625000 0
  0.578125   0.687500 0
  0.781250   0.640625 0
  0.781250   0.609375 0
  0.593750   0.515625 0
  0.515625   0.781250 0
  0.812500   0.546875 0
  0.578125   0.609375 0
  0.812500   0.515625 0
  0.578125   0.578125 0
  0.750000   0.656250 0
  0.515625   0.718750 0
  0.750000   0.625000 0
  0.515625   0.687500 0
  0.687500   0.984375 0
  0.750000   0.593750 0
  0.515625   0.656250 0
  0.531250   0.546875 0
  0.750000   0.562500 0
  0.515625   0.625000 0
  0.531250   0.515625 0
  0.984375   0.515625 0
  0.750000   0.578125 0
  0.515625   0.531250 0
  0.828125   0.796875 0
  0.640625   0.703125 0
  0.828125   0.765625 0
[...]
CELL_DATA 7648
SCALARS scalar_value float 1
LOOKUP_TABLE default
1.70233e-06
1.2771e-06
0.000266964
0.000236048
0.000198031
0.000272598
0.220291
0.216694
0.216552
0.213275
0.12894
0.114151
0.099332
0.113508
0.0903399
0.0882706
0.0789518
0.100055
0.000840842
0.000541531
0.000775704
0.000756141
0.00057382
0.00050576
3.33881e-05
2.61465e-05
1.88397e-05
2.65818e-05
1.04882e-05
8.13692e-06
6.04506e-06
8.21671e-06
0.00545047
0.00498187
0.00505474
0.00379384
0.0636079
0.0683982
1.42812e-06
1.02266e-06
0.0600457
0.0551469
9.97599e-06
8.44948e-06
0.00325847
0.00402043
0.00450464
0.00388447
0.0058602
0.00642317
0.00710754
0.00608221
0.0041847
0.00461778
0.00516802
0.00434834
0.00180133
0.00193474
0.00128561
0.00174951
0.00134739
0.00118913
0.0288755
0.0257383
0.0247991
0.0210202
0.0205474
0.0165624
0.014401
0.0128537
0.0103776
0.0108047
0.00825097
0.00115835
4.78177e-05
0.00152415
0.0013228
0.00114085
0.00143692
0.00106317
0.00118804
0.00103548
0.00138033
0.00160979
0.00140875
0.00120754
0.00156617
3.22289e-06
2.30163e-06
2.29448e-06
0.0312302
0.0329759
0.0365317
0.0333745
0.0380585
0.037206
0.0380707
0.0344328
0.0440977
0.050039
0.0421484
0.0344338
0.0348397
0.0343562
0.000486848
0.000577714
0.000866156
0.000977627
2.11282e-05
1.77481e-05
1.43857e-05
1.68489e-05
0.00224819
0.00199939
0.00201098
0.00151203
0.00104049
0.000974033
0.000806151
0.177814
0.167543
0.165382
0.160441
0.148777
0.146769
0.154539
0.135165
4.47207e-05
3.73138e-05
2.96859e-05
3.59864e-05
0.000243809
0.000208225
0.000178824
0.000195297
0.214645
0.216474
0.219173
0.213229
0.0900882
1.30322e-05
1.07505e-05
0.0145941
0.0126881
0.0133048
0.0110399
0.00790761
0.00927099
0.00153722
0.0011928
0.00109705
0.000231863
0.000180761
0.000144138
0.00015263
0.000247448
0.000204316
0.000165838
0.000207949
0.0431265
0.0369886
0.0743515
0.0695611
0.060329
0.0742791
0.000139327
0.0705936
0.0645187
0.0570164
0.064181
2.76754e-07
2.22068e-07
1.62137e-07
2.9865e-07
0.00138244
0.00123013
0.106527
0.0988571
0.0941373
0.0898679
0.0866268
0.0797141
0.0731126
0.0830426
9.9582e-05
7.63582e-05
8.21461e-05
5.9091e-05
3.44571e-05
2.57947e-05
2.7399e-05
1.37457e-05
6.45883e-06
0.0740441
0.0684612
0.0662115
0.060547
1.99558e-06
1.47528e-06
1.03308e-06
1.33439e-06
0.149673
0.150656
0.160147
0.145335
0.00358786
0.00322306
0.158343
0.152642
0.148628
0.14413
0.164398
0.159593
0.161167
0.153032
0.137667
0.134525
0.141609
0.127082
0.00472921
0.00570919
0.00658979
0.00539363
0.00944638
0.0130302
0.0100287
0.0217508
0.0174646
0.0147135
0.017528
0.222952
0.223116
0.225342
0.219839
0.000437537
0.000368395
0.000319671
0.000322397
0.208161
0.207516
0.211802
0.201213
0.000227612
0.00018855
0.000157785
0.000168676
1.17484e-05
1.01059e-05
8.83356e-06
6.1722e-06
5.04924e-06
3.68552e-06
3.51444e-06
2.18666e-06
1.51888e-06
2.41213e-06
1.47227e-06
1.29432e-06
1.11326e-06
0.000419323
0.000364714
0.000324037
0.000337291
0.000479302
0.000429501
0.000495916
0.000366061
0.000298637
0.000260232
0.000279256
0.000227781
0.00592982
0.00764037
0.00601019
0.00272509
0.0023247
0.0020689
0.00197442
0.000651068
0.000495665
0.000455214
6.85095e-05
5.30939e-05
6.04758e-05
3.13537e-05
1.81542e-05
2.20021e-05
4.39085e-05
2.69538e-05
3.45751e-05
1.64711e-06
1.2563e-06
9.34477e-07
1.25196e-06
0.00139196
0.0011027
0.108073
0.127245
0.00371762
0.00165581
0.00724821
0.00260094
0.00404531
0.187755
0.183061
0.0112111
0.209815
0.185133
0.201582
0.0109437
0.204918
0.0420394
0.00802219
0.0546118
0.00743584
0.00662301
0.00744063
9.3443e-07
8.4667e-07
6.15547e-06
0.00048584
0.000236096
0.00202318
0.00205916
0.000519535
1.63126e-05
0.00180984
0.00774614
0.00368496
0.00871231
0.118226
0.107365
0.00318183
0.209947
0.197176
0.169362
0.172854
0.0872158
0.175576
1.02755e-05
5.9193e-06
2.85501e-05
6.8075e-05
1.73484e-05
2.37346e-05
0.00607979
0.00674044
2.12498e-05
0.00745484
0.0839996
0.00918299
0.200766
0.000107565
0.110241
6.32149e-05
2.13596e-05
2.11284e-05
3.80323e-05
1.12826e-05
0.00529215
0.000773348
0.000883825
0.000625504
0.00266303
8.49886e-06
0.000903348
0.00174521
0.00149423
0.00122759
0.00261881
1.76495e-06
7.35744e-06
6.16675e-06
3.82287e-07
0.00567099
0.107868
0.000476623
0.00435311
0.00442858
0.00109597
0.00304411
5.37807e-05
0.00610846
6.35619e-08
3.35729e-08
5.62915e-08
0.000365448
0.000331102
0.000410276
0.00118417
0.00075316
0.000883083
0.000437673
0.000366217
0.000471173
0.00163334
0.00107409
0.00143225
9.20421e-05
7.06493e-05
0.188062
0.000106351
0.181926
8.70327e-05
0.00119304
0.1724
0.0708366
6.96758e-05
0.183769
0.0558046
8.03916e-05
0.000165157
6.88342e-06
1.99676e-05
3.76611e-06
4.97839e-06
0.000904908
9.52699e-06
2.83168e-05
0.00177499
0.131864
1.26857e-05
4.55623e-05
0.00628217
0.00408374
0.0283781
0.0192604
0.0373591
0.00192544
0.00114896
9.63585e-05
0.000382733
0.174057
0.0427561
5.12451e-05
5.4546e-05
0.00069221
6.86887e-05
3.90797e-05
1.87303e-05
0.0972502
1.26273e-05
0.000112226
0.00229489
0.00182558
0.000117725
7.62485e-05
9.44209e-05
9.5197e-07
6.77461e-07
4.81354e-07
0.0069229
0.0046773
0.0119917
0.0060371
4.88078e-08
1.04337e-07
0.000631577
0.195982
0.203938
0.011503
0.0142946
0.000174351
0.00207708
0.000653054
0.00353345
0.000420201
0.000346785
0.00336076
0.000289533
0.000309277
0.000491984
0.00036283
0.000434795
0.00501936
0.164211
0.164605
0.0155942
6.20378e-06
0.000217417
4.8138e-07
8.16799e-06
0.00317117
0.0346741
0.0188132
0.0417174
0.0329978
0.0138429
0.0560545
0.00197197
0.00327628
0.000204878
0.000231364
0.000171541
0.000213205
0.00207454
0.000429336
0.000316585
0.000266412
0.000409391
0.000690641
0.0261391
7.28589e-07
0.040277
0.000472188
0.000444894
0.176831
0.0166937
0.0164175
0.00237358
0.00312969
0.000899374
7.24623e-05
0.000712376
1.20095e-05
9.30163e-06
3.26377e-05
1.96807e-05
7.32316e-05
0.000158341
0.000187207
5.53866e-05
7.44187e-06
4.46024e-05
0.000143238
2.44903e-05
0.0322156
0.0313825
0.00061168
0.00930218
0.000396451
9.17111e-06
0.000554512
0.00436212
0.00206007
9.70561e-05
0.0106873
5.99531e-05
0.000805199
0.000269955
2.3497e-05
0.000230046
2.05247e-05
0.000165141
0.000376084
0.000290243
0.00911667
0.106534
0.00015965
0.119621
0.117566
0.00147049
0.000872031
0.00128851
0.001633
0.180003
0.00023564
0.0627636
0.000119559
0.000332763
0.00142314
0.00233449
0.000222048
0.00248567
0.00226359
0.00379677
0.00192187
0.00187335
0.0169606
0.0012541
0.00560378
0.000649298
0.00380788
0.0273666
0.0244977
0.00248845
0.0208132
0.00228237
0.0248983
0.00219894
0.119143
0.0219486
0.0197154
5.29328e-06
0.000878369
0.000792431
0.000765129
0.0153262
0.000697216
0.0163566
0.0297156
0.0204169
0.000684035
0.0127316
0.107
0.000562275
0.00107977
0.0220112
0.00104718
0.000919093
0.000773741
0.000456621
0.025328
0.00122193
0.00125826
0.0446889
0.0529915
0.00665976
7.65843e-05
0.0239225
0.000605871
4.45473e-05
0.000653185
0.000235409
0.00262756
0.000288976
0.000229707
0.0858574
0.00330361
0.112447
0.000795862
0.00434048
7.43399e-06
0.00200493
0.00100435
0.0930274
0.107953
0.0149626
0.00377529
0.0108054
0.0109749
0.0480975
0.021997
0.000308953
0.00473269
0.0040343
0.171788
0.00215449
3.31596e-06
1.80956e-06
2.64157e-06
0.00139354
0.0304619
7.33157e-06
5.20505e-05
1.93258e-05
3.70703e-05
1.44543e-05
1.40871e-06
7.2081e-05
5.76193e-05
0.0142519
0.00925199
0.00216709
0.180338
0.00827925
0.011747
3.63854e-05
0.00318105
5.45451e-06
0.0438928
0.0279791
0.0496529
0.000788354
0.126633
0.095815
6.88209e-05
0.0218256
2.0917e-05
1.21944e-05
4.81713e-06
0.014289
0.000723382
0.0191905
0.000649711
0.0562899
4.97797e-05
0.140627
0.015373
7.1442e-05
0.035998
0.000201234
0.000904924
0.00315947
0.000136017
0.000511061
0.00999899
0.000118644
0.000149669
0.0990419
0.000223123
0.000290222
0.000189606
0.000306475
2.37781e-06
2.24424e-06
5.73317e-06
3.14803e-06
0.000822428
5.38586e-06
0.0210655
0.000923291
1.03021e-05
0.000133599
0.00251014
4.58841e-05
0.00834535
5.55351e-07
0.000518068
0.000120854
0.00780352
0.000186813
0.000781678
0.000156664
0.0267855
0.000211473
1.72299e-06
0.0201888
0.00144386
0.00874871
8.82391e-05
0.010747
0.11769
0.000255543
0.000690971
0.070645
0.0184811
0.00243053
0.0012819
0.0208899
0.000125018
7.3153e-06
4.39839e-07
0.0175881
0.0114235
0.00196678
6.98809e-07
0.021093
0.0132507
0.022145
0.0250516
0.0154293
1.0022e-06
0.000138584
0.0178352
3.41929e-07
2.0028e-07
0.00161536
0.00552887
5.34204e-07
0.0255966
0.00274144
0.000239541
0.00126839
0.00389297
0.00431351
0.0884915
0.000128054
8.49722e-05
9.32393e-06
0.000707371
0.0269131
0.00294976
4.3275e-06
0.00566861
3.36115e-07
0.000359713
9.00755e-05
0.00107342
8.65812e-05
0.000709534
0.042554
8.68605e-05
0.0488658
0.000901386
0.16277
0.0451002
4.18587e-05
0.00544585
0.175412
0.0365167
4.89636e-05
0.0562467
0.00080118
0.00772505
2.2801e-05
0.000676934
1.79147e-05
1.01625e-06
0.00122667
0.00773913
2.20873e-07
0.00890153
0.00107268
0.000588788
1.28006e-05
7.73659e-07
0.00389846
0.00396388
0.153681
2.94913e-07
0.000141665
0.00353437
0.179153
2.42426e-08
0.000254627
0.0100386
0.00707309
0.00349259
0.0122429
1.27724e-05
0.0386586
0.00696692
0.0061725
0.00112385
0.16771
0.000212712
5.8425e-05
0.0547547
5.80512e-05
0.194019
8.9708e-05
0.000604458
0.00226962
1.17194e-07
0.0497554
0.00319275
4.15167e-06
0.0109185
0.0017019
0.00109044
0.0162172
0.0788526
0.00299211
0.000550177
0.13707
0.0576679
0.00161022
0.00161909
0.0257751
0.00609693
1.79094e-06
0.02562
0.00480058
0.000571622
7.96768e-06
0.000243513
2.50297e-05
7.34618e-06
0.00270494
5.71795e-06
8.71544e-06
0.00499222
0.0221707
3.61554e-06
0.000857161
0.00286355
0.00479756
0.000530237
0.000787298
0.00132919
0.00247598
0.000321342
6.3708e-05
0.00441779
0.00304977
0.188986
0.00174351
0.00266968
0.000651661
0.00120938
0.000594708
0.00498877
0.00520557
0.000666216
0.052499
0.0200485
0.000463779
0.167533
0.0903359
0.00188532
0.00285876
0.0041648
0.00203088
0.0215244
0.00749732
5.39409e-05
0.00202035
0.0439649
0.00484592
0.114169
0.019531
0.00152805
0.000956031
5.59051e-06
4.10513e-05
1.33697e-07
0.000734081
0.00388027
0.000645239
0.00167922
0.00472957
3.69083e-08
8.77196e-06
7.32393e-07
0.00204665
0.00547774
4.08223e-06
0.0582189
0.00242468
0.0525325
0.0505268
0.0879711
2.81029e-07
0.0167961
0.000731622
0.000250601
0.0202722
0.0136077
0.0352829
0.0670011
0.0195301
8.46042e-06
0.0554953
5.01539e-06
4.81972e-06
0.0639452
0.0372872
6.08672e-06
6.48423e-07
4.678e-06
4.66516e-05
6.24593e-06
1.3438e-05
3.68851e-05
0.00116249
2.82061e-06
0.00456406
0.00288433
0.00135548
0.0059482
0.00306223
3.74962e-07
3.81186e-06
0.017446
0.00162821
0.000102894
0.00179201
3.6476e-06
2.31485e-05
0.000107827
7.75347e-07
3.51654e-05
0.0122946
0.00253839
5.35979e-05
3.69667e-07
0.000836233
0.0125269
8.21533e-05
2.5302e-05
0.0409407
0.00106715
0.0068731
0.00120696
2.90832e-06
0.0065269
0.0104597
3.83111e-06
0.0260833
0.060785
0.00143186
0.00448564
4.63034e-06
0.0567336
0.02674
1.3586e-06
0.029443
0.0179409
0.000572459
2.26549e-06
1.38783e-05
0.0150301
0.165158
2.92798e-05
0.0151034
9.83993e-07
0.0250306
0.0186192
9.44646e-05
0.00241344
0.000169089
0.0862702
0.127066
0.014674
0.0036088
0.02889
7.82401e-06
0.000286871
5.52387e-05
7.54618e-07
0.000527763
0.0440596
0.0305077
3.09722e-06
0.0174875
7.70549e-05
0.0252222
0.0380118
0.0284681
3.50839e-05
0.00888351
0.0300069
2.92658e-08
0.0205381
4.15783e-06
0.0322492
0.00283266
0.0213727
0.038449
5.58989e-06
0.17617
2.01223e-06
0.00212492
0.000142809
0.00389573
0.00327166
0.019642
0.00646633
3.97946e-05
3.79665e-05
0.00139189
0.00263343
8.54162e-06
1.80927e-07
3.00286e-06
0.0152821
9.99075e-06
0.00243831
4.22229e-07
0.0163849
0.000261734
2.80056e-07
2.01664e-06
0.0133643
0.00816108
0.0147013
0.000412366
1.69467e-05
2.41151e-05
0.0249286
0.0238556
0.0269056
0.0168124
0.00410935
0.150351
0.00670035
0.190471
0.137066
0.00779684
0.0126242
0.00757863
8.68782e-05
0.000128051
6.78983e-06
0.0233968
1.51637e-05
0.000344501
6.89467e-06
0.00076522
0.0674798
0.0752916
0.0184717
0.0611192
1.38092e-06
0.000971247
0.000779673
7.09133e-05
5.51239e-05
6.88742e-05
6.35656e-05
0.000256527
0.00237331
0.0287258
0.00019189
0.000176696
0.000135892
0.000760104
0.013188
1.0574e-06
0.000706724
0.0118062
0.000762129
0.010921
0.0721208
0.0367551
7.13248e-06
0.0422445
1.23309e-05
4.15861e-05
0.021346
1.00434e-05
0.000225709
0.0287829
0.000165523
0.000220944
0.000271656
0.000180652
0.000133347
9.89742e-05
0.00010507
0.000176041
0.0556502
5.40184e-05
0.0633815
6.43293e-05
0.000324281
0.0167278
0.000667953
0.00149411
0.0675009
0.00108336
0.10586
0.00171672
0.00259133
0.0281075
0.0226599
2.10442e-05
1.18887e-05
9.20377e-07
1.49988e-05
0.00104794
0.000611617
3.50442e-08
4.70792e-08
0.0702086
0.0799865
0.00137318
0.0874813
8.03578e-05
0.0432401
0.0493477
0.0555137
2.79311e-05
0.000192885
1.13592e-05
1.19324e-05
7.50141e-06
6.1662e-05
7.87016e-06
9.57146e-06
0.00252323
1.69174e-05
6.63067e-05
0.00289797
0.050574
9.59743e-05
0.00371578
0.0409444
0.00346536
0.0354659
0.0017723
5.74797e-06
1.00607e-05
5.51598e-08
0.00661669
7.09833e-08
7.53303e-08
1.11792e-07
0.00850505
0.0035276
0.00449613
4.25662e-08
2.3708e-08
0.00340178
2.75759e-08
1.52227e-08
0.00406578
2.70827e-08
0.00270676
1.93479e-08
0.00296658
1.89966e-08
0.0686609
0.00758379
0.0618798
1.39725e-05
0.0530278
1.59507e-05
0.0449689
0.00315287
0.0558922
0.0010882
0.0297637
0.000503587
0.0215494
0.000331828
0.0280537
4.8766e-05
3.09668e-05
3.74921e-05
9.26878e-05
4.70807e-05
3.72029e-05
3.07052e-05
3.11204e-05
0.000127068
1.82203e-05
4.47777e-05
0.00989357
6.52334e-05
1.61496e-05
2.67648e-05
0.000573906
0.000696359
0.00716775
1.4959e-05
0.0779993
0.0466515
7.12698e-05
0.0717993
5.70846e-05
0.00386048
0.033988
0.212889
0.00213937
0.0319818
0.000118192
0.0184472
0.0240998
2.08523e-05
3.86708e-05
0.00622529
0.00260233
0.00133733
0.00481883
0.00112438
0.000775716
0.00174468
0.0369873
0.0001777
0.0159341
0.00487272
0.0150943
3.15958e-07
5.27749e-07
0.00558636
0.000886766
0.02641
0.000500965
7.89768e-05
0.00895925
0.000463281
0.00796405
0.00821647
0.00728847
0.00561278
0.00790814
0.00930614
0.0468262
0.000101961
0.00594905
0.000584335
4.30361e-07
3.17256e-05
0.00268441
0.000151408
0.00793633
0.0119151
0.0777478
0.000698618
4.55492e-05
0.135247
0.00814661
3.8463e-07
0.000590419
4.00316e-07
1.65334e-05
0.000558
5.50534e-07
1.37141e-07
2.1706e-07
2.43959e-07
0.000764963
0.0411614
0.0427093
0.00138162
0.0280358
0.0324182
0.0305788
0.0320187
0.0989333
0.00344744
2.81489e-06
2.52741e-06
5.1492e-05
5.60425e-05
1.05613e-05
1.69651e-05
2.73944e-06
1.09853e-05
2.59683e-06
1.4997e-05
3.61259e-06
1.86339e-05
0.0125022
4.00293e-05
2.6513e-05
3.69461e-05
4.61342e-05
3.73465e-06
4.64217e-06
6.71728e-06
6.16835e-05
0.0107427
0.0110519
0.00631924
0.0146195
0.00878712
0.00758611
0.000767432
0.0665904
0.0846021
0.00297707
0.133321
0.116468
0.00159431
0.148108
0.00227859
0.00155534
0.00132549
0.0136393
0.00772058
0.108816
0.00344185
0.0814676
0.0758557
0.0851439
0.0970293
0.000272554
0.000135377
0.000335667
0.00037879
0.0271933
0.0345245
0.0391761
0.000457938
0.0436239
0.0374387
0.0347227
0.00227657
0.00014951
0.000289588
2.25883e-06
1.29459e-06
1.44498e-06
0.000311204
0.000214022
0.000286118
0.000343319
0.0348979
0.0630307
0.074818
0.0830821
0.0799033
0.0869355
0.0811508
0.000460275
2.38603e-05
2.98118e-05
2.62886e-05
0.00900558
0.038531
0.154359
0.00716048
9.71655e-06
9.74271e-06
1.51177e-07
9.53173e-08
1.4265e-07
1.8998e-07
0.0370462
0.0355683
0.0338183
0.00294417
0.000111087
7.51179e-05
0.000381711
8.78769e-05
7.17653e-05
0.00257856
0.00384893
0.000909411
0.000908043
0.00495468
0.00684601
0.00561456
0.0378789
0.00579213
0.0444679
0.016201
0.00950284
0.000933472
0.000626992
0.000693472
0.00108502
0.000406222
0.0442107
0.0522167
0.0581868
0.0672646
8.47328e-07
6.4852e-07
4.75727e-07
0.0689773
0.000254114
0.0222933
0.00391217
0.0266846
0.0292939
0.011018
0.00383782
0.00341499
0.00467173
0.00415124
0.00076405
0.00633369
0.117472
0.065222
0.00947578
0.000793634
0.011154
0.000886824
0.0126763
0.0517398
0.0554395
0.0558147
0.0628912
0.00436673
0.000419522
0.000697768
0.000421648
0.000435849
0.0305753
0.0334133
0.000961684
0.045398
0.00089986
0.000576052
0.000388603
0.037783
0.0110053
0.00218141
0.012085
9.3859e-05
1.86452e-06
2.83073e-06
2.56404e-06
0.000268496
0.000297411
0.000359384
2.9319e-05
0.000368314
0.000481224
0.00143983
0.0988726
0.00792179
0.10495
0.102839
0.000469332
0.00179016
0.000581876
0.000407406
0.0808066
0.080568
0.00729398
0.10236
0.000989767
0.000811827
0.000771802
0.000503008
0.000431818
0.0453076
0.00620858
0.00618787
0.00118853
0.0017568
0.0285388
0.00014579
1.75888e-05
0.0102535
6.97584e-08
4.57842e-08
6.28771e-08
8.21513e-08
0.00976732
1.27713e-06
1.4523e-06
1.90945e-06
0.0108815
0.110395
0.0984249
0.105512
0.00175769
0.00191892
2.24754e-07
1.25802e-07
1.9145e-07
2.47176e-07
0.033703
0.115247
0.00299044
0.092635
0.129702
1.55814e-05
1.61491e-05
6.67837e-06
9.5669e-06
1.00191e-05
5.68091e-07
7.5254e-07
7.04121e-07
9.56524e-07
0.000801624
0.000378366
0.00046485
0.00300543
0.00275773
0.109641
0.141145
0.00409015
0.153191
3.78604e-08
0.0199761
0.0240716
0.00340018
0.000590979
0.0119209
0.0805861
0.0994155
0.0468604
0.0450871
0.00515867
0.00059348
0.00637514
4.4365e-06
0.000182533
0.000148993
0.000115672
0.00128745
0.00126313
0.0914463
0.000282878
0.000301272
0.0452554
0.036855
0.0322217
0.000111691
0.000135615
1.16343e-05
1.39496e-05
0.00092902
6.56135e-08
0.00136385
0.00884569
5.101e-08
8.19351e-08
8.69377e-08
0.00199121
0.00258202
2.37421e-05
4.95574e-06
4.7037e-06
6.30365e-06
0.0432244
0.0530093
2.99776e-05
3.50247e-05
4.8958e-05
0.0110045
2.5603e-05
2.99705e-05
0.000108794
8.71897e-05
8.82611e-05
6.98814e-05
0.0549845
0.0520613
0.000207583
0.000124912
0.000162185
0.000175238
3.11669e-05
3.86666e-05
3.08506e-05
0.0144378
0.000172145
0.00217602
0.00159306
0.00146853
0.107889
0.0342107
0.0332197
0.0370284
0.043591
0.00216554
0.00526174
0.000921381
0.00832064
0.136328
6.0052e-05
7.48585e-05
0.184848
0.206614
0.00012239
0.0323904
0.000547657
0.000504556
0.000832499
0.010073
0.0141238
0.00229588
0.0036233
0.0902306
0.000759416
0.000784695
0.00118221
0.00213449
0.000111581
0.00932298
0.010167
0.0105964
0.00547663
2.88632e-06
2.01337e-05
1.48725e-05
2.71601e-06
3.5626e-06
0.000133839
0.00534144
0.00515328
9.93109e-05
4.08706e-07
3.92325e-07
5.34052e-07
7.59407e-07
0.00150141
0.0168239
0.0189956
0.0221206
3.12356e-08
3.70603e-08
5.41099e-08
5.33974e-07
1.01714e-06
0.0849878
0.00182064
0.00215681
3.35836e-06
0.00270672
0.00100967
0.00166215
0.00630008
0.00279514
0.000233911
5.9953e-05
5.9768e-05
4.60323e-05
2.05577e-05
1.14153e-05
1.4103e-06
1.4632e-05
9.38222e-06
0.0229637
0.0234089
0.00128683
1.82306e-06
1.66141e-06
0.0555387
0.0710261
0.00033092
0.00353281
0.00522872
0.00384801
0.00344748
0.000873317
1.70949e-07
8.54962e-08
1.13081e-07
9.6727e-08
0.0124734
1.02033e-05
0.00100825
0.119794
0.126944
0.128456
0.016524
0.0121978
0.0119972
0.0920502
0.110064
0.0997395
2.24566e-05
1.92178e-05
2.82874e-05
0.129599
0.120049
0.13232
0.141913
0.00206059
0.000356458
0.000368159
3.32442e-05
0.000449661
0.000578465
2.77625e-05
3.4727e-05
4.10217e-05
0.141392
4.50806e-05
5.62676e-05
0.0162237
0.000590598
0.000885003
7.05904e-07
3.7872e-07
4.68598e-07
3.55551e-05
0.0686265
1.26044e-05
1.26844e-05
9.44019e-06
0.00676841
0.0581274
0.0518259
0.0518061
9.37123e-05
0.000152713
1.70673e-05
9.87994e-06
1.28305e-05
0.0364022
0.042841
0.0488641
1.06303e-05
1.21595e-05
1.72516e-05
0.00713527
0.00113973
0.00174632
0.0346287
0.0405407
0.000776717
0.00869844
0.0457445
0.0499553
0.040102
0.0994679
0.00104664
0.0609724
0.075142
0.0644175
0.0284607
0.000172968
0.0331699
0.000806745
0.000799586
0.000498273
0.000614492
9.74427e-05
0.000129761
0.000140469
0.192176
0.197228
0.00946509
1.27433e-06
8.10162e-06
1.73598e-06
2.21807e-06
2.00842e-05
2.22909e-06
1.22273e-06
1.59507e-06
0.000104565
0.000652953
4.74982e-05
2.88037e-05
1.47915e-05
1.97261e-05
4.78669e-05
0.0478485
0.000258167
0.0147421
0.0185518
0.0318925
0.00152902
0.0711178
0.0789554
0.0852433
0.000367137
0.000384201
0.000386834
0.0998818
0.111247
0.000519924
0.000716543
0.000380425
0.000424551
0.000470054
0.0281916
0.0360217
0.0429106
0.0342841
0.0405407
0.000130986