# vtk DataFile Version 2.0
Unstructured Grid by M++
ASCII
DATASET UNSTRUCTURED_GRID
POINTS 4072 float
  0.828125   0.890625 0
  0.875000   0.531250 0
  0.828125   0.750000 0
  0.593750   0.968750 0
  0.828125   0.671875 0
  0.828125   0.875000 0
  0.593750   0.937500 0
  0.828125   0.656250 0
  0.828125   0.640625 0
  0.828125   0.843750 0
  0.593750   0.906250 0
  0.828125   0.625000 0
  0.781250   0.968750 0
  0.828125   0.609375 0
  0.828125   0.812500 0
  0.593750   0.875000 0
  0.593750   0.828125 0
  0.593750   0.796875 0
  0.828125   0.703125 0
  0.593750   0.765625 0
  0.828125   0.937500 0
  0.812500   0.875000 0
  0.859375   0.515625 0
  0.812500   0.734375 0
  0.812500   0.937500 0
  0.578125   1.000000 0
  0.578125   0.750000 0
  0.812500   0.687500 0
  0.578125   0.953125 0
  0.812500   0.656250 0
  0.812500   0.859375 0
  0.578125   0.921875 0
  0.812500   0.828125 0
  0.578125   0.890625 0
  0.812500   0.593750 0
  0.812500   0.796875 0
  0.578125   0.859375 0
  0.578125   0.812500 0
  0.578125   0.781250 0
  0.796875   1.000000 0
  0.796875   0.859375 0
  0.796875   0.718750 0
  0.562500   0.984375 0
  0.562500   0.937500 0
  0.796875   0.843750 0
  0.562500   0.906250 0
  0.796875   0.812500 0
  0.562500   0.875000 0
  0.796875   0.578125 0
  0.796875   0.781250 0
  0.562500   0.843750 0
  0.812500   0.984375 0
  0.562500   0.796875 0
  0.812500   0.953125 0
  0.562500   0.765625 0
  0.796875   0.937500 0
  0.546875   0.750000 0
  0.781250   0.984375 0
  0.828125   0.593750 0
  0.781250   0.843750 0
  0.781250   0.937500 0
  0.546875   1.000000 0
  0.781250   0.703125 0
  0.546875   0.968750 0
  0.546875   0.921875 0
  0.781250   0.828125 0
  0.546875   0.890625 0
  0.781250   0.796875 0
  0.546875   0.859375 0
  0.781250   0.562500 0
  0.781250   0.765625 0
  0.546875   0.828125 0
  0.796875   0.968750 0
  0.546875   0.781250 0
  0.765625   1.000000 0
  0.765625   0.968750 0
  0.531250   0.984375 0
  0.765625   0.687500 0
  0.531250   0.953125 0
  0.531250   0.937500 0
  0.531250   0.906250 0
  0.765625   0.812500 0
  0.531250   0.875000 0
  0.765625   0.781250 0
  0.531250   0.843750 0
  0.781250   1.000000 0
  0.765625   0.546875 0
  0.765625   0.750000 0
  0.531250   0.812500 0
  0.781250   0.953125 0
  0.531250   0.765625 0
  0.515625   0.750000 0
  0.750000   0.984375 0
  0.750000   0.953125 0
  0.796875   0.593750 0
  0.796875   0.562500 0
  0.750000   0.843750 0
  0.750000   0.937500 0
  0.515625   1.000000 0
  0.750000   0.906250 0
  0.515625   0.968750 0
  0.750000   0.671875 0
  0.750000   0.875000 0
  0.515625   0.937500 0
  0.515625   0.921875 0
  0.515625   0.890625 0
  0.750000   0.796875 0
  0.515625   0.859375 0
  0.750000   0.765625 0
  0.515625   0.828125 0
  1.000000   0.718750 0
  0.750000   0.531250 0
  0.750000   0.734375 0
  0.515625   0.796875 0
  0.734375   1.000000 0
  0.734375   0.968750 0
  0.734375   0.937500 0
  0.781250   0.578125 0
  0.781250   0.546875 0
  0.968750   0.578125 0
  0.734375   0.828125 0
  0.968750   0.546875 0
  0.734375   0.796875 0
  0.734375   0.765625 0
  0.968750   0.671875 0
  0.734375   0.734375 0
  0.968750   0.640625 0
  0.734375   0.703125 0
  0.968750   0.609375 0
  0.734375   0.671875 0
  0.734375   0.656250 0
  0.734375   0.625000 0
  0.968750   0.531250 0
  0.734375   0.593750 0
  0.984375   0.734375 0
  0.984375   0.703125 0
  0.734375   0.515625 0
  0.718750   0.984375 0
  0.718750   0.953125 0
  0.718750   0.921875 0
  0.953125   0.562500 0
  0.718750   0.812500 0
  0.953125   0.531250 0
  0.718750   0.781250 0
  0.718750   0.750000 0
  0.953125   0.656250 0
  0.718750   0.718750 0
  0.953125   0.625000 0
  0.718750   0.687500 0
  0.953125   0.593750 0
  0.718750   0.656250 0
  0.671875   1.000000 0
  0.718750   0.640625 0
  0.718750   0.609375 0
  0.953125   0.515625 0
  0.718750   0.578125 0
  0.968750   0.718750 0
  0.968750   0.687500 0
  0.953125   0.671875 0
  0.703125   0.968750 0
  0.703125   0.937500 0
  0.937500   0.656250 0
  0.703125   0.906250 0
  0.937500   0.546875 0
  0.703125   0.796875 0
  0.937500   0.515625 0
  0.703125   0.765625 0
  0.937500   0.671875 0
  0.703125   0.734375 0
  0.937500   0.640625 0
  0.703125   0.703125 0
  0.937500   0.609375 0
  0.703125   0.671875 0
  0.937500   0.578125 0
  0.703125   0.640625 0
  0.656250   0.984375 0
  0.703125   0.625000 0
  0.703125   0.593750 0
  0.718750   0.796875 0
  0.953125   0.734375 0
  0.812500   1.000000 0
  0.859375   0.656250 0
  0.703125   0.781250 0
  0.937500   0.718750 0
  0.953125   0.703125 0
  0.796875   0.984375 0
  0.843750   0.640625 0
  0.812500   0.968750 0
  0.859375   0.625000 0
  0.796875   0.953125 0
  0.843750   0.609375 0
  0.687500   0.953125 0
  0.687500   0.921875 0
  0.687500   0.890625 0
  0.921875   0.734375 0
  0.687500   0.796875 0
  0.687500   0.781250 0
  0.921875   0.703125 0
  0.687500   0.765625 0
  0.687500   0.750000 0
  0.921875   0.656250 0
  0.687500   0.718750 0
  0.921875   0.625000 0
  0.687500   0.687500 0
  0.921875   0.593750 0
  0.687500   0.656250 0
  0.640625   1.000000 0
  0.921875   0.562500 0
  0.687500   0.625000 0
  0.640625   0.968750 0
  0.687500   0.609375 0
  0.687500   0.578125 0
  0.937500   0.687500 0
  0.921875   0.671875 0
  0.671875   0.921875 0
  0.906250   0.656250 0
  0.671875   0.906250 0
  0.671875   0.875000 0
  0.906250   0.718750 0
  0.671875   0.781250 0
  0.671875   0.765625 0
  0.671875   0.734375 0
  0.906250   0.640625 0
  0.671875   0.703125 0
  0.906250   0.609375 0
  0.671875   0.671875 0
  0.906250   0.578125 0
  0.671875   0.640625 0
  0.625000   0.984375 0
  0.671875   0.609375 0
  0.625000   0.953125 0
  0.671875   0.593750 0
  0.671875   0.562500 0
  0.765625   0.953125 0
  0.812500   0.609375 0
  0.656250   1.000000 0
  0.656250   0.953125 0
  0.656250   0.906250 0
  0.890625   0.640625 0
  0.656250   0.890625 0
  0.656250   0.859375 0
  0.890625   0.734375 0
  0.656250   0.796875 0
  0.812500   0.921875 0
  0.562500   1.000000 0
  0.625000   0.828125 0
  0.812500   0.843750 0
  0.843750   0.593750 0
  0.812500   0.812500 0
  0.625000   0.718750 0
  0.828125   0.687500 0
  0.640625   0.593750 0
  0.812500   0.781250 0
  0.625000   0.687500 0
  0.765625   0.828125 0
  0.640625   0.562500 0
  0.812500   0.750000 0
  0.562500   0.828125 0
  0.781250   0.875000 0
  0.546875   0.937500 0
  0.781250   0.671875 0
  0.781250   0.593750 0
  0.546875   0.656250 0
  0.796875   0.750000 0
  0.562500   0.812500 0
  0.796875   0.546875 0
  0.765625   0.796875 0
  0.765625   0.593750 0
  1.000000   0.531250 0
  0.812500   0.718750 0
  0.859375   0.562500 0
  0.625000   0.625000 0
  0.812500   0.703125 0
  0.812500   0.906250 0
  0.578125   0.968750 0
  0.984375   0.593750 0
  0.828125   0.578125 0
  0.828125   0.781250 0
  0.593750   0.843750 0
  0.812500   0.671875 0
  0.625000   0.578125 0
  0.796875   0.671875 0
  0.562500   0.734375 0
  0.984375   0.562500 0
  0.828125   0.546875 0
  0.812500   0.640625 0
  0.750000   0.812500 0
  0.625000   0.546875 0
  0.796875   0.640625 0
  0.562500   0.703125 0
  0.828125   0.515625 0
  0.781250   0.734375 0
  0.546875   0.796875 0
  0.781250   0.531250 0
  0.750000   0.781250 0
  0.625000   0.515625 0
  0.796875   0.609375 0
  0.562500   0.671875 0
  0.765625   0.656250 0
  0.765625   0.859375 0
  0.531250   0.921875 0
  0.812500   0.578125 0
  0.562500   0.656250 0
  0.984375   0.687500 0
  0.750000   0.750000 0
  0.812500   0.562500 0
  0.812500   0.765625 0
  0.578125   0.828125 0
  0.562500   0.625000 0
  0.984375   0.656250 0
  0.750000   0.718750 0
  0.812500   0.531250 0
  0.781250   0.656250 0
  0.546875   0.718750 0
  0.781250   0.625000 0
  0.546875   0.687500 0
  0.750000   0.640625 0
  0.796875   0.531250 0
  0.562500   0.593750 0
  0.984375   0.625000 0
  0.750000   0.687500 0
  0.546875   0.984375 0
  0.609375   0.812500 0
  0.796875   0.875000 0
  0.546875   0.953125 0
  0.609375   0.578125 0
  0.843750   0.515625 0
  0.765625   0.515625 0
  0.765625   0.718750 0
  0.531250   0.781250 0
  0.984375   0.546875 0
  0.750000   0.609375 0
  0.796875   0.828125 0
  0.671875   0.968750 0
  0.796875   0.796875 0
  0.796875   0.765625 0
  0.609375   0.671875 0
  0.796875   0.734375 0
  0.546875   0.812500 0
  0.796875   0.703125 0
  0.843750   0.546875 0
  0.609375   0.609375 0
  0.796875   0.687500 0
  0.562500   0.953125 0
  0.796875   0.656250 0
  0.609375   0.562500 0
  0.796875   0.625000 0
  0.609375   0.531250 0
  0.546875   0.640625 0
  0.765625   0.671875 0
  0.531250   0.734375 0
  0.796875   0.515625 0
  0.765625   0.640625 0
  0.531250   0.703125 0
  0.703125   1.000000 0
  0.765625   0.609375 0
  0.531250   0.671875 0
  0.765625   0.578125 0
  0.531250   0.640625 0
  0.546875   0.609375 0
  0.531250   1.000000 0
  0.890625   0.593750 0
  0.656250   0.656250 0
  0.781250   0.515625 0
  0.546875   0.578125 0
  0.531250   0.968750 0
  0.890625   0.562500 0
  0.656250   0.625000 0
  0.609375   0.968750 0
  0.781250   0.859375 0
  0.656250   0.593750 0
  0.750000   0.703125 0
  0.515625   0.765625 0
  0.781250   0.812500 0
  0.781250   0.781250 0
  0.593750   0.687500 0
  0.781250   0.750000 0
  0.593750   0.656250 0
  0.781250   0.718750 0
  0.531250   0.796875 0
  0.828125   0.562500 0
  0.593750   0.625000 0
  0.781250   0.687500 0
  0.828125   0.531250 0
  0.593750   0.593750 0
  0.812500   0.625000 0
  0.578125   0.687500 0
  0.781250   0.640625 0
  0.781250   0.609375 0
  0.593750   0.515625 0
  0.515625   0.781250 0
  0.812500   0.546875 0
  0.578125   0.609375 0
  0.812500   0.515625 0
  0.578125   0.578125 0
  0.750000   0.656250 0
  0.515625   0.718750 0
  0.750000   0.625000 0
  0.515625   0.687500 0
  0.687500   0.984375 0
  0.750000   0.593750 0
  0.515625   0.656250 0
  0.531250   0.546875 0
  0.750000   0.562500 0
  0.515625   0.625000 0
  0.531250   0.515625 0
  0.984375   0.515625 0
  0.750000   0.578125 0
  0.515625   0.531250 0
  0.828125   0.796875 0
  0.640625   0.703125 0
  0.828125   0.765625 0
[...]
CELL_DATA 7648
SCALARS scalar_value float 1
LOOKUP_TABLE default
0.0330011
0.0325988
0.00321369
0.00257824
0.00258879
0.00222755
0.00977882
0.0109617
0.0116087
0.0116042
0.0221482
0.0277005
0.0353619
0.026779
0.0395696
0.0394976
0.0442403
0.0323531
0.103638
0.104734
0.0952432
0.110848
0.113293
0.119958
0.0785368
0.0754713
0.0741442
0.0710156
0.0694753
0.0664117
0.0651425
0.0625221
0.000266687
0.000285244
0.000376308
0.000216934
0.0508548
0.054084
0.0363524
0.0305685
0.038862
0.0397381
0.0841285
0.081453
0.000432313
0.000605183
0.000565423
0.000849716
0.000764183
0.00122861
0.00116924
0.00191637
0.0017913
0.00272339
0.00273451
0.00364884
0.0896376
0.0981148
0.101406
0.106128
0.110153
0.11772
0.00512861
0.00585705
0.00652339
0.00638747
0.00810468
0.00986997
0.00796187
0.0058486
0.00506315
0.00581093
0.00349191
0.109044
0.132705
0.00290789
0.00209977
0.00211061
0.00165443
0.00427853
0.00355561
0.00261463
0.00359225
0.00768136
0.00582654
0.00570105
0.00489592
0.0263445
0.0262977
0.0297288
0.000816474
0.00109579
0.00141206
0.00128088
0.00189115
0.00206175
0.00270952
0.00166771
0.00334388
0.004433
0.0035385
0.00192769
0.00246793
0.00283935
0.111474
3.83132e-05
4.72015e-05
7.27603e-05
0.00500807
0.00485629
0.00477783
0.00447985
0.000335354
0.000356095
0.00047337
0.000266102
0.000223804
0.000313599
0.000212661
0.0195881
0.0220393
0.0227101
0.0237225
0.0267455
0.0273289
0.0253519
0.0305143
0.00508137
0.00496575
0.00528516
0.00430551
0.00185226
0.0019104
0.00217695
0.0017233
0.00873901
0.00948728
0.0089436
0.010749
0.0462715
0.00399449
0.00393689
0.0130785
0.0150738
0.0165994
0.0188106
0.0209891
0.0177429
0.0890445
0.0929613
0.100356
0.0579364
0.0558148
0.0574342
0.0488059
0.0389784
0.0369722
0.0393145
0.0302921
0.00257458
0.00295589
0.0380162
0.038836
0.0445357
0.0327965
0.128457
0.0286701
0.0295557
0.0340706
0.0253656
0.00857652
0.00718502
0.0065051
0.00718642
0.000372627
0.000397203
0.0101733
0.0106925
0.0125686
0.00916204
0.0131696
0.0112851
0.0117686
0.00956571
0.0627369
0.0635606
0.0693127
0.0610475
0.0587891
0.0587902
0.0639432
0.103137
0.0966263
0.00799443
0.00831346
0.00991113
0.00674851
0.015958
0.014898
0.0147514
0.0131448
0.0048469
0.00574254
0.00651475
0.00609893
0.000301627
0.000321723
0.0075298
0.00801413
0.00934633
0.00712951
0.00834653
0.00970934
0.0108079
0.0105004
0.00757124
0.0088486
0.00998724
0.00939026
0.00656921
0.00873943
0.00878721
0.0102948
0.010705
0.0118603
0.0140668
0.00713664
0.00705049
0.00709526
0.00654785
0.00927144
0.00998272
0.00948354
0.0109455
0.00280704
0.00279165
0.00324689
0.00220702
0.0129664
0.0135959
0.0127657
0.0149971
0.00367239
0.00362088
0.0040749
0.00295087
0.0946274
0.0921466
0.0143294
0.0134465
0.013521
0.0117234
0.0125197
0.0105657
0.00939796
0.010348
0.00813983
0.00685232
0.00727219
0.00125379
0.00131211
0.00154183
0.0011689
0.00154025
0.00184596
0.00236842
0.00187465
0.00126101
0.00143537
0.00160134
0.00153466
0.0143138
0.0163251
0.0181066
0.014031
0.0137095
0.0146607
0.0113095
0.0939633
0.0964103
0.102985
0.0541059
0.0550546
0.0476576
0.0531437
0.0507691
0.0449686
0.0391761
0.0384594
0.031651
0.0294334
0.0274827
0.0271812
0.0243615
0.0619752
0.0616518
0.0217222
0.0201735
0.000120318
0.00163051
0.000257662
0.143985
0.0500772
0.00627915
0.00689883
0.0122758
0.0107897
0.00642158
0.0131837
0.0156752
0.0129285
0.0645063
0.00620498
0.051641
0.00353159
0.00321756
0.00249627
0.00412292
0.00369472
0.0554869
0.141681
0.0220103
0.106902
0.115567
0.0129365
0.0154244
0.00497279
0.114456
0.016486
0.108141
0.0356428
0.0393944
0.00462194
0.0114686
0.0142789
0.00782845
0.0083731
0.00340048
0.00661295
0.0250874
0.0243133
0.0254385
0.124948
0.0254518
0.0206457
0.000508513
0.000335545
0.107479
0.000605484
0.0279703
0.00535222
0.0138194
0.00255517
0.00405437
0.0749063
0.0364881
0.0313389
0.116799
0.100484
0.131462
0.012848
0.0148521
0.0123109
0.110926
0.0207587
0.152212
0.0170101
0.0176575
0.0172775
0.126477
0.0245807
0.0753619
0.0690065
0.00574861
0.000205153
0.0137894
0.028782
0.097598
0.106191
0.0125376
0.111322
0.00854063
0.129599
0.00314758
0.00288419
0.00273155
0.0146399
0.0127937
0.0122992
0.0695317
0.0719277
0.0642254
0.0885124
0.0105658
0.0732758
0.0818822
0.0851679
0.0751759
0.00831026
0.00930025
0.0177374
0.00444657
0.0189945
0.00436228
0.0749095
0.0211353
0.00328985
0.00478441
0.0183243
0.00183605
0.00366907
0.13119
0.0175512
0.100714
0.016937
0.0150696
0.0120864
0.0171044
0.104124
0.000499452
0.00449282
0.0151784
0.104302
0.0425728
0.137118
0.014524
0.0404336
0.0013033
6.24693e-05
4.41805e-05
0.00929261
0.14581
0.0201712
0.00130685
0.00318146
0.00594415
0.0873956
0.00698367
0.00679926
0.00348668
0.0429524
0.00364332
0.0551769
0.0621778
0.0660256
0.00331644
0.0182107
0.0190151
0.0121347
0.0119776
0.010989
0.0197177
0.0181391
0.105419
0.130005
0.00294185
0.00385629
0.018314
0.0160162
0.0137738
0.070843
0.0570119
0.00499818
0.0775613
0.150987
0.0183302
0.00609051
0.0059053
0.0803202
0.00653036
0.00470642
0.00540578
0.0041371
0.00422071
0.0671741
0.00528474
0.00616467
0.06443
0.101059
0.132075
0.00392829
0.023816
0.138077
0.0770434
0.0106161
0.0682493
0.0758057
0.0648973
0.0454032
0.140732
0.140408
0.117214
0.111635
0.150061
0.00513493
0.0173151
0.149311
0.0296004
0.028025
0.0271262
0.145961
0.0075697
0.0039227
0.0179176
0.00758664
0.00996242
0.00785125
0.0799763
0.0721916
0.00684786
0.0515134
0.0843896
0.00559376
0.102243
0.01768
0.0155386
0.10174
0.0173042
0.0246532
0.138634
0.140584
0.0316196
0.105236
0.130092
0.109037
0.00450715
0.00868219
0.0123021
0.000549732
0.0221726
0.00828415
0.0987861
0.0655501
0.0118292
0.00672224
0.0483999
0.0002588
0.114437
0.0411709
0.0643009
0.00370628
0.0718389
0.00438337
0.0638276
0.0718724
0.073651
0.000287157
0.00601087
0.124406
0.00701517
0.00822856
0.000903158
0.000926642
0.149973
0.0537608
0.00719785
0.00630963
0.0143844
0.0177562
0.134402
6.36764e-05
8.76582e-05
0.137987
0.000123332
0.018512
0.127315
0.0189062
0.00787233
0.0994537
0.0116441
0.100484
0.00966287
0.097405
0.0517387
0.0523923
0.00324592
0.0580216
0.00409638
0.0455773
0.00228014
0.0341701
0.0653097
0.0659806
0.0167551
0.000431967
0.000467387
0.000583497
0.025049
0.000408895
0.0208289
0.0105558
0.0127669
0.000626177
0.0253123
0.0395796
0.000609705
0.000545133
0.0248711
0.000699066
0.000733277
0.000242024
2.45378e-05
0.0244486
0.000515222
0.0206606
0.00126396
0.00186707
0.00045109
0.0462036
0.0938727
0.0710023
0.00395798
0.0387718
0.0489451
0.0185622
0.0100375
0.0104712
0.0236376
0.0538819
0.00484575
0.00730018
0.121072
0.0716944
0.130779
0.0180377
0.00331147
0.0393326
0.0881829
0.0116721
0.102065
0.0953635
0.0106447
0.0797944
0.110893
0.0158081
0.137507
0.00693006
0.145737
0.0231578
0.0217006
0.0191868
0.0558612
0.000688814
0.0295363
0.116707
0.0199156
0.112806
0.0209035
0.0179126
0.126911
0.123422
0.0393517
0.0395485
0.0585952
0.0187218
0.0493959
0.00918037
0.071765
0.00921341
0.0985046
0.0724787
0.00821244
0.0669989
0.146424
0.00665138
0.0438308
0.00781756
0.0400105
0.104949
0.0983676
0.02017
0.0103303
0.000336207
0.0184346
0.000457538
0.00702119
0.00783553
0.02896
0.106126
0.0298599
0.0737583
0.0124004
0.120896
0.0661668
0.0138959
0.128085
0.000259441
0.0118076
0.0114812
0.0427062
0.0142833
0.0152205
0.0175464
0.0175462
0.0391504
0.0352445
0.0448896
0.0416581
5.20064e-05
0.0339355
0.0975201
8.05184e-05
0.0479845
0.0100695
0.000170702
0.0794498
0.0771541
0.00329344
0.000723224
0.0466375
0.000248475
0.0467871
0.127663
0.0929748
0.0191135
0.0659061
0.00362981
0.0735433
0.00875294
0.0855902
0.0564822
0.0793986
0.0271112
0.00459617
3.20548e-05
0.0555602
0.0350832
0.0776543
0.000934568
0.0315294
0.136175
0.0406531
0.00348372
0.103107
0.0234183
0.136539
0.00344785
0.0968272
0.0198313
0.0934125
0.090055
0.0158075
0.00348376
0.070966
0.0086236
0.0108049
0.00416344
0.14861
0.0748558
0.00333334
0.00996644
0.061423
0.0185628
0.0146662
0.114273
0.126458
0.0470364
0.0025079
0.0107649
0.00428492
0.0360529
0.0112835
0.00574379
0.0422713
0.000162442
0.00333135
0.0385869
0.00576536
0.0548489
0.00243434
7.68062e-05
0.00754314
0.12335
0.0149009
0.0570312
0.0230081
0.0017706
0.00345855
0.0501778
0.0197002
0.000891422
0.00292969
0.0225784
0.00494154
0.0689838
0.081284
0.00483234
0.0780617
0.00642409
0.00850172
0.0858316
0.00295394
0.0939024
0.00661232
0.00555349
0.0762952
0.00676595
0.0612804
0.0559495
0.00454786
0.00306724
0.00549006
0.07267
0.00565675
0.00225865
0.0120327
0.00927443
0.126194
0.0131423
0.00801619
0.11213
0.0236957
0.0614384
0.0549598
0.139517
0.00951518
0.12499
0.0147806
0.00850763
0.0823351
0.0155286
0.00283686
4.70119e-05
0.144253
0.00491392
0.0685705
0.141174
0.0318786
0.0296732
0.141178
0.14419
0.0933502
0.0506108
0.10267
0.0104107
0.00421225
0.0122143
0.000133374
0.0190861
0.079425
0.0618073
0.0386092
0.083618
0.0513104
0.000820439
0.103404
0.119753
0.0147674
0.033776
0.00171375
0.00396941
0.00400436
0.00121702
0.0176507
0.00374727
0.0468835
0.0938809
0.0480151
0.0489143
0.0100411
0.134064
0.0934443
0.00795363
0.120349
0.130033
0.0728089
0.0166147
0.000660852
0.0853941
0.0019582
0.00120123
0.00369689
0.000126279
0.083241
0.00707278
0.0126943
0.0808102
0.149924
0.00502257
0.00414263
0.145749
0.000623969
0.0888558
0.00122282
0.085665
0.0124756
0.00400382
0.146896
0.0111032
0.134253
0.0116826
0.0915437
0.0151111
0.000245424
0.00376595
0.0525745
0.00417238
0.0154994
0.0803988
0.00077108
0.0109983
0.13168
0.00230677
0.0780542
0.00874172
0.123669
0.121247
0.0380184
0.0167936
0.000238005
0.0173912
0.00887044
0.0471556
0.012209
0.0123812
0.141278
0.127467
0.0936776
0.107879
0.00094889
0.0499096
0.0276618
0.0037338
0.0646369
0.00434166
0.00416773
0.0593459
0.00970748
0.00418313
0.00355261
0.0526095
0.0746276
0.00441272
0.107406
0.0465231
0.133359
0.00372756
0.000407342
0.00127259
0.00028508
0.126782
0.00249134
0.00371763
0.0558272
0.103548
0.0505347
0.133023
0.114844
0.00389767
0.0243153
0.0772906
0.00339857
0.127183
0.087069
0.0103865
0.00668491
0.00322878
0.00157493
0.03986
0.116823
0.0163274
0.013166
0.000157164
0.124371
0.150971
0.0038211
0.00432679
0.0357851
0.0040649
0.0592113
0.0103127
9.98231e-05
0.0606609
0.00390199
0.0633703
0.0853107
0.00356327
0.0844975
0.0136051
0.0078654
0.00368002
0.0481452
0.0806611
0.0223047
0.114088
0.101996
0.00353342
0.0912132
0.0990538
0.023039
0.052238
0.00182685
0.00516579
0.00565655
0.072741
0.00466019
0.0584499
0.0453375
0.0560604
0.12126
0.0136634
0.000995243
0.0154415
0.00749942
0.0356737
0.0227294
0.109678
0.0152524
0.0781263
0.0216852
0.0372464
0.121305
0.0166384
0.00249994
0.022216
0.0280645
0.0840171
0.00325019
0.00987156
0.0742068
0.0382739
0.00585522
0.0180022
0.0540485
0.00202514
0.10609
0.00123364
0.0870703
0.0125557
0.00738058
0.0201267
0.148531
0.143586
0.0979709
0.00972985
0.0317612
0.107008
0.0289985
0.000886318
0.00319208
0.102257
0.00852787
0.00310343
0.0426106
0.109673
0.0221744
0.0946653
0.0947604
0.101655
0.0505788
0.0358583
0.0311842
0.0278638
0.0279441
0.0155553
0.0261487
0.016466
0.0159819
0.0137323
0.109115
0.112425
0.000214594
0.105333
0.0650551
0.00377867
0.0197301
0.00361754
0.0660849
0.0149225
0.00029792
0.0527005
0.0511951
0.0166221
0.058458
0.0202635
0.00155111
0.119451
0.102215
0.0870552
0.0899938
0.0946433
0.0944211
0.00174372
0.040806
0.0953362
0.100986
0.0796463
0.000963373
0.0314748
0.0166874
0.00119709
0.0348995
0.0019441
0.0441472
0.0546
0.00652155
0.00394222
0.00453595
0.11372
0.0973091
0.014271
0.0731625
0.0808311
0.0723059
0.0874377
0.0865448
0.0885149
0.0788152
0.0851139
0.0853461
0.0717545
0.0731224
0.0645441
0.0129117
0.0594841
0.0120587
0.119205
0.0448942
0.153059
0.0120217
0.00260858
0.00948191
0.00506373
0.136572
0.136886
0.0815756
0.0909926
0.0849928
0.0797455
0.00860963
0.0829493
0.00123077
0.00123395
0.00234956
0.00247417
0.0550492
0.0508331
0.118796
0.0470311
0.0775463
0.0721167
0.068542
0.0634278
0.0301196
0.10912
0.0043937
0.00465449
0.00428446
0.0696151
0.00447519
0.00457966
0.000656294
0.0297553
0.0036405
0.000459504
0.0232717
0.142667
0.00182556
0.0405287
0.00247385
0.0456512
0.00125432
0.027847
0.0992032
0.00243779
0.126619
0.00259403
0.0025563
0.00269703
0.119112
0.138441
0.134085
0.00257788
0.00237555
0.13986
0.00270811
0.00204196
0.133686
0.00220212
0.139587
0.00216596
0.140568
0.00210688
0.00419269
0.000177806
0.0195102
0.00436104
0.00425304
0.00386895
0.00244532
8.89391e-05
0.00245194
0.0153939
0.0825295
0.135459
0.089559
0.127176
0.0779831
0.0188269
0.0194386
0.0240543
0.12889
0.0158335
0.013895
0.016613
0.0140817
0.11402
0.11754
0.0614556
0.0326303
0.136512
0.0169299
0.121298
0.086216
0.0632846
0.044679
0.110454
0.0210193
0.0308228
0.00263691
0.00257498
0.00468734
0.0036274
0.0525359
0.00952776
0.000920381
0.0315078
0.1062
0.100553
0.0134321
0.0148717
0.0155629
0.0918475
0.102204
0.150259
0.0749537
0.0495829
0.0490689
0.0142875
0.0137137
0.0149013
0.0174919
0.133696
0.0309528
0.013975
0.0134508
0.125013
0.000341822
0.0733694
0.00364034
0.0827132
0.0343521
0.00105002
0.037477
0.0405997
0.0500463
0.0444012
0.00746149
0.00642062
0.0576707
0.00233256
0.0832174
0.00236767
0.0171608
0.0828343
0.055251
0.0022311
0.117838
0.110877
0.0518813
6.48432e-05
0.0131485
0.0118423
0.0002122
0.0123969
0.0801651
0.0150754
0.10497
0.00150604
0.0152792
0.00891069
0.0112576
0.00987986
0.0774872
0.0350421
0.0741951
0.0814759
0.00625364
0.0059971
0.00547199
0.00435044
0.00742556
0.000229968
0.0491607
0.0450455
0.100642
0.107753
0.096136
0.0893662
0.0125526
0.0897453
0.0142146
0.0920442
0.0142116
0.0953784
0.112878
0.0859672
0.0883064
0.0901169
0.0933414
0.0190783
0.0229604
0.0197961
0.00315654
0.107125
0.110106
0.0195391
0.0994323
0.121738
0.124791
0.149219
0.00336633
0.00426918
0.126409
0.00534531
0.0038607
0.149041
0.014695
0.000130052
9.3405e-05
6.81311e-05
0.0215
0.123609
0.0364338
0.000892075
0.0384763
0.0448037
0.0379946
0.0324155
0.143608
0.03086
0.144614
0.142007
0.0897541
0.00543176
0.00610266
0.15162
0.0460341
0.05173
0.059218
0.000180969
0.0186928
0.0231692
0.0048896
0.00477469
0.00518006
0.0964364
0.103426
0.10256
0.104661
0.00810577
0.0586322
0.0485034
0.0473307
0.0469277
0.0434008
0.0154526
0.146389
0.0917538
0.0951744
0.0982072
0.115742
0.0756522
0.0251697
0.0392714
0.109168
0.107034
0.00281672
0.00272793
0.00285265
0.00298527
0.00384257
0.0042127
0.00365786
0.132014
0.0147693
0.0117691
0.121388
0.0140994
0.0151485
0.132475
0.131432
0.00643623
0.00916865
0.00527837
0.00736634
0.00536694
0.0583107
0.00417849
0.0522094
0.0354565
0.118417
0.0250362
0.0260205
0.0280755
0.147371
0.151171
0.0690104
0.0574681
0.0507333
0.0448925
0.00498903
0.0061017
0.00632412
0.0138312
0.134367
0.072751
0.00789125
0.0663694
0.0654939
0.000246768
0.12149
0.00779577
0.0102229
0.00650001
0.135071
0.10033
0.0352355
0.0053279
0.0557104
0.00315442
0.050602
0.00260697
0.050158
0.061086
0.0613276
0.0591851
0.0544552
0.0674608
0.046586
0.0555607
0.152546
0.0641352
0.0274125
0.0818054
0.0691515
0.0266607
0.128993
0.137003
0.0184796
0.077881
0.0876139
0.0101363
0.0789905
0.0904858
0.0132383
0.0159728
0.0217437
0.152844
0.0793984
0.0869287
0.00578187
0.0810238
0.0789733
0.000202598
0.0366058
0.0942717
0.0337167
0.0360972
0.0154391
0.1231
0.0148333
0.153847
0.00643059
0.00534307
0.000307077
0.0190779
0.000173125
0.000148377
0.000116775
0.0383294
0.0357735
0.0397516
0.114925
0.120047
0.125966
0.130467
0.0878363
0.134329
0.109897
0.117984
0.00382992
0.00444983
0.00447476
0.0049059
0.116374
0.00959624
0.0115157
0.0115251
0.116147
0.0384872
0.039352
0.0378498
0.00291516
0.00229504
0.00324705
0.0034282
0.00347748
0.00369415
0.0160273
0.0366805
0.135939
0.0419834
0.031821
0.104805
0.0373417
0.0977511
0.100962
0.102663
0.020941
0.0254061
0.0224598
0.0227009
0.150959
0.02151
0.0225707
0.0128707
0.0090452
0.0379388
0.0156491
0.0180182
0.0254554
0.00349964
0.0995229
0.0934885
0.0570621
0.129813
0.0280772
0.0506188
0.0425447
0.00580273
0.0631651
0.13277
0.153642
0.123231
0.00377696
0.0236697
0.0225058
0.0241588
0.139909
0.144237
0.0443725
0.0467188
0.0364048
0.066249
0.0357159
0.0402145
0.0293696
0.0374102
0.0200746
0.0242626
0.0782167
0.00581259
0.126907
0.101606
0.00528521
0.00690871
0.00585838
0.00406133
0.00567426
0.122449
0.062473
0.0584581
0.0595372
0.00184722
0.00251844
0.109128
0.107751
0.110878
0.115106
0.00509244
0.00422928
0.0395375
0.0313106
0.0376712
0.0395218
0.00324135
0.00335747
0.00814242
0.00810723
0.00855454
0.00984041
0.112638
0.116246
0.113705
0.108974
0.136793
0.000253118
0.000188785
0.00014295
0.0258407
0.06597
0.0718617
0.0648962
0.05869
9.23596e-05
0.000166579
0.15174
0.0561244
0.0298612
0.00273236
0.00287452
0.0173286
0.0117297
0.0021296
0.0837311
0.142969
0.147392
0.142088
0.118046
0.109307
0.085085
0.08867
0.0317811
0.0217751
0.0290086
0.0479656
0.146064
0.132068
0.0633173
0.0711833
0.0629847
0.0918902
0.00403924
0.0633712
0.0668861
0.00423672
0.00439905
0.121546
0.0178503
0.014261
0.120078
0.00794595
0.00943911
0.00953249
0.0104676
0.0662313
0.0516769
0.0511688
0.0461118
0.00324031
0.00407057
0.00353489
0.00788557
0.0105211
0.032542
0.0712551
0.0711039
0.045754
0.0666284
0.0920395
0.0973878
0.108194
0.0169539
0.142117
0.0195148
0.0235943
0.0251339
0.0680021
0.0638148
0.0040927
0.0709986
0.0871299
0.0107687
0.00834731
0.147061
0.00427938
0.005502
0.0562756
0.0441582
0.140406
0.000169017
0.000213868
0.00016138
0.000125105
0.136185
0.00308724
0.00282959
0.00299129
0.00321205
0.107758
0.00372868
0.0201383
0.0352753
0.0329492
0.0325281
0.0872594
0.0945765
0.100894
0.00775266
0.00866377
0.00627445
0.00343723
0.00391605
0.00372501
0.0321626
0.0352329
0.0313812
0.028587
0.143295
0.0489319
0.0580242
0.00320124
0.0559634
0.0577254
0.00327141
0.00346568
0.00301492
0.0286897
0.030134
0.0376269
0.0975591
0.121777
0.11231
0.00463583
0.00442954
0.0047686
0.0667854
0.0336947
0.030638
0.0353284
0.0358218
0.0692135
0.0261681
0.0300713
0.0349103
0.112879
0.116904
0.0426292
0.040626
0.0429983
0.0798643
0.0740186
0.0661497
0.0986292
0.100458
0.104396
0.126456
0.149283
0.144223
0.0116758
0.00921411
0.000100444
0.112973
0.0071785
0.00554454
0.00482084
0.0410668
0.000108321
0.00552273
0.00667271
0.00432165
0.0873603
0.0287589
0.0810308
0.152681
0.0174447
0.0175355
0.0209019
0.00330189
0.00400571
0.0029494
0.0163772
0.0153787
0.0193606
0.00363538
0.0521356
0.00369742
0.00378651
0.107538
0.00391901
0.00374808
0.00387947
0.126606
0.149
0.0454161
0.0442307
0.106497
0.0560137
0.0669444
0.0700967
0.139952
0.0453477
0.0586085
0.0463605
0.000690833
0.0218367
0.0245461
0.0179274
0.113065
0.136311
0.129278
0.0145261
0.0159754
0.153264
0.152188
0.00101274
0.000930154
0.000794798
0.0353983
0.0309555
0.0207169
0.0242479
0.0273019
0.10107
0.0931602
0.0983164
0.0976665
0.0201155
0.00312378
0.00420706
0.0590594
0.108568
0.0265521
0.0128023
0.00126597
0.00192325
0.000824115
0.017852
0.0209022
0.0169064
0.000277729
0.0151077
0.012624
0.0110347
0.0447581
0.0556171
0.0574351
0.000320102
0.0211536
0.0184828
0.0556426
0.0595235
0.0604218
0.0232634
0.020492
0.0606964
0.0465551
0.055493
0.035326
0.119164
0.115647
0.0166848
0.102211
0.014403
0.0108198
0.119383
0.114174
0.0164825
0.0184492
0.0186632
0.0200678
0.00684768
0.0704412
0.00700807
0.00659292
0.118469
0.00533318
0.00672082
0.07735
0.00576347
0.00599602
0.00650441
0.0484754
0.0517182
0.049306
0.0565484
0.0528063
0.0188104
0.0161183
0.000170438
0.000119701
0.109531
0.121032
0.114006
0.115425
0.110863
0.111758
0.00646353
0.00758828
0.007683
0.00846164
0.000454867
0.000352429
0.0860894
0.0973611
0.0270568
0.0226511
0.0171326
0.019983
0.0451898
0.0513128
0.0457887
0.152819
0.0162265
0.0182623
0.0209331
0.0181029
0.0044928
0.00538994
0.00534782
0.00586846
1.85179e-08
1.78332e-06
4.30323e-06
6.48594e-05
0.000157558
0.000381973
0.000580065
0.00124232
0.00241969
0.00433361
0.0071031
0.00868416
0.000207848
0.000321373
0.000489285
0.000729418
0.00106265
0.00151343
0.00210995
0.00288268
0.00385911
0.00505401
0.00645918
0.00802595
5.55225e-09
3.20964e-08
9.49099e-07
2.55895e-06
5.42977e-06
9.90459e-05
0.000233765
0.000351366
0.000520697
0.000759894
0.00154368
0.00294337
0.00518476
0.00820106
0.000133017
0.000202932
0.000304626
0.000450973
0.000658217
0.000947347
0.00134493
0.00188374
0.00260122
0.00353192