# vtk DataFile Version 2.0
Unstructured Grid by M++
ASCII
DATASET UNSTRUCTURED_GRID
POINTS 4072 float
  0.828125   0.890625 0
  0.875000   0.531250 0
  0.828125   0.750000 0
  0.593750   0.968750 0
  0.828125   0.671875 0
  0.828125   0.875000 0
  0.593750   0.937500 0
  0.828125   0.656250 0
  0.828125   0.640625 0
  0.828125   0.843750 0
  0.593750   0.906250 0
  0.828125   0.625000 0
  0.781250   0.968750 0
  0.828125   0.609375 0
  0.828125   0.812500 0
  0.593750   0.875000 0
  0.593750   0.828125 0
  0.593750   0.796875 0
  0.828125   0.703125 0
  0.593750   0.765625 0
  0.828125   0.937500 0
  0.812500   0.875000 0
  0.859375   0.515625 0
  0.812500   0.734375 0
  0.812500   0.937500 0
  0.578125   1.000000 0
  0.578125   0.750000 0
  0.812500   0.687500 0
  0.578125   0.953125 0
  0.812500   0.656250 0
  0.812500   0.859375 0
  0.578125   0.921875 0
  0.812500   0.828125 0
  0.578125   0.890625 0
  0.812500   0.593750 0
  0.812500   0.796875 0
  0.578125   0.859375 0
  0.578125   0.812500 0
  0.578125   0.781250 0
  0.796875   1.000000 0
  0.796875   0.859375 0
  0.796875   0.718750 0
  0.562500   0.984375 0
  0.562500   0.937500 0
  0.796875   0.843750 0
  0.562500   0.906250 0
  0.796875   0.812500 0
  0.562500   0.875000 0
  0.796875   0.578125 0
  0.796875   0.781250 0
  0.562500   0.843750 0
  0.812500   0.984375 0
  0.562500   0.796875 0
  0.812500   0.953125 0
  0.562500   0.765625 0
  0.796875   0.937500 0
  0.546875   0.750000 0
  0.781250   0.984375 0
  0.828125   0.593750 0
  0.781250   0.843750 0
  0.781250   0.937500 0
  0.546875   1.000000 0
  0.781250   0.703125 0
  0.546875   0.968750 0
  0.546875   0.921875 0
  0.781250   0.828125 0
  0.546875   0.890625 0
  0.781250   0.796875 0
  0.546875   0.859375 0
  0.781250   0.562500 0
  0.781250   0.765625 0
  0.546875   0.828125 0
  0.796875   0.968750 0
  0.546875   0.781250 0
  0.765625   1.000000 0
  0.765625   0.968750 0
  0.531250   0.984375 0
  0.765625   0.687500 0
  0.531250   0.953125 0
  0.531250   0.937500 0
  0.531250   0.906250 0
  0.765625   0.812500 0
  0.531250   0.875000 0
  0.765625   0.781250 0
  0.531250   0.843750 0
  0.781250   1.000000 0
  0.765625   0.546875 0
  0.765625   0.750000 0
  0.531250   0.812500 0
  0.781250   0.953125 0
  0.531250   0.765625 0
  0.515625   0.750000 0
  0.750000   0.984375 0
  0.750000   0.953125 0
  0.796875   0.593750 0
  0.796875   0.562500 0
  0.750000   0.843750 0
  0.750000   0.937500 0
  0.515625   1.000000 0
  0.750000   0.906250 0
  0.515625   0.968750 0
  0.750000   0.671875 0
  0.750000   0.875000 0
  0.515625   0.937500 0
  0.515625   0.921875 0
  0.515625   0.890625 0
  0.750000   0.796875 0
  0.515625   0.859375 0
  0.750000   0.765625 0
  0.515625   0.828125 0
  1.000000   0.718750 0
  0.750000   0.531250 0
  0.750000   0.734375 0
  0.515625   0.796875 0
  0.734375   1.000000 0
  0.734375   0.968750 0
  0.734375   0.937500 0
  0.781250   0.578125 0
  0.781250   0.546875 0
  0.968750   0.578125 0
  0.734375   0.828125 0
  0.968750   0.546875 0
  0.734375   0.796875 0
  0.734375   0.765625 0
  0.968750   0.671875 0
  0.734375   0.734375 0
  0.968750   0.640625 0
  0.734375   0.703125 0
  0.968750   0.609375 0
  0.734375   0.671875 0
  0.734375   0.656250 0
  0.734375   0.625000 0
  0.968750   0.531250 0
  0.734375   0.593750 0
  0.984375   0.734375 0
  0.984375   0.703125 0
  0.734375   0.515625 0
  0.718750   0.984375 0
  0.718750   0.953125 0
  0.718750   0.921875 0
  0.953125   0.562500 0
  0.718750   0.812500 0
  0.953125   0.531250 0
  0.718750   0.781250 0
  0.718750   0.750000 0
  0.953125   0.656250 0
  0.718750   0.718750 0
  0.953125   0.625000 0
  0.718750   0.687500 0
  0.953125   0.593750 0
  0.718750   0.656250 0
  0.671875   1.000000 0
  0.718750   0.640625 0
  0.718750   0.609375 0
  0.953125   0.515625 0
  0.718750   0.578125 0
  0.968750   0.718750 0
  0.968750   0.687500 0
  0.953125   0.671875 0
  0.703125   0.968750 0
  0.703125   0.937500 0
  0.937500   0.656250 0
  0.703125   0.906250 0
  0.937500   0.546875 0
  0.703125   0.796875 0
  0.937500   0.515625 0
  0.703125   0.765625 0
  0.937500   0.671875 0
  0.703125   0.734375 0
  0.937500   0.640625 0
  0.703125   0.703125 0
  0.937500   0.609375 0
  0.703125   0.671875 0
  0.937500   0.578125 0
  0.703125   0.640625 0
  0.656250   0.984375 0
  0.703125   0.625000 0
  0.703125   0.593750 0
  0.718750   0.796875 0
  0.953125   0.734375 0
  0.812500   1.000000 0
  0.859375   0.656250 0
  0.703125   0.781250 0
  0.937500   0.718750 0
  0.953125   0.703125 0
  0.796875   0.984375 0
  0.843750   0.640625 0
  0.812500   0.968750 0
  0.859375   0.625000 0
  0.796875   0.953125 0
  0.843750   0.609375 0
  0.687500   0.953125 0
  0.687500   0.921875 0
  0.687500   0.890625 0
  0.921875   0.734375 0
  0.687500   0.796875 0
  0.687500   0.781250 0
  0.921875   0.703125 0
  0.687500   0.765625 0
  0.687500   0.750000 0
  0.921875   0.656250 0
  0.687500   0.718750 0
  0.921875   0.625000 0
  0.687500   0.687500 0
  0.921875   0.593750 0
  0.687500   0.656250 0
  0.640625   1.000000 0
  0.921875   0.562500 0
  0.687500   0.625000 0
  0.640625   0.968750 0
  0.687500   0.609375 0
  0.687500   0.578125 0
  0.937500   0.687500 0
  0.921875   0.671875 0
  0.671875   0.921875 0
  0.906250   0.656250 0
  0.671875   0.906250 0
  0.671875   0.875000 0
  0.906250   0.718750 0
  0.671875   0.781250 0
  0.671875   0.765625 0
  0.671875   0.734375 0
  0.906250   0.640625 0
  0.671875   0.703125 0
  0.906250   0.609375 0
  0.671875   0.671875 0
  0.906250   0.578125 0
  0.671875   0.640625 0
  0.625000   0.984375 0
  0.671875   0.609375 0
  0.625000   0.953125 0
  0.671875   0.593750 0
  0.671875   0.562500 0
  0.765625   0.953125 0
  0.812500   0.609375 0
  0.656250   1.000000 0
  0.656250   0.953125 0
  0.656250   0.906250 0
  0.890625   0.640625 0
  0.656250   0.890625 0
  0.656250   0.859375 0
  0.890625   0.734375 0
  0.656250   0.796875 0
  0.812500   0.921875 0
  0.562500   1.000000 0
  0.625000   0.828125 0
  0.812500   0.843750 0
  0.843750   0.593750 0
  0.812500   0.812500 0
  0.625000   0.718750 0
  0.828125   0.687500 0
  0.640625   0.593750 0
  0.812500   0.781250 0
  0.625000   0.687500 0
  0.765625   0.828125 0
  0.640625   0.562500 0
  0.812500   0.750000 0
  0.562500   0.828125 0
  0.781250   0.875000 0
  0.546875   0.937500 0
  0.781250   0.671875 0
  0.781250   0.593750 0
  0.546875   0.656250 0
  0.796875   0.750000 0
  0.562500   0.812500 0
  0.796875   0.546875 0
  0.765625   0.796875 0
  0.765625   0.593750 0
  1.000000   0.531250 0
  0.812500   0.718750 0
  0.859375   0.562500 0
  0.625000   0.625000 0
  0.812500   0.703125 0
  0.812500   0.906250 0
  0.578125   0.968750 0
  0.984375   0.593750 0
  0.828125   0.578125 0
  0.828125   0.781250 0
  0.593750   0.843750 0
  0.812500   0.671875 0
  0.625000   0.578125 0
  0.796875   0.671875 0
  0.562500   0.734375 0
  0.984375   0.562500 0
  0.828125   0.546875 0
  0.812500   0.640625 0
  0.750000   0.812500 0
  0.625000   0.546875 0
  0.796875   0.640625 0
  0.562500   0.703125 0
  0.828125   0.515625 0
  0.781250   0.734375 0
  0.546875   0.796875 0
  0.781250   0.531250 0
  0.750000   0.781250 0
  0.625000   0.515625 0
  0.796875   0.609375 0
  0.562500   0.671875 0
  0.765625   0.656250 0
  0.765625   0.859375 0
  0.531250   0.921875 0
  0.812500   0.578125 0
  0.562500   0.656250 0
  0.984375   0.687500 0
  0.750000   0.750000 0
  0.812500   0.562500 0
  0.812500   0.765625 0
  0.578125   0.828125 0
  0.562500   0.625000 0
  0.984375   0.656250 0
  0.750000   0.718750 0
  0.812500   0.531250 0
  0.781250   0.656250 0
  0.546875   0.718750 0
  0.781250   0.625000 0
  0.546875   0.687500 0
  0.750000   0.640625 0
  0.796875   0.531250 0
  0.562500   0.593750 0
  0.984375   0.625000 0
  0.750000   0.687500 0
  0.546875   0.984375 0
  0.609375   0.812500 0
  0.796875   0.875000 0
  0.546875   0.953125 0
  0.609375   0.578125 0
  0.843750   0.515625 0
  0.765625   0.515625 0
  0.765625   0.718750 0
  0.531250   0.781250 0
  0.984375   0.546875 0
  0.750000   0.609375 0
  0.796875   0.828125 0
  0.671875   0.968750 0
  0.796875   0.796875 0
  0.796875   0.765625 0
  0.609375   0.671875 0
  0.796875   0.734375 0
  0.546875   0.812500 0
  0.796875   0.703125 0
  0.843750   0.546875 0
  0.609375   0.609375 0
  0.796875   0.687500 0
  0.562500   0.953125 0
  0.796875   0.656250 0
  0.609375   0.562500 0
  0.796875   0.625000 0
  0.609375   0.531250 0
  0.546875   0.640625 0
  0.765625   0.671875 0
  0.531250   0.734375 0
  0.796875   0.515625 0
  0.765625   0.640625 0
  0.531250   0.703125 0
  0.703125   1.000000 0
  0.765625   0.609375 0
  0.531250   0.671875 0
  0.765625   0.578125 0
  0.531250   0.640625 0
  0.546875   0.609375 0
  0.531250   1.000000 0
  0.890625   0.593750 0
  0.656250   0.656250 0
  0.781250   0.515625 0
  0.546875   0.578125 0
  0.531250   0.968750 0
  0.890625   0.562500 0
  0.656250   0.625000 0
  0.609375   0.968750 0
  0.781250   0.859375 0
  0.656250   0.593750 0
  0.750000   0.703125 0
  0.515625   0.765625 0
  0.781250   0.812500 0
  0.781250   0.781250 0
  0.593750   0.687500 0
  0.781250   0.750000 0
  0.593750   0.656250 0
  0.781250   0.718750 0
  0.531250   0.796875 0
  0.828125   0.562500 0
  0.593750   0.625000 0
  0.781250   0.687500 0
  0.828125   0.531250 0
  0.593750   0.593750 0
  0.812500   0.625000 0
  0.578125   0.687500 0
  0.781250   0.640625 0
  0.781250   0.609375 0
  0.593750   0.515625 0
  0.515625   0.781250 0
  0.812500   0.546875 0
  0.578125   0.609375 0
  0.812500   0.515625 0
  0.578125   0.578125 0
  0.750000   0.656250 0
  0.515625   0.718750 0
  0.750000   0.625000 0
  0.515625   0.687500 0
  0.687500   0.984375 0
  0.750000   0.593750 0
  0.515625   0.656250 0
  0.531250   0.546875 0
  0.750000   0.562500 0
  0.515625   0.625000 0
  0.531250   0.515625 0
  0.984375   0.515625 0
  0.750000   0.578125 0
  0.515625   0.531250 0
  0.828125   0.796875 0
  0.640625   0.703125 0
  0.828125   0.765625 0
[...]
CELL_DATA 7648
SCALARS scalar_value float 1
LOOKUP_TABLE default
0.0297106
0.0291891
0.0033889
0.00272795
0.00272953
0.0023736
0.0120939
0.0135228
0.0143067
0.0142947
0.0261519
0.0324771
0.0412615
0.0313929
0.0460158
0.0458449
0.0511499
0.0376898
0.10494
0.104936
0.0964779
0.111809
0.113481
0.119732
0.0742701
0.0710436
0.0692754
0.0669936
0.0641482
0.0610518
0.0595434
0.0575706
0.000327395
0.000347885
0.000452732
0.000265381
0.0582602
0.0624239
0.0325978
0.027272
0.0444724
0.0453714
0.077272
0.0746278
0.000510286
0.000707947
0.000665155
0.000980476
0.000893822
0.00141845
0.00135519
0.00218755
0.00202749
0.0030664
0.0030883
0.00408312
0.0927646
0.101455
0.103766
0.109299
0.112644
0.11993
0.00603366
0.00684224
0.00759745
0.00740309
0.00934568
0.0112674
0.00909815
0.00670585
0.00578805
0.00663298
0.0039896
0.11114
0.126253
0.00318471
0.00230895
0.00231385
0.00183323
0.00461812
0.00385906
0.00284673
0.00391068
0.00830556
0.00630108
0.00614585
0.0053198
0.0240819
0.0238585
0.0269533
0.00101493
0.00135278
0.00173675
0.00157501
0.00231163
0.00251263
0.0032821
0.00203801
0.00405168
0.00535913
0.00427502
0.00234641
0.00298532
0.00341906
0.111276
4.69875e-05
5.81478e-05
8.88748e-05
0.0049543
0.00479186
0.0046972
0.0044242
0.000396445
0.000418818
0.000550447
0.000314602
0.000264309
0.000365515
0.000250555
0.0237787
0.026649
0.0274406
0.028603
0.0321037
0.0327902
0.0305086
0.0364476
0.00509654
0.00496582
0.00525502
0.00431825
0.00198135
0.0020358
0.0023032
0.00184107
0.0108259
0.0117354
0.0110783
0.0132594
0.0540941
0.00393714
0.00386753
0.014792
0.016939
0.0186495
0.0209932
0.0232199
0.0197314
0.0918395
0.0951837
0.102348
0.0578444
0.055453
0.056728
0.0484262
0.039209
0.037047
0.0391853
0.0304053
0.00313661
0.00356851
0.0437482
0.044597
0.0508292
0.03787
0.12467
0.0332214
0.0341632
0.0391086
0.0294732
0.00752131
0.0062933
0.00566772
0.00633846
0.000434098
0.000460688
0.012299
0.0128869
0.0150578
0.0110643
0.0157282
0.0135122
0.0140464
0.0115168
0.0613012
0.0616961
0.0672356
0.0589646
0.0561168
0.0557282
0.0605606
0.0947097
0.0874954
0.00964084
0.00999544
0.0118532
0.00812659
0.0144854
0.013442
0.0132024
0.0118542
0.00601716
0.00710533
0.00805449
0.00752882
0.000362849
0.000384709
0.00927367
0.00984263
0.0114166
0.00876714
0.0102647
0.0118666
0.0131515
0.0127829
0.00928516
0.0107992
0.0121595
0.0114255
0.00730864
0.00972958
0.00981835
0.0114136
0.0120255
0.0134017
0.0157364
0.00826285
0.00811692
0.00813148
0.00754941
0.0114809
0.0123459
0.0117424
0.013509
0.00299944
0.00297335
0.00343561
0.00235965
0.0159304
0.0166895
0.0156965
0.0183614
0.00384732
0.00377965
0.00422506
0.0030896
0.08704
0.0845555
0.0135088
0.0125752
0.0125844
0.0108552
0.0115664
0.00968826
0.00856673
0.00951333
0.00743755
0.00625739
0.00661349
0.00137174
0.00143021
0.00166776
0.00127816
0.00167695
0.00199455
0.00254787
0.00201894
0.00137246
0.00155121
0.00172565
0.00165089
0.0158182
0.0181012
0.0199476
0.0152462
0.0148485
0.0158229
0.0122323
0.0948402
0.0966098
0.10282
0.0525952
0.053177
0.0463052
0.0507392
0.0478981
0.0427186
0.0378816
0.0367819
0.0304948
0.0264987
0.0246186
0.0242148
0.0218274
0.0644026
0.0637189
0.0255788
0.0238677
0.00015014
0.0018124
0.000320333
0.150888
0.053702
0.0078101
0.00856003
0.0138083
0.0133033
0.00798115
0.0161759
0.0175364
0.0158767
0.0728155
0.00701432
0.058715
0.00401916
0.00365327
0.00285569
0.00378656
0.00341449
0.0509137
0.14157
0.022265
0.110458
0.119361
0.0135311
0.0147603
0.00541991
0.122994
0.0179945
0.11638
0.0421238
0.0463647
0.00511226
0.0141244
0.0174823
0.00965625
0.0103181
0.00419958
0.00820012
0.0235529
0.0225425
0.0244536
0.119361
0.0241847
0.0198207
0.000606103
0.000410453
0.0998873
0.000719681
0.0325302
0.00609028
0.0169403
0.00266329
0.00501442
0.0720444
0.0347322
0.0298585
0.109851
0.0920519
0.140434
0.0135733
0.015703
0.0129478
0.115365
0.0194414
0.155031
0.0182444
0.0188465
0.0183566
0.131636
0.0221834
0.0689612
0.0630372
0.00511662
0.000255074
0.0165145
0.0294454
0.102917
0.111927
0.0133612
0.116161
0.00852708
0.139017
0.00272625
0.00247069
0.00237579
0.0151356
0.0132335
0.0128013
0.0717868
0.0734079
0.0659748
0.088661
0.0109927
0.0739314
0.084779
0.0872203
0.0777978
0.00839146
0.00932351
0.0216099
0.00456059
0.0230911
0.00445653
0.0772043
0.025603
0.00404513
0.00485189
0.0222948
0.00227261
0.00375928
0.127824
0.0163905
0.0935928
0.0155943
0.0139919
0.0128288
0.0161115
0.0974999
0.000578143
0.00556754
0.0144295
0.0987153
0.0463794
0.145463
0.0167817
0.0452042
0.00160739
7.7918e-05
5.48789e-05
0.00937911
0.145166
0.024442
0.001618
0.00324388
0.00596596
0.0885197
0.0070241
0.00676499
0.00347482
0.0503181
0.00359833
0.0542322
0.0654135
0.0689678
0.00343539
0.0180178
0.0188883
0.0108731
0.0106502
0.0097106
0.0217639
0.0198753
0.114771
0.139386
0.0025396
0.00335755
0.0190754
0.0195719
0.0168946
0.0769993
0.0626613
0.00517095
0.0808969
0.152393
0.0199587
0.0064061
0.00618747
0.0846126
0.00680295
0.00493767
0.00571665
0.00436642
0.0044701
0.0718021
0.00656798
0.00763783
0.0706848
0.0917761
0.129451
0.0035525
0.0222537
0.145299
0.0868261
0.0121444
0.0772325
0.0851085
0.0710044
0.0517019
0.145932
0.148033
0.114634
0.109525
0.14742
0.00533372
0.0186431
0.149225
0.0299978
0.0283122
0.0276808
0.147212
0.00881011
0.00359051
0.0208337
0.00797715
0.0104234
0.00970196
0.0875154
0.0790711
0.00748163
0.0548132
0.0860987
0.0056573
0.103173
0.0167402
0.0146475
0.0955785
0.0165961
0.0242281
0.135281
0.137723
0.0307936
0.0960573
0.123385
0.105849
0.00448194
0.0101732
0.0143089
0.000623779
0.024616
0.00866444
0.0899932
0.0665787
0.0130208
0.0073216
0.0475315
0.000325362
0.108921
0.0425371
0.0642635
0.00370287
0.071322
0.00434761
0.0630795
0.0721771
0.0734641
0.000358473
0.00736528
0.121004
0.0085888
0.0100295
0.00101962
0.00103609
0.15413
0.0562212
0.00891834
0.00654539
0.017011
0.017766
0.13298
7.88056e-05
0.00010896
0.135503
0.000152054
0.0199491
0.134113
0.0202765
0.0085393
0.109629
0.0124599
0.106616
0.0102052
0.102392
0.057803
0.0583834
0.00358719
0.0642398
0.00450124
0.051027
0.00252939
0.040327
0.0721756
0.0727246
0.0155583
0.000496805
0.000535281
0.00066231
0.0281488
0.000469926
0.0234987
0.0122846
0.0145984
0.000707903
0.0282992
0.0467187
0.000688441
0.000623439
0.0282391
0.000791748
0.00082746
0.000283783
3.02601e-05
0.0278739
0.000591599
0.0218055
0.00156812
0.00230664
0.000542482
0.045162
0.104745
0.0721239
0.00399671
0.0398912
0.0490481
0.0200732
0.0103913
0.0107713
0.0276614
0.057385
0.00597351
0.00777176
0.127788
0.0656731
0.135175
0.0190314
0.00409793
0.0464201
0.0962105
0.0128079
0.110479
0.103116
0.0125957
0.088079
0.109546
0.0173591
0.145825
0.00857797
0.151912
0.0211962
0.0196038
0.0174957
0.0581676
0.00085995
0.027481
0.110768
0.0190401
0.106224
0.019827
0.0161126
0.121295
0.117357
0.0437361
0.0435277
0.0616245
0.0227481
0.0538986
0.0104039
0.0682008
0.0101009
0.0891665
0.0824821
0.00957324
0.0765162
0.148172
0.00816492
0.0514758
0.00785096
0.0448615
0.0975799
0.0904854
0.0186425
0.011735
0.000389382
0.0209356
0.00052323
0.00842934
0.00781805
0.0346431
0.11686
0.0292668
0.0830937
0.012675
0.122314
0.0700221
0.0140314
0.127862
0.000325688
0.0119256
0.0116683
0.050145
0.0145913
0.0156262
0.0177564
0.0179672
0.0354255
0.0318901
0.0413219
0.0378832
6.38274e-05
0.03132
0.108415
9.79397e-05
0.0447219
0.0102278
0.000208102
0.0756933
0.0830634
0.00304142
0.000810346
0.0460608
0.000310142
0.0466706
0.128716
0.0907878
0.0219353
0.0654533
0.00343799
0.0809583
0.0094265
0.0920295
0.055176
0.0859309
0.0318531
0.00480413
3.96494e-05
0.0644066
0.0393438
0.0812772
0.00105137
0.0355598
0.13215
0.0377015
0.00317005
0.113992
0.0261265
0.141311
0.00319082
0.107637
0.0222365
0.10392
0.100586
0.0178503
0.00326034
0.0696475
0.00989177
0.00947883
0.00367369
0.153682
0.0799139
0.00306908
0.0115385
0.0649199
0.0188621
0.0156493
0.120064
0.133735
0.0550142
0.0026244
0.010808
0.00418823
0.0371819
0.0130653
0.00632255
0.0387069
0.000203368
0.00301813
0.0391516
0.0058559
0.0567809
0.00253095
9.29902e-05
0.00896018
0.118449
0.0174954
0.0587628
0.0277514
0.0021795
0.00350235
0.0542285
0.0238698
0.00110967
0.00299271
0.0262758
0.00528916
0.0743801
0.0760899
0.00515522
0.0727481
0.00583576
0.00912508
0.0920184
0.00267256
0.100903
0.00709572
0.00589367
0.0705882
0.00610548
0.0653268
0.0598235
0.00565757
0.0027921
0.00564157
0.0768744
0.00704038
0.00194384
0.0123801
0.0104655
0.135794
0.0143725
0.00912015
0.10344
0.0273198
0.0663357
0.0593931
0.142222
0.0116575
0.122343
0.0146057
0.0101592
0.0787941
0.0189765
0.00293613
5.74251e-05
0.150522
0.00426952
0.0784136
0.148758
0.0292683
0.0329802
0.14576
0.147095
0.102294
0.058787
0.10718
0.010941
0.00523155
0.0144771
0.000161983
0.0203613
0.0882372
0.0665323
0.0347463
0.0931146
0.0552577
0.000915918
0.0942988
0.117546
0.0143032
0.031398
0.00192212
0.00384942
0.00391571
0.00139664
0.0201561
0.00360615
0.0484176
0.098088
0.051794
0.0499374
0.0106471
0.137083
0.0973203
0.00828251
0.114749
0.137895
0.0767658
0.0202619
0.000756642
0.0893099
0.00212818
0.00133902
0.00395133
0.000158513
0.0884799
0.00750255
0.0149946
0.0889365
0.15009
0.00625254
0.00509849
0.151286
0.000723256
0.0937896
0.00137575
0.0946812
0.0138938
0.00405741
0.152877
0.0130902
0.143066
0.0140859
0.101082
0.0161881
0.000288524
0.00365653
0.0505292
0.00364565
0.0162922
0.084963
0.000864149
0.0118559
0.140119
0.00200617
0.0716107
0.00784444
0.12774
0.129027
0.0348228
0.0197371
0.000285995
0.0203718
0.0105571
0.0551679
0.0106582
0.0140743
0.142492
0.125222
0.103787
0.118296
0.00117827
0.0573279
0.0312387
0.00365631
0.0742296
0.00417908
0.00401822
0.0684952
0.011415
0.00405535
0.00326841
0.0480443
0.0712566
0.004271
0.0987801
0.044705
0.135876
0.00356802
0.000486672
0.00144054
0.000335432
0.135746
0.00277991
0.0033505
0.0507228
0.114422
0.0528794
0.128437
0.118217
0.00374492
0.0232758
0.0752188
0.00316346
0.120023
0.0944269
0.0113102
0.0066935
0.00294443
0.00173003
0.0441604
0.111978
0.0157785
0.0154281
0.000187937
0.133735
0.154936
0.00365548
0.00488903
0.0395905
0.0039015
0.0658459
0.0122936
0.000122001
0.0648885
0.00376939
0.0727673
0.0953379
0.00335842
0.0948432
0.015473
0.00830294
0.00350702
0.0451886
0.0880132
0.0268824
0.106474
0.112
0.00329928
0.101927
0.109636
0.0228007
0.055178
0.00194278
0.00631945
0.00696979
0.0794554
0.00517073
0.0651652
0.0420332
0.0562859
0.115269
0.0121559
0.00110178
0.018065
0.00878904
0.0325024
0.0256732
0.104992
0.0175355
0.0885125
0.0248686
0.0358522
0.131485
0.0192146
0.00214878
0.025223
0.0257877
0.0946595
0.00360288
0.0113538
0.0839452
0.0353086
0.00727887
0.0163251
0.0568907
0.00213912
0.111457
0.00140149
0.0959235
0.013933
0.00733988
0.0195475
0.152895
0.150502
0.089194
0.00844004
0.0289486
0.117821
0.0271788
0.00101104
0.00293073
0.112727
0.00882751
0.00281539
0.0383968
0.120265
0.0245456
0.103391
0.0946059
0.0941284
0.0480464
0.0404559
0.0352886
0.0317164
0.0314283
0.0170331
0.0312834
0.0182043
0.0195049
0.0165081
0.117018
0.123087
0.00026878
0.101144
0.0638787
0.00368276
0.0225353
0.00358626
0.0663731
0.0139693
0.000346745
0.0607258
0.0593218
0.0188727
0.0672096
0.0182077
0.00170916
0.120447
0.0977514
0.083081
0.0862525
0.0904274
0.0932342
0.00194942
0.045981
0.0934629
0.0986725
0.0778611
0.00107349
0.0351044
0.0149267
0.00132248
0.0387365
0.00211934
0.0486217
0.0632601
0.00772762
0.00384133
0.00544866
0.105025
0.0919985
0.0163204
0.0674063
0.0799355
0.0804816
0.0856364
0.085376
0.0876772
0.0775991
0.0830104
0.0826347
0.0699369
0.0721028
0.0741138
0.0127782
0.0685932
0.0120022
0.117781
0.0498787
0.15477
0.0129106
0.0032201
0.0101355
0.00622769
0.140784
0.142976
0.0911565
0.101196
0.0793266
0.0735897
0.0077704
0.0768582
0.0013675
0.00135874
0.00203735
0.00215587
0.0636717
0.059149
0.121433
0.0548684
0.0749278
0.0819867
0.0783266
0.0727352
0.0288938
0.106664
0.00430842
0.00456231
0.00416913
0.0670573
0.00435372
0.00447089
0.000757268
0.028221
0.00371589
0.00053945
0.027001
0.138062
0.00205951
0.0459858
0.00276899
0.0514602
0.0014064
0.0257802
0.0907502
0.0021388
0.136097
0.00228226
0.00225695
0.00240309
0.128828
0.146237
0.14258
0.00223332
0.00203771
0.147633
0.00231639
0.00174801
0.141625
0.00190421
0.14621
0.0018586
0.14776
0.00180972
0.00512287
0.000223621
0.0228564
0.00429449
0.00515581
0.00383179
0.00298681
0.000111331
0.00301486
0.0163491
0.0925788
0.135279
0.0992404
0.125718
0.0869087
0.0184196
0.0188031
0.0232889
0.124065
0.0155392
0.0136073
0.0161211
0.0137285
0.110345
0.109293
0.0589568
0.0361227
0.130759
0.0161661
0.113583
0.0869874
0.0646717
0.0487437
0.101957
0.0246656
0.0353783
0.00272352
0.00318467
0.00473558
0.00404648
0.0589383
0.0117805
0.00104586
0.0358751
0.102697
0.111321
0.0154443
0.0143377
0.0152106
0.0978131
0.10635
0.154663
0.0797758
0.0514718
0.050527
0.0153657
0.0160058
0.0151193
0.0197503
0.142443
0.0346468
0.012221
0.0118764
0.133397
0.000396657
0.0814324
0.00387826
0.0797386
0.0379085
0.00115806
0.0411701
0.044543
0.0544407
0.0481945
0.00840301
0.0072842
0.065228
0.00243625
0.0887205
0.00255501
0.0150842
0.0781235
0.0584874
0.00235135
0.126996
0.12109
0.0603799
7.88222e-05
0.0129563
0.0143165
0.000266322
0.010885
0.0811037
0.0132338
0.0969359
0.00164501
0.0134915
0.00769751
0.00978811
0.00861794
0.0789556
0.0399543
0.0844002
0.0840519
0.00732264
0.00707735
0.00644877
0.00516139
0.00903682
0.000279746
0.0444963
0.0407335
0.0955524
0.102416
0.0882308
0.0828976
0.0115284
0.0825018
0.013005
0.0851224
0.0131058
0.0885599
0.123513
0.0814363
0.0827775
0.0851074
0.0885302
0.0175407
0.0211816
0.0184486
0.00323121
0.116202
0.119799
0.0215306
0.108837
0.131881
0.134675
0.151076
0.00413019
0.0052425
0.132055
0.00660199
0.00478534
0.154114
0.0176177
0.000159656
0.00011464
8.40174e-05
0.0241167
0.133446
0.0428151
0.0010249
0.0444216
0.0516794
0.0439501
0.0377095
0.141883
0.0306737
0.143532
0.141146
0.100544
0.00644269
0.00726034
0.151879
0.0520982
0.0581764
0.0663147
0.0002195
0.0187778
0.0235193
0.00455359
0.00438999
0.00476011
0.0955888
0.10144
0.101304
0.103757
0.00954158
0.0675316
0.0560883
0.0550417
0.0544396
0.0505009
0.0183368
0.146327
0.0857359
0.0893142
0.0918621
0.125235
0.0856598
0.0302434
0.0429973
0.100209
0.0980894
0.00252561
0.00241276
0.00254866
0.00268129
0.0046092
0.00503227
0.00437146
0.138145
0.0148178
0.0117611
0.120357
0.0140834
0.0150317
0.138075
0.138794
0.00688365
0.00976497
0.00589882
0.00826497
0.00601777
0.0654646
0.00470685
0.0589584
0.0396328
0.128586
0.0260671
0.0268271
0.0289752
0.15052
0.151053
0.0784121
0.0653624
0.0578244
0.0514367
0.00453204
0.00549121
0.00564891
0.0164103
0.132175
0.0803067
0.00871326
0.0736946
0.0729155
0.000310685
0.127759
0.00858017
0.0112958
0.00720763
0.136205
0.10679
0.0415811
0.00646507
0.0607409
0.00340242
0.0555347
0.00282982
0.0552099
0.0696534
0.0702392
0.0677098
0.0625439
0.0718814
0.0473415
0.056939
0.152665
0.0648149
0.0313083
0.0922566
0.0710573
0.0307314
0.130495
0.137261
0.019005
0.0881927
0.0947372
0.0110027
0.0857318
0.0873607
0.0120321
0.0146197
0.0197977
0.151697
0.0790774
0.0867291
0.00573853
0.0810466
0.0795578
0.000241755
0.0427585
0.10099
0.0394642
0.042273
0.016042
0.126709
0.015516
0.154095
0.00781374
0.00652006
0.00037871
0.0225591
0.000206077
0.000176829
0.000140023
0.039194
0.0364686
0.0452143
0.122507
0.128242
0.128315
0.134355
0.0985821
0.130674
0.101562
0.128346
0.00330446
0.00379874
0.00384291
0.00422995
0.126391
0.00870817
0.0104356
0.0105121
0.12663
0.045404
0.046038
0.0444296
0.00320229
0.00253812
0.00290948
0.00301038
0.00308726
0.00329132
0.0185897
0.0434553
0.1426
0.0490063
0.037747
0.096438
0.0353062
0.088591
0.0920584
0.0937631
0.0184968
0.0225516
0.0199101
0.0202375
0.153138
0.022012
0.0231781
0.014032
0.00988541
0.0446451
0.0187105
0.0196873
0.030533
0.00298861
0.110407
0.104357
0.0607532
0.13002
0.0312964
0.0589611
0.0500089
0.00695675
0.0715122
0.141763
0.155135
0.132034
0.00364933
0.0237659
0.0225163
0.0239984
0.14316
0.147753
0.0518141
0.0470486
0.0368054
0.075222
0.0406155
0.0454341
0.0290832
0.0371353
0.0189549
0.0229523
0.0800342
0.00497852
0.129719
0.109209
0.00451177
0.00592899
0.00504477
0.00444922
0.00622664
0.114636
0.0569354
0.053281
0.0545719
0.00226863
0.00308993
0.102289
0.101344
0.105073
0.125522
0.00505403
0.00422903
0.0390286
0.0308106
0.0370288
0.0386211
0.00395826
0.00409001
0.0083875
0.00824926
0.00875187
0.0100657
0.105631
0.109533
0.106479
0.119718
0.1336
0.000302522
0.000226385
0.000172791
0.0302617
0.0738245
0.080485
0.0728226
0.0662075
0.000114415
0.000207998
0.154572
0.0610113
0.0355008
0.00280931
0.00296321
0.0210927
0.0144335
0.00223919
0.0943581
0.143272
0.147656
0.143782
0.128264
0.119925
0.088696
0.0933036
0.0368843
0.0226474
0.0300306
0.0498685
0.152249
0.1277
0.0687386
0.0771529
0.0685729
0.0975614
0.00384627
0.0595853
0.0623316
0.00400776
0.00418076
0.117764
0.0196199
0.0157123
0.115577
0.00704606
0.00832789
0.00847004
0.00935954
0.0688556
0.0571714
0.0567651
0.0514873
0.00276261
0.0034666
0.00303977
0.00703827
0.00947225
0.0376936
0.0742798
0.0744167
0.0416018
0.0702475
0.0939118
0.100373
0.115192
0.0183853
0.139912
0.0191691
0.0230972
0.0244324
0.0638422
0.0591815
0.00380691
0.0660289
0.0799022
0.0123998
0.00965903
0.150923
0.00399513
0.00506942
0.0641866
0.0507085
0.139103
0.000208365
0.000264751
0.000199819
0.00015563
0.137789
0.00275423
0.00248631
0.00263981
0.00281032
0.117704
0.00366477
0.0211575
0.0418364
0.0392237
0.038726
0.0954949
0.102589
0.109584
0.00940839
0.0105294
0.00766859
0.00343911
0.00389091
0.00373428
0.0382023
0.041749
0.0373633
0.0341833
0.148989
0.0495038
0.058549
0.00323534
0.0567711
0.0588604
0.00329231
0.00349649
0.00306614
0.0342263
0.0292255
0.0366081
0.107171
0.121961
0.113665
0.00420358
0.00396186
0.00427685
0.0635656
0.0388204
0.0288528
0.0332395
0.033469
0.0744091
0.0303226
0.0346079
0.0399751
0.108498
0.113573
0.0402938
0.037943
0.0403658
0.090338
0.0842027
0.0754467
0.0904495
0.0923113
0.0966284
0.136181
0.152821
0.149235
0.0136418
0.0108786
0.000120957
0.121857
0.00855745
0.00666802
0.00577133
0.0481098
0.000131006
0.00668318
0.00808562
0.00526752
0.098022
0.0287659
0.0913169
0.155122
0.0183155
0.0181798
0.0216586
0.0034074
0.00413746
0.00307678
0.0199921
0.0188086
0.0215189
0.0034115
0.0482192
0.00349719
0.00359854
0.0996604
0.00371359
0.00350077
0.00364065
0.122098
0.150249
0.0439168
0.0422949
0.0979621
0.0528263
0.0641729
0.0800568
0.137925
0.0502346
0.0647182
0.0521301
0.000787837
0.025552
0.028651
0.0211885
0.112089
0.135324
0.128237
0.0173426
0.0190409
0.154132
0.154058
0.00111552
0.00102941
0.000886255
0.0400531
0.0353495
0.0240349
0.0278627
0.0313775
0.0980545
0.0903131
0.0950075
0.0937013
0.0234152
0.00335894
0.00452678
0.0617557
0.115204
0.0310385
0.0154426
0.00144731
0.00218887
0.000958725
0.0212032
0.0246849
0.0201347
0.000347757
0.0180613
0.0152111
0.0133469
0.049142
0.0599138
0.0629503
0.000397118
0.0243551
0.02141
0.0521039
0.0552818
0.0565272
0.0258591
0.0228644
0.069983
0.0477121
0.0643134
0.0362715
0.123936
0.122835
0.0180329
0.109501
0.0160496
0.0121054
0.124598
0.120374
0.0146315
0.0162762
0.0165605
0.0178979
0.00705822
0.0791355
0.0071386
0.00676432
0.111563
0.00545704
0.00681249
0.0830335
0.00576392
0.00596019
0.00645682
0.0442927
0.0469683
0.0453659
0.0522543
0.0491925
0.0221045
0.0190668
0.000202192
0.000144124
0.100813
0.113187
0.105584
0.107174
0.103107
0.104003
0.00559303
0.00653795
0.00665486
0.00736982
0.000550245
0.000433712
0.079539
0.0901105
0.0315382
0.0266098
0.0203096
0.0235645
0.0512633
0.0580857
0.0497949
0.153533
0.017657
0.0198236
0.0231087
0.0200645
0.00397731
0.00470298
0.00470366
0.00518243
2.54169e-08
2.43137e-06
5.85655e-06
8.66358e-05
0.000208103
0.000498668
0.000753074
0.00159569
0.00307534
0.00545022
0.00884659
0.0107719
0.000273579
0.000420634
0.00063688
0.000944328
0.00136841
0.00193853
0.00268813
0.00365282
0.00486398
0.00633702
0.00805952
0.00997071
7.61749e-09
4.39857e-08
1.29476e-06
3.48605e-06
7.38667e-06
0.000131484
0.000307369
0.000459738
0.000677886
0.000984214
0.00197794
0.00372874
0.00649642
0.0101813
0.000175986
0.000267263
0.000399329
0.000588336
0.000854433
0.00122339
0.00172743
0.00240582
0.00330288
0.00445858
0.00588684
0.00755313
0.00940588