# vtk DataFile Version 2.0
Unstructured Grid by M++
ASCII
DATASET UNSTRUCTURED_GRID
POINTS 4072 float
  0.828125   0.890625 0
  0.875000   0.531250 0
  0.828125   0.750000 0
  0.593750   0.968750 0
  0.828125   0.671875 0
  0.828125   0.875000 0
  0.593750   0.937500 0
  0.828125   0.656250 0
  0.828125   0.640625 0
  0.828125   0.843750 0
  0.593750   0.906250 0
  0.828125   0.625000 0
  0.781250   0.968750 0
  0.828125   0.609375 0
  0.828125   0.812500 0
  0.593750   0.875000 0
  0.593750   0.828125 0
  0.593750   0.796875 0
  0.828125   0.703125 0
  0.593750   0.765625 0
  0.828125   0.937500 0
  0.812500   0.875000 0
  0.859375   0.515625 0
  0.812500   0.734375 0
  0.812500   0.937500 0
  0.578125   1.000000 0
  0.578125   0.750000 0
  0.812500   0.687500 0
  0.578125   0.953125 0
  0.812500   0.656250 0
  0.812500   0.859375 0
  0.578125   0.921875 0
  0.812500   0.828125 0
  0.578125   0.890625 0
  0.812500   0.593750 0
  0.812500   0.796875 0
  0.578125   0.859375 0
  0.578125   0.812500 0
  0.578125   0.781250 0
  0.796875   1.000000 0
  0.796875   0.859375 0
  0.796875   0.718750 0
  0.562500   0.984375 0
  0.562500   0.937500 0
  0.796875   0.843750 0
  0.562500   0.906250 0
  0.796875   0.812500 0
  0.562500   0.875000 0
  0.796875   0.578125 0
  0.796875   0.781250 0
  0.562500   0.843750 0
  0.812500   0.984375 0
  0.562500   0.796875 0
  0.812500   0.953125 0
  0.562500   0.765625 0
  0.796875   0.937500 0
  0.546875   0.750000 0
  0.781250   0.984375 0
  0.828125   0.593750 0
  0.781250   0.843750 0
  0.781250   0.937500 0
  0.546875   1.000000 0
  0.781250   0.703125 0
  0.546875   0.968750 0
  0.546875   0.921875 0
  0.781250   0.828125 0
  0.546875   0.890625 0
  0.781250   0.796875 0
  0.546875   0.859375 0
  0.781250   0.562500 0
  0.781250   0.765625 0
  0.546875   0.828125 0
  0.796875   0.968750 0
  0.546875   0.781250 0
  0.765625   1.000000 0
  0.765625   0.968750 0
  0.531250   0.984375 0
  0.765625   0.687500 0
  0.531250   0.953125 0
  0.531250   0.937500 0
  0.531250   0.906250 0
  0.765625   0.812500 0
  0.531250   0.875000 0
  0.765625   0.781250 0
  0.531250   0.843750 0
  0.781250   1.000000 0
  0.765625   0.546875 0
  0.765625   0.750000 0
  0.531250   0.812500 0
  0.781250   0.953125 0
  0.531250   0.765625 0
  0.515625   0.750000 0
  0.750000   0.984375 0
  0.750000   0.953125 0
  0.796875   0.593750 0
  0.796875   0.562500 0
  0.750000   0.843750 0
  0.750000   0.937500 0
  0.515625   1.000000 0
  0.750000   0.906250 0
  0.515625   0.968750 0
  0.750000   0.671875 0
  0.750000   0.875000 0
  0.515625   0.937500 0
  0.515625   0.921875 0
  0.515625   0.890625 0
  0.750000   0.796875 0
  0.515625   0.859375 0
  0.750000   0.765625 0
  0.515625   0.828125 0
  1.000000   0.718750 0
  0.750000   0.531250 0
  0.750000   0.734375 0
  0.515625   0.796875 0
  0.734375   1.000000 0
  0.734375   0.968750 0
  0.734375   0.937500 0
  0.781250   0.578125 0
  0.781250   0.546875 0
  0.968750   0.578125 0
  0.734375   0.828125 0
  0.968750   0.546875 0
  0.734375   0.796875 0
  0.734375   0.765625 0
  0.968750   0.671875 0
  0.734375   0.734375 0
  0.968750   0.640625 0
  0.734375   0.703125 0
  0.968750   0.609375 0
  0.734375   0.671875 0
  0.734375   0.656250 0
  0.734375   0.625000 0
  0.968750   0.531250 0
  0.734375   0.593750 0
  0.984375   0.734375 0
  0.984375   0.703125 0
  0.734375   0.515625 0
  0.718750   0.984375 0
  0.718750   0.953125 0
  0.718750   0.921875 0
  0.953125   0.562500 0
  0.718750   0.812500 0
  0.953125   0.531250 0
  0.718750   0.781250 0
  0.718750   0.750000 0
  0.953125   0.656250 0
  0.718750   0.718750 0
  0.953125   0.625000 0
  0.718750   0.687500 0
  0.953125   0.593750 0
  0.718750   0.656250 0
  0.671875   1.000000 0
  0.718750   0.640625 0
  0.718750   0.609375 0
  0.953125   0.515625 0
  0.718750   0.578125 0
  0.968750   0.718750 0
  0.968750   0.687500 0
  0.953125   0.671875 0
  0.703125   0.968750 0
  0.703125   0.937500 0
  0.937500   0.656250 0
  0.703125   0.906250 0
  0.937500   0.546875 0
  0.703125   0.796875 0
  0.937500   0.515625 0
  0.703125   0.765625 0
  0.937500   0.671875 0
  0.703125   0.734375 0
  0.937500   0.640625 0
  0.703125   0.703125 0
  0.937500   0.609375 0
  0.703125   0.671875 0
  0.937500   0.578125 0
  0.703125   0.640625 0
  0.656250   0.984375 0
  0.703125   0.625000 0
  0.703125   0.593750 0
  0.718750   0.796875 0
  0.953125   0.734375 0
  0.812500   1.000000 0
  0.859375   0.656250 0
  0.703125   0.781250 0
  0.937500   0.718750 0
  0.953125   0.703125 0
  0.796875   0.984375 0
  0.843750   0.640625 0
  0.812500   0.968750 0
  0.859375   0.625000 0
  0.796875   0.953125 0
  0.843750   0.609375 0
  0.687500   0.953125 0
  0.687500   0.921875 0
  0.687500   0.890625 0
  0.921875   0.734375 0
  0.687500   0.796875 0
  0.687500   0.781250 0
  0.921875   0.703125 0
  0.687500   0.765625 0
  0.687500   0.750000 0
  0.921875   0.656250 0
  0.687500   0.718750 0
  0.921875   0.625000 0
  0.687500   0.687500 0
  0.921875   0.593750 0
  0.687500   0.656250 0
  0.640625   1.000000 0
  0.921875   0.562500 0
  0.687500   0.625000 0
  0.640625   0.968750 0
  0.687500   0.609375 0
  0.687500   0.578125 0
  0.937500   0.687500 0
  0.921875   0.671875 0
  0.671875   0.921875 0
  0.906250   0.656250 0
  0.671875   0.906250 0
  0.671875   0.875000 0
  0.906250   0.718750 0
  0.671875   0.781250 0
  0.671875   0.765625 0
  0.671875   0.734375 0
  0.906250   0.640625 0
  0.671875   0.703125 0
  0.906250   0.609375 0
  0.671875   0.671875 0
  0.906250   0.578125 0
  0.671875   0.640625 0
  0.625000   0.984375 0
  0.671875   0.609375 0
  0.625000   0.953125 0
  0.671875   0.593750 0
  0.671875   0.562500 0
  0.765625   0.953125 0
  0.812500   0.609375 0
  0.656250   1.000000 0
  0.656250   0.953125 0
  0.656250   0.906250 0
  0.890625   0.640625 0
  0.656250   0.890625 0
  0.656250   0.859375 0
  0.890625   0.734375 0
  0.656250   0.796875 0
  0.812500   0.921875 0
  0.562500   1.000000 0
  0.625000   0.828125 0
  0.812500   0.843750 0
  0.843750   0.593750 0
  0.812500   0.812500 0
  0.625000   0.718750 0
  0.828125   0.687500 0
  0.640625   0.593750 0
  0.812500   0.781250 0
  0.625000   0.687500 0
  0.765625   0.828125 0
  0.640625   0.562500 0
  0.812500   0.750000 0
  0.562500   0.828125 0
  0.781250   0.875000 0
  0.546875   0.937500 0
  0.781250   0.671875 0
  0.781250   0.593750 0
  0.546875   0.656250 0
  0.796875   0.750000 0
  0.562500   0.812500 0
  0.796875   0.546875 0
  0.765625   0.796875 0
  0.765625   0.593750 0
  1.000000   0.531250 0
  0.812500   0.718750 0
  0.859375   0.562500 0
  0.625000   0.625000 0
  0.812500   0.703125 0
  0.812500   0.906250 0
  0.578125   0.968750 0
  0.984375   0.593750 0
  0.828125   0.578125 0
  0.828125   0.781250 0
  0.593750   0.843750 0
  0.812500   0.671875 0
  0.625000   0.578125 0
  0.796875   0.671875 0
  0.562500   0.734375 0
  0.984375   0.562500 0
  0.828125   0.546875 0
  0.812500   0.640625 0
  0.750000   0.812500 0
  0.625000   0.546875 0
  0.796875   0.640625 0
  0.562500   0.703125 0
  0.828125   0.515625 0
  0.781250   0.734375 0
  0.546875   0.796875 0
  0.781250   0.531250 0
  0.750000   0.781250 0
  0.625000   0.515625 0
  0.796875   0.609375 0
  0.562500   0.671875 0
  0.765625   0.656250 0
  0.765625   0.859375 0
  0.531250   0.921875 0
  0.812500   0.578125 0
  0.562500   0.656250 0
  0.984375   0.687500 0
  0.750000   0.750000 0
  0.812500   0.562500 0
  0.812500   0.765625 0
  0.578125   0.828125 0
  0.562500   0.625000 0
  0.984375   0.656250 0
  0.750000   0.718750 0
  0.812500   0.531250 0
  0.781250   0.656250 0
  0.546875   0.718750 0
  0.781250   0.625000 0
  0.546875   0.687500 0
  0.750000   0.640625 0
  0.796875   0.531250 0
  0.562500   0.593750 0
  0.984375   0.625000 0
  0.750000   0.687500 0
  0.546875   0.984375 0
  0.609375   0.812500 0
  0.796875   0.875000 0
  0.546875   0.953125 0
  0.609375   0.578125 0
  0.843750   0.515625 0
  0.765625   0.515625 0
  0.765625   0.718750 0
  0.531250   0.781250 0
  0.984375   0.546875 0
  0.750000   0.609375 0
  0.796875   0.828125 0
  0.671875   0.968750 0
  0.796875   0.796875 0
  0.796875   0.765625 0
  0.609375   0.671875 0
  0.796875   0.734375 0
  0.546875   0.812500 0
  0.796875   0.703125 0
  0.843750   0.546875 0
  0.609375   0.609375 0
  0.796875   0.687500 0
  0.562500   0.953125 0
  0.796875   0.656250 0
  0.609375   0.562500 0
  0.796875   0.625000 0
  0.609375   0.531250 0
  0.546875   0.640625 0
  0.765625   0.671875 0
  0.531250   0.734375 0
  0.796875   0.515625 0
  0.765625   0.640625 0
  0.531250   0.703125 0
  0.703125   1.000000 0
  0.765625   0.609375 0
  0.531250   0.671875 0
  0.765625   0.578125 0
  0.531250   0.640625 0
  0.546875   0.609375 0
  0.531250   1.000000 0
  0.890625   0.593750 0
  0.656250   0.656250 0
  0.781250   0.515625 0
  0.546875   0.578125 0
  0.531250   0.968750 0
  0.890625   0.562500 0
  0.656250   0.625000 0
  0.609375   0.968750 0
  0.781250   0.859375 0
  0.656250   0.593750 0
  0.750000   0.703125 0
  0.515625   0.765625 0
  0.781250   0.812500 0
  0.781250   0.781250 0
  0.593750   0.687500 0
  0.781250   0.750000 0
  0.593750   0.656250 0
  0.781250   0.718750 0
  0.531250   0.796875 0
  0.828125   0.562500 0
  0.593750   0.625000 0
  0.781250   0.687500 0
  0.828125   0.531250 0
  0.593750   0.593750 0
  0.812500   0.625000 0
  0.578125   0.687500 0
  0.781250   0.640625 0
  0.781250   0.609375 0
  0.593750   0.515625 0
  0.515625   0.781250 0
  0.812500   0.546875 0
  0.578125   0.609375 0
  0.812500   0.515625 0
  0.578125   0.578125 0
  0.750000   0.656250 0
  0.515625   0.718750 0
  0.750000   0.625000 0
  0.515625   0.687500 0
  0.687500   0.984375 0
  0.750000   0.593750 0
  0.515625   0.656250 0
  0.531250   0.546875 0
  0.750000   0.562500 0
  0.515625   0.625000 0
  0.531250   0.515625 0
  0.984375   0.515625 0
  0.750000   0.578125 0
  0.515625   0.531250 0
  0.828125   0.796875 0
  0.640625   0.703125 0
  0.828125   0.765625 0
[...]
CELL_DATA 7648
SCALARS scalar_value float 1
LOOKUP_TABLE default
0.00647995
0.00601338
0.00377723
0.00315646
0.00304899
0.00295064
0.0561161
0.0611207
0.0639751
0.0636542
0.0812305
0.0935499
0.111754
0.0907327
0.120071
0.117888
0.126088
0.101846
0.0731914
0.0659911
0.0678005
0.0747182
0.0707214
0.0715802
0.026562
0.0242698
0.0219865
0.0233601
0.0180751
0.0164454
0.0151129
0.0157651
0.00148311
0.00150156
0.00177283
0.00116239
0.131594
0.148764
0.00679564
0.00541661
0.102643
0.102476
0.0205194
0.0193183
0.00170306
0.00220624
0.002178
0.0027022
0.00279173
0.00388945
0.00385282
0.00529956
0.00457496
0.00645369
0.00667675
0.00800629
0.080357
0.0868726
0.080221
0.089531
0.0859871
0.0876496
0.0184326
0.0196024
0.0210977
0.0197227
0.0235873
0.0258067
0.0211253
0.0161723
0.0136147
0.0153373
0.00944066
0.0822464
0.0459139
0.00516337
0.00394012
0.00383193
0.0033919
0.00639168
0.00568282
0.00437704
0.00592706
0.0113782
0.00875446
0.00828974
0.00780052
0.0061881
0.00568295
0.00634127
0.00511683
0.00640113
0.00791992
0.00718432
0.00992756
0.0104988
0.0129318
0.00876849
0.0159098
0.0205071
0.0163486
0.00973346
0.0116791
0.0128437
0.0671397
0.000203381
0.000262855
0.000373684
0.00288378
0.00271614
0.00256255
0.00253442
0.00132197
0.00133499
0.00160058
0.00103249
0.000844467
0.001047
0.000774061
0.091272
0.0983784
0.100516
0.102762
0.110395
0.112153
0.107397
0.119326
0.0034281
0.00324029
0.00322458
0.00291131
0.0025561
0.00252674
0.00266226
0.00233751
0.0511416
0.0545819
0.0522708
0.0599211
0.144792
0.002212
0.00209846
0.0308673
0.0331384
0.0362961
0.0381687
0.0385488
0.0347305
0.0769912
0.0743048
0.0766348
0.0350902
0.0320327
0.030926
0.0276132
0.025728
0.0234255
0.023459
0.019713
0.0129927
0.0136423
0.105937
0.105963
0.113343
0.0954952
0.0555291
0.0867186
0.0870284
0.0931788
0.0786889
0.00134449
0.00111719
0.000956758
0.00120718
0.00126149
0.00128394
0.0470238
0.0478708
0.0530508
0.0417648
0.0537826
0.0471636
0.0475773
0.042254
0.0300836
0.0283765
0.0307823
0.0258128
0.0218646
0.0202837
0.0218946
0.0250599
0.0199861
0.0358796
0.0361662
0.040834
0.0298569
0.00357694
0.00313597
0.0028383
0.00277037
0.0294566
0.0336406
0.0377692
0.0348782
0.00140474
0.00141882
0.0419752
0.0434659
0.0481175
0.0391691
0.0458469
0.0503435
0.0539066
0.0524457
0.0404663
0.0450763
0.0497807
0.0463872
0.0132535
0.0176037
0.0183909
0.01975
0.0236193
0.0277843
0.0295314
0.0217214
0.020264
0.0194507
0.0191469
0.0539768
0.0572517
0.0551258
0.061321
0.00382321
0.00367046
0.00395918
0.00303533
0.0690165
0.0716323
0.0685368
0.076728
0.00400577
0.0037998
0.00396425
0.00321462
0.023272
0.0220712
0.00487889
0.00421486
0.00402038
0.00331473
0.00344517
0.00268937
0.00224811
0.00271235
0.00200631
0.0016926
0.00171051
0.00221014
0.00221822
0.00240288
0.00203407
0.00258933
0.00285526
0.00348569
0.00279469
0.00208688
0.00220423
0.00239308
0.00224143
0.0262946
0.0310096
0.031924
0.0214456
0.0202424
0.020798
0.0165566
0.0643597
0.0610616
0.0625097
0.0244817
0.0232487
0.021452
0.0197849
0.0166099
0.0158472
0.0167817
0.0146174
0.0131227
0.00580423
0.00513223
0.00476287
0.00459047
0.0580444
0.054451
0.0779828
0.0760357
0.000765448
0.00345985
0.00159267
0.139017
0.0655033
0.038563
0.0412677
0.0273993
0.0598542
0.0391175
0.069217
0.0328386
0.0685092
0.142089
0.0147926
0.124815
0.00918193
0.00820911
0.00693813
0.00109841
0.0010331
0.0134384
0.0831787
0.0157669
0.0932818
0.0995066
0.013231
0.00611825
0.00817845
0.146444
0.026336
0.14166
0.126002
0.13299
0.00890251
0.0627849
0.0732119
0.0442267
0.0468256
0.0196356
0.0393877
0.00791813
0.0067043
0.0103827
0.0455579
0.00915496
0.0083817
0.0022221
0.0018236
0.0295275
0.00259053
0.0880265
0.0137048
0.0717778
0.00265011
0.023753
0.0303883
0.0131879
0.0115024
0.0364919
0.0236859
0.155627
0.0145836
0.0169542
0.0133478
0.103083
0.00644474
0.108802
0.0225036
0.0222121
0.0207343
0.1161
0.00502371
0.0176681
0.0158856
0.00107994
0.0012657
0.058295
0.0231347
0.105981
0.113679
0.0156091
0.106985
0.00537356
0.160343
0.000444011
0.000357927
0.000400068
0.0132501
0.0116546
0.0119601
0.0607437
0.0554824
0.0530966
0.0558904
0.0102716
0.0499268
0.0738621
0.0682953
0.0674264
0.00593895
0.00611471
0.0859196
0.00384022
0.0898278
0.00361245
0.0642635
0.0961665
0.0181436
0.0036503
0.0874921
0.010923
0.00314745
0.0590345
0.00533495
0.0277221
0.00442363
0.00434357
0.0144377
0.00571076
0.0311098
0.00161109
0.0268453
0.00562849
0.0351287
0.0655151
0.150729
0.0421054
0.0828154
0.00751861
0.000395452
0.000267808
0.00658201
0.0817001
0.092369
0.00783523
0.00258816
0.00402331
0.0622229
0.00481089
0.00414779
0.00219232
0.138097
0.00206593
0.0281587
0.0664048
0.0653702
0.00320961
0.01029
0.0112092
0.00238956
0.0021661
0.00185991
0.0354037
0.0301388
0.154929
0.160172
0.000398805
0.000576181
0.0179417
0.0802246
0.0719715
0.107325
0.0975835
0.00471508
0.075671
0.097993
0.0284322
0.00679136
0.00632997
0.0871532
0.00655563
0.00516539
0.00641868
0.00486634
0.00514834
0.0851977
0.03239
0.0365158
0.107978
0.0213627
0.0634436
0.000887608
0.0071561
0.139583
0.163565
0.0282886
0.152694
0.155679
0.105662
0.112963
0.122303
0.144683
0.0560973
0.0556752
0.0720711
0.00504938
0.0238452
0.0869118
0.0214265
0.0196371
0.0212469
0.0944283
0.0241479
0.00100403
0.0552436
0.0083481
0.0102918
0.0450658
0.1284
0.118211
0.0113885
0.0621967
0.0649692
0.00412453
0.069635
0.00622829
0.00526163
0.0316243
0.00699478
0.0128288
0.0626415
0.0661896
0.0147467
0.0234342
0.043867
0.0484953
0.00276123
0.0292723
0.0382173
0.0013971
0.0422181
0.00858701
0.0219497
0.0479345
0.0209153
0.0108245
0.0244739
0.001772
0.0405687
0.0363712
0.0394241
0.00239848
0.0410612
0.002607
0.0346365
0.0465231
0.0443197
0.00183981
0.0318428
0.0554912
0.0368427
0.0412986
0.00226746
0.00208031
0.118024
0.0540059
0.042434
0.00606706
0.052921
0.0113343
0.0714965
0.000372419
0.000536328
0.0670613
0.000700131
0.0257018
0.131647
0.0249912
0.0120542
0.16596
0.0151782
0.115761
0.0110313
0.102419
0.105609
0.104036
0.00630511
0.107388
0.00741026
0.0951606
0.00468412
0.120067
0.11788
0.11587
0.00480211
0.00126962
0.00131345
0.00150679
0.0540613
0.00117686
0.0470857
0.0331363
0.0336315
0.00154778
0.0517331
0.136473
0.00147358
0.00153693
0.0597917
0.00179375
0.00180613
0.000840865
0.000137474
0.0613799
0.00151729
0.0233094
0.00774093
0.0108925
0.0021346
0.0222041
0.177671
0.0520318
0.00288983
0.0327531
0.0308595
0.0267357
0.00927738
0.00904176
0.0793311
0.0655508
0.0273767
0.00918094
0.128759
0.0170364
0.11133
0.0201818
0.0195429
0.135613
0.135838
0.0199575
0.142629
0.133295
0.0393027
0.139147
0.0596519
0.027009
0.150657
0.040543
0.133042
0.00555724
0.00451945
0.00446924
0.0535243
0.00450724
0.00838307
0.0399556
0.00773806
0.0355686
0.0074422
0.00360092
0.0466643
0.0430162
0.0754778
0.0680854
0.0624027
0.0882323
0.077836
0.0222813
0.0255585
0.0157188
0.020119
0.16965
0.02647
0.163473
0.0981857
0.0359046
0.143201
0.00527249
0.0846189
0.0289611
0.0241518
0.00543363
0.0256522
0.00103996
0.0447437
0.00125306
0.0301109
0.00491036
0.115332
0.174014
0.0149705
0.156874
0.00997998
0.0833707
0.0753271
0.00981281
0.0758098
0.00174936
0.00837784
0.00870898
0.139925
0.0114078
0.0128055
0.0126612
0.0143634
0.00811012
0.00731356
0.0112415
0.00912246
0.000278981
0.00877334
0.177215
0.000396842
0.0137525
0.00761812
0.000879365
0.0291167
0.105443
0.000891333
0.00162003
0.0250937
0.00158855
0.0280657
0.0841844
0.0444964
0.0514682
0.0377429
0.00128511
0.126301
0.0123548
0.114672
0.0269716
0.11434
0.0933625
0.00485269
0.000185667
0.158056
0.0740647
0.0786687
0.00225612
0.0706589
0.0580865
0.0110426
0.000828527
0.17656
0.0469009
0.11691
0.000963192
0.175869
0.0421745
0.171543
0.172561
0.0364765
0.00108511
0.0357817
0.0237584
0.0016848
0.000720781
0.124838
0.0936996
0.000879832
0.029871
0.0689185
0.0139941
0.0184271
0.11725
0.136118
0.147333
0.00271795
0.00717423
0.00215366
0.0313222
0.0336824
0.0104178
0.00999026
0.00106699
0.000753303
0.0280005
0.00444854
0.049343
0.00245301
0.000359673
0.0290775
0.0476828
0.0508083
0.0487204
0.100272
0.00996667
0.00260791
0.0711523
0.0904053
0.00566868
0.00243128
0.0708097
0.00670287
0.0960721
0.0246016
0.00633383
0.0224979
0.0015052
0.011588
0.11157
0.000644112
0.123763
0.00909404
0.00683955
0.0202977
0.00146742
0.0753432
0.0709214
0.0282533
0.000713989
0.00480378
0.0824928
0.0350697
0.000289808
0.0103776
0.0215163
0.162179
0.0215813
0.0203189
0.0280982
0.0670714
0.0867744
0.0781409
0.101849
0.0504768
0.0597817
0.00826518
0.0345067
0.0316882
0.0779033
0.00272332
0.000239777
0.133214
0.000709679
0.168795
0.14451
0.00779602
0.056729
0.117313
0.105541
0.14861
0.148378
0.10003
0.0112535
0.0257868
0.0458971
0.000657195
0.0239356
0.147093
0.0844631
0.00751625
0.157154
0.0700784
0.0017841
0.0229479
0.0595113
0.00665691
0.00944706
0.00399534
0.00182583
0.00202416
0.00363322
0.0453161
0.00157926
0.0411373
0.0929193
0.0666847
0.0378044
0.0119429
0.101728
0.0894389
0.00788634
0.0431712
0.1432
0.0797388
0.081494
0.00191871
0.0857325
0.00323427
0.00263129
0.005003
0.000852663
0.0992103
0.00857142
0.0460303
0.136817
0.0889226
0.031327
0.023028
0.12741
0.00206832
0.0981422
0.00296836
0.14965
0.0250133
0.00304142
0.13187
0.0394894
0.154992
0.0527343
0.156997
0.0197838
0.000884333
0.0017554
0.0210249
0.000647617
0.0166583
0.0902294
0.00175003
0.0155456
0.149794
0.000330803
0.018849
0.00176421
0.105525
0.139737
0.00902328
0.0580253
0.00108371
0.0580086
0.0347675
0.147914
0.00178193
0.0308143
0.0919186
0.0632816
0.165331
0.169423
0.00588009
0.132477
0.0628048
0.00191885
0.166402
0.00185639
0.00180297
0.161327
0.033727
0.0019181
0.000943513
0.0120752
0.0279932
0.00199335
0.0263051
0.0185666
0.0975657
0.00148066
0.00180325
0.0032969
0.00105435
0.154172
0.00541599
0.000807166
0.0120844
0.17656
0.0511996
0.0539516
0.0955716
0.0016181
0.009496
0.0356399
0.000998585
0.0406016
0.126816
0.0164057
0.00438709
0.000773393
0.00293239
0.0738327
0.0446722
0.00716848
0.0439744
0.000664568
0.158224
0.116981
0.00151172
0.0103892
0.0651036
0.00167507
0.114557
0.0410874
0.00051895
0.0773939
0.00171804
0.163445
0.16534
0.0011956
0.170878
0.0339056
0.00901079
0.00139186
0.014889
0.125822
0.0970392
0.0329692
0.163492
0.00108034
0.175327
0.17203
0.0129726
0.0584418
0.00235658
0.0269166
0.0317684
0.115789
0.00926829
0.116126
0.0122695
0.0360896
0.0420504
0.00246844
0.00198851
0.050709
0.0254918
0.00799355
0.0518554
0.0417104
0.042047
0.173994
0.0578861
0.015199
0.167873
0.0478287
0.000319717
0.0534682
0.00696101
0.176364
0.00651534
0.0278104
0.163894
0.00982239
0.0358558
0.00395992
0.058178
0.00242776
0.109898
0.00332068
0.147232
0.0242142
0.00446171
0.009273
0.118987
0.138946
0.0215832
0.00133649
0.00716918
0.175276
0.00892168
0.00249594
0.000811739
0.170161
0.00791915
0.000701583
0.0084026
0.171992
0.0408774
0.145738
0.0576733
0.0268374
0.0178172
0.0809392
0.0724757
0.0688499
0.0607375
0.0257758
0.105651
0.0302784
0.0791166
0.0607823
0.137969
0.173306
0.00141555
0.0416552
0.0329236
0.00183918
0.0505954
0.00214155
0.042774
0.00470239
0.00096729
0.143128
0.146738
0.040415
0.153909
0.00398966
0.00299029
0.0795873
0.0387385
0.0324945
0.0351786
0.0356878
0.0509999
0.00392759
0.0912468
0.0476201
0.0485183
0.0385886
0.00208055
0.0625094
0.00316339
0.00236312
0.0658059
0.00332248
0.0768321
0.155107
0.0246585
0.00191374
0.0197101
0.0286083
0.0325999
0.0374649
0.0185693
0.0443862
0.138085
0.043263
0.046298
0.0495118
0.0412333
0.0402208
0.0372848
0.033585
0.0388319
0.166023
0.00734715
0.160452
0.00730208
0.0637304
0.0860987
0.101099
0.0162728
0.0150243
0.0123145
0.0279048
0.112279
0.12851
0.158876
0.167115
0.024863
0.0205791
0.00185129
0.0223937
0.0025995
0.00234654
0.00032777
0.000365273
0.153973
0.151116
0.0915355
0.144407
0.033093
0.167334
0.167705
0.161638
0.0119303
0.0523617
0.00229086
0.0024132
0.00204772
0.0286678
0.00213337
0.00226873
0.00207536
0.0104111
0.00299592
0.00171718
0.0706225
0.0588402
0.00450718
0.0978229
0.00555307
0.102671
0.00293393
0.00750039
0.0229703
0.000384138
0.160122
0.000424212
0.000431439
0.000500866
0.161403
0.145435
0.151174
0.000360057
0.000295551
0.145789
0.000329353
0.00024435
0.14516
0.000295996
0.134467
0.000267863
0.140268
0.000262578
0.0216117
0.00122381
0.0654546
0.00238718
0.0202375
0.00226481
0.0126689
0.000583933
0.0135749
0.0184046
0.166408
0.0797441
0.159264
0.067684
0.149057
0.00940976
0.00858066
0.0106376
0.0507694
0.00821482
0.00705357
0.0076235
0.00681092
0.0487353
0.0320535
0.0241499
0.0597034
0.0508415
0.00653647
0.0358811
0.0588554
0.0494438
0.0700095
0.0280727
0.0722655
0.0839247
0.00247176
0.0151296
0.003433
0.00771374
0.111869
0.0545674
0.00248681
0.078406
0.0453605
0.174766
0.0372411
0.00638191
0.00772281
0.110918
0.0963368
0.120069
0.0908157
0.0460337
0.0416686
0.0195283
0.0439733
0.0110713
0.0401512
0.15426
0.0639231
0.00205959
0.0022304
0.147265
0.00109016
0.136194
0.00475978
0.0344604
0.0606921
0.00201149
0.0630573
0.0674961
0.0762435
0.0657281
0.0170284
0.015871
0.131201
0.00247221
0.102359
0.00360633
0.00264521
0.0271967
0.0630918
0.00261312
0.154388
0.16676
0.153918
0.00031584
0.00713836
0.0551918
0.0014281
0.00193648
0.0563457
0.00231305
0.0270007
0.00262662
0.00251107
0.00117065
0.00157408
0.00144833
0.0587969
0.0889787
0.172581
0.0706632
0.0213008
0.0219376
0.0198795
0.0169738
0.0366365
0.0011732
0.0101896
0.00924553
0.0352501
0.0379273
0.023007
0.0243452
0.00323668
0.022015
0.00349864
0.0241558
0.00381532
0.0261372
0.173177
0.0296085
0.0270744
0.0299679
0.0324935
0.00486653
0.00601039
0.00584006
0.00268349
0.151616
0.159827
0.0344399
0.155151
0.167681
0.164752
0.100332
0.0181488
0.0231745
0.120478
0.0307875
0.0231645
0.125027
0.0635789
0.000709845
0.0005055
0.000384686
0.045746
0.163814
0.122508
0.00271159
0.110067
0.1249
0.110633
0.100857
0.0740601
0.0180224
0.0783984
0.0785727
0.177279
0.0208793
0.0240068
0.0903605
0.107841
0.113
0.122645
0.000890171
0.0124513
0.017226
0.00152287
0.00129464
0.00139616
0.0542806
0.0517321
0.0554253
0.0587917
0.0285987
0.156851
0.13719
0.141268
0.137086
0.131285
0.0592127
0.0857238
0.0270866
0.0294103
0.0291733
0.158079
0.168173
0.10549
0.0637138
0.0258357
0.0250325
0.000559693
0.000473444
0.00054931
0.000609713
0.0165689
0.017444
0.0153213
0.127032
0.00973043
0.00744667
0.0672754
0.00886075
0.00885894
0.122388
0.138582
0.00855125
0.0114688
0.0112432
0.0161758
0.0118213
0.123886
0.00973847
0.118537
0.0722327
0.167083
0.0244753
0.0228379
0.0248557
0.108912
0.0875858
0.160103
0.137437
0.125566
0.118094
0.00118574
0.0012921
0.00122968
0.0526689
0.0669923
0.128457
0.0146076
0.125253
0.126947
0.00171703
0.124506
0.0139508
0.0189166
0.01267
0.0883818
0.119336
0.123296
0.0255274
0.0873399
0.00473987
0.0850365
0.0042241
0.0870616
0.148397
0.155107
0.148716
0.143089
0.0826851
0.03425
0.0447521
0.0898078
0.0443879
0.0702552
0.173625
0.0573919
0.0756464
0.0880372
0.0833797
0.0158418
0.172731
0.123853
0.015484
0.117127
0.0382921
0.00303996
0.00392298
0.00494091
0.0818932
0.0470612
0.052564
0.00344494
0.0503606
0.0529795
0.00085108
0.116416
0.120464
0.110003
0.117666
0.0147217
0.101395
0.0151561
0.0911333
0.0312102
0.0271234
0.0017817
0.0713154
0.000699538
0.000600455
0.000499455
0.0302886
0.0274009
0.0985249
0.135887
0.143907
0.0927856
0.106975
0.176807
0.059041
0.0284335
0.170067
0.000516246
0.00052548
0.000567246
0.000648793
0.164795
0.00218364
0.00257155
0.00276342
0.171089
0.132746
0.126168
0.125559
0.00534324
0.00456388
0.000656242
0.000563398
0.000642361
0.000710921
0.0481682
0.131464
0.133417
0.131116
0.117535
0.0260673
0.0125351
0.0203875
0.0226021
0.0233458
0.00336965
0.00428029
0.00375572
0.00405327
0.103528
0.0174769
0.0190385
0.0204505
0.01493
0.128563
0.0658289
0.0290374
0.10517
0.000418815
0.177126
0.177524
0.0691397
0.0795103
0.0554409
0.151814
0.140611
0.0246059
0.143264
0.156323
0.0995508
0.151465
0.00166571
0.0156036
0.014282
0.0141514
0.106195
0.110238
0.138285
0.0311042
0.0254475
0.153409
0.0880872
0.0925789
0.016491
0.0213761
0.00681872
0.00833122
0.062125
0.00070491
0.096809
0.132771
0.000618567
0.000850469
0.000756721
0.00711987
0.009966
0.035752
0.0140068
0.0131253
0.0142556
0.0101564
0.0136347
0.032808
0.0337091
0.0375865
0.169966
0.00304278
0.00276323
0.0212208
0.0163673
0.0193248
0.0189934
0.0166701
0.0168375
0.00719576
0.00629438
0.00702222
0.00802476
0.0339876
0.0368572
0.0339042
0.174657
0.062626
0.00109601
0.000831774
0.000673446
0.08722
0.133967
0.14535
0.135415
0.13014
0.000546874
0.0010669
0.108706
0.0851804
0.113118
0.00243548
0.00263963
0.0834132
0.0636192
0.00242754
0.176096
0.0865361
0.0883664
0.095704
0.168522
0.173204
0.0824902
0.0948018
0.0972015
0.0210666
0.0264871
0.0453174
0.133283
0.0544513
0.0948897
0.104689
0.0973517
0.107555
0.00153809
0.0200674
0.0192545
0.0015259
0.00166983
0.0521043
0.030699
0.0253462
0.0479045
0.00141141
0.00157824
0.0017236
0.00202308
0.062318
0.0948826
0.0968147
0.0934851
0.000380465
0.000468537
0.000459112
0.00150525
0.00219267
0.0976071
0.0690682
0.0719325
0.00999678
0.0728628
0.0708711
0.08331
0.127658
0.0252173
0.0705681
0.0101789
0.0117819
0.0115973
0.0212116
0.0174071
0.0012401
0.0199995
0.020804
0.0305574
0.0251051
0.114273
0.00135413
0.00151985
0.13836
0.118657
0.0750958
0.000964106
0.00127089
0.00095679
0.00077272
0.092241
0.000593308
0.00046207
0.000513733
0.00050614
0.162935
0.00199933
0.0216377
0.128223
0.124336
0.123056
0.138596
0.13645
0.145932
0.0371472
0.0422002
0.0323568
0.00226107
0.00237875
0.00250657
0.119801
0.127249
0.119389
0.113701
0.127669
0.0342367
0.0394517
0.00235855
0.0403284
0.0440026
0.00229791
0.00250533
0.00238108
0.112127
0.013453
0.0172545
0.157955
0.0752449
0.0783965
0.00108104
0.000889507
0.000985651
0.0241457
0.0958276
0.00991039
0.0112573
0.0105741
0.0933933
0.0787774
0.0843244
0.0929805
0.0447713
0.0519935
0.0142314
0.0119131
0.0133281
0.174968
0.172242
0.159679
0.0234024
0.0244008
0.0274373
0.163495
0.112832
0.122241
0.0379476
0.0333328
0.000447755
0.150219
0.0286804
0.0242664
0.0202553
0.132762
0.000507713
0.0257249
0.0314711
0.0217178
0.175456
0.0180461
0.170991
0.10615
0.0185425
0.0163529
0.0194238
0.00306647
0.00374179
0.00308686
0.0811209
0.0777801
0.0375564
0.00117467
0.0137622
0.00129515
0.00139801
0.0287887
0.00141408
0.00116486
0.00127167
0.0511176
0.0959055
0.0194116
0.0167428
0.0262653
0.0182741
0.0261353
0.170177
0.0705995
0.0842002
0.105447
0.101502
0.00192146
0.0727937
0.0801225
0.0662354
0.0631125
0.0750807
0.0712806
0.0594356
0.0646347
0.0952351
0.101867
0.00190077
0.00183588
0.00169284
0.0825041
0.0795572
0.0625262
0.06619
0.0749846
0.0449279
0.0412151
0.0419047
0.0384819
0.0629256
0.00454077
0.00608277
0.059155
0.123858
0.0880049
0.0586444
0.00363266
0.00516584
0.00285049
0.0700235
0.0773201
0.0682351
0.00182729
0.0630924
0.0568993
0.051457
0.0752832
0.0763991
0.0953658
0.00195093
0.0588595
0.0547789
0.0168107
0.016476
0.018102
0.0447929
0.0413236
0.163058
0.0375561
0.157618
0.0292762
0.109665
0.131872
0.0239476
0.129263
0.0289755
0.0228634
0.113794
0.121263
0.00286622
0.0029557
0.00319908
0.00363183
0.00613424
0.146891
0.0055354
0.00563336
0.0376874
0.00446413
0.00504471
0.10253
0.00375004
0.003634
0.00386876
0.0111907
0.011142
0.0122892
0.0148002
0.0150713
0.0652369
0.0597388
0.000660003
0.000537032
0.0269049
0.0351725
0.0299259
0.031197
0.0309174
0.0314045
0.000879578
0.00097478
0.00105021
0.00122773
0.00227153
0.00201726
0.022448
0.0256578
0.0871977
0.0793013
0.0653487
0.0725313
0.108502
0.119345
0.06929
0.0940127
0.0250802
0.0274007
0.0375507
0.0341377
0.000805205
0.000813153
0.000882987
0.00100892
3.26436e-07
2.89865e-05
6.84866e-05
0.000853736
0.00185218
0.00397768
0.00569243
0.0108603
0.0188508
0.0300624
0.0441567
0.0515378
0.00235603
0.00343503
0.00493251
0.00693942
0.00954362
0.0128287
0.0168707
0.0217284
0.0274216
0.0338973
0.0410089
0.0484755
9.76042e-08
5.56176e-07
1.55411e-05
4.11854e-05
8.59823e-05
0.00122423
0.0026143
0.00373109
0.00524227
0.00724209
0.01311
0.0221129
0.0345086
0.0491572
0.00158689
0.00230745
0.00329711
0.004638
0.00641958
0.00874231
0.0117139
0.0154446
0.0200335
0.0255331
0.0318789
0.0388351
0.0461496
1.83787e-07
9.4021e-07
2.44846e-05
5.79539e-05
0.000104692
0.00185109
0.00369544
0.00508111
0.00689199
0.00923668
0.0122408