# vtk DataFile Version 2.0
Unstructured Grid by M++
ASCII
DATASET UNSTRUCTURED_GRID
POINTS 4072 float
  0.828125   0.890625 0
  0.875000   0.531250 0
  0.828125   0.750000 0
  0.593750   0.968750 0
  0.828125   0.671875 0
  0.828125   0.875000 0
  0.593750   0.937500 0
  0.828125   0.656250 0
  0.828125   0.640625 0
  0.828125   0.843750 0
  0.593750   0.906250 0
  0.828125   0.625000 0
  0.781250   0.968750 0
  0.828125   0.609375 0
  0.828125   0.812500 0
  0.593750   0.875000 0
  0.593750   0.828125 0
  0.593750   0.796875 0
  0.828125   0.703125 0
  0.593750   0.765625 0
  0.828125   0.937500 0
  0.812500   0.875000 0
  0.859375   0.515625 0
  0.812500   0.734375 0
  0.812500   0.937500 0
  0.578125   1.000000 0
  0.578125   0.750000 0
  0.812500   0.687500 0
  0.578125   0.953125 0
  0.812500   0.656250 0
  0.812500   0.859375 0
  0.578125   0.921875 0
  0.812500   0.828125 0
  0.578125   0.890625 0
  0.812500   0.593750 0
  0.812500   0.796875 0
  0.578125   0.859375 0
  0.578125   0.812500 0
  0.578125   0.781250 0
  0.796875   1.000000 0
  0.796875   0.859375 0
  0.796875   0.718750 0
  0.562500   0.984375 0
  0.562500   0.937500 0
  0.796875   0.843750 0
  0.562500   0.906250 0
  0.796875   0.812500 0
  0.562500   0.875000 0
  0.796875   0.578125 0
  0.796875   0.781250 0
  0.562500   0.843750 0
  0.812500   0.984375 0
  0.562500   0.796875 0
  0.812500   0.953125 0
  0.562500   0.765625 0
  0.796875   0.937500 0
  0.546875   0.750000 0
  0.781250   0.984375 0
  0.828125   0.593750 0
  0.781250   0.843750 0
  0.781250   0.937500 0
  0.546875   1.000000 0
  0.781250   0.703125 0
  0.546875   0.968750 0
  0.546875   0.921875 0
  0.781250   0.828125 0
  0.546875   0.890625 0
  0.781250   0.796875 0
  0.546875   0.859375 0
  0.781250   0.562500 0
  0.781250   0.765625 0
  0.546875   0.828125 0
  0.796875   0.968750 0
  0.546875   0.781250 0
  0.765625   1.000000 0
  0.765625   0.968750 0
  0.531250   0.984375 0
  0.765625   0.687500 0
  0.531250   0.953125 0
  0.531250   0.937500 0
  0.531250   0.906250 0
  0.765625   0.812500 0
  0.531250   0.875000 0
  0.765625   0.781250 0
  0.531250   0.843750 0
  0.781250   1.000000 0
  0.765625   0.546875 0
  0.765625   0.750000 0
  0.531250   0.812500 0
  0.781250   0.953125 0
  0.531250   0.765625 0
  0.515625   0.750000 0
  0.750000   0.984375 0
  0.750000   0.953125 0
  0.796875   0.593750 0
  0.796875   0.562500 0
  0.750000   0.843750 0
  0.750000   0.937500 0
  0.515625   1.000000 0
  0.750000   0.906250 0
  0.515625   0.968750 0
  0.750000   0.671875 0
  0.750000   0.875000 0
  0.515625   0.937500 0
  0.515625   0.921875 0
  0.515625   0.890625 0
  0.750000   0.796875 0
  0.515625   0.859375 0
  0.750000   0.765625 0
  0.515625   0.828125 0
  1.000000   0.718750 0
  0.750000   0.531250 0
  0.750000   0.734375 0
  0.515625   0.796875 0
  0.734375   1.000000 0
  0.734375   0.968750 0
  0.734375   0.937500 0
  0.781250   0.578125 0
  0.781250   0.546875 0
  0.968750   0.578125 0
  0.734375   0.828125 0
  0.968750   0.546875 0
  0.734375   0.796875 0
  0.734375   0.765625 0
  0.968750   0.671875 0
  0.734375   0.734375 0
  0.968750   0.640625 0
  0.734375   0.703125 0
  0.968750   0.609375 0
  0.734375   0.671875 0
  0.734375   0.656250 0
  0.734375   0.625000 0
  0.968750   0.531250 0
  0.734375   0.593750 0
  0.984375   0.734375 0
  0.984375   0.703125 0
  0.734375   0.515625 0
  0.718750   0.984375 0
  0.718750   0.953125 0
  0.718750   0.921875 0
  0.953125   0.562500 0
  0.718750   0.812500 0
  0.953125   0.531250 0
  0.718750   0.781250 0
  0.718750   0.750000 0
  0.953125   0.656250 0
  0.718750   0.718750 0
  0.953125   0.625000 0
  0.718750   0.687500 0
  0.953125   0.593750 0
  0.718750   0.656250 0
  0.671875   1.000000 0
  0.718750   0.640625 0
  0.718750   0.609375 0
  0.953125   0.515625 0
  0.718750   0.578125 0
  0.968750   0.718750 0
  0.968750   0.687500 0
  0.953125   0.671875 0
  0.703125   0.968750 0
  0.703125   0.937500 0
  0.937500   0.656250 0
  0.703125   0.906250 0
  0.937500   0.546875 0
  0.703125   0.796875 0
  0.937500   0.515625 0
  0.703125   0.765625 0
  0.937500   0.671875 0
  0.703125   0.734375 0
  0.937500   0.640625 0
  0.703125   0.703125 0
  0.937500   0.609375 0
  0.703125   0.671875 0
  0.937500   0.578125 0
  0.703125   0.640625 0
  0.656250   0.984375 0
  0.703125   0.625000 0
  0.703125   0.593750 0
  0.718750   0.796875 0
  0.953125   0.734375 0
  0.812500   1.000000 0
  0.859375   0.656250 0
  0.703125   0.781250 0
  0.937500   0.718750 0
  0.953125   0.703125 0
  0.796875   0.984375 0
  0.843750   0.640625 0
  0.812500   0.968750 0
  0.859375   0.625000 0
  0.796875   0.953125 0
  0.843750   0.609375 0
  0.687500   0.953125 0
  0.687500   0.921875 0
  0.687500   0.890625 0
  0.921875   0.734375 0
  0.687500   0.796875 0
  0.687500   0.781250 0
  0.921875   0.703125 0
  0.687500   0.765625 0
  0.687500   0.750000 0
  0.921875   0.656250 0
  0.687500   0.718750 0
  0.921875   0.625000 0
  0.687500   0.687500 0
  0.921875   0.593750 0
  0.687500   0.656250 0
  0.640625   1.000000 0
  0.921875   0.562500 0
  0.687500   0.625000 0
  0.640625   0.968750 0
  0.687500   0.609375 0
  0.687500   0.578125 0
  0.937500   0.687500 0
  0.921875   0.671875 0
  0.671875   0.921875 0
  0.906250   0.656250 0
  0.671875   0.906250 0
  0.671875   0.875000 0
  0.906250   0.718750 0
  0.671875   0.781250 0
  0.671875   0.765625 0
  0.671875   0.734375 0
  0.906250   0.640625 0
  0.671875   0.703125 0
  0.906250   0.609375 0
  0.671875   0.671875 0
  0.906250   0.578125 0
  0.671875   0.640625 0
  0.625000   0.984375 0
  0.671875   0.609375 0
  0.625000   0.953125 0
  0.671875   0.593750 0
  0.671875   0.562500 0
  0.765625   0.953125 0
  0.812500   0.609375 0
  0.656250   1.000000 0
  0.656250   0.953125 0
  0.656250   0.906250 0
  0.890625   0.640625 0
  0.656250   0.890625 0
  0.656250   0.859375 0
  0.890625   0.734375 0
  0.656250   0.796875 0
  0.812500   0.921875 0
  0.562500   1.000000 0
  0.625000   0.828125 0
  0.812500   0.843750 0
  0.843750   0.593750 0
  0.812500   0.812500 0
  0.625000   0.718750 0
  0.828125   0.687500 0
  0.640625   0.593750 0
  0.812500   0.781250 0
  0.625000   0.687500 0
  0.765625   0.828125 0
  0.640625   0.562500 0
  0.812500   0.750000 0
  0.562500   0.828125 0
  0.781250   0.875000 0
  0.546875   0.937500 0
  0.781250   0.671875 0
  0.781250   0.593750 0
  0.546875   0.656250 0
  0.796875   0.750000 0
  0.562500   0.812500 0
  0.796875   0.546875 0
  0.765625   0.796875 0
  0.765625   0.593750 0
  1.000000   0.531250 0
  0.812500   0.718750 0
  0.859375   0.562500 0
  0.625000   0.625000 0
  0.812500   0.703125 0
  0.812500   0.906250 0
  0.578125   0.968750 0
  0.984375   0.593750 0
  0.828125   0.578125 0
  0.828125   0.781250 0
  0.593750   0.843750 0
  0.812500   0.671875 0
  0.625000   0.578125 0
  0.796875   0.671875 0
  0.562500   0.734375 0
  0.984375   0.562500 0
  0.828125   0.546875 0
  0.812500   0.640625 0
  0.750000   0.812500 0
  0.625000   0.546875 0
  0.796875   0.640625 0
  0.562500   0.703125 0
  0.828125   0.515625 0
  0.781250   0.734375 0
  0.546875   0.796875 0
  0.781250   0.531250 0
  0.750000   0.781250 0
  0.625000   0.515625 0
  0.796875   0.609375 0
  0.562500   0.671875 0
  0.765625   0.656250 0
  0.765625   0.859375 0
  0.531250   0.921875 0
  0.812500   0.578125 0
  0.562500   0.656250 0
  0.984375   0.687500 0
  0.750000   0.750000 0
  0.812500   0.562500 0
  0.812500   0.765625 0
  0.578125   0.828125 0
  0.562500   0.625000 0
  0.984375   0.656250 0
  0.750000   0.718750 0
  0.812500   0.531250 0
  0.781250   0.656250 0
  0.546875   0.718750 0
  0.781250   0.625000 0
  0.546875   0.687500 0
  0.750000   0.640625 0
  0.796875   0.531250 0
  0.562500   0.593750 0
  0.984375   0.625000 0
  0.750000   0.687500 0
  0.546875   0.984375 0
  0.609375   0.812500 0
  0.796875   0.875000 0
  0.546875   0.953125 0
  0.609375   0.578125 0
  0.843750   0.515625 0
  0.765625   0.515625 0
  0.765625   0.718750 0
  0.531250   0.781250 0
  0.984375   0.546875 0
  0.750000   0.609375 0
  0.796875   0.828125 0
  0.671875   0.968750 0
  0.796875   0.796875 0
  0.796875   0.765625 0
  0.609375   0.671875 0
  0.796875   0.734375 0
  0.546875   0.812500 0
  0.796875   0.703125 0
  0.843750   0.546875 0
  0.609375   0.609375 0
  0.796875   0.687500 0
  0.562500   0.953125 0
  0.796875   0.656250 0
  0.609375   0.562500 0
  0.796875   0.625000 0
  0.609375   0.531250 0
  0.546875   0.640625 0
  0.765625   0.671875 0
  0.531250   0.734375 0
  0.796875   0.515625 0
  0.765625   0.640625 0
  0.531250   0.703125 0
  0.703125   1.000000 0
  0.765625   0.609375 0
  0.531250   0.671875 0
  0.765625   0.578125 0
  0.531250   0.640625 0
  0.546875   0.609375 0
  0.531250   1.000000 0
  0.890625   0.593750 0
  0.656250   0.656250 0
  0.781250   0.515625 0
  0.546875   0.578125 0
  0.531250   0.968750 0
  0.890625   0.562500 0
  0.656250   0.625000 0
  0.609375   0.968750 0
  0.781250   0.859375 0
  0.656250   0.593750 0
  0.750000   0.703125 0
  0.515625   0.765625 0
  0.781250   0.812500 0
  0.781250   0.781250 0
  0.593750   0.687500 0
  0.781250   0.750000 0
  0.593750   0.656250 0
  0.781250   0.718750 0
  0.531250   0.796875 0
  0.828125   0.562500 0
  0.593750   0.625000 0
  0.781250   0.687500 0
  0.828125   0.531250 0
  0.593750   0.593750 0
  0.812500   0.625000 0
  0.578125   0.687500 0
  0.781250   0.640625 0
  0.781250   0.609375 0
  0.593750   0.515625 0
  0.515625   0.781250 0
  0.812500   0.546875 0
  0.578125   0.609375 0
  0.812500   0.515625 0
  0.578125   0.578125 0
  0.750000   0.656250 0
  0.515625   0.718750 0
  0.750000   0.625000 0
  0.515625   0.687500 0
  0.687500   0.984375 0
  0.750000   0.593750 0
  0.515625   0.656250 0
  0.531250   0.546875 0
  0.750000   0.562500 0
  0.515625   0.625000 0
  0.531250   0.515625 0
  0.984375   0.515625 0
  0.750000   0.578125 0
  0.515625   0.531250 0
  0.828125   0.796875 0
  0.640625   0.703125 0
  0.828125   0.765625 0
[...]
CELL_DATA 7648
SCALARS scalar_value float 1
LOOKUP_TABLE default
0.00533335
0.00491914
0.00369214
0.00309666
0.00297994
0.00291584
0.0627292
0.0681318
0.0712296
0.0708439
0.0875958
0.100066
0.118629
0.0971208
0.126923
0.124481
0.132518
0.108226
0.067874
0.0605567
0.0629237
0.068975
0.0648204
0.0653025
0.0230087
0.0209235
0.0188143
0.0201778
0.0152783
0.0138345
0.0126334
0.0132837
0.00165775
0.00167191
0.00195986
0.00129479
0.137121
0.155549
0.00556392
0.00441432
0.107462
0.10705
0.0172377
0.016184
0.00185631
0.00239317
0.00237323
0.0028996
0.00303202
0.00417233
0.0041475
0.00561049
0.00481274
0.00673261
0.00698256
0.00828544
0.076172
0.0822511
0.0751728
0.0843698
0.0804498
0.0816087
0.0198634
0.0209953
0.0225229
0.0209775
0.0249417
0.0270248
0.0221604
0.0170372
0.0143124
0.0160915
0.00994187
0.0767134
0.0397003
0.00524929
0.00402863
0.00390562
0.00349721
0.0063867
0.00571777
0.00442628
0.00598092
0.0113313
0.00874072
0.00825269
0.00783625
0.00518651
0.00472587
0.00526326
0.00578319
0.0071911
0.00886407
0.00804251
0.0110443
0.0116491
0.014264
0.00975991
0.0175328
0.0225315
0.0179711
0.0107959
0.0128797
0.01411
0.0613387
0.000225756
0.000293073
0.0004138
0.00263325
0.00247295
0.00232344
0.00231005
0.0014386
0.00144667
0.00172148
0.00112016
0.000912474
0.00112043
0.000832837
0.100015
0.107373
0.109611
0.111854
0.119629
0.121455
0.116642
0.128653
0.00317991
0.00299587
0.00296156
0.00270076
0.0025339
0.0024945
0.00260978
0.0023118
0.0572795
0.0610313
0.0585366
0.0667965
0.153066
0.00201154
0.00190104
0.032016
0.0341445
0.0373668
0.0390158
0.0390248
0.0353941
0.0727364
0.0696984
0.07158
0.0320493
0.0291104
0.0279391
0.0250626
0.0237039
0.0215047
0.0214102
0.0181601
0.0143966
0.0150049
0.111415
0.11124
0.118198
0.10088
0.0490882
0.0919006
0.0919937
0.0978505
0.0835289
0.00109032
0.000905549
0.000771628
0.000985588
0.00135422
0.00137261
0.0516448
0.0524255
0.05781
0.045802
0.0584335
0.051331
0.0516273
0.0462083
0.0268906
0.0251988
0.0273273
0.0228058
0.0190898
0.0175882
0.0189752
0.0210502
0.0165253
0.0392906
0.039495
0.0443789
0.0326578
0.00299422
0.0026105
0.00234289
0.00230768
0.0331503
0.0377264
0.0423069
0.0390299
0.00154965
0.00155864
0.0468555
0.0484073
0.0533593
0.0436731
0.0511098
0.0558706
0.0596594
0.0580294
0.0450107
0.0499331
0.0550536
0.0512476
0.0135799
0.0180175
0.0188873
0.0201164
0.0243615
0.028806
0.0303076
0.0230659
0.0214127
0.0204674
0.020267
0.0604225
0.0639919
0.0616966
0.0683836
0.00379028
0.00362642
0.00388363
0.00301067
0.0765876
0.0794089
0.0761154
0.0848184
0.00388775
0.00367442
0.00380605
0.00311919
0.0195571
0.018501
0.00424631
0.0036419
0.00345682
0.00283808
0.00294188
0.00228045
0.0018956
0.00230635
0.00169679
0.00143277
0.00144091
0.00224042
0.0022395
0.00240876
0.00205731
0.00261622
0.00286346
0.0034812
0.00279245
0.00210106
0.00220465
0.00238916
0.00223148
0.0266531
0.0315212
0.0322124
0.0213693
0.0201074
0.0205786
0.0164444
0.0595157
0.0560624
0.0571647
0.0217629
0.0205356
0.0190617
0.0172737
0.01433
0.0137668
0.0148502
0.0127926
0.0115874
0.00478167
0.00420706
0.00387982
0.0037691
0.0552028
0.0515068
0.0839521
0.0822265
0.000863763
0.00357906
0.00179377
0.131912
0.0642072
0.0433998
0.0463287
0.028283
0.0666924
0.0439907
0.0767177
0.0336868
0.0759969
0.145857
0.015381
0.129421
0.00963829
0.0086079
0.00733591
0.000936408
0.000882759
0.011278
0.0755629
0.0146722
0.0881697
0.0938742
0.0127149
0.00539597
0.00823911
0.142816
0.0263374
0.138567
0.134769
0.141623
0.00909909
0.0698666
0.080963
0.0494152
0.05227
0.0220028
0.0442108
0.0068246
0.00570722
0.00916436
0.039643
0.00798638
0.00740111
0.00244589
0.00203662
0.0250672
0.00284935
0.0936466
0.0143443
0.0794704
0.00255798
0.0266499
0.0267605
0.0114896
0.0100424
0.0313449
0.0198319
0.150435
0.014146
0.0164487
0.0128955
0.0979432
0.00555209
0.100498
0.0221165
0.0217329
0.0202035
0.109972
0.00415703
0.0147855
0.0132694
0.000891699
0.00142497
0.0635677
0.0217429
0.102199
0.109398
0.0152688
0.101947
0.00494455
0.155612
0.000357049
0.000284212
0.000322431
0.0125941
0.0110854
0.0114429
0.0574071
0.0518389
0.0499205
0.0512922
0.00983149
0.0461175
0.0700429
0.0640697
0.0638899
0.00553264
0.00564966
0.094487
0.00364608
0.0985618
0.00341643
0.060641
0.105137
0.0202476
0.00342585
0.0960899
0.0122805
0.00298632
0.0523692
0.00459128
0.0235452
0.00375493
0.00372282
0.0140718
0.00495735
0.0266223
0.00172558
0.030171
0.00493516
0.0304057
0.0651446
0.144713
0.0443865
0.0846082
0.00843562
0.000446063
0.000300893
0.0061243
0.0738386
0.101077
0.00881957
0.00244222
0.00373257
0.0577387
0.00446888
0.00380787
0.00201797
0.14642
0.00188266
0.0253123
0.063913
0.0624891
0.00307988
0.00937032
0.0102469
0.00197834
0.00177912
0.00151846
0.0357744
0.0302428
0.152991
0.155397
0.00031937
0.000466036
0.0171773
0.0885045
0.0797252
0.106746
0.0981352
0.0045124
0.0722676
0.0897402
0.0283474
0.00659598
0.00612627
0.0840644
0.00630439
0.00501385
0.00627305
0.00475568
0.00504822
0.0833394
0.036468
0.04098
0.108398
0.0176752
0.056628
0.000745511
0.0061413
0.133046
0.166978
0.0296656
0.156772
0.158579
0.105789
0.117572
0.115064
0.13811
0.0501445
0.0499819
0.0641194
0.00485056
0.0235189
0.0787884
0.0199385
0.018222
0.019925
0.0865087
0.0257308
0.000852402
0.058523
0.00809072
0.00990674
0.0504102
0.128269
0.11839
0.0114676
0.0605412
0.0607171
0.0038578
0.0643609
0.00543218
0.00457563
0.0271713
0.00617738
0.0115841
0.0555145
0.0588743
0.0131653
0.0194738
0.0378675
0.043078
0.00253683
0.0312957
0.0405379
0.00145989
0.0428691
0.00827422
0.0182815
0.0445587
0.0211359
0.0108687
0.0219827
0.00201252
0.0352526
0.0344254
0.0360522
0.00221453
0.0373143
0.00238796
0.0313173
0.0427674
0.0404708
0.00207784
0.035392
0.049234
0.0409163
0.0456822
0.00237935
0.00215818
0.109974
0.0517036
0.0475765
0.00581233
0.0569534
0.0104383
0.0644195
0.000417116
0.000603142
0.0598647
0.000782553
0.0253656
0.125921
0.0245585
0.0120397
0.165676
0.0149136
0.112174
0.0107164
0.0984813
0.107965
0.106082
0.00646
0.108798
0.00753632
0.0974538
0.00482952
0.128461
0.11913
0.116809
0.0041114
0.00134476
0.00138547
0.00157899
0.0554854
0.00124245
0.0485564
0.0352
0.0352064
0.0016153
0.0528374
0.14547
0.00153306
0.00162494
0.0619516
0.00188248
0.001888
0.00090118
0.000153313
0.0638438
0.00161072
0.0226061
0.00872978
0.0122253
0.00236306
0.0198511
0.179309
0.0483829
0.00270037
0.0308771
0.0282927
0.0264736
0.00884097
0.008563
0.0848555
0.0638379
0.0306095
0.00900896
0.123574
0.014276
0.104716
0.0195478
0.0219433
0.144575
0.135065
0.0201064
0.14038
0.131352
0.0423057
0.139919
0.0539315
0.027184
0.144604
0.045437
0.125615
0.00467097
0.00374965
0.00375055
0.051015
0.00511277
0.00714771
0.0345932
0.00680602
0.0305701
0.00649239
0.00298134
0.0406445
0.0372905
0.0766275
0.0684189
0.060048
0.0967986
0.0776197
0.0231837
0.0222377
0.0158456
0.0165963
0.174609
0.028213
0.168956
0.0902431
0.039973
0.151895
0.00488593
0.0867143
0.0245963
0.0202899
0.00462077
0.0267401
0.00110416
0.0464428
0.00131726
0.0328457
0.00451795
0.124581
0.17331
0.013459
0.160277
0.00938855
0.0770698
0.0729397
0.00912196
0.069052
0.00198397
0.00779262
0.00815023
0.148531
0.0107229
0.0120928
0.0117922
0.0135315
0.00670639
0.00605043
0.00946232
0.00758308
0.000310028
0.00741087
0.178167
0.000437879
0.011721
0.00712997
0.000975758
0.0254076
0.103885
0.000757492
0.00167492
0.0226712
0.00179363
0.0256142
0.0774494
0.0398067
0.05388
0.0342987
0.00111921
0.126987
0.0122427
0.112736
0.0240967
0.11317
0.100011
0.00469364
0.00020772
0.165558
0.0758519
0.0753953
0.00235854
0.0727514
0.0512142
0.00936607
0.000697822
0.176544
0.0478296
0.109921
0.000821639
0.176816
0.0432762
0.172699
0.174392
0.0377336
0.000933975
0.0321411
0.0250012
0.00136479
0.000591073
0.117
0.0915717
0.000746492
0.0316285
0.0666312
0.0130859
0.0180319
0.11231
0.130647
0.155704
0.00263459
0.00663548
0.00194007
0.0296139
0.0356293
0.0105807
0.00836411
0.00120737
0.000631306
0.0260275
0.00417823
0.0467585
0.00236041
0.000394944
0.0314327
0.0417302
0.0543059
0.045945
0.109228
0.0111533
0.00244364
0.0702497
0.0989733
0.00641547
0.00229778
0.0751869
0.00663435
0.0948103
0.0210959
0.00624968
0.019203
0.00126842
0.0114474
0.109391
0.000536827
0.1214
0.00900128
0.00670633
0.017196
0.00122729
0.073457
0.0693224
0.0318604
0.000598632
0.0045647
0.0798837
0.0395126
0.000230297
0.00982354
0.022298
0.157997
0.0216528
0.0212286
0.0236117
0.0705317
0.0857162
0.0772001
0.0944093
0.0561202
0.0533907
0.00752052
0.0374531
0.0277794
0.0859667
0.00261014
0.000265218
0.12592
0.000571869
0.174503
0.137853
0.00655267
0.0575615
0.109941
0.0977903
0.147995
0.155984
0.0955069
0.0108752
0.0290471
0.0494787
0.000726005
0.0234171
0.148585
0.0831737
0.00617781
0.158777
0.0689518
0.00184169
0.0190791
0.0533747
0.00593877
0.00803874
0.00416953
0.00163043
0.00182425
0.00387806
0.0472642
0.00139812
0.0389009
0.0888783
0.0657062
0.0353243
0.0116436
0.0946946
0.0852877
0.00756966
0.0375284
0.137621
0.076958
0.0897401
0.00203842
0.0821139
0.00326571
0.00272794
0.00495541
0.000967313
0.0965248
0.00838342
0.0494652
0.137234
0.0807539
0.0353274
0.0257115
0.119851
0.00222463
0.0948219
0.00310888
0.150314
0.0255689
0.00285297
0.124316
0.0423686
0.149484
0.0578159
0.157285
0.0194303
0.000951694
0.0015693
0.0184777
0.000525715
0.0160756
0.0873052
0.0018139
0.0153919
0.14431
0.000265496
0.0158204
0.00146452
0.0993779
0.134982
0.00755884
0.0621089
0.00119183
0.0618919
0.0376235
0.156316
0.00143304
0.032112
0.0843089
0.0567011
0.165927
0.168108
0.0066395
0.138319
0.0647375
0.00173187
0.172722
0.00164787
0.00160125
0.168306
0.0361271
0.00171258
0.000802134
0.0100818
0.0244754
0.00177786
0.0220885
0.0163152
0.090535
0.00130349
0.00198433
0.00347447
0.00113915
0.149443
0.00561087
0.000675188
0.0100321
0.176491
0.0490666
0.0473673
0.0898952
0.00143089
0.00834901
0.0317593
0.000854866
0.0348711
0.125548
0.0164142
0.00405679
0.000650726
0.00299436
0.0747122
0.0390891
0.00637909
0.046918
0.000724537
0.153992
0.108841
0.00133065
0.0108237
0.0657526
0.00148087
0.116527
0.0445216
0.000575553
0.0757168
0.00152765
0.169736
0.167376
0.00103602
0.173568
0.0353234
0.00876393
0.00121959
0.0127787
0.125379
0.105754
0.0281324
0.162633
0.000928798
0.177201
0.172285
0.011803
0.056505
0.00231978
0.0298741
0.0354969
0.11567
0.00949914
0.118408
0.0104019
0.0331495
0.036433
0.0020261
0.00203834
0.0540185
0.0272918
0.0066611
0.0534965
0.036505
0.0441362
0.178231
0.0605409
0.0133912
0.164602
0.0503633
0.0002543
0.0554184
0.00586236
0.179684
0.00669402
0.0293061
0.167901
0.00828818
0.0403529
0.00330648
0.0560461
0.00237405
0.105461
0.00351181
0.14748
0.0246634
0.00409112
0.0082849
0.11106
0.131875
0.0179587
0.00106955
0.00598079
0.174542
0.00766495
0.00264851
0.000685914
0.169757
0.0075543
0.000587069
0.00691331
0.1706
0.041383
0.144725
0.0527546
0.0227004
0.0154764
0.0834241
0.0748743
0.071517
0.0623611
0.0258698
0.114419
0.0306832
0.0872051
0.0666054
0.134553
0.171623
0.00160234
0.0366037
0.0295783
0.0016512
0.0527428
0.00195984
0.0393145
0.00406354
0.00103123
0.149567
0.153994
0.0419779
0.160254
0.00329375
0.00306403
0.0733496
0.0339094
0.0284087
0.0308886
0.0312307
0.0461384
0.0040858
0.0940204
0.0427723
0.0434205
0.0345478
0.00215019
0.0636489
0.00260551
0.00242368
0.0666859
0.00336611
0.0773146
0.162518
0.0266287
0.00171785
0.0215444
0.0240292
0.0282142
0.0391858
0.0156603
0.0402015
0.140028
0.0388186
0.0418397
0.0449324
0.0371756
0.0359328
0.0330712
0.0299632
0.0350517
0.172325
0.0066961
0.167307
0.00669333
0.0575535
0.0874492
0.092701
0.0160427
0.0168356
0.0121057
0.0311284
0.105199
0.121756
0.161009
0.16831
0.0212527
0.0173839
0.00154589
0.0189989
0.00268535
0.00239772
0.000262519
0.0002942
0.161145
0.158986
0.0854828
0.152442
0.0292817
0.172127
0.173305
0.167717
0.010492
0.0468428
0.0020712
0.00218066
0.00183566
0.0252749
0.00191212
0.00204101
0.002223
0.00905126
0.00283128
0.00186363
0.0747572
0.0516663
0.00472718
0.101551
0.00576921
0.105903
0.00306203
0.00636569
0.0191959
0.00031095
0.15572
0.000344798
0.000351464
0.000411491
0.158008
0.13907
0.145489
0.000288769
0.000234336
0.139299
0.000260892
0.000192689
0.139268
0.000236091
0.127627
0.000212027
0.133514
0.000207922
0.023968
0.00139073
0.0699052
0.00216864
0.0222898
0.00207075
0.0140698
0.000660812
0.0151606
0.0179285
0.169048
0.0725294
0.160054
0.0610473
0.150969
0.00847173
0.0076367
0.00946174
0.0444746
0.00742325
0.00636137
0.00681141
0.00611526
0.0431125
0.0271416
0.0211938
0.0603273
0.0442603
0.00574903
0.0306265
0.0543985
0.0462431
0.0697487
0.0236436
0.0774102
0.0880356
0.00236271
0.016984
0.00320948
0.00796161
0.11481
0.0609892
0.00262877
0.0815303
0.0401456
0.175001
0.0391327
0.00566812
0.00695013
0.108008
0.0917103
0.112014
0.0884837
0.0437579
0.039279
0.0192579
0.046751
0.0103391
0.0414953
0.148791
0.0653235
0.00165637
0.00181577
0.142416
0.00116183
0.137783
0.00469934
0.0304296
0.0611226
0.00205355
0.0632173
0.0676036
0.0757894
0.0651259
0.0176296
0.0165526
0.135236
0.00239021
0.0998766
0.00361384
0.00213381
0.0234966
0.0610983
0.00255093
0.15076
0.164823
0.161839
0.000347998
0.00647759
0.0607105
0.00161941
0.0015679
0.0522097
0.00186695
0.0227904
0.00266367
0.00204074
0.000932956
0.00126093
0.00116655
0.0548616
0.0927642
0.177486
0.0667635
0.0228351
0.0236434
0.0214282
0.0184156
0.0404599
0.00130204
0.00842334
0.00763648
0.0306319
0.0329577
0.0192803
0.02067
0.0027472
0.0185008
0.00295592
0.0204324
0.00324948
0.0221978
0.171438
0.0256952
0.0232449
0.0259226
0.0282269
0.0041188
0.00509333
0.00500872
0.00254295
0.149233
0.157544
0.0347399
0.154088
0.164358
0.160842
0.0922044
0.0202124
0.025819
0.114483
0.0344804
0.0260481
0.117153
0.0695859
0.00079089
0.000562532
0.000429535
0.0469225
0.15999
0.130573
0.0028981
0.115951
0.13105
0.116703
0.107094
0.0664254
0.0164337
0.070644
0.0709749
0.179622
0.0225954
0.0260109
0.0820758
0.111659
0.116241
0.12548
0.000984156
0.0115117
0.0160843
0.00131836
0.00110661
0.00119305
0.0492964
0.0464694
0.0501446
0.0533809
0.0306917
0.163498
0.143933
0.148831
0.144216
0.13859
0.063988
0.0777964
0.0231707
0.0252647
0.0249628
0.15493
0.172321
0.114519
0.0636579
0.0215894
0.0209094
0.000462673
0.000387016
0.000453104
0.000505753
0.0181119
0.0190047
0.0167202
0.120697
0.0089882
0.00685386
0.0609494
0.00814957
0.00809412
0.11588
0.132679
0.00843816
0.0112371
0.0115849
0.0166911
0.0122148
0.12703
0.0101221
0.122323
0.0737304
0.164129
0.0234361
0.0216486
0.0235741
0.100957
0.0793395
0.16479
0.142163
0.130452
0.123429
0.00100147
0.00107874
0.00101826
0.0568586
0.0599897
0.129464
0.0148431
0.127042
0.129059
0.00195316
0.119117
0.0141333
0.0192045
0.0129432
0.0811775
0.115958
0.131823
0.0281229
0.087098
0.00474297
0.0853282
0.00425835
0.0876284
0.153524
0.160926
0.154297
0.149108
0.0806221
0.0318571
0.0419736
0.0814589
0.0410505
0.0732238
0.177093
0.0539821
0.0796083
0.0812364
0.0760563
0.0149874
0.176889
0.122298
0.0154458
0.116232
0.0338684
0.00255249
0.00331194
0.00413319
0.0735917
0.0429227
0.0480431
0.00315606
0.0461379
0.0488761
0.000928549
0.123576
0.117849
0.11709
0.125142
0.0140578
0.0951999
0.0145609
0.0826704
0.0344171
0.0300329
0.00199837
0.0770043
0.000759673
0.00065157
0.000544333
0.0283793
0.0256072
0.102538
0.131681
0.139481
0.0862337
0.100299
0.179436
0.0522251
0.0240036
0.167406
0.000413504
0.000415262
0.000451459
0.000518392
0.161968
0.00183265
0.00215417
0.00233021
0.168718
0.141588
0.133897
0.133637
0.00544806
0.00469142
0.000544708
0.000459603
0.000529494
0.000588436
0.0509166
0.140621
0.126893
0.138783
0.126266
0.0219464
0.0108454
0.0168675
0.0188325
0.0194745
0.00272599
0.00347421
0.00304882
0.00331189
0.0952904
0.0164544
0.0179865
0.020457
0.0150061
0.137027
0.0718687
0.0290552
0.114071
0.000331544
0.177765
0.179202
0.0673053
0.0726396
0.0564302
0.159813
0.149337
0.0268246
0.147419
0.151024
0.0910808
0.147025
0.00148117
0.0144063
0.0131408
0.0129213
0.0987711
0.10253
0.146252
0.0286645
0.0235778
0.157972
0.091578
0.0956598
0.0149851
0.019434
0.00592385
0.00723814
0.0582154
0.000558101
0.0902449
0.129995
0.00048811
0.000673984
0.000602881
0.00722084
0.0100933
0.0304479
0.0116689
0.0109359
0.0119519
0.0113423
0.0151976
0.0280793
0.0289649
0.0325333
0.167655
0.0027887
0.00255462
0.0191766
0.0147694
0.0173926
0.0169879
0.0184913
0.0186359
0.00683471
0.00590899
0.00662454
0.00756215
0.0290929
0.0316877
0.0289983
0.173611
0.0555932
0.00120051
0.000911119
0.000741195
0.0933791
0.136669
0.148029
0.138458
0.133859
0.000613274
0.00120466
0.100439
0.0846839
0.121821
0.00231699
0.00251915
0.0917075
0.0707339
0.00236266
0.179437
0.0788249
0.0803639
0.0880501
0.16578
0.17203
0.0787522
0.0913225
0.10312
0.0201541
0.0251856
0.043152
0.125831
0.0478867
0.0942653
0.103839
0.0969929
0.104442
0.00135063
0.0172678
0.016427
0.00133507
0.00146853
0.0460687
0.0309055
0.0256127
0.0420727
0.00115808
0.00128744
0.00141629
0.00167245
0.0592931
0.0960234
0.0982588
0.0954692
0.000300566
0.000369357
0.000366397
0.00124336
0.00182534
0.103375
0.065905
0.0689111
0.00830725
0.070291
0.0662465
0.07863
0.123824
0.0250499
0.0630777
0.00919993
0.0105994
0.0103545
0.0182305
0.0147752
0.00106875
0.0170308
0.0174373
0.0322053
0.0266152
0.106396
0.00117225
0.00130128
0.14344
0.124226
0.0676317
0.00107852
0.00142679
0.00107356
0.00086978
0.0849771
0.000490021
0.000376032
0.000420182
0.000411147
0.161188
0.00181208
0.0208916
0.137363
0.133623
0.132298
0.138163
0.134822
0.14405
0.0409164
0.0465552
0.0358756
0.00209044
0.00218299
0.00232331
0.128731
0.136281
0.128481
0.122839
0.120324
0.0316951
0.0364225
0.00220424
0.0374342
0.0410585
0.00213774
0.00233786
0.00223977
0.12103
0.0119639
0.0153678
0.157373
0.068858
0.0725988
0.000911292
0.000739543
0.000821741
0.0210332
0.10101
0.0085521
0.00969443
0.00904128
0.0918939
0.0833845
0.0887048
0.0973961
0.0393309
0.0461576
0.0123022
0.0101762
0.0114425
0.178965
0.177146
0.164933
0.0195961
0.0204801
0.0231973
0.159333
0.104774
0.114706
0.0404062
0.0358277
0.000489709
0.146985
0.0310984
0.0265266
0.0220777
0.140909
0.000558056
0.02827
0.0346161
0.0240315
0.178043
0.0165714
0.174352
0.0977885
0.0178782
0.0155865
0.018513
0.00293093
0.00357885
0.00298367
0.0894028
0.0858901
0.0382287
0.00101522
0.0116416
0.00112729
0.00122294
0.0243924
0.00123538
0.00100424
0.00110202
0.0449042
0.0877845
0.0171671
0.0146417
0.0220835
0.0157631
0.0229268
0.175702
0.0632303
0.0852592
0.106548
0.104431
0.0020332
0.0777507
0.0854776
0.0713844
0.0572519
0.0678547
0.0644906
0.0646211
0.0702526
0.0868189
0.0935362
0.00193507
0.00187753
0.00174238
0.0852967
0.0829815
0.0661229
0.0693722
0.0786692
0.0399194
0.0366058
0.0370887
0.0338131
0.0667645
0.00452952
0.00605998
0.0566074
0.119795
0.094068
0.0644527
0.00386384
0.00545571
0.00308164
0.0759572
0.0834734
0.0742094
0.00206797
0.0687722
0.0624072
0.0565776
0.0755123
0.0752355
0.0956297
0.00219584
0.0617874
0.0578264
0.0143992
0.0140016
0.0154957
0.0455168
0.042198
0.169911
0.0352363
0.165092
0.0275626
0.104009
0.127398
0.0237115
0.12621
0.0296199
0.02349
0.108248
0.116495
0.00234129
0.00239249
0.00260703
0.00297417
0.00583738
0.149978
0.0052073
0.00533843
0.032439
0.00422498
0.00472413
0.100732
0.00346592
0.00333496
0.00354297
0.00934826
0.00924574
0.0103398
0.0125112
0.0128409
0.0698874
0.0643603
0.000713536
0.000588065
0.0225802
0.0299613
0.0252656
0.0264134
0.0263006
0.0267367
0.000704148
0.000775595
0.000840754
0.000988342
0.00252509
0.00226148
0.0189803
0.0217048
0.0929704
0.0851727
0.0706357
0.0781038
0.112598
0.123413
0.0688067
0.0856351
0.0250058
0.0272352
0.03793
0.0346669
0.000662464
0.000657806
0.000720438
0.000826071
4.04535e-07
3.56259e-05
8.39953e-05
0.00102998
0.00221315
0.0047023
0.00669333
0.0126347
0.0216969
0.034226
0.0497466
0.057799
0.00280607
0.0040699
0.00581343
0.00813568
0.0111298
0.0148812
0.0194642
0.0249315
0.0312904
0.0384687
0.0462949
0.054459
1.20954e-07
6.8817e-07
1.91162e-05
5.05681e-05
0.000105399
0.00146902
0.00310924
0.00441682
0.00617587
0.00848943
0.0152074
0.0253634
0.039134
0.0551845
0.00189821
0.00274826
0.00390955
0.00547412
0.00754047
0.0102173
0.0136185
0.0178572
0.0230308
0.029182
0.0362249
0.04389
0.0518977
2.27558e-07
1.16163e-06
3.00785e-05
7.11005e-05
0.000128265
0.00220906
0.00437556