# vtk DataFile Version 2.0
Unstructured Grid by M++
ASCII
DATASET UNSTRUCTURED_GRID
POINTS 4072 float
  0.828125   0.890625 0
  0.875000   0.531250 0
  0.828125   0.750000 0
  0.593750   0.968750 0
  0.828125   0.671875 0
  0.828125   0.875000 0
  0.593750   0.937500 0
  0.828125   0.656250 0
  0.828125   0.640625 0
  0.828125   0.843750 0
  0.593750   0.906250 0
  0.828125   0.625000 0
  0.781250   0.968750 0
  0.828125   0.609375 0
  0.828125   0.812500 0
  0.593750   0.875000 0
  0.593750   0.828125 0
  0.593750   0.796875 0
  0.828125   0.703125 0
  0.593750   0.765625 0
  0.828125   0.937500 0
  0.812500   0.875000 0
  0.859375   0.515625 0
  0.812500   0.734375 0
  0.812500   0.937500 0
  0.578125   1.000000 0
  0.578125   0.750000 0
  0.812500   0.687500 0
  0.578125   0.953125 0
  0.812500   0.656250 0
  0.812500   0.859375 0
  0.578125   0.921875 0
  0.812500   0.828125 0
  0.578125   0.890625 0
  0.812500   0.593750 0
  0.812500   0.796875 0
  0.578125   0.859375 0
  0.578125   0.812500 0
  0.578125   0.781250 0
  0.796875   1.000000 0
  0.796875   0.859375 0
  0.796875   0.718750 0
  0.562500   0.984375 0
  0.562500   0.937500 0
  0.796875   0.843750 0
  0.562500   0.906250 0
  0.796875   0.812500 0
  0.562500   0.875000 0
  0.796875   0.578125 0
  0.796875   0.781250 0
  0.562500   0.843750 0
  0.812500   0.984375 0
  0.562500   0.796875 0
  0.812500   0.953125 0
  0.562500   0.765625 0
  0.796875   0.937500 0
  0.546875   0.750000 0
  0.781250   0.984375 0
  0.828125   0.593750 0
  0.781250   0.843750 0
  0.781250   0.937500 0
  0.546875   1.000000 0
  0.781250   0.703125 0
  0.546875   0.968750 0
  0.546875   0.921875 0
  0.781250   0.828125 0
  0.546875   0.890625 0
  0.781250   0.796875 0
  0.546875   0.859375 0
  0.781250   0.562500 0
  0.781250   0.765625 0
  0.546875   0.828125 0
  0.796875   0.968750 0
  0.546875   0.781250 0
  0.765625   1.000000 0
  0.765625   0.968750 0
  0.531250   0.984375 0
  0.765625   0.687500 0
  0.531250   0.953125 0
  0.531250   0.937500 0
  0.531250   0.906250 0
  0.765625   0.812500 0
  0.531250   0.875000 0
  0.765625   0.781250 0
  0.531250   0.843750 0
  0.781250   1.000000 0
  0.765625   0.546875 0
  0.765625   0.750000 0
  0.531250   0.812500 0
  0.781250   0.953125 0
  0.531250   0.765625 0
  0.515625   0.750000 0
  0.750000   0.984375 0
  0.750000   0.953125 0
  0.796875   0.593750 0
  0.796875   0.562500 0
  0.750000   0.843750 0
  0.750000   0.937500 0
  0.515625   1.000000 0
  0.750000   0.906250 0
  0.515625   0.968750 0
  0.750000   0.671875 0
  0.750000   0.875000 0
  0.515625   0.937500 0
  0.515625   0.921875 0
  0.515625   0.890625 0
  0.750000   0.796875 0
  0.515625   0.859375 0
  0.750000   0.765625 0
  0.515625   0.828125 0
  1.000000   0.718750 0
  0.750000   0.531250 0
  0.750000   0.734375 0
  0.515625   0.796875 0
  0.734375   1.000000 0
  0.734375   0.968750 0
  0.734375   0.937500 0
  0.781250   0.578125 0
  0.781250   0.546875 0
  0.968750   0.578125 0
  0.734375   0.828125 0
  0.968750   0.546875 0
  0.734375   0.796875 0
  0.734375   0.765625 0
  0.968750   0.671875 0
  0.734375   0.734375 0
  0.968750   0.640625 0
  0.734375   0.703125 0
  0.968750   0.609375 0
  0.734375   0.671875 0
  0.734375   0.656250 0
  0.734375   0.625000 0
  0.968750   0.531250 0
  0.734375   0.593750 0
  0.984375   0.734375 0
  0.984375   0.703125 0
  0.734375   0.515625 0
  0.718750   0.984375 0
  0.718750   0.953125 0
  0.718750   0.921875 0
  0.953125   0.562500 0
  0.718750   0.812500 0
  0.953125   0.531250 0
  0.718750   0.781250 0
  0.718750   0.750000 0
  0.953125   0.656250 0
  0.718750   0.718750 0
  0.953125   0.625000 0
  0.718750   0.687500 0
  0.953125   0.593750 0
  0.718750   0.656250 0
  0.671875   1.000000 0
  0.718750   0.640625 0
  0.718750   0.609375 0
  0.953125   0.515625 0
  0.718750   0.578125 0
  0.968750   0.718750 0
  0.968750   0.687500 0
  0.953125   0.671875 0
  0.703125   0.968750 0
  0.703125   0.937500 0
  0.937500   0.656250 0
  0.703125   0.906250 0
  0.937500   0.546875 0
  0.703125   0.796875 0
  0.937500   0.515625 0
  0.703125   0.765625 0
  0.937500   0.671875 0
  0.703125   0.734375 0
  0.937500   0.640625 0
  0.703125   0.703125 0
  0.937500   0.609375 0
  0.703125   0.671875 0
  0.937500   0.578125 0
  0.703125   0.640625 0
  0.656250   0.984375 0
  0.703125   0.625000 0
  0.703125   0.593750 0
  0.718750   0.796875 0
  0.953125   0.734375 0
  0.812500   1.000000 0
  0.859375   0.656250 0
  0.703125   0.781250 0
  0.937500   0.718750 0
  0.953125   0.703125 0
  0.796875   0.984375 0
  0.843750   0.640625 0
  0.812500   0.968750 0
  0.859375   0.625000 0
  0.796875   0.953125 0
  0.843750   0.609375 0
  0.687500   0.953125 0
  0.687500   0.921875 0
  0.687500   0.890625 0
  0.921875   0.734375 0
  0.687500   0.796875 0
  0.687500   0.781250 0
  0.921875   0.703125 0
  0.687500   0.765625 0
  0.687500   0.750000 0
  0.921875   0.656250 0
  0.687500   0.718750 0
  0.921875   0.625000 0
  0.687500   0.687500 0
  0.921875   0.593750 0
  0.687500   0.656250 0
  0.640625   1.000000 0
  0.921875   0.562500 0
  0.687500   0.625000 0
  0.640625   0.968750 0
  0.687500   0.609375 0
  0.687500   0.578125 0
  0.937500   0.687500 0
  0.921875   0.671875 0
  0.671875   0.921875 0
  0.906250   0.656250 0
  0.671875   0.906250 0
  0.671875   0.875000 0
  0.906250   0.718750 0
  0.671875   0.781250 0
  0.671875   0.765625 0
  0.671875   0.734375 0
  0.906250   0.640625 0
  0.671875   0.703125 0
  0.906250   0.609375 0
  0.671875   0.671875 0
  0.906250   0.578125 0
  0.671875   0.640625 0
  0.625000   0.984375 0
  0.671875   0.609375 0
  0.625000   0.953125 0
  0.671875   0.593750 0
  0.671875   0.562500 0
  0.765625   0.953125 0
  0.812500   0.609375 0
  0.656250   1.000000 0
  0.656250   0.953125 0
  0.656250   0.906250 0
  0.890625   0.640625 0
  0.656250   0.890625 0
  0.656250   0.859375 0
  0.890625   0.734375 0
  0.656250   0.796875 0
  0.812500   0.921875 0
  0.562500   1.000000 0
  0.625000   0.828125 0
  0.812500   0.843750 0
  0.843750   0.593750 0
  0.812500   0.812500 0
  0.625000   0.718750 0
  0.828125   0.687500 0
  0.640625   0.593750 0
  0.812500   0.781250 0
  0.625000   0.687500 0
  0.765625   0.828125 0
  0.640625   0.562500 0
  0.812500   0.750000 0
  0.562500   0.828125 0
  0.781250   0.875000 0
  0.546875   0.937500 0
  0.781250   0.671875 0
  0.781250   0.593750 0
  0.546875   0.656250 0
  0.796875   0.750000 0
  0.562500   0.812500 0
  0.796875   0.546875 0
  0.765625   0.796875 0
  0.765625   0.593750 0
  1.000000   0.531250 0
  0.812500   0.718750 0
  0.859375   0.562500 0
  0.625000   0.625000 0
  0.812500   0.703125 0
  0.812500   0.906250 0
  0.578125   0.968750 0
  0.984375   0.593750 0
  0.828125   0.578125 0
  0.828125   0.781250 0
  0.593750   0.843750 0
  0.812500   0.671875 0
  0.625000   0.578125 0
  0.796875   0.671875 0
  0.562500   0.734375 0
  0.984375   0.562500 0
  0.828125   0.546875 0
  0.812500   0.640625 0
  0.750000   0.812500 0
  0.625000   0.546875 0
  0.796875   0.640625 0
  0.562500   0.703125 0
  0.828125   0.515625 0
  0.781250   0.734375 0
  0.546875   0.796875 0
  0.781250   0.531250 0
  0.750000   0.781250 0
  0.625000   0.515625 0
  0.796875   0.609375 0
  0.562500   0.671875 0
  0.765625   0.656250 0
  0.765625   0.859375 0
  0.531250   0.921875 0
  0.812500   0.578125 0
  0.562500   0.656250 0
  0.984375   0.687500 0
  0.750000   0.750000 0
  0.812500   0.562500 0
  0.812500   0.765625 0
  0.578125   0.828125 0
  0.562500   0.625000 0
  0.984375   0.656250 0
  0.750000   0.718750 0
  0.812500   0.531250 0
  0.781250   0.656250 0
  0.546875   0.718750 0
  0.781250   0.625000 0
  0.546875   0.687500 0
  0.750000   0.640625 0
  0.796875   0.531250 0
  0.562500   0.593750 0
  0.984375   0.625000 0
  0.750000   0.687500 0
  0.546875   0.984375 0
  0.609375   0.812500 0
  0.796875   0.875000 0
  0.546875   0.953125 0
  0.609375   0.578125 0
  0.843750   0.515625 0
  0.765625   0.515625 0
  0.765625   0.718750 0
  0.531250   0.781250 0
  0.984375   0.546875 0
  0.750000   0.609375 0
  0.796875   0.828125 0
  0.671875   0.968750 0
  0.796875   0.796875 0
  0.796875   0.765625 0
  0.609375   0.671875 0
  0.796875   0.734375 0
  0.546875   0.812500 0
  0.796875   0.703125 0
  0.843750   0.546875 0
  0.609375   0.609375 0
  0.796875   0.687500 0
  0.562500   0.953125 0
  0.796875   0.656250 0
  0.609375   0.562500 0
  0.796875   0.625000 0
  0.609375   0.531250 0
  0.546875   0.640625 0
  0.765625   0.671875 0
  0.531250   0.734375 0
  0.796875   0.515625 0
  0.765625   0.640625 0
  0.531250   0.703125 0
  0.703125   1.000000 0
  0.765625   0.609375 0
  0.531250   0.671875 0
  0.765625   0.578125 0
  0.531250   0.640625 0
  0.546875   0.609375 0
  0.531250   1.000000 0
  0.890625   0.593750 0
  0.656250   0.656250 0
  0.781250   0.515625 0
  0.546875   0.578125 0
  0.531250   0.968750 0
  0.890625   0.562500 0
  0.656250   0.625000 0
  0.609375   0.968750 0
  0.781250   0.859375 0
  0.656250   0.593750 0
  0.750000   0.703125 0
  0.515625   0.765625 0
  0.781250   0.812500 0
  0.781250   0.781250 0
  0.593750   0.687500 0
  0.781250   0.750000 0
  0.593750   0.656250 0
  0.781250   0.718750 0
  0.531250   0.796875 0
  0.828125   0.562500 0
  0.593750   0.625000 0
  0.781250   0.687500 0
  0.828125   0.531250 0
  0.593750   0.593750 0
  0.812500   0.625000 0
  0.578125   0.687500 0
  0.781250   0.640625 0
  0.781250   0.609375 0
  0.593750   0.515625 0
  0.515625   0.781250 0
  0.812500   0.546875 0
  0.578125   0.609375 0
  0.812500   0.515625 0
  0.578125   0.578125 0
  0.750000   0.656250 0
  0.515625   0.718750 0
  0.750000   0.625000 0
  0.515625   0.687500 0
  0.687500   0.984375 0
  0.750000   0.593750 0
  0.515625   0.656250 0
  0.531250   0.546875 0
  0.750000   0.562500 0
  0.515625   0.625000 0
  0.531250   0.515625 0
  0.984375   0.515625 0
  0.750000   0.578125 0
  0.515625   0.531250 0
  0.828125   0.796875 0
  0.640625   0.703125 0
  0.828125   0.765625 0
[...]
CELL_DATA 7648
SCALARS scalar_value float 1
LOOKUP_TABLE default
0.0296868
0.031247
0.000434785
0.000344372
0.000364003
0.000275156
0.000113311
0.000130807
0.000140064
0.000140891
0.000525318
0.000710705
0.00094092
0.000694919
0.00109246
0.0011248
0.00131648
0.000900186
0.0189905
0.0220348
0.0177359
0.0209919
0.0233867
0.0254815
0.0366819
0.0375175
0.0404894
0.0346335
0.044075
0.0445738
0.046746
0.0414803
4.57611e-06
5.62068e-06
9.54855e-06
3.95166e-06
0.00171203
0.00159921
0.0340158
0.0306661
0.00142831
0.0015111
0.0544739
0.054565
1.47112e-05
2.30207e-05
1.99154e-05
3.78704e-05
2.82526e-05
5.11894e-05
4.61741e-05
8.90517e-05
9.52753e-05
0.000148851
0.00014302
0.000211846
0.012595
0.0136471
0.0161862
0.0152992
0.0173465
0.0191546
0.000143029
0.000181404
0.000209692
0.000221987
0.000298079
0.00041492
0.000333484
0.000236923
0.000214596
0.000250019
0.000151812
0.0180203
0.0533375
0.000232669
0.00016533
0.00017345
0.00012071
0.000401053
0.000315162
0.000230141
0.000304914
0.000668273
0.000516692
0.000528806
0.000413588
0.0199488
0.0218764
0.0247295
9.75503e-06
1.44751e-05
1.95249e-05
1.79476e-05
2.848e-05
3.25226e-05
4.65557e-05
2.55379e-05
5.63524e-05
7.65944e-05
6.24344e-05
3.1354e-05
4.40304e-05
5.45313e-05
0.0241814
5.9318e-07
6.78243e-07
1.25399e-06
0.00151801
0.00152449
0.0015724
0.00140591
1.11585e-05
1.27774e-05
1.98985e-05
8.74054e-06
7.32754e-06
1.26422e-05
7.10792e-06
0.000285351
0.00033805
0.000350873
0.000378481
0.000452956
0.000463939
0.000413318
0.000550375
0.00129762
0.00131936
0.00149644
0.00112099
0.000223824
0.000243207
0.000300729
0.000215907
9.94592e-05
0.000109808
0.000101821
0.000128528
0.00113429
0.00130451
0.00134206
0.00061693
0.000770352
0.00084597
0.00103942
0.00128719
0.00102958
0.0131374
0.0150315
0.0168176
0.0137793
0.0141492
0.0156909
0.0126054
0.00850012
0.00848963
0.00963849
0.00687851
4.02036e-05
5.36198e-05
0.0012698
0.00134061
0.00165038
0.00107552
0.0380293
0.000913845
0.000975603
0.00122743
0.000785923
0.0122281
0.0105994
0.0103282
0.00976429
1.52781e-05
1.73206e-05
0.000176317
0.000194096
0.000250594
0.000160456
0.000274942
0.000225391
0.000246299
0.000175298
0.019655
0.0216789
0.0237507
0.0222123
0.0249261
0.027267
0.0298879
0.0673837
0.0746735
0.000142433
0.000154975
0.000200494
0.000122842
0.0139477
0.0141486
0.0154581
0.0127857
5.59149e-05
6.93184e-05
7.91726e-05
7.62789e-05
7.62538e-06
8.98868e-06
9.7328e-05
0.000108543
0.000138804
9.46246e-05
0.000110427
0.000143298
0.000171989
0.000165475
0.000104889
0.000132707
0.000156429
0.0001477
0.000396699
0.000516078
0.000494844
0.000636539
0.000557788
0.000569372
0.000765285
0.000249507
0.0002679
0.00028698
0.000244743
0.000105828
0.000115594
0.000108308
0.000129814
0.000319984
0.00033393
0.000417344
0.000259586
0.000162453
0.000172021
0.000158304
0.000195879
0.000535409
0.000557448
0.000679371
0.000449179
0.0588563
0.0591141
0.0078905
0.00831353
0.00886423
0.00836848
0.00910777
0.00858456
0.00829941
0.00816491
0.00707131
0.00612003
0.00678035
0.000115499
0.000127116
0.000162899
0.000110367
0.000147145
0.000191424
0.000251359
0.000203749
0.000126295
0.000156384
0.000178037
0.000177203
0.000908142
0.000987216
0.00117964
0.00110425
0.00112713
0.00125859
0.000956292
0.0184198
0.0206881
0.0227971
0.0181645
0.0200639
0.0161228
0.022508
0.0250917
0.0203693
0.0141633
0.0160285
0.0120923
0.0266685
0.0265418
0.0279823
0.023708
0.00874437
0.0093611
0.000553672
0.000475865
1.36353e-06
0.000113916
3.26403e-06
0.015261
0.00463419
6.8642e-05
7.80744e-05
0.00062535
0.000129868
7.09903e-05
0.000168342
0.000848038
0.000163094
0.00262509
0.000303772
0.0019652
0.00016217
0.000153709
0.00010911
0.00371698
0.00304013
0.0387573
0.0282663
0.00460975
0.0146905
0.0156328
0.00173018
0.00681141
0.000402407
0.00870241
0.00121484
0.00815346
0.000765727
0.000891081
0.000308675
0.000139801
0.000187275
9.82418e-05
0.000106653
4.27602e-05
7.60459e-05
0.0135687
0.0154815
0.0101365
0.0463193
0.011772
0.00848922
1.48528e-05
6.2857e-06
0.0588791
1.81484e-05
0.000840537
0.000241062
0.000178233
0.000426592
4.97889e-05
0.0284534
0.016187
0.0138294
0.0552836
0.0668934
0.0106708
0.00149003
0.00169931
0.00152343
0.0137495
0.0117855
0.0236976
0.00158429
0.0017678
0.00184823
0.01497
0.0219248
0.052045
0.0493714
0.00721598
2.56872e-06
0.000278355
0.00514148
0.010256
0.0109744
0.00128756
0.0131445
0.00220384
0.0099844
0.00596957
0.00622185
0.00501335
0.00230915
0.00200744
0.00176732
0.0105698
0.0127221
0.0105345
0.0194551
0.0015357
0.0150492
0.0116465
0.0139983
0.0109324
0.00186163
0.00227003
0.000246266
0.00085492
0.00027112
0.000888175
0.0115368
0.00031574
4.41253e-05
0.00106509
0.000259082
2.26909e-05
0.000734773
0.0367106
0.0105599
0.05494
0.0122897
0.0100113
0.00131453
0.00921977
0.0513639
2.23368e-05
5.34908e-05
0.00738045
0.0450824
0.00313961
0.012266
0.000493172
0.00210312
1.72887e-05
7.1118e-07
5.41507e-07
0.00207871
0.0302068
0.000302885
1.62989e-05
0.000696235
0.00148128
0.0166076
0.00166962
0.0018639
0.00101285
0.0010359
0.00117615
0.0160639
0.00738086
0.00859795
0.000577998
0.00511708
0.00506784
0.0128875
0.0139554
0.0139218
0.00124832
0.00126631
0.00672623
0.0101251
0.00583216
0.00668811
0.00261199
0.000214124
0.000176071
0.00513593
0.00364844
0.000837893
0.0100459
0.0263555
0.00138733
0.000789541
0.000810932
0.00896501
0.000964267
0.000650555
0.000657351
0.000533529
0.000516781
0.0062673
5.94866e-05
7.24123e-05
0.0041437
0.0749337
0.034231
0.0043367
0.0137456
0.0137591
0.00310343
0.000431216
0.00263976
0.00324782
0.00434107
0.00174221
0.0172059
0.0137571
0.0325148
0.0302363
0.037455
0.000810397
0.00152687
0.0293566
0.00595551
0.00588698
0.00502271
0.0257685
0.000241748
0.00370227
0.000549352
0.000969018
0.00134007
9.50711e-05
0.00506554
0.00463251
0.000523395
0.00535233
0.0146279
0.00126944
0.019688
0.00885316
0.00843045
0.0484993
0.00731222
0.00741974
0.0373925
0.0359116
0.0105278
0.0730239
0.0554617
0.0339939
0.00129841
0.000243574
0.00037999
3.23668e-05
0.00129606
0.00113312
0.0711013
0.0124467
0.000796019
0.00053609
0.014268
2.47535e-06
0.0449579
0.00637705
0.0150568
0.00103392
0.0182215
0.00130821
0.0172687
0.0157151
0.0175518
3.26814e-06
8.41976e-05
0.0362179
9.95764e-05
0.000125357
5.46381e-05
6.42735e-05
0.0207283
0.00707113
8.33482e-05
0.000992694
0.000345576
0.0043247
0.0307935
8.46593e-07
1.07564e-06
0.0344186
1.83245e-06
0.00161189
0.0126494
0.00176875
0.00065527
0.00533754
0.00113449
0.00956174
0.00114041
0.0107202
0.00263728
0.0027711
0.000226386
0.00331899
0.00030206
0.0022989
0.000156944
0.000763304
0.00373837
0.00392708
0.0109251
2.11217e-05
2.42237e-05
3.40573e-05
0.00123932
2.01454e-05
0.000987095
0.000326578
0.000514752
3.85854e-05
0.00134117
0.000839966
3.83675e-05
2.87163e-05
0.00106501
4.15141e-05
4.57265e-05
8.74641e-06
3.38315e-07
0.00098805
2.57171e-05
0.00247171
1.52962e-05
2.37247e-05
1.15036e-05
0.0144801
0.00428866
0.0133807
0.000954452
0.00633894
0.0111347
0.00153889
0.00157048
0.00179104
0.000661536
0.00546949
6.21987e-05
0.000786693
0.0118297
0.0494631
0.0169431
0.00214246
4.04893e-05
0.000839698
0.00569452
0.000817812
0.00715852
0.00692043
0.000252509
0.00440911
0.0275743
0.0010806
0.0123976
8.20887e-05
0.0165912
0.0174422
0.0193489
0.0154591
0.00774616
7.70133e-06
0.0177411
0.0473885
0.00866996
0.0512407
0.0100514
0.0172042
0.0475656
0.0495823
0.00222163
0.00254394
0.00705511
0.000270343
0.00354711
0.000428063
0.0318646
0.000661086
0.0760188
0.00253544
0.000253039
0.0022508
0.0247815
9.06979e-05
0.000996395
0.00188806
0.0020001
0.0567395
0.0610248
0.0136182
0.000464156
1.47664e-05
0.000801066
2.4189e-05
0.000133848
0.00205149
0.000514839
0.0057426
0.00918757
0.00301281
0.00230256
0.0214453
0.00714227
0.00303121
0.0266155
2.55702e-06
0.00258495
0.00231422
0.000985198
0.00266131
0.00264592
0.00368903
0.00315432
0.0328771
0.029769
0.0304319
0.0328753
8.04938e-07
0.0224495
0.00465485
1.50434e-06
0.0277653
0.00205933
3.27065e-06
0.0337649
0.00632683
0.00264299
5.03091e-05
0.0127941
2.82844e-06
0.011299
0.0233303
0.02813
0.000709135
0.016724
0.00201169
0.00433796
0.000795852
0.00697188
0.0177869
0.00597433
0.000672926
0.000671994
4.21265e-07
0.00150983
0.00176043
0.00956927
5.92621e-05
0.00146913
0.0398063
0.0251454
0.00355577
0.00530691
0.00128125
0.0172219
0.00272528
0.00461922
0.00102606
0.00442277
0.00404149
0.000753432
0.0022986
0.0209015
0.000341266
0.014896
0.00612123
0.0188848
0.00698667
0.00282433
0.000337589
0.00682878
0.0036926
0.00147219
0.012117
0.0118872
0.00113493
0.000396498
0.00255886
0.00153764
0.00573307
0.000377175
0.000402572
0.0306524
1.71113e-06
0.00360123
0.00753986
0.00123133
0.00821796
0.000425683
1.53946e-06
0.000169856
0.0423782
0.000396814
0.00905903
0.000367542
2.3847e-05
0.000818905
0.00411536
0.000298305
1.03751e-05
0.000633932
0.000685788
0.000512441
0.00565657
0.0427103
0.000525951
0.0435733
0.00618502
0.000810516
0.0073015
0.00318353
0.00752911
0.000644261
0.000640777
0.0465542
0.00701414
0.00601145
0.00531196
5.0935e-05
0.00303424
0.00100245
0.00777706
6.17358e-05
0.00470956
0.0020399
0.000457923
0.00945377
0.000955448
0.000356405
0.068458
0.000818396
0.00502184
0.00448342
0.0215801
0.000134722
0.0335659
0.00426222
0.000175868
0.0329081
0.000208094
0.000514026
7.87259e-07
0.0161667
0.00837612
0.00224273
0.0138964
0.0225906
0.00168625
0.0183266
0.0219879
0.0055529
0.001364
0.012323
0.00131155
4.86124e-05
0.000282875
2.68411e-06
0.00193762
0.00397039
0.00526993
0.0345533
0.00398384
0.00442279
5.93392e-05
0.0730681
0.0315111
0.00553962
0.0203832
0.000104621
0.00159064
0.00144191
5.57277e-05
0.000708983
0.00166497
0.00728292
0.011393
0.00407132
0.0087781
0.00111806
0.0200594
0.0118822
0.00116127
0.0457492
0.0116895
0.00816942
0.000228756
3.38257e-05
0.0104413
0.000184447
8.40608e-05
0.000404189
1.26322e-06
0.00809793
0.000803342
0.000309164
0.00466338
0.0288929
5.51643e-05
5.45615e-05
0.0175588
2.69848e-05
0.00942994
7.47526e-05
0.00455769
0.000722554
0.0009199
0.017133
0.000278365
0.0113594
0.000212333
0.00486905
0.001434
8.61975e-06
0.00149305
0.0204437
0.00686456
0.0019303
0.00857472
5.29573e-05
0.000973704
0.0112656
0.00423712
0.0520468
0.0094317
0.0164012
0.0105019
0.0275661
0.000442371
6.05109e-06
0.000480048
0.000192931
0.00113043
0.0174178
0.000545631
0.0250647
0.0324981
0.00471354
0.00617208
1.14571e-05
0.00161571
0.00127195
0.00133409
0.00199591
0.00196132
0.00181692
0.0017147
0.000254783
0.00167821
0.00310084
0.0390019
0.0311039
0.00181749
0.0686225
0.018162
0.0209606
0.00178092
1.15622e-05
7.0884e-05
1.00606e-05
0.00997685
0.000156285
0.00430456
0.0436255
0.00539528
0.00663305
0.0421318
0.0163097
0.00177533
0.0102569
0.0251796
0.00242225
0.057761
0.00619171
0.000807869
0.00169825
0.00315463
0.000131222
0.00234774
0.0416993
0.0062663
0.000361102
4.13773e-06
0.00923641
0.0212936
0.00184754
0.000216931
0.00215217
0.00189289
0.00314693
0.00021891
1.74312e-06
0.00567001
0.00164731
0.00196907
0.00383407
0.00211593
0.00355948
0.000591748
0.000947702
0.00186671
0.0254496
0.00532951
0.000366216
0.0607539
0.00576779
0.00243789
0.00406019
0.00501074
0.00636703
0.00602361
0.00024251
7.41828e-05
7.29367e-05
0.00486005
0.000298147
0.00299137
0.0280807
0.0124188
0.0482085
0.0155246
7.95002e-05
0.000433234
0.000212639
0.0276869
0.00105335
0.040582
0.000558077
0.0028951
0.000808933
0.0143004
0.00812988
0.000565473
0.00527116
0.000957722
0.0198243
0.00336578
0.000217262
0.000371618
0.00283967
0.0253522
6.50275e-05
0.0156542
0.00650722
0.000291291
0.0115011
6.5473e-05
0.00485193
0.000760759
0.00201984
0.00713793
0.0200689
0.0151505
0.0707954
0.0153924
0.0246671
0.00581014
0.0158708
4.63625e-05
0.00278282
0.0054587
0.00134959
0.00325155
0.0373347
0.00626839
0.00134485
0.0059047
0.0214349
0.0579684
0.0228834
0.00165476
0.001388
0.00114723
0.00135935
0.00110338
0.000480465
0.00103217
0.000218458
0.000263458
0.008649
0.0065928
2.23381e-06
0.0380145
0.0191155
0.00142904
0.000784461
0.00111625
0.0145041
0.00894043
1.21438e-05
0.00160755
0.00143502
0.000730153
0.00181315
0.0194164
0.000123745
0.0222296
0.0391224
0.0356282
0.0346916
0.0374374
0.0246757
0.000111278
0.0018982
0.0272709
0.0296798
0.0244147
6.99786e-05
0.00170616
0.0172936
9.56792e-05
0.00201184
0.000175235
0.00280657
0.00150749
0.000154433
0.00148673
8.69638e-05
0.0673516
0.0434559
0.000569371
0.0471706
0.0213204
0.00358849
0.0257987
0.0233101
0.0225236
0.0220708
0.0266207
0.0292668
0.0230814
0.0202303
0.00199689
0.00367058
0.0017458
0.00319079
0.0288981
0.002529
0.0261082
0.00111327
3.32088e-05
0.000948501
6.72157e-05
0.0182043
0.0151596
0.00370291
0.00434781
0.0457989
0.049643
0.00866869
0.0489099
9.00262e-05
0.000103189
0.00448087
0.00444999
0.0015643
0.00132344
0.0184186
0.00119409
0.0276832
0.00256696
0.00226761
0.00201632
0.0121958
0.0311804
0.00150918
0.00159502
0.00162989
0.0260947
0.00170198
0.0016566
3.0164e-05
0.0139582
0.000769059
1.68997e-05
0.000736731
0.0448859
0.000101623
0.00170104
0.000148591
0.00207552
8.02668e-05
0.0178908
0.0668544
0.00400246
0.00945355
0.00412343
0.00386776
0.00360124
0.00818616
0.0130995
0.011579
0.00496501
0.00513315
0.0133826
0.00597266
0.00452304
0.0121529
0.00433608
0.0148276
0.00466998
0.0142208
0.00449009
6.14872e-05
1.70323e-06
0.000539698
0.00142295
7.04218e-05
0.0011961
3.67016e-05
9.44198e-07
3.31603e-05
0.00165134
0.00352335
0.0275412
0.00453501
0.0299979
0.00372606
0.00610032
0.00727825
0.00877523
0.0425622
0.00497548
0.00451932
0.00603125
0.00485475
0.0363903
0.0647994
0.024404
0.00194899
0.0503422
0.00760483
0.061746
0.0172988
0.0111224
0.00322705
0.0672863
0.000569079
0.00112599
0.000498937
3.19011e-05
0.0010996
0.000220019
0.00249709
0.00011091
5.06605e-05
0.00128741
0.0350232
0.00506445
0.000495176
0.00593864
0.00516505
0.00848026
0.0128606
0.0203691
0.00730766
0.00720368
0.00789737
0.00128772
0.000399296
0.00304134
0.00082923
0.011403
0.00159975
0.0191473
0.0167028
0.010345
1.46864e-05
0.00379789
0.000417683
0.0301142
0.00213647
8.82236e-05
0.00247204
0.00272279
0.00374632
0.00344609
0.000381301
0.000298985
0.0023318
0.000384956
0.00774844
0.000240061
0.0215759
0.0396025
0.00611544
0.000325142
0.00853663
0.00669924
0.00133566
1.20289e-06
0.00395196
0.000208089
2.10861e-06
0.0165788
0.015705
0.0195993
0.0630943
0.00013746
0.0185964
0.0149206
0.0169763
0.0146934
0.0138652
0.00139473
0.00260793
0.012204
0.000184293
0.000154121
0.000146105
0.000105975
0.000115387
4.69757e-06
0.0405485
0.037798
0.0423064
0.0438018
0.0613026
0.05111
0.00981847
0.0567278
0.0114652
0.0540959
0.0103866
0.0531122
0.0067084
0.0386669
0.0448205
0.0415994
0.0405635
0.0138669
0.0156625
0.0120428
0.000655347
0.00719385
0.00702864
0.00126343
0.00592878
0.00826416
0.00885219
0.0250707
4.66125e-05
5.80758e-05
0.0141891
6.65542e-05
4.60122e-05
0.0189739
0.000291366
2.12138e-06
1.49641e-06
9.75511e-07
0.00110072
0.00870599
0.000864117
4.21031e-05
0.00120721
0.00138221
0.00115534
0.000925172
0.032814
0.00792891
0.0311791
0.0302388
0.00389486
0.000128574
0.000135443
0.0289896
0.00195797
0.00237088
0.00280784
3.83056e-06
0.00431536
0.00462983
0.00362381
0.00417343
0.00450165
0.0238704
0.0287836
0.0261292
0.0253007
0.00021143
0.00176371
0.00141847
0.00127012
0.00131201
0.0011712
0.00035561
0.02885
0.0478778
0.0467754
0.0497404
0.00793976
0.00284287
0.000425112
0.00270705
0.0705541
0.0711799
0.00345224
0.00405488
0.00369572
0.00360776
7.65549e-05
8.99292e-05
7.9021e-05
0.0143243
0.0034976
0.00295929
0.0279882
0.00354257
0.00413531
0.0152055
0.012524
0.000658027
0.000966163
0.000304084
0.000395803
0.00029533
0.00266136
0.000219174
0.00222599
0.00185918
0.00771225
0.00359386
0.0042323
0.00448922
0.022094
0.029755
0.00249973
0.00212244
0.00185998
0.00154978
0.00502664
0.00664041
0.00749659
0.000317026
0.0331041
0.00411935
0.000520858
0.00350581
0.00332542
2.30497e-06
0.0125111
0.000536912
0.000660147
0.000410372
0.0242676
0.00911194
0.000782221
8.6479e-05
0.00400898
0.00030934
0.00334999
0.000239684
0.00318957
0.00214175
0.00200395
0.00198095
0.00173878
0.00658092
0.00887639
0.00947245
0.0294534
0.0130131
0.00107739
0.00322539
0.0112136
0.000922968
0.0224915
0.0266608
0.00313402
0.00290663
0.00650896
0.00082299
0.00570011
0.0317872
0.0116997
0.0125918
0.0175932
0.0330881
0.0191422
0.0201981
0.00165695
0.0184136
0.016404
5.67072e-06
0.000952984
0.00790838
0.000859755
0.000904883
0.00226931
0.0171635
0.0019808
0.0295468
0.000102128
7.96181e-05
4.79727e-06
0.000463617
4.92025e-06
4.0515e-06
2.83095e-06
0.00678274
0.00660234
0.00161086
0.00983411
0.00985177
0.0201479
0.0178066
0.0036918
0.0380724
0.0661599
0.00759847
0.00734826
0.00932282
0.0087968
0.00911049
0.00756337
0.00894005
0.0107283
0.0099162
0.0071922
0.000835758
0.000989961
0.00090808
0.000223561
0.000164862
0.00407986
0.00550197
0.00488794
0.00494008
0.000510693
0.000739945
0.0141783
0.0010834
0.000657152
0.0669671
0.0180557
0.0747492
0.0719765
0.0716187
0.0243345
0.0273973
0.0248866
0.0235763
0.0247365
0.00388385
0.00389084
0.000974628
0.000676655
0.00087072
0.000322844
0.00130462
0.000445418
0.00758404
0.00492956
0.00423031
0.00575929
0.0257418
0.00153977
0.00129281
0.000960998
0.0001136
0.00246283
0.0108714
0.0266409
0.0096397
0.00159289
0.00543346
0.00542264
0.00634936
0.0205676
0.0208146
0.0011258
0.00999008
0.00746446
0.00244452
0.00147446
0.00180318
0.0079357
0.00968053
0.0102786
0.0119243
0.0132063
0.0113152
0.0193357
0.0079387
0.0107972
0.0128608
0.0107549
0.000312389
0.000414854
0.0611397
0.0465642
0.0439009
0.0418552
2.57499e-05
3.51775e-05
0.0528191
0.0499612
0.0463971
0.00708826
0.00148088
0.00114628
0.0109655
0.00913633
0.0110501
0.0124754
4.82647e-05
5.18882e-05
0.00138611
0.00164075
0.00159914
0.0018278
0.0543882
0.0526732
0.0568117
0.00615549
0.0366443
7.04555e-06
4.86664e-06
3.14392e-06
0.000693382
0.00307333
0.00323507
0.00290255
0.00246788
1.22043e-06
1.86701e-06
0.0235835
0.00420711
0.000600849
0.000547369
0.000550014
0.00024574
0.000144608
0.000324582
0.00333446
0.027451
0.0282436
0.0241442
0.00778921
0.00634236
0.010907
0.00984704
0.000954565
0.00318059
0.0044411
0.00684837
0.016694
0.0408099
0.00476791
0.00537487
0.00455505
0.00887381
0.00213772
0.0324974
0.0381738
0.00252302
0.00245959
0.0374301
0.00119837
0.000939964
0.0403463
0.0100089
0.0124052
0.0115081
0.011599
0.0092108
0.00304836
0.00290447
0.00241458
0.00722001
0.0088599
0.00711574
0.00918399
0.010721
0.00100796
0.00943482
0.00890303
0.0360034
0.00758319
0.0156474
0.0142088
0.00957951
0.00135786
0.0340285
0.00599496
0.00748231
0.00868488
0.0353565
0.0387979
0.00310236
0.0412375
0.0569117
0.000395301
0.000290168
0.0206889
0.00309249
0.00456151
0.00199444
0.00147227
0.0312196
2.56446e-06
2.98991e-06
2.21094e-06
1.52213e-06
0.0233824
0.0041064
0.00458126
0.00458237
0.0054195
0.00652229
0.00127366
0.00256004
0.000705534
0.00062257
0.000616328
0.00538835
0.00655402
0.00674009
0.000125687
0.000137974
9.13082e-05
0.000951979
0.00116145
0.000994594
0.000643673
0.000718714
0.000601538
0.000514906
0.0168607
0.00985799
0.0120473
0.000787464
0.0108649
0.0104815
0.000847305
0.000861498
0.000689271
0.00054336
0.0106052
0.0125867
0.00553308
0.0246446
0.0202584
0.00483263
0.00549118
0.0056499
0.0292483
0.00114226
0.0157237
0.0182271
0.0202138
0.00591796
0.000841976
0.00105881
0.00130218
0.0393613
0.0352768
0.02062
0.022956
0.0227144
0.00303555
0.00259681
0.00227578
0.063753
0.0635609
0.0601358
0.0093058
0.0217216
0.0181299
0.00033656
0.000227118
2.24902e-06
0.00815058
0.000152883
0.000103386
9.75968e-05
0.00100231
2.29301e-06
9.34347e-05
0.000110459
6.57415e-05
0.00368292
0.00684654
0.00323499
0.0245474
0.00221891
0.00266385
0.00320502
0.000607782
0.000707043
0.000473633
0.000222071
0.000203638
0.00112546
0.00234227
0.0331696
0.00210943
0.00202285
0.0620499
0.00222028
0.00263194
0.00255785
0.0408636
0.0263181
0.016354
0.0184073
0.068187
0.0277659
0.0267555
0.00233543
0.0332474
0.002659
0.00348296
0.0021847
3.72702e-05
0.00061499
0.000712216
0.000438729
0.0267099
0.0298132
0.0290446
0.000306817
0.000347139
0.0279174
0.0256074
8.75536e-05
7.56828e-05
5.88931e-05
0.00156998
0.00121534
0.000655817
0.00087734
0.000984197
0.032489
0.0308818
0.0334508
0.036422
0.000607823
0.000320573
0.00041263
0.0076998
0.0100943