# vtk DataFile Version 2.0
Unstructured Grid by M++
ASCII
DATASET UNSTRUCTURED_GRID
POINTS 4072 float
  0.828125   0.890625 0
  0.875000   0.531250 0
  0.828125   0.750000 0
  0.593750   0.968750 0
  0.828125   0.671875 0
  0.828125   0.875000 0
  0.593750   0.937500 0
  0.828125   0.656250 0
  0.828125   0.640625 0
  0.828125   0.843750 0
  0.593750   0.906250 0
  0.828125   0.625000 0
  0.781250   0.968750 0
  0.828125   0.609375 0
  0.828125   0.812500 0
  0.593750   0.875000 0
  0.593750   0.828125 0
  0.593750   0.796875 0
  0.828125   0.703125 0
  0.593750   0.765625 0
  0.828125   0.937500 0
  0.812500   0.875000 0
  0.859375   0.515625 0
  0.812500   0.734375 0
  0.812500   0.937500 0
  0.578125   1.000000 0
  0.578125   0.750000 0
  0.812500   0.687500 0
  0.578125   0.953125 0
  0.812500   0.656250 0
  0.812500   0.859375 0
  0.578125   0.921875 0
  0.812500   0.828125 0
  0.578125   0.890625 0
  0.812500   0.593750 0
  0.812500   0.796875 0
  0.578125   0.859375 0
  0.578125   0.812500 0
  0.578125   0.781250 0
  0.796875   1.000000 0
  0.796875   0.859375 0
  0.796875   0.718750 0
  0.562500   0.984375 0
  0.562500   0.937500 0
  0.796875   0.843750 0
  0.562500   0.906250 0
  0.796875   0.812500 0
  0.562500   0.875000 0
  0.796875   0.578125 0
  0.796875   0.781250 0
  0.562500   0.843750 0
  0.812500   0.984375 0
  0.562500   0.796875 0
  0.812500   0.953125 0
  0.562500   0.765625 0
  0.796875   0.937500 0
  0.546875   0.750000 0
  0.781250   0.984375 0
  0.828125   0.593750 0
  0.781250   0.843750 0
  0.781250   0.937500 0
  0.546875   1.000000 0
  0.781250   0.703125 0
  0.546875   0.968750 0
  0.546875   0.921875 0
  0.781250   0.828125 0
  0.546875   0.890625 0
  0.781250   0.796875 0
  0.546875   0.859375 0
  0.781250   0.562500 0
  0.781250   0.765625 0
  0.546875   0.828125 0
  0.796875   0.968750 0
  0.546875   0.781250 0
  0.765625   1.000000 0
  0.765625   0.968750 0
  0.531250   0.984375 0
  0.765625   0.687500 0
  0.531250   0.953125 0
  0.531250   0.937500 0
  0.531250   0.906250 0
  0.765625   0.812500 0
  0.531250   0.875000 0
  0.765625   0.781250 0
  0.531250   0.843750 0
  0.781250   1.000000 0
  0.765625   0.546875 0
  0.765625   0.750000 0
  0.531250   0.812500 0
  0.781250   0.953125 0
  0.531250   0.765625 0
  0.515625   0.750000 0
  0.750000   0.984375 0
  0.750000   0.953125 0
  0.796875   0.593750 0
  0.796875   0.562500 0
  0.750000   0.843750 0
  0.750000   0.937500 0
  0.515625   1.000000 0
  0.750000   0.906250 0
  0.515625   0.968750 0
  0.750000   0.671875 0
  0.750000   0.875000 0
  0.515625   0.937500 0
  0.515625   0.921875 0
  0.515625   0.890625 0
  0.750000   0.796875 0
  0.515625   0.859375 0
  0.750000   0.765625 0
  0.515625   0.828125 0
  1.000000   0.718750 0
  0.750000   0.531250 0
  0.750000   0.734375 0
  0.515625   0.796875 0
  0.734375   1.000000 0
  0.734375   0.968750 0
  0.734375   0.937500 0
  0.781250   0.578125 0
  0.781250   0.546875 0
  0.968750   0.578125 0
  0.734375   0.828125 0
  0.968750   0.546875 0
  0.734375   0.796875 0
  0.734375   0.765625 0
  0.968750   0.671875 0
  0.734375   0.734375 0
  0.968750   0.640625 0
  0.734375   0.703125 0
  0.968750   0.609375 0
  0.734375   0.671875 0
  0.734375   0.656250 0
  0.734375   0.625000 0
  0.968750   0.531250 0
  0.734375   0.593750 0
  0.984375   0.734375 0
  0.984375   0.703125 0
  0.734375   0.515625 0
  0.718750   0.984375 0
  0.718750   0.953125 0
  0.718750   0.921875 0
  0.953125   0.562500 0
  0.718750   0.812500 0
  0.953125   0.531250 0
  0.718750   0.781250 0
  0.718750   0.750000 0
  0.953125   0.656250 0
  0.718750   0.718750 0
  0.953125   0.625000 0
  0.718750   0.687500 0
  0.953125   0.593750 0
  0.718750   0.656250 0
  0.671875   1.000000 0
  0.718750   0.640625 0
  0.718750   0.609375 0
  0.953125   0.515625 0
  0.718750   0.578125 0
  0.968750   0.718750 0
  0.968750   0.687500 0
  0.953125   0.671875 0
  0.703125   0.968750 0
  0.703125   0.937500 0
  0.937500   0.656250 0
  0.703125   0.906250 0
  0.937500   0.546875 0
  0.703125   0.796875 0
  0.937500   0.515625 0
  0.703125   0.765625 0
  0.937500   0.671875 0
  0.703125   0.734375 0
  0.937500   0.640625 0
  0.703125   0.703125 0
  0.937500   0.609375 0
  0.703125   0.671875 0
  0.937500   0.578125 0
  0.703125   0.640625 0
  0.656250   0.984375 0
  0.703125   0.625000 0
  0.703125   0.593750 0
  0.718750   0.796875 0
  0.953125   0.734375 0
  0.812500   1.000000 0
  0.859375   0.656250 0
  0.703125   0.781250 0
  0.937500   0.718750 0
  0.953125   0.703125 0
  0.796875   0.984375 0
  0.843750   0.640625 0
  0.812500   0.968750 0
  0.859375   0.625000 0
  0.796875   0.953125 0
  0.843750   0.609375 0
  0.687500   0.953125 0
  0.687500   0.921875 0
  0.687500   0.890625 0
  0.921875   0.734375 0
  0.687500   0.796875 0
  0.687500   0.781250 0
  0.921875   0.703125 0
  0.687500   0.765625 0
  0.687500   0.750000 0
  0.921875   0.656250 0
  0.687500   0.718750 0
  0.921875   0.625000 0
  0.687500   0.687500 0
  0.921875   0.593750 0
  0.687500   0.656250 0
  0.640625   1.000000 0
  0.921875   0.562500 0
  0.687500   0.625000 0
  0.640625   0.968750 0
  0.687500   0.609375 0
  0.687500   0.578125 0
  0.937500   0.687500 0
  0.921875   0.671875 0
  0.671875   0.921875 0
  0.906250   0.656250 0
  0.671875   0.906250 0
  0.671875   0.875000 0
  0.906250   0.718750 0
  0.671875   0.781250 0
  0.671875   0.765625 0
  0.671875   0.734375 0
  0.906250   0.640625 0
  0.671875   0.703125 0
  0.906250   0.609375 0
  0.671875   0.671875 0
  0.906250   0.578125 0
  0.671875   0.640625 0
  0.625000   0.984375 0
  0.671875   0.609375 0
  0.625000   0.953125 0
  0.671875   0.593750 0
  0.671875   0.562500 0
  0.765625   0.953125 0
  0.812500   0.609375 0
  0.656250   1.000000 0
  0.656250   0.953125 0
  0.656250   0.906250 0
  0.890625   0.640625 0
  0.656250   0.890625 0
  0.656250   0.859375 0
  0.890625   0.734375 0
  0.656250   0.796875 0
  0.812500   0.921875 0
  0.562500   1.000000 0
  0.625000   0.828125 0
  0.812500   0.843750 0
  0.843750   0.593750 0
  0.812500   0.812500 0
  0.625000   0.718750 0
  0.828125   0.687500 0
  0.640625   0.593750 0
  0.812500   0.781250 0
  0.625000   0.687500 0
  0.765625   0.828125 0
  0.640625   0.562500 0
  0.812500   0.750000 0
  0.562500   0.828125 0
  0.781250   0.875000 0
  0.546875   0.937500 0
  0.781250   0.671875 0
  0.781250   0.593750 0
  0.546875   0.656250 0
  0.796875   0.750000 0
  0.562500   0.812500 0
  0.796875   0.546875 0
  0.765625   0.796875 0
  0.765625   0.593750 0
  1.000000   0.531250 0
  0.812500   0.718750 0
  0.859375   0.562500 0
  0.625000   0.625000 0
  0.812500   0.703125 0
  0.812500   0.906250 0
  0.578125   0.968750 0
  0.984375   0.593750 0
  0.828125   0.578125 0
  0.828125   0.781250 0
  0.593750   0.843750 0
  0.812500   0.671875 0
  0.625000   0.578125 0
  0.796875   0.671875 0
  0.562500   0.734375 0
  0.984375   0.562500 0
  0.828125   0.546875 0
  0.812500   0.640625 0
  0.750000   0.812500 0
  0.625000   0.546875 0
  0.796875   0.640625 0
  0.562500   0.703125 0
  0.828125   0.515625 0
  0.781250   0.734375 0
  0.546875   0.796875 0
  0.781250   0.531250 0
  0.750000   0.781250 0
  0.625000   0.515625 0
  0.796875   0.609375 0
  0.562500   0.671875 0
  0.765625   0.656250 0
  0.765625   0.859375 0
  0.531250   0.921875 0
  0.812500   0.578125 0
  0.562500   0.656250 0
  0.984375   0.687500 0
  0.750000   0.750000 0
  0.812500   0.562500 0
  0.812500   0.765625 0
  0.578125   0.828125 0
  0.562500   0.625000 0
  0.984375   0.656250 0
  0.750000   0.718750 0
  0.812500   0.531250 0
  0.781250   0.656250 0
  0.546875   0.718750 0
  0.781250   0.625000 0
  0.546875   0.687500 0
  0.750000   0.640625 0
  0.796875   0.531250 0
  0.562500   0.593750 0
  0.984375   0.625000 0
  0.750000   0.687500 0
  0.546875   0.984375 0
  0.609375   0.812500 0
  0.796875   0.875000 0
  0.546875   0.953125 0
  0.609375   0.578125 0
  0.843750   0.515625 0
  0.765625   0.515625 0
  0.765625   0.718750 0
  0.531250   0.781250 0
  0.984375   0.546875 0
  0.750000   0.609375 0
  0.796875   0.828125 0
  0.671875   0.968750 0
  0.796875   0.796875 0
  0.796875   0.765625 0
  0.609375   0.671875 0
  0.796875   0.734375 0
  0.546875   0.812500 0
  0.796875   0.703125 0
  0.843750   0.546875 0
  0.609375   0.609375 0
  0.796875   0.687500 0
  0.562500   0.953125 0
  0.796875   0.656250 0
  0.609375   0.562500 0
  0.796875   0.625000 0
  0.609375   0.531250 0
  0.546875   0.640625 0
  0.765625   0.671875 0
  0.531250   0.734375 0
  0.796875   0.515625 0
  0.765625   0.640625 0
  0.531250   0.703125 0
  0.703125   1.000000 0
  0.765625   0.609375 0
  0.531250   0.671875 0
  0.765625   0.578125 0
  0.531250   0.640625 0
  0.546875   0.609375 0
  0.531250   1.000000 0
  0.890625   0.593750 0
  0.656250   0.656250 0
  0.781250   0.515625 0
  0.546875   0.578125 0
  0.531250   0.968750 0
  0.890625   0.562500 0
  0.656250   0.625000 0
  0.609375   0.968750 0
  0.781250   0.859375 0
  0.656250   0.593750 0
  0.750000   0.703125 0
  0.515625   0.765625 0
  0.781250   0.812500 0
  0.781250   0.781250 0
  0.593750   0.687500 0
  0.781250   0.750000 0
  0.593750   0.656250 0
  0.781250   0.718750 0
  0.531250   0.796875 0
  0.828125   0.562500 0
  0.593750   0.625000 0
  0.781250   0.687500 0
  0.828125   0.531250 0
  0.593750   0.593750 0
  0.812500   0.625000 0
  0.578125   0.687500 0
  0.781250   0.640625 0
  0.781250   0.609375 0
  0.593750   0.515625 0
  0.515625   0.781250 0
  0.812500   0.546875 0
  0.578125   0.609375 0
  0.812500   0.515625 0
  0.578125   0.578125 0
  0.750000   0.656250 0
  0.515625   0.718750 0
  0.750000   0.625000 0
  0.515625   0.687500 0
  0.687500   0.984375 0
  0.750000   0.593750 0
  0.515625   0.656250 0
  0.531250   0.546875 0
  0.750000   0.562500 0
  0.515625   0.625000 0
  0.531250   0.515625 0
  0.984375   0.515625 0
  0.750000   0.578125 0
  0.515625   0.531250 0
  0.828125   0.796875 0
  0.640625   0.703125 0
  0.828125   0.765625 0
[...]
CELL_DATA 7648
SCALARS scalar_value float 1
LOOKUP_TABLE default
0.041715
0.0433528
0.000902493
0.000712535
0.000743628
0.000577706
0.000435363
0.000499628
0.000533833
0.000536243
0.00168973
0.00225206
0.00296962
0.00219301
0.00342368
0.00349785
0.0040588
0.00280317
0.0386495
0.0434943
0.0358129
0.0425472
0.0465471
0.0505423
0.0600997
0.0605822
0.0640884
0.0560185
0.0675352
0.0674376
0.0697829
0.0627533
1.49423e-05
1.76363e-05
2.80932e-05
1.2686e-05
0.00513429
0.00495934
0.0475099
0.0421248
0.00414988
0.00435378
0.0839454
0.0834242
4.04234e-05
6.2076e-05
5.46014e-05
9.92839e-05
7.72261e-05
0.000137733
0.00012574
0.000235477
0.000243742
0.000380931
0.000369762
0.000536665
0.0270739
0.0295249
0.0339648
0.0329388
0.0366518
0.040288
0.000430945
0.000532749
0.0006111
0.000634186
0.000842551
0.00113844
0.00091417
0.000653047
0.000585107
0.000679929
0.000410557
0.0376403
0.0909975
0.000546233
0.000387134
0.000402065
0.000286222
0.00091365
0.000725115
0.000527349
0.000708718
0.00155966
0.0011971
0.0012124
0.000966651
0.0289627
0.0311352
0.0352568
3.6484e-05
5.28349e-05
7.05992e-05
6.45563e-05
0.00010093
0.000113883
0.000159691
8.99018e-05
0.000194754
0.000263443
0.000213198
0.000108687
0.000149132
0.000181099
0.0475636
2.02135e-06
2.36187e-06
4.12236e-06
0.00264296
0.0026324
0.00268639
0.00242284
3.07062e-05
3.45573e-05
5.21186e-05
2.40747e-05
2.0181e-05
3.31716e-05
1.9471e-05
0.00104472
0.00122352
0.00126836
0.00135727
0.00160256
0.00164156
0.00147613
0.00192068
0.00234469
0.00236251
0.00264687
0.00200965
0.000469193
0.000503575
0.000613145
0.000446742
0.000383437
0.000421939
0.000392564
0.000490638
0.00367946
0.00222152
0.00226329
0.0016525
0.00202913
0.00223184
0.00269689
0.0032694
0.00264156
0.0279086
0.0313187
0.0348792
0.0259191
0.0262374
0.0286357
0.0232547
0.0162409
0.016033
0.017955
0.0129964
0.000141515
0.000181285
0.00378379
0.00396219
0.00480986
0.00320212
0.0704239
0.0027267
0.00288654
0.00356627
0.0023531
0.0151833
0.0130176
0.0124707
0.0121913
4.00575e-05
4.47806e-05
0.000605888
0.000659322
0.000831355
0.000550332
0.000901944
0.000747844
0.00080786
0.000594455
0.0348572
0.037752
0.0413911
0.0381185
0.0413593
0.0443758
0.0486382
0.103189
0.110416
0.000486636
0.000523492
0.000663404
0.00041743
0.0194397
0.0193451
0.0207102
0.0173324
0.000213138
0.000261421
0.00029831
0.000285068
2.24136e-05
2.5782e-05
0.000360808
0.000397367
0.000495786
0.000348269
0.000406876
0.000512583
0.000603301
0.000581866
0.000381759
0.000473012
0.000551071
0.000520054
0.00100163
0.00131208
0.00127115
0.00160431
0.00145909
0.00151778
0.00198702
0.000712862
0.000750253
0.00079231
0.000687533
0.000407848
0.000444214
0.000417346
0.000496484
0.000690192
0.000711698
0.00087744
0.000551672
0.000614366
0.000649289
0.000599988
0.000734454
0.00109499
0.00112469
0.00134837
0.000903644
0.0918047
0.0915931
0.0121003
0.0123994
0.0130613
0.0120574
0.0130963
0.012015
0.0113914
0.0114916
0.00971472
0.00833026
0.00915822
0.000255774
0.000278208
0.000350957
0.000241784
0.000325559
0.000417463
0.000549227
0.00043923
0.000273242
0.000332884
0.000378993
0.000372551
0.002282
0.00250882
0.00295368
0.00264849
0.00267695
0.00296176
0.00225388
0.0367368
0.0404801
0.0444527
0.0316773
0.0343761
0.0280414
0.0373101
0.0402039
0.0332265
0.0242448
0.026595
0.0204152
0.0373543
0.0366627
0.0381628
0.0326294
0.0184809
0.0194518
0.00174033
0.00152664
5.11153e-06
0.000272842
1.17526e-05
0.0355146
0.0107647
0.000266377
0.000300419
0.0016455
0.000495003
0.00027472
0.000633822
0.00220655
0.000615781
0.00755441
0.000802925
0.00571557
0.000433164
0.000406513
0.000293811
0.00496463
0.00413813
0.0578346
0.0572316
0.00883355
0.0319926
0.0342801
0.0036674
0.0110251
0.000949883
0.0218664
0.00295947
0.0204955
0.00255287
0.00293857
0.000759824
0.000531557
0.000701041
0.000367319
0.00039725
0.00015928
0.000291104
0.021177
0.0233055
0.0169186
0.0811975
0.0190176
0.0140364
4.24443e-05
2.00072e-05
0.0941548
5.17911e-05
0.00254728
0.000648589
0.000669797
0.000834632
0.000186631
0.0486085
0.0264831
0.0226221
0.0910466
0.102295
0.0264382
0.00326765
0.00373853
0.00328941
0.0307233
0.0181459
0.0505687
0.00365994
0.00401205
0.00412866
0.03397
0.030722
0.0788044
0.0739427
0.0091049
9.29327e-06
0.000920376
0.0102277
0.0237098
0.0255591
0.00290548
0.0297133
0.00400388
0.0250087
0.00679646
0.00689975
0.00571096
0.00470706
0.00409622
0.00368221
0.0220507
0.0256651
0.0215378
0.0376993
0.00318907
0.0293754
0.0248609
0.0289346
0.0231245
0.00348654
0.00417676
0.000911464
0.0016433
0.000997444
0.00168376
0.0240706
0.00115001
0.000161759
0.0019819
0.000954953
8.46609e-05
0.00139248
0.0688931
0.0159918
0.0881753
0.0178483
0.0147646
0.00292628
0.0142987
0.084321
5.77076e-05
0.000202135
0.0116704
0.0761568
0.00769761
0.0296953
0.00143373
0.00559712
6.3174e-05
2.66284e-06
1.98196e-06
0.00389858
0.0607282
0.00110006
6.05335e-05
0.00128678
0.00269818
0.0332384
0.00307599
0.00333356
0.00176153
0.0033659
0.00200203
0.0289016
0.0162587
0.0185669
0.00112903
0.00918177
0.00920237
0.0171218
0.018193
0.017808
0.00314735
0.00312364
0.0175837
0.0252718
0.00656962
0.00780632
0.00544778
0.000798935
0.000663083
0.0128293
0.00932342
0.00166759
0.0218761
0.0549137
0.00336237
0.0016761
0.00169731
0.0202632
0.0019863
0.0013546
0.00141433
0.00112679
0.00110551
0.0146938
0.000228467
0.000275305
0.0106234
0.111737
0.0653444
0.00554001
0.0211349
0.0325345
0.0089932
0.00119371
0.00770333
0.00926764
0.0110242
0.00503402
0.0388156
0.0325668
0.0607845
0.0566595
0.0718515
0.00163714
0.00357326
0.0596992
0.0115486
0.011303
0.00990766
0.0535756
0.000707601
0.0048902
0.00164225
0.00206977
0.00283386
0.000359199
0.0131473
0.0119367
0.0012557
0.0120809
0.0298519
0.00235851
0.0395945
0.0139721
0.0130144
0.080147
0.0119869
0.0131592
0.0708923
0.0689542
0.0183144
0.110436
0.0930852
0.0617168
0.00227972
0.000739706
0.00112978
7.80226e-05
0.00332813
0.00238331
0.106716
0.0246439
0.00197238
0.00127388
0.0255741
9.85128e-06
0.0778161
0.0131248
0.0284603
0.00181794
0.0339299
0.00227775
0.0316259
0.0302336
0.0331564
1.22206e-05
0.000305696
0.0672168
0.000360263
0.000445282
0.00013338
0.000151695
0.0454222
0.0151203
0.000318759
0.00201313
0.00109574
0.0080034
0.0604101
3.01608e-06
3.92826e-06
0.0663812
6.2788e-06
0.00378312
0.0299128
0.00407821
0.00154485
0.0145194
0.0025903
0.0226655
0.0024871
0.024508
0.00710933
0.00740349
0.000549414
0.00872725
0.000726257
0.00618538
0.000379852
0.00251354
0.00987425
0.0102749
0.0162336
5.31421e-05
6.01414e-05
8.26036e-05
0.00330959
5.04395e-05
0.00265554
0.000968804
0.00143077
9.24377e-05
0.00352602
0.00282288
9.11697e-05
7.14132e-05
0.00294357
0.000100975
0.000109979
2.35036e-05
1.1965e-06
0.00276899
6.47397e-05
0.00536259
5.7235e-05
8.79125e-05
3.38887e-05
0.0256016
0.0120774
0.0265981
0.00173669
0.0128921
0.021116
0.00365386
0.0032034
0.00357749
0.00203097
0.0124479
0.000230755
0.00174788
0.0280491
0.0747116
0.0376801
0.00466444
0.000151832
0.00281619
0.0147618
0.00200866
0.0182772
0.0174838
0.000802839
0.0118367
0.0526207
0.00267475
0.0299374
0.000311732
0.0380023
0.0253024
0.0270537
0.0220236
0.0163853
2.9289e-05
0.0271148
0.0814198
0.0141489
0.0857144
0.0160572
0.0235873
0.082823
0.0850026
0.00579473
0.00643606
0.0154466
0.000991094
0.00878057
0.00114647
0.0525862
0.00161238
0.112438
0.0075954
0.00074873
0.00679769
0.0519872
0.000331511
0.00329606
0.0034755
0.00537316
0.0912015
0.095204
0.0201747
0.00125459
3.79127e-05
0.00219652
5.96222e-05
0.000449522
0.00371172
0.00180062
0.0155959
0.0162505
0.00869196
0.00451594
0.0442858
0.0161505
0.00573621
0.0532112
1.00738e-05
0.00488158
0.00445163
0.00324128
0.00521939
0.00527356
0.00705005
0.00624188
0.0469638
0.0424062
0.0455108
0.0475981
2.73876e-06
0.0336492
0.0129966
4.82809e-06
0.0429759
0.00394407
1.03589e-05
0.0564523
0.0153847
0.00362887
0.000117188
0.0232873
1.05783e-05
0.021144
0.0479693
0.0509404
0.00202281
0.0310766
0.00302837
0.0114241
0.00184152
0.0170519
0.0314674
0.0148543
0.0021498
0.00137989
1.51061e-06
0.00479261
0.00471165
0.0210906
0.000143125
0.00399436
0.0739935
0.0383038
0.00460462
0.0145612
0.00334063
0.0385682
0.0037499
0.0129062
0.00270325
0.0123782
0.0114481
0.00201733
0.00331326
0.0376614
0.000948473
0.0187371
0.00739817
0.0421712
0.0164434
0.00382287
0.000977241
0.015281
0.00714619
0.0033415
0.0281256
0.0284745
0.00370093
0.000785771
0.00474147
0.00257018
0.0117242
0.00109744
0.000982694
0.0451663
6.57917e-06
0.00460136
0.0147523
0.00232061
0.0170809
0.000821729
4.84906e-06
0.00054639
0.0757714
0.00122701
0.0186028
0.00131617
8.70295e-05
0.0014904
0.00986805
0.00107978
3.91102e-05
0.00117127
0.00205895
0.00114294
0.0136966
0.0684196
0.0011595
0.0688301
0.00827208
0.00185495
0.0176718
0.00406988
0.0185542
0.00146331
0.0013964
0.0721829
0.00924919
0.013877
0.0123209
0.000195567
0.00395883
0.00195809
0.0176874
0.000239354
0.00520767
0.0040862
0.00121099
0.0237539
0.00233036
0.000963938
0.106284
0.00238247
0.0121215
0.0107919
0.0461587
0.0004873
0.0634102
0.0075901
0.00057875
0.0558202
0.000775692
0.000989643
2.6188e-06
0.0371814
0.00989534
0.00682313
0.0328839
0.0333435
0.00437299
0.0407825
0.0471893
0.0147134
0.0043246
0.0276575
0.0028179
0.000185072
0.000905028
8.39737e-06
0.00437708
0.0109236
0.0125931
0.0487328
0.0111057
0.0104798
0.000137653
0.110006
0.0596521
0.00930611
0.0311631
0.000258937
0.00258837
0.00240399
0.000146517
0.00198067
0.00264422
0.0149924
0.0254065
0.00966307
0.0175241
0.00247257
0.0431925
0.0262002
0.00240381
0.0798336
0.0283065
0.0183688
0.00084757
8.52342e-05
0.0231486
0.000412843
0.000199658
0.000886011
4.93865e-06
0.0189473
0.00176254
0.000976944
0.0123907
0.0589923
0.000213171
0.000201064
0.0397205
7.06705e-05
0.0216637
0.000183532
0.0123771
0.00184928
0.00169272
0.0389986
0.00087281
0.0278184
0.000720562
0.0132478
0.00329818
2.33382e-05
0.00243312
0.0345204
0.0081176
0.00416051
0.0195953
0.000124312
0.00227099
0.0275917
0.00480182
0.0794579
0.0123993
0.0362196
0.0256225
0.0405668
0.00137197
1.7746e-05
0.00147222
0.000626777
0.00369359
0.0218587
0.00148397
0.0520355
0.0621461
0.0130039
0.016559
4.27965e-05
0.00489088
0.00346164
0.00222339
0.00615161
0.0030922
0.00289536
0.00536563
0.000788627
0.00273173
0.00416318
0.0574429
0.0520894
0.00293759
0.105498
0.030611
0.044632
0.00277996
3.31284e-05
0.000178068
2.72446e-05
0.0249082
0.000386999
0.00543473
0.0637234
0.0147436
0.0141687
0.0767106
0.0353549
0.00280123
0.0168989
0.0445049
0.00342603
0.0956449
0.0156676
0.00193805
0.00308587
0.00412524
0.000300858
0.00606416
0.073796
0.0104877
0.0011077
1.20422e-05
0.0233643
0.0464279
0.00287362
0.000568925
0.00552248
0.002967
0.00843747
0.000715701
5.69339e-06
0.0132415
0.00264782
0.00605718
0.0108454
0.00313209
0.0102245
0.00161609
0.00205309
0.00287258
0.0401673
0.0136924
0.001299
0.0971302
0.0155048
0.00347038
0.0115234
0.0138191
0.0114945
0.0132627
0.000495581
0.000267643
0.000270378
0.0124011
0.000741017
0.00809438
0.0428101
0.0237142
0.0831393
0.0204196
0.000181108
0.00132264
0.000642555
0.0401389
0.00285242
0.0710497
0.00159283
0.0085616
0.00230818
0.0241508
0.0210151
0.00164616
0.00583677
0.00263815
0.0292372
0.00976934
0.000532395
0.0010471
0.00832522
0.0380342
0.000251008
0.0219125
0.0142015
0.000585873
0.0264809
0.000166255
0.0130344
0.00192844
0.0036181
0.0121875
0.0442172
0.0353106
0.106261
0.0188105
0.0357061
0.0157556
0.0247487
0.00011715
0.00374477
0.0148738
0.00274207
0.00418313
0.0529777
0.016818
0.00342618
0.0154731
0.0414131
0.092116
0.037374
0.00452105
0.00381491
0.003207
0.00365085
0.00270907
0.00165717
0.00260333
0.000810318
0.000882495
0.021488
0.0175632
8.62804e-06
0.0667601
0.0343966
0.00235322
0.0022004
0.00191833
0.0278216
0.0134795
3.17241e-05
0.00494382
0.00450456
0.00199423
0.00556678
0.0267103
0.00028668
0.0453928
0.0677427
0.0602976
0.0595552
0.0640991
0.0461684
0.000272652
0.00519358
0.0500537
0.0543323
0.0437713
0.000163378
0.00447625
0.0233031
0.000219701
0.00521154
0.000396449
0.0071341
0.00476145
0.000489367
0.0024525
0.000290951
0.105527
0.072653
0.0015889
0.0722274
0.0395175
0.00986221
0.0468258
0.0431371
0.0422492
0.0403387
0.0476536
0.05137
0.0408132
0.0369807
0.00615255
0.00655
0.00544061
0.0057812
0.0556717
0.00661927
0.0546387
0.00257205
0.00012321
0.00214927
0.000247318
0.0402564
0.0349876
0.010438
0.0121363
0.0731675
0.0768546
0.0115579
0.0766654
0.000211623
0.000234389
0.00504375
0.00507295
0.00490399
0.00423687
0.0391821
0.00383793
0.0479818
0.00765586
0.00687934
0.00616615
0.020321
0.0576833
0.00254889
0.00269918
0.00268802
0.0446087
0.00280874
0.00276807
7.79579e-05
0.0225186
0.00143905
4.56411e-05
0.00219035
0.0811897
0.000257304
0.00477726
0.000371608
0.00573472
0.000195037
0.0269292
0.102089
0.00464626
0.0238772
0.00482488
0.00457175
0.00437876
0.021075
0.0313315
0.028289
0.00559447
0.00564965
0.0319083
0.00658229
0.00493224
0.0293546
0.00484257
0.0345493
0.00512639
0.0334964
0.00493497
0.00022057
6.76298e-06
0.00165528
0.00242986
0.000244876
0.00205922
0.00013051
3.61678e-06
0.000121147
0.0036891
0.0100832
0.0554519
0.0124791
0.058329
0.0103604
0.0106153
0.0122754
0.0149221
0.0768173
0.00870054
0.0078333
0.0102221
0.00830741
0.0659055
0.10284
0.0410981
0.00500312
0.0874854
0.0122899
0.0995279
0.0341739
0.0223833
0.00796032
0.10449
0.00175641
0.00324838
0.0009479
0.000119144
0.00202122
0.000551859
0.00685804
0.000425626
0.000126576
0.00361355
0.0627319
0.01398
0.00140836
0.0098352
0.00892269
0.0201755
0.0285381
0.0447993
0.0170189
0.015051
0.0161407
0.00299657
0.00120671
0.00584437
0.00222568
0.0278429
0.00424284
0.0243197
0.0215818
0.0255271
3.7967e-05
0.0103334
0.000904823
0.0521139
0.00543698
0.000198646
0.00621248
0.00682409
0.00918445
0.00834901
0.000999458
0.000799307
0.00670014
0.00075249
0.0183229
0.000530481
0.0280226
0.0647351
0.0136323
0.000654584
0.0217094
0.0177546
0.00429296
3.87652e-06
0.00696716
0.000711861
8.27858e-06
0.0210666
0.0310904
0.0251975
0.0986393
0.000307531
0.0242173
0.0179953
0.0210324
0.0181697
0.0279804
0.00395133
0.00780138
0.025728
0.000549233
0.000476752
0.00044633
0.000330705
0.000408028
1.4596e-05
0.0584052
0.0541472
0.0717568
0.0750803
0.0951152
0.0809002
0.0139079
0.0880766
0.0161949
0.0852852
0.014979
0.0847604
0.0177929
0.0641219
0.0726119
0.0687894
0.0680453
0.0201934
0.0232076
0.0182453
0.0012259
0.0185859
0.0183898
0.00317103
0.0157282
0.021273
0.0225981
0.0526675
0.000169531
0.00021232
0.0325992
0.000248878
0.000173699
0.0423411
0.000970637
7.05822e-06
5.01785e-06
3.3938e-06
0.00290989
0.022278
0.00280634
0.000109018
0.0036595
0.00422443
0.00353
0.00286157
0.0645894
0.0145882
0.0621444
0.0603892
0.0110941
0.000406426
0.000436592
0.0592805
0.00550733
0.00656962
0.00775237
1.17953e-05
0.00808353
0.00896714
0.00507593
0.00563929
0.00610772
0.045248
0.0533881
0.0493834
0.0484252
0.000654286
0.00545806
0.00440005
0.00402312
0.0041124
0.00369731
0.00113924
0.0586157
0.0772902
0.0765751
0.0810467
0.0204441
0.00837561
0.00150179
0.006737
0.108319
0.10851
0.00428129
0.00481642
0.00452622
0.00448962
0.000252891
0.000291581
0.000254587
0.0332034
0.00650284
0.00542091
0.0545606
0.00649914
0.0074545
0.0347898
0.0299227
0.00147769
0.00216259
0.000774386
0.001026
0.000759876
0.00741638
0.000568818
0.00628807
0.00492515
0.0200915
0.00748801
0.00858361
0.00914583
0.0475851
0.0604962
0.00741495
0.00623829
0.00545878
0.00460284
0.00660352
0.00864414
0.00959668
0.00101674
0.0639379
0.0109559
0.00129186
0.0094563
0.00905593
9.23817e-06
0.0293014
0.0013193
0.0016483
0.00102604
0.0501846
0.0218424
0.00258265
0.000302483
0.00994963
0.000693612
0.00846005
0.000543512
0.00813149
0.0063857
0.00608016
0.00596985
0.00529123
0.0152649
0.0174854
0.0191449
0.0601123
0.0253793
0.00304529
0.00940677
0.0230417
0.00269001
0.046746
0.05421
0.00628423
0.00858245
0.0162982
0.00195538
0.0143167
0.055671
0.0161796
0.017936
0.025107
0.0656598
0.0361637
0.0386238
0.00292857
0.0352736
0.0320284
1.62321e-05
0.00302566
0.0192784
0.00273973
0.00289863
0.00470279
0.0374626
0.00419966
0.0602359
0.000359256
0.000284602
1.61117e-05
0.00146893
1.40392e-05
1.16912e-05
8.44076e-06
0.0135588
0.0130707
0.00456278
0.0240276
0.0243389
0.042656
0.0391273
0.0106097
0.0713056
0.102998
0.0197818
0.00841475
0.0105646
0.0100859
0.0105885
0.0197183
0.0121395
0.014622
0.0137396
0.0189327
0.00278626
0.00317347
0.00294314
0.000530055
0.000395112
0.00504197
0.00648558
0.0059173
0.00605402
0.00151056
0.00251635
0.0331788
0.00345578
0.00220643
0.102954
0.0289947
0.110739
0.10814
0.108084
0.0322466
0.0369835
0.0333327
0.0319862
0.0522298
0.00768603
0.00778069
0.00235579
0.00163518
0.00285563
0.00106532
0.00319249
0.00155747
0.00846866
0.0136205
0.011952
0.0131621
0.0520211
0.00402272
0.00416054
0.00318061
0.000378605
0.00715923
0.0268634
0.0555418
0.0240954
0.00256021
0.0102141
0.0100822
0.0115938
0.0444951
0.0452199
0.00361181
0.0191942
0.0144458
0.00721137
0.00414079
0.00497731
0.014435
0.0178158
0.0161823
0.0189978
0.0270207
0.0131046
0.0413984
0.0197446
0.0123598
0.0150948
0.0125936
0.000743877
0.00100314
0.0993296
0.0689065
0.0647055
0.0625097
9.31606e-05
0.00012748
0.0870899
0.0831978
0.0791164
0.0186974
0.00260237
0.00203606
0.0198878
0.0163545
0.0197908
0.021998
0.00017229
0.000183482
0.00276649
0.00314404
0.00312314
0.00357912
0.0895712
0.0879743
0.0925215
0.016506
0.0695526
2.01987e-05
1.42254e-05
9.59448e-06
0.00216449
0.00855583
0.00910693
0.00815962
0.00702453
4.3492e-06
7.0241e-06
0.0503511
0.0103412
0.00202794
0.00102718
0.00104558
0.000903642
0.000548464
0.000644696
0.00969915
0.0560479
0.0577264
0.0505975
0.0201294
0.0168709
0.0239061
0.022375
0.00290946
0.00659561
0.00913983
0.0143559
0.0381635
0.0748488
0.0117509
0.0132947
0.0113355
0.0208841
0.00324036
0.0518438
0.0596526
0.00370707
0.0036679
0.0685456
0.00298084
0.00234278
0.0724402
0.0127196
0.0156905
0.0148085
0.015221
0.0195827
0.00792158
0.00761731
0.0064386
0.00799981
0.00994185
0.00805304
0.0118588
0.0143137
0.00304855
0.0203605
0.0194729
0.0522441
0.0169299
0.03221
0.0303883
0.0231694
0.00324828
0.0662907
0.0105578
0.0131143
0.0149511
0.056353
0.0597664
0.0043062
0.0643558
0.0877081
0.00112219
0.000832147
0.0451907
0.00434113
0.00626713
0.00591954
0.00441026
0.0617531
8.71321e-06
1.04197e-05
7.76632e-06
5.56922e-06
0.0488477
0.00500789
0.00535315
0.005423
0.00631149
0.0172725
0.0021433
0.00547916
0.00240126
0.0021492
0.00212472
0.0141173
0.0167403
0.0174059
0.000439719
0.000484608
0.000328349
0.00167235
0.00201846
0.00176608
0.00218202
0.00243171
0.0020634
0.00179289
0.0383635
0.0191937
0.023341
0.0014171
0.0213497
0.0209075
0.00150828
0.00155083
0.00125865
0.00186394
0.0182195
0.0219071
0.0148484
0.0494411
0.0415386
0.00628712
0.00688304
0.0071671
0.0483105
0.00337318
0.0248801
0.0288455
0.0313745
0.0141861
0.00249845
0.0030815
0.0037517
0.0698988
0.0647515
0.0331437
0.035658
0.0358189
0.00891549
0.00777492
0.00683006
0.0984828
0.0985472
0.09518
0.0235141
0.0470757
0.040633
0.00101828
0.000714416
6.85651e-06
0.0207295
0.000498931
0.000348932
0.000321855
0.00324123
7.0881e-06
0.000323391
0.000384515
0.000233666
0.0105806
0.0127974
0.00940543
0.0520066
0.00475477
0.00547677
0.00657486
0.00117153
0.00138367
0.000940356
0.000825955
0.00076128
0.00288895
0.00338921
0.0503796
0.00314847
0.00306737
0.097764
0.00331075
0.00372203
0.00367101
0.0741619
0.0547107
0.0280489
0.0305828
0.104746
0.0445143
0.0450708
0.00707163
0.0648353
0.0068943
0.00907433
0.00598402
9.28203e-05
0.00188048
0.00216777
0.0013856
0.051599
0.0591071
0.0571167
0.00100342
0.00112816
0.0576487
0.0537575
0.000195088
0.000170812
0.000135355
0.00433004
0.00344376
0.00194745
0.0025259
0.00284112
0.0583424
0.0548416
0.0592541
0.0632482
0.00182509
0.000710919
0.000929949
0.0165465
0.0241328
0.00227214
0.000791702
0.000158627
0.000244467
8.80789e-05
0.00130902
0.00161547
0.0012034
1.1218e-05
0.00103207
0.000787963
0.000656519
0.00746687
0.0112913
0.00967776
1.52407e-05
0.00215752
0.0017649
0.0475077
0.0550943
0.0520088
0.00344216
0.00293462
0.00554056
0.0160612
0.00480401
0.0120174
0.0325814
0.0251489
0.00331044
0.0205952
0.00211467
0.00153655
0.0314057
0.0270497
0.024734
0.0289963
0.0278245
0.0283961
0.0023312
0.00863086
0.00270608
0.00236448
0.0918717