# vtk DataFile Version 2.0
Unstructured Grid by M++
ASCII
DATASET UNSTRUCTURED_GRID
POINTS 4072 float
  0.828125   0.890625 0
  0.875000   0.531250 0
  0.828125   0.750000 0
  0.593750   0.968750 0
  0.828125   0.671875 0
  0.828125   0.875000 0
  0.593750   0.937500 0
  0.828125   0.656250 0
  0.828125   0.640625 0
  0.828125   0.843750 0
  0.593750   0.906250 0
  0.828125   0.625000 0
  0.781250   0.968750 0
  0.828125   0.609375 0
  0.828125   0.812500 0
  0.593750   0.875000 0
  0.593750   0.828125 0
  0.593750   0.796875 0
  0.828125   0.703125 0
  0.593750   0.765625 0
  0.828125   0.937500 0
  0.812500   0.875000 0
  0.859375   0.515625 0
  0.812500   0.734375 0
  0.812500   0.937500 0
  0.578125   1.000000 0
  0.578125   0.750000 0
  0.812500   0.687500 0
  0.578125   0.953125 0
  0.812500   0.656250 0
  0.812500   0.859375 0
  0.578125   0.921875 0
  0.812500   0.828125 0
  0.578125   0.890625 0
  0.812500   0.593750 0
  0.812500   0.796875 0
  0.578125   0.859375 0
  0.578125   0.812500 0
  0.578125   0.781250 0
  0.796875   1.000000 0
  0.796875   0.859375 0
  0.796875   0.718750 0
  0.562500   0.984375 0
  0.562500   0.937500 0
  0.796875   0.843750 0
  0.562500   0.906250 0
  0.796875   0.812500 0
  0.562500   0.875000 0
  0.796875   0.578125 0
  0.796875   0.781250 0
  0.562500   0.843750 0
  0.812500   0.984375 0
  0.562500   0.796875 0
  0.812500   0.953125 0
  0.562500   0.765625 0
  0.796875   0.937500 0
  0.546875   0.750000 0
  0.781250   0.984375 0
  0.828125   0.593750 0
  0.781250   0.843750 0
  0.781250   0.937500 0
  0.546875   1.000000 0
  0.781250   0.703125 0
  0.546875   0.968750 0
  0.546875   0.921875 0
  0.781250   0.828125 0
  0.546875   0.890625 0
  0.781250   0.796875 0
  0.546875   0.859375 0
  0.781250   0.562500 0
  0.781250   0.765625 0
  0.546875   0.828125 0
  0.796875   0.968750 0
  0.546875   0.781250 0
  0.765625   1.000000 0
  0.765625   0.968750 0
  0.531250   0.984375 0
  0.765625   0.687500 0
  0.531250   0.953125 0
  0.531250   0.937500 0
  0.531250   0.906250 0
  0.765625   0.812500 0
  0.531250   0.875000 0
  0.765625   0.781250 0
  0.531250   0.843750 0
  0.781250   1.000000 0
  0.765625   0.546875 0
  0.765625   0.750000 0
  0.531250   0.812500 0
  0.781250   0.953125 0
  0.531250   0.765625 0
  0.515625   0.750000 0
  0.750000   0.984375 0
  0.750000   0.953125 0
  0.796875   0.593750 0
  0.796875   0.562500 0
  0.750000   0.843750 0
  0.750000   0.937500 0
  0.515625   1.000000 0
  0.750000   0.906250 0
  0.515625   0.968750 0
  0.750000   0.671875 0
  0.750000   0.875000 0
  0.515625   0.937500 0
  0.515625   0.921875 0
  0.515625   0.890625 0
  0.750000   0.796875 0
  0.515625   0.859375 0
  0.750000   0.765625 0
  0.515625   0.828125 0
  1.000000   0.718750 0
  0.750000   0.531250 0
  0.750000   0.734375 0
  0.515625   0.796875 0
  0.734375   1.000000 0
  0.734375   0.968750 0
  0.734375   0.937500 0
  0.781250   0.578125 0
  0.781250   0.546875 0
  0.968750   0.578125 0
  0.734375   0.828125 0
  0.968750   0.546875 0
  0.734375   0.796875 0
  0.734375   0.765625 0
  0.968750   0.671875 0
  0.734375   0.734375 0
  0.968750   0.640625 0
  0.734375   0.703125 0
  0.968750   0.609375 0
  0.734375   0.671875 0
  0.734375   0.656250 0
  0.734375   0.625000 0
  0.968750   0.531250 0
  0.734375   0.593750 0
  0.984375   0.734375 0
  0.984375   0.703125 0
  0.734375   0.515625 0
  0.718750   0.984375 0
  0.718750   0.953125 0
  0.718750   0.921875 0
  0.953125   0.562500 0
  0.718750   0.812500 0
  0.953125   0.531250 0
  0.718750   0.781250 0
  0.718750   0.750000 0
  0.953125   0.656250 0
  0.718750   0.718750 0
  0.953125   0.625000 0
  0.718750   0.687500 0
  0.953125   0.593750 0
  0.718750   0.656250 0
  0.671875   1.000000 0
  0.718750   0.640625 0
  0.718750   0.609375 0
  0.953125   0.515625 0
  0.718750   0.578125 0
  0.968750   0.718750 0
  0.968750   0.687500 0
  0.953125   0.671875 0
  0.703125   0.968750 0
  0.703125   0.937500 0
  0.937500   0.656250 0
  0.703125   0.906250 0
  0.937500   0.546875 0
  0.703125   0.796875 0
  0.937500   0.515625 0
  0.703125   0.765625 0
  0.937500   0.671875 0
  0.703125   0.734375 0
  0.937500   0.640625 0
  0.703125   0.703125 0
  0.937500   0.609375 0
  0.703125   0.671875 0
  0.937500   0.578125 0
  0.703125   0.640625 0
  0.656250   0.984375 0
  0.703125   0.625000 0
  0.703125   0.593750 0
  0.718750   0.796875 0
  0.953125   0.734375 0
  0.812500   1.000000 0
  0.859375   0.656250 0
  0.703125   0.781250 0
  0.937500   0.718750 0
  0.953125   0.703125 0
  0.796875   0.984375 0
  0.843750   0.640625 0
  0.812500   0.968750 0
  0.859375   0.625000 0
  0.796875   0.953125 0
  0.843750   0.609375 0
  0.687500   0.953125 0
  0.687500   0.921875 0
  0.687500   0.890625 0
  0.921875   0.734375 0
  0.687500   0.796875 0
  0.687500   0.781250 0
  0.921875   0.703125 0
  0.687500   0.765625 0
  0.687500   0.750000 0
  0.921875   0.656250 0
  0.687500   0.718750 0
  0.921875   0.625000 0
  0.687500   0.687500 0
  0.921875   0.593750 0
  0.687500   0.656250 0
  0.640625   1.000000 0
  0.921875   0.562500 0
  0.687500   0.625000 0
  0.640625   0.968750 0
  0.687500   0.609375 0
  0.687500   0.578125 0
  0.937500   0.687500 0
  0.921875   0.671875 0
  0.671875   0.921875 0
  0.906250   0.656250 0
  0.671875   0.906250 0
  0.671875   0.875000 0
  0.906250   0.718750 0
  0.671875   0.781250 0
  0.671875   0.765625 0
  0.671875   0.734375 0
  0.906250   0.640625 0
  0.671875   0.703125 0
  0.906250   0.609375 0
  0.671875   0.671875 0
  0.906250   0.578125 0
  0.671875   0.640625 0
  0.625000   0.984375 0
  0.671875   0.609375 0
  0.625000   0.953125 0
  0.671875   0.593750 0
  0.671875   0.562500 0
  0.765625   0.953125 0
  0.812500   0.609375 0
  0.656250   1.000000 0
  0.656250   0.953125 0
  0.656250   0.906250 0
  0.890625   0.640625 0
  0.656250   0.890625 0
  0.656250   0.859375 0
  0.890625   0.734375 0
  0.656250   0.796875 0
  0.812500   0.921875 0
  0.562500   1.000000 0
  0.625000   0.828125 0
  0.812500   0.843750 0
  0.843750   0.593750 0
  0.812500   0.812500 0
  0.625000   0.718750 0
  0.828125   0.687500 0
  0.640625   0.593750 0
  0.812500   0.781250 0
  0.625000   0.687500 0
  0.765625   0.828125 0
  0.640625   0.562500 0
  0.812500   0.750000 0
  0.562500   0.828125 0
  0.781250   0.875000 0
  0.546875   0.937500 0
  0.781250   0.671875 0
  0.781250   0.593750 0
  0.546875   0.656250 0
  0.796875   0.750000 0
  0.562500   0.812500 0
  0.796875   0.546875 0
  0.765625   0.796875 0
  0.765625   0.593750 0
  1.000000   0.531250 0
  0.812500   0.718750 0
  0.859375   0.562500 0
  0.625000   0.625000 0
  0.812500   0.703125 0
  0.812500   0.906250 0
  0.578125   0.968750 0
  0.984375   0.593750 0
  0.828125   0.578125 0
  0.828125   0.781250 0
  0.593750   0.843750 0
  0.812500   0.671875 0
  0.625000   0.578125 0
  0.796875   0.671875 0
  0.562500   0.734375 0
  0.984375   0.562500 0
  0.828125   0.546875 0
  0.812500   0.640625 0
  0.750000   0.812500 0
  0.625000   0.546875 0
  0.796875   0.640625 0
  0.562500   0.703125 0
  0.828125   0.515625 0
  0.781250   0.734375 0
  0.546875   0.796875 0
  0.781250   0.531250 0
  0.750000   0.781250 0
  0.625000   0.515625 0
  0.796875   0.609375 0
  0.562500   0.671875 0
  0.765625   0.656250 0
  0.765625   0.859375 0
  0.531250   0.921875 0
  0.812500   0.578125 0
  0.562500   0.656250 0
  0.984375   0.687500 0
  0.750000   0.750000 0
  0.812500   0.562500 0
  0.812500   0.765625 0
  0.578125   0.828125 0
  0.562500   0.625000 0
  0.984375   0.656250 0
  0.750000   0.718750 0
  0.812500   0.531250 0
  0.781250   0.656250 0
  0.546875   0.718750 0
  0.781250   0.625000 0
  0.546875   0.687500 0
  0.750000   0.640625 0
  0.796875   0.531250 0
  0.562500   0.593750 0
  0.984375   0.625000 0
  0.750000   0.687500 0
  0.546875   0.984375 0
  0.609375   0.812500 0
  0.796875   0.875000 0
  0.546875   0.953125 0
  0.609375   0.578125 0
  0.843750   0.515625 0
  0.765625   0.515625 0
  0.765625   0.718750 0
  0.531250   0.781250 0
  0.984375   0.546875 0
  0.750000   0.609375 0
  0.796875   0.828125 0
  0.671875   0.968750 0
  0.796875   0.796875 0
  0.796875   0.765625 0
  0.609375   0.671875 0
  0.796875   0.734375 0
  0.546875   0.812500 0
  0.796875   0.703125 0
  0.843750   0.546875 0
  0.609375   0.609375 0
  0.796875   0.687500 0
  0.562500   0.953125 0
  0.796875   0.656250 0
  0.609375   0.562500 0
  0.796875   0.625000 0
  0.609375   0.531250 0
  0.546875   0.640625 0
  0.765625   0.671875 0
  0.531250   0.734375 0
  0.796875   0.515625 0
  0.765625   0.640625 0
  0.531250   0.703125 0
  0.703125   1.000000 0
  0.765625   0.609375 0
  0.531250   0.671875 0
  0.765625   0.578125 0
  0.531250   0.640625 0
  0.546875   0.609375 0
  0.531250   1.000000 0
  0.890625   0.593750 0
  0.656250   0.656250 0
  0.781250   0.515625 0
  0.546875   0.578125 0
  0.531250   0.968750 0
  0.890625   0.562500 0
  0.656250   0.625000 0
  0.609375   0.968750 0
  0.781250   0.859375 0
  0.656250   0.593750 0
  0.750000   0.703125 0
  0.515625   0.765625 0
  0.781250   0.812500 0
  0.781250   0.781250 0
  0.593750   0.687500 0
  0.781250   0.750000 0
  0.593750   0.656250 0
  0.781250   0.718750 0
  0.531250   0.796875 0
  0.828125   0.562500 0
  0.593750   0.625000 0
  0.781250   0.687500 0
  0.828125   0.531250 0
  0.593750   0.593750 0
  0.812500   0.625000 0
  0.578125   0.687500 0
  0.781250   0.640625 0
  0.781250   0.609375 0
  0.593750   0.515625 0
  0.515625   0.781250 0
  0.812500   0.546875 0
  0.578125   0.609375 0
  0.812500   0.515625 0
  0.578125   0.578125 0
  0.750000   0.656250 0
  0.515625   0.718750 0
  0.750000   0.625000 0
  0.515625   0.687500 0
  0.687500   0.984375 0
  0.750000   0.593750 0
  0.515625   0.656250 0
  0.531250   0.546875 0
  0.750000   0.562500 0
  0.515625   0.625000 0
  0.531250   0.515625 0
  0.984375   0.515625 0
  0.750000   0.578125 0
  0.515625   0.531250 0
  0.828125   0.796875 0
  0.640625   0.703125 0
  0.828125   0.765625 0
[...]
CELL_DATA 7648
SCALARS scalar_value float 1
LOOKUP_TABLE default
0.0434831
0.0450661
0.0010227
0.000807267
0.000840362
0.000656637
0.000557515
0.000638995
0.000682422
0.000685302
0.00208825
0.00277403
0.00365384
0.00269928
0.00420602
0.00429045
0.00496919
0.00344021
0.0434334
0.0485673
0.0401936
0.0477614
0.0520504
0.0564663
0.0646104
0.0649372
0.0684052
0.0600817
0.0715952
0.0713057
0.0735721
0.0663688
1.86402e-05
2.18321e-05
3.43187e-05
1.57755e-05
0.00624987
0.00607729
0.0494486
0.0436994
0.00502272
0.00526067
0.089022
0.0883265
4.86773e-05
7.44056e-05
6.56798e-05
0.000118228
9.27704e-05
0.000164772
0.000150804
0.000280551
0.00028845
0.000450648
0.000438359
0.000633403
0.0307839
0.0336045
0.0384128
0.0374438
0.0414994
0.0455652
0.000526983
0.000648134
0.000742227
0.000767242
0.0010169
0.00136551
0.00109646
0.000784286
0.000701136
0.000814278
0.000491213
0.0425192
0.098651
0.000634715
0.00044979
0.000466176
0.00033352
0.00105467
0.000838896
0.000609813
0.000821636
0.0018086
0.00138633
0.00140103
0.00112164
0.0304122
0.0325555
0.0368723
4.65433e-05
6.70744e-05
8.94445e-05
8.17178e-05
0.000127354
0.000143364
0.000200205
0.000113313
0.000244473
0.000330349
0.000267006
0.00013658
0.000186553
0.000225689
0.0530595
2.54107e-06
2.98082e-06
5.14895e-06
0.00288707
0.00287072
0.00292319
0.00264149
3.70063e-05
4.14963e-05
6.2134e-05
2.90326e-05
2.43457e-05
3.96073e-05
2.34693e-05
0.00132423
0.00154718
0.00160343
0.0017131
0.00201709
0.0020661
0.00186143
0.00241055
0.00258122
0.002596
0.00290068
0.00220932
0.000533401
0.000571061
0.00069294
0.000506719
0.000491385
0.000540339
0.000503084
0.000627425
0.00455018
0.00241658
0.00245712
0.00197192
0.00241268
0.00265437
0.00319601
0.00385684
0.00312325
0.0316577
0.0353797
0.0393536
0.0287133
0.0289804
0.0315223
0.0256622
0.0180584
0.0177846
0.0198582
0.0144204
0.000178294
0.00022665
0.00460239
0.00481148
0.00582306
0.00389567
0.0775401
0.00332001
0.00350868
0.004318
0.00286804
0.0154536
0.0132227
0.0126231
0.0124278
4.77949e-05
5.32744e-05
0.00075958
0.000824676
0.00103497
0.000689655
0.00112033
0.00093104
0.00100346
0.00074328
0.0381345
0.0411421
0.0451053
0.0414171
0.0446238
0.0476827
0.0522514
0.109356
0.11615
0.000609363
0.000654045
0.000825471
0.000522155
0.0202555
0.0200779
0.0214014
0.0179619
0.000272696
0.000333753
0.000380759
0.000363298
2.73838e-05
3.134e-05
0.000459087
0.000504384
0.00062631
0.000442523
0.000517088
0.000647709
0.000759391
0.000732789
0.000484024
0.000597288
0.000694268
0.000655117
0.00118095
0.00154901
0.00150396
0.00189037
0.00173277
0.00180948
0.00235565
0.000862338
0.000903904
0.000951765
0.000828912
0.000522624
0.000568879
0.000534794
0.000635155
0.000788342
0.000810969
0.000996846
0.000628562
0.000784061
0.000828283
0.000766069
0.000935606
0.00123688
0.00126699
0.00151369
0.00101777
0.0975862
0.0972232
0.0128692
0.0131137
0.0137778
0.0126635
0.0137462
0.0125433
0.0118449
0.0120117
0.0101055
0.00865045
0.00949377
0.000294243
0.000319287
0.00040134
0.000277661
0.000374221
0.000478281
0.000629149
0.00050206
0.000312955
0.000379894
0.000432347
0.000424049
0.00268668
0.00296051
0.00347428
0.00308775
0.00311457
0.00343928
0.0026184
0.0411279
0.0451351
0.0495151
0.034542
0.0373448
0.0305646
0.0402534
0.0430691
0.0357343
0.0263432
0.028709
0.0221221
0.0389181
0.038087
0.0395361
0.0338774
0.0209729
0.0219986
0.00214169
0.00188622
6.53505e-06
0.000318586
1.49231e-05
0.0410147
0.0124587
0.000341902
0.000384948
0.00195641
0.000632808
0.000352416
0.000808158
0.00261686
0.000785605
0.00911658
0.000955848
0.00691472
0.000516924
0.000484148
0.000351283
0.00514198
0.00430407
0.0610086
0.0641901
0.00983361
0.0364528
0.0391066
0.00416914
0.0118529
0.00110443
0.0256486
0.00346129
0.0240445
0.00317549
0.00364682
0.000891271
0.000679175
0.000892785
0.000468119
0.000505886
0.000202887
0.000372665
0.0225785
0.0246618
0.018293
0.0884346
0.0204226
0.0151501
5.15089e-05
2.48336e-05
0.100645
6.28049e-05
0.00311092
0.000775035
0.000853672
0.000935158
0.000238015
0.0527343
0.0285055
0.0243522
0.0979523
0.10835
0.0309234
0.00374033
0.0042822
0.00375343
0.0351879
0.0192969
0.0573592
0.00423396
0.00462487
0.00474405
0.0390196
0.0320201
0.0832867
0.0779921
0.00930675
1.18099e-05
0.00114498
0.0114722
0.0273529
0.0295244
0.00334513
0.0341114
0.00441062
0.0293203
0.00680605
0.00687082
0.00572342
0.00530875
0.00462085
0.00417143
0.0249465
0.0288332
0.0242732
0.0419658
0.00361042
0.0327753
0.0282373
0.0326448
0.0262257
0.00386537
0.00461312
0.00115792
0.00183263
0.00126555
0.00187251
0.0272237
0.00145608
0.000205394
0.00219538
0.00121213
0.000107895
0.0015489
0.0760604
0.0169529
0.0942911
0.0187575
0.0155721
0.00335979
0.0152341
0.0905917
6.85982e-05
0.000258192
0.012488
0.0823086
0.00900726
0.0345717
0.00173891
0.00665847
8.0202e-05
3.40384e-06
2.52345e-06
0.00432315
0.0680068
0.00139221
7.70906e-05
0.00142448
0.00297484
0.0372497
0.00339898
0.00366073
0.00192528
0.00416448
0.00217811
0.0317218
0.0186048
0.0211566
0.00126382
0.0100828
0.0101303
0.0176704
0.0186995
0.0182323
0.00370726
0.00366268
0.0207947
0.0296103
0.00656495
0.00785451
0.00617317
0.00101669
0.000845481
0.0150468
0.0109917
0.00187262
0.0249525
0.0619687
0.0039281
0.00190653
0.0019252
0.0232839
0.00224555
0.00153519
0.00161333
0.00128086
0.0012599
0.0170186
0.000292712
0.000352006
0.0125279
0.117762
0.0723975
0.00568464
0.0224649
0.0376887
0.0108653
0.00143431
0.00932172
0.0111622
0.0129757
0.00608392
0.0445312
0.0377462
0.0670773
0.0625686
0.0797376
0.00184392
0.00414456
0.0670169
0.0128843
0.0125847
0.0110943
0.0604275
0.000859999
0.00505371
0.00200224
0.00235692
0.00322012
0.000458664
0.0155336
0.0140864
0.00146464
0.0139027
0.0335934
0.00261124
0.0443883
0.0149389
0.0138564
0.0862284
0.0129176
0.014411
0.0784267
0.07648
0.0199707
0.116742
0.100596
0.0677087
0.00249513
0.000905292
0.00137654
9.15028e-05
0.00393492
0.00270538
0.112611
0.0275878
0.00231552
0.00148288
0.0280515
1.27192e-05
0.0845136
0.014823
0.0315543
0.00199115
0.0374892
0.00248875
0.0348329
0.0336336
0.0367418
1.5617e-05
0.000387391
0.074048
0.00045623
0.00056188
0.000156523
0.000176825
0.0518069
0.0172086
0.00040797
0.00226876
0.00135182
0.00884617
0.0673122
3.82211e-06
4.99983e-06
0.0736966
7.90273e-06
0.00439062
0.0346506
0.00471637
0.00179517
0.0173122
0.0029895
0.0262794
0.00284382
0.02821
0.00847299
0.00880772
0.000642737
0.0103469
0.000847797
0.00737177
0.000444284
0.00311943
0.0117134
0.0121654
0.0171431
6.28764e-05
7.09615e-05
9.69495e-05
0.0039439
5.9646e-05
0.00317013
0.00118007
0.00172024
0.000108215
0.00418841
0.00351572
0.000106593
8.42327e-05
0.00353199
0.000118494
0.000128763
2.8218e-05
1.51408e-06
0.00333175
7.65545e-05
0.00612647
7.29974e-05
0.000111887
4.13956e-05
0.0280026
0.0145075
0.0297921
0.00191545
0.0145242
0.0234374
0.00425057
0.00361359
0.00401844
0.00248776
0.014345
0.000293673
0.00200646
0.0325111
0.0789384
0.0431009
0.00533211
0.000193659
0.00350609
0.017433
0.00235376
0.0215123
0.0205371
0.000991145
0.0140805
0.0583322
0.00313886
0.0348379
0.000398463
0.0437421
0.0265688
0.0281896
0.0230453
0.0186044
3.74879e-05
0.0287776
0.0882977
0.0152305
0.0924546
0.0172071
0.024484
0.0901172
0.0921894
0.00686633
0.00757955
0.0176587
0.00125667
0.01029
0.00136835
0.0566408
0.00188685
0.118292
0.00923913
0.000911815
0.00828319
0.0587478
0.000420659
0.00409177
0.00383943
0.00640412
0.0975685
0.101213
0.0212832
0.00150015
4.50794e-05
0.00263265
7.02696e-05
0.000561006
0.00408549
0.0022611
0.0185904
0.0177829
0.0104926
0.00505337
0.0498928
0.0185722
0.00637111
0.0595348
1.29846e-05
0.00542015
0.00496177
0.00401988
0.00584012
0.00592024
0.0078452
0.00699652
0.0491139
0.0443296
0.0480554
0.049917
3.44215e-06
0.0355611
0.0155819
6.00363e-06
0.0457072
0.00439241
1.28491e-05
0.0609495
0.0179424
0.00378112
0.000136403
0.0256268
1.35187e-05
0.023404
0.0539863
0.0558966
0.0024434
0.0343299
0.00321331
0.0135399
0.00213147
0.0199044
0.0344146
0.0174001
0.00265244
0.0015595
1.9163e-06
0.00589963
0.00561334
0.0241147
0.000167588
0.00477489
0.0815372
0.04061
0.00474047
0.0173959
0.00396193
0.0441795
0.00390903
0.0154747
0.00321354
0.0148463
0.013765
0.00240666
0.00348566
0.0413274
0.00114077
0.0191136
0.00749908
0.0482882
0.0190534
0.00397195
0.00118476
0.0175413
0.00797281
0.00385165
0.0324617
0.0330717
0.00458112
0.000882707
0.00524407
0.00278468
0.0132245
0.00133163
0.0011505
0.0475453
8.44699e-06
0.00472435
0.0164854
0.00257678
0.0193245
0.000918365
6.00834e-06
0.000676207
0.0828366
0.00150623
0.0209915
0.0016609
0.000110437
0.00164435
0.011491
0.00136577
4.99642e-05
0.0012968
0.00251155
0.00131346
0.0159653
0.0731876
0.00132935
0.0734166
0.00855911
0.00214218
0.0205842
0.00418031
0.0216859
0.00168752
0.00159697
0.0766882
0.00954046
0.0160278
0.0142487
0.000250575
0.00408301
0.00219031
0.0203562
0.000307192
0.00518846
0.00459232
0.00144153
0.0278756
0.00272652
0.00115292
0.112989
0.0028884
0.0141252
0.0125728
0.0523729
0.00061709
0.0701128
0.00832314
0.000719384
0.0604434
0.000986945
0.00110496
3.27778e-06
0.0428308
0.00997534
0.00832623
0.0381083
0.0351262
0.0051786
0.0466556
0.053581
0.0174512
0.00532334
0.0317115
0.00321225
0.00023675
0.00111861
1.03918e-05
0.00504143
0.013059
0.0146451
0.0508233
0.013311
0.0121741
0.000160007
0.116178
0.0659959
0.0100817
0.0330718
0.000304367
0.00278942
0.00260357
0.00017446
0.00238293
0.00283566
0.0169312
0.0291001
0.0112319
0.0196618
0.0028352
0.0490762
0.0299408
0.00271992
0.0868526
0.0329498
0.021092
0.00107705
0.000100737
0.0264905
0.000475371
0.000232871
0.00101491
6.3589e-06
0.0219219
0.00201813
0.00120452
0.0147085
0.0662811
0.000273446
0.000255553
0.0455998
8.41932e-05
0.0249674
0.000215491
0.0147558
0.00218588
0.00187124
0.0448345
0.00107458
0.0324672
0.000901102
0.0157983
0.00381197
2.80561e-05
0.00262303
0.0373894
0.00818905
0.00474592
0.0225664
0.000144852
0.00263257
0.032194
0.00481047
0.0841174
0.0127762
0.0413735
0.0298723
0.042699
0.00168501
2.16771e-05
0.00180407
0.000777115
0.00457374
0.022278
0.00177644
0.058672
0.0688866
0.0155509
0.0196876
5.45752e-05
0.00596491
0.00414002
0.00240815
0.00752706
0.00331218
0.00310748
0.00658572
0.000968607
0.00294402
0.00431815
0.0604317
0.0562731
0.00316166
0.111914
0.033147
0.0505945
0.00297098
4.02449e-05
0.000210044
3.274e-05
0.0291771
0.000454745
0.00556367
0.066902
0.0176012
0.0161246
0.0841905
0.040238
0.00300033
0.018223
0.0486253
0.0035908
0.103068
0.0184134
0.00225994
0.00340017
0.00425633
0.000348244
0.00717133
0.0805108
0.0113516
0.00135778
1.46928e-05
0.0274431
0.0529017
0.00306906
0.000676285
0.00652361
0.00317402
0.0100414
0.000888433
7.10313e-06
0.0153295
0.00284643
0.00740862
0.0130372
0.00331229
0.0123295
0.00193606
0.0023446
0.00306122
0.0428966
0.0161443
0.00163646
0.103888
0.0184419
0.00364218
0.0138613
0.016524
0.0126358
0.0151865
0.000560645
0.000338749
0.000344038
0.0146056
0.000870961
0.00965093
0.0453886
0.0263552
0.0902468
0.0210212
0.000209643
0.00161951
0.000785769
0.0421175
0.00340923
0.0773539
0.00192481
0.0103869
0.00278774
0.0261681
0.0247989
0.00199677
0.0058142
0.00316403
0.0308
0.0118079
0.000624079
0.00126272
0.0100825
0.0401972
0.00032187
0.0228465
0.0162304
0.0006605
0.0305181
0.000196552
0.0155049
0.0022748
0.00397419
0.0132435
0.0504874
0.0407897
0.112121
0.0190714
0.0374599
0.0187765
0.0263778
0.000138443
0.00388624
0.0177407
0.00309091
0.00430184
0.0553114
0.0199964
0.00404414
0.0183107
0.0460577
0.0983073
0.0401996
0.00540808
0.0045703
0.00385586
0.00435467
0.00317373
0.00207608
0.00306713
0.00102999
0.00110057
0.0251484
0.0208549
1.10854e-05
0.0727419
0.0377428
0.00254236
0.00264902
0.00209125
0.0309391
0.0142832
3.7859e-05
0.00604835
0.00553387
0.0023886
0.00680715
0.0277386
0.00033253
0.0510224
0.0736021
0.0652436
0.064626
0.0695011
0.0510048
0.000319819
0.00621215
0.0550727
0.0597313
0.0479618
0.000190025
0.00531281
0.024103
0.000254547
0.00616836
0.000457478
0.00840745
0.00585577
0.000603969
0.00265037
0.000362909
0.11238
0.0783689
0.00191166
0.0765385
0.0436018
0.0117895
0.0514211
0.0475656
0.0467137
0.0443817
0.0521843
0.0560204
0.0446073
0.0406996
0.00752752
0.0071864
0.00667233
0.00636345
0.0618197
0.00784618
0.0617206
0.00297562
0.000156829
0.00247684
0.000314239
0.045993
0.0403273
0.0125394
0.0145485
0.0782037
0.0816059
0.0119455
0.0816126
0.000246306
0.000270973
0.00504466
0.0050872
0.00602217
0.00522509
0.0444175
0.00473757
0.0522073
0.00930441
0.00838996
0.00753308
0.0219604
0.0635337
0.00276738
0.00293146
0.00290443
0.0484138
0.00303519
0.0029986
9.26146e-05
0.0241716
0.00159659
5.47587e-05
0.00266658
0.0890658
0.000303845
0.0057435
0.000437559
0.00687035
0.000228508
0.0284909
0.108087
0.00467841
0.0280381
0.0048655
0.00462073
0.00445175
0.0248438
0.0363829
0.0329925
0.00559432
0.00562131
0.0370311
0.00654714
0.0049007
0.0341531
0.00483631
0.0399018
0.00509993
0.0387744
0.0049116
0.000278865
8.72972e-06
0.00202813
0.00264423
0.000307721
0.0022453
0.000164755
4.64118e-06
0.000153738
0.00423874
0.0121503
0.0621254
0.0149163
0.0648824
0.0124126
0.0115818
0.0133052
0.0161983
0.0841457
0.00950398
0.00854185
0.0110929
0.00903462
0.0722539
0.109837
0.0444769
0.0059116
0.095214
0.0132057
0.106661
0.0381979
0.0251447
0.00932462
0.111085
0.00215437
0.00392889
0.00105574
0.000151854
0.00223333
0.000649989
0.00820318
0.000544914
0.00014923
0.00434696
0.0686346
0.0167202
0.00170096
0.0106237
0.00972202
0.0234151
0.0326459
0.0511398
0.0196785
0.0170496
0.0181994
0.00347171
0.00147479
0.00651171
0.00265627
0.0324793
0.00504696
0.0248422
0.0221321
0.0298296
4.51938e-05
0.0123275
0.001034
0.0566693
0.00641241
0.000229396
0.00730731
0.00802095
0.0107422
0.0097457
0.00118763
0.000953792
0.00808467
0.000843196
0.0212448
0.000609045
0.02875
0.0695423
0.0156445
0.000737879
0.0255266
0.0210554
0.00529809
4.82386e-06
0.00762466
0.000891624
1.06651e-05
0.0215295
0.0347772
0.0258026
0.104964
0.000354285
0.0248685
0.018196
0.0213798
0.0184697
0.0314269
0.00476059
0.00948758
0.0291489
0.000670025
0.000585776
0.000547167
0.000407188
0.000514401
1.80361e-05
0.0611551
0.056643
0.0776287
0.0813862
0.100997
0.0862766
0.0145512
0.093536
0.016928
0.0908655
0.0157264
0.0905349
0.0211113
0.0690849
0.0778312
0.0740523
0.0734644
0.0212284
0.0244786
0.0193389
0.00136045
0.0219267
0.0217509
0.00373159
0.0186576
0.0250848
0.0265973
0.0595362
0.000214927
0.000269434
0.0375403
0.000317226
0.000221836
0.0484775
0.00120884
8.83643e-06
6.29068e-06
4.28276e-06
0.00346129
0.0262313
0.00347291
0.000129477
0.00446612
0.00516282
0.00431488
0.00350721
0.0720091
0.0160961
0.0694662
0.0675344
0.0133581
0.000501467
0.000540616
0.0666284
0.00662081
0.00787227
0.00927982
1.45512e-05
0.00895713
0.0100043
0.00530751
0.00585228
0.00634235
0.0501194
0.0588489
0.0546512
0.0537275
0.000803698
0.00668471
0.00539305
0.00495196
0.00505128
0.00454842
0.00140829
0.0657885
0.0827688
0.0822379
0.0869444
0.0241006
0.0101534
0.00188999
0.0079081
0.114872
0.114907
0.00437028
0.00487197
0.00460791
0.00458553
0.000314728
0.000361588
0.000315402
0.0383046
0.00719562
0.0059807
0.0607325
0.00717169
0.00819522
0.0400274
0.0347351
0.00170015
0.00248597
0.000914775
0.00121633
0.000899568
0.00889427
0.000674694
0.00756336
0.00585554
0.0237437
0.00848224
0.0096682
0.0103104
0.0540729
0.0679095
0.00900233
0.00756173
0.00661618
0.00559318
0.00681102
0.00889371
0.00983781
0.00125722
0.07101
0.0130109
0.00151726
0.0112641
0.0108081
1.19423e-05
0.033877
0.00154646
0.00193836
0.00120724
0.0565414
0.0253826
0.00320666
0.000380526
0.0116623
0.000798342
0.0099536
0.000627175
0.00958536
0.00776211
0.00741674
0.00727264
0.00645932
0.0176421
0.0195645
0.0215325
0.0675355
0.0283235
0.00366955
0.0113792
0.0259879
0.00326121
0.052727
0.0608587
0.00706323
0.0104086
0.0191137
0.00227558
0.0168047
0.0606659
0.0168389
0.0187753
0.0262752
0.0733637
0.0400635
0.0428804
0.00320848
0.0391873
0.0357268
1.97352e-05
0.00372716
0.0224827
0.00337774
0.0035772
0.00532184
0.0426907
0.00477455
0.0676777
0.000452444
0.000359558
2.02047e-05
0.00181121
1.70617e-05
1.4242e-05
1.03493e-05
0.0152202
0.0146433
0.00549502
0.0280228
0.0284487
0.0483012
0.0446455
0.0127961
0.0786895
0.109553
0.0233821
0.00843103
0.010555
0.010103
0.0106357
0.0233052
0.0125934
0.0151757
0.0143102
0.0224249
0.00346514
0.00391658
0.00364052
0.000617167
0.000461198
0.00514056
0.00654297
0.00600435
0.00615802
0.00183809
0.00314152
0.0383515
0.00426035
0.00274896
0.109207
0.0310866
0.116542
0.114152
0.114205
0.0332145
0.0382332
0.0344088
0.0331109
0.0591073
0.00861433
0.00873922
0.00275109
0.00190984
0.00354047
0.0013242
0.00373716
0.00195629
0.00843972
0.0162982
0.014365
0.0151765
0.0583328
0.00477141
0.00513616
0.00394914
0.000471831
0.00865751
0.0314059
0.0626949
0.0282315
0.00275224
0.0113239
0.0111524
0.0127749
0.0506052
0.0514763
0.00445742
0.021364
0.0161066
0.00874593
0.0049801
0.00596401
0.0158897
0.0196549
0.0172896
0.0203433
0.0304333
0.0131467
0.0469858
0.0231162
0.0123705
0.0151815
0.012665
0.000866632
0.00117212
0.106597
0.0725197
0.0680573
0.065936
0.000118016
0.000161518
0.0936574
0.0896486
0.0856646
0.0221536
0.00284819
0.00223412
0.0218726
0.017941
0.0217095
0.0240509
0.000217632
0.000231341
0.00310728
0.00350219
0.00349236
0.00400415
0.0963226
0.094885
0.0992986
0.0196297
0.076963
2.45589e-05
1.73687e-05
1.18163e-05
0.00265882
0.0102561
0.0109395
0.0098006
0.00845986
5.51211e-06
8.98559e-06
0.0571172
0.0120977
0.00252944
0.00114109
0.0011644
0.0011466
0.000700413
0.000724908
0.0117272
0.0629734
0.0648726
0.0571637
0.0237608
0.020034
0.0272945
0.0257301
0.00355587
0.00746479
0.010325
0.0162743
0.0439151
0.0822552
0.0137495
0.0155619
0.0132894
0.0241843
0.00344393
0.0554613
0.0635204
0.00391584
0.00388611
0.0753072
0.00350141
0.00275348
0.0792637
0.0130134
0.0160309
0.0151862
0.0156723
0.022244
0.00937286
0.00902953
0.00765975
0.00796072
0.0099136
0.00804965
0.0121745
0.0147929
0.00372012
0.0231897
0.0222386
0.0548046
0.0194187
0.0362981
0.0345068
0.026969
0.00378465
0.0737463
0.0115476
0.0143268
0.0162709
0.0602594
0.0634552
0.00449619
0.0684924
0.0930012
0.00135516
0.00100721
0.0515035
0.00454291
0.00652394
0.00718968
0.00536844
0.0689214
1.09505e-05
1.3155e-05
9.81867e-06
7.09086e-06
0.0551519
0.00509218
0.00539454
0.005479
0.00635198
0.0204805
0.0023261
0.00624202
0.0029986
0.00269142
0.00266016
0.0167081
0.0197077
0.0205345
0.000553189
0.00061015
0.000415313
0.00183169
0.00220511
0.00193828
0.00272342
0.00303327
0.00258123
0.00224961
0.0440923
0.0214221
0.026018
0.00156016
0.0238705
0.0234485
0.00165674
0.00170717
0.0013901
0.00233224
0.019816
0.0238872
0.0176557
0.0553648
0.046739
0.00647268
0.00703083
0.00733812
0.0520574
0.00409707
0.0265977
0.0308335
0.0334
0.0165024
0.00303972
0.00373363
0.00453485
0.0763205
0.0711822
0.0355372
0.0379611
0.0382511
0.0108022
0.0094566
0.0083123
0.104495
0.104654
0.101514
0.0276222
0.0535666
0.0465553
0.00124496
0.000880227
8.44311e-06
0.0243757
0.000619207
0.000435917
0.000400346
0.0040069
8.75149e-06
0.000405991
0.00048326
0.000294888
0.0127595
0.0141681
0.0113703
0.058903
0.0054177
0.00618768
0.00742466
0.0013079
0.00154894
0.00105634
0.00105038
0.000969173
0.00341585
0.00356865
0.0533574
0.00333541
0.00325976
0.104213
0.00350721
0.00390142
0.00385941
0.0813227
0.0617075
0.0304848
0.0330187
0.111097
0.0476845
0.0487688
0.00862166
0.0721452
0.00815667
0.0107384
0.0071565
0.000109436
0.0023022
0.0026507
0.00170771
0.0573419
0.0660046
0.0636816
0.00124554
0.00139842
0.0649329
0.0607632
0.000224888
0.000197444
0.000157097
0.00518939
0.00415059
0.00237077
0.00305549
0.00343778
0.0638808
0.0599296
0.0647004
0.0687745
0.00222676
0.000816446
0.00107113
0.0188448
0.0280241
0.00278704
0.000989803
0.000188427
0.000290635
0.000105466
0.00161922
0.00199316
0.00149139
1.44073e-05
0.00128202
0.000984504
0.000822966
0.00878254
0.0131272
0.0113878
1.92732e-05
0.00261286
0.00214614
0.0506798
0.0585153
0.0554683
0.00407357
0.00347859
0.00679665
0.0180589
0.00591208
0.0135192
0.0373675
0.0292584
0.00384891
0.0240567
0.00250145
0.0018204
0.0361069
0.0312955
0.0254824
0.029818
0.0286936
0.0293741
0.00261702
0.0103896
0.00301415
0.00264541
0.0988184
0.00222484
0.00304014
0.0185349
0.0029867