# vtk DataFile Version 2.0
Unstructured Grid by M++
ASCII
DATASET UNSTRUCTURED_GRID
POINTS 4072 float
  0.828125   0.890625 0
  0.875000   0.531250 0
  0.828125   0.750000 0
  0.593750   0.968750 0
  0.828125   0.671875 0
  0.828125   0.875000 0
  0.593750   0.937500 0
  0.828125   0.656250 0
  0.828125   0.640625 0
  0.828125   0.843750 0
  0.593750   0.906250 0
  0.828125   0.625000 0
  0.781250   0.968750 0
  0.828125   0.609375 0
  0.828125   0.812500 0
  0.593750   0.875000 0
  0.593750   0.828125 0
  0.593750   0.796875 0
  0.828125   0.703125 0
  0.593750   0.765625 0
  0.828125   0.937500 0
  0.812500   0.875000 0
  0.859375   0.515625 0
  0.812500   0.734375 0
  0.812500   0.937500 0
  0.578125   1.000000 0
  0.578125   0.750000 0
  0.812500   0.687500 0
  0.578125   0.953125 0
  0.812500   0.656250 0
  0.812500   0.859375 0
  0.578125   0.921875 0
  0.812500   0.828125 0
  0.578125   0.890625 0
  0.812500   0.593750 0
  0.812500   0.796875 0
  0.578125   0.859375 0
  0.578125   0.812500 0
  0.578125   0.781250 0
  0.796875   1.000000 0
  0.796875   0.859375 0
  0.796875   0.718750 0
  0.562500   0.984375 0
  0.562500   0.937500 0
  0.796875   0.843750 0
  0.562500   0.906250 0
  0.796875   0.812500 0
  0.562500   0.875000 0
  0.796875   0.578125 0
  0.796875   0.781250 0
  0.562500   0.843750 0
  0.812500   0.984375 0
  0.562500   0.796875 0
  0.812500   0.953125 0
  0.562500   0.765625 0
  0.796875   0.937500 0
  0.546875   0.750000 0
  0.781250   0.984375 0
  0.828125   0.593750 0
  0.781250   0.843750 0
  0.781250   0.937500 0
  0.546875   1.000000 0
  0.781250   0.703125 0
  0.546875   0.968750 0
  0.546875   0.921875 0
  0.781250   0.828125 0
  0.546875   0.890625 0
  0.781250   0.796875 0
  0.546875   0.859375 0
  0.781250   0.562500 0
  0.781250   0.765625 0
  0.546875   0.828125 0
  0.796875   0.968750 0
  0.546875   0.781250 0
  0.765625   1.000000 0
  0.765625   0.968750 0
  0.531250   0.984375 0
  0.765625   0.687500 0
  0.531250   0.953125 0
  0.531250   0.937500 0
  0.531250   0.906250 0
  0.765625   0.812500 0
  0.531250   0.875000 0
  0.765625   0.781250 0
  0.531250   0.843750 0
  0.781250   1.000000 0
  0.765625   0.546875 0
  0.765625   0.750000 0
  0.531250   0.812500 0
  0.781250   0.953125 0
  0.531250   0.765625 0
  0.515625   0.750000 0
  0.750000   0.984375 0
  0.750000   0.953125 0
  0.796875   0.593750 0
  0.796875   0.562500 0
  0.750000   0.843750 0
  0.750000   0.937500 0
  0.515625   1.000000 0
  0.750000   0.906250 0
  0.515625   0.968750 0
  0.750000   0.671875 0
  0.750000   0.875000 0
  0.515625   0.937500 0
  0.515625   0.921875 0
  0.515625   0.890625 0
  0.750000   0.796875 0
  0.515625   0.859375 0
  0.750000   0.765625 0
  0.515625   0.828125 0
  1.000000   0.718750 0
  0.750000   0.531250 0
  0.750000   0.734375 0
  0.515625   0.796875 0
  0.734375   1.000000 0
  0.734375   0.968750 0
  0.734375   0.937500 0
  0.781250   0.578125 0
  0.781250   0.546875 0
  0.968750   0.578125 0
  0.734375   0.828125 0
  0.968750   0.546875 0
  0.734375   0.796875 0
  0.734375   0.765625 0
  0.968750   0.671875 0
  0.734375   0.734375 0
  0.968750   0.640625 0
  0.734375   0.703125 0
  0.968750   0.609375 0
  0.734375   0.671875 0
  0.734375   0.656250 0
  0.734375   0.625000 0
  0.968750   0.531250 0
  0.734375   0.593750 0
  0.984375   0.734375 0
  0.984375   0.703125 0
  0.734375   0.515625 0
  0.718750   0.984375 0
  0.718750   0.953125 0
  0.718750   0.921875 0
  0.953125   0.562500 0
  0.718750   0.812500 0
  0.953125   0.531250 0
  0.718750   0.781250 0
  0.718750   0.750000 0
  0.953125   0.656250 0
  0.718750   0.718750 0
  0.953125   0.625000 0
  0.718750   0.687500 0
  0.953125   0.593750 0
  0.718750   0.656250 0
  0.671875   1.000000 0
  0.718750   0.640625 0
  0.718750   0.609375 0
  0.953125   0.515625 0
  0.718750   0.578125 0
  0.968750   0.718750 0
  0.968750   0.687500 0
  0.953125   0.671875 0
  0.703125   0.968750 0
  0.703125   0.937500 0
  0.937500   0.656250 0
  0.703125   0.906250 0
  0.937500   0.546875 0
  0.703125   0.796875 0
  0.937500   0.515625 0
  0.703125   0.765625 0
  0.937500   0.671875 0
  0.703125   0.734375 0
  0.937500   0.640625 0
  0.703125   0.703125 0
  0.937500   0.609375 0
  0.703125   0.671875 0
  0.937500   0.578125 0
  0.703125   0.640625 0
  0.656250   0.984375 0
  0.703125   0.625000 0
  0.703125   0.593750 0
  0.718750   0.796875 0
  0.953125   0.734375 0
  0.812500   1.000000 0
  0.859375   0.656250 0
  0.703125   0.781250 0
  0.937500   0.718750 0
  0.953125   0.703125 0
  0.796875   0.984375 0
  0.843750   0.640625 0
  0.812500   0.968750 0
  0.859375   0.625000 0
  0.796875   0.953125 0
  0.843750   0.609375 0
  0.687500   0.953125 0
  0.687500   0.921875 0
  0.687500   0.890625 0
  0.921875   0.734375 0
  0.687500   0.796875 0
  0.687500   0.781250 0
  0.921875   0.703125 0
  0.687500   0.765625 0
  0.687500   0.750000 0
  0.921875   0.656250 0
  0.687500   0.718750 0
  0.921875   0.625000 0
  0.687500   0.687500 0
  0.921875   0.593750 0
  0.687500   0.656250 0
  0.640625   1.000000 0
  0.921875   0.562500 0
  0.687500   0.625000 0
  0.640625   0.968750 0
  0.687500   0.609375 0
  0.687500   0.578125 0
  0.937500   0.687500 0
  0.921875   0.671875 0
  0.671875   0.921875 0
  0.906250   0.656250 0
  0.671875   0.906250 0
  0.671875   0.875000 0
  0.906250   0.718750 0
  0.671875   0.781250 0
  0.671875   0.765625 0
  0.671875   0.734375 0
  0.906250   0.640625 0
  0.671875   0.703125 0
  0.906250   0.609375 0
  0.671875   0.671875 0
  0.906250   0.578125 0
  0.671875   0.640625 0
  0.625000   0.984375 0
  0.671875   0.609375 0
  0.625000   0.953125 0
  0.671875   0.593750 0
  0.671875   0.562500 0
  0.765625   0.953125 0
  0.812500   0.609375 0
  0.656250   1.000000 0
  0.656250   0.953125 0
  0.656250   0.906250 0
  0.890625   0.640625 0
  0.656250   0.890625 0
  0.656250   0.859375 0
  0.890625   0.734375 0
  0.656250   0.796875 0
  0.812500   0.921875 0
  0.562500   1.000000 0
  0.625000   0.828125 0
  0.812500   0.843750 0
  0.843750   0.593750 0
  0.812500   0.812500 0
  0.625000   0.718750 0
  0.828125   0.687500 0
  0.640625   0.593750 0
  0.812500   0.781250 0
  0.625000   0.687500 0
  0.765625   0.828125 0
  0.640625   0.562500 0
  0.812500   0.750000 0
  0.562500   0.828125 0
  0.781250   0.875000 0
  0.546875   0.937500 0
  0.781250   0.671875 0
  0.781250   0.593750 0
  0.546875   0.656250 0
  0.796875   0.750000 0
  0.562500   0.812500 0
  0.796875   0.546875 0
  0.765625   0.796875 0
  0.765625   0.593750 0
  1.000000   0.531250 0
  0.812500   0.718750 0
  0.859375   0.562500 0
  0.625000   0.625000 0
  0.812500   0.703125 0
  0.812500   0.906250 0
  0.578125   0.968750 0
  0.984375   0.593750 0
  0.828125   0.578125 0
  0.828125   0.781250 0
  0.593750   0.843750 0
  0.812500   0.671875 0
  0.625000   0.578125 0
  0.796875   0.671875 0
  0.562500   0.734375 0
  0.984375   0.562500 0
  0.828125   0.546875 0
  0.812500   0.640625 0
  0.750000   0.812500 0
  0.625000   0.546875 0
  0.796875   0.640625 0
  0.562500   0.703125 0
  0.828125   0.515625 0
  0.781250   0.734375 0
  0.546875   0.796875 0
  0.781250   0.531250 0
  0.750000   0.781250 0
  0.625000   0.515625 0
  0.796875   0.609375 0
  0.562500   0.671875 0
  0.765625   0.656250 0
  0.765625   0.859375 0
  0.531250   0.921875 0
  0.812500   0.578125 0
  0.562500   0.656250 0
  0.984375   0.687500 0
  0.750000   0.750000 0
  0.812500   0.562500 0
  0.812500   0.765625 0
  0.578125   0.828125 0
  0.562500   0.625000 0
  0.984375   0.656250 0
  0.750000   0.718750 0
  0.812500   0.531250 0
  0.781250   0.656250 0
  0.546875   0.718750 0
  0.781250   0.625000 0
  0.546875   0.687500 0
  0.750000   0.640625 0
  0.796875   0.531250 0
  0.562500   0.593750 0
  0.984375   0.625000 0
  0.750000   0.687500 0
  0.546875   0.984375 0
  0.609375   0.812500 0
  0.796875   0.875000 0
  0.546875   0.953125 0
  0.609375   0.578125 0
  0.843750   0.515625 0
  0.765625   0.515625 0
  0.765625   0.718750 0
  0.531250   0.781250 0
  0.984375   0.546875 0
  0.750000   0.609375 0
  0.796875   0.828125 0
  0.671875   0.968750 0
  0.796875   0.796875 0
  0.796875   0.765625 0
  0.609375   0.671875 0
  0.796875   0.734375 0
  0.546875   0.812500 0
  0.796875   0.703125 0
  0.843750   0.546875 0
  0.609375   0.609375 0
  0.796875   0.687500 0
  0.562500   0.953125 0
  0.796875   0.656250 0
  0.609375   0.562500 0
  0.796875   0.625000 0
  0.609375   0.531250 0
  0.546875   0.640625 0
  0.765625   0.671875 0
  0.531250   0.734375 0
  0.796875   0.515625 0
  0.765625   0.640625 0
  0.531250   0.703125 0
  0.703125   1.000000 0
  0.765625   0.609375 0
  0.531250   0.671875 0
  0.765625   0.578125 0
  0.531250   0.640625 0
  0.546875   0.609375 0
  0.531250   1.000000 0
  0.890625   0.593750 0
  0.656250   0.656250 0
  0.781250   0.515625 0
  0.546875   0.578125 0
  0.531250   0.968750 0
  0.890625   0.562500 0
  0.656250   0.625000 0
  0.609375   0.968750 0
  0.781250   0.859375 0
  0.656250   0.593750 0
  0.750000   0.703125 0
  0.515625   0.765625 0
  0.781250   0.812500 0
  0.781250   0.781250 0
  0.593750   0.687500 0
  0.781250   0.750000 0
  0.593750   0.656250 0
  0.781250   0.718750 0
  0.531250   0.796875 0
  0.828125   0.562500 0
  0.593750   0.625000 0
  0.781250   0.687500 0
  0.828125   0.531250 0
  0.593750   0.593750 0
  0.812500   0.625000 0
  0.578125   0.687500 0
  0.781250   0.640625 0
  0.781250   0.609375 0
  0.593750   0.515625 0
  0.515625   0.781250 0
  0.812500   0.546875 0
  0.578125   0.609375 0
  0.812500   0.515625 0
  0.578125   0.578125 0
  0.750000   0.656250 0
  0.515625   0.718750 0
  0.750000   0.625000 0
  0.515625   0.687500 0
  0.687500   0.984375 0
  0.750000   0.593750 0
  0.515625   0.656250 0
  0.531250   0.546875 0
  0.750000   0.562500 0
  0.515625   0.625000 0
  0.531250   0.515625 0
  0.984375   0.515625 0
  0.750000   0.578125 0
  0.515625   0.531250 0
  0.828125   0.796875 0
  0.640625   0.703125 0
  0.828125   0.765625 0
[...]
CELL_DATA 7648
SCALARS scalar_value float 1
LOOKUP_TABLE default
0.0100063
0.009419
0.00390024
0.00323017
0.00314759
0.00296784
0.0419361
0.0459759
0.0482542
0.0480583
0.0663
0.0778119
0.0945545
0.0753591
0.102574
0.100996
0.109191
0.0860334
0.0853396
0.0788789
0.0788984
0.0880592
0.0847677
0.0867292
0.0363665
0.0336008
0.0309813
0.0321908
0.026217
0.0241207
0.0224956
0.0230333
0.00110949
0.0011342
0.00136411
0.000876631
0.116322
0.130241
0.0106194
0.00855988
0.089857
0.0901753
0.0302027
0.0286165
0.00135655
0.00178021
0.00173822
0.00223981
0.00224818
0.00322835
0.00317133
0.00453735
0.00397786
0.00571952
0.0058818
0.00722771
0.0889462
0.0964399
0.0912582
0.1005
0.098176
0.101207
0.0150752
0.0162693
0.0176452
0.0166452
0.020179
0.0225922
0.0184229
0.0139659
0.0118198
0.0133753
0.00816881
0.094592
0.0629925
0.00486499
0.00366298
0.00358868
0.00309144
0.0062688
0.00548526
0.00417569
0.00568195
0.011232
0.0085963
0.00819643
0.00755258
0.0091646
0.00857324
0.00960478
0.00373153
0.00473659
0.00591269
0.00536133
0.00751809
0.00800108
0.00999424
0.00663355
0.0123175
0.0159852
0.0127341
0.00742599
0.00903327
0.010026
0.0810919
0.000154477
0.000197573
0.000285506
0.00349243
0.00331153
0.00315445
0.00308177
0.00105595
0.00107723
0.00131623
0.00082995
0.000684776
0.000869319
0.00063371
0.0714623
0.077754
0.0796015
0.0817428
0.0887412
0.090286
0.0858663
0.0970692
0.00400332
0.00381277
0.00385346
0.00339823
0.0025504
0.00254539
0.00272755
0.00234377
0.0380464
0.0407635
0.0388985
0.0450716
0.123454
0.00270343
0.00258733
0.0276394
0.0301401
0.0330702
0.0353617
0.0365284
0.0324135
0.0858957
0.0843183
0.0878458
0.0423696
0.039138
0.0383162
0.0338413
0.0304523
0.0279682
0.0283909
0.0233595
0.00993041
0.0106159
0.0917425
0.0921644
0.100136
0.081843
0.0724059
0.0737375
0.074443
0.0809649
0.0666149
0.0021579
0.00179519
0.00155579
0.001907
0.00104073
0.00106975
0.0366781
0.0375919
0.0421618
0.0326856
0.0430456
0.0375861
0.0381848
0.0332901
0.0382212
0.036616
0.039752
0.0337094
0.0293647
0.0276885
0.0299271
0.0369092
0.0305374
0.0281766
0.0285895
0.0326503
0.0235138
0.00532331
0.00472953
0.00436645
0.00417272
0.0216831
0.0249664
0.0281043
0.0260179
0.00108563
0.00110786
0.0314922
0.0327928
0.03668
0.0294699
0.0345045
0.0383099
0.0413097
0.0402028
0.0306217
0.0344472
0.0381976
0.0356765
0.0122322
0.0162794
0.0168696
0.0184709
0.0214387
0.0249076
0.0271171
0.0183994
0.0173688
0.0168391
0.0163463
0.040206
0.0427942
0.0410795
0.0460805
0.00381952
0.00369602
0.00405488
0.00302703
0.0524631
0.0545806
0.0520011
0.0588496
0.0042061
0.00402391
0.00426955
0.00337597
0.0342227
0.0326492
0.00662265
0.0058213
0.0056175
0.00467885
0.00489354
0.00388394
0.00329014
0.00389152
0.0029157
0.00245538
0.00250961
0.00209133
0.0021189
0.00233489
0.00193345
0.00247136
0.00277439
0.00342233
0.00273859
0.00200535
0.0021518
0.00234753
0.00221221
0.0248615
0.0291204
0.0304958
0.0211105
0.0200744
0.0208136
0.0164308
0.0755293
0.0728872
0.0753253
0.0315099
0.0303766
0.02764
0.0265714
0.0229445
0.0215383
0.0218429
0.0195297
0.0171783
0.00894664
0.0080049
0.00753795
0.00713634
0.0637067
0.0605298
0.063896
0.0616492
0.000559223
0.00312926
0.0011692
0.152993
0.0669199
0.028369
0.0305355
0.0248188
0.0450682
0.0288281
0.052767
0.0301812
0.0521238
0.130108
0.0131807
0.111709
0.00800773
0.00718049
0.00595224
0.00156615
0.00146298
0.0198167
0.101634
0.0182571
0.103965
0.111371
0.0141929
0.00804535
0.00786561
0.151239
0.0256966
0.145343
0.104535
0.111469
0.00827426
0.0474188
0.0561074
0.0331023
0.0351246
0.0146045
0.0291596
0.0109825
0.00957576
0.013614
0.0616523
0.0123412
0.0109858
0.00173007
0.0013678
0.042394
0.00202215
0.0741882
0.0120227
0.0548557
0.00281574
0.0176143
0.0400066
0.0178104
0.0154646
0.050956
0.0351431
0.163918
0.0153009
0.0177763
0.0141392
0.113453
0.00895468
0.12767
0.0228772
0.0228218
0.0215145
0.128568
0.00766897
0.0262365
0.0236879
0.0016618
0.000929926
0.0462699
0.0261576
0.112653
0.12138
0.016054
0.116931
0.00639084
0.167293
0.000726982
0.000603503
0.000650977
0.014589
0.0128117
0.0129655
0.0676739
0.0635057
0.0598796
0.066769
0.0111275
0.0587122
0.081662
0.0774573
0.0746668
0.00686323
0.00720263
0.0667065
0.00424589
0.0701118
0.00403085
0.0718618
0.0756988
0.0136272
0.00414748
0.0681391
0.00806378
0.00348451
0.0763365
0.0074345
0.0397647
0.0063694
0.00611436
0.0149788
0.00779706
0.0438363
0.00133809
0.0198261
0.00750565
0.048193
0.064684
0.161327
0.0362207
0.0767341
0.00558017
0.000289207
0.000197692
0.00762634
0.10099
0.0725679
0.00576959
0.00290094
0.00469697
0.0724169
0.00559897
0.00496127
0.00260395
0.116959
0.002512
0.0353009
0.0708479
0.070885
0.00346008
0.012542
0.0135379
0.00365178
0.00337303
0.00293786
0.0337009
0.0291687
0.155321
0.167246
0.000659173
0.000930963
0.0194197
0.0618233
0.0549365
0.106041
0.0939056
0.00511656
0.0822661
0.117373
0.0279362
0.00711631
0.00668839
0.09257
0.0070304
0.00542203
0.00662916
0.00502798
0.00527765
0.0875164
0.0238125
0.0270501
0.104367
0.0325568
0.0808605
0.00131116
0.0100286
0.152027
0.151525
0.0246779
0.139641
0.145055
0.102775
0.100267
0.137462
0.156997
0.0713193
0.0700813
0.0923499
0.00543093
0.0240357
0.106625
0.0247966
0.0228805
0.0241509
0.11306
0.0202789
0.00144522
0.0469492
0.00878715
0.0110021
0.0336336
0.125521
0.114903
0.0109551
0.0646145
0.0743482
0.00472392
0.0818323
0.00840829
0.00715527
0.044149
0.00916715
0.0159442
0.0811159
0.084965
0.0188112
0.0353359
0.0604451
0.0625862
0.00329652
0.0243623
0.0323964
0.00122786
0.0397114
0.00916128
0.03298
0.0555255
0.0199242
0.0104836
0.0307412
0.00127498
0.0551215
0.0403931
0.0474656
0.00282926
0.050181
0.00313388
0.0428308
0.0553316
0.0535509
0.00134158
0.0241404
0.0717681
0.0279835
0.0316672
0.00198014
0.00186484
0.135646
0.0583605
0.0314948
0.00656563
0.0433196
0.0134517
0.089121
0.000276959
0.000395038
0.0853945
0.000523324
0.0258674
0.142349
0.0254119
0.0118165
0.162067
0.01545
0.121613
0.0115402
0.109609
0.0977851
0.0969148
0.00583197
0.101576
0.00697193
0.0877171
0.00427061
0.0995893
0.112166
0.110901
0.00677519
0.00108088
0.00112911
0.00131652
0.0495495
0.00100887
0.0426895
0.0280016
0.0294482
0.00136542
0.0479707
0.114063
0.00130872
0.00131567
0.0535701
0.00156388
0.00158923
0.000694903
0.000103265
0.054488
0.00128648
0.0244714
0.00567468
0.00807431
0.00163811
0.0282002
0.169009
0.0602308
0.00331592
0.0367247
0.0369319
0.0266974
0.0101565
0.0100451
0.0659802
0.0680103
0.0204663
0.00938595
0.138196
0.0252182
0.125342
0.021245
0.0144666
0.113315
0.134203
0.01915
0.144237
0.134512
0.0321569
0.133856
0.0738465
0.0259614
0.161359
0.0301264
0.148167
0.0081801
0.00686041
0.00660809
0.0584478
0.00325821
0.0119198
0.0547448
0.0102374
0.049592
0.0100378
0.00549719
0.0630106
0.0587443
0.070972
0.0655762
0.0666139
0.0688956
0.0763589
0.0198091
0.0346192
0.0150693
0.0308844
0.154079
0.022205
0.147045
0.116655
0.0271119
0.121085
0.00616953
0.0778485
0.0415409
0.0355414
0.00778521
0.022704
0.000879214
0.0399459
0.00108523
0.023869
0.00584207
0.0934175
0.170787
0.0187874
0.145113
0.0112624
0.0979074
0.0792394
0.0113909
0.0921588
0.00126288
0.00971219
0.00995122
0.11814
0.0128981
0.014319
0.0146318
0.0161542
0.0123831
0.0111575
0.0164606
0.0137583
0.00021134
0.0127464
0.170098
0.000305785
0.019553
0.00870466
0.000669153
0.0391759
0.106541
0.00127671
0.00146083
0.031091
0.00115902
0.0339537
0.0999549
0.0564659
0.045002
0.0461211
0.00173716
0.121619
0.0123363
0.116452
0.0343067
0.114282
0.0773723
0.00513642
0.000138432
0.137685
0.0682182
0.0848217
0.00198765
0.0642596
0.0761422
0.0158826
0.00121428
0.171665
0.0436577
0.131665
0.00136813
0.168809
0.0387066
0.164173
0.163647
0.0328554
0.00150812
0.044944
0.0205618
0.00271054
0.00112741
0.141507
0.0964876
0.00126561
0.0254529
0.0727512
0.0160198
0.0189304
0.126527
0.145967
0.125681
0.00285949
0.00842909
0.00269089
0.0348888
0.0287555
0.00982389
0.0148153
0.000774411
0.00111689
0.0324575
0.00504527
0.0546245
0.00262446
0.000280312
0.0235588
0.0636769
0.0422729
0.0545541
0.079627
0.00744114
0.00297214
0.0714542
0.0709591
0.00412108
0.00271427
0.059875
0.00672061
0.0966729
0.0345033
0.0063972
0.0318966
0.00220738
0.0116561
0.114029
0.00096628
0.126312
0.00911158
0.00700923
0.0292892
0.0021902
0.0779719
0.0729424
0.0206986
0.00105607
0.00530071
0.0867878
0.0257349
0.000486973
0.0115392
0.019313
0.167717
0.0209057
0.0178915
0.0412718
0.0580161
0.0870928
0.0783723
0.118657
0.0382411
0.0761315
0.0100931
0.0276799
0.0421773
0.060001
0.00294258
0.00018365
0.147972
0.00115672
0.151684
0.15705
0.0114617
0.0534083
0.133091
0.123022
0.146148
0.128221
0.108856
0.0119171
0.0189432
0.0374149
0.000505266
0.0246006
0.139896
0.0853932
0.0116393
0.149287
0.0709497
0.00161594
0.0345823
0.0750609
0.00851776
0.01349
0.00354032
0.00232785
0.00252603
0.0030518
0.0399898
0.00205417
0.0457748
0.100693
0.0672825
0.0432643
0.0123871
0.117396
0.0976223
0.008492
0.0585809
0.153008
0.0845536
0.063078
0.00162616
0.0925979
0.00309467
0.00236555
0.00500953
0.000615165
0.103262
0.00883128
0.0378078
0.132407
0.108639
0.0229445
0.0172729
0.143176
0.00170287
0.103854
0.00260682
0.144221
0.0231888
0.00345883
0.147396
0.0325628
0.164123
0.0413109
0.152143
0.0201482
0.000724037
0.00223187
0.0278006
0.00103761
0.0176894
0.0951344
0.00157003
0.0155428
0.159072
0.000542848
0.0278003
0.00267918
0.118537
0.147609
0.0133654
0.0481189
0.000843153
0.0484721
0.0280892
0.126167
0.00291457
0.0272834
0.1098
0.0799631
0.159455
0.167783
0.00429817
0.11652
0.0569644
0.00238606
0.14811
0.00240152
0.00232887
0.141888
0.0279282
0.00244668
0.00135193
0.0180228
0.0374844
0.00254965
0.0387457
0.0245592
0.113447
0.00195141
0.00140352
0.00285404
0.000855962
0.161362
0.00488184
0.00120352
0.0182779
0.171794
0.0552046
0.0714502
0.107727
0.00211066
0.0125682
0.0456257
0.00140566
0.0566204
0.126639
0.0160053
0.00516029
0.00113504
0.00273231
0.0699615
0.0597082
0.0092271
0.0367455
0.000527266
0.164018
0.134912
0.00199329
0.00922223
0.0619627
0.00218694
0.107345
0.0330866
0.000395116
0.0794479
0.00221224
0.145339
0.156245
0.00163542
0.160135
0.0300327
0.00940503
0.00185457
0.0208219
0.123736
0.077005
0.0467794
0.161019
0.00150607
0.166217
0.166676
0.0158399
0.0616971
0.00238911
0.0204758
0.0237843
0.113228
0.00855724
0.108198
0.0176645
0.042998
0.0575001
0.00384883
0.00183215
0.0425283
0.021155
0.0119888
0.0469542
0.0557411
0.0365453
0.15979
0.0507208
0.0199896
0.170947
0.041243
0.000536487
0.0478751
0.0101915
0.16405
0.0059866
0.02398
0.150565
0.0143021
0.0263815
0.00592584
0.0619446
0.00250044
0.118144
0.00285097
0.142836
0.022639
0.00535085
0.0118217
0.136211
0.152835
0.0325001
0.00221223
0.0107278
0.172076
0.0124613
0.00212399
0.00117852
0.166383
0.00865182
0.001043
0.0129788
0.170439
0.0387242
0.144308
0.0694468
0.0388656
0.0242199
0.0734434
0.0653893
0.0613169
0.0556067
0.0249413
0.085117
0.0286399
0.0611039
0.0477112
0.142586
0.172393
0.00102653
0.0551497
0.0413347
0.00231543
0.0446906
0.00257844
0.0508876
0.00649211
0.000809757
0.125531
0.127349
0.036037
0.136073
0.00612841
0.00276422
0.0941417
0.0517584
0.0435352
0.0466555
0.047711
0.0630316
0.00350641
0.0828883
0.0598647
0.0615255
0.0488625
0.00188164
0.0583634
0.00488959
0.00217719
0.0621378
0.00315446
0.0737766
0.135055
0.0200363
0.00241047
0.0155578
0.0420462
0.044739
0.0328594
0.0270807
0.0546876
0.130216
0.0545087
0.0573534
0.0607332
0.0513503
0.0511932
0.0482716
0.0428706
0.0482189
0.147785
0.00893721
0.14131
0.00876264
0.0790912
0.080898
0.120698
0.0164327
0.0111763
0.0125272
0.0209742
0.127517
0.142053
0.149813
0.159824
0.0351336
0.0298994
0.00277251
0.032209
0.00235642
0.00218058
0.000540661
0.000594726
0.134454
0.130306
0.10494
0.123561
0.0430819
0.152203
0.150864
0.144044
0.0157693
0.0664573
0.00283834
0.00299378
0.00258777
0.0376321
0.00269728
0.00284378
0.00172563
0.0141398
0.0033476
0.00138225
0.0601508
0.0778084
0.00394705
0.0873426
0.00497178
0.0930786
0.00259785
0.0107832
0.0342298
0.000617686
0.166258
0.000675821
0.000683413
0.000777508
0.165021
0.157168
0.160903
0.000592493
0.000499457
0.157833
0.000558282
0.000417785
0.15568
0.000492842
0.147952
0.000454138
0.153252
0.000444687
0.0164724
0.000879387
0.0545807
0.00292493
0.0156826
0.00273323
0.00963014
0.000423768
0.0101802
0.0191106
0.155941
0.097222
0.153182
0.084212
0.140857
0.0117816
0.01104
0.0136998
0.0676113
0.010197
0.00879597
0.00971965
0.00858314
0.0635016
0.0462347
0.032043
0.0567596
0.0686425
0.00865041
0.0508023
0.0691353
0.0564542
0.0688168
0.0410434
0.059865
0.0730721
0.0026865
0.0112069
0.00393597
0.00700825
0.102649
0.0407931
0.00213535
0.0696693
0.0590506
0.169357
0.0322995
0.00825269
0.00967939
0.115213
0.105571
0.137583
0.094187
0.0505966
0.0467086
0.0196988
0.0370578
0.0127128
0.0362356
0.163326
0.0591768
0.00336685
0.00354522
0.155049
0.000914002
0.129174
0.00480194
0.045085
0.0581502
0.00187096
0.0610642
0.0655133
0.075358
0.0654387
0.0153255
0.0140377
0.119061
0.00261563
0.105818
0.00351338
0.00429032
0.0374725
0.0663434
0.00270336
0.158856
0.166684
0.132875
0.000244161
0.00877279
0.04291
0.00103131
0.00311805
0.0657852
0.00374883
0.0393049
0.00248582
0.00400558
0.00195667
0.00259856
0.00236169
0.0675227
0.078623
0.15701
0.0788021
0.0176341
0.0179208
0.0162418
0.0136557
0.028199
0.000892822
0.0155649
0.0141518
0.0479153
0.0515483
0.0340526
0.0349564
0.00466349
0.0323764
0.00509558
0.0349889
0.00545218
0.0375019
0.17241
0.0403683
0.037866
0.0411766
0.0442037
0.00705283
0.00867867
0.00820178
0.00297816
0.153193
0.160839
0.0329178
0.153477
0.170896
0.169498
0.119206
0.013697
0.017472
0.132393
0.0229245
0.0170877
0.141778
0.0500821
0.000534673
0.000381776
0.000288175
0.0420105
0.168382
0.102551
0.00226911
0.0949113
0.108616
0.0950813
0.0853657
0.0932129
0.021875
0.0975982
0.0972882
0.167072
0.0168873
0.0193512
0.110323
0.0969077
0.103121
0.113342
0.000683408
0.014642
0.0197874
0.00209554
0.00183596
0.00198183
0.0664816
0.0650293
0.0685023
0.0720552
0.0235842
0.138281
0.119215
0.121492
0.118341
0.112432
0.0480102
0.104938
0.0382108
0.0410793
0.0411244
0.161235
0.154379
0.0844585
0.0621963
0.0384463
0.0373046
0.000856198
0.000744247
0.000844995
0.000925676
0.0130828
0.0138862
0.0121526
0.139539
0.0114664
0.00885042
0.0828594
0.0105488
0.0107133
0.135573
0.149428
0.00863031
0.0117592
0.0102442
0.0146755
0.0106978
0.113887
0.00869476
0.107354
0.0670534
0.169418
0.0264904
0.0253123
0.0275089
0.126779
0.107617
0.145476
0.123603
0.111855
0.103737
0.00173019
0.00193702
0.00187917
0.0427964
0.0847227
0.122986
0.0137467
0.11814
0.119078
0.00123094
0.134649
0.0132231
0.0178294
0.011778
0.105289
0.124542
0.102419
0.0197655
0.0857098
0.0046344
0.082225
0.00405903
0.0835812
0.133298
0.138306
0.132658
0.126351
0.0855773
0.0396239
0.050759
0.109991
0.0520432
0.0620715
0.161088
0.0646605
0.0653393
0.103784
0.10095
0.0176403
0.158743
0.124447
0.0152139
0.116344
0.0499159
0.00449341
0.00572221
0.00735654
0.102479
0.0570324
0.0633981
0.00414059
0.0603935
0.0624946
0.000674534
0.098462
0.123735
0.0924614
0.0990475
0.0160314
0.114728
0.0162663
0.111545
0.0241064
0.0207484
0.00132182
0.0579887
0.000560234
0.000481543
0.000396331
0.0344579
0.0313712
0.0874538
0.142548
0.15078
0.107552
0.121371
0.165977
0.0768287
0.0413633
0.171603
0.000853529
0.00089641
0.000951866
0.00107872
0.16691
0.00323122
0.00382227
0.00404397
0.171884
0.110822
0.106699
0.105444
0.00500003
0.00419043
0.000995773
0.000891784
0.000991775
0.00108725
0.0411533
0.108969
0.146117
0.111558
0.0965232
0.0381898
0.017207
0.0311023
0.0339213
0.0349348
0.00542452
0.00683222
0.00599651
0.00637457
0.122522
0.0196873
0.0212726
0.0199512
0.0144141
0.107572
0.0521631
0.0282908
0.0843989
0.000711598
0.170732
0.168771
0.0718022
0.0959683
0.0518178
0.130712
0.118554
0.0195388
0.130416
0.16486
0.119435
0.158054
0.00214447
0.0184054
0.0169846
0.0171338
0.122718
0.127335
0.11784
0.0367777
0.0297298
0.139302
0.0783443
0.0835529
0.0201832
0.02611
0.00928845
0.0113412
0.0706314
0.00119697
0.111406
0.136018
0.00105857
0.00144067
0.0012664
0.00674323
0.0094614
0.050857
0.0210146
0.0196857
0.0210723
0.00762023
0.0102732
0.0462035
0.0470389
0.0515497
0.170656
0.00365378
0.00325095
0.0262878
0.0203593
0.0241718
0.0241065
0.0127034
0.0128988
0.00794295
0.00714338
0.00787702
0.00902199
0.0478433
0.0513431
0.0478235
0.17222
0.080803
0.000861116
0.00065293
0.000522415
0.0724243
0.124582
0.135601
0.125241
0.118706
0.000405514
0.000778331
0.127475
0.0841936
0.0923658
0.00267678
0.00288066
0.0648115
0.0481468
0.00252816
0.163744
0.105057
0.107629
0.113487
0.170326
0.171133
0.0897775
0.101024
0.0824724
0.0228493
0.0291324
0.0496097
0.14846
0.0718361
0.0939904
0.104105
0.0957752
0.112459
0.0020409
0.027898
0.0273197
0.00204395
0.00221025
0.0679489
0.0294846
0.0241393
0.0634651
0.00220337
0.00249802
0.00268153
0.00310271
0.0683269
0.0899434
0.0911654
0.0867395
0.000649417
0.000803813
0.000765504
0.00231299
0.00330776
0.0831511
0.0752231
0.0776141
0.0150867
0.0773228
0.0810811
0.0931735
0.13371
0.024996
0.0895419
0.0126279
0.0147725
0.0148014
0.0295759
0.024996
0.00172225
0.028505
0.0307818
0.0263315
0.0213416
0.131616
0.00186146
0.00214717
0.12375
0.103802
0.0936512
0.000719323
0.00094021
0.000708658
0.000567928
0.109097
0.000910746
0.000734624
0.000807308
0.000809005
0.16256
0.00246209
0.0229572
0.105917
0.101922
0.100791
0.136075
0.136808
0.14654
0.0287707
0.0325641
0.024672
0.00265821
0.00284632
0.00293037
0.0982993
0.105203
0.0975873
0.092075
0.142841
0.0400474
0.0464433
0.0027034
0.0468734
0.0505177
0.00266232
0.00288269
0.00268776
0.0910305
0.0173207
0.0221204
0.155057
0.0905025
0.091709
0.00158423
0.00134684
0.00148294
0.0326099
0.0825488
0.0136965
0.0156259
0.0149267
0.0946317
0.067136
0.072939
0.0812691
0.0593025
0.0671809
0.0195701
0.0168508
0.0186274
0.161245
0.156685
0.143876
0.0347036
0.0359888
0.0397762
0.168921
0.130767
0.138208
0.0318718
0.0273743
0.000352329
0.153904
0.0230667
0.0191437
0.016098
0.112203
0.00039492
0.020037
0.0244559
0.0166424
0.164767
0.0215486
0.158784
0.125331
0.0197326
0.0178882
0.0212538
0.00333627
0.00406588
0.00327101
0.0626645
0.0598065
0.0351409
0.00161755
0.0199176
0.00175354
0.00187075
0.0415349
0.00189899
0.00161447
0.00174139
0.0676526
0.115033
0.0252936
0.0224021
0.0385876
0.0252542
0.0347147
0.153394
0.0891969
0.0796841
0.10036
0.0925668
0.00164384
0.0607134
0.0670482
0.0540682
0.0775146
0.0929101
0.0880334
0.0475053
0.0517216
0.115257
0.121228
0.00177858
0.00169943
0.00154286
0.0743311
0.0701869
0.0533625
0.0577078
0.0652368
0.0579489
0.0532042
0.0545459
0.0509571
0.0532875
0.00447224
0.00600777
0.0639856
0.130627
0.0733547
0.0457082
0.00307699
0.00444879
0.00232123
0.0563329
0.0629416
0.054559
0.00132578
0.050147
0.0445457
0.0400357
0.0728376
0.077209
0.09239
0.00143484
0.0511208
0.0469468
0.0236221
0.0235897
0.0254756
0.0420512
0.0383644
0.143805
0.0425707
0.137326
0.0329408
0.121154
0.139368
0.0239205
0.133313
0.0268558
0.020946
0.124813
0.129936
0.00451703
0.00475477
0.00506651
0.00568542
0.00674361
0.136195
0.00625294
0.00625475
0.0523815
0.00497277
0.00576059
0.104285
0.00441668
0.00435081
0.00465397
0.016682
0.0168699
0.0180126
0.0214552
0.0214446
0.0540067
0.0487864
0.000534025
0.000421492
0.0396538
0.0500244
0.0434836
0.045032
0.0441938
0.0448077
0.0014554
0.00163587
0.00173747
0.00200483
0.00172549
0.00149888
0.0325464
0.0371531
0.0731104
0.0653325
0.0529768
0.059357
0.0969865
0.107549
0.0686343
0.114006
0.0246469
0.0271184
0.0357689
0.0321261
0.00124993
0.00131319
0.00139754
0.00158356
1.91187e-07
1.7304e-05
4.10849e-05
0.000532747
0.00118291
0.00260616
0.00377757
0.00739064
0.0131565
0.0215262
0.0324055
0.0382239
0.00151639
0.00223852
0.00325492
0.0046369
0.00645733
0.00879011
0.0117081
0.0152758
0.0195309
0.024455
0.0299521
0.0358084
5.71767e-08
3.26953e-07
9.26069e-06
2.46434e-05
5.16414e-05
0.000773927
0.00168812
0.00243611
0.00346218
0.00483977
0.008982
0.0155587
0.0249383
0.0363738
0.00101076
0.00148484
0.00214422
0.00304953
0.00426941
0.00588382
0.00798261
0.010663
0.01402
0.0181172
0.0229292
0.0282906
0.0340114
1.07891e-07
5.54666e-07
1.46334e-05
3.47409e-05
6.29583e-05
0.00118558
0.00241124
0.00334865
0.00459087
0.0062239
0.00835127
0.0110925
0.0145692