# vtk DataFile Version 2.0
Unstructured Grid by M++
ASCII
DATASET UNSTRUCTURED_GRID
POINTS 4072 float
  0.828125   0.890625 0
  0.875000   0.531250 0
  0.828125   0.750000 0
  0.593750   0.968750 0
  0.828125   0.671875 0
  0.828125   0.875000 0
  0.593750   0.937500 0
  0.828125   0.656250 0
  0.828125   0.640625 0
  0.828125   0.843750 0
  0.593750   0.906250 0
  0.828125   0.625000 0
  0.781250   0.968750 0
  0.828125   0.609375 0
  0.828125   0.812500 0
  0.593750   0.875000 0
  0.593750   0.828125 0
  0.593750   0.796875 0
  0.828125   0.703125 0
  0.593750   0.765625 0
  0.828125   0.937500 0
  0.812500   0.875000 0
  0.859375   0.515625 0
  0.812500   0.734375 0
  0.812500   0.937500 0
  0.578125   1.000000 0
  0.578125   0.750000 0
  0.812500   0.687500 0
  0.578125   0.953125 0
  0.812500   0.656250 0
  0.812500   0.859375 0
  0.578125   0.921875 0
  0.812500   0.828125 0
  0.578125   0.890625 0
  0.812500   0.593750 0
  0.812500   0.796875 0
  0.578125   0.859375 0
  0.578125   0.812500 0
  0.578125   0.781250 0
  0.796875   1.000000 0
  0.796875   0.859375 0
  0.796875   0.718750 0
  0.562500   0.984375 0
  0.562500   0.937500 0
  0.796875   0.843750 0
  0.562500   0.906250 0
  0.796875   0.812500 0
  0.562500   0.875000 0
  0.796875   0.578125 0
  0.796875   0.781250 0
  0.562500   0.843750 0
  0.812500   0.984375 0
  0.562500   0.796875 0
  0.812500   0.953125 0
  0.562500   0.765625 0
  0.796875   0.937500 0
  0.546875   0.750000 0
  0.781250   0.984375 0
  0.828125   0.593750 0
  0.781250   0.843750 0
  0.781250   0.937500 0
  0.546875   1.000000 0
  0.781250   0.703125 0
  0.546875   0.968750 0
  0.546875   0.921875 0
  0.781250   0.828125 0
  0.546875   0.890625 0
  0.781250   0.796875 0
  0.546875   0.859375 0
  0.781250   0.562500 0
  0.781250   0.765625 0
  0.546875   0.828125 0
  0.796875   0.968750 0
  0.546875   0.781250 0
  0.765625   1.000000 0
  0.765625   0.968750 0
  0.531250   0.984375 0
  0.765625   0.687500 0
  0.531250   0.953125 0
  0.531250   0.937500 0
  0.531250   0.906250 0
  0.765625   0.812500 0
  0.531250   0.875000 0
  0.765625   0.781250 0
  0.531250   0.843750 0
  0.781250   1.000000 0
  0.765625   0.546875 0
  0.765625   0.750000 0
  0.531250   0.812500 0
  0.781250   0.953125 0
  0.531250   0.765625 0
  0.515625   0.750000 0
  0.750000   0.984375 0
  0.750000   0.953125 0
  0.796875   0.593750 0
  0.796875   0.562500 0
  0.750000   0.843750 0
  0.750000   0.937500 0
  0.515625   1.000000 0
  0.750000   0.906250 0
  0.515625   0.968750 0
  0.750000   0.671875 0
  0.750000   0.875000 0
  0.515625   0.937500 0
  0.515625   0.921875 0
  0.515625   0.890625 0
  0.750000   0.796875 0
  0.515625   0.859375 0
  0.750000   0.765625 0
  0.515625   0.828125 0
  1.000000   0.718750 0
  0.750000   0.531250 0
  0.750000   0.734375 0
  0.515625   0.796875 0
  0.734375   1.000000 0
  0.734375   0.968750 0
  0.734375   0.937500 0
  0.781250   0.578125 0
  0.781250   0.546875 0
  0.968750   0.578125 0
  0.734375   0.828125 0
  0.968750   0.546875 0
  0.734375   0.796875 0
  0.734375   0.765625 0
  0.968750   0.671875 0
  0.734375   0.734375 0
  0.968750   0.640625 0
  0.734375   0.703125 0
  0.968750   0.609375 0
  0.734375   0.671875 0
  0.734375   0.656250 0
  0.734375   0.625000 0
  0.968750   0.531250 0
  0.734375   0.593750 0
  0.984375   0.734375 0
  0.984375   0.703125 0
  0.734375   0.515625 0
  0.718750   0.984375 0
  0.718750   0.953125 0
  0.718750   0.921875 0
  0.953125   0.562500 0
  0.718750   0.812500 0
  0.953125   0.531250 0
  0.718750   0.781250 0
  0.718750   0.750000 0
  0.953125   0.656250 0
  0.718750   0.718750 0
  0.953125   0.625000 0
  0.718750   0.687500 0
  0.953125   0.593750 0
  0.718750   0.656250 0
  0.671875   1.000000 0
  0.718750   0.640625 0
  0.718750   0.609375 0
  0.953125   0.515625 0
  0.718750   0.578125 0
  0.968750   0.718750 0
  0.968750   0.687500 0
  0.953125   0.671875 0
  0.703125   0.968750 0
  0.703125   0.937500 0
  0.937500   0.656250 0
  0.703125   0.906250 0
  0.937500   0.546875 0
  0.703125   0.796875 0
  0.937500   0.515625 0
  0.703125   0.765625 0
  0.937500   0.671875 0
  0.703125   0.734375 0
  0.937500   0.640625 0
  0.703125   0.703125 0
  0.937500   0.609375 0
  0.703125   0.671875 0
  0.937500   0.578125 0
  0.703125   0.640625 0
  0.656250   0.984375 0
  0.703125   0.625000 0
  0.703125   0.593750 0
  0.718750   0.796875 0
  0.953125   0.734375 0
  0.812500   1.000000 0
  0.859375   0.656250 0
  0.703125   0.781250 0
  0.937500   0.718750 0
  0.953125   0.703125 0
  0.796875   0.984375 0
  0.843750   0.640625 0
  0.812500   0.968750 0
  0.859375   0.625000 0
  0.796875   0.953125 0
  0.843750   0.609375 0
  0.687500   0.953125 0
  0.687500   0.921875 0
  0.687500   0.890625 0
  0.921875   0.734375 0
  0.687500   0.796875 0
  0.687500   0.781250 0
  0.921875   0.703125 0
  0.687500   0.765625 0
  0.687500   0.750000 0
  0.921875   0.656250 0
  0.687500   0.718750 0
  0.921875   0.625000 0
  0.687500   0.687500 0
  0.921875   0.593750 0
  0.687500   0.656250 0
  0.640625   1.000000 0
  0.921875   0.562500 0
  0.687500   0.625000 0
  0.640625   0.968750 0
  0.687500   0.609375 0
  0.687500   0.578125 0
  0.937500   0.687500 0
  0.921875   0.671875 0
  0.671875   0.921875 0
  0.906250   0.656250 0
  0.671875   0.906250 0
  0.671875   0.875000 0
  0.906250   0.718750 0
  0.671875   0.781250 0
  0.671875   0.765625 0
  0.671875   0.734375 0
  0.906250   0.640625 0
  0.671875   0.703125 0
  0.906250   0.609375 0
  0.671875   0.671875 0
  0.906250   0.578125 0
  0.671875   0.640625 0
  0.625000   0.984375 0
  0.671875   0.609375 0
  0.625000   0.953125 0
  0.671875   0.593750 0
  0.671875   0.562500 0
  0.765625   0.953125 0
  0.812500   0.609375 0
  0.656250   1.000000 0
  0.656250   0.953125 0
  0.656250   0.906250 0
  0.890625   0.640625 0
  0.656250   0.890625 0
  0.656250   0.859375 0
  0.890625   0.734375 0
  0.656250   0.796875 0
  0.812500   0.921875 0
  0.562500   1.000000 0
  0.625000   0.828125 0
  0.812500   0.843750 0
  0.843750   0.593750 0
  0.812500   0.812500 0
  0.625000   0.718750 0
  0.828125   0.687500 0
  0.640625   0.593750 0
  0.812500   0.781250 0
  0.625000   0.687500 0
  0.765625   0.828125 0
  0.640625   0.562500 0
  0.812500   0.750000 0
  0.562500   0.828125 0
  0.781250   0.875000 0
  0.546875   0.937500 0
  0.781250   0.671875 0
  0.781250   0.593750 0
  0.546875   0.656250 0
  0.796875   0.750000 0
  0.562500   0.812500 0
  0.796875   0.546875 0
  0.765625   0.796875 0
  0.765625   0.593750 0
  1.000000   0.531250 0
  0.812500   0.718750 0
  0.859375   0.562500 0
  0.625000   0.625000 0
  0.812500   0.703125 0
  0.812500   0.906250 0
  0.578125   0.968750 0
  0.984375   0.593750 0
  0.828125   0.578125 0
  0.828125   0.781250 0
  0.593750   0.843750 0
  0.812500   0.671875 0
  0.625000   0.578125 0
  0.796875   0.671875 0
  0.562500   0.734375 0
  0.984375   0.562500 0
  0.828125   0.546875 0
  0.812500   0.640625 0
  0.750000   0.812500 0
  0.625000   0.546875 0
  0.796875   0.640625 0
  0.562500   0.703125 0
  0.828125   0.515625 0
  0.781250   0.734375 0
  0.546875   0.796875 0
  0.781250   0.531250 0
  0.750000   0.781250 0
  0.625000   0.515625 0
  0.796875   0.609375 0
  0.562500   0.671875 0
  0.765625   0.656250 0
  0.765625   0.859375 0
  0.531250   0.921875 0
  0.812500   0.578125 0
  0.562500   0.656250 0
  0.984375   0.687500 0
  0.750000   0.750000 0
  0.812500   0.562500 0
  0.812500   0.765625 0
  0.578125   0.828125 0
  0.562500   0.625000 0
  0.984375   0.656250 0
  0.750000   0.718750 0
  0.812500   0.531250 0
  0.781250   0.656250 0
  0.546875   0.718750 0
  0.781250   0.625000 0
  0.546875   0.687500 0
  0.750000   0.640625 0
  0.796875   0.531250 0
  0.562500   0.593750 0
  0.984375   0.625000 0
  0.750000   0.687500 0
  0.546875   0.984375 0
  0.609375   0.812500 0
  0.796875   0.875000 0
  0.546875   0.953125 0
  0.609375   0.578125 0
  0.843750   0.515625 0
  0.765625   0.515625 0
  0.765625   0.718750 0
  0.531250   0.781250 0
  0.984375   0.546875 0
  0.750000   0.609375 0
  0.796875   0.828125 0
  0.671875   0.968750 0
  0.796875   0.796875 0
  0.796875   0.765625 0
  0.609375   0.671875 0
  0.796875   0.734375 0
  0.546875   0.812500 0
  0.796875   0.703125 0
  0.843750   0.546875 0
  0.609375   0.609375 0
  0.796875   0.687500 0
  0.562500   0.953125 0
  0.796875   0.656250 0
  0.609375   0.562500 0
  0.796875   0.625000 0
  0.609375   0.531250 0
  0.546875   0.640625 0
  0.765625   0.671875 0
  0.531250   0.734375 0
  0.796875   0.515625 0
  0.765625   0.640625 0
  0.531250   0.703125 0
  0.703125   1.000000 0
  0.765625   0.609375 0
  0.531250   0.671875 0
  0.765625   0.578125 0
  0.531250   0.640625 0
  0.546875   0.609375 0
  0.531250   1.000000 0
  0.890625   0.593750 0
  0.656250   0.656250 0
  0.781250   0.515625 0
  0.546875   0.578125 0
  0.531250   0.968750 0
  0.890625   0.562500 0
  0.656250   0.625000 0
  0.609375   0.968750 0
  0.781250   0.859375 0
  0.656250   0.593750 0
  0.750000   0.703125 0
  0.515625   0.765625 0
  0.781250   0.812500 0
  0.781250   0.781250 0
  0.593750   0.687500 0
  0.781250   0.750000 0
  0.593750   0.656250 0
  0.781250   0.718750 0
  0.531250   0.796875 0
  0.828125   0.562500 0
  0.593750   0.625000 0
  0.781250   0.687500 0
  0.828125   0.531250 0
  0.593750   0.593750 0
  0.812500   0.625000 0
  0.578125   0.687500 0
  0.781250   0.640625 0
  0.781250   0.609375 0
  0.593750   0.515625 0
  0.515625   0.781250 0
  0.812500   0.546875 0
  0.578125   0.609375 0
  0.812500   0.515625 0
  0.578125   0.578125 0
  0.750000   0.656250 0
  0.515625   0.718750 0
  0.750000   0.625000 0
  0.515625   0.687500 0
  0.687500   0.984375 0
  0.750000   0.593750 0
  0.515625   0.656250 0
  0.531250   0.546875 0
  0.750000   0.562500 0
  0.515625   0.625000 0
  0.531250   0.515625 0
  0.984375   0.515625 0
  0.750000   0.578125 0
  0.515625   0.531250 0
  0.828125   0.796875 0
  0.640625   0.703125 0
  0.828125   0.765625 0
[...]
CELL_DATA 7648
SCALARS scalar_value float 1
LOOKUP_TABLE default
0.00187662
0.00167805
0.00306961
0.00261706
0.00247003
0.00255278
0.0993725
0.106405
0.110572
0.109761
0.117425
0.12878
0.146555
0.125503
0.153414
0.149821
0.155688
0.134803
0.0431624
0.0365587
0.0401358
0.0428963
0.0389169
0.038301
0.0104262
0.00925919
0.00802653
0.00900974
0.00613225
0.00542067
0.00479532
0.00524574
0.0026275
0.00260368
0.00295911
0.00201699
0.154504
0.17736
0.00190411
0.00147812
0.124483
0.12263
0.00671668
0.00621696
0.00262273
0.00331779
0.00336086
0.00382831
0.00424466
0.00552101
0.00558201
0.00695848
0.00578958
0.00776123
0.0081449
0.00916528
0.0539337
0.0579479
0.0503301
0.0580872
0.0534641
0.0529327
0.0265604
0.0272619
0.0287687
0.0263372
0.0304015
0.0314072
0.0259875
0.0204221
0.0169933
0.01891
0.0119414
0.0502075
0.0177139
0.00532728
0.00420295
0.00400907
0.00379957
0.00593948
0.00550732
0.00437122
0.00584587
0.0103209
0.00808233
0.00752252
0.0074795
0.00200441
0.00175642
0.00193416
0.00972034
0.0117417
0.0142103
0.0129103
0.0171899
0.0179022
0.0212905
0.0152385
0.0260185
0.0329112
0.0263487
0.0165713
0.019226
0.0206805
0.0362377
0.000344669
0.000457484
0.000624557
0.00155672
0.00144001
0.00132447
0.00135199
0.00200993
0.00198072
0.0022789
0.00153741
0.00122474
0.00143659
0.00109281
0.143338
0.150858
0.153322
0.155073
0.162242
0.164149
0.159921
0.170127
0.00203754
0.00188756
0.00180426
0.00172879
0.00224746
0.00216667
0.00219075
0.00202231
0.0916305
0.0968212
0.093587
0.104342
0.183907
0.00116228
0.00107718
0.035481
0.0366182
0.0398785
0.0401809
0.0382724
0.035937
0.050639
0.0468562
0.0471532
0.0188336
0.0166878
0.0155538
0.0142847
0.0145808
0.013001
0.0125658
0.0112014
0.0219536
0.022093
0.132023
0.130635
0.134287
0.122143
0.0245711
0.112848
0.111508
0.114906
0.103209
0.000360725
0.000298826
0.00024841
0.000337002
0.0017694
0.00175707
0.0751747
0.0752507
0.081014
0.0661722
0.0806968
0.0714579
0.0708261
0.0658427
0.0142041
0.0128867
0.0139594
0.0113723
0.00897772
0.00799634
0.00860711
0.00821922
0.00595755
0.0563619
0.0558929
0.0613435
0.0466055
0.00115712
0.000981788
0.000845255
0.000871298
0.0544196
0.0608451
0.0678027
0.0622784
0.00231078
0.00227916
0.0738208
0.0754172
0.0814537
0.0684462
0.0799914
0.0856267
0.0903234
0.0876913
0.0697121
0.0758094
0.0829466
0.0767936
0.0142367
0.0187461
0.0199775
0.0204201
0.02629
0.0318715
0.0318909
0.0287127
0.0260306
0.0243792
0.0248528
0.0964008
0.10131
0.098329
0.107015
0.00338342
0.00318066
0.00328754
0.00268661
0.116919
0.120592
0.116654
0.126993
0.00312052
0.00289496
0.00289434
0.00249587
0.00763613
0.00713059
0.00198768
0.00164602
0.00152493
0.00122681
0.00125482
0.000939568
0.000759558
0.00096349
0.000689974
0.000585773
0.000574852
0.00221643
0.00217036
0.00225669
0.00200749
0.00255501
0.00269824
0.00322174
0.00258196
0.00200426
0.00203751
0.00219242
0.00201553
0.0263734
0.0316138
0.0311171
0.0194215
0.0179955
0.0180546
0.0147311
0.037282
0.033906
0.0339196
0.0111861
0.0102279
0.00978204
0.00812299
0.00635435
0.00631942
0.00747803
0.00609901
0.00578789
0.00169288
0.00145365
0.00129843
0.00131558
0.0396275
0.0360044
0.111469
0.111745
0.00143086
0.00395446
0.00294488
0.0928984
0.0534573
0.0711294
0.074984
0.0306312
0.103951
0.0718242
0.116434
0.0353528
0.115818
0.152589
0.0173063
0.14275
0.0114046
0.0101461
0.00901681
0.000395241
0.000375103
0.00436464
0.0431939
0.00953575
0.0616171
0.0649535
0.00966833
0.00269255
0.00797409
0.115658
0.0243464
0.114126
0.171733
0.176562
0.00945833
0.108179
0.121499
0.0781724
0.0822976
0.0353776
0.0715276
0.00303236
0.00238578
0.00458027
0.0183435
0.00376623
0.00371228
0.00363193
0.00322046
0.0102944
0.00422856
0.11732
0.0166736
0.119952
0.00198837
0.0431124
0.0131426
0.00535935
0.00474294
0.0136349
0.00761257
0.116086
0.0112611
0.0130964
0.0100676
0.0701956
0.0024664
0.0620613
0.0187499
0.0180275
0.016426
0.0773698
0.00150855
0.00564616
0.00501823
0.000322618
0.00233435
0.0894697
0.0148229
0.0788316
0.0834852
0.0126728
0.0741097
0.00303904
0.122427
0.000113118
8.44787e-05
0.00010293
0.00907316
0.00801574
0.00851686
0.0399519
0.0340992
0.0338596
0.0309247
0.00733886
0.0286691
0.049639
0.0430571
0.0450644
0.00361962
0.00354463
0.137832
0.0026231
0.142161
0.00240987
0.0418992
0.148947
0.031907
0.00232701
0.139264
0.0200957
0.00213809
0.0266593
0.0020321
0.00969384
0.00155363
0.00161648
0.0114741
0.002289
0.0113752
0.00223827
0.0492202
0.00239446
0.0137471
0.0581543
0.107966
0.052966
0.0864777
0.0136854
0.00073769
0.000487991
0.00397989
0.0410626
0.143925
0.0145332
0.00169731
0.00239469
0.036766
0.00288452
0.00231571
0.00123795
0.178683
0.00109822
0.0137481
0.0486517
0.046003
0.00233204
0.00547247
0.00610011
0.000724885
0.000626829
0.000519366
0.0347836
0.028416
0.131696
0.122071
9.90195e-05
0.000152245
0.0128284
0.131172
0.120628
0.0958814
0.0929698
0.00337847
0.0530149
0.0531841
0.0257939
0.00531297
0.00484928
0.0648298
0.00483257
0.00402963
0.00521545
0.00395426
0.00426951
0.0688072
0.0599619
0.0662846
0.101937
0.00636735
0.0297268
0.000292575
0.00267265
0.095912
0.169114
0.0346954
0.163675
0.159214
0.0981434
0.132299
0.0779382
0.100169
0.0265857
0.0270783
0.0328305
0.00370064
0.0202912
0.0444188
0.0129343
0.0116618
0.0134429
0.0514754
0.0325252
0.000352091
0.0713942
0.00643931
0.00760711
0.0801544
0.117731
0.1101
0.0110429
0.0487295
0.0400312
0.00257759
0.0402496
0.0025665
0.00213259
0.0118463
0.00310247
0.00648222
0.0280375
0.0302699
0.00694466
0.00715816
0.0167802
0.0221464
0.00154626
0.0400739
0.0498656
0.00166647
0.0426399
0.00639516
0.00684194
0.0285736
0.0206209
0.0103221
0.0118987
0.00344181
0.0162383
0.0241849
0.0213172
0.00138115
0.0213953
0.00143293
0.0175079
0.0259588
0.0237704
0.00345647
0.054622
0.0251272
0.0628913
0.0688539
0.00280603
0.00239859
0.070898
0.0383718
0.0765133
0.00437235
0.0750467
0.00644472
0.03543
0.000665923
0.000982423
0.0313824
0.00123723
0.0219442
0.09271
0.0208054
0.011124
0.150176
0.0126609
0.0885795
0.00861264
0.0748927
0.111065
0.107701
0.00681346
0.107042
0.00765386
0.100969
0.00525874
0.164238
0.115856
0.112199
0.00177454
0.00164238
0.00165784
0.00183285
0.0580314
0.00148947
0.0520651
0.0436721
0.0407564
0.00183692
0.053969
0.181848
0.001713
0.0019742
0.067818
0.00221074
0.00217345
0.00116023
0.000239529
0.0712174
0.00199711
0.0179956
0.0145168
0.019841
0.00359963
0.0105023
0.171182
0.031079
0.0017915
0.0212789
0.0169512
0.0232799
0.00646049
0.00606755
0.109014
0.0514872
0.0486634
0.00762877
0.092679
0.00548801
0.0711494
0.0154431
0.0356393
0.180919
0.120964
0.0193235
0.119263
0.112528
0.0558153
0.13243
0.0302552
0.0259504
0.107733
0.0729558
0.0863546
0.00183436
0.00138148
0.00146489
0.0370286
0.00874358
0.00300375
0.015637
0.00334886
0.0133329
0.00306773
0.00108977
0.0188975
0.0169456
0.0758804
0.0643828
0.0456685
0.139579
0.0703747
0.0261219
0.0102902
0.0153009
0.0058945
0.183761
0.0356636
0.181666
0.0545501
0.062196
0.18534
0.00311418
0.0899957
0.0101209
0.00790941
0.00192619
0.0303894
0.00135947
0.0514276
0.0015468
0.0462567
0.00277722
0.166337
0.154985
0.00735529
0.163238
0.00643306
0.0482478
0.0572298
0.00589506
0.0401452
0.00336858
0.00505135
0.00544441
0.182095
0.00731645
0.00844177
0.00769474
0.00933928
0.00241244
0.00218333
0.00371631
0.00279939
0.000476104
0.00296781
0.166892
0.000649405
0.0048946
0.00476787
0.00149062
0.0119363
0.0890507
0.00031191
0.00181698
0.0126335
0.00297975
0.0150072
0.0473048
0.0211675
0.0620693
0.0196608
0.000519968
0.120354
0.0108662
0.0956553
0.0126957
0.099269
0.129554
0.00370556
0.000329803
0.189893
0.0784096
0.0562927
0.00272892
0.0771963
0.025224
0.00382165
0.000276383
0.160977
0.0485427
0.0743727
0.000345177
0.165672
0.0453608
0.16303
0.167754
0.041222
0.000409388
0.0174006
0.0297644
0.000449046
0.000206686
0.0775798
0.0753535
0.000305257
0.0387021
0.0518559
0.00871019
0.0149762
0.0836553
0.0977799
0.186638
0.00209231
0.00418331
0.00106915
0.0207221
0.043327
0.0106434
0.00319935
0.00202744
0.000243773
0.0167319
0.00285025
0.0329874
0.00180421
0.000571626
0.0423967
0.0198815
0.0691942
0.0316382
0.152079
0.0178536
0.00164101
0.0605875
0.141321
0.0108566
0.00160751
0.0928879
0.00587979
0.0818551
0.00909939
0.00545373
0.00809351
0.000507508
0.0100085
0.0915806
0.000200896
0.101804
0.00796387
0.00566754
0.00698471
0.000472843
0.059592
0.0569203
0.0528299
0.000230717
0.00329886
0.0627629
0.0651503
6.83184e-05
0.00693987
0.0246386
0.12674
0.0203717
0.024411
0.00917474
0.0830235
0.0742572
0.0668534
0.0596188
0.0867399
0.0281559
0.00437395
0.0514603
0.0133545
0.127613
0.00196036
0.000397893
0.087076
0.000183442
0.187648
0.0996456
0.00256175
0.0568577
0.0730971
0.0615147
0.133169
0.182471
0.0701475
0.00851255
0.0479278
0.0657354
0.00108441
0.0194224
0.143544
0.0709362
0.00215543
0.153093
0.0584647
0.00198745
0.0070457
0.02877
0.00313364
0.0033387
0.00481946
0.000859095
0.00100706
0.00500646
0.0535542
0.000704865
0.0271801
0.0658472
0.0560981
0.0232524
0.00952286
0.0611456
0.062226
0.00574081
0.0172981
0.103437
0.0594554
0.131826
0.0025484
0.0611864
0.00319112
0.00303574
0.00440937
0.0016455
0.0777536
0.00698601
0.0647087
0.128356
0.0459262
0.0585464
0.0406004
0.0809526
0.00295815
0.0738173
0.00364744
0.141111
0.026393
0.00193024
0.0848027
0.0550256
0.114053
0.0834958
0.145457
0.0164278
0.00125228
0.000831028
0.0089765
0.000174932
0.01247
0.0683997
0.00199804
0.013579
0.109614
8.26443e-05
0.00613411
0.000543385
0.0680723
0.104303
0.00290144
0.0797168
0.00174744
0.07819
0.050952
0.187311
0.000454106
0.0364107
0.0505466
0.0303817
0.154461
0.14768
0.0111109
0.157295
0.0690824
0.000962391
0.189426
0.000844476
0.000821682
0.18931
0.046607
0.000902239
0.000332186
0.00380232
0.0116047
0.000932404
0.0085861
0.00792499
0.057588
0.000639004
0.00293359
0.00420898
0.00153222
0.117022
0.00625635
0.000259424
0.00367572
0.16071
0.0366185
0.0228624
0.0613065
0.000717897
0.00409427
0.0165387
0.000364793
0.0150691
0.110199
0.0152577
0.0025598
0.000255608
0.00309235
0.0727866
0.0186336
0.00332531
0.0592888
0.00101461
0.122977
0.0696422
0.000652221
0.012334
0.0634339
0.000742655
0.117018
0.0606529
0.00087578
0.0624891
0.000787708
0.186737
0.162606
0.000469355
0.171237
0.0399608
0.0070971
0.000583979
0.00552331
0.113685
0.147744
0.0118608
0.144904
0.000405203
0.170426
0.158449
0.00685969
0.0440231
0.00198274
0.0457907
0.0562407
0.106213
0.0100064
0.120353
0.00423217
0.0200362
0.0165111
0.000711044
0.0021285
0.067712
0.0352388
0.00249201
0.0574051
0.0174334
0.0516075
0.183136
0.0693744
0.00660236
0.136236
0.0597062
7.59879e-05
0.060816
0.00231851
0.179754
0.00715794
0.0350888
0.172962
0.00329767
0.0661657
0.00126043
0.0428808
0.00196475
0.0793729
0.00432891
0.136665
0.0250116
0.00247149
0.0044039
0.0722253
0.0929908
0.00668501
0.000331062
0.00225276
0.155949
0.00334547
0.00330683
0.000274565
0.153205
0.00555442
0.000224353
0.00242256
0.149531
0.0405539
0.128489
0.031314
0.00915497
0.00709656
0.0890476
0.0807875
0.0792463
0.0652847
0.0243538
0.155125
0.0303016
0.128733
0.0961981
0.109252
0.149183
0.00269505
0.0178361
0.0160205
0.000893428
0.0595392
0.00116802
0.0238385
0.00183679
0.0012952
0.170272
0.178747
0.0467001
0.17891
0.00118484
0.00322099
0.0452397
0.0162082
0.0134817
0.014979
0.0149024
0.025932
0.00464781
0.100355
0.0232063
0.0231487
0.0184147
0.00234354
0.0639453
0.000928647
0.00254881
0.0654223
0.00334711
0.0732918
0.186858
0.0357998
0.00092913
0.0307171
0.00929995
0.0127506
0.0451137
0.00621662
0.0226914
0.138201
0.0209356
0.0233703
0.0256318
0.0205106
0.0189634
0.0168477
0.0156868
0.0194429
0.189001
0.00392478
0.18778
0.00403561
0.0321005
0.0868721
0.0552164
0.0138438
0.0270821
0.0103204
0.0489246
0.0700069
0.0853786
0.157529
0.159373
0.00902838
0.0069621
0.000590463
0.00777696
0.00293408
0.00247366
8.09683e-05
9.33445e-05
0.184346
0.186512
0.0562663
0.182003
0.0147271
0.180739
0.186048
0.183844
0.00513934
0.0249383
0.001163
0.00122172
0.000987012
0.0124796
0.00102766
0.00111786
0.00289714
0.0041885
0.00198657
0.00257952
0.0909451
0.0248351
0.0056027
0.112635
0.00652347
0.113857
0.00352921
0.00261641
0.00729414
0.000100924
0.12381
0.000114334
0.000117699
0.000143574
0.129906
0.101758
0.109875
8.98954e-05
6.88431e-05
0.101501
7.65168e-05
5.49022e-05
0.103682
7.12511e-05
0.0901342
6.16297e-05
0.0955289
6.05146e-05
0.0366189
0.00238585
0.0888126
0.00124765
0.0329457
0.00122941
0.0216925
0.00111047
0.024003
0.0145598
0.167042
0.0417917
0.150239
0.0338048
0.147679
0.00467715
0.00398273
0.00491415
0.0212571
0.00417354
0.00354057
0.00362207
0.00332962
0.0217085
0.0109452
0.0102246
0.0583475
0.0204191
0.00283001
0.0128592
0.0339604
0.0305624
0.0628925
0.00931489
0.0999705
0.102597
0.00174825
0.0275606
0.00213786
0.0086964
0.120484
0.0965455
0.00322054
0.0908879
0.0202642
0.160746
0.0460577
0.00292612
0.00382907
0.0874193
0.0663841
0.0726039
0.0717068
0.0313639
0.0270088
0.0166209
0.0580784
0.00683415
0.0450648
0.113603
0.066805
0.000524079
0.000611756
0.110423
0.00145982
0.134454
0.00411356
0.0151594
0.0581365
0.00210079
0.0587822
0.062576
0.0676262
0.0571305
0.0194066
0.0188931
0.144737
0.00187066
0.0816274
0.0034032
0.00068389
0.0105151
0.0479452
0.00209644
0.122607
0.142064
0.189143
0.00051223
0.00371585
0.0891877
0.00274793
0.000514186
0.0329815
0.000601343
0.00910313
0.00265114
0.000680668
0.000282839
0.000391835
0.000373077
0.0358601
0.104935
0.185965
0.0464521
0.0297446
0.0315449
0.0286523
0.0254264
0.0604958
0.00199376
0.00302148
0.00272878
0.0141255
0.0151937
0.00742125
0.00849612
0.00113743
0.00722365
0.00119641
0.00824307
0.0013682
0.0091383
0.148796
0.0117597
0.0100941
0.0116795
0.0129902
0.00167775
0.00208311
0.00217734
0.00180574
0.126486
0.134195
0.0334838
0.136508
0.135822
0.130299
0.0556357
0.0315377
0.0403348
0.0817733
0.0552628
0.0426174
0.0775897
0.100151
0.00123133
0.000870181
0.000675423
0.0490271
0.129893
0.163892
0.00375274
0.138386
0.152831
0.140142
0.132964
0.0355789
0.00963175
0.0387201
0.0394325
0.174879
0.0307386
0.0355228
0.0466848
0.12242
0.123423
0.129684
0.00147755
0.00724591
0.0106303
0.000601998
0.000474633
0.000511675
0.0282493
0.025241
0.0282141
0.0305785
0.0400135
0.183385
0.167207
0.176174
0.169697
0.165964
0.0861113
0.0441625
0.00988413
0.0110062
0.0106645
0.128242
0.177537
0.156821
0.0581898
0.00815541
0.00789545
0.000166419
0.000132046
0.000161453
0.000185325
0.0258716
0.0267193
0.0237314
0.08596
0.00563091
0.0042173
0.0345349
0.00499757
0.00480488
0.0811714
0.097921
0.00735413
0.00942678
0.0125019
0.0180823
0.013357
0.132714
0.0114123
0.131925
0.0749708
0.137117
0.017542
0.0154109
0.0168188
0.0635535
0.0445182
0.173808
0.154466
0.145197
0.141633
0.000405366
0.000412194
0.000373558
0.0760775
0.0319898
0.124152
0.014922
0.125766
0.129218
0.00336745
0.0880123
0.0140034
0.0191851
0.0133762
0.049099
0.0928089
0.167834
0.041575
0.0790613
0.004443
0.0798269
0.00413883
0.0832507
0.16642
0.176573
0.169555
0.167518
0.0654989
0.0205065
0.0281375
0.0459749
0.0256624
0.0825061
0.178215
0.0366941
0.0941465
0.0503425
0.0444421
0.0105621
0.181567
0.106
0.0141497
0.103293
0.017023
0.00100222
0.00133463
0.00158633
0.0395935
0.025072
0.0283803
0.00189867
0.0275585
0.0302085
0.00130732
0.152434
0.0975447
0.14654
0.155674
0.0103596
0.0642698
0.0110525
0.0466157
0.0510989
0.0455042
0.0032205
0.103542
0.00104356
0.000890542
0.000759576
0.0189785
0.0169217
0.1152
0.103561
0.109532
0.0553723
0.0671186
0.176089
0.0261715
0.00958717
0.141293
0.00012874
0.000120793
0.00013613
0.00015942
0.135757
0.000717628
0.000836163
0.000934274
0.143641
0.177773
0.164578
0.166523
0.00561104
0.0050316
0.000200911
0.000156322
0.00018933
0.000214948
0.0614906
0.178829
0.0906406
0.168304
0.164554
0.00866886
0.0048868
0.00609669
0.00705789
0.00733358
0.000883904
0.00114242
0.00100533
0.00112896
0.0578942
0.0113288
0.0125982
0.0189656
0.0142832
0.171736
0.102175
0.0269187
0.155662
9.72517e-05
0.165114
0.171264
0.0541644
0.0428505
0.0566258
0.187921
0.183445
0.0377076
0.15597
0.116187
0.0536043
0.11606
0.000763551
0.00900326
0.00807444
0.00764169
0.063389
0.0656784
0.176402
0.0176234
0.014926
0.167251
0.102133
0.103562
0.0086368
0.0111954
0.00274315
0.00334651
0.0388718
0.000163818
0.0587984
0.107834
0.000140872
0.000198713
0.000182647
0.00723342
0.0100152
0.0126179
0.00435235
0.00408174
0.00460295
0.0179762
0.0238341
0.0119989
0.0126273
0.0147013
0.142952
0.00168019
0.00160657
0.0107148
0.00821732
0.00952922
0.00901909
0.0283065
0.0282251
0.00492089
0.00401607
0.0046108
0.00523067
0.0124354
0.0138357
0.0123526
0.153776
0.0283411
0.00172671
0.00130783
0.00108733
0.120831
0.139023
0.148909
0.142364
0.141838
0.00098517
0.00200144
0.0621366
0.0756924
0.160747
0.0016743
0.0018516
0.133694
0.109051
0.00191001
0.179634
0.0456482
0.0460885
0.0535744
0.139542
0.151846
0.057732
0.0700419
0.127563
0.0150153
0.0181823
0.0312067
0.0864427
0.0233208
0.0840518
0.0919913
0.0877615
0.0833746
0.000655654
0.00756234
0.00689995
0.000638361
0.00072074
0.0231163
0.0295171
0.0249584
0.0204214
0.000405797
0.000438535
0.000500007
0.000608309
0.0426528
0.0938069
0.097385
0.0975137
8.7182e-05
0.000106088
0.000111942
0.000450242
0.000687062
0.126805
0.0481031
0.0512997
0.00306063
0.0541386
0.0437643
0.0545301
0.0980747
0.022391
0.0332275
0.00517769
0.00582488
0.00547809
0.00793997
0.00605031
0.000474934
0.00709099
0.0067173
0.0385427
0.0328301
0.0684215
0.000533151
0.000563302
0.157485
0.143672
0.0370359
0.00171309
0.00230638
0.00172991
0.00142312
0.0521459
0.000176217
0.000125801
0.000144212
0.000136819
0.139707
0.00102858
0.0162685
0.17608
0.173915
0.172564
0.12528
0.116994
0.124087
0.0603925
0.0692552
0.0547034
0.00131118
0.00132095
0.00147804
0.167782
0.174556
0.168559
0.164246
0.0820886
0.0199252
0.0225749
0.00145893
0.0238357
0.0268265
0.00138272
0.00153743
0.0015305
0.161341
0.00619385
0.00799435
0.141552
0.0410057
0.0458626
0.000365079
0.000276764
0.000311952
0.00978566
0.120955
0.00381301
0.00427058
0.00384373
0.078162
0.10156
0.104863
0.112913
0.0191331
0.0236512
0.00551251
0.00430012
0.00495588
0.182565
0.185669
0.176957
0.00751481
0.00794926
0.00933488
0.127981
0.0664589
0.076626
0.0506197
0.0469852
0.000695246
0.120932
0.042565
0.0377801
0.0310543
0.173019
0.000812525
0.0412897
0.0507541
0.0363143
0.174656
0.0100654
0.175284
0.0595922
0.0138127
0.0113874
0.0135373
0.00217513
0.00266977
0.00234072
0.131845
0.127922
0.0385573
0.000454722
0.00468474
0.000522606
0.000581403
0.00993089
0.000584424
0.000445239
0.00050155
0.0217844
0.0519425
0.00860772
0.00694597
0.00865462
0.00698383
0.0110413
0.187702
0.0336771
0.0834035
0.103434
0.110829
0.00249191
0.0989646
0.108371
0.0949108
0.0326596
0.0378715
0.0362548
0.0896426
0.0974565
0.0502352
0.0561292
0.00194805
0.00193276
0.00184923
0.092452
0.0939408
0.0799926
0.080318
0.091611
0.0205423
0.0187865
0.0187175
0.016466
0.0820922
0.00417563
0.00555217
0.041894
0.0935929
0.120743
0.0944271
0.00490282
0.00668803
0.00422122
0.104547
0.11247
0.103464
0.00347447
0.0967558
0.0903954
0.0828636
0.0704397
0.0641068
0.0892914
0.00359615
0.0720911
0.069342
0.00616254
0.00576579
0.00661327
0.0453975
0.0431929
0.189949
0.0236782
0.189362
0.0188963
0.0737864
0.0987385
0.0208573
0.103312
0.0305646
0.0248706
0.0779029
0.0880011
0.000800707
0.000779786
0.000879438
0.00102744
0.00424627
0.15268
0.00357856
0.00380452
0.0142683
0.00299307
0.00317458
0.0851371
0.00218131
0.00202442
0.00212737
0.00353527
0.0033809
0.00405159
0.00501855
0.0053533
0.0901584
0.0853174
0.000957774
0.000840578
0.00873201
0.0124462
0.0100549
0.0106631
0.0109256
0.0111551
0.000218513
0.000233337
0.0002609
0.000315305
0.0039215
0.00363956
0.00764025
0.00875958
0.117784
0.11177
0.0952951
0.103597
0.124864
0.134467
0.0610392
0.0493705
0.0227717
0.0244061
0.0367874
0.0345795
0.000235545
0.000215097
0.000245765
0.000286664
1.0661e-06
9.0016e-05
0.000209947
0.00237745
0.00487899
0.00984238
0.0136453
0.0244392
0.039796
0.0594596
0.0819789
0.0930803
0.00608914
0.00861074
0.0119865
0.0163449
0.0217839
0.0283681
0.036124
0.0450275
0.0549784
0.065769
0.0770831
0.0884778
3.18944e-07
1.80023e-06
4.85091e-05
0.000127123
0.000262762
0.00330486
0.0066979
0.00929992
0.0126995
0.0170342
0.0289756
0.0457173
0.0666619
0.089326