# vtk DataFile Version 2.0
Unstructured Grid by M++
ASCII
DATASET UNSTRUCTURED_GRID
POINTS 4072 float
  0.828125   0.890625 0
  0.875000   0.531250 0
  0.828125   0.750000 0
  0.593750   0.968750 0
  0.828125   0.671875 0
  0.828125   0.875000 0
  0.593750   0.937500 0
  0.828125   0.656250 0
  0.828125   0.640625 0
  0.828125   0.843750 0
  0.593750   0.906250 0
  0.828125   0.625000 0
  0.781250   0.968750 0
  0.828125   0.609375 0
  0.828125   0.812500 0
  0.593750   0.875000 0
  0.593750   0.828125 0
  0.593750   0.796875 0
  0.828125   0.703125 0
  0.593750   0.765625 0
  0.828125   0.937500 0
  0.812500   0.875000 0
  0.859375   0.515625 0
  0.812500   0.734375 0
  0.812500   0.937500 0
  0.578125   1.000000 0
  0.578125   0.750000 0
  0.812500   0.687500 0
  0.578125   0.953125 0
  0.812500   0.656250 0
  0.812500   0.859375 0
  0.578125   0.921875 0
  0.812500   0.828125 0
  0.578125   0.890625 0
  0.812500   0.593750 0
  0.812500   0.796875 0
  0.578125   0.859375 0
  0.578125   0.812500 0
  0.578125   0.781250 0
  0.796875   1.000000 0
  0.796875   0.859375 0
  0.796875   0.718750 0
  0.562500   0.984375 0
  0.562500   0.937500 0
  0.796875   0.843750 0
  0.562500   0.906250 0
  0.796875   0.812500 0
  0.562500   0.875000 0
  0.796875   0.578125 0
  0.796875   0.781250 0
  0.562500   0.843750 0
  0.812500   0.984375 0
  0.562500   0.796875 0
  0.812500   0.953125 0
  0.562500   0.765625 0
  0.796875   0.937500 0
  0.546875   0.750000 0
  0.781250   0.984375 0
  0.828125   0.593750 0
  0.781250   0.843750 0
  0.781250   0.937500 0
  0.546875   1.000000 0
  0.781250   0.703125 0
  0.546875   0.968750 0
  0.546875   0.921875 0
  0.781250   0.828125 0
  0.546875   0.890625 0
  0.781250   0.796875 0
  0.546875   0.859375 0
  0.781250   0.562500 0
  0.781250   0.765625 0
  0.546875   0.828125 0
  0.796875   0.968750 0
  0.546875   0.781250 0
  0.765625   1.000000 0
  0.765625   0.968750 0
  0.531250   0.984375 0
  0.765625   0.687500 0
  0.531250   0.953125 0
  0.531250   0.937500 0
  0.531250   0.906250 0
  0.765625   0.812500 0
  0.531250   0.875000 0
  0.765625   0.781250 0
  0.531250   0.843750 0
  0.781250   1.000000 0
  0.765625   0.546875 0
  0.765625   0.750000 0
  0.531250   0.812500 0
  0.781250   0.953125 0
  0.531250   0.765625 0
  0.515625   0.750000 0
  0.750000   0.984375 0
  0.750000   0.953125 0
  0.796875   0.593750 0
  0.796875   0.562500 0
  0.750000   0.843750 0
  0.750000   0.937500 0
  0.515625   1.000000 0
  0.750000   0.906250 0
  0.515625   0.968750 0
  0.750000   0.671875 0
  0.750000   0.875000 0
  0.515625   0.937500 0
  0.515625   0.921875 0
  0.515625   0.890625 0
  0.750000   0.796875 0
  0.515625   0.859375 0
  0.750000   0.765625 0
  0.515625   0.828125 0
  1.000000   0.718750 0
  0.750000   0.531250 0
  0.750000   0.734375 0
  0.515625   0.796875 0
  0.734375   1.000000 0
  0.734375   0.968750 0
  0.734375   0.937500 0
  0.781250   0.578125 0
  0.781250   0.546875 0
  0.968750   0.578125 0
  0.734375   0.828125 0
  0.968750   0.546875 0
  0.734375   0.796875 0
  0.734375   0.765625 0
  0.968750   0.671875 0
  0.734375   0.734375 0
  0.968750   0.640625 0
  0.734375   0.703125 0
  0.968750   0.609375 0
  0.734375   0.671875 0
  0.734375   0.656250 0
  0.734375   0.625000 0
  0.968750   0.531250 0
  0.734375   0.593750 0
  0.984375   0.734375 0
  0.984375   0.703125 0
  0.734375   0.515625 0
  0.718750   0.984375 0
  0.718750   0.953125 0
  0.718750   0.921875 0
  0.953125   0.562500 0
  0.718750   0.812500 0
  0.953125   0.531250 0
  0.718750   0.781250 0
  0.718750   0.750000 0
  0.953125   0.656250 0
  0.718750   0.718750 0
  0.953125   0.625000 0
  0.718750   0.687500 0
  0.953125   0.593750 0
  0.718750   0.656250 0
  0.671875   1.000000 0
  0.718750   0.640625 0
  0.718750   0.609375 0
  0.953125   0.515625 0
  0.718750   0.578125 0
  0.968750   0.718750 0
  0.968750   0.687500 0
  0.953125   0.671875 0
  0.703125   0.968750 0
  0.703125   0.937500 0
  0.937500   0.656250 0
  0.703125   0.906250 0
  0.937500   0.546875 0
  0.703125   0.796875 0
  0.937500   0.515625 0
  0.703125   0.765625 0
  0.937500   0.671875 0
  0.703125   0.734375 0
  0.937500   0.640625 0
  0.703125   0.703125 0
  0.937500   0.609375 0
  0.703125   0.671875 0
  0.937500   0.578125 0
  0.703125   0.640625 0
  0.656250   0.984375 0
  0.703125   0.625000 0
  0.703125   0.593750 0
  0.718750   0.796875 0
  0.953125   0.734375 0
  0.812500   1.000000 0
  0.859375   0.656250 0
  0.703125   0.781250 0
  0.937500   0.718750 0
  0.953125   0.703125 0
  0.796875   0.984375 0
  0.843750   0.640625 0
  0.812500   0.968750 0
  0.859375   0.625000 0
  0.796875   0.953125 0
  0.843750   0.609375 0
  0.687500   0.953125 0
  0.687500   0.921875 0
  0.687500   0.890625 0
  0.921875   0.734375 0
  0.687500   0.796875 0
  0.687500   0.781250 0
  0.921875   0.703125 0
  0.687500   0.765625 0
  0.687500   0.750000 0
  0.921875   0.656250 0
  0.687500   0.718750 0
  0.921875   0.625000 0
  0.687500   0.687500 0
  0.921875   0.593750 0
  0.687500   0.656250 0
  0.640625   1.000000 0
  0.921875   0.562500 0
  0.687500   0.625000 0
  0.640625   0.968750 0
  0.687500   0.609375 0
  0.687500   0.578125 0
  0.937500   0.687500 0
  0.921875   0.671875 0
  0.671875   0.921875 0
  0.906250   0.656250 0
  0.671875   0.906250 0
  0.671875   0.875000 0
  0.906250   0.718750 0
  0.671875   0.781250 0
  0.671875   0.765625 0
  0.671875   0.734375 0
  0.906250   0.640625 0
  0.671875   0.703125 0
  0.906250   0.609375 0
  0.671875   0.671875 0
  0.906250   0.578125 0
  0.671875   0.640625 0
  0.625000   0.984375 0
  0.671875   0.609375 0
  0.625000   0.953125 0
  0.671875   0.593750 0
  0.671875   0.562500 0
  0.765625   0.953125 0
  0.812500   0.609375 0
  0.656250   1.000000 0
  0.656250   0.953125 0
  0.656250   0.906250 0
  0.890625   0.640625 0
  0.656250   0.890625 0
  0.656250   0.859375 0
  0.890625   0.734375 0
  0.656250   0.796875 0
  0.812500   0.921875 0
  0.562500   1.000000 0
  0.625000   0.828125 0
  0.812500   0.843750 0
  0.843750   0.593750 0
  0.812500   0.812500 0
  0.625000   0.718750 0
  0.828125   0.687500 0
  0.640625   0.593750 0
  0.812500   0.781250 0
  0.625000   0.687500 0
  0.765625   0.828125 0
  0.640625   0.562500 0
  0.812500   0.750000 0
  0.562500   0.828125 0
  0.781250   0.875000 0
  0.546875   0.937500 0
  0.781250   0.671875 0
  0.781250   0.593750 0
  0.546875   0.656250 0
  0.796875   0.750000 0
  0.562500   0.812500 0
  0.796875   0.546875 0
  0.765625   0.796875 0
  0.765625   0.593750 0
  1.000000   0.531250 0
  0.812500   0.718750 0
  0.859375   0.562500 0
  0.625000   0.625000 0
  0.812500   0.703125 0
  0.812500   0.906250 0
  0.578125   0.968750 0
  0.984375   0.593750 0
  0.828125   0.578125 0
  0.828125   0.781250 0
  0.593750   0.843750 0
  0.812500   0.671875 0
  0.625000   0.578125 0
  0.796875   0.671875 0
  0.562500   0.734375 0
  0.984375   0.562500 0
  0.828125   0.546875 0
  0.812500   0.640625 0
  0.750000   0.812500 0
  0.625000   0.546875 0
  0.796875   0.640625 0
  0.562500   0.703125 0
  0.828125   0.515625 0
  0.781250   0.734375 0
  0.546875   0.796875 0
  0.781250   0.531250 0
  0.750000   0.781250 0
  0.625000   0.515625 0
  0.796875   0.609375 0
  0.562500   0.671875 0
  0.765625   0.656250 0
  0.765625   0.859375 0
  0.531250   0.921875 0
  0.812500   0.578125 0
  0.562500   0.656250 0
  0.984375   0.687500 0
  0.750000   0.750000 0
  0.812500   0.562500 0
  0.812500   0.765625 0
  0.578125   0.828125 0
  0.562500   0.625000 0
  0.984375   0.656250 0
  0.750000   0.718750 0
  0.812500   0.531250 0
  0.781250   0.656250 0
  0.546875   0.718750 0
  0.781250   0.625000 0
  0.546875   0.687500 0
  0.750000   0.640625 0
  0.796875   0.531250 0
  0.562500   0.593750 0
  0.984375   0.625000 0
  0.750000   0.687500 0
  0.546875   0.984375 0
  0.609375   0.812500 0
  0.796875   0.875000 0
  0.546875   0.953125 0
  0.609375   0.578125 0
  0.843750   0.515625 0
  0.765625   0.515625 0
  0.765625   0.718750 0
  0.531250   0.781250 0
  0.984375   0.546875 0
  0.750000   0.609375 0
  0.796875   0.828125 0
  0.671875   0.968750 0
  0.796875   0.796875 0
  0.796875   0.765625 0
  0.609375   0.671875 0
  0.796875   0.734375 0
  0.546875   0.812500 0
  0.796875   0.703125 0
  0.843750   0.546875 0
  0.609375   0.609375 0
  0.796875   0.687500 0
  0.562500   0.953125 0
  0.796875   0.656250 0
  0.609375   0.562500 0
  0.796875   0.625000 0
  0.609375   0.531250 0
  0.546875   0.640625 0
  0.765625   0.671875 0
  0.531250   0.734375 0
  0.796875   0.515625 0
  0.765625   0.640625 0
  0.531250   0.703125 0
  0.703125   1.000000 0
  0.765625   0.609375 0
  0.531250   0.671875 0
  0.765625   0.578125 0
  0.531250   0.640625 0
  0.546875   0.609375 0
  0.531250   1.000000 0
  0.890625   0.593750 0
  0.656250   0.656250 0
  0.781250   0.515625 0
  0.546875   0.578125 0
  0.531250   0.968750 0
  0.890625   0.562500 0
  0.656250   0.625000 0
  0.609375   0.968750 0
  0.781250   0.859375 0
  0.656250   0.593750 0
  0.750000   0.703125 0
  0.515625   0.765625 0
  0.781250   0.812500 0
  0.781250   0.781250 0
  0.593750   0.687500 0
  0.781250   0.750000 0
  0.593750   0.656250 0
  0.781250   0.718750 0
  0.531250   0.796875 0
  0.828125   0.562500 0
  0.593750   0.625000 0
  0.781250   0.687500 0
  0.828125   0.531250 0
  0.593750   0.593750 0
  0.812500   0.625000 0
  0.578125   0.687500 0
  0.781250   0.640625 0
  0.781250   0.609375 0
  0.593750   0.515625 0
  0.515625   0.781250 0
  0.812500   0.546875 0
  0.578125   0.609375 0
  0.812500   0.515625 0
  0.578125   0.578125 0
  0.750000   0.656250 0
  0.515625   0.718750 0
  0.750000   0.625000 0
  0.515625   0.687500 0
  0.687500   0.984375 0
  0.750000   0.593750 0
  0.515625   0.656250 0
  0.531250   0.546875 0
  0.750000   0.562500 0
  0.515625   0.625000 0
  0.531250   0.515625 0
  0.984375   0.515625 0
  0.750000   0.578125 0
  0.515625   0.531250 0
  0.828125   0.796875 0
  0.640625   0.703125 0
  0.828125   0.765625 0
[...]
CELL_DATA 7648
SCALARS scalar_value float 1
LOOKUP_TABLE default
0.0375519
0.0392271
0.000694606
0.000548869
0.00057565
0.000442361
0.000264145
0.000303859
0.000324946
0.000326591
0.00109837
0.00147285
0.00194572
0.00143641
0.00224965
0.00230533
0.00268437
0.00184605
0.0301067
0.0342936
0.027975
0.0332044
0.0365906
0.0397927
0.0509707
0.0516725
0.0551009
0.0477363
0.0588178
0.0590264
0.0614104
0.0549139
9.59344e-06
1.14971e-05
1.87865e-05
8.19681e-06
0.00343304
0.00327331
0.0428822
0.0382659
0.00280753
0.00295508
0.0730048
0.0727767
2.77786e-05
4.30081e-05
3.75775e-05
6.96041e-05
5.32485e-05
9.56412e-05
8.6898e-05
0.00016472
0.000172724
0.000270008
0.000261037
0.000382006
0.0206314
0.0224491
0.0261391
0.0250984
0.0281375
0.0309901
0.000286573
0.000357814
0.000411711
0.000430556
0.000574529
0.000785501
0.000630894
0.000449639
0.000404582
0.000470654
0.000284765
0.0290267
0.0759418
0.000400622
0.000284116
0.000296244
0.000208955
0.000678331
0.000536171
0.000390429
0.000521956
0.00114744
0.000883105
0.000898079
0.000710547
0.0257236
0.0278742
0.0315479
2.23324e-05
3.2648e-05
4.3791e-05
4.01167e-05
6.30962e-05
7.15195e-05
0.000101092
5.63341e-05
0.000122959
0.000166652
0.00013522
6.85078e-05
9.48409e-05
0.000116032
0.0375629
1.2773e-06
1.48062e-06
2.63968e-06
0.00218091
0.00217922
0.00223324
0.00200704
2.10777e-05
2.38856e-05
3.65044e-05
1.65118e-05
1.3836e-05
2.31891e-05
1.33736e-05
0.000646179
0.000760209
0.00078848
0.000846359
0.00100464
0.0010291
0.000922021
0.00121064
0.00190649
0.00192784
0.00217066
0.00163878
0.000359318
0.00038751
0.000474808
0.000343753
0.000232319
0.000255989
0.000237846
0.000298457
0.00238627
0.00184853
0.00189051
0.00115127
0.00142321
0.00156454
0.00190325
0.00232709
0.00187243
0.0213653
0.0241627
0.0269657
0.0207863
0.0211601
0.0232424
0.0187899
0.0129381
0.0128312
0.0144486
0.0103971
8.87145e-05
0.000115391
0.00253511
0.00266309
0.00325123
0.00214534
0.0569872
0.00182459
0.00193789
0.0024118
0.00157196
0.0143264
0.0123331
0.0118942
0.0114735
2.80276e-05
3.1507e-05
0.000383448
0.000419129
0.000533351
0.000348549
0.000581163
0.000479739
0.000520552
0.000378143
0.0286211
0.0312248
0.0342322
0.0317096
0.0348677
0.0377009
0.0413319
0.0899011
0.0975519
0.000308667
0.000333501
0.000426015
0.000265317
0.0175332
0.0175796
0.0189745
0.0157998
0.000129624
0.00015965
0.000182252
0.000174698
1.49889e-05
1.74095e-05
0.000221803
0.000245445
0.00030913
0.00021468
0.000250708
0.000319429
0.000378817
0.000364998
0.000236329
0.000295171
0.000345429
0.000326054
0.000714144
0.000933041
0.000900225
0.00114492
0.00102598
0.00105935
0.00140157
0.000484011
0.000513389
0.000545227
0.000469872
0.000247147
0.00026949
0.000252894
0.000301788
0.000523237
0.000542049
0.00067199
0.000420447
0.000375135
0.000396771
0.000366038
0.000450006
0.000847808
0.000875391
0.0010564
0.000703887
0.0794686
0.0794977
0.0105021
0.0108788
0.0115156
0.010722
0.0116573
0.0108075
0.0103252
0.0103131
0.0088005
0.00757261
0.0083517
0.000191591
0.000209356
0.000265827
0.0001818
0.000244096
0.000314884
0.000414168
0.00033279
0.000206484
0.000253232
0.000288412
0.000284813
0.0016308
0.001785
0.00211414
0.00192812
0.00195641
0.00217251
0.00165208
0.0288352
0.032017
0.0352166
0.0261777
0.0286094
0.0231941
0.0314606
0.0343602
0.0281907
0.0201769
0.0224084
0.0170802
0.0336631
0.0332223
0.0347602
0.0296046
0.0141553
0.014998
0.00114101
0.000993105
3.12001e-06
0.000198401
7.27775e-06
0.0262486
0.00794243
0.000160945
0.000182108
0.00115443
0.000301292
0.000166164
0.000387686
0.00155522
0.000376239
0.00513473
0.000562122
0.00386758
0.000301925
0.000284449
0.000204101
0.00454128
0.00375591
0.0508714
0.0447086
0.00702495
0.0242684
0.0259382
0.00280234
0.00937087
0.000695501
0.015685
0.0021414
0.0146983
0.00163755
0.00189319
0.000547138
0.000323864
0.000429787
0.000225084
0.000243781
9.77213e-05
0.000176797
0.0182743
0.0204006
0.0142162
0.0671102
0.0161882
0.0118359
2.8729e-05
1.29728e-05
0.0806695
3.50906e-05
0.00169443
0.000450858
0.000410007
0.000656976
0.000114228
0.0405327
0.0224379
0.0191652
0.0770773
0.0891945
0.0190679
0.00246398
0.00281546
0.00249546
0.0230736
0.0157392
0.0386778
0.00270417
0.00298479
0.00309058
0.0253636
0.0276736
0.0689953
0.0650022
0.00852902
5.74492e-06
0.000591261
0.00801588
0.0175655
0.0188846
0.00216655
0.0222142
0.00325005
0.0179578
0.00662538
0.00679731
0.00556241
0.00365212
0.00317686
0.00283261
0.0169835
0.0200318
0.0167151
0.0299212
0.00245637
0.0232291
0.0189905
0.0223856
0.0177209
0.00279609
0.00337347
0.000561357
0.00130381
0.000615775
0.00134314
0.0185445
0.000712784
9.98545e-05
0.00159277
0.000589095
5.18982e-05
0.00111064
0.0554587
0.0139576
0.0754664
0.0158378
0.0130173
0.00219369
0.0123623
0.0715273
4.06408e-05
0.000123337
0.0100097
0.0638759
0.00556083
0.0216105
0.000967766
0.00391652
3.9028e-05
1.62598e-06
1.22018e-06
0.00312498
0.0475762
0.000682493
3.71666e-05
0.00103617
0.00218728
0.0260455
0.00248267
0.00272246
0.00145316
0.00218116
0.00166585
0.0235901
0.0122547
0.0141064
0.000889775
0.00749401
0.00747563
0.0157319
0.0168441
0.0166113
0.0022467
0.00224912
0.0124175
0.01817
0.00643069
0.00753842
0.00418894
0.000490473
0.00040556
0.00921438
0.00663351
0.00130539
0.0165777
0.0424069
0.002438
0.00127967
0.00130301
0.0151363
0.00153448
0.00104181
0.00107407
0.000861708
0.000841237
0.0108149
0.000138559
0.000167623
0.00755154
0.0983765
0.0522496
0.00515801
0.0183453
0.0239008
0.00609761
0.000820833
0.00520795
0.00632151
0.00786547
0.00341415
0.0290483
0.0239064
0.0489912
0.0456152
0.0573025
0.00127414
0.00262681
0.0465563
0.00914365
0.00898409
0.00779062
0.0414119
0.000476024
0.00449247
0.00109702
0.00157665
0.00216734
0.000219249
0.00930625
0.00847107
0.000913711
0.00901287
0.0232103
0.00189691
0.0309866
0.0119979
0.0112693
0.0678077
0.0101399
0.0107935
0.0568425
0.0550148
0.0151413
0.0966817
0.0781702
0.0503107
0.00187458
0.00049077
0.00075593
5.64247e-05
0.00235876
0.0018265
0.0937261
0.0193709
0.0014173
0.000930461
0.0209019
5.88879e-06
0.0646524
0.0101513
0.0227849
0.00149344
0.0273346
0.0018791
0.0256389
0.0240436
0.0265616
7.46626e-06
0.000189425
0.0543416
0.000223537
0.000278239
9.61671e-05
0.00011081
0.0343785
0.0115226
0.000193673
0.00156468
0.000715403
0.00645235
0.0477848
1.87502e-06
2.42025e-06
0.0528678
3.95902e-06
0.0027779
0.0219756
0.00301523
0.00113202
0.0100941
0.00192262
0.0166295
0.00187939
0.0182361
0.0049536
0.00517655
0.000397753
0.00614147
0.000527826
0.00431141
0.0002752
0.00161978
0.00693875
0.00724701
0.0142741
3.77883e-05
4.2991e-05
5.9623e-05
0.00231027
3.59186e-05
0.00184783
0.00064867
0.000982472
6.70472e-05
0.00247646
0.00180577
6.63145e-05
5.10501e-05
0.00202757
7.28556e-05
7.97027e-05
1.62665e-05
7.45887e-07
0.0018971
4.6057e-05
0.00405976
3.50405e-05
5.40342e-05
2.26583e-05
0.0210374
0.00828025
0.02088
0.0014077
0.0100183
0.0168757
0.00267088
0.00248468
0.00279766
0.0013437
0.00925943
0.000141803
0.00131105
0.020584
0.0654613
0.0283585
0.00352672
9.29106e-05
0.00180285
0.0104561
0.00144842
0.0130266
0.0125111
0.000523527
0.00826905
0.0420574
0.00192312
0.0218069
0.000189899
0.0282649
0.0224759
0.0243854
0.0196986
0.0125414
1.78132e-05
0.0235981
0.0678391
0.0119923
0.0721653
0.0137259
0.0214209
0.0686064
0.0708472
0.00408623
0.00459261
0.0116669
0.000612658
0.00632234
0.000798578
0.0444534
0.00116578
0.09932
0.00508312
0.00050166
0.00453448
0.0400402
0.000204892
0.00212158
0.00280626
0.00374612
0.0780001
0.0823964
0.0177677
0.000870787
2.67231e-05
0.0015169
4.27257e-05
0.000287004
0.00301768
0.00113389
0.0108488
0.0133458
0.00590325
0.00355714
0.0343154
0.0120541
0.00458287
0.0417701
6.04324e-06
0.00390284
0.00353321
0.00209048
0.00411155
0.00412803
0.00561156
0.00490017
0.0420103
0.0379684
0.0399752
0.0423516
1.73156e-06
0.0295176
0.00894189
3.11946e-06
0.0372363
0.00313553
6.7271e-06
0.0474922
0.0111684
0.00328235
8.59414e-05
0.0189162
6.46245e-06
0.016987
0.0372383
0.0415394
0.00137588
0.0250504
0.0026438
0.00803934
0.00135951
0.0123542
0.0258578
0.0106914
0.00140151
0.001067
9.36957e-07
0.00313516
0.00328855
0.0159079
0.00010363
0.00277029
0.059783
0.0333925
0.00426206
0.010087
0.00235361
0.0289475
0.00338896
0.00887789
0.00189637
0.00850943
0.00783266
0.0014059
0.00294121
0.0307387
0.000651067
0.017597
0.00704546
0.0316803
0.0120885
0.00347702
0.000660433
0.0114477
0.00566
0.00248603
0.0208112
0.0208134
0.00239552
0.000615421
0.00381923
0.00215473
0.00909037
0.00074031
0.000710079
0.0399052
3.98018e-06
0.00428131
0.0116417
0.001856
0.0131642
0.000650112
3.15522e-06
0.00035464
0.06216
0.000808911
0.0144074
0.000821114
5.38026e-05
0.00120764
0.00719361
0.000670719
2.3871e-05
0.00094308
0.00137362
0.000855765
0.00995624
0.0585642
0.000872116
0.0592399
0.00757185
0.00137536
0.0128558
0.00378477
0.0134062
0.00108807
0.00105519
0.0625903
0.00851507
0.0102721
0.00910044
0.000118606
0.0036524
0.00154418
0.0131762
0.000144655
0.00513057
0.00319205
0.000847776
0.0170305
0.0016852
0.000668793
0.092069
0.00160851
0.00881913
0.00785765
0.0352791
0.000302386
0.0509058
0.0062125
0.00037242
0.0466967
0.000476367
0.000784079
1.66963e-06
0.0276116
0.00951574
0.00453857
0.0241444
0.0294274
0.0030887
0.0306853
0.0360178
0.0103341
0.00282977
0.0207315
0.00214186
0.0001126
0.000588791
5.47849e-06
0.00326194
0.00755849
0.00919821
0.0438178
0.00764568
0.00767497
0.000101164
0.0964778
0.047843
0.00779495
0.0271218
0.000185891
0.00219265
0.00201721
0.000102666
0.00135791
0.00226126
0.0115962
0.0190874
0.00707045
0.0137218
0.00185828
0.0329247
0.0197704
0.00185368
0.0661136
0.0206024
0.0137446
0.000521751
6.06568e-05
0.0174257
0.000308324
0.000145581
0.000667719
2.96997e-06
0.0139654
0.00132856
0.00063863
0.00869117
0.0459303
0.000128978
0.000123875
0.0296901
4.95328e-05
0.016085
0.000132109
0.00860893
0.00131181
0.00136602
0.0290752
0.000572209
0.0201509
0.000458236
0.00920857
0.00244113
1.61084e-05
0.00205986
0.0288945
0.00779941
0.00315836
0.0145749
9.09348e-05
0.00167151
0.0199918
0.00468315
0.0693444
0.0114336
0.0273332
0.0185937
0.0358535
0.000903544
1.18744e-05
0.000973793
0.000405323
0.00238897
0.0205559
0.00102764
0.0402455
0.0496529
0.00899023
0.0115751
2.62128e-05
0.00325834
0.00239922
0.00186569
0.00407092
0.00265107
0.00247244
0.00352976
0.000519512
0.00231384
0.0037989
0.050788
0.0437817
0.00249482
0.0917533
0.0256371
0.0341726
0.00239328
2.23891e-05
0.000127036
1.88118e-05
0.0179123
0.000277884
0.00508296
0.0565439
0.0102283
0.0108
0.0624713
0.0268726
0.00240141
0.0142723
0.0366146
0.0030636
0.0807538
0.0112024
0.00141059
0.00250424
0.00380287
0.000222514
0.00429258
0.0607822
0.00879871
0.000732416
8.07809e-06
0.0167152
0.0352074
0.00247719
0.000399477
0.0039182
0.00254976
0.0058934
0.000461729
3.65437e-06
0.00975765
0.00225375
0.00401149
0.0074241
0.00275216
0.00695698
0.00111742
0.00155535
0.00248671
0.034533
0.00973071
0.000813225
0.0831718
0.0108298
0.00309539
0.00787802
0.00955526
0.00936102
0.00999063
0.000383226
0.000166246
0.000166206
0.00883426
0.000531559
0.00563358
0.0373147
0.0189035
0.0691576
0.0188443
0.00013411
0.00087627
0.000427049
0.0356857
0.00198004
0.0587615
0.00108284
0.00575883
0.00157013
0.020206
0.0149039
0.00111077
0.00574991
0.00181917
0.0258075
0.00661892
0.000383961
0.000715034
0.00561883
0.0333573
0.000151954
0.019735
0.0107362
0.000455974
0.0196535
0.000118103
0.00910472
0.00137322
0.00295321
0.0101465
0.0333959
0.0260838
0.0933324
0.0178709
0.0317589
0.0109654
0.0213671
8.33325e-05
0.00341368
0.0103338
0.00213
0.00388084
0.0475279
0.0117554
0.00243589
0.0109152
0.032917
0.0791442
0.0316988
0.0031307
0.00263474
0.00219992
0.00254341
0.00195407
0.00104875
0.00185784
0.00049858
0.000564156
0.0154811
0.0123088
5.2116e-06
0.0551386
0.0280825
0.00198406
0.00150645
0.00159014
0.0221455
0.01178
2.22068e-05
0.00327356
0.00295894
0.00137913
0.00368899
0.0242305
0.000211171
0.0353287
0.0562591
0.0505006
0.0496026
0.0534558
0.0371655
0.000196518
0.00359571
0.0406031
0.0441313
0.0358117
0.000119851
0.00314773
0.0213073
0.000162294
0.0036838
0.00029485
0.00508275
0.00312064
0.000319402
0.00206649
0.000185995
0.0910961
0.0611758
0.0010895
0.0629378
0.0319085
0.00682586
0.0381388
0.0348632
0.0339664
0.0327501
0.0390227
0.0423976
0.033563
0.0300137
0.00407218
0.00535625
0.00358477
0.00469884
0.0443405
0.00466303
0.0421171
0.00190025
7.57025e-05
0.00159992
0.000152466
0.0303656
0.0259504
0.0071546
0.00835168
0.0627099
0.0666967
0.0105974
0.0662089
0.000154933
0.000173877
0.00493338
0.00493719
0.00322336
0.00276215
0.0300054
0.00249787
0.0397848
0.00513243
0.00458105
0.00409297
0.0170895
0.0466727
0.00212828
0.00225223
0.00226535
0.0371783
0.00236655
0.00232114
5.49306e-05
0.0191817
0.0011535
3.15824e-05
0.00146686
0.0662287
0.000183083
0.0032745
0.000265789
0.00395674
0.000140966
0.0235777
0.0890754
0.0044881
0.0170914
0.00464683
0.00438467
0.00415287
0.0149736
0.0229122
0.0205159
0.00547216
0.00557832
0.0233612
0.00649964
0.00488512
0.0213857
0.00475054
0.0255281
0.00506486
0.0246434
0.0048725
0.000137305
4.04533e-06
0.00109502
0.00202006
0.000154261
0.00170598
8.14983e-05
2.19066e-06
7.48757e-05
0.00276165
0.00687072
0.0434123
0.00863572
0.0462954
0.00713906
0.00877065
0.0102692
0.0124455
0.0627824
0.00717345
0.00648034
0.00853349
0.00690761
0.0537865
0.0883073
0.0344464
0.00354849
0.0724755
0.0104545
0.0849263
0.0269145
0.0174792
0.00573797
0.0905099
0.00115932
0.00220211
0.000754762
7.30173e-05
0.00163219
0.00039437
0.00474455
0.000258357
9.04417e-05
0.00247565
0.0514085
0.00966272
0.000958586
0.00828444
0.00739211
0.0147783
0.0214867
0.0338547
0.012563
0.0115736
0.0125209
0.00220773
0.000802481
0.00464121
0.00154979
0.02019
0.00297094
0.0227672
0.0200605
0.0184425
2.66979e-05
0.00718017
0.000685039
0.0432495
0.00386963
0.000147773
0.004444
0.00488756
0.00663818
0.00605967
0.000702096
0.000557077
0.004556
0.000592377
0.0134495
0.000398289
0.0260103
0.054966
0.0102226
0.000509407
0.0154993
0.012471
0.0027946
2.50082e-06
0.00572491
0.000451314
4.97201e-06
0.0197109
0.0244581
0.0234773
0.0852548
0.000229587
0.0224467
0.0171848
0.0198786
0.0171793
0.0218429
0.00269824
0.00522349
0.0197483
0.000366862
0.000313976
0.000295294
0.000216977
0.000255407
9.54968e-06
0.0520995
0.0483963
0.0600821
0.0626147
0.0825037
0.0696111
0.0124547
0.07638
0.014524
0.073509
0.0133224
0.0727057
0.0124896
0.0541403
0.0618941
0.0581598
0.0572094
0.0179041
0.0204415
0.0159257
0.000982483
0.0131863
0.0129829
0.00226769
0.0110427
0.0151098
0.0161063
0.04054
0.000104971
0.000131211
0.024222
0.000152478
0.000106021
0.0318154
0.000621995
4.49916e-06
3.18937e-06
2.12815e-06
0.00203879
0.0158646
0.00181836
7.68085e-05
0.00243577
0.00280347
0.00234239
0.00188943
0.0510294
0.0117947
0.0488536
0.0474351
0.00757189
0.000265461
0.000283108
0.0461251
0.00377402
0.00452931
0.00535388
7.74301e-06
0.0064859
0.00710135
0.00455822
0.005137
0.00555591
0.0362401
0.0431431
0.0396091
0.0386499
0.00043098
0.00360588
0.00290344
0.00263313
0.00270253
0.00242278
0.000740895
0.0457278
0.0659862
0.0650176
0.0689501
0.0145245
0.00564214
0.000941861
0.00483794
0.0942585
0.0946876
0.00402907
0.00461142
0.00428114
0.00422009
0.000162415
0.000188589
0.000165019
0.0245855
0.00523217
0.00438677
0.0432544
0.00525681
0.00607212
0.0258924
0.0218941
0.00110366
0.00161759
0.000550185
0.00072393
0.000537674
0.00510336
0.000401058
0.00430325
0.00345133
0.0142074
0.00576091
0.00667514
0.00710019
0.0362671
0.0471811
0.00498118
0.00420473
0.00368077
0.00308873
0.00608434
0.0079977
0.00893941
0.000660896
0.0508899
0.0076802
0.000927735
0.00659153
0.00628892
5.50829e-06
0.0216074
0.000950967
0.00118072
0.000734408
0.0388728
0.0159556
0.00166273
0.000190134
0.00715925
0.000518023
0.00604486
0.00040404
0.00578871
0.0042805
0.00404805
0.00398491
0.00351819
0.0112821
0.0137637
0.0149202
0.0468085
0.0200674
0.00208005
0.00636229
0.017852
0.0018158
0.0361346
0.0422748
0.0049078
0.00577652
0.0117012
0.00142864
0.0102638
0.046
0.0146313
0.0160367
0.0224463
0.0516807
0.0289782
0.0308134
0.00240267
0.0281125
0.0253321
1.09621e-05
0.0019779
0.0139886
0.00178827
0.00188824
0.00362528
0.0284014
0.00320868
0.0469116
0.000225333
0.000177411
1.02357e-05
0.00095977
9.49046e-06
7.86733e-06
5.60838e-06
0.0106089
0.0102659
0.00311715
0.0174256
0.0175756
0.0327314
0.0295875
0.00721723
0.0574469
0.0891312
0.0139874
0.0081895
0.010331
0.0098157
0.0102503
0.0139402
0.0110513
0.0132958
0.012411
0.0133316
0.00178761
0.00206688
0.0019086
0.000387251
0.000287367
0.00475397
0.006235
0.00562765
0.00573054
0.00101302
0.00160225
0.0244751
0.00225529
0.00141119
0.0895493
0.0247491
0.0977587
0.094925
0.0947036
0.0297012
0.0338223
0.0305729
0.0291858
0.04012
0.00603454
0.00608381
0.00170969
0.0011866
0.00184346
0.000685208
0.002306
0.000980558
0.0083254
0.00940781
0.00818471
0.00977776
0.040663
0.00283284
0.00270696
0.00204672
0.000242416
0.00484692
0.0193934
0.0428747
0.01732
0.00217922
0.00818564
0.00811502
0.00939967
0.0338549
0.0343476
0.00235206
0.0152596
0.0114489
0.00485458
0.00283724
0.0034342
0.0117234
0.0144053
0.0139121
0.0162599
0.0209809
0.0127099
0.0316262
0.0142173
0.012042
0.0145667
0.0121595
0.000542697
0.000727575
0.0845132
0.060846
0.0572139
0.0549785
5.77852e-05
7.90352e-05
0.0737428
0.0701784
0.0661187
0.0131565
0.00213957
0.00166636
0.0161752
0.0133681
0.0161763
0.0180928
0.000107444
0.000114839
0.00216392
0.00249874
0.00246375
0.00282071
0.0758623
0.0740942
0.0786808
0.0115359
0.0557435
1.3637e-05
9.52851e-06
6.31931e-06
0.00142351
0.00589114
0.00624438
0.00559691
0.00479425
2.70337e-06
4.28205e-06
0.0385044
0.00746902
0.0012943
0.000821903
0.000832525
0.000557883
0.000334495
0.000504259
0.00656642
0.0436381
0.0449266
0.0389871
0.0142721
0.0118262
0.0180762
0.0166843
0.00193181
0.00508326
0.00706743
0.011024
0.0284031
0.0607922
0.00848133
0.00958533
0.00815074
0.0153622
0.00282059
0.0444072
0.0515324
0.0032658
0.00321267
0.055706
0.00213917
0.00167969
0.0593297
0.011888
0.0146976
0.0137754
0.0140503
0.0149686
0.00559814
0.00536391
0.00450359
0.00788762
0.00975885
0.00787334
0.0110125
0.0131214
0.00203024
0.0154782
0.0147264
0.0464532
0.0126986
0.0249676
0.0232096
0.0168685
0.00236739
0.0525887
0.00868194
0.0108068
0.0124094
0.0482987
0.0519216
0.00387919
0.0556383
0.0762842
0.000764169
0.000564284
0.0342501
0.0038936
0.00567346
0.00397465
0.00294964
0.0486914
5.51107e-06
6.52926e-06
4.85252e-06
3.42893e-06
0.0376851
0.00474627
0.00516053
0.00520202
0.00609613
0.0121361
0.00179161
0.00417036
0.00152835
0.00136044
0.00134559
0.00995806
0.0119278
0.0123502
0.000276379
0.000304126
0.000204212
0.00137408
0.00166605
0.00144523
0.00139057
0.00155116
0.00130909
0.00113086
0.0286118
0.0151795
0.0185
0.00115314
0.0168258
0.0163805
0.00123268
0.00126204
0.00101818
0.00118227
0.0151372
0.0181108
0.0103778
0.0387523
0.0322706
0.00581423
0.00646033
0.00669617
0.040815
0.00226712
0.0213576
0.0247636
0.0271439
0.0103525
0.00167489
0.00208186
0.00254552
0.0574897
0.0525686
0.0282839
0.0308448
0.0308006
0.00601234
0.00520427
0.00456714
0.0855581
0.0854809
0.0818881
0.0168237
0.0357883
0.0304855
0.000676766
0.00046773
4.5171e-06
0.0147988
0.000322058
0.000222345
0.00020688
0.00210402
4.6453e-06
0.000204098
0.000242147
0.000145973
0.00719878
0.0102813
0.0063692
0.0398902
0.00361751
0.00423511
0.00508891
0.000928058
0.00108999
0.000736239
0.000507696
0.000466992
0.00204753
0.0030039
0.0439906
0.00275747
0.00267006
0.0842285
0.00290025
0.00332816
0.00326374
0.060486
0.0422904
0.0233282
0.0257583
0.0911283
0.0380422
0.0377801
0.00471228
0.0514118
0.00487462
0.00640867
0.00414273
6.63628e-05
0.00124573
0.00143904
0.00090626
0.041044
0.0465597
0.0451321
0.000647365
0.000729727
0.0446777
0.0413879
0.000145671
0.00012689
9.98017e-05
0.00298749
0.00235067
0.00130452
0.0017127
0.00192495
0.0477525
0.0450703
0.0487576
0.0524564
0.00121729
0.000533234
0.000693351
0.012589
0.0176499
0.00149851
0.000503686
0.000111657
0.000171714
6.11006e-05
0.000849958
0.00105377
0.000778537
6.78159e-06
0.000664854
0.000501965
0.000415584
0.00533971
0.00825447
0.00691084
9.51815e-06
0.00145993
0.00118497
0.0409202
0.0478408
0.0448096
0.00243511
0.00206991
0.00364875
0.0125263
0.00314427