# vtk DataFile Version 2.0
Unstructured Grid by M++
ASCII
DATASET UNSTRUCTURED_GRID
POINTS 4072 float
  0.828125   0.890625 0
  0.875000   0.531250 0
  0.828125   0.750000 0
  0.593750   0.968750 0
  0.828125   0.671875 0
  0.828125   0.875000 0
  0.593750   0.937500 0
  0.828125   0.656250 0
  0.828125   0.640625 0
  0.828125   0.843750 0
  0.593750   0.906250 0
  0.828125   0.625000 0
  0.781250   0.968750 0
  0.828125   0.609375 0
  0.828125   0.812500 0
  0.593750   0.875000 0
  0.593750   0.828125 0
  0.593750   0.796875 0
  0.828125   0.703125 0
  0.593750   0.765625 0
  0.828125   0.937500 0
  0.812500   0.875000 0
  0.859375   0.515625 0
  0.812500   0.734375 0
  0.812500   0.937500 0
  0.578125   1.000000 0
  0.578125   0.750000 0
  0.812500   0.687500 0
  0.578125   0.953125 0
  0.812500   0.656250 0
  0.812500   0.859375 0
  0.578125   0.921875 0
  0.812500   0.828125 0
  0.578125   0.890625 0
  0.812500   0.593750 0
  0.812500   0.796875 0
  0.578125   0.859375 0
  0.578125   0.812500 0
  0.578125   0.781250 0
  0.796875   1.000000 0
  0.796875   0.859375 0
  0.796875   0.718750 0
  0.562500   0.984375 0
  0.562500   0.937500 0
  0.796875   0.843750 0
  0.562500   0.906250 0
  0.796875   0.812500 0
  0.562500   0.875000 0
  0.796875   0.578125 0
  0.796875   0.781250 0
  0.562500   0.843750 0
  0.812500   0.984375 0
  0.562500   0.796875 0
  0.812500   0.953125 0
  0.562500   0.765625 0
  0.796875   0.937500 0
  0.546875   0.750000 0
  0.781250   0.984375 0
  0.828125   0.593750 0
  0.781250   0.843750 0
  0.781250   0.937500 0
  0.546875   1.000000 0
  0.781250   0.703125 0
  0.546875   0.968750 0
  0.546875   0.921875 0
  0.781250   0.828125 0
  0.546875   0.890625 0
  0.781250   0.796875 0
  0.546875   0.859375 0
  0.781250   0.562500 0
  0.781250   0.765625 0
  0.546875   0.828125 0
  0.796875   0.968750 0
  0.546875   0.781250 0
  0.765625   1.000000 0
  0.765625   0.968750 0
  0.531250   0.984375 0
  0.765625   0.687500 0
  0.531250   0.953125 0
  0.531250   0.937500 0
  0.531250   0.906250 0
  0.765625   0.812500 0
  0.531250   0.875000 0
  0.765625   0.781250 0
  0.531250   0.843750 0
  0.781250   1.000000 0
  0.765625   0.546875 0
  0.765625   0.750000 0
  0.531250   0.812500 0
  0.781250   0.953125 0
  0.531250   0.765625 0
  0.515625   0.750000 0
  0.750000   0.984375 0
  0.750000   0.953125 0
  0.796875   0.593750 0
  0.796875   0.562500 0
  0.750000   0.843750 0
  0.750000   0.937500 0
  0.515625   1.000000 0
  0.750000   0.906250 0
  0.515625   0.968750 0
  0.750000   0.671875 0
  0.750000   0.875000 0
  0.515625   0.937500 0
  0.515625   0.921875 0
  0.515625   0.890625 0
  0.750000   0.796875 0
  0.515625   0.859375 0
  0.750000   0.765625 0
  0.515625   0.828125 0
  1.000000   0.718750 0
  0.750000   0.531250 0
  0.750000   0.734375 0
  0.515625   0.796875 0
  0.734375   1.000000 0
  0.734375   0.968750 0
  0.734375   0.937500 0
  0.781250   0.578125 0
  0.781250   0.546875 0
  0.968750   0.578125 0
  0.734375   0.828125 0
  0.968750   0.546875 0
  0.734375   0.796875 0
  0.734375   0.765625 0
  0.968750   0.671875 0
  0.734375   0.734375 0
  0.968750   0.640625 0
  0.734375   0.703125 0
  0.968750   0.609375 0
  0.734375   0.671875 0
  0.734375   0.656250 0
  0.734375   0.625000 0
  0.968750   0.531250 0
  0.734375   0.593750 0
  0.984375   0.734375 0
  0.984375   0.703125 0
  0.734375   0.515625 0
  0.718750   0.984375 0
  0.718750   0.953125 0
  0.718750   0.921875 0
  0.953125   0.562500 0
  0.718750   0.812500 0
  0.953125   0.531250 0
  0.718750   0.781250 0
  0.718750   0.750000 0
  0.953125   0.656250 0
  0.718750   0.718750 0
  0.953125   0.625000 0
  0.718750   0.687500 0
  0.953125   0.593750 0
  0.718750   0.656250 0
  0.671875   1.000000 0
  0.718750   0.640625 0
  0.718750   0.609375 0
  0.953125   0.515625 0
  0.718750   0.578125 0
  0.968750   0.718750 0
  0.968750   0.687500 0
  0.953125   0.671875 0
  0.703125   0.968750 0
  0.703125   0.937500 0
  0.937500   0.656250 0
  0.703125   0.906250 0
  0.937500   0.546875 0
  0.703125   0.796875 0
  0.937500   0.515625 0
  0.703125   0.765625 0
  0.937500   0.671875 0
  0.703125   0.734375 0
  0.937500   0.640625 0
  0.703125   0.703125 0
  0.937500   0.609375 0
  0.703125   0.671875 0
  0.937500   0.578125 0
  0.703125   0.640625 0
  0.656250   0.984375 0
  0.703125   0.625000 0
  0.703125   0.593750 0
  0.718750   0.796875 0
  0.953125   0.734375 0
  0.812500   1.000000 0
  0.859375   0.656250 0
  0.703125   0.781250 0
  0.937500   0.718750 0
  0.953125   0.703125 0
  0.796875   0.984375 0
  0.843750   0.640625 0
  0.812500   0.968750 0
  0.859375   0.625000 0
  0.796875   0.953125 0
  0.843750   0.609375 0
  0.687500   0.953125 0
  0.687500   0.921875 0
  0.687500   0.890625 0
  0.921875   0.734375 0
  0.687500   0.796875 0
  0.687500   0.781250 0
  0.921875   0.703125 0
  0.687500   0.765625 0
  0.687500   0.750000 0
  0.921875   0.656250 0
  0.687500   0.718750 0
  0.921875   0.625000 0
  0.687500   0.687500 0
  0.921875   0.593750 0
  0.687500   0.656250 0
  0.640625   1.000000 0
  0.921875   0.562500 0
  0.687500   0.625000 0
  0.640625   0.968750 0
  0.687500   0.609375 0
  0.687500   0.578125 0
  0.937500   0.687500 0
  0.921875   0.671875 0
  0.671875   0.921875 0
  0.906250   0.656250 0
  0.671875   0.906250 0
  0.671875   0.875000 0
  0.906250   0.718750 0
  0.671875   0.781250 0
  0.671875   0.765625 0
  0.671875   0.734375 0
  0.906250   0.640625 0
  0.671875   0.703125 0
  0.906250   0.609375 0
  0.671875   0.671875 0
  0.906250   0.578125 0
  0.671875   0.640625 0
  0.625000   0.984375 0
  0.671875   0.609375 0
  0.625000   0.953125 0
  0.671875   0.593750 0
  0.671875   0.562500 0
  0.765625   0.953125 0
  0.812500   0.609375 0
  0.656250   1.000000 0
  0.656250   0.953125 0
  0.656250   0.906250 0
  0.890625   0.640625 0
  0.656250   0.890625 0
  0.656250   0.859375 0
  0.890625   0.734375 0
  0.656250   0.796875 0
  0.812500   0.921875 0
  0.562500   1.000000 0
  0.625000   0.828125 0
  0.812500   0.843750 0
  0.843750   0.593750 0
  0.812500   0.812500 0
  0.625000   0.718750 0
  0.828125   0.687500 0
  0.640625   0.593750 0
  0.812500   0.781250 0
  0.625000   0.687500 0
  0.765625   0.828125 0
  0.640625   0.562500 0
  0.812500   0.750000 0
  0.562500   0.828125 0
  0.781250   0.875000 0
  0.546875   0.937500 0
  0.781250   0.671875 0
  0.781250   0.593750 0
  0.546875   0.656250 0
  0.796875   0.750000 0
  0.562500   0.812500 0
  0.796875   0.546875 0
  0.765625   0.796875 0
  0.765625   0.593750 0
  1.000000   0.531250 0
  0.812500   0.718750 0
  0.859375   0.562500 0
  0.625000   0.625000 0
  0.812500   0.703125 0
  0.812500   0.906250 0
  0.578125   0.968750 0
  0.984375   0.593750 0
  0.828125   0.578125 0
  0.828125   0.781250 0
  0.593750   0.843750 0
  0.812500   0.671875 0
  0.625000   0.578125 0
  0.796875   0.671875 0
  0.562500   0.734375 0
  0.984375   0.562500 0
  0.828125   0.546875 0
  0.812500   0.640625 0
  0.750000   0.812500 0
  0.625000   0.546875 0
  0.796875   0.640625 0
  0.562500   0.703125 0
  0.828125   0.515625 0
  0.781250   0.734375 0
  0.546875   0.796875 0
  0.781250   0.531250 0
  0.750000   0.781250 0
  0.625000   0.515625 0
  0.796875   0.609375 0
  0.562500   0.671875 0
  0.765625   0.656250 0
  0.765625   0.859375 0
  0.531250   0.921875 0
  0.812500   0.578125 0
  0.562500   0.656250 0
  0.984375   0.687500 0
  0.750000   0.750000 0
  0.812500   0.562500 0
  0.812500   0.765625 0
  0.578125   0.828125 0
  0.562500   0.625000 0
  0.984375   0.656250 0
  0.750000   0.718750 0
  0.812500   0.531250 0
  0.781250   0.656250 0
  0.546875   0.718750 0
  0.781250   0.625000 0
  0.546875   0.687500 0
  0.750000   0.640625 0
  0.796875   0.531250 0
  0.562500   0.593750 0
  0.984375   0.625000 0
  0.750000   0.687500 0
  0.546875   0.984375 0
  0.609375   0.812500 0
  0.796875   0.875000 0
  0.546875   0.953125 0
  0.609375   0.578125 0
  0.843750   0.515625 0
  0.765625   0.515625 0
  0.765625   0.718750 0
  0.531250   0.781250 0
  0.984375   0.546875 0
  0.750000   0.609375 0
  0.796875   0.828125 0
  0.671875   0.968750 0
  0.796875   0.796875 0
  0.796875   0.765625 0
  0.609375   0.671875 0
  0.796875   0.734375 0
  0.546875   0.812500 0
  0.796875   0.703125 0
  0.843750   0.546875 0
  0.609375   0.609375 0
  0.796875   0.687500 0
  0.562500   0.953125 0
  0.796875   0.656250 0
  0.609375   0.562500 0
  0.796875   0.625000 0
  0.609375   0.531250 0
  0.546875   0.640625 0
  0.765625   0.671875 0
  0.531250   0.734375 0
  0.796875   0.515625 0
  0.765625   0.640625 0
  0.531250   0.703125 0
  0.703125   1.000000 0
  0.765625   0.609375 0
  0.531250   0.671875 0
  0.765625   0.578125 0
  0.531250   0.640625 0
  0.546875   0.609375 0
  0.531250   1.000000 0
  0.890625   0.593750 0
  0.656250   0.656250 0
  0.781250   0.515625 0
  0.546875   0.578125 0
  0.531250   0.968750 0
  0.890625   0.562500 0
  0.656250   0.625000 0
  0.609375   0.968750 0
  0.781250   0.859375 0
  0.656250   0.593750 0
  0.750000   0.703125 0
  0.515625   0.765625 0
  0.781250   0.812500 0
  0.781250   0.781250 0
  0.593750   0.687500 0
  0.781250   0.750000 0
  0.593750   0.656250 0
  0.781250   0.718750 0
  0.531250   0.796875 0
  0.828125   0.562500 0
  0.593750   0.625000 0
  0.781250   0.687500 0
  0.828125   0.531250 0
  0.593750   0.593750 0
  0.812500   0.625000 0
  0.578125   0.687500 0
  0.781250   0.640625 0
  0.781250   0.609375 0
  0.593750   0.515625 0
  0.515625   0.781250 0
  0.812500   0.546875 0
  0.578125   0.609375 0
  0.812500   0.515625 0
  0.578125   0.578125 0
  0.750000   0.656250 0
  0.515625   0.718750 0
  0.750000   0.625000 0
  0.515625   0.687500 0
  0.687500   0.984375 0
  0.750000   0.593750 0
  0.515625   0.656250 0
  0.531250   0.546875 0
  0.750000   0.562500 0
  0.515625   0.625000 0
  0.531250   0.515625 0
  0.984375   0.515625 0
  0.750000   0.578125 0
  0.515625   0.531250 0
  0.828125   0.796875 0
  0.640625   0.703125 0
  0.828125   0.765625 0
[...]
CELL_DATA 7648
SCALARS scalar_value float 1
LOOKUP_TABLE default
0.0449725
0.0464754
0.00115417
0.000910986
0.000945886
0.000743547
0.000712649
0.00081571
0.000870719
0.000874127
0.00257417
0.00340766
0.00448282
0.00331341
0.00515187
0.00524693
0.00606504
0.00420989
0.0485279
0.053907
0.0448534
0.0532986
0.057852
0.0626961
0.0689712
0.0691103
0.0724809
0.0639878
0.0753269
0.0748211
0.076965
0.0696641
2.32445e-05
2.70154e-05
4.18941e-05
1.96102e-05
0.00758291
0.0074237
0.051058
0.0449699
0.00605994
0.00633615
0.0936669
0.092781
5.85473e-05
8.90443e-05
7.88943e-05
0.000140501
0.000111253
0.000196695
0.000180489
0.000333422
0.000340454
0.00053162
0.000518251
0.000745346
0.0348189
0.0380443
0.0432025
0.042333
0.0467248
0.0512389
0.000643133
0.000786841
0.000899519
0.00092612
0.00122438
0.0016336
0.00131173
0.000939576
0.000838053
0.000972672
0.000586233
0.0477582
0.106214
0.000735006
0.000520881
0.000538716
0.000387451
0.00121285
0.000967001
0.000702696
0.000949135
0.00208929
0.0015994
0.00161278
0.00129671
0.0316984
0.0337832
0.0382686
5.92953e-05
8.50264e-05
0.000113143
0.000103284
0.000160428
0.000180171
0.000250549
0.000142591
0.000306321
0.000413463
0.000333772
0.000171346
0.000232959
0.00028076
0.0588285
3.19236e-06
3.75943e-06
6.42798e-06
0.00313657
0.00311345
0.00316321
0.00286421
4.45542e-05
4.97721e-05
7.39606e-05
3.49809e-05
2.93467e-05
4.72377e-05
2.82673e-05
0.00167478
0.00195194
0.00202228
0.00215711
0.0025326
0.00259401
0.00234163
0.00301763
0.00282698
0.00283771
0.00316183
0.00241644
0.000604235
0.000645243
0.000780127
0.000572742
0.00062861
0.000690713
0.000643578
0.000800846
0.00561043
0.00261452
0.00265291
0.0023464
0.00286016
0.00314739
0.0037755
0.00453446
0.00368081
0.0357203
0.039749
0.0441534
0.0316302
0.0318277
0.034497
0.0281576
0.0199718
0.0196203
0.021841
0.0159144
0.000224238
0.000282854
0.00558076
0.00582453
0.00702656
0.00472545
0.0847964
0.0040311
0.00425281
0.00521243
0.00348635
0.0156024
0.0133235
0.0126737
0.0125696
5.69519e-05
6.32897e-05
0.000950449
0.0010295
0.00128583
0.00086259
0.00138869
0.00115675
0.00124381
0.000927542
0.0414648
0.0445554
0.0488413
0.0447147
0.0478274
0.050889
0.0557491
0.115
0.121204
0.000761558
0.000815539
0.00102503
0.000651874
0.0209491
0.0206817
0.0219448
0.0184748
0.000348343
0.000425398
0.000485187
0.000462225
3.34357e-05
3.80675e-05
0.000583144
0.000639122
0.000789802
0.000561324
0.000656029
0.000817015
0.000954121
0.00092119
0.000612619
0.000752874
0.000873098
0.000823758
0.00138797
0.00182295
0.00177394
0.00222016
0.00205168
0.00215111
0.00278406
0.00104076
0.00108641
0.00114046
0.000997005
0.000668509
0.000727214
0.000684075
0.000811048
0.000896985
0.00092049
0.00112791
0.000713511
0.00099866
0.00105452
0.000976218
0.00118941
0.00139121
0.00142115
0.0016917
0.00114154
0.102921
0.102387
0.013598
0.013777
0.0144354
0.0132095
0.014329
0.013003
0.0122288
0.0124682
0.0104381
0.00891996
0.00977155
0.000337486
0.000365311
0.000457446
0.000317944
0.000428762
0.000546062
0.000718057
0.000571864
0.000357367
0.000432157
0.00049156
0.000481073
0.00315248
0.00348201
0.00407253
0.00358639
0.00360994
0.00397826
0.00303023
0.0457792
0.0500275
0.0548203
0.0374332
0.0403134
0.0331099
0.0431437
0.0458237
0.0381764
0.0284452
0.0307909
0.0238214
0.0402323
0.0392551
0.0406306
0.0348974
0.0236867
0.024757
0.00262903
0.00232478
8.3474e-06
0.000370889
1.89361e-05
0.0471252
0.0143598
0.000438115
0.00049243
0.00231921
0.000807456
0.000451336
0.00102839
0.00309389
0.00100028
0.0109621
0.00113473
0.00833696
0.000615273
0.00057508
0.000418961
0.00529033
0.00444797
0.0638715
0.0715498
0.0108905
0.0413111
0.0443703
0.00471841
0.012663
0.00127951
0.0299445
0.00403342
0.0280774
0.00393938
0.00451322
0.00104204
0.000866131
0.00113465
0.000595567
0.000643129
0.000258011
0.000476283
0.0239093
0.0259129
0.0196546
0.0956421
0.0217881
0.0162493
6.24429e-05
3.08119e-05
0.106774
7.60663e-05
0.00378875
0.000923697
0.00108583
0.00104345
0.000303054
0.0568333
0.0304812
0.0260439
0.104624
0.113869
0.0359974
0.00426305
0.00488405
0.00426422
0.0400885
0.0203812
0.0646909
0.00487841
0.00530957
0.00542852
0.0445821
0.0331171
0.0873331
0.0816197
0.00944116
1.49974e-05
0.00142147
0.0128045
0.0313993
0.033934
0.00383543
0.0389561
0.0048328
0.0342153
0.00676141
0.00678586
0.00569166
0.00595947
0.00518845
0.00470418
0.0280807
0.0322216
0.0272178
0.0464421
0.00406886
0.0363669
0.031907
0.0366326
0.0295921
0.00426359
0.00506837
0.00146783
0.00203421
0.00160218
0.00207254
0.0306317
0.00183941
0.000260361
0.0024199
0.00153521
0.000137293
0.00171493
0.08341
0.0178494
0.100065
0.0195728
0.0163108
0.00384133
0.0161232
0.0966043
8.14105e-05
0.000329267
0.0132776
0.0883146
0.0104992
0.0400527
0.00210376
0.00789391
0.000101664
4.34708e-06
3.21017e-06
0.00476952
0.075681
0.00175799
9.80291e-05
0.00156958
0.00326292
0.0415107
0.00373655
0.00399839
0.00209346
0.00513778
0.00235703
0.0346103
0.0211914
0.0239921
0.00140849
0.0110101
0.0110902
0.0180976
0.0190701
0.0185187
0.00435185
0.00427939
0.0244838
0.0345325
0.00650781
0.00784024
0.0069636
0.00129109
0.00107589
0.0175727
0.0129076
0.00209328
0.02832
0.0695159
0.00457198
0.0021593
0.00217412
0.0266254
0.00252725
0.00173236
0.00183259
0.00144991
0.00142992
0.0196231
0.000374423
0.000449333
0.0147142
0.123131
0.0796832
0.00579238
0.0237141
0.0434384
0.0130788
0.00171895
0.0112398
0.0133937
0.0152103
0.00732838
0.0508144
0.0435324
0.0735339
0.0686457
0.0879243
0.00206749
0.00478829
0.0747676
0.0143003
0.0139387
0.012361
0.0677495
0.00104287
0.00518783
0.00243504
0.00267224
0.00364276
0.000584672
0.0182756
0.0165545
0.00170224
0.0159315
0.0375981
0.0028766
0.0494725
0.0158682
0.014656
0.0920873
0.0138333
0.0156903
0.0861821
0.0842663
0.0216454
0.122449
0.107965
0.0737845
0.00271643
0.00110547
0.00167317
0.000107118
0.00463696
0.00305734
0.117895
0.0307199
0.002709
0.0017199
0.0305868
1.64009e-05
0.0911331
0.0166611
0.0347876
0.00216971
0.0411797
0.00270478
0.0381397
0.0372064
0.0404804
1.99398e-05
0.000490058
0.0810244
0.000576745
0.00070773
0.000183233
0.000205589
0.0587637
0.0194956
0.000521264
0.00254522
0.00166404
0.00972527
0.0745236
4.84007e-06
6.35867e-06
0.0812813
9.94156e-06
0.00507574
0.0399354
0.00543267
0.00207825
0.0205565
0.00343625
0.0303212
0.00323778
0.0323084
0.0100616
0.0104398
0.000749468
0.01222
0.00098631
0.00875495
0.000518028
0.00386108
0.0138402
0.0143463
0.0179784
7.4279e-05
8.35917e-05
0.000113566
0.0046852
7.04325e-05
0.00377319
0.00143403
0.00206283
0.000126429
0.00495932
0.00436642
0.000124383
9.91698e-05
0.0042256
0.000138747
0.000150414
3.38491e-05
1.91447e-06
0.00399736
9.03655e-05
0.00696952
9.29637e-05
0.000142175
5.05247e-05
0.0304445
0.0173596
0.033191
0.00210218
0.0162834
0.0258714
0.0049257
0.00405744
0.00449233
0.00303944
0.0164604
0.000373123
0.00229381
0.0374935
0.0827555
0.0490331
0.00606935
0.000246614
0.0043529
0.0204989
0.00274846
0.0252058
0.024015
0.00122094
0.0166815
0.0642541
0.00367054
0.0403435
0.00050847
0.050086
0.0276941
0.0291495
0.0239366
0.0210251
4.79195e-05
0.0303281
0.09507
0.0162905
0.0989964
0.0183188
0.02522
0.0973766
0.0992822
0.00810762
0.00889355
0.0200959
0.0015899
0.0120116
0.00162868
0.0605908
0.00220028
0.123456
0.0111994
0.00110791
0.0100589
0.0659972
0.00053286
0.00506495
0.00421946
0.00760708
0.103591
0.106762
0.0222936
0.00178891
5.35375e-05
0.00314647
8.26897e-05
0.000698742
0.00447293
0.00283221
0.0220678
0.0193452
0.0126196
0.00562722
0.0558796
0.0212588
0.00703998
0.066198
1.67159e-05
0.0059874
0.00550285
0.0049713
0.00650271
0.00661434
0.00868541
0.00780429
0.0509654
0.0459836
0.0503689
0.0519495
4.32357e-06
0.0373104
0.0186078
7.4619e-06
0.0482677
0.00486737
1.59319e-05
0.0653533
0.0208322
0.00391456
0.000158422
0.0280381
1.72611e-05
0.0257612
0.0603955
0.0609401
0.00294353
0.0377044
0.00338885
0.015982
0.00245745
0.0231284
0.0374091
0.0202928
0.00326378
0.0017548
2.42901e-06
0.00723968
0.00666554
0.0274368
0.000195739
0.00568997
0.0892424
0.0427472
0.00484756
0.0206982
0.00468366
0.0503332
0.00404899
0.0184808
0.0038084
0.017736
0.0164867
0.00286282
0.00364423
0.045074
0.00136862
0.0193396
0.00754331
0.0549954
0.0219767
0.00410028
0.00143291
0.0200447
0.00885033
0.00442149
0.0372753
0.0382194
0.00565391
0.000987565
0.00576965
0.00300013
0.0148452
0.00161189
0.0013424
0.049676
1.08336e-05
0.00481773
0.0183269
0.00284716
0.0217579
0.00102212
7.44117e-06
0.000835108
0.0899294
0.00184468
0.0235704
0.00209102
0.000139916
0.00180548
0.0133263
0.00172365
6.37427e-05
0.00142925
0.00305576
0.00150342
0.0185288
0.0777153
0.00151795
0.0777297
0.00879308
0.00246407
0.0238665
0.00426491
0.0252293
0.00193839
0.0018188
0.0808583
0.00976923
0.0184301
0.0164074
0.000320555
0.00418323
0.00243856
0.0233177
0.000393619
0.0051288
0.00513663
0.00171107
0.0325642
0.00317857
0.0013753
0.119215
0.00349227
0.0163903
0.0145869
0.0590831
0.000780089
0.0770121
0.00907577
0.000892347
0.0650053
0.00125311
0.00122839
4.10019e-06
0.0490814
0.00997453
0.010126
0.0439425
0.0367332
0.00611201
0.0530835
0.0604914
0.0206105
0.00653279
0.0361717
0.00364577
0.000302384
0.00137958
1.28549e-05
0.00578304
0.0155501
0.0169582
0.0525867
0.0158916
0.0140839
0.000185546
0.12174
0.0725383
0.010856
0.0348497
0.000356756
0.00298886
0.00280398
0.000207259
0.00285908
0.00302318
0.0190289
0.0331606
0.0130027
0.0219485
0.00323731
0.0554455
0.0340391
0.00306371
0.0938195
0.0381657
0.024104
0.00136575
0.00011882
0.0301629
0.000545494
0.000270848
0.00115799
8.17837e-06
0.0252437
0.00230112
0.00148181
0.0173879
0.0740145
0.000350209
0.000324261
0.0520709
0.000100126
0.0286343
0.000252344
0.01752
0.00257554
0.00205852
0.0512739
0.00132003
0.0377124
0.0011247
0.0187624
0.00438806
3.36983e-05
0.00281167
0.0402368
0.00819595
0.00539012
0.0258634
0.000168394
0.00303984
0.0373816
0.00478285
0.0883551
0.0130661
0.0470031
0.0346574
0.0446096
0.00206464
2.64642e-05
0.00220543
0.000961485
0.00564691
0.0225173
0.00212074
0.0657603
0.0758595
0.0185215
0.0233076
6.94978e-05
0.00725133
0.00493616
0.00259386
0.00917964
0.00352727
0.0033158
0.00805731
0.001187
0.00315459
0.00444986
0.0630907
0.0603821
0.00338326
0.117817
0.0356637
0.057024
0.00315629
4.88468e-05
0.000247129
3.93053e-05
0.0340159
0.000532745
0.00565572
0.0696906
0.020928
0.0182674
0.0917698
0.0455438
0.00319474
0.0195257
0.0527902
0.00373981
0.110289
0.0215449
0.0026256
0.00372687
0.00436257
0.00040182
0.00845047
0.0872217
0.0122116
0.00166044
1.79174e-05
0.032084
0.0599453
0.00325837
0.000801673
0.00767907
0.00337561
0.0119049
0.00110054
8.85803e-06
0.0176692
0.00304223
0.00903163
0.0156116
0.00348138
0.0148119
0.00231303
0.00266604
0.0032427
0.0454941
0.0189541
0.00205686
0.110305
0.0218425
0.00379865
0.0166092
0.0196782
0.0138121
0.0173134
0.000631973
0.000427988
0.000437029
0.01713
0.00102042
0.0114637
0.0477764
0.0291301
0.0972663
0.0214708
0.000242025
0.00197828
0.000958801
0.0438608
0.00406259
0.0836275
0.00231995
0.0125563
0.00335771
0.0281748
0.0291339
0.00241586
0.00574547
0.00378376
0.03221
0.0142195
0.000729222
0.00151896
0.0121668
0.042175
0.000412065
0.0236422
0.0184664
0.000741828
0.0349925
0.000231795
0.0183675
0.00267465
0.00434176
0.0143042
0.0573309
0.0468784
0.117369
0.0191742
0.0390055
0.022284
0.0279215
0.000163237
0.00400693
0.0210724
0.00346803
0.00439433
0.0572933
0.0236746
0.00475746
0.021575
0.0509169
0.104112
0.0429505
0.00644828
0.00545831
0.0046223
0.00517791
0.0037048
0.00259462
0.00360138
0.00130646
0.00136975
0.0292941
0.0246585
1.42271e-05
0.0787114
0.0411649
0.00273126
0.00318029
0.00226778
0.0342153
0.0150337
4.51322e-05
0.0073761
0.00677742
0.00285294
0.00829684
0.028584
0.000384515
0.0570095
0.0794096
0.0701079
0.0696493
0.0748348
0.0559981
0.000374059
0.00740569
0.0602087
0.0652402
0.052224
0.000220438
0.00628474
0.0247365
0.000294065
0.00727562
0.000526117
0.0098713
0.00717914
0.000743854
0.00284803
0.000451787
0.118779
0.0839248
0.00229389
0.0804872
0.0478182
0.0140387
0.0561108
0.0521264
0.051336
0.0485321
0.056781
0.0606918
0.0484492
0.0445234
0.0091793
0.00784077
0.00815654
0.00696631
0.0682091
0.00926711
0.0693117
0.00342883
0.000199299
0.00284276
0.000398587
0.0522582
0.0462391
0.0150059
0.0173711
0.0829658
0.0859866
0.0122554
0.0862196
0.000285854
0.000312344
0.005007
0.00506296
0.00737208
0.00642425
0.0500679
0.00583079
0.056435
0.0112683
0.0101975
0.00917245
0.0235812
0.0695191
0.00298787
0.0031659
0.0031204
0.0522018
0.00326117
0.00322992
0.00010982
0.0257748
0.00176306
6.56106e-05
0.00323783
0.0970643
0.000357828
0.00688265
0.0005137
0.00820266
0.000266994
0.0299287
0.11354
0.00467629
0.0327712
0.00487058
0.00463664
0.00449427
0.0291537
0.0420385
0.0382912
0.00555067
0.00554838
0.0427627
0.00645877
0.00483096
0.0395396
0.0047931
0.045846
0.00503361
0.0446562
0.00485015
0.00035194
1.12545e-05
0.00247894
0.00286173
0.000385975
0.00243519
0.000207627
5.9497e-06
0.000194774
0.00484992
0.0145858
0.0691713
0.0177575
0.0717107
0.0148134
0.0125623
0.0143333
0.017476
0.0915367
0.0103217
0.0092605
0.0119653
0.00976758
0.0786755
0.116451
0.0478196
0.0069608
0.10293
0.0140997
0.113489
0.0424535
0.0281015
0.0108806
0.117208
0.00263601
0.00473807
0.0011708
0.000193236
0.00245541
0.000763229
0.00977692
0.000696368
0.000175527
0.00521341
0.0745845
0.0199164
0.0020491
0.011405
0.0105309
0.0270457
0.0371497
0.0580594
0.0226486
0.0192229
0.0204206
0.00400628
0.00179811
0.00721873
0.00316092
0.0377081
0.00598392
0.0251656
0.0225143
0.0346896
5.37297e-05
0.0146485
0.00117692
0.0612149
0.00753603
0.00026418
0.00856366
0.00939266
0.0125141
0.0113315
0.00140717
0.00113506
0.00972084
0.000941024
0.0245177
0.000696709
0.0292538
0.0741729
0.0178749
0.000828541
0.0298766
0.0248615
0.00651861
5.99967e-06
0.008297
0.00111466
1.37232e-05
0.0218235
0.0386855
0.0262052
0.110843
0.000406843
0.0253311
0.0182435
0.0215512
0.0186202
0.035108
0.00571786
0.0114981
0.0328528
0.000815648
0.000718244
0.000669424
0.000500402
0.00064732
2.22784e-05
0.0635331
0.0587911
0.0833817
0.0875911
0.106399
0.0913101
0.0151171
0.098556
0.0175672
0.0960658
0.0163957
0.0959665
0.0249428
0.0739059
0.0828128
0.0791453
0.0787513
0.0221562
0.0256345
0.0203567
0.00150286
0.0257522
0.0256125
0.00437607
0.0220377
0.0294485
0.0311621
0.0669066
0.000272013
0.000341326
0.0430042
0.000403676
0.000282868
0.0552054
0.00150228
1.10578e-05
7.88248e-06
5.40118e-06
0.00410446
0.0307454
0.00428601
0.000153449
0.00543382
0.00628992
0.00525828
0.0042861
0.0797645
0.0176607
0.0771589
0.0750494
0.0160236
0.000617482
0.000668053
0.07443
0.0079324
0.0093997
0.0110672
1.79439e-05
0.00987273
0.0111046
0.00551397
0.00603254
0.0065414
0.0551741
0.0644509
0.0601014
0.0592401
0.000985075
0.00816061
0.00658966
0.00607697
0.0061857
0.00557889
0.00173707
0.0733836
0.0879755
0.0876687
0.0925757
0.0282823
0.0122643
0.00237283
0.00924816
0.120891
0.120749
0.00443044
0.0048926
0.00465831
0.0046512
0.000390943
0.000447542
0.000390023
0.04396
0.00792019
0.00656308
0.0671761
0.00787134
0.00895977
0.0458107
0.0401193
0.00194826
0.00284592
0.00107733
0.0014377
0.00106178
0.0106277
0.000798002
0.00906539
0.00693837
0.0279352
0.00956485
0.010838
0.0115681
0.0610971
0.0757612
0.0108912
0.00913442
0.00799202
0.00677461
0.00697572
0.00908354
0.0100093
0.0015512
0.0783502
0.0153891
0.00177603
0.0133653
0.0128497
1.54179e-05
0.0389676
0.00180653
0.00227185
0.00141585
0.0633229
0.0293548
0.00397079
0.000477812
0.0136149
0.000915457
0.0116657
0.000721138
0.0112562
0.00940304
0.00901701
0.00883014
0.00785966
0.0202973
0.0217777
0.0240963
0.0754111
0.0314389
0.00440895
0.0137146
0.0291611
0.00394272
0.0591225
0.067905
0.00790091
0.012578
0.0223156
0.00263831
0.0196394
0.0656681
0.0173971
0.019512
0.0272933
0.0814619
0.044124
0.0473247
0.00349613
0.0432834
0.0396283
2.39795e-05
0.00457819
0.0260973
0.00415264
0.00440224
0.00599489
0.0483799
0.00540401
0.0755795
0.000568747
0.000453437
2.53271e-05
0.00222801
2.07227e-05
1.734e-05
1.26832e-05
0.0169998
0.0163222
0.00659641
0.0325247
0.0330932
0.0543795
0.0506607
0.015375
0.0862527
0.115652
0.0275179
0.00837825
0.0104556
0.0100355
0.0105946
0.027422
0.0129699
0.0156349
0.0147978
0.0264461
0.00429757
0.00481995
0.00449066
0.000716179
0.000536625
0.00520418
0.00655044
0.00604789
0.00621803
0.00223105
0.00391136
0.0441028
0.00523704
0.00341609
0.114956
0.0331059
0.121672
0.119556
0.119734
0.0339325
0.0392057
0.0352324
0.0340029
0.0665024
0.0096075
0.00976849
0.00320096
0.00222263
0.00437749
0.0016424
0.00435884
0.00245133
0.00834016
0.0194253
0.0171984
0.0174229
0.0650103
0.0056408
0.00632138
0.00488941
0.000586842
0.0104322
0.0365421
0.0703533
0.0329212
0.00294157
0.0124874
0.0122696
0.013998
0.0572292
0.0582694
0.00548499
0.0236514
0.0178643
0.0105699
0.00597078
0.00712275
0.017392
0.0215616
0.0183503
0.0216397
0.034095
0.0130766
0.0530249
0.0269381
0.012275
0.0151385
0.0126299
0.00100614
0.00136484
0.113573
0.0757264
0.0710276
0.0690204
0.000149259
0.000204299
0.0999746
0.0958894
0.0920858
0.0261346
0.00310046
0.0024388
0.0239166
0.019567
0.0236747
0.0261377
0.000274421
0.000291161
0.00347364
0.00388193
0.00388637
0.00445797
0.102822
0.101598
0.105794
0.023248
0.0845951
2.98404e-05
2.11954e-05
1.45466e-05
0.00325727
0.0122481
0.0130913
0.011728
0.010152
6.98119e-06
1.14841e-05
0.0644235
0.0140949
0.00314702
0.00126206
0.00129103
0.00145176
0.000892732
0.000811948
0.0141272
0.0703222
0.0724577
0.0642017
0.0279262
0.023692
0.0310053
0.0294421
0.00433329
0.00841013
0.0116092
0.0183633
0.050271
0.0897769
0.0160208
0.0181374
0.0155156
0.0278715
0.00363856
0.0589153
0.0671474
0.00411148
0.00409282
0.082173
0.00409847
0.00322507
0.0861292
0.0132109
0.0162491
0.015453
0.0160141
0.0251443
0.0110484
0.0106639
0.00908021
0.00785519
0.00980095
0.00798008
0.0124039
0.0151742
0.00452633
0.0262826
0.0252742
0.0570496
0.0221697
0.0406793
0.0389729
0.0312402
0.00439286
0.0815063
0.0125573
0.0155594
0.0176003
0.0639794
0.0668759
0.00466481
0.0723578
0.0978367
0.00163243
0.00121624
0.058372
0.00472419
0.00674549
0.00870281
0.00651391
0.0764317
1.37558e-05
1.65996e-05
1.24062e-05
9.02119e-06
0.0619025
0.0051411
0.00539577
0.00549474
0.00634358
0.024179
0.00251074
0.00708029
0.00373452
0.0033616
0.00332186
0.0196902
0.023098
0.024118
0.000694644
0.000766804
0.000524373
0.00199609
0.00239637
0.00211652
0.00339037
0.00377355
0.00322072
0.00281561
0.0504082
0.0237832
0.0288463
0.00170941
0.026549
0.026163
0.00181089
0.00187007
0.00152814
0.00291093
0.0214204
0.0258879
0.0209054
0.0616204
0.052284
0.00661691
0.00712916
0.00745836
0.055716
0.00496146
0.0282416
0.0327345
0.0353089
0.0191125
0.00368822
0.00451075
0.00546475
0.0827542
0.077725
0.0378469
0.0401305
0.0405672
0.0130414
0.0114619
0.0100816
0.110005
0.110275
0.107445
0.0323006
0.0606109
0.0530531
0.00151853
0.00108215
1.0392e-05
0.0285315
0.00076689
0.000543519
0.000496999
0.0049394
1.08006e-05
0.000508721
0.000606218
0.000371478
0.0153289
0.0156003
0.013695
0.0663306
0.00614615
0.00695868
0.00834557
0.00145365
0.00172612
0.00118161
0.00133296
0.00123128
0.00402568
0.00373444
0.0560984
0.00351202
0.00344344
0.110253
0.00369302
0.00406403
0.00403256
0.0885602
0.0691847
0.0329252
0.0354174
0.116937
0.0507294
0.0524226
0.0104757
0.0797585
0.00961504
0.0126584
0.00852905
0.000128754
0.00281145
0.00323275
0.00209987
0.0633245
0.0732411
0.070552
0.00154283
0.00172968
0.072699
0.0682804
0.000258548
0.000227646
0.000181909
0.00619952
0.0049876
0.00287868
0.00368591
0.004148
0.0694794
0.0650573
0.0701725
0.0742692
0.00270999
0.00093409
0.00122902
0.0213626
0.0323836
0.00340934
0.00123504
0.000223298
0.000344643
0.000126053
0.00199836
0.00245307
0.00184416
1.84832e-05
0.00158914
0.00122766
0.00102966
0.0102911
0.0151976
0.0133469
2.43593e-05
0.00315583
0.00260307
0.0536834
0.0616966
0.0587377
0.00480494
0.00411026
0.00831062
0.020204
0.00725298
0.0151342
0.0426292
0.0338727
0.00445768
0.0279679
0.00294959
0.00215009
0.0412944
0.0360254
0.0260445
0.0304131
0.0293528
0.0301455
0.00292415
0.0124603
0.00334087
0.00294565
0.105534
0.00246918
0.0033579
0.0214748
0.00326834
0.0035739
0.00390609
0.0579511
0.0649611
0.0555199
0.0612674
0.0533339
0.00232282
0.00186617
2.09494e-05