# vtk DataFile Version 2.0
Unstructured Grid by M++
ASCII
DATASET UNSTRUCTURED_GRID
POINTS 4072 float
  0.828125   0.890625 0
  0.875000   0.531250 0
  0.828125   0.750000 0
  0.593750   0.968750 0
  0.828125   0.671875 0
  0.828125   0.875000 0
  0.593750   0.937500 0
  0.828125   0.656250 0
  0.828125   0.640625 0
  0.828125   0.843750 0
  0.593750   0.906250 0
  0.828125   0.625000 0
  0.781250   0.968750 0
  0.828125   0.609375 0
  0.828125   0.812500 0
  0.593750   0.875000 0
  0.593750   0.828125 0
  0.593750   0.796875 0
  0.828125   0.703125 0
  0.593750   0.765625 0
  0.828125   0.937500 0
  0.812500   0.875000 0
  0.859375   0.515625 0
  0.812500   0.734375 0
  0.812500   0.937500 0
  0.578125   1.000000 0
  0.578125   0.750000 0
  0.812500   0.687500 0
  0.578125   0.953125 0
  0.812500   0.656250 0
  0.812500   0.859375 0
  0.578125   0.921875 0
  0.812500   0.828125 0
  0.578125   0.890625 0
  0.812500   0.593750 0
  0.812500   0.796875 0
  0.578125   0.859375 0
  0.578125   0.812500 0
  0.578125   0.781250 0
  0.796875   1.000000 0
  0.796875   0.859375 0
  0.796875   0.718750 0
  0.562500   0.984375 0
  0.562500   0.937500 0
  0.796875   0.843750 0
  0.562500   0.906250 0
  0.796875   0.812500 0
  0.562500   0.875000 0
  0.796875   0.578125 0
  0.796875   0.781250 0
  0.562500   0.843750 0
  0.812500   0.984375 0
  0.562500   0.796875 0
  0.812500   0.953125 0
  0.562500   0.765625 0
  0.796875   0.937500 0
  0.546875   0.750000 0
  0.781250   0.984375 0
  0.828125   0.593750 0
  0.781250   0.843750 0
  0.781250   0.937500 0
  0.546875   1.000000 0
  0.781250   0.703125 0
  0.546875   0.968750 0
  0.546875   0.921875 0
  0.781250   0.828125 0
  0.546875   0.890625 0
  0.781250   0.796875 0
  0.546875   0.859375 0
  0.781250   0.562500 0
  0.781250   0.765625 0
  0.546875   0.828125 0
  0.796875   0.968750 0
  0.546875   0.781250 0
  0.765625   1.000000 0
  0.765625   0.968750 0
  0.531250   0.984375 0
  0.765625   0.687500 0
  0.531250   0.953125 0
  0.531250   0.937500 0
  0.531250   0.906250 0
  0.765625   0.812500 0
  0.531250   0.875000 0
  0.765625   0.781250 0
  0.531250   0.843750 0
  0.781250   1.000000 0
  0.765625   0.546875 0
  0.765625   0.750000 0
  0.531250   0.812500 0
  0.781250   0.953125 0
  0.531250   0.765625 0
  0.515625   0.750000 0
  0.750000   0.984375 0
  0.750000   0.953125 0
  0.796875   0.593750 0
  0.796875   0.562500 0
  0.750000   0.843750 0
  0.750000   0.937500 0
  0.515625   1.000000 0
  0.750000   0.906250 0
  0.515625   0.968750 0
  0.750000   0.671875 0
  0.750000   0.875000 0
  0.515625   0.937500 0
  0.515625   0.921875 0
  0.515625   0.890625 0
  0.750000   0.796875 0
  0.515625   0.859375 0
  0.750000   0.765625 0
  0.515625   0.828125 0
  1.000000   0.718750 0
  0.750000   0.531250 0
  0.750000   0.734375 0
  0.515625   0.796875 0
  0.734375   1.000000 0
  0.734375   0.968750 0
  0.734375   0.937500 0
  0.781250   0.578125 0
  0.781250   0.546875 0
  0.968750   0.578125 0
  0.734375   0.828125 0
  0.968750   0.546875 0
  0.734375   0.796875 0
  0.734375   0.765625 0
  0.968750   0.671875 0
  0.734375   0.734375 0
  0.968750   0.640625 0
  0.734375   0.703125 0
  0.968750   0.609375 0
  0.734375   0.671875 0
  0.734375   0.656250 0
  0.734375   0.625000 0
  0.968750   0.531250 0
  0.734375   0.593750 0
  0.984375   0.734375 0
  0.984375   0.703125 0
  0.734375   0.515625 0
  0.718750   0.984375 0
  0.718750   0.953125 0
  0.718750   0.921875 0
  0.953125   0.562500 0
  0.718750   0.812500 0
  0.953125   0.531250 0
  0.718750   0.781250 0
  0.718750   0.750000 0
  0.953125   0.656250 0
  0.718750   0.718750 0
  0.953125   0.625000 0
  0.718750   0.687500 0
  0.953125   0.593750 0
  0.718750   0.656250 0
  0.671875   1.000000 0
  0.718750   0.640625 0
  0.718750   0.609375 0
  0.953125   0.515625 0
  0.718750   0.578125 0
  0.968750   0.718750 0
  0.968750   0.687500 0
  0.953125   0.671875 0
  0.703125   0.968750 0
  0.703125   0.937500 0
  0.937500   0.656250 0
  0.703125   0.906250 0
  0.937500   0.546875 0
  0.703125   0.796875 0
  0.937500   0.515625 0
  0.703125   0.765625 0
  0.937500   0.671875 0
  0.703125   0.734375 0
  0.937500   0.640625 0
  0.703125   0.703125 0
  0.937500   0.609375 0
  0.703125   0.671875 0
  0.937500   0.578125 0
  0.703125   0.640625 0
  0.656250   0.984375 0
  0.703125   0.625000 0
  0.703125   0.593750 0
  0.718750   0.796875 0
  0.953125   0.734375 0
  0.812500   1.000000 0
  0.859375   0.656250 0
  0.703125   0.781250 0
  0.937500   0.718750 0
  0.953125   0.703125 0
  0.796875   0.984375 0
  0.843750   0.640625 0
  0.812500   0.968750 0
  0.859375   0.625000 0
  0.796875   0.953125 0
  0.843750   0.609375 0
  0.687500   0.953125 0
  0.687500   0.921875 0
  0.687500   0.890625 0
  0.921875   0.734375 0
  0.687500   0.796875 0
  0.687500   0.781250 0
  0.921875   0.703125 0
  0.687500   0.765625 0
  0.687500   0.750000 0
  0.921875   0.656250 0
  0.687500   0.718750 0
  0.921875   0.625000 0
  0.687500   0.687500 0
  0.921875   0.593750 0
  0.687500   0.656250 0
  0.640625   1.000000 0
  0.921875   0.562500 0
  0.687500   0.625000 0
  0.640625   0.968750 0
  0.687500   0.609375 0
  0.687500   0.578125 0
  0.937500   0.687500 0
  0.921875   0.671875 0
  0.671875   0.921875 0
  0.906250   0.656250 0
  0.671875   0.906250 0
  0.671875   0.875000 0
  0.906250   0.718750 0
  0.671875   0.781250 0
  0.671875   0.765625 0
  0.671875   0.734375 0
  0.906250   0.640625 0
  0.671875   0.703125 0
  0.906250   0.609375 0
  0.671875   0.671875 0
  0.906250   0.578125 0
  0.671875   0.640625 0
  0.625000   0.984375 0
  0.671875   0.609375 0
  0.625000   0.953125 0
  0.671875   0.593750 0
  0.671875   0.562500 0
  0.765625   0.953125 0
  0.812500   0.609375 0
  0.656250   1.000000 0
  0.656250   0.953125 0
  0.656250   0.906250 0
  0.890625   0.640625 0
  0.656250   0.890625 0
  0.656250   0.859375 0
  0.890625   0.734375 0
  0.656250   0.796875 0
  0.812500   0.921875 0
  0.562500   1.000000 0
  0.625000   0.828125 0
  0.812500   0.843750 0
  0.843750   0.593750 0
  0.812500   0.812500 0
  0.625000   0.718750 0
  0.828125   0.687500 0
  0.640625   0.593750 0
  0.812500   0.781250 0
  0.625000   0.687500 0
  0.765625   0.828125 0
  0.640625   0.562500 0
  0.812500   0.750000 0
  0.562500   0.828125 0
  0.781250   0.875000 0
  0.546875   0.937500 0
  0.781250   0.671875 0
  0.781250   0.593750 0
  0.546875   0.656250 0
  0.796875   0.750000 0
  0.562500   0.812500 0
  0.796875   0.546875 0
  0.765625   0.796875 0
  0.765625   0.593750 0
  1.000000   0.531250 0
  0.812500   0.718750 0
  0.859375   0.562500 0
  0.625000   0.625000 0
  0.812500   0.703125 0
  0.812500   0.906250 0
  0.578125   0.968750 0
  0.984375   0.593750 0
  0.828125   0.578125 0
  0.828125   0.781250 0
  0.593750   0.843750 0
  0.812500   0.671875 0
  0.625000   0.578125 0
  0.796875   0.671875 0
  0.562500   0.734375 0
  0.984375   0.562500 0
  0.828125   0.546875 0
  0.812500   0.640625 0
  0.750000   0.812500 0
  0.625000   0.546875 0
  0.796875   0.640625 0
  0.562500   0.703125 0
  0.828125   0.515625 0
  0.781250   0.734375 0
  0.546875   0.796875 0
  0.781250   0.531250 0
  0.750000   0.781250 0
  0.625000   0.515625 0
  0.796875   0.609375 0
  0.562500   0.671875 0
  0.765625   0.656250 0
  0.765625   0.859375 0
  0.531250   0.921875 0
  0.812500   0.578125 0
  0.562500   0.656250 0
  0.984375   0.687500 0
  0.750000   0.750000 0
  0.812500   0.562500 0
  0.812500   0.765625 0
  0.578125   0.828125 0
  0.562500   0.625000 0
  0.984375   0.656250 0
  0.750000   0.718750 0
  0.812500   0.531250 0
  0.781250   0.656250 0
  0.546875   0.718750 0
  0.781250   0.625000 0
  0.546875   0.687500 0
  0.750000   0.640625 0
  0.796875   0.531250 0
  0.562500   0.593750 0
  0.984375   0.625000 0
  0.750000   0.687500 0
  0.546875   0.984375 0
  0.609375   0.812500 0
  0.796875   0.875000 0
  0.546875   0.953125 0
  0.609375   0.578125 0
  0.843750   0.515625 0
  0.765625   0.515625 0
  0.765625   0.718750 0
  0.531250   0.781250 0
  0.984375   0.546875 0
  0.750000   0.609375 0
  0.796875   0.828125 0
  0.671875   0.968750 0
  0.796875   0.796875 0
  0.796875   0.765625 0
  0.609375   0.671875 0
  0.796875   0.734375 0
  0.546875   0.812500 0
  0.796875   0.703125 0
  0.843750   0.546875 0
  0.609375   0.609375 0
  0.796875   0.687500 0
  0.562500   0.953125 0
  0.796875   0.656250 0
  0.609375   0.562500 0
  0.796875   0.625000 0
  0.609375   0.531250 0
  0.546875   0.640625 0
  0.765625   0.671875 0
  0.531250   0.734375 0
  0.796875   0.515625 0
  0.765625   0.640625 0
  0.531250   0.703125 0
  0.703125   1.000000 0
  0.765625   0.609375 0
  0.531250   0.671875 0
  0.765625   0.578125 0
  0.531250   0.640625 0
  0.546875   0.609375 0
  0.531250   1.000000 0
  0.890625   0.593750 0
  0.656250   0.656250 0
  0.781250   0.515625 0
  0.546875   0.578125 0
  0.531250   0.968750 0
  0.890625   0.562500 0
  0.656250   0.625000 0
  0.609375   0.968750 0
  0.781250   0.859375 0
  0.656250   0.593750 0
  0.750000   0.703125 0
  0.515625   0.765625 0
  0.781250   0.812500 0
  0.781250   0.781250 0
  0.593750   0.687500 0
  0.781250   0.750000 0
  0.593750   0.656250 0
  0.781250   0.718750 0
  0.531250   0.796875 0
  0.828125   0.562500 0
  0.593750   0.625000 0
  0.781250   0.687500 0
  0.828125   0.531250 0
  0.593750   0.593750 0
  0.812500   0.625000 0
  0.578125   0.687500 0
  0.781250   0.640625 0
  0.781250   0.609375 0
  0.593750   0.515625 0
  0.515625   0.781250 0
  0.812500   0.546875 0
  0.578125   0.609375 0
  0.812500   0.515625 0
  0.578125   0.578125 0
  0.750000   0.656250 0
  0.515625   0.718750 0
  0.750000   0.625000 0
  0.515625   0.687500 0
  0.687500   0.984375 0
  0.750000   0.593750 0
  0.515625   0.656250 0
  0.531250   0.546875 0
  0.750000   0.562500 0
  0.515625   0.625000 0
  0.531250   0.515625 0
  0.984375   0.515625 0
  0.750000   0.578125 0
  0.515625   0.531250 0
  0.828125   0.796875 0
  0.640625   0.703125 0
  0.828125   0.765625 0
[...]
CELL_DATA 7648
SCALARS scalar_value float 1
LOOKUP_TABLE default
0.0470736
0.0479579
0.00185104
0.00146405
0.00150232
0.00121592
0.00201699
0.00229349
0.00244218
0.00244816
0.00617029
0.00802655
0.0104806
0.00778199
0.0119467
0.0120789
0.0138262
0.00973529
0.0729186
0.0784909
0.0671164
0.0795279
0.0846554
0.0911988
0.0836885
0.0826768
0.0848775
0.0768825
0.0852654
0.0836225
0.0847363
0.0780608
6.01093e-05
6.75784e-05
9.85551e-05
5.00242e-05
0.0168049
0.0169636
0.0529739
0.0459321
0.0131347
0.0136259
0.105637
0.103829
0.000128486
0.000190336
0.000171687
0.00028966
0.00023949
0.000412531
0.000383249
0.000682924
0.000675547
0.00104981
0.00103393
0.00145269
0.0555571
0.060874
0.0669913
0.0672191
0.0727227
0.0791993
0.00148549
0.001774
0.00201105
0.00203331
0.00265423
0.00343467
0.00275966
0.00199127
0.00175748
0.00203309
0.00122152
0.0735081
0.133866
0.00132948
0.000944513
0.000967286
0.000714358
0.00211835
0.00170967
0.00124297
0.00169493
0.0037183
0.00283195
0.00282622
0.00232049
0.0344937
0.0359867
0.0407698
0.00016638
0.000233146
0.00030704
0.000279414
0.000426984
0.000474473
0.000647104
0.000378011
0.000794835
0.00106691
0.000857001
0.000448023
0.000596401
0.000706728
0.0851049
8.48454e-06
1.01599e-05
1.66567e-05
0.00419162
0.00412762
0.00414904
0.00379624
9.8386e-05
0.000107977
0.000154536
7.75898e-05
6.52513e-05
9.99285e-05
6.26269e-05
0.00450123
0.00518503
0.00536329
0.00567872
0.00657721
0.0067335
0.00613472
0.00772566
0.00392691
0.00390633
0.0042915
0.00333996
0.000992453
0.00104729
0.00124325
0.00093273
0.00178619
0.0019553
0.00182866
0.00225055
0.0133871
0.00343284
0.00344964
0.00480586
0.00575254
0.00633501
0.00746162
0.00875398
0.00719347
0.0563603
0.061424
0.0677024
0.0447799
0.0444135
0.047323
0.039134
0.0288483
0.0280099
0.03072
0.0227726
0.000592014
0.000721513
0.0123702
0.0128121
0.0152122
0.0105112
0.114516
0.00902264
0.00944307
0.0113452
0.00785511
0.0146698
0.0124246
0.0116208
0.0119408
0.000119818
0.000131267
0.00245007
0.00262576
0.0032088
0.00221877
0.00342908
0.00288653
0.00307068
0.00236115
0.0551233
0.0580941
0.0636015
0.0574552
0.0593537
0.0618727
0.0676483
0.129558
0.131496
0.00195147
0.00206823
0.00255095
0.00166231
0.0220386
0.0213475
0.0221529
0.0189589
0.00098598
0.00119178
0.00135732
0.00128448
7.87936e-05
8.75899e-05
0.00160839
0.00174385
0.0021093
0.00153877
0.00179971
0.00218485
0.00250664
0.00242606
0.0016629
0.00200642
0.00230316
0.00217134
0.00268433
0.00354527
0.00348761
0.00427371
0.00410682
0.00438774
0.00551973
0.0022823
0.00233705
0.00241837
0.00215264
0.0018985
0.00205867
0.00194261
0.00228365
0.00149551
0.00151777
0.00183041
0.00117998
0.00277725
0.00292621
0.00272123
0.00327691
0.0021944
0.00221365
0.0025885
0.00178126
0.117241
0.115809
0.0158826
0.0156694
0.0162017
0.0145361
0.0157032
0.0138923
0.0128172
0.0134088
0.0109771
0.00931531
0.0101086
0.00058937
0.000630692
0.000774474
0.000552099
0.000742875
0.000928984
0.00121621
0.000962479
0.000612278
0.000726403
0.000822623
0.000798029
0.00603575
0.00674085
0.0077535
0.00653823
0.00651573
0.00711092
0.00543262
0.0676995
0.0724789
0.0788922
0.049003
0.0517937
0.0432769
0.0535674
0.0549317
0.0466935
0.0366275
0.0383862
0.0302887
0.0420414
0.0404327
0.0412542
0.0358756
0.0377555
0.0388088
0.00619389
0.0055765
2.37869e-05
0.00069066
5.2591e-05
0.0805325
0.0252097
0.00125599
0.00140063
0.00466695
0.00226567
0.00129059
0.00284744
0.00614254
0.00277731
0.0232683
0.00230264
0.0179529
0.00126593
0.0011722
0.000871227
0.00550143
0.00472742
0.0707509
0.105767
0.0158671
0.066326
0.0715443
0.00761797
0.0155597
0.00231251
0.0551615
0.00746603
0.0517993
0.00968407
0.010966
0.00196775
0.00242346
0.00312268
0.00165402
0.00178001
0.000715918
0.00134961
0.0280826
0.0293257
0.0247461
0.122723
0.0265185
0.020306
0.000141978
7.79722e-05
0.125243
0.000171892
0.00859619
0.00191033
0.0029998
0.00159309
0.000845504
0.0722814
0.0374645
0.0320468
0.126887
0.127758
0.0653834
0.00711172
0.00817421
0.00700819
0.0659317
0.0236667
0.10123
0.00856054
0.00916365
0.00922718
0.0741961
0.0347218
0.0970252
0.0899341
0.00912173
4.1772e-05
0.00353574
0.0193476
0.0535928
0.058182
0.00657887
0.0647931
0.00670866
0.0628938
0.00593816
0.00579066
0.00503623
0.00926432
0.0080749
0.00747045
0.0439966
0.0487709
0.0419203
0.0668976
0.00644315
0.0532034
0.0507547
0.0563809
0.0468313
0.00611097
0.00712595
0.00398847
0.0030134
0.0043263
0.00302991
0.047847
0.00491577
0.000711874
0.00346738
0.00415426
0.000382356
0.00251495
0.114114
0.0204451
0.117439
0.0214822
0.0182571
0.00650261
0.018935
0.116004
0.000167684
0.000925201
0.015958
0.109245
0.0194215
0.0711541
0.00464866
0.0158028
0.000278517
1.23775e-05
8.99198e-06
0.00684016
0.11096
0.00469182
0.000272383
0.00225434
0.00456015
0.0618101
0.00527425
0.00547141
0.00282061
0.0123015
0.00310165
0.0468001
0.0351339
0.0389423
0.00213158
0.0150009
0.0152935
0.0182022
0.0187828
0.0178943
0.00834038
0.00802048
0.0469458
0.0633183
0.00565877
0.00702985
0.0110771
0.00353834
0.00297847
0.0326195
0.0246423
0.00320135
0.0460211
0.105975
0.00841299
0.00350529
0.0034827
0.0447718
0.00398278
0.00276873
0.00301772
0.00235338
0.00234892
0.0343705
0.00106593
0.00126688
0.0280683
0.134905
0.110925
0.00575129
0.0274426
0.0752765
0.0278553
0.00364314
0.0241504
0.0281161
0.0287537
0.0157377
0.0840145
0.0757411
0.100655
0.0944229
0.123639
0.00320634
0.0085085
0.110953
0.0210325
0.0202997
0.0185248
0.102995
0.00233573
0.0053394
0.00550653
0.00435554
0.00587122
0.00163734
0.0350302
0.0316133
0.00311963
0.0272363
0.0571682
0.00410597
0.0734934
0.0189529
0.0171807
0.111402
0.0171741
0.0210546
0.118981
0.117791
0.0283958
0.136217
0.134192
0.0982885
0.00367047
0.00255211
0.0037786
0.000207426
0.00905029
0.00490671
0.129948
0.0457631
0.00511631
0.00312137
0.0412508
4.85146e-05
0.115303
0.0260113
0.0494125
0.00295088
0.0574219
0.00362538
0.0524227
0.0536639
0.0572501
5.67459e-05
0.00132691
0.109786
0.00155687
0.00187958
0.000352111
0.000382942
0.0944886
0.031582
0.00147486
0.00395273
0.00397935
0.0136885
0.106697
1.33091e-05
1.78012e-05
0.1142
2.66341e-05
0.00904596
0.069209
0.00952342
0.00373644
0.0410156
0.00596476
0.0529667
0.00537696
0.0545582
0.0202355
0.020819
0.00139973
0.0239402
0.00181998
0.0176465
0.000969213
0.00940246
0.0271254
0.0278651
0.0202167
0.000150109
0.000166677
0.000220191
0.00949662
0.000142233
0.00772374
0.00323707
0.00438054
0.000242106
0.00989708
0.0107711
0.000237165
0.000196782
0.00885117
0.000267762
0.000287068
7.36139e-05
5.22481e-06
0.00848409
0.000181537
0.0115402
0.000260092
0.000393445
0.00011865
0.0404933
0.0359475
0.0495201
0.0029557
0.0251119
0.0370093
0.00887771
0.00631673
0.00685262
0.00700872
0.0282893
0.00103062
0.00388672
0.0652002
0.0919372
0.0799448
0.0100699
0.000688672
0.0107222
0.0391431
0.00514327
0.0472679
0.0446552
0.00292969
0.0330091
0.0901077
0.00691083
0.0715422
0.00143104
0.0841994
0.030166
0.0305563
0.0256652
0.0336519
0.000136529
0.03479
0.119423
0.0200935
0.121201
0.0220916
0.0259824
0.124624
0.125054
0.0159335
0.0169706
0.0332131
0.00428135
0.0223403
0.00334358
0.074373
0.0040935
0.134036
0.024643
0.00250254
0.0223337
0.101301
0.0014517
0.0122997
0.00594418
0.0153663
0.121865
0.121724
0.0248854
0.00370427
0.000111124
0.00656975
0.000164246
0.00176307
0.00618726
0.00727403
0.0439662
0.025836
0.0267835
0.00842535
0.084702
0.0360148
0.0101597
0.0968447
4.91224e-05
0.00863235
0.00808491
0.0120283
0.00972945
0.0100552
0.0126417
0.0117731
0.0541774
0.0488203
0.0561963
0.0560008
1.14881e-05
0.041872
0.0381496
1.89775e-05
0.055824
0.00712605
4.01874e-05
0.0810199
0.0376003
0.0041917
0.000295086
0.0384389
4.91243e-05
0.036356
0.0909766
0.0816395
0.00637274
0.0525816
0.00394872
0.0311285
0.00433098
0.0418341
0.0496858
0.0373684
0.00774735
0.00276847
6.69955e-06
0.0168784
0.0134577
0.0450967
0.00037213
0.0116858
0.120961
0.0487069
0.00490327
0.0417122
0.00927961
0.0826038
0.00434779
0.0378919
0.00764079
0.0364202
0.0342718
0.00585097
0.00408093
0.0607515
0.00291742
0.0183359
0.00702119
0.0901496
0.0384966
0.00433415
0.00316712
0.0337335
0.0130456
0.0076256
0.063573
0.0670849
0.013543
0.00152663
0.0081627
0.00385772
0.0230382
0.0035742
0.00250839
0.0545869
3.1376e-05
0.00481058
0.0271409
0.0041211
0.0342178
0.00154374
1.86279e-05
0.00202811
0.117381
0.00430901
0.0365775
0.00550249
0.000382049
0.00254781
0.0240489
0.0045907
0.000179923
0.00205743
0.00691902
0.00256696
0.0334299
0.0918237
0.00256298
0.0905847
0.0090248
0.00429558
0.0427387
0.00426852
0.0458326
0.00336021
0.00303153
0.0923514
0.00986318
0.0319151
0.0286299
0.000913469
0.00426952
0.00365817
0.0395813
0.00112871
0.00441319
0.00785301
0.00346695
0.0602328
0.00589962
0.00285403
0.136513
0.00768084
0.0295893
0.026349
0.0925394
0.00210636
0.106274
0.0122904
0.00221005
0.0817224
0.00343214
0.00184132
1.07032e-05
0.0828046
0.00898995
0.0226284
0.0763752
0.0405847
0.0120037
0.0865655
0.0950782
0.0401334
0.0152509
0.0598952
0.00596555
0.000855701
0.00332795
3.20809e-05
0.00994766
0.0314976
0.030321
0.0551067
0.032563
0.0251289
0.000342411
0.134827
0.100509
0.0138456
0.0399367
0.000685498
0.00374789
0.00360175
0.000425175
0.0060784
0.00370335
0.0296863
0.0547364
0.023291
0.0331364
0.00544875
0.0874741
0.0555848
0.0048434
0.119659
0.0677009
0.0404755
0.00371773
0.000237195
0.0496792
0.000948943
0.00050368
0.00195134
2.39595e-05
0.043818
0.0038521
0.00353362
0.034063
0.110333
0.0010026
0.000890361
0.086403
0.000207764
0.0487327
0.000484116
0.0349932
0.00503341
0.00292648
0.0857215
0.00312754
0.0678523
0.00286682
0.0374939
0.00766621
7.37031e-05
0.00353361
0.0509421
0.00743869
0.00884702
0.0439472
0.000314446
0.00539272
0.0670793
0.00423683
0.0989458
0.0130848
0.0761833
0.0619738
0.0490268
0.00483302
6.23495e-05
0.00510779
0.00235369
0.0135475
0.0211995
0.00441184
0.0998316
0.105945
0.0374991
0.0458438
0.000194529
0.0162167
0.0101715
0.00333671
0.020786
0.00430321
0.00407921
0.0185218
0.002783
0.00395522
0.00466703
0.0689572
0.0751887
0.00421666
0.133466
0.045121
0.0889509
0.00380355
0.000111874
0.000484477
8.57268e-05
0.0622133
0.00101868
0.00555526
0.0752722
0.0420567
0.0296068
0.122111
0.0726148
0.00389154
0.0242661
0.0695258
0.00411512
0.135124
0.0402233
0.00479691
0.00518792
0.00446188
0.000718454
0.0164485
0.112791
0.0154958
0.00385343
4.19824e-05
0.059463
0.0959458
0.00391572
0.00161694
0.0148822
0.00409074
0.023726
0.00270883
2.28689e-05
0.0309367
0.0037701
0.0204169
0.032431
0.00399357
0.0312356
0.00482702
0.00440432
0.00385519
0.0537128
0.0359769
0.00537695
0.130203
0.0430624
0.00420907
0.0345952
0.0398058
0.0188953
0.0289012
0.00101578
0.00115226
0.00120595
0.0324088
0.00194608
0.0230466
0.0544116
0.0419148
0.122811
0.0212775
0.000436579
0.0045663
0.00220768
0.0474674
0.00835874
0.107188
0.00503904
0.0272718
0.00725917
0.0357868
0.055283
0.00533703
0.00492843
0.00791467
0.0356102
0.0303412
0.00137532
0.00327606
0.0262192
0.0473144
0.0011769
0.0249108
0.030524
0.00117097
0.0593365
0.000459484
0.0362962
0.00517373
0.00594524
0.0184861
0.0926613
0.0801917
0.129261
0.0176237
0.0422073
0.0443642
0.0327138
0.000324332
0.00421032
0.0421049
0.00538309
0.00442388
0.060323
0.0465818
0.00920853
0.0415543
0.0728816
0.120992
0.0525365
0.013267
0.0113269
0.00976583
0.0105341
0.00691679
0.00660889
0.00691551
0.00356198
0.00344565
0.0534241
0.0482373
4.13097e-05
0.101409
0.0555243
0.00346911
0.00677709
0.0030146
0.0493175
0.0172271
9.53459e-05
0.0167308
0.0156776
0.00594157
0.0187552
0.0294753
0.00069438
0.0854633
0.100933
0.0876787
0.0883049
0.0943548
0.0775623
0.00071145
0.0152054
0.0817019
0.0880182
0.0697372
0.000406313
0.0124733
0.0250455
0.000530451
0.0142365
0.000924525
0.0188792
0.016672
0.0017855
0.00362031
0.00113827
0.13703
0.102983
0.00488369
0.0907871
0.066075
0.0284663
0.0755852
0.0716888
0.0715223
0.0661561
0.0754786
0.0790062
0.0640006
0.060866
0.0207749
0.0106515
0.0186808
0.00961905
0.0962775
0.0182154
0.106232
0.00602169
0.000551393
0.00490282
0.00109256
0.0846798
0.0781972
0.0310923
0.0355891
0.0974944
0.0977909
0.0124662
0.0992747
0.000526241
0.000557648
0.00439612
0.00450362
0.017005
0.0151208
0.0782572
0.0137993
0.0727932
0.0246931
0.0227263
0.0206245
0.0295888
0.0944519
0.00388029
0.0041146
0.00395993
0.0665999
0.00413936
0.00414672
0.000224704
0.0312769
0.00255405
0.000141388
0.0072626
0.129417
0.000702594
0.0144674
0.00099216
0.0169319
0.000506886
0.033809
0.127048
0.00424982
0.0606692
0.00445668
0.00429274
0.00428219
0.0549933
0.0737263
0.0685719
0.00485925
0.0047343
0.0748076
0.00548444
0.00410349
0.069972
0.00418005
0.0782924
0.00429983
0.0771263
0.00415514
0.000942917
3.3284e-05
0.00573579
0.00375953
0.00100574
0.00323665
0.000553149
1.72042e-05
0.000531454
0.00823836
0.0306588
0.101761
0.035889
0.101926
0.0303201
0.0165704
0.0182957
0.0224472
0.120618
0.0137075
0.0122007
0.0153771
0.0126992
0.104303
0.136491
0.0602305
0.013515
0.132293
0.0172616
0.135411
0.0624342
0.0426085
0.0202171
0.134236
0.00612631
0.0102806
0.00173717
0.000537947
0.00347622
0.00147258
0.0199858
0.00196871
0.000344705
0.0110292
0.0980765
0.0403326
0.00444265
0.0143398
0.0138122
0.0475436
0.0608465
0.09378
0.0392786
0.0304465
0.0316015
0.00708162
0.00411613
0.0105778
0.00646903
0.0677164
0.0120053
0.0239227
0.0218704
0.0627052
0.00011199
0.0294147
0.00196126
0.0786078
0.0144975
0.000471093
0.0162528
0.0177539
0.0230562
0.0207168
0.00282817
0.00233005
0.0206509
0.00144
0.0429898
0.00119251
0.028371
0.0895373
0.0301177
0.0013044
0.0556691
0.048294
0.0153863
1.52924e-05
0.0111293
0.00286245
4.02574e-05
0.0208443
0.0572003
0.025211
0.127283
0.000712277
0.0247312
0.016552
0.0200345
0.0173516
0.0529949
0.0121651
0.0252773
0.0516447
0.00186066
0.00169146
0.00156225
0.00119255
0.00171153
5.52942e-05
0.0677995
0.0625008
0.10375
0.109894
0.120552
0.105915
0.0162969
0.111811
0.0188128
0.110788
0.0179553
0.11205
0.0486433
0.090467
0.0986557
0.0963387
0.0971954
0.0243178
0.0285574
0.0232671
0.00218454
0.0488006
0.04912
0.00834675
0.0429081
0.0557147
0.058371
0.102879
0.000738345
0.000930336
0.0724509
0.00112284
0.000794566
0.0904594
0.00374977
2.89874e-05
2.07621e-05
1.46037e-05
0.00825526
0.0576823
0.0102944
0.000312217
0.012225
0.0142189
0.0119172
0.00985195
0.114367
0.0245728
0.112101
0.109318
0.0335721
0.00148201
0.00162765
0.111159
0.0166298
0.0193769
0.0226519
4.42024e-05
0.014067
0.0163532
0.0059961
0.00631833
0.0068623
0.0773771
0.0880499
0.0837673
0.0835695
0.00231266
0.0185804
0.0150893
0.0141963
0.0143119
0.0130109
0.00419327
0.108817
0.104188
0.105262
0.110442
0.0533617
0.0265446
0.00616469
0.0173759
0.136679
0.135589
0.00430473
0.00454492
0.00446659
0.00453039
0.00097613
0.00109984
0.000955628
0.0746719
0.0112179
0.00916796
0.0959227
0.0109989
0.012286
0.076815
0.0702209
0.00334004
0.00484981
0.00210532
0.00285642
0.00209699
0.0219456
0.00159273
0.0190078
0.0138696
0.0533531
0.0151877
0.0167274
0.0179247
0.0964176
0.112411
0.0237637
0.0198213
0.01736
0.0149148
0.0070761
0.00906608
0.00980101
0.00374963
0.110349
0.0302586
0.0033668
0.0266929
0.0258993
4.58448e-05
0.0669469
0.00339142
0.00433012
0.00271043
0.0958134
0.0518348
0.00968526
0.00125085
0.025305
0.00158071
0.0221003
0.00126285
0.0215207
0.0206604
0.0201411
0.0196101
0.0176409
0.035191
0.0324352
0.0367986
0.112386
0.0461357
0.00941372
0.0293663
0.0450232
0.00866299
0.0900291
0.10091
0.0120787
0.0272725
0.0412426
0.00477294
0.0365165
0.0850322
0.0182448
0.0210125
0.0292467
0.118324
0.0622319
0.0673108
0.00473399
0.0618712
0.0578198
5.52967e-05
0.0107599
0.0469159
0.0098041
0.0104375
0.00947167
0.0775137
0.00872868
0.112799
0.00149637
0.00121051
6.69512e-05
0.00530719
4.76885e-05
4.03275e-05
3.03529e-05
0.0257491
0.0244867
0.0139777
0.0582974
0.0599155
0.0844396
0.0816123
0.032449
0.117705
0.132785
0.0526895
0.00734497
0.00899757
0.00875836
0.00936814
0.052392
0.0134309
0.0161967
0.0156083
0.0510963
0.010542
0.0114222
0.0107587
0.00130816
0.000994181
0.0050192
0.00597366
0.0056838
0.00591021
0.00500214
0.00976112
0.0756193
0.0123402
0.00847166
0.130158
0.0399002
0.132329
0.132084
0.132947
0.0335145
0.0393927
0.035176
0.0344442
0.102848
0.0144785
0.0148773
0.00588612
0.00409581
0.0105976
0.00406217
0.00810182
0.0063159
0.00711481
0.0394893
0.0356921
0.0299796
0.0961384
0.0111684
0.0149461
0.0118891
0.00147166
0.0223637
0.066243
0.107453
0.0602816
0.00364593
0.0178192
0.017316
0.0193705
0.0906886
0.0927511
0.0129791
0.0343146
0.0261674
0.0229583
0.012598
0.0147473
0.0239227
0.0299569
0.0218136
0.025975
0.0521503
0.0114526
0.0832646
0.0492628
0.0106319
0.0134011
0.0112063
0.0018386
0.00252567
0.136203
0.0826654
0.0774015
0.0763381
0.00040437
0.000553345
0.120623
0.1168
0.114824
0.0505564
0.00418247
0.00334018
0.0327095
0.0264501
0.0319689
0.0347109
0.000732573
0.000770678
0.00530167
0.00569429
0.00580626
0.006672
0.12415
0.124477
0.126731
0.0458653
0.116947
6.88024e-05
4.98382e-05
3.55493e-05
0.00758768
0.0251907
0.0271567
0.0243499
0.0213715
1.92186e-05
3.2803e-05
0.100847
0.0259545
0.00785015
0.00184855
0.00191132
0.00392503
0.00249146
0.00126495
0.0301847
0.104869
0.108135
0.0984324
0.0531696
0.0464502
0.0505153
0.0495862
0.00983929
0.013302
0.0181689
0.0292003
0.0844385
0.120122
0.0294709
0.0333541
0.0288067
0.0484895
0.00428096
0.0699955
0.0778485
0.00470446
0.00475061
0.109909
0.00774974
0.0061215
0.112943
0.0127707
0.0155649
0.015089
0.0159467
0.0402059
0.0214879
0.020923
0.0181466
0.00665819
0.00835994
0.00691938
0.0122048
0.0154
0.0102043
0.0424948
0.0413887
0.061532
0.0371067
0.0621428
0.0616768
0.0555252
0.00797901
0.115623
0.0167666
0.0206312
0.0228886
0.0757647
0.076433
0.00504873
0.0835564
0.110164
0.00354184
0.00267134
0.0934691
0.00516819
0.00715536
0.0190659
0.0144577
0.110233
3.66564e-05
4.50704e-05
3.38546e-05
2.52991e-05
0.0946463
0.0048953
0.00491263
0.00506513
0.0057198
0.0469399
0.00326255
0.0115623
0.00933672
0.00851534
0.00840859
0.0379899
0.0434104
0.0457385
0.00181889
0.00201582
0.00140749
0.00271839
0.0032151
0.00290723
0.00847114
0.00939034
0.00812883
0.00720868
0.0840917
0.0349749
0.0421199
0.00239074
0.0393643
0.0393844
0.00250342
0.00260999
0.00217263
0.00736479
0.0277478
0.0339288
0.0411745
0.090642
0.0788951
0.0066586
0.00689744
0.00729242
0.0686124
0.010952
0.0335777
0.038875
0.0410855
0.0341538
0.00823885
0.00986964
0.0118001
0.10753
0.104384
0.0456064
0.0466776
0.0479117
0.0281628
0.0252077
0.0222583
0.124271
0.125177
0.124595
0.0599951
0.0963136
0.0871702
0.00348435
0.00257404
2.53402e-05
0.0531965
0.00188642
0.00137832
0.00123663
0.0117906
2.66625e-05
0.00131919
0.00157989
0.000986969
0.0323272
0.0220837
0.0292369
0.103044
0.0100383
0.0109106
0.0130549
0.00217247
0.00260664
0.00182126
0.00364129
0.00338167
0.00786533
0.00420258
0.0634805
0.00406441
0.00404483
0.127781
0.00427824
0.00448109
0.00451018
0.117271
0.10518
0.042431
0.0441645
0.132376
0.0607575
0.0659173
0.0233127
0.11332
0.018728
0.0245827
0.0174615
0.000253949
0.00647556
0.00739321
0.00499587
0.0898596
0.105987
0.101411
0.00379788
0.00422834
0.109782
0.10497
0.000458096
0.000408979
0.000333939
0.0128703
0.0106473
0.00646008
0.00802159
0.00903079
0.0918531
0.0853669
0.0915672
0.0949173
0.00614627
0.00159607
0.00212426
0.034672
0.0569108
0.0078892
0.00314349
0.000452692
0.000698651
0.000266942
0.00483153
0.00584597
0.00449892
5.35822e-05
0.00392396
0.00311642
0.00265376
0.0194982
0.0271802
0.0252532
6.66032e-05
0.00691083
0.00581421
0.0629691
0.0707189
0.0687543
0.00941935
0.00812923
0.0190521
0.0308354
0.0168892
0.0231794
0.0704869
0.0599982
0.00801346
0.0505874
0.0057831
0.0042526
0.0690813
0.0621553
0.0258397
0.0298302
0.0292161
0.0304672
0.00445578
0.0261124
0.00490268
0.00441761
0.128048
0.00365055
0.00484811
0.038385
0.00451792
0.00486342
0.00530721
0.0633667
0.06997
0.0618932
0.0692062
0.0616167
0.00542727
0.00445925
4.78051e-05
3.03803e-05
0.135339
0.13595
0.135825
0.135499
0.129185
0.129839
0.0120023
0.0143683
0.0141249
0.0150487
0.000114969
7.82874e-05
0.104524
0.116351
0.00819968
0.00655428
0.00468766
0.00565367
0.0160832
0.0183944
0.0211221
0.11012
0.00748535
0.00853785
0.00883945
0.00748318
0.00741895
0.00960088
0.00910522
0.00973544
2.04136e-09
2.03711e-07
4.9645e-07
8.43197e-06
2.20068e-05