# vtk DataFile Version 2.0
Unstructured Grid by M++
ASCII
DATASET UNSTRUCTURED_GRID
POINTS 4072 float
  0.828125   0.890625 0
  0.875000   0.531250 0
  0.828125   0.750000 0
  0.593750   0.968750 0
  0.828125   0.671875 0
  0.828125   0.875000 0
  0.593750   0.937500 0
  0.828125   0.656250 0
  0.828125   0.640625 0
  0.828125   0.843750 0
  0.593750   0.906250 0
  0.828125   0.625000 0
  0.781250   0.968750 0
  0.828125   0.609375 0
  0.828125   0.812500 0
  0.593750   0.875000 0
  0.593750   0.828125 0
  0.593750   0.796875 0
  0.828125   0.703125 0
  0.593750   0.765625 0
  0.828125   0.937500 0
  0.812500   0.875000 0
  0.859375   0.515625 0
  0.812500   0.734375 0
  0.812500   0.937500 0
  0.578125   1.000000 0
  0.578125   0.750000 0
  0.812500   0.687500 0
  0.578125   0.953125 0
  0.812500   0.656250 0
  0.812500   0.859375 0
  0.578125   0.921875 0
  0.812500   0.828125 0
  0.578125   0.890625 0
  0.812500   0.593750 0
  0.812500   0.796875 0
  0.578125   0.859375 0
  0.578125   0.812500 0
  0.578125   0.781250 0
  0.796875   1.000000 0
  0.796875   0.859375 0
  0.796875   0.718750 0
  0.562500   0.984375 0
  0.562500   0.937500 0
  0.796875   0.843750 0
  0.562500   0.906250 0
  0.796875   0.812500 0
  0.562500   0.875000 0
  0.796875   0.578125 0
  0.796875   0.781250 0
  0.562500   0.843750 0
  0.812500   0.984375 0
  0.562500   0.796875 0
  0.812500   0.953125 0
  0.562500   0.765625 0
  0.796875   0.937500 0
  0.546875   0.750000 0
  0.781250   0.984375 0
  0.828125   0.593750 0
  0.781250   0.843750 0
  0.781250   0.937500 0
  0.546875   1.000000 0
  0.781250   0.703125 0
  0.546875   0.968750 0
  0.546875   0.921875 0
  0.781250   0.828125 0
  0.546875   0.890625 0
  0.781250   0.796875 0
  0.546875   0.859375 0
  0.781250   0.562500 0
  0.781250   0.765625 0
  0.546875   0.828125 0
  0.796875   0.968750 0
  0.546875   0.781250 0
  0.765625   1.000000 0
  0.765625   0.968750 0
  0.531250   0.984375 0
  0.765625   0.687500 0
  0.531250   0.953125 0
  0.531250   0.937500 0
  0.531250   0.906250 0
  0.765625   0.812500 0
  0.531250   0.875000 0
  0.765625   0.781250 0
  0.531250   0.843750 0
  0.781250   1.000000 0
  0.765625   0.546875 0
  0.765625   0.750000 0
  0.531250   0.812500 0
  0.781250   0.953125 0
  0.531250   0.765625 0
  0.515625   0.750000 0
  0.750000   0.984375 0
  0.750000   0.953125 0
  0.796875   0.593750 0
  0.796875   0.562500 0
  0.750000   0.843750 0
  0.750000   0.937500 0
  0.515625   1.000000 0
  0.750000   0.906250 0
  0.515625   0.968750 0
  0.750000   0.671875 0
  0.750000   0.875000 0
  0.515625   0.937500 0
  0.515625   0.921875 0
  0.515625   0.890625 0
  0.750000   0.796875 0
  0.515625   0.859375 0
  0.750000   0.765625 0
  0.515625   0.828125 0
  1.000000   0.718750 0
  0.750000   0.531250 0
  0.750000   0.734375 0
  0.515625   0.796875 0
  0.734375   1.000000 0
  0.734375   0.968750 0
  0.734375   0.937500 0
  0.781250   0.578125 0
  0.781250   0.546875 0
  0.968750   0.578125 0
  0.734375   0.828125 0
  0.968750   0.546875 0
  0.734375   0.796875 0
  0.734375   0.765625 0
  0.968750   0.671875 0
  0.734375   0.734375 0
  0.968750   0.640625 0
  0.734375   0.703125 0
  0.968750   0.609375 0
  0.734375   0.671875 0
  0.734375   0.656250 0
  0.734375   0.625000 0
  0.968750   0.531250 0
  0.734375   0.593750 0
  0.984375   0.734375 0
  0.984375   0.703125 0
  0.734375   0.515625 0
  0.718750   0.984375 0
  0.718750   0.953125 0
  0.718750   0.921875 0
  0.953125   0.562500 0
  0.718750   0.812500 0
  0.953125   0.531250 0
  0.718750   0.781250 0
  0.718750   0.750000 0
  0.953125   0.656250 0
  0.718750   0.718750 0
  0.953125   0.625000 0
  0.718750   0.687500 0
  0.953125   0.593750 0
  0.718750   0.656250 0
  0.671875   1.000000 0
  0.718750   0.640625 0
  0.718750   0.609375 0
  0.953125   0.515625 0
  0.718750   0.578125 0
  0.968750   0.718750 0
  0.968750   0.687500 0
  0.953125   0.671875 0
  0.703125   0.968750 0
  0.703125   0.937500 0
  0.937500   0.656250 0
  0.703125   0.906250 0
  0.937500   0.546875 0
  0.703125   0.796875 0
  0.937500   0.515625 0
  0.703125   0.765625 0
  0.937500   0.671875 0
  0.703125   0.734375 0
  0.937500   0.640625 0
  0.703125   0.703125 0
  0.937500   0.609375 0
  0.703125   0.671875 0
  0.937500   0.578125 0
  0.703125   0.640625 0
  0.656250   0.984375 0
  0.703125   0.625000 0
  0.703125   0.593750 0
  0.718750   0.796875 0
  0.953125   0.734375 0
  0.812500   1.000000 0
  0.859375   0.656250 0
  0.703125   0.781250 0
  0.937500   0.718750 0
  0.953125   0.703125 0
  0.796875   0.984375 0
  0.843750   0.640625 0
  0.812500   0.968750 0
  0.859375   0.625000 0
  0.796875   0.953125 0
  0.843750   0.609375 0
  0.687500   0.953125 0
  0.687500   0.921875 0
  0.687500   0.890625 0
  0.921875   0.734375 0
  0.687500   0.796875 0
  0.687500   0.781250 0
  0.921875   0.703125 0
  0.687500   0.765625 0
  0.687500   0.750000 0
  0.921875   0.656250 0
  0.687500   0.718750 0
  0.921875   0.625000 0
  0.687500   0.687500 0
  0.921875   0.593750 0
  0.687500   0.656250 0
  0.640625   1.000000 0
  0.921875   0.562500 0
  0.687500   0.625000 0
  0.640625   0.968750 0
  0.687500   0.609375 0
  0.687500   0.578125 0
  0.937500   0.687500 0
  0.921875   0.671875 0
  0.671875   0.921875 0
  0.906250   0.656250 0
  0.671875   0.906250 0
  0.671875   0.875000 0
  0.906250   0.718750 0
  0.671875   0.781250 0
  0.671875   0.765625 0
  0.671875   0.734375 0
  0.906250   0.640625 0
  0.671875   0.703125 0
  0.906250   0.609375 0
  0.671875   0.671875 0
  0.906250   0.578125 0
  0.671875   0.640625 0
  0.625000   0.984375 0
  0.671875   0.609375 0
  0.625000   0.953125 0
  0.671875   0.593750 0
  0.671875   0.562500 0
  0.765625   0.953125 0
  0.812500   0.609375 0
  0.656250   1.000000 0
  0.656250   0.953125 0
  0.656250   0.906250 0
  0.890625   0.640625 0
  0.656250   0.890625 0
  0.656250   0.859375 0
  0.890625   0.734375 0
  0.656250   0.796875 0
  0.812500   0.921875 0
  0.562500   1.000000 0
  0.625000   0.828125 0
  0.812500   0.843750 0
  0.843750   0.593750 0
  0.812500   0.812500 0
  0.625000   0.718750 0
  0.828125   0.687500 0
  0.640625   0.593750 0
  0.812500   0.781250 0
  0.625000   0.687500 0
  0.765625   0.828125 0
  0.640625   0.562500 0
  0.812500   0.750000 0
  0.562500   0.828125 0
  0.781250   0.875000 0
  0.546875   0.937500 0
  0.781250   0.671875 0
  0.781250   0.593750 0
  0.546875   0.656250 0
  0.796875   0.750000 0
  0.562500   0.812500 0
  0.796875   0.546875 0
  0.765625   0.796875 0
  0.765625   0.593750 0
  1.000000   0.531250 0
  0.812500   0.718750 0
  0.859375   0.562500 0
  0.625000   0.625000 0
  0.812500   0.703125 0
  0.812500   0.906250 0
  0.578125   0.968750 0
  0.984375   0.593750 0
  0.828125   0.578125 0
  0.828125   0.781250 0
  0.593750   0.843750 0
  0.812500   0.671875 0
  0.625000   0.578125 0
  0.796875   0.671875 0
  0.562500   0.734375 0
  0.984375   0.562500 0
  0.828125   0.546875 0
  0.812500   0.640625 0
  0.750000   0.812500 0
  0.625000   0.546875 0
  0.796875   0.640625 0
  0.562500   0.703125 0
  0.828125   0.515625 0
  0.781250   0.734375 0
  0.546875   0.796875 0
  0.781250   0.531250 0
  0.750000   0.781250 0
  0.625000   0.515625 0
  0.796875   0.609375 0
  0.562500   0.671875 0
  0.765625   0.656250 0
  0.765625   0.859375 0
  0.531250   0.921875 0
  0.812500   0.578125 0
  0.562500   0.656250 0
  0.984375   0.687500 0
  0.750000   0.750000 0
  0.812500   0.562500 0
  0.812500   0.765625 0
  0.578125   0.828125 0
  0.562500   0.625000 0
  0.984375   0.656250 0
  0.750000   0.718750 0
  0.812500   0.531250 0
  0.781250   0.656250 0
  0.546875   0.718750 0
  0.781250   0.625000 0
  0.546875   0.687500 0
  0.750000   0.640625 0
  0.796875   0.531250 0
  0.562500   0.593750 0
  0.984375   0.625000 0
  0.750000   0.687500 0
  0.546875   0.984375 0
  0.609375   0.812500 0
  0.796875   0.875000 0
  0.546875   0.953125 0
  0.609375   0.578125 0
  0.843750   0.515625 0
  0.765625   0.515625 0
  0.765625   0.718750 0
  0.531250   0.781250 0
  0.984375   0.546875 0
  0.750000   0.609375 0
  0.796875   0.828125 0
  0.671875   0.968750 0
  0.796875   0.796875 0
  0.796875   0.765625 0
  0.609375   0.671875 0
  0.796875   0.734375 0
  0.546875   0.812500 0
  0.796875   0.703125 0
  0.843750   0.546875 0
  0.609375   0.609375 0
  0.796875   0.687500 0
  0.562500   0.953125 0
  0.796875   0.656250 0
  0.609375   0.562500 0
  0.796875   0.625000 0
  0.609375   0.531250 0
  0.546875   0.640625 0
  0.765625   0.671875 0
  0.531250   0.734375 0
  0.796875   0.515625 0
  0.765625   0.640625 0
  0.531250   0.703125 0
  0.703125   1.000000 0
  0.765625   0.609375 0
  0.531250   0.671875 0
  0.765625   0.578125 0
  0.531250   0.640625 0
  0.546875   0.609375 0
  0.531250   1.000000 0
  0.890625   0.593750 0
  0.656250   0.656250 0
  0.781250   0.515625 0
  0.546875   0.578125 0
  0.531250   0.968750 0
  0.890625   0.562500 0
  0.656250   0.625000 0
  0.609375   0.968750 0
  0.781250   0.859375 0
  0.656250   0.593750 0
  0.750000   0.703125 0
  0.515625   0.765625 0
  0.781250   0.812500 0
  0.781250   0.781250 0
  0.593750   0.687500 0
  0.781250   0.750000 0
  0.593750   0.656250 0
  0.781250   0.718750 0
  0.531250   0.796875 0
  0.828125   0.562500 0
  0.593750   0.625000 0
  0.781250   0.687500 0
  0.828125   0.531250 0
  0.593750   0.593750 0
  0.812500   0.625000 0
  0.578125   0.687500 0
  0.781250   0.640625 0
  0.781250   0.609375 0
  0.593750   0.515625 0
  0.515625   0.781250 0
  0.812500   0.546875 0
  0.578125   0.609375 0
  0.812500   0.515625 0
  0.578125   0.578125 0
  0.750000   0.656250 0
  0.515625   0.718750 0
  0.750000   0.625000 0
  0.515625   0.687500 0
  0.687500   0.984375 0
  0.750000   0.593750 0
  0.515625   0.656250 0
  0.531250   0.546875 0
  0.750000   0.562500 0
  0.515625   0.625000 0
  0.531250   0.515625 0
  0.984375   0.515625 0
  0.750000   0.578125 0
  0.515625   0.531250 0
  0.828125   0.796875 0
  0.640625   0.703125 0
  0.828125   0.765625 0
[...]
CELL_DATA 7648
SCALARS scalar_value float 1
LOOKUP_TABLE default
0.00255785
0.0027682
1.57915e-05
1.27732e-05
1.3994e-05
9.88758e-06
6.87133e-07
8.07467e-07
8.82573e-07
8.72681e-07
5.10066e-06
7.12275e-06
9.44851e-06
7.05976e-06
1.1138e-05
1.17071e-05
1.39657e-05
9.40825e-06
0.000586084
0.000734274
0.000564916
0.000649938
0.000756364
0.000826879
0.00201708
0.00214645
0.00242844
0.00199474
0.00286429
0.00299655
0.00323767
0.00281938
6.06394e-08
8.2566e-08
1.60623e-07
5.53559e-08
1.9459e-05
1.65794e-05
0.00293615
0.00279259
1.80632e-05
1.95616e-05
0.00339346
0.00346872
2.87691e-07
4.58278e-07
3.82462e-07
7.88957e-07
5.33234e-07
9.77293e-07
8.56381e-07
1.74855e-06
2.03713e-06
3.14201e-06
2.94356e-06
4.55399e-06
0.000342785
0.000361333
0.000462706
0.000407296
0.000483304
0.000537356
1.95347e-06
2.66297e-06
3.12891e-06
3.51527e-06
4.80203e-06
7.18569e-06
5.83606e-06
4.12084e-06
3.83999e-06
4.49253e-06
2.78513e-06
0.000517554
0.00276183
6.07885e-06
4.40222e-06
4.74328e-06
3.14453e-06
1.11914e-05
8.61886e-06
6.42988e-06
8.11883e-06
1.72961e-05
1.37002e-05
1.44113e-05
1.07693e-05
0.00162953
0.00187123
0.00208472
6.70516e-08
1.06848e-07
1.46877e-07
1.38747e-07
2.27104e-07
2.70085e-07
4.11483e-07
2.10734e-07
4.80019e-07
6.57724e-07
5.53821e-07
2.72365e-07
4.11851e-07
5.46019e-07
0.000806973
7.20815e-09
7.59836e-09
1.69638e-08
8.58392e-05
8.81296e-05
9.34718e-05
8.19943e-05
2.22513e-07
2.6488e-07
4.35436e-07
1.77997e-07
1.52749e-07
2.90436e-07
1.52661e-07
1.92231e-06
2.34111e-06
2.43743e-06
2.68224e-06
3.31888e-06
3.39363e-06
2.9546e-06
4.16665e-06
6.69618e-05
6.96659e-05
8.12062e-05
5.93776e-05
8.20021e-06
9.21276e-06
1.17749e-05
8.27873e-06
5.82784e-07
6.53884e-07
6.02541e-07
7.80947e-07
1.0436e-05
7.88957e-05
8.32809e-05
1.12452e-05
1.45781e-05
1.58655e-05
2.02399e-05
2.63427e-05
2.06954e-05
0.000369429
0.000442486
0.00049623
0.000570883
0.000609011
0.000699659
0.000555372
0.000349154
0.000359764
0.000420626
0.000294508
3.24179e-07
4.98375e-07
1.49199e-05
1.61117e-05
2.04535e-05
1.28313e-05
0.00146381
1.09979e-05
1.20222e-05
1.57453e-05
9.50995e-06
0.00160137
0.00144383
0.00147165
0.00128339
3.4236e-07
4.01303e-07
1.49756e-06
1.70542e-06
2.35102e-06
1.37298e-06
2.66349e-06
2.123e-06
2.39955e-06
1.55181e-06
0.000929465
0.00106885
0.00115492
0.00113958
0.00139061
0.00159145
0.00172557
0.00448894
0.00541676
1.23558e-06
1.39208e-06
1.91218e-06
1.08709e-06
0.00132023
0.00141137
0.00161382
0.00132249
3.45467e-07
4.41969e-07
5.05025e-07
5.00701e-07
1.30818e-07
1.62798e-07
6.54397e-07
7.60051e-07
1.04891e-06
6.51829e-07
7.56547e-07
1.07646e-06
1.36448e-06
1.30731e-06
7.48537e-07
1.01024e-06
1.23207e-06
1.16672e-06
8.50004e-06
1.0821e-05
1.01227e-05
1.35771e-05
1.08757e-05
1.05556e-05
1.5067e-05
3.92612e-06
4.45579e-06
4.94896e-06
4.04865e-06
6.40618e-07
7.26518e-07
6.87735e-07
8.18929e-07
1.05079e-05
1.13433e-05
1.46178e-05
9.01392e-06
1.02223e-06
1.09655e-06
1.00525e-06
1.26316e-06
2.01453e-05
2.17948e-05
2.76553e-05
1.78831e-05
0.00356572
0.00363282
0.000606704
0.000691804
0.000757553
0.000768252
0.000832413
0.000848635
0.000864533
0.000798706
0.000741184
0.000661011
0.000743308
3.73379e-06
4.24002e-06
5.60035e-06
3.72363e-06
4.67479e-06
6.25048e-06
8.03382e-06
6.87277e-06
4.38822e-06
5.62115e-06
6.32174e-06
6.56286e-06
1.93509e-05
2.03848e-05
2.51717e-05
2.63966e-05
2.76347e-05
3.15708e-05
2.39783e-05
0.000607157
0.000713328
0.000785327
0.000908249
0.00104469
0.000819691
0.00127199
0.0015429
0.00121299
0.000757945
0.000925984
0.000677596
0.00233972
0.00241581
0.00261903
0.0022009
0.000267772
0.000300452
5.80738e-06
4.69714e-06
1.115e-08
2.89145e-06
3.14189e-08
0.000336682
0.000112216
3.94647e-07
4.61004e-07
1.19672e-05
7.85226e-07
4.11816e-07
1.05106e-06
1.65372e-05
1.01785e-06
3.30072e-05
5.84092e-06
2.4274e-05
3.06575e-06
2.9821e-06
2.03372e-06
0.000441175
0.000349757
0.00276292
0.000865926
0.000194608
0.000379366
0.000394577
5.76826e-05
0.000446581
1.02152e-05
0.000153661
2.78386e-05
0.000143913
6.61779e-06
7.89847e-06
7.07926e-06
8.55864e-07
1.18643e-06
6.41055e-07
7.04151e-07
2.85374e-07
4.58355e-07
0.000934393
0.00116722
0.00059147
0.00211549
0.000744014
0.000513441
2.60634e-07
8.8187e-08
0.00344424
3.13825e-07
9.64595e-06
4.45047e-06
1.12302e-06
1.85278e-05
3.25364e-07
0.00143213
0.000970749
0.000837237
0.00305843
0.00441679
0.000197861
4.52402e-05
5.11702e-05
4.82776e-05
0.000331147
0.00085152
0.000648816
4.17583e-05
4.8975e-05
5.34622e-05
0.00034502
0.00195465
0.00341297
0.00336068
0.00094172
2.43561e-08
2.62145e-06
0.000194889
0.00022769
0.000237499
3.61539e-05
0.000307052
0.000110707
0.000181142
0.00104115
0.00115537
0.000896147
8.53573e-05
7.42144e-05
6.17834e-05
0.000327061
0.000428042
0.00035007
0.000697827
5.42343e-05
0.000549578
0.000327286
0.000426646
0.000320035
8.69184e-05
0.00011036
1.62607e-06
3.78306e-05
1.81123e-06
4.07951e-05
0.000351235
2.15631e-06
3.09533e-07
5.11707e-05
1.71942e-06
1.52136e-07
3.40232e-05
0.00136294
0.000809445
0.00310557
0.00104857
0.000837976
3.8306e-05
0.000667637
0.00273601
5.04632e-07
3.40456e-07
0.000517781
0.00222209
6.57322e-05
0.000243211
6.99141e-06
3.46946e-05
1.2565e-07
5.9127e-09
4.99565e-09
9.64682e-05
0.000941259
2.082e-06
1.11966e-07
3.47095e-05
7.46106e-05
0.00054905
8.14904e-05
9.7772e-05
5.86103e-05
9.5385e-06
7.16203e-05
0.000744123
0.000200221
0.000243929
2.48011e-05
0.000255738
0.000245535
0.00140723
0.00158843
0.00166668
2.61001e-05
2.80586e-05
0.00010721
0.000186512
0.00104936
0.00107814
9.04671e-05
1.39126e-06
1.11457e-06
9.49639e-05
6.47995e-05
3.36364e-05
0.000269498
0.000759269
3.21445e-05
2.64018e-05
2.82177e-05
0.000215771
3.50032e-05
2.3089e-05
2.12425e-05
1.82822e-05
1.70804e-05
0.000139326
3.57271e-07
4.48298e-07
7.19026e-05
0.00536587
0.00121444
0.000574105
0.000985721
0.000287285
3.80605e-05
7.25917e-06
3.19032e-05
4.14992e-05
7.73371e-05
2.21053e-05
0.000405007
0.000291871
0.00122559
0.00113874
0.00137719
3.12002e-05
3.88418e-05
0.000891587
0.000239793
0.000243611
0.000195055
0.000742682
3.51855e-06
0.00045411
6.96582e-06
3.17478e-05
4.50202e-05
5.97635e-07
8.3336e-05
7.83831e-05
1.26736e-05
0.000141388
0.000462213
6.09612e-05
0.000627544
0.00061018
0.000626941
0.00253323
0.000457648
0.000374491
0.00135351
0.00125451
0.000548681
0.00506899
0.00301867
0.00138948
7.22547e-05
3.1085e-06
5.07411e-06
8.97488e-07
2.56975e-05
3.86987e-05
0.00496288
0.000447432
1.76275e-05
1.32983e-05
0.000674048
1.43471e-08
0.00208167
0.000218566
0.000608801
5.79692e-05
0.000751204
7.44428e-05
0.000754425
0.00059754
0.000695314
2.66861e-08
6.05736e-07
0.0013857
7.24109e-07
9.64701e-07
1.36619e-06
1.76647e-06
0.000530987
0.0002158
5.02522e-07
3.7654e-05
3.69847e-06
0.000201073
0.00101935
8.67081e-09
9.92681e-09
0.00118803
2.14153e-08
4.07047e-05
0.000261947
4.69729e-05
1.65242e-05
7.68602e-05
3.08834e-05
0.000198054
3.5194e-05
0.00024526
4.05259e-05
4.36648e-05
5.4217e-06
5.41612e-05
7.35852e-06
3.60721e-05
3.82515e-06
6.86597e-06
5.95298e-05
6.41763e-05
0.000883457
5.26657e-07
6.23825e-07
9.1227e-07
2.17022e-05
5.18488e-07
1.72496e-05
4.44223e-06
8.46693e-06
1.06591e-06
2.45698e-05
7.01264e-06
1.09759e-06
7.16777e-07
1.67761e-05
1.07433e-06
1.21829e-06
1.95991e-07
3.60746e-09
1.49136e-05
6.22738e-07
7.71666e-05
1.02626e-07
1.62512e-07
1.89887e-07
0.000709327
5.7657e-05
0.000469226
4.8913e-05
0.000224062
0.000459092
3.76426e-05
5.82982e-05
7.03592e-05
7.43405e-06
0.000138893
4.18796e-07
2.31657e-05
0.000243111
0.00328861
0.000411512
6.64262e-05
2.64903e-07
7.05954e-06
9.34156e-05
1.85047e-05
0.00012146
0.000121142
2.7256e-06
6.61743e-05
0.000993144
2.3821e-05
0.000248596
5.08519e-07
0.000379835
0.00144309
0.00175425
0.00135967
0.000241595
5.02603e-08
0.0012715
0.00225201
0.000543097
0.00262763
0.000661799
0.00166501
0.00226187
0.00244827
3.90987e-05
4.89727e-05
0.000197802
1.81307e-06
7.04162e-05
7.90919e-06
0.00175027
1.52872e-05
0.00553654
2.85801e-05
3.53542e-06
2.48493e-05
0.00069975
6.38852e-07
8.67208e-06
9.21275e-05
3.21012e-05
0.00322737
0.00372993
0.00108509
8.34731e-06
3.627e-07
1.33679e-05
6.43811e-07
1.22916e-06
0.000104335
3.88821e-06
8.37185e-05
0.000461575
3.74288e-05
9.45509e-05
0.000629067
0.000176645
0.000135396
0.000843102
1.57684e-08
0.000116934
0.000100121
8.73638e-06
0.000108708
0.000103497
0.000158915
0.000124824
0.00268653
0.00247438
0.00221864
0.00259272
9.78463e-09
0.00166865
6.3452e-05
2.18765e-08
0.00186012
9.04544e-05
4.80171e-08
0.00176879
0.000124998
0.000300399
1.4936e-06
0.000584136
2.31285e-08
0.000482578
0.000689891
0.00118463
1.04163e-05
0.000702328
0.00017344
6.89838e-05
2.10039e-05
0.000134266
0.000855806
0.000110692
6.59937e-06
2.48075e-05
4.24026e-09
1.46686e-05
2.91492e-05
0.000248113
1.52301e-06
2.35485e-05
0.00153151
0.00177441
0.000465147
7.59181e-05
2.42512e-05
0.000411712
0.000306928
6.25147e-05
1.91093e-05
5.92813e-05
5.25493e-05
1.36078e-05
0.000226327
0.000935117
5.74379e-06
0.00184844
0.000908003
0.00046186
0.000151605
0.000333349
4.98944e-06
0.000176998
0.000153811
4.06875e-05
0.000263659
0.000238045
1.02655e-05
1.66386e-05
0.000121649
9.73164e-05
0.000200663
5.43792e-06
9.37848e-06
0.00232378
1.22574e-08
0.000489428
0.000292633
5.69683e-05
0.000268743
1.92622e-05
2.37725e-08
1.79537e-06
0.00180036
4.58539e-06
0.000303668
2.6199e-06
1.71931e-07
4.22552e-05
8.96086e-05
2.07462e-06
6.88516e-08
3.18108e-05
8.35316e-06
1.50606e-05
0.000114467
0.00245596
1.59562e-05
0.00260139
0.000699101
2.20189e-05
0.000144681
0.000441464
0.000141068
1.79321e-05
1.99852e-05
0.00290331
0.000816903
0.000141797
0.000125661
3.07779e-07
0.00039793
4.22412e-05
0.000186398
3.57685e-07
0.00092246
7.93252e-05
8.7271e-06
0.000172891
2.19333e-05
6.44989e-06
0.00448208
1.09524e-05
0.000104006
9.50686e-05
0.000579252
9.77609e-07
0.00122611
0.00021951
1.7147e-06
0.00165649
1.33896e-06
2.31572e-05
1.03561e-08
0.000364988
0.0012819
2.43366e-05
0.00029399
0.0017491
3.14723e-05
0.000446504
0.000587031
8.56798e-05
1.33416e-05
0.000294892
4.2155e-05
3.02624e-07
2.97133e-06
4.11906e-08
5.44683e-05
5.57993e-05
0.000112244
0.00290325
5.39621e-05
9.95985e-05
1.74902e-06
0.00512211
0.00114871
0.000329731
0.00144637
2.43523e-06
0.000108726
9.21138e-05
1.12946e-06
1.12154e-05
0.00012187
0.000247549
0.000279518
9.25763e-05
0.000320034
3.32046e-05
0.000528878
0.000300614
4.14791e-05
0.00208738
0.000228086
0.000202211
1.49268e-06
7.95786e-07
0.000262954
5.57189e-06
2.22049e-06
1.25532e-05
8.32312e-09
0.000176546
2.44852e-05
3.37088e-06
7.19262e-05
0.000870168
3.24924e-07
3.75592e-07
0.000413427
5.76495e-07
0.000214685
1.80468e-06
6.61018e-05
1.47895e-05
4.57902e-05
0.000400499
3.13807e-06
0.000220072
1.86532e-06
7.01099e-05
3.823e-05
1.87083e-07
0.000101586
0.00110689
0.00106652
6.14777e-05
0.000200178
1.51423e-06
2.50897e-05
0.00021419
0.000793614
0.00333838
0.00108863
0.000405564
0.000200276
0.00211736
5.01364e-06
1.06199e-07
5.62157e-06
1.95846e-06
1.01659e-05
0.00213317
9.56818e-06
0.0007235
0.00114968
6.54603e-05
9.23723e-05
7.8277e-08
1.79215e-05
2.07243e-05
8.55844e-05
2.09945e-05
0.000149289
0.00013301
1.72776e-05
3.02482e-06
0.000114804
0.000370899
0.00287899
0.00164094
0.00012775
0.00457721
0.000997493
0.000568062
0.000137346
2.05792e-07
1.6099e-06
2.13114e-07
0.00018008
3.58711e-06
0.000589897
0.00324086
7.8619e-05
0.000204948
0.00173315
0.000424215
0.000133138
0.000619493
0.00116287
0.000252365
0.00324498
0.000108525
1.94074e-05
8.58138e-05
0.000408143
3.7567e-06
4.24676e-05
0.00181488
0.000373669
4.32356e-06
7.66399e-08
0.000161221
0.000554229
0.000144584
4.27423e-06
4.03464e-05
0.000145683
4.84568e-05
2.16491e-06
2.38665e-08
0.000129398
0.000116666
2.07328e-05
4.99716e-05
0.000192025
4.46293e-05
1.02023e-05
2.98491e-05
0.000150273
0.00162928
9.01069e-05
2.6989e-06
0.00367916
8.55972e-05
0.000249301
5.26709e-05
6.98135e-05
0.000309219
0.000170762
9.58766e-06
5.44695e-07
4.91758e-07
8.44576e-05
6.67823e-06
4.49143e-05
0.00195861
0.000497947
0.00229733
0.00170339
2.41837e-06
5.20296e-06
2.78823e-06
0.00221207
1.78913e-05
0.00181868
8.35988e-06
3.38687e-05
1.16987e-05
0.0007932
0.000135927
7.88571e-06
0.00100759
1.54665e-05
0.00155282
4.16859e-05
5.0795e-06
5.96921e-06
3.38111e-05
0.00186274
3.82154e-07
0.00144489
0.000187753
1.19365e-05
0.000256608
1.4487e-06
7.23768e-05
1.59325e-05
0.00010533
0.000399642
0.000505889
0.000331866
0.00492173
0.00204857
0.00199782
8.55442e-05
0.00108484
1.05873e-06
0.000335086
7.84034e-05
5.07189e-05
0.00044033
0.0030599
9.41865e-05
2.72303e-05
9.37748e-05
0.00076553
0.00338176
0.00134567
2.56155e-05
2.1526e-05
1.71397e-05
2.30543e-05
2.48272e-05
3.82943e-06
2.17048e-05
1.41877e-06
2.37168e-06
0.000157416
0.000101919
1.5523e-08
0.00169543
0.00086897
9.45458e-05
1.21237e-05
6.63903e-05
0.000563439
0.000710871
2.87379e-07
1.70612e-05
1.44282e-05
1.24224e-05
1.9248e-05
0.00183911
3.44432e-06
0.000671172
0.00181302
0.00178546
0.00167153
0.00180091
0.000956019
2.65589e-06
2.87204e-05
0.00110626
0.00120065
0.00108375
1.97991e-06
3.05207e-05
0.00175406
2.78449e-06
3.67972e-05
5.13941e-06
5.24138e-05
1.48386e-05
1.73452e-06
9.77835e-05
8.20775e-07
0.00429114
0.00220743
9.18801e-06
0.00304099
0.000870125
5.08168e-05
0.00109236
0.000942853
0.000877158
0.000936766
0.00117163
0.00134987
0.00107837
0.000869788
2.09701e-05
0.000189399
1.77779e-05
0.000159221
0.00100878
4.32099e-05
0.000748115
2.93644e-05
2.25145e-07
2.64042e-05
4.64197e-07
0.000449271
0.000335762
4.87466e-05
5.86099e-05
0.0026312
0.00308319
0.000970171
0.00294114
2.44408e-06
3.09361e-06
0.000844961
0.000811438
1.57217e-05
1.258e-05
0.000501802
1.12801e-05
0.00133863
2.92485e-05
2.4749e-05
2.15642e-05
0.000707644
0.00121581
9.27942e-05
9.73357e-05
0.000107209
0.00132702
0.000111832
0.000104814
6.64296e-07
0.000876839
3.68353e-05
3.4321e-07
9.22997e-06
0.00197981
2.22869e-06
2.37642e-05
3.32818e-06
3.00495e-05
1.98897e-06
0.00133586
0.00440601
0.000709028
0.000166381
0.000709297
0.000654941
0.000569028
0.000136284
0.000266658
0.000222505
0.000915561
0.00100144
0.000275823
0.00113337
0.000926992
0.000239482
0.000841342
0.00032157
0.000934139
0.000301113
0.000902746
4.60635e-07
1.01507e-08
6.24516e-06
8.50576e-05
5.83552e-07
7.05146e-05
2.8611e-07
6.99295e-09
2.36301e-07
4.7688e-05
4.45825e-05
0.00085556
6.34347e-05
0.00101809
5.09456e-05
0.00032755
0.00042085
0.000490977
0.0017759
0.000266692
0.000249489
0.000348013
0.000276568
0.00149031
0.00403027
0.00130784
3.69806e-05
0.00249627
0.000495059
0.00371448
0.000593241
0.000386015
6.57293e-05
0.00439
6.38985e-06
1.4974e-05
2.34292e-05
2.11961e-07
5.4535e-05
4.84633e-06
3.62763e-05
6.57703e-07
1.18883e-06
1.86423e-05
0.0014852
7.06427e-05
7.57141e-06
0.00036697
0.000285542
0.000175074
0.000317261
0.000520166
0.000163263
0.000235329
0.000272141
3.32757e-05
5.00788e-06
0.000130403
1.47842e-05
0.000223862
2.77612e-05
0.0022462
0.00190491
0.000191866
3.49499e-07
5.52294e-05
1.34062e-05
0.00144482
4.13e-05
2.76712e-06
4.89664e-05
5.37029e-05
7.63715e-05
7.44145e-05
7.45645e-06
5.59001e-06
2.96017e-05
1.68842e-05
0.000164083
7.43475e-06
0.0023542
0.00216908
0.000164801
1.31738e-05
0.000146264
0.000103401
1.25548e-05
1.73937e-08
0.000209884
1.77933e-06
1.33467e-08
0.00197789
0.000543186
0.0022211
0.00394724
4.23411e-06
0.00205036
0.00206014
0.0021561
0.00190808
0.000459005
1.93116e-05
2.97516e-05
0.00035528
2.56739e-06
1.89668e-06
1.89196e-06
1.29797e-06
9.00543e-07
7.15915e-08
0.00316077
0.00301689
0.00206781
0.00207712
0.00378304
0.00298217
0.00092745
0.00346341
0.00107052
0.00318228
0.000925078
0.00303247
0.000105725
0.00203646
0.00248148
0.00218941
0.00205373
0.0011587
0.00123286
0.000909924
3.16682e-05
0.000118199
0.000111843
2.67264e-05
9.10301e-05
0.000140691
0.00015258
0.000707421
3.35163e-07
4.09709e-07
0.000316707
4.36722e-07
2.94497e-07
0.000465912
2.63122e-06
2.72468e-08
1.88866e-08
1.09153e-08
2.01832e-05
0.00014829
8.0487e-06
9.02756e-07
1.34929e-05
1.50036e-05
1.2638e-05
9.85585e-06
0.00107547
0.000361542
0.000991475
0.00095717
5.08926e-05
1.47483e-06
1.43721e-06
0.000871526
2.68526e-05
3.36064e-05
3.97716e-05
6.05021e-08
0.000194319
0.000189887
0.00037592
0.000472834
0.000500678
0.000891908
0.00112314
0.00097418
0.000911294
2.54164e-06
1.8319e-05
1.47597e-05
1.25063e-05
1.32956e-05
1.16803e-05
3.66562e-06
0.000877242
0.0026612
0.00250672
0.00269361
0.000131772
3.34147e-05
3.14468e-06
5.4851e-05
0.004732
0.00485628
0.000518064
0.00067011
0.000568171
0.000530968
7.6407e-07
9.57476e-07
8.72179e-07
0.000312889
0.000162465
0.000143964
0.000947196
0.000170302
0.000206511
0.000343492
0.000253035
1.88809e-05
2.78014e-05
6.40971e-06
7.95104e-06
6.07133e-06
3.6764e-05
4.43224e-06
2.98275e-05
3.17268e-05
0.000125152
0.000122648
0.000153984
0.000160741
0.000586686
0.000905451
2.89182e-05
2.53387e-05
2.24251e-05
1.81955e-05
0.000605384
0.000802682
0.000939583
3.28249e-06
0.00113924
6.3794e-05
1.16043e-05
5.25659e-05
4.85931e-05
1.28346e-08
0.000265548
1.22365e-05
1.44011e-05
9.00348e-06
0.000706621
0.000183164
6.96873e-06
7.00325e-07
7.76835e-05
9.09087e-06
6.25527e-05
6.88723e-06
5.79981e-05
2.45491e-05
2.19207e-05
2.20935e-05
1.89572e-05
0.00015075
0.000335293
0.000331354
0.000890119
0.000487493
1.55605e-05
3.8974e-05
0.000362189
1.21123e-05
0.000647413
0.000808617
0.000119735
3.4037e-05
0.000117349
2.02607e-05
0.000102739
0.00145864
0.00115737
0.00113381
0.00152159
0.00110046
0.000747635
0.000751944
8.97801e-05
0.000691682
0.000589918
1.07318e-07
9.41243e-06
0.000152555
8.42949e-06
8.73823e-06
8.02443e-05
0.000437331
6.59589e-05
0.000912456
8.10749e-07
6.01782e-07
5.83171e-08
4.82618e-06
9.56456e-08
7.76895e-08
5.03697e-08
0.000250038
0.000250086
2.19671e-05
0.000186851
0.00018186
0.000554237
0.000445859
4.66065e-05
0.00142382
0.00428286
0.000125988
0.00123236
0.00156947
0.001446
0.00144287
0.000121973
0.000952765
0.00111531
0.000994112
0.00011445
7.17554e-06
9.515e-06
8.49014e-06
5.69435e-06
4.11929e-06
0.000599755
0.000883974
0.000741507
0.000723233
6.78087e-06
5.98757e-06
0.000303009
1.05253e-05
5.6089e-06
0.00443696
0.00113096
0.00541078
0.00504848
0.00498082
0.00248744
0.00263838
0.00246863
0.00227393
0.000691462
0.000151914
0.000147938
2.28883e-05
1.60098e-05
7.87138e-06
2.99096e-06
2.95035e-05
3.4032e-06
0.00135132
6.99388e-05
5.59902e-05
0.000142234
0.000793673
2.83292e-05
1.21064e-05
8.36766e-06
1.07626e-06
3.01658e-05
0.000204001
0.000775475
0.000172931
0.000112661
0.000239107
0.000245775
0.000299198
0.000537072
0.000539581
1.07347e-05
0.000400553
0.000298449
2.87352e-05
2.09387e-05
2.65954e-05
0.000373028
0.000436288
0.000704391
0.000782348
0.000420408
0.00177494
0.000517058
0.000144459
0.00175015
0.00192947
0.00164911
7.79752e-06
9.89331e-06
0.00357916
0.0033054
0.0031795
0.00294456
1.90973e-07
2.57223e-07
0.00280553
0.00256771
0.00223444
0.00011152
8.17785e-05
6.21877e-05
0.000510185
0.000444695
0.000531497
0.000621185
3.68831e-07
4.08819e-07
5.47393e-05
7.227e-05
6.69264e-05
7.5806e-05
0.00293911
0.00275475
0.00321694
9.45435e-05
0.00132038
1.30262e-07
8.762e-08
5.14998e-08
7.2969e-06
4.224e-05
4.29501e-05
3.88754e-05
3.21249e-05
1.24311e-08
1.49322e-08
0.000643865
8.37418e-05
5.07118e-06
2.64969e-05
2.56218e-05
1.63443e-06
8.85184e-07
1.37214e-05
4.08292e-05
0.00082461
0.00084741
0.000681739
0.000132802
0.000100409
0.000283534
0.000231008
1.06282e-05
0.000110893
0.000154752
0.000222655
0.000386984
0.00162658
9.27391e-05
0.000102117
8.62429e-05
0.000188664
0.00018249
0.00196548
0.00239624
0.00023546
0.000220296
0.00148438
2.60101e-05
2.04311e-05
0.00168891
0.00125517
0.00154742
0.00138284
0.00132331
0.000273241
5.22104e-05
4.8471e-05
3.88743e-05
0.00131896
0.0015355
0.0012341
0.00111212
0.00117757
1.14669e-05
0.000263798
0.000239487
0.00279408
0.000194572
0.000476305
0.000388141
0.000187286
3.25795e-05
0.0011444
0.000312041
0.000389567
0.000470423
0.00211951
0.00253085
0.000336004
0.00256917
0.00353683
6.17433e-06
4.4702e-06
0.000531021
0.000324259
0.000489189
2.3213e-05
1.68911e-05
0.00101144
3.06195e-08
3.2604e-08
2.35685e-08
1.38741e-08
0.000664299
0.000626799
0.000775377
0.000748292
0.000901594
0.000100638
7.97191e-05
8.27949e-05
5.71536e-06
4.84725e-06
4.82562e-06
8.59463e-05
0.000111454
0.000111013
1.01366e-06