# vtk DataFile Version 2.0
Unstructured Grid by M++
ASCII
DATASET UNSTRUCTURED_GRID
POINTS 4072 float
  0.828125   0.890625 0
  0.875000   0.531250 0
  0.828125   0.750000 0
  0.593750   0.968750 0
  0.828125   0.671875 0
  0.828125   0.875000 0
  0.593750   0.937500 0
  0.828125   0.656250 0
  0.828125   0.640625 0
  0.828125   0.843750 0
  0.593750   0.906250 0
  0.828125   0.625000 0
  0.781250   0.968750 0
  0.828125   0.609375 0
  0.828125   0.812500 0
  0.593750   0.875000 0
  0.593750   0.828125 0
  0.593750   0.796875 0
  0.828125   0.703125 0
  0.593750   0.765625 0
  0.828125   0.937500 0
  0.812500   0.875000 0
  0.859375   0.515625 0
  0.812500   0.734375 0
  0.812500   0.937500 0
  0.578125   1.000000 0
  0.578125   0.750000 0
  0.812500   0.687500 0
  0.578125   0.953125 0
  0.812500   0.656250 0
  0.812500   0.859375 0
  0.578125   0.921875 0
  0.812500   0.828125 0
  0.578125   0.890625 0
  0.812500   0.593750 0
  0.812500   0.796875 0
  0.578125   0.859375 0
  0.578125   0.812500 0
  0.578125   0.781250 0
  0.796875   1.000000 0
  0.796875   0.859375 0
  0.796875   0.718750 0
  0.562500   0.984375 0
  0.562500   0.937500 0
  0.796875   0.843750 0
  0.562500   0.906250 0
  0.796875   0.812500 0
  0.562500   0.875000 0
  0.796875   0.578125 0
  0.796875   0.781250 0
  0.562500   0.843750 0
  0.812500   0.984375 0
  0.562500   0.796875 0
  0.812500   0.953125 0
  0.562500   0.765625 0
  0.796875   0.937500 0
  0.546875   0.750000 0
  0.781250   0.984375 0
  0.828125   0.593750 0
  0.781250   0.843750 0
  0.781250   0.937500 0
  0.546875   1.000000 0
  0.781250   0.703125 0
  0.546875   0.968750 0
  0.546875   0.921875 0
  0.781250   0.828125 0
  0.546875   0.890625 0
  0.781250   0.796875 0
  0.546875   0.859375 0
  0.781250   0.562500 0
  0.781250   0.765625 0
  0.546875   0.828125 0
  0.796875   0.968750 0
  0.546875   0.781250 0
  0.765625   1.000000 0
  0.765625   0.968750 0
  0.531250   0.984375 0
  0.765625   0.687500 0
  0.531250   0.953125 0
  0.531250   0.937500 0
  0.531250   0.906250 0
  0.765625   0.812500 0
  0.531250   0.875000 0
  0.765625   0.781250 0
  0.531250   0.843750 0
  0.781250   1.000000 0
  0.765625   0.546875 0
  0.765625   0.750000 0
  0.531250   0.812500 0
  0.781250   0.953125 0
  0.531250   0.765625 0
  0.515625   0.750000 0
  0.750000   0.984375 0
  0.750000   0.953125 0
  0.796875   0.593750 0
  0.796875   0.562500 0
  0.750000   0.843750 0
  0.750000   0.937500 0
  0.515625   1.000000 0
  0.750000   0.906250 0
  0.515625   0.968750 0
  0.750000   0.671875 0
  0.750000   0.875000 0
  0.515625   0.937500 0
  0.515625   0.921875 0
  0.515625   0.890625 0
  0.750000   0.796875 0
  0.515625   0.859375 0
  0.750000   0.765625 0
  0.515625   0.828125 0
  1.000000   0.718750 0
  0.750000   0.531250 0
  0.750000   0.734375 0
  0.515625   0.796875 0
  0.734375   1.000000 0
  0.734375   0.968750 0
  0.734375   0.937500 0
  0.781250   0.578125 0
  0.781250   0.546875 0
  0.968750   0.578125 0
  0.734375   0.828125 0
  0.968750   0.546875 0
  0.734375   0.796875 0
  0.734375   0.765625 0
  0.968750   0.671875 0
  0.734375   0.734375 0
  0.968750   0.640625 0
  0.734375   0.703125 0
  0.968750   0.609375 0
  0.734375   0.671875 0
  0.734375   0.656250 0
  0.734375   0.625000 0
  0.968750   0.531250 0
  0.734375   0.593750 0
  0.984375   0.734375 0
  0.984375   0.703125 0
  0.734375   0.515625 0
  0.718750   0.984375 0
  0.718750   0.953125 0
  0.718750   0.921875 0
  0.953125   0.562500 0
  0.718750   0.812500 0
  0.953125   0.531250 0
  0.718750   0.781250 0
  0.718750   0.750000 0
  0.953125   0.656250 0
  0.718750   0.718750 0
  0.953125   0.625000 0
  0.718750   0.687500 0
  0.953125   0.593750 0
  0.718750   0.656250 0
  0.671875   1.000000 0
  0.718750   0.640625 0
  0.718750   0.609375 0
  0.953125   0.515625 0
  0.718750   0.578125 0
  0.968750   0.718750 0
  0.968750   0.687500 0
  0.953125   0.671875 0
  0.703125   0.968750 0
  0.703125   0.937500 0
  0.937500   0.656250 0
  0.703125   0.906250 0
  0.937500   0.546875 0
  0.703125   0.796875 0
  0.937500   0.515625 0
  0.703125   0.765625 0
  0.937500   0.671875 0
  0.703125   0.734375 0
  0.937500   0.640625 0
  0.703125   0.703125 0
  0.937500   0.609375 0
  0.703125   0.671875 0
  0.937500   0.578125 0
  0.703125   0.640625 0
  0.656250   0.984375 0
  0.703125   0.625000 0
  0.703125   0.593750 0
  0.718750   0.796875 0
  0.953125   0.734375 0
  0.812500   1.000000 0
  0.859375   0.656250 0
  0.703125   0.781250 0
  0.937500   0.718750 0
  0.953125   0.703125 0
  0.796875   0.984375 0
  0.843750   0.640625 0
  0.812500   0.968750 0
  0.859375   0.625000 0
  0.796875   0.953125 0
  0.843750   0.609375 0
  0.687500   0.953125 0
  0.687500   0.921875 0
  0.687500   0.890625 0
  0.921875   0.734375 0
  0.687500   0.796875 0
  0.687500   0.781250 0
  0.921875   0.703125 0
  0.687500   0.765625 0
  0.687500   0.750000 0
  0.921875   0.656250 0
  0.687500   0.718750 0
  0.921875   0.625000 0
  0.687500   0.687500 0
  0.921875   0.593750 0
  0.687500   0.656250 0
  0.640625   1.000000 0
  0.921875   0.562500 0
  0.687500   0.625000 0
  0.640625   0.968750 0
  0.687500   0.609375 0
  0.687500   0.578125 0
  0.937500   0.687500 0
  0.921875   0.671875 0
  0.671875   0.921875 0
  0.906250   0.656250 0
  0.671875   0.906250 0
  0.671875   0.875000 0
  0.906250   0.718750 0
  0.671875   0.781250 0
  0.671875   0.765625 0
  0.671875   0.734375 0
  0.906250   0.640625 0
  0.671875   0.703125 0
  0.906250   0.609375 0
  0.671875   0.671875 0
  0.906250   0.578125 0
  0.671875   0.640625 0
  0.625000   0.984375 0
  0.671875   0.609375 0
  0.625000   0.953125 0
  0.671875   0.593750 0
  0.671875   0.562500 0
  0.765625   0.953125 0
  0.812500   0.609375 0
  0.656250   1.000000 0
  0.656250   0.953125 0
  0.656250   0.906250 0
  0.890625   0.640625 0
  0.656250   0.890625 0
  0.656250   0.859375 0
  0.890625   0.734375 0
  0.656250   0.796875 0
  0.812500   0.921875 0
  0.562500   1.000000 0
  0.625000   0.828125 0
  0.812500   0.843750 0
  0.843750   0.593750 0
  0.812500   0.812500 0
  0.625000   0.718750 0
  0.828125   0.687500 0
  0.640625   0.593750 0
  0.812500   0.781250 0
  0.625000   0.687500 0
  0.765625   0.828125 0
  0.640625   0.562500 0
  0.812500   0.750000 0
  0.562500   0.828125 0
  0.781250   0.875000 0
  0.546875   0.937500 0
  0.781250   0.671875 0
  0.781250   0.593750 0
  0.546875   0.656250 0
  0.796875   0.750000 0
  0.562500   0.812500 0
  0.796875   0.546875 0
  0.765625   0.796875 0
  0.765625   0.593750 0
  1.000000   0.531250 0
  0.812500   0.718750 0
  0.859375   0.562500 0
  0.625000   0.625000 0
  0.812500   0.703125 0
  0.812500   0.906250 0
  0.578125   0.968750 0
  0.984375   0.593750 0
  0.828125   0.578125 0
  0.828125   0.781250 0
  0.593750   0.843750 0
  0.812500   0.671875 0
  0.625000   0.578125 0
  0.796875   0.671875 0
  0.562500   0.734375 0
  0.984375   0.562500 0
  0.828125   0.546875 0
  0.812500   0.640625 0
  0.750000   0.812500 0
  0.625000   0.546875 0
  0.796875   0.640625 0
  0.562500   0.703125 0
  0.828125   0.515625 0
  0.781250   0.734375 0
  0.546875   0.796875 0
  0.781250   0.531250 0
  0.750000   0.781250 0
  0.625000   0.515625 0
  0.796875   0.609375 0
  0.562500   0.671875 0
  0.765625   0.656250 0
  0.765625   0.859375 0
  0.531250   0.921875 0
  0.812500   0.578125 0
  0.562500   0.656250 0
  0.984375   0.687500 0
  0.750000   0.750000 0
  0.812500   0.562500 0
  0.812500   0.765625 0
  0.578125   0.828125 0
  0.562500   0.625000 0
  0.984375   0.656250 0
  0.750000   0.718750 0
  0.812500   0.531250 0
  0.781250   0.656250 0
  0.546875   0.718750 0
  0.781250   0.625000 0
  0.546875   0.687500 0
  0.750000   0.640625 0
  0.796875   0.531250 0
  0.562500   0.593750 0
  0.984375   0.625000 0
  0.750000   0.687500 0
  0.546875   0.984375 0
  0.609375   0.812500 0
  0.796875   0.875000 0
  0.546875   0.953125 0
  0.609375   0.578125 0
  0.843750   0.515625 0
  0.765625   0.515625 0
  0.765625   0.718750 0
  0.531250   0.781250 0
  0.984375   0.546875 0
  0.750000   0.609375 0
  0.796875   0.828125 0
  0.671875   0.968750 0
  0.796875   0.796875 0
  0.796875   0.765625 0
  0.609375   0.671875 0
  0.796875   0.734375 0
  0.546875   0.812500 0
  0.796875   0.703125 0
  0.843750   0.546875 0
  0.609375   0.609375 0
  0.796875   0.687500 0
  0.562500   0.953125 0
  0.796875   0.656250 0
  0.609375   0.562500 0
  0.796875   0.625000 0
  0.609375   0.531250 0
  0.546875   0.640625 0
  0.765625   0.671875 0
  0.531250   0.734375 0
  0.796875   0.515625 0
  0.765625   0.640625 0
  0.531250   0.703125 0
  0.703125   1.000000 0
  0.765625   0.609375 0
  0.531250   0.671875 0
  0.765625   0.578125 0
  0.531250   0.640625 0
  0.546875   0.609375 0
  0.531250   1.000000 0
  0.890625   0.593750 0
  0.656250   0.656250 0
  0.781250   0.515625 0
  0.546875   0.578125 0
  0.531250   0.968750 0
  0.890625   0.562500 0
  0.656250   0.625000 0
  0.609375   0.968750 0
  0.781250   0.859375 0
  0.656250   0.593750 0
  0.750000   0.703125 0
  0.515625   0.765625 0
  0.781250   0.812500 0
  0.781250   0.781250 0
  0.593750   0.687500 0
  0.781250   0.750000 0
  0.593750   0.656250 0
  0.781250   0.718750 0
  0.531250   0.796875 0
  0.828125   0.562500 0
  0.593750   0.625000 0
  0.781250   0.687500 0
  0.828125   0.531250 0
  0.593750   0.593750 0
  0.812500   0.625000 0
  0.578125   0.687500 0
  0.781250   0.640625 0
  0.781250   0.609375 0
  0.593750   0.515625 0
  0.515625   0.781250 0
  0.812500   0.546875 0
  0.578125   0.609375 0
  0.812500   0.515625 0
  0.578125   0.578125 0
  0.750000   0.656250 0
  0.515625   0.718750 0
  0.750000   0.625000 0
  0.515625   0.687500 0
  0.687500   0.984375 0
  0.750000   0.593750 0
  0.515625   0.656250 0
  0.531250   0.546875 0
  0.750000   0.562500 0
  0.515625   0.625000 0
  0.531250   0.515625 0
  0.984375   0.515625 0
  0.750000   0.578125 0
  0.515625   0.531250 0
  0.828125   0.796875 0
  0.640625   0.703125 0
  0.828125   0.765625 0
[...]
CELL_DATA 7648
SCALARS scalar_value float 1
LOOKUP_TABLE default
0.00031657
0.000345685
1.52027e-06
1.24411e-06
1.38414e-06
9.52025e-07
2.83318e-08
3.35961e-08
3.72394e-08
3.63017e-08
2.57344e-07
3.63176e-07
4.81342e-07
3.62058e-07
5.70396e-07
6.04277e-07
7.25686e-07
4.87094e-07
4.63517e-05
5.98388e-05
4.54114e-05
5.13738e-05
6.07849e-05
6.64854e-05
0.000202545
0.000219168
0.000252253
0.000205172
0.000306797
0.000325496
0.000355272
0.00030897
4.23524e-09
5.9443e-09
1.19241e-08
3.961e-09
1.03735e-06
8.53683e-07
0.0003609
0.000353221
1.00909e-06
1.10339e-06
0.000355158
0.000365691
2.23567e-08
3.54689e-08
2.9265e-08
6.16018e-08
4.01942e-08
7.33241e-08
6.35807e-08
1.31942e-07
1.58849e-07
2.4286e-07
2.2538e-07
3.53519e-07
2.5909e-05
2.69179e-05
3.55181e-05
3.03583e-05
3.66597e-05
4.0851e-05
1.26445e-07
1.77896e-07
2.09844e-07
2.42607e-07
3.31283e-07
5.08579e-07
4.17249e-07
2.95426e-07
2.78397e-07
3.25797e-07
2.04177e-07
3.97349e-05
0.000284365
5.09634e-07
3.73294e-07
4.0663e-07
2.65156e-07
9.60106e-07
7.34569e-07
5.54617e-07
6.844e-07
1.43259e-06
1.14822e-06
1.22162e-06
8.97304e-07
0.000201101
0.00023455
0.000258076
3.03362e-09
5.00038e-09
6.89238e-09
6.65635e-09
1.09579e-08
1.33428e-08
2.09684e-08
1.04504e-08
2.37662e-08
3.25299e-08
2.80612e-08
1.3908e-08
2.18766e-08
3.01629e-08
6.56745e-05
5.11275e-10
5.19224e-10
1.23698e-09
9.84238e-06
1.01962e-05
1.09391e-05
9.52694e-06
1.75785e-08
2.11872e-08
3.51922e-08
1.43149e-08
1.25216e-08
2.43971e-08
1.27435e-08
8.28764e-08
1.02201e-07
1.0661e-07
1.18295e-07
1.48543e-07
1.51788e-07
1.3085e-07
1.89168e-07
7.41563e-06
7.78355e-06
9.16006e-06
6.65134e-06
7.98757e-07
9.09906e-07
1.17681e-06
8.23626e-07
2.34125e-08
2.65592e-08
2.44296e-08
3.20622e-08
5.13719e-07
9.31121e-06
9.93259e-06
8.06367e-07
1.05776e-06
1.14285e-06
1.47652e-06
1.95806e-06
1.53374e-06
2.83158e-05
3.4488e-05
3.85915e-05
5.32016e-05
5.76835e-05
6.69655e-05
5.34621e-05
3.31316e-05
3.45988e-05
4.07693e-05
2.86606e-05
1.56274e-08
2.61634e-08
8.08309e-07
8.808e-07
1.12988e-06
7.01755e-07
0.000126531
6.06407e-07
6.69577e-07
8.88723e-07
5.28594e-07
0.000251225
0.000231602
0.000240614
0.000203587
2.8194e-08
3.34416e-08
7.2666e-08
8.40318e-08
1.19014e-07
6.69834e-08
1.36751e-07
1.08051e-07
1.24042e-07
7.69232e-08
9.02316e-05
0.000105183
0.000112281
0.000114075
0.000143701
0.000166996
0.000179221
0.000502959
0.000627145
6.08246e-08
6.97053e-08
9.82952e-08
5.42263e-08
0.000178044
0.000194895
0.000226119
0.000187058
1.4358e-08
1.8657e-08
2.13036e-08
2.14609e-08
9.85881e-09
1.24614e-08
2.83793e-08
3.36543e-08
4.81775e-08
2.8634e-08
3.31167e-08
4.92747e-08
6.39513e-08
6.12185e-08
3.34715e-08
4.65938e-08
5.76786e-08
5.47472e-08
6.55827e-07
8.25993e-07
7.65684e-07
1.04074e-06
8.05827e-07
7.64799e-07
1.11392e-06
2.6916e-07
3.13077e-07
3.52615e-07
2.84338e-07
2.64474e-08
3.07564e-08
2.9369e-08
3.46655e-08
9.69892e-07
1.06255e-06
1.38515e-06
8.55195e-07
4.28402e-08
4.63635e-08
4.25083e-08
5.36365e-08
1.96665e-06
2.16329e-06
2.78974e-06
1.7924e-06
0.00037239
0.000380637
7.71662e-05
9.12443e-05
0.000100703
0.000106011
0.000113985
0.000120613
0.000125636
0.000113284
0.000108483
9.81746e-05
0.000110804
3.47306e-07
3.99466e-07
5.3262e-07
3.53707e-07
4.29476e-07
5.79094e-07
7.34563e-07
6.45686e-07
4.21421e-07
5.46066e-07
6.09304e-07
6.44884e-07
1.47537e-06
1.53094e-06
1.91163e-06
2.1072e-06
2.22947e-06
2.56995e-06
1.95516e-06
4.95282e-05
5.91569e-05
6.48891e-05
9.08632e-05
0.000105879
8.30847e-05
0.000132938
0.000166475
0.000130361
7.89742e-05
9.92193e-05
7.24327e-05
0.000293487
0.00030795
0.000336875
0.0002847
2.20617e-05
2.528e-05
3.03217e-07
2.39044e-07
6.44003e-10
2.41301e-07
1.94743e-09
2.37834e-05
8.46023e-06
1.56728e-08
1.85752e-08
8.77655e-07
3.20509e-08
1.64356e-08
4.35873e-08
1.21418e-06
4.23089e-08
1.82689e-06
4.33673e-07
1.33656e-06
2.27136e-07
2.23164e-07
1.50206e-07
6.93835e-05
5.49169e-05
0.000310416
6.82676e-05
1.91257e-05
2.79336e-05
2.87848e-05
5.30145e-06
5.25927e-05
8.42446e-07
9.73091e-06
2.18066e-06
9.0976e-06
3.18032e-07
3.83243e-07
5.61844e-07
3.52293e-08
4.95464e-08
2.73468e-08
3.02181e-08
1.23733e-08
1.87108e-08
0.000108744
0.000140655
6.47503e-05
0.000200399
8.38444e-05
5.74871e-05
1.93884e-08
6.22276e-09
0.00036226
2.30612e-08
5.20771e-07
3.26072e-07
4.68566e-08
1.92966e-06
1.39435e-08
0.000139968
0.000105666
9.20493e-05
0.000318394
0.00048984
1.29505e-05
3.99652e-06
4.49876e-06
4.34529e-06
2.37093e-05
0.00010194
4.96226e-05
3.46793e-06
4.15049e-06
4.61279e-06
2.43307e-05
0.000249487
0.000364392
0.000365065
0.000150385
1.50581e-09
1.32463e-07
1.81773e-05
1.57893e-05
1.62888e-05
3.08926e-06
2.17185e-05
1.2071e-05
1.18115e-05
0.000188906
0.000214685
0.000166081
8.1546e-06
7.11989e-06
5.79726e-06
2.66897e-05
3.60731e-05
2.97409e-05
5.91403e-05
5.12042e-06
4.77869e-05
2.52009e-05
3.39161e-05
2.52625e-05
9.22929e-06
1.18673e-05
6.96533e-08
3.94845e-06
7.79227e-08
4.32321e-06
2.82256e-05
9.36501e-08
1.37725e-08
5.51644e-06
7.36651e-08
6.64628e-09
3.62228e-06
0.000115978
0.00010037
0.00031612
0.00013572
0.000109113
3.32621e-06
8.11685e-05
0.000271526
4.12429e-08
1.43851e-08
6.29503e-05
0.000212466
4.66385e-06
1.64298e-05
4.3975e-07
2.19744e-06
5.78291e-09
3.48549e-10
3.12916e-10
1.02004e-05
7.47487e-05
9.0546e-08
4.98325e-09
3.81136e-06
8.17853e-06
4.50632e-05
8.81665e-06
1.08669e-05
6.81048e-06
4.6973e-07
8.48368e-06
7.2384e-05
1.55726e-05
1.92448e-05
2.56204e-06
2.6921e-05
2.55141e-05
0.000203832
0.000233047
0.000249985
1.96146e-06
2.16479e-06
6.51535e-06
1.22855e-05
0.000193149
0.000188302
8.35122e-06
5.92008e-08
4.67747e-08
6.14885e-06
4.15984e-06
3.36904e-06
2.04129e-05
5.88788e-05
2.52654e-06
2.44084e-06
2.65492e-06
1.5563e-05
3.35312e-06
2.19376e-06
1.93613e-06
1.71234e-06
1.57463e-06
9.79793e-06
1.46e-08
1.86046e-08
4.54422e-06
0.000620942
0.000101253
9.40451e-05
0.000116768
1.96609e-05
2.08863e-06
5.05857e-07
1.7393e-06
2.31085e-06
4.94322e-06
1.23266e-06
2.90013e-05
2.03802e-05
0.000104599
9.72031e-05
0.000121048
3.06918e-06
3.17738e-06
7.0267e-05
2.28429e-05
2.34961e-05
1.84054e-05
5.73957e-05
2.31406e-07
7.25145e-05
4.05902e-07
2.9063e-06
4.16175e-06
2.49589e-08
5.12284e-06
4.88409e-06
1.02332e-06
1.11276e-05
3.73349e-05
6.56443e-06
5.02965e-05
7.25076e-05
7.78171e-05
0.00024835
5.23961e-05
3.89917e-05
0.000114358
0.000104218
5.7162e-05
0.00058087
0.000317834
0.000122662
8.24296e-06
1.89137e-07
3.11447e-07
8.01288e-08
1.87937e-06
3.60619e-06
0.000565378
3.91372e-05
1.3679e-06
1.08413e-06
6.65275e-05
6.28663e-10
0.000194945
1.94059e-05
5.57634e-05
6.64883e-06
6.85693e-05
8.56888e-06
7.11072e-05
5.28972e-05
6.23638e-05
1.51836e-09
2.72158e-08
0.000119178
3.26931e-08
4.47536e-08
1.14524e-07
1.54098e-07
3.95845e-05
1.80569e-05
2.04934e-08
3.6771e-06
1.98953e-07
2.06718e-05
8.26356e-05
5.66944e-10
6.1477e-10
9.80467e-05
1.46002e-09
3.31807e-06
1.77234e-05
3.90949e-06
1.35416e-06
4.49648e-06
2.6053e-06
1.33459e-05
3.13576e-06
1.72188e-05
2.44649e-06
2.66486e-06
4.388e-07
3.3444e-06
5.98183e-07
2.21121e-06
3.12802e-07
3.35568e-07
3.62417e-06
3.94942e-06
0.000112291
4.52027e-08
5.41732e-08
7.9887e-08
1.47999e-06
4.53435e-08
1.18938e-06
2.77481e-07
5.79068e-07
9.44372e-08
1.71411e-06
3.32027e-07
9.8998e-08
6.09383e-08
1.08034e-06
9.20107e-08
1.05551e-07
1.65589e-08
2.44017e-10
9.38536e-07
5.23397e-08
6.8068e-06
4.50972e-09
7.17986e-09
1.39053e-08
7.10849e-05
3.34744e-06
4.02855e-05
5.41537e-06
2.01496e-05
4.31664e-05
3.02714e-06
5.62579e-06
6.9489e-06
3.99786e-07
1.06371e-05
1.82068e-08
2.02517e-06
1.63636e-05
0.000353728
2.96591e-05
5.88257e-06
1.13726e-08
3.3511e-07
5.73055e-06
1.44822e-06
7.55362e-06
7.62542e-06
1.49296e-07
3.92034e-06
8.32957e-05
1.83771e-06
1.69223e-05
2.10843e-08
2.71383e-05
0.000180295
0.000227119
0.000175903
2.0315e-05
2.21474e-09
0.000148936
0.000214555
6.17242e-05
0.000259371
7.64449e-05
0.000223652
0.000220948
0.000242353
2.56475e-06
3.35685e-06
1.57545e-05
7.79419e-08
4.8036e-06
5.75802e-07
0.000177003
1.20942e-06
0.000643848
1.525e-06
2.26714e-07
1.31163e-06
5.37122e-05
2.83898e-08
4.18063e-07
9.95523e-06
2.00613e-06
0.00033224
0.000394176
0.000135006
5.99531e-07
3.13709e-08
9.06023e-07
5.68918e-08
6.24884e-08
1.14466e-05
1.76356e-07
4.96845e-06
4.75846e-05
2.06224e-06
9.46416e-06
4.86535e-05
1.30509e-05
1.39039e-05
6.71616e-05
7.33317e-10
1.21525e-05
1.02499e-05
4.23808e-07
1.07973e-05
1.00858e-05
1.59194e-05
1.21307e-05
0.000323248
0.000301528
0.000255283
0.00030726
6.90145e-10
0.000196543
3.68047e-06
1.63476e-09
0.000207317
9.34959e-06
3.51445e-09
0.000174457
8.30283e-06
4.7478e-05
1.36078e-07
5.70801e-05
1.32024e-09
4.60535e-05
5.35411e-05
0.000106504
6.57416e-07
6.50755e-05
2.41367e-05
4.18726e-06
1.75193e-06
8.79928e-06
8.4229e-05
7.14989e-06
3.3367e-07
2.39809e-06
2.78338e-10
7.40794e-07
1.87139e-06
1.85113e-05
1.29055e-07
1.49995e-06
0.000133686
0.000203289
7.67554e-05
4.49974e-06
1.72962e-06
2.95702e-05
4.81215e-05
3.59861e-06
1.36281e-06
3.37878e-06
2.96146e-06
9.65018e-07
3.35493e-05
8.80561e-05
4.03243e-07
0.000280278
0.000153757
3.38657e-05
1.04934e-05
5.33652e-05
3.26717e-07
1.34758e-05
1.51795e-05
3.45055e-06
1.81298e-05
1.58947e-05
5.02339e-07
1.70866e-06
1.29112e-05
1.1704e-05
1.80249e-05
3.49541e-07
7.47278e-07
0.000271829
6.47602e-10
8.21608e-05
2.72195e-05
6.04431e-06
2.30678e-05
2.04174e-06
1.82152e-09
9.85494e-08
0.000162949
2.56525e-07
2.62203e-05
1.15866e-07
7.81981e-09
4.69788e-06
6.37971e-06
9.07596e-08
3.03288e-09
3.50587e-06
4.68888e-07
1.31876e-06
7.71532e-06
0.000249913
1.41638e-06
0.0002688
0.000105715
1.85908e-06
9.59474e-06
7.57917e-05
9.12879e-06
1.53174e-06
1.79346e-06
0.000304817
0.000124649
1.03116e-05
9.22896e-06
1.26458e-08
6.67666e-05
4.31582e-06
1.34889e-05
1.42969e-08
0.000178684
7.77968e-06
6.42731e-07
1.14243e-05
1.72382e-06
4.67019e-07
0.00050377
6.4502e-07
7.12502e-06
6.63207e-06
4.35004e-05
4.40155e-08
0.000103349
2.35931e-05
8.9563e-08
0.000160616
5.6449e-08
2.44497e-06
7.55414e-10
2.58724e-05
0.000217318
1.28328e-06
2.04511e-05
0.000209638
2.18443e-06
3.23884e-05
4.41118e-05
5.13123e-06
6.72286e-07
2.10696e-05
3.82154e-06
1.26462e-08
1.59424e-07
3.08418e-09
4.63528e-06
3.22179e-06
7.78385e-06
0.000352469
3.07317e-06
7.19852e-06
1.58062e-07
0.000588526
9.67067e-05
3.73728e-05
0.000167707
1.96266e-07
1.35358e-05
1.11204e-05
8.67167e-08
7.40819e-07
1.56433e-05
2.17874e-05
2.02095e-05
6.77648e-06
2.88102e-05
2.90917e-06
3.93707e-05
2.20135e-05
3.94261e-06
0.000195676
1.51181e-05
1.48426e-05
6.33222e-08
6.55548e-08
1.92811e-05
4.98655e-07
1.89324e-07
1.12796e-06
4.15005e-10
1.21961e-05
2.17281e-06
1.84227e-07
4.30722e-06
6.84178e-05
1.31404e-08
1.65263e-08
2.97721e-05
4.57805e-08
1.50722e-05
1.48266e-07
3.86366e-06
1.11306e-06
5.01223e-06
2.89461e-05
1.75826e-07
1.47984e-05
9.16835e-08
4.0894e-06
3.19243e-06
1.55386e-08
1.26002e-05
0.00011406
0.000183255
5.52637e-06
1.42512e-05
1.35228e-07
2.0692e-06
1.41012e-05
0.000152272
0.00035333
0.000164096
2.93776e-05
1.30938e-05
0.000250461
2.75686e-07
8.13756e-09
3.13997e-07
1.04445e-07
4.96795e-07
0.000318213
6.75521e-07
5.58249e-05
9.56527e-05
3.77183e-06
5.51134e-06
3.50337e-09
9.46605e-07
1.3476e-06
1.03498e-05
1.09693e-06
1.96746e-05
1.71726e-05
8.83548e-07
1.75682e-07
1.43251e-05
5.92621e-05
0.000328272
0.000163097
1.62015e-05
0.000516461
0.000104019
4.27139e-05
1.80926e-05
1.55178e-08
1.2905e-07
1.73623e-08
1.15909e-05
2.8637e-07
9.81799e-05
0.000367978
4.72077e-06
1.73406e-05
0.000156886
3.13127e-05
1.73391e-05
6.88114e-05
0.00010989
3.83955e-05
0.000345487
6.83901e-06
1.55657e-06
9.40971e-06
6.77052e-05
3.29764e-07
2.82162e-06
0.00016513
4.21318e-05
2.48464e-07
6.09996e-09
1.0245e-05
4.16741e-05
1.92147e-05
3.21017e-07
2.75651e-06
1.92581e-05
2.91553e-06
1.13268e-07
1.73357e-09
9.27084e-06
1.47656e-05
1.07648e-06
2.80806e-06
2.73923e-05
2.47656e-06
7.12023e-07
2.68539e-06
2.02147e-05
0.000178823
5.60081e-06
1.2136e-07
0.000400102
5.06483e-06
3.7539e-05
2.97582e-06
4.04596e-06
3.18633e-05
1.3882e-05
9.65278e-07
2.47458e-08
2.1381e-08
5.3214e-06
5.253e-07
2.67419e-06
0.000222041
4.59781e-05
0.000221298
0.000244051
2.20315e-07
2.96837e-07
1.73369e-07
0.000266073
1.20909e-06
0.00016701
5.40561e-07
1.84283e-06
7.25307e-07
8.38998e-05
8.58022e-06
4.87694e-07
0.000191468
1.01859e-06
0.000188174
2.33684e-06
4.07313e-07
4.07913e-07
1.83507e-06
0.000217087
1.53954e-08
0.000191061
1.53242e-05
1.21778e-06
1.78176e-05
1.15008e-07
4.27672e-06
1.20949e-06
1.16705e-05
4.35639e-05
3.74197e-05
2.33224e-05
0.000558659
0.00031926
0.000243103
5.12205e-06
0.000125052
8.55867e-08
5.43068e-05
4.59528e-06
4.92621e-06
7.45079e-05
0.0003659
5.6512e-06
2.01088e-06
5.67956e-06
6.44512e-05
0.000350657
0.000143034
1.58395e-06
1.34736e-06
1.06083e-06
1.53144e-06
1.93175e-06
1.78298e-07
1.64184e-06
5.99972e-08
1.17142e-07
1.00729e-05
6.23483e-06
7.98783e-10
0.000155224
8.29361e-05
1.1584e-05
7.85684e-07
7.7929e-06
5.07187e-05
9.10002e-05
2.4585e-08
8.86135e-07
7.34501e-07
8.54227e-07
9.99987e-07
0.000242811
2.98817e-07
5.24885e-05
0.000168649
0.000172168
0.000158517
0.000170283
8.31307e-05
2.16111e-07
1.74034e-06
9.7869e-05
0.000105781
0.000100654
1.74779e-07
2.06213e-06
0.00024067
2.47512e-07
2.48894e-06
4.5421e-07
3.50551e-06
7.5015e-07
9.92583e-08
1.19552e-05
4.28625e-08
0.000476775
0.000213275
6.19535e-07
0.000323573
7.81988e-05
2.94407e-06
9.88595e-05
8.39245e-05
7.67917e-05
8.5654e-05
0.000107836
0.000126401
0.000103032
8.04921e-05
1.09177e-06
2.05025e-05
9.11335e-07
1.70923e-05
8.34633e-05
2.7635e-06
5.81287e-05
2.44401e-06
9.85944e-09
2.25084e-06
2.04405e-08
3.26556e-05
2.34366e-05
2.74635e-06
3.33959e-06
0.000267129
0.000322518
0.000144869
0.000303815
2.10721e-07
2.78424e-07
0.000161734
0.000153146
8.00584e-07
6.27417e-07
3.77202e-05
5.60921e-07
0.000128575
1.56381e-06
1.30454e-06
1.12476e-06
7.67611e-05
0.000105289
1.10198e-05
1.15209e-05
1.31302e-05
0.000131007
1.37064e-05
1.26138e-05
5.33141e-08
9.79228e-05
3.97531e-06
2.69909e-08
5.24965e-07
0.000190491
1.75439e-07
1.38644e-06
2.63252e-07
1.77401e-06
1.65066e-07
0.000159263
0.000486813
0.000133472
1.06482e-05
0.000131348
0.000121202
0.000102724
8.48399e-06
1.81309e-05
1.4762e-05
0.000172092
0.000192315
1.89052e-05
0.000212989
0.000183704
1.59866e-05
0.000163561
2.23326e-05
0.000182702
2.07852e-05
0.000177585
2.11752e-08
4.60725e-10
3.44256e-07
9.98346e-06
2.8311e-08
8.24163e-06
1.35329e-08
3.81918e-10
1.06301e-08
4.11814e-06
2.47764e-06
6.77079e-05
3.65947e-06
8.32933e-05
2.91063e-06
3.52957e-05
4.64917e-05
5.30799e-05
0.000160581
2.89638e-05
2.75694e-05
3.87162e-05
3.09036e-05
0.000131688
0.000444995
0.000132842
2.56415e-06
0.000253156
5.76747e-05
0.000405755
4.94832e-05
3.34297e-05
4.57796e-06
0.000491923
3.45382e-07
8.6395e-07
2.51821e-06
9.18701e-09
5.95301e-06
3.79659e-07
2.13548e-06
2.65749e-08
9.70822e-08
1.12301e-06
0.000133144
4.11161e-06
4.97906e-07
4.22281e-05
3.13857e-05
1.17942e-05
2.29491e-05
3.89265e-05
1.14423e-05
2.03569e-05
2.4009e-05
2.74318e-06
2.94903e-07
1.31532e-05
1.03797e-06
1.51846e-05
1.84879e-06
0.000326661
0.000276221
1.24398e-05
2.97164e-08
3.23324e-06
1.22194e-06
0.000137621
2.87616e-06
2.55198e-07
3.42178e-06
3.71615e-06
5.27001e-06
5.34342e-06
5.55945e-07
4.10753e-07
1.64582e-06
1.76799e-06
1.11974e-05
6.70613e-07
0.000328891
0.000216704
1.29732e-05
1.3354e-06
9.17649e-06
6.24046e-06
6.25531e-07
1.30559e-09
2.29364e-05
8.625e-08
6.37425e-10
0.000292719
4.57669e-05
0.000317584
0.000428892
3.83919e-07
0.000290677
0.000326635
0.000327308
0.000295201
3.81103e-05
1.12916e-06
1.60978e-06
2.77885e-05
1.6641e-07
1.14959e-07
1.18527e-07
7.96211e-08
4.20975e-08
5.25299e-09
0.000368066
0.000356427
0.000196696
0.000195558
0.000400063
0.000304554
0.000128247
0.000360694
0.000145535
0.000326626
0.000123879
0.000308025
6.55308e-06
0.000200158
0.000248234
0.000214697
0.000198212
0.000147315
0.000151423
0.000111159
3.43501e-06
7.26801e-06
6.80743e-06
2.01893e-06
5.44667e-06
8.98873e-06
9.73527e-06
5.43957e-05
1.51053e-08
1.82536e-08
2.20568e-05
1.87276e-08
1.24924e-08
3.42762e-05
1.29673e-07
1.92132e-09
1.33373e-09
7.40494e-10
1.42345e-06
9.37604e-06
3.98559e-07
7.12061e-08
7.16232e-07
7.86431e-07
6.65228e-07
5.14158e-07
8.69891e-05
3.59586e-05
7.92946e-05
7.63759e-05
2.92383e-06
8.61271e-08
7.97014e-08
6.8575e-05
1.54723e-06
1.95823e-06
2.31029e-06
4.52753e-09
1.97031e-05
1.84196e-05
5.57122e-05
7.24291e-05
7.58704e-05
7.63564e-05
9.74552e-05
8.30569e-05
7.65785e-05
1.49879e-07
9.44481e-07
7.6111e-07
6.31771e-07
6.78918e-07
5.93019e-07
1.92764e-07
6.90795e-05
0.0002666
0.000247586
0.000267696
8.16669e-06
1.80741e-06
1.4145e-07
3.85923e-06
0.000535996
0.00055326
9.16482e-05
0.00012203
0.000100938
9.25956e-05
4.15552e-08
5.40461e-08
5.06742e-08
2.16604e-05
1.68549e-05
1.53345e-05
7.74079e-05
1.79184e-05
2.19312e-05
2.40914e-05
1.70024e-05
1.63377e-06
2.40396e-06
4.92576e-07
5.98707e-07
4.62275e-07
2.11423e-06
3.36131e-07
1.69714e-06
2.06806e-06
7.74845e-06
1.10635e-05
1.42068e-05
1.46904e-05
4.4108e-05
7.14956e-05
1.55175e-06
1.37557e-06
1.22321e-06
9.83343e-07
9.4553e-05
0.000124522
0.000147425
1.73879e-07
9.38137e-05
3.83098e-06
9.06655e-07
3.11977e-06
2.85425e-06
5.40031e-10
1.8104e-05
9.64367e-07
1.11333e-06
7.00811e-07
5.45922e-05
1.21929e-05
3.39184e-07
3.34588e-08
5.19589e-06
7.99188e-07
4.13984e-06
6.01089e-07
3.79276e-06
1.31203e-06
1.1516e-06
1.1688e-06
9.94517e-07
1.07412e-05
3.06436e-05
2.91404e-05
7.02179e-05
4.34178e-05
9.45941e-07
2.13901e-06
3.01392e-05
6.99964e-07
4.97469e-05
6.34471e-05
1.14564e-05
1.84621e-06
7.48058e-06
1.64129e-06
6.56044e-06
0.000135752
0.000161429
0.00015041
0.000193892
9.19865e-05
6.61861e-05
6.47775e-05
1.01121e-05
6.01831e-05
5.05786e-05
8.505e-09
4.76433e-07
9.99016e-06
4.25637e-07
4.38612e-07
7.52004e-06
3.2045e-05
6.04352e-06
7.36478e-05
3.82679e-08
2.77432e-08
3.94319e-09
2.52378e-07
7.72849e-09
6.30241e-09
4.01299e-09
2.28352e-05
2.31247e-05
1.26826e-06
1.21749e-05
1.17382e-05
4.18423e-05
3.25066e-05
2.61814e-06
0.000121905
0.000478038
7.98016e-06
0.000217884
0.000275303
0.000251813
0.000247216
7.50286e-06
0.000139352
0.000159992
0.000141046
7.07225e-06
3.4363e-07
4.76612e-07
4.20932e-07
4.72559e-07
3.40152e-07
0.000103423
0.000155594
0.000128155
0.000122994
4.08679e-07
2.79765e-07
2.08594e-05
5.29209e-07
2.68467e-07
0.000497226
0.000124878
0.00062683
0.000578609
0.000569811
0.000335103
0.000343965
0.000327784
0.000299213
5.30925e-05
1.45407e-05
1.39778e-05
1.81567e-06
1.27809e-06
3.8513e-07
1.48912e-07
2.29595e-06
1.55429e-07
0.000244536
4.16066e-06
3.21309e-06
1.0659e-05
6.2588e-05
1.96216e-06
6.00751e-07
4.02999e-07
5.594e-08
1.65305e-06
1.34664e-05
6.09725e-05
1.10677e-05
1.42292e-05
2.37635e-05
2.4745e-05
3.04359e-05
3.99375e-05
4.01249e-05
5.35797e-07
3.73851e-05
2.81256e-05
1.55041e-06
1.23863e-06
1.59267e-06
3.75867e-05
4.28675e-05
8.28181e-05
8.959e-05
3.4294e-05
0.000300394
3.86247e-05
9.23649e-06
0.000300673
0.000318959
0.000277183
6.39967e-07
7.95463e-07
0.000386025
0.000366615
0.00035694
0.000327394
8.82246e-09
1.17314e-08
0.000280357
0.000251519
0.00021255
6.82732e-06
9.28973e-06
7.03145e-06
5.05716e-05
4.52385e-05
5.34244e-05
6.30703e-05
1.7179e-08
1.93567e-08
5.43222e-06
7.50275e-06
6.8017e-06
7.66283e-06
0.000298841
0.000277138
0.000336925
5.81025e-06
0.000111119
1.01371e-08
6.83771e-09
3.93509e-09
3.79936e-07
2.42036e-06
2.42651e-06
2.2052e-06
1.80362e-06
8.05656e-10
8.46911e-10
4.91295e-05
5.66772e-06
2.41749e-07
2.88155e-06
2.74182e-06
6.99397e-08
3.63416e-08
1.41709e-06
2.26756e-06
6.45799e-05
6.64522e-05
5.22092e-05
8.54925e-06
6.28092e-06
2.10739e-05
1.64228e-05
5.64699e-07
1.01662e-05
1.39807e-05
1.92687e-05
2.79401e-05
0.000143993
6.16871e-06
6.68894e-06
5.66958e-06
1.28651e-05
2.53146e-05
0.000207462
0.000254784
3.38535e-05
3.11143e-05
0.000129605
1.98993e-06
1.57001e-06
0.000151185
0.000195194
0.000237771
0.000210063
0.000196626
2.20066e-05
3.31359e-06
3.04052e-06
2.41127e-06
0.000241642
0.000273037
0.000221513
0.000171072
0.000172946
6.14545e-07
2.05028e-05
1.82856e-05
0.000327126
1.46199e-05
3.76593e-05
2.929e-05
1.23297e-05
2.60041e-06
9.35062e-05
3.32001e-05
4.10914e-05
5.01742e-05
0.000221736
0.000273469
5.1192e-05
0.00027112
0.000370363
4.14576e-07
3.0138e-07