# vtk DataFile Version 2.0
Unstructured Grid by M++
ASCII
DATASET UNSTRUCTURED_GRID
POINTS 4072 float
  0.828125   0.890625 0
  0.875000   0.531250 0
  0.828125   0.750000 0
  0.593750   0.968750 0
  0.828125   0.671875 0
  0.828125   0.875000 0
  0.593750   0.937500 0
  0.828125   0.656250 0
  0.828125   0.640625 0
  0.828125   0.843750 0
  0.593750   0.906250 0
  0.828125   0.625000 0
  0.781250   0.968750 0
  0.828125   0.609375 0
  0.828125   0.812500 0
  0.593750   0.875000 0
  0.593750   0.828125 0
  0.593750   0.796875 0
  0.828125   0.703125 0
  0.593750   0.765625 0
  0.828125   0.937500 0
  0.812500   0.875000 0
  0.859375   0.515625 0
  0.812500   0.734375 0
  0.812500   0.937500 0
  0.578125   1.000000 0
  0.578125   0.750000 0
  0.812500   0.687500 0
  0.578125   0.953125 0
  0.812500   0.656250 0
  0.812500   0.859375 0
  0.578125   0.921875 0
  0.812500   0.828125 0
  0.578125   0.890625 0
  0.812500   0.593750 0
  0.812500   0.796875 0
  0.578125   0.859375 0
  0.578125   0.812500 0
  0.578125   0.781250 0
  0.796875   1.000000 0
  0.796875   0.859375 0
  0.796875   0.718750 0
  0.562500   0.984375 0
  0.562500   0.937500 0
  0.796875   0.843750 0
  0.562500   0.906250 0
  0.796875   0.812500 0
  0.562500   0.875000 0
  0.796875   0.578125 0
  0.796875   0.781250 0
  0.562500   0.843750 0
  0.812500   0.984375 0
  0.562500   0.796875 0
  0.812500   0.953125 0
  0.562500   0.765625 0
  0.796875   0.937500 0
  0.546875   0.750000 0
  0.781250   0.984375 0
  0.828125   0.593750 0
  0.781250   0.843750 0
  0.781250   0.937500 0
  0.546875   1.000000 0
  0.781250   0.703125 0
  0.546875   0.968750 0
  0.546875   0.921875 0
  0.781250   0.828125 0
  0.546875   0.890625 0
  0.781250   0.796875 0
  0.546875   0.859375 0
  0.781250   0.562500 0
  0.781250   0.765625 0
  0.546875   0.828125 0
  0.796875   0.968750 0
  0.546875   0.781250 0
  0.765625   1.000000 0
  0.765625   0.968750 0
  0.531250   0.984375 0
  0.765625   0.687500 0
  0.531250   0.953125 0
  0.531250   0.937500 0
  0.531250   0.906250 0
  0.765625   0.812500 0
  0.531250   0.875000 0
  0.765625   0.781250 0
  0.531250   0.843750 0
  0.781250   1.000000 0
  0.765625   0.546875 0
  0.765625   0.750000 0
  0.531250   0.812500 0
  0.781250   0.953125 0
  0.531250   0.765625 0
  0.515625   0.750000 0
  0.750000   0.984375 0
  0.750000   0.953125 0
  0.796875   0.593750 0
  0.796875   0.562500 0
  0.750000   0.843750 0
  0.750000   0.937500 0
  0.515625   1.000000 0
  0.750000   0.906250 0
  0.515625   0.968750 0
  0.750000   0.671875 0
  0.750000   0.875000 0
  0.515625   0.937500 0
  0.515625   0.921875 0
  0.515625   0.890625 0
  0.750000   0.796875 0
  0.515625   0.859375 0
  0.750000   0.765625 0
  0.515625   0.828125 0
  1.000000   0.718750 0
  0.750000   0.531250 0
  0.750000   0.734375 0
  0.515625   0.796875 0
  0.734375   1.000000 0
  0.734375   0.968750 0
  0.734375   0.937500 0
  0.781250   0.578125 0
  0.781250   0.546875 0
  0.968750   0.578125 0
  0.734375   0.828125 0
  0.968750   0.546875 0
  0.734375   0.796875 0
  0.734375   0.765625 0
  0.968750   0.671875 0
  0.734375   0.734375 0
  0.968750   0.640625 0
  0.734375   0.703125 0
  0.968750   0.609375 0
  0.734375   0.671875 0
  0.734375   0.656250 0
  0.734375   0.625000 0
  0.968750   0.531250 0
  0.734375   0.593750 0
  0.984375   0.734375 0
  0.984375   0.703125 0
  0.734375   0.515625 0
  0.718750   0.984375 0
  0.718750   0.953125 0
  0.718750   0.921875 0
  0.953125   0.562500 0
  0.718750   0.812500 0
  0.953125   0.531250 0
  0.718750   0.781250 0
  0.718750   0.750000 0
  0.953125   0.656250 0
  0.718750   0.718750 0
  0.953125   0.625000 0
  0.718750   0.687500 0
  0.953125   0.593750 0
  0.718750   0.656250 0
  0.671875   1.000000 0
  0.718750   0.640625 0
  0.718750   0.609375 0
  0.953125   0.515625 0
  0.718750   0.578125 0
  0.968750   0.718750 0
  0.968750   0.687500 0
  0.953125   0.671875 0
  0.703125   0.968750 0
  0.703125   0.937500 0
  0.937500   0.656250 0
  0.703125   0.906250 0
  0.937500   0.546875 0
  0.703125   0.796875 0
  0.937500   0.515625 0
  0.703125   0.765625 0
  0.937500   0.671875 0
  0.703125   0.734375 0
  0.937500   0.640625 0
  0.703125   0.703125 0
  0.937500   0.609375 0
  0.703125   0.671875 0
  0.937500   0.578125 0
  0.703125   0.640625 0
  0.656250   0.984375 0
  0.703125   0.625000 0
  0.703125   0.593750 0
  0.718750   0.796875 0
  0.953125   0.734375 0
  0.812500   1.000000 0
  0.859375   0.656250 0
  0.703125   0.781250 0
  0.937500   0.718750 0
  0.953125   0.703125 0
  0.796875   0.984375 0
  0.843750   0.640625 0
  0.812500   0.968750 0
  0.859375   0.625000 0
  0.796875   0.953125 0
  0.843750   0.609375 0
  0.687500   0.953125 0
  0.687500   0.921875 0
  0.687500   0.890625 0
  0.921875   0.734375 0
  0.687500   0.796875 0
  0.687500   0.781250 0
  0.921875   0.703125 0
  0.687500   0.765625 0
  0.687500   0.750000 0
  0.921875   0.656250 0
  0.687500   0.718750 0
  0.921875   0.625000 0
  0.687500   0.687500 0
  0.921875   0.593750 0
  0.687500   0.656250 0
  0.640625   1.000000 0
  0.921875   0.562500 0
  0.687500   0.625000 0
  0.640625   0.968750 0
  0.687500   0.609375 0
  0.687500   0.578125 0
  0.937500   0.687500 0
  0.921875   0.671875 0
  0.671875   0.921875 0
  0.906250   0.656250 0
  0.671875   0.906250 0
  0.671875   0.875000 0
  0.906250   0.718750 0
  0.671875   0.781250 0
  0.671875   0.765625 0
  0.671875   0.734375 0
  0.906250   0.640625 0
  0.671875   0.703125 0
  0.906250   0.609375 0
  0.671875   0.671875 0
  0.906250   0.578125 0
  0.671875   0.640625 0
  0.625000   0.984375 0
  0.671875   0.609375 0
  0.625000   0.953125 0
  0.671875   0.593750 0
  0.671875   0.562500 0
  0.765625   0.953125 0
  0.812500   0.609375 0
  0.656250   1.000000 0
  0.656250   0.953125 0
  0.656250   0.906250 0
  0.890625   0.640625 0
  0.656250   0.890625 0
  0.656250   0.859375 0
  0.890625   0.734375 0
  0.656250   0.796875 0
  0.812500   0.921875 0
  0.562500   1.000000 0
  0.625000   0.828125 0
  0.812500   0.843750 0
  0.843750   0.593750 0
  0.812500   0.812500 0
  0.625000   0.718750 0
  0.828125   0.687500 0
  0.640625   0.593750 0
  0.812500   0.781250 0
  0.625000   0.687500 0
  0.765625   0.828125 0
  0.640625   0.562500 0
  0.812500   0.750000 0
  0.562500   0.828125 0
  0.781250   0.875000 0
  0.546875   0.937500 0
  0.781250   0.671875 0
  0.781250   0.593750 0
  0.546875   0.656250 0
  0.796875   0.750000 0
  0.562500   0.812500 0
  0.796875   0.546875 0
  0.765625   0.796875 0
  0.765625   0.593750 0
  1.000000   0.531250 0
  0.812500   0.718750 0
  0.859375   0.562500 0
  0.625000   0.625000 0
  0.812500   0.703125 0
  0.812500   0.906250 0
  0.578125   0.968750 0
  0.984375   0.593750 0
  0.828125   0.578125 0
  0.828125   0.781250 0
  0.593750   0.843750 0
  0.812500   0.671875 0
  0.625000   0.578125 0
  0.796875   0.671875 0
  0.562500   0.734375 0
  0.984375   0.562500 0
  0.828125   0.546875 0
  0.812500   0.640625 0
  0.750000   0.812500 0
  0.625000   0.546875 0
  0.796875   0.640625 0
  0.562500   0.703125 0
  0.828125   0.515625 0
  0.781250   0.734375 0
  0.546875   0.796875 0
  0.781250   0.531250 0
  0.750000   0.781250 0
  0.625000   0.515625 0
  0.796875   0.609375 0
  0.562500   0.671875 0
  0.765625   0.656250 0
  0.765625   0.859375 0
  0.531250   0.921875 0
  0.812500   0.578125 0
  0.562500   0.656250 0
  0.984375   0.687500 0
  0.750000   0.750000 0
  0.812500   0.562500 0
  0.812500   0.765625 0
  0.578125   0.828125 0
  0.562500   0.625000 0
  0.984375   0.656250 0
  0.750000   0.718750 0
  0.812500   0.531250 0
  0.781250   0.656250 0
  0.546875   0.718750 0
  0.781250   0.625000 0
  0.546875   0.687500 0
  0.750000   0.640625 0
  0.796875   0.531250 0
  0.562500   0.593750 0
  0.984375   0.625000 0
  0.750000   0.687500 0
  0.546875   0.984375 0
  0.609375   0.812500 0
  0.796875   0.875000 0
  0.546875   0.953125 0
  0.609375   0.578125 0
  0.843750   0.515625 0
  0.765625   0.515625 0
  0.765625   0.718750 0
  0.531250   0.781250 0
  0.984375   0.546875 0
  0.750000   0.609375 0
  0.796875   0.828125 0
  0.671875   0.968750 0
  0.796875   0.796875 0
  0.796875   0.765625 0
  0.609375   0.671875 0
  0.796875   0.734375 0
  0.546875   0.812500 0
  0.796875   0.703125 0
  0.843750   0.546875 0
  0.609375   0.609375 0
  0.796875   0.687500 0
  0.562500   0.953125 0
  0.796875   0.656250 0
  0.609375   0.562500 0
  0.796875   0.625000 0
  0.609375   0.531250 0
  0.546875   0.640625 0
  0.765625   0.671875 0
  0.531250   0.734375 0
  0.796875   0.515625 0
  0.765625   0.640625 0
  0.531250   0.703125 0
  0.703125   1.000000 0
  0.765625   0.609375 0
  0.531250   0.671875 0
  0.765625   0.578125 0
  0.531250   0.640625 0
  0.546875   0.609375 0
  0.531250   1.000000 0
  0.890625   0.593750 0
  0.656250   0.656250 0
  0.781250   0.515625 0
  0.546875   0.578125 0
  0.531250   0.968750 0
  0.890625   0.562500 0
  0.656250   0.625000 0
  0.609375   0.968750 0
  0.781250   0.859375 0
  0.656250   0.593750 0
  0.750000   0.703125 0
  0.515625   0.765625 0
  0.781250   0.812500 0
  0.781250   0.781250 0
  0.593750   0.687500 0
  0.781250   0.750000 0
  0.593750   0.656250 0
  0.781250   0.718750 0
  0.531250   0.796875 0
  0.828125   0.562500 0
  0.593750   0.625000 0
  0.781250   0.687500 0
  0.828125   0.531250 0
  0.593750   0.593750 0
  0.812500   0.625000 0
  0.578125   0.687500 0
  0.781250   0.640625 0
  0.781250   0.609375 0
  0.593750   0.515625 0
  0.515625   0.781250 0
  0.812500   0.546875 0
  0.578125   0.609375 0
  0.812500   0.515625 0
  0.578125   0.578125 0
  0.750000   0.656250 0
  0.515625   0.718750 0
  0.750000   0.625000 0
  0.515625   0.687500 0
  0.687500   0.984375 0
  0.750000   0.593750 0
  0.515625   0.656250 0
  0.531250   0.546875 0
  0.750000   0.562500 0
  0.515625   0.625000 0
  0.531250   0.515625 0
  0.984375   0.515625 0
  0.750000   0.578125 0
  0.515625   0.531250 0
  0.828125   0.796875 0
  0.640625   0.703125 0
  0.828125   0.765625 0
[...]
CELL_DATA 7648
SCALARS scalar_value float 1
LOOKUP_TABLE default
0.00334444
0.00361356
2.16883e-05
1.7511e-05
1.91363e-05
1.35817e-05
1.07968e-06
1.26692e-06
1.38345e-06
1.36838e-06
7.74458e-06
1.07947e-05
1.43203e-05
1.0689e-05
1.68658e-05
1.7704e-05
2.10955e-05
1.42211e-05
0.000824376
0.00102759
0.000792567
0.000914219
0.00106093
0.00115974
0.00272676
0.00289363
0.00326404
0.0026865
0.00382973
0.00399723
0.00431109
0.0037562
8.83146e-08
1.1953e-07
2.3099e-07
8.0292e-08
2.92646e-05
2.50836e-05
0.00384163
0.00363805
2.69515e-05
2.91397e-05
0.0045544
0.00464933
4.10212e-07
6.53532e-07
5.46547e-07
1.12292e-06
7.63638e-07
1.40005e-06
1.22908e-06
2.50184e-06
2.89842e-06
4.47623e-06
4.20037e-06
6.48203e-06
0.000485956
0.000513418
0.000654134
0.000578647
0.000684599
0.000760897
2.86692e-06
3.88809e-06
4.56449e-06
5.10516e-06
6.97066e-06
1.03834e-05
8.42256e-06
5.94663e-06
5.53083e-06
6.46978e-06
4.00423e-06
0.000731614
0.00373249
8.54103e-06
6.17468e-06
6.641e-06
4.41542e-06
1.56614e-05
1.20755e-05
8.99209e-06
1.13956e-05
2.43399e-05
1.92441e-05
2.0205e-05
1.51432e-05
0.00213432
0.00244402
0.00272732
1.03904e-07
1.64692e-07
2.26197e-07
2.13072e-07
3.48227e-07
4.12721e-07
6.25792e-07
3.21987e-07
7.3276e-07
1.00384e-06
8.42575e-07
4.14384e-07
6.22904e-07
8.21111e-07
0.00112951
1.05111e-08
1.11508e-08
2.45841e-08
0.000114472
0.00011735
0.000124227
0.000109105
3.16535e-07
3.75953e-07
6.16603e-07
2.52571e-07
2.16155e-07
4.0899e-07
2.15435e-07
2.99056e-06
3.6345e-06
3.78294e-06
4.15743e-06
5.1327e-06
5.24883e-06
4.57664e-06
6.43043e-06
8.98295e-05
9.33164e-05
0.000108592
7.9505e-05
1.12438e-05
1.26031e-05
1.60755e-05
1.13125e-05
9.17528e-07
1.02822e-06
9.48037e-07
1.22602e-06
1.59083e-05
0.000104711
0.000110337
1.62052e-05
2.09622e-05
2.28351e-05
2.90651e-05
3.77086e-05
2.96476e-05
0.000522527
0.00062405
0.000699999
0.000783425
0.000833524
0.000955663
0.000758404
0.000478409
0.000491869
0.000574167
0.000402067
4.96932e-07
7.54701e-07
2.23776e-05
2.41277e-05
3.05733e-05
1.92161e-05
0.00202926
1.64508e-05
1.79529e-05
2.34565e-05
1.42099e-05
0.00202209
0.00181717
0.00184641
0.00161859
4.8349e-07
5.65558e-07
2.29033e-06
2.60176e-06
3.57048e-06
2.09823e-06
4.0357e-06
3.22209e-06
3.63277e-06
2.36552e-06
0.00126572
0.00145191
0.00157136
0.00154365
0.00187342
0.00213809
0.00232141
0.0059746
0.00716946
1.88588e-06
2.1191e-06
2.89835e-06
1.65623e-06
0.00170728
0.00181827
0.0020735
0.00169806
5.41291e-07
6.90842e-07
7.8946e-07
7.80844e-07
1.87722e-07
2.32916e-07
1.0187e-06
1.1794e-06
1.61829e-06
1.01271e-06
1.17603e-06
1.66169e-06
2.09821e-06
2.01065e-06
1.15977e-06
1.55765e-06
1.8951e-06
1.79396e-06
1.21076e-05
1.54392e-05
1.44656e-05
1.93547e-05
1.55938e-05
1.5189e-05
2.1602e-05
5.70654e-06
6.45078e-06
7.14768e-06
5.86252e-06
1.00707e-06
1.14076e-06
1.08027e-06
1.28448e-06
1.45321e-05
1.56498e-05
2.01282e-05
1.24116e-05
1.60042e-06
1.71534e-06
1.57373e-06
1.97311e-06
2.76036e-05
2.97827e-05
3.76893e-05
2.43998e-05
0.00479126
0.00487782
0.000793718
0.000899835
0.000983864
0.000992119
0.00107592
0.0010905
0.00110689
0.00102684
0.00094812
0.000843625
0.000947935
5.1601e-06
5.84723e-06
7.71018e-06
5.12876e-06
6.47251e-06
8.64103e-06
1.11287e-05
9.4796e-06
6.03285e-06
7.71236e-06
8.68407e-06
8.98697e-06
2.76009e-05
2.91434e-05
3.59159e-05
3.73638e-05
3.90485e-05
4.45429e-05
3.38257e-05
0.000849778
0.000995533
0.00109651
0.00123123
0.00141279
0.00110923
0.00171105
0.0020641
0.00162481
0.00102142
0.00124177
0.000909674
0.00305361
0.00314474
0.00340368
0.00285927
0.000375096
0.000419455
8.76787e-06
7.12221e-06
1.68132e-08
4.06713e-06
4.6777e-08
0.000483567
0.00015961
6.22331e-07
7.25426e-07
1.71848e-05
1.23297e-06
6.48938e-07
1.64574e-06
2.37321e-05
1.594e-06
4.93198e-05
8.37636e-06
3.63029e-05
4.39941e-06
4.27202e-06
2.92036e-06
0.000558328
0.00044309
0.00366685
0.00121899
0.000265536
0.00054008
0.00056265
7.97771e-05
0.000591293
1.43886e-05
0.000224458
3.9524e-05
0.000210245
1.01251e-05
1.20665e-05
1.00369e-05
1.34261e-06
1.85537e-06
1.00039e-06
1.09786e-06
4.44324e-07
7.19939e-07
0.00123681
0.0015358
0.000791301
0.00289298
0.00099032
0.000684714
3.74385e-07
1.28096e-07
0.00462966
4.5158e-07
1.44791e-05
6.39789e-06
1.75709e-06
2.51205e-05
5.07463e-07
0.00194576
0.00129843
0.00111845
0.0041215
0.00588619
0.000287739
6.298e-05
7.12812e-05
6.70049e-05
0.00047368
0.0011225
0.000918979
5.87163e-05
6.8626e-05
7.46896e-05
0.000494936
0.00254553
0.00456449
0.00448182
0.00118708
3.62915e-08
3.98164e-06
0.000268086
0.000327436
0.000342185
5.06077e-05
0.000440122
0.000148854
0.000263695
0.00128552
0.00142078
0.0011033
0.00011725
0.00010191
8.51619e-05
0.00045846
0.000596725
0.000487792
0.00097068
7.46934e-05
0.000762062
0.00046269
0.000599917
0.000450794
0.000117411
0.000148722
2.53375e-06
5.12643e-05
2.81941e-06
5.51409e-05
0.000493329
3.3507e-06
4.80052e-07
6.89634e-05
2.67807e-06
2.36673e-07
4.59541e-05
0.00189424
0.00106163
0.00419153
0.00136539
0.00109114
5.34799e-05
0.000878745
0.003708
7.13189e-07
5.32134e-07
0.000682132
0.00302878
9.44396e-05
0.000351925
1.02763e-05
5.07421e-05
1.94056e-07
8.89444e-09
7.44389e-09
0.000130385
0.0013235
3.23445e-06
1.73755e-07
4.66394e-05
0.000100261
0.000767877
0.000109743
0.000131061
7.79968e-05
1.45376e-05
9.49983e-05
0.00101369
0.000283021
0.000343895
3.36685e-05
0.000344982
0.000331926
0.00179995
0.00202685
0.00211913
3.72994e-05
3.99323e-05
0.000157697
0.000271126
0.0012927
0.0013392
0.000124899
2.1713e-06
1.74365e-06
0.000138174
9.44601e-05
4.58923e-05
0.000382095
0.00107243
4.5608e-05
3.64941e-05
3.88933e-05
0.000308346
4.81039e-05
3.17752e-05
2.94314e-05
2.52198e-05
2.36226e-05
0.000200027
5.61157e-07
7.02487e-07
0.000105053
0.00710471
0.00169331
0.000721459
0.00130101
0.000414539
5.69684e-05
1.05137e-05
4.77979e-05
6.19502e-05
0.000112783
3.29892e-05
0.00057982
0.000420158
0.00170185
0.00158115
0.00190881
4.26943e-05
5.47516e-05
0.0012555
0.000328619
0.000333191
0.000267827
0.00104934
5.1462e-06
0.000573304
1.03461e-05
4.39515e-05
6.22207e-05
9.35544e-07
0.000122297
0.000114773
1.79121e-05
0.000199769
0.000648249
8.21703e-05
0.000880731
0.000806031
0.000822911
0.00343892
0.000608404
0.000505551
0.0018839
0.00175068
0.000739979
0.00672375
0.00406472
0.0019186
9.64434e-05
4.5979e-06
7.48867e-06
1.25002e-06
3.68753e-05
5.34183e-05
0.0065862
0.000620313
2.50729e-05
1.87649e-05
0.000916414
2.24506e-08
0.00284846
0.000302967
0.000837461
7.73126e-05
0.00103318
9.92144e-05
0.00103263
0.000826172
0.000959034
4.02916e-08
9.37856e-07
0.00192213
1.12026e-06
1.4861e-06
1.92121e-06
2.46776e-06
0.000755386
0.000301857
7.89383e-07
5.15851e-05
5.56256e-06
0.000272426
0.00142794
1.28183e-08
1.48056e-08
0.00165948
3.13865e-08
5.74079e-05
0.000378454
6.60149e-05
2.32947e-05
0.000113813
4.33226e-05
0.000286192
4.89336e-05
0.000351976
5.9677e-05
6.41843e-05
7.66263e-06
7.94471e-05
1.0391e-05
5.30026e-05
5.39775e-06
1.04767e-05
8.75134e-05
9.4174e-05
0.00115417
7.38536e-07
8.73016e-07
1.27445e-06
3.14628e-05
7.24984e-07
2.49823e-05
6.54183e-06
1.22931e-05
1.48611e-06
3.54971e-05
1.07562e-05
1.52594e-06
1.00628e-06
2.45283e-05
1.50588e-06
1.70436e-06
2.75943e-07
5.30868e-09
2.18796e-05
8.75979e-07
0.000107317
1.59562e-07
2.52385e-07
2.73619e-07
0.000961954
8.56265e-05
0.000652187
6.5627e-05
0.00030993
0.000629546
5.32085e-05
8.00061e-05
9.61829e-05
1.11684e-05
0.00019699
6.5173e-07
3.23121e-05
0.000351479
0.00439294
0.000588199
9.23747e-05
4.13078e-07
1.08231e-05
0.00013714
2.62833e-05
0.00017792
0.000177072
4.09151e-06
9.77264e-05
0.00138306
3.39063e-05
0.000359335
7.96918e-07
0.000544353
0.00188717
0.00228029
0.00176903
0.000337573
7.82001e-08
0.00168006
0.00307432
0.000722487
0.0035671
0.000877756
0.00215262
0.00308034
0.00332632
5.68855e-05
7.07682e-05
0.000278689
2.82186e-06
0.000101714
1.13769e-05
0.00236427
2.16771e-05
0.00732384
4.30022e-05
5.18953e-06
3.74461e-05
0.0009899
9.90793e-07
1.32663e-05
0.000124083
4.70465e-05
0.00435062
0.00500518
0.0014211
1.2032e-05
5.08289e-07
1.94177e-05
8.9851e-07
1.86724e-06
0.000140156
6.00132e-06
0.000123769
0.000623792
5.59769e-05
0.000128913
0.000888169
0.000251617
0.000183691
0.00118445
2.44969e-08
0.000158413
0.000136009
1.33482e-05
0.000148338
0.000141659
0.000216319
0.000170826
0.00352772
0.00324347
0.00293543
0.003413
1.42756e-08
0.00220138
9.42014e-05
3.15565e-08
0.00247462
0.000122716
6.93929e-08
0.00239852
0.000181087
0.000380495
2.07254e-06
0.000795714
3.49089e-08
0.000660135
0.000973549
0.00163111
1.52894e-05
0.000964007
0.000224244
0.000101454
2.95218e-05
0.000194927
0.00116326
0.000161101
1.00156e-05
3.40446e-05
6.27065e-09
2.2279e-05
4.25711e-05
0.000352637
2.13783e-06
3.44493e-05
0.00212136
0.00235074
0.000584276
0.000112317
3.493e-05
0.000588971
0.00038915
9.28942e-05
2.75361e-05
8.8191e-05
7.83309e-05
1.96359e-05
0.000289695
0.00127927
8.31319e-06
0.00234543
0.00113388
0.000658982
0.00021816
0.000421221
7.29706e-06
0.000251039
0.000209873
5.70193e-05
0.000379746
0.000344698
1.56657e-05
2.26122e-05
0.000164238
0.000128761
0.00027767
7.97273e-06
1.32861e-05
0.00306621
1.87267e-08
0.000613079
0.000402388
7.69802e-05
0.000374251
2.604e-05
3.41438e-08
2.6965e-06
0.00247786
6.85545e-06
0.000422353
4.05938e-06
2.65882e-07
5.66569e-05
0.000128558
3.22041e-06
1.07066e-07
4.27194e-05
1.2466e-05
2.10039e-05
0.000165468
0.00331193
2.22034e-05
0.00349903
0.000889527
3.08868e-05
0.000209633
0.000551464
0.000205235
2.51082e-05
2.77592e-05
0.00389439
0.00103765
0.000202558
0.000179315
4.83077e-07
0.000499004
5.7442e-05
0.000266299
5.63576e-07
0.00112783
0.00010854
1.25284e-05
0.000251296
3.1128e-05
9.28816e-06
0.00596603
1.62257e-05
0.000149999
0.000136769
0.000822342
1.51303e-06
0.00170628
0.000295277
2.59347e-06
0.00225257
2.09107e-06
3.13243e-05
1.5021e-08
0.000523685
0.00159939
3.67e-05
0.000423396
0.00230094
4.54669e-05
0.000637794
0.000833476
0.000126313
2.02589e-05
0.000421955
5.84451e-05
4.73804e-07
4.47254e-06
5.93139e-08
7.62533e-05
8.27723e-05
0.000161558
0.00380608
8.02461e-05
0.000142544
2.42973e-06
0.00679062
0.00159874
0.000439424
0.00191357
3.44547e-06
0.000143059
0.000121797
1.61168e-06
1.63563e-05
0.000159567
0.000343519
0.00039918
0.000132292
0.000442257
4.62936e-05
0.000751832
0.000428395
5.7073e-05
0.0028574
0.000330777
0.000288226
2.32839e-06
1.12273e-06
0.000374701
7.74639e-06
3.11295e-06
1.74351e-05
1.28225e-08
0.000254082
3.40696e-05
5.05955e-06
0.000106025
0.00122591
5.11145e-07
5.83445e-07
0.000591555
8.18455e-07
0.000308116
2.54568e-06
9.78528e-05
2.11447e-05
6.1556e-05
0.000572986
4.69463e-06
0.000318802
2.84646e-06
0.000103836
5.37111e-05
2.64109e-07
0.000133729
0.00149281
0.00132826
8.53132e-05
0.000286677
2.10779e-06
3.53274e-05
0.000311073
0.000972331
0.00447143
0.00138485
0.000579089
0.000291004
0.00278968
7.51223e-06
1.52029e-07
8.40252e-06
2.95282e-06
1.55189e-05
0.00271211
1.38243e-05
0.00102233
0.00160339
9.71741e-05
0.000136381
1.21436e-07
2.69952e-05
3.02439e-05
0.000113128
3.17163e-05
0.000194715
0.000174042
2.61837e-05
4.50324e-06
0.000151019
0.000468554
0.00381162
0.0022229
0.000167646
0.00608741
0.00134315
0.000806114
0.000179109
2.95051e-07
2.28033e-06
3.01694e-07
0.0002625
5.08231e-06
0.000739423
0.00429206
0.000116106
0.000286263
0.00238772
0.0006037
0.000173948
0.000826807
0.00158897
0.000321671
0.00436086
0.000158594
2.74541e-05
0.000115302
0.000512571
5.24023e-06
6.16627e-05
0.00249466
0.000498196
6.44112e-06
1.09109e-07
0.000235532
0.000787441
0.0001883
6.11843e-06
5.83663e-05
0.000189909
7.1382e-05
3.27239e-06
3.45879e-08
0.000185289
0.000153106
3.13351e-05
7.44968e-05
0.000247307
6.66925e-05
1.4764e-05
4.14394e-05
0.000195326
0.00217354
0.000131986
4.17208e-06
0.00492404
0.000126499
0.00031824
7.85025e-05
0.000103579
0.000418317
0.000240029
1.30748e-05
8.4195e-07
7.65241e-07
0.000123439
9.48281e-06
6.62799e-05
0.00259835
0.000684581
0.00313273
0.00218081
3.35438e-06
7.75561e-06
4.11251e-06
0.00290648
2.59827e-05
0.00249535
1.22359e-05
5.08146e-05
1.72085e-05
0.00106628
0.00019897
1.16148e-05
0.0012352
2.25493e-05
0.00203986
6.22644e-05
7.19028e-06
8.67343e-06
5.07049e-05
0.00246084
6.01437e-07
0.00187337
0.000263682
1.62413e-05
0.00036895
2.05541e-06
0.00010694
2.27454e-05
0.000141258
0.000535525
0.000720557
0.000476985
0.00653476
0.00258744
0.00262097
0.000126328
0.00143759
1.49795e-06
0.000422678
0.000116093
6.9538e-05
0.000551201
0.00402033
0.000138975
3.90155e-05
0.000137979
0.00106574
0.00455227
0.00180515
3.76174e-05
3.15726e-05
2.51927e-05
3.35376e-05
3.52893e-05
5.88822e-06
3.09935e-05
2.21408e-06
3.61538e-06
0.000229494
0.000149985
2.3798e-08
0.00232706
0.00118664
0.000124708
1.7725e-05
8.81971e-05
0.000777261
0.000928518
4.03563e-07
2.57737e-05
2.18707e-05
1.80092e-05
2.90784e-05
0.00238313
4.81383e-06
0.000945813
0.00248187
0.00242973
0.00228097
0.00245853
0.00132372
3.75154e-06
4.22896e-05
0.00152723
0.00165847
0.00148505
2.76047e-06
4.42595e-05
0.00226012
3.87699e-06
5.33212e-05
7.1599e-06
7.5987e-05
2.25238e-05
2.5904e-06
0.000129028
1.24283e-06
0.00572287
0.00300288
1.33655e-05
0.00406986
0.00119899
7.53337e-05
0.00150276
0.00130083
0.00121347
0.0012872
0.00160737
0.0018464
0.00147137
0.00119327
3.16906e-05
0.000254596
2.69265e-05
0.000214417
0.00140805
6.30752e-05
0.00105664
4.12825e-05
3.50054e-07
3.69784e-05
7.20965e-07
0.000641369
0.000482722
7.26266e-05
8.7175e-05
0.00354943
0.00413799
0.00123636
0.00395585
3.42004e-06
4.29854e-06
0.00103534
0.000996578
2.38332e-05
1.91376e-05
0.000711931
1.71657e-05
0.0018239
4.39837e-05
3.73155e-05
3.25615e-05
0.000947718
0.00168412
0.00012303
0.000129123
0.000141445
0.00180056
0.000147538
0.000138677
9.41354e-07
0.00116835
4.96387e-05
4.88311e-07
1.37458e-05
0.00270581
3.16581e-06
3.52033e-05
4.72292e-06
4.44199e-05
2.80085e-06
0.00176001
0.00587441
0.000871662
0.000242854
0.000874151
0.000807539
0.000704689
0.00019977
0.000385309
0.000322816
0.00112466
0.00122567
0.000398103
0.00139132
0.00112935
0.000346975
0.00102848
0.000462838
0.00114035
0.000433959
0.0011012
7.10799e-07
1.58225e-08
9.3499e-06
0.00011299
8.93206e-07
9.37414e-05
4.39799e-07
1.06394e-08
3.65927e-07
6.66258e-05
6.65914e-05
0.00120344
9.41306e-05
0.00142382
7.57109e-05
0.000439945
0.000562697
0.000658448
0.00244581
0.000357963
0.000334038
0.000465033
0.000369557
0.00205767
0.00538162
0.0017669
5.34034e-05
0.00338267
0.00065629
0.00496963
0.000827508
0.000536213
9.46813e-05
0.0058459
9.59392e-06
2.22337e-05
3.15983e-05
3.30074e-07
7.33421e-05
6.88733e-06
5.36402e-05
1.03444e-06
1.6791e-06
2.74975e-05
0.00204555
0.000104767
1.10575e-05
0.000487808
0.000382479
0.000252997
0.000453021
0.000739808
0.000234453
0.000327478
0.000377412
4.68513e-05
7.43335e-06
0.000177427
2.1362e-05
0.000323892
4.03485e-05
0.00286635
0.00243337
0.00027925
4.91105e-07
8.17285e-05
1.85765e-05
0.00197077
5.95831e-05
3.83021e-06
7.05693e-05
7.7478e-05
0.000110109
0.000106694
1.06838e-05
8.03099e-06
4.4196e-05
2.28722e-05
0.000236625
1.03218e-05
0.00302203
0.00293426
0.000232715
1.7943e-05
0.000214046
0.000152357
1.91096e-05
2.5083e-08
0.000281635
2.72119e-06
2.06683e-08
0.00251843
0.000756718
0.00284171
0.00527889
5.87506e-06
0.00262742
0.00259504
0.00273383
0.00241332
0.000641139
2.86058e-05
4.46947e-05
0.000500993
3.76517e-06
2.80968e-06
2.78971e-06
1.92093e-06
1.38567e-06
1.03332e-07
0.00416974
0.00397149
0.00282035
0.00283859
0.0050747
0.00401935
0.00119651
0.00465363
0.00138382
0.00428633
0.00119917
0.00409221
0.000155302
0.00276235
0.00335584
0.00297078
0.00279412
0.00151229
0.0016172
0.00119561
4.26413e-05
0.000173508
0.000164505
3.81631e-05
0.000134241
0.000205595
0.000222916
0.0010006
5.18791e-07
6.35228e-07
0.000455293
6.81035e-07
4.60047e-07
0.000664477
4.01193e-06
3.9681e-08
2.75173e-08
1.60298e-08
2.91278e-05
0.000216909
1.22555e-05
1.28261e-06
2.03078e-05
2.26297e-05
1.90486e-05
1.48785e-05
0.0015074
0.000491662
0.00139236
0.00134464
7.57198e-05
2.19708e-06
2.15639e-06
0.0012278
3.98531e-05
4.97777e-05
5.89349e-05
8.70609e-08
0.000263865
0.000259632
0.000480354
0.000600758
0.00063716
0.00123812
0.00155532
0.00135305
0.00126875
3.77727e-06
2.77131e-05
2.23238e-05
1.89812e-05
2.01426e-05
1.77122e-05
5.53139e-06
0.00123535
0.00359829
0.00339766
0.00364801
0.000193248
5.01483e-05
4.8601e-06
7.89455e-05
0.00628983
0.0064483
0.000643793
0.000828148
0.000705295
0.00066113
1.15073e-06
1.4342e-06
1.30152e-06
0.000450366
0.000219944
0.000194161
0.00132485
0.000230018
0.000278359
0.00049331
0.000366101
2.63808e-05
3.88449e-05
9.1377e-06
1.1373e-05
8.66916e-06
5.45718e-05
6.33397e-06
4.43581e-05
4.62285e-05
0.000183694
0.000169759
0.000212284
0.000221905
0.000833078
0.00127473
4.3449e-05
3.7988e-05
3.35922e-05
2.73004e-05
0.000766426
0.00101686
0.00118778
4.949e-06
0.00159174
9.39924e-05
1.64916e-05
7.76065e-05
7.18679e-05
2.01786e-08
0.000383083
1.73646e-05
2.04996e-05
1.28054e-05
0.000998079
0.00026522
1.06405e-05
1.07421e-06
0.000112508
1.26724e-05
9.07806e-05
9.61304e-06
8.43323e-05
3.69051e-05
3.30534e-05
3.32719e-05
2.85891e-05
0.000215967
0.000462196
0.000459482
0.0012535
0.000673876
2.29328e-05
5.83687e-05
0.00050612
1.79873e-05
0.000915195
0.00113913
0.000164271
5.10787e-05
0.000171158
2.8614e-05
0.000149812
0.00199681
0.00148993
0.00147062
0.00198355
0.00153703
0.00103298
0.00104318
0.000120083
0.000958346
0.000819514
1.52783e-07
1.42807e-05
0.000221503
1.27948e-05
1.32761e-05
0.000110571
0.000623214
9.12469e-05
0.00128137
1.24573e-06
9.28094e-07
8.54291e-08
7.28591e-06
1.35782e-07
1.10276e-07
7.17713e-08
0.000344933
0.000344317
3.25975e-05
0.000271601
0.000264826
0.000785818
0.000636024
6.95603e-05
0.00197736
0.00570673
0.000184405
0.00152731
0.0019466
0.00179586
0.00179671
0.000179166
0.00121831
0.00142987
0.00127716
0.000168119
1.09849e-05
1.4461e-05
1.2925e-05
8.01443e-06
5.80326e-06
0.000747662
0.00109717
0.000923429
0.00090301
1.00262e-05
9.20213e-06
0.000436673
1.59865e-05
8.58697e-06
0.00590609
0.00150875
0.00716145
0.00669471
0.00660765
0.0032102
0.00342162
0.00319309
0.0029461
0.000978427
0.000208262
0.000203227
3.24336e-05
2.26674e-05
1.20087e-05
4.55262e-06
4.19298e-05
5.24798e-06
0.00166816
0.00010346
8.3281e-05
0.000202318
0.00111697
4.09517e-05
1.84343e-05
1.28002e-05
1.63013e-06
4.51522e-05
0.000296326
0.00109359
0.000252253
0.000147885
0.000325514
0.000333894
0.000405613
0.000763792
0.000767527
1.63245e-05
0.000550101
0.000409519
4.31293e-05
3.09582e-05
3.92344e-05
0.000506205
0.000594212
0.000931581
0.00103862
0.000588895
0.0022136
0.000734454
0.000210608
0.0021775
0.00241492
0.00205932
1.09932e-05
1.39941e-05
0.00479846
0.00439355
0.00421855
0.0039136
2.9465e-07
3.97506e-07
0.00380022
0.00348793
0.00304942
0.000164014
0.000109228
8.31356e-05
0.000693636
0.0006023
0.00072095
0.000840957
5.68103e-07
6.28149e-07
7.47876e-05
9.80005e-05
9.10745e-05
0.000103236
0.00397262
0.00373075
0.00432977
0.000139097
0.00183867
1.85929e-07
1.25101e-07
7.38712e-08
1.10203e-05
6.27377e-05
6.39502e-05
5.78409e-05
4.78824e-05
1.83953e-08
2.25717e-08
0.000912241
0.000121049
7.76884e-06
3.56645e-05
3.45798e-05
2.5458e-06
1.38842e-06
1.86316e-05
6.10584e-05
0.00116223
0.00119427
0.000964625
0.000193912
0.000147341
0.000403126
0.000330854
1.5995e-05
0.000153159
0.000214042
0.000309868
0.000553847
0.00224769
0.000134378
0.000148298
0.000125205
0.000272083
0.000236044
0.00263658
0.00320903
0.000302678
0.00028401
0.0020539
3.70682e-05
2.91034e-05
0.00232777
0.00158816
0.0019606
0.00175584
0.00168633
0.000383959
7.62689e-05
7.09396e-05
5.70125e-05
0.00162509
0.00190036
0.00152576
0.00141003
0.0015039
1.72317e-05
0.000372618
0.000339238
0.00368426
0.000276408
0.000670165
0.000550323
0.000271719
4.61112e-05
0.00160128
0.000420003
0.000524777
0.000632297
0.00284656
0.00338026
0.000427653
0.00344413
0.00474726
8.99381e-06
6.5117e-06
0.000755649
0.000413682
0.000624167
3.48592e-05
2.53825e-05
0.00141878
4.48393e-08
4.80729e-08
3.47892e-08
2.07245e-08
0.000939754
0.000779258
0.000957638
0.000926567
0.00111622
0.000148325
0.000105551
0.000114865
8.78248e-06
7.46756e-06
7.43131e-06
0.000126415
0.000163233
0.000162943
1.55584e-06
1.68832e-06
1.04541e-06
7.16643e-05
8.8978e-05
7.26501e-05
8.17061e-06
9.10706e-06
7.38605e-06
6.08838e-06