# vtk DataFile Version 2.0
Unstructured Grid by M++
ASCII
DATASET UNSTRUCTURED_GRID
POINTS 81 float
  1.000000   0.625000 0
  0.750000   0.375000 0
  1.000000   0.000000 0
  0.875000   0.875000 0
  0.750000   0.125000 0
  1.000000   1.000000 0
  0.875000   0.250000 0
  0.625000   0.875000 0
  1.000000   0.750000 0
  0.875000   0.000000 0
  1.000000   0.250000 0
  0.625000   0.375000 0
  0.875000   0.500000 0
  0.625000   0.625000 0
  1.000000   0.500000 0
  0.750000   0.500000 0
  0.750000   1.000000 0
  1.000000   0.125000 0
  0.625000   0.250000 0
  0.750000   0.750000 0
  0.625000   0.000000 0
  0.125000   0.375000 0
  0.000000   0.500000 0
  0.125000   0.625000 0
  0.625000   1.000000 0
  1.000000   0.875000 0
  0.875000   0.125000 0
  0.500000   0.250000 0
  0.625000   0.500000 0
  0.250000   0.625000 0
  0.000000   0.625000 0
  0.375000   0.500000 0
  0.375000   0.000000 0
  0.000000   0.125000 0
  0.125000   0.875000 0
  0.875000   1.000000 0
  0.750000   0.250000 0
  0.375000   0.375000 0
  0.250000   0.375000 0
  0.625000   0.750000 0
  0.125000   0.125000 0
  0.500000   0.000000 0
  0.250000   0.875000 0
  0.125000   0.500000 0
  0.500000   0.375000 0
  0.125000   0.000000 0
  0.250000   0.750000 0
  0.250000   0.500000 0
  0.000000   0.875000 0
  0.875000   0.625000 0
  0.500000   0.750000 0
  0.750000   0.625000 0
  0.250000   0.000000 0
  0.375000   0.750000 0
  0.750000   0.875000 0
  0.625000   0.125000 0
  0.250000   0.250000 0
  0.375000   1.000000 0
  0.375000   0.250000 0
  0.000000   0.375000 0
  0.500000   1.000000 0
  0.875000   0.750000 0
  0.750000   0.000000 0
  0.375000   0.125000 0
  0.500000   0.875000 0
  0.000000   0.000000 0
  0.125000   0.750000 0
  0.500000   0.625000 0
  0.125000   0.250000 0
  0.500000   0.125000 0
  0.250000   1.000000 0
  0.250000   0.125000 0
  0.000000   1.000000 0
  0.375000   0.875000 0
  0.000000   0.750000 0
  0.375000   0.625000 0
  0.000000   0.250000 0
  0.125000   1.000000 0
  1.000000   0.375000 0
  0.500000   0.500000 0
  0.875000   0.375000 0
CELLS 64 320
4 56 71 58 63
4 27 58 69 63
4 41 69 32 63
4 76 33 68 40
4 27 44 58 37
4 79 31 44 37
4 56 38 68 21
4 56 58 38 37
4 52 32 71 63
4 47 38 31 37
4 76 68 59 21
4 22 59 43 21
4 65 45 33 40
4 47 43 38 21
4 52 71 45 40
4 56 68 71 40
4 74 30 66 23
4 46 66 29 23
4 22 43 30 23
4 72 48 77 34
4 46 53 42 73
4 50 64 53 73
4 70 42 57 73
4 74 66 48 34
4 46 42 66 34
4 47 29 43 23
4 70 77 42 34
4 60 57 64 73
4 79 67 31 75
4 47 31 29 75
4 50 53 67 75
4 46 29 53 75
4 10 78 6 80
4 36 6 1 80
4 15 1 12 80
4 36 4 6 26
4 14 12 78 80
4 2 17 9 26
4 36 18 4 55
4 15 28 1 11
4 62 4 20 55
4 10 6 17 26
4 27 18 44 11
4 62 9 4 26
4 27 69 18 55
4 36 1 18 11
4 41 20 69 55
4 79 44 28 11
4 16 24 54 7
4 19 54 39 7
4 50 39 64 7
4 8 25 61 3
4 60 64 24 7
4 79 28 67 13
4 19 51 61 49
4 8 61 0 49
4 15 51 28 13
4 19 39 51 13
4 50 67 39 13
4 19 61 54 3
4 14 0 12 49
4 5 35 25 3
4 15 12 51 49
4 16 54 35 3
CELL_TYPES 64
8
8
8
8
8
8
8
8
8
8
8
8
8
8
8
8
8
8
8
8
8
8
8
8
8
8
8
8
8
8
8
8
8
8
8
8
8
8
8
8
8
8
8
8
8
8
8
8
8
8
8
8
8
8
8
8
8
8
8
8
8
8
8
8
CELL_DATA 64
VECTORS vector_value float
-0.109315 -0.452963 0
-0.277984 -0.802687 0
-0.00775429 -0.561647 0
0.0551544 -0.502098 0
0.0195202 -0.461279 0
0.1227 -0.433608 0
0.255425 -0.25217 0
0.191341 -0.22162 0
-0.0435766 -0.63393 0
0.12269 -0.141448 0
0.0482475 -0.587056 0
0.128136 -0.907114 0
0.0226785 -0.418082 0
0.0913843 -0.147455 0
-0.00869782 -0.32064 0
0.088669 -0.160471 0
-0.0145513 -0.792757 0
0.288645 -0.8368 0
-0.0345424 -0.880856 0
-0.112313 -1.12289 0
0.342865 -0.375153 0
0.425539 -0.0756175 0
-0.129509 -0.862743 0
0.201929 -1.23552 0
0.475379 -1.11129 0
0.0731114 -0.355136 0
-0.343767 -1.21544 0
0.517546 -0.0967994 0
0.499378 -0.565676 0
0.102347 -0.0946632 0
0.546287 -0.121603 0
0.960209 -0.561422 0
-0.24727 -2.13468 0
-0.535154 -1.28518 0
0.00220587 -1.56513 0
-0.202812 -1.68023 0
0.161608 -2.32693 0
-0.0378237 -0.5875 0
0.597353 -2.29366 0
0.0236776 -1.32434 0
0.081492 -1.80387 0
-0.603426 -1.57608 0
-0.0423892 -1.52024 0
-0.0393492 -3.42359 0
0.149812 -0.531806 0
-0.286487 -1.53778 0
0.00802411 -0.250741 0
0.213774 -1.15398 0
0.00409788 -2.10595 0
0.533499 -3.11028 0
0.502118 -0.891925 0
-0.113104 -0.660578 0
0.917359 -1.19929 0
0.196623 -1.20493 0
1.2551 -1.42856 0
0.24271 -0.87527 0
0.149593 -0.848023 0
1.32338 -2.44831 0
0.496346 -0.935278 0
-0.114853 -0.539637 0
0.450074 -1.73273 0
-0.065322 -0.943638 0
0.848929 -2.31798 0
-0.42133 -0.453244 0
