# vtk DataFile Version 2.0
Unstructured Grid by M++
ASCII
DATASET UNSTRUCTURED_GRID
POINTS 81 float
  1.000000   0.625000 0
  0.750000   0.375000 0
  1.000000   0.000000 0
  0.875000   0.875000 0
  0.750000   0.125000 0
  1.000000   1.000000 0
  0.875000   0.250000 0
  0.625000   0.875000 0
  1.000000   0.750000 0
  0.875000   0.000000 0
  1.000000   0.250000 0
  0.625000   0.375000 0
  0.875000   0.500000 0
  0.625000   0.625000 0
  1.000000   0.500000 0
  0.750000   0.500000 0
  0.750000   1.000000 0
  1.000000   0.125000 0
  0.625000   0.250000 0
  0.750000   0.750000 0
  0.625000   0.000000 0
  0.125000   0.375000 0
  0.000000   0.500000 0
  0.125000   0.625000 0
  0.625000   1.000000 0
  1.000000   0.875000 0
  0.875000   0.125000 0
  0.500000   0.250000 0
  0.625000   0.500000 0
  0.250000   0.625000 0
  0.000000   0.625000 0
  0.375000   0.500000 0
  0.375000   0.000000 0
  0.000000   0.125000 0
  0.125000   0.875000 0
  0.875000   1.000000 0
  0.750000   0.250000 0
  0.375000   0.375000 0
  0.250000   0.375000 0
  0.625000   0.750000 0
  0.125000   0.125000 0
  0.500000   0.000000 0
  0.250000   0.875000 0
  0.125000   0.500000 0
  0.500000   0.375000 0
  0.125000   0.000000 0
  0.250000   0.750000 0
  0.250000   0.500000 0
  0.000000   0.875000 0
  0.875000   0.625000 0
  0.500000   0.750000 0
  0.750000   0.625000 0
  0.250000   0.000000 0
  0.375000   0.750000 0
  0.750000   0.875000 0
  0.625000   0.125000 0
  0.250000   0.250000 0
  0.375000   1.000000 0
  0.375000   0.250000 0
  0.000000   0.375000 0
  0.500000   1.000000 0
  0.875000   0.750000 0
  0.750000   0.000000 0
  0.375000   0.125000 0
  0.500000   0.875000 0
  0.000000   0.000000 0
  0.125000   0.750000 0
  0.500000   0.625000 0
  0.125000   0.250000 0
  0.500000   0.125000 0
  0.250000   1.000000 0
  0.250000   0.125000 0
  0.000000   1.000000 0
  0.375000   0.875000 0
  0.000000   0.750000 0
  0.375000   0.625000 0
  0.000000   0.250000 0
  0.125000   1.000000 0
  1.000000   0.375000 0
  0.500000   0.500000 0
  0.875000   0.375000 0
CELLS 64 320
4 56 71 58 63
4 27 58 69 63
4 41 69 32 63
4 76 33 68 40
4 27 44 58 37
4 79 31 44 37
4 56 38 68 21
4 56 58 38 37
4 52 32 71 63
4 47 38 31 37
4 76 68 59 21
4 22 59 43 21
4 65 45 33 40
4 47 43 38 21
4 52 71 45 40
4 56 68 71 40
4 74 30 66 23
4 46 66 29 23
4 22 43 30 23
4 72 48 77 34
4 46 53 42 73
4 50 64 53 73
4 70 42 57 73
4 74 66 48 34
4 46 42 66 34
4 47 29 43 23
4 70 77 42 34
4 60 57 64 73
4 79 67 31 75
4 47 31 29 75
4 50 53 67 75
4 46 29 53 75
4 10 78 6 80
4 36 6 1 80
4 15 1 12 80
4 36 4 6 26
4 14 12 78 80
4 2 17 9 26
4 36 18 4 55
4 15 28 1 11
4 62 4 20 55
4 10 6 17 26
4 27 18 44 11
4 62 9 4 26
4 27 69 18 55
4 36 1 18 11
4 41 20 69 55
4 79 44 28 11
4 16 24 54 7
4 19 54 39 7
4 50 39 64 7
4 8 25 61 3
4 60 64 24 7
4 79 28 67 13
4 19 51 61 49
4 8 61 0 49
4 15 51 28 13
4 19 39 51 13
4 50 67 39 13
4 19 61 54 3
4 14 0 12 49
4 5 35 25 3
4 15 12 51 49
4 16 54 35 3
CELL_TYPES 64
8
8
8
8
8
8
8
8
8
8
8
8
8
8
8
8
8
8
8
8
8
8
8
8
8
8
8
8
8
8
8
8
8
8
8
8
8
8
8
8
8
8
8
8
8
8
8
8
8
8
8
8
8
8
8
8
8
8
8
8
8
8
8
8
CELL_DATA 64
VECTORS vector_value float
-0.0853523 -0.15059 0
0.0302147 -0.434295 0
0.014276 -0.263223 0
-0.0223941 -0.297973 0
-0.065462 -0.469234 0
1.23353 -1.78386 0
-0.0263744 -0.154771 0
-0.102239 -0.1885 0
-0.0171248 -0.108735 0
0.10022 -0.241038 0
0.00698414 -0.305605 0
0.0165795 -0.333122 0
-0.0595689 -0.439839 0
0.0168568 -0.100001 0
-0.0511417 -0.245181 0
-0.114578 -0.306855 0
0.262747 -0.682822 0
0.617691 -0.501937 0
0.0715341 -0.380995 0
-0.158424 -1.27682 0
0.643042 -0.586203 0
0.0323536 -2.71586 0
0.172748 -0.480172 0
0.152695 -1.21154 0
0.402598 -0.443756 0
0.282748 -0.312622 0
-0.198752 -0.84783 0
-0.059226 -1.88647 0
0.969712 -3.65617 0
0.412028 -0.328778 0
0.421617 -3.5408 0
0.634438 -0.391005 0
0.880419 -2.04574 0
1.72599 -1.2876 0
0.812556 -0.887447 0
0.869771 -2.0386 0
0.107761 -0.715852 0
-0.143166 -2.94 0
0.363872 -1.09007 0
1.7864 -1.14568 0
0.327076 -1.18958 0
0.274499 -3.19409 0
1.0466 -2.05587 0
-0.120479 -2.60727 0
0.205186 -0.487523 0
2.1446 -1.49268 0
0.132899 -0.206172 0
2.65812 -2.793 0
0.201432 -0.455519 0
-0.13187 -0.38416 0
-0.213101 -0.176651 0
-0.213188 -0.775914 0
-0.39589 -0.612396 0
0.240461 -1.55104 0
-0.483343 -1.00923 0
-0.0359111 -0.57793 0
0.0573905 -0.684371 0
-1.05233 -0.857413 0
-0.312188 -0.438865 0
-0.649046 -1.70592 0
0.0368783 -0.593978 0
0.0388457 -1.40664 0
0.0962862 -0.492043 0
0.471822 -1.03416 0
