# vtk DataFile Version 2.0
Unstructured Grid by M++
ASCII
DATASET UNSTRUCTURED_GRID
POINTS 81 float
  1.000000   0.625000 0
  0.750000   0.375000 0
  1.000000   0.000000 0
  0.875000   0.875000 0
  0.750000   0.125000 0
  1.000000   1.000000 0
  0.875000   0.250000 0
  0.625000   0.875000 0
  1.000000   0.750000 0
  0.875000   0.000000 0
  1.000000   0.250000 0
  0.625000   0.375000 0
  0.875000   0.500000 0
  0.625000   0.625000 0
  1.000000   0.500000 0
  0.750000   0.500000 0
  0.750000   1.000000 0
  1.000000   0.125000 0
  0.625000   0.250000 0
  0.750000   0.750000 0
  0.625000   0.000000 0
  0.125000   0.375000 0
  0.000000   0.500000 0
  0.125000   0.625000 0
  0.625000   1.000000 0
  1.000000   0.875000 0
  0.875000   0.125000 0
  0.500000   0.250000 0
  0.625000   0.500000 0
  0.250000   0.625000 0
  0.000000   0.625000 0
  0.375000   0.500000 0
  0.375000   0.000000 0
  0.000000   0.125000 0
  0.125000   0.875000 0
  0.875000   1.000000 0
  0.750000   0.250000 0
  0.375000   0.375000 0
  0.250000   0.375000 0
  0.625000   0.750000 0
  0.125000   0.125000 0
  0.500000   0.000000 0
  0.250000   0.875000 0
  0.125000   0.500000 0
  0.500000   0.375000 0
  0.125000   0.000000 0
  0.250000   0.750000 0
  0.250000   0.500000 0
  0.000000   0.875000 0
  0.875000   0.625000 0
  0.500000   0.750000 0
  0.750000   0.625000 0
  0.250000   0.000000 0
  0.375000   0.750000 0
  0.750000   0.875000 0
  0.625000   0.125000 0
  0.250000   0.250000 0
  0.375000   1.000000 0
  0.375000   0.250000 0
  0.000000   0.375000 0
  0.500000   1.000000 0
  0.875000   0.750000 0
  0.750000   0.000000 0
  0.375000   0.125000 0
  0.500000   0.875000 0
  0.000000   0.000000 0
  0.125000   0.750000 0
  0.500000   0.625000 0
  0.125000   0.250000 0
  0.500000   0.125000 0
  0.250000   1.000000 0
  0.250000   0.125000 0
  0.000000   1.000000 0
  0.375000   0.875000 0
  0.000000   0.750000 0
  0.375000   0.625000 0
  0.000000   0.250000 0
  0.125000   1.000000 0
  1.000000   0.375000 0
  0.500000   0.500000 0
  0.875000   0.375000 0
CELLS 64 320
4 56 71 58 63
4 27 58 69 63
4 41 69 32 63
4 76 33 68 40
4 27 44 58 37
4 79 31 44 37
4 56 38 68 21
4 56 58 38 37
4 52 32 71 63
4 47 38 31 37
4 76 68 59 21
4 22 59 43 21
4 65 45 33 40
4 47 43 38 21
4 52 71 45 40
4 56 68 71 40
4 74 30 66 23
4 46 66 29 23
4 22 43 30 23
4 72 48 77 34
4 46 53 42 73
4 50 64 53 73
4 70 42 57 73
4 74 66 48 34
4 46 42 66 34
4 47 29 43 23
4 70 77 42 34
4 60 57 64 73
4 79 67 31 75
4 47 31 29 75
4 50 53 67 75
4 46 29 53 75
4 10 78 6 80
4 36 6 1 80
4 15 1 12 80
4 36 4 6 26
4 14 12 78 80
4 2 17 9 26
4 36 18 4 55
4 15 28 1 11
4 62 4 20 55
4 10 6 17 26
4 27 18 44 11
4 62 9 4 26
4 27 69 18 55
4 36 1 18 11
4 41 20 69 55
4 79 44 28 11
4 16 24 54 7
4 19 54 39 7
4 50 39 64 7
4 8 25 61 3
4 60 64 24 7
4 79 28 67 13
4 19 51 61 49
4 8 61 0 49
4 15 51 28 13
4 19 39 51 13
4 50 67 39 13
4 19 61 54 3
4 14 0 12 49
4 5 35 25 3
4 15 12 51 49
4 16 54 35 3
CELL_TYPES 64
8
8
8
8
8
8
8
8
8
8
8
8
8
8
8
8
8
8
8
8
8
8
8
8
8
8
8
8
8
8
8
8
8
8
8
8
8
8
8
8
8
8
8
8
8
8
8
8
8
8
8
8
8
8
8
8
8
8
8
8
8
8
8
8
CELL_DATA 64
VECTORS vector_value float
0.0301124 -0.126605 0
0.300757 -1.563 0
0.121023 -0.919574 0
0.200365 -0.44504 0
1.43111 -2.88214 0
0.307649 -2.83405 0
0.131191 -0.330084 0
0.392221 -0.524108 0
0.0403687 -0.322669 0
0.725152 -1.00662 0
0.0296282 -0.747965 0
-0.245498 -0.395862 0
0.00841594 -0.112645 0
-0.207922 -1.06124 0
0.0968968 -0.789773 0
0.219692 -0.608712 0
0.0304655 -0.164188 0
0.0313643 -0.83934 0
0.0104983 -0.0929025 0
0.280263 -0.533792 0
0.196506 -1.28793 0
-0.0123369 -0.252603 0
-0.789417 -1.27562 0
0.130943 -0.381892 0
0.871394 -2.38662 0
-0.128371 -1.14593 0
-0.00562768 -1.81943 0
-0.650906 -0.723936 0
0.11852 -0.494963 0
0.155507 -2.34577 0
0.219477 -0.319781 0
0.692526 -2.90195 0
0.00519752 -0.0697721 0
0.00928007 -0.0275708 0
-0.00417104 -0.0493983 0
0.109113 -0.106743 0
0.00693227 -0.0497092 0
0.0535994 -0.217754 0
0.367772 -0.885985 0
-0.666522 -1.49857 0
0.520343 -1.58518 0
0.0273858 -0.111395 0
0.730342 -2.93078 0
0.167619 -0.243062 0
0.798644 -4.15252 0
0.0972955 -0.48758 0
0.47767 -3.80934 0
-0.388978 -1.10455 0
0.801728 -0.997792 0
0.0686981 -0.342732 0
0.0283004 -0.10485 0
0.119447 -1.27387 0
0.112153 -0.136913 0
-1.1517 -1.52309 0
-1.87525 -1.88765 0
-0.499816 -0.723649 0
-1.36382 -2.05945 0
-0.985364 -0.832838 0
-0.0761504 -0.330601 0
0.34194 -1.9695 0
-0.0346418 -0.100949 0
-0.0602943 -0.880144 0
-0.189951 -0.236939 0
0.308643 -1.63238 0
