# vtk DataFile Version 2.0
Unstructured Grid by M++
ASCII
DATASET UNSTRUCTURED_GRID
POINTS 81 float
  1.000000   0.625000 0
  0.750000   0.375000 0
  1.000000   0.000000 0
  0.875000   0.875000 0
  0.750000   0.125000 0
  1.000000   1.000000 0
  0.875000   0.250000 0
  0.625000   0.875000 0
  1.000000   0.750000 0
  0.875000   0.000000 0
  1.000000   0.250000 0
  0.625000   0.375000 0
  0.875000   0.500000 0
  0.625000   0.625000 0
  1.000000   0.500000 0
  0.750000   0.500000 0
  0.750000   1.000000 0
  1.000000   0.125000 0
  0.625000   0.250000 0
  0.750000   0.750000 0
  0.625000   0.000000 0
  0.125000   0.375000 0
  0.000000   0.500000 0
  0.125000   0.625000 0
  0.625000   1.000000 0
  1.000000   0.875000 0
  0.875000   0.125000 0
  0.500000   0.250000 0
  0.625000   0.500000 0
  0.250000   0.625000 0
  0.000000   0.625000 0
  0.375000   0.500000 0
  0.375000   0.000000 0
  0.000000   0.125000 0
  0.125000   0.875000 0
  0.875000   1.000000 0
  0.750000   0.250000 0
  0.375000   0.375000 0
  0.250000   0.375000 0
  0.625000   0.750000 0
  0.125000   0.125000 0
  0.500000   0.000000 0
  0.250000   0.875000 0
  0.125000   0.500000 0
  0.500000   0.375000 0
  0.125000   0.000000 0
  0.250000   0.750000 0
  0.250000   0.500000 0
  0.000000   0.875000 0
  0.875000   0.625000 0
  0.500000   0.750000 0
  0.750000   0.625000 0
  0.250000   0.000000 0
  0.375000   0.750000 0
  0.750000   0.875000 0
  0.625000   0.125000 0
  0.250000   0.250000 0
  0.375000   1.000000 0
  0.375000   0.250000 0
  0.000000   0.375000 0
  0.500000   1.000000 0
  0.875000   0.750000 0
  0.750000   0.000000 0
  0.375000   0.125000 0
  0.500000   0.875000 0
  0.000000   0.000000 0
  0.125000   0.750000 0
  0.500000   0.625000 0
  0.125000   0.250000 0
  0.500000   0.125000 0
  0.250000   1.000000 0
  0.250000   0.125000 0
  0.000000   1.000000 0
  0.375000   0.875000 0
  0.000000   0.750000 0
  0.375000   0.625000 0
  0.000000   0.250000 0
  0.125000   1.000000 0
  1.000000   0.375000 0
  0.500000   0.500000 0
  0.875000   0.375000 0
CELLS 64 320
4 56 71 58 63
4 27 58 69 63
4 41 69 32 63
4 76 33 68 40
4 27 44 58 37
4 79 31 44 37
4 56 38 68 21
4 56 58 38 37
4 52 32 71 63
4 47 38 31 37
4 76 68 59 21
4 22 59 43 21
4 65 45 33 40
4 47 43 38 21
4 52 71 45 40
4 56 68 71 40
4 74 30 66 23
4 46 66 29 23
4 22 43 30 23
4 72 48 77 34
4 46 53 42 73
4 50 64 53 73
4 70 42 57 73
4 74 66 48 34
4 46 42 66 34
4 47 29 43 23
4 70 77 42 34
4 60 57 64 73
4 79 67 31 75
4 47 31 29 75
4 50 53 67 75
4 46 29 53 75
4 10 78 6 80
4 36 6 1 80
4 15 1 12 80
4 36 4 6 26
4 14 12 78 80
4 2 17 9 26
4 36 18 4 55
4 15 28 1 11
4 62 4 20 55
4 10 6 17 26
4 27 18 44 11
4 62 9 4 26
4 27 69 18 55
4 36 1 18 11
4 41 20 69 55
4 79 44 28 11
4 16 24 54 7
4 19 54 39 7
4 50 39 64 7
4 8 25 61 3
4 60 64 24 7
4 79 28 67 13
4 19 51 61 49
4 8 61 0 49
4 15 51 28 13
4 19 39 51 13
4 50 67 39 13
4 19 61 54 3
4 14 0 12 49
4 5 35 25 3
4 15 12 51 49
4 16 54 35 3
CELL_TYPES 64
8
8
8
8
8
8
8
8
8
8
8
8
8
8
8
8
8
8
8
8
8
8
8
8
8
8
8
8
8
8
8
8
8
8
8
8
8
8
8
8
8
8
8
8
8
8
8
8
8
8
8
8
8
8
8
8
8
8
8
8
8
8
8
8
CELL_DATA 64
VECTORS vector_value float
0.0605262 -0.255755 0
0.0782247 -0.92716 0
-0.327531 -1.52641 0
0.00228099 -0.505106 0
0.152772 -0.599402 0
0.427525 -0.231222 0
0.0353291 -0.126848 0
0.213726 -0.550461 0
-0.0353406 -0.243865 0
0.613796 -0.62365 0
-0.00971658 -0.516243 0
-0.161571 -0.314614 0
0.00547359 -0.494669 0
0.15892 -0.751761 0
-0.0121667 -0.120155 0
0.00679645 -0.0802898 0
-0.00546636 -0.0378136 0
-0.359645 -0.859477 0
-0.0574304 -0.107895 0
0.474798 -0.447037 0
0.793352 -2.99545 0
0.409265 -0.80377 0
-0.0498604 -1.74191 0
0.00520916 -0.0453112 0
0.0200638 -0.395179 0
-0.104269 -1.3438 0
1.1982 -1.41886 0
-0.357878 -0.376977 0
0.211883 -0.213878 0
0.173829 -0.584604 0
1.22925 -0.685638 0
-0.0126753 -1.68232 0
-0.0627214 -0.860674 0
-1.62935 -2.72239 0
-0.113885 -3.24069 0
-0.0779598 -0.40256 0
-0.286117 -1.49231 0
-0.0170436 -1.01441 0
-1.33248 -2.67147 0
0.0687932 -0.227172 0
-0.233183 -1.03743 0
-0.00216473 -1.10547 0
-0.0352253 -0.430333 0
-0.0350217 -0.416879 0
-1.18516 -2.05219 0
-1.38427 -2.19364 0
-0.812631 -3.14618 0
0.543102 -1.11858 0
0.25474 -1.35733 0
0.0637618 -0.545637 0
-0.169285 -0.717122 0
-0.0297268 -0.76139 0
0.147591 -0.645001 0
0.277541 -0.868047 0
1.24987 -2.42796 0
0.378575 -0.902497 0
0.461008 -0.746886 0
1.51277 -0.602861 0
1.64044 -0.801433 0
0.114507 -1.73614 0
0.116907 -1.88895 0
-0.0933417 -0.922284 0
0.163422 -2.24594 0
0.045429 -1.0906 0
