# vtk DataFile Version 2.0
Unstructured Grid by M++
ASCII
DATASET UNSTRUCTURED_GRID
POINTS 81 float
  1.000000   0.625000 0
  0.750000   0.375000 0
  1.000000   0.000000 0
  0.875000   0.875000 0
  0.750000   0.125000 0
  1.000000   1.000000 0
  0.875000   0.250000 0
  0.625000   0.875000 0
  1.000000   0.750000 0
  0.875000   0.000000 0
  1.000000   0.250000 0
  0.625000   0.375000 0
  0.875000   0.500000 0
  0.625000   0.625000 0
  1.000000   0.500000 0
  0.750000   0.500000 0
  0.750000   1.000000 0
  1.000000   0.125000 0
  0.625000   0.250000 0
  0.750000   0.750000 0
  0.625000   0.000000 0
  0.125000   0.375000 0
  0.000000   0.500000 0
  0.125000   0.625000 0
  0.625000   1.000000 0
  1.000000   0.875000 0
  0.875000   0.125000 0
  0.500000   0.250000 0
  0.625000   0.500000 0
  0.250000   0.625000 0
  0.000000   0.625000 0
  0.375000   0.500000 0
  0.375000   0.000000 0
  0.000000   0.125000 0
  0.125000   0.875000 0
  0.875000   1.000000 0
  0.750000   0.250000 0
  0.375000   0.375000 0
  0.250000   0.375000 0
  0.625000   0.750000 0
  0.125000   0.125000 0
  0.500000   0.000000 0
  0.250000   0.875000 0
  0.125000   0.500000 0
  0.500000   0.375000 0
  0.125000   0.000000 0
  0.250000   0.750000 0
  0.250000   0.500000 0
  0.000000   0.875000 0
  0.875000   0.625000 0
  0.500000   0.750000 0
  0.750000   0.625000 0
  0.250000   0.000000 0
  0.375000   0.750000 0
  0.750000   0.875000 0
  0.625000   0.125000 0
  0.250000   0.250000 0
  0.375000   1.000000 0
  0.375000   0.250000 0
  0.000000   0.375000 0
  0.500000   1.000000 0
  0.875000   0.750000 0
  0.750000   0.000000 0
  0.375000   0.125000 0
  0.500000   0.875000 0
  0.000000   0.000000 0
  0.125000   0.750000 0
  0.500000   0.625000 0
  0.125000   0.250000 0
  0.500000   0.125000 0
  0.250000   1.000000 0
  0.250000   0.125000 0
  0.000000   1.000000 0
  0.375000   0.875000 0
  0.000000   0.750000 0
  0.375000   0.625000 0
  0.000000   0.250000 0
  0.125000   1.000000 0
  1.000000   0.375000 0
  0.500000   0.500000 0
  0.875000   0.375000 0
CELLS 64 320
4 56 71 58 63
4 27 58 69 63
4 41 69 32 63
4 76 33 68 40
4 27 44 58 37
4 79 31 44 37
4 56 38 68 21
4 56 58 38 37
4 52 32 71 63
4 47 38 31 37
4 76 68 59 21
4 22 59 43 21
4 65 45 33 40
4 47 43 38 21
4 52 71 45 40
4 56 68 71 40
4 74 30 66 23
4 46 66 29 23
4 22 43 30 23
4 72 48 77 34
4 46 53 42 73
4 50 64 53 73
4 70 42 57 73
4 74 66 48 34
4 46 42 66 34
4 47 29 43 23
4 70 77 42 34
4 60 57 64 73
4 79 67 31 75
4 47 31 29 75
4 50 53 67 75
4 46 29 53 75
4 10 78 6 80
4 36 6 1 80
4 15 1 12 80
4 36 4 6 26
4 14 12 78 80
4 2 17 9 26
4 36 18 4 55
4 15 28 1 11
4 62 4 20 55
4 10 6 17 26
4 27 18 44 11
4 62 9 4 26
4 27 69 18 55
4 36 1 18 11
4 41 20 69 55
4 79 44 28 11
4 16 24 54 7
4 19 54 39 7
4 50 39 64 7
4 8 25 61 3
4 60 64 24 7
4 79 28 67 13
4 19 51 61 49
4 8 61 0 49
4 15 51 28 13
4 19 39 51 13
4 50 67 39 13
4 19 61 54 3
4 14 0 12 49
4 5 35 25 3
4 15 12 51 49
4 16 54 35 3
CELL_TYPES 64
8
8
8
8
8
8
8
8
8
8
8
8
8
8
8
8
8
8
8
8
8
8
8
8
8
8
8
8
8
8
8
8
8
8
8
8
8
8
8
8
8
8
8
8
8
8
8
8
8
8
8
8
8
8
8
8
8
8
8
8
8
8
8
8
CELL_DATA 64
VECTORS vector_value float
0.111283 -0.776314 0
-0.031309 -0.455329 0
0.0180449 -0.951855 0
-0.080169 -2.98597 0
-0.0380488 -0.163372 0
-0.133974 -0.484641 0
-0.790889 -1.34135 0
-0.326747 -0.88757 0
0.0283804 -0.4041 0
-0.679186 -1.74758 0
-0.238718 -2.62482 0
0.0262496 -2.45241 0
-0.105505 -3.26321 0
-0.0349877 -0.369318 0
-0.118677 -0.820313 0
-0.120334 -0.987938 0
0.0467396 -2.66946 0
0.113246 -0.120971 0
0.0495701 -2.57289 0
-0.529664 -1.06085 0
0.0184649 -0.138868 0
-0.132205 -1.35186 0
-1.08975 -0.807784 0
-0.317691 -2.60359 0
0.33302 -0.916264 0
0.0317862 -0.118448 0
-1.60631 -1.83624 0
-0.803124 -0.921544 0
-0.275861 -1.5121 0
-0.207321 -0.881344 0
-0.0640631 -1.10496 0
0.364036 -1.17151 0
0.0140299 -0.353729 0
0.0287482 -1.1199 0
-0.280816 -0.868968 0
-0.291198 -0.780628 0
-0.119727 -0.478742 0
-0.0132774 -0.412246 0
-0.166687 -0.932155 0
-0.265121 -1.50143 0
-0.19541 -1.64611 0
0.0185549 -0.49051 0
-0.203426 -0.44502 0
-0.100412 -0.277266 0
-0.19277 -0.591163 0
-0.197866 -1.06424 0
-0.0105722 -0.224904 0
-0.0401707 -0.0969058 0
0.0782753 -0.178574 0
0.0208937 -0.419659 0
0.00172404 -0.180536 0
-0.335701 -1.82985 0
-0.587942 -0.71954 0
-0.0171629 -0.0614895 0
-0.617308 -1.33184 0
-0.15182 -0.852825 0
-0.117411 -1.00424 0
-0.176675 -0.717182 0
-0.00336849 -0.0312515 0
-0.127038 -0.559372 0
-0.11306 -0.867139 0
0.40491 -1.61123 0
-0.224895 -0.982341 0
0.647062 -0.864237 0
