# vtk DataFile Version 2.0
Unstructured Grid by M++
ASCII
DATASET UNSTRUCTURED_GRID
POINTS 81 float
  1.000000   0.625000 0
  0.750000   0.375000 0
  1.000000   0.000000 0
  0.875000   0.875000 0
  0.750000   0.125000 0
  1.000000   1.000000 0
  0.875000   0.250000 0
  0.625000   0.875000 0
  1.000000   0.750000 0
  0.875000   0.000000 0
  1.000000   0.250000 0
  0.625000   0.375000 0
  0.875000   0.500000 0
  0.625000   0.625000 0
  1.000000   0.500000 0
  0.750000   0.500000 0
  0.750000   1.000000 0
  1.000000   0.125000 0
  0.625000   0.250000 0
  0.750000   0.750000 0
  0.625000   0.000000 0
  0.125000   0.375000 0
  0.000000   0.500000 0
  0.125000   0.625000 0
  0.625000   1.000000 0
  1.000000   0.875000 0
  0.875000   0.125000 0
  0.500000   0.250000 0
  0.625000   0.500000 0
  0.250000   0.625000 0
  0.000000   0.625000 0
  0.375000   0.500000 0
  0.375000   0.000000 0
  0.000000   0.125000 0
  0.125000   0.875000 0
  0.875000   1.000000 0
  0.750000   0.250000 0
  0.375000   0.375000 0
  0.250000   0.375000 0
  0.625000   0.750000 0
  0.125000   0.125000 0
  0.500000   0.000000 0
  0.250000   0.875000 0
  0.125000   0.500000 0
  0.500000   0.375000 0
  0.125000   0.000000 0
  0.250000   0.750000 0
  0.250000   0.500000 0
  0.000000   0.875000 0
  0.875000   0.625000 0
  0.500000   0.750000 0
  0.750000   0.625000 0
  0.250000   0.000000 0
  0.375000   0.750000 0
  0.750000   0.875000 0
  0.625000   0.125000 0
  0.250000   0.250000 0
  0.375000   1.000000 0
  0.375000   0.250000 0
  0.000000   0.375000 0
  0.500000   1.000000 0
  0.875000   0.750000 0
  0.750000   0.000000 0
  0.375000   0.125000 0
  0.500000   0.875000 0
  0.000000   0.000000 0
  0.125000   0.750000 0
  0.500000   0.625000 0
  0.125000   0.250000 0
  0.500000   0.125000 0
  0.250000   1.000000 0
  0.250000   0.125000 0
  0.000000   1.000000 0
  0.375000   0.875000 0
  0.000000   0.750000 0
  0.375000   0.625000 0
  0.000000   0.250000 0
  0.125000   1.000000 0
  1.000000   0.375000 0
  0.500000   0.500000 0
  0.875000   0.375000 0
CELLS 64 320
4 56 71 58 63
4 27 58 69 63
4 41 69 32 63
4 76 33 68 40
4 27 44 58 37
4 79 31 44 37
4 56 38 68 21
4 56 58 38 37
4 52 32 71 63
4 47 38 31 37
4 76 68 59 21
4 22 59 43 21
4 65 45 33 40
4 47 43 38 21
4 52 71 45 40
4 56 68 71 40
4 74 30 66 23
4 46 66 29 23
4 22 43 30 23
4 72 48 77 34
4 46 53 42 73
4 50 64 53 73
4 70 42 57 73
4 74 66 48 34
4 46 42 66 34
4 47 29 43 23
4 70 77 42 34
4 60 57 64 73
4 79 67 31 75
4 47 31 29 75
4 50 53 67 75
4 46 29 53 75
4 10 78 6 80
4 36 6 1 80
4 15 1 12 80
4 36 4 6 26
4 14 12 78 80
4 2 17 9 26
4 36 18 4 55
4 15 28 1 11
4 62 4 20 55
4 10 6 17 26
4 27 18 44 11
4 62 9 4 26
4 27 69 18 55
4 36 1 18 11
4 41 20 69 55
4 79 44 28 11
4 16 24 54 7
4 19 54 39 7
4 50 39 64 7
4 8 25 61 3
4 60 64 24 7
4 79 28 67 13
4 19 51 61 49
4 8 61 0 49
4 15 51 28 13
4 19 39 51 13
4 50 67 39 13
4 19 61 54 3
4 14 0 12 49
4 5 35 25 3
4 15 12 51 49
4 16 54 35 3
CELL_TYPES 64
8
8
8
8
8
8
8
8
8
8
8
8
8
8
8
8
8
8
8
8
8
8
8
8
8
8
8
8
8
8
8
8
8
8
8
8
8
8
8
8
8
8
8
8
8
8
8
8
8
8
8
8
8
8
8
8
8
8
8
8
8
8
8
8
CELL_DATA 64
VECTORS vector_value float
0.452412 -0.478686 0
-0.543984 -1.72273 0
-0.211254 -3.0126 0
-0.0231435 -0.176744 0
0.0136376 -0.471169 0
0.135677 -0.447213 0
0.63309 -0.816298 0
0.200427 -0.252452 0
0.130366 -0.650582 0
0.0331471 -0.33041 0
0.502482 -0.922855 0
-0.00439388 -1.25739 0
-0.0325293 -0.277786 0
-0.130393 -0.554169 0
0.0292537 -0.564645 0
0.295845 -1.06194 0
0.052445 -1.03858 0
0.111687 -0.406215 0
-0.0705548 -1.12608 0
-0.212658 -1.37516 0
0.106701 -0.893718 0
0.174222 -1.15469 0
0.509894 -0.951357 0
0.144038 -1.31189 0
0.126688 -0.182905 0
-0.147865 -0.352221 0
0.026463 -0.233539 0
0.449613 -1.2177 0
0.208615 -0.661814 0
-0.153022 -0.767358 0
0.238951 -1.04441 0
0.0740807 -0.733896 0
-0.000670604 -0.06095 0
-0.00851198 -0.0497092 0
-0.122396 -0.237439 0
0.00257477 -0.0473333 0
-0.00273141 -0.0566164 0
0.0111943 -0.0759644 0
1.08667 -1.47156 0
-0.63514 -1.29431 0
0.486822 -0.990238 0
-0.00073121 -0.0568764 0
-0.260595 -4.89198 0
0.805869 -1.36094 0
-0.0961357 -2.98413 0
-0.0563241 -0.534591 0
-0.0193825 -1.06724 0
-0.531261 -3.82245 0
-0.717126 -1.58237 0
-0.0879377 -1.15799 0
0.0120474 -2.18185 0
-0.127102 -0.890934 0
-0.0212764 -1.28073 0
-0.325798 -1.75255 0
-0.375606 -0.478344 0
-0.193667 -0.440921 0
-1.03758 -2.67841 0
0.473772 -2.33442 0
0.699936 -1.52321 0
-0.107184 -0.226025 0
-0.138504 -0.169478 0
-0.00794084 -1.17631 0
-0.383159 -0.492085 0
-0.420841 -0.182836 0
