# vtk DataFile Version 2.0
Unstructured Grid by M++
ASCII
DATASET UNSTRUCTURED_GRID
POINTS 289 float
  0.562500   1.000000 0
  0.562500   0.625000 0
  0.625000   1.000000 0
  0.562500   0.937500 0
  0.562500   0.562500 0
  0.625000   0.937500 0
  0.562500   0.875000 0
  0.625000   0.750000 0
  0.625000   0.625000 0
  0.562500   0.812500 0
  0.562500   0.750000 0
  0.562500   0.687500 0
  0.625000   0.875000 0
  0.625000   0.812500 0
  0.625000   0.687500 0
  0.687500   0.125000 0
  0.875000   0.062500 0
  0.625000   0.125000 0
  0.625000   0.187500 0
  0.625000   0.250000 0
  0.812500   0.187500 0
  1.000000   0.125000 0
  0.687500   0.187500 0
  0.750000   0.125000 0
  0.937500   0.062500 0
  0.937500   0.125000 0
  0.750000   0.187500 0
  0.812500   0.062500 0
  0.812500   0.125000 0
  0.875000   0.687500 0
  0.187500   0.250000 0
  0.437500   0.250000 0
  0.375000   0.187500 0
  0.812500   0.625000 0
  0.125000   0.187500 0
  0.937500   0.750000 0
  0.250000   0.312500 0
  0.500000   0.312500 0
  0.625000   0.062500 0
  0.437500   0.500000 0
  0.375000   0.125000 0
  0.437500   0.187500 0
  0.437500   0.437500 0
  0.437500   0.375000 0
  0.875000   0.875000 0
  0.187500   0.375000 0
  0.687500   0.562500 0
  0.687500   0.625000 0
  0.000000   0.125000 0
  0.937500   0.625000 0
  0.250000   0.125000 0
  0.375000   0.062500 0
  0.375000   0.000000 0
  0.812500   0.500000 0
  0.125000   0.000000 0
  0.937500   0.937500 0
  0.250000   0.437500 0
  0.687500   0.875000 0
  0.687500   0.937500 0
  0.000000   0.437500 0
  0.500000   0.500000 0
  0.500000   0.437500 0
  0.750000   0.937500 0
  0.750000   1.000000 0
  0.062500   0.500000 0
  1.000000   1.000000 0
  0.312500   0.500000 0
  0.875000   0.562500 0
  0.187500   0.062500 0
  0.437500   0.125000 0
  0.437500   0.062500 0
  0.500000   0.375000 0
  0.937500   0.812500 0
  0.937500   0.875000 0
  0.250000   0.375000 0
  0.687500   0.812500 0
  0.000000   0.375000 0
  0.750000   0.562500 0
  0.062500   0.125000 0
  1.000000   0.562500 0
  1.000000   0.625000 0
  0.312500   0.125000 0
  0.562500   0.125000 0
  0.437500   0.000000 0
  0.875000   0.437500 0
  0.875000   0.500000 0
  0.187500   0.000000 0
  0.937500   0.562500 0
  0.937500   0.500000 0
  0.250000   0.062500 0
  0.687500   0.500000 0
  0.000000   0.062500 0
  0.500000   0.062500 0
  1.000000   0.875000 0
  1.000000   0.937500 0
  0.312500   0.437500 0
  0.750000   0.875000 0
  0.062500   0.437500 0
  0.812500   0.937500 0
  0.125000   0.500000 0
  0.375000   0.500000 0
  0.625000   0.562500 0
  0.625000   0.500000 0
  0.437500   0.312500 0
  0.875000   0.812500 0
  0.875000   0.750000 0
  0.187500   0.312500 0
  0.812500   0.687500 0
  0.812500   0.750000 0
  0.125000   0.250000 0
  0.375000   0.250000 0
  1.000000   0.687500 0
  0.312500   0.187500 0
  0.750000   0.687500 0
  0.750000   0.625000 0
  0.062500   0.187500 0
  0.562500   0.250000 0
  0.562500   0.187500 0
  0.375000   1.000000 0
  0.500000   0.562500 0
  0.500000   0.250000 0
  0.750000   0.250000 0
  0.500000   0.125000 0
  0.500000   0.187500 0
  1.000000   0.187500 0
  0.625000   0.375000 0
  0.875000   0.375000 0
  1.000000   0.437500 0
  0.312500   0.000000 0
  0.562500   0.000000 0
  0.812500   0.000000 0
  0.250000   0.687500 0
  0.000000   0.687500 0
  0.500000   1.000000 0
  0.250000   1.000000 0
  0.000000   1.000000 0
  0.437500   0.687500 0
  0.437500   0.625000 0
  0.187500   0.625000 0
  0.687500   0.750000 0
  0.000000   0.312500 0
  0.000000   0.250000 0
  0.375000   0.375000 0
  0.375000   0.312500 0
  0.812500   0.812500 0
  0.125000   0.312500 0
  0.875000   0.625000 0
  0.187500   0.187500 0
  0.187500   0.125000 0
  0.937500   1.000000 0
  0.250000   0.562500 0
  0.250000   0.500000 0
  0.687500   1.000000 0
  0.000000   0.500000 0
  0.687500   0.687500 0
  0.000000   0.187500 0
  0.937500   0.687500 0
  0.250000   0.250000 0
  0.250000   0.187500 0
  0.187500   0.687500 0
  0.000000   0.750000 0
  0.250000   0.750000 0
  0.125000   0.625000 0
  0.750000   0.750000 0
  0.062500   0.250000 0
  0.875000   0.937500 0
  0.187500   0.500000 0
  0.187500   0.437500 0
  0.812500   0.562500 0
  0.125000   0.125000 0
  0.125000   0.062500 0
  0.375000   0.625000 0
  0.375000   0.687500 0
  1.000000   0.750000 0
  0.312500   0.250000 0
  0.312500   0.312500 0
  0.812500   0.312500 0
  0.562500   0.312500 0
  0.375000   0.750000 0
  0.500000   0.625000 0
  0.250000   0.625000 0
  0.312500   0.687500 0
  0.750000   0.812500 0
  0.062500   0.312500 0
  0.062500   0.375000 0
  1.000000   0.812500 0
  0.312500   0.375000 0
  0.562500   0.375000 0
  0.687500   0.437500 0
  0.000000   0.000000 0
  0.500000   0.000000 0
  0.937500   0.437500 0
  0.250000   0.000000 0
  0.375000   0.437500 0
  0.812500   0.875000 0
  0.125000   0.375000 0
  0.125000   0.437500 0
  0.625000   0.437500 0
  1.000000   0.500000 0
  0.312500   0.062500 0
  0.750000   0.500000 0
  0.062500   0.000000 0
  0.062500   0.062500 0
  0.562500   0.062500 0
  0.062500   0.750000 0
  0.312500   0.750000 0
  0.312500   0.625000 0
  0.312500   0.562500 0
  0.062500   0.562500 0
  0.187500   1.000000 0
  0.437500   0.562500 0
  0.875000   1.000000 0
  0.187500   0.562500 0
  0.500000   0.937500 0
  0.250000   0.937500 0
  0.312500   1.000000 0
  0.125000   0.750000 0
  0.125000   0.687500 0
  1.000000   0.000000 0
  0.000000   0.937500 0
  0.000000   0.875000 0
  0.875000   0.125000 0
  0.875000   0.187500 0
  0.062500   0.812500 0
  0.312500   0.812500 0
  0.000000   0.812500 0
  0.000000   0.625000 0
  0.000000   0.562500 0
  0.062500   1.000000 0
  0.062500   0.937500 0
  0.937500   0.187500 0
  0.937500   0.250000 0
  0.062500   0.687500 0
  0.062500   0.625000 0
  0.125000   1.000000 0
  1.000000   0.250000 0
  1.000000   0.312500 0
  0.062500   0.875000 0
  0.125000   0.812500 0
  0.375000   0.812500 0
  0.125000   0.875000 0
  0.375000   0.937500 0
  0.375000   0.875000 0
  0.187500   0.750000 0
  0.187500   0.812500 0
  0.437500   0.812500 0
  0.187500   0.875000 0
  0.437500   0.875000 0
  0.375000   0.562500 0
  0.812500   1.000000 0
  0.125000   0.562500 0
  0.437500   1.000000 0
  0.437500   0.937500 0
  0.187500   0.937500 0
  0.125000   0.937500 0
  0.500000   0.687500 0
  0.500000   0.750000 0
  0.500000   0.812500 0
  0.250000   0.812500 0
  0.250000   0.875000 0
  0.500000   0.875000 0
  0.437500   0.750000 0
  0.312500   0.875000 0
  0.312500   0.937500 0
  0.687500   0.250000 0
  0.687500   0.312500 0
  0.937500   0.312500 0
  0.875000   0.250000 0
  0.625000   0.000000 0
  0.875000   0.000000 0
  0.687500   0.375000 0
  0.937500   0.375000 0
  0.875000   0.312500 0
  0.625000   0.312500 0
  0.687500   0.000000 0
  0.937500   0.000000 0
  0.750000   0.312500 0
  0.750000   0.375000 0
  1.000000   0.375000 0
  0.812500   0.250000 0
  0.562500   0.437500 0
  0.562500   0.500000 0
  0.687500   0.062500 0
  0.750000   0.437500 0
  0.750000   0.000000 0
  0.750000   0.062500 0
  1.000000   0.062500 0
  0.812500   0.375000 0
  0.812500   0.437500 0
CELLS 256 1280
4 169 170 148 68
4 151 166 56 167
4 195 45 196 167
4 54 170 201 202
4 109 34 30 147
4 40 32 81 112
4 192 89 86 68
4 48 91 78 202
4 99 64 196 97
4 71 43 37 103
4 74 186 56 95
4 109 164 34 115
4 50 81 158 112
4 122 69 92 70
4 195 145 45 106
4 110 143 174 175
4 157 30 158 147
4 40 69 32 41
4 50 158 148 147
4 141 155 164 115
4 122 123 69 41
4 142 186 143 175
4 60 39 61 42
4 40 51 69 70
4 120 31 123 41
4 157 174 36 175
4 50 148 89 68
4 48 78 155 115
4 52 83 51 70
4 151 56 66 95
4 71 61 43 42
4 169 148 34 147
4 100 193 39 42
4 40 81 51 199
4 110 174 32 112
4 109 30 145 106
4 100 66 193 95
4 169 34 78 115
4 190 92 83 70
4 50 89 81 199
4 54 86 170 68
4 74 56 45 167
4 142 143 43 103
4 153 59 64 97
4 99 196 166 167
4 169 78 170 202
4 142 193 186 95
4 192 128 89 199
4 74 45 36 106
4 110 31 143 103
4 76 184 59 97
4 142 43 193 42
4 52 51 128 199
4 189 201 91 202
4 120 37 31 103
4 74 36 186 175
4 195 196 184 97
4 141 164 140 183
4 157 158 174 112
4 109 145 164 183
4 195 184 145 183
4 110 32 31 41
4 157 36 30 106
4 76 140 184 183
4 171 172 206 181
4 178 172 261 136
4 256 261 255 136
4 256 257 261 245
4 180 150 206 207
4 60 119 39 210
4 118 215 241 263
4 178 205 172 181
4 216 243 238 244
4 162 217 233 232
4 180 206 131 181
4 179 137 119 210
4 216 204 217 232
4 220 237 219 229
4 216 217 243 159
4 259 258 262 224
4 240 254 237 229
4 153 64 227 208
4 161 205 258 224
4 240 237 238 223
4 226 227 233 208
4 234 228 254 229
4 171 248 137 210
4 160 132 204 232
4 180 131 138 159
4 133 251 213 252
4 171 206 248 207
4 162 138 217 159
4 161 258 243 244
4 220 225 237 223
4 151 150 166 212
4 260 247 257 245
4 259 262 214 263
4 151 66 150 207
4 234 254 209 253
4 162 233 250 208
4 242 241 262 263
4 171 137 172 136
4 161 243 131 159
4 160 204 225 223
4 161 131 205 181
4 179 255 137 136
4 216 238 204 223
4 100 39 248 210
4 260 213 247 252
4 226 233 132 232
4 134 214 215 263
4 180 138 150 212
4 178 261 239 245
4 259 246 258 244
4 178 239 205 224
4 240 238 246 244
4 242 262 239 224
4 99 250 64 208
4 240 246 254 253
4 242 239 247 245
4 135 219 228 229
4 99 166 250 212
4 259 214 246 253
4 118 241 251 252
4 100 248 66 207
4 134 209 214 253
4 162 250 138 212
4 242 247 241 252
4 71 187 61 280
4 102 281 197 280
4 122 92 82 203
4 17 18 82 117
4 122 82 123 117
4 19 264 273 265
4 267 279 222 20
4 125 273 270 265
4 267 272 279 176
4 19 116 18 117
4 21 25 286 24
4 23 28 26 20
4 23 285 28 27
4 218 286 275 24
4 85 53 84 288
4 235 236 231 266
4 221 222 28 20
4 267 222 231 230
4 268 38 129 203
4 125 270 197 188
4 126 287 272 176
4 277 270 276 265
4 267 231 272 266
4 125 197 187 280
4 190 129 92 203
4 277 276 287 176
4 19 18 264 22
4 17 82 38 203
4 102 197 90 188
4 126 84 287 288
4 284 130 285 27
4 121 276 264 265
4 71 37 187 177
4 120 123 116 117
4 198 88 127 191
4 221 16 25 24
4 23 26 15 22
4 121 279 276 176
4 235 231 124 230
4 125 187 273 177
4 278 271 236 266
4 277 287 283 288
4 284 285 274 282
4 278 127 271 191
4 269 275 16 24
4 200 283 53 288
4 23 15 285 282
4 121 26 279 20
4 21 124 25 230
4 19 273 116 177
4 200 90 283 188
4 126 271 84 191
4 269 16 130 27
4 17 38 15 282
4 221 25 222 230
4 121 264 26 22
4 120 116 37 177
4 60 61 281 280
4 277 283 270 188
4 126 272 271 266
4 268 274 38 282
4 85 84 88 191
4 17 15 18 22
4 221 28 16 27
4 93 94 73 55
4 85 88 67 87
4 80 49 79 87
4 44 104 73 72
4 146 33 67 168
4 211 165 149 55
4 8 47 14 154
4 105 104 108 144
4 105 108 29 107
4 7 139 13 75
4 44 165 194 98
4 200 53 77 168
4 8 1 101 4
4 2 5 152 58
4 260 6 213 3
4 105 35 104 72
4 96 57 182 75
4 7 14 139 154
4 146 29 33 107
4 7 13 10 9
4 12 13 57 75
4 85 67 53 168
4 44 73 165 55
4 63 152 62 58
4 8 101 47 46
4 96 182 194 144
4 60 281 119 4
4 12 5 6 3
4 173 185 35 72
4 65 149 94 55
4 146 67 49 87
4 114 113 47 154
4 163 108 182 144
4 12 6 13 9
4 173 35 111 156
4 163 182 139 75
4 260 257 6 9
4 105 29 35 156
4 163 139 113 154
4 256 10 257 9
4 146 49 29 156
4 163 113 108 107
4 80 111 49 156
4 102 101 281 4
4 12 57 5 58
4 44 194 104 144
4 96 194 62 98
4 2 0 5 3
4 93 73 185 72
4 179 119 1 4
4 200 77 90 46
4 114 33 113 107
4 7 10 14 11
4 96 62 57 58
4 133 213 0 3
4 102 90 101 46
4 256 255 10 11
4 63 62 249 98
4 114 47 77 46
4 179 1 255 11
4 211 249 165 98
4 114 77 33 168
4 198 79 88 87
4 8 14 1 11
CELL_TYPES 256
8
8
8
8
8
8
8
8
8
8
8
8
8
8
8
8
8
8
8
8
8
8
8
8
8
8
8
8
8
8
8
8
8
8
8
8
8
8
8
8
8
8
8
8
8
8
8
8
8
8
8
8
8
8
8
8
8
8
8
8
8
8
8
8
8
8
8
8
8
8
8
8
8
8
8
8
8
8
8
8
8
8
8
8
8
8
8
8
8
8
8
8
8
8
8
8
8
8
8
8
8
8
8
8
8
8
8
8
8
8
8
8
8
8
8
8
8
8
8
8
8
8
8
8
8
8
8
8
8
8
8
8
8
8
8
8
8
8
8
8
8
8
8
8
8
8
8
8
8
8
8
8
8
8
8
8
8
8
8
8
8
8
8
8
8
8
8
8
8
8
8
8
8
8
8
8
8
8
8
8
8
8
8
8
8
8
8
8
8
8
8
8
8
8
8
8
8
8
8
8
8
8
8
8
8
8
8
8
8
8
8
8
8
8
8
8
8
8
8
8
8
8
8
8
8
8
8
8
8
8
8
8
8
8
8
8
8
8
8
8
8
8
8
8
8
8
8
8
8
8
8
8
8
8
8
8
CELL_DATA 256
VECTORS vector_value float
0.0180748 -0.130057 0
0.910868 -1.06877 0
0.72389 -0.61593 0
-0.00175369 -0.0500712 0
0.0371699 -0.0694203 0
-0.368756 -1.39882 0
-0.130063 -0.492226 0
0.00333595 -0.0492127 0
0.446305 -0.508212 0
-0.658301 -2.85789 0
1.6158 -1.51008 0
0.050746 -0.111877 0
-0.139907 -0.393024 0
-0.118358 -4.70142 0
0.349404 -0.237192 0
0.978229 -1.70068 0
0.0321784 -0.107408 0
-0.224248 -3.15325 0
-0.00939822 -0.147476 0
0.0296252 -0.112911 0
0.451261 -5.80034 0
1.65645 -1.96949 0
-0.127806 -0.90887 0
-0.646906 -2.93068 0
0.726461 -6.20704 0
0.326695 -0.37622 0
-0.0738256 -0.26507 0
0.00853704 -0.064871 0
-0.248344 -2.51444 0
0.645249 -1.47167 0
-0.310407 -1.10919 0
0.0266621 -0.0859824 0
-0.00578894 -1.49966 0
-0.556891 -1.51091 0
0.0142063 -1.22506 0
0.0891538 -0.0974539 0
0.337458 -1.35494 0
0.0313155 -0.111171 0
-0.0887726 -4.31937 0
-0.311517 -0.702534 0
-0.0077566 -0.171243 0
1.2586 -1.02114 0
1.10935 -3.61017 0
0.167087 -0.696256 0
0.900349 -1.18284 0
0.0176403 -0.0800328 0
1.33484 -1.69605 0
-0.290061 -0.954394 0
0.780771 -0.53203 0
1.20438 -4.31843 0
0.130721 -0.36146 0
0.487101 -2.34547 0
-0.421558 -1.85316 0
-0.00844129 -0.0629944 0
0.0282692 -5.00738 0
1.31258 -0.910019 0
0.375627 -0.371951 0
0.0212546 -0.154966 0
0.0247491 -0.285258 0
0.0574061 -0.117067 0
0.161844 -0.207745 0
0.423045 -3.94076 0
0.134164 -0.153078 0
0.0449571 -0.198218 0
0.0403737 -0.835959 0
0.356707 -1.53852 0
0.264663 -1.07742 0
0.196342 -0.653651 0
0.0947336 -0.540621 0
-0.147498 -1.13586 0
-0.881996 -0.865839 0
0.15695 -0.806999 0
-0.855845 -1.51466 0
0.130366 -1.60669 0
0.0706633 -0.388422 0
-0.207446 -1.30011 0
-0.734106 -1.53271 0
0.0278926 -0.367555 0
-0.500254 -1.18016 0
0.216535 -1.43727 0
0.0680333 -0.510169 0
0.193063 -1.10504 0
0.165691 -0.716999 0
-0.311136 -0.658628 0
0.179123 -1.49516 0
0.798708 -0.930183 0
-0.254554 -1.27323 0
-0.374742 -1.45088 0
0.0820528 -0.337306 0
-0.471847 -0.448624 0
-0.112955 -0.96067 0
0.14125 -0.969338 0
-0.443245 -1.26012 0
-0.052463 -0.371015 0
0.577302 -0.814877 0
-0.0966097 -0.473121 0
-0.191024 -1.69366 0
0.220816 -1.04814 0
0.808401 -1.01065 0
0.576181 -1.25153 0
-0.361575 -1.0622 0
0.0637216 -1.2186 0
-0.0787138 -0.568781 0
-0.217044 -0.715709 0
0.105328 -0.430487 0
0.112963 -1.44275 0
-0.754667 -1.23377 0
-0.224767 -1.27614 0
-0.325928 -0.393707 0
0.0195729 -1.72295 0
-0.668405 -1.40923 0
0.361648 -0.521928 0
0.631443 -1.39687 0
-0.455094 -1.90487 0
0.645722 -1.17347 0
-0.78414 -1.66194 0
0.451815 -1.20412 0
0.499168 -0.831491 0
0.0689436 -1.25212 0
0.14338 -0.921928 0
0.294617 -0.587284 0
0.624005 -1.30621 0
-0.168828 -2.36851 0
-0.867422 -1.05964 0
-0.140081 -1.17977 0
0.169484 -1.72815 0
0.660714 -1.20317 0
-0.329803 -0.734136 0
-1.22013 -1.54255 0
-0.314552 -1.14678 0
0.391449 -3.22268 0
0.104178 -0.556857 0
0.650143 -2.92593 0
-0.10271 -0.143142 0
-0.000117891 -0.495544 0
-0.70725 -0.446826 0
-0.0304453 -0.473608 0
-0.0563826 -0.340676 0
0.137681 -0.455429 0
-0.0265355 -0.149144 0
-0.0123964 -0.0867682 0
0.0553056 -0.661237 0
-0.358303 -0.652761 0
-0.072981 -0.202132 0
0.0696753 -0.389019 0
0.0278702 -0.444636 0
0.0444056 -1.38168 0
-1.77068 -1.06092 0
-0.0398044 -0.347211 0
-0.328327 -0.273607 0
-0.151993 -0.401492 0
-2.07975 -1.81252 0
0.0191433 -2.88845 0
-0.0954552 -0.349823 0
-0.0725193 -0.116133 0
0.259219 -1.10897 0
-0.892763 -1.29029 0
-0.117171 -0.333174 0
-0.0016096 -0.0522675 0
-0.0719688 -0.115723 0
-1.78148 -2.06718 0
0.228231 -2.16984 0
0.0288939 -0.606687 0
0.224495 -0.357289 0
-0.0621424 -0.0500609 0
-0.0262611 -0.204028 0
0.00774693 -0.11941 0
-1.47994 -1.30279 0
-0.138826 -0.455659 0
-0.41904 -0.675154 0
-0.00822398 -0.0362117 0
-0.0309967 -0.607399 0
0.054592 -0.278374 0
-0.87177 -1.09441 0
-0.0395405 -0.0369795 0
-0.0353935 -0.17315 0
0.0733807 -0.223671 0
-0.25472 -0.428062 0
-1.05111 -1.206 0
-0.0475608 -0.148829 0
0.0111557 -0.119878 0
-0.0325527 -0.12336 0
0.148059 -0.42175 0
-0.0601585 -0.0808807 0
-0.825653 -2.10655 0
-0.0838379 -1.06062 0
-1.01998 -0.788186 0
-0.147918 -0.234156 0
-0.000691244 -0.163999 0
-0.047878 -0.251235 0
-0.0768547 -0.128628 0
0.0987852 -0.238605 0
0.0406136 -0.930954 0
-0.0748092 -0.621046 0
0.00298947 -0.351969 0
-0.158479 -0.479212 0
-0.127224 -1.40624 0
-0.149153 -1.07824 0
0.102568 -0.683029 0
-0.090394 -0.807559 0
0.0917708 -0.964043 0
0.0733164 -1.00709 0
-0.367592 -1.07621 0
-0.549612 -1.03608 0
0.135008 -1.23994 0
-0.620019 -1.25632 0
-0.306027 -0.582519 0
-0.144096 -0.617492 0
-0.112671 -0.705095 0
0.0883934 -0.862123 0
0.276488 -1.22853 0
-0.115801 -1.46815 0
-0.100257 -0.973559 0
-0.5547 -1.26996 0
-0.115965 -0.793929 0
-0.577724 -0.584687 0
0.187859 -0.716299 0
-0.25659 -0.886837 0
-0.0471706 -1.08146 0
-0.380503 -1.72071 0
-0.0642691 -0.661295 0
-0.0509582 -0.858951 0
-0.0779934 -1.04205 0
0.227424 -0.534202 0
-0.0111269 -1.07725 0
-0.278577 -1.82536 0
-0.0551307 -0.514039 0
0.0781849 -0.730247 0
-0.239116 -0.660133 0
-0.0569731 -0.733735 0
0.223019 -0.718801 0
-0.135764 -0.96565 0
0.0273253 -0.891454 0
0.2115 -1.14059 0
-0.0477974 -0.460417 0
0.0153378 -0.850837 0
-0.398679 -1.31266 0
-0.213299 -0.882945 0
-0.340995 -0.67936 0
-0.140238 -1.43621 0
-0.123683 -0.95397 0
-0.0762997 -1.13362 0
-0.296873 -1.06726 0
0.390893 -1.13602 0
-0.0194666 -1.25349 0
-0.281546 -0.521589 0
-0.0048234 -0.756711 0
0.0526967 -0.887444 0
0.00837244 -1.22722 0
-0.219208 -0.766752 0
0.0101292 -0.533484 0
0.0640228 -1.22806 0
-0.147415 -1.22254 0
-0.151046 -1.02997 0
0.0778665 -0.488369 0
0.0719861 -1.31627 0
