# vtk DataFile Version 2.0
Unstructured Grid by M++
ASCII
DATASET UNSTRUCTURED_GRID
POINTS 81 float
  1.000000   0.625000 0
  0.750000   0.375000 0
  1.000000   0.000000 0
  0.875000   0.875000 0
  0.750000   0.125000 0
  1.000000   1.000000 0
  0.875000   0.250000 0
  0.625000   0.875000 0
  1.000000   0.750000 0
  0.875000   0.000000 0
  1.000000   0.250000 0
  0.625000   0.375000 0
  0.875000   0.500000 0
  0.625000   0.625000 0
  1.000000   0.500000 0
  0.750000   0.500000 0
  0.750000   1.000000 0
  1.000000   0.125000 0
  0.625000   0.250000 0
  0.750000   0.750000 0
  0.625000   0.000000 0
  0.125000   0.375000 0
  0.000000   0.500000 0
  0.125000   0.625000 0
  0.625000   1.000000 0
  1.000000   0.875000 0
  0.875000   0.125000 0
  0.500000   0.250000 0
  0.625000   0.500000 0
  0.250000   0.625000 0
  0.000000   0.625000 0
  0.375000   0.500000 0
  0.375000   0.000000 0
  0.000000   0.125000 0
  0.125000   0.875000 0
  0.875000   1.000000 0
  0.750000   0.250000 0
  0.375000   0.375000 0
  0.250000   0.375000 0
  0.625000   0.750000 0
  0.125000   0.125000 0
  0.500000   0.000000 0
  0.250000   0.875000 0
  0.125000   0.500000 0
  0.500000   0.375000 0
  0.125000   0.000000 0
  0.250000   0.750000 0
  0.250000   0.500000 0
  0.000000   0.875000 0
  0.875000   0.625000 0
  0.500000   0.750000 0
  0.750000   0.625000 0
  0.250000   0.000000 0
  0.375000   0.750000 0
  0.750000   0.875000 0
  0.625000   0.125000 0
  0.250000   0.250000 0
  0.375000   1.000000 0
  0.375000   0.250000 0
  0.000000   0.375000 0
  0.500000   1.000000 0
  0.875000   0.750000 0
  0.750000   0.000000 0
  0.375000   0.125000 0
  0.500000   0.875000 0
  0.000000   0.000000 0
  0.125000   0.750000 0
  0.500000   0.625000 0
  0.125000   0.250000 0
  0.500000   0.125000 0
  0.250000   1.000000 0
  0.250000   0.125000 0
  0.000000   1.000000 0
  0.375000   0.875000 0
  0.000000   0.750000 0
  0.375000   0.625000 0
  0.000000   0.250000 0
  0.125000   1.000000 0
  1.000000   0.375000 0
  0.500000   0.500000 0
  0.875000   0.375000 0
CELLS 64 320
4 56 71 58 63
4 27 58 69 63
4 41 69 32 63
4 76 33 68 40
4 27 44 58 37
4 79 31 44 37
4 56 38 68 21
4 56 58 38 37
4 52 32 71 63
4 47 38 31 37
4 76 68 59 21
4 22 59 43 21
4 65 45 33 40
4 47 43 38 21
4 52 71 45 40
4 56 68 71 40
4 74 30 66 23
4 46 66 29 23
4 22 43 30 23
4 72 48 77 34
4 46 53 42 73
4 50 64 53 73
4 70 42 57 73
4 74 66 48 34
4 46 42 66 34
4 47 29 43 23
4 70 77 42 34
4 60 57 64 73
4 79 67 31 75
4 47 31 29 75
4 50 53 67 75
4 46 29 53 75
4 10 78 6 80
4 36 6 1 80
4 15 1 12 80
4 36 4 6 26
4 14 12 78 80
4 2 17 9 26
4 36 18 4 55
4 15 28 1 11
4 62 4 20 55
4 10 6 17 26
4 27 18 44 11
4 62 9 4 26
4 27 69 18 55
4 36 1 18 11
4 41 20 69 55
4 79 44 28 11
4 16 24 54 7
4 19 54 39 7
4 50 39 64 7
4 8 25 61 3
4 60 64 24 7
4 79 28 67 13
4 19 51 61 49
4 8 61 0 49
4 15 51 28 13
4 19 39 51 13
4 50 67 39 13
4 19 61 54 3
4 14 0 12 49
4 5 35 25 3
4 15 12 51 49
4 16 54 35 3
CELL_TYPES 64
8
8
8
8
8
8
8
8
8
8
8
8
8
8
8
8
8
8
8
8
8
8
8
8
8
8
8
8
8
8
8
8
8
8
8
8
8
8
8
8
8
8
8
8
8
8
8
8
8
8
8
8
8
8
8
8
8
8
8
8
8
8
8
8
CELL_DATA 64
VECTORS vector_value float
-0.0493312 -0.0852047 0
-0.00301925 -0.056778 0
0.0183377 -0.0803287 0
0.269052 -4.63917 0
-0.105501 -0.22465 0
-0.294889 -0.381227 0
-0.489225 -0.838184 0
-0.350455 -0.296559 0
0.00654119 -0.0323587 0
-0.444252 -0.525874 0
-0.460393 -4.48245 0
-0.571146 -3.41 0
0.0578049 -4.02173 0
-0.805603 -1.385 0
0.16543 -1.66146 0
0.022852 -1.01872 0
-0.159823 -0.321049 0
-1.05766 -2.47851 0
-1.0428 -1.75678 0
0.361146 -0.449548 0
-0.589948 -0.782336 0
-1.09769 -1.12304 0
0.405247 -0.968646 0
0.0449342 -0.180764 0
-0.176866 -1.63865 0
-1.51548 -2.16745 0
0.53166 -1.2131 0
0.581914 -0.732894 0
-0.49872 -0.552651 0
-1.00635 -0.894363 0
-0.853088 -1.15165 0
-1.16973 -0.925644 0
0.158726 -1.63165 0
0.110734 -0.411204 0
0.265563 -0.915227 0
-0.0125738 -0.214995 0
0.192235 -1.13827 0
0.0112362 -1.85809 0
-0.0164036 -0.0469806 0
-0.0236444 -0.0986267 0
-0.0820128 -0.142236 0
0.0492979 -1.80936 0
-0.00967321 -0.0412658 0
-0.0138119 -0.0439835 0
-0.000937955 -0.12879 0
-0.0290331 -0.074037 0
-0.0129058 -0.159819 0
-0.128277 -0.145779 0
-0.966232 -1.1809 0
0.362907 -0.813292 0
-0.638739 -2.34646 0
-0.0292822 -0.222596 0
-0.0773837 -2.13245 0
-0.234375 -0.407404 0
0.603301 -1.45187 0
0.142796 -0.310923 0
-0.00926928 -0.197941 0
0.223207 -0.578228 0
-0.275644 -0.782126 0
0.0525964 -0.892867 0
0.262093 -0.876535 0
-0.356187 -0.424089 0
0.168163 -1.14688 0
-0.796195 -0.89838 0
