# vtk DataFile Version 2.0
Unstructured Grid by M++
ASCII
DATASET UNSTRUCTURED_GRID
POINTS 81 float
  1.000000   0.625000 0
  0.750000   0.375000 0
  1.000000   0.000000 0
  0.875000   0.875000 0
  0.750000   0.125000 0
  1.000000   1.000000 0
  0.875000   0.250000 0
  0.625000   0.875000 0
  1.000000   0.750000 0
  0.875000   0.000000 0
  1.000000   0.250000 0
  0.625000   0.375000 0
  0.875000   0.500000 0
  0.625000   0.625000 0
  1.000000   0.500000 0
  0.750000   0.500000 0
  0.750000   1.000000 0
  1.000000   0.125000 0
  0.625000   0.250000 0
  0.750000   0.750000 0
  0.625000   0.000000 0
  0.125000   0.375000 0
  0.000000   0.500000 0
  0.125000   0.625000 0
  0.625000   1.000000 0
  1.000000   0.875000 0
  0.875000   0.125000 0
  0.500000   0.250000 0
  0.625000   0.500000 0
  0.250000   0.625000 0
  0.000000   0.625000 0
  0.375000   0.500000 0
  0.375000   0.000000 0
  0.000000   0.125000 0
  0.125000   0.875000 0
  0.875000   1.000000 0
  0.750000   0.250000 0
  0.375000   0.375000 0
  0.250000   0.375000 0
  0.625000   0.750000 0
  0.125000   0.125000 0
  0.500000   0.000000 0
  0.250000   0.875000 0
  0.125000   0.500000 0
  0.500000   0.375000 0
  0.125000   0.000000 0
  0.250000   0.750000 0
  0.250000   0.500000 0
  0.000000   0.875000 0
  0.875000   0.625000 0
  0.500000   0.750000 0
  0.750000   0.625000 0
  0.250000   0.000000 0
  0.375000   0.750000 0
  0.750000   0.875000 0
  0.625000   0.125000 0
  0.250000   0.250000 0
  0.375000   1.000000 0
  0.375000   0.250000 0
  0.000000   0.375000 0
  0.500000   1.000000 0
  0.875000   0.750000 0
  0.750000   0.000000 0
  0.375000   0.125000 0
  0.500000   0.875000 0
  0.000000   0.000000 0
  0.125000   0.750000 0
  0.500000   0.625000 0
  0.125000   0.250000 0
  0.500000   0.125000 0
  0.250000   1.000000 0
  0.250000   0.125000 0
  0.000000   1.000000 0
  0.375000   0.875000 0
  0.000000   0.750000 0
  0.375000   0.625000 0
  0.000000   0.250000 0
  0.125000   1.000000 0
  1.000000   0.375000 0
  0.500000   0.500000 0
  0.875000   0.375000 0
CELLS 64 320
4 56 71 58 63
4 27 58 69 63
4 41 69 32 63
4 76 33 68 40
4 27 44 58 37
4 79 31 44 37
4 56 38 68 21
4 56 58 38 37
4 52 32 71 63
4 47 38 31 37
4 76 68 59 21
4 22 59 43 21
4 65 45 33 40
4 47 43 38 21
4 52 71 45 40
4 56 68 71 40
4 74 30 66 23
4 46 66 29 23
4 22 43 30 23
4 72 48 77 34
4 46 53 42 73
4 50 64 53 73
4 70 42 57 73
4 74 66 48 34
4 46 42 66 34
4 47 29 43 23
4 70 77 42 34
4 60 57 64 73
4 79 67 31 75
4 47 31 29 75
4 50 53 67 75
4 46 29 53 75
4 10 78 6 80
4 36 6 1 80
4 15 1 12 80
4 36 4 6 26
4 14 12 78 80
4 2 17 9 26
4 36 18 4 55
4 15 28 1 11
4 62 4 20 55
4 10 6 17 26
4 27 18 44 11
4 62 9 4 26
4 27 69 18 55
4 36 1 18 11
4 41 20 69 55
4 79 44 28 11
4 16 24 54 7
4 19 54 39 7
4 50 39 64 7
4 8 25 61 3
4 60 64 24 7
4 79 28 67 13
4 19 51 61 49
4 8 61 0 49
4 15 51 28 13
4 19 39 51 13
4 50 67 39 13
4 19 61 54 3
4 14 0 12 49
4 5 35 25 3
4 15 12 51 49
4 16 54 35 3
CELL_TYPES 64
8
8
8
8
8
8
8
8
8
8
8
8
8
8
8
8
8
8
8
8
8
8
8
8
8
8
8
8
8
8
8
8
8
8
8
8
8
8
8
8
8
8
8
8
8
8
8
8
8
8
8
8
8
8
8
8
8
8
8
8
8
8
8
8
CELL_DATA 64
VECTORS vector_value float
-0.831847 -0.408303 0
-0.850939 -0.489776 0
-0.0705999 -0.161503 0
0.599123 -0.951715 0
-0.417178 -0.607972 0
-0.0496892 -0.39514 0
0.0788248 -0.219395 0
0.00268835 -0.0570971 0
-0.430805 -0.608097 0
0.0389321 -0.0515595 0
0.11038 -2.06886 0
0.0636841 -2.24714 0
0.0867795 -0.556779 0
0.0518075 -0.0731674 0
-0.140295 -2.65919 0
0.394535 -1.68862 0
-0.0167652 -2.23034 0
0.0040447 -0.179077 0
-0.00703176 -2.23544 0
-0.368142 -1.58542 0
-0.0591743 -0.175541 0
0.169678 -0.177521 0
0.100169 -0.4785 0
-0.231954 -2.01132 0
-0.340628 -0.355158 0
0.0125983 -0.1333 0
-0.470646 -0.575273 0
0.771264 -0.637595 0
0.00185768 -0.1555 0
0.0515148 -0.072972 0
0.0290186 -0.105398 0
0.0367006 -0.0852151 0
-0.275168 -3.07527 0
-0.399857 -0.33174 0
-0.061398 -0.367985 0
-0.356239 -0.818596 0
-0.107313 -3.40535 0
0.0400633 -2.51536 0
-0.101028 -0.276319 0
-0.041809 -0.362082 0
0.000504013 -0.669154 0
-0.136469 -2.3881 0
-0.503579 -1.23418 0
0.00348004 -0.479869 0
-0.31679 -0.978571 0
-0.504553 -0.405493 0
-0.00244069 -0.350043 0
-0.110012 -1.09758 0
1.40764 -1.49092 0
0.353474 -1.14239 0
0.284489 -0.565322 0
0.308716 -0.442964 0
1.3228 -0.822506 0
-0.230488 -1.04876 0
0.863635 -1.81224 0
0.794333 -1.86625 0
-0.0915447 -0.661272 0
-0.192791 -1.12775 0
-0.104985 -0.593725 0
0.949836 -3.12978 0
0.477771 -3.3589 0
-0.337576 -0.427682 0
0.117538 -0.333861 0
0.138881 -1.9821 0
