# vtk DataFile Version 2.0
Unstructured Grid by M++
ASCII
DATASET UNSTRUCTURED_GRID
POINTS 81 float
  1.000000   0.625000 0
  0.750000   0.375000 0
  1.000000   0.000000 0
  0.875000   0.875000 0
  0.750000   0.125000 0
  1.000000   1.000000 0
  0.875000   0.250000 0
  0.625000   0.875000 0
  1.000000   0.750000 0
  0.875000   0.000000 0
  1.000000   0.250000 0
  0.625000   0.375000 0
  0.875000   0.500000 0
  0.625000   0.625000 0
  1.000000   0.500000 0
  0.750000   0.500000 0
  0.750000   1.000000 0
  1.000000   0.125000 0
  0.625000   0.250000 0
  0.750000   0.750000 0
  0.625000   0.000000 0
  0.125000   0.375000 0
  0.000000   0.500000 0
  0.125000   0.625000 0
  0.625000   1.000000 0
  1.000000   0.875000 0
  0.875000   0.125000 0
  0.500000   0.250000 0
  0.625000   0.500000 0
  0.250000   0.625000 0
  0.000000   0.625000 0
  0.375000   0.500000 0
  0.375000   0.000000 0
  0.000000   0.125000 0
  0.125000   0.875000 0
  0.875000   1.000000 0
  0.750000   0.250000 0
  0.375000   0.375000 0
  0.250000   0.375000 0
  0.625000   0.750000 0
  0.125000   0.125000 0
  0.500000   0.000000 0
  0.250000   0.875000 0
  0.125000   0.500000 0
  0.500000   0.375000 0
  0.125000   0.000000 0
  0.250000   0.750000 0
  0.250000   0.500000 0
  0.000000   0.875000 0
  0.875000   0.625000 0
  0.500000   0.750000 0
  0.750000   0.625000 0
  0.250000   0.000000 0
  0.375000   0.750000 0
  0.750000   0.875000 0
  0.625000   0.125000 0
  0.250000   0.250000 0
  0.375000   1.000000 0
  0.375000   0.250000 0
  0.000000   0.375000 0
  0.500000   1.000000 0
  0.875000   0.750000 0
  0.750000   0.000000 0
  0.375000   0.125000 0
  0.500000   0.875000 0
  0.000000   0.000000 0
  0.125000   0.750000 0
  0.500000   0.625000 0
  0.125000   0.250000 0
  0.500000   0.125000 0
  0.250000   1.000000 0
  0.250000   0.125000 0
  0.000000   1.000000 0
  0.375000   0.875000 0
  0.000000   0.750000 0
  0.375000   0.625000 0
  0.000000   0.250000 0
  0.125000   1.000000 0
  1.000000   0.375000 0
  0.500000   0.500000 0
  0.875000   0.375000 0
CELLS 64 320
4 56 71 58 63
4 27 58 69 63
4 41 69 32 63
4 76 33 68 40
4 27 44 58 37
4 79 31 44 37
4 56 38 68 21
4 56 58 38 37
4 52 32 71 63
4 47 38 31 37
4 76 68 59 21
4 22 59 43 21
4 65 45 33 40
4 47 43 38 21
4 52 71 45 40
4 56 68 71 40
4 74 30 66 23
4 46 66 29 23
4 22 43 30 23
4 72 48 77 34
4 46 53 42 73
4 50 64 53 73
4 70 42 57 73
4 74 66 48 34
4 46 42 66 34
4 47 29 43 23
4 70 77 42 34
4 60 57 64 73
4 79 67 31 75
4 47 31 29 75
4 50 53 67 75
4 46 29 53 75
4 10 78 6 80
4 36 6 1 80
4 15 1 12 80
4 36 4 6 26
4 14 12 78 80
4 2 17 9 26
4 36 18 4 55
4 15 28 1 11
4 62 4 20 55
4 10 6 17 26
4 27 18 44 11
4 62 9 4 26
4 27 69 18 55
4 36 1 18 11
4 41 20 69 55
4 79 44 28 11
4 16 24 54 7
4 19 54 39 7
4 50 39 64 7
4 8 25 61 3
4 60 64 24 7
4 79 28 67 13
4 19 51 61 49
4 8 61 0 49
4 15 51 28 13
4 19 39 51 13
4 50 67 39 13
4 19 61 54 3
4 14 0 12 49
4 5 35 25 3
4 15 12 51 49
4 16 54 35 3
CELL_TYPES 64
8
8
8
8
8
8
8
8
8
8
8
8
8
8
8
8
8
8
8
8
8
8
8
8
8
8
8
8
8
8
8
8
8
8
8
8
8
8
8
8
8
8
8
8
8
8
8
8
8
8
8
8
8
8
8
8
8
8
8
8
8
8
8
8
CELL_DATA 64
VECTORS vector_value float
0.200101 -1.06959 0
1.21316 -3.16826 0
0.121579 -2.02583 0
-0.100219 -0.599487 0
-0.0928907 -3.16279 0
-1.2362 -2.05763 0
-0.0103376 -0.763558 0
0.230902 -1.5971 0
0.0048146 -0.337699 0
0.0907759 -0.543872 0
-0.184614 -0.246601 0
0.0940424 -0.215827 0
-0.0848954 -0.895975 0
0.2516 -1.27532 0
-0.0441999 -0.263193 0
-0.252783 -0.361923 0
0.323425 -0.948095 0
0.212243 -0.50546 0
0.0784499 -0.413806 0
-0.174405 -1.29894 0
0.00721088 -1.27561 0
-0.00255741 -0.577911 0
0.371902 -0.8724 0
0.0860794 -1.25974 0
0.183814 -0.253921 0
0.140892 -1.18467 0
-0.0161674 -0.454039 0
0.470991 -0.931623 0
0.301066 -0.799911 0
0.0683972 -0.540076 0
0.235338 -0.537506 0
0.198681 -1.19585 0
-0.0899481 -1.01129 0
0.0082517 -0.188872 0
-0.00249232 -0.0700801 0
-0.00837809 -0.518226 0
-0.00682888 -1.04584 0
-0.132284 -0.572497 0
0.065475 -0.196001 0
-0.0250538 -0.174645 0
0.619091 -0.901108 0
-0.0347291 -0.834438 0
0.256608 -0.864022 0
-0.0344142 -0.979867 0
0.710965 -1.25208 0
0.176313 -0.165771 0
0.843156 -2.02383 0
-1.45861 -2.61679 0
0.0131926 -1.13452 0
-0.40043 -1.72866 0
0.0127763 -1.32325 0
0.0979319 -1.37184 0
0.377312 -1.36439 0
-0.246346 -3.46094 0
-0.152788 -0.155141 0
-0.100447 -1.26233 0
-0.365085 -0.367215 0
-0.477403 -0.956659 0
-0.389953 -2.43895 0
-0.106652 -0.209065 0
-0.0403352 -1.08412 0
0.0708416 -1.09145 0
-0.15264 -0.149264 0
0.00580724 -0.852642 0
