# vtk DataFile Version 2.0
Unstructured Grid by M++
ASCII
DATASET UNSTRUCTURED_GRID
POINTS 289 float
  0.562500   1.000000 0
  0.562500   0.625000 0
  0.625000   1.000000 0
  0.562500   0.937500 0
  0.562500   0.562500 0
  0.625000   0.937500 0
  0.562500   0.875000 0
  0.625000   0.750000 0
  0.625000   0.625000 0
  0.562500   0.812500 0
  0.562500   0.750000 0
  0.562500   0.687500 0
  0.625000   0.875000 0
  0.625000   0.812500 0
  0.625000   0.687500 0
  0.687500   0.125000 0
  0.875000   0.062500 0
  0.625000   0.125000 0
  0.625000   0.187500 0
  0.625000   0.250000 0
  0.812500   0.187500 0
  1.000000   0.125000 0
  0.687500   0.187500 0
  0.750000   0.125000 0
  0.937500   0.062500 0
  0.937500   0.125000 0
  0.750000   0.187500 0
  0.812500   0.062500 0
  0.812500   0.125000 0
  0.875000   0.687500 0
  0.187500   0.250000 0
  0.437500   0.250000 0
  0.375000   0.187500 0
  0.812500   0.625000 0
  0.125000   0.187500 0
  0.937500   0.750000 0
  0.250000   0.312500 0
  0.500000   0.312500 0
  0.625000   0.062500 0
  0.437500   0.500000 0
  0.375000   0.125000 0
  0.437500   0.187500 0
  0.437500   0.437500 0
  0.437500   0.375000 0
  0.875000   0.875000 0
  0.187500   0.375000 0
  0.687500   0.562500 0
  0.687500   0.625000 0
  0.000000   0.125000 0
  0.937500   0.625000 0
  0.250000   0.125000 0
  0.375000   0.062500 0
  0.375000   0.000000 0
  0.812500   0.500000 0
  0.125000   0.000000 0
  0.937500   0.937500 0
  0.250000   0.437500 0
  0.687500   0.875000 0
  0.687500   0.937500 0
  0.000000   0.437500 0
  0.500000   0.500000 0
  0.500000   0.437500 0
  0.750000   0.937500 0
  0.750000   1.000000 0
  0.062500   0.500000 0
  1.000000   1.000000 0
  0.312500   0.500000 0
  0.875000   0.562500 0
  0.187500   0.062500 0
  0.437500   0.125000 0
  0.437500   0.062500 0
  0.500000   0.375000 0
  0.937500   0.812500 0
  0.937500   0.875000 0
  0.250000   0.375000 0
  0.687500   0.812500 0
  0.000000   0.375000 0
  0.750000   0.562500 0
  0.062500   0.125000 0
  1.000000   0.562500 0
  1.000000   0.625000 0
  0.312500   0.125000 0
  0.562500   0.125000 0
  0.437500   0.000000 0
  0.875000   0.437500 0
  0.875000   0.500000 0
  0.187500   0.000000 0
  0.937500   0.562500 0
  0.937500   0.500000 0
  0.250000   0.062500 0
  0.687500   0.500000 0
  0.000000   0.062500 0
  0.500000   0.062500 0
  1.000000   0.875000 0
  1.000000   0.937500 0
  0.312500   0.437500 0
  0.750000   0.875000 0
  0.062500   0.437500 0
  0.812500   0.937500 0
  0.125000   0.500000 0
  0.375000   0.500000 0
  0.625000   0.562500 0
  0.625000   0.500000 0
  0.437500   0.312500 0
  0.875000   0.812500 0
  0.875000   0.750000 0
  0.187500   0.312500 0
  0.812500   0.687500 0
  0.812500   0.750000 0
  0.125000   0.250000 0
  0.375000   0.250000 0
  1.000000   0.687500 0
  0.312500   0.187500 0
  0.750000   0.687500 0
  0.750000   0.625000 0
  0.062500   0.187500 0
  0.562500   0.250000 0
  0.562500   0.187500 0
  0.375000   1.000000 0
  0.500000   0.562500 0
  0.500000   0.250000 0
  0.750000   0.250000 0
  0.500000   0.125000 0
  0.500000   0.187500 0
  1.000000   0.187500 0
  0.625000   0.375000 0
  0.875000   0.375000 0
  1.000000   0.437500 0
  0.312500   0.000000 0
  0.562500   0.000000 0
  0.812500   0.000000 0
  0.250000   0.687500 0
  0.000000   0.687500 0
  0.500000   1.000000 0
  0.250000   1.000000 0
  0.000000   1.000000 0
  0.437500   0.687500 0
  0.437500   0.625000 0
  0.187500   0.625000 0
  0.687500   0.750000 0
  0.000000   0.312500 0
  0.000000   0.250000 0
  0.375000   0.375000 0
  0.375000   0.312500 0
  0.812500   0.812500 0
  0.125000   0.312500 0
  0.875000   0.625000 0
  0.187500   0.187500 0
  0.187500   0.125000 0
  0.937500   1.000000 0
  0.250000   0.562500 0
  0.250000   0.500000 0
  0.687500   1.000000 0
  0.000000   0.500000 0
  0.687500   0.687500 0
  0.000000   0.187500 0
  0.937500   0.687500 0
  0.250000   0.250000 0
  0.250000   0.187500 0
  0.187500   0.687500 0
  0.000000   0.750000 0
  0.250000   0.750000 0
  0.125000   0.625000 0
  0.750000   0.750000 0
  0.062500   0.250000 0
  0.875000   0.937500 0
  0.187500   0.500000 0
  0.187500   0.437500 0
  0.812500   0.562500 0
  0.125000   0.125000 0
  0.125000   0.062500 0
  0.375000   0.625000 0
  0.375000   0.687500 0
  1.000000   0.750000 0
  0.312500   0.250000 0
  0.312500   0.312500 0
  0.812500   0.312500 0
  0.562500   0.312500 0
  0.375000   0.750000 0
  0.500000   0.625000 0
  0.250000   0.625000 0
  0.312500   0.687500 0
  0.750000   0.812500 0
  0.062500   0.312500 0
  0.062500   0.375000 0
  1.000000   0.812500 0
  0.312500   0.375000 0
  0.562500   0.375000 0
  0.687500   0.437500 0
  0.000000   0.000000 0
  0.500000   0.000000 0
  0.937500   0.437500 0
  0.250000   0.000000 0
  0.375000   0.437500 0
  0.812500   0.875000 0
  0.125000   0.375000 0
  0.125000   0.437500 0
  0.625000   0.437500 0
  1.000000   0.500000 0
  0.312500   0.062500 0
  0.750000   0.500000 0
  0.062500   0.000000 0
  0.062500   0.062500 0
  0.562500   0.062500 0
  0.062500   0.750000 0
  0.312500   0.750000 0
  0.312500   0.625000 0
  0.312500   0.562500 0
  0.062500   0.562500 0
  0.187500   1.000000 0
  0.437500   0.562500 0
  0.875000   1.000000 0
  0.187500   0.562500 0
  0.500000   0.937500 0
  0.250000   0.937500 0
  0.312500   1.000000 0
  0.125000   0.750000 0
  0.125000   0.687500 0
  1.000000   0.000000 0
  0.000000   0.937500 0
  0.000000   0.875000 0
  0.875000   0.125000 0
  0.875000   0.187500 0
  0.062500   0.812500 0
  0.312500   0.812500 0
  0.000000   0.812500 0
  0.000000   0.625000 0
  0.000000   0.562500 0
  0.062500   1.000000 0
  0.062500   0.937500 0
  0.937500   0.187500 0
  0.937500   0.250000 0
  0.062500   0.687500 0
  0.062500   0.625000 0
  0.125000   1.000000 0
  1.000000   0.250000 0
  1.000000   0.312500 0
  0.062500   0.875000 0
  0.125000   0.812500 0
  0.375000   0.812500 0
  0.125000   0.875000 0
  0.375000   0.937500 0
  0.375000   0.875000 0
  0.187500   0.750000 0
  0.187500   0.812500 0
  0.437500   0.812500 0
  0.187500   0.875000 0
  0.437500   0.875000 0
  0.375000   0.562500 0
  0.812500   1.000000 0
  0.125000   0.562500 0
  0.437500   1.000000 0
  0.437500   0.937500 0
  0.187500   0.937500 0
  0.125000   0.937500 0
  0.500000   0.687500 0
  0.500000   0.750000 0
  0.500000   0.812500 0
  0.250000   0.812500 0
  0.250000   0.875000 0
  0.500000   0.875000 0
  0.437500   0.750000 0
  0.312500   0.875000 0
  0.312500   0.937500 0
  0.687500   0.250000 0
  0.687500   0.312500 0
  0.937500   0.312500 0
  0.875000   0.250000 0
  0.625000   0.000000 0
  0.875000   0.000000 0
  0.687500   0.375000 0
  0.937500   0.375000 0
  0.875000   0.312500 0
  0.625000   0.312500 0
  0.687500   0.000000 0
  0.937500   0.000000 0
  0.750000   0.312500 0
  0.750000   0.375000 0
  1.000000   0.375000 0
  0.812500   0.250000 0
  0.562500   0.437500 0
  0.562500   0.500000 0
  0.687500   0.062500 0
  0.750000   0.437500 0
  0.750000   0.000000 0
  0.750000   0.062500 0
  1.000000   0.062500 0
  0.812500   0.375000 0
  0.812500   0.437500 0
CELLS 256 1280
4 169 170 148 68
4 151 166 56 167
4 195 45 196 167
4 54 170 201 202
4 109 34 30 147
4 40 32 81 112
4 192 89 86 68
4 48 91 78 202
4 99 64 196 97
4 71 43 37 103
4 74 186 56 95
4 109 164 34 115
4 50 81 158 112
4 122 69 92 70
4 195 145 45 106
4 110 143 174 175
4 157 30 158 147
4 40 69 32 41
4 50 158 148 147
4 141 155 164 115
4 122 123 69 41
4 142 186 143 175
4 60 39 61 42
4 40 51 69 70
4 120 31 123 41
4 157 174 36 175
4 50 148 89 68
4 48 78 155 115
4 52 83 51 70
4 151 56 66 95
4 71 61 43 42
4 169 148 34 147
4 100 193 39 42
4 40 81 51 199
4 110 174 32 112
4 109 30 145 106
4 100 66 193 95
4 169 34 78 115
4 190 92 83 70
4 50 89 81 199
4 54 86 170 68
4 74 56 45 167
4 142 143 43 103
4 153 59 64 97
4 99 196 166 167
4 169 78 170 202
4 142 193 186 95
4 192 128 89 199
4 74 45 36 106
4 110 31 143 103
4 76 184 59 97
4 142 43 193 42
4 52 51 128 199
4 189 201 91 202
4 120 37 31 103
4 74 36 186 175
4 195 196 184 97
4 141 164 140 183
4 157 158 174 112
4 109 145 164 183
4 195 184 145 183
4 110 32 31 41
4 157 36 30 106
4 76 140 184 183
4 171 172 206 181
4 178 172 261 136
4 256 261 255 136
4 256 257 261 245
4 180 150 206 207
4 60 119 39 210
4 118 215 241 263
4 178 205 172 181
4 216 243 238 244
4 162 217 233 232
4 180 206 131 181
4 179 137 119 210
4 216 204 217 232
4 220 237 219 229
4 216 217 243 159
4 259 258 262 224
4 240 254 237 229
4 153 64 227 208
4 161 205 258 224
4 240 237 238 223
4 226 227 233 208
4 234 228 254 229
4 171 248 137 210
4 160 132 204 232
4 180 131 138 159
4 133 251 213 252
4 171 206 248 207
4 162 138 217 159
4 161 258 243 244
4 220 225 237 223
4 151 150 166 212
4 260 247 257 245
4 259 262 214 263
4 151 66 150 207
4 234 254 209 253
4 162 233 250 208
4 242 241 262 263
4 171 137 172 136
4 161 243 131 159
4 160 204 225 223
4 161 131 205 181
4 179 255 137 136
4 216 238 204 223
4 100 39 248 210
4 260 213 247 252
4 226 233 132 232
4 134 214 215 263
4 180 138 150 212
4 178 261 239 245
4 259 246 258 244
4 178 239 205 224
4 240 238 246 244
4 242 262 239 224
4 99 250 64 208
4 240 246 254 253
4 242 239 247 245
4 135 219 228 229
4 99 166 250 212
4 259 214 246 253
4 118 241 251 252
4 100 248 66 207
4 134 209 214 253
4 162 250 138 212
4 242 247 241 252
4 71 187 61 280
4 102 281 197 280
4 122 92 82 203
4 17 18 82 117
4 122 82 123 117
4 19 264 273 265
4 267 279 222 20
4 125 273 270 265
4 267 272 279 176
4 19 116 18 117
4 21 25 286 24
4 23 28 26 20
4 23 285 28 27
4 218 286 275 24
4 85 53 84 288
4 235 236 231 266
4 221 222 28 20
4 267 222 231 230
4 268 38 129 203
4 125 270 197 188
4 126 287 272 176
4 277 270 276 265
4 267 231 272 266
4 125 197 187 280
4 190 129 92 203
4 277 276 287 176
4 19 18 264 22
4 17 82 38 203
4 102 197 90 188
4 126 84 287 288
4 284 130 285 27
4 121 276 264 265
4 71 37 187 177
4 120 123 116 117
4 198 88 127 191
4 221 16 25 24
4 23 26 15 22
4 121 279 276 176
4 235 231 124 230
4 125 187 273 177
4 278 271 236 266
4 277 287 283 288
4 284 285 274 282
4 278 127 271 191
4 269 275 16 24
4 200 283 53 288
4 23 15 285 282
4 121 26 279 20
4 21 124 25 230
4 19 273 116 177
4 200 90 283 188
4 126 271 84 191
4 269 16 130 27
4 17 38 15 282
4 221 25 222 230
4 121 264 26 22
4 120 116 37 177
4 60 61 281 280
4 277 283 270 188
4 126 272 271 266
4 268 274 38 282
4 85 84 88 191
4 17 15 18 22
4 221 28 16 27
4 93 94 73 55
4 85 88 67 87
4 80 49 79 87
4 44 104 73 72
4 146 33 67 168
4 211 165 149 55
4 8 47 14 154
4 105 104 108 144
4 105 108 29 107
4 7 139 13 75
4 44 165 194 98
4 200 53 77 168
4 8 1 101 4
4 2 5 152 58
4 260 6 213 3
4 105 35 104 72
4 96 57 182 75
4 7 14 139 154
4 146 29 33 107
4 7 13 10 9
4 12 13 57 75
4 85 67 53 168
4 44 73 165 55
4 63 152 62 58
4 8 101 47 46
4 96 182 194 144
4 60 281 119 4
4 12 5 6 3
4 173 185 35 72
4 65 149 94 55
4 146 67 49 87
4 114 113 47 154
4 163 108 182 144
4 12 6 13 9
4 173 35 111 156
4 163 182 139 75
4 260 257 6 9
4 105 29 35 156
4 163 139 113 154
4 256 10 257 9
4 146 49 29 156
4 163 113 108 107
4 80 111 49 156
4 102 101 281 4
4 12 57 5 58
4 44 194 104 144
4 96 194 62 98
4 2 0 5 3
4 93 73 185 72
4 179 119 1 4
4 200 77 90 46
4 114 33 113 107
4 7 10 14 11
4 96 62 57 58
4 133 213 0 3
4 102 90 101 46
4 256 255 10 11
4 63 62 249 98
4 114 47 77 46
4 179 1 255 11
4 211 249 165 98
4 114 77 33 168
4 198 79 88 87
4 8 14 1 11
CELL_TYPES 256
8
8
8
8
8
8
8
8
8
8
8
8
8
8
8
8
8
8
8
8
8
8
8
8
8
8
8
8
8
8
8
8
8
8
8
8
8
8
8
8
8
8
8
8
8
8
8
8
8
8
8
8
8
8
8
8
8
8
8
8
8
8
8
8
8
8
8
8
8
8
8
8
8
8
8
8
8
8
8
8
8
8
8
8
8
8
8
8
8
8
8
8
8
8
8
8
8
8
8
8
8
8
8
8
8
8
8
8
8
8
8
8
8
8
8
8
8
8
8
8
8
8
8
8
8
8
8
8
8
8
8
8
8
8
8
8
8
8
8
8
8
8
8
8
8
8
8
8
8
8
8
8
8
8
8
8
8
8
8
8
8
8
8
8
8
8
8
8
8
8
8
8
8
8
8
8
8
8
8
8
8
8
8
8
8
8
8
8
8
8
8
8
8
8
8
8
8
8
8
8
8
8
8
8
8
8
8
8
8
8
8
8
8
8
8
8
8
8
8
8
8
8
8
8
8
8
8
8
8
8
8
8
8
8
8
8
8
8
8
8
8
8
8
8
8
8
8
8
8
8
8
8
8
8
8
8
CELL_DATA 256
VECTORS vector_value float
-1.41339 -2.01646 0
0.00191469 -1.02875 0
-0.146704 -0.372498 0
-0.329514 -1.40336 0
-0.260631 -1.37902 0
-0.389721 -0.439432 0
-0.0680268 -2.16333 0
-0.989465 -2.73356 0
-0.124845 -0.509413 0
-0.282323 -0.329104 0
-1.06098 -2.92518 0
-0.0482143 -0.518783 0
-1.18749 -1.54339 0
-0.0550451 -0.0863757 0
-0.293877 -0.663279 0
-0.633763 -1.36268 0
-1.16246 -4.07306 0
-0.221657 -0.209557 0
-2.35888 -4.52801 0
-0.0147948 -0.651781 0
-0.119414 -0.138434 0
-0.552643 -1.60772 0
-2.22558 -0.397125 0
-0.0659622 -0.196933 0
-0.239795 -0.266603 0
-0.763253 -3.34538 0
-0.580758 -3.11526 0
-0.352627 -1.08601 0
-0.00103345 -0.216226 0
-0.835119 -2.97489 0
-0.634856 -0.271848 0
-2.23914 -1.6878 0
-2.04353 -0.881927 0
-0.00433374 -0.397366 0
-0.603565 -0.819602 0
-0.252192 -1.08924 0
-1.39742 -1.61193 0
-1.44861 -1.03329 0
-0.0203727 -0.108044 0
0.0225125 -0.96704 0
-0.25296 -1.82831 0
-0.7984 -2.14357 0
-0.426843 -0.721931 0
-0.0186757 -0.329683 0
0.0153401 -0.512051 0
-1.589 -1.2131 0
-1.18105 -2.05152 0
0.0259043 -0.946723 0
-0.443639 -2.47007 0
-0.297399 -0.376344 0
-0.091434 -0.494932 0
-0.873298 -0.899202 0
0.0237814 -0.495258 0
-0.12657 -3.60873 0
-0.197164 -0.329867 0
-0.633713 -3.23703 0
-0.147715 -0.472538 0
0.0129543 -0.718163 0
-1.42843 -2.59992 0
-0.0104682 -0.495777 0
-0.145238 -0.457148 0
-0.274763 -0.228907 0
-0.544873 -2.65226 0
-0.0797277 -0.677245 0
-0.048504 -0.148753 0
-0.0400766 -0.158181 0
-0.0989035 -0.509184 0
0.0374463 -0.509299 0
0.27141 -0.641802 0
-1.39714 -0.529091 0
1.14551 -0.690143 0
-0.014163 -0.0616974 0
0.0282557 -0.755553 0
0.431125 -1.41871 0
0.0426972 -0.171387 0
-0.451096 -0.411272 0
0.669872 -2.06023 0
-0.0715167 -0.988228 0
0.429571 -1.08213 0
-0.00976542 -0.0830874 0
-0.319053 -1.28142 0
-0.00292038 -0.331811 0
-0.0299005 -0.0959798 0
-0.33574 -1.36362 0
0.0102486 -0.322677 0
-0.0177069 -0.924233 0
-0.646642 -0.563885 0
0.179544 -0.627478 0
0.377338 -0.669929 0
0.89012 -1.23094 0
-0.231674 -0.419431 0
0.750139 -1.5062 0
-0.00504386 -0.184124 0
-0.14816 -1.37786 0
0.646034 -0.861972 0
0.642365 -0.757661 0
0.0331568 -0.0583169 0
0.157114 -1.92645 0
-0.285218 -1.47886 0
0.282383 -0.76146 0
0.240012 -0.261717 0
-0.11881 -0.192153 0
0.0568426 -0.252297 0
0.300432 -1.29509 0
-0.0116708 -0.127211 0
-0.38933 -0.768938 0
0.210598 -1.76748 0
-1.26172 -0.571486 0
1.32174 -1.45081 0
0.0513045 -0.380389 0
0.434752 -0.482738 0
0.850063 -1.09389 0
-0.00929761 -0.190287 0
-0.0612745 -0.236075 0
-0.0474235 -0.0769302 0
-0.311398 -1.01013 0
-0.0105425 -0.0748338 0
0.0567923 -0.373095 0
-0.313015 -1.2263 0
0.165662 -0.380821 0
0.015946 -0.979747 0
0.354987 -1.02595 0
-0.116273 -0.518815 0
1.34669 -1.36102 0
-0.988616 -0.96059 0
-0.225961 -0.591715 0
0.721826 -1.33593 0
0.714682 -0.906071 0
-0.730763 -0.920311 0
-1.73312 -1.4701 0
-0.0238437 -0.197748 0
-0.0191144 -1.0616 0
-0.0124193 -0.276288 0
0.0121564 -1.21339 0
0.297698 -0.325049 0
-0.0256065 -1.77864 0
0.185847 -0.246206 0
-0.0743676 -0.819547 0
0.0401844 -0.394637 0
0.122603 -0.956526 0
0.0894865 -0.755383 0
-0.00481163 -0.398498 0
-0.054608 -0.0925688 0
-0.0230243 -0.148341 0
0.205225 -0.331471 0
0.139442 -0.405884 0
0.118287 -0.685364 0
-0.232253 -1.61155 0
0.0512753 -0.180965 0
0.106922 -1.66329 0
0.0556063 -0.252038 0
-0.36584 -0.945356 0
-0.0164713 -0.16158 0
0.152582 -0.561726 0
-0.0709321 -1.16945 0
0.100628 -1.05792 0
-1.01223 -2.01075 0
-0.0028752 -0.0919619 0
0.177207 -0.656565 0
0.411705 -1.62746 0
-0.144684 -0.640086 0
-0.106672 -0.487325 0
-0.00589269 -0.260506 0
0.03842 -0.543519 0
0.0647282 -0.902314 0
0.335383 -0.7493 0
0.0284956 -0.179553 0
-0.0876207 -0.717779 0
-0.0170217 -0.207417 0
0.0298321 -0.44503 0
0.0563058 -0.864229 0
-0.0110471 -0.241424 0
-0.0229366 -0.50426 0
-0.238173 -0.57369 0
0.0472926 -1.01388 0
0.447428 -1.11377 0
0.0605377 -0.266233 0
-0.167776 -0.866273 0
-0.452097 -2.29137 0
-0.0165008 -0.0651745 0
0.0979895 -0.727577 0
0.0821938 -0.85973 0
0.187866 -0.597317 0
0.190498 -0.961743 0
-0.153833 -0.527282 0
-2.18136 -0.986105 0
-0.0965358 -2.0479 0
-0.0184774 -0.0865695 0
0.165684 -1.23194 0
-0.0180341 -0.0691303 0
0.00262063 -0.942328 0
0.088442 -0.451078 0
-0.23676 -0.994252 0
-0.139033 -0.207498 0
-0.168814 -0.495216 0
-0.137749 -0.974837 0
-0.562617 -0.399703 0
0.060427 -0.762786 0
-0.418235 -2.81774 0
-0.35453 -1.44048 0
-0.371328 -0.812539 0
0.429095 -1.52951 0
0.00473328 -1.352 0
-0.293052 -0.555341 0
-0.69117 -0.979641 0
0.615806 -0.946677 0
1.11209 -1.86512 0
0.0313872 -0.960396 0
0.0570547 -1.04586 0
0.104299 -1.9018 0
-0.369092 -0.511957 0
0.435311 -2.2576 0
0.547996 -0.955078 0
-0.282343 -0.248548 0
-0.360318 -0.899377 0
0.664704 -0.902601 0
-1.29563 -3.69361 0
-0.199319 -1.72221 0
-1.10383 -0.804646 0
0.585132 -0.779506 0
0.0362023 -0.58426 0
0.0669516 -1.23139 0
-0.429984 -0.325803 0
-1.20582 -2.50158 0
-0.446002 -2.01728 0
1.62776 -1.68604 0
0.0655512 -0.725871 0
-0.0398182 -1.50311 0
1.72194 -1.81621 0
-0.0429809 -0.74514 0
-0.351308 -2.07346 0
0.0885943 -0.832604 0
-0.180328 -0.380577 0
-0.605712 -2.3163 0
-0.0692209 -0.810923 0
-1.64254 -1.85387 0
0.428609 -0.579035 0
-0.218173 -1.90765 0
0.389282 -1.70231 0
0.232446 -0.531281 0
-0.0415229 -0.608026 0
-0.677355 -0.964257 0
-0.626725 -2.70961 0
-0.979927 -1.91654 0
0.154159 -1.73718 0
0.534221 -1.13674 0
0.321322 -1.38271 0
-1.03886 -2.77245 0
-0.193249 -0.809306 0
0.4401 -1.38244 0
-1.13273 -2.51484 0
-0.252987 -0.622392 0
0.0672333 -1.1207 0
-0.933564 -1.07658 0
-0.0213608 -0.267597 0
-0.226703 -1.18183 0
