# vtk DataFile Version 2.0
Unstructured Grid by M++
ASCII
DATASET UNSTRUCTURED_GRID
POINTS 81 float
  1.000000   0.625000 0
  0.750000   0.375000 0
  1.000000   0.000000 0
  0.875000   0.875000 0
  0.750000   0.125000 0
  1.000000   1.000000 0
  0.875000   0.250000 0
  0.625000   0.875000 0
  1.000000   0.750000 0
  0.875000   0.000000 0
  1.000000   0.250000 0
  0.625000   0.375000 0
  0.875000   0.500000 0
  0.625000   0.625000 0
  1.000000   0.500000 0
  0.750000   0.500000 0
  0.750000   1.000000 0
  1.000000   0.125000 0
  0.625000   0.250000 0
  0.750000   0.750000 0
  0.625000   0.000000 0
  0.125000   0.375000 0
  0.000000   0.500000 0
  0.125000   0.625000 0
  0.625000   1.000000 0
  1.000000   0.875000 0
  0.875000   0.125000 0
  0.500000   0.250000 0
  0.625000   0.500000 0
  0.250000   0.625000 0
  0.000000   0.625000 0
  0.375000   0.500000 0
  0.375000   0.000000 0
  0.000000   0.125000 0
  0.125000   0.875000 0
  0.875000   1.000000 0
  0.750000   0.250000 0
  0.375000   0.375000 0
  0.250000   0.375000 0
  0.625000   0.750000 0
  0.125000   0.125000 0
  0.500000   0.000000 0
  0.250000   0.875000 0
  0.125000   0.500000 0
  0.500000   0.375000 0
  0.125000   0.000000 0
  0.250000   0.750000 0
  0.250000   0.500000 0
  0.000000   0.875000 0
  0.875000   0.625000 0
  0.500000   0.750000 0
  0.750000   0.625000 0
  0.250000   0.000000 0
  0.375000   0.750000 0
  0.750000   0.875000 0
  0.625000   0.125000 0
  0.250000   0.250000 0
  0.375000   1.000000 0
  0.375000   0.250000 0
  0.000000   0.375000 0
  0.500000   1.000000 0
  0.875000   0.750000 0
  0.750000   0.000000 0
  0.375000   0.125000 0
  0.500000   0.875000 0
  0.000000   0.000000 0
  0.125000   0.750000 0
  0.500000   0.625000 0
  0.125000   0.250000 0
  0.500000   0.125000 0
  0.250000   1.000000 0
  0.250000   0.125000 0
  0.000000   1.000000 0
  0.375000   0.875000 0
  0.000000   0.750000 0
  0.375000   0.625000 0
  0.000000   0.250000 0
  0.125000   1.000000 0
  1.000000   0.375000 0
  0.500000   0.500000 0
  0.875000   0.375000 0
CELLS 64 320
4 56 71 58 63
4 27 58 69 63
4 41 69 32 63
4 76 33 68 40
4 27 44 58 37
4 79 31 44 37
4 56 38 68 21
4 56 58 38 37
4 52 32 71 63
4 47 38 31 37
4 76 68 59 21
4 22 59 43 21
4 65 45 33 40
4 47 43 38 21
4 52 71 45 40
4 56 68 71 40
4 74 30 66 23
4 46 66 29 23
4 22 43 30 23
4 72 48 77 34
4 46 53 42 73
4 50 64 53 73
4 70 42 57 73
4 74 66 48 34
4 46 42 66 34
4 47 29 43 23
4 70 77 42 34
4 60 57 64 73
4 79 67 31 75
4 47 31 29 75
4 50 53 67 75
4 46 29 53 75
4 10 78 6 80
4 36 6 1 80
4 15 1 12 80
4 36 4 6 26
4 14 12 78 80
4 2 17 9 26
4 36 18 4 55
4 15 28 1 11
4 62 4 20 55
4 10 6 17 26
4 27 18 44 11
4 62 9 4 26
4 27 69 18 55
4 36 1 18 11
4 41 20 69 55
4 79 44 28 11
4 16 24 54 7
4 19 54 39 7
4 50 39 64 7
4 8 25 61 3
4 60 64 24 7
4 79 28 67 13
4 19 51 61 49
4 8 61 0 49
4 15 51 28 13
4 19 39 51 13
4 50 67 39 13
4 19 61 54 3
4 14 0 12 49
4 5 35 25 3
4 15 12 51 49
4 16 54 35 3
CELL_TYPES 64
8
8
8
8
8
8
8
8
8
8
8
8
8
8
8
8
8
8
8
8
8
8
8
8
8
8
8
8
8
8
8
8
8
8
8
8
8
8
8
8
8
8
8
8
8
8
8
8
8
8
8
8
8
8
8
8
8
8
8
8
8
8
8
8
CELL_DATA 64
VECTORS vector_value float
0.103831 -0.107862 0
-0.0583358 -0.299446 0
-0.195363 -0.845001 0
-9.16478e-05 -0.18095 0
0.26143 -0.33943 0
0.487613 -0.755342 0
0.154182 -0.377749 0
0.0271003 -0.00958971 0
0.076133 -0.200174 0
0.224055 -0.116295 0
0.0484679 -0.263092 0
0.322159 -0.708896 0
-0.0852371 -0.329717 0
0.452289 -0.0422892 0
-0.00481233 -0.034784 0
0.0138872 -0.318307 0
-0.148028 -1.09161 0
-0.0823673 -0.603906 0
0.106642 -1.11704 0
0.134364 -0.727621 0
0.0919037 -0.504017 0
0.733831 -0.472783 0
0.620254 -1.35959 0
-0.0573416 -0.800409 0
-0.110727 -0.767277 0
0.381321 -0.101619 0
0.348316 -0.896072 0
0.745512 -0.294963 0
0.380851 -0.338211 0
0.860589 -0.363633 0
0.124725 -0.197515 0
0.0442352 -0.157392 0
0.122067 -0.707774 0
-0.495553 -0.82286 0
0.147723 -1.60191 0
-0.193764 -0.208192 0
-0.0481423 -0.282134 0
-0.0227188 -0.150103 0
0.307666 -4.21657 0
-0.240556 -3.76126 0
0.375655 -5.62627 0
-0.165542 -0.446029 0
-0.284364 -2.73433 0
-0.119717 -0.432048 0
0.638347 -2.22264 0
-0.620723 -2.74517 0
0.0348944 -0.381904 0
0.152637 -0.731874 0
0.701793 -1.38446 0
-0.0537944 -1.81476 0
0.610405 -1.35862 0
0.0742749 -1.46428 0
1.04699 -0.918535 0
0.306856 -0.77621 0
-0.167865 -0.222843 0
-0.522497 -1.35606 0
0.33219 -3.61635 0
0.155663 -3.14071 0
0.399424 -1.22996 0
-0.41381 -0.817858 0
-0.0516641 -0.419836 0
0.185487 -1.03337 0
-0.347747 -1.2671 0
0.436908 -1.38539 0
