# vtk DataFile Version 2.0
Unstructured Grid by M++
ASCII
DATASET UNSTRUCTURED_GRID
POINTS 289 float
  0.562500   1.000000 0
  0.562500   0.625000 0
  0.625000   1.000000 0
  0.562500   0.937500 0
  0.562500   0.562500 0
  0.625000   0.937500 0
  0.562500   0.875000 0
  0.625000   0.750000 0
  0.625000   0.625000 0
  0.562500   0.812500 0
  0.562500   0.750000 0
  0.562500   0.687500 0
  0.625000   0.875000 0
  0.625000   0.812500 0
  0.625000   0.687500 0
  0.687500   0.125000 0
  0.875000   0.062500 0
  0.625000   0.125000 0
  0.625000   0.187500 0
  0.625000   0.250000 0
  0.812500   0.187500 0
  1.000000   0.125000 0
  0.687500   0.187500 0
  0.750000   0.125000 0
  0.937500   0.062500 0
  0.937500   0.125000 0
  0.750000   0.187500 0
  0.812500   0.062500 0
  0.812500   0.125000 0
  0.875000   0.687500 0
  0.187500   0.250000 0
  0.437500   0.250000 0
  0.375000   0.187500 0
  0.812500   0.625000 0
  0.125000   0.187500 0
  0.937500   0.750000 0
  0.250000   0.312500 0
  0.500000   0.312500 0
  0.625000   0.062500 0
  0.437500   0.500000 0
  0.375000   0.125000 0
  0.437500   0.187500 0
  0.437500   0.437500 0
  0.437500   0.375000 0
  0.875000   0.875000 0
  0.187500   0.375000 0
  0.687500   0.562500 0
  0.687500   0.625000 0
  0.000000   0.125000 0
  0.937500   0.625000 0
  0.250000   0.125000 0
  0.375000   0.062500 0
  0.375000   0.000000 0
  0.812500   0.500000 0
  0.125000   0.000000 0
  0.937500   0.937500 0
  0.250000   0.437500 0
  0.687500   0.875000 0
  0.687500   0.937500 0
  0.000000   0.437500 0
  0.500000   0.500000 0
  0.500000   0.437500 0
  0.750000   0.937500 0
  0.750000   1.000000 0
  0.062500   0.500000 0
  1.000000   1.000000 0
  0.312500   0.500000 0
  0.875000   0.562500 0
  0.187500   0.062500 0
  0.437500   0.125000 0
  0.437500   0.062500 0
  0.500000   0.375000 0
  0.937500   0.812500 0
  0.937500   0.875000 0
  0.250000   0.375000 0
  0.687500   0.812500 0
  0.000000   0.375000 0
  0.750000   0.562500 0
  0.062500   0.125000 0
  1.000000   0.562500 0
  1.000000   0.625000 0
  0.312500   0.125000 0
  0.562500   0.125000 0
  0.437500   0.000000 0
  0.875000   0.437500 0
  0.875000   0.500000 0
  0.187500   0.000000 0
  0.937500   0.562500 0
  0.937500   0.500000 0
  0.250000   0.062500 0
  0.687500   0.500000 0
  0.000000   0.062500 0
  0.500000   0.062500 0
  1.000000   0.875000 0
  1.000000   0.937500 0
  0.312500   0.437500 0
  0.750000   0.875000 0
  0.062500   0.437500 0
  0.812500   0.937500 0
  0.125000   0.500000 0
  0.375000   0.500000 0
  0.625000   0.562500 0
  0.625000   0.500000 0
  0.437500   0.312500 0
  0.875000   0.812500 0
  0.875000   0.750000 0
  0.187500   0.312500 0
  0.812500   0.687500 0
  0.812500   0.750000 0
  0.125000   0.250000 0
  0.375000   0.250000 0
  1.000000   0.687500 0
  0.312500   0.187500 0
  0.750000   0.687500 0
  0.750000   0.625000 0
  0.062500   0.187500 0
  0.562500   0.250000 0
  0.562500   0.187500 0
  0.375000   1.000000 0
  0.500000   0.562500 0
  0.500000   0.250000 0
  0.750000   0.250000 0
  0.500000   0.125000 0
  0.500000   0.187500 0
  1.000000   0.187500 0
  0.625000   0.375000 0
  0.875000   0.375000 0
  1.000000   0.437500 0
  0.312500   0.000000 0
  0.562500   0.000000 0
  0.812500   0.000000 0
  0.250000   0.687500 0
  0.000000   0.687500 0
  0.500000   1.000000 0
  0.250000   1.000000 0
  0.000000   1.000000 0
  0.437500   0.687500 0
  0.437500   0.625000 0
  0.187500   0.625000 0
  0.687500   0.750000 0
  0.000000   0.312500 0
  0.000000   0.250000 0
  0.375000   0.375000 0
  0.375000   0.312500 0
  0.812500   0.812500 0
  0.125000   0.312500 0
  0.875000   0.625000 0
  0.187500   0.187500 0
  0.187500   0.125000 0
  0.937500   1.000000 0
  0.250000   0.562500 0
  0.250000   0.500000 0
  0.687500   1.000000 0
  0.000000   0.500000 0
  0.687500   0.687500 0
  0.000000   0.187500 0
  0.937500   0.687500 0
  0.250000   0.250000 0
  0.250000   0.187500 0
  0.187500   0.687500 0
  0.000000   0.750000 0
  0.250000   0.750000 0
  0.125000   0.625000 0
  0.750000   0.750000 0
  0.062500   0.250000 0
  0.875000   0.937500 0
  0.187500   0.500000 0
  0.187500   0.437500 0
  0.812500   0.562500 0
  0.125000   0.125000 0
  0.125000   0.062500 0
  0.375000   0.625000 0
  0.375000   0.687500 0
  1.000000   0.750000 0
  0.312500   0.250000 0
  0.312500   0.312500 0
  0.812500   0.312500 0
  0.562500   0.312500 0
  0.375000   0.750000 0
  0.500000   0.625000 0
  0.250000   0.625000 0
  0.312500   0.687500 0
  0.750000   0.812500 0
  0.062500   0.312500 0
  0.062500   0.375000 0
  1.000000   0.812500 0
  0.312500   0.375000 0
  0.562500   0.375000 0
  0.687500   0.437500 0
  0.000000   0.000000 0
  0.500000   0.000000 0
  0.937500   0.437500 0
  0.250000   0.000000 0
  0.375000   0.437500 0
  0.812500   0.875000 0
  0.125000   0.375000 0
  0.125000   0.437500 0
  0.625000   0.437500 0
  1.000000   0.500000 0
  0.312500   0.062500 0
  0.750000   0.500000 0
  0.062500   0.000000 0
  0.062500   0.062500 0
  0.562500   0.062500 0
  0.062500   0.750000 0
  0.312500   0.750000 0
  0.312500   0.625000 0
  0.312500   0.562500 0
  0.062500   0.562500 0
  0.187500   1.000000 0
  0.437500   0.562500 0
  0.875000   1.000000 0
  0.187500   0.562500 0
  0.500000   0.937500 0
  0.250000   0.937500 0
  0.312500   1.000000 0
  0.125000   0.750000 0
  0.125000   0.687500 0
  1.000000   0.000000 0
  0.000000   0.937500 0
  0.000000   0.875000 0
  0.875000   0.125000 0
  0.875000   0.187500 0
  0.062500   0.812500 0
  0.312500   0.812500 0
  0.000000   0.812500 0
  0.000000   0.625000 0
  0.000000   0.562500 0
  0.062500   1.000000 0
  0.062500   0.937500 0
  0.937500   0.187500 0
  0.937500   0.250000 0
  0.062500   0.687500 0
  0.062500   0.625000 0
  0.125000   1.000000 0
  1.000000   0.250000 0
  1.000000   0.312500 0
  0.062500   0.875000 0
  0.125000   0.812500 0
  0.375000   0.812500 0
  0.125000   0.875000 0
  0.375000   0.937500 0
  0.375000   0.875000 0
  0.187500   0.750000 0
  0.187500   0.812500 0
  0.437500   0.812500 0
  0.187500   0.875000 0
  0.437500   0.875000 0
  0.375000   0.562500 0
  0.812500   1.000000 0
  0.125000   0.562500 0
  0.437500   1.000000 0
  0.437500   0.937500 0
  0.187500   0.937500 0
  0.125000   0.937500 0
  0.500000   0.687500 0
  0.500000   0.750000 0
  0.500000   0.812500 0
  0.250000   0.812500 0
  0.250000   0.875000 0
  0.500000   0.875000 0
  0.437500   0.750000 0
  0.312500   0.875000 0
  0.312500   0.937500 0
  0.687500   0.250000 0
  0.687500   0.312500 0
  0.937500   0.312500 0
  0.875000   0.250000 0
  0.625000   0.000000 0
  0.875000   0.000000 0
  0.687500   0.375000 0
  0.937500   0.375000 0
  0.875000   0.312500 0
  0.625000   0.312500 0
  0.687500   0.000000 0
  0.937500   0.000000 0
  0.750000   0.312500 0
  0.750000   0.375000 0
  1.000000   0.375000 0
  0.812500   0.250000 0
  0.562500   0.437500 0
  0.562500   0.500000 0
  0.687500   0.062500 0
  0.750000   0.437500 0
  0.750000   0.000000 0
  0.750000   0.062500 0
  1.000000   0.062500 0
  0.812500   0.375000 0
  0.812500   0.437500 0
CELLS 256 1280
4 169 170 148 68
4 151 166 56 167
4 195 45 196 167
4 54 170 201 202
4 109 34 30 147
4 40 32 81 112
4 192 89 86 68
4 48 91 78 202
4 99 64 196 97
4 71 43 37 103
4 74 186 56 95
4 109 164 34 115
4 50 81 158 112
4 122 69 92 70
4 195 145 45 106
4 110 143 174 175
4 157 30 158 147
4 40 69 32 41
4 50 158 148 147
4 141 155 164 115
4 122 123 69 41
4 142 186 143 175
4 60 39 61 42
4 40 51 69 70
4 120 31 123 41
4 157 174 36 175
4 50 148 89 68
4 48 78 155 115
4 52 83 51 70
4 151 56 66 95
4 71 61 43 42
4 169 148 34 147
4 100 193 39 42
4 40 81 51 199
4 110 174 32 112
4 109 30 145 106
4 100 66 193 95
4 169 34 78 115
4 190 92 83 70
4 50 89 81 199
4 54 86 170 68
4 74 56 45 167
4 142 143 43 103
4 153 59 64 97
4 99 196 166 167
4 169 78 170 202
4 142 193 186 95
4 192 128 89 199
4 74 45 36 106
4 110 31 143 103
4 76 184 59 97
4 142 43 193 42
4 52 51 128 199
4 189 201 91 202
4 120 37 31 103
4 74 36 186 175
4 195 196 184 97
4 141 164 140 183
4 157 158 174 112
4 109 145 164 183
4 195 184 145 183
4 110 32 31 41
4 157 36 30 106
4 76 140 184 183
4 171 172 206 181
4 178 172 261 136
4 256 261 255 136
4 256 257 261 245
4 180 150 206 207
4 60 119 39 210
4 118 215 241 263
4 178 205 172 181
4 216 243 238 244
4 162 217 233 232
4 180 206 131 181
4 179 137 119 210
4 216 204 217 232
4 220 237 219 229
4 216 217 243 159
4 259 258 262 224
4 240 254 237 229
4 153 64 227 208
4 161 205 258 224
4 240 237 238 223
4 226 227 233 208
4 234 228 254 229
4 171 248 137 210
4 160 132 204 232
4 180 131 138 159
4 133 251 213 252
4 171 206 248 207
4 162 138 217 159
4 161 258 243 244
4 220 225 237 223
4 151 150 166 212
4 260 247 257 245
4 259 262 214 263
4 151 66 150 207
4 234 254 209 253
4 162 233 250 208
4 242 241 262 263
4 171 137 172 136
4 161 243 131 159
4 160 204 225 223
4 161 131 205 181
4 179 255 137 136
4 216 238 204 223
4 100 39 248 210
4 260 213 247 252
4 226 233 132 232
4 134 214 215 263
4 180 138 150 212
4 178 261 239 245
4 259 246 258 244
4 178 239 205 224
4 240 238 246 244
4 242 262 239 224
4 99 250 64 208
4 240 246 254 253
4 242 239 247 245
4 135 219 228 229
4 99 166 250 212
4 259 214 246 253
4 118 241 251 252
4 100 248 66 207
4 134 209 214 253
4 162 250 138 212
4 242 247 241 252
4 71 187 61 280
4 102 281 197 280
4 122 92 82 203
4 17 18 82 117
4 122 82 123 117
4 19 264 273 265
4 267 279 222 20
4 125 273 270 265
4 267 272 279 176
4 19 116 18 117
4 21 25 286 24
4 23 28 26 20
4 23 285 28 27
4 218 286 275 24
4 85 53 84 288
4 235 236 231 266
4 221 222 28 20
4 267 222 231 230
4 268 38 129 203
4 125 270 197 188
4 126 287 272 176
4 277 270 276 265
4 267 231 272 266
4 125 197 187 280
4 190 129 92 203
4 277 276 287 176
4 19 18 264 22
4 17 82 38 203
4 102 197 90 188
4 126 84 287 288
4 284 130 285 27
4 121 276 264 265
4 71 37 187 177
4 120 123 116 117
4 198 88 127 191
4 221 16 25 24
4 23 26 15 22
4 121 279 276 176
4 235 231 124 230
4 125 187 273 177
4 278 271 236 266
4 277 287 283 288
4 284 285 274 282
4 278 127 271 191
4 269 275 16 24
4 200 283 53 288
4 23 15 285 282
4 121 26 279 20
4 21 124 25 230
4 19 273 116 177
4 200 90 283 188
4 126 271 84 191
4 269 16 130 27
4 17 38 15 282
4 221 25 222 230
4 121 264 26 22
4 120 116 37 177
4 60 61 281 280
4 277 283 270 188
4 126 272 271 266
4 268 274 38 282
4 85 84 88 191
4 17 15 18 22
4 221 28 16 27
4 93 94 73 55
4 85 88 67 87
4 80 49 79 87
4 44 104 73 72
4 146 33 67 168
4 211 165 149 55
4 8 47 14 154
4 105 104 108 144
4 105 108 29 107
4 7 139 13 75
4 44 165 194 98
4 200 53 77 168
4 8 1 101 4
4 2 5 152 58
4 260 6 213 3
4 105 35 104 72
4 96 57 182 75
4 7 14 139 154
4 146 29 33 107
4 7 13 10 9
4 12 13 57 75
4 85 67 53 168
4 44 73 165 55
4 63 152 62 58
4 8 101 47 46
4 96 182 194 144
4 60 281 119 4
4 12 5 6 3
4 173 185 35 72
4 65 149 94 55
4 146 67 49 87
4 114 113 47 154
4 163 108 182 144
4 12 6 13 9
4 173 35 111 156
4 163 182 139 75
4 260 257 6 9
4 105 29 35 156
4 163 139 113 154
4 256 10 257 9
4 146 49 29 156
4 163 113 108 107
4 80 111 49 156
4 102 101 281 4
4 12 57 5 58
4 44 194 104 144
4 96 194 62 98
4 2 0 5 3
4 93 73 185 72
4 179 119 1 4
4 200 77 90 46
4 114 33 113 107
4 7 10 14 11
4 96 62 57 58
4 133 213 0 3
4 102 90 101 46
4 256 255 10 11
4 63 62 249 98
4 114 47 77 46
4 179 1 255 11
4 211 249 165 98
4 114 77 33 168
4 198 79 88 87
4 8 14 1 11
CELL_TYPES 256
8
8
8
8
8
8
8
8
8
8
8
8
8
8
8
8
8
8
8
8
8
8
8
8
8
8
8
8
8
8
8
8
8
8
8
8
8
8
8
8
8
8
8
8
8
8
8
8
8
8
8
8
8
8
8
8
8
8
8
8
8
8
8
8
8
8
8
8
8
8
8
8
8
8
8
8
8
8
8
8
8
8
8
8
8
8
8
8
8
8
8
8
8
8
8
8
8
8
8
8
8
8
8
8
8
8
8
8
8
8
8
8
8
8
8
8
8
8
8
8
8
8
8
8
8
8
8
8
8
8
8
8
8
8
8
8
8
8
8
8
8
8
8
8
8
8
8
8
8
8
8
8
8
8
8
8
8
8
8
8
8
8
8
8
8
8
8
8
8
8
8
8
8
8
8
8
8
8
8
8
8
8
8
8
8
8
8
8
8
8
8
8
8
8
8
8
8
8
8
8
8
8
8
8
8
8
8
8
8
8
8
8
8
8
8
8
8
8
8
8
8
8
8
8
8
8
8
8
8
8
8
8
8
8
8
8
8
8
8
8
8
8
8
8
8
8
8
8
8
8
8
8
8
8
8
8
CELL_DATA 256
VECTORS vector_value float
-0.0988913 -0.17746 0
0.955188 -1.92448 0
0.0189191 -0.166329 0
-0.0259856 -0.205303 0
-0.095118 -0.127532 0
0.189116 -0.709196 0
-0.051431 -0.240253 0
-0.0296603 -0.305384 0
0.0269127 -0.0867439 0
0.25063 -0.113105 0
0.939507 -2.16097 0
-0.0645774 -0.114979 0
-0.0375456 -0.353756 0
0.26099 -1.00702 0
-0.0461419 -0.105122 0
0.879449 -1.56949 0
-0.118713 -0.253965 0
0.471038 -1.1181 0
-0.0638257 -0.203023 0
-0.0388265 -0.169829 0
0.450135 -0.829635 0
0.628193 -1.62786 0
0.0571373 -0.0212424 0
0.296378 -0.966051 0
0.42924 -0.436367 0
0.388484 -1.3168 0
-0.14296 -0.256153 0
-0.0361005 -0.239443 0
0.117518 -0.706432 0
0.992329 -1.99321 0
0.259332 -0.0512194 0
-0.103308 -0.168368 0
0.0886774 -0.0745043 0
0.0726705 -0.41818 0
0.529507 -1.14988 0
-0.083355 -0.0981018 0
0.297942 -0.407323 0
-0.0928753 -0.155974 0
0.152825 -1.28122 0
-0.0790712 -0.22109 0
-0.0513518 -0.22004 0
0.343136 -1.01599 0
0.346393 -0.25461 0
-0.000237422 -0.0199858 0
0.255634 -0.383453 0
-0.0713573 -0.178684 0
0.828126 -1.12503 0
-0.0284717 -0.164178 0
0.132106 -0.595926 0
0.695342 -0.613673 0
-0.00829844 -0.0267516 0
0.350994 -0.150899 0
0.0150444 -0.2873 0
-0.00807973 -0.337242 0
0.289133 -0.171055 0
0.463826 -1.717 0
-0.0213416 -0.0733603 0
-0.0189345 -0.0926769 0
0.107275 -0.696335 0
-0.0591812 -0.107274 0
-0.0494254 -0.0897263 0
0.731819 -1.09599 0
-0.0434165 -0.333973 0
-0.0190494 -0.0491102 0
-0.0118047 -0.151513 0
-0.000818944 -0.0903465 0
0.0152995 -0.0574552 0
0.0646292 -0.0959935 0
0.0636057 -0.907559 0
0.00937651 -0.0167544 0
0.442558 -0.645704 0
-0.0592015 -0.210072 0
0.475656 -1.04201 0
0.169446 -0.357757 0
-0.00401972 -0.856372 0
0.00106516 -0.0318779 0
0.421241 -0.638074 0
-0.00470695 -0.874978 0
0.511686 -1.44826 0
0.061888 -0.676865 0
0.00145913 -1.3336 0
0.0042688 -0.0238561 0
-0.118718 -0.709142 0
0.190596 -1.11288 0
0.00961198 -0.0375444 0
-0.0496301 -1.19401 0
-0.010314 -0.0705611 0
0.105181 -0.236267 0
0.173419 -1.76983 0
1.24572 -0.646989 0
-0.00522384 -0.174568 0
0.352576 -1.6153 0
0.162971 -1.08119 0
0.0360054 -0.968123 0
0.572055 -2.33318 0
0.285635 -0.159471 0
0.333126 -0.703918 0
0.343268 -1.42597 0
-0.172733 -0.922325 0
0.0591129 -0.221391 0
0.352812 -0.52988 0
-0.00564727 -0.084764 0
0.141427 -1.46756 0
0.254685 -0.656728 0
-0.0939715 -0.827779 0
0.00423714 -0.0409275 0
0.581254 -0.959426 0
0.00285452 -0.0616435 0
0.948732 -0.303292 0
0.0326348 -0.0805742 0
0.0788146 -0.709343 0
0.349363 -2.24631 0
0.0210835 -0.129592 0
0.142118 -0.602269 0
-0.0818297 -0.360329 0
0.264778 -0.970898 0
0.0985565 -0.540823 0
0.0401274 -0.161778 0
0.0156991 -0.981582 0
0.187203 -0.200483 0
0.0515384 -0.953482 0
0.260598 -0.72645 0
0.130451 -0.656888 0
0.818306 -0.892561 0
0.0159266 -0.191608 0
-0.0731712 -1.1005 0
0.334229 -1.26161 0
0.601226 -0.484313 0
0.204727 -0.103153 0
-0.0377515 -0.217107 0
0.0815473 -0.624411 0
0.0733672 -0.529947 0
0.175866 -0.419188 0
-0.048752 -1.50718 0
-0.250433 -0.687931 0
0.0162136 -1.17539 0
-0.638818 -0.812911 0
0.128188 -0.560142 0
-0.114136 -0.66621 0
0.416677 -2.77485 0
1.1378 -3.08207 0
-0.02441 -0.579243 0
-1.00507 -2.65861 0
-0.115296 -1.71679 0
-0.00784266 -0.786268 0
-0.281392 -0.518227 0
-0.0695482 -0.665636 0
-0.133289 -0.791777 0
-1.09871 -1.20827 0
-0.904442 -2.57828 0
-0.284209 -0.562504 0
0.0893128 -0.387688 0
-0.0125614 -0.804377 0
-1.89326 -2.87226 0
-0.0268747 -1.72788 0
-0.0728586 -0.60967 0
-0.210816 -0.520258 0
-1.7703 -2.37544 0
0.649517 -3.25777 0
-0.694899 -3.82066 0
0.180136 -0.129874 0
0.20455 -0.268814 0
-0.119763 -2.21179 0
-0.265036 -0.882157 0
0.3937 -3.97304 0
-0.981586 -2.66705 0
-0.146446 -1.4308 0
0.194238 -0.393707 0
-0.0995345 -1.9418 0
-1.03225 -1.78411 0
0.383748 -2.40392 0
-0.0648621 -2.07668 0
0.0515126 -1.07328 0
-0.985403 -1.32937 0
0.828054 -3.06397 0
-0.215386 -2.61637 0
-0.212756 -1.12442 0
0.143739 -0.412739 0
-0.561376 -0.944174 0
-0.756275 -2.25089 0
0.400036 -2.70237 0
0.167038 -1.67453 0
-0.224842 -0.639801 0
-0.161587 -4.14496 0
0.230587 -0.197124 0
0.0380484 -0.0488976 0
-0.466037 -1.45973 0
-0.546237 -1.14797 0
0.0562253 -1.07144 0
-0.556965 -3.15886 0
0.0740101 -1.97499 0
0.475875 -1.86696 0
0.0411905 -0.61021 0
-0.404269 -3.07654 0
-0.294051 -3.22067 0
1.3785 -2.46087 0
-1.01571 -2.62354 0
-0.335251 -1.0506 0
0.0148675 -0.123163 0
1.75555 -2.50141 0
1.27016 -2.70733 0
0.397981 -0.408522 0
0.632711 -1.89802 0
-0.751686 -1.13105 0
-0.0057569 -0.0577198 0
2.68991 -1.14707 0
0.992003 -0.230358 0
1.68096 -3.3936 0
1.26165 -1.47891 0
0.136812 -0.183409 0
0.015995 -1.88756 0
0.184321 -0.109398 0
0.730009 -0.712567 0
-0.676658 -3.16651 0
0.34887 -1.55961 0
1.93681 -1.3559 0
-0.0664224 -0.17028 0
2.08677 -2.19709 0
0.0076851 -0.0235184 0
1.06065 -0.473692 0
0.598177 -2.1853 0
-0.217339 -0.63075 0
-1.04358 -3.80522 0
0.0524261 -0.323591 0
1.49605 -1.47665 0
0.451226 -0.235016 0
0.642581 -3.81033 0
0.75662 -0.808645 0
0.335008 -0.162756 0
1.02758 -2.97398 0
0.342081 -0.493627 0
0.110059 -0.0820535 0
-0.164899 -4.15796 0
0.615595 -0.75572 0
-0.274759 -3.76847 0
-0.0313339 -0.110785 0
1.43193 -1.0317 0
2.16932 -2.356 0
1.17494 -2.16484 0
2.72001 -0.895401 0
0.412107 -1.16497 0
0.00856039 -0.0212421 0
-0.432407 -0.548321 0
0.0918354 -0.710446 0
0.062432 -0.0569627 0
1.82233 -2.16312 0
2.04696 -0.705582 0
-0.167165 -0.307021 0
0.0345566 -0.0428275 0
1.18054 -1.54351 0
-0.178084 -0.33195 0
0.0160173 -0.0304626 0
0.31428 -1.60626 0
-0.398109 -0.817959 0
-0.225149 -2.69501 0
0.0190184 -0.0413153 0
