# vtk DataFile Version 2.0
Unstructured Grid by M++
ASCII
DATASET UNSTRUCTURED_GRID
POINTS 81 float
  1.000000   0.625000 0
  0.750000   0.375000 0
  1.000000   0.000000 0
  0.875000   0.875000 0
  0.750000   0.125000 0
  1.000000   1.000000 0
  0.875000   0.250000 0
  0.625000   0.875000 0
  1.000000   0.750000 0
  0.875000   0.000000 0
  1.000000   0.250000 0
  0.625000   0.375000 0
  0.875000   0.500000 0
  0.625000   0.625000 0
  1.000000   0.500000 0
  0.750000   0.500000 0
  0.750000   1.000000 0
  1.000000   0.125000 0
  0.625000   0.250000 0
  0.750000   0.750000 0
  0.625000   0.000000 0
  0.125000   0.375000 0
  0.000000   0.500000 0
  0.125000   0.625000 0
  0.625000   1.000000 0
  1.000000   0.875000 0
  0.875000   0.125000 0
  0.500000   0.250000 0
  0.625000   0.500000 0
  0.250000   0.625000 0
  0.000000   0.625000 0
  0.375000   0.500000 0
  0.375000   0.000000 0
  0.000000   0.125000 0
  0.125000   0.875000 0
  0.875000   1.000000 0
  0.750000   0.250000 0
  0.375000   0.375000 0
  0.250000   0.375000 0
  0.625000   0.750000 0
  0.125000   0.125000 0
  0.500000   0.000000 0
  0.250000   0.875000 0
  0.125000   0.500000 0
  0.500000   0.375000 0
  0.125000   0.000000 0
  0.250000   0.750000 0
  0.250000   0.500000 0
  0.000000   0.875000 0
  0.875000   0.625000 0
  0.500000   0.750000 0
  0.750000   0.625000 0
  0.250000   0.000000 0
  0.375000   0.750000 0
  0.750000   0.875000 0
  0.625000   0.125000 0
  0.250000   0.250000 0
  0.375000   1.000000 0
  0.375000   0.250000 0
  0.000000   0.375000 0
  0.500000   1.000000 0
  0.875000   0.750000 0
  0.750000   0.000000 0
  0.375000   0.125000 0
  0.500000   0.875000 0
  0.000000   0.000000 0
  0.125000   0.750000 0
  0.500000   0.625000 0
  0.125000   0.250000 0
  0.500000   0.125000 0
  0.250000   1.000000 0
  0.250000   0.125000 0
  0.000000   1.000000 0
  0.375000   0.875000 0
  0.000000   0.750000 0
  0.375000   0.625000 0
  0.000000   0.250000 0
  0.125000   1.000000 0
  1.000000   0.375000 0
  0.500000   0.500000 0
  0.875000   0.375000 0
CELLS 64 320
4 56 71 58 63
4 27 58 69 63
4 41 69 32 63
4 76 33 68 40
4 27 44 58 37
4 79 31 44 37
4 56 38 68 21
4 56 58 38 37
4 52 32 71 63
4 47 38 31 37
4 76 68 59 21
4 22 59 43 21
4 65 45 33 40
4 47 43 38 21
4 52 71 45 40
4 56 68 71 40
4 74 30 66 23
4 46 66 29 23
4 22 43 30 23
4 72 48 77 34
4 46 53 42 73
4 50 64 53 73
4 70 42 57 73
4 74 66 48 34
4 46 42 66 34
4 47 29 43 23
4 70 77 42 34
4 60 57 64 73
4 79 67 31 75
4 47 31 29 75
4 50 53 67 75
4 46 29 53 75
4 10 78 6 80
4 36 6 1 80
4 15 1 12 80
4 36 4 6 26
4 14 12 78 80
4 2 17 9 26
4 36 18 4 55
4 15 28 1 11
4 62 4 20 55
4 10 6 17 26
4 27 18 44 11
4 62 9 4 26
4 27 69 18 55
4 36 1 18 11
4 41 20 69 55
4 79 44 28 11
4 16 24 54 7
4 19 54 39 7
4 50 39 64 7
4 8 25 61 3
4 60 64 24 7
4 79 28 67 13
4 19 51 61 49
4 8 61 0 49
4 15 51 28 13
4 19 39 51 13
4 50 67 39 13
4 19 61 54 3
4 14 0 12 49
4 5 35 25 3
4 15 12 51 49
4 16 54 35 3
CELL_TYPES 64
8
8
8
8
8
8
8
8
8
8
8
8
8
8
8
8
8
8
8
8
8
8
8
8
8
8
8
8
8
8
8
8
8
8
8
8
8
8
8
8
8
8
8
8
8
8
8
8
8
8
8
8
8
8
8
8
8
8
8
8
8
8
8
8
CELL_DATA 64
VECTORS vector_value float
0.621811 -1.11844 0
0.16715 -0.137763 0
0.0333568 -0.118824 0
0.105672 -0.945002 0
0.851973 -0.524913 0
0.488529 -0.278209 0
1.06583 -2.47008 0
0.71378 -0.708148 0
0.0445892 -1.76434 0
0.683522 -0.780171 0
0.598156 -1.80976 0
0.219558 -2.76506 0
0.00157811 -0.830636 0
0.497319 -2.15798 0
0.0131948 -1.85191 0
0.653442 -2.51572 0
0.442123 -3.40252 0
0.404955 -2.29891 0
0.0482269 -2.66556 0
-0.849451 -2.1043 0
-0.486791 -0.63251 0
-0.0599262 -0.0659846 0
-2.75506 -0.76205 0
-0.480918 -3.54535 0
-1.05701 -1.77117 0
0.219498 -2.75436 0
-2.05162 -1.34542 0
-2.45905 -0.838622 0
0.0444983 -0.079502 0
0.229032 -0.612747 0
-0.0672725 -0.090677 0
-0.108168 -0.329306 0
-0.00551707 -0.340974 0
0.0408472 -0.597727 0
-0.0725664 -0.454992 0
0.992866 -1.10987 0
-0.0436703 -0.397578 0
0.389237 -1.4304 0
1.36384 -1.18761 0
0.0896018 -0.482507 0
0.194038 -0.829257 0
0.216461 -0.573702 0
0.69052 -0.751638 0
0.400149 -1.11989 0
0.743704 -0.411887 0
0.210245 -0.796761 0
0.0255398 -0.0547325 0
0.322969 -0.683494 0
-0.833716 -0.809916 0
-0.150028 -0.337483 0
-0.193194 -0.23689 0
-0.0783678 -1.24185 0
-1.54677 -0.633214 0
-0.0715312 -0.484406 0
-0.196455 -0.454263 0
-0.180548 -1.01707 0
-0.353264 -0.283878 0
-0.0234504 -0.0758702 0
-0.0600614 -0.331383 0
-0.101224 -0.168763 0
-0.180474 -0.656819 0
0.162954 -1.40294 0
-0.409235 -0.462733 0
-0.0973395 -0.103542 0
