# vtk DataFile Version 2.0
Unstructured Grid by M++
ASCII
DATASET UNSTRUCTURED_GRID
POINTS 81 float
  1.000000   0.625000 0
  0.750000   0.375000 0
  1.000000   0.000000 0
  0.875000   0.875000 0
  0.750000   0.125000 0
  1.000000   1.000000 0
  0.875000   0.250000 0
  0.625000   0.875000 0
  1.000000   0.750000 0
  0.875000   0.000000 0
  1.000000   0.250000 0
  0.625000   0.375000 0
  0.875000   0.500000 0
  0.625000   0.625000 0
  1.000000   0.500000 0
  0.750000   0.500000 0
  0.750000   1.000000 0
  1.000000   0.125000 0
  0.625000   0.250000 0
  0.750000   0.750000 0
  0.625000   0.000000 0
  0.125000   0.375000 0
  0.000000   0.500000 0
  0.125000   0.625000 0
  0.625000   1.000000 0
  1.000000   0.875000 0
  0.875000   0.125000 0
  0.500000   0.250000 0
  0.625000   0.500000 0
  0.250000   0.625000 0
  0.000000   0.625000 0
  0.375000   0.500000 0
  0.375000   0.000000 0
  0.000000   0.125000 0
  0.125000   0.875000 0
  0.875000   1.000000 0
  0.750000   0.250000 0
  0.375000   0.375000 0
  0.250000   0.375000 0
  0.625000   0.750000 0
  0.125000   0.125000 0
  0.500000   0.000000 0
  0.250000   0.875000 0
  0.125000   0.500000 0
  0.500000   0.375000 0
  0.125000   0.000000 0
  0.250000   0.750000 0
  0.250000   0.500000 0
  0.000000   0.875000 0
  0.875000   0.625000 0
  0.500000   0.750000 0
  0.750000   0.625000 0
  0.250000   0.000000 0
  0.375000   0.750000 0
  0.750000   0.875000 0
  0.625000   0.125000 0
  0.250000   0.250000 0
  0.375000   1.000000 0
  0.375000   0.250000 0
  0.000000   0.375000 0
  0.500000   1.000000 0
  0.875000   0.750000 0
  0.750000   0.000000 0
  0.375000   0.125000 0
  0.500000   0.875000 0
  0.000000   0.000000 0
  0.125000   0.750000 0
  0.500000   0.625000 0
  0.125000   0.250000 0
  0.500000   0.125000 0
  0.250000   1.000000 0
  0.250000   0.125000 0
  0.000000   1.000000 0
  0.375000   0.875000 0
  0.000000   0.750000 0
  0.375000   0.625000 0
  0.000000   0.250000 0
  0.125000   1.000000 0
  1.000000   0.375000 0
  0.500000   0.500000 0
  0.875000   0.375000 0
CELLS 64 320
4 56 71 58 63
4 27 58 69 63
4 41 69 32 63
4 76 33 68 40
4 27 44 58 37
4 79 31 44 37
4 56 38 68 21
4 56 58 38 37
4 52 32 71 63
4 47 38 31 37
4 76 68 59 21
4 22 59 43 21
4 65 45 33 40
4 47 43 38 21
4 52 71 45 40
4 56 68 71 40
4 74 30 66 23
4 46 66 29 23
4 22 43 30 23
4 72 48 77 34
4 46 53 42 73
4 50 64 53 73
4 70 42 57 73
4 74 66 48 34
4 46 42 66 34
4 47 29 43 23
4 70 77 42 34
4 60 57 64 73
4 79 67 31 75
4 47 31 29 75
4 50 53 67 75
4 46 29 53 75
4 10 78 6 80
4 36 6 1 80
4 15 1 12 80
4 36 4 6 26
4 14 12 78 80
4 2 17 9 26
4 36 18 4 55
4 15 28 1 11
4 62 4 20 55
4 10 6 17 26
4 27 18 44 11
4 62 9 4 26
4 27 69 18 55
4 36 1 18 11
4 41 20 69 55
4 79 44 28 11
4 16 24 54 7
4 19 54 39 7
4 50 39 64 7
4 8 25 61 3
4 60 64 24 7
4 79 28 67 13
4 19 51 61 49
4 8 61 0 49
4 15 51 28 13
4 19 39 51 13
4 50 67 39 13
4 19 61 54 3
4 14 0 12 49
4 5 35 25 3
4 15 12 51 49
4 16 54 35 3
CELL_TYPES 64
8
8
8
8
8
8
8
8
8
8
8
8
8
8
8
8
8
8
8
8
8
8
8
8
8
8
8
8
8
8
8
8
8
8
8
8
8
8
8
8
8
8
8
8
8
8
8
8
8
8
8
8
8
8
8
8
8
8
8
8
8
8
8
8
CELL_DATA 64
VECTORS vector_value float
-0.085271 -0.141463 0
-0.0769154 -0.109571 0
-0.317336 -0.596806 0
-0.00788314 -0.56553 0
-0.0397811 -0.149024 0
0.552258 -0.969587 0
-0.0352256 -0.210007 0
-0.0635687 -0.115788 0
-0.0330565 -0.158467 0
-0.0691432 -0.137984 0
0.00866387 -0.522044 0
-0.0035102 -0.567 0
0.0170634 -0.512047 0
-0.0230857 -0.0588078 0
0.0131973 -0.341419 0
-0.0531212 -0.247546 0
-0.00116531 -0.145077 0
0.0282604 -0.402651 0
-0.189853 -0.409375 0
0.385 -0.435885 0
0.496974 -2.4322 0
0.257095 -1.29342 0
0.17885 -2.09006 0
0.0385045 -0.178817 0
0.224851 -0.724814 0
-0.199856 -0.127858 0
0.864423 -1.12467 0
-0.637487 -0.796977 0
1.68228 -3.16808 0
0.396427 -0.564534 0
0.716657 -2.38326 0
0.740579 -1.60051 0
-0.066952 -0.103175 0
-0.555829 -1.13433 0
-0.352219 -1.2651 0
-0.238565 -0.565238 0
-0.34093 -0.487211 0
0.00142541 -0.0859463 0
-2.11263 -4.76333 0
1.13965 -2.01349 0
-0.102626 -1.93057 0
0.0113097 -0.0587427 0
0.306991 -0.98943 0
-0.00315772 -0.168121 0
-1.0522 -1.54858 0
0.400119 -4.7762 0
-1.2924 -4.20662 0
2.59401 -2.50082 0
0.405041 -0.534343 0
-0.516851 -0.480708 0
-0.189809 -0.445396 0
-0.0108553 -0.780139 0
-0.205425 -0.420982 0
0.714471 -1.68162 0
-0.0541348 -0.875802 0
0.0117728 -0.78523 0
0.00583476 -0.398101 0
-0.516287 -0.620442 0
-0.303091 -1.18703 0
-0.540535 -1.66451 0
0.0365397 -0.975149 0
-0.0990996 -1.37937 0
0.0888716 -0.675282 0
0.325049 -1.21771 0
