# vtk DataFile Version 2.0
Unstructured Grid by M++
ASCII
DATASET UNSTRUCTURED_GRID
POINTS 289 float
  0.562500   1.000000 0
  0.562500   0.625000 0
  0.625000   1.000000 0
  0.562500   0.937500 0
  0.562500   0.562500 0
  0.625000   0.937500 0
  0.562500   0.875000 0
  0.625000   0.750000 0
  0.625000   0.625000 0
  0.562500   0.812500 0
  0.562500   0.750000 0
  0.562500   0.687500 0
  0.625000   0.875000 0
  0.625000   0.812500 0
  0.625000   0.687500 0
  0.687500   0.125000 0
  0.875000   0.062500 0
  0.625000   0.125000 0
  0.625000   0.187500 0
  0.625000   0.250000 0
  0.812500   0.187500 0
  1.000000   0.125000 0
  0.687500   0.187500 0
  0.750000   0.125000 0
  0.937500   0.062500 0
  0.937500   0.125000 0
  0.750000   0.187500 0
  0.812500   0.062500 0
  0.812500   0.125000 0
  0.875000   0.687500 0
  0.187500   0.250000 0
  0.437500   0.250000 0
  0.375000   0.187500 0
  0.812500   0.625000 0
  0.125000   0.187500 0
  0.937500   0.750000 0
  0.250000   0.312500 0
  0.500000   0.312500 0
  0.625000   0.062500 0
  0.437500   0.500000 0
  0.375000   0.125000 0
  0.437500   0.187500 0
  0.437500   0.437500 0
  0.437500   0.375000 0
  0.875000   0.875000 0
  0.187500   0.375000 0
  0.687500   0.562500 0
  0.687500   0.625000 0
  0.000000   0.125000 0
  0.937500   0.625000 0
  0.250000   0.125000 0
  0.375000   0.062500 0
  0.375000   0.000000 0
  0.812500   0.500000 0
  0.125000   0.000000 0
  0.937500   0.937500 0
  0.250000   0.437500 0
  0.687500   0.875000 0
  0.687500   0.937500 0
  0.000000   0.437500 0
  0.500000   0.500000 0
  0.500000   0.437500 0
  0.750000   0.937500 0
  0.750000   1.000000 0
  0.062500   0.500000 0
  1.000000   1.000000 0
  0.312500   0.500000 0
  0.875000   0.562500 0
  0.187500   0.062500 0
  0.437500   0.125000 0
  0.437500   0.062500 0
  0.500000   0.375000 0
  0.937500   0.812500 0
  0.937500   0.875000 0
  0.250000   0.375000 0
  0.687500   0.812500 0
  0.000000   0.375000 0
  0.750000   0.562500 0
  0.062500   0.125000 0
  1.000000   0.562500 0
  1.000000   0.625000 0
  0.312500   0.125000 0
  0.562500   0.125000 0
  0.437500   0.000000 0
  0.875000   0.437500 0
  0.875000   0.500000 0
  0.187500   0.000000 0
  0.937500   0.562500 0
  0.937500   0.500000 0
  0.250000   0.062500 0
  0.687500   0.500000 0
  0.000000   0.062500 0
  0.500000   0.062500 0
  1.000000   0.875000 0
  1.000000   0.937500 0
  0.312500   0.437500 0
  0.750000   0.875000 0
  0.062500   0.437500 0
  0.812500   0.937500 0
  0.125000   0.500000 0
  0.375000   0.500000 0
  0.625000   0.562500 0
  0.625000   0.500000 0
  0.437500   0.312500 0
  0.875000   0.812500 0
  0.875000   0.750000 0
  0.187500   0.312500 0
  0.812500   0.687500 0
  0.812500   0.750000 0
  0.125000   0.250000 0
  0.375000   0.250000 0
  1.000000   0.687500 0
  0.312500   0.187500 0
  0.750000   0.687500 0
  0.750000   0.625000 0
  0.062500   0.187500 0
  0.562500   0.250000 0
  0.562500   0.187500 0
  0.375000   1.000000 0
  0.500000   0.562500 0
  0.500000   0.250000 0
  0.750000   0.250000 0
  0.500000   0.125000 0
  0.500000   0.187500 0
  1.000000   0.187500 0
  0.625000   0.375000 0
  0.875000   0.375000 0
  1.000000   0.437500 0
  0.312500   0.000000 0
  0.562500   0.000000 0
  0.812500   0.000000 0
  0.250000   0.687500 0
  0.000000   0.687500 0
  0.500000   1.000000 0
  0.250000   1.000000 0
  0.000000   1.000000 0
  0.437500   0.687500 0
  0.437500   0.625000 0
  0.187500   0.625000 0
  0.687500   0.750000 0
  0.000000   0.312500 0
  0.000000   0.250000 0
  0.375000   0.375000 0
  0.375000   0.312500 0
  0.812500   0.812500 0
  0.125000   0.312500 0
  0.875000   0.625000 0
  0.187500   0.187500 0
  0.187500   0.125000 0
  0.937500   1.000000 0
  0.250000   0.562500 0
  0.250000   0.500000 0
  0.687500   1.000000 0
  0.000000   0.500000 0
  0.687500   0.687500 0
  0.000000   0.187500 0
  0.937500   0.687500 0
  0.250000   0.250000 0
  0.250000   0.187500 0
  0.187500   0.687500 0
  0.000000   0.750000 0
  0.250000   0.750000 0
  0.125000   0.625000 0
  0.750000   0.750000 0
  0.062500   0.250000 0
  0.875000   0.937500 0
  0.187500   0.500000 0
  0.187500   0.437500 0
  0.812500   0.562500 0
  0.125000   0.125000 0
  0.125000   0.062500 0
  0.375000   0.625000 0
  0.375000   0.687500 0
  1.000000   0.750000 0
  0.312500   0.250000 0
  0.312500   0.312500 0
  0.812500   0.312500 0
  0.562500   0.312500 0
  0.375000   0.750000 0
  0.500000   0.625000 0
  0.250000   0.625000 0
  0.312500   0.687500 0
  0.750000   0.812500 0
  0.062500   0.312500 0
  0.062500   0.375000 0
  1.000000   0.812500 0
  0.312500   0.375000 0
  0.562500   0.375000 0
  0.687500   0.437500 0
  0.000000   0.000000 0
  0.500000   0.000000 0
  0.937500   0.437500 0
  0.250000   0.000000 0
  0.375000   0.437500 0
  0.812500   0.875000 0
  0.125000   0.375000 0
  0.125000   0.437500 0
  0.625000   0.437500 0
  1.000000   0.500000 0
  0.312500   0.062500 0
  0.750000   0.500000 0
  0.062500   0.000000 0
  0.062500   0.062500 0
  0.562500   0.062500 0
  0.062500   0.750000 0
  0.312500   0.750000 0
  0.312500   0.625000 0
  0.312500   0.562500 0
  0.062500   0.562500 0
  0.187500   1.000000 0
  0.437500   0.562500 0
  0.875000   1.000000 0
  0.187500   0.562500 0
  0.500000   0.937500 0
  0.250000   0.937500 0
  0.312500   1.000000 0
  0.125000   0.750000 0
  0.125000   0.687500 0
  1.000000   0.000000 0
  0.000000   0.937500 0
  0.000000   0.875000 0
  0.875000   0.125000 0
  0.875000   0.187500 0
  0.062500   0.812500 0
  0.312500   0.812500 0
  0.000000   0.812500 0
  0.000000   0.625000 0
  0.000000   0.562500 0
  0.062500   1.000000 0
  0.062500   0.937500 0
  0.937500   0.187500 0
  0.937500   0.250000 0
  0.062500   0.687500 0
  0.062500   0.625000 0
  0.125000   1.000000 0
  1.000000   0.250000 0
  1.000000   0.312500 0
  0.062500   0.875000 0
  0.125000   0.812500 0
  0.375000   0.812500 0
  0.125000   0.875000 0
  0.375000   0.937500 0
  0.375000   0.875000 0
  0.187500   0.750000 0
  0.187500   0.812500 0
  0.437500   0.812500 0
  0.187500   0.875000 0
  0.437500   0.875000 0
  0.375000   0.562500 0
  0.812500   1.000000 0
  0.125000   0.562500 0
  0.437500   1.000000 0
  0.437500   0.937500 0
  0.187500   0.937500 0
  0.125000   0.937500 0
  0.500000   0.687500 0
  0.500000   0.750000 0
  0.500000   0.812500 0
  0.250000   0.812500 0
  0.250000   0.875000 0
  0.500000   0.875000 0
  0.437500   0.750000 0
  0.312500   0.875000 0
  0.312500   0.937500 0
  0.687500   0.250000 0
  0.687500   0.312500 0
  0.937500   0.312500 0
  0.875000   0.250000 0
  0.625000   0.000000 0
  0.875000   0.000000 0
  0.687500   0.375000 0
  0.937500   0.375000 0
  0.875000   0.312500 0
  0.625000   0.312500 0
  0.687500   0.000000 0
  0.937500   0.000000 0
  0.750000   0.312500 0
  0.750000   0.375000 0
  1.000000   0.375000 0
  0.812500   0.250000 0
  0.562500   0.437500 0
  0.562500   0.500000 0
  0.687500   0.062500 0
  0.750000   0.437500 0
  0.750000   0.000000 0
  0.750000   0.062500 0
  1.000000   0.062500 0
  0.812500   0.375000 0
  0.812500   0.437500 0
CELLS 256 1280
4 169 170 148 68
4 151 166 56 167
4 195 45 196 167
4 54 170 201 202
4 109 34 30 147
4 40 32 81 112
4 192 89 86 68
4 48 91 78 202
4 99 64 196 97
4 71 43 37 103
4 74 186 56 95
4 109 164 34 115
4 50 81 158 112
4 122 69 92 70
4 195 145 45 106
4 110 143 174 175
4 157 30 158 147
4 40 69 32 41
4 50 158 148 147
4 141 155 164 115
4 122 123 69 41
4 142 186 143 175
4 60 39 61 42
4 40 51 69 70
4 120 31 123 41
4 157 174 36 175
4 50 148 89 68
4 48 78 155 115
4 52 83 51 70
4 151 56 66 95
4 71 61 43 42
4 169 148 34 147
4 100 193 39 42
4 40 81 51 199
4 110 174 32 112
4 109 30 145 106
4 100 66 193 95
4 169 34 78 115
4 190 92 83 70
4 50 89 81 199
4 54 86 170 68
4 74 56 45 167
4 142 143 43 103
4 153 59 64 97
4 99 196 166 167
4 169 78 170 202
4 142 193 186 95
4 192 128 89 199
4 74 45 36 106
4 110 31 143 103
4 76 184 59 97
4 142 43 193 42
4 52 51 128 199
4 189 201 91 202
4 120 37 31 103
4 74 36 186 175
4 195 196 184 97
4 141 164 140 183
4 157 158 174 112
4 109 145 164 183
4 195 184 145 183
4 110 32 31 41
4 157 36 30 106
4 76 140 184 183
4 171 172 206 181
4 178 172 261 136
4 256 261 255 136
4 256 257 261 245
4 180 150 206 207
4 60 119 39 210
4 118 215 241 263
4 178 205 172 181
4 216 243 238 244
4 162 217 233 232
4 180 206 131 181
4 179 137 119 210
4 216 204 217 232
4 220 237 219 229
4 216 217 243 159
4 259 258 262 224
4 240 254 237 229
4 153 64 227 208
4 161 205 258 224
4 240 237 238 223
4 226 227 233 208
4 234 228 254 229
4 171 248 137 210
4 160 132 204 232
4 180 131 138 159
4 133 251 213 252
4 171 206 248 207
4 162 138 217 159
4 161 258 243 244
4 220 225 237 223
4 151 150 166 212
4 260 247 257 245
4 259 262 214 263
4 151 66 150 207
4 234 254 209 253
4 162 233 250 208
4 242 241 262 263
4 171 137 172 136
4 161 243 131 159
4 160 204 225 223
4 161 131 205 181
4 179 255 137 136
4 216 238 204 223
4 100 39 248 210
4 260 213 247 252
4 226 233 132 232
4 134 214 215 263
4 180 138 150 212
4 178 261 239 245
4 259 246 258 244
4 178 239 205 224
4 240 238 246 244
4 242 262 239 224
4 99 250 64 208
4 240 246 254 253
4 242 239 247 245
4 135 219 228 229
4 99 166 250 212
4 259 214 246 253
4 118 241 251 252
4 100 248 66 207
4 134 209 214 253
4 162 250 138 212
4 242 247 241 252
4 71 187 61 280
4 102 281 197 280
4 122 92 82 203
4 17 18 82 117
4 122 82 123 117
4 19 264 273 265
4 267 279 222 20
4 125 273 270 265
4 267 272 279 176
4 19 116 18 117
4 21 25 286 24
4 23 28 26 20
4 23 285 28 27
4 218 286 275 24
4 85 53 84 288
4 235 236 231 266
4 221 222 28 20
4 267 222 231 230
4 268 38 129 203
4 125 270 197 188
4 126 287 272 176
4 277 270 276 265
4 267 231 272 266
4 125 197 187 280
4 190 129 92 203
4 277 276 287 176
4 19 18 264 22
4 17 82 38 203
4 102 197 90 188
4 126 84 287 288
4 284 130 285 27
4 121 276 264 265
4 71 37 187 177
4 120 123 116 117
4 198 88 127 191
4 221 16 25 24
4 23 26 15 22
4 121 279 276 176
4 235 231 124 230
4 125 187 273 177
4 278 271 236 266
4 277 287 283 288
4 284 285 274 282
4 278 127 271 191
4 269 275 16 24
4 200 283 53 288
4 23 15 285 282
4 121 26 279 20
4 21 124 25 230
4 19 273 116 177
4 200 90 283 188
4 126 271 84 191
4 269 16 130 27
4 17 38 15 282
4 221 25 222 230
4 121 264 26 22
4 120 116 37 177
4 60 61 281 280
4 277 283 270 188
4 126 272 271 266
4 268 274 38 282
4 85 84 88 191
4 17 15 18 22
4 221 28 16 27
4 93 94 73 55
4 85 88 67 87
4 80 49 79 87
4 44 104 73 72
4 146 33 67 168
4 211 165 149 55
4 8 47 14 154
4 105 104 108 144
4 105 108 29 107
4 7 139 13 75
4 44 165 194 98
4 200 53 77 168
4 8 1 101 4
4 2 5 152 58
4 260 6 213 3
4 105 35 104 72
4 96 57 182 75
4 7 14 139 154
4 146 29 33 107
4 7 13 10 9
4 12 13 57 75
4 85 67 53 168
4 44 73 165 55
4 63 152 62 58
4 8 101 47 46
4 96 182 194 144
4 60 281 119 4
4 12 5 6 3
4 173 185 35 72
4 65 149 94 55
4 146 67 49 87
4 114 113 47 154
4 163 108 182 144
4 12 6 13 9
4 173 35 111 156
4 163 182 139 75
4 260 257 6 9
4 105 29 35 156
4 163 139 113 154
4 256 10 257 9
4 146 49 29 156
4 163 113 108 107
4 80 111 49 156
4 102 101 281 4
4 12 57 5 58
4 44 194 104 144
4 96 194 62 98
4 2 0 5 3
4 93 73 185 72
4 179 119 1 4
4 200 77 90 46
4 114 33 113 107
4 7 10 14 11
4 96 62 57 58
4 133 213 0 3
4 102 90 101 46
4 256 255 10 11
4 63 62 249 98
4 114 47 77 46
4 179 1 255 11
4 211 249 165 98
4 114 77 33 168
4 198 79 88 87
4 8 14 1 11
CELL_TYPES 256
8
8
8
8
8
8
8
8
8
8
8
8
8
8
8
8
8
8
8
8
8
8
8
8
8
8
8
8
8
8
8
8
8
8
8
8
8
8
8
8
8
8
8
8
8
8
8
8
8
8
8
8
8
8
8
8
8
8
8
8
8
8
8
8
8
8
8
8
8
8
8
8
8
8
8
8
8
8
8
8
8
8
8
8
8
8
8
8
8
8
8
8
8
8
8
8
8
8
8
8
8
8
8
8
8
8
8
8
8
8
8
8
8
8
8
8
8
8
8
8
8
8
8
8
8
8
8
8
8
8
8
8
8
8
8
8
8
8
8
8
8
8
8
8
8
8
8
8
8
8
8
8
8
8
8
8
8
8
8
8
8
8
8
8
8
8
8
8
8
8
8
8
8
8
8
8
8
8
8
8
8
8
8
8
8
8
8
8
8
8
8
8
8
8
8
8
8
8
8
8
8
8
8
8
8
8
8
8
8
8
8
8
8
8
8
8
8
8
8
8
8
8
8
8
8
8
8
8
8
8
8
8
8
8
8
8
8
8
8
8
8
8
8
8
8
8
8
8
8
8
8
8
8
8
8
8
CELL_DATA 256
VECTORS vector_value float
0.118106 -0.127274 0
0.910659 -0.508853 0
0.28429 -0.22303 0
0.0689079 -0.25522 0
0.0156846 -0.055164 0
0.0616367 -0.375506 0
0.0545997 -0.165378 0
0.0735602 -0.786476 0
0.530302 -0.495763 0
2.02413 -2.05308 0
0.663739 -0.585818 0
0.0333301 -0.161306 0
0.0343127 -0.169596 0
-0.266012 -1.1912 0
0.0469793 -0.0828692 0
0.157543 -0.540397 0
0.0157343 -0.0523205 0
-0.00754531 -0.5835 0
0.016417 -0.0599861 0
0.0220322 -1.04492 0
-0.136876 -1.2363 0
0.695296 -0.971273 0
1.10873 -1.46055 0
-0.188216 -0.7683 0
0.227511 -1.13534 0
0.0459253 -0.198525 0
0.0481326 -0.117263 0
0.0807348 -0.96738 0
-0.164429 -0.892802 0
1.18934 -0.711326 0
1.6881 -1.94555 0
0.038075 -0.067266 0
1.86924 -1.85132 0
-0.0307097 -0.468335 0
0.0609183 -0.381368 0
0.00923696 -0.0582539 0
1.75858 -2.43414 0
0.101688 -0.204482 0
-0.20951 -1.25997 0
0.0204093 -0.132391 0
0.0775576 -0.170433 0
0.526671 -0.381085 0
1.15782 -1.05413 0
0.200703 -1.3129 0
0.815826 -0.408969 0
0.157164 -0.26195 0
1.01704 -1.63742 0
0.0158553 -0.175871 0
0.135623 -0.199092 0
0.483982 -0.812056 0
0.0198363 -1.04985 0
1.60066 -1.73831 0
-0.0717339 -0.621816 0
0.0284114 -0.660869 0
0.67898 -1.20745 0
0.334189 -0.393338 0
0.102487 -0.27708 0
0.0143484 -1.09701 0
0.0438938 -0.236747 0
0.018522 -0.117598 0
-0.011722 -0.177993 0
0.115012 -0.521193 0
0.0414426 -0.106628 0
-0.0229554 -1.05146 0
0.03995 -0.681205 0
-0.163184 -0.669281 0
-0.31866 -1.72819 0
-0.355331 -1.59853 0
0.355095 -0.424852 0
0.372825 -1.61682 0
-0.131124 -0.641191 0
0.0120351 -0.358409 0
-0.0701215 -0.485927 0
-0.00625719 -1.50149 0
0.188146 -0.610432 0
-0.436189 -1.77156 0
0.0267746 -0.887296 0
-0.517807 -2.48882 0
-0.0998651 -0.832799 0
-0.43605 -0.721334 0
-0.669751 -0.920018 0
0.12544 -1.69565 0
0.0990991 -0.602059 0
-0.0282058 -0.765371 0
0.238053 -1.8142 0
-1.04139 -1.25069 0
-0.316844 -1.20467 0
0.0288635 -2.64793 0
-0.0495876 -0.791414 0
0.261457 -1.1663 0
0.135363 -1.26083 0
-0.288595 -0.753433 0
-0.0374024 -1.64863 0
-0.0253655 -2.88048 0
1.82609 -0.72541 0
-0.390126 -1.33624 0
-0.665285 -0.84652 0
1.60266 -0.704661 0
-0.96944 -0.882515 0
0.609737 -1.88428 0
-0.520225 -0.387911 0
-0.325955 -1.07703 0
-0.0387456 -1.1548 0
0.0946784 -2.8335 0
0.0908946 -0.706291 0
-0.335433 -1.53456 0
0.123048 -0.765111 0
0.25889 -1.12962 0
-0.0208801 -1.30609 0
0.204184 -2.37919 0
-0.41942 -0.817426 0
0.289095 -0.575653 0
-0.167363 -0.453434 0
-0.19066 -1.18513 0
-0.00997448 -0.165161 0
0.112938 -0.620138 0
-0.253355 -0.217731 0
0.708374 -1.07623 0
-0.485659 -0.823091 0
-0.223331 -0.30912 0
-0.390417 -1.45921 0
1.33855 -0.671566 0
-0.486119 -0.619062 0
0.238333 -0.901071 0
0.828121 -2.23216 0
-0.722058 -0.770944 0
0.568058 -0.953368 0
-0.190468 -0.466826 0
1.41462 -1.45744 0
0.748184 -1.55376 0
-0.691705 -3.32623 0
-0.160299 -3.75445 0
-0.264815 -2.73094 0
0.0471743 -1.51478 0
-0.131938 -0.2869 0
0.164428 -1.38465 0
-0.0964012 -0.198727 0
0.265742 -4.54276 0
-0.0608511 -2.17908 0
-0.0668394 -0.331294 0
0.0288003 -0.372177 0
-0.0104013 -2.12461 0
0.00381108 -0.0453197 0
-0.0603643 -2.35874 0
-0.080948 -0.281911 0
-0.0847233 -0.613968 0
-0.22282 -2.39835 0
0.373511 -1.04481 0
-0.0919544 -0.093974 0
0.0174946 -0.290228 0
-0.131053 -0.662085 0
0.892308 -2.08194 0
-0.493148 -4.20277 0
-0.0249584 -0.121968 0
0.0997608 -1.37366 0
-0.850707 -3.62301 0
0.224186 -0.612822 0
-0.0388876 -0.0488896 0
0.0239693 -0.329661 0
0.0147123 -0.282512 0
1.71064 -1.9492 0
0.199489 -2.70199 0
-0.0295746 -3.01997 0
-0.0525842 -0.589353 0
0.0330366 -0.373025 0
-0.0385194 -0.153749 0
-0.00401239 -2.25673 0
0.852706 -3.0118 0
-0.0766802 -2.50128 0
-0.0119197 -0.0484891 0
-0.0257842 -0.476735 0
-0.192387 -2.70317 0
-0.0191699 -0.620119 0
-0.00285936 -0.0496586 0
0.0477152 -0.673628 0
-0.0462031 -0.165378 0
-0.0088552 -2.30005 0
0.428654 -4.02411 0
0.00681583 -0.0788841 0
-0.253759 -0.560591 0
0.0186061 -0.294844 0
-0.121509 -1.19417 0
-0.0266214 -0.429545 0
0.0162465 -0.470244 0
1.02971 -2.66738 0
0.746713 -1.19939 0
0.0820423 -0.216545 0
-0.137986 -0.663654 0
-0.0356574 -1.35056 0
0.0022341 -0.256379 0
0.126502 -2.13476 0
0.0182417 -0.189158 0
-0.00242101 -1.03546 0
0.00814159 -0.259572 0
0.108842 -2.97519 0
0.162511 -0.671239 0
-5.70583e-05 -0.0547327 0
-0.129723 -0.38507 0
-0.097368 -0.3987 0
0.408677 -0.282559 0
0.318399 -0.196908 0
-0.0771775 -0.742171 0
0.132763 -0.407317 0
0.000509073 -0.0466877 0
-0.094344 -0.508841 0
-0.795496 -1.42679 0
-0.335587 -1.57344 0
0.74403 -1.13324 0
0.050239 -0.642822 0
-0.246967 -0.692518 0
0.0729248 -0.0773494 0
-0.20704 -1.26274 0
-0.185173 -0.994533 0
0.00152804 -0.0656128 0
0.0270364 -0.588844 0
-0.879192 -0.900759 0
-0.00939525 -0.265004 0
0.229871 -0.436068 0
0.807469 -1.66021 0
-0.534358 -1.37459 0
0.259905 -1.43105 0
0.0414639 -1.25121 0
0.033965 -0.293754 0
-0.00273074 -0.0558932 0
0.265376 -0.238511 0
-0.530306 -1.45601 0
0.303816 -2.09067 0
0.0915502 -0.53864 0
-0.564145 -1.96068 0
0.400532 -0.876487 0
0.00853308 -0.242244 0
-0.373232 -1.81875 0
0.388639 -0.774687 0
0.183779 -0.121599 0
0.237948 -2.45057 0
0.408019 -0.749221 0
-0.509024 -1.3436 0
0.518474 -0.678577 0
-0.0362961 -0.995908 0
-0.379032 -1.30594 0
0.0510201 -1.12453 0
-0.422804 -1.89769 0
0.00326593 -0.0832684 0
0.0263042 -0.0762566 0
-0.34391 -1.08761 0
-0.363807 -0.822498 0
0.0388649 -0.987105 0
0.0575065 -0.285054 0
-0.308959 -1.70697 0
-0.823257 -1.06126 0
0.00316255 -0.070656 0
-0.379048 -1.88048 0
-0.657991 -0.792509 0
0.000637232 -0.0447229 0
0.00312049 -2.99826 0
-0.414236 -0.957315 0
