# vtk DataFile Version 2.0
Unstructured Grid by M++
ASCII
DATASET UNSTRUCTURED_GRID
POINTS 81 float
  1.000000   0.625000 0
  0.750000   0.375000 0
  1.000000   0.000000 0
  0.875000   0.875000 0
  0.750000   0.125000 0
  1.000000   1.000000 0
  0.875000   0.250000 0
  0.625000   0.875000 0
  1.000000   0.750000 0
  0.875000   0.000000 0
  1.000000   0.250000 0
  0.625000   0.375000 0
  0.875000   0.500000 0
  0.625000   0.625000 0
  1.000000   0.500000 0
  0.750000   0.500000 0
  0.750000   1.000000 0
  1.000000   0.125000 0
  0.625000   0.250000 0
  0.750000   0.750000 0
  0.625000   0.000000 0
  0.125000   0.375000 0
  0.000000   0.500000 0
  0.125000   0.625000 0
  0.625000   1.000000 0
  1.000000   0.875000 0
  0.875000   0.125000 0
  0.500000   0.250000 0
  0.625000   0.500000 0
  0.250000   0.625000 0
  0.000000   0.625000 0
  0.375000   0.500000 0
  0.375000   0.000000 0
  0.000000   0.125000 0
  0.125000   0.875000 0
  0.875000   1.000000 0
  0.750000   0.250000 0
  0.375000   0.375000 0
  0.250000   0.375000 0
  0.625000   0.750000 0
  0.125000   0.125000 0
  0.500000   0.000000 0
  0.250000   0.875000 0
  0.125000   0.500000 0
  0.500000   0.375000 0
  0.125000   0.000000 0
  0.250000   0.750000 0
  0.250000   0.500000 0
  0.000000   0.875000 0
  0.875000   0.625000 0
  0.500000   0.750000 0
  0.750000   0.625000 0
  0.250000   0.000000 0
  0.375000   0.750000 0
  0.750000   0.875000 0
  0.625000   0.125000 0
  0.250000   0.250000 0
  0.375000   1.000000 0
  0.375000   0.250000 0
  0.000000   0.375000 0
  0.500000   1.000000 0
  0.875000   0.750000 0
  0.750000   0.000000 0
  0.375000   0.125000 0
  0.500000   0.875000 0
  0.000000   0.000000 0
  0.125000   0.750000 0
  0.500000   0.625000 0
  0.125000   0.250000 0
  0.500000   0.125000 0
  0.250000   1.000000 0
  0.250000   0.125000 0
  0.000000   1.000000 0
  0.375000   0.875000 0
  0.000000   0.750000 0
  0.375000   0.625000 0
  0.000000   0.250000 0
  0.125000   1.000000 0
  1.000000   0.375000 0
  0.500000   0.500000 0
  0.875000   0.375000 0
CELLS 64 320
4 56 71 58 63
4 27 58 69 63
4 41 69 32 63
4 76 33 68 40
4 27 44 58 37
4 79 31 44 37
4 56 38 68 21
4 56 58 38 37
4 52 32 71 63
4 47 38 31 37
4 76 68 59 21
4 22 59 43 21
4 65 45 33 40
4 47 43 38 21
4 52 71 45 40
4 56 68 71 40
4 74 30 66 23
4 46 66 29 23
4 22 43 30 23
4 72 48 77 34
4 46 53 42 73
4 50 64 53 73
4 70 42 57 73
4 74 66 48 34
4 46 42 66 34
4 47 29 43 23
4 70 77 42 34
4 60 57 64 73
4 79 67 31 75
4 47 31 29 75
4 50 53 67 75
4 46 29 53 75
4 10 78 6 80
4 36 6 1 80
4 15 1 12 80
4 36 4 6 26
4 14 12 78 80
4 2 17 9 26
4 36 18 4 55
4 15 28 1 11
4 62 4 20 55
4 10 6 17 26
4 27 18 44 11
4 62 9 4 26
4 27 69 18 55
4 36 1 18 11
4 41 20 69 55
4 79 44 28 11
4 16 24 54 7
4 19 54 39 7
4 50 39 64 7
4 8 25 61 3
4 60 64 24 7
4 79 28 67 13
4 19 51 61 49
4 8 61 0 49
4 15 51 28 13
4 19 39 51 13
4 50 67 39 13
4 19 61 54 3
4 14 0 12 49
4 5 35 25 3
4 15 12 51 49
4 16 54 35 3
CELL_TYPES 64
8
8
8
8
8
8
8
8
8
8
8
8
8
8
8
8
8
8
8
8
8
8
8
8
8
8
8
8
8
8
8
8
8
8
8
8
8
8
8
8
8
8
8
8
8
8
8
8
8
8
8
8
8
8
8
8
8
8
8
8
8
8
8
8
CELL_DATA 64
VECTORS vector_value float
1.81163 -2.4414 0
0.844773 -1.19725 0
1.29435 -1.74425 0
-0.0235175 -0.189106 0
-0.419415 -0.643055 0
-0.22134 -0.484434 0
0.582819 -2.44438 0
0.0463704 -1.68488 0
0.165602 -0.991883 0
-0.450087 -1.18498 0
0.181079 -0.285441 0
0.237232 -0.81046 0
-0.0521163 -0.341728 0
0.272072 -2.01346 0
0.0158153 -0.664812 0
0.484998 -1.28583 0
-0.0826595 -1.55433 0
-0.268394 -0.761798 0
0.260461 -1.47195 0
-0.126486 -1.20863 0
-0.0460522 -0.686499 0
0.234764 -0.589966 0
0.0662924 -1.30326 0
-0.073543 -1.27994 0
-0.234367 -0.790649 0
0.0481388 -1.29387 0
-0.0725801 -0.620884 0
0.210184 -0.506114 0
-0.808514 -0.953444 0
-0.18821 -0.308683 0
-0.289623 -0.556196 0
-0.380431 -0.555532 0
0.00149955 -0.243834 0
-0.0098164 -0.732506 0
-0.392402 -1.12337 0
-0.0635338 -0.687832 0
-0.0726075 -0.354101 0
-0.0412229 -0.130827 0
-0.327815 -0.562438 0
-0.709702 -1.57749 0
-0.368619 -0.631835 0
-0.0237487 -0.244666 0
-0.244935 -0.491025 0
-0.254789 -0.396324 0
-0.521183 -1.39148 0
-0.294337 -1.47488 0
0.708421 -3.09834 0
-0.520903 -0.451705 0
-0.0397145 -1.75711 0
0.682724 -1.62873 0
0.285235 -1.0475 0
-0.206219 -0.66319 0
0.428261 -1.06042 0
-0.538919 -0.378072 0
0.496565 -2.18509 0
0.0757019 -0.778026 0
-0.903265 -1.00648 0
0.242359 -0.842864 0
-0.269751 -0.766165 0
0.136387 -1.31352 0
-0.184321 -0.607611 0
0.00946057 -1.06351 0
-0.891434 -1.97989 0
-0.234455 -0.480071 0
