# vtk DataFile Version 2.0
Unstructured Grid by M++
ASCII
DATASET UNSTRUCTURED_GRID
POINTS 81 float
  1.000000   0.625000 0
  0.750000   0.375000 0
  1.000000   0.000000 0
  0.875000   0.875000 0
  0.750000   0.125000 0
  1.000000   1.000000 0
  0.875000   0.250000 0
  0.625000   0.875000 0
  1.000000   0.750000 0
  0.875000   0.000000 0
  1.000000   0.250000 0
  0.625000   0.375000 0
  0.875000   0.500000 0
  0.625000   0.625000 0
  1.000000   0.500000 0
  0.750000   0.500000 0
  0.750000   1.000000 0
  1.000000   0.125000 0
  0.625000   0.250000 0
  0.750000   0.750000 0
  0.625000   0.000000 0
  0.125000   0.375000 0
  0.000000   0.500000 0
  0.125000   0.625000 0
  0.625000   1.000000 0
  1.000000   0.875000 0
  0.875000   0.125000 0
  0.500000   0.250000 0
  0.625000   0.500000 0
  0.250000   0.625000 0
  0.000000   0.625000 0
  0.375000   0.500000 0
  0.375000   0.000000 0
  0.000000   0.125000 0
  0.125000   0.875000 0
  0.875000   1.000000 0
  0.750000   0.250000 0
  0.375000   0.375000 0
  0.250000   0.375000 0
  0.625000   0.750000 0
  0.125000   0.125000 0
  0.500000   0.000000 0
  0.250000   0.875000 0
  0.125000   0.500000 0
  0.500000   0.375000 0
  0.125000   0.000000 0
  0.250000   0.750000 0
  0.250000   0.500000 0
  0.000000   0.875000 0
  0.875000   0.625000 0
  0.500000   0.750000 0
  0.750000   0.625000 0
  0.250000   0.000000 0
  0.375000   0.750000 0
  0.750000   0.875000 0
  0.625000   0.125000 0
  0.250000   0.250000 0
  0.375000   1.000000 0
  0.375000   0.250000 0
  0.000000   0.375000 0
  0.500000   1.000000 0
  0.875000   0.750000 0
  0.750000   0.000000 0
  0.375000   0.125000 0
  0.500000   0.875000 0
  0.000000   0.000000 0
  0.125000   0.750000 0
  0.500000   0.625000 0
  0.125000   0.250000 0
  0.500000   0.125000 0
  0.250000   1.000000 0
  0.250000   0.125000 0
  0.000000   1.000000 0
  0.375000   0.875000 0
  0.000000   0.750000 0
  0.375000   0.625000 0
  0.000000   0.250000 0
  0.125000   1.000000 0
  1.000000   0.375000 0
  0.500000   0.500000 0
  0.875000   0.375000 0
CELLS 64 320
4 56 71 58 63
4 27 58 69 63
4 41 69 32 63
4 76 33 68 40
4 27 44 58 37
4 79 31 44 37
4 56 38 68 21
4 56 58 38 37
4 52 32 71 63
4 47 38 31 37
4 76 68 59 21
4 22 59 43 21
4 65 45 33 40
4 47 43 38 21
4 52 71 45 40
4 56 68 71 40
4 74 30 66 23
4 46 66 29 23
4 22 43 30 23
4 72 48 77 34
4 46 53 42 73
4 50 64 53 73
4 70 42 57 73
4 74 66 48 34
4 46 42 66 34
4 47 29 43 23
4 70 77 42 34
4 60 57 64 73
4 79 67 31 75
4 47 31 29 75
4 50 53 67 75
4 46 29 53 75
4 10 78 6 80
4 36 6 1 80
4 15 1 12 80
4 36 4 6 26
4 14 12 78 80
4 2 17 9 26
4 36 18 4 55
4 15 28 1 11
4 62 4 20 55
4 10 6 17 26
4 27 18 44 11
4 62 9 4 26
4 27 69 18 55
4 36 1 18 11
4 41 20 69 55
4 79 44 28 11
4 16 24 54 7
4 19 54 39 7
4 50 39 64 7
4 8 25 61 3
4 60 64 24 7
4 79 28 67 13
4 19 51 61 49
4 8 61 0 49
4 15 51 28 13
4 19 39 51 13
4 50 67 39 13
4 19 61 54 3
4 14 0 12 49
4 5 35 25 3
4 15 12 51 49
4 16 54 35 3
CELL_TYPES 64
8
8
8
8
8
8
8
8
8
8
8
8
8
8
8
8
8
8
8
8
8
8
8
8
8
8
8
8
8
8
8
8
8
8
8
8
8
8
8
8
8
8
8
8
8
8
8
8
8
8
8
8
8
8
8
8
8
8
8
8
8
8
8
8
CELL_DATA 64
VECTORS vector_value float
0.240205 -1.80013 0
0.0183205 -0.24349 0
0.0742891 -0.279942 0
0.0791554 -1.30404 0
-0.158886 -0.431145 0
-0.204955 -0.864032 0
0.34601 -1.54378 0
-0.241113 -1.12022 0
0.042345 -1.81288 0
-0.175299 -0.890891 0
0.251183 -1.50639 0
0.101218 -2.02856 0
0.0242882 -1.1674 0
-0.017648 -0.772074 0
0.0471791 -1.25108 0
0.228804 -1.24967 0
-0.335767 -1.67677 0
-0.289587 -0.817839 0
-0.10107 -2.05343 0
0.10455 -0.773831 0
-0.290354 -1.15144 0
-0.17224 -0.975442 0
-0.19243 -1.11104 0
-0.203211 -0.933483 0
-0.482532 -1.32012 0
-0.168008 -0.563499 0
0.0506997 -1.25225 0
-0.286651 -1.04527 0
-0.0683617 -0.92903 0
-0.1078 -0.99303 0
-0.0604759 -0.774342 0
-0.0934264 -1.10138 0
0.277416 -1.57055 0
0.168653 -1.19638 0
0.450214 -1.72289 0
-0.276211 -1.13126 0
0.185556 -0.887899 0
-0.0567672 -1.04777 0
-0.0908894 -0.598307 0
0.127112 -0.374059 0
-0.0701374 -0.575579 0
-0.232512 -1.47341 0
0.0534165 -0.333423 0
-0.129137 -1.43856 0
0.0291017 -0.1997 0
0.0518967 -0.298102 0
-0.0313816 -0.426773 0
-0.0221546 -0.459595 0
-0.0738876 -1.53528 0
-0.0752698 -1.18654 0
-0.101266 -0.613145 0
0.141833 -0.90399 0
-0.104177 -0.610114 0
-0.0367507 -0.393788 0
-0.00291364 -0.542359 0
-0.162637 -1.17724 0
0.300497 -0.92315 0
0.0931139 -1.23218 0
-0.0167168 -0.67789 0
0.167477 -0.91583 0
-0.0427429 -0.628661 0
-0.0957212 -0.814588 0
0.0996519 -1.51541 0
-0.232203 -0.857619 0
