# vtk DataFile Version 2.0
Unstructured Grid by M++
ASCII
DATASET UNSTRUCTURED_GRID
POINTS 81 float
  1.000000   0.625000 0
  0.750000   0.375000 0
  1.000000   0.000000 0
  0.875000   0.875000 0
  0.750000   0.125000 0
  1.000000   1.000000 0
  0.875000   0.250000 0
  0.625000   0.875000 0
  1.000000   0.750000 0
  0.875000   0.000000 0
  1.000000   0.250000 0
  0.625000   0.375000 0
  0.875000   0.500000 0
  0.625000   0.625000 0
  1.000000   0.500000 0
  0.750000   0.500000 0
  0.750000   1.000000 0
  1.000000   0.125000 0
  0.625000   0.250000 0
  0.750000   0.750000 0
  0.625000   0.000000 0
  0.125000   0.375000 0
  0.000000   0.500000 0
  0.125000   0.625000 0
  0.625000   1.000000 0
  1.000000   0.875000 0
  0.875000   0.125000 0
  0.500000   0.250000 0
  0.625000   0.500000 0
  0.250000   0.625000 0
  0.000000   0.625000 0
  0.375000   0.500000 0
  0.375000   0.000000 0
  0.000000   0.125000 0
  0.125000   0.875000 0
  0.875000   1.000000 0
  0.750000   0.250000 0
  0.375000   0.375000 0
  0.250000   0.375000 0
  0.625000   0.750000 0
  0.125000   0.125000 0
  0.500000   0.000000 0
  0.250000   0.875000 0
  0.125000   0.500000 0
  0.500000   0.375000 0
  0.125000   0.000000 0
  0.250000   0.750000 0
  0.250000   0.500000 0
  0.000000   0.875000 0
  0.875000   0.625000 0
  0.500000   0.750000 0
  0.750000   0.625000 0
  0.250000   0.000000 0
  0.375000   0.750000 0
  0.750000   0.875000 0
  0.625000   0.125000 0
  0.250000   0.250000 0
  0.375000   1.000000 0
  0.375000   0.250000 0
  0.000000   0.375000 0
  0.500000   1.000000 0
  0.875000   0.750000 0
  0.750000   0.000000 0
  0.375000   0.125000 0
  0.500000   0.875000 0
  0.000000   0.000000 0
  0.125000   0.750000 0
  0.500000   0.625000 0
  0.125000   0.250000 0
  0.500000   0.125000 0
  0.250000   1.000000 0
  0.250000   0.125000 0
  0.000000   1.000000 0
  0.375000   0.875000 0
  0.000000   0.750000 0
  0.375000   0.625000 0
  0.000000   0.250000 0
  0.125000   1.000000 0
  1.000000   0.375000 0
  0.500000   0.500000 0
  0.875000   0.375000 0
CELLS 64 320
4 56 71 58 63
4 27 58 69 63
4 41 69 32 63
4 76 33 68 40
4 27 44 58 37
4 79 31 44 37
4 56 38 68 21
4 56 58 38 37
4 52 32 71 63
4 47 38 31 37
4 76 68 59 21
4 22 59 43 21
4 65 45 33 40
4 47 43 38 21
4 52 71 45 40
4 56 68 71 40
4 74 30 66 23
4 46 66 29 23
4 22 43 30 23
4 72 48 77 34
4 46 53 42 73
4 50 64 53 73
4 70 42 57 73
4 74 66 48 34
4 46 42 66 34
4 47 29 43 23
4 70 77 42 34
4 60 57 64 73
4 79 67 31 75
4 47 31 29 75
4 50 53 67 75
4 46 29 53 75
4 10 78 6 80
4 36 6 1 80
4 15 1 12 80
4 36 4 6 26
4 14 12 78 80
4 2 17 9 26
4 36 18 4 55
4 15 28 1 11
4 62 4 20 55
4 10 6 17 26
4 27 18 44 11
4 62 9 4 26
4 27 69 18 55
4 36 1 18 11
4 41 20 69 55
4 79 44 28 11
4 16 24 54 7
4 19 54 39 7
4 50 39 64 7
4 8 25 61 3
4 60 64 24 7
4 79 28 67 13
4 19 51 61 49
4 8 61 0 49
4 15 51 28 13
4 19 39 51 13
4 50 67 39 13
4 19 61 54 3
4 14 0 12 49
4 5 35 25 3
4 15 12 51 49
4 16 54 35 3
CELL_TYPES 64
8
8
8
8
8
8
8
8
8
8
8
8
8
8
8
8
8
8
8
8
8
8
8
8
8
8
8
8
8
8
8
8
8
8
8
8
8
8
8
8
8
8
8
8
8
8
8
8
8
8
8
8
8
8
8
8
8
8
8
8
8
8
8
8
CELL_DATA 64
VECTORS vector_value float
0.317417 -0.801054 0
0.571693 -1.29764 0
0.105178 -0.91965 0
0.0148557 -0.52442 0
0.116087 -1.51367 0
0.104467 -1.51187 0
0.107665 -0.902392 0
0.166906 -0.921412 0
0.00421712 -0.915484 0
0.0834326 -0.867059 0
-0.0151542 -0.535844 0
-0.17954 -0.348412 0
0.13183 -0.285646 0
-0.208407 -1.26955 0
0.189604 -0.718343 0
0.0961242 -0.593264 0
0.120737 -0.232739 0
0.903859 -1.45237 0
0.00776508 -0.12735 0
-0.107535 -1.40103 0
0.0885994 -0.491754 0
-0.0781488 -0.549385 0
-0.52447 -0.651555 0
0.406191 -1.02665 0
0.381484 -1.69238 0
-0.0638011 -1.06257 0
-0.519745 -1.2177 0
0.0732262 -0.332617 0
0.298538 -1.46771 0
0.112539 -1.39222 0
-0.0528086 -0.70546 0
0.79033 -1.53923 0
-0.357933 -2.46368 0
-0.598929 -1.01388 0
0.0426589 -0.430126 0
-0.531878 -0.805046 0
-0.206411 -2.98808 0
-0.209411 -1.25882 0
-0.615369 -0.976344 0
0.114943 -0.0731264 0
-0.454948 -1.08432 0
-0.187472 -1.78558 0
0.049632 -0.497963 0
-0.469962 -0.757399 0
0.334246 -1.21665 0
0.0463244 -0.151163 0
-0.114218 -2.06034 0
0.120119 -0.511783 0
1.0605 -1.03399 0
-0.170134 -1.03865 0
-0.0613173 -0.157073 0
-0.0326683 -1.98318 0
0.669898 -0.680136 0
-0.0105963 -0.568272 0
0.488851 -1.32506 0
0.0484881 -1.84243 0
0.093648 -0.183145 0
-0.0924095 -0.365201 0
-0.376094 -0.537511 0
-0.0527413 -1.06092 0
0.587355 -2.94129 0
0.452561 -1.36718 0
0.188655 -0.257448 0
0.992537 -1.31579 0
