# vtk DataFile Version 2.0
Unstructured Grid by M++
ASCII
DATASET UNSTRUCTURED_GRID
POINTS 81 float
  1.000000   0.625000 0
  0.750000   0.375000 0
  1.000000   0.000000 0
  0.875000   0.875000 0
  0.750000   0.125000 0
  1.000000   1.000000 0
  0.875000   0.250000 0
  0.625000   0.875000 0
  1.000000   0.750000 0
  0.875000   0.000000 0
  1.000000   0.250000 0
  0.625000   0.375000 0
  0.875000   0.500000 0
  0.625000   0.625000 0
  1.000000   0.500000 0
  0.750000   0.500000 0
  0.750000   1.000000 0
  1.000000   0.125000 0
  0.625000   0.250000 0
  0.750000   0.750000 0
  0.625000   0.000000 0
  0.125000   0.375000 0
  0.000000   0.500000 0
  0.125000   0.625000 0
  0.625000   1.000000 0
  1.000000   0.875000 0
  0.875000   0.125000 0
  0.500000   0.250000 0
  0.625000   0.500000 0
  0.250000   0.625000 0
  0.000000   0.625000 0
  0.375000   0.500000 0
  0.375000   0.000000 0
  0.000000   0.125000 0
  0.125000   0.875000 0
  0.875000   1.000000 0
  0.750000   0.250000 0
  0.375000   0.375000 0
  0.250000   0.375000 0
  0.625000   0.750000 0
  0.125000   0.125000 0
  0.500000   0.000000 0
  0.250000   0.875000 0
  0.125000   0.500000 0
  0.500000   0.375000 0
  0.125000   0.000000 0
  0.250000   0.750000 0
  0.250000   0.500000 0
  0.000000   0.875000 0
  0.875000   0.625000 0
  0.500000   0.750000 0
  0.750000   0.625000 0
  0.250000   0.000000 0
  0.375000   0.750000 0
  0.750000   0.875000 0
  0.625000   0.125000 0
  0.250000   0.250000 0
  0.375000   1.000000 0
  0.375000   0.250000 0
  0.000000   0.375000 0
  0.500000   1.000000 0
  0.875000   0.750000 0
  0.750000   0.000000 0
  0.375000   0.125000 0
  0.500000   0.875000 0
  0.000000   0.000000 0
  0.125000   0.750000 0
  0.500000   0.625000 0
  0.125000   0.250000 0
  0.500000   0.125000 0
  0.250000   1.000000 0
  0.250000   0.125000 0
  0.000000   1.000000 0
  0.375000   0.875000 0
  0.000000   0.750000 0
  0.375000   0.625000 0
  0.000000   0.250000 0
  0.125000   1.000000 0
  1.000000   0.375000 0
  0.500000   0.500000 0
  0.875000   0.375000 0
CELLS 64 320
4 56 71 58 63
4 27 58 69 63
4 41 69 32 63
4 76 33 68 40
4 27 44 58 37
4 79 31 44 37
4 56 38 68 21
4 56 58 38 37
4 52 32 71 63
4 47 38 31 37
4 76 68 59 21
4 22 59 43 21
4 65 45 33 40
4 47 43 38 21
4 52 71 45 40
4 56 68 71 40
4 74 30 66 23
4 46 66 29 23
4 22 43 30 23
4 72 48 77 34
4 46 53 42 73
4 50 64 53 73
4 70 42 57 73
4 74 66 48 34
4 46 42 66 34
4 47 29 43 23
4 70 77 42 34
4 60 57 64 73
4 79 67 31 75
4 47 31 29 75
4 50 53 67 75
4 46 29 53 75
4 10 78 6 80
4 36 6 1 80
4 15 1 12 80
4 36 4 6 26
4 14 12 78 80
4 2 17 9 26
4 36 18 4 55
4 15 28 1 11
4 62 4 20 55
4 10 6 17 26
4 27 18 44 11
4 62 9 4 26
4 27 69 18 55
4 36 1 18 11
4 41 20 69 55
4 79 44 28 11
4 16 24 54 7
4 19 54 39 7
4 50 39 64 7
4 8 25 61 3
4 60 64 24 7
4 79 28 67 13
4 19 51 61 49
4 8 61 0 49
4 15 51 28 13
4 19 39 51 13
4 50 67 39 13
4 19 61 54 3
4 14 0 12 49
4 5 35 25 3
4 15 12 51 49
4 16 54 35 3
CELL_TYPES 64
8
8
8
8
8
8
8
8
8
8
8
8
8
8
8
8
8
8
8
8
8
8
8
8
8
8
8
8
8
8
8
8
8
8
8
8
8
8
8
8
8
8
8
8
8
8
8
8
8
8
8
8
8
8
8
8
8
8
8
8
8
8
8
8
CELL_DATA 64
VECTORS vector_value float
-0.198198 -0.19928 0
-0.121119 -0.567572 0
-0.0146489 -0.335504 0
-1.08651 -2.69845 0
0.012771 -0.86379 0
0.0703458 -0.645037 0
-0.736115 -3.5924 0
-0.243025 -0.636019 0
-0.0909762 -0.267395 0
0.0915313 -0.648657 0
-0.146627 -0.906129 0
0.184331 -0.913696 0
-0.346488 -3.89882 0
0.523366 -3.69006 0
-0.283588 -1.3502 0
-0.98055 -2.38769 0
-0.248176 -1.52144 0
-1.03542 -1.51021 0
0.239498 -1.81547 0
0.107818 -0.722379 0
-0.67735 -2.45606 0
-0.637603 -1.29412 0
-0.236926 -1.84225 0
-0.210999 -1.07017 0
-0.307223 -0.60708 0
-0.524642 -2.65786 0
0.22299 -0.980888 0
-0.918137 -0.986378 0
-0.0198442 -0.594397 0
-0.327662 -0.865448 0
-0.558371 -1.50333 0
-1.21527 -1.57807 0
0.225655 -0.843988 0
0.274733 -0.86325 0
0.367179 -1.07156 0
0.165393 -0.616115 0
0.136072 -0.497828 0
0.0297227 -1.3444 0
0.166347 -0.0749233 0
0.131723 -0.11631 0
0.0329186 -0.143286 0
0.126004 -1.16238 0
0.0632114 -0.282718 0
0.0297744 -0.509935 0
0.127896 -0.293592 0
0.0393679 -0.0117051 0
0.00575936 -0.150464 0
-0.0438597 -0.416846 0
-1.23526 -1.03906 0
-0.0501003 -0.210252 0
-0.764142 -1.23927 0
0.0199696 -0.688037 0
-1.06633 -0.902476 0
0.116086 -0.32631 0
-0.0285409 -0.308671 0
-0.111734 -0.705702 0
0.307188 -0.589731 0
0.0392823 -0.402496 0
0.135193 -0.470091 0
-0.0505068 -0.435003 0
-0.0903299 -0.341665 0
-0.158208 -0.745411 0
-0.0780934 -0.80912 0
-0.575611 -0.781164 0
