# vtk DataFile Version 2.0
Unstructured Grid by M++
ASCII
DATASET UNSTRUCTURED_GRID
POINTS 81 float
  1.000000   0.625000 0
  0.750000   0.375000 0
  1.000000   0.000000 0
  0.875000   0.875000 0
  0.750000   0.125000 0
  1.000000   1.000000 0
  0.875000   0.250000 0
  0.625000   0.875000 0
  1.000000   0.750000 0
  0.875000   0.000000 0
  1.000000   0.250000 0
  0.625000   0.375000 0
  0.875000   0.500000 0
  0.625000   0.625000 0
  1.000000   0.500000 0
  0.750000   0.500000 0
  0.750000   1.000000 0
  1.000000   0.125000 0
  0.625000   0.250000 0
  0.750000   0.750000 0
  0.625000   0.000000 0
  0.125000   0.375000 0
  0.000000   0.500000 0
  0.125000   0.625000 0
  0.625000   1.000000 0
  1.000000   0.875000 0
  0.875000   0.125000 0
  0.500000   0.250000 0
  0.625000   0.500000 0
  0.250000   0.625000 0
  0.000000   0.625000 0
  0.375000   0.500000 0
  0.375000   0.000000 0
  0.000000   0.125000 0
  0.125000   0.875000 0
  0.875000   1.000000 0
  0.750000   0.250000 0
  0.375000   0.375000 0
  0.250000   0.375000 0
  0.625000   0.750000 0
  0.125000   0.125000 0
  0.500000   0.000000 0
  0.250000   0.875000 0
  0.125000   0.500000 0
  0.500000   0.375000 0
  0.125000   0.000000 0
  0.250000   0.750000 0
  0.250000   0.500000 0
  0.000000   0.875000 0
  0.875000   0.625000 0
  0.500000   0.750000 0
  0.750000   0.625000 0
  0.250000   0.000000 0
  0.375000   0.750000 0
  0.750000   0.875000 0
  0.625000   0.125000 0
  0.250000   0.250000 0
  0.375000   1.000000 0
  0.375000   0.250000 0
  0.000000   0.375000 0
  0.500000   1.000000 0
  0.875000   0.750000 0
  0.750000   0.000000 0
  0.375000   0.125000 0
  0.500000   0.875000 0
  0.000000   0.000000 0
  0.125000   0.750000 0
  0.500000   0.625000 0
  0.125000   0.250000 0
  0.500000   0.125000 0
  0.250000   1.000000 0
  0.250000   0.125000 0
  0.000000   1.000000 0
  0.375000   0.875000 0
  0.000000   0.750000 0
  0.375000   0.625000 0
  0.000000   0.250000 0
  0.125000   1.000000 0
  1.000000   0.375000 0
  0.500000   0.500000 0
  0.875000   0.375000 0
CELLS 64 320
4 56 71 58 63
4 27 58 69 63
4 41 69 32 63
4 76 33 68 40
4 27 44 58 37
4 79 31 44 37
4 56 38 68 21
4 56 58 38 37
4 52 32 71 63
4 47 38 31 37
4 76 68 59 21
4 22 59 43 21
4 65 45 33 40
4 47 43 38 21
4 52 71 45 40
4 56 68 71 40
4 74 30 66 23
4 46 66 29 23
4 22 43 30 23
4 72 48 77 34
4 46 53 42 73
4 50 64 53 73
4 70 42 57 73
4 74 66 48 34
4 46 42 66 34
4 47 29 43 23
4 70 77 42 34
4 60 57 64 73
4 79 67 31 75
4 47 31 29 75
4 50 53 67 75
4 46 29 53 75
4 10 78 6 80
4 36 6 1 80
4 15 1 12 80
4 36 4 6 26
4 14 12 78 80
4 2 17 9 26
4 36 18 4 55
4 15 28 1 11
4 62 4 20 55
4 10 6 17 26
4 27 18 44 11
4 62 9 4 26
4 27 69 18 55
4 36 1 18 11
4 41 20 69 55
4 79 44 28 11
4 16 24 54 7
4 19 54 39 7
4 50 39 64 7
4 8 25 61 3
4 60 64 24 7
4 79 28 67 13
4 19 51 61 49
4 8 61 0 49
4 15 51 28 13
4 19 39 51 13
4 50 67 39 13
4 19 61 54 3
4 14 0 12 49
4 5 35 25 3
4 15 12 51 49
4 16 54 35 3
CELL_TYPES 64
8
8
8
8
8
8
8
8
8
8
8
8
8
8
8
8
8
8
8
8
8
8
8
8
8
8
8
8
8
8
8
8
8
8
8
8
8
8
8
8
8
8
8
8
8
8
8
8
8
8
8
8
8
8
8
8
8
8
8
8
8
8
8
8
CELL_DATA 64
VECTORS vector_value float
0.0179104 -0.095487 0
0.129119 -0.378306 0
0.0414616 -0.277653 0
-0.0200181 -1.34717 0
0.281888 -0.724124 0
0.639393 -0.667279 0
-0.11794 -0.107434 0
-0.012733 -0.294366 0
0.0073258 -0.0537771 0
0.157314 -1.00091 0
-0.12097 -1.33682 0
-0.444977 -0.919831 0
-0.00975794 -1.40267 0
-0.36126 -0.279466 0
-0.0054934 -0.152539 0
-0.0489223 -0.211 0
0.0315148 -0.0936262 0
0.398673 -0.85564 0
-0.0608286 -0.120459 0
0.0661789 -0.967766 0
0.0263756 -2.14337 0
-0.285534 -0.600518 0
-0.102804 -1.3957 0
0.355897 -0.505184 0
0.547293 -1.05194 0
-0.51583 -0.763698 0
0.123624 -0.917889 0
-0.248117 -0.74371 0
0.74734 -0.479062 0
0.348987 -2.13112 0
0.453546 -0.558566 0
0.476747 -2.63196 0
0.0485432 -1.97798 0
0.318179 -2.88327 0
0.142985 -2.30794 0
0.82219 -2.92213 0
-0.0344438 -1.96008 0
0.55905 -3.67862 0
0.56119 -0.455563 0
0.374395 -0.751131 0
0.0942719 -0.293365 0
0.348645 -2.34717 0
0.337676 -0.22641 0
0.404331 -1.99644 0
0.387366 -0.243174 0
0.275157 -0.449591 0
0.0650175 -0.144937 0
0.324238 -0.113363 0
0.882845 -0.601124 0
0.153166 -0.181709 0
0.0168388 -0.118774 0
0.448196 -2.29693 0
0.143067 -0.672887 0
0.950778 -0.0865212 0
0.0431401 -0.731632 0
0.0073576 -2.79023 0
0.872455 -0.870348 0
0.123976 -0.203696 0
0.326749 -0.134646 0
0.607901 -1.10158 0
-0.257139 -2.39214 0
0.312277 -1.38563 0
-0.0110376 -1.15666 0
0.916541 -1.31529 0
