# vtk DataFile Version 2.0
Unstructured Grid by M++
ASCII
DATASET UNSTRUCTURED_GRID
POINTS 81 float
  1.000000   0.625000 0
  0.750000   0.375000 0
  1.000000   0.000000 0
  0.875000   0.875000 0
  0.750000   0.125000 0
  1.000000   1.000000 0
  0.875000   0.250000 0
  0.625000   0.875000 0
  1.000000   0.750000 0
  0.875000   0.000000 0
  1.000000   0.250000 0
  0.625000   0.375000 0
  0.875000   0.500000 0
  0.625000   0.625000 0
  1.000000   0.500000 0
  0.750000   0.500000 0
  0.750000   1.000000 0
  1.000000   0.125000 0
  0.625000   0.250000 0
  0.750000   0.750000 0
  0.625000   0.000000 0
  0.125000   0.375000 0
  0.000000   0.500000 0
  0.125000   0.625000 0
  0.625000   1.000000 0
  1.000000   0.875000 0
  0.875000   0.125000 0
  0.500000   0.250000 0
  0.625000   0.500000 0
  0.250000   0.625000 0
  0.000000   0.625000 0
  0.375000   0.500000 0
  0.375000   0.000000 0
  0.000000   0.125000 0
  0.125000   0.875000 0
  0.875000   1.000000 0
  0.750000   0.250000 0
  0.375000   0.375000 0
  0.250000   0.375000 0
  0.625000   0.750000 0
  0.125000   0.125000 0
  0.500000   0.000000 0
  0.250000   0.875000 0
  0.125000   0.500000 0
  0.500000   0.375000 0
  0.125000   0.000000 0
  0.250000   0.750000 0
  0.250000   0.500000 0
  0.000000   0.875000 0
  0.875000   0.625000 0
  0.500000   0.750000 0
  0.750000   0.625000 0
  0.250000   0.000000 0
  0.375000   0.750000 0
  0.750000   0.875000 0
  0.625000   0.125000 0
  0.250000   0.250000 0
  0.375000   1.000000 0
  0.375000   0.250000 0
  0.000000   0.375000 0
  0.500000   1.000000 0
  0.875000   0.750000 0
  0.750000   0.000000 0
  0.375000   0.125000 0
  0.500000   0.875000 0
  0.000000   0.000000 0
  0.125000   0.750000 0
  0.500000   0.625000 0
  0.125000   0.250000 0
  0.500000   0.125000 0
  0.250000   1.000000 0
  0.250000   0.125000 0
  0.000000   1.000000 0
  0.375000   0.875000 0
  0.000000   0.750000 0
  0.375000   0.625000 0
  0.000000   0.250000 0
  0.125000   1.000000 0
  1.000000   0.375000 0
  0.500000   0.500000 0
  0.875000   0.375000 0
CELLS 64 320
4 56 71 58 63
4 27 58 69 63
4 41 69 32 63
4 76 33 68 40
4 27 44 58 37
4 79 31 44 37
4 56 38 68 21
4 56 58 38 37
4 52 32 71 63
4 47 38 31 37
4 76 68 59 21
4 22 59 43 21
4 65 45 33 40
4 47 43 38 21
4 52 71 45 40
4 56 68 71 40
4 74 30 66 23
4 46 66 29 23
4 22 43 30 23
4 72 48 77 34
4 46 53 42 73
4 50 64 53 73
4 70 42 57 73
4 74 66 48 34
4 46 42 66 34
4 47 29 43 23
4 70 77 42 34
4 60 57 64 73
4 79 67 31 75
4 47 31 29 75
4 50 53 67 75
4 46 29 53 75
4 10 78 6 80
4 36 6 1 80
4 15 1 12 80
4 36 4 6 26
4 14 12 78 80
4 2 17 9 26
4 36 18 4 55
4 15 28 1 11
4 62 4 20 55
4 10 6 17 26
4 27 18 44 11
4 62 9 4 26
4 27 69 18 55
4 36 1 18 11
4 41 20 69 55
4 79 44 28 11
4 16 24 54 7
4 19 54 39 7
4 50 39 64 7
4 8 25 61 3
4 60 64 24 7
4 79 28 67 13
4 19 51 61 49
4 8 61 0 49
4 15 51 28 13
4 19 39 51 13
4 50 67 39 13
4 19 61 54 3
4 14 0 12 49
4 5 35 25 3
4 15 12 51 49
4 16 54 35 3
CELL_TYPES 64
8
8
8
8
8
8
8
8
8
8
8
8
8
8
8
8
8
8
8
8
8
8
8
8
8
8
8
8
8
8
8
8
8
8
8
8
8
8
8
8
8
8
8
8
8
8
8
8
8
8
8
8
8
8
8
8
8
8
8
8
8
8
8
8
CELL_DATA 64
VECTORS vector_value float
-0.277872 -0.272753 0
-0.0204554 -0.00592137 0
-0.0155898 -0.0194426 0
0.401577 -1.21211 0
-0.213719 -0.196028 0
-0.201448 -0.17868 0
0.264715 -1.99735 0
-0.143678 -0.342699 0
-0.0334166 -0.0535531 0
-0.0504116 -0.0842613 0
0.248647 -2.24158 0
-0.807127 -2.78455 0
-0.772259 -2.39336 0
-0.447561 -1.47562 0
-0.734048 -2.35146 0
0.216434 -3.29747 0
0.0646878 -0.904283 0
-0.00209448 -1.08936 0
0.0187246 -0.749156 0
-0.0221134 -0.957346 0
0.0419804 -0.332206 0
-0.220372 -1.39771 0
-0.211587 -0.348451 0
0.0424751 -1.07768 0
0.276615 -1.4328 0
-1.43784 -2.98868 0
-0.327649 -1.562 0
-0.0055226 -1.27393 0
-0.0347093 -0.0653491 0
-0.50515 -0.566057 0
-0.598876 -0.677317 0
-1.09703 -1.71795 0
-0.211764 -2.01406 0
-0.0920169 -0.591459 0
0.0010297 -0.726794 0
-0.475226 -1.02218 0
0.0384193 -1.92485 0
0.014768 -1.33197 0
-0.493153 -0.338603 0
-0.146237 -0.424372 0
-0.0196842 -0.131531 0
-0.14283 -1.31444 0
-0.0502936 -0.275922 0
0.000367933 -0.831528 0
-0.268825 -0.536532 0
-0.0578457 -0.340905 0
-0.0716267 -0.887156 0
-0.303369 -0.400876 0
0.557974 -0.56636 0
0.161218 -0.306822 0
-0.0135373 -0.435645 0
0.32644 -2.87644 0
0.0394322 -0.653695 0
-0.0947956 -0.250368 0
-0.0365749 -0.21129 0
-0.263101 -2.8906 0
-0.309076 -0.427188 0
0.0327872 -0.311288 0
-0.0103152 -0.197907 0
0.154139 -0.140695 0
-0.256942 -2.1753 0
0.663457 -1.98745 0
-0.634156 -0.777896 0
1.33023 -0.650762 0
