# vtk DataFile Version 2.0
Unstructured Grid by M++
ASCII
DATASET UNSTRUCTURED_GRID
POINTS 81 float
  1.000000   0.625000 0
  0.750000   0.375000 0
  1.000000   0.000000 0
  0.875000   0.875000 0
  0.750000   0.125000 0
  1.000000   1.000000 0
  0.875000   0.250000 0
  0.625000   0.875000 0
  1.000000   0.750000 0
  0.875000   0.000000 0
  1.000000   0.250000 0
  0.625000   0.375000 0
  0.875000   0.500000 0
  0.625000   0.625000 0
  1.000000   0.500000 0
  0.750000   0.500000 0
  0.750000   1.000000 0
  1.000000   0.125000 0
  0.625000   0.250000 0
  0.750000   0.750000 0
  0.625000   0.000000 0
  0.125000   0.375000 0
  0.000000   0.500000 0
  0.125000   0.625000 0
  0.625000   1.000000 0
  1.000000   0.875000 0
  0.875000   0.125000 0
  0.500000   0.250000 0
  0.625000   0.500000 0
  0.250000   0.625000 0
  0.000000   0.625000 0
  0.375000   0.500000 0
  0.375000   0.000000 0
  0.000000   0.125000 0
  0.125000   0.875000 0
  0.875000   1.000000 0
  0.750000   0.250000 0
  0.375000   0.375000 0
  0.250000   0.375000 0
  0.625000   0.750000 0
  0.125000   0.125000 0
  0.500000   0.000000 0
  0.250000   0.875000 0
  0.125000   0.500000 0
  0.500000   0.375000 0
  0.125000   0.000000 0
  0.250000   0.750000 0
  0.250000   0.500000 0
  0.000000   0.875000 0
  0.875000   0.625000 0
  0.500000   0.750000 0
  0.750000   0.625000 0
  0.250000   0.000000 0
  0.375000   0.750000 0
  0.750000   0.875000 0
  0.625000   0.125000 0
  0.250000   0.250000 0
  0.375000   1.000000 0
  0.375000   0.250000 0
  0.000000   0.375000 0
  0.500000   1.000000 0
  0.875000   0.750000 0
  0.750000   0.000000 0
  0.375000   0.125000 0
  0.500000   0.875000 0
  0.000000   0.000000 0
  0.125000   0.750000 0
  0.500000   0.625000 0
  0.125000   0.250000 0
  0.500000   0.125000 0
  0.250000   1.000000 0
  0.250000   0.125000 0
  0.000000   1.000000 0
  0.375000   0.875000 0
  0.000000   0.750000 0
  0.375000   0.625000 0
  0.000000   0.250000 0
  0.125000   1.000000 0
  1.000000   0.375000 0
  0.500000   0.500000 0
  0.875000   0.375000 0
CELLS 64 320
4 56 71 58 63
4 27 58 69 63
4 41 69 32 63
4 76 33 68 40
4 27 44 58 37
4 79 31 44 37
4 56 38 68 21
4 56 58 38 37
4 52 32 71 63
4 47 38 31 37
4 76 68 59 21
4 22 59 43 21
4 65 45 33 40
4 47 43 38 21
4 52 71 45 40
4 56 68 71 40
4 74 30 66 23
4 46 66 29 23
4 22 43 30 23
4 72 48 77 34
4 46 53 42 73
4 50 64 53 73
4 70 42 57 73
4 74 66 48 34
4 46 42 66 34
4 47 29 43 23
4 70 77 42 34
4 60 57 64 73
4 79 67 31 75
4 47 31 29 75
4 50 53 67 75
4 46 29 53 75
4 10 78 6 80
4 36 6 1 80
4 15 1 12 80
4 36 4 6 26
4 14 12 78 80
4 2 17 9 26
4 36 18 4 55
4 15 28 1 11
4 62 4 20 55
4 10 6 17 26
4 27 18 44 11
4 62 9 4 26
4 27 69 18 55
4 36 1 18 11
4 41 20 69 55
4 79 44 28 11
4 16 24 54 7
4 19 54 39 7
4 50 39 64 7
4 8 25 61 3
4 60 64 24 7
4 79 28 67 13
4 19 51 61 49
4 8 61 0 49
4 15 51 28 13
4 19 39 51 13
4 50 67 39 13
4 19 61 54 3
4 14 0 12 49
4 5 35 25 3
4 15 12 51 49
4 16 54 35 3
CELL_TYPES 64
8
8
8
8
8
8
8
8
8
8
8
8
8
8
8
8
8
8
8
8
8
8
8
8
8
8
8
8
8
8
8
8
8
8
8
8
8
8
8
8
8
8
8
8
8
8
8
8
8
8
8
8
8
8
8
8
8
8
8
8
8
8
8
8
CELL_DATA 64
VECTORS vector_value float
-0.0445889 -0.355038 0
-0.23843 -0.0975138 0
-0.685278 -1.04443 0
0.139448 -0.306303 0
-0.0133624 -0.0536264 0
0.0106717 -0.0746813 0
0.0577346 -0.755942 0
0.0220088 -0.130358 0
-0.034424 -0.646294 0
0.0359644 -0.0467527 0
0.0423765 -0.588812 0
0.165476 -0.867314 0
-0.000166672 -0.260212 0
0.197262 -0.55738 0
0.0220334 -0.896439 0
0.225222 -0.94487 0
0.0828982 -1.20392 0
0.313213 -0.573479 0
0.0858966 -1.08189 0
-0.128967 -1.21369 0
0.343154 -0.106007 0
0.473637 -0.377008 0
0.110451 -0.21248 0
-0.0170955 -1.32893 0
0.168863 -0.849812 0
0.123226 -0.410403 0
-0.312314 -1.09438 0
0.706197 -0.867324 0
0.0685096 -0.0669767 0
0.0847634 -0.0220744 0
0.738683 -0.243272 0
0.497136 -0.0347587 0
-0.271629 -0.684396 0
-2.03862 -4.95383 0
0.937339 -4.99697 0
-0.915387 -1.45167 0
0.139475 -0.955096 0
-0.00616043 -0.139441 0
-3.88307 -3.33915 0
-0.027338 -0.423128 0
-0.136334 -1.79501 0
-0.0515064 -0.199148 0
-0.0880871 -0.239859 0
-0.0556967 -0.746008 0
-1.77211 -1.3063 0
-0.263447 -0.593176 0
-0.748694 -2.47217 0
-0.0117847 -0.0786752 0
-0.171187 -1.5789 0
0.236213 -2.58477 0
0.934796 -1.77828 0
-0.0440362 -0.101882 0
0.491238 -1.45522 0
0.224443 -0.276898 0
0.720968 -1.35803 0
0.0264197 -0.106464 0
1.55067 -2.13018 0
1.95473 -3.39116 0
1.26196 -1.08892 0
-0.354872 -0.873311 0
0.187191 -0.413078 0
-0.411061 -0.62199 0
1.316 -3.59851 0
-0.606567 -0.956021 0
