# vtk DataFile Version 2.0
Unstructured Grid by M++
ASCII
DATASET UNSTRUCTURED_GRID
POINTS 81 float
  1.000000   0.625000 0
  0.750000   0.375000 0
  1.000000   0.000000 0
  0.875000   0.875000 0
  0.750000   0.125000 0
  1.000000   1.000000 0
  0.875000   0.250000 0
  0.625000   0.875000 0
  1.000000   0.750000 0
  0.875000   0.000000 0
  1.000000   0.250000 0
  0.625000   0.375000 0
  0.875000   0.500000 0
  0.625000   0.625000 0
  1.000000   0.500000 0
  0.750000   0.500000 0
  0.750000   1.000000 0
  1.000000   0.125000 0
  0.625000   0.250000 0
  0.750000   0.750000 0
  0.625000   0.000000 0
  0.125000   0.375000 0
  0.000000   0.500000 0
  0.125000   0.625000 0
  0.625000   1.000000 0
  1.000000   0.875000 0
  0.875000   0.125000 0
  0.500000   0.250000 0
  0.625000   0.500000 0
  0.250000   0.625000 0
  0.000000   0.625000 0
  0.375000   0.500000 0
  0.375000   0.000000 0
  0.000000   0.125000 0
  0.125000   0.875000 0
  0.875000   1.000000 0
  0.750000   0.250000 0
  0.375000   0.375000 0
  0.250000   0.375000 0
  0.625000   0.750000 0
  0.125000   0.125000 0
  0.500000   0.000000 0
  0.250000   0.875000 0
  0.125000   0.500000 0
  0.500000   0.375000 0
  0.125000   0.000000 0
  0.250000   0.750000 0
  0.250000   0.500000 0
  0.000000   0.875000 0
  0.875000   0.625000 0
  0.500000   0.750000 0
  0.750000   0.625000 0
  0.250000   0.000000 0
  0.375000   0.750000 0
  0.750000   0.875000 0
  0.625000   0.125000 0
  0.250000   0.250000 0
  0.375000   1.000000 0
  0.375000   0.250000 0
  0.000000   0.375000 0
  0.500000   1.000000 0
  0.875000   0.750000 0
  0.750000   0.000000 0
  0.375000   0.125000 0
  0.500000   0.875000 0
  0.000000   0.000000 0
  0.125000   0.750000 0
  0.500000   0.625000 0
  0.125000   0.250000 0
  0.500000   0.125000 0
  0.250000   1.000000 0
  0.250000   0.125000 0
  0.000000   1.000000 0
  0.375000   0.875000 0
  0.000000   0.750000 0
  0.375000   0.625000 0
  0.000000   0.250000 0
  0.125000   1.000000 0
  1.000000   0.375000 0
  0.500000   0.500000 0
  0.875000   0.375000 0
CELLS 64 320
4 56 71 58 63
4 27 58 69 63
4 41 69 32 63
4 76 33 68 40
4 27 44 58 37
4 79 31 44 37
4 56 38 68 21
4 56 58 38 37
4 52 32 71 63
4 47 38 31 37
4 76 68 59 21
4 22 59 43 21
4 65 45 33 40
4 47 43 38 21
4 52 71 45 40
4 56 68 71 40
4 74 30 66 23
4 46 66 29 23
4 22 43 30 23
4 72 48 77 34
4 46 53 42 73
4 50 64 53 73
4 70 42 57 73
4 74 66 48 34
4 46 42 66 34
4 47 29 43 23
4 70 77 42 34
4 60 57 64 73
4 79 67 31 75
4 47 31 29 75
4 50 53 67 75
4 46 29 53 75
4 10 78 6 80
4 36 6 1 80
4 15 1 12 80
4 36 4 6 26
4 14 12 78 80
4 2 17 9 26
4 36 18 4 55
4 15 28 1 11
4 62 4 20 55
4 10 6 17 26
4 27 18 44 11
4 62 9 4 26
4 27 69 18 55
4 36 1 18 11
4 41 20 69 55
4 79 44 28 11
4 16 24 54 7
4 19 54 39 7
4 50 39 64 7
4 8 25 61 3
4 60 64 24 7
4 79 28 67 13
4 19 51 61 49
4 8 61 0 49
4 15 51 28 13
4 19 39 51 13
4 50 67 39 13
4 19 61 54 3
4 14 0 12 49
4 5 35 25 3
4 15 12 51 49
4 16 54 35 3
CELL_TYPES 64
8
8
8
8
8
8
8
8
8
8
8
8
8
8
8
8
8
8
8
8
8
8
8
8
8
8
8
8
8
8
8
8
8
8
8
8
8
8
8
8
8
8
8
8
8
8
8
8
8
8
8
8
8
8
8
8
8
8
8
8
8
8
8
8
CELL_DATA 64
VECTORS vector_value float
-0.693342 -1.37466 0
-0.134262 -1.47021 0
0.250697 -1.39866 0
0.0323409 -0.883923 0
-1.58807 -2.48825 0
-0.624693 -0.973137 0
-0.38163 -0.293238 0
-0.503234 -0.196063 0
0.236746 -1.29334 0
-0.197278 -0.11456 0
-0.240974 -0.735867 0
-0.105886 -0.330252 0
0.0144025 -0.777198 0
-0.298992 -0.361114 0
0.0589213 -0.431879 0
-0.0301517 -0.412997 0
0.0716843 -0.252734 0
0.165234 -0.279155 0
-0.000793155 -0.162823 0
0.198152 -0.790516 0
0.612882 -0.159313 0
0.492403 -0.305655 0
1.19275 -0.318807 0
0.144875 -0.469782 0
0.424266 -0.420788 0
-0.0231282 -0.26447 0
0.602163 -0.882439 0
2.00034 -0.677237 0
-0.257909 -0.400748 0
-0.115682 -0.232378 0
0.201536 -0.333447 0
0.150872 -0.116148 0
0.376116 -1.05597 0
0.456368 -0.330446 0
0.46424 -0.386676 0
-0.0203435 -0.378124 0
0.199411 -0.40612 0
-0.0705974 -0.843662 0
0.0588095 -0.538556 0
0.115399 -1.4774 0
-0.152465 -0.790576 0
-0.146231 -1.23017 0
-0.335707 -2.29703 0
-0.300247 -0.515136 0
-0.0130071 -1.71136 0
0.173472 -0.603138 0
0.141608 -1.94955 0
-1.201 -3.95074 0
-0.259652 -1.85464 0
0.0890279 -3.49666 0
0.499593 -2.49428 0
-0.129649 -0.119469 0
1.48515 -2.19274 0
-0.792106 -3.4897 0
0.0121776 -0.136037 0
0.00295849 -0.026565 0
-0.447664 -3.09163 0
-0.348253 -3.77641 0
-0.136782 -3.07951 0
-0.698056 -0.534046 0
0.0320527 -0.0541611 0
-0.353997 -0.71945 0
0.315222 -0.304096 0
-0.678171 -0.564171 0
