# vtk DataFile Version 2.0
Unstructured Grid by M++
ASCII
DATASET UNSTRUCTURED_GRID
POINTS 81 float
  1.000000   0.625000 0
  0.750000   0.375000 0
  1.000000   0.000000 0
  0.875000   0.875000 0
  0.750000   0.125000 0
  1.000000   1.000000 0
  0.875000   0.250000 0
  0.625000   0.875000 0
  1.000000   0.750000 0
  0.875000   0.000000 0
  1.000000   0.250000 0
  0.625000   0.375000 0
  0.875000   0.500000 0
  0.625000   0.625000 0
  1.000000   0.500000 0
  0.750000   0.500000 0
  0.750000   1.000000 0
  1.000000   0.125000 0
  0.625000   0.250000 0
  0.750000   0.750000 0
  0.625000   0.000000 0
  0.125000   0.375000 0
  0.000000   0.500000 0
  0.125000   0.625000 0
  0.625000   1.000000 0
  1.000000   0.875000 0
  0.875000   0.125000 0
  0.500000   0.250000 0
  0.625000   0.500000 0
  0.250000   0.625000 0
  0.000000   0.625000 0
  0.375000   0.500000 0
  0.375000   0.000000 0
  0.000000   0.125000 0
  0.125000   0.875000 0
  0.875000   1.000000 0
  0.750000   0.250000 0
  0.375000   0.375000 0
  0.250000   0.375000 0
  0.625000   0.750000 0
  0.125000   0.125000 0
  0.500000   0.000000 0
  0.250000   0.875000 0
  0.125000   0.500000 0
  0.500000   0.375000 0
  0.125000   0.000000 0
  0.250000   0.750000 0
  0.250000   0.500000 0
  0.000000   0.875000 0
  0.875000   0.625000 0
  0.500000   0.750000 0
  0.750000   0.625000 0
  0.250000   0.000000 0
  0.375000   0.750000 0
  0.750000   0.875000 0
  0.625000   0.125000 0
  0.250000   0.250000 0
  0.375000   1.000000 0
  0.375000   0.250000 0
  0.000000   0.375000 0
  0.500000   1.000000 0
  0.875000   0.750000 0
  0.750000   0.000000 0
  0.375000   0.125000 0
  0.500000   0.875000 0
  0.000000   0.000000 0
  0.125000   0.750000 0
  0.500000   0.625000 0
  0.125000   0.250000 0
  0.500000   0.125000 0
  0.250000   1.000000 0
  0.250000   0.125000 0
  0.000000   1.000000 0
  0.375000   0.875000 0
  0.000000   0.750000 0
  0.375000   0.625000 0
  0.000000   0.250000 0
  0.125000   1.000000 0
  1.000000   0.375000 0
  0.500000   0.500000 0
  0.875000   0.375000 0
CELLS 64 320
4 56 71 58 63
4 27 58 69 63
4 41 69 32 63
4 76 33 68 40
4 27 44 58 37
4 79 31 44 37
4 56 38 68 21
4 56 58 38 37
4 52 32 71 63
4 47 38 31 37
4 76 68 59 21
4 22 59 43 21
4 65 45 33 40
4 47 43 38 21
4 52 71 45 40
4 56 68 71 40
4 74 30 66 23
4 46 66 29 23
4 22 43 30 23
4 72 48 77 34
4 46 53 42 73
4 50 64 53 73
4 70 42 57 73
4 74 66 48 34
4 46 42 66 34
4 47 29 43 23
4 70 77 42 34
4 60 57 64 73
4 79 67 31 75
4 47 31 29 75
4 50 53 67 75
4 46 29 53 75
4 10 78 6 80
4 36 6 1 80
4 15 1 12 80
4 36 4 6 26
4 14 12 78 80
4 2 17 9 26
4 36 18 4 55
4 15 28 1 11
4 62 4 20 55
4 10 6 17 26
4 27 18 44 11
4 62 9 4 26
4 27 69 18 55
4 36 1 18 11
4 41 20 69 55
4 79 44 28 11
4 16 24 54 7
4 19 54 39 7
4 50 39 64 7
4 8 25 61 3
4 60 64 24 7
4 79 28 67 13
4 19 51 61 49
4 8 61 0 49
4 15 51 28 13
4 19 39 51 13
4 50 67 39 13
4 19 61 54 3
4 14 0 12 49
4 5 35 25 3
4 15 12 51 49
4 16 54 35 3
CELL_TYPES 64
8
8
8
8
8
8
8
8
8
8
8
8
8
8
8
8
8
8
8
8
8
8
8
8
8
8
8
8
8
8
8
8
8
8
8
8
8
8
8
8
8
8
8
8
8
8
8
8
8
8
8
8
8
8
8
8
8
8
8
8
8
8
8
8
CELL_DATA 64
VECTORS vector_value float
-0.220039 -0.861216 0
-0.396344 -1.29059 0
-0.179583 -0.873643 0
-0.214454 -1.01821 0
-0.149153 -1.20072 0
-0.449829 -1.2912 0
-0.251125 -0.693378 0
-0.306509 -1.24581 0
-0.260289 -1.51906 0
-0.381088 -1.19128 0
-0.0611802 -0.664947 0
-0.0443137 -0.553125 0
-0.0829171 -1.30758 0
-0.120659 -0.55819 0
-0.0531252 -0.552169 0
-0.358971 -0.845744 0
0.0680235 -0.702472 0
0.0632881 -0.309739 0
0.0431154 -0.538695 0
0.0703768 -0.970732 0
0.579896 -1.30883 0
0.422726 -1.2212 0
0.374878 -1.22238 0
0.053741 -0.798832 0
0.183633 -0.346351 0
0.0294012 -0.545917 0
0.415042 -0.7441 0
0.195936 -0.937046 0
-0.158526 -1.32529 0
-0.0817206 -0.697801 0
0.36922 -1.63029 0
0.132216 -0.832032 0
0.0686413 -1.5766 0
-0.00703054 -1.11995 0
0.0960323 -1.39582 0
-0.0293594 -0.867408 0
0.108594 -1.39172 0
-0.0169309 -1.58789 0
-0.108757 -0.590145 0
-0.0166931 -0.674913 0
-0.00688219 -0.438382 0
-0.0144518 -1.67528 0
-0.167585 -0.875496 0
-0.00957465 -0.99262 0
-0.238918 -0.851416 0
-0.150139 -0.62309 0
-0.052038 -0.728659 0
-0.159162 -0.943759 0
-0.0179025 -1.0737 0
0.107425 -1.15334 0
0.189495 -1.23752 0
-0.0301885 -1.06337 0
0.11702 -1.10932 0
0.0133697 -1.61301 0
0.172975 -0.967525 0
0.0452153 -1.15173 0
0.262501 -0.637708 0
0.229007 -1.18031 0
0.172372 -1.2259 0
-0.0453868 -0.870562 0
0.06237 -1.18395 0
0.0678757 -1.27925 0
0.330491 -1.45763 0
0.0744622 -0.66347 0
