# vtk DataFile Version 2.0
Unstructured Grid by M++
ASCII
DATASET UNSTRUCTURED_GRID
POINTS 81 float
  1.000000   0.625000 0
  0.750000   0.375000 0
  1.000000   0.000000 0
  0.875000   0.875000 0
  0.750000   0.125000 0
  1.000000   1.000000 0
  0.875000   0.250000 0
  0.625000   0.875000 0
  1.000000   0.750000 0
  0.875000   0.000000 0
  1.000000   0.250000 0
  0.625000   0.375000 0
  0.875000   0.500000 0
  0.625000   0.625000 0
  1.000000   0.500000 0
  0.750000   0.500000 0
  0.750000   1.000000 0
  1.000000   0.125000 0
  0.625000   0.250000 0
  0.750000   0.750000 0
  0.625000   0.000000 0
  0.125000   0.375000 0
  0.000000   0.500000 0
  0.125000   0.625000 0
  0.625000   1.000000 0
  1.000000   0.875000 0
  0.875000   0.125000 0
  0.500000   0.250000 0
  0.625000   0.500000 0
  0.250000   0.625000 0
  0.000000   0.625000 0
  0.375000   0.500000 0
  0.375000   0.000000 0
  0.000000   0.125000 0
  0.125000   0.875000 0
  0.875000   1.000000 0
  0.750000   0.250000 0
  0.375000   0.375000 0
  0.250000   0.375000 0
  0.625000   0.750000 0
  0.125000   0.125000 0
  0.500000   0.000000 0
  0.250000   0.875000 0
  0.125000   0.500000 0
  0.500000   0.375000 0
  0.125000   0.000000 0
  0.250000   0.750000 0
  0.250000   0.500000 0
  0.000000   0.875000 0
  0.875000   0.625000 0
  0.500000   0.750000 0
  0.750000   0.625000 0
  0.250000   0.000000 0
  0.375000   0.750000 0
  0.750000   0.875000 0
  0.625000   0.125000 0
  0.250000   0.250000 0
  0.375000   1.000000 0
  0.375000   0.250000 0
  0.000000   0.375000 0
  0.500000   1.000000 0
  0.875000   0.750000 0
  0.750000   0.000000 0
  0.375000   0.125000 0
  0.500000   0.875000 0
  0.000000   0.000000 0
  0.125000   0.750000 0
  0.500000   0.625000 0
  0.125000   0.250000 0
  0.500000   0.125000 0
  0.250000   1.000000 0
  0.250000   0.125000 0
  0.000000   1.000000 0
  0.375000   0.875000 0
  0.000000   0.750000 0
  0.375000   0.625000 0
  0.000000   0.250000 0
  0.125000   1.000000 0
  1.000000   0.375000 0
  0.500000   0.500000 0
  0.875000   0.375000 0
CELLS 64 320
4 56 71 58 63
4 27 58 69 63
4 41 69 32 63
4 76 33 68 40
4 27 44 58 37
4 79 31 44 37
4 56 38 68 21
4 56 58 38 37
4 52 32 71 63
4 47 38 31 37
4 76 68 59 21
4 22 59 43 21
4 65 45 33 40
4 47 43 38 21
4 52 71 45 40
4 56 68 71 40
4 74 30 66 23
4 46 66 29 23
4 22 43 30 23
4 72 48 77 34
4 46 53 42 73
4 50 64 53 73
4 70 42 57 73
4 74 66 48 34
4 46 42 66 34
4 47 29 43 23
4 70 77 42 34
4 60 57 64 73
4 79 67 31 75
4 47 31 29 75
4 50 53 67 75
4 46 29 53 75
4 10 78 6 80
4 36 6 1 80
4 15 1 12 80
4 36 4 6 26
4 14 12 78 80
4 2 17 9 26
4 36 18 4 55
4 15 28 1 11
4 62 4 20 55
4 10 6 17 26
4 27 18 44 11
4 62 9 4 26
4 27 69 18 55
4 36 1 18 11
4 41 20 69 55
4 79 44 28 11
4 16 24 54 7
4 19 54 39 7
4 50 39 64 7
4 8 25 61 3
4 60 64 24 7
4 79 28 67 13
4 19 51 61 49
4 8 61 0 49
4 15 51 28 13
4 19 39 51 13
4 50 67 39 13
4 19 61 54 3
4 14 0 12 49
4 5 35 25 3
4 15 12 51 49
4 16 54 35 3
CELL_TYPES 64
8
8
8
8
8
8
8
8
8
8
8
8
8
8
8
8
8
8
8
8
8
8
8
8
8
8
8
8
8
8
8
8
8
8
8
8
8
8
8
8
8
8
8
8
8
8
8
8
8
8
8
8
8
8
8
8
8
8
8
8
8
8
8
8
CELL_DATA 64
VECTORS vector_value float
-0.423062 -1.0483 0
-0.285871 -0.797114 0
-0.0247506 -0.496026 0
-0.0112852 -0.547482 0
-0.683403 -0.971081 0
-0.621235 -0.344757 0
0.378877 -0.78486 0
-0.32226 -0.327412 0
-0.195517 -0.698668 0
-0.120808 -0.0484576 0
0.400875 -1.15125 0
-0.10075 -1.35774 0
-0.388372 -1.22212 0
-0.145254 -0.437425 0
-0.579231 -1.21328 0
-0.122557 -1.28863 0
0.0370617 -1.40518 0
0.0181522 -0.315606 0
0.0910903 -1.17508 0
-0.197898 -1.33296 0
0.119331 -0.0477444 0
0.18848 -0.0675054 0
0.626441 -0.591158 0
-0.00651181 -1.3582 0
-0.0202603 -0.43225 0
0.0920349 -0.565994 0
-0.0470619 -0.409463 0
1.51892 -0.497254 0
0.00317629 -0.0212204 0
-0.0121511 -0.0174035 0
0.0184767 -0.0326224 0
0.0107051 -0.0432102 0
0.0217523 -0.142102 0
0.151583 -0.97957 0
-0.130838 -1.15342 0
0.245532 -1.18438 0
-0.000281225 -0.124445 0
0.056735 -0.517515 0
0.328015 -1.58273 0
-0.238358 -1.22854 0
0.8673 -1.31578 0
0.123746 -0.379207 0
-0.0596675 -2.04949 0
0.627073 -2.05634 0
0.252715 -1.17215 0
0.321051 -1.59424 0
0.212108 -0.480271 0
-2.11876 -3.30522 0
1.48193 -2.10783 0
0.993581 -2.40559 0
0.259165 -0.340955 0
-0.135118 -0.993829 0
2.33116 -1.2254 0
-0.235217 -0.374354 0
-0.299899 -3.53147 0
-0.248812 -0.669473 0
-2.96836 -3.61086 0
0.0911335 -1.82753 0
0.0236115 -0.174904 0
0.554703 -2.35393 0
-0.0987414 -0.196234 0
0.0489321 -1.56935 0
-1.31258 -2.03886 0
0.314623 -0.266591 0
