# vtk DataFile Version 2.0
Unstructured Grid by M++
ASCII
DATASET UNSTRUCTURED_GRID
POINTS 81 float
  1.000000   0.625000 0
  0.750000   0.375000 0
  1.000000   0.000000 0
  0.875000   0.875000 0
  0.750000   0.125000 0
  1.000000   1.000000 0
  0.875000   0.250000 0
  0.625000   0.875000 0
  1.000000   0.750000 0
  0.875000   0.000000 0
  1.000000   0.250000 0
  0.625000   0.375000 0
  0.875000   0.500000 0
  0.625000   0.625000 0
  1.000000   0.500000 0
  0.750000   0.500000 0
  0.750000   1.000000 0
  1.000000   0.125000 0
  0.625000   0.250000 0
  0.750000   0.750000 0
  0.625000   0.000000 0
  0.125000   0.375000 0
  0.000000   0.500000 0
  0.125000   0.625000 0
  0.625000   1.000000 0
  1.000000   0.875000 0
  0.875000   0.125000 0
  0.500000   0.250000 0
  0.625000   0.500000 0
  0.250000   0.625000 0
  0.000000   0.625000 0
  0.375000   0.500000 0
  0.375000   0.000000 0
  0.000000   0.125000 0
  0.125000   0.875000 0
  0.875000   1.000000 0
  0.750000   0.250000 0
  0.375000   0.375000 0
  0.250000   0.375000 0
  0.625000   0.750000 0
  0.125000   0.125000 0
  0.500000   0.000000 0
  0.250000   0.875000 0
  0.125000   0.500000 0
  0.500000   0.375000 0
  0.125000   0.000000 0
  0.250000   0.750000 0
  0.250000   0.500000 0
  0.000000   0.875000 0
  0.875000   0.625000 0
  0.500000   0.750000 0
  0.750000   0.625000 0
  0.250000   0.000000 0
  0.375000   0.750000 0
  0.750000   0.875000 0
  0.625000   0.125000 0
  0.250000   0.250000 0
  0.375000   1.000000 0
  0.375000   0.250000 0
  0.000000   0.375000 0
  0.500000   1.000000 0
  0.875000   0.750000 0
  0.750000   0.000000 0
  0.375000   0.125000 0
  0.500000   0.875000 0
  0.000000   0.000000 0
  0.125000   0.750000 0
  0.500000   0.625000 0
  0.125000   0.250000 0
  0.500000   0.125000 0
  0.250000   1.000000 0
  0.250000   0.125000 0
  0.000000   1.000000 0
  0.375000   0.875000 0
  0.000000   0.750000 0
  0.375000   0.625000 0
  0.000000   0.250000 0
  0.125000   1.000000 0
  1.000000   0.375000 0
  0.500000   0.500000 0
  0.875000   0.375000 0
CELLS 64 320
4 56 71 58 63
4 27 58 69 63
4 41 69 32 63
4 76 33 68 40
4 27 44 58 37
4 79 31 44 37
4 56 38 68 21
4 56 58 38 37
4 52 32 71 63
4 47 38 31 37
4 76 68 59 21
4 22 59 43 21
4 65 45 33 40
4 47 43 38 21
4 52 71 45 40
4 56 68 71 40
4 74 30 66 23
4 46 66 29 23
4 22 43 30 23
4 72 48 77 34
4 46 53 42 73
4 50 64 53 73
4 70 42 57 73
4 74 66 48 34
4 46 42 66 34
4 47 29 43 23
4 70 77 42 34
4 60 57 64 73
4 79 67 31 75
4 47 31 29 75
4 50 53 67 75
4 46 29 53 75
4 10 78 6 80
4 36 6 1 80
4 15 1 12 80
4 36 4 6 26
4 14 12 78 80
4 2 17 9 26
4 36 18 4 55
4 15 28 1 11
4 62 4 20 55
4 10 6 17 26
4 27 18 44 11
4 62 9 4 26
4 27 69 18 55
4 36 1 18 11
4 41 20 69 55
4 79 44 28 11
4 16 24 54 7
4 19 54 39 7
4 50 39 64 7
4 8 25 61 3
4 60 64 24 7
4 79 28 67 13
4 19 51 61 49
4 8 61 0 49
4 15 51 28 13
4 19 39 51 13
4 50 67 39 13
4 19 61 54 3
4 14 0 12 49
4 5 35 25 3
4 15 12 51 49
4 16 54 35 3
CELL_TYPES 64
8
8
8
8
8
8
8
8
8
8
8
8
8
8
8
8
8
8
8
8
8
8
8
8
8
8
8
8
8
8
8
8
8
8
8
8
8
8
8
8
8
8
8
8
8
8
8
8
8
8
8
8
8
8
8
8
8
8
8
8
8
8
8
8
CELL_DATA 64
VECTORS vector_value float
-0.267106 -0.269929 0
-0.394597 -0.691866 0
-0.0389816 -0.717157 0
-0.449094 -1.04968 0
-0.397454 -0.520201 0
-0.186245 -0.53529 0
-0.0114991 -1.78589 0
-0.525775 -0.385126 0
-0.0303613 -0.307113 0
-0.178986 -0.256865 0
0.121656 -0.589372 0
0.167802 -1.22063 0
-0.366367 -2.17319 0
-0.211058 -0.808724 0
-0.0893357 -0.701237 0
-0.78576 -1.70148 0
-0.322831 -0.731336 0
-0.112131 -1.24408 0
-0.0432447 -1.22526 0
0.259658 -0.612893 0
0.296553 -1.67158 0
0.142556 -0.62734 0
-0.36759 -1.23962 0
-0.0152359 -0.434016 0
-0.00924868 -1.6592 0
-0.0219184 -0.397428 0
0.202253 -1.48348 0
-0.552797 -0.888865 0
0.332114 -0.942964 0
-0.119519 -0.512949 0
1.04879 -1.19802 0
0.659741 -0.764979 0
-0.315785 -1.07032 0
-0.205337 -1.24248 0
-0.128456 -1.77478 0
-0.613839 -1.63491 0
-0.0547407 -0.919754 0
0.0351569 -0.354069 0
-1.15816 -1.55379 0
0.288983 -0.919884 0
-0.118771 -0.804068 0
-0.0320828 -0.257573 0
-0.0638179 -0.526723 0
-0.0136502 -1.12519 0
-0.924959 -0.840775 0
-0.0883873 -1.87988 0
-0.332316 -1.81798 0
0.176296 -1.56408 0
0.27097 -0.428063 0
0.0288985 -0.626643 0
0.0598751 -0.480052 0
0.0505888 -0.863544 0
-0.151435 -0.895949 0
0.498768 -1.75613 0
0.123059 -0.9272 0
0.233227 -1.29513 0
0.230011 -0.818707 0
-0.0920457 -0.970863 0
0.374518 -0.868388 0
0.0227511 -1.63763 0
-0.161402 -1.42286 0
-0.0720675 -0.919642 0
0.0413312 -0.923705 0
0.18853 -1.53149 0
