# vtk DataFile Version 2.0
Unstructured Grid by M++
ASCII
DATASET UNSTRUCTURED_GRID
POINTS 81 float
  1.000000   0.625000 0
  0.750000   0.375000 0
  1.000000   0.000000 0
  0.875000   0.875000 0
  0.750000   0.125000 0
  1.000000   1.000000 0
  0.875000   0.250000 0
  0.625000   0.875000 0
  1.000000   0.750000 0
  0.875000   0.000000 0
  1.000000   0.250000 0
  0.625000   0.375000 0
  0.875000   0.500000 0
  0.625000   0.625000 0
  1.000000   0.500000 0
  0.750000   0.500000 0
  0.750000   1.000000 0
  1.000000   0.125000 0
  0.625000   0.250000 0
  0.750000   0.750000 0
  0.625000   0.000000 0
  0.125000   0.375000 0
  0.000000   0.500000 0
  0.125000   0.625000 0
  0.625000   1.000000 0
  1.000000   0.875000 0
  0.875000   0.125000 0
  0.500000   0.250000 0
  0.625000   0.500000 0
  0.250000   0.625000 0
  0.000000   0.625000 0
  0.375000   0.500000 0
  0.375000   0.000000 0
  0.000000   0.125000 0
  0.125000   0.875000 0
  0.875000   1.000000 0
  0.750000   0.250000 0
  0.375000   0.375000 0
  0.250000   0.375000 0
  0.625000   0.750000 0
  0.125000   0.125000 0
  0.500000   0.000000 0
  0.250000   0.875000 0
  0.125000   0.500000 0
  0.500000   0.375000 0
  0.125000   0.000000 0
  0.250000   0.750000 0
  0.250000   0.500000 0
  0.000000   0.875000 0
  0.875000   0.625000 0
  0.500000   0.750000 0
  0.750000   0.625000 0
  0.250000   0.000000 0
  0.375000   0.750000 0
  0.750000   0.875000 0
  0.625000   0.125000 0
  0.250000   0.250000 0
  0.375000   1.000000 0
  0.375000   0.250000 0
  0.000000   0.375000 0
  0.500000   1.000000 0
  0.875000   0.750000 0
  0.750000   0.000000 0
  0.375000   0.125000 0
  0.500000   0.875000 0
  0.000000   0.000000 0
  0.125000   0.750000 0
  0.500000   0.625000 0
  0.125000   0.250000 0
  0.500000   0.125000 0
  0.250000   1.000000 0
  0.250000   0.125000 0
  0.000000   1.000000 0
  0.375000   0.875000 0
  0.000000   0.750000 0
  0.375000   0.625000 0
  0.000000   0.250000 0
  0.125000   1.000000 0
  1.000000   0.375000 0
  0.500000   0.500000 0
  0.875000   0.375000 0
CELLS 64 320
4 56 71 58 63
4 27 58 69 63
4 41 69 32 63
4 76 33 68 40
4 27 44 58 37
4 79 31 44 37
4 56 38 68 21
4 56 58 38 37
4 52 32 71 63
4 47 38 31 37
4 76 68 59 21
4 22 59 43 21
4 65 45 33 40
4 47 43 38 21
4 52 71 45 40
4 56 68 71 40
4 74 30 66 23
4 46 66 29 23
4 22 43 30 23
4 72 48 77 34
4 46 53 42 73
4 50 64 53 73
4 70 42 57 73
4 74 66 48 34
4 46 42 66 34
4 47 29 43 23
4 70 77 42 34
4 60 57 64 73
4 79 67 31 75
4 47 31 29 75
4 50 53 67 75
4 46 29 53 75
4 10 78 6 80
4 36 6 1 80
4 15 1 12 80
4 36 4 6 26
4 14 12 78 80
4 2 17 9 26
4 36 18 4 55
4 15 28 1 11
4 62 4 20 55
4 10 6 17 26
4 27 18 44 11
4 62 9 4 26
4 27 69 18 55
4 36 1 18 11
4 41 20 69 55
4 79 44 28 11
4 16 24 54 7
4 19 54 39 7
4 50 39 64 7
4 8 25 61 3
4 60 64 24 7
4 79 28 67 13
4 19 51 61 49
4 8 61 0 49
4 15 51 28 13
4 19 39 51 13
4 50 67 39 13
4 19 61 54 3
4 14 0 12 49
4 5 35 25 3
4 15 12 51 49
4 16 54 35 3
CELL_TYPES 64
8
8
8
8
8
8
8
8
8
8
8
8
8
8
8
8
8
8
8
8
8
8
8
8
8
8
8
8
8
8
8
8
8
8
8
8
8
8
8
8
8
8
8
8
8
8
8
8
8
8
8
8
8
8
8
8
8
8
8
8
8
8
8
8
CELL_DATA 64
VECTORS vector_value float
0.286592 -0.378928 0
0.711985 -1.84061 0
0.0517349 -1.65262 0
0.0790249 -1.6657 0
0.819691 -1.65767 0
1.14007 -1.53148 0
0.0609718 -0.704415 0
0.399728 -1.01509 0
-0.00104196 -0.258029 0
0.954201 -2.22837 0
-0.075334 -1.71865 0
-0.165938 -1.27902 0
0.228136 -1.17645 0
-0.070414 -1.4254 0
0.254683 -1.08169 0
0.0813971 -0.578683 0
-0.191142 -1.60019 0
-0.583686 -1.10512 0
0.175678 -1.46446 0
-0.0558664 -1.0315 0
-0.411021 -2.18907 0
-1.21835 -1.41517 0
-0.496489 -1.47965 0
-0.0447609 -1.16699 0
-0.102179 -0.918894 0
0.279004 -1.65029 0
-0.0946213 -1.03818 0
-0.835938 -0.701682 0
0.435785 -0.957939 0
0.451948 -2.91183 0
-0.938828 -1.03833 0
-1.07124 -2.91282 0
-0.0169127 -0.13365 0
-0.0570761 -0.141761 0
-0.0241546 -0.154386 0
0.00360761 -0.125166 0
-0.0241534 -0.191721 0
0.0103398 -0.150561 0
-0.0146781 -0.437027 0
0.0746846 -0.351421 0
0.472552 -0.889454 0
0.00203649 -0.132141 0
0.797938 -1.9554 0
0.13947 -0.327687 0
0.334456 -2.84174 0
0.00159879 -0.673363 0
0.246649 -2.46351 0
0.341169 -0.838203 0
-1.21938 -1.09624 0
-0.623224 -0.805109 0
-0.901725 -0.874346 0
-0.115648 -0.422396 0
-1.25269 -1.32995 0
0.129158 -0.456567 0
-0.126858 -0.172025 0
-0.0438183 -0.265524 0
0.0121701 -0.221457 0
-0.201995 -0.277696 0
-0.554384 -0.62829 0
-0.233706 -0.20803 0
-0.00484346 -0.217824 0
-0.229997 -0.70681 0
-0.00536941 -0.119632 0
-0.858264 -0.615987 0
