# vtk DataFile Version 2.0
Unstructured Grid by M++
ASCII
DATASET UNSTRUCTURED_GRID
POINTS 81 float
  1.000000   0.625000 0
  0.750000   0.375000 0
  1.000000   0.000000 0
  0.875000   0.875000 0
  0.750000   0.125000 0
  1.000000   1.000000 0
  0.875000   0.250000 0
  0.625000   0.875000 0
  1.000000   0.750000 0
  0.875000   0.000000 0
  1.000000   0.250000 0
  0.625000   0.375000 0
  0.875000   0.500000 0
  0.625000   0.625000 0
  1.000000   0.500000 0
  0.750000   0.500000 0
  0.750000   1.000000 0
  1.000000   0.125000 0
  0.625000   0.250000 0
  0.750000   0.750000 0
  0.625000   0.000000 0
  0.125000   0.375000 0
  0.000000   0.500000 0
  0.125000   0.625000 0
  0.625000   1.000000 0
  1.000000   0.875000 0
  0.875000   0.125000 0
  0.500000   0.250000 0
  0.625000   0.500000 0
  0.250000   0.625000 0
  0.000000   0.625000 0
  0.375000   0.500000 0
  0.375000   0.000000 0
  0.000000   0.125000 0
  0.125000   0.875000 0
  0.875000   1.000000 0
  0.750000   0.250000 0
  0.375000   0.375000 0
  0.250000   0.375000 0
  0.625000   0.750000 0
  0.125000   0.125000 0
  0.500000   0.000000 0
  0.250000   0.875000 0
  0.125000   0.500000 0
  0.500000   0.375000 0
  0.125000   0.000000 0
  0.250000   0.750000 0
  0.250000   0.500000 0
  0.000000   0.875000 0
  0.875000   0.625000 0
  0.500000   0.750000 0
  0.750000   0.625000 0
  0.250000   0.000000 0
  0.375000   0.750000 0
  0.750000   0.875000 0
  0.625000   0.125000 0
  0.250000   0.250000 0
  0.375000   1.000000 0
  0.375000   0.250000 0
  0.000000   0.375000 0
  0.500000   1.000000 0
  0.875000   0.750000 0
  0.750000   0.000000 0
  0.375000   0.125000 0
  0.500000   0.875000 0
  0.000000   0.000000 0
  0.125000   0.750000 0
  0.500000   0.625000 0
  0.125000   0.250000 0
  0.500000   0.125000 0
  0.250000   1.000000 0
  0.250000   0.125000 0
  0.000000   1.000000 0
  0.375000   0.875000 0
  0.000000   0.750000 0
  0.375000   0.625000 0
  0.000000   0.250000 0
  0.125000   1.000000 0
  1.000000   0.375000 0
  0.500000   0.500000 0
  0.875000   0.375000 0
CELLS 64 320
4 56 71 58 63
4 27 58 69 63
4 41 69 32 63
4 76 33 68 40
4 27 44 58 37
4 79 31 44 37
4 56 38 68 21
4 56 58 38 37
4 52 32 71 63
4 47 38 31 37
4 76 68 59 21
4 22 59 43 21
4 65 45 33 40
4 47 43 38 21
4 52 71 45 40
4 56 68 71 40
4 74 30 66 23
4 46 66 29 23
4 22 43 30 23
4 72 48 77 34
4 46 53 42 73
4 50 64 53 73
4 70 42 57 73
4 74 66 48 34
4 46 42 66 34
4 47 29 43 23
4 70 77 42 34
4 60 57 64 73
4 79 67 31 75
4 47 31 29 75
4 50 53 67 75
4 46 29 53 75
4 10 78 6 80
4 36 6 1 80
4 15 1 12 80
4 36 4 6 26
4 14 12 78 80
4 2 17 9 26
4 36 18 4 55
4 15 28 1 11
4 62 4 20 55
4 10 6 17 26
4 27 18 44 11
4 62 9 4 26
4 27 69 18 55
4 36 1 18 11
4 41 20 69 55
4 79 44 28 11
4 16 24 54 7
4 19 54 39 7
4 50 39 64 7
4 8 25 61 3
4 60 64 24 7
4 79 28 67 13
4 19 51 61 49
4 8 61 0 49
4 15 51 28 13
4 19 39 51 13
4 50 67 39 13
4 19 61 54 3
4 14 0 12 49
4 5 35 25 3
4 15 12 51 49
4 16 54 35 3
CELL_TYPES 64
8
8
8
8
8
8
8
8
8
8
8
8
8
8
8
8
8
8
8
8
8
8
8
8
8
8
8
8
8
8
8
8
8
8
8
8
8
8
8
8
8
8
8
8
8
8
8
8
8
8
8
8
8
8
8
8
8
8
8
8
8
8
8
8
CELL_DATA 64
VECTORS vector_value float
0.108024 -0.559715 0
0.101607 -1.35184 0
-0.0822775 -1.54804 0
0.00967707 -0.448473 0
2.19148 -2.35013 0
1.3945 -1.17908 0
0.230163 -0.32954 0
0.231075 -0.490565 0
0.000561888 -0.536075 0
2.93135 -2.59089 0
0.062463 -0.523322 0
0.52254 -0.940632 0
0.0240408 -0.394086 0
1.87444 -1.01446 0
0.0303044 -0.142433 0
0.0125838 -0.0947888 0
0.0227289 -3.24601 0
0.0604161 -0.215402 0
0.741001 -2.57732 0
-0.677457 -1.77547 0
-0.0230827 -0.062703 0
-0.242208 -0.193781 0
-1.35388 -0.683665 0
-0.39803 -2.90893 0
-0.242429 -0.931966 0
0.70711 -0.586988 0
-1.63284 -1.15376 0
-0.392277 -0.312336 0
-0.198523 -0.614697 0
-0.132811 -2.0626 0
-1.13263 -1.02624 0
-0.0656974 -0.909024 0
0.806891 -1.91321 0
1.86162 -1.60235 0
0.805532 -1.2589 0
0.569396 -1.47913 0
0.226821 -0.861335 0
0.130917 -3.90497 0
0.177628 -0.163197 0
0.520649 -0.0928633 0
0.0573415 -0.196935 0
0.481421 -3.32283 0
2.84789 -0.697825 0
0.109015 -0.989191 0
0.113107 -0.580022 0
2.3388 -0.0930569 0
-0.0244662 -0.288277 0
0.134397 -0.0618363 0
-0.894239 -1.90732 0
-0.101321 -0.775341 0
-1.39922 -2.02984 0
0.00443752 -0.275082 0
0.163318 -0.708718 0
0.0332027 -0.0511705 0
0.172013 -1.05281 0
0.0448921 -0.324356 0
0.289527 -0.63808 0
0.113795 -0.306917 0
-0.137077 -0.919229 0
0.0782082 -0.822357 0
0.135925 -0.602054 0
-0.357002 -0.423382 0
0.130346 -0.867096 0
-0.808403 -1.03535 0
