# vtk DataFile Version 2.0
Unstructured Grid by M++
ASCII
DATASET UNSTRUCTURED_GRID
POINTS 81 float
  1.000000   0.625000 0
  0.750000   0.375000 0
  1.000000   0.000000 0
  0.875000   0.875000 0
  0.750000   0.125000 0
  1.000000   1.000000 0
  0.875000   0.250000 0
  0.625000   0.875000 0
  1.000000   0.750000 0
  0.875000   0.000000 0
  1.000000   0.250000 0
  0.625000   0.375000 0
  0.875000   0.500000 0
  0.625000   0.625000 0
  1.000000   0.500000 0
  0.750000   0.500000 0
  0.750000   1.000000 0
  1.000000   0.125000 0
  0.625000   0.250000 0
  0.750000   0.750000 0
  0.625000   0.000000 0
  0.125000   0.375000 0
  0.000000   0.500000 0
  0.125000   0.625000 0
  0.625000   1.000000 0
  1.000000   0.875000 0
  0.875000   0.125000 0
  0.500000   0.250000 0
  0.625000   0.500000 0
  0.250000   0.625000 0
  0.000000   0.625000 0
  0.375000   0.500000 0
  0.375000   0.000000 0
  0.000000   0.125000 0
  0.125000   0.875000 0
  0.875000   1.000000 0
  0.750000   0.250000 0
  0.375000   0.375000 0
  0.250000   0.375000 0
  0.625000   0.750000 0
  0.125000   0.125000 0
  0.500000   0.000000 0
  0.250000   0.875000 0
  0.125000   0.500000 0
  0.500000   0.375000 0
  0.125000   0.000000 0
  0.250000   0.750000 0
  0.250000   0.500000 0
  0.000000   0.875000 0
  0.875000   0.625000 0
  0.500000   0.750000 0
  0.750000   0.625000 0
  0.250000   0.000000 0
  0.375000   0.750000 0
  0.750000   0.875000 0
  0.625000   0.125000 0
  0.250000   0.250000 0
  0.375000   1.000000 0
  0.375000   0.250000 0
  0.000000   0.375000 0
  0.500000   1.000000 0
  0.875000   0.750000 0
  0.750000   0.000000 0
  0.375000   0.125000 0
  0.500000   0.875000 0
  0.000000   0.000000 0
  0.125000   0.750000 0
  0.500000   0.625000 0
  0.125000   0.250000 0
  0.500000   0.125000 0
  0.250000   1.000000 0
  0.250000   0.125000 0
  0.000000   1.000000 0
  0.375000   0.875000 0
  0.000000   0.750000 0
  0.375000   0.625000 0
  0.000000   0.250000 0
  0.125000   1.000000 0
  1.000000   0.375000 0
  0.500000   0.500000 0
  0.875000   0.375000 0
CELLS 64 320
4 56 71 58 63
4 27 58 69 63
4 41 69 32 63
4 76 33 68 40
4 27 44 58 37
4 79 31 44 37
4 56 38 68 21
4 56 58 38 37
4 52 32 71 63
4 47 38 31 37
4 76 68 59 21
4 22 59 43 21
4 65 45 33 40
4 47 43 38 21
4 52 71 45 40
4 56 68 71 40
4 74 30 66 23
4 46 66 29 23
4 22 43 30 23
4 72 48 77 34
4 46 53 42 73
4 50 64 53 73
4 70 42 57 73
4 74 66 48 34
4 46 42 66 34
4 47 29 43 23
4 70 77 42 34
4 60 57 64 73
4 79 67 31 75
4 47 31 29 75
4 50 53 67 75
4 46 29 53 75
4 10 78 6 80
4 36 6 1 80
4 15 1 12 80
4 36 4 6 26
4 14 12 78 80
4 2 17 9 26
4 36 18 4 55
4 15 28 1 11
4 62 4 20 55
4 10 6 17 26
4 27 18 44 11
4 62 9 4 26
4 27 69 18 55
4 36 1 18 11
4 41 20 69 55
4 79 44 28 11
4 16 24 54 7
4 19 54 39 7
4 50 39 64 7
4 8 25 61 3
4 60 64 24 7
4 79 28 67 13
4 19 51 61 49
4 8 61 0 49
4 15 51 28 13
4 19 39 51 13
4 50 67 39 13
4 19 61 54 3
4 14 0 12 49
4 5 35 25 3
4 15 12 51 49
4 16 54 35 3
CELL_TYPES 64
8
8
8
8
8
8
8
8
8
8
8
8
8
8
8
8
8
8
8
8
8
8
8
8
8
8
8
8
8
8
8
8
8
8
8
8
8
8
8
8
8
8
8
8
8
8
8
8
8
8
8
8
8
8
8
8
8
8
8
8
8
8
8
8
CELL_DATA 64
VECTORS vector_value float
-0.0933272 -0.252809 0
-0.0110709 -0.209415 0
-0.0713322 -0.288494 0
-0.284863 -0.898653 0
0.222833 -0.685833 0
0.178155 -0.725863 0
-0.228791 -0.345285 0
-0.434979 -0.951926 0
-0.0542036 -0.183661 0
0.603262 -1.23925 0
-0.18255 -0.45262 0
-0.0154601 -0.130351 0
-0.0761453 -1.22686 0
0.024917 -0.568976 0
-0.0938323 -0.459784 0
-0.623667 -0.676236 0
-0.240433 -1.4002 0
-0.173145 -0.623374 0
0.599786 -0.779092 0
0.0867988 -0.936967 0
-0.0999855 -0.123252 0
0.187988 -0.52604 0
0.554952 -0.788554 0
-0.0132559 -0.797992 0
-0.253347 -1.1027 0
1.15836 -0.917439 0
0.217115 -0.69195 0
1.12459 -1.01974 0
-0.152715 -0.36803 0
0.260654 -0.440522 0
-0.004895 -0.153655 0
-0.0238841 -0.0865664 0
-0.553539 -1.04662 0
-1.77602 -2.40949 0
-0.51292 -1.99036 0
-0.835077 -1.13687 0
-0.497136 -2.34883 0
-0.00443456 -0.341542 0
-1.65962 -2.30042 0
-0.192992 -0.794919 0
-0.331457 -1.79284 0
-0.129348 -0.470485 0
-0.0718747 -0.634325 0
-0.023794 -0.249447 0
-0.607018 -2.05511 0
-1.2098 -1.4739 0
-0.533435 -3.45737 0
-0.0508519 -0.20145 0
1.87991 -0.290604 0
0.20507 -0.0977048 0
0.542939 -0.941011 0
1.06342 -3.18983 0
1.24668 -1.02311 0
-0.0299347 -0.355459 0
-0.0134951 -1.4601 0
-0.136276 -3.14672 0
0.0427648 -0.58818 0
0.198289 -0.277613 0
0.0271024 -0.851775 0
0.397908 -1.22146 0
-0.189253 -2.98746 0
0.116601 -0.953076 0
-0.246931 -1.56382 0
1.97263 -2.296 0
