# vtk DataFile Version 2.0
Unstructured Grid by M++
ASCII
DATASET UNSTRUCTURED_GRID
POINTS 81 float
  1.000000   0.625000 0
  0.750000   0.375000 0
  1.000000   0.000000 0
  0.875000   0.875000 0
  0.750000   0.125000 0
  1.000000   1.000000 0
  0.875000   0.250000 0
  0.625000   0.875000 0
  1.000000   0.750000 0
  0.875000   0.000000 0
  1.000000   0.250000 0
  0.625000   0.375000 0
  0.875000   0.500000 0
  0.625000   0.625000 0
  1.000000   0.500000 0
  0.750000   0.500000 0
  0.750000   1.000000 0
  1.000000   0.125000 0
  0.625000   0.250000 0
  0.750000   0.750000 0
  0.625000   0.000000 0
  0.125000   0.375000 0
  0.000000   0.500000 0
  0.125000   0.625000 0
  0.625000   1.000000 0
  1.000000   0.875000 0
  0.875000   0.125000 0
  0.500000   0.250000 0
  0.625000   0.500000 0
  0.250000   0.625000 0
  0.000000   0.625000 0
  0.375000   0.500000 0
  0.375000   0.000000 0
  0.000000   0.125000 0
  0.125000   0.875000 0
  0.875000   1.000000 0
  0.750000   0.250000 0
  0.375000   0.375000 0
  0.250000   0.375000 0
  0.625000   0.750000 0
  0.125000   0.125000 0
  0.500000   0.000000 0
  0.250000   0.875000 0
  0.125000   0.500000 0
  0.500000   0.375000 0
  0.125000   0.000000 0
  0.250000   0.750000 0
  0.250000   0.500000 0
  0.000000   0.875000 0
  0.875000   0.625000 0
  0.500000   0.750000 0
  0.750000   0.625000 0
  0.250000   0.000000 0
  0.375000   0.750000 0
  0.750000   0.875000 0
  0.625000   0.125000 0
  0.250000   0.250000 0
  0.375000   1.000000 0
  0.375000   0.250000 0
  0.000000   0.375000 0
  0.500000   1.000000 0
  0.875000   0.750000 0
  0.750000   0.000000 0
  0.375000   0.125000 0
  0.500000   0.875000 0
  0.000000   0.000000 0
  0.125000   0.750000 0
  0.500000   0.625000 0
  0.125000   0.250000 0
  0.500000   0.125000 0
  0.250000   1.000000 0
  0.250000   0.125000 0
  0.000000   1.000000 0
  0.375000   0.875000 0
  0.000000   0.750000 0
  0.375000   0.625000 0
  0.000000   0.250000 0
  0.125000   1.000000 0
  1.000000   0.375000 0
  0.500000   0.500000 0
  0.875000   0.375000 0
CELLS 64 320
4 56 71 58 63
4 27 58 69 63
4 41 69 32 63
4 76 33 68 40
4 27 44 58 37
4 79 31 44 37
4 56 38 68 21
4 56 58 38 37
4 52 32 71 63
4 47 38 31 37
4 76 68 59 21
4 22 59 43 21
4 65 45 33 40
4 47 43 38 21
4 52 71 45 40
4 56 68 71 40
4 74 30 66 23
4 46 66 29 23
4 22 43 30 23
4 72 48 77 34
4 46 53 42 73
4 50 64 53 73
4 70 42 57 73
4 74 66 48 34
4 46 42 66 34
4 47 29 43 23
4 70 77 42 34
4 60 57 64 73
4 79 67 31 75
4 47 31 29 75
4 50 53 67 75
4 46 29 53 75
4 10 78 6 80
4 36 6 1 80
4 15 1 12 80
4 36 4 6 26
4 14 12 78 80
4 2 17 9 26
4 36 18 4 55
4 15 28 1 11
4 62 4 20 55
4 10 6 17 26
4 27 18 44 11
4 62 9 4 26
4 27 69 18 55
4 36 1 18 11
4 41 20 69 55
4 79 44 28 11
4 16 24 54 7
4 19 54 39 7
4 50 39 64 7
4 8 25 61 3
4 60 64 24 7
4 79 28 67 13
4 19 51 61 49
4 8 61 0 49
4 15 51 28 13
4 19 39 51 13
4 50 67 39 13
4 19 61 54 3
4 14 0 12 49
4 5 35 25 3
4 15 12 51 49
4 16 54 35 3
CELL_TYPES 64
8
8
8
8
8
8
8
8
8
8
8
8
8
8
8
8
8
8
8
8
8
8
8
8
8
8
8
8
8
8
8
8
8
8
8
8
8
8
8
8
8
8
8
8
8
8
8
8
8
8
8
8
8
8
8
8
8
8
8
8
8
8
8
8
CELL_DATA 64
VECTORS vector_value float
0.535611 -3.24917 0
-0.00983495 -0.0255494 0
-0.0121846 -0.0340377 0
0.0284974 -0.216731 0
-0.0196715 -0.0394496 0
-0.278576 -0.318141 0
0.687062 -4.37417 0
0.162273 -1.86526 0
-0.355416 -2.82124 0
-0.935801 -2.165 0
0.328481 -0.801935 0
-0.0098651 -0.92363 0
0.0484799 -0.121476 0
-0.892015 -3.59752 0
-0.275772 -4.13449 0
0.389519 -3.60327 0
-0.0691659 -0.863095 0
-0.199294 -0.88548 0
-0.0133334 -0.861653 0
0.0885477 -1.19367 0
-0.0615433 -0.790629 0
-0.0537025 -0.601444 0
0.518155 -1.07678 0
0.0457006 -0.710891 0
0.0694309 -0.892252 0
-0.747591 -1.54862 0
0.23398 -0.317995 0
0.773712 -1.00876 0
-3.36611 -2.40775 0
-2.87842 -1.82077 0
-0.629885 -1.12194 0
-0.210681 -0.735303 0
-0.0672213 -0.451048 0
-0.0869771 -0.301284 0
-0.19599 -0.262267 0
-0.117564 -0.403832 0
-0.0707103 -0.582756 0
-0.00514475 -0.156327 0
-0.0515134 -0.165187 0
-0.0925192 -0.104081 0
-0.022348 -0.158723 0
-0.105137 -0.330832 0
-0.0121547 -0.0106252 0
-0.0289018 -0.520002 0
-0.00478004 -0.00542869 0
-0.0290988 -0.156231 0
-0.0455044 -0.0537071 0
-0.0973183 -0.0466017 0
-0.00365716 -1.91443 0
-0.678753 -2.3596 0
-0.18918 -1.41284 0
-0.047857 -0.629466 0
0.713187 -0.976964 0
-0.397116 -0.337352 0
0.00496246 -0.257056 0
0.0780078 -0.729359 0
-0.0367945 -0.115311 0
-0.83335 -0.933498 0
-2.61281 -2.47427 0
-0.25534 -0.602882 0
-0.0745536 -0.82986 0
-0.130077 -1.0786 0
-0.0317397 -0.0786777 0
-0.376938 -0.432804 0
