# vtk DataFile Version 2.0
Unstructured Grid by M++
ASCII
DATASET UNSTRUCTURED_GRID
POINTS 81 float
  1.000000   0.625000 0
  0.750000   0.375000 0
  1.000000   0.000000 0
  0.875000   0.875000 0
  0.750000   0.125000 0
  1.000000   1.000000 0
  0.875000   0.250000 0
  0.625000   0.875000 0
  1.000000   0.750000 0
  0.875000   0.000000 0
  1.000000   0.250000 0
  0.625000   0.375000 0
  0.875000   0.500000 0
  0.625000   0.625000 0
  1.000000   0.500000 0
  0.750000   0.500000 0
  0.750000   1.000000 0
  1.000000   0.125000 0
  0.625000   0.250000 0
  0.750000   0.750000 0
  0.625000   0.000000 0
  0.125000   0.375000 0
  0.000000   0.500000 0
  0.125000   0.625000 0
  0.625000   1.000000 0
  1.000000   0.875000 0
  0.875000   0.125000 0
  0.500000   0.250000 0
  0.625000   0.500000 0
  0.250000   0.625000 0
  0.000000   0.625000 0
  0.375000   0.500000 0
  0.375000   0.000000 0
  0.000000   0.125000 0
  0.125000   0.875000 0
  0.875000   1.000000 0
  0.750000   0.250000 0
  0.375000   0.375000 0
  0.250000   0.375000 0
  0.625000   0.750000 0
  0.125000   0.125000 0
  0.500000   0.000000 0
  0.250000   0.875000 0
  0.125000   0.500000 0
  0.500000   0.375000 0
  0.125000   0.000000 0
  0.250000   0.750000 0
  0.250000   0.500000 0
  0.000000   0.875000 0
  0.875000   0.625000 0
  0.500000   0.750000 0
  0.750000   0.625000 0
  0.250000   0.000000 0
  0.375000   0.750000 0
  0.750000   0.875000 0
  0.625000   0.125000 0
  0.250000   0.250000 0
  0.375000   1.000000 0
  0.375000   0.250000 0
  0.000000   0.375000 0
  0.500000   1.000000 0
  0.875000   0.750000 0
  0.750000   0.000000 0
  0.375000   0.125000 0
  0.500000   0.875000 0
  0.000000   0.000000 0
  0.125000   0.750000 0
  0.500000   0.625000 0
  0.125000   0.250000 0
  0.500000   0.125000 0
  0.250000   1.000000 0
  0.250000   0.125000 0
  0.000000   1.000000 0
  0.375000   0.875000 0
  0.000000   0.750000 0
  0.375000   0.625000 0
  0.000000   0.250000 0
  0.125000   1.000000 0
  1.000000   0.375000 0
  0.500000   0.500000 0
  0.875000   0.375000 0
CELLS 64 320
4 56 71 58 63
4 27 58 69 63
4 41 69 32 63
4 76 33 68 40
4 27 44 58 37
4 79 31 44 37
4 56 38 68 21
4 56 58 38 37
4 52 32 71 63
4 47 38 31 37
4 76 68 59 21
4 22 59 43 21
4 65 45 33 40
4 47 43 38 21
4 52 71 45 40
4 56 68 71 40
4 74 30 66 23
4 46 66 29 23
4 22 43 30 23
4 72 48 77 34
4 46 53 42 73
4 50 64 53 73
4 70 42 57 73
4 74 66 48 34
4 46 42 66 34
4 47 29 43 23
4 70 77 42 34
4 60 57 64 73
4 79 67 31 75
4 47 31 29 75
4 50 53 67 75
4 46 29 53 75
4 10 78 6 80
4 36 6 1 80
4 15 1 12 80
4 36 4 6 26
4 14 12 78 80
4 2 17 9 26
4 36 18 4 55
4 15 28 1 11
4 62 4 20 55
4 10 6 17 26
4 27 18 44 11
4 62 9 4 26
4 27 69 18 55
4 36 1 18 11
4 41 20 69 55
4 79 44 28 11
4 16 24 54 7
4 19 54 39 7
4 50 39 64 7
4 8 25 61 3
4 60 64 24 7
4 79 28 67 13
4 19 51 61 49
4 8 61 0 49
4 15 51 28 13
4 19 39 51 13
4 50 67 39 13
4 19 61 54 3
4 14 0 12 49
4 5 35 25 3
4 15 12 51 49
4 16 54 35 3
CELL_TYPES 64
8
8
8
8
8
8
8
8
8
8
8
8
8
8
8
8
8
8
8
8
8
8
8
8
8
8
8
8
8
8
8
8
8
8
8
8
8
8
8
8
8
8
8
8
8
8
8
8
8
8
8
8
8
8
8
8
8
8
8
8
8
8
8
8
CELL_DATA 64
VECTORS vector_value float
-0.254028 -0.892085 0
0.0534655 -1.4745 0
0.050599 -1.30682 0
-0.724536 -3.96916 0
-0.16993 -1.77006 0
-0.467342 -2.28404 0
-1.48458 -1.7502 0
-0.518817 -1.07691 0
-0.0501859 -0.459991 0
-0.945259 -1.71634 0
-0.38565 -2.21483 0
-0.0469622 -1.91865 0
-0.0445739 -4.31314 0
-0.331355 -0.769208 0
-0.233995 -0.487795 0
-0.34963 -0.429069 0
-0.0674821 -1.95748 0
0.0374065 -0.353506 0
0.0399634 -2.00914 0
-0.26315 -1.41857 0
-0.04454 -0.388003 0
0.0163784 -0.863655 0
-0.2573 -0.427912 0
-0.171611 -1.74386 0
-0.0961455 -0.880266 0
-0.0737877 -0.245191 0
-0.56396 -1.07918 0
0.00926671 -1.13712 0
-0.882567 -2.79943 0
-0.593669 -1.25373 0
-1.01578 -2.24625 0
0.124499 -0.671338 0
0.0480375 -0.674065 0
0.0506202 -0.182847 0
0.111188 -0.256491 0
0.0815574 -0.157755 0
0.0635188 -0.523518 0
0.0269859 -0.837052 0
0.0429699 -0.0505306 0
0.0484132 -0.101444 0
0.110486 -0.205403 0
0.0473923 -0.765375 0
0.0251852 -0.272226 0
0.03204 -0.112888 0
0.102724 -0.261532 0
0.0444365 -0.0588704 0
0.135814 -0.276912 0
-0.0930322 -0.430313 0
-0.563915 -1.23576 0
-0.673432 -0.98507 0
-0.561865 -2.22179 0
-0.181622 -0.442399 0
-0.2436 -1.27659 0
-0.4547 -0.692269 0
-0.0928383 -0.635273 0
-0.0823405 -0.211197 0
-0.119315 -0.27139 0
-0.318587 -0.511237 0
-1.09409 -1.41373 0
-0.429275 -0.474954 0
0.130216 -0.338535 0
-0.129164 -0.864939 0
0.108543 -0.390311 0
-0.462999 -0.559938 0
