# vtk DataFile Version 2.0
Unstructured Grid by M++
ASCII
DATASET UNSTRUCTURED_GRID
POINTS 81 float
  1.000000   0.625000 0
  0.750000   0.375000 0
  1.000000   0.000000 0
  0.875000   0.875000 0
  0.750000   0.125000 0
  1.000000   1.000000 0
  0.875000   0.250000 0
  0.625000   0.875000 0
  1.000000   0.750000 0
  0.875000   0.000000 0
  1.000000   0.250000 0
  0.625000   0.375000 0
  0.875000   0.500000 0
  0.625000   0.625000 0
  1.000000   0.500000 0
  0.750000   0.500000 0
  0.750000   1.000000 0
  1.000000   0.125000 0
  0.625000   0.250000 0
  0.750000   0.750000 0
  0.625000   0.000000 0
  0.125000   0.375000 0
  0.000000   0.500000 0
  0.125000   0.625000 0
  0.625000   1.000000 0
  1.000000   0.875000 0
  0.875000   0.125000 0
  0.500000   0.250000 0
  0.625000   0.500000 0
  0.250000   0.625000 0
  0.000000   0.625000 0
  0.375000   0.500000 0
  0.375000   0.000000 0
  0.000000   0.125000 0
  0.125000   0.875000 0
  0.875000   1.000000 0
  0.750000   0.250000 0
  0.375000   0.375000 0
  0.250000   0.375000 0
  0.625000   0.750000 0
  0.125000   0.125000 0
  0.500000   0.000000 0
  0.250000   0.875000 0
  0.125000   0.500000 0
  0.500000   0.375000 0
  0.125000   0.000000 0
  0.250000   0.750000 0
  0.250000   0.500000 0
  0.000000   0.875000 0
  0.875000   0.625000 0
  0.500000   0.750000 0
  0.750000   0.625000 0
  0.250000   0.000000 0
  0.375000   0.750000 0
  0.750000   0.875000 0
  0.625000   0.125000 0
  0.250000   0.250000 0
  0.375000   1.000000 0
  0.375000   0.250000 0
  0.000000   0.375000 0
  0.500000   1.000000 0
  0.875000   0.750000 0
  0.750000   0.000000 0
  0.375000   0.125000 0
  0.500000   0.875000 0
  0.000000   0.000000 0
  0.125000   0.750000 0
  0.500000   0.625000 0
  0.125000   0.250000 0
  0.500000   0.125000 0
  0.250000   1.000000 0
  0.250000   0.125000 0
  0.000000   1.000000 0
  0.375000   0.875000 0
  0.000000   0.750000 0
  0.375000   0.625000 0
  0.000000   0.250000 0
  0.125000   1.000000 0
  1.000000   0.375000 0
  0.500000   0.500000 0
  0.875000   0.375000 0
CELLS 64 320
4 56 71 58 63
4 27 58 69 63
4 41 69 32 63
4 76 33 68 40
4 27 44 58 37
4 79 31 44 37
4 56 38 68 21
4 56 58 38 37
4 52 32 71 63
4 47 38 31 37
4 76 68 59 21
4 22 59 43 21
4 65 45 33 40
4 47 43 38 21
4 52 71 45 40
4 56 68 71 40
4 74 30 66 23
4 46 66 29 23
4 22 43 30 23
4 72 48 77 34
4 46 53 42 73
4 50 64 53 73
4 70 42 57 73
4 74 66 48 34
4 46 42 66 34
4 47 29 43 23
4 70 77 42 34
4 60 57 64 73
4 79 67 31 75
4 47 31 29 75
4 50 53 67 75
4 46 29 53 75
4 10 78 6 80
4 36 6 1 80
4 15 1 12 80
4 36 4 6 26
4 14 12 78 80
4 2 17 9 26
4 36 18 4 55
4 15 28 1 11
4 62 4 20 55
4 10 6 17 26
4 27 18 44 11
4 62 9 4 26
4 27 69 18 55
4 36 1 18 11
4 41 20 69 55
4 79 44 28 11
4 16 24 54 7
4 19 54 39 7
4 50 39 64 7
4 8 25 61 3
4 60 64 24 7
4 79 28 67 13
4 19 51 61 49
4 8 61 0 49
4 15 51 28 13
4 19 39 51 13
4 50 67 39 13
4 19 61 54 3
4 14 0 12 49
4 5 35 25 3
4 15 12 51 49
4 16 54 35 3
CELL_TYPES 64
8
8
8
8
8
8
8
8
8
8
8
8
8
8
8
8
8
8
8
8
8
8
8
8
8
8
8
8
8
8
8
8
8
8
8
8
8
8
8
8
8
8
8
8
8
8
8
8
8
8
8
8
8
8
8
8
8
8
8
8
8
8
8
8
CELL_DATA 64
VECTORS vector_value float
0.00936333 -0.214239 0
-0.00396641 -0.2118 0
-0.540659 -1.19438 0
0.0035065 -0.0227574 0
0.301054 -0.329151 0
1.05405 -0.32603 0
-0.00378145 -0.0519779 0
0.052261 -0.351558 0
0.0113034 -0.237145 0
1.02946 -0.804477 0
0.0018585 -0.0308149 0
0.0041547 -0.0297765 0
0.00152764 -0.0176979 0
0.28774 -0.350544 0
0.0146138 -0.0844936 0
-0.0100839 -0.10339 0
0.0995234 -1.09347 0
0.19005 -0.939283 0
0.309191 -0.375553 0
0.264676 -0.508236 0
0.145512 -0.746596 0
0.512 -1.17069 0
-0.284106 -1.174 0
-0.193032 -0.6771 0
-0.147031 -1.7173 0
1.04808 -1.06621 0
0.0629047 -1.60009 0
-0.364393 -1.3 0
1.03205 -0.256754 0
0.938488 -0.772887 0
0.483229 -0.491663 0
0.378834 -0.883354 0
0.098826 -0.193648 0
0.0661083 -1.60016 0
0.299571 -1.5201 0
-0.0488311 -0.686774 0
0.0463179 -0.0552993 0
0.0123484 -0.798055 0
-0.457671 -1.61488 0
-0.211001 -3.36556 0
-0.0559121 -1.70778 0
0.237791 -0.658835 0
-0.221092 -3.31025 0
-0.0109953 -0.305878 0
-0.676517 -4.48732 0
-0.551622 -2.13244 0
-0.176841 -3.65457 0
0.145813 -1.54822 0
-0.0634947 -0.261078 0
0.318003 -0.525334 0
0.739022 -0.738611 0
-0.410139 -0.53795 0
-0.52365 -0.847199 0
1.0384 -0.722601 0
-0.795439 -2.21353 0
-0.113962 -0.0813456 0
0.105249 -3.8239 0
0.364956 -1.64962 0
0.784389 -0.647747 0
-0.586083 -1.88642 0
0.000673432 -0.00834269 0
0.0292301 -1.48419 0
0.0608166 -0.973748 0
0.464013 -0.825209 0
