# vtk DataFile Version 2.0
Unstructured Grid by M++
ASCII
DATASET UNSTRUCTURED_GRID
POINTS 81 float
  1.000000   0.625000 0
  0.750000   0.375000 0
  1.000000   0.000000 0
  0.875000   0.875000 0
  0.750000   0.125000 0
  1.000000   1.000000 0
  0.875000   0.250000 0
  0.625000   0.875000 0
  1.000000   0.750000 0
  0.875000   0.000000 0
  1.000000   0.250000 0
  0.625000   0.375000 0
  0.875000   0.500000 0
  0.625000   0.625000 0
  1.000000   0.500000 0
  0.750000   0.500000 0
  0.750000   1.000000 0
  1.000000   0.125000 0
  0.625000   0.250000 0
  0.750000   0.750000 0
  0.625000   0.000000 0
  0.125000   0.375000 0
  0.000000   0.500000 0
  0.125000   0.625000 0
  0.625000   1.000000 0
  1.000000   0.875000 0
  0.875000   0.125000 0
  0.500000   0.250000 0
  0.625000   0.500000 0
  0.250000   0.625000 0
  0.000000   0.625000 0
  0.375000   0.500000 0
  0.375000   0.000000 0
  0.000000   0.125000 0
  0.125000   0.875000 0
  0.875000   1.000000 0
  0.750000   0.250000 0
  0.375000   0.375000 0
  0.250000   0.375000 0
  0.625000   0.750000 0
  0.125000   0.125000 0
  0.500000   0.000000 0
  0.250000   0.875000 0
  0.125000   0.500000 0
  0.500000   0.375000 0
  0.125000   0.000000 0
  0.250000   0.750000 0
  0.250000   0.500000 0
  0.000000   0.875000 0
  0.875000   0.625000 0
  0.500000   0.750000 0
  0.750000   0.625000 0
  0.250000   0.000000 0
  0.375000   0.750000 0
  0.750000   0.875000 0
  0.625000   0.125000 0
  0.250000   0.250000 0
  0.375000   1.000000 0
  0.375000   0.250000 0
  0.000000   0.375000 0
  0.500000   1.000000 0
  0.875000   0.750000 0
  0.750000   0.000000 0
  0.375000   0.125000 0
  0.500000   0.875000 0
  0.000000   0.000000 0
  0.125000   0.750000 0
  0.500000   0.625000 0
  0.125000   0.250000 0
  0.500000   0.125000 0
  0.250000   1.000000 0
  0.250000   0.125000 0
  0.000000   1.000000 0
  0.375000   0.875000 0
  0.000000   0.750000 0
  0.375000   0.625000 0
  0.000000   0.250000 0
  0.125000   1.000000 0
  1.000000   0.375000 0
  0.500000   0.500000 0
  0.875000   0.375000 0
CELLS 64 320
4 56 71 58 63
4 27 58 69 63
4 41 69 32 63
4 76 33 68 40
4 27 44 58 37
4 79 31 44 37
4 56 38 68 21
4 56 58 38 37
4 52 32 71 63
4 47 38 31 37
4 76 68 59 21
4 22 59 43 21
4 65 45 33 40
4 47 43 38 21
4 52 71 45 40
4 56 68 71 40
4 74 30 66 23
4 46 66 29 23
4 22 43 30 23
4 72 48 77 34
4 46 53 42 73
4 50 64 53 73
4 70 42 57 73
4 74 66 48 34
4 46 42 66 34
4 47 29 43 23
4 70 77 42 34
4 60 57 64 73
4 79 67 31 75
4 47 31 29 75
4 50 53 67 75
4 46 29 53 75
4 10 78 6 80
4 36 6 1 80
4 15 1 12 80
4 36 4 6 26
4 14 12 78 80
4 2 17 9 26
4 36 18 4 55
4 15 28 1 11
4 62 4 20 55
4 10 6 17 26
4 27 18 44 11
4 62 9 4 26
4 27 69 18 55
4 36 1 18 11
4 41 20 69 55
4 79 44 28 11
4 16 24 54 7
4 19 54 39 7
4 50 39 64 7
4 8 25 61 3
4 60 64 24 7
4 79 28 67 13
4 19 51 61 49
4 8 61 0 49
4 15 51 28 13
4 19 39 51 13
4 50 67 39 13
4 19 61 54 3
4 14 0 12 49
4 5 35 25 3
4 15 12 51 49
4 16 54 35 3
CELL_TYPES 64
8
8
8
8
8
8
8
8
8
8
8
8
8
8
8
8
8
8
8
8
8
8
8
8
8
8
8
8
8
8
8
8
8
8
8
8
8
8
8
8
8
8
8
8
8
8
8
8
8
8
8
8
8
8
8
8
8
8
8
8
8
8
8
8
CELL_DATA 64
VECTORS vector_value float
-0.132655 -0.482179 0
-0.138213 -0.811815 0
-0.176847 -0.831759 0
0.1295 -0.615332 0
-0.0460391 -0.854019 0
0.0921343 -0.752607 0
0.0180022 -0.788504 0
-0.0573019 -0.485929 0
0.198029 -1.20534 0
0.141583 -0.590384 0
0.0976459 -1.04142 0
0.0229367 -1.04314 0
-0.0390179 -0.675188 0
0.104848 -0.87013 0
0.0963997 -0.841067 0
0.248832 -1.42808 0
0.114137 -1.34115 0
0.101296 -0.908082 0
0.0779377 -1.21991 0
-0.0513879 -1.02509 0
-0.1024 -0.436729 0
-0.0354554 -0.185715 0
0.290534 -0.830069 0
-0.195848 -1.50394 0
-0.202647 -0.511038 0
0.147231 -0.802903 0
-0.0936154 -0.782108 0
0.943226 -0.636662 0
-0.219562 -0.735665 0
0.124373 -0.475613 0
-0.0861916 -0.279994 0
-0.0480818 -0.251767 0
-0.0162696 -0.736186 0
0.137889 -0.399872 0
0.0237745 -0.360762 0
0.215629 -1.30199 0
0.0249955 -0.646487 0
-0.030505 -0.442353 0
0.0785833 -0.539716 0
-0.420489 -2.34299 0
0.0419683 -0.60921 0
-0.0790035 -0.553718 0
-0.367674 -2.21961 0
-0.0709947 -1.43598 0
-0.0712673 -2.26717 0
0.104498 -1.47446 0
-0.0449138 -1.9591 0
-0.262582 -1.3935 0
-0.113849 -2.29646 0
0.300772 -3.1714 0
0.231606 -1.34469 0
0.000191289 -0.262111 0
1.07816 -1.15486 0
-0.409046 -0.798449 0
0.283033 -0.932162 0
0.0631146 -0.336592 0
-0.382873 -2.61325 0
0.0813228 -3.10226 0
-0.194677 -0.847996 0
0.0658225 -0.584378 0
0.113677 -0.574201 0
-0.360108 -0.410654 0
-0.0775869 -0.780007 0
-0.929055 -0.864094 0
