# vtk DataFile Version 2.0
Unstructured Grid by M++
ASCII
DATASET UNSTRUCTURED_GRID
POINTS 81 float
  1.000000   0.625000 0
  0.750000   0.375000 0
  1.000000   0.000000 0
  0.875000   0.875000 0
  0.750000   0.125000 0
  1.000000   1.000000 0
  0.875000   0.250000 0
  0.625000   0.875000 0
  1.000000   0.750000 0
  0.875000   0.000000 0
  1.000000   0.250000 0
  0.625000   0.375000 0
  0.875000   0.500000 0
  0.625000   0.625000 0
  1.000000   0.500000 0
  0.750000   0.500000 0
  0.750000   1.000000 0
  1.000000   0.125000 0
  0.625000   0.250000 0
  0.750000   0.750000 0
  0.625000   0.000000 0
  0.125000   0.375000 0
  0.000000   0.500000 0
  0.125000   0.625000 0
  0.625000   1.000000 0
  1.000000   0.875000 0
  0.875000   0.125000 0
  0.500000   0.250000 0
  0.625000   0.500000 0
  0.250000   0.625000 0
  0.000000   0.625000 0
  0.375000   0.500000 0
  0.375000   0.000000 0
  0.000000   0.125000 0
  0.125000   0.875000 0
  0.875000   1.000000 0
  0.750000   0.250000 0
  0.375000   0.375000 0
  0.250000   0.375000 0
  0.625000   0.750000 0
  0.125000   0.125000 0
  0.500000   0.000000 0
  0.250000   0.875000 0
  0.125000   0.500000 0
  0.500000   0.375000 0
  0.125000   0.000000 0
  0.250000   0.750000 0
  0.250000   0.500000 0
  0.000000   0.875000 0
  0.875000   0.625000 0
  0.500000   0.750000 0
  0.750000   0.625000 0
  0.250000   0.000000 0
  0.375000   0.750000 0
  0.750000   0.875000 0
  0.625000   0.125000 0
  0.250000   0.250000 0
  0.375000   1.000000 0
  0.375000   0.250000 0
  0.000000   0.375000 0
  0.500000   1.000000 0
  0.875000   0.750000 0
  0.750000   0.000000 0
  0.375000   0.125000 0
  0.500000   0.875000 0
  0.000000   0.000000 0
  0.125000   0.750000 0
  0.500000   0.625000 0
  0.125000   0.250000 0
  0.500000   0.125000 0
  0.250000   1.000000 0
  0.250000   0.125000 0
  0.000000   1.000000 0
  0.375000   0.875000 0
  0.000000   0.750000 0
  0.375000   0.625000 0
  0.000000   0.250000 0
  0.125000   1.000000 0
  1.000000   0.375000 0
  0.500000   0.500000 0
  0.875000   0.375000 0
CELLS 64 320
4 56 71 58 63
4 27 58 69 63
4 41 69 32 63
4 76 33 68 40
4 27 44 58 37
4 79 31 44 37
4 56 38 68 21
4 56 58 38 37
4 52 32 71 63
4 47 38 31 37
4 76 68 59 21
4 22 59 43 21
4 65 45 33 40
4 47 43 38 21
4 52 71 45 40
4 56 68 71 40
4 74 30 66 23
4 46 66 29 23
4 22 43 30 23
4 72 48 77 34
4 46 53 42 73
4 50 64 53 73
4 70 42 57 73
4 74 66 48 34
4 46 42 66 34
4 47 29 43 23
4 70 77 42 34
4 60 57 64 73
4 79 67 31 75
4 47 31 29 75
4 50 53 67 75
4 46 29 53 75
4 10 78 6 80
4 36 6 1 80
4 15 1 12 80
4 36 4 6 26
4 14 12 78 80
4 2 17 9 26
4 36 18 4 55
4 15 28 1 11
4 62 4 20 55
4 10 6 17 26
4 27 18 44 11
4 62 9 4 26
4 27 69 18 55
4 36 1 18 11
4 41 20 69 55
4 79 44 28 11
4 16 24 54 7
4 19 54 39 7
4 50 39 64 7
4 8 25 61 3
4 60 64 24 7
4 79 28 67 13
4 19 51 61 49
4 8 61 0 49
4 15 51 28 13
4 19 39 51 13
4 50 67 39 13
4 19 61 54 3
4 14 0 12 49
4 5 35 25 3
4 15 12 51 49
4 16 54 35 3
CELL_TYPES 64
8
8
8
8
8
8
8
8
8
8
8
8
8
8
8
8
8
8
8
8
8
8
8
8
8
8
8
8
8
8
8
8
8
8
8
8
8
8
8
8
8
8
8
8
8
8
8
8
8
8
8
8
8
8
8
8
8
8
8
8
8
8
8
8
CELL_DATA 64
VECTORS vector_value float
0.225638 -0.802521 0
0.329748 -0.667676 0
0.00876089 -0.358489 0
0.0425822 -0.175606 0
0.154323 -0.650758 0
0.184308 -0.211176 0
0.863773 -2.57161 0
0.735527 -0.793332 0
-0.00117998 -0.949366 0
0.0427411 -0.190968 0
0.18869 -0.352672 0
0.356161 -1.17738 0
-0.0304197 -0.239582 0
0.30832 -2.64227 0
8.85316e-05 -2.22574 0
0.131247 -2.39785 0
0.0123751 -2.25025 0
0.017848 -1.62358 0
0.455758 -2.12708 0
-0.308109 -1.43605 0
-0.475558 -0.381045 0
-0.359421 -0.395609 0
-0.941366 -0.589601 0
-0.341898 -2.35678 0
-0.639069 -1.22713 0
0.397296 -1.71869 0
-0.93194 -1.37454 0
-0.490493 -0.863459 0
0.0471959 -0.0786305 0
0.136365 -0.41573 0
0.0331093 -0.200739 0
-0.162364 -0.407396 0
-0.0918753 -0.318901 0
-0.283739 -0.522401 0
-0.480048 -0.763872 0
0.072993 -0.327345 0
-0.129872 -0.56809 0
0.0208219 -0.546036 0
-0.100666 -0.88849 0
-0.676441 -1.22151 0
0.0435833 -1.16334 0
0.10863 -0.425202 0
-0.212752 -1.42724 0
0.00530162 -0.151423 0
0.137347 -2.31531 0
-0.460906 -1.36309 0
0.0524682 -2.36603 0
-0.371763 -1.22473 0
0.625318 -0.915713 0
-0.0485532 -0.556528 0
-0.155143 -0.199618 0
0.238012 -1.35197 0
0.0974641 -0.286706 0
0.0108104 -0.418131 0
-0.536499 -1.2269 0
-0.17234 -1.48396 0
-0.347833 -1.26004 0
-0.248113 -0.628248 0
-0.00587803 -0.178923 0
0.26937 -1.53132 0
-0.21737 -1.06986 0
0.0204815 -0.955567 0
-0.339473 -0.911841 0
0.414725 -1.57836 0
