# vtk DataFile Version 2.0
Unstructured Grid by M++
ASCII
DATASET UNSTRUCTURED_GRID
POINTS 81 float
  1.000000   0.625000 0
  0.750000   0.375000 0
  1.000000   0.000000 0
  0.875000   0.875000 0
  0.750000   0.125000 0
  1.000000   1.000000 0
  0.875000   0.250000 0
  0.625000   0.875000 0
  1.000000   0.750000 0
  0.875000   0.000000 0
  1.000000   0.250000 0
  0.625000   0.375000 0
  0.875000   0.500000 0
  0.625000   0.625000 0
  1.000000   0.500000 0
  0.750000   0.500000 0
  0.750000   1.000000 0
  1.000000   0.125000 0
  0.625000   0.250000 0
  0.750000   0.750000 0
  0.625000   0.000000 0
  0.125000   0.375000 0
  0.000000   0.500000 0
  0.125000   0.625000 0
  0.625000   1.000000 0
  1.000000   0.875000 0
  0.875000   0.125000 0
  0.500000   0.250000 0
  0.625000   0.500000 0
  0.250000   0.625000 0
  0.000000   0.625000 0
  0.375000   0.500000 0
  0.375000   0.000000 0
  0.000000   0.125000 0
  0.125000   0.875000 0
  0.875000   1.000000 0
  0.750000   0.250000 0
  0.375000   0.375000 0
  0.250000   0.375000 0
  0.625000   0.750000 0
  0.125000   0.125000 0
  0.500000   0.000000 0
  0.250000   0.875000 0
  0.125000   0.500000 0
  0.500000   0.375000 0
  0.125000   0.000000 0
  0.250000   0.750000 0
  0.250000   0.500000 0
  0.000000   0.875000 0
  0.875000   0.625000 0
  0.500000   0.750000 0
  0.750000   0.625000 0
  0.250000   0.000000 0
  0.375000   0.750000 0
  0.750000   0.875000 0
  0.625000   0.125000 0
  0.250000   0.250000 0
  0.375000   1.000000 0
  0.375000   0.250000 0
  0.000000   0.375000 0
  0.500000   1.000000 0
  0.875000   0.750000 0
  0.750000   0.000000 0
  0.375000   0.125000 0
  0.500000   0.875000 0
  0.000000   0.000000 0
  0.125000   0.750000 0
  0.500000   0.625000 0
  0.125000   0.250000 0
  0.500000   0.125000 0
  0.250000   1.000000 0
  0.250000   0.125000 0
  0.000000   1.000000 0
  0.375000   0.875000 0
  0.000000   0.750000 0
  0.375000   0.625000 0
  0.000000   0.250000 0
  0.125000   1.000000 0
  1.000000   0.375000 0
  0.500000   0.500000 0
  0.875000   0.375000 0
CELLS 64 320
4 56 71 58 63
4 27 58 69 63
4 41 69 32 63
4 76 33 68 40
4 27 44 58 37
4 79 31 44 37
4 56 38 68 21
4 56 58 38 37
4 52 32 71 63
4 47 38 31 37
4 76 68 59 21
4 22 59 43 21
4 65 45 33 40
4 47 43 38 21
4 52 71 45 40
4 56 68 71 40
4 74 30 66 23
4 46 66 29 23
4 22 43 30 23
4 72 48 77 34
4 46 53 42 73
4 50 64 53 73
4 70 42 57 73
4 74 66 48 34
4 46 42 66 34
4 47 29 43 23
4 70 77 42 34
4 60 57 64 73
4 79 67 31 75
4 47 31 29 75
4 50 53 67 75
4 46 29 53 75
4 10 78 6 80
4 36 6 1 80
4 15 1 12 80
4 36 4 6 26
4 14 12 78 80
4 2 17 9 26
4 36 18 4 55
4 15 28 1 11
4 62 4 20 55
4 10 6 17 26
4 27 18 44 11
4 62 9 4 26
4 27 69 18 55
4 36 1 18 11
4 41 20 69 55
4 79 44 28 11
4 16 24 54 7
4 19 54 39 7
4 50 39 64 7
4 8 25 61 3
4 60 64 24 7
4 79 28 67 13
4 19 51 61 49
4 8 61 0 49
4 15 51 28 13
4 19 39 51 13
4 50 67 39 13
4 19 61 54 3
4 14 0 12 49
4 5 35 25 3
4 15 12 51 49
4 16 54 35 3
CELL_TYPES 64
8
8
8
8
8
8
8
8
8
8
8
8
8
8
8
8
8
8
8
8
8
8
8
8
8
8
8
8
8
8
8
8
8
8
8
8
8
8
8
8
8
8
8
8
8
8
8
8
8
8
8
8
8
8
8
8
8
8
8
8
8
8
8
8
CELL_DATA 64
VECTORS vector_value float
-0.0149691 -1.98064 0
0.0718993 -0.330729 0
0.208886 -0.683436 0
-0.428719 -1.74539 0
-0.386717 -0.679181 0
0.0105659 -1.07403 0
-0.527302 -1.16962 0
-0.528713 -2.09144 0
0.0155234 -1.22276 0
0.191853 -1.33621 0
-0.191648 -0.794998 0
0.0147992 -0.681099 0
-0.0354024 -1.98513 0
0.151673 -1.4034 0
-0.172717 -0.664086 0
-0.297952 -0.556211 0
-0.0333758 -1.38858 0
-0.159242 -1.11304 0
0.339811 -1.27783 0
-0.194672 -1.3627 0
-0.424515 -1.0944 0
-0.202876 -0.375644 0
0.145261 -1.15288 0
0.0307424 -1.30854 0
-0.223908 -0.730423 0
0.446666 -1.16152 0
-0.0631733 -0.352603 0
0.221149 -0.865835 0
0.0119513 -0.304159 0
0.241325 -1.5152 0
-0.613735 -0.803085 0
-0.383771 -0.894553 0
0.0178509 -0.672849 0
-0.0759558 -1.21818 0
-0.168189 -1.30868 0
-0.340221 -0.931466 0
-0.0529583 -0.637808 0
-0.0274151 -0.366841 0
-0.234137 -1.35289 0
0.023767 -0.828181 0
-0.206319 -1.56949 0
-0.128809 -0.61558 0
0.0287904 -0.441389 0
-0.137613 -0.759269 0
0.0349193 -0.487096 0
-0.0479155 -0.932341 0
-0.0745154 -0.74899 0
-0.184135 -0.730598 0
-0.397927 -1.75867 0
-0.186863 -1.30803 0
-0.565311 -1.88375 0
0.219062 -0.819004 0
0.258045 -1.01536 0
-0.0353824 -0.884395 0
0.0617887 -0.106574 0
0.141578 -1.30515 0
0.138336 -1.09942 0
0.287527 -1.10072 0
0.0952654 -1.2883 0
0.334934 -0.480207 0
-0.296603 -1.21081 0
-0.193855 -0.6045 0
0.0561732 -0.546668 0
-0.507377 -0.88746 0
