# vtk DataFile Version 2.0
Unstructured Grid by M++
ASCII
DATASET UNSTRUCTURED_GRID
POINTS 81 float
  1.000000   0.625000 0
  0.750000   0.375000 0
  1.000000   0.000000 0
  0.875000   0.875000 0
  0.750000   0.125000 0
  1.000000   1.000000 0
  0.875000   0.250000 0
  0.625000   0.875000 0
  1.000000   0.750000 0
  0.875000   0.000000 0
  1.000000   0.250000 0
  0.625000   0.375000 0
  0.875000   0.500000 0
  0.625000   0.625000 0
  1.000000   0.500000 0
  0.750000   0.500000 0
  0.750000   1.000000 0
  1.000000   0.125000 0
  0.625000   0.250000 0
  0.750000   0.750000 0
  0.625000   0.000000 0
  0.125000   0.375000 0
  0.000000   0.500000 0
  0.125000   0.625000 0
  0.625000   1.000000 0
  1.000000   0.875000 0
  0.875000   0.125000 0
  0.500000   0.250000 0
  0.625000   0.500000 0
  0.250000   0.625000 0
  0.000000   0.625000 0
  0.375000   0.500000 0
  0.375000   0.000000 0
  0.000000   0.125000 0
  0.125000   0.875000 0
  0.875000   1.000000 0
  0.750000   0.250000 0
  0.375000   0.375000 0
  0.250000   0.375000 0
  0.625000   0.750000 0
  0.125000   0.125000 0
  0.500000   0.000000 0
  0.250000   0.875000 0
  0.125000   0.500000 0
  0.500000   0.375000 0
  0.125000   0.000000 0
  0.250000   0.750000 0
  0.250000   0.500000 0
  0.000000   0.875000 0
  0.875000   0.625000 0
  0.500000   0.750000 0
  0.750000   0.625000 0
  0.250000   0.000000 0
  0.375000   0.750000 0
  0.750000   0.875000 0
  0.625000   0.125000 0
  0.250000   0.250000 0
  0.375000   1.000000 0
  0.375000   0.250000 0
  0.000000   0.375000 0
  0.500000   1.000000 0
  0.875000   0.750000 0
  0.750000   0.000000 0
  0.375000   0.125000 0
  0.500000   0.875000 0
  0.000000   0.000000 0
  0.125000   0.750000 0
  0.500000   0.625000 0
  0.125000   0.250000 0
  0.500000   0.125000 0
  0.250000   1.000000 0
  0.250000   0.125000 0
  0.000000   1.000000 0
  0.375000   0.875000 0
  0.000000   0.750000 0
  0.375000   0.625000 0
  0.000000   0.250000 0
  0.125000   1.000000 0
  1.000000   0.375000 0
  0.500000   0.500000 0
  0.875000   0.375000 0
CELLS 64 320
4 56 71 58 63
4 27 58 69 63
4 41 69 32 63
4 76 33 68 40
4 27 44 58 37
4 79 31 44 37
4 56 38 68 21
4 56 58 38 37
4 52 32 71 63
4 47 38 31 37
4 76 68 59 21
4 22 59 43 21
4 65 45 33 40
4 47 43 38 21
4 52 71 45 40
4 56 68 71 40
4 74 30 66 23
4 46 66 29 23
4 22 43 30 23
4 72 48 77 34
4 46 53 42 73
4 50 64 53 73
4 70 42 57 73
4 74 66 48 34
4 46 42 66 34
4 47 29 43 23
4 70 77 42 34
4 60 57 64 73
4 79 67 31 75
4 47 31 29 75
4 50 53 67 75
4 46 29 53 75
4 10 78 6 80
4 36 6 1 80
4 15 1 12 80
4 36 4 6 26
4 14 12 78 80
4 2 17 9 26
4 36 18 4 55
4 15 28 1 11
4 62 4 20 55
4 10 6 17 26
4 27 18 44 11
4 62 9 4 26
4 27 69 18 55
4 36 1 18 11
4 41 20 69 55
4 79 44 28 11
4 16 24 54 7
4 19 54 39 7
4 50 39 64 7
4 8 25 61 3
4 60 64 24 7
4 79 28 67 13
4 19 51 61 49
4 8 61 0 49
4 15 51 28 13
4 19 39 51 13
4 50 67 39 13
4 19 61 54 3
4 14 0 12 49
4 5 35 25 3
4 15 12 51 49
4 16 54 35 3
CELL_TYPES 64
8
8
8
8
8
8
8
8
8
8
8
8
8
8
8
8
8
8
8
8
8
8
8
8
8
8
8
8
8
8
8
8
8
8
8
8
8
8
8
8
8
8
8
8
8
8
8
8
8
8
8
8
8
8
8
8
8
8
8
8
8
8
8
8
CELL_DATA 64
VECTORS vector_value float
0.141341 -1.32779 0
0.0527157 -0.215913 0
0.237536 -0.525883 0
0.136896 -3.03564 0
-0.172278 -0.703482 0
-0.145539 -1.18725 0
0.153051 -0.158461 0
-0.207151 -1.20481 0
0.223489 -1.31942 0
-0.0235602 -0.42089 0
0.290664 -3.90001 0
0.0275172 -3.9724 0
-0.218815 -3.48852 0
0.0736496 -0.377354 0
-0.0258627 -0.299017 0
0.307279 -1.13389 0
-0.271593 -0.624169 0
-1.61837 -3.83002 0
-1.60288 -3.62072 0
0.357266 -0.589902 0
-1.22543 -1.79169 0
-0.29613 -0.498064 0
-0.791206 -2.38211 0
0.000218048 -0.198574 0
-1.12987 -2.44026 0
-0.481241 -0.736058 0
0.579015 -0.755544 0
-1.09032 -0.835679 0
-0.307263 -0.984224 0
-0.0147599 -0.327114 0
-0.109027 -0.610043 0
-0.0127164 -0.155676 0
-0.325187 -0.333296 0
-0.467046 -1.28528 0
0.00970807 -0.78485 0
-0.375898 -1.1812 0
-0.076862 -0.824175 0
0.0371494 -0.15181 0
-0.236069 -0.517578 0
0.0441429 -0.0882557 0
-0.433581 -1.24843 0
0.00952438 -0.0671115 0
0.0682085 -0.24117 0
-0.0911716 -0.280876 0
0.0920875 -0.520867 0
-0.0108931 -0.173486 0
-0.0182125 -0.68605 0
-0.00513934 -0.344821 0
-0.262911 -0.389908 0
-0.635775 -0.425207 0
-0.50125 -0.923764 0
0.293631 -0.745994 0
-0.711848 -0.931459 0
-0.204804 -0.69403 0
-0.131399 -0.251082 0
-0.108344 -1.22685 0
0.0482764 -0.119844 0
-0.0285547 -0.229302 0
-0.197941 -1.07286 0
0.0641178 -0.976442 0
-0.0140235 -0.889048 0
-0.233792 -0.599736 0
-0.0391118 -0.628964 0
-0.192146 -1.51566 0
