# vtk DataFile Version 2.0
Unstructured Grid by M++
ASCII
DATASET UNSTRUCTURED_GRID
POINTS 81 float
  1.000000   0.625000 0
  0.750000   0.375000 0
  1.000000   0.000000 0
  0.875000   0.875000 0
  0.750000   0.125000 0
  1.000000   1.000000 0
  0.875000   0.250000 0
  0.625000   0.875000 0
  1.000000   0.750000 0
  0.875000   0.000000 0
  1.000000   0.250000 0
  0.625000   0.375000 0
  0.875000   0.500000 0
  0.625000   0.625000 0
  1.000000   0.500000 0
  0.750000   0.500000 0
  0.750000   1.000000 0
  1.000000   0.125000 0
  0.625000   0.250000 0
  0.750000   0.750000 0
  0.625000   0.000000 0
  0.125000   0.375000 0
  0.000000   0.500000 0
  0.125000   0.625000 0
  0.625000   1.000000 0
  1.000000   0.875000 0
  0.875000   0.125000 0
  0.500000   0.250000 0
  0.625000   0.500000 0
  0.250000   0.625000 0
  0.000000   0.625000 0
  0.375000   0.500000 0
  0.375000   0.000000 0
  0.000000   0.125000 0
  0.125000   0.875000 0
  0.875000   1.000000 0
  0.750000   0.250000 0
  0.375000   0.375000 0
  0.250000   0.375000 0
  0.625000   0.750000 0
  0.125000   0.125000 0
  0.500000   0.000000 0
  0.250000   0.875000 0
  0.125000   0.500000 0
  0.500000   0.375000 0
  0.125000   0.000000 0
  0.250000   0.750000 0
  0.250000   0.500000 0
  0.000000   0.875000 0
  0.875000   0.625000 0
  0.500000   0.750000 0
  0.750000   0.625000 0
  0.250000   0.000000 0
  0.375000   0.750000 0
  0.750000   0.875000 0
  0.625000   0.125000 0
  0.250000   0.250000 0
  0.375000   1.000000 0
  0.375000   0.250000 0
  0.000000   0.375000 0
  0.500000   1.000000 0
  0.875000   0.750000 0
  0.750000   0.000000 0
  0.375000   0.125000 0
  0.500000   0.875000 0
  0.000000   0.000000 0
  0.125000   0.750000 0
  0.500000   0.625000 0
  0.125000   0.250000 0
  0.500000   0.125000 0
  0.250000   1.000000 0
  0.250000   0.125000 0
  0.000000   1.000000 0
  0.375000   0.875000 0
  0.000000   0.750000 0
  0.375000   0.625000 0
  0.000000   0.250000 0
  0.125000   1.000000 0
  1.000000   0.375000 0
  0.500000   0.500000 0
  0.875000   0.375000 0
CELLS 64 320
4 56 71 58 63
4 27 58 69 63
4 41 69 32 63
4 76 33 68 40
4 27 44 58 37
4 79 31 44 37
4 56 38 68 21
4 56 58 38 37
4 52 32 71 63
4 47 38 31 37
4 76 68 59 21
4 22 59 43 21
4 65 45 33 40
4 47 43 38 21
4 52 71 45 40
4 56 68 71 40
4 74 30 66 23
4 46 66 29 23
4 22 43 30 23
4 72 48 77 34
4 46 53 42 73
4 50 64 53 73
4 70 42 57 73
4 74 66 48 34
4 46 42 66 34
4 47 29 43 23
4 70 77 42 34
4 60 57 64 73
4 79 67 31 75
4 47 31 29 75
4 50 53 67 75
4 46 29 53 75
4 10 78 6 80
4 36 6 1 80
4 15 1 12 80
4 36 4 6 26
4 14 12 78 80
4 2 17 9 26
4 36 18 4 55
4 15 28 1 11
4 62 4 20 55
4 10 6 17 26
4 27 18 44 11
4 62 9 4 26
4 27 69 18 55
4 36 1 18 11
4 41 20 69 55
4 79 44 28 11
4 16 24 54 7
4 19 54 39 7
4 50 39 64 7
4 8 25 61 3
4 60 64 24 7
4 79 28 67 13
4 19 51 61 49
4 8 61 0 49
4 15 51 28 13
4 19 39 51 13
4 50 67 39 13
4 19 61 54 3
4 14 0 12 49
4 5 35 25 3
4 15 12 51 49
4 16 54 35 3
CELL_TYPES 64
8
8
8
8
8
8
8
8
8
8
8
8
8
8
8
8
8
8
8
8
8
8
8
8
8
8
8
8
8
8
8
8
8
8
8
8
8
8
8
8
8
8
8
8
8
8
8
8
8
8
8
8
8
8
8
8
8
8
8
8
8
8
8
8
CELL_DATA 64
VECTORS vector_value float
0.0592796 -0.273535 0
-0.544558 -0.702668 0
-0.412178 -0.875862 0
0.0497822 -0.196611 0
0.00223777 -0.0680532 0
0.246709 -0.555727 0
0.0184988 -0.185111 0
-0.0016783 -0.18204 0
-0.328547 -0.725791 0
-0.0265463 -0.148781 0
0.00807462 -0.28382 0
-0.0368846 -0.216509 0
0.0530101 -0.0633731 0
-0.0524026 -0.237171 0
0.0289781 -0.346384 0
0.0952015 -0.160514 0
0.375367 -0.720496 0
1.29676 -1.05814 0
-0.0137813 -0.167445 0
-0.167651 -1.23131 0
0.262655 -0.458289 0
0.300079 -0.204248 0
-0.642344 -0.60621 0
0.209232 -1.65919 0
0.586256 -1.24299 0
0.0348155 -0.289275 0
-0.739847 -1.46205 0
-0.170934 -0.957294 0
0.684394 -0.269053 0
0.722389 -0.609907 0
1.75207 -0.308147 0
1.62738 -0.44423 0
0.126514 -2.29635 0
-0.354594 -2.62222 0
-0.213058 -4.20185 0
-0.162985 -0.683963 0
0.144341 -1.77072 0
-0.0401764 -2.77922 0
-1.51858 -2.34743 0
-0.140053 -0.813691 0
-0.127877 -0.644617 0
0.183505 -2.81406 0
0.0867254 -0.646217 0
0.0633675 -0.852945 0
-1.14014 -0.82122 0
-0.488803 -1.71619 0
-0.791416 -1.71181 0
0.0507639 -0.0555514 0
0.103881 -1.10623 0
0.327329 -1.39391 0
0.91646 -1.15507 0
0.292109 -1.07617 0
-0.0666323 -0.601796 0
0.366018 -0.307582 0
0.371723 -0.441555 0
0.249876 -1.80758 0
0.756406 -1.17996 0
2.52086 -2.50444 0
2.079 -0.715405 0
0.458879 -0.810138 0
0.00271198 -2.04352 0
-0.0759661 -0.854603 0
1.6241 -3.13326 0
-0.0711773 -1.18051 0
