# vtk DataFile Version 2.0
Unstructured Grid by M++
ASCII
DATASET UNSTRUCTURED_GRID
POINTS 81 float
  1.000000   0.625000 0
  0.750000   0.375000 0
  1.000000   0.000000 0
  0.875000   0.875000 0
  0.750000   0.125000 0
  1.000000   1.000000 0
  0.875000   0.250000 0
  0.625000   0.875000 0
  1.000000   0.750000 0
  0.875000   0.000000 0
  1.000000   0.250000 0
  0.625000   0.375000 0
  0.875000   0.500000 0
  0.625000   0.625000 0
  1.000000   0.500000 0
  0.750000   0.500000 0
  0.750000   1.000000 0
  1.000000   0.125000 0
  0.625000   0.250000 0
  0.750000   0.750000 0
  0.625000   0.000000 0
  0.125000   0.375000 0
  0.000000   0.500000 0
  0.125000   0.625000 0
  0.625000   1.000000 0
  1.000000   0.875000 0
  0.875000   0.125000 0
  0.500000   0.250000 0
  0.625000   0.500000 0
  0.250000   0.625000 0
  0.000000   0.625000 0
  0.375000   0.500000 0
  0.375000   0.000000 0
  0.000000   0.125000 0
  0.125000   0.875000 0
  0.875000   1.000000 0
  0.750000   0.250000 0
  0.375000   0.375000 0
  0.250000   0.375000 0
  0.625000   0.750000 0
  0.125000   0.125000 0
  0.500000   0.000000 0
  0.250000   0.875000 0
  0.125000   0.500000 0
  0.500000   0.375000 0
  0.125000   0.000000 0
  0.250000   0.750000 0
  0.250000   0.500000 0
  0.000000   0.875000 0
  0.875000   0.625000 0
  0.500000   0.750000 0
  0.750000   0.625000 0
  0.250000   0.000000 0
  0.375000   0.750000 0
  0.750000   0.875000 0
  0.625000   0.125000 0
  0.250000   0.250000 0
  0.375000   1.000000 0
  0.375000   0.250000 0
  0.000000   0.375000 0
  0.500000   1.000000 0
  0.875000   0.750000 0
  0.750000   0.000000 0
  0.375000   0.125000 0
  0.500000   0.875000 0
  0.000000   0.000000 0
  0.125000   0.750000 0
  0.500000   0.625000 0
  0.125000   0.250000 0
  0.500000   0.125000 0
  0.250000   1.000000 0
  0.250000   0.125000 0
  0.000000   1.000000 0
  0.375000   0.875000 0
  0.000000   0.750000 0
  0.375000   0.625000 0
  0.000000   0.250000 0
  0.125000   1.000000 0
  1.000000   0.375000 0
  0.500000   0.500000 0
  0.875000   0.375000 0
CELLS 64 320
4 56 71 58 63
4 27 58 69 63
4 41 69 32 63
4 76 33 68 40
4 27 44 58 37
4 79 31 44 37
4 56 38 68 21
4 56 58 38 37
4 52 32 71 63
4 47 38 31 37
4 76 68 59 21
4 22 59 43 21
4 65 45 33 40
4 47 43 38 21
4 52 71 45 40
4 56 68 71 40
4 74 30 66 23
4 46 66 29 23
4 22 43 30 23
4 72 48 77 34
4 46 53 42 73
4 50 64 53 73
4 70 42 57 73
4 74 66 48 34
4 46 42 66 34
4 47 29 43 23
4 70 77 42 34
4 60 57 64 73
4 79 67 31 75
4 47 31 29 75
4 50 53 67 75
4 46 29 53 75
4 10 78 6 80
4 36 6 1 80
4 15 1 12 80
4 36 4 6 26
4 14 12 78 80
4 2 17 9 26
4 36 18 4 55
4 15 28 1 11
4 62 4 20 55
4 10 6 17 26
4 27 18 44 11
4 62 9 4 26
4 27 69 18 55
4 36 1 18 11
4 41 20 69 55
4 79 44 28 11
4 16 24 54 7
4 19 54 39 7
4 50 39 64 7
4 8 25 61 3
4 60 64 24 7
4 79 28 67 13
4 19 51 61 49
4 8 61 0 49
4 15 51 28 13
4 19 39 51 13
4 50 67 39 13
4 19 61 54 3
4 14 0 12 49
4 5 35 25 3
4 15 12 51 49
4 16 54 35 3
CELL_TYPES 64
8
8
8
8
8
8
8
8
8
8
8
8
8
8
8
8
8
8
8
8
8
8
8
8
8
8
8
8
8
8
8
8
8
8
8
8
8
8
8
8
8
8
8
8
8
8
8
8
8
8
8
8
8
8
8
8
8
8
8
8
8
8
8
8
CELL_DATA 64
VECTORS vector_value float
-0.186943 -0.845671 0
-0.193121 -0.633574 0
-0.0582594 -0.451236 0
-0.105558 -1.68991 0
-0.157968 -0.683731 0
0.143777 -0.573232 0
-0.125216 -0.783895 0
-0.037714 -0.469345 0
-0.160323 -0.815833 0
0.0573628 -0.702521 0
-0.0984571 -1.35095 0
-0.325481 -1.1463 0
0.0151341 -1.69106 0
-0.346196 -0.899642 0
-0.11965 -0.627898 0
-0.071505 -0.361454 0
0.01005 -0.47997 0
0.0576061 -1.47256 0
-0.072378 -0.596943 0
0.190649 -0.601473 0
0.0123162 -0.787916 0
0.436038 -0.755594 0
0.0895627 -1.21108 0
0.0430341 -0.712067 0
0.0562419 -1.27995 0
-0.138696 -1.33449 0
0.162466 -1.35152 0
0.0162132 -1.17619 0
-0.0257314 -0.333439 0
0.0034141 -1.0101 0
-0.0310649 -0.319029 0
-0.0312694 -0.930473 0
-0.0799488 -1.47763 0
-0.0205238 -0.600001 0
-0.0562147 -0.683926 0
0.234725 -1.17206 0
0.0901819 -1.50745 0
0.177831 -1.68247 0
0.475514 -1.57093 0
-0.443243 -0.966936 0
0.0748849 -1.62232 0
0.0133312 -1.27724 0
0.351241 -1.59699 0
0.150885 -0.932846 0
0.0993718 -0.449171 0
0.312166 -1.03746 0
0.0236038 -0.176339 0
-0.374484 -1.51999 0
0.162242 -0.706635 0
0.204787 -1.15954 0
0.926705 -1.25916 0
-0.077112 -1.75212 0
-0.177633 -0.664208 0
-0.10368 -0.850828 0
0.000735625 -1.3345 0
-0.220625 -1.19106 0
-0.427617 -0.901537 0
0.580224 -1.38962 0
0.0846137 -0.882795 0
-0.0168766 -0.293653 0
0.157731 -0.966309 0
0.309486 -1.40879 0
-0.0268905 -2.00635 0
0.408203 -0.880105 0
