# vtk DataFile Version 2.0
Unstructured Grid by M++
ASCII
DATASET UNSTRUCTURED_GRID
POINTS 81 float
  1.000000   0.625000 0
  0.750000   0.375000 0
  1.000000   0.000000 0
  0.875000   0.875000 0
  0.750000   0.125000 0
  1.000000   1.000000 0
  0.875000   0.250000 0
  0.625000   0.875000 0
  1.000000   0.750000 0
  0.875000   0.000000 0
  1.000000   0.250000 0
  0.625000   0.375000 0
  0.875000   0.500000 0
  0.625000   0.625000 0
  1.000000   0.500000 0
  0.750000   0.500000 0
  0.750000   1.000000 0
  1.000000   0.125000 0
  0.625000   0.250000 0
  0.750000   0.750000 0
  0.625000   0.000000 0
  0.125000   0.375000 0
  0.000000   0.500000 0
  0.125000   0.625000 0
  0.625000   1.000000 0
  1.000000   0.875000 0
  0.875000   0.125000 0
  0.500000   0.250000 0
  0.625000   0.500000 0
  0.250000   0.625000 0
  0.000000   0.625000 0
  0.375000   0.500000 0
  0.375000   0.000000 0
  0.000000   0.125000 0
  0.125000   0.875000 0
  0.875000   1.000000 0
  0.750000   0.250000 0
  0.375000   0.375000 0
  0.250000   0.375000 0
  0.625000   0.750000 0
  0.125000   0.125000 0
  0.500000   0.000000 0
  0.250000   0.875000 0
  0.125000   0.500000 0
  0.500000   0.375000 0
  0.125000   0.000000 0
  0.250000   0.750000 0
  0.250000   0.500000 0
  0.000000   0.875000 0
  0.875000   0.625000 0
  0.500000   0.750000 0
  0.750000   0.625000 0
  0.250000   0.000000 0
  0.375000   0.750000 0
  0.750000   0.875000 0
  0.625000   0.125000 0
  0.250000   0.250000 0
  0.375000   1.000000 0
  0.375000   0.250000 0
  0.000000   0.375000 0
  0.500000   1.000000 0
  0.875000   0.750000 0
  0.750000   0.000000 0
  0.375000   0.125000 0
  0.500000   0.875000 0
  0.000000   0.000000 0
  0.125000   0.750000 0
  0.500000   0.625000 0
  0.125000   0.250000 0
  0.500000   0.125000 0
  0.250000   1.000000 0
  0.250000   0.125000 0
  0.000000   1.000000 0
  0.375000   0.875000 0
  0.000000   0.750000 0
  0.375000   0.625000 0
  0.000000   0.250000 0
  0.125000   1.000000 0
  1.000000   0.375000 0
  0.500000   0.500000 0
  0.875000   0.375000 0
CELLS 64 320
4 56 71 58 63
4 27 58 69 63
4 41 69 32 63
4 76 33 68 40
4 27 44 58 37
4 79 31 44 37
4 56 38 68 21
4 56 58 38 37
4 52 32 71 63
4 47 38 31 37
4 76 68 59 21
4 22 59 43 21
4 65 45 33 40
4 47 43 38 21
4 52 71 45 40
4 56 68 71 40
4 74 30 66 23
4 46 66 29 23
4 22 43 30 23
4 72 48 77 34
4 46 53 42 73
4 50 64 53 73
4 70 42 57 73
4 74 66 48 34
4 46 42 66 34
4 47 29 43 23
4 70 77 42 34
4 60 57 64 73
4 79 67 31 75
4 47 31 29 75
4 50 53 67 75
4 46 29 53 75
4 10 78 6 80
4 36 6 1 80
4 15 1 12 80
4 36 4 6 26
4 14 12 78 80
4 2 17 9 26
4 36 18 4 55
4 15 28 1 11
4 62 4 20 55
4 10 6 17 26
4 27 18 44 11
4 62 9 4 26
4 27 69 18 55
4 36 1 18 11
4 41 20 69 55
4 79 44 28 11
4 16 24 54 7
4 19 54 39 7
4 50 39 64 7
4 8 25 61 3
4 60 64 24 7
4 79 28 67 13
4 19 51 61 49
4 8 61 0 49
4 15 51 28 13
4 19 39 51 13
4 50 67 39 13
4 19 61 54 3
4 14 0 12 49
4 5 35 25 3
4 15 12 51 49
4 16 54 35 3
CELL_TYPES 64
8
8
8
8
8
8
8
8
8
8
8
8
8
8
8
8
8
8
8
8
8
8
8
8
8
8
8
8
8
8
8
8
8
8
8
8
8
8
8
8
8
8
8
8
8
8
8
8
8
8
8
8
8
8
8
8
8
8
8
8
8
8
8
8
CELL_DATA 64
VECTORS vector_value float
0.472785 -0.740443 0
0.170319 -0.584643 0
0.363903 -1.14417 0
-0.110291 -0.353339 0
0.255617 -0.393714 0
0.120058 -0.307297 0
0.284321 -2.11414 0
0.415437 -0.448716 0
0.694961 -1.15581 0
0.0862339 -0.513101 0
-0.00975608 -0.171725 0
0.161292 -0.479656 0
-0.0143512 -0.472762 0
0.0481817 -1.98718 0
0.0245877 -0.118943 0
0.549819 -1.28969 0
-0.00132349 -0.287147 0
-0.0751169 -0.713162 0
-0.113629 -0.484263 0
0.346342 -0.416555 0
0.218491 -1.15244 0
-0.336847 -1.05422 0
0.597386 -0.773779 0
0.00294393 -0.31519 0
0.0796538 -0.713696 0
-0.711784 -1.39277 0
0.772202 -1.45971 0
0.705175 -0.637239 0
0.0761054 -0.436371 0
-0.492131 -1.18275 0
-0.113286 -0.371039 0
-0.546947 -2.00455 0
0.351273 -2.70094 0
0.28969 -1.57382 0
0.299546 -2.29053 0
-0.072328 -1.95882 0
0.159787 -1.8994 0
-0.378622 -1.28235 0
0.0989921 -0.200747 0
0.0788792 -0.247601 0
0.0359894 -0.433729 0
-0.437744 -2.57338 0
0.163465 -0.253906 0
-0.716757 -3.18095 0
0.091908 -0.298938 0
0.194528 -0.343028 0
0.110301 -0.211278 0
0.147965 -0.27524 0
-0.858293 -0.836003 0
0.819406 -0.995027 0
0.531195 -2.51057 0
0.321209 -1.00039 0
-0.0563887 -2.45135 0
0.157542 -0.201268 0
0.762258 -1.28935 0
0.0387261 -1.14151 0
0.651433 -0.552577 0
1.16523 -1.04639 0
0.375066 -1.14685 0
0.255052 -0.25847 0
0.28624 -1.34526 0
-0.2628 -0.54803 0
0.936442 -2.40475 0
-0.500537 -0.877333 0
