# vtk DataFile Version 2.0
Unstructured Grid by M++
ASCII
DATASET UNSTRUCTURED_GRID
POINTS 81 float
  1.000000   0.625000 0
  0.750000   0.375000 0
  1.000000   0.000000 0
  0.875000   0.875000 0
  0.750000   0.125000 0
  1.000000   1.000000 0
  0.875000   0.250000 0
  0.625000   0.875000 0
  1.000000   0.750000 0
  0.875000   0.000000 0
  1.000000   0.250000 0
  0.625000   0.375000 0
  0.875000   0.500000 0
  0.625000   0.625000 0
  1.000000   0.500000 0
  0.750000   0.500000 0
  0.750000   1.000000 0
  1.000000   0.125000 0
  0.625000   0.250000 0
  0.750000   0.750000 0
  0.625000   0.000000 0
  0.125000   0.375000 0
  0.000000   0.500000 0
  0.125000   0.625000 0
  0.625000   1.000000 0
  1.000000   0.875000 0
  0.875000   0.125000 0
  0.500000   0.250000 0
  0.625000   0.500000 0
  0.250000   0.625000 0
  0.000000   0.625000 0
  0.375000   0.500000 0
  0.375000   0.000000 0
  0.000000   0.125000 0
  0.125000   0.875000 0
  0.875000   1.000000 0
  0.750000   0.250000 0
  0.375000   0.375000 0
  0.250000   0.375000 0
  0.625000   0.750000 0
  0.125000   0.125000 0
  0.500000   0.000000 0
  0.250000   0.875000 0
  0.125000   0.500000 0
  0.500000   0.375000 0
  0.125000   0.000000 0
  0.250000   0.750000 0
  0.250000   0.500000 0
  0.000000   0.875000 0
  0.875000   0.625000 0
  0.500000   0.750000 0
  0.750000   0.625000 0
  0.250000   0.000000 0
  0.375000   0.750000 0
  0.750000   0.875000 0
  0.625000   0.125000 0
  0.250000   0.250000 0
  0.375000   1.000000 0
  0.375000   0.250000 0
  0.000000   0.375000 0
  0.500000   1.000000 0
  0.875000   0.750000 0
  0.750000   0.000000 0
  0.375000   0.125000 0
  0.500000   0.875000 0
  0.000000   0.000000 0
  0.125000   0.750000 0
  0.500000   0.625000 0
  0.125000   0.250000 0
  0.500000   0.125000 0
  0.250000   1.000000 0
  0.250000   0.125000 0
  0.000000   1.000000 0
  0.375000   0.875000 0
  0.000000   0.750000 0
  0.375000   0.625000 0
  0.000000   0.250000 0
  0.125000   1.000000 0
  1.000000   0.375000 0
  0.500000   0.500000 0
  0.875000   0.375000 0
CELLS 64 320
4 56 71 58 63
4 27 58 69 63
4 41 69 32 63
4 76 33 68 40
4 27 44 58 37
4 79 31 44 37
4 56 38 68 21
4 56 58 38 37
4 52 32 71 63
4 47 38 31 37
4 76 68 59 21
4 22 59 43 21
4 65 45 33 40
4 47 43 38 21
4 52 71 45 40
4 56 68 71 40
4 74 30 66 23
4 46 66 29 23
4 22 43 30 23
4 72 48 77 34
4 46 53 42 73
4 50 64 53 73
4 70 42 57 73
4 74 66 48 34
4 46 42 66 34
4 47 29 43 23
4 70 77 42 34
4 60 57 64 73
4 79 67 31 75
4 47 31 29 75
4 50 53 67 75
4 46 29 53 75
4 10 78 6 80
4 36 6 1 80
4 15 1 12 80
4 36 4 6 26
4 14 12 78 80
4 2 17 9 26
4 36 18 4 55
4 15 28 1 11
4 62 4 20 55
4 10 6 17 26
4 27 18 44 11
4 62 9 4 26
4 27 69 18 55
4 36 1 18 11
4 41 20 69 55
4 79 44 28 11
4 16 24 54 7
4 19 54 39 7
4 50 39 64 7
4 8 25 61 3
4 60 64 24 7
4 79 28 67 13
4 19 51 61 49
4 8 61 0 49
4 15 51 28 13
4 19 39 51 13
4 50 67 39 13
4 19 61 54 3
4 14 0 12 49
4 5 35 25 3
4 15 12 51 49
4 16 54 35 3
CELL_TYPES 64
8
8
8
8
8
8
8
8
8
8
8
8
8
8
8
8
8
8
8
8
8
8
8
8
8
8
8
8
8
8
8
8
8
8
8
8
8
8
8
8
8
8
8
8
8
8
8
8
8
8
8
8
8
8
8
8
8
8
8
8
8
8
8
8
CELL_DATA 64
VECTORS vector_value float
-0.517248 -2.23205 0
-1.12252 -2.97972 0
-0.0250661 -2.2783 0
0.0253363 -0.0553886 0
-0.359905 -2.70564 0
-0.0420929 -1.18016 0
0.102696 -0.779104 0
0.811394 -1.15175 0
-0.0408689 -3.18302 0
0.415674 -0.189764 0
0.0351363 -0.176974 0
0.0167322 -0.139167 0
-0.115915 -0.243108 0
0.847787 -2.20211 0
-0.0292924 -0.114056 0
0.236297 -0.419212 0
-0.128965 -0.358091 0
-0.488594 -1.65928 0
0.137631 -0.441635 0
0.291594 -0.864844 0
-0.0713784 -1.13278 0
-0.577755 -1.34243 0
0.0585416 -0.282289 0
0.097578 -0.245226 0
0.522073 -1.6326 0
0.0326323 -2.12769 0
-0.028617 -1.44548 0
0.244019 -1.24893 0
0.0574719 -0.306514 0
0.187076 -0.423277 0
0.642339 -0.753735 0
-0.298673 -1.34075 0
-0.0013408 -0.246865 0
0.185567 -0.716963 0
-0.0899106 -0.417159 0
0.0419276 -0.674416 0
-0.00375504 -0.31843 0
-0.00239703 -0.444987 0
-0.129728 -0.261221 0
-0.247682 -2.12345 0
-0.0679143 -0.242115 0
0.0794657 -0.426247 0
-0.570358 -0.75661 0
-0.0313208 -0.557563 0
-0.846588 -0.951747 0
-0.454908 -1.4661 0
0.0108914 -0.936857 0
-0.689952 -1.42976 0
0.196697 -1.22756 0
0.0212984 -0.142954 0
0.120539 -0.865379 0
-0.0806666 -0.63319 0
-0.194072 -1.12702 0
0.133876 -1.683 0
-0.663246 -1.7056 0
-0.139707 -0.51084 0
-0.422457 -1.73307 0
-0.283019 -0.943352 0
0.250572 -0.728351 0
0.155389 -2.00545 0
-0.000713946 -0.285012 0
-0.128791 -0.841677 0
-0.279486 -0.99979 0
-0.100371 -0.962207 0
