# vtk DataFile Version 2.0
Unstructured Grid by M++
ASCII
DATASET UNSTRUCTURED_GRID
POINTS 81 float
  1.000000   0.625000 0
  0.750000   0.375000 0
  1.000000   0.000000 0
  0.875000   0.875000 0
  0.750000   0.125000 0
  1.000000   1.000000 0
  0.875000   0.250000 0
  0.625000   0.875000 0
  1.000000   0.750000 0
  0.875000   0.000000 0
  1.000000   0.250000 0
  0.625000   0.375000 0
  0.875000   0.500000 0
  0.625000   0.625000 0
  1.000000   0.500000 0
  0.750000   0.500000 0
  0.750000   1.000000 0
  1.000000   0.125000 0
  0.625000   0.250000 0
  0.750000   0.750000 0
  0.625000   0.000000 0
  0.125000   0.375000 0
  0.000000   0.500000 0
  0.125000   0.625000 0
  0.625000   1.000000 0
  1.000000   0.875000 0
  0.875000   0.125000 0
  0.500000   0.250000 0
  0.625000   0.500000 0
  0.250000   0.625000 0
  0.000000   0.625000 0
  0.375000   0.500000 0
  0.375000   0.000000 0
  0.000000   0.125000 0
  0.125000   0.875000 0
  0.875000   1.000000 0
  0.750000   0.250000 0
  0.375000   0.375000 0
  0.250000   0.375000 0
  0.625000   0.750000 0
  0.125000   0.125000 0
  0.500000   0.000000 0
  0.250000   0.875000 0
  0.125000   0.500000 0
  0.500000   0.375000 0
  0.125000   0.000000 0
  0.250000   0.750000 0
  0.250000   0.500000 0
  0.000000   0.875000 0
  0.875000   0.625000 0
  0.500000   0.750000 0
  0.750000   0.625000 0
  0.250000   0.000000 0
  0.375000   0.750000 0
  0.750000   0.875000 0
  0.625000   0.125000 0
  0.250000   0.250000 0
  0.375000   1.000000 0
  0.375000   0.250000 0
  0.000000   0.375000 0
  0.500000   1.000000 0
  0.875000   0.750000 0
  0.750000   0.000000 0
  0.375000   0.125000 0
  0.500000   0.875000 0
  0.000000   0.000000 0
  0.125000   0.750000 0
  0.500000   0.625000 0
  0.125000   0.250000 0
  0.500000   0.125000 0
  0.250000   1.000000 0
  0.250000   0.125000 0
  0.000000   1.000000 0
  0.375000   0.875000 0
  0.000000   0.750000 0
  0.375000   0.625000 0
  0.000000   0.250000 0
  0.125000   1.000000 0
  1.000000   0.375000 0
  0.500000   0.500000 0
  0.875000   0.375000 0
CELLS 64 320
4 56 71 58 63
4 27 58 69 63
4 41 69 32 63
4 76 33 68 40
4 27 44 58 37
4 79 31 44 37
4 56 38 68 21
4 56 58 38 37
4 52 32 71 63
4 47 38 31 37
4 76 68 59 21
4 22 59 43 21
4 65 45 33 40
4 47 43 38 21
4 52 71 45 40
4 56 68 71 40
4 74 30 66 23
4 46 66 29 23
4 22 43 30 23
4 72 48 77 34
4 46 53 42 73
4 50 64 53 73
4 70 42 57 73
4 74 66 48 34
4 46 42 66 34
4 47 29 43 23
4 70 77 42 34
4 60 57 64 73
4 79 67 31 75
4 47 31 29 75
4 50 53 67 75
4 46 29 53 75
4 10 78 6 80
4 36 6 1 80
4 15 1 12 80
4 36 4 6 26
4 14 12 78 80
4 2 17 9 26
4 36 18 4 55
4 15 28 1 11
4 62 4 20 55
4 10 6 17 26
4 27 18 44 11
4 62 9 4 26
4 27 69 18 55
4 36 1 18 11
4 41 20 69 55
4 79 44 28 11
4 16 24 54 7
4 19 54 39 7
4 50 39 64 7
4 8 25 61 3
4 60 64 24 7
4 79 28 67 13
4 19 51 61 49
4 8 61 0 49
4 15 51 28 13
4 19 39 51 13
4 50 67 39 13
4 19 61 54 3
4 14 0 12 49
4 5 35 25 3
4 15 12 51 49
4 16 54 35 3
CELL_TYPES 64
8
8
8
8
8
8
8
8
8
8
8
8
8
8
8
8
8
8
8
8
8
8
8
8
8
8
8
8
8
8
8
8
8
8
8
8
8
8
8
8
8
8
8
8
8
8
8
8
8
8
8
8
8
8
8
8
8
8
8
8
8
8
8
8
CELL_DATA 64
VECTORS vector_value float
-0.270995 -3.06172 0
-0.646926 -1.67788 0
-0.119225 -0.777841 0
0.324125 -0.487888 0
-0.163642 -2.28657 0
0.385748 -1.64053 0
1.06718 -0.861913 0
0.519387 -1.35064 0
-0.447278 -3.61298 0
0.972605 -0.976008 0
0.567214 -1.3187 0
-0.609011 -1.69255 0
0.0194634 -0.0284872 0
0.0729616 -1.28687 0
-0.0327946 -1.56609 0
0.426928 -0.729205 0
-0.0134337 -0.440248 0
-0.00323964 -3.95108 0
-0.069709 -0.514047 0
-0.023484 -1.68751 0
-1.67607 -0.570688 0
-1.17845 -1.95633 0
-0.363011 -0.421227 0
0.293836 -0.733625 0
-0.139042 -2.83643 0
0.0147511 -3.68952 0
-0.72374 -0.836063 0
-0.663644 -1.6632 0
0.162232 -1.32759 0
0.149172 -0.2372 0
0.10756 -1.2155 0
0.14058 -0.331109 0
0.334978 -1.02864 0
0.50428 -0.484546 0
-0.0674199 -0.752665 0
0.180003 -0.440052 0
-0.111301 -0.557063 0
-0.000375546 -1.44053 0
0.001854 -0.0732847 0
0.0813323 -0.116885 0
-0.005321 -0.0733833 0
0.121473 -1.43037 0
-0.00740452 -0.277583 0
-0.00231024 -0.410987 0
-0.0356919 -0.0996013 0
0.484043 -0.391404 0
-0.00723451 -0.0897036 0
0.217432 -0.977428 0
-0.81664 -0.264516 0
-0.30307 -0.168396 0
-0.135001 -0.241875 0
0.232969 -0.51763 0
-1.61511 -1.11826 0
0.060002 -0.884103 0
-0.0066205 -0.430497 0
0.0107221 -0.863329 0
-0.00553678 -0.0428829 0
-0.0493431 -0.0966602 0
-0.0084527 -0.671571 0
0.0422568 -0.975024 0
-0.0468413 -0.773751 0
-0.321423 -0.436053 0
-0.0402123 -0.5309 0
-0.464341 -1.57317 0
