# vtk DataFile Version 2.0
Unstructured Grid by M++
ASCII
DATASET UNSTRUCTURED_GRID
POINTS 81 float
  1.000000   0.625000 0
  0.750000   0.375000 0
  1.000000   0.000000 0
  0.875000   0.875000 0
  0.750000   0.125000 0
  1.000000   1.000000 0
  0.875000   0.250000 0
  0.625000   0.875000 0
  1.000000   0.750000 0
  0.875000   0.000000 0
  1.000000   0.250000 0
  0.625000   0.375000 0
  0.875000   0.500000 0
  0.625000   0.625000 0
  1.000000   0.500000 0
  0.750000   0.500000 0
  0.750000   1.000000 0
  1.000000   0.125000 0
  0.625000   0.250000 0
  0.750000   0.750000 0
  0.625000   0.000000 0
  0.125000   0.375000 0
  0.000000   0.500000 0
  0.125000   0.625000 0
  0.625000   1.000000 0
  1.000000   0.875000 0
  0.875000   0.125000 0
  0.500000   0.250000 0
  0.625000   0.500000 0
  0.250000   0.625000 0
  0.000000   0.625000 0
  0.375000   0.500000 0
  0.375000   0.000000 0
  0.000000   0.125000 0
  0.125000   0.875000 0
  0.875000   1.000000 0
  0.750000   0.250000 0
  0.375000   0.375000 0
  0.250000   0.375000 0
  0.625000   0.750000 0
  0.125000   0.125000 0
  0.500000   0.000000 0
  0.250000   0.875000 0
  0.125000   0.500000 0
  0.500000   0.375000 0
  0.125000   0.000000 0
  0.250000   0.750000 0
  0.250000   0.500000 0
  0.000000   0.875000 0
  0.875000   0.625000 0
  0.500000   0.750000 0
  0.750000   0.625000 0
  0.250000   0.000000 0
  0.375000   0.750000 0
  0.750000   0.875000 0
  0.625000   0.125000 0
  0.250000   0.250000 0
  0.375000   1.000000 0
  0.375000   0.250000 0
  0.000000   0.375000 0
  0.500000   1.000000 0
  0.875000   0.750000 0
  0.750000   0.000000 0
  0.375000   0.125000 0
  0.500000   0.875000 0
  0.000000   0.000000 0
  0.125000   0.750000 0
  0.500000   0.625000 0
  0.125000   0.250000 0
  0.500000   0.125000 0
  0.250000   1.000000 0
  0.250000   0.125000 0
  0.000000   1.000000 0
  0.375000   0.875000 0
  0.000000   0.750000 0
  0.375000   0.625000 0
  0.000000   0.250000 0
  0.125000   1.000000 0
  1.000000   0.375000 0
  0.500000   0.500000 0
  0.875000   0.375000 0
CELLS 64 320
4 56 71 58 63
4 27 58 69 63
4 41 69 32 63
4 76 33 68 40
4 27 44 58 37
4 79 31 44 37
4 56 38 68 21
4 56 58 38 37
4 52 32 71 63
4 47 38 31 37
4 76 68 59 21
4 22 59 43 21
4 65 45 33 40
4 47 43 38 21
4 52 71 45 40
4 56 68 71 40
4 74 30 66 23
4 46 66 29 23
4 22 43 30 23
4 72 48 77 34
4 46 53 42 73
4 50 64 53 73
4 70 42 57 73
4 74 66 48 34
4 46 42 66 34
4 47 29 43 23
4 70 77 42 34
4 60 57 64 73
4 79 67 31 75
4 47 31 29 75
4 50 53 67 75
4 46 29 53 75
4 10 78 6 80
4 36 6 1 80
4 15 1 12 80
4 36 4 6 26
4 14 12 78 80
4 2 17 9 26
4 36 18 4 55
4 15 28 1 11
4 62 4 20 55
4 10 6 17 26
4 27 18 44 11
4 62 9 4 26
4 27 69 18 55
4 36 1 18 11
4 41 20 69 55
4 79 44 28 11
4 16 24 54 7
4 19 54 39 7
4 50 39 64 7
4 8 25 61 3
4 60 64 24 7
4 79 28 67 13
4 19 51 61 49
4 8 61 0 49
4 15 51 28 13
4 19 39 51 13
4 50 67 39 13
4 19 61 54 3
4 14 0 12 49
4 5 35 25 3
4 15 12 51 49
4 16 54 35 3
CELL_TYPES 64
8
8
8
8
8
8
8
8
8
8
8
8
8
8
8
8
8
8
8
8
8
8
8
8
8
8
8
8
8
8
8
8
8
8
8
8
8
8
8
8
8
8
8
8
8
8
8
8
8
8
8
8
8
8
8
8
8
8
8
8
8
8
8
8
CELL_DATA 64
VECTORS vector_value float
0.51742 -1.20643 0
0.278059 -1.33256 0
-0.144411 -2.04354 0
0.158921 -1.01259 0
0.208185 -0.986086 0
0.444053 -0.610122 0
0.422195 -1.93668 0
0.544861 -0.740532 0
0.255592 -1.40876 0
0.65942 -0.870924 0
-0.140214 -0.768814 0
-0.0387189 -0.673501 0
0.0565934 -0.57675 0
0.16302 -2.43934 0
0.300133 -0.647064 0
0.251844 -0.660595 0
0.049061 -0.521787 0
-0.436384 -2.94997 0
-0.0583803 -0.572255 0
0.0921016 -1.00072 0
-0.58906 -1.67956 0
-0.334084 -0.225656 0
-0.540906 -1.64234 0
0.101693 -0.665405 0
-0.136627 -1.84083 0
0.0967638 -3.10579 0
-0.0112048 -0.977056 0
-0.623403 -0.532197 0
0.0376125 -0.180605 0
0.17913 -0.724174 0
-0.0444228 -0.0774065 0
-0.412053 -0.984212 0
0.0156628 -0.1274 0
-0.444427 -1.71185 0
-0.386142 -2.31238 0
-0.0272325 -0.755131 0
-0.0492525 -0.154417 0
0.106701 -0.453446 0
-0.744085 -1.60268 0
-0.31749 -0.728741 0
-0.0596428 -0.790317 0
0.0568346 -0.228075 0
0.0253111 -0.397691 0
0.120422 -0.639547 0
-0.483556 -1.20194 0
-0.418003 -1.33095 0
-0.329358 -1.44058 0
-0.00377124 -0.210581 0
0.295919 -0.891763 0
0.448473 -0.575119 0
-0.02944 -0.234109 0
-0.20636 -1.07099 0
-0.022275 -0.729808 0
-0.0956752 -0.0989591 0
-0.166218 -2.39736 0
-0.168539 -0.738266 0
-0.207637 -0.438726 0
-0.0193236 -0.285873 0
-0.0125296 -0.0451291 0
0.0401398 -1.70834 0
-0.163671 -0.458011 0
0.153131 -1.44408 0
-0.247708 -2.42148 0
0.404456 -0.782028 0
