# vtk DataFile Version 2.0
Unstructured Grid by M++
ASCII
DATASET UNSTRUCTURED_GRID
POINTS 81 float
  1.000000   0.625000 0
  0.750000   0.375000 0
  1.000000   0.000000 0
  0.875000   0.875000 0
  0.750000   0.125000 0
  1.000000   1.000000 0
  0.875000   0.250000 0
  0.625000   0.875000 0
  1.000000   0.750000 0
  0.875000   0.000000 0
  1.000000   0.250000 0
  0.625000   0.375000 0
  0.875000   0.500000 0
  0.625000   0.625000 0
  1.000000   0.500000 0
  0.750000   0.500000 0
  0.750000   1.000000 0
  1.000000   0.125000 0
  0.625000   0.250000 0
  0.750000   0.750000 0
  0.625000   0.000000 0
  0.125000   0.375000 0
  0.000000   0.500000 0
  0.125000   0.625000 0
  0.625000   1.000000 0
  1.000000   0.875000 0
  0.875000   0.125000 0
  0.500000   0.250000 0
  0.625000   0.500000 0
  0.250000   0.625000 0
  0.000000   0.625000 0
  0.375000   0.500000 0
  0.375000   0.000000 0
  0.000000   0.125000 0
  0.125000   0.875000 0
  0.875000   1.000000 0
  0.750000   0.250000 0
  0.375000   0.375000 0
  0.250000   0.375000 0
  0.625000   0.750000 0
  0.125000   0.125000 0
  0.500000   0.000000 0
  0.250000   0.875000 0
  0.125000   0.500000 0
  0.500000   0.375000 0
  0.125000   0.000000 0
  0.250000   0.750000 0
  0.250000   0.500000 0
  0.000000   0.875000 0
  0.875000   0.625000 0
  0.500000   0.750000 0
  0.750000   0.625000 0
  0.250000   0.000000 0
  0.375000   0.750000 0
  0.750000   0.875000 0
  0.625000   0.125000 0
  0.250000   0.250000 0
  0.375000   1.000000 0
  0.375000   0.250000 0
  0.000000   0.375000 0
  0.500000   1.000000 0
  0.875000   0.750000 0
  0.750000   0.000000 0
  0.375000   0.125000 0
  0.500000   0.875000 0
  0.000000   0.000000 0
  0.125000   0.750000 0
  0.500000   0.625000 0
  0.125000   0.250000 0
  0.500000   0.125000 0
  0.250000   1.000000 0
  0.250000   0.125000 0
  0.000000   1.000000 0
  0.375000   0.875000 0
  0.000000   0.750000 0
  0.375000   0.625000 0
  0.000000   0.250000 0
  0.125000   1.000000 0
  1.000000   0.375000 0
  0.500000   0.500000 0
  0.875000   0.375000 0
CELLS 64 320
4 56 71 58 63
4 27 58 69 63
4 41 69 32 63
4 76 33 68 40
4 27 44 58 37
4 79 31 44 37
4 56 38 68 21
4 56 58 38 37
4 52 32 71 63
4 47 38 31 37
4 76 68 59 21
4 22 59 43 21
4 65 45 33 40
4 47 43 38 21
4 52 71 45 40
4 56 68 71 40
4 74 30 66 23
4 46 66 29 23
4 22 43 30 23
4 72 48 77 34
4 46 53 42 73
4 50 64 53 73
4 70 42 57 73
4 74 66 48 34
4 46 42 66 34
4 47 29 43 23
4 70 77 42 34
4 60 57 64 73
4 79 67 31 75
4 47 31 29 75
4 50 53 67 75
4 46 29 53 75
4 10 78 6 80
4 36 6 1 80
4 15 1 12 80
4 36 4 6 26
4 14 12 78 80
4 2 17 9 26
4 36 18 4 55
4 15 28 1 11
4 62 4 20 55
4 10 6 17 26
4 27 18 44 11
4 62 9 4 26
4 27 69 18 55
4 36 1 18 11
4 41 20 69 55
4 79 44 28 11
4 16 24 54 7
4 19 54 39 7
4 50 39 64 7
4 8 25 61 3
4 60 64 24 7
4 79 28 67 13
4 19 51 61 49
4 8 61 0 49
4 15 51 28 13
4 19 39 51 13
4 50 67 39 13
4 19 61 54 3
4 14 0 12 49
4 5 35 25 3
4 15 12 51 49
4 16 54 35 3
CELL_TYPES 64
8
8
8
8
8
8
8
8
8
8
8
8
8
8
8
8
8
8
8
8
8
8
8
8
8
8
8
8
8
8
8
8
8
8
8
8
8
8
8
8
8
8
8
8
8
8
8
8
8
8
8
8
8
8
8
8
8
8
8
8
8
8
8
8
CELL_DATA 64
VECTORS vector_value float
1.77009 -4.34157 0
0.538158 -0.473914 0
0.81274 -2.1266 0
0.0651814 -0.19593 0
0.21062 -0.745727 0
-0.769611 -2.16836 0
0.955904 -3.74983 0
0.420097 -1.80602 0
0.656326 -3.4523 0
-3.23527 -2.64684 0
0.0118622 -0.160153 0
0.130907 -0.359232 0
0.00278094 -0.0629794 0
-1.06931 -1.81481 0
0.037511 -0.10577 0
0.570687 -0.768673 0
0.0148447 -0.543929 0
0.0655938 -0.367003 0
0.0187413 -0.493874 0
0.123413 -0.801165 0
1.01047 -0.872229 0
0.522891 -0.830461 0
0.0261513 -0.921825 0
0.101243 -0.649546 0
0.684892 -1.13403 0
0.0733126 -0.236965 0
0.0717957 -1.31029 0
0.0882074 -1.24911 0
-3.05447 -4.06581 0
-0.266866 -0.850088 0
0.602573 -1.42451 0
0.333497 -0.556362 0
0.000768264 -0.527618 0
0.088478 -0.128484 0
0.115685 -0.215223 0
0.0325486 -0.566624 0
0.0693797 -0.378488 0
-0.00389648 -0.291481 0
0.355807 -0.377799 0
0.0634496 -0.120826 0
0.0576364 -0.560312 0
-0.0551805 -0.338242 0
0.383676 -0.559765 0
0.00615244 -0.706943 0
0.532983 -0.937251 0
0.202024 -0.32241 0
0.030516 -0.693614 0
0.104046 -0.29623 0
-0.035152 -0.159334 0
-0.350968 -0.992007 0
0.610709 -1.8074 0
-0.108151 -0.487271 0
-0.398706 -1.16527 0
-0.887474 -1.76054 0
-0.0963534 -0.1373 0
-0.0464328 -0.285878 0
0.0881756 -0.116975 0
-1.59279 -1.25329 0
-1.96512 -3.43172 0
-1.56497 -1.22705 0
0.00319653 -0.255086 0
-0.214592 -1.60696 0
0.0551874 -0.22066 0
0.509248 -0.786038 0
