# vtk DataFile Version 2.0
Unstructured Grid by M++
ASCII
DATASET UNSTRUCTURED_GRID
POINTS 81 float
  1.000000   0.625000 0
  0.750000   0.375000 0
  1.000000   0.000000 0
  0.875000   0.875000 0
  0.750000   0.125000 0
  1.000000   1.000000 0
  0.875000   0.250000 0
  0.625000   0.875000 0
  1.000000   0.750000 0
  0.875000   0.000000 0
  1.000000   0.250000 0
  0.625000   0.375000 0
  0.875000   0.500000 0
  0.625000   0.625000 0
  1.000000   0.500000 0
  0.750000   0.500000 0
  0.750000   1.000000 0
  1.000000   0.125000 0
  0.625000   0.250000 0
  0.750000   0.750000 0
  0.625000   0.000000 0
  0.125000   0.375000 0
  0.000000   0.500000 0
  0.125000   0.625000 0
  0.625000   1.000000 0
  1.000000   0.875000 0
  0.875000   0.125000 0
  0.500000   0.250000 0
  0.625000   0.500000 0
  0.250000   0.625000 0
  0.000000   0.625000 0
  0.375000   0.500000 0
  0.375000   0.000000 0
  0.000000   0.125000 0
  0.125000   0.875000 0
  0.875000   1.000000 0
  0.750000   0.250000 0
  0.375000   0.375000 0
  0.250000   0.375000 0
  0.625000   0.750000 0
  0.125000   0.125000 0
  0.500000   0.000000 0
  0.250000   0.875000 0
  0.125000   0.500000 0
  0.500000   0.375000 0
  0.125000   0.000000 0
  0.250000   0.750000 0
  0.250000   0.500000 0
  0.000000   0.875000 0
  0.875000   0.625000 0
  0.500000   0.750000 0
  0.750000   0.625000 0
  0.250000   0.000000 0
  0.375000   0.750000 0
  0.750000   0.875000 0
  0.625000   0.125000 0
  0.250000   0.250000 0
  0.375000   1.000000 0
  0.375000   0.250000 0
  0.000000   0.375000 0
  0.500000   1.000000 0
  0.875000   0.750000 0
  0.750000   0.000000 0
  0.375000   0.125000 0
  0.500000   0.875000 0
  0.000000   0.000000 0
  0.125000   0.750000 0
  0.500000   0.625000 0
  0.125000   0.250000 0
  0.500000   0.125000 0
  0.250000   1.000000 0
  0.250000   0.125000 0
  0.000000   1.000000 0
  0.375000   0.875000 0
  0.000000   0.750000 0
  0.375000   0.625000 0
  0.000000   0.250000 0
  0.125000   1.000000 0
  1.000000   0.375000 0
  0.500000   0.500000 0
  0.875000   0.375000 0
CELLS 64 320
4 56 71 58 63
4 27 58 69 63
4 41 69 32 63
4 76 33 68 40
4 27 44 58 37
4 79 31 44 37
4 56 38 68 21
4 56 58 38 37
4 52 32 71 63
4 47 38 31 37
4 76 68 59 21
4 22 59 43 21
4 65 45 33 40
4 47 43 38 21
4 52 71 45 40
4 56 68 71 40
4 74 30 66 23
4 46 66 29 23
4 22 43 30 23
4 72 48 77 34
4 46 53 42 73
4 50 64 53 73
4 70 42 57 73
4 74 66 48 34
4 46 42 66 34
4 47 29 43 23
4 70 77 42 34
4 60 57 64 73
4 79 67 31 75
4 47 31 29 75
4 50 53 67 75
4 46 29 53 75
4 10 78 6 80
4 36 6 1 80
4 15 1 12 80
4 36 4 6 26
4 14 12 78 80
4 2 17 9 26
4 36 18 4 55
4 15 28 1 11
4 62 4 20 55
4 10 6 17 26
4 27 18 44 11
4 62 9 4 26
4 27 69 18 55
4 36 1 18 11
4 41 20 69 55
4 79 44 28 11
4 16 24 54 7
4 19 54 39 7
4 50 39 64 7
4 8 25 61 3
4 60 64 24 7
4 79 28 67 13
4 19 51 61 49
4 8 61 0 49
4 15 51 28 13
4 19 39 51 13
4 50 67 39 13
4 19 61 54 3
4 14 0 12 49
4 5 35 25 3
4 15 12 51 49
4 16 54 35 3
CELL_TYPES 64
8
8
8
8
8
8
8
8
8
8
8
8
8
8
8
8
8
8
8
8
8
8
8
8
8
8
8
8
8
8
8
8
8
8
8
8
8
8
8
8
8
8
8
8
8
8
8
8
8
8
8
8
8
8
8
8
8
8
8
8
8
8
8
8
CELL_DATA 64
VECTORS vector_value float
-0.168584 -0.420858 0
0.0487124 -0.237243 0
0.0128845 -0.190119 0
-1.34449 -3.38424 0
0.0274363 -0.300624 0
-0.210947 -0.62185 0
-1.90405 -2.99212 0
-0.918512 -2.29293 0
-0.0187609 -0.103141 0
-0.121109 -1.78165 0
-0.511639 -0.727651 0
-0.0890748 -0.114645 0
-0.818573 -5.33903 0
0.125618 -3.83916 0
-0.340953 -0.508583 0
-1.48609 -2.16701 0
0.75687 -1.46725 0
0.101271 -1.97374 0
0.00190435 -0.0775436 0
0.11523 -0.774826 0
-0.342094 -0.231012 0
-0.195704 -0.325196 0
-0.447139 -0.525476 0
-0.416169 -1.4476 0
-0.536558 -1.57167 0
0.193565 -3.88024 0
-0.302949 -1.75085 0
0.147787 -0.625153 0
-1.83248 -1.17664 0
-0.980937 -0.615905 0
-0.541352 -0.274163 0
-0.405169 -0.200677 0
-0.022034 -0.602707 0
0.00126768 -0.848753 0
0.375533 -0.648645 0
0.651533 -0.897037 0
0.0667447 -0.641391 0
0.263268 -1.60716 0
0.29053 -0.145747 0
0.119569 -0.110859 0
0.0117552 -0.03394 0
0.284671 -0.720769 0
0.168468 -0.17698 0
0.0167123 -0.175363 0
0.0803996 -0.0270912 0
0.0669478 -0.0582365 0
0.0299119 -0.0426711 0
0.0365007 -0.241801 0
0.139606 -1.21638 0
-0.756553 -1.90396 0
-0.0892728 -1.07367 0
-0.0956142 -0.232728 0
0.354342 -1.08035 0
-0.394147 -1.00036 0
0.102087 -0.363232 0
0.120028 -0.244696 0
0.427007 -0.599097 0
-0.997412 -1.38662 0
-1.84342 -2.08962 0
-0.740282 -1.21417 0
0.0327946 -0.478792 0
-0.302401 -0.551576 0
0.107993 -0.171415 0
-0.31722 -1.47539 0
