# vtk DataFile Version 2.0
Unstructured Grid by M++
ASCII
DATASET UNSTRUCTURED_GRID
POINTS 81 float
  1.000000   0.625000 0
  0.750000   0.375000 0
  1.000000   0.000000 0
  0.875000   0.875000 0
  0.750000   0.125000 0
  1.000000   1.000000 0
  0.875000   0.250000 0
  0.625000   0.875000 0
  1.000000   0.750000 0
  0.875000   0.000000 0
  1.000000   0.250000 0
  0.625000   0.375000 0
  0.875000   0.500000 0
  0.625000   0.625000 0
  1.000000   0.500000 0
  0.750000   0.500000 0
  0.750000   1.000000 0
  1.000000   0.125000 0
  0.625000   0.250000 0
  0.750000   0.750000 0
  0.625000   0.000000 0
  0.125000   0.375000 0
  0.000000   0.500000 0
  0.125000   0.625000 0
  0.625000   1.000000 0
  1.000000   0.875000 0
  0.875000   0.125000 0
  0.500000   0.250000 0
  0.625000   0.500000 0
  0.250000   0.625000 0
  0.000000   0.625000 0
  0.375000   0.500000 0
  0.375000   0.000000 0
  0.000000   0.125000 0
  0.125000   0.875000 0
  0.875000   1.000000 0
  0.750000   0.250000 0
  0.375000   0.375000 0
  0.250000   0.375000 0
  0.625000   0.750000 0
  0.125000   0.125000 0
  0.500000   0.000000 0
  0.250000   0.875000 0
  0.125000   0.500000 0
  0.500000   0.375000 0
  0.125000   0.000000 0
  0.250000   0.750000 0
  0.250000   0.500000 0
  0.000000   0.875000 0
  0.875000   0.625000 0
  0.500000   0.750000 0
  0.750000   0.625000 0
  0.250000   0.000000 0
  0.375000   0.750000 0
  0.750000   0.875000 0
  0.625000   0.125000 0
  0.250000   0.250000 0
  0.375000   1.000000 0
  0.375000   0.250000 0
  0.000000   0.375000 0
  0.500000   1.000000 0
  0.875000   0.750000 0
  0.750000   0.000000 0
  0.375000   0.125000 0
  0.500000   0.875000 0
  0.000000   0.000000 0
  0.125000   0.750000 0
  0.500000   0.625000 0
  0.125000   0.250000 0
  0.500000   0.125000 0
  0.250000   1.000000 0
  0.250000   0.125000 0
  0.000000   1.000000 0
  0.375000   0.875000 0
  0.000000   0.750000 0
  0.375000   0.625000 0
  0.000000   0.250000 0
  0.125000   1.000000 0
  1.000000   0.375000 0
  0.500000   0.500000 0
  0.875000   0.375000 0
CELLS 64 320
4 56 71 58 63
4 27 58 69 63
4 41 69 32 63
4 76 33 68 40
4 27 44 58 37
4 79 31 44 37
4 56 38 68 21
4 56 58 38 37
4 52 32 71 63
4 47 38 31 37
4 76 68 59 21
4 22 59 43 21
4 65 45 33 40
4 47 43 38 21
4 52 71 45 40
4 56 68 71 40
4 74 30 66 23
4 46 66 29 23
4 22 43 30 23
4 72 48 77 34
4 46 53 42 73
4 50 64 53 73
4 70 42 57 73
4 74 66 48 34
4 46 42 66 34
4 47 29 43 23
4 70 77 42 34
4 60 57 64 73
4 79 67 31 75
4 47 31 29 75
4 50 53 67 75
4 46 29 53 75
4 10 78 6 80
4 36 6 1 80
4 15 1 12 80
4 36 4 6 26
4 14 12 78 80
4 2 17 9 26
4 36 18 4 55
4 15 28 1 11
4 62 4 20 55
4 10 6 17 26
4 27 18 44 11
4 62 9 4 26
4 27 69 18 55
4 36 1 18 11
4 41 20 69 55
4 79 44 28 11
4 16 24 54 7
4 19 54 39 7
4 50 39 64 7
4 8 25 61 3
4 60 64 24 7
4 79 28 67 13
4 19 51 61 49
4 8 61 0 49
4 15 51 28 13
4 19 39 51 13
4 50 67 39 13
4 19 61 54 3
4 14 0 12 49
4 5 35 25 3
4 15 12 51 49
4 16 54 35 3
CELL_TYPES 64
8
8
8
8
8
8
8
8
8
8
8
8
8
8
8
8
8
8
8
8
8
8
8
8
8
8
8
8
8
8
8
8
8
8
8
8
8
8
8
8
8
8
8
8
8
8
8
8
8
8
8
8
8
8
8
8
8
8
8
8
8
8
8
8
CELL_DATA 64
VECTORS vector_value float
0.35469 -1.08774 0
0.968807 -1.66897 0
0.481449 -1.17594 0
-0.260478 -0.857144 0
0.21173 -0.550839 0
-0.0101944 -0.122435 0
0.223997 -1.81196 0
0.967543 -2.05843 0
0.43138 -1.2451 0
0.70857 -1.78495 0
0.017574 -0.379446 0
0.140441 -0.651097 0
-0.0158925 -1.00199 0
0.410824 -2.08565 0
0.0507057 -0.162658 0
0.191461 -0.890813 0
0.559333 -3.39018 0
0.0571371 -0.683868 0
0.826298 -1.63794 0
-0.688533 -1.23182 0
-0.124914 -0.244043 0
-0.225382 -0.201553 0
-1.52925 -0.619968 0
-0.582386 -3.31322 0
-0.116458 -0.644569 0
1.69582 -2.44396 0
-2.08836 -1.8933 0
-0.660174 -0.405939 0
-0.043739 -0.203336 0
0.0530361 -0.369079 0
-0.139969 -0.298635 0
-0.0763567 -0.233922 0
-0.0584919 -0.22774 0
0.187865 -2.15033 0
-0.223679 -1.54875 0
0.226358 -1.95172 0
-0.071904 -0.39564 0
-0.00883666 -0.687189 0
0.182369 -0.577565 0
0.135815 -0.914902 0
-0.0746665 -1.23888 0
0.245684 -0.633833 0
0.028431 -0.220893 0
-0.143714 -1.52939 0
0.297992 -0.332215 0
0.179441 -0.600364 0
0.628263 -0.958859 0
-0.123993 -0.496582 0
0.451529 -0.806546 0
-0.0667378 -0.626709 0
-0.145154 -0.315392 0
-0.0373417 -1.27541 0
0.0116367 -0.594508 0
-0.0748141 -0.204597 0
-0.211454 -0.851988 0
0.0444476 -1.25959 0
-0.127855 -1.37512 0
-0.35632 -1.15602 0
-0.0827625 -0.125797 0
-0.213751 -1.3791 0
-0.434388 -1.25995 0
0.162952 -1.36654 0
-0.188818 -0.506016 0
0.495124 -1.08139 0
