# vtk DataFile Version 2.0
Unstructured Grid by M++
ASCII
DATASET UNSTRUCTURED_GRID
POINTS 81 float
  1.000000   0.625000 0
  0.750000   0.375000 0
  1.000000   0.000000 0
  0.875000   0.875000 0
  0.750000   0.125000 0
  1.000000   1.000000 0
  0.875000   0.250000 0
  0.625000   0.875000 0
  1.000000   0.750000 0
  0.875000   0.000000 0
  1.000000   0.250000 0
  0.625000   0.375000 0
  0.875000   0.500000 0
  0.625000   0.625000 0
  1.000000   0.500000 0
  0.750000   0.500000 0
  0.750000   1.000000 0
  1.000000   0.125000 0
  0.625000   0.250000 0
  0.750000   0.750000 0
  0.625000   0.000000 0
  0.125000   0.375000 0
  0.000000   0.500000 0
  0.125000   0.625000 0
  0.625000   1.000000 0
  1.000000   0.875000 0
  0.875000   0.125000 0
  0.500000   0.250000 0
  0.625000   0.500000 0
  0.250000   0.625000 0
  0.000000   0.625000 0
  0.375000   0.500000 0
  0.375000   0.000000 0
  0.000000   0.125000 0
  0.125000   0.875000 0
  0.875000   1.000000 0
  0.750000   0.250000 0
  0.375000   0.375000 0
  0.250000   0.375000 0
  0.625000   0.750000 0
  0.125000   0.125000 0
  0.500000   0.000000 0
  0.250000   0.875000 0
  0.125000   0.500000 0
  0.500000   0.375000 0
  0.125000   0.000000 0
  0.250000   0.750000 0
  0.250000   0.500000 0
  0.000000   0.875000 0
  0.875000   0.625000 0
  0.500000   0.750000 0
  0.750000   0.625000 0
  0.250000   0.000000 0
  0.375000   0.750000 0
  0.750000   0.875000 0
  0.625000   0.125000 0
  0.250000   0.250000 0
  0.375000   1.000000 0
  0.375000   0.250000 0
  0.000000   0.375000 0
  0.500000   1.000000 0
  0.875000   0.750000 0
  0.750000   0.000000 0
  0.375000   0.125000 0
  0.500000   0.875000 0
  0.000000   0.000000 0
  0.125000   0.750000 0
  0.500000   0.625000 0
  0.125000   0.250000 0
  0.500000   0.125000 0
  0.250000   1.000000 0
  0.250000   0.125000 0
  0.000000   1.000000 0
  0.375000   0.875000 0
  0.000000   0.750000 0
  0.375000   0.625000 0
  0.000000   0.250000 0
  0.125000   1.000000 0
  1.000000   0.375000 0
  0.500000   0.500000 0
  0.875000   0.375000 0
CELLS 64 320
4 56 71 58 63
4 27 58 69 63
4 41 69 32 63
4 76 33 68 40
4 27 44 58 37
4 79 31 44 37
4 56 38 68 21
4 56 58 38 37
4 52 32 71 63
4 47 38 31 37
4 76 68 59 21
4 22 59 43 21
4 65 45 33 40
4 47 43 38 21
4 52 71 45 40
4 56 68 71 40
4 74 30 66 23
4 46 66 29 23
4 22 43 30 23
4 72 48 77 34
4 46 53 42 73
4 50 64 53 73
4 70 42 57 73
4 74 66 48 34
4 46 42 66 34
4 47 29 43 23
4 70 77 42 34
4 60 57 64 73
4 79 67 31 75
4 47 31 29 75
4 50 53 67 75
4 46 29 53 75
4 10 78 6 80
4 36 6 1 80
4 15 1 12 80
4 36 4 6 26
4 14 12 78 80
4 2 17 9 26
4 36 18 4 55
4 15 28 1 11
4 62 4 20 55
4 10 6 17 26
4 27 18 44 11
4 62 9 4 26
4 27 69 18 55
4 36 1 18 11
4 41 20 69 55
4 79 44 28 11
4 16 24 54 7
4 19 54 39 7
4 50 39 64 7
4 8 25 61 3
4 60 64 24 7
4 79 28 67 13
4 19 51 61 49
4 8 61 0 49
4 15 51 28 13
4 19 39 51 13
4 50 67 39 13
4 19 61 54 3
4 14 0 12 49
4 5 35 25 3
4 15 12 51 49
4 16 54 35 3
CELL_TYPES 64
8
8
8
8
8
8
8
8
8
8
8
8
8
8
8
8
8
8
8
8
8
8
8
8
8
8
8
8
8
8
8
8
8
8
8
8
8
8
8
8
8
8
8
8
8
8
8
8
8
8
8
8
8
8
8
8
8
8
8
8
8
8
8
8
CELL_DATA 64
VECTORS vector_value float
-0.0923541 -0.632447 0
-0.17229 -0.388426 0
-0.202105 -0.503877 0
0.335186 -3.4285 0
-0.413373 -0.537362 0
-0.103942 -0.201341 0
-0.0541116 -0.463161 0
-0.2596 -0.660094 0
-0.125557 -0.826494 0
-0.169434 -0.464614 0
-0.000554825 -3.68123 0
-0.597529 -3.04623 0
0.265374 -2.46581 0
-0.691692 -1.15404 0
0.443311 -2.02639 0
0.09036 -1.01564 0
-0.0329626 -1.21442 0
-0.346765 -1.6875 0
-0.524988 -2.08876 0
-0.238827 -1.46338 0
-0.354772 -0.727715 0
-0.924255 -0.804741 0
-0.387456 -0.646332 0
0.105623 -1.41616 0
0.0111084 -1.31024 0
-0.806691 -1.64459 0
-0.550642 -0.956788 0
0.034994 -0.554906 0
-0.18138 -0.324708 0
-0.328168 -0.737105 0
-0.141968 -0.189404 0
-0.709034 -1.48567 0
0.0863129 -0.254514 0
0.307575 -0.648105 0
-0.193233 -0.678715 0
0.10635 -0.258776 0
-0.0131468 -0.190739 0
-0.00535147 -0.80651 0
0.243374 -0.839967 0
-0.273942 -1.5867 0
0.106527 -0.470535 0
0.216569 -0.74619 0
-0.311081 -0.53979 0
0.267205 -0.694935 0
-0.178365 -0.690052 0
-0.15451 -1.21574 0
-0.0136437 -0.205446 0
-0.239274 -0.677623 0
-1.04291 -0.89814 0
0.0582705 -0.550214 0
-0.00401691 -2.03636 0
-0.0588752 -0.637667 0
-0.667807 -2.12908 0
-0.0254773 -0.795552 0
0.0440321 -0.482364 0
-0.0306183 -0.713053 0
0.00913825 -1.10295 0
0.308516 -1.1052 0
0.0120951 -1.12239 0
-0.0713162 -0.516905 0
-0.166649 -0.437127 0
-0.125878 -0.832246 0
-0.233834 -0.869205 0
-0.528268 -0.519133 0
