# vtk DataFile Version 2.0
Unstructured Grid by M++
ASCII
DATASET UNSTRUCTURED_GRID
POINTS 81 float
  1.000000   0.625000 0
  0.750000   0.375000 0
  1.000000   0.000000 0
  0.875000   0.875000 0
  0.750000   0.125000 0
  1.000000   1.000000 0
  0.875000   0.250000 0
  0.625000   0.875000 0
  1.000000   0.750000 0
  0.875000   0.000000 0
  1.000000   0.250000 0
  0.625000   0.375000 0
  0.875000   0.500000 0
  0.625000   0.625000 0
  1.000000   0.500000 0
  0.750000   0.500000 0
  0.750000   1.000000 0
  1.000000   0.125000 0
  0.625000   0.250000 0
  0.750000   0.750000 0
  0.625000   0.000000 0
  0.125000   0.375000 0
  0.000000   0.500000 0
  0.125000   0.625000 0
  0.625000   1.000000 0
  1.000000   0.875000 0
  0.875000   0.125000 0
  0.500000   0.250000 0
  0.625000   0.500000 0
  0.250000   0.625000 0
  0.000000   0.625000 0
  0.375000   0.500000 0
  0.375000   0.000000 0
  0.000000   0.125000 0
  0.125000   0.875000 0
  0.875000   1.000000 0
  0.750000   0.250000 0
  0.375000   0.375000 0
  0.250000   0.375000 0
  0.625000   0.750000 0
  0.125000   0.125000 0
  0.500000   0.000000 0
  0.250000   0.875000 0
  0.125000   0.500000 0
  0.500000   0.375000 0
  0.125000   0.000000 0
  0.250000   0.750000 0
  0.250000   0.500000 0
  0.000000   0.875000 0
  0.875000   0.625000 0
  0.500000   0.750000 0
  0.750000   0.625000 0
  0.250000   0.000000 0
  0.375000   0.750000 0
  0.750000   0.875000 0
  0.625000   0.125000 0
  0.250000   0.250000 0
  0.375000   1.000000 0
  0.375000   0.250000 0
  0.000000   0.375000 0
  0.500000   1.000000 0
  0.875000   0.750000 0
  0.750000   0.000000 0
  0.375000   0.125000 0
  0.500000   0.875000 0
  0.000000   0.000000 0
  0.125000   0.750000 0
  0.500000   0.625000 0
  0.125000   0.250000 0
  0.500000   0.125000 0
  0.250000   1.000000 0
  0.250000   0.125000 0
  0.000000   1.000000 0
  0.375000   0.875000 0
  0.000000   0.750000 0
  0.375000   0.625000 0
  0.000000   0.250000 0
  0.125000   1.000000 0
  1.000000   0.375000 0
  0.500000   0.500000 0
  0.875000   0.375000 0
CELLS 64 320
4 56 71 58 63
4 27 58 69 63
4 41 69 32 63
4 76 33 68 40
4 27 44 58 37
4 79 31 44 37
4 56 38 68 21
4 56 58 38 37
4 52 32 71 63
4 47 38 31 37
4 76 68 59 21
4 22 59 43 21
4 65 45 33 40
4 47 43 38 21
4 52 71 45 40
4 56 68 71 40
4 74 30 66 23
4 46 66 29 23
4 22 43 30 23
4 72 48 77 34
4 46 53 42 73
4 50 64 53 73
4 70 42 57 73
4 74 66 48 34
4 46 42 66 34
4 47 29 43 23
4 70 77 42 34
4 60 57 64 73
4 79 67 31 75
4 47 31 29 75
4 50 53 67 75
4 46 29 53 75
4 10 78 6 80
4 36 6 1 80
4 15 1 12 80
4 36 4 6 26
4 14 12 78 80
4 2 17 9 26
4 36 18 4 55
4 15 28 1 11
4 62 4 20 55
4 10 6 17 26
4 27 18 44 11
4 62 9 4 26
4 27 69 18 55
4 36 1 18 11
4 41 20 69 55
4 79 44 28 11
4 16 24 54 7
4 19 54 39 7
4 50 39 64 7
4 8 25 61 3
4 60 64 24 7
4 79 28 67 13
4 19 51 61 49
4 8 61 0 49
4 15 51 28 13
4 19 39 51 13
4 50 67 39 13
4 19 61 54 3
4 14 0 12 49
4 5 35 25 3
4 15 12 51 49
4 16 54 35 3
CELL_TYPES 64
8
8
8
8
8
8
8
8
8
8
8
8
8
8
8
8
8
8
8
8
8
8
8
8
8
8
8
8
8
8
8
8
8
8
8
8
8
8
8
8
8
8
8
8
8
8
8
8
8
8
8
8
8
8
8
8
8
8
8
8
8
8
8
8
CELL_DATA 64
VECTORS vector_value float
0.0629544 -1.58972 0
0.498905 -0.614172 0
0.194958 -0.700153 0
0.0438583 -0.371523 0
0.469876 -0.697601 0
-0.0583981 -0.961037 0
0.419751 -0.472844 0
0.728799 -1.78044 0
-0.0390473 -0.581632 0
-0.0265333 -0.958087 0
0.129458 -0.553753 0
0.331055 -1.03291 0
0.0532462 -0.22643 0
0.81022 -0.915525 0
-0.247484 -1.03943 0
0.0206572 -0.301789 0
-0.0769302 -1.53251 0
-0.14418 -0.150243 0
0.130313 -1.63492 0
-0.0100733 -0.951974 0
-0.0912308 -0.402601 0
0.237467 -3.2605 0
0.807574 -0.674322 0
-0.205267 -1.30467 0
-0.22512 -0.14051 0
-0.123294 -0.325704 0
0.202056 -0.59486 0
-0.00241279 -2.47773 0
-0.168178 -1.30716 0
-0.237863 -0.511417 0
0.162704 -2.45023 0
-0.267841 -0.310555 0
-0.313907 -1.64642 0
-0.405775 -0.343439 0
-0.118986 -0.220389 0
-0.442327 -0.491884 0
-0.0639882 -1.98684 0
-0.0674142 -0.825874 0
-0.108781 -1.11972 0
-0.127697 -0.585024 0
0.0997995 -1.98827 0
-0.114993 -1.04192 0
0.164958 -1.95499 0
-0.156348 -0.363717 0
0.49818 -2.46927 0
-0.189956 -0.550525 0
0.229603 -2.27449 0
-0.071267 -1.34019 0
-1.4109 -0.593741 0
0.0427119 -0.099556 0
0.369752 -1.76051 0
0.112424 -0.828946 0
-1.45499 -1.38847 0
0.0664137 -1.2282 0
0.15793 -0.156776 0
0.101397 -1.00535 0
0.754189 -1.10192 0
0.640996 -0.550078 0
1.05072 -1.84426 0
0.0612678 -0.202715 0
0.421967 -1.4638 0
-0.173784 -0.701942 0
0.970474 -0.426864 0
-0.584562 -0.616957 0
