# vtk DataFile Version 2.0
Unstructured Grid by M++
ASCII
DATASET UNSTRUCTURED_GRID
POINTS 81 float
  1.000000   0.625000 0
  0.750000   0.375000 0
  1.000000   0.000000 0
  0.875000   0.875000 0
  0.750000   0.125000 0
  1.000000   1.000000 0
  0.875000   0.250000 0
  0.625000   0.875000 0
  1.000000   0.750000 0
  0.875000   0.000000 0
  1.000000   0.250000 0
  0.625000   0.375000 0
  0.875000   0.500000 0
  0.625000   0.625000 0
  1.000000   0.500000 0
  0.750000   0.500000 0
  0.750000   1.000000 0
  1.000000   0.125000 0
  0.625000   0.250000 0
  0.750000   0.750000 0
  0.625000   0.000000 0
  0.125000   0.375000 0
  0.000000   0.500000 0
  0.125000   0.625000 0
  0.625000   1.000000 0
  1.000000   0.875000 0
  0.875000   0.125000 0
  0.500000   0.250000 0
  0.625000   0.500000 0
  0.250000   0.625000 0
  0.000000   0.625000 0
  0.375000   0.500000 0
  0.375000   0.000000 0
  0.000000   0.125000 0
  0.125000   0.875000 0
  0.875000   1.000000 0
  0.750000   0.250000 0
  0.375000   0.375000 0
  0.250000   0.375000 0
  0.625000   0.750000 0
  0.125000   0.125000 0
  0.500000   0.000000 0
  0.250000   0.875000 0
  0.125000   0.500000 0
  0.500000   0.375000 0
  0.125000   0.000000 0
  0.250000   0.750000 0
  0.250000   0.500000 0
  0.000000   0.875000 0
  0.875000   0.625000 0
  0.500000   0.750000 0
  0.750000   0.625000 0
  0.250000   0.000000 0
  0.375000   0.750000 0
  0.750000   0.875000 0
  0.625000   0.125000 0
  0.250000   0.250000 0
  0.375000   1.000000 0
  0.375000   0.250000 0
  0.000000   0.375000 0
  0.500000   1.000000 0
  0.875000   0.750000 0
  0.750000   0.000000 0
  0.375000   0.125000 0
  0.500000   0.875000 0
  0.000000   0.000000 0
  0.125000   0.750000 0
  0.500000   0.625000 0
  0.125000   0.250000 0
  0.500000   0.125000 0
  0.250000   1.000000 0
  0.250000   0.125000 0
  0.000000   1.000000 0
  0.375000   0.875000 0
  0.000000   0.750000 0
  0.375000   0.625000 0
  0.000000   0.250000 0
  0.125000   1.000000 0
  1.000000   0.375000 0
  0.500000   0.500000 0
  0.875000   0.375000 0
CELLS 64 320
4 56 71 58 63
4 27 58 69 63
4 41 69 32 63
4 76 33 68 40
4 27 44 58 37
4 79 31 44 37
4 56 38 68 21
4 56 58 38 37
4 52 32 71 63
4 47 38 31 37
4 76 68 59 21
4 22 59 43 21
4 65 45 33 40
4 47 43 38 21
4 52 71 45 40
4 56 68 71 40
4 74 30 66 23
4 46 66 29 23
4 22 43 30 23
4 72 48 77 34
4 46 53 42 73
4 50 64 53 73
4 70 42 57 73
4 74 66 48 34
4 46 42 66 34
4 47 29 43 23
4 70 77 42 34
4 60 57 64 73
4 79 67 31 75
4 47 31 29 75
4 50 53 67 75
4 46 29 53 75
4 10 78 6 80
4 36 6 1 80
4 15 1 12 80
4 36 4 6 26
4 14 12 78 80
4 2 17 9 26
4 36 18 4 55
4 15 28 1 11
4 62 4 20 55
4 10 6 17 26
4 27 18 44 11
4 62 9 4 26
4 27 69 18 55
4 36 1 18 11
4 41 20 69 55
4 79 44 28 11
4 16 24 54 7
4 19 54 39 7
4 50 39 64 7
4 8 25 61 3
4 60 64 24 7
4 79 28 67 13
4 19 51 61 49
4 8 61 0 49
4 15 51 28 13
4 19 39 51 13
4 50 67 39 13
4 19 61 54 3
4 14 0 12 49
4 5 35 25 3
4 15 12 51 49
4 16 54 35 3
CELL_TYPES 64
8
8
8
8
8
8
8
8
8
8
8
8
8
8
8
8
8
8
8
8
8
8
8
8
8
8
8
8
8
8
8
8
8
8
8
8
8
8
8
8
8
8
8
8
8
8
8
8
8
8
8
8
8
8
8
8
8
8
8
8
8
8
8
8
CELL_DATA 64
VECTORS vector_value float
-0.215437 -2.91685 0
-0.311566 -2.18764 0
0.0699125 -3.55747 0
0.0244597 -0.124875 0
-0.992485 -2.13751 0
-0.0596592 -1.33618 0
0.0514824 -0.477094 0
-0.228776 -2.01929 0
0.302719 -2.13264 0
0.760462 -1.60588 0
-0.0001713 -0.156348 0
0.0613854 -0.163081 0
0.0149256 -0.0720691 0
0.601358 -0.854062 0
-0.0132269 -0.700105 0
-0.0189216 -0.559973 0
0.189968 -1.20693 0
0.230114 -0.881668 0
0.310348 -0.693258 0
-0.103781 -1.10426 0
0.47259 -0.875238 0
0.270356 -0.633559 0
-0.628215 -0.845953 0
-0.0306805 -1.23172 0
0.269244 -1.37692 0
0.415807 -1.10155 0
-0.460184 -1.50378 0
-0.343542 -0.656282 0
0.0554522 -0.494751 0
0.140979 -1.34708 0
0.139639 -0.752075 0
0.107638 -1.03698 0
-0.00904448 -0.165082 0
-0.0720737 -0.522584 0
-0.642806 -0.947524 0
0.124197 -0.625593 0
-0.0757639 -0.223933 0
0.0678055 -0.412834 0
-0.224777 -0.643681 0
-1.15071 -2.18023 0
-0.0468836 -0.302016 0
0.0634856 -0.202487 0
-1.28025 -0.883366 0
0.0158704 -0.375701 0
-0.445431 -0.738903 0
-0.701641 -1.63873 0
-0.298867 -0.447172 0
-0.873251 -0.689112 0
0.808139 -1.5593 0
0.182541 -0.507762 0
0.101806 -0.208001 0
0.153394 -0.96665 0
0.253304 -0.479967 0
0.146191 -0.422593 0
-0.259064 -1.85093 0
-0.0816133 -1.43332 0
-0.434221 -1.47661 0
-0.000723671 -0.467259 0
0.160824 -0.370836 0
0.843862 -2.20016 0
-0.332165 -0.735926 0
-0.0683798 -0.870599 0
-0.88506 -1.72824 0
-0.0215952 -0.979859 0
