# vtk DataFile Version 2.0
Unstructured Grid by M++
ASCII
DATASET UNSTRUCTURED_GRID
POINTS 81 float
  1.000000   0.625000 0
  0.750000   0.375000 0
  1.000000   0.000000 0
  0.875000   0.875000 0
  0.750000   0.125000 0
  1.000000   1.000000 0
  0.875000   0.250000 0
  0.625000   0.875000 0
  1.000000   0.750000 0
  0.875000   0.000000 0
  1.000000   0.250000 0
  0.625000   0.375000 0
  0.875000   0.500000 0
  0.625000   0.625000 0
  1.000000   0.500000 0
  0.750000   0.500000 0
  0.750000   1.000000 0
  1.000000   0.125000 0
  0.625000   0.250000 0
  0.750000   0.750000 0
  0.625000   0.000000 0
  0.125000   0.375000 0
  0.000000   0.500000 0
  0.125000   0.625000 0
  0.625000   1.000000 0
  1.000000   0.875000 0
  0.875000   0.125000 0
  0.500000   0.250000 0
  0.625000   0.500000 0
  0.250000   0.625000 0
  0.000000   0.625000 0
  0.375000   0.500000 0
  0.375000   0.000000 0
  0.000000   0.125000 0
  0.125000   0.875000 0
  0.875000   1.000000 0
  0.750000   0.250000 0
  0.375000   0.375000 0
  0.250000   0.375000 0
  0.625000   0.750000 0
  0.125000   0.125000 0
  0.500000   0.000000 0
  0.250000   0.875000 0
  0.125000   0.500000 0
  0.500000   0.375000 0
  0.125000   0.000000 0
  0.250000   0.750000 0
  0.250000   0.500000 0
  0.000000   0.875000 0
  0.875000   0.625000 0
  0.500000   0.750000 0
  0.750000   0.625000 0
  0.250000   0.000000 0
  0.375000   0.750000 0
  0.750000   0.875000 0
  0.625000   0.125000 0
  0.250000   0.250000 0
  0.375000   1.000000 0
  0.375000   0.250000 0
  0.000000   0.375000 0
  0.500000   1.000000 0
  0.875000   0.750000 0
  0.750000   0.000000 0
  0.375000   0.125000 0
  0.500000   0.875000 0
  0.000000   0.000000 0
  0.125000   0.750000 0
  0.500000   0.625000 0
  0.125000   0.250000 0
  0.500000   0.125000 0
  0.250000   1.000000 0
  0.250000   0.125000 0
  0.000000   1.000000 0
  0.375000   0.875000 0
  0.000000   0.750000 0
  0.375000   0.625000 0
  0.000000   0.250000 0
  0.125000   1.000000 0
  1.000000   0.375000 0
  0.500000   0.500000 0
  0.875000   0.375000 0
CELLS 64 320
4 56 71 58 63
4 27 58 69 63
4 41 69 32 63
4 76 33 68 40
4 27 44 58 37
4 79 31 44 37
4 56 38 68 21
4 56 58 38 37
4 52 32 71 63
4 47 38 31 37
4 76 68 59 21
4 22 59 43 21
4 65 45 33 40
4 47 43 38 21
4 52 71 45 40
4 56 68 71 40
4 74 30 66 23
4 46 66 29 23
4 22 43 30 23
4 72 48 77 34
4 46 53 42 73
4 50 64 53 73
4 70 42 57 73
4 74 66 48 34
4 46 42 66 34
4 47 29 43 23
4 70 77 42 34
4 60 57 64 73
4 79 67 31 75
4 47 31 29 75
4 50 53 67 75
4 46 29 53 75
4 10 78 6 80
4 36 6 1 80
4 15 1 12 80
4 36 4 6 26
4 14 12 78 80
4 2 17 9 26
4 36 18 4 55
4 15 28 1 11
4 62 4 20 55
4 10 6 17 26
4 27 18 44 11
4 62 9 4 26
4 27 69 18 55
4 36 1 18 11
4 41 20 69 55
4 79 44 28 11
4 16 24 54 7
4 19 54 39 7
4 50 39 64 7
4 8 25 61 3
4 60 64 24 7
4 79 28 67 13
4 19 51 61 49
4 8 61 0 49
4 15 51 28 13
4 19 39 51 13
4 50 67 39 13
4 19 61 54 3
4 14 0 12 49
4 5 35 25 3
4 15 12 51 49
4 16 54 35 3
CELL_TYPES 64
8
8
8
8
8
8
8
8
8
8
8
8
8
8
8
8
8
8
8
8
8
8
8
8
8
8
8
8
8
8
8
8
8
8
8
8
8
8
8
8
8
8
8
8
8
8
8
8
8
8
8
8
8
8
8
8
8
8
8
8
8
8
8
8
CELL_DATA 64
VECTORS vector_value float
0.356038 -0.378178 0
1.77758 -1.13516 0
0.163651 -0.331715 0
0.000425143 -0.180373 0
0.314768 -0.954547 0
0.0242652 -0.586539 0
1.20931 -0.967928 0
1.58635 -0.941232 0
0.0369149 -0.0850615 0
0.011436 -0.280641 0
0.159435 -0.310165 0
0.405286 -1.15458 0
-0.0425042 -0.255128 0
0.258084 -1.06341 0
-0.0209814 -0.0403621 0
-0.0133254 -0.123853 0
0.0950837 -1.55939 0
-0.0619609 -0.240522 0
0.0687093 -1.36788 0
0.0384495 -0.907626 0
0.00567192 -0.246345 0
0.137293 -0.201567 0
0.688927 -0.956053 0
-0.359533 -1.5397 0
-0.094953 -0.134823 0
-0.0235315 -0.636847 0
-0.0314481 -0.784924 0
1.3579 -0.294125 0
-0.462927 -1.12909 0
-0.425525 -0.188513 0
-0.331661 -0.471472 0
-0.0916829 -0.099076 0
7.43083e-06 -0.660924 0
-0.0052555 -0.375956 0
0.302739 -0.686485 0
0.0399093 -0.589498 0
0.278074 -0.504497 0
-0.00872988 -0.579487 0
-0.302193 -0.493399 0
-0.0544434 -1.79365 0
0.581299 -1.7386 0
-0.0285514 -0.605746 0
-0.0833653 -2.02943 0
-0.106868 -0.453014 0
0.839943 -4.4938 0
-0.298855 -1.75982 0
0.470383 -4.51663 0
-0.0783853 -1.93019 0
0.37602 -2.48535 0
-0.070217 -3.99511 0
0.292804 -0.887106 0
-0.275332 -0.382998 0
1.60339 -1.07088 0
-0.257963 -1.36481 0
-0.0650911 -0.467449 0
0.00225185 -0.0659586 0
0.0719209 -2.64147 0
-0.804846 -3.88459 0
-1.179 -1.21155 0
-0.588796 -0.612351 0
0.0073218 -0.0850896 0
-0.186754 -0.916601 0
0.221918 -0.586301 0
-0.510374 -0.584436 0
