# vtk DataFile Version 2.0
Unstructured Grid by M++
ASCII
DATASET UNSTRUCTURED_GRID
POINTS 81 float
  1.000000   0.625000 0
  0.750000   0.375000 0
  1.000000   0.000000 0
  0.875000   0.875000 0
  0.750000   0.125000 0
  1.000000   1.000000 0
  0.875000   0.250000 0
  0.625000   0.875000 0
  1.000000   0.750000 0
  0.875000   0.000000 0
  1.000000   0.250000 0
  0.625000   0.375000 0
  0.875000   0.500000 0
  0.625000   0.625000 0
  1.000000   0.500000 0
  0.750000   0.500000 0
  0.750000   1.000000 0
  1.000000   0.125000 0
  0.625000   0.250000 0
  0.750000   0.750000 0
  0.625000   0.000000 0
  0.125000   0.375000 0
  0.000000   0.500000 0
  0.125000   0.625000 0
  0.625000   1.000000 0
  1.000000   0.875000 0
  0.875000   0.125000 0
  0.500000   0.250000 0
  0.625000   0.500000 0
  0.250000   0.625000 0
  0.000000   0.625000 0
  0.375000   0.500000 0
  0.375000   0.000000 0
  0.000000   0.125000 0
  0.125000   0.875000 0
  0.875000   1.000000 0
  0.750000   0.250000 0
  0.375000   0.375000 0
  0.250000   0.375000 0
  0.625000   0.750000 0
  0.125000   0.125000 0
  0.500000   0.000000 0
  0.250000   0.875000 0
  0.125000   0.500000 0
  0.500000   0.375000 0
  0.125000   0.000000 0
  0.250000   0.750000 0
  0.250000   0.500000 0
  0.000000   0.875000 0
  0.875000   0.625000 0
  0.500000   0.750000 0
  0.750000   0.625000 0
  0.250000   0.000000 0
  0.375000   0.750000 0
  0.750000   0.875000 0
  0.625000   0.125000 0
  0.250000   0.250000 0
  0.375000   1.000000 0
  0.375000   0.250000 0
  0.000000   0.375000 0
  0.500000   1.000000 0
  0.875000   0.750000 0
  0.750000   0.000000 0
  0.375000   0.125000 0
  0.500000   0.875000 0
  0.000000   0.000000 0
  0.125000   0.750000 0
  0.500000   0.625000 0
  0.125000   0.250000 0
  0.500000   0.125000 0
  0.250000   1.000000 0
  0.250000   0.125000 0
  0.000000   1.000000 0
  0.375000   0.875000 0
  0.000000   0.750000 0
  0.375000   0.625000 0
  0.000000   0.250000 0
  0.125000   1.000000 0
  1.000000   0.375000 0
  0.500000   0.500000 0
  0.875000   0.375000 0
CELLS 64 320
4 56 71 58 63
4 27 58 69 63
4 41 69 32 63
4 76 33 68 40
4 27 44 58 37
4 79 31 44 37
4 56 38 68 21
4 56 58 38 37
4 52 32 71 63
4 47 38 31 37
4 76 68 59 21
4 22 59 43 21
4 65 45 33 40
4 47 43 38 21
4 52 71 45 40
4 56 68 71 40
4 74 30 66 23
4 46 66 29 23
4 22 43 30 23
4 72 48 77 34
4 46 53 42 73
4 50 64 53 73
4 70 42 57 73
4 74 66 48 34
4 46 42 66 34
4 47 29 43 23
4 70 77 42 34
4 60 57 64 73
4 79 67 31 75
4 47 31 29 75
4 50 53 67 75
4 46 29 53 75
4 10 78 6 80
4 36 6 1 80
4 15 1 12 80
4 36 4 6 26
4 14 12 78 80
4 2 17 9 26
4 36 18 4 55
4 15 28 1 11
4 62 4 20 55
4 10 6 17 26
4 27 18 44 11
4 62 9 4 26
4 27 69 18 55
4 36 1 18 11
4 41 20 69 55
4 79 44 28 11
4 16 24 54 7
4 19 54 39 7
4 50 39 64 7
4 8 25 61 3
4 60 64 24 7
4 79 28 67 13
4 19 51 61 49
4 8 61 0 49
4 15 51 28 13
4 19 39 51 13
4 50 67 39 13
4 19 61 54 3
4 14 0 12 49
4 5 35 25 3
4 15 12 51 49
4 16 54 35 3
CELL_TYPES 64
8
8
8
8
8
8
8
8
8
8
8
8
8
8
8
8
8
8
8
8
8
8
8
8
8
8
8
8
8
8
8
8
8
8
8
8
8
8
8
8
8
8
8
8
8
8
8
8
8
8
8
8
8
8
8
8
8
8
8
8
8
8
8
8
CELL_DATA 64
VECTORS vector_value float
-0.207229 -1.5791 0
-0.041426 -0.163725 0
0.0211008 -0.537027 0
0.00681576 -0.552779 0
-0.662485 -0.618723 0
-0.555057 -1.62873 0
-0.306085 -0.890544 0
-1.07845 -1.62307 0
0.0158662 -1.19614 0
-0.349467 -0.854246 0
0.028229 -0.603369 0
0.038506 -0.64368 0
-0.00155773 -0.559591 0
-0.0753404 -0.417382 0
-0.0208774 -1.73878 0
-0.226345 -1.56513 0
-0.0254921 -0.750287 0
0.00470812 -0.0831775 0
0.0264271 -0.74655 0
0.202535 -0.623188 0
0.377224 -0.569818 0
0.413405 -2.18228 0
0.973069 -0.609309 0
-0.0555183 -0.661912 0
0.0743553 -0.326757 0
-0.0109435 -0.099818 0
0.628066 -1.04819 0
0.645455 -1.62957 0
-0.300479 -1.70528 0
-0.191214 -0.572371 0
0.219972 -1.88178 0
0.0663944 -0.483297 0
0.0387525 -0.969713 0
-0.129159 -1.97631 0
0.616864 -2.51521 0
0.867029 -1.7962 0
0.318179 -0.620017 0
0.726045 -2.54888 0
-0.179704 -1.02872 0
0.493097 -1.03222 0
-0.00332634 -0.135085 0
0.167824 -1.06393 0
-0.141973 -0.145144 0
0.186733 -0.648181 0
-0.263687 -0.250407 0
-0.188201 -1.17313 0
-0.24 -0.636312 0
-0.0365141 -0.288516 0
-0.586866 -0.488631 0
-0.272213 -0.371319 0
0.0493749 -2.33845 0
-0.177209 -0.586914 0
-0.389431 -1.76904 0
0.529431 -1.71651 0
-0.0904053 -0.794517 0
-0.0380858 -0.414504 0
1.42045 -1.08028 0
0.0808093 -0.710584 0
0.603098 -2.88186 0
-0.449683 -0.962555 0
-0.0515731 -0.287115 0
-0.0884866 -1.02885 0
0.556169 -1.79208 0
-0.153458 -0.803218 0
