# vtk DataFile Version 2.0
Unstructured Grid by M++
ASCII
DATASET UNSTRUCTURED_GRID
POINTS 81 float
  1.000000   0.625000 0
  0.750000   0.375000 0
  1.000000   0.000000 0
  0.875000   0.875000 0
  0.750000   0.125000 0
  1.000000   1.000000 0
  0.875000   0.250000 0
  0.625000   0.875000 0
  1.000000   0.750000 0
  0.875000   0.000000 0
  1.000000   0.250000 0
  0.625000   0.375000 0
  0.875000   0.500000 0
  0.625000   0.625000 0
  1.000000   0.500000 0
  0.750000   0.500000 0
  0.750000   1.000000 0
  1.000000   0.125000 0
  0.625000   0.250000 0
  0.750000   0.750000 0
  0.625000   0.000000 0
  0.125000   0.375000 0
  0.000000   0.500000 0
  0.125000   0.625000 0
  0.625000   1.000000 0
  1.000000   0.875000 0
  0.875000   0.125000 0
  0.500000   0.250000 0
  0.625000   0.500000 0
  0.250000   0.625000 0
  0.000000   0.625000 0
  0.375000   0.500000 0
  0.375000   0.000000 0
  0.000000   0.125000 0
  0.125000   0.875000 0
  0.875000   1.000000 0
  0.750000   0.250000 0
  0.375000   0.375000 0
  0.250000   0.375000 0
  0.625000   0.750000 0
  0.125000   0.125000 0
  0.500000   0.000000 0
  0.250000   0.875000 0
  0.125000   0.500000 0
  0.500000   0.375000 0
  0.125000   0.000000 0
  0.250000   0.750000 0
  0.250000   0.500000 0
  0.000000   0.875000 0
  0.875000   0.625000 0
  0.500000   0.750000 0
  0.750000   0.625000 0
  0.250000   0.000000 0
  0.375000   0.750000 0
  0.750000   0.875000 0
  0.625000   0.125000 0
  0.250000   0.250000 0
  0.375000   1.000000 0
  0.375000   0.250000 0
  0.000000   0.375000 0
  0.500000   1.000000 0
  0.875000   0.750000 0
  0.750000   0.000000 0
  0.375000   0.125000 0
  0.500000   0.875000 0
  0.000000   0.000000 0
  0.125000   0.750000 0
  0.500000   0.625000 0
  0.125000   0.250000 0
  0.500000   0.125000 0
  0.250000   1.000000 0
  0.250000   0.125000 0
  0.000000   1.000000 0
  0.375000   0.875000 0
  0.000000   0.750000 0
  0.375000   0.625000 0
  0.000000   0.250000 0
  0.125000   1.000000 0
  1.000000   0.375000 0
  0.500000   0.500000 0
  0.875000   0.375000 0
CELLS 64 320
4 56 71 58 63
4 27 58 69 63
4 41 69 32 63
4 76 33 68 40
4 27 44 58 37
4 79 31 44 37
4 56 38 68 21
4 56 58 38 37
4 52 32 71 63
4 47 38 31 37
4 76 68 59 21
4 22 59 43 21
4 65 45 33 40
4 47 43 38 21
4 52 71 45 40
4 56 68 71 40
4 74 30 66 23
4 46 66 29 23
4 22 43 30 23
4 72 48 77 34
4 46 53 42 73
4 50 64 53 73
4 70 42 57 73
4 74 66 48 34
4 46 42 66 34
4 47 29 43 23
4 70 77 42 34
4 60 57 64 73
4 79 67 31 75
4 47 31 29 75
4 50 53 67 75
4 46 29 53 75
4 10 78 6 80
4 36 6 1 80
4 15 1 12 80
4 36 4 6 26
4 14 12 78 80
4 2 17 9 26
4 36 18 4 55
4 15 28 1 11
4 62 4 20 55
4 10 6 17 26
4 27 18 44 11
4 62 9 4 26
4 27 69 18 55
4 36 1 18 11
4 41 20 69 55
4 79 44 28 11
4 16 24 54 7
4 19 54 39 7
4 50 39 64 7
4 8 25 61 3
4 60 64 24 7
4 79 28 67 13
4 19 51 61 49
4 8 61 0 49
4 15 51 28 13
4 19 39 51 13
4 50 67 39 13
4 19 61 54 3
4 14 0 12 49
4 5 35 25 3
4 15 12 51 49
4 16 54 35 3
CELL_TYPES 64
8
8
8
8
8
8
8
8
8
8
8
8
8
8
8
8
8
8
8
8
8
8
8
8
8
8
8
8
8
8
8
8
8
8
8
8
8
8
8
8
8
8
8
8
8
8
8
8
8
8
8
8
8
8
8
8
8
8
8
8
8
8
8
8
CELL_DATA 64
VECTORS vector_value float
-0.125663 -0.292382 0
0.0607572 -0.974642 0
0.157905 -0.553513 0
0.30278 -1.53848 0
-0.0519103 -1.24435 0
-0.116879 -1.06418 0
0.144049 -0.238064 0
-0.00102179 -0.226544 0
-0.053549 -0.165644 0
0.12331 -0.153406 0
0.273165 -2.454 0
0.0425497 -2.64872 0
0.0785759 -1.29279 0
0.0622336 -0.143917 0
-0.0271885 -1.63388 0
0.43977 -1.23893 0
-1.04532 -1.73764 0
-0.705228 -1.37549 0
-0.193269 -2.57514 0
0.354593 -0.594975 0
-0.28542 -0.924957 0
0.00761907 -0.0969327 0
-0.491581 -0.951408 0
0.0536194 -0.173262 0
-0.5587 -2.47275 0
0.0176382 -0.447499 0
0.0131635 -1.83561 0
-0.102077 -0.396273 0
0.0353698 -0.152068 0
0.259643 -0.296275 0
0.166464 -0.209962 0
0.0558656 -0.336039 0
0.0348768 -0.200318 0
0.112834 -0.302308 0
0.0341653 -0.114798 0
-0.0321946 -0.15422 0
-0.00404321 -0.160458 0
-0.00663628 -0.209233 0
-0.185561 -2.48097 0
0.338872 -0.697362 0
-0.271923 -0.910864 0
-0.00573887 -0.247913 0
0.642963 -2.11923 0
-0.00183915 -0.213486 0
0.175334 -1.07246 0
0.510893 -1.21518 0
-0.673293 -3.02059 0
0.143275 -3.01716 0
-0.051569 -1.14774 0
-0.42841 -2.16265 0
0.112581 -1.13122 0
-0.132397 -0.356537 0
0.169109 -1.17618 0
-0.793409 -3.92417 0
-0.232019 -0.260751 0
-0.0182827 -0.150654 0
0.00514948 -0.374407 0
-1.58462 -2.62685 0
-0.544896 -1.30261 0
-0.649366 -0.681692 0
0.00137079 -0.172178 0
-0.265639 -0.56632 0
0.00082417 -0.0582663 0
-0.416735 -1.33149 0
