# vtk DataFile Version 2.0
Unstructured Grid by M++
ASCII
DATASET UNSTRUCTURED_GRID
POINTS 81 float
  1.000000   0.625000 0
  0.750000   0.375000 0
  1.000000   0.000000 0
  0.875000   0.875000 0
  0.750000   0.125000 0
  1.000000   1.000000 0
  0.875000   0.250000 0
  0.625000   0.875000 0
  1.000000   0.750000 0
  0.875000   0.000000 0
  1.000000   0.250000 0
  0.625000   0.375000 0
  0.875000   0.500000 0
  0.625000   0.625000 0
  1.000000   0.500000 0
  0.750000   0.500000 0
  0.750000   1.000000 0
  1.000000   0.125000 0
  0.625000   0.250000 0
  0.750000   0.750000 0
  0.625000   0.000000 0
  0.125000   0.375000 0
  0.000000   0.500000 0
  0.125000   0.625000 0
  0.625000   1.000000 0
  1.000000   0.875000 0
  0.875000   0.125000 0
  0.500000   0.250000 0
  0.625000   0.500000 0
  0.250000   0.625000 0
  0.000000   0.625000 0
  0.375000   0.500000 0
  0.375000   0.000000 0
  0.000000   0.125000 0
  0.125000   0.875000 0
  0.875000   1.000000 0
  0.750000   0.250000 0
  0.375000   0.375000 0
  0.250000   0.375000 0
  0.625000   0.750000 0
  0.125000   0.125000 0
  0.500000   0.000000 0
  0.250000   0.875000 0
  0.125000   0.500000 0
  0.500000   0.375000 0
  0.125000   0.000000 0
  0.250000   0.750000 0
  0.250000   0.500000 0
  0.000000   0.875000 0
  0.875000   0.625000 0
  0.500000   0.750000 0
  0.750000   0.625000 0
  0.250000   0.000000 0
  0.375000   0.750000 0
  0.750000   0.875000 0
  0.625000   0.125000 0
  0.250000   0.250000 0
  0.375000   1.000000 0
  0.375000   0.250000 0
  0.000000   0.375000 0
  0.500000   1.000000 0
  0.875000   0.750000 0
  0.750000   0.000000 0
  0.375000   0.125000 0
  0.500000   0.875000 0
  0.000000   0.000000 0
  0.125000   0.750000 0
  0.500000   0.625000 0
  0.125000   0.250000 0
  0.500000   0.125000 0
  0.250000   1.000000 0
  0.250000   0.125000 0
  0.000000   1.000000 0
  0.375000   0.875000 0
  0.000000   0.750000 0
  0.375000   0.625000 0
  0.000000   0.250000 0
  0.125000   1.000000 0
  1.000000   0.375000 0
  0.500000   0.500000 0
  0.875000   0.375000 0
CELLS 64 320
4 56 71 58 63
4 27 58 69 63
4 41 69 32 63
4 76 33 68 40
4 27 44 58 37
4 79 31 44 37
4 56 38 68 21
4 56 58 38 37
4 52 32 71 63
4 47 38 31 37
4 76 68 59 21
4 22 59 43 21
4 65 45 33 40
4 47 43 38 21
4 52 71 45 40
4 56 68 71 40
4 74 30 66 23
4 46 66 29 23
4 22 43 30 23
4 72 48 77 34
4 46 53 42 73
4 50 64 53 73
4 70 42 57 73
4 74 66 48 34
4 46 42 66 34
4 47 29 43 23
4 70 77 42 34
4 60 57 64 73
4 79 67 31 75
4 47 31 29 75
4 50 53 67 75
4 46 29 53 75
4 10 78 6 80
4 36 6 1 80
4 15 1 12 80
4 36 4 6 26
4 14 12 78 80
4 2 17 9 26
4 36 18 4 55
4 15 28 1 11
4 62 4 20 55
4 10 6 17 26
4 27 18 44 11
4 62 9 4 26
4 27 69 18 55
4 36 1 18 11
4 41 20 69 55
4 79 44 28 11
4 16 24 54 7
4 19 54 39 7
4 50 39 64 7
4 8 25 61 3
4 60 64 24 7
4 79 28 67 13
4 19 51 61 49
4 8 61 0 49
4 15 51 28 13
4 19 39 51 13
4 50 67 39 13
4 19 61 54 3
4 14 0 12 49
4 5 35 25 3
4 15 12 51 49
4 16 54 35 3
CELL_TYPES 64
8
8
8
8
8
8
8
8
8
8
8
8
8
8
8
8
8
8
8
8
8
8
8
8
8
8
8
8
8
8
8
8
8
8
8
8
8
8
8
8
8
8
8
8
8
8
8
8
8
8
8
8
8
8
8
8
8
8
8
8
8
8
8
8
CELL_DATA 64
VECTORS vector_value float
-0.00707433 -0.0397316 0
0.0436749 -0.090849 0
-0.00204972 -0.0688825 0
-0.0872314 -0.915438 0
0.0424138 -0.121162 0
0.0416207 -0.355 0
-0.0524111 -0.530497 0
-0.166077 -0.305315 0
0.000587975 -0.0565251 0
-0.0597856 -0.365255 0
0.0419099 -0.878627 0
0.0316254 -0.998886 0
-0.162884 -1.32191 0
-0.0413487 -0.255963 0
-0.056691 -0.28892 0
-0.232801 -0.703475 0
-0.172993 -0.435568 0
0.0342907 -1.07032 0
-0.142113 -0.980583 0
-0.227815 -1.53104 0
-0.0715601 -0.892082 0
0.445023 -1.38369 0
-0.0432711 -0.17751 0
0.531399 -1.11168 0
0.918775 -1.20048 0
-0.0170085 -0.201057 0
-0.528624 -0.887912 0
-0.404819 -1.86302 0
0.676896 -0.762088 0
0.0177026 -0.428659 0
0.955103 -0.599812 0
1.19048 -1.27839 0
0.324079 -1.11547 0
0.111301 -2.2878 0
0.682216 -2.86624 0
-0.0595055 -1.72581 0
0.181907 -0.416393 0
0.0158987 -1.28423 0
-0.0556339 -2.60919 0
0.41986 -2.14091 0
0.0529835 -2.61412 0
0.0207427 -1.2144 0
0.0799114 -0.669956 0
0.0523005 -1.80501 0
0.122727 -0.701109 0
-0.0268989 -2.09117 0
0.0143397 -0.560409 0
0.136415 -0.601348 0
-0.250225 -0.183361 0
-0.131096 -0.696285 0
0.235243 -0.933908 0
0.0141993 -1.30727 0
-0.597069 -1.10414 0
1.33831 -1.27235 0
-0.353722 -0.686169 0
-0.441477 -0.861607 0
1.37888 -2.26683 0
0.517253 -1.65622 0
1.15608 -1.41191 0
-0.0773854 -0.474611 0
-0.0558295 -0.197198 0
0.085246 -0.984226 0
0.270702 -1.89124 0
0.0695457 -1.26879 0
