# vtk DataFile Version 2.0
Unstructured Grid by M++
ASCII
DATASET UNSTRUCTURED_GRID
POINTS 81 float
  1.000000   0.625000 0
  0.750000   0.375000 0
  1.000000   0.000000 0
  0.875000   0.875000 0
  0.750000   0.125000 0
  1.000000   1.000000 0
  0.875000   0.250000 0
  0.625000   0.875000 0
  1.000000   0.750000 0
  0.875000   0.000000 0
  1.000000   0.250000 0
  0.625000   0.375000 0
  0.875000   0.500000 0
  0.625000   0.625000 0
  1.000000   0.500000 0
  0.750000   0.500000 0
  0.750000   1.000000 0
  1.000000   0.125000 0
  0.625000   0.250000 0
  0.750000   0.750000 0
  0.625000   0.000000 0
  0.125000   0.375000 0
  0.000000   0.500000 0
  0.125000   0.625000 0
  0.625000   1.000000 0
  1.000000   0.875000 0
  0.875000   0.125000 0
  0.500000   0.250000 0
  0.625000   0.500000 0
  0.250000   0.625000 0
  0.000000   0.625000 0
  0.375000   0.500000 0
  0.375000   0.000000 0
  0.000000   0.125000 0
  0.125000   0.875000 0
  0.875000   1.000000 0
  0.750000   0.250000 0
  0.375000   0.375000 0
  0.250000   0.375000 0
  0.625000   0.750000 0
  0.125000   0.125000 0
  0.500000   0.000000 0
  0.250000   0.875000 0
  0.125000   0.500000 0
  0.500000   0.375000 0
  0.125000   0.000000 0
  0.250000   0.750000 0
  0.250000   0.500000 0
  0.000000   0.875000 0
  0.875000   0.625000 0
  0.500000   0.750000 0
  0.750000   0.625000 0
  0.250000   0.000000 0
  0.375000   0.750000 0
  0.750000   0.875000 0
  0.625000   0.125000 0
  0.250000   0.250000 0
  0.375000   1.000000 0
  0.375000   0.250000 0
  0.000000   0.375000 0
  0.500000   1.000000 0
  0.875000   0.750000 0
  0.750000   0.000000 0
  0.375000   0.125000 0
  0.500000   0.875000 0
  0.000000   0.000000 0
  0.125000   0.750000 0
  0.500000   0.625000 0
  0.125000   0.250000 0
  0.500000   0.125000 0
  0.250000   1.000000 0
  0.250000   0.125000 0
  0.000000   1.000000 0
  0.375000   0.875000 0
  0.000000   0.750000 0
  0.375000   0.625000 0
  0.000000   0.250000 0
  0.125000   1.000000 0
  1.000000   0.375000 0
  0.500000   0.500000 0
  0.875000   0.375000 0
CELLS 64 320
4 56 71 58 63
4 27 58 69 63
4 41 69 32 63
4 76 33 68 40
4 27 44 58 37
4 79 31 44 37
4 56 38 68 21
4 56 58 38 37
4 52 32 71 63
4 47 38 31 37
4 76 68 59 21
4 22 59 43 21
4 65 45 33 40
4 47 43 38 21
4 52 71 45 40
4 56 68 71 40
4 74 30 66 23
4 46 66 29 23
4 22 43 30 23
4 72 48 77 34
4 46 53 42 73
4 50 64 53 73
4 70 42 57 73
4 74 66 48 34
4 46 42 66 34
4 47 29 43 23
4 70 77 42 34
4 60 57 64 73
4 79 67 31 75
4 47 31 29 75
4 50 53 67 75
4 46 29 53 75
4 10 78 6 80
4 36 6 1 80
4 15 1 12 80
4 36 4 6 26
4 14 12 78 80
4 2 17 9 26
4 36 18 4 55
4 15 28 1 11
4 62 4 20 55
4 10 6 17 26
4 27 18 44 11
4 62 9 4 26
4 27 69 18 55
4 36 1 18 11
4 41 20 69 55
4 79 44 28 11
4 16 24 54 7
4 19 54 39 7
4 50 39 64 7
4 8 25 61 3
4 60 64 24 7
4 79 28 67 13
4 19 51 61 49
4 8 61 0 49
4 15 51 28 13
4 19 39 51 13
4 50 67 39 13
4 19 61 54 3
4 14 0 12 49
4 5 35 25 3
4 15 12 51 49
4 16 54 35 3
CELL_TYPES 64
8
8
8
8
8
8
8
8
8
8
8
8
8
8
8
8
8
8
8
8
8
8
8
8
8
8
8
8
8
8
8
8
8
8
8
8
8
8
8
8
8
8
8
8
8
8
8
8
8
8
8
8
8
8
8
8
8
8
8
8
8
8
8
8
CELL_DATA 64
VECTORS vector_value float
-0.561892 -2.15668 0
0.0436269 -2.4811 0
0.0999948 -2.37646 0
-0.696258 -1.31105 0
-0.797928 -3.86383 0
-1.47613 -4.38574 0
-0.471369 -0.874301 0
-1.15047 -1.76976 0
-0.281286 -0.819625 0
0.431094 -0.685255 0
-0.0182118 -0.211701 0
-0.00848613 -0.169814 0
-0.207851 -1.96772 0
0.278674 -1.23432 0
-0.87718 -1.25525 0
-0.758606 -0.661815 0
0.296993 -0.702871 0
0.40159 -1.69848 0
0.0517387 -0.20886 0
-0.284455 -1.32671 0
0.0500884 -0.107814 0
0.124156 -0.44202 0
-0.00393368 -0.247896 0
0.348029 -1.51477 0
0.241645 -0.926545 0
0.44594 -1.93935 0
-0.502232 -1.05761 0
0.689465 -1.33599 0
-0.420632 -1.10027 0
0.278131 -0.20181 0
0.0232903 -0.317923 0
0.0586098 -0.0595353 0
0.274123 -0.548848 0
0.354885 -0.462186 0
0.355881 -0.579446 0
0.0110412 -0.410069 0
0.0137969 -0.113456 0
-0.142222 -0.365533 0
0.0401649 -0.0435561 0
0.168012 -0.300812 0
0.0996656 -0.113044 0
-0.0342155 -0.666289 0
0.0468398 -0.247085 0
-0.142747 -0.770328 0
0.0626131 -0.269443 0
0.0932851 -0.0222909 0
0.142773 -0.332045 0
-0.256846 -0.531155 0
-0.57841 -0.456485 0
-0.72349 -1.17705 0
0.146445 -3.0038 0
-0.299603 -0.505746 0
-0.146608 -1.72162 0
-1.76125 -3.37378 0
-0.0338902 -0.0210196 0
-0.0368942 -0.153344 0
0.11662 -1.01013 0
-0.506855 -1.26829 0
-0.295242 -3.77854 0
-0.891362 -0.322255 0
-0.00808759 -0.0954902 0
-0.107835 -0.91437 0
-0.00376737 -0.0703034 0
-0.423135 -0.939312 0
