# vtk DataFile Version 2.0
Unstructured Grid by M++
ASCII
DATASET UNSTRUCTURED_GRID
POINTS 81 float
  1.000000   0.625000 0
  0.750000   0.375000 0
  1.000000   0.000000 0
  0.875000   0.875000 0
  0.750000   0.125000 0
  1.000000   1.000000 0
  0.875000   0.250000 0
  0.625000   0.875000 0
  1.000000   0.750000 0
  0.875000   0.000000 0
  1.000000   0.250000 0
  0.625000   0.375000 0
  0.875000   0.500000 0
  0.625000   0.625000 0
  1.000000   0.500000 0
  0.750000   0.500000 0
  0.750000   1.000000 0
  1.000000   0.125000 0
  0.625000   0.250000 0
  0.750000   0.750000 0
  0.625000   0.000000 0
  0.125000   0.375000 0
  0.000000   0.500000 0
  0.125000   0.625000 0
  0.625000   1.000000 0
  1.000000   0.875000 0
  0.875000   0.125000 0
  0.500000   0.250000 0
  0.625000   0.500000 0
  0.250000   0.625000 0
  0.000000   0.625000 0
  0.375000   0.500000 0
  0.375000   0.000000 0
  0.000000   0.125000 0
  0.125000   0.875000 0
  0.875000   1.000000 0
  0.750000   0.250000 0
  0.375000   0.375000 0
  0.250000   0.375000 0
  0.625000   0.750000 0
  0.125000   0.125000 0
  0.500000   0.000000 0
  0.250000   0.875000 0
  0.125000   0.500000 0
  0.500000   0.375000 0
  0.125000   0.000000 0
  0.250000   0.750000 0
  0.250000   0.500000 0
  0.000000   0.875000 0
  0.875000   0.625000 0
  0.500000   0.750000 0
  0.750000   0.625000 0
  0.250000   0.000000 0
  0.375000   0.750000 0
  0.750000   0.875000 0
  0.625000   0.125000 0
  0.250000   0.250000 0
  0.375000   1.000000 0
  0.375000   0.250000 0
  0.000000   0.375000 0
  0.500000   1.000000 0
  0.875000   0.750000 0
  0.750000   0.000000 0
  0.375000   0.125000 0
  0.500000   0.875000 0
  0.000000   0.000000 0
  0.125000   0.750000 0
  0.500000   0.625000 0
  0.125000   0.250000 0
  0.500000   0.125000 0
  0.250000   1.000000 0
  0.250000   0.125000 0
  0.000000   1.000000 0
  0.375000   0.875000 0
  0.000000   0.750000 0
  0.375000   0.625000 0
  0.000000   0.250000 0
  0.125000   1.000000 0
  1.000000   0.375000 0
  0.500000   0.500000 0
  0.875000   0.375000 0
CELLS 64 320
4 56 71 58 63
4 27 58 69 63
4 41 69 32 63
4 76 33 68 40
4 27 44 58 37
4 79 31 44 37
4 56 38 68 21
4 56 58 38 37
4 52 32 71 63
4 47 38 31 37
4 76 68 59 21
4 22 59 43 21
4 65 45 33 40
4 47 43 38 21
4 52 71 45 40
4 56 68 71 40
4 74 30 66 23
4 46 66 29 23
4 22 43 30 23
4 72 48 77 34
4 46 53 42 73
4 50 64 53 73
4 70 42 57 73
4 74 66 48 34
4 46 42 66 34
4 47 29 43 23
4 70 77 42 34
4 60 57 64 73
4 79 67 31 75
4 47 31 29 75
4 50 53 67 75
4 46 29 53 75
4 10 78 6 80
4 36 6 1 80
4 15 1 12 80
4 36 4 6 26
4 14 12 78 80
4 2 17 9 26
4 36 18 4 55
4 15 28 1 11
4 62 4 20 55
4 10 6 17 26
4 27 18 44 11
4 62 9 4 26
4 27 69 18 55
4 36 1 18 11
4 41 20 69 55
4 79 44 28 11
4 16 24 54 7
4 19 54 39 7
4 50 39 64 7
4 8 25 61 3
4 60 64 24 7
4 79 28 67 13
4 19 51 61 49
4 8 61 0 49
4 15 51 28 13
4 19 39 51 13
4 50 67 39 13
4 19 61 54 3
4 14 0 12 49
4 5 35 25 3
4 15 12 51 49
4 16 54 35 3
CELL_TYPES 64
8
8
8
8
8
8
8
8
8
8
8
8
8
8
8
8
8
8
8
8
8
8
8
8
8
8
8
8
8
8
8
8
8
8
8
8
8
8
8
8
8
8
8
8
8
8
8
8
8
8
8
8
8
8
8
8
8
8
8
8
8
8
8
8
CELL_DATA 64
VECTORS vector_value float
0.0885912 -1.22944 0
0.717899 -1.88309 0
0.0923609 -1.03097 0
-0.0953603 -1.30968 0
0.672984 -1.59123 0
0.0236339 -0.649681 0
-0.285472 -1.08849 0
0.616688 -1.77261 0
-0.00118707 -0.948543 0
0.0680073 -2.64941 0
-0.423964 -0.769387 0
-0.105249 -0.240257 0
-0.0179987 -1.41533 0
-0.329844 -1.57218 0
-0.0395101 -0.386421 0
-0.110993 -0.360953 0
0.0845015 -0.209464 0
0.583523 -1.59808 0
0.00802123 -0.128028 0
-0.0343801 -1.11986 0
-0.0392777 -0.744224 0
-0.366705 -0.991885 0
-0.258077 -0.924245 0
0.373766 -0.881897 0
0.262929 -1.53271 0
0.00789606 -1.3594 0
-0.20365 -1.11446 0
-0.0350429 -0.699697 0
-0.16058 -0.549228 0
-0.149139 -2.95096 0
-0.694932 -0.887824 0
-0.101823 -2.08613 0
-0.130941 -1.2432 0
0.0385712 -0.729462 0
0.224188 -0.560895 0
-0.0833341 -1.44664 0
0.018823 -1.1666 0
0.0385193 -0.847399 0
0.269463 -0.499444 0
0.12523 -0.632862 0
0.0493397 -0.698813 0
-0.0973985 -0.769787 0
0.199202 -0.403893 0
0.031783 -1.38363 0
0.457883 -0.500971 0
0.138257 -0.401724 0
0.425212 -1.2889 0
-0.158453 -0.528107 0
-0.0914339 -0.804572 0
-0.193652 -0.563817 0
-0.43334 -1.25028 0
0.0503194 -1.27812 0
-0.0687877 -1.27414 0
-0.106473 -0.457941 0
-0.163675 -0.36014 0
-0.0217154 -1.28569 0
-0.038312 -1.13511 0
-0.170234 -0.906469 0
-0.170085 -0.666203 0
-0.116365 -0.757062 0
-0.0239744 -1.22885 0
0.096487 -1.13997 0
-0.02926 -0.190487 0
0.142602 -0.923059 0
