# vtk DataFile Version 2.0
Unstructured Grid by M++
ASCII
DATASET UNSTRUCTURED_GRID
POINTS 81 float
  1.000000   0.625000 0
  0.750000   0.375000 0
  1.000000   0.000000 0
  0.875000   0.875000 0
  0.750000   0.125000 0
  1.000000   1.000000 0
  0.875000   0.250000 0
  0.625000   0.875000 0
  1.000000   0.750000 0
  0.875000   0.000000 0
  1.000000   0.250000 0
  0.625000   0.375000 0
  0.875000   0.500000 0
  0.625000   0.625000 0
  1.000000   0.500000 0
  0.750000   0.500000 0
  0.750000   1.000000 0
  1.000000   0.125000 0
  0.625000   0.250000 0
  0.750000   0.750000 0
  0.625000   0.000000 0
  0.125000   0.375000 0
  0.000000   0.500000 0
  0.125000   0.625000 0
  0.625000   1.000000 0
  1.000000   0.875000 0
  0.875000   0.125000 0
  0.500000   0.250000 0
  0.625000   0.500000 0
  0.250000   0.625000 0
  0.000000   0.625000 0
  0.375000   0.500000 0
  0.375000   0.000000 0
  0.000000   0.125000 0
  0.125000   0.875000 0
  0.875000   1.000000 0
  0.750000   0.250000 0
  0.375000   0.375000 0
  0.250000   0.375000 0
  0.625000   0.750000 0
  0.125000   0.125000 0
  0.500000   0.000000 0
  0.250000   0.875000 0
  0.125000   0.500000 0
  0.500000   0.375000 0
  0.125000   0.000000 0
  0.250000   0.750000 0
  0.250000   0.500000 0
  0.000000   0.875000 0
  0.875000   0.625000 0
  0.500000   0.750000 0
  0.750000   0.625000 0
  0.250000   0.000000 0
  0.375000   0.750000 0
  0.750000   0.875000 0
  0.625000   0.125000 0
  0.250000   0.250000 0
  0.375000   1.000000 0
  0.375000   0.250000 0
  0.000000   0.375000 0
  0.500000   1.000000 0
  0.875000   0.750000 0
  0.750000   0.000000 0
  0.375000   0.125000 0
  0.500000   0.875000 0
  0.000000   0.000000 0
  0.125000   0.750000 0
  0.500000   0.625000 0
  0.125000   0.250000 0
  0.500000   0.125000 0
  0.250000   1.000000 0
  0.250000   0.125000 0
  0.000000   1.000000 0
  0.375000   0.875000 0
  0.000000   0.750000 0
  0.375000   0.625000 0
  0.000000   0.250000 0
  0.125000   1.000000 0
  1.000000   0.375000 0
  0.500000   0.500000 0
  0.875000   0.375000 0
CELLS 64 320
4 56 71 58 63
4 27 58 69 63
4 41 69 32 63
4 76 33 68 40
4 27 44 58 37
4 79 31 44 37
4 56 38 68 21
4 56 58 38 37
4 52 32 71 63
4 47 38 31 37
4 76 68 59 21
4 22 59 43 21
4 65 45 33 40
4 47 43 38 21
4 52 71 45 40
4 56 68 71 40
4 74 30 66 23
4 46 66 29 23
4 22 43 30 23
4 72 48 77 34
4 46 53 42 73
4 50 64 53 73
4 70 42 57 73
4 74 66 48 34
4 46 42 66 34
4 47 29 43 23
4 70 77 42 34
4 60 57 64 73
4 79 67 31 75
4 47 31 29 75
4 50 53 67 75
4 46 29 53 75
4 10 78 6 80
4 36 6 1 80
4 15 1 12 80
4 36 4 6 26
4 14 12 78 80
4 2 17 9 26
4 36 18 4 55
4 15 28 1 11
4 62 4 20 55
4 10 6 17 26
4 27 18 44 11
4 62 9 4 26
4 27 69 18 55
4 36 1 18 11
4 41 20 69 55
4 79 44 28 11
4 16 24 54 7
4 19 54 39 7
4 50 39 64 7
4 8 25 61 3
4 60 64 24 7
4 79 28 67 13
4 19 51 61 49
4 8 61 0 49
4 15 51 28 13
4 19 39 51 13
4 50 67 39 13
4 19 61 54 3
4 14 0 12 49
4 5 35 25 3
4 15 12 51 49
4 16 54 35 3
CELL_TYPES 64
8
8
8
8
8
8
8
8
8
8
8
8
8
8
8
8
8
8
8
8
8
8
8
8
8
8
8
8
8
8
8
8
8
8
8
8
8
8
8
8
8
8
8
8
8
8
8
8
8
8
8
8
8
8
8
8
8
8
8
8
8
8
8
8
CELL_DATA 64
VECTORS vector_value float
-0.00373749 -1.52143 0
-0.68623 -2.06976 0
0.112428 -2.58554 0
0.00426404 -1.89918 0
-1.06368 -1.1096 0
-0.606777 -0.350483 0
0.0989382 -0.612359 0
-0.35767 -0.727005 0
0.0205949 -1.04323 0
-0.172101 -0.122848 0
0.0160918 -2.0141 0
-0.238212 -1.81279 0
-0.0050721 -1.92516 0
-0.272216 -0.789303 0
-0.0250657 -0.619635 0
-0.00591655 -0.517603 0
-0.0422025 -1.00837 0
-0.0697233 -1.32468 0
-0.224042 -1.33769 0
0.0580482 -0.969184 0
0.106987 -0.396323 0
0.557243 -0.357832 0
-0.0144861 -0.95225 0
-0.0322978 -0.891802 0
-0.0599425 -1.35737 0
-0.339621 -1.14362 0
-0.065604 -1.31449 0
0.298975 -0.23532 0
-0.0354506 -0.0892558 0
-0.0996963 -0.0688685 0
0.061437 -0.183626 0
-0.0428663 -0.14806 0
-0.605691 -1.45026 0
-1.55752 -0.959071 0
0.211498 -1.41294 0
-0.0337774 -0.540257 0
0.395381 -2.06557 0
0.0127155 -1.0274 0
-0.334421 -0.318634 0
-0.561067 -0.421633 0
-0.0572797 -0.186628 0
0.106555 -0.817957 0
-1.60053 -0.876225 0
-6.90858e-05 -0.103229 0
-0.331441 -0.315176 0
-1.76629 -0.251378 0
-0.157256 -0.509184 0
-1.26136 -1.02443 0
0.22351 -1.21159 0
0.338988 -1.52124 0
0.693605 -1.31575 0
-0.0408753 -0.43303 0
0.510001 -1.26151 0
-0.0782793 -0.780591 0
0.429892 -1.50242 0
0.148305 -0.658723 0
0.0278389 -1.14854 0
0.843113 -2.28955 0
0.270894 -0.884565 0
-0.265923 -1.72665 0
0.211936 -1.10696 0
-0.212509 -1.16273 0
0.72132 -2.32448 0
0.0735752 -0.892923 0
