# vtk DataFile Version 2.0
Unstructured Grid by M++
ASCII
DATASET UNSTRUCTURED_GRID
POINTS 81 float
  1.000000   0.625000 0
  0.750000   0.375000 0
  1.000000   0.000000 0
  0.875000   0.875000 0
  0.750000   0.125000 0
  1.000000   1.000000 0
  0.875000   0.250000 0
  0.625000   0.875000 0
  1.000000   0.750000 0
  0.875000   0.000000 0
  1.000000   0.250000 0
  0.625000   0.375000 0
  0.875000   0.500000 0
  0.625000   0.625000 0
  1.000000   0.500000 0
  0.750000   0.500000 0
  0.750000   1.000000 0
  1.000000   0.125000 0
  0.625000   0.250000 0
  0.750000   0.750000 0
  0.625000   0.000000 0
  0.125000   0.375000 0
  0.000000   0.500000 0
  0.125000   0.625000 0
  0.625000   1.000000 0
  1.000000   0.875000 0
  0.875000   0.125000 0
  0.500000   0.250000 0
  0.625000   0.500000 0
  0.250000   0.625000 0
  0.000000   0.625000 0
  0.375000   0.500000 0
  0.375000   0.000000 0
  0.000000   0.125000 0
  0.125000   0.875000 0
  0.875000   1.000000 0
  0.750000   0.250000 0
  0.375000   0.375000 0
  0.250000   0.375000 0
  0.625000   0.750000 0
  0.125000   0.125000 0
  0.500000   0.000000 0
  0.250000   0.875000 0
  0.125000   0.500000 0
  0.500000   0.375000 0
  0.125000   0.000000 0
  0.250000   0.750000 0
  0.250000   0.500000 0
  0.000000   0.875000 0
  0.875000   0.625000 0
  0.500000   0.750000 0
  0.750000   0.625000 0
  0.250000   0.000000 0
  0.375000   0.750000 0
  0.750000   0.875000 0
  0.625000   0.125000 0
  0.250000   0.250000 0
  0.375000   1.000000 0
  0.375000   0.250000 0
  0.000000   0.375000 0
  0.500000   1.000000 0
  0.875000   0.750000 0
  0.750000   0.000000 0
  0.375000   0.125000 0
  0.500000   0.875000 0
  0.000000   0.000000 0
  0.125000   0.750000 0
  0.500000   0.625000 0
  0.125000   0.250000 0
  0.500000   0.125000 0
  0.250000   1.000000 0
  0.250000   0.125000 0
  0.000000   1.000000 0
  0.375000   0.875000 0
  0.000000   0.750000 0
  0.375000   0.625000 0
  0.000000   0.250000 0
  0.125000   1.000000 0
  1.000000   0.375000 0
  0.500000   0.500000 0
  0.875000   0.375000 0
CELLS 64 320
4 56 71 58 63
4 27 58 69 63
4 41 69 32 63
4 76 33 68 40
4 27 44 58 37
4 79 31 44 37
4 56 38 68 21
4 56 58 38 37
4 52 32 71 63
4 47 38 31 37
4 76 68 59 21
4 22 59 43 21
4 65 45 33 40
4 47 43 38 21
4 52 71 45 40
4 56 68 71 40
4 74 30 66 23
4 46 66 29 23
4 22 43 30 23
4 72 48 77 34
4 46 53 42 73
4 50 64 53 73
4 70 42 57 73
4 74 66 48 34
4 46 42 66 34
4 47 29 43 23
4 70 77 42 34
4 60 57 64 73
4 79 67 31 75
4 47 31 29 75
4 50 53 67 75
4 46 29 53 75
4 10 78 6 80
4 36 6 1 80
4 15 1 12 80
4 36 4 6 26
4 14 12 78 80
4 2 17 9 26
4 36 18 4 55
4 15 28 1 11
4 62 4 20 55
4 10 6 17 26
4 27 18 44 11
4 62 9 4 26
4 27 69 18 55
4 36 1 18 11
4 41 20 69 55
4 79 44 28 11
4 16 24 54 7
4 19 54 39 7
4 50 39 64 7
4 8 25 61 3
4 60 64 24 7
4 79 28 67 13
4 19 51 61 49
4 8 61 0 49
4 15 51 28 13
4 19 39 51 13
4 50 67 39 13
4 19 61 54 3
4 14 0 12 49
4 5 35 25 3
4 15 12 51 49
4 16 54 35 3
CELL_TYPES 64
8
8
8
8
8
8
8
8
8
8
8
8
8
8
8
8
8
8
8
8
8
8
8
8
8
8
8
8
8
8
8
8
8
8
8
8
8
8
8
8
8
8
8
8
8
8
8
8
8
8
8
8
8
8
8
8
8
8
8
8
8
8
8
8
CELL_DATA 64
VECTORS vector_value float
0.134652 -3.26607 0
0.238613 -0.756547 0
0.263349 -1.14585 0
-0.0228191 -0.940808 0
-0.0461909 -0.548556 0
-0.207279 -0.783747 0
-0.36992 -1.70569 0
-0.192421 -3.93239 0
0.653893 -3.65509 0
-0.543096 -3.98548 0
-0.214084 -0.709845 0
-0.00988817 -0.338315 0
0.0389586 -0.789772 0
-0.0739769 -1.71719 0
0.327005 -1.1255 0
0.0635427 -1.84151 0
-0.00245725 -0.865686 0
-0.0567146 -1.33417 0
0.186637 -0.649798 0
0.184593 -0.683726 0
-0.161375 -0.522155 0
-0.961345 -2.2497 0
0.28951 -0.59916 0
-0.049333 -0.682551 0
-0.125779 -1.32304 0
0.225639 -1.52433 0
0.212182 -1.25166 0
0.168933 -1.28782 0
-0.941263 -2.60632 0
-0.694679 -2.13107 0
-1.11421 -3.83902 0
-0.62032 -1.00546 0
-0.000565914 -0.181438 0
0.130155 -0.687772 0
0.155309 -0.339174 0
-0.0267879 -0.638547 0
-0.00522548 -0.20031 0
0.0445229 -0.311907 0
-0.0177224 -0.2235 0
0.432294 -0.280167 0
-0.0686575 -0.480693 0
0.0232766 -0.217004 0
0.0155462 -0.0587287 0
-0.0371724 -0.349781 0
0.0776856 -0.116015 0
0.12427 -0.175585 0
0.0666765 -0.141412 0
0.107387 -0.355614 0
-2.07423 -1.22337 0
-0.156886 -0.352693 0
-1.69425 -2.70026 0
0.0101986 -0.0738454 0
-1.10659 -1.9952 0
0.307785 -0.70362 0
0.0452454 -0.112072 0
0.0275403 -0.134299 0
0.128136 -0.0910951 0
0.0233852 -0.0516307 0
-0.0500361 -0.657658 0
0.0514938 -0.0957586 0
0.0232657 -0.195173 0
-0.459639 -0.360397 0
0.0415888 -0.0985975 0
-1.37923 -0.598673 0
