# vtk DataFile Version 2.0
Unstructured Grid by M++
ASCII
DATASET UNSTRUCTURED_GRID
POINTS 289 float
  0.562500   1.000000 0
  0.562500   0.625000 0
  0.625000   1.000000 0
  0.562500   0.937500 0
  0.562500   0.562500 0
  0.625000   0.937500 0
  0.562500   0.875000 0
  0.625000   0.750000 0
  0.625000   0.625000 0
  0.562500   0.812500 0
  0.562500   0.750000 0
  0.562500   0.687500 0
  0.625000   0.875000 0
  0.625000   0.812500 0
  0.625000   0.687500 0
  0.687500   0.125000 0
  0.875000   0.062500 0
  0.625000   0.125000 0
  0.625000   0.187500 0
  0.625000   0.250000 0
  0.812500   0.187500 0
  1.000000   0.125000 0
  0.687500   0.187500 0
  0.750000   0.125000 0
  0.937500   0.062500 0
  0.937500   0.125000 0
  0.750000   0.187500 0
  0.812500   0.062500 0
  0.812500   0.125000 0
  0.875000   0.687500 0
  0.187500   0.250000 0
  0.437500   0.250000 0
  0.375000   0.187500 0
  0.812500   0.625000 0
  0.125000   0.187500 0
  0.937500   0.750000 0
  0.250000   0.312500 0
  0.500000   0.312500 0
  0.625000   0.062500 0
  0.437500   0.500000 0
  0.375000   0.125000 0
  0.437500   0.187500 0
  0.437500   0.437500 0
  0.437500   0.375000 0
  0.875000   0.875000 0
  0.187500   0.375000 0
  0.687500   0.562500 0
  0.687500   0.625000 0
  0.000000   0.125000 0
  0.937500   0.625000 0
  0.250000   0.125000 0
  0.375000   0.062500 0
  0.375000   0.000000 0
  0.812500   0.500000 0
  0.125000   0.000000 0
  0.937500   0.937500 0
  0.250000   0.437500 0
  0.687500   0.875000 0
  0.687500   0.937500 0
  0.000000   0.437500 0
  0.500000   0.500000 0
  0.500000   0.437500 0
  0.750000   0.937500 0
  0.750000   1.000000 0
  0.062500   0.500000 0
  1.000000   1.000000 0
  0.312500   0.500000 0
  0.875000   0.562500 0
  0.187500   0.062500 0
  0.437500   0.125000 0
  0.437500   0.062500 0
  0.500000   0.375000 0
  0.937500   0.812500 0
  0.937500   0.875000 0
  0.250000   0.375000 0
  0.687500   0.812500 0
  0.000000   0.375000 0
  0.750000   0.562500 0
  0.062500   0.125000 0
  1.000000   0.562500 0
  1.000000   0.625000 0
  0.312500   0.125000 0
  0.562500   0.125000 0
  0.437500   0.000000 0
  0.875000   0.437500 0
  0.875000   0.500000 0
  0.187500   0.000000 0
  0.937500   0.562500 0
  0.937500   0.500000 0
  0.250000   0.062500 0
  0.687500   0.500000 0
  0.000000   0.062500 0
  0.500000   0.062500 0
  1.000000   0.875000 0
  1.000000   0.937500 0
  0.312500   0.437500 0
  0.750000   0.875000 0
  0.062500   0.437500 0
  0.812500   0.937500 0
  0.125000   0.500000 0
  0.375000   0.500000 0
  0.625000   0.562500 0
  0.625000   0.500000 0
  0.437500   0.312500 0
  0.875000   0.812500 0
  0.875000   0.750000 0
  0.187500   0.312500 0
  0.812500   0.687500 0
  0.812500   0.750000 0
  0.125000   0.250000 0
  0.375000   0.250000 0
  1.000000   0.687500 0
  0.312500   0.187500 0
  0.750000   0.687500 0
  0.750000   0.625000 0
  0.062500   0.187500 0
  0.562500   0.250000 0
  0.562500   0.187500 0
  0.375000   1.000000 0
  0.500000   0.562500 0
  0.500000   0.250000 0
  0.750000   0.250000 0
  0.500000   0.125000 0
  0.500000   0.187500 0
  1.000000   0.187500 0
  0.625000   0.375000 0
  0.875000   0.375000 0
  1.000000   0.437500 0
  0.312500   0.000000 0
  0.562500   0.000000 0
  0.812500   0.000000 0
  0.250000   0.687500 0
  0.000000   0.687500 0
  0.500000   1.000000 0
  0.250000   1.000000 0
  0.000000   1.000000 0
  0.437500   0.687500 0
  0.437500   0.625000 0
  0.187500   0.625000 0
  0.687500   0.750000 0
  0.000000   0.312500 0
  0.000000   0.250000 0
  0.375000   0.375000 0
  0.375000   0.312500 0
  0.812500   0.812500 0
  0.125000   0.312500 0
  0.875000   0.625000 0
  0.187500   0.187500 0
  0.187500   0.125000 0
  0.937500   1.000000 0
  0.250000   0.562500 0
  0.250000   0.500000 0
  0.687500   1.000000 0
  0.000000   0.500000 0
  0.687500   0.687500 0
  0.000000   0.187500 0
  0.937500   0.687500 0
  0.250000   0.250000 0
  0.250000   0.187500 0
  0.187500   0.687500 0
  0.000000   0.750000 0
  0.250000   0.750000 0
  0.125000   0.625000 0
  0.750000   0.750000 0
  0.062500   0.250000 0
  0.875000   0.937500 0
  0.187500   0.500000 0
  0.187500   0.437500 0
  0.812500   0.562500 0
  0.125000   0.125000 0
  0.125000   0.062500 0
  0.375000   0.625000 0
  0.375000   0.687500 0
  1.000000   0.750000 0
  0.312500   0.250000 0
  0.312500   0.312500 0
  0.812500   0.312500 0
  0.562500   0.312500 0
  0.375000   0.750000 0
  0.500000   0.625000 0
  0.250000   0.625000 0
  0.312500   0.687500 0
  0.750000   0.812500 0
  0.062500   0.312500 0
  0.062500   0.375000 0
  1.000000   0.812500 0
  0.312500   0.375000 0
  0.562500   0.375000 0
  0.687500   0.437500 0
  0.000000   0.000000 0
  0.500000   0.000000 0
  0.937500   0.437500 0
  0.250000   0.000000 0
  0.375000   0.437500 0
  0.812500   0.875000 0
  0.125000   0.375000 0
  0.125000   0.437500 0
  0.625000   0.437500 0
  1.000000   0.500000 0
  0.312500   0.062500 0
  0.750000   0.500000 0
  0.062500   0.000000 0
  0.062500   0.062500 0
  0.562500   0.062500 0
  0.062500   0.750000 0
  0.312500   0.750000 0
  0.312500   0.625000 0
  0.312500   0.562500 0
  0.062500   0.562500 0
  0.187500   1.000000 0
  0.437500   0.562500 0
  0.875000   1.000000 0
  0.187500   0.562500 0
  0.500000   0.937500 0
  0.250000   0.937500 0
  0.312500   1.000000 0
  0.125000   0.750000 0
  0.125000   0.687500 0
  1.000000   0.000000 0
  0.000000   0.937500 0
  0.000000   0.875000 0
  0.875000   0.125000 0
  0.875000   0.187500 0
  0.062500   0.812500 0
  0.312500   0.812500 0
  0.000000   0.812500 0
  0.000000   0.625000 0
  0.000000   0.562500 0
  0.062500   1.000000 0
  0.062500   0.937500 0
  0.937500   0.187500 0
  0.937500   0.250000 0
  0.062500   0.687500 0
  0.062500   0.625000 0
  0.125000   1.000000 0
  1.000000   0.250000 0
  1.000000   0.312500 0
  0.062500   0.875000 0
  0.125000   0.812500 0
  0.375000   0.812500 0
  0.125000   0.875000 0
  0.375000   0.937500 0
  0.375000   0.875000 0
  0.187500   0.750000 0
  0.187500   0.812500 0
  0.437500   0.812500 0
  0.187500   0.875000 0
  0.437500   0.875000 0
  0.375000   0.562500 0
  0.812500   1.000000 0
  0.125000   0.562500 0
  0.437500   1.000000 0
  0.437500   0.937500 0
  0.187500   0.937500 0
  0.125000   0.937500 0
  0.500000   0.687500 0
  0.500000   0.750000 0
  0.500000   0.812500 0
  0.250000   0.812500 0
  0.250000   0.875000 0
  0.500000   0.875000 0
  0.437500   0.750000 0
  0.312500   0.875000 0
  0.312500   0.937500 0
  0.687500   0.250000 0
  0.687500   0.312500 0
  0.937500   0.312500 0
  0.875000   0.250000 0
  0.625000   0.000000 0
  0.875000   0.000000 0
  0.687500   0.375000 0
  0.937500   0.375000 0
  0.875000   0.312500 0
  0.625000   0.312500 0
  0.687500   0.000000 0
  0.937500   0.000000 0
  0.750000   0.312500 0
  0.750000   0.375000 0
  1.000000   0.375000 0
  0.812500   0.250000 0
  0.562500   0.437500 0
  0.562500   0.500000 0
  0.687500   0.062500 0
  0.750000   0.437500 0
  0.750000   0.000000 0
  0.750000   0.062500 0
  1.000000   0.062500 0
  0.812500   0.375000 0
  0.812500   0.437500 0
CELLS 256 1280
4 169 170 148 68
4 151 166 56 167
4 195 45 196 167
4 54 170 201 202
4 109 34 30 147
4 40 32 81 112
4 192 89 86 68
4 48 91 78 202
4 99 64 196 97
4 71 43 37 103
4 74 186 56 95
4 109 164 34 115
4 50 81 158 112
4 122 69 92 70
4 195 145 45 106
4 110 143 174 175
4 157 30 158 147
4 40 69 32 41
4 50 158 148 147
4 141 155 164 115
4 122 123 69 41
4 142 186 143 175
4 60 39 61 42
4 40 51 69 70
4 120 31 123 41
4 157 174 36 175
4 50 148 89 68
4 48 78 155 115
4 52 83 51 70
4 151 56 66 95
4 71 61 43 42
4 169 148 34 147
4 100 193 39 42
4 40 81 51 199
4 110 174 32 112
4 109 30 145 106
4 100 66 193 95
4 169 34 78 115
4 190 92 83 70
4 50 89 81 199
4 54 86 170 68
4 74 56 45 167
4 142 143 43 103
4 153 59 64 97
4 99 196 166 167
4 169 78 170 202
4 142 193 186 95
4 192 128 89 199
4 74 45 36 106
4 110 31 143 103
4 76 184 59 97
4 142 43 193 42
4 52 51 128 199
4 189 201 91 202
4 120 37 31 103
4 74 36 186 175
4 195 196 184 97
4 141 164 140 183
4 157 158 174 112
4 109 145 164 183
4 195 184 145 183
4 110 32 31 41
4 157 36 30 106
4 76 140 184 183
4 171 172 206 181
4 178 172 261 136
4 256 261 255 136
4 256 257 261 245
4 180 150 206 207
4 60 119 39 210
4 118 215 241 263
4 178 205 172 181
4 216 243 238 244
4 162 217 233 232
4 180 206 131 181
4 179 137 119 210
4 216 204 217 232
4 220 237 219 229
4 216 217 243 159
4 259 258 262 224
4 240 254 237 229
4 153 64 227 208
4 161 205 258 224
4 240 237 238 223
4 226 227 233 208
4 234 228 254 229
4 171 248 137 210
4 160 132 204 232
4 180 131 138 159
4 133 251 213 252
4 171 206 248 207
4 162 138 217 159
4 161 258 243 244
4 220 225 237 223
4 151 150 166 212
4 260 247 257 245
4 259 262 214 263
4 151 66 150 207
4 234 254 209 253
4 162 233 250 208
4 242 241 262 263
4 171 137 172 136
4 161 243 131 159
4 160 204 225 223
4 161 131 205 181
4 179 255 137 136
4 216 238 204 223
4 100 39 248 210
4 260 213 247 252
4 226 233 132 232
4 134 214 215 263
4 180 138 150 212
4 178 261 239 245
4 259 246 258 244
4 178 239 205 224
4 240 238 246 244
4 242 262 239 224
4 99 250 64 208
4 240 246 254 253
4 242 239 247 245
4 135 219 228 229
4 99 166 250 212
4 259 214 246 253
4 118 241 251 252
4 100 248 66 207
4 134 209 214 253
4 162 250 138 212
4 242 247 241 252
4 71 187 61 280
4 102 281 197 280
4 122 92 82 203
4 17 18 82 117
4 122 82 123 117
4 19 264 273 265
4 267 279 222 20
4 125 273 270 265
4 267 272 279 176
4 19 116 18 117
4 21 25 286 24
4 23 28 26 20
4 23 285 28 27
4 218 286 275 24
4 85 53 84 288
4 235 236 231 266
4 221 222 28 20
4 267 222 231 230
4 268 38 129 203
4 125 270 197 188
4 126 287 272 176
4 277 270 276 265
4 267 231 272 266
4 125 197 187 280
4 190 129 92 203
4 277 276 287 176
4 19 18 264 22
4 17 82 38 203
4 102 197 90 188
4 126 84 287 288
4 284 130 285 27
4 121 276 264 265
4 71 37 187 177
4 120 123 116 117
4 198 88 127 191
4 221 16 25 24
4 23 26 15 22
4 121 279 276 176
4 235 231 124 230
4 125 187 273 177
4 278 271 236 266
4 277 287 283 288
4 284 285 274 282
4 278 127 271 191
4 269 275 16 24
4 200 283 53 288
4 23 15 285 282
4 121 26 279 20
4 21 124 25 230
4 19 273 116 177
4 200 90 283 188
4 126 271 84 191
4 269 16 130 27
4 17 38 15 282
4 221 25 222 230
4 121 264 26 22
4 120 116 37 177
4 60 61 281 280
4 277 283 270 188
4 126 272 271 266
4 268 274 38 282
4 85 84 88 191
4 17 15 18 22
4 221 28 16 27
4 93 94 73 55
4 85 88 67 87
4 80 49 79 87
4 44 104 73 72
4 146 33 67 168
4 211 165 149 55
4 8 47 14 154
4 105 104 108 144
4 105 108 29 107
4 7 139 13 75
4 44 165 194 98
4 200 53 77 168
4 8 1 101 4
4 2 5 152 58
4 260 6 213 3
4 105 35 104 72
4 96 57 182 75
4 7 14 139 154
4 146 29 33 107
4 7 13 10 9
4 12 13 57 75
4 85 67 53 168
4 44 73 165 55
4 63 152 62 58
4 8 101 47 46
4 96 182 194 144
4 60 281 119 4
4 12 5 6 3
4 173 185 35 72
4 65 149 94 55
4 146 67 49 87
4 114 113 47 154
4 163 108 182 144
4 12 6 13 9
4 173 35 111 156
4 163 182 139 75
4 260 257 6 9
4 105 29 35 156
4 163 139 113 154
4 256 10 257 9
4 146 49 29 156
4 163 113 108 107
4 80 111 49 156
4 102 101 281 4
4 12 57 5 58
4 44 194 104 144
4 96 194 62 98
4 2 0 5 3
4 93 73 185 72
4 179 119 1 4
4 200 77 90 46
4 114 33 113 107
4 7 10 14 11
4 96 62 57 58
4 133 213 0 3
4 102 90 101 46
4 256 255 10 11
4 63 62 249 98
4 114 47 77 46
4 179 1 255 11
4 211 249 165 98
4 114 77 33 168
4 198 79 88 87
4 8 14 1 11
CELL_TYPES 256
8
8
8
8
8
8
8
8
8
8
8
8
8
8
8
8
8
8
8
8
8
8
8
8
8
8
8
8
8
8
8
8
8
8
8
8
8
8
8
8
8
8
8
8
8
8
8
8
8
8
8
8
8
8
8
8
8
8
8
8
8
8
8
8
8
8
8
8
8
8
8
8
8
8
8
8
8
8
8
8
8
8
8
8
8
8
8
8
8
8
8
8
8
8
8
8
8
8
8
8
8
8
8
8
8
8
8
8
8
8
8
8
8
8
8
8
8
8
8
8
8
8
8
8
8
8
8
8
8
8
8
8
8
8
8
8
8
8
8
8
8
8
8
8
8
8
8
8
8
8
8
8
8
8
8
8
8
8
8
8
8
8
8
8
8
8
8
8
8
8
8
8
8
8
8
8
8
8
8
8
8
8
8
8
8
8
8
8
8
8
8
8
8
8
8
8
8
8
8
8
8
8
8
8
8
8
8
8
8
8
8
8
8
8
8
8
8
8
8
8
8
8
8
8
8
8
8
8
8
8
8
8
8
8
8
8
8
8
8
8
8
8
8
8
8
8
8
8
8
8
8
8
8
8
8
8
CELL_DATA 256
VECTORS vector_value float
-0.213346 -0.898532 0
-0.452009 -1.03791 0
-0.259327 -0.748077 0
-0.02358 -0.749087 0
0.0120051 -1.2417 0
0.404159 -0.975855 0
-0.00741566 -0.489435 0
-0.08644 -0.47593 0
-0.0912839 -0.222146 0
-0.00750398 -0.337841 0
-0.243381 -1.2513 0
-0.0583836 -0.581432 0
0.275971 -1.21053 0
0.141298 -0.657955 0
-0.263874 -0.882814 0
-0.404504 -0.788043 0
0.0991591 -1.14312 0
0.351094 -0.707511 0
0.0917436 -1.02097 0
-0.0295763 -0.239661 0
0.0404278 -0.285322 0
-0.208432 -1.30785 0
-0.153555 -0.405585 0
0.279664 -0.791189 0
-0.046142 -0.214313 0
-0.593983 -1.0193 0
-0.0660048 -0.740184 0
-0.0534804 -0.317318 0
0.252335 -1.14226 0
-0.177092 -1.05284 0
-0.0444079 -0.302658 0
-0.112781 -0.955519 0
-0.0210217 -0.971081 0
0.42749 -0.790985 0
-0.209233 -0.866261 0
0.0306581 -1.17509 0
-0.0775739 -1.45656 0
-0.160821 -0.675109 0
0.042493 -0.88956 0
0.225797 -1.10253 0
-0.0324696 -0.958639 0
-0.161328 -0.617622 0
-0.0903362 -0.96477 0
-0.0287253 -0.27739 0
-0.380437 -0.544681 0
-0.180177 -0.723314 0
-0.100358 -1.14053 0
0.0281938 -0.887004 0
-0.469075 -0.847739 0
-0.12813 -0.828957 0
0.00254052 -0.300821 0
-0.09162 -1.19755 0
0.115207 -0.533879 0
-0.0113563 -0.57187 0
-0.0339757 -0.31069 0
-0.229064 -0.731553 0
-0.141553 -0.490975 0
-0.00219694 -0.205901 0
0.0198845 -1.21047 0
0.0799035 -0.677924 0
-0.034534 -0.782116 0
-0.184425 -0.592169 0
-0.244877 -1.08023 0
0.0385276 -0.223564 0
-0.476795 -1.28504 0
-0.465798 -1.13908 0
-0.298779 -0.819559 0
-0.0411315 -1.14279 0
0.0366595 -1.72716 0
-0.161467 -0.332153 0
1.22611 -0.962448 0
-0.307421 -0.991672 0
0.156974 -0.115972 0
0.200838 -0.28023 0
-0.0125862 -1.50436 0
-0.0395062 -0.169953 0
0.882717 -0.621584 0
-0.104931 -1.70269 0
0.58988 -0.315318 0
0.370244 -0.846824 0
0.012263 -0.169775 0
-0.00752003 -0.218458 0
0.178681 -0.673057 0
0.0801721 -0.108913 0
-0.00216929 -0.226662 0
-0.279488 -0.73849 0
-0.0552752 -0.647843 0
0.301259 -0.525573 0
0.360017 -0.406973 0
1.35119 -1.10285 0
-0.0712031 -1.73772 0
0.580578 -0.514907 0
0.13829 -0.177916 0
0.110265 -1.68868 0
-0.314298 -0.836724 0
0.22313 -0.889641 0
0.63957 -1.06254 0
-0.371467 -1.42159 0
0.556637 -0.428027 0
-0.0190362 -0.100504 0
0.659613 -0.734666 0
-0.553487 -1.1347 0
0.388548 -0.256284 0
0.323474 -1.34167 0
0.0658457 -0.941126 0
-0.093876 -0.262079 0
0.326875 -0.303618 0
0.0381256 -0.62388 0
0.851938 -1.12604 0
0.0236287 -0.200176 0
1.07889 -0.838937 0
0.0356216 -0.737952 0
-0.0538539 -1.08396 0
0.184281 -0.271396 0
0.106072 -0.776555 0
0.0706936 -0.0580372 0
0.476646 -0.602371 0
-0.0442559 -0.191951 0
0.0724722 -0.0818844 0
0.439572 -1.11324 0
-0.261127 -1.28911 0
-0.0807747 -0.237703 0
0.238211 -0.471534 0
1.32605 -0.815152 0
0.0364466 -1.90255 0
1.15359 -1.01534 0
-0.0325766 -0.256699 0
0.738118 -0.817103 0
-0.0160716 -0.064042 0
0.0374746 -0.115957 0
-0.0969439 -0.177623 0
-0.0909466 -0.063921 0
-0.066242 -0.0832802 0
-0.000798611 -0.0333007 0
-1.21894 -4.06861 0
0.0181094 -0.0560912 0
-0.463701 -5.08376 0
-0.0721526 -0.0400662 0
0.0294948 -0.372511 0
-0.730733 -3.70134 0
-0.191255 -2.98448 0
0.00406317 -0.402646 0
0.783061 -4.06883 0
0.0326441 -0.348236 0
-0.624101 -3.42426 0
-0.442221 -2.20544 0
-0.136923 -0.320526 0
0.0467346 -0.115566 0
0.367489 -5.71922 0
0.085066 -0.150552 0
0.0683708 -2.43664 0
0.00437449 -0.0484478 0
-0.0614205 -0.278273 0
0.339859 -1.26449 0
-0.0967077 -0.0523116 0
-0.239137 -0.186045 0
0.171957 -0.25954 0
0.545361 -5.13048 0
-0.0541369 -3.04988 0
-0.0161668 -0.146828 0
-0.00838046 -0.0376921 0
-0.0438347 -0.0666887 0
0.0174855 -0.411724 0
0.00630106 -0.679342 0
-0.615381 -0.757123 0
-0.523109 -1.7936 0
-0.039724 -0.398092 0
0.00134872 -0.0382665 0
-0.0647531 -0.320249 0
0.71252 -1.83102 0
-0.0733979 -0.579062 0
0.00168111 -0.476886 0
0.018932 -0.727155 0
1.13574 -2.21993 0
-0.361726 -0.818276 0
-0.971484 -2.68995 0
0.0225482 -0.280653 0
-0.00912054 -0.0432809 0
0.621172 -0.908649 0
0.0885153 -1.9792 0
-0.0161744 -3.91977 0
-0.416404 -0.370524 0
-0.390358 -1.3942 0
-0.286087 -0.389714 0
-0.00392768 -0.0282247 0
-0.0536587 -0.136489 0
0.193031 -0.304825 0
0.0268159 -2.33519 0
-0.174877 -0.500958 0
-0.00690965 -1.91068 0
-0.232877 -0.147093 0
-0.118271 -4.23058 0
0.0253239 -0.459747 0
-0.113367 -2.14873 0
-0.107595 -0.681294 0
0.110051 -0.454387 0
0.225662 -0.616025 0
-0.785578 -0.815281 0
1.00141 -2.56172 0
0.488821 -1.5931 0
0.337744 -1.10116 0
-0.241519 -2.32539 0
-0.0917587 -0.696051 0
2.44948 -2.46378 0
0.384885 -0.995312 0
0.698604 -1.11358 0
0.842689 -0.752889 0
0.312611 -0.450231 0
-0.171098 -2.01562 0
0.118624 -3.18371 0
0.170259 -0.684562 0
0.021289 -1.63963 0
-0.164223 -2.10922 0
1.02035 -1.71963 0
-0.0367731 -0.405365 0
0.254187 -1.41569 0
1.26916 -1.5435 0
0.434341 -2.21882 0
-0.133802 -0.348567 0
1.15783 -1.44229 0
0.105784 -0.635524 0
-0.290197 -0.50866 0
0.00436038 -1.67335 0
0.627515 -1.90191 0
0.0980756 -1.08762 0
0.0313012 -1.41307 0
0.038878 -0.869714 0
-0.356684 -1.80963 0
0.208552 -0.91337 0
0.324893 -0.728835 0
0.122817 -1.1207 0
-0.045403 -0.84333 0
0.083735 -1.27874 0
-0.0215066 -1.13899 0
-0.0599656 -0.841175 0
0.123476 -0.287651 0
0.813485 -1.86207 0
0.339721 -0.806797 0
-0.144875 -2.19899 0
1.06265 -1.2023 0
0.0525136 -0.489611 0
-0.0650851 -0.42719 0
1.6481 -2.1373 0
0.192031 -0.937368 0
0.124238 -1.353 0
0.195231 -2.01637 0
1.43221 -1.06404 0
0.589167 -0.723107 0
0.109334 -0.893705 0
-0.622166 -1.67236 0
2.01017 -2.98777 0
0.130882 -0.626953 0
-1.15853 -1.01773 0
0.962701 -1.47106 0
-0.0661812 -0.406234 0
0.416326 -1.57912 0
