# vtk DataFile Version 2.0
Unstructured Grid by M++
ASCII
DATASET UNSTRUCTURED_GRID
POINTS 81 float
  1.000000   0.625000 0
  0.750000   0.375000 0
  1.000000   0.000000 0
  0.875000   0.875000 0
  0.750000   0.125000 0
  1.000000   1.000000 0
  0.875000   0.250000 0
  0.625000   0.875000 0
  1.000000   0.750000 0
  0.875000   0.000000 0
  1.000000   0.250000 0
  0.625000   0.375000 0
  0.875000   0.500000 0
  0.625000   0.625000 0
  1.000000   0.500000 0
  0.750000   0.500000 0
  0.750000   1.000000 0
  1.000000   0.125000 0
  0.625000   0.250000 0
  0.750000   0.750000 0
  0.625000   0.000000 0
  0.125000   0.375000 0
  0.000000   0.500000 0
  0.125000   0.625000 0
  0.625000   1.000000 0
  1.000000   0.875000 0
  0.875000   0.125000 0
  0.500000   0.250000 0
  0.625000   0.500000 0
  0.250000   0.625000 0
  0.000000   0.625000 0
  0.375000   0.500000 0
  0.375000   0.000000 0
  0.000000   0.125000 0
  0.125000   0.875000 0
  0.875000   1.000000 0
  0.750000   0.250000 0
  0.375000   0.375000 0
  0.250000   0.375000 0
  0.625000   0.750000 0
  0.125000   0.125000 0
  0.500000   0.000000 0
  0.250000   0.875000 0
  0.125000   0.500000 0
  0.500000   0.375000 0
  0.125000   0.000000 0
  0.250000   0.750000 0
  0.250000   0.500000 0
  0.000000   0.875000 0
  0.875000   0.625000 0
  0.500000   0.750000 0
  0.750000   0.625000 0
  0.250000   0.000000 0
  0.375000   0.750000 0
  0.750000   0.875000 0
  0.625000   0.125000 0
  0.250000   0.250000 0
  0.375000   1.000000 0
  0.375000   0.250000 0
  0.000000   0.375000 0
  0.500000   1.000000 0
  0.875000   0.750000 0
  0.750000   0.000000 0
  0.375000   0.125000 0
  0.500000   0.875000 0
  0.000000   0.000000 0
  0.125000   0.750000 0
  0.500000   0.625000 0
  0.125000   0.250000 0
  0.500000   0.125000 0
  0.250000   1.000000 0
  0.250000   0.125000 0
  0.000000   1.000000 0
  0.375000   0.875000 0
  0.000000   0.750000 0
  0.375000   0.625000 0
  0.000000   0.250000 0
  0.125000   1.000000 0
  1.000000   0.375000 0
  0.500000   0.500000 0
  0.875000   0.375000 0
CELLS 64 320
4 56 71 58 63
4 27 58 69 63
4 41 69 32 63
4 76 33 68 40
4 27 44 58 37
4 79 31 44 37
4 56 38 68 21
4 56 58 38 37
4 52 32 71 63
4 47 38 31 37
4 76 68 59 21
4 22 59 43 21
4 65 45 33 40
4 47 43 38 21
4 52 71 45 40
4 56 68 71 40
4 74 30 66 23
4 46 66 29 23
4 22 43 30 23
4 72 48 77 34
4 46 53 42 73
4 50 64 53 73
4 70 42 57 73
4 74 66 48 34
4 46 42 66 34
4 47 29 43 23
4 70 77 42 34
4 60 57 64 73
4 79 67 31 75
4 47 31 29 75
4 50 53 67 75
4 46 29 53 75
4 10 78 6 80
4 36 6 1 80
4 15 1 12 80
4 36 4 6 26
4 14 12 78 80
4 2 17 9 26
4 36 18 4 55
4 15 28 1 11
4 62 4 20 55
4 10 6 17 26
4 27 18 44 11
4 62 9 4 26
4 27 69 18 55
4 36 1 18 11
4 41 20 69 55
4 79 44 28 11
4 16 24 54 7
4 19 54 39 7
4 50 39 64 7
4 8 25 61 3
4 60 64 24 7
4 79 28 67 13
4 19 51 61 49
4 8 61 0 49
4 15 51 28 13
4 19 39 51 13
4 50 67 39 13
4 19 61 54 3
4 14 0 12 49
4 5 35 25 3
4 15 12 51 49
4 16 54 35 3
CELL_TYPES 64
8
8
8
8
8
8
8
8
8
8
8
8
8
8
8
8
8
8
8
8
8
8
8
8
8
8
8
8
8
8
8
8
8
8
8
8
8
8
8
8
8
8
8
8
8
8
8
8
8
8
8
8
8
8
8
8
8
8
8
8
8
8
8
8
CELL_DATA 64
VECTORS vector_value float
0.127151 -0.450412 0
0.0155852 -0.820934 0
-0.0105262 -0.797517 0
0.00313421 -0.324114 0
-0.0577339 -0.293892 0
-0.1381 -0.67794 0
0.230289 -1.8899 0
-0.192931 -0.910412 0
0.192447 -0.994363 0
-0.129966 -0.711502 0
0.173938 -0.494726 0
0.0832576 -1.18453 0
-0.0262558 -0.411948 0
-0.0732249 -1.01518 0
0.0751181 -1.63573 0
0.140284 -2.24358 0
0.229549 -0.972125 0
0.254034 -1.05919 0
-0.0313209 -0.770447 0
-0.213248 -1.31026 0
-0.00168892 -0.554967 0
-0.0270325 -0.515743 0
0.239064 -0.628061 0
0.0705955 -1.43319 0
0.0176724 -0.536163 0
-0.161861 -1.26568 0
-0.199605 -0.697039 0
0.688025 -0.783613 0
-0.135427 -0.894798 0
-0.120201 -0.785538 0
-0.277347 -0.676558 0
-0.126662 -0.657207 0
-0.136382 -1.62429 0
-0.0030457 -1.75443 0
-0.142958 -1.93803 0
-0.162164 -2.63402 0
-0.069266 -1.45908 0
0.0741447 -1.14789 0
0.0203598 -0.114536 0
0.0122191 -0.302524 0
-0.0460852 -0.322031 0
-0.120594 -0.994733 0
-0.0835832 -0.620326 0
0.0173056 -2.33424 0
-0.0610083 -0.417676 0
0.100939 -0.412015 0
0.0307855 -0.356278 0
0.104573 -0.711211 0
0.898654 -0.798322 0
0.152401 -0.716981 0
-0.0623841 -1.02271 0
0.252322 -1.39631 0
0.873116 -1.19375 0
-0.0721996 -0.583744 0
0.0606324 -1.26992 0
0.153321 -2.1144 0
0.00593228 -0.304004 0
-0.00895473 -0.313078 0
-0.241868 -0.937525 0
0.547511 -1.82394 0
-0.228472 -2.00408 0
0.161231 -1.30496 0
-0.138767 -1.39172 0
0.639381 -1.28399 0
