# vtk DataFile Version 2.0
Unstructured Grid by M++
ASCII
DATASET UNSTRUCTURED_GRID
POINTS 289 float
  0.562500   1.000000 0
  0.562500   0.625000 0
  0.625000   1.000000 0
  0.562500   0.937500 0
  0.562500   0.562500 0
  0.625000   0.937500 0
  0.562500   0.875000 0
  0.625000   0.750000 0
  0.625000   0.625000 0
  0.562500   0.812500 0
  0.562500   0.750000 0
  0.562500   0.687500 0
  0.625000   0.875000 0
  0.625000   0.812500 0
  0.625000   0.687500 0
  0.687500   0.125000 0
  0.875000   0.062500 0
  0.625000   0.125000 0
  0.625000   0.187500 0
  0.625000   0.250000 0
  0.812500   0.187500 0
  1.000000   0.125000 0
  0.687500   0.187500 0
  0.750000   0.125000 0
  0.937500   0.062500 0
  0.937500   0.125000 0
  0.750000   0.187500 0
  0.812500   0.062500 0
  0.812500   0.125000 0
  0.875000   0.687500 0
  0.187500   0.250000 0
  0.437500   0.250000 0
  0.375000   0.187500 0
  0.812500   0.625000 0
  0.125000   0.187500 0
  0.937500   0.750000 0
  0.250000   0.312500 0
  0.500000   0.312500 0
  0.625000   0.062500 0
  0.437500   0.500000 0
  0.375000   0.125000 0
  0.437500   0.187500 0
  0.437500   0.437500 0
  0.437500   0.375000 0
  0.875000   0.875000 0
  0.187500   0.375000 0
  0.687500   0.562500 0
  0.687500   0.625000 0
  0.000000   0.125000 0
  0.937500   0.625000 0
  0.250000   0.125000 0
  0.375000   0.062500 0
  0.375000   0.000000 0
  0.812500   0.500000 0
  0.125000   0.000000 0
  0.937500   0.937500 0
  0.250000   0.437500 0
  0.687500   0.875000 0
  0.687500   0.937500 0
  0.000000   0.437500 0
  0.500000   0.500000 0
  0.500000   0.437500 0
  0.750000   0.937500 0
  0.750000   1.000000 0
  0.062500   0.500000 0
  1.000000   1.000000 0
  0.312500   0.500000 0
  0.875000   0.562500 0
  0.187500   0.062500 0
  0.437500   0.125000 0
  0.437500   0.062500 0
  0.500000   0.375000 0
  0.937500   0.812500 0
  0.937500   0.875000 0
  0.250000   0.375000 0
  0.687500   0.812500 0
  0.000000   0.375000 0
  0.750000   0.562500 0
  0.062500   0.125000 0
  1.000000   0.562500 0
  1.000000   0.625000 0
  0.312500   0.125000 0
  0.562500   0.125000 0
  0.437500   0.000000 0
  0.875000   0.437500 0
  0.875000   0.500000 0
  0.187500   0.000000 0
  0.937500   0.562500 0
  0.937500   0.500000 0
  0.250000   0.062500 0
  0.687500   0.500000 0
  0.000000   0.062500 0
  0.500000   0.062500 0
  1.000000   0.875000 0
  1.000000   0.937500 0
  0.312500   0.437500 0
  0.750000   0.875000 0
  0.062500   0.437500 0
  0.812500   0.937500 0
  0.125000   0.500000 0
  0.375000   0.500000 0
  0.625000   0.562500 0
  0.625000   0.500000 0
  0.437500   0.312500 0
  0.875000   0.812500 0
  0.875000   0.750000 0
  0.187500   0.312500 0
  0.812500   0.687500 0
  0.812500   0.750000 0
  0.125000   0.250000 0
  0.375000   0.250000 0
  1.000000   0.687500 0
  0.312500   0.187500 0
  0.750000   0.687500 0
  0.750000   0.625000 0
  0.062500   0.187500 0
  0.562500   0.250000 0
  0.562500   0.187500 0
  0.375000   1.000000 0
  0.500000   0.562500 0
  0.500000   0.250000 0
  0.750000   0.250000 0
  0.500000   0.125000 0
  0.500000   0.187500 0
  1.000000   0.187500 0
  0.625000   0.375000 0
  0.875000   0.375000 0
  1.000000   0.437500 0
  0.312500   0.000000 0
  0.562500   0.000000 0
  0.812500   0.000000 0
  0.250000   0.687500 0
  0.000000   0.687500 0
  0.500000   1.000000 0
  0.250000   1.000000 0
  0.000000   1.000000 0
  0.437500   0.687500 0
  0.437500   0.625000 0
  0.187500   0.625000 0
  0.687500   0.750000 0
  0.000000   0.312500 0
  0.000000   0.250000 0
  0.375000   0.375000 0
  0.375000   0.312500 0
  0.812500   0.812500 0
  0.125000   0.312500 0
  0.875000   0.625000 0
  0.187500   0.187500 0
  0.187500   0.125000 0
  0.937500   1.000000 0
  0.250000   0.562500 0
  0.250000   0.500000 0
  0.687500   1.000000 0
  0.000000   0.500000 0
  0.687500   0.687500 0
  0.000000   0.187500 0
  0.937500   0.687500 0
  0.250000   0.250000 0
  0.250000   0.187500 0
  0.187500   0.687500 0
  0.000000   0.750000 0
  0.250000   0.750000 0
  0.125000   0.625000 0
  0.750000   0.750000 0
  0.062500   0.250000 0
  0.875000   0.937500 0
  0.187500   0.500000 0
  0.187500   0.437500 0
  0.812500   0.562500 0
  0.125000   0.125000 0
  0.125000   0.062500 0
  0.375000   0.625000 0
  0.375000   0.687500 0
  1.000000   0.750000 0
  0.312500   0.250000 0
  0.312500   0.312500 0
  0.812500   0.312500 0
  0.562500   0.312500 0
  0.375000   0.750000 0
  0.500000   0.625000 0
  0.250000   0.625000 0
  0.312500   0.687500 0
  0.750000   0.812500 0
  0.062500   0.312500 0
  0.062500   0.375000 0
  1.000000   0.812500 0
  0.312500   0.375000 0
  0.562500   0.375000 0
  0.687500   0.437500 0
  0.000000   0.000000 0
  0.500000   0.000000 0
  0.937500   0.437500 0
  0.250000   0.000000 0
  0.375000   0.437500 0
  0.812500   0.875000 0
  0.125000   0.375000 0
  0.125000   0.437500 0
  0.625000   0.437500 0
  1.000000   0.500000 0
  0.312500   0.062500 0
  0.750000   0.500000 0
  0.062500   0.000000 0
  0.062500   0.062500 0
  0.562500   0.062500 0
  0.062500   0.750000 0
  0.312500   0.750000 0
  0.312500   0.625000 0
  0.312500   0.562500 0
  0.062500   0.562500 0
  0.187500   1.000000 0
  0.437500   0.562500 0
  0.875000   1.000000 0
  0.187500   0.562500 0
  0.500000   0.937500 0
  0.250000   0.937500 0
  0.312500   1.000000 0
  0.125000   0.750000 0
  0.125000   0.687500 0
  1.000000   0.000000 0
  0.000000   0.937500 0
  0.000000   0.875000 0
  0.875000   0.125000 0
  0.875000   0.187500 0
  0.062500   0.812500 0
  0.312500   0.812500 0
  0.000000   0.812500 0
  0.000000   0.625000 0
  0.000000   0.562500 0
  0.062500   1.000000 0
  0.062500   0.937500 0
  0.937500   0.187500 0
  0.937500   0.250000 0
  0.062500   0.687500 0
  0.062500   0.625000 0
  0.125000   1.000000 0
  1.000000   0.250000 0
  1.000000   0.312500 0
  0.062500   0.875000 0
  0.125000   0.812500 0
  0.375000   0.812500 0
  0.125000   0.875000 0
  0.375000   0.937500 0
  0.375000   0.875000 0
  0.187500   0.750000 0
  0.187500   0.812500 0
  0.437500   0.812500 0
  0.187500   0.875000 0
  0.437500   0.875000 0
  0.375000   0.562500 0
  0.812500   1.000000 0
  0.125000   0.562500 0
  0.437500   1.000000 0
  0.437500   0.937500 0
  0.187500   0.937500 0
  0.125000   0.937500 0
  0.500000   0.687500 0
  0.500000   0.750000 0
  0.500000   0.812500 0
  0.250000   0.812500 0
  0.250000   0.875000 0
  0.500000   0.875000 0
  0.437500   0.750000 0
  0.312500   0.875000 0
  0.312500   0.937500 0
  0.687500   0.250000 0
  0.687500   0.312500 0
  0.937500   0.312500 0
  0.875000   0.250000 0
  0.625000   0.000000 0
  0.875000   0.000000 0
  0.687500   0.375000 0
  0.937500   0.375000 0
  0.875000   0.312500 0
  0.625000   0.312500 0
  0.687500   0.000000 0
  0.937500   0.000000 0
  0.750000   0.312500 0
  0.750000   0.375000 0
  1.000000   0.375000 0
  0.812500   0.250000 0
  0.562500   0.437500 0
  0.562500   0.500000 0
  0.687500   0.062500 0
  0.750000   0.437500 0
  0.750000   0.000000 0
  0.750000   0.062500 0
  1.000000   0.062500 0
  0.812500   0.375000 0
  0.812500   0.437500 0
CELLS 256 1280
4 169 170 148 68
4 151 166 56 167
4 195 45 196 167
4 54 170 201 202
4 109 34 30 147
4 40 32 81 112
4 192 89 86 68
4 48 91 78 202
4 99 64 196 97
4 71 43 37 103
4 74 186 56 95
4 109 164 34 115
4 50 81 158 112
4 122 69 92 70
4 195 145 45 106
4 110 143 174 175
4 157 30 158 147
4 40 69 32 41
4 50 158 148 147
4 141 155 164 115
4 122 123 69 41
4 142 186 143 175
4 60 39 61 42
4 40 51 69 70
4 120 31 123 41
4 157 174 36 175
4 50 148 89 68
4 48 78 155 115
4 52 83 51 70
4 151 56 66 95
4 71 61 43 42
4 169 148 34 147
4 100 193 39 42
4 40 81 51 199
4 110 174 32 112
4 109 30 145 106
4 100 66 193 95
4 169 34 78 115
4 190 92 83 70
4 50 89 81 199
4 54 86 170 68
4 74 56 45 167
4 142 143 43 103
4 153 59 64 97
4 99 196 166 167
4 169 78 170 202
4 142 193 186 95
4 192 128 89 199
4 74 45 36 106
4 110 31 143 103
4 76 184 59 97
4 142 43 193 42
4 52 51 128 199
4 189 201 91 202
4 120 37 31 103
4 74 36 186 175
4 195 196 184 97
4 141 164 140 183
4 157 158 174 112
4 109 145 164 183
4 195 184 145 183
4 110 32 31 41
4 157 36 30 106
4 76 140 184 183
4 171 172 206 181
4 178 172 261 136
4 256 261 255 136
4 256 257 261 245
4 180 150 206 207
4 60 119 39 210
4 118 215 241 263
4 178 205 172 181
4 216 243 238 244
4 162 217 233 232
4 180 206 131 181
4 179 137 119 210
4 216 204 217 232
4 220 237 219 229
4 216 217 243 159
4 259 258 262 224
4 240 254 237 229
4 153 64 227 208
4 161 205 258 224
4 240 237 238 223
4 226 227 233 208
4 234 228 254 229
4 171 248 137 210
4 160 132 204 232
4 180 131 138 159
4 133 251 213 252
4 171 206 248 207
4 162 138 217 159
4 161 258 243 244
4 220 225 237 223
4 151 150 166 212
4 260 247 257 245
4 259 262 214 263
4 151 66 150 207
4 234 254 209 253
4 162 233 250 208
4 242 241 262 263
4 171 137 172 136
4 161 243 131 159
4 160 204 225 223
4 161 131 205 181
4 179 255 137 136
4 216 238 204 223
4 100 39 248 210
4 260 213 247 252
4 226 233 132 232
4 134 214 215 263
4 180 138 150 212
4 178 261 239 245
4 259 246 258 244
4 178 239 205 224
4 240 238 246 244
4 242 262 239 224
4 99 250 64 208
4 240 246 254 253
4 242 239 247 245
4 135 219 228 229
4 99 166 250 212
4 259 214 246 253
4 118 241 251 252
4 100 248 66 207
4 134 209 214 253
4 162 250 138 212
4 242 247 241 252
4 71 187 61 280
4 102 281 197 280
4 122 92 82 203
4 17 18 82 117
4 122 82 123 117
4 19 264 273 265
4 267 279 222 20
4 125 273 270 265
4 267 272 279 176
4 19 116 18 117
4 21 25 286 24
4 23 28 26 20
4 23 285 28 27
4 218 286 275 24
4 85 53 84 288
4 235 236 231 266
4 221 222 28 20
4 267 222 231 230
4 268 38 129 203
4 125 270 197 188
4 126 287 272 176
4 277 270 276 265
4 267 231 272 266
4 125 197 187 280
4 190 129 92 203
4 277 276 287 176
4 19 18 264 22
4 17 82 38 203
4 102 197 90 188
4 126 84 287 288
4 284 130 285 27
4 121 276 264 265
4 71 37 187 177
4 120 123 116 117
4 198 88 127 191
4 221 16 25 24
4 23 26 15 22
4 121 279 276 176
4 235 231 124 230
4 125 187 273 177
4 278 271 236 266
4 277 287 283 288
4 284 285 274 282
4 278 127 271 191
4 269 275 16 24
4 200 283 53 288
4 23 15 285 282
4 121 26 279 20
4 21 124 25 230
4 19 273 116 177
4 200 90 283 188
4 126 271 84 191
4 269 16 130 27
4 17 38 15 282
4 221 25 222 230
4 121 264 26 22
4 120 116 37 177
4 60 61 281 280
4 277 283 270 188
4 126 272 271 266
4 268 274 38 282
4 85 84 88 191
4 17 15 18 22
4 221 28 16 27
4 93 94 73 55
4 85 88 67 87
4 80 49 79 87
4 44 104 73 72
4 146 33 67 168
4 211 165 149 55
4 8 47 14 154
4 105 104 108 144
4 105 108 29 107
4 7 139 13 75
4 44 165 194 98
4 200 53 77 168
4 8 1 101 4
4 2 5 152 58
4 260 6 213 3
4 105 35 104 72
4 96 57 182 75
4 7 14 139 154
4 146 29 33 107
4 7 13 10 9
4 12 13 57 75
4 85 67 53 168
4 44 73 165 55
4 63 152 62 58
4 8 101 47 46
4 96 182 194 144
4 60 281 119 4
4 12 5 6 3
4 173 185 35 72
4 65 149 94 55
4 146 67 49 87
4 114 113 47 154
4 163 108 182 144
4 12 6 13 9
4 173 35 111 156
4 163 182 139 75
4 260 257 6 9
4 105 29 35 156
4 163 139 113 154
4 256 10 257 9
4 146 49 29 156
4 163 113 108 107
4 80 111 49 156
4 102 101 281 4
4 12 57 5 58
4 44 194 104 144
4 96 194 62 98
4 2 0 5 3
4 93 73 185 72
4 179 119 1 4
4 200 77 90 46
4 114 33 113 107
4 7 10 14 11
4 96 62 57 58
4 133 213 0 3
4 102 90 101 46
4 256 255 10 11
4 63 62 249 98
4 114 47 77 46
4 179 1 255 11
4 211 249 165 98
4 114 77 33 168
4 198 79 88 87
4 8 14 1 11
CELL_TYPES 256
8
8
8
8
8
8
8
8
8
8
8
8
8
8
8
8
8
8
8
8
8
8
8
8
8
8
8
8
8
8
8
8
8
8
8
8
8
8
8
8
8
8
8
8
8
8
8
8
8
8
8
8
8
8
8
8
8
8
8
8
8
8
8
8
8
8
8
8
8
8
8
8
8
8
8
8
8
8
8
8
8
8
8
8
8
8
8
8
8
8
8
8
8
8
8
8
8
8
8
8
8
8
8
8
8
8
8
8
8
8
8
8
8
8
8
8
8
8
8
8
8
8
8
8
8
8
8
8
8
8
8
8
8
8
8
8
8
8
8
8
8
8
8
8
8
8
8
8
8
8
8
8
8
8
8
8
8
8
8
8
8
8
8
8
8
8
8
8
8
8
8
8
8
8
8
8
8
8
8
8
8
8
8
8
8
8
8
8
8
8
8
8
8
8
8
8
8
8
8
8
8
8
8
8
8
8
8
8
8
8
8
8
8
8
8
8
8
8
8
8
8
8
8
8
8
8
8
8
8
8
8
8
8
8
8
8
8
8
8
8
8
8
8
8
8
8
8
8
8
8
8
8
8
8
8
8
CELL_DATA 256
VECTORS vector_value float
-0.2753 -0.771817 0
0.0799762 -0.272191 0
0.740482 -2.0591 0
-0.198939 -1.94018 0
-0.725577 -2.11952 0
0.093904 -0.19961 0
0.00543324 -0.118635 0
-1.22038 -5.20532 0
0.864597 -4.54765 0
0.104525 -0.172842 0
-0.0645214 -0.262625 0
-0.292462 -4.15147 0
0.0763389 -0.177348 0
-0.00196425 -0.729119 0
-0.189889 -2.23093 0
0.0135915 -0.308841 0
-0.228643 -0.515227 0
0.118198 -0.28413 0
-0.0441043 -0.327901 0
-0.0141993 -2.53421 0
-0.071303 -0.353862 0
-0.111857 -0.491892 0
0.239625 -0.381332 0
0.180027 -0.267487 0
-0.0167057 -0.13403 0
-0.0931346 -0.364713 0
-0.00529458 -0.144276 0
-0.507807 -3.24715 0
0.129157 -0.222607 0
-0.0606521 -0.138043 0
0.249772 -0.284778 0
-0.398077 -1.22053 0
-0.0279522 -0.849545 0
0.171445 -0.191213 0
0.0622128 -0.303467 0
-0.216679 -1.62588 0
-0.204641 -0.472765 0
-1.10318 -4.4987 0
0.106379 -0.935223 0
0.0785057 -0.09414 0
-0.0284765 -0.520095 0
0.181259 -0.472957 0
0.0308122 -0.144704 0
0.389269 -2.92707 0
0.462831 -1.21443 0
-1.39438 -3.11843 0
-0.132165 -0.540402 0
0.0144463 -0.0485595 0
0.0161314 -0.870657 0
0.0157826 -0.133358 0
-0.464437 -2.43184 0
0.0177382 -0.413383 0
0.0470506 -0.103443 0
-0.275629 -6.63771 0
0.00656316 -0.126488 0
-0.175219 -0.412478 0
-0.0854637 -4.00048 0
0.209726 -2.86601 0
-0.00473853 -0.186957 0
0.013959 -3.64588 0
-0.047845 -2.47826 0
0.0296826 -0.186564 0
-0.303077 -1.04531 0
0.0723767 -3.39905 0
-0.283827 -0.100821 0
-0.750266 -0.162252 0
-1.01038 -1.84195 0
-1.55706 -0.83775 0
-0.0958603 -0.102549 0
-0.0142322 -0.800312 0
-0.324628 -0.71286 0
-0.559886 -0.0367838 0
-1.95167 -2.41826 0
-1.03417 -4.6307 0
-0.0965186 -0.00850706 0
-0.479864 -1.57961 0
-1.91209 -3.54287 0
-0.0918309 -1.4265 0
-2.40589 -2.72161 0
-1.11727 -0.510997 0
-0.192818 -1.39632 0
0.23695 -3.33407 0
-1.30125 -0.149881 0
-0.0531023 -1.32732 0
0.0216408 -3.83089 0
-0.489105 -1.2763 0
-0.348118 -0.422165 0
-0.410548 -1.66622 0
-0.0753222 -0.112618 0
0.456691 -0.713461 0
-0.166301 -0.209352 0
-0.178534 -1.04348 0
-2.22165 -1.68127 0
0.0547786 -1.56964 0
0.0127073 -0.0868383 0
-0.436316 -0.468357 0
-0.587259 -0.842134 0
-0.0377009 -0.133731 0
-0.803066 -1.21787 0
-0.0285446 -3.94967 0
-0.517518 -0.419998 0
-0.324825 -0.324666 0
-0.922543 -0.525898 0
-0.0191698 -1.27934 0
-0.638493 0.0432219 0
-0.247081 -1.56397 0
-0.539516 -2.05585 0
-0.391844 -0.983751 0
0.130229 -0.560406 0
-0.687621 -3.02894 0
-0.635173 -0.747115 0
-0.0583906 -0.0829575 0
-1.03689 -0.0762479 0
-0.775865 -1.88548 0
-1.0843 -0.0167128 0
-0.0878832 -1.35666 0
-0.70896 -0.125536 0
0.352101 -4.58685 0
-0.321381 -1.54523 0
-0.534747 -0.113816 0
-0.157912 -1.20789 0
0.156955 -0.91052 0
-0.424515 -0.737346 0
0.0630452 -0.678122 0
-0.103185 -0.260354 0
-0.892503 -0.937683 0
-0.120528 -1.01511 0
-0.128207 -0.263574 0
0.345361 -0.264198 0
0.422487 -0.623055 0
-0.0909101 -0.936108 0
-0.0859334 -0.271103 0
-0.357383 -1.08292 0
-0.44404 -0.781356 0
0.383473 -0.9442 0
0.0965987 -0.723121 0
0.402237 -0.702286 0
-0.502861 -0.747911 0
0.0781726 -0.364016 0
0.0377333 -1.35272 0
-0.180661 -1.24264 0
0.0482403 -0.504775 0
0.148049 -0.429752 0
0.0231215 -0.0532151 0
0.220532 -1.28768 0
0.154831 -0.346494 0
-0.127474 -0.351206 0
0.629879 -0.775782 0
0.143091 -0.432796 0
0.217303 -1.32757 0
0.132326 -0.141101 0
0.459724 -0.415235 0
-0.0719469 -1.0896 0
0.330401 -2.6482 0
-0.13251 -0.48593 0
-0.136353 -0.376285 0
0.726788 -1.00358 0
-0.00218323 -0.432448 0
-0.247056 -0.920675 0
-0.0841672 -0.820492 0
0.178706 -0.256554 0
-0.241391 -0.593548 0
0.000491599 -0.00589505 0
0.185519 -0.552918 0
-0.0431678 -0.658365 0
0.301852 -2.50681 0
0.0262634 -0.102164 0
0.132936 -0.329294 0
0.00956021 -0.022067 0
0.376251 -2.23645 0
-0.306371 -1.02244 0
0.00432141 -0.00934508 0
0.0885637 -0.57395 0
0.745036 -1.33922 0
-0.131855 -0.624799 0
0.306321 -2.04269 0
0.067199 -0.223712 0
-0.351888 -0.622572 0
1.22403 -1.4776 0
0.0153223 -0.0501044 0
-0.0129254 -0.765354 0
-0.153889 -0.266987 0
0.165068 -0.500576 0
-0.0449439 -0.605615 0
-0.0632725 -0.255689 0
0.244803 -0.285452 0
0.723709 -1.35088 0
0.0369051 -0.0595905 0
-0.0989805 -0.245547 0
0.00904389 -0.0324241 0
-0.0507737 -0.313694 0
0.0481475 -1.11445 0
-0.0635545 -0.0830583 0
0.00602789 -0.0223946 0
2.34618e-05 -0.00494571 0
-0.0226362 -0.0180369 0
0.025436 -0.0615618 0
-1.24891 -0.393823 0
0.284087 -0.608896 0
-0.00580177 -0.0185831 0
0.00592738 -0.0187966 0
-2.47236 -1.62984 0
-0.335296 -0.245716 0
0.377411 -0.548275 0
1.15944 -1.44899 0
0.0721418 -1.12956 0
0.0886172 -1.45916 0
-0.00142757 -0.00651146 0
-1.82643 -2.44318 0
-0.0362525 -0.53102 0
0.00862377 -0.0305199 0
-2.6424 -2.27929 0
-1.60865 -1.16194 0
0.0717689 -0.15237 0
-0.220736 -0.0977842 0
-0.546093 -1.60496 0
0.73245 -1.1558 0
-0.540907 -0.632342 0
0.548853 -0.678466 0
-0.485852 -1.67573 0
0.000304967 -0.00350682 0
-0.427294 -0.625318 0
0.00376938 -0.0136486 0
0.112186 -0.209091 0
-0.0459427 -0.101567 0
-1.40882 -2.36145 0
0.000210458 -0.0043796 0
-0.57391 -0.632008 0
-0.758824 -1.95108 0
0.000969282 -0.00411756 0
0.0102564 -0.210613 0
-2.63047 -2.81338 0
0.00187468 -0.00694029 0
0.0220071 -0.0655017 0
0.000197626 -0.00502438 0
1.07059 -0.967358 0
-0.856606 -0.864868 0
-0.0744013 -0.063105 0
-0.986039 -1.58918 0
0.294146 -0.875462 0
-0.00733853 -0.0110563 0
0.510951 -1.67074 0
1.17392 -0.940673 0
0.0392202 -0.100935 0
-0.416407 -2.33715 0
-1.33926 -2.79299 0
0.458623 -1.28767 0
1.70559 -1.58776 0
-0.567048 -2.37407 0
-1.86874 -1.70852 0
0.159713 -0.246027 0
-0.177916 -2.42163 0
-2.06743 -0.883383 0
0.0963505 -0.205973 0
0.000508273 -0.00627145 0
0.305756 -1.80325 0
