# vtk DataFile Version 2.0
Unstructured Grid by M++
ASCII
DATASET UNSTRUCTURED_GRID
POINTS 81 float
  1.000000   0.625000 0
  0.750000   0.375000 0
  1.000000   0.000000 0
  0.875000   0.875000 0
  0.750000   0.125000 0
  1.000000   1.000000 0
  0.875000   0.250000 0
  0.625000   0.875000 0
  1.000000   0.750000 0
  0.875000   0.000000 0
  1.000000   0.250000 0
  0.625000   0.375000 0
  0.875000   0.500000 0
  0.625000   0.625000 0
  1.000000   0.500000 0
  0.750000   0.500000 0
  0.750000   1.000000 0
  1.000000   0.125000 0
  0.625000   0.250000 0
  0.750000   0.750000 0
  0.625000   0.000000 0
  0.125000   0.375000 0
  0.000000   0.500000 0
  0.125000   0.625000 0
  0.625000   1.000000 0
  1.000000   0.875000 0
  0.875000   0.125000 0
  0.500000   0.250000 0
  0.625000   0.500000 0
  0.250000   0.625000 0
  0.000000   0.625000 0
  0.375000   0.500000 0
  0.375000   0.000000 0
  0.000000   0.125000 0
  0.125000   0.875000 0
  0.875000   1.000000 0
  0.750000   0.250000 0
  0.375000   0.375000 0
  0.250000   0.375000 0
  0.625000   0.750000 0
  0.125000   0.125000 0
  0.500000   0.000000 0
  0.250000   0.875000 0
  0.125000   0.500000 0
  0.500000   0.375000 0
  0.125000   0.000000 0
  0.250000   0.750000 0
  0.250000   0.500000 0
  0.000000   0.875000 0
  0.875000   0.625000 0
  0.500000   0.750000 0
  0.750000   0.625000 0
  0.250000   0.000000 0
  0.375000   0.750000 0
  0.750000   0.875000 0
  0.625000   0.125000 0
  0.250000   0.250000 0
  0.375000   1.000000 0
  0.375000   0.250000 0
  0.000000   0.375000 0
  0.500000   1.000000 0
  0.875000   0.750000 0
  0.750000   0.000000 0
  0.375000   0.125000 0
  0.500000   0.875000 0
  0.000000   0.000000 0
  0.125000   0.750000 0
  0.500000   0.625000 0
  0.125000   0.250000 0
  0.500000   0.125000 0
  0.250000   1.000000 0
  0.250000   0.125000 0
  0.000000   1.000000 0
  0.375000   0.875000 0
  0.000000   0.750000 0
  0.375000   0.625000 0
  0.000000   0.250000 0
  0.125000   1.000000 0
  1.000000   0.375000 0
  0.500000   0.500000 0
  0.875000   0.375000 0
CELLS 64 320
4 56 71 58 63
4 27 58 69 63
4 41 69 32 63
4 76 33 68 40
4 27 44 58 37
4 79 31 44 37
4 56 38 68 21
4 56 58 38 37
4 52 32 71 63
4 47 38 31 37
4 76 68 59 21
4 22 59 43 21
4 65 45 33 40
4 47 43 38 21
4 52 71 45 40
4 56 68 71 40
4 74 30 66 23
4 46 66 29 23
4 22 43 30 23
4 72 48 77 34
4 46 53 42 73
4 50 64 53 73
4 70 42 57 73
4 74 66 48 34
4 46 42 66 34
4 47 29 43 23
4 70 77 42 34
4 60 57 64 73
4 79 67 31 75
4 47 31 29 75
4 50 53 67 75
4 46 29 53 75
4 10 78 6 80
4 36 6 1 80
4 15 1 12 80
4 36 4 6 26
4 14 12 78 80
4 2 17 9 26
4 36 18 4 55
4 15 28 1 11
4 62 4 20 55
4 10 6 17 26
4 27 18 44 11
4 62 9 4 26
4 27 69 18 55
4 36 1 18 11
4 41 20 69 55
4 79 44 28 11
4 16 24 54 7
4 19 54 39 7
4 50 39 64 7
4 8 25 61 3
4 60 64 24 7
4 79 28 67 13
4 19 51 61 49
4 8 61 0 49
4 15 51 28 13
4 19 39 51 13
4 50 67 39 13
4 19 61 54 3
4 14 0 12 49
4 5 35 25 3
4 15 12 51 49
4 16 54 35 3
CELL_TYPES 64
8
8
8
8
8
8
8
8
8
8
8
8
8
8
8
8
8
8
8
8
8
8
8
8
8
8
8
8
8
8
8
8
8
8
8
8
8
8
8
8
8
8
8
8
8
8
8
8
8
8
8
8
8
8
8
8
8
8
8
8
8
8
8
8
CELL_DATA 64
VECTORS vector_value float
0.00916105 -0.0374385 0
0.080255 -0.338934 0
-0.000377314 -0.103174 0
0.0258441 -0.443938 0
0.383868 -0.62424 0
-0.000522001 -0.270006 0
0.628274 -0.865082 0
0.438537 -0.102174 0
-0.0447056 -0.171303 0
0.0475882 -0.0575226 0
0.276296 -0.794536 0
0.380999 -1.61727 0
-0.0775793 -0.580063 0
0.251618 -0.338089 0
-0.059918 -0.88088 0
0.0525548 -1.04328 0
-0.218737 -1.62347 0
-0.0380607 -0.606481 0
0.00215664 -1.84982 0
0.102035 -0.783476 0
0.127644 -0.0887856 0
0.23184 -0.156987 0
0.00458739 -0.321267 0
-0.293976 -1.19958 0
-0.225845 -1.20183 0
0.0197179 -0.138316 0
-0.15883 -1.5973 0
0.780233 -0.652136 0
0.0785825 -0.110176 0
0.130881 -0.115817 0
0.262225 -0.104826 0
0.232262 -0.0448778 0
-0.0190073 -5.252 0
-0.00741804 -0.205631 0
0.44399 -0.501654 0
-0.237241 -0.269463 0
0.908967 -4.91091 0
-0.02639 -4.82546 0
-0.037262 -0.104374 0
0.00741455 -0.159053 0
0.0546078 -0.638616 0
-0.165133 -5.10572 0
-0.0511696 -0.115142 0
-0.109247 -0.33189 0
0.449861 -0.656859 0
-0.0142843 -0.0411987 0
0.0276534 -0.468616 0
-0.0424891 -0.145491 0
1.01696 -0.981709 0
0.366006 -1.63236 0
0.677727 -0.736672 0
-0.240391 -0.737415 0
0.972962 -0.867088 0
0.0581103 -0.313738 0
1.5618 -2.63162 0
0.164809 -0.412217 0
0.424833 -0.634561 0
1.16748 -2.20772 0
0.442226 -0.368795 0
-0.380031 -2.24637 0
1.36022 -2.63537 0
-0.0747413 -1.03075 0
1.7579 -2.2022 0
0.443444 -1.76628 0
