# vtk DataFile Version 2.0
Unstructured Grid by M++
ASCII
DATASET UNSTRUCTURED_GRID
POINTS 81 float
  1.000000   0.625000 0
  0.750000   0.375000 0
  1.000000   0.000000 0
  0.875000   0.875000 0
  0.750000   0.125000 0
  1.000000   1.000000 0
  0.875000   0.250000 0
  0.625000   0.875000 0
  1.000000   0.750000 0
  0.875000   0.000000 0
  1.000000   0.250000 0
  0.625000   0.375000 0
  0.875000   0.500000 0
  0.625000   0.625000 0
  1.000000   0.500000 0
  0.750000   0.500000 0
  0.750000   1.000000 0
  1.000000   0.125000 0
  0.625000   0.250000 0
  0.750000   0.750000 0
  0.625000   0.000000 0
  0.125000   0.375000 0
  0.000000   0.500000 0
  0.125000   0.625000 0
  0.625000   1.000000 0
  1.000000   0.875000 0
  0.875000   0.125000 0
  0.500000   0.250000 0
  0.625000   0.500000 0
  0.250000   0.625000 0
  0.000000   0.625000 0
  0.375000   0.500000 0
  0.375000   0.000000 0
  0.000000   0.125000 0
  0.125000   0.875000 0
  0.875000   1.000000 0
  0.750000   0.250000 0
  0.375000   0.375000 0
  0.250000   0.375000 0
  0.625000   0.750000 0
  0.125000   0.125000 0
  0.500000   0.000000 0
  0.250000   0.875000 0
  0.125000   0.500000 0
  0.500000   0.375000 0
  0.125000   0.000000 0
  0.250000   0.750000 0
  0.250000   0.500000 0
  0.000000   0.875000 0
  0.875000   0.625000 0
  0.500000   0.750000 0
  0.750000   0.625000 0
  0.250000   0.000000 0
  0.375000   0.750000 0
  0.750000   0.875000 0
  0.625000   0.125000 0
  0.250000   0.250000 0
  0.375000   1.000000 0
  0.375000   0.250000 0
  0.000000   0.375000 0
  0.500000   1.000000 0
  0.875000   0.750000 0
  0.750000   0.000000 0
  0.375000   0.125000 0
  0.500000   0.875000 0
  0.000000   0.000000 0
  0.125000   0.750000 0
  0.500000   0.625000 0
  0.125000   0.250000 0
  0.500000   0.125000 0
  0.250000   1.000000 0
  0.250000   0.125000 0
  0.000000   1.000000 0
  0.375000   0.875000 0
  0.000000   0.750000 0
  0.375000   0.625000 0
  0.000000   0.250000 0
  0.125000   1.000000 0
  1.000000   0.375000 0
  0.500000   0.500000 0
  0.875000   0.375000 0
CELLS 64 320
4 56 71 58 63
4 27 58 69 63
4 41 69 32 63
4 76 33 68 40
4 27 44 58 37
4 79 31 44 37
4 56 38 68 21
4 56 58 38 37
4 52 32 71 63
4 47 38 31 37
4 76 68 59 21
4 22 59 43 21
4 65 45 33 40
4 47 43 38 21
4 52 71 45 40
4 56 68 71 40
4 74 30 66 23
4 46 66 29 23
4 22 43 30 23
4 72 48 77 34
4 46 53 42 73
4 50 64 53 73
4 70 42 57 73
4 74 66 48 34
4 46 42 66 34
4 47 29 43 23
4 70 77 42 34
4 60 57 64 73
4 79 67 31 75
4 47 31 29 75
4 50 53 67 75
4 46 29 53 75
4 10 78 6 80
4 36 6 1 80
4 15 1 12 80
4 36 4 6 26
4 14 12 78 80
4 2 17 9 26
4 36 18 4 55
4 15 28 1 11
4 62 4 20 55
4 10 6 17 26
4 27 18 44 11
4 62 9 4 26
4 27 69 18 55
4 36 1 18 11
4 41 20 69 55
4 79 44 28 11
4 16 24 54 7
4 19 54 39 7
4 50 39 64 7
4 8 25 61 3
4 60 64 24 7
4 79 28 67 13
4 19 51 61 49
4 8 61 0 49
4 15 51 28 13
4 19 39 51 13
4 50 67 39 13
4 19 61 54 3
4 14 0 12 49
4 5 35 25 3
4 15 12 51 49
4 16 54 35 3
CELL_TYPES 64
8
8
8
8
8
8
8
8
8
8
8
8
8
8
8
8
8
8
8
8
8
8
8
8
8
8
8
8
8
8
8
8
8
8
8
8
8
8
8
8
8
8
8
8
8
8
8
8
8
8
8
8
8
8
8
8
8
8
8
8
8
8
8
8
CELL_DATA 64
VECTORS vector_value float
0.388169 -0.5164 0
0.0515923 -2.09941 0
-0.352042 -2.95754 0
0.0214451 -0.073957 0
0.349026 -1.4948 0
0.121638 -1.06579 0
0.334955 -0.432407 0
0.427369 -0.616798 0
0.0248158 -0.569302 0
0.199813 -0.789452 0
0.05713 -0.171124 0
0.173082 -0.521708 0
0.0111065 -0.0424688 0
0.225033 -0.453201 0
0.0462282 -0.0539005 0
0.122456 -0.135802 0
0.227693 -0.746261 0
0.579571 -0.872958 0
0.0019788 -0.529104 0
-0.198347 -1.35419 0
-0.0275621 -0.999941 0
-0.0645082 -1.67526 0
0.21453 -1.20057 0
0.186528 -1.28967 0
-0.00861547 -0.54471 0
0.147952 -0.663534 0
-0.00929246 -0.269097 0
-0.12103 -1.2801 0
1.11274 -2.25402 0
0.394569 -0.942067 0
0.199464 -2.13118 0
0.501412 -0.982359 0
-0.148173 -0.576221 0
-0.430065 -1.18384 0
-0.117483 -1.11258 0
-0.13123 -0.510048 0
-0.0763893 -0.985049 0
-0.0124444 -0.758239 0
-0.286024 -0.132828 0
-0.0894006 -0.574115 0
-0.152472 -0.185193 0
0.0979912 -0.786424 0
-0.239068 -2.95032 0
-0.05149 -0.27674 0
-0.713163 -3.74513 0
-0.805707 -0.574488 0
-0.281823 -3.15662 0
0.50357 -2.49811 0
-0.139986 -0.484685 0
-0.0771329 -0.577435 0
-0.121898 -0.87078 0
0.118433 -0.952974 0
-0.406152 -1.18541 0
0.475666 -0.97854 0
0.123944 -0.701225 0
0.16011 -1.41261 0
0.0308123 -0.334398 0
0.122074 -0.351944 0
0.034377 -0.801458 0
0.220609 -1.08922 0
-0.218672 -1.41032 0
-0.0438102 -0.90717 0
-0.193616 -0.888018 0
-0.0326408 -1.31878 0
