# vtk DataFile Version 2.0
Unstructured Grid by M++
ASCII
DATASET UNSTRUCTURED_GRID
POINTS 81 float
  1.000000   0.625000 0
  0.750000   0.375000 0
  1.000000   0.000000 0
  0.875000   0.875000 0
  0.750000   0.125000 0
  1.000000   1.000000 0
  0.875000   0.250000 0
  0.625000   0.875000 0
  1.000000   0.750000 0
  0.875000   0.000000 0
  1.000000   0.250000 0
  0.625000   0.375000 0
  0.875000   0.500000 0
  0.625000   0.625000 0
  1.000000   0.500000 0
  0.750000   0.500000 0
  0.750000   1.000000 0
  1.000000   0.125000 0
  0.625000   0.250000 0
  0.750000   0.750000 0
  0.625000   0.000000 0
  0.125000   0.375000 0
  0.000000   0.500000 0
  0.125000   0.625000 0
  0.625000   1.000000 0
  1.000000   0.875000 0
  0.875000   0.125000 0
  0.500000   0.250000 0
  0.625000   0.500000 0
  0.250000   0.625000 0
  0.000000   0.625000 0
  0.375000   0.500000 0
  0.375000   0.000000 0
  0.000000   0.125000 0
  0.125000   0.875000 0
  0.875000   1.000000 0
  0.750000   0.250000 0
  0.375000   0.375000 0
  0.250000   0.375000 0
  0.625000   0.750000 0
  0.125000   0.125000 0
  0.500000   0.000000 0
  0.250000   0.875000 0
  0.125000   0.500000 0
  0.500000   0.375000 0
  0.125000   0.000000 0
  0.250000   0.750000 0
  0.250000   0.500000 0
  0.000000   0.875000 0
  0.875000   0.625000 0
  0.500000   0.750000 0
  0.750000   0.625000 0
  0.250000   0.000000 0
  0.375000   0.750000 0
  0.750000   0.875000 0
  0.625000   0.125000 0
  0.250000   0.250000 0
  0.375000   1.000000 0
  0.375000   0.250000 0
  0.000000   0.375000 0
  0.500000   1.000000 0
  0.875000   0.750000 0
  0.750000   0.000000 0
  0.375000   0.125000 0
  0.500000   0.875000 0
  0.000000   0.000000 0
  0.125000   0.750000 0
  0.500000   0.625000 0
  0.125000   0.250000 0
  0.500000   0.125000 0
  0.250000   1.000000 0
  0.250000   0.125000 0
  0.000000   1.000000 0
  0.375000   0.875000 0
  0.000000   0.750000 0
  0.375000   0.625000 0
  0.000000   0.250000 0
  0.125000   1.000000 0
  1.000000   0.375000 0
  0.500000   0.500000 0
  0.875000   0.375000 0
CELLS 64 320
4 56 71 58 63
4 27 58 69 63
4 41 69 32 63
4 76 33 68 40
4 27 44 58 37
4 79 31 44 37
4 56 38 68 21
4 56 58 38 37
4 52 32 71 63
4 47 38 31 37
4 76 68 59 21
4 22 59 43 21
4 65 45 33 40
4 47 43 38 21
4 52 71 45 40
4 56 68 71 40
4 74 30 66 23
4 46 66 29 23
4 22 43 30 23
4 72 48 77 34
4 46 53 42 73
4 50 64 53 73
4 70 42 57 73
4 74 66 48 34
4 46 42 66 34
4 47 29 43 23
4 70 77 42 34
4 60 57 64 73
4 79 67 31 75
4 47 31 29 75
4 50 53 67 75
4 46 29 53 75
4 10 78 6 80
4 36 6 1 80
4 15 1 12 80
4 36 4 6 26
4 14 12 78 80
4 2 17 9 26
4 36 18 4 55
4 15 28 1 11
4 62 4 20 55
4 10 6 17 26
4 27 18 44 11
4 62 9 4 26
4 27 69 18 55
4 36 1 18 11
4 41 20 69 55
4 79 44 28 11
4 16 24 54 7
4 19 54 39 7
4 50 39 64 7
4 8 25 61 3
4 60 64 24 7
4 79 28 67 13
4 19 51 61 49
4 8 61 0 49
4 15 51 28 13
4 19 39 51 13
4 50 67 39 13
4 19 61 54 3
4 14 0 12 49
4 5 35 25 3
4 15 12 51 49
4 16 54 35 3
CELL_TYPES 64
8
8
8
8
8
8
8
8
8
8
8
8
8
8
8
8
8
8
8
8
8
8
8
8
8
8
8
8
8
8
8
8
8
8
8
8
8
8
8
8
8
8
8
8
8
8
8
8
8
8
8
8
8
8
8
8
8
8
8
8
8
8
8
8
CELL_DATA 64
VECTORS vector_value float
-0.00841772 -0.072365 0
0.132399 -1.13897 0
0.03484 -0.847931 0
0.000454035 -0.118586 0
0.623133 -1.52758 0
0.790907 -1.81779 0
-0.0332789 -0.031186 0
0.189853 -0.39563 0
-0.0155827 -0.122409 0
0.475671 -0.766598 0
-0.0381605 -0.0987707 0
-0.00282549 -0.032563 0
0.00124673 -0.112607 0
0.0293269 -0.132184 0
0.00423551 -0.0691404 0
-0.0131816 -0.06661 0
0.667598 -1.10936 0
1.48543 -0.654123 0
0.152491 -0.232419 0
-0.458386 -1.69256 0
0.0645452 -0.701606 0
0.046822 -0.505717 0
-0.113645 -0.967903 0
0.121486 -2.0906 0
-0.0699552 -0.129564 0
0.536696 -0.504209 0
-0.585744 -0.43263 0
0.264884 -0.401017 0
0.814882 -1.79111 0
0.714811 -0.958415 0
0.0698182 -0.72362 0
0.947217 -1.0982 0
-0.0591247 -0.293786 0
-0.304797 -1.02945 0
-0.354132 -1.32977 0
-0.152478 -0.888405 0
-0.14956 -0.643019 0
0.00787601 -0.279069 0
-0.419041 -2.27618 0
-0.128388 -0.567053 0
-0.154356 -1.92006 0
0.0120143 -0.231372 0
0.649035 -2.67312 0
-0.0213811 -0.536763 0
-0.0546717 -3.20752 0
0.0778697 -1.95048 0
-0.118822 -4.11202 0
0.49515 -2.71102 0
0.261443 -1.44529 0
-0.214509 -2.06232 0
-0.0785938 -0.85194 0
0.105311 -0.638662 0
0.626729 -1.02718 0
-0.12041 -1.39133 0
0.0209172 -0.593482 0
0.0437802 -0.891329 0
-0.170794 -1.01794 0
-0.00208853 -2.02671 0
-0.126318 -0.903184 0
-0.00275017 -1.01959 0
-0.106246 -0.647454 0
-0.213204 -0.607502 0
0.178769 -1.45712 0
-0.32026 -1.42592 0
