# vtk DataFile Version 2.0
Unstructured Grid by M++
ASCII
DATASET UNSTRUCTURED_GRID
POINTS 289 float
  0.562500   1.000000 0
  0.562500   0.625000 0
  0.625000   1.000000 0
  0.562500   0.937500 0
  0.562500   0.562500 0
  0.625000   0.937500 0
  0.562500   0.875000 0
  0.625000   0.750000 0
  0.625000   0.625000 0
  0.562500   0.812500 0
  0.562500   0.750000 0
  0.562500   0.687500 0
  0.625000   0.875000 0
  0.625000   0.812500 0
  0.625000   0.687500 0
  0.687500   0.125000 0
  0.875000   0.062500 0
  0.625000   0.125000 0
  0.625000   0.187500 0
  0.625000   0.250000 0
  0.812500   0.187500 0
  1.000000   0.125000 0
  0.687500   0.187500 0
  0.750000   0.125000 0
  0.937500   0.062500 0
  0.937500   0.125000 0
  0.750000   0.187500 0
  0.812500   0.062500 0
  0.812500   0.125000 0
  0.875000   0.687500 0
  0.187500   0.250000 0
  0.437500   0.250000 0
  0.375000   0.187500 0
  0.812500   0.625000 0
  0.125000   0.187500 0
  0.937500   0.750000 0
  0.250000   0.312500 0
  0.500000   0.312500 0
  0.625000   0.062500 0
  0.437500   0.500000 0
  0.375000   0.125000 0
  0.437500   0.187500 0
  0.437500   0.437500 0
  0.437500   0.375000 0
  0.875000   0.875000 0
  0.187500   0.375000 0
  0.687500   0.562500 0
  0.687500   0.625000 0
  0.000000   0.125000 0
  0.937500   0.625000 0
  0.250000   0.125000 0
  0.375000   0.062500 0
  0.375000   0.000000 0
  0.812500   0.500000 0
  0.125000   0.000000 0
  0.937500   0.937500 0
  0.250000   0.437500 0
  0.687500   0.875000 0
  0.687500   0.937500 0
  0.000000   0.437500 0
  0.500000   0.500000 0
  0.500000   0.437500 0
  0.750000   0.937500 0
  0.750000   1.000000 0
  0.062500   0.500000 0
  1.000000   1.000000 0
  0.312500   0.500000 0
  0.875000   0.562500 0
  0.187500   0.062500 0
  0.437500   0.125000 0
  0.437500   0.062500 0
  0.500000   0.375000 0
  0.937500   0.812500 0
  0.937500   0.875000 0
  0.250000   0.375000 0
  0.687500   0.812500 0
  0.000000   0.375000 0
  0.750000   0.562500 0
  0.062500   0.125000 0
  1.000000   0.562500 0
  1.000000   0.625000 0
  0.312500   0.125000 0
  0.562500   0.125000 0
  0.437500   0.000000 0
  0.875000   0.437500 0
  0.875000   0.500000 0
  0.187500   0.000000 0
  0.937500   0.562500 0
  0.937500   0.500000 0
  0.250000   0.062500 0
  0.687500   0.500000 0
  0.000000   0.062500 0
  0.500000   0.062500 0
  1.000000   0.875000 0
  1.000000   0.937500 0
  0.312500   0.437500 0
  0.750000   0.875000 0
  0.062500   0.437500 0
  0.812500   0.937500 0
  0.125000   0.500000 0
  0.375000   0.500000 0
  0.625000   0.562500 0
  0.625000   0.500000 0
  0.437500   0.312500 0
  0.875000   0.812500 0
  0.875000   0.750000 0
  0.187500   0.312500 0
  0.812500   0.687500 0
  0.812500   0.750000 0
  0.125000   0.250000 0
  0.375000   0.250000 0
  1.000000   0.687500 0
  0.312500   0.187500 0
  0.750000   0.687500 0
  0.750000   0.625000 0
  0.062500   0.187500 0
  0.562500   0.250000 0
  0.562500   0.187500 0
  0.375000   1.000000 0
  0.500000   0.562500 0
  0.500000   0.250000 0
  0.750000   0.250000 0
  0.500000   0.125000 0
  0.500000   0.187500 0
  1.000000   0.187500 0
  0.625000   0.375000 0
  0.875000   0.375000 0
  1.000000   0.437500 0
  0.312500   0.000000 0
  0.562500   0.000000 0
  0.812500   0.000000 0
  0.250000   0.687500 0
  0.000000   0.687500 0
  0.500000   1.000000 0
  0.250000   1.000000 0
  0.000000   1.000000 0
  0.437500   0.687500 0
  0.437500   0.625000 0
  0.187500   0.625000 0
  0.687500   0.750000 0
  0.000000   0.312500 0
  0.000000   0.250000 0
  0.375000   0.375000 0
  0.375000   0.312500 0
  0.812500   0.812500 0
  0.125000   0.312500 0
  0.875000   0.625000 0
  0.187500   0.187500 0
  0.187500   0.125000 0
  0.937500   1.000000 0
  0.250000   0.562500 0
  0.250000   0.500000 0
  0.687500   1.000000 0
  0.000000   0.500000 0
  0.687500   0.687500 0
  0.000000   0.187500 0
  0.937500   0.687500 0
  0.250000   0.250000 0
  0.250000   0.187500 0
  0.187500   0.687500 0
  0.000000   0.750000 0
  0.250000   0.750000 0
  0.125000   0.625000 0
  0.750000   0.750000 0
  0.062500   0.250000 0
  0.875000   0.937500 0
  0.187500   0.500000 0
  0.187500   0.437500 0
  0.812500   0.562500 0
  0.125000   0.125000 0
  0.125000   0.062500 0
  0.375000   0.625000 0
  0.375000   0.687500 0
  1.000000   0.750000 0
  0.312500   0.250000 0
  0.312500   0.312500 0
  0.812500   0.312500 0
  0.562500   0.312500 0
  0.375000   0.750000 0
  0.500000   0.625000 0
  0.250000   0.625000 0
  0.312500   0.687500 0
  0.750000   0.812500 0
  0.062500   0.312500 0
  0.062500   0.375000 0
  1.000000   0.812500 0
  0.312500   0.375000 0
  0.562500   0.375000 0
  0.687500   0.437500 0
  0.000000   0.000000 0
  0.500000   0.000000 0
  0.937500   0.437500 0
  0.250000   0.000000 0
  0.375000   0.437500 0
  0.812500   0.875000 0
  0.125000   0.375000 0
  0.125000   0.437500 0
  0.625000   0.437500 0
  1.000000   0.500000 0
  0.312500   0.062500 0
  0.750000   0.500000 0
  0.062500   0.000000 0
  0.062500   0.062500 0
  0.562500   0.062500 0
  0.062500   0.750000 0
  0.312500   0.750000 0
  0.312500   0.625000 0
  0.312500   0.562500 0
  0.062500   0.562500 0
  0.187500   1.000000 0
  0.437500   0.562500 0
  0.875000   1.000000 0
  0.187500   0.562500 0
  0.500000   0.937500 0
  0.250000   0.937500 0
  0.312500   1.000000 0
  0.125000   0.750000 0
  0.125000   0.687500 0
  1.000000   0.000000 0
  0.000000   0.937500 0
  0.000000   0.875000 0
  0.875000   0.125000 0
  0.875000   0.187500 0
  0.062500   0.812500 0
  0.312500   0.812500 0
  0.000000   0.812500 0
  0.000000   0.625000 0
  0.000000   0.562500 0
  0.062500   1.000000 0
  0.062500   0.937500 0
  0.937500   0.187500 0
  0.937500   0.250000 0
  0.062500   0.687500 0
  0.062500   0.625000 0
  0.125000   1.000000 0
  1.000000   0.250000 0
  1.000000   0.312500 0
  0.062500   0.875000 0
  0.125000   0.812500 0
  0.375000   0.812500 0
  0.125000   0.875000 0
  0.375000   0.937500 0
  0.375000   0.875000 0
  0.187500   0.750000 0
  0.187500   0.812500 0
  0.437500   0.812500 0
  0.187500   0.875000 0
  0.437500   0.875000 0
  0.375000   0.562500 0
  0.812500   1.000000 0
  0.125000   0.562500 0
  0.437500   1.000000 0
  0.437500   0.937500 0
  0.187500   0.937500 0
  0.125000   0.937500 0
  0.500000   0.687500 0
  0.500000   0.750000 0
  0.500000   0.812500 0
  0.250000   0.812500 0
  0.250000   0.875000 0
  0.500000   0.875000 0
  0.437500   0.750000 0
  0.312500   0.875000 0
  0.312500   0.937500 0
  0.687500   0.250000 0
  0.687500   0.312500 0
  0.937500   0.312500 0
  0.875000   0.250000 0
  0.625000   0.000000 0
  0.875000   0.000000 0
  0.687500   0.375000 0
  0.937500   0.375000 0
  0.875000   0.312500 0
  0.625000   0.312500 0
  0.687500   0.000000 0
  0.937500   0.000000 0
  0.750000   0.312500 0
  0.750000   0.375000 0
  1.000000   0.375000 0
  0.812500   0.250000 0
  0.562500   0.437500 0
  0.562500   0.500000 0
  0.687500   0.062500 0
  0.750000   0.437500 0
  0.750000   0.000000 0
  0.750000   0.062500 0
  1.000000   0.062500 0
  0.812500   0.375000 0
  0.812500   0.437500 0
CELLS 256 1280
4 169 170 148 68
4 151 166 56 167
4 195 45 196 167
4 54 170 201 202
4 109 34 30 147
4 40 32 81 112
4 192 89 86 68
4 48 91 78 202
4 99 64 196 97
4 71 43 37 103
4 74 186 56 95
4 109 164 34 115
4 50 81 158 112
4 122 69 92 70
4 195 145 45 106
4 110 143 174 175
4 157 30 158 147
4 40 69 32 41
4 50 158 148 147
4 141 155 164 115
4 122 123 69 41
4 142 186 143 175
4 60 39 61 42
4 40 51 69 70
4 120 31 123 41
4 157 174 36 175
4 50 148 89 68
4 48 78 155 115
4 52 83 51 70
4 151 56 66 95
4 71 61 43 42
4 169 148 34 147
4 100 193 39 42
4 40 81 51 199
4 110 174 32 112
4 109 30 145 106
4 100 66 193 95
4 169 34 78 115
4 190 92 83 70
4 50 89 81 199
4 54 86 170 68
4 74 56 45 167
4 142 143 43 103
4 153 59 64 97
4 99 196 166 167
4 169 78 170 202
4 142 193 186 95
4 192 128 89 199
4 74 45 36 106
4 110 31 143 103
4 76 184 59 97
4 142 43 193 42
4 52 51 128 199
4 189 201 91 202
4 120 37 31 103
4 74 36 186 175
4 195 196 184 97
4 141 164 140 183
4 157 158 174 112
4 109 145 164 183
4 195 184 145 183
4 110 32 31 41
4 157 36 30 106
4 76 140 184 183
4 171 172 206 181
4 178 172 261 136
4 256 261 255 136
4 256 257 261 245
4 180 150 206 207
4 60 119 39 210
4 118 215 241 263
4 178 205 172 181
4 216 243 238 244
4 162 217 233 232
4 180 206 131 181
4 179 137 119 210
4 216 204 217 232
4 220 237 219 229
4 216 217 243 159
4 259 258 262 224
4 240 254 237 229
4 153 64 227 208
4 161 205 258 224
4 240 237 238 223
4 226 227 233 208
4 234 228 254 229
4 171 248 137 210
4 160 132 204 232
4 180 131 138 159
4 133 251 213 252
4 171 206 248 207
4 162 138 217 159
4 161 258 243 244
4 220 225 237 223
4 151 150 166 212
4 260 247 257 245
4 259 262 214 263
4 151 66 150 207
4 234 254 209 253
4 162 233 250 208
4 242 241 262 263
4 171 137 172 136
4 161 243 131 159
4 160 204 225 223
4 161 131 205 181
4 179 255 137 136
4 216 238 204 223
4 100 39 248 210
4 260 213 247 252
4 226 233 132 232
4 134 214 215 263
4 180 138 150 212
4 178 261 239 245
4 259 246 258 244
4 178 239 205 224
4 240 238 246 244
4 242 262 239 224
4 99 250 64 208
4 240 246 254 253
4 242 239 247 245
4 135 219 228 229
4 99 166 250 212
4 259 214 246 253
4 118 241 251 252
4 100 248 66 207
4 134 209 214 253
4 162 250 138 212
4 242 247 241 252
4 71 187 61 280
4 102 281 197 280
4 122 92 82 203
4 17 18 82 117
4 122 82 123 117
4 19 264 273 265
4 267 279 222 20
4 125 273 270 265
4 267 272 279 176
4 19 116 18 117
4 21 25 286 24
4 23 28 26 20
4 23 285 28 27
4 218 286 275 24
4 85 53 84 288
4 235 236 231 266
4 221 222 28 20
4 267 222 231 230
4 268 38 129 203
4 125 270 197 188
4 126 287 272 176
4 277 270 276 265
4 267 231 272 266
4 125 197 187 280
4 190 129 92 203
4 277 276 287 176
4 19 18 264 22
4 17 82 38 203
4 102 197 90 188
4 126 84 287 288
4 284 130 285 27
4 121 276 264 265
4 71 37 187 177
4 120 123 116 117
4 198 88 127 191
4 221 16 25 24
4 23 26 15 22
4 121 279 276 176
4 235 231 124 230
4 125 187 273 177
4 278 271 236 266
4 277 287 283 288
4 284 285 274 282
4 278 127 271 191
4 269 275 16 24
4 200 283 53 288
4 23 15 285 282
4 121 26 279 20
4 21 124 25 230
4 19 273 116 177
4 200 90 283 188
4 126 271 84 191
4 269 16 130 27
4 17 38 15 282
4 221 25 222 230
4 121 264 26 22
4 120 116 37 177
4 60 61 281 280
4 277 283 270 188
4 126 272 271 266
4 268 274 38 282
4 85 84 88 191
4 17 15 18 22
4 221 28 16 27
4 93 94 73 55
4 85 88 67 87
4 80 49 79 87
4 44 104 73 72
4 146 33 67 168
4 211 165 149 55
4 8 47 14 154
4 105 104 108 144
4 105 108 29 107
4 7 139 13 75
4 44 165 194 98
4 200 53 77 168
4 8 1 101 4
4 2 5 152 58
4 260 6 213 3
4 105 35 104 72
4 96 57 182 75
4 7 14 139 154
4 146 29 33 107
4 7 13 10 9
4 12 13 57 75
4 85 67 53 168
4 44 73 165 55
4 63 152 62 58
4 8 101 47 46
4 96 182 194 144
4 60 281 119 4
4 12 5 6 3
4 173 185 35 72
4 65 149 94 55
4 146 67 49 87
4 114 113 47 154
4 163 108 182 144
4 12 6 13 9
4 173 35 111 156
4 163 182 139 75
4 260 257 6 9
4 105 29 35 156
4 163 139 113 154
4 256 10 257 9
4 146 49 29 156
4 163 113 108 107
4 80 111 49 156
4 102 101 281 4
4 12 57 5 58
4 44 194 104 144
4 96 194 62 98
4 2 0 5 3
4 93 73 185 72
4 179 119 1 4
4 200 77 90 46
4 114 33 113 107
4 7 10 14 11
4 96 62 57 58
4 133 213 0 3
4 102 90 101 46
4 256 255 10 11
4 63 62 249 98
4 114 47 77 46
4 179 1 255 11
4 211 249 165 98
4 114 77 33 168
4 198 79 88 87
4 8 14 1 11
CELL_TYPES 256
8
8
8
8
8
8
8
8
8
8
8
8
8
8
8
8
8
8
8
8
8
8
8
8
8
8
8
8
8
8
8
8
8
8
8
8
8
8
8
8
8
8
8
8
8
8
8
8
8
8
8
8
8
8
8
8
8
8
8
8
8
8
8
8
8
8
8
8
8
8
8
8
8
8
8
8
8
8
8
8
8
8
8
8
8
8
8
8
8
8
8
8
8
8
8
8
8
8
8
8
8
8
8
8
8
8
8
8
8
8
8
8
8
8
8
8
8
8
8
8
8
8
8
8
8
8
8
8
8
8
8
8
8
8
8
8
8
8
8
8
8
8
8
8
8
8
8
8
8
8
8
8
8
8
8
8
8
8
8
8
8
8
8
8
8
8
8
8
8
8
8
8
8
8
8
8
8
8
8
8
8
8
8
8
8
8
8
8
8
8
8
8
8
8
8
8
8
8
8
8
8
8
8
8
8
8
8
8
8
8
8
8
8
8
8
8
8
8
8
8
8
8
8
8
8
8
8
8
8
8
8
8
8
8
8
8
8
8
8
8
8
8
8
8
8
8
8
8
8
8
8
8
8
8
8
8
CELL_DATA 256
VECTORS vector_value float
-0.018186 -0.397926 0
-0.0818915 -1.3917 0
-0.348647 -0.935324 0
0.0802785 -1.09378 0
-0.362255 -1.01621 0
0.0970071 -0.522085 0
0.0517811 -0.27201 0
-0.0087209 -1.74201 0
0.0363506 -0.247988 0
0.127958 -0.285956 0
-0.909318 -1.15307 0
-0.649495 -1.06931 0
0.110356 -0.269386 0
-0.270682 -0.565597 0
-0.837397 -1.46314 0
0.132095 -0.203878 0
-0.025916 -0.636065 0
-0.0691355 -0.542887 0
0.0430897 -0.379494 0
-0.310193 -1.0778 0
-0.266114 -0.449086 0
-0.0893483 -0.297145 0
0.0432534 -0.722201 0
-0.250291 -0.570314 0
-0.0314547 -0.226327 0
0.172097 -0.793876 0
0.0737548 -0.249583 0
-0.188664 -1.59692 0
-0.136713 -0.512312 0
-0.153884 -0.779727 0
0.224347 -0.486097 0
-0.161819 -0.63131 0
-0.294431 -1.18097 0
-0.161833 -0.708185 0
0.282945 -0.419446 0
-0.692094 -1.52391 0
-0.315784 -0.892404 0
-0.329159 -1.05734 0
-0.0924983 -0.558745 0
0.0482815 -0.42254 0
0.0906412 -0.436508 0
-0.650267 -1.39332 0
0.0512 -0.190412 0
0.024682 -0.0806393 0
0.0166858 -0.574408 0
-0.0532597 -1.12232 0
-0.943813 -0.765972 0
-0.056667 -0.62306 0
-0.8774 -1.43686 0
0.041343 -0.184006 0
0.000482927 -0.0490133 0
-0.251529 -0.554095 0
-0.163243 -0.838441 0
0.0284894 -1.6571 0
0.0484751 -0.198103 0
-0.536198 -1.07447 0
-0.0475943 -0.295378 0
-0.242312 -0.484537 0
0.14418 -0.37661 0
-0.597713 -0.765186 0
-0.396148 -0.477741 0
0.122241 -0.358286 0
-0.281103 -1.02221 0
-0.0701119 -0.112949 0
0.264328 -1.3849 0
0.994338 -1.62447 0
1.10606 -0.68223 0
0.699497 -0.549293 0
-0.13638 -0.934829 0
0.00455146 -0.921917 0
-0.028361 -1.47077 0
0.249406 -1.74406 0
0.141343 -0.171764 0
0.134193 -0.253008 0
-0.140612 -1.36436 0
0.0745772 -0.885102 0
0.158458 -0.246281 0
0.0855208 -1.01152 0
0.122117 -0.221961 0
0.573207 -1.20796 0
0.321003 -0.630533 0
0.0356209 -0.157742 0
0.125525 -1.34375 0
0.30837 -0.4586 0
0.0419439 -0.241546 0
0.0602189 -1.01634 0
0.189392 -1.21954 0
0.0828991 -0.51304 0
-0.129638 -0.609748 0
-0.683492 -0.80203 0
0.0749762 -1.03078 0
0.0849444 -0.317289 0
0.185888 -0.394851 0
0.0887802 -0.750836 0
-0.0928773 -1.15007 0
0.402442 -0.43895 0
0.777525 -1.4752 0
-0.129437 -0.866478 0
0.449046 -0.61105 0
0.102292 -0.239479 0
0.539199 -2.34422 0
0.359196 -1.0319 0
0.0146446 -0.430777 0
0.0501653 -0.636863 0
-0.0339028 -1.52681 0
0.50112 -0.900788 0
0.118459 -0.282193 0
-0.00592506 -1.37096 0
-0.116047 -0.508809 0
0.0642686 -0.358451 0
0.864847 -1.54006 0
-0.138287 -0.998066 0
0.87159 -1.5428 0
0.515646 -0.458966 0
0.568575 -2.95445 0
0.429186 -0.237673 0
0.499163 -3.2194 0
0.063133 -0.190848 0
0.552342 -0.366177 0
0.403894 -1.6224 0
-0.0066534 -0.999016 0
0.0393096 -0.621451 0
0.608506 -0.530889 0
-0.634825 -1.21641 0
-0.0342014 -0.690185 0
0.969301 -0.764905 0
0.0407512 -0.428118 0
-0.09019 -1.73206 0
0.337946 -0.386201 0
0.0304446 -0.061734 0
-0.306925 -0.643664 0
-0.606009 -1.01167 0
-0.477926 -0.411959 0
-0.358494 -1.25047 0
-0.830567 -1.54308 0
-0.114522 -0.476826 0
-1.38637 -2.08836 0
-0.435833 -0.776147 0
0.0357579 -1.26436 0
0.057867 -2.02756 0
0.322245 -1.97039 0
0.0608787 -1.40921 0
0.00167294 -3.51494 0
-0.106854 -1.37317 0
0.109613 -1.22194 0
-0.244578 -1.28222 0
-0.029703 -0.694242 0
-0.0251025 -0.127808 0
-0.991996 -2.82017 0
-0.404576 -0.717568 0
-0.703019 -2.1855 0
0.102141 -0.165133 0
-0.0490788 -0.53176 0
-0.649406 -1.36139 0
-0.795752 -1.8721 0
-0.134135 -0.738772 0
0.00480442 -0.058632 0
-0.458453 -2.76453 0
0.303711 -1.83377 0
-1.12227 -1.22228 0
0.232088 -0.283416 0
-0.163153 -0.265943 0
0.120326 -1.63726 0
0.159195 -1.44124 0
0.00904181 -1.86774 0
-1.63305 -1.94804 0
-0.0305833 -1.26917 0
0.26327 -0.483714 0
-0.0659601 -1.68843 0
-0.521569 -1.22908 0
0.18004 -1.60128 0
0.0270905 -1.56691 0
0.0737177 -1.37395 0
-0.24479 -0.960519 0
0.246541 -1.72744 0
-1.26308 -2.14471 0
-0.00252961 -1.22601 0
0.119374 -0.541943 0
-0.0652407 -0.221449 0
-0.16897 -3.68569 0
0.237784 -1.69504 0
0.066709 -1.1807 0
0.0421826 -1.17214 0
-1.08196 -1.66658 0
0.108642 -0.214521 0
0.103129 -0.271895 0
-0.255726 -0.442382 0
-0.468528 -2.82981 0
0.0429444 -0.868794 0
0.277623 -3.40354 0
-0.225377 -1.61247 0
0.254798 -1.25496 0
0.110266 -1.43092 0
1.23003 -3.1795 0
0.0765648 -0.47026 0
-0.563624 -1.68364 0
1.44355 -4.32146 0
1.21737 -2.15676 0
0.679508 -0.147615 0
-0.538352 -2.51386 0
-0.188282 -2.46695 0
0.888447 -0.288806 0
-0.223547 -1.64266 0
0.324355 -1.0732 0
0.231952 -0.129645 0
0.748067 -0.594316 0
0.108453 -0.373885 0
-0.428429 -1.37825 0
0.251525 -0.25886 0
0.753974 -0.225552 0
0.779726 -3.92139 0
0.865401 -0.276991 0
0.436913 -0.277584 0
1.24454 -4.37737 0
-0.214312 -2.6042 0
1.52298 -0.556847 0
0.336205 -0.122696 0
-0.0617515 -0.925506 0
0.0342687 -0.199119 0
0.267771 -0.474621 0
-0.251968 -1.03987 0
0.179957 -1.11359 0
0.79661 -2.23003 0
0.898731 -0.603035 0
-0.10994 -1.70481 0
0.426488 -0.395251 0
-0.106594 -0.533821 0
0.640818 -0.69457 0
0.357641 -0.265055 0
-0.377223 -1.43781 0
0.962215 -0.767827 0
0.5964 -0.226888 0
-0.0195797 -1.23688 0
0.638449 -3.00207 0
-0.023512 -0.428445 0
0.0403949 -0.0613668 0
0.349014 -0.233246 0
-0.538375 -2.25342 0
0.26771 -0.452558 0
0.175456 -0.709585 0
-0.195289 -1.5459 0
0.0999759 -0.287048 0
0.0727514 -0.152213 0
1.06348 -2.77312 0
0.618441 -0.16548 0
0.360193 -0.188485 0
-0.281784 -0.610878 0
0.0674598 -0.0708258 0
0.986489 -0.410846 0
2.18437 -0.670994 0
0.427542 -0.238433 0
0.547813 -0.480005 0
2.25456 -1.16645 0
1.2671 -2.22296 0
0.387198 -0.916764 0
0.688755 -0.189059 0
