# vtk DataFile Version 2.0
Unstructured Grid by M++
ASCII
DATASET UNSTRUCTURED_GRID
POINTS 81 float
  1.000000   0.625000 0
  0.750000   0.375000 0
  1.000000   0.000000 0
  0.875000   0.875000 0
  0.750000   0.125000 0
  1.000000   1.000000 0
  0.875000   0.250000 0
  0.625000   0.875000 0
  1.000000   0.750000 0
  0.875000   0.000000 0
  1.000000   0.250000 0
  0.625000   0.375000 0
  0.875000   0.500000 0
  0.625000   0.625000 0
  1.000000   0.500000 0
  0.750000   0.500000 0
  0.750000   1.000000 0
  1.000000   0.125000 0
  0.625000   0.250000 0
  0.750000   0.750000 0
  0.625000   0.000000 0
  0.125000   0.375000 0
  0.000000   0.500000 0
  0.125000   0.625000 0
  0.625000   1.000000 0
  1.000000   0.875000 0
  0.875000   0.125000 0
  0.500000   0.250000 0
  0.625000   0.500000 0
  0.250000   0.625000 0
  0.000000   0.625000 0
  0.375000   0.500000 0
  0.375000   0.000000 0
  0.000000   0.125000 0
  0.125000   0.875000 0
  0.875000   1.000000 0
  0.750000   0.250000 0
  0.375000   0.375000 0
  0.250000   0.375000 0
  0.625000   0.750000 0
  0.125000   0.125000 0
  0.500000   0.000000 0
  0.250000   0.875000 0
  0.125000   0.500000 0
  0.500000   0.375000 0
  0.125000   0.000000 0
  0.250000   0.750000 0
  0.250000   0.500000 0
  0.000000   0.875000 0
  0.875000   0.625000 0
  0.500000   0.750000 0
  0.750000   0.625000 0
  0.250000   0.000000 0
  0.375000   0.750000 0
  0.750000   0.875000 0
  0.625000   0.125000 0
  0.250000   0.250000 0
  0.375000   1.000000 0
  0.375000   0.250000 0
  0.000000   0.375000 0
  0.500000   1.000000 0
  0.875000   0.750000 0
  0.750000   0.000000 0
  0.375000   0.125000 0
  0.500000   0.875000 0
  0.000000   0.000000 0
  0.125000   0.750000 0
  0.500000   0.625000 0
  0.125000   0.250000 0
  0.500000   0.125000 0
  0.250000   1.000000 0
  0.250000   0.125000 0
  0.000000   1.000000 0
  0.375000   0.875000 0
  0.000000   0.750000 0
  0.375000   0.625000 0
  0.000000   0.250000 0
  0.125000   1.000000 0
  1.000000   0.375000 0
  0.500000   0.500000 0
  0.875000   0.375000 0
CELLS 64 320
4 56 71 58 63
4 27 58 69 63
4 41 69 32 63
4 76 33 68 40
4 27 44 58 37
4 79 31 44 37
4 56 38 68 21
4 56 58 38 37
4 52 32 71 63
4 47 38 31 37
4 76 68 59 21
4 22 59 43 21
4 65 45 33 40
4 47 43 38 21
4 52 71 45 40
4 56 68 71 40
4 74 30 66 23
4 46 66 29 23
4 22 43 30 23
4 72 48 77 34
4 46 53 42 73
4 50 64 53 73
4 70 42 57 73
4 74 66 48 34
4 46 42 66 34
4 47 29 43 23
4 70 77 42 34
4 60 57 64 73
4 79 67 31 75
4 47 31 29 75
4 50 53 67 75
4 46 29 53 75
4 10 78 6 80
4 36 6 1 80
4 15 1 12 80
4 36 4 6 26
4 14 12 78 80
4 2 17 9 26
4 36 18 4 55
4 15 28 1 11
4 62 4 20 55
4 10 6 17 26
4 27 18 44 11
4 62 9 4 26
4 27 69 18 55
4 36 1 18 11
4 41 20 69 55
4 79 44 28 11
4 16 24 54 7
4 19 54 39 7
4 50 39 64 7
4 8 25 61 3
4 60 64 24 7
4 79 28 67 13
4 19 51 61 49
4 8 61 0 49
4 15 51 28 13
4 19 39 51 13
4 50 67 39 13
4 19 61 54 3
4 14 0 12 49
4 5 35 25 3
4 15 12 51 49
4 16 54 35 3
CELL_TYPES 64
8
8
8
8
8
8
8
8
8
8
8
8
8
8
8
8
8
8
8
8
8
8
8
8
8
8
8
8
8
8
8
8
8
8
8
8
8
8
8
8
8
8
8
8
8
8
8
8
8
8
8
8
8
8
8
8
8
8
8
8
8
8
8
8
CELL_DATA 64
VECTORS vector_value float
-0.361857 -1.13922 0
0.0370438 -0.0541852 0
0.02292 -0.0611605 0
-0.192061 -0.475456 0
-0.874623 -0.56681 0
-1.53789 -1.49097 0
-0.644876 -0.947419 0
-1.71208 -1.86557 0
-0.00804449 -0.525907 0
-0.607417 -0.9577 0
0.0100746 -0.398924 0
-0.0629467 -0.478858 0
-0.0682778 -0.907143 0
-0.194369 -0.251786 0
-0.0481977 -2.25412 0
-0.698805 -2.129 0
0.0136291 -0.367981 0
0.0224738 -0.0455368 0
0.0294815 -0.310466 0
0.258325 -0.918273 0
0.960389 -0.75148 0
1.03154 -1.04513 0
1.00239 -1.17496 0
0.0468236 -0.436923 0
0.176431 -0.0943041 0
-0.0687735 -0.2464 0
0.913882 -0.406497 0
0.931552 -0.669485 0
-0.145119 -0.79698 0
-0.213015 -0.268904 0
0.320647 -1.51566 0
0.0140752 -0.159483 0
-0.18615 -2.49323 0
-0.0270344 -0.176584 0
0.0606547 -0.827471 0
-0.408108 -1.14729 0
0.213877 -2.13367 0
-0.105719 -1.37993 0
0.178017 -1.34319 0
-0.236235 -0.951485 0
0.0242789 -1.34278 0
-0.188708 -1.6429 0
0.00797011 -0.326982 0
-0.0390098 -1.46445 0
0.0459464 -0.0687505 0
-0.0334168 -1.22448 0
0.0373585 -0.0645102 0
-0.578638 -0.908058 0
2.60286 -1.97145 0
-0.0289522 -0.354395 0
0.455118 -0.319763 0
0.0223575 -0.167901 0
1.71503 -0.570616 0
-0.928147 -2.05859 0
0.0506487 -3.80466 0
0.34768 -0.451688 0
-0.498661 -0.960464 0
-0.988076 -1.22235 0
-0.0289935 -0.432639 0
0.940851 -4.8301 0
0.446419 -1.51806 0
-0.377413 -0.379123 0
0.100433 -1.84014 0
-0.0727837 -1.90959 0
