# vtk DataFile Version 2.0
Unstructured Grid by M++
ASCII
DATASET UNSTRUCTURED_GRID
POINTS 81 float
  1.000000   0.625000 0
  0.750000   0.375000 0
  1.000000   0.000000 0
  0.875000   0.875000 0
  0.750000   0.125000 0
  1.000000   1.000000 0
  0.875000   0.250000 0
  0.625000   0.875000 0
  1.000000   0.750000 0
  0.875000   0.000000 0
  1.000000   0.250000 0
  0.625000   0.375000 0
  0.875000   0.500000 0
  0.625000   0.625000 0
  1.000000   0.500000 0
  0.750000   0.500000 0
  0.750000   1.000000 0
  1.000000   0.125000 0
  0.625000   0.250000 0
  0.750000   0.750000 0
  0.625000   0.000000 0
  0.125000   0.375000 0
  0.000000   0.500000 0
  0.125000   0.625000 0
  0.625000   1.000000 0
  1.000000   0.875000 0
  0.875000   0.125000 0
  0.500000   0.250000 0
  0.625000   0.500000 0
  0.250000   0.625000 0
  0.000000   0.625000 0
  0.375000   0.500000 0
  0.375000   0.000000 0
  0.000000   0.125000 0
  0.125000   0.875000 0
  0.875000   1.000000 0
  0.750000   0.250000 0
  0.375000   0.375000 0
  0.250000   0.375000 0
  0.625000   0.750000 0
  0.125000   0.125000 0
  0.500000   0.000000 0
  0.250000   0.875000 0
  0.125000   0.500000 0
  0.500000   0.375000 0
  0.125000   0.000000 0
  0.250000   0.750000 0
  0.250000   0.500000 0
  0.000000   0.875000 0
  0.875000   0.625000 0
  0.500000   0.750000 0
  0.750000   0.625000 0
  0.250000   0.000000 0
  0.375000   0.750000 0
  0.750000   0.875000 0
  0.625000   0.125000 0
  0.250000   0.250000 0
  0.375000   1.000000 0
  0.375000   0.250000 0
  0.000000   0.375000 0
  0.500000   1.000000 0
  0.875000   0.750000 0
  0.750000   0.000000 0
  0.375000   0.125000 0
  0.500000   0.875000 0
  0.000000   0.000000 0
  0.125000   0.750000 0
  0.500000   0.625000 0
  0.125000   0.250000 0
  0.500000   0.125000 0
  0.250000   1.000000 0
  0.250000   0.125000 0
  0.000000   1.000000 0
  0.375000   0.875000 0
  0.000000   0.750000 0
  0.375000   0.625000 0
  0.000000   0.250000 0
  0.125000   1.000000 0
  1.000000   0.375000 0
  0.500000   0.500000 0
  0.875000   0.375000 0
CELLS 64 320
4 56 71 58 63
4 27 58 69 63
4 41 69 32 63
4 76 33 68 40
4 27 44 58 37
4 79 31 44 37
4 56 38 68 21
4 56 58 38 37
4 52 32 71 63
4 47 38 31 37
4 76 68 59 21
4 22 59 43 21
4 65 45 33 40
4 47 43 38 21
4 52 71 45 40
4 56 68 71 40
4 74 30 66 23
4 46 66 29 23
4 22 43 30 23
4 72 48 77 34
4 46 53 42 73
4 50 64 53 73
4 70 42 57 73
4 74 66 48 34
4 46 42 66 34
4 47 29 43 23
4 70 77 42 34
4 60 57 64 73
4 79 67 31 75
4 47 31 29 75
4 50 53 67 75
4 46 29 53 75
4 10 78 6 80
4 36 6 1 80
4 15 1 12 80
4 36 4 6 26
4 14 12 78 80
4 2 17 9 26
4 36 18 4 55
4 15 28 1 11
4 62 4 20 55
4 10 6 17 26
4 27 18 44 11
4 62 9 4 26
4 27 69 18 55
4 36 1 18 11
4 41 20 69 55
4 79 44 28 11
4 16 24 54 7
4 19 54 39 7
4 50 39 64 7
4 8 25 61 3
4 60 64 24 7
4 79 28 67 13
4 19 51 61 49
4 8 61 0 49
4 15 51 28 13
4 19 39 51 13
4 50 67 39 13
4 19 61 54 3
4 14 0 12 49
4 5 35 25 3
4 15 12 51 49
4 16 54 35 3
CELL_TYPES 64
8
8
8
8
8
8
8
8
8
8
8
8
8
8
8
8
8
8
8
8
8
8
8
8
8
8
8
8
8
8
8
8
8
8
8
8
8
8
8
8
8
8
8
8
8
8
8
8
8
8
8
8
8
8
8
8
8
8
8
8
8
8
8
8
CELL_DATA 64
VECTORS vector_value float
0.05979 -0.224673 0
-0.0876162 -0.431409 0
-0.062491 -0.750008 0
-0.0759379 -0.216817 0
-0.0147331 -0.643545 0
-0.100211 -1.17927 0
-0.174767 -0.373451 0
-0.307992 -0.191549 0
0.0388853 -0.340456 0
-0.0533624 -0.0200552 0
-0.0293193 -0.0730413 0
0.058466 -0.0956475 0
-0.00456049 -0.289705 0
0.061006 -0.214484 0
0.00217914 -0.0993129 0
0.0339962 -0.32257 0
0.0373517 -0.285036 0
0.101066 -0.0513448 0
0.0385143 -0.250001 0
0.26777 -0.893466 0
0.985142 -0.494065 0
2.13264 -1.69257 0
1.05748 -1.25814 0
0.0621027 -0.393607 0
0.292384 -0.200425 0
0.00643988 -0.0259952 0
0.838697 -0.475688 0
0.621971 -0.831147 0
-0.271382 -0.769428 0
0.0015643 -0.0187861 0
0.166932 -0.347518 0
0.165724 -0.0884044 0
0.0797172 -1.01495 0
0.70544 -0.703664 0
0.0347098 -0.150748 0
2.05506 -1.94148 0
0.00430782 -1.01233 0
0.199619 -3.21802 0
0.971953 -1.04313 0
0.0888395 -0.249852 0
0.0661046 -0.310002 0
0.862381 -2.11844 0
1.29254 -3.17997 0
0.30472 -1.82192 0
0.093593 -1.70148 0
2.80012 -1.81983 0
-0.00782295 -1.17058 0
0.642339 -5.07762 0
-0.191002 -1.22136 0
0.150432 -2.26279 0
0.657015 -1.56393 0
0.3326 -1.02434 0
0.472622 -1.61184 0
-1.02839 -4.9888 0
-0.218543 -0.572085 0
-0.160493 -0.993776 0
-0.551451 -0.754438 0
-0.629042 -1.38348 0
0.31203 -4.27836 0
0.181144 -0.368278 0
0.0980893 -0.823452 0
-0.273942 -0.540987 0
0.0432553 -0.369098 0
-0.426019 -1.16738 0
