# vtk DataFile Version 2.0
Unstructured Grid by M++
ASCII
DATASET UNSTRUCTURED_GRID
POINTS 81 float
  1.000000   0.625000 0
  0.750000   0.375000 0
  1.000000   0.000000 0
  0.875000   0.875000 0
  0.750000   0.125000 0
  1.000000   1.000000 0
  0.875000   0.250000 0
  0.625000   0.875000 0
  1.000000   0.750000 0
  0.875000   0.000000 0
  1.000000   0.250000 0
  0.625000   0.375000 0
  0.875000   0.500000 0
  0.625000   0.625000 0
  1.000000   0.500000 0
  0.750000   0.500000 0
  0.750000   1.000000 0
  1.000000   0.125000 0
  0.625000   0.250000 0
  0.750000   0.750000 0
  0.625000   0.000000 0
  0.125000   0.375000 0
  0.000000   0.500000 0
  0.125000   0.625000 0
  0.625000   1.000000 0
  1.000000   0.875000 0
  0.875000   0.125000 0
  0.500000   0.250000 0
  0.625000   0.500000 0
  0.250000   0.625000 0
  0.000000   0.625000 0
  0.375000   0.500000 0
  0.375000   0.000000 0
  0.000000   0.125000 0
  0.125000   0.875000 0
  0.875000   1.000000 0
  0.750000   0.250000 0
  0.375000   0.375000 0
  0.250000   0.375000 0
  0.625000   0.750000 0
  0.125000   0.125000 0
  0.500000   0.000000 0
  0.250000   0.875000 0
  0.125000   0.500000 0
  0.500000   0.375000 0
  0.125000   0.000000 0
  0.250000   0.750000 0
  0.250000   0.500000 0
  0.000000   0.875000 0
  0.875000   0.625000 0
  0.500000   0.750000 0
  0.750000   0.625000 0
  0.250000   0.000000 0
  0.375000   0.750000 0
  0.750000   0.875000 0
  0.625000   0.125000 0
  0.250000   0.250000 0
  0.375000   1.000000 0
  0.375000   0.250000 0
  0.000000   0.375000 0
  0.500000   1.000000 0
  0.875000   0.750000 0
  0.750000   0.000000 0
  0.375000   0.125000 0
  0.500000   0.875000 0
  0.000000   0.000000 0
  0.125000   0.750000 0
  0.500000   0.625000 0
  0.125000   0.250000 0
  0.500000   0.125000 0
  0.250000   1.000000 0
  0.250000   0.125000 0
  0.000000   1.000000 0
  0.375000   0.875000 0
  0.000000   0.750000 0
  0.375000   0.625000 0
  0.000000   0.250000 0
  0.125000   1.000000 0
  1.000000   0.375000 0
  0.500000   0.500000 0
  0.875000   0.375000 0
CELLS 64 320
4 56 71 58 63
4 27 58 69 63
4 41 69 32 63
4 76 33 68 40
4 27 44 58 37
4 79 31 44 37
4 56 38 68 21
4 56 58 38 37
4 52 32 71 63
4 47 38 31 37
4 76 68 59 21
4 22 59 43 21
4 65 45 33 40
4 47 43 38 21
4 52 71 45 40
4 56 68 71 40
4 74 30 66 23
4 46 66 29 23
4 22 43 30 23
4 72 48 77 34
4 46 53 42 73
4 50 64 53 73
4 70 42 57 73
4 74 66 48 34
4 46 42 66 34
4 47 29 43 23
4 70 77 42 34
4 60 57 64 73
4 79 67 31 75
4 47 31 29 75
4 50 53 67 75
4 46 29 53 75
4 10 78 6 80
4 36 6 1 80
4 15 1 12 80
4 36 4 6 26
4 14 12 78 80
4 2 17 9 26
4 36 18 4 55
4 15 28 1 11
4 62 4 20 55
4 10 6 17 26
4 27 18 44 11
4 62 9 4 26
4 27 69 18 55
4 36 1 18 11
4 41 20 69 55
4 79 44 28 11
4 16 24 54 7
4 19 54 39 7
4 50 39 64 7
4 8 25 61 3
4 60 64 24 7
4 79 28 67 13
4 19 51 61 49
4 8 61 0 49
4 15 51 28 13
4 19 39 51 13
4 50 67 39 13
4 19 61 54 3
4 14 0 12 49
4 5 35 25 3
4 15 12 51 49
4 16 54 35 3
CELL_TYPES 64
8
8
8
8
8
8
8
8
8
8
8
8
8
8
8
8
8
8
8
8
8
8
8
8
8
8
8
8
8
8
8
8
8
8
8
8
8
8
8
8
8
8
8
8
8
8
8
8
8
8
8
8
8
8
8
8
8
8
8
8
8
8
8
8
CELL_DATA 64
VECTORS vector_value float
0.00835387 -0.895082 0
0.0617091 -0.821701 0
0.0478818 -0.68115 0
-0.00339718 -1.12542 0
0.312561 -1.14283 0
0.551025 -1.53186 0
0.0227646 -0.0893359 0
0.0888336 -1.0475 0
0.00689933 -0.920694 0
0.454124 -0.728543 0
-0.0371505 -1.18414 0
0.00623887 -1.00082 0
-0.0204304 -1.16948 0
0.269641 -0.597506 0
-0.00844605 -0.104072 0
-0.00204591 -0.170111 0
-0.0374019 -1.03224 0
-0.0362554 -1.11992 0
-0.00360489 -1.16416 0
-0.0066988 -1.13905 0
0.205833 -1.11033 0
-0.0687304 -1.26759 0
-0.398302 -0.74323 0
0.0142981 -0.96039 0
0.15767 -1.2897 0
0.114348 -1.01081 0
-0.240602 -1.33099 0
-0.395166 -1.20975 0
0.35215 -2.19856 0
0.211313 -0.36458 0
0.111726 -1.65545 0
0.190193 -0.910976 0
-0.0167077 -0.325881 0
-0.0127414 -0.0642451 0
-0.144717 -0.200986 0
-0.148884 -0.239101 0
-0.0617144 -0.267029 0
-0.00393504 -0.0168742 0
0.471745 -2.19195 0
0.130343 -0.354795 0
0.522531 -3.72048 0
-0.0994362 -0.162964 0
0.820991 -3.21078 0
-0.11422 -0.164293 0
0.448492 -2.39367 0
0.353492 -0.935287 0
0.549622 -1.22296 0
0.749978 -3.31846 0
-0.0203774 -1.22205 0
-1.19987 -2.11316 0
-0.210236 -0.149257 0
0.0124968 -0.56918 0
-0.0654073 -0.145741 0
-0.0970842 -2.47789 0
-0.046919 -0.0580368 0
-0.0354219 -0.584308 0
-0.174072 -0.207809 0
-0.455301 -0.717247 0
-1.09163 -1.92183 0
-0.263739 -0.540402 0
-0.0694756 -0.476506 0
-0.218025 -0.625188 0
-0.0812067 -0.0996778 0
-0.607589 -1.584 0
