# vtk DataFile Version 2.0
Unstructured Grid by M++
ASCII
DATASET UNSTRUCTURED_GRID
POINTS 81 float
  1.000000   0.625000 0
  0.750000   0.375000 0
  1.000000   0.000000 0
  0.875000   0.875000 0
  0.750000   0.125000 0
  1.000000   1.000000 0
  0.875000   0.250000 0
  0.625000   0.875000 0
  1.000000   0.750000 0
  0.875000   0.000000 0
  1.000000   0.250000 0
  0.625000   0.375000 0
  0.875000   0.500000 0
  0.625000   0.625000 0
  1.000000   0.500000 0
  0.750000   0.500000 0
  0.750000   1.000000 0
  1.000000   0.125000 0
  0.625000   0.250000 0
  0.750000   0.750000 0
  0.625000   0.000000 0
  0.125000   0.375000 0
  0.000000   0.500000 0
  0.125000   0.625000 0
  0.625000   1.000000 0
  1.000000   0.875000 0
  0.875000   0.125000 0
  0.500000   0.250000 0
  0.625000   0.500000 0
  0.250000   0.625000 0
  0.000000   0.625000 0
  0.375000   0.500000 0
  0.375000   0.000000 0
  0.000000   0.125000 0
  0.125000   0.875000 0
  0.875000   1.000000 0
  0.750000   0.250000 0
  0.375000   0.375000 0
  0.250000   0.375000 0
  0.625000   0.750000 0
  0.125000   0.125000 0
  0.500000   0.000000 0
  0.250000   0.875000 0
  0.125000   0.500000 0
  0.500000   0.375000 0
  0.125000   0.000000 0
  0.250000   0.750000 0
  0.250000   0.500000 0
  0.000000   0.875000 0
  0.875000   0.625000 0
  0.500000   0.750000 0
  0.750000   0.625000 0
  0.250000   0.000000 0
  0.375000   0.750000 0
  0.750000   0.875000 0
  0.625000   0.125000 0
  0.250000   0.250000 0
  0.375000   1.000000 0
  0.375000   0.250000 0
  0.000000   0.375000 0
  0.500000   1.000000 0
  0.875000   0.750000 0
  0.750000   0.000000 0
  0.375000   0.125000 0
  0.500000   0.875000 0
  0.000000   0.000000 0
  0.125000   0.750000 0
  0.500000   0.625000 0
  0.125000   0.250000 0
  0.500000   0.125000 0
  0.250000   1.000000 0
  0.250000   0.125000 0
  0.000000   1.000000 0
  0.375000   0.875000 0
  0.000000   0.750000 0
  0.375000   0.625000 0
  0.000000   0.250000 0
  0.125000   1.000000 0
  1.000000   0.375000 0
  0.500000   0.500000 0
  0.875000   0.375000 0
CELLS 64 320
4 56 71 58 63
4 27 58 69 63
4 41 69 32 63
4 76 33 68 40
4 27 44 58 37
4 79 31 44 37
4 56 38 68 21
4 56 58 38 37
4 52 32 71 63
4 47 38 31 37
4 76 68 59 21
4 22 59 43 21
4 65 45 33 40
4 47 43 38 21
4 52 71 45 40
4 56 68 71 40
4 74 30 66 23
4 46 66 29 23
4 22 43 30 23
4 72 48 77 34
4 46 53 42 73
4 50 64 53 73
4 70 42 57 73
4 74 66 48 34
4 46 42 66 34
4 47 29 43 23
4 70 77 42 34
4 60 57 64 73
4 79 67 31 75
4 47 31 29 75
4 50 53 67 75
4 46 29 53 75
4 10 78 6 80
4 36 6 1 80
4 15 1 12 80
4 36 4 6 26
4 14 12 78 80
4 2 17 9 26
4 36 18 4 55
4 15 28 1 11
4 62 4 20 55
4 10 6 17 26
4 27 18 44 11
4 62 9 4 26
4 27 69 18 55
4 36 1 18 11
4 41 20 69 55
4 79 44 28 11
4 16 24 54 7
4 19 54 39 7
4 50 39 64 7
4 8 25 61 3
4 60 64 24 7
4 79 28 67 13
4 19 51 61 49
4 8 61 0 49
4 15 51 28 13
4 19 39 51 13
4 50 67 39 13
4 19 61 54 3
4 14 0 12 49
4 5 35 25 3
4 15 12 51 49
4 16 54 35 3
CELL_TYPES 64
8
8
8
8
8
8
8
8
8
8
8
8
8
8
8
8
8
8
8
8
8
8
8
8
8
8
8
8
8
8
8
8
8
8
8
8
8
8
8
8
8
8
8
8
8
8
8
8
8
8
8
8
8
8
8
8
8
8
8
8
8
8
8
8
CELL_DATA 64
VECTORS vector_value float
-0.84161 -4.51613 0
-0.187013 -0.288015 0
-0.0365348 -0.376957 0
0.132682 -0.999224 0
-1.00276 -1.51379 0
-1.73804 -4.52042 0
-0.0874989 -0.437057 0
-1.83067 -4.19257 0
-0.0192409 -4.22601 0
-0.751391 -1.22663 0
0.0589786 -1.12149 0
0.0332586 -1.27184 0
0.0301335 -0.776934 0
-0.008159 -0.0317457 0
0.0178902 -2.06381 0
-0.445799 -1.52723 0
-0.187226 -0.795574 0
-0.452452 -0.408043 0
-0.170749 -1.21529 0
0.211133 -0.692101 0
0.0481395 -1.37014 0
-0.110712 -2.90731 0
0.803587 -2.11515 0
0.00834526 -0.534474 0
-0.0207198 -0.32974 0
-0.0642072 -0.100283 0
0.75509 -0.549174 0
-0.192122 -0.614819 0
-0.421788 -4.75868 0
0.0237474 -0.320111 0
-0.0723488 -3.42345 0
0.110484 -0.934247 0
-0.0880452 -0.209906 0
-0.185347 -0.164201 0
0.00228218 -0.0402442 0
-0.0570251 -0.055823 0
0.0813289 -0.334802 0
-0.0104698 -0.0311028 0
-0.0916369 -0.376912 0
-0.0602924 -0.173954 0
-0.00452497 -0.340987 0
-0.031448 -0.0938713 0
-0.0485937 -0.283705 0
-0.0248541 -0.110263 0
-0.0440661 -0.142793 0
-0.0218701 -0.0772803 0
-0.0377487 -0.0739382 0
-0.368263 -0.400355 0
-1.19508 -1.2669 0
-0.183523 -1.13108 0
-0.388485 -1.15335 0
-0.0876322 -0.413324 0
-0.880309 -1.65624 0
-0.878552 -0.336789 0
-0.226629 -0.31889 0
-0.0889329 -0.128876 0
-0.487239 -0.876659 0
-0.144728 -1.47216 0
-0.340953 -0.518758 0
-0.133421 -0.160581 0
0.0126922 -0.104318 0
-0.273687 -1.01212 0
0.107828 -0.287875 0
-0.900742 -0.0934881 0
