# vtk DataFile Version 2.0
Unstructured Grid by M++
ASCII
DATASET UNSTRUCTURED_GRID
POINTS 81 float
  1.000000   0.625000 0
  0.750000   0.375000 0
  1.000000   0.000000 0
  0.875000   0.875000 0
  0.750000   0.125000 0
  1.000000   1.000000 0
  0.875000   0.250000 0
  0.625000   0.875000 0
  1.000000   0.750000 0
  0.875000   0.000000 0
  1.000000   0.250000 0
  0.625000   0.375000 0
  0.875000   0.500000 0
  0.625000   0.625000 0
  1.000000   0.500000 0
  0.750000   0.500000 0
  0.750000   1.000000 0
  1.000000   0.125000 0
  0.625000   0.250000 0
  0.750000   0.750000 0
  0.625000   0.000000 0
  0.125000   0.375000 0
  0.000000   0.500000 0
  0.125000   0.625000 0
  0.625000   1.000000 0
  1.000000   0.875000 0
  0.875000   0.125000 0
  0.500000   0.250000 0
  0.625000   0.500000 0
  0.250000   0.625000 0
  0.000000   0.625000 0
  0.375000   0.500000 0
  0.375000   0.000000 0
  0.000000   0.125000 0
  0.125000   0.875000 0
  0.875000   1.000000 0
  0.750000   0.250000 0
  0.375000   0.375000 0
  0.250000   0.375000 0
  0.625000   0.750000 0
  0.125000   0.125000 0
  0.500000   0.000000 0
  0.250000   0.875000 0
  0.125000   0.500000 0
  0.500000   0.375000 0
  0.125000   0.000000 0
  0.250000   0.750000 0
  0.250000   0.500000 0
  0.000000   0.875000 0
  0.875000   0.625000 0
  0.500000   0.750000 0
  0.750000   0.625000 0
  0.250000   0.000000 0
  0.375000   0.750000 0
  0.750000   0.875000 0
  0.625000   0.125000 0
  0.250000   0.250000 0
  0.375000   1.000000 0
  0.375000   0.250000 0
  0.000000   0.375000 0
  0.500000   1.000000 0
  0.875000   0.750000 0
  0.750000   0.000000 0
  0.375000   0.125000 0
  0.500000   0.875000 0
  0.000000   0.000000 0
  0.125000   0.750000 0
  0.500000   0.625000 0
  0.125000   0.250000 0
  0.500000   0.125000 0
  0.250000   1.000000 0
  0.250000   0.125000 0
  0.000000   1.000000 0
  0.375000   0.875000 0
  0.000000   0.750000 0
  0.375000   0.625000 0
  0.000000   0.250000 0
  0.125000   1.000000 0
  1.000000   0.375000 0
  0.500000   0.500000 0
  0.875000   0.375000 0
CELLS 64 320
4 56 71 58 63
4 27 58 69 63
4 41 69 32 63
4 76 33 68 40
4 27 44 58 37
4 79 31 44 37
4 56 38 68 21
4 56 58 38 37
4 52 32 71 63
4 47 38 31 37
4 76 68 59 21
4 22 59 43 21
4 65 45 33 40
4 47 43 38 21
4 52 71 45 40
4 56 68 71 40
4 74 30 66 23
4 46 66 29 23
4 22 43 30 23
4 72 48 77 34
4 46 53 42 73
4 50 64 53 73
4 70 42 57 73
4 74 66 48 34
4 46 42 66 34
4 47 29 43 23
4 70 77 42 34
4 60 57 64 73
4 79 67 31 75
4 47 31 29 75
4 50 53 67 75
4 46 29 53 75
4 10 78 6 80
4 36 6 1 80
4 15 1 12 80
4 36 4 6 26
4 14 12 78 80
4 2 17 9 26
4 36 18 4 55
4 15 28 1 11
4 62 4 20 55
4 10 6 17 26
4 27 18 44 11
4 62 9 4 26
4 27 69 18 55
4 36 1 18 11
4 41 20 69 55
4 79 44 28 11
4 16 24 54 7
4 19 54 39 7
4 50 39 64 7
4 8 25 61 3
4 60 64 24 7
4 79 28 67 13
4 19 51 61 49
4 8 61 0 49
4 15 51 28 13
4 19 39 51 13
4 50 67 39 13
4 19 61 54 3
4 14 0 12 49
4 5 35 25 3
4 15 12 51 49
4 16 54 35 3
CELL_TYPES 64
8
8
8
8
8
8
8
8
8
8
8
8
8
8
8
8
8
8
8
8
8
8
8
8
8
8
8
8
8
8
8
8
8
8
8
8
8
8
8
8
8
8
8
8
8
8
8
8
8
8
8
8
8
8
8
8
8
8
8
8
8
8
8
8
CELL_DATA 64
VECTORS vector_value float
-0.0158402 -0.204276 0
-0.13263 -0.562438 0
-0.0696071 -0.416798 0
0.0541623 -0.926622 0
0.0299065 -0.383473 0
0.0638069 -0.333558 0
0.0152515 -0.684366 0
0.0297959 -0.381139 0
-0.0363418 -0.620075 0
0.0986233 -0.359819 0
0.0331853 -1.10151 0
-0.0125819 -1.03614 0
-0.00116768 -0.912009 0
0.0495277 -0.848398 0
0.0499236 -0.800524 0
0.0787781 -0.953601 0
0.0418189 -1.27218 0
0.0886217 -0.781041 0
0.0902209 -1.12857 0
-0.193586 -1.14548 0
0.130646 -0.425492 0
0.246058 -0.978659 0
0.0436561 -0.955899 0
0.0317491 -1.4267 0
0.0918181 -0.78048 0
0.14002 -0.85728 0
-0.317892 -1.00587 0
0.24883 -0.701214 0
0.219179 -0.433505 0
0.0903573 -0.326923 0
0.341848 -0.77975 0
0.130476 -0.345199 0
0.713714 -2.02725 0
0.993281 -2.01225 0
0.395236 -2.32522 0
0.339821 -1.81217 0
-0.0664848 -0.972933 0
0.0879883 -3.05303 0
-0.0305258 -0.683666 0
0.836718 -1.1628 0
-0.00728137 -0.473383 0
0.240413 -2.53121 0
0.0734782 -0.352219 0
0.0537977 -1.35431 0
-0.15831 -0.326017 0
0.530446 -1.05779 0
-0.0372198 -0.36987 0
0.398053 -0.96113 0
0.486203 -0.410315 0
0.103531 -0.514003 0
0.135238 -1.05585 0
0.48005 -2.06848 0
0.270501 -1.17911 0
0.652423 -1.80982 0
-0.363651 -1.10998 0
-0.3855 -1.77504 0
0.256116 -0.736559 0
-0.0323883 -0.385567 0
0.225292 -1.55125 0
0.152477 -0.750331 0
-0.0869951 -1.20915 0
0.0579938 -0.922999 0
-0.12795 -1.49819 0
0.796139 -1.67912 0
