# vtk DataFile Version 2.0
Unstructured Grid by M++
ASCII
DATASET UNSTRUCTURED_GRID
POINTS 81 float
  1.000000   0.625000 0
  0.750000   0.375000 0
  1.000000   0.000000 0
  0.875000   0.875000 0
  0.750000   0.125000 0
  1.000000   1.000000 0
  0.875000   0.250000 0
  0.625000   0.875000 0
  1.000000   0.750000 0
  0.875000   0.000000 0
  1.000000   0.250000 0
  0.625000   0.375000 0
  0.875000   0.500000 0
  0.625000   0.625000 0
  1.000000   0.500000 0
  0.750000   0.500000 0
  0.750000   1.000000 0
  1.000000   0.125000 0
  0.625000   0.250000 0
  0.750000   0.750000 0
  0.625000   0.000000 0
  0.125000   0.375000 0
  0.000000   0.500000 0
  0.125000   0.625000 0
  0.625000   1.000000 0
  1.000000   0.875000 0
  0.875000   0.125000 0
  0.500000   0.250000 0
  0.625000   0.500000 0
  0.250000   0.625000 0
  0.000000   0.625000 0
  0.375000   0.500000 0
  0.375000   0.000000 0
  0.000000   0.125000 0
  0.125000   0.875000 0
  0.875000   1.000000 0
  0.750000   0.250000 0
  0.375000   0.375000 0
  0.250000   0.375000 0
  0.625000   0.750000 0
  0.125000   0.125000 0
  0.500000   0.000000 0
  0.250000   0.875000 0
  0.125000   0.500000 0
  0.500000   0.375000 0
  0.125000   0.000000 0
  0.250000   0.750000 0
  0.250000   0.500000 0
  0.000000   0.875000 0
  0.875000   0.625000 0
  0.500000   0.750000 0
  0.750000   0.625000 0
  0.250000   0.000000 0
  0.375000   0.750000 0
  0.750000   0.875000 0
  0.625000   0.125000 0
  0.250000   0.250000 0
  0.375000   1.000000 0
  0.375000   0.250000 0
  0.000000   0.375000 0
  0.500000   1.000000 0
  0.875000   0.750000 0
  0.750000   0.000000 0
  0.375000   0.125000 0
  0.500000   0.875000 0
  0.000000   0.000000 0
  0.125000   0.750000 0
  0.500000   0.625000 0
  0.125000   0.250000 0
  0.500000   0.125000 0
  0.250000   1.000000 0
  0.250000   0.125000 0
  0.000000   1.000000 0
  0.375000   0.875000 0
  0.000000   0.750000 0
  0.375000   0.625000 0
  0.000000   0.250000 0
  0.125000   1.000000 0
  1.000000   0.375000 0
  0.500000   0.500000 0
  0.875000   0.375000 0
CELLS 64 320
4 56 71 58 63
4 27 58 69 63
4 41 69 32 63
4 76 33 68 40
4 27 44 58 37
4 79 31 44 37
4 56 38 68 21
4 56 58 38 37
4 52 32 71 63
4 47 38 31 37
4 76 68 59 21
4 22 59 43 21
4 65 45 33 40
4 47 43 38 21
4 52 71 45 40
4 56 68 71 40
4 74 30 66 23
4 46 66 29 23
4 22 43 30 23
4 72 48 77 34
4 46 53 42 73
4 50 64 53 73
4 70 42 57 73
4 74 66 48 34
4 46 42 66 34
4 47 29 43 23
4 70 77 42 34
4 60 57 64 73
4 79 67 31 75
4 47 31 29 75
4 50 53 67 75
4 46 29 53 75
4 10 78 6 80
4 36 6 1 80
4 15 1 12 80
4 36 4 6 26
4 14 12 78 80
4 2 17 9 26
4 36 18 4 55
4 15 28 1 11
4 62 4 20 55
4 10 6 17 26
4 27 18 44 11
4 62 9 4 26
4 27 69 18 55
4 36 1 18 11
4 41 20 69 55
4 79 44 28 11
4 16 24 54 7
4 19 54 39 7
4 50 39 64 7
4 8 25 61 3
4 60 64 24 7
4 79 28 67 13
4 19 51 61 49
4 8 61 0 49
4 15 51 28 13
4 19 39 51 13
4 50 67 39 13
4 19 61 54 3
4 14 0 12 49
4 5 35 25 3
4 15 12 51 49
4 16 54 35 3
CELL_TYPES 64
8
8
8
8
8
8
8
8
8
8
8
8
8
8
8
8
8
8
8
8
8
8
8
8
8
8
8
8
8
8
8
8
8
8
8
8
8
8
8
8
8
8
8
8
8
8
8
8
8
8
8
8
8
8
8
8
8
8
8
8
8
8
8
8
CELL_DATA 64
VECTORS vector_value float
-0.0058726 -0.0269975 0
-0.0101639 -0.0340443 0
-0.0294066 -0.102581 0
-0.320521 -6.13937 0
-0.137941 -0.0377036 0
-1.03811 -0.137373 0
-2.35551 -1.79686 0
-0.378617 -0.281132 0
-0.00110385 -0.0119622 0
-1.54964 -1.47633 0
-1.68754 -4.20249 0
-0.251603 -1.89544 0
0.041031 -6.142 0
-1.05304 -2.23797 0
0.000919818 -0.211685 0
-0.0442392 -0.204296 0
-0.171325 -0.807109 0
-0.246187 -2.95291 0
-0.261509 -1.36505 0
-0.587026 -1.75744 0
-1.18268 -1.23711 0
-0.673124 -0.0888696 0
-0.184423 -0.319883 0
0.674334 -1.98506 0
-0.0814996 -0.776865 0
-0.203139 -2.5843 0
-0.764989 -0.724458 0
-0.212273 -1.14696 0
-0.565758 -0.515191 0
-0.145575 -0.735664 0
-0.255059 -0.0659544 0
-0.411939 -0.729355 0
-0.210326 -0.97942 0
-0.309952 -0.0666008 0
-0.0481844 -0.190114 0
-0.0719009 -0.148628 0
0.370336 -1.11844 0
-0.0145465 -0.60007 0
-0.00846687 -0.0693239 0
-0.889495 -0.851981 0
-0.0174219 -0.18385 0
-0.0787057 -0.755202 0
-0.695571 -0.497034 0
-0.0682805 -0.227574 0
-0.00811927 -0.622139 0
-0.264422 -0.138751 0
-0.00856594 -0.520279 0
-0.51149 -0.0923509 0
-0.366359 -0.870304 0
-0.0011009 -2.00581 0
-0.0552298 -0.776759 0
-0.121939 -0.13173 0
-0.150305 -1.42141 0
-0.25525 -0.298215 0
0.384903 -1.32941 0
0.0334731 -0.0944852 0
-0.103066 -0.630903 0
0.0669954 -1.43971 0
-0.545264 -0.581075 0
-0.40025 -0.997801 0
0.152942 -0.390938 0
-0.333623 -0.497261 0
0.169777 -1.47974 0
-0.453636 -1.26229 0
