# vtk DataFile Version 2.0
Unstructured Grid by M++
ASCII
DATASET UNSTRUCTURED_GRID
POINTS 81 float
  1.000000   0.625000 0
  0.750000   0.375000 0
  1.000000   0.000000 0
  0.875000   0.875000 0
  0.750000   0.125000 0
  1.000000   1.000000 0
  0.875000   0.250000 0
  0.625000   0.875000 0
  1.000000   0.750000 0
  0.875000   0.000000 0
  1.000000   0.250000 0
  0.625000   0.375000 0
  0.875000   0.500000 0
  0.625000   0.625000 0
  1.000000   0.500000 0
  0.750000   0.500000 0
  0.750000   1.000000 0
  1.000000   0.125000 0
  0.625000   0.250000 0
  0.750000   0.750000 0
  0.625000   0.000000 0
  0.125000   0.375000 0
  0.000000   0.500000 0
  0.125000   0.625000 0
  0.625000   1.000000 0
  1.000000   0.875000 0
  0.875000   0.125000 0
  0.500000   0.250000 0
  0.625000   0.500000 0
  0.250000   0.625000 0
  0.000000   0.625000 0
  0.375000   0.500000 0
  0.375000   0.000000 0
  0.000000   0.125000 0
  0.125000   0.875000 0
  0.875000   1.000000 0
  0.750000   0.250000 0
  0.375000   0.375000 0
  0.250000   0.375000 0
  0.625000   0.750000 0
  0.125000   0.125000 0
  0.500000   0.000000 0
  0.250000   0.875000 0
  0.125000   0.500000 0
  0.500000   0.375000 0
  0.125000   0.000000 0
  0.250000   0.750000 0
  0.250000   0.500000 0
  0.000000   0.875000 0
  0.875000   0.625000 0
  0.500000   0.750000 0
  0.750000   0.625000 0
  0.250000   0.000000 0
  0.375000   0.750000 0
  0.750000   0.875000 0
  0.625000   0.125000 0
  0.250000   0.250000 0
  0.375000   1.000000 0
  0.375000   0.250000 0
  0.000000   0.375000 0
  0.500000   1.000000 0
  0.875000   0.750000 0
  0.750000   0.000000 0
  0.375000   0.125000 0
  0.500000   0.875000 0
  0.000000   0.000000 0
  0.125000   0.750000 0
  0.500000   0.625000 0
  0.125000   0.250000 0
  0.500000   0.125000 0
  0.250000   1.000000 0
  0.250000   0.125000 0
  0.000000   1.000000 0
  0.375000   0.875000 0
  0.000000   0.750000 0
  0.375000   0.625000 0
  0.000000   0.250000 0
  0.125000   1.000000 0
  1.000000   0.375000 0
  0.500000   0.500000 0
  0.875000   0.375000 0
CELLS 64 320
4 56 71 58 63
4 27 58 69 63
4 41 69 32 63
4 76 33 68 40
4 27 44 58 37
4 79 31 44 37
4 56 38 68 21
4 56 58 38 37
4 52 32 71 63
4 47 38 31 37
4 76 68 59 21
4 22 59 43 21
4 65 45 33 40
4 47 43 38 21
4 52 71 45 40
4 56 68 71 40
4 74 30 66 23
4 46 66 29 23
4 22 43 30 23
4 72 48 77 34
4 46 53 42 73
4 50 64 53 73
4 70 42 57 73
4 74 66 48 34
4 46 42 66 34
4 47 29 43 23
4 70 77 42 34
4 60 57 64 73
4 79 67 31 75
4 47 31 29 75
4 50 53 67 75
4 46 29 53 75
4 10 78 6 80
4 36 6 1 80
4 15 1 12 80
4 36 4 6 26
4 14 12 78 80
4 2 17 9 26
4 36 18 4 55
4 15 28 1 11
4 62 4 20 55
4 10 6 17 26
4 27 18 44 11
4 62 9 4 26
4 27 69 18 55
4 36 1 18 11
4 41 20 69 55
4 79 44 28 11
4 16 24 54 7
4 19 54 39 7
4 50 39 64 7
4 8 25 61 3
4 60 64 24 7
4 79 28 67 13
4 19 51 61 49
4 8 61 0 49
4 15 51 28 13
4 19 39 51 13
4 50 67 39 13
4 19 61 54 3
4 14 0 12 49
4 5 35 25 3
4 15 12 51 49
4 16 54 35 3
CELL_TYPES 64
8
8
8
8
8
8
8
8
8
8
8
8
8
8
8
8
8
8
8
8
8
8
8
8
8
8
8
8
8
8
8
8
8
8
8
8
8
8
8
8
8
8
8
8
8
8
8
8
8
8
8
8
8
8
8
8
8
8
8
8
8
8
8
8
CELL_DATA 64
VECTORS vector_value float
-0.0350402 -1.06816 0
0.502145 -0.804553 0
-0.00382207 -0.134306 0
0.00621795 -0.0654342 0
0.760863 -1.03537 0
0.560421 -0.742857 0
0.084892 -0.40285 0
0.494465 -2.02214 0
-0.256315 -1.02713 0
0.992961 -2.27245 0
0.0227815 -0.0975701 0
0.269657 -0.455598 0
-0.0122771 -0.085764 0
0.712656 -0.559054 0
-0.160555 -0.910788 0
-0.0908914 -0.619413 0
-0.128814 -0.872593 0
0.234035 -2.20999 0
0.143372 -0.940002 0
0.253198 -0.562375 0
-0.188196 -0.625279 0
-0.191846 -0.116728 0
-0.815438 -0.959548 0
-0.0990636 -0.562061 0
-0.29437 -2.59209 0
0.628642 -1.22547 0
-0.182326 -2.0115 0
-0.239618 -0.227866 0
0.0948232 -0.398819 0
0.574622 -1.59855 0
-0.0744382 -0.255059 0
0.180104 -0.790714 0
0.220509 -1.49971 0
0.0709863 -0.922016 0
-0.373071 -1.86056 0
0.82769 -1.81054 0
-0.00269296 -1.03574 0
-0.045933 -1.42584 0
1.67349 -1.1143 0
-0.151528 -0.860368 0
0.212388 -0.576755 0
-0.0389845 -1.62727 0
0.318762 -0.574295 0
0.348801 -3.39198 0
1.29215 -0.890334 0
0.00978574 -1.44605 0
0.0691795 -0.44744 0
0.141673 -0.213369 0
0.265262 -1.54317 0
0.556026 -0.966826 0
-0.0615666 -0.681964 0
0.449918 -2.06222 0
0.313306 -0.902731 0
0.0387705 -0.0887399 0
0.356907 -0.662629 0
0.0448604 -2.54538 0
-0.046113 -0.619941 0
0.122282 -0.429484 0
0.0175484 -0.234152 0
0.744571 -0.392829 0
-0.646663 -2.1546 0
0.224251 -1.35328 0
-0.581464 -0.973883 0
0.285542 -0.439533 0
