# vtk DataFile Version 2.0
Unstructured Grid by M++
ASCII
DATASET UNSTRUCTURED_GRID
POINTS 81 float
  1.000000   0.625000 0
  0.750000   0.375000 0
  1.000000   0.000000 0
  0.875000   0.875000 0
  0.750000   0.125000 0
  1.000000   1.000000 0
  0.875000   0.250000 0
  0.625000   0.875000 0
  1.000000   0.750000 0
  0.875000   0.000000 0
  1.000000   0.250000 0
  0.625000   0.375000 0
  0.875000   0.500000 0
  0.625000   0.625000 0
  1.000000   0.500000 0
  0.750000   0.500000 0
  0.750000   1.000000 0
  1.000000   0.125000 0
  0.625000   0.250000 0
  0.750000   0.750000 0
  0.625000   0.000000 0
  0.125000   0.375000 0
  0.000000   0.500000 0
  0.125000   0.625000 0
  0.625000   1.000000 0
  1.000000   0.875000 0
  0.875000   0.125000 0
  0.500000   0.250000 0
  0.625000   0.500000 0
  0.250000   0.625000 0
  0.000000   0.625000 0
  0.375000   0.500000 0
  0.375000   0.000000 0
  0.000000   0.125000 0
  0.125000   0.875000 0
  0.875000   1.000000 0
  0.750000   0.250000 0
  0.375000   0.375000 0
  0.250000   0.375000 0
  0.625000   0.750000 0
  0.125000   0.125000 0
  0.500000   0.000000 0
  0.250000   0.875000 0
  0.125000   0.500000 0
  0.500000   0.375000 0
  0.125000   0.000000 0
  0.250000   0.750000 0
  0.250000   0.500000 0
  0.000000   0.875000 0
  0.875000   0.625000 0
  0.500000   0.750000 0
  0.750000   0.625000 0
  0.250000   0.000000 0
  0.375000   0.750000 0
  0.750000   0.875000 0
  0.625000   0.125000 0
  0.250000   0.250000 0
  0.375000   1.000000 0
  0.375000   0.250000 0
  0.000000   0.375000 0
  0.500000   1.000000 0
  0.875000   0.750000 0
  0.750000   0.000000 0
  0.375000   0.125000 0
  0.500000   0.875000 0
  0.000000   0.000000 0
  0.125000   0.750000 0
  0.500000   0.625000 0
  0.125000   0.250000 0
  0.500000   0.125000 0
  0.250000   1.000000 0
  0.250000   0.125000 0
  0.000000   1.000000 0
  0.375000   0.875000 0
  0.000000   0.750000 0
  0.375000   0.625000 0
  0.000000   0.250000 0
  0.125000   1.000000 0
  1.000000   0.375000 0
  0.500000   0.500000 0
  0.875000   0.375000 0
CELLS 64 320
4 56 71 58 63
4 27 58 69 63
4 41 69 32 63
4 76 33 68 40
4 27 44 58 37
4 79 31 44 37
4 56 38 68 21
4 56 58 38 37
4 52 32 71 63
4 47 38 31 37
4 76 68 59 21
4 22 59 43 21
4 65 45 33 40
4 47 43 38 21
4 52 71 45 40
4 56 68 71 40
4 74 30 66 23
4 46 66 29 23
4 22 43 30 23
4 72 48 77 34
4 46 53 42 73
4 50 64 53 73
4 70 42 57 73
4 74 66 48 34
4 46 42 66 34
4 47 29 43 23
4 70 77 42 34
4 60 57 64 73
4 79 67 31 75
4 47 31 29 75
4 50 53 67 75
4 46 29 53 75
4 10 78 6 80
4 36 6 1 80
4 15 1 12 80
4 36 4 6 26
4 14 12 78 80
4 2 17 9 26
4 36 18 4 55
4 15 28 1 11
4 62 4 20 55
4 10 6 17 26
4 27 18 44 11
4 62 9 4 26
4 27 69 18 55
4 36 1 18 11
4 41 20 69 55
4 79 44 28 11
4 16 24 54 7
4 19 54 39 7
4 50 39 64 7
4 8 25 61 3
4 60 64 24 7
4 79 28 67 13
4 19 51 61 49
4 8 61 0 49
4 15 51 28 13
4 19 39 51 13
4 50 67 39 13
4 19 61 54 3
4 14 0 12 49
4 5 35 25 3
4 15 12 51 49
4 16 54 35 3
CELL_TYPES 64
8
8
8
8
8
8
8
8
8
8
8
8
8
8
8
8
8
8
8
8
8
8
8
8
8
8
8
8
8
8
8
8
8
8
8
8
8
8
8
8
8
8
8
8
8
8
8
8
8
8
8
8
8
8
8
8
8
8
8
8
8
8
8
8
CELL_DATA 64
VECTORS vector_value float
-0.905809 -0.876312 0
-0.124136 -0.204456 0
-0.0075434 -0.0343649 0
-0.205721 -4.10884 0
-0.438044 -1.09749 0
-0.0904437 -1.83969 0
-0.224752 -0.388187 0
-0.744841 -1.32735 0
-0.0994762 -0.294084 0
-0.403042 -1.16526 0
-0.250398 -3.7719 0
-0.977562 -2.79357 0
-0.0450996 -4.37281 0
-0.951543 -0.935961 0
-0.22307 -1.81541 0
-1.04239 -1.33408 0
-0.168985 -0.264463 0
-0.823199 -1.54744 0
-0.43856 -0.938695 0
0.32473 -0.490976 0
-0.76937 -3.24102 0
-1.03265 -1.09078 0
0.0269444 -1.01357 0
0.0676742 -0.269524 0
0.154262 -1.08726 0
-1.20903 -1.99595 0
0.502026 -1.40821 0
-1.12891 -1.58009 0
0.146634 -1.76335 0
-0.281754 -2.10687 0
-0.325659 -1.80939 0
-0.674497 -3.38368 0
-0.14456 -0.34885 0
-0.0780678 -0.330445 0
0.000931102 -0.0699274 0
0.0079283 -0.655113 0
-0.0265017 -0.52348 0
-0.000520125 -0.112851 0
0.215712 -0.519352 0
0.0943106 -0.178566 0
0.0732897 -0.407746 0
-0.0134488 -0.118591 0
0.220449 -0.422501 0
0.0914985 -0.890117 0
0.0952002 -0.183255 0
0.188336 -0.313276 0
0.0114515 -0.0726141 0
0.145175 -0.493544 0
-1.58219 -0.558452 0
-0.258484 -0.118271 0
-1.02714 -1.47854 0
-0.109758 -0.605121 0
-1.61385 -1.65516 0
0.097 -0.530677 0
-0.0469316 -0.143566 0
-0.0243484 -0.478576 0
0.00921935 -0.0563772 0
-0.0211364 -0.0556669 0
0.0206431 -0.317222 0
-0.186739 -0.109487 0
0.0117597 -0.460234 0
-0.136283 -0.933241 0
0.0170476 -0.147842 0
-0.732507 -0.360304 0
