# vtk DataFile Version 2.0
Unstructured Grid by M++
ASCII
DATASET UNSTRUCTURED_GRID
POINTS 81 float
  1.000000   0.625000 0
  0.750000   0.375000 0
  1.000000   0.000000 0
  0.875000   0.875000 0
  0.750000   0.125000 0
  1.000000   1.000000 0
  0.875000   0.250000 0
  0.625000   0.875000 0
  1.000000   0.750000 0
  0.875000   0.000000 0
  1.000000   0.250000 0
  0.625000   0.375000 0
  0.875000   0.500000 0
  0.625000   0.625000 0
  1.000000   0.500000 0
  0.750000   0.500000 0
  0.750000   1.000000 0
  1.000000   0.125000 0
  0.625000   0.250000 0
  0.750000   0.750000 0
  0.625000   0.000000 0
  0.125000   0.375000 0
  0.000000   0.500000 0
  0.125000   0.625000 0
  0.625000   1.000000 0
  1.000000   0.875000 0
  0.875000   0.125000 0
  0.500000   0.250000 0
  0.625000   0.500000 0
  0.250000   0.625000 0
  0.000000   0.625000 0
  0.375000   0.500000 0
  0.375000   0.000000 0
  0.000000   0.125000 0
  0.125000   0.875000 0
  0.875000   1.000000 0
  0.750000   0.250000 0
  0.375000   0.375000 0
  0.250000   0.375000 0
  0.625000   0.750000 0
  0.125000   0.125000 0
  0.500000   0.000000 0
  0.250000   0.875000 0
  0.125000   0.500000 0
  0.500000   0.375000 0
  0.125000   0.000000 0
  0.250000   0.750000 0
  0.250000   0.500000 0
  0.000000   0.875000 0
  0.875000   0.625000 0
  0.500000   0.750000 0
  0.750000   0.625000 0
  0.250000   0.000000 0
  0.375000   0.750000 0
  0.750000   0.875000 0
  0.625000   0.125000 0
  0.250000   0.250000 0
  0.375000   1.000000 0
  0.375000   0.250000 0
  0.000000   0.375000 0
  0.500000   1.000000 0
  0.875000   0.750000 0
  0.750000   0.000000 0
  0.375000   0.125000 0
  0.500000   0.875000 0
  0.000000   0.000000 0
  0.125000   0.750000 0
  0.500000   0.625000 0
  0.125000   0.250000 0
  0.500000   0.125000 0
  0.250000   1.000000 0
  0.250000   0.125000 0
  0.000000   1.000000 0
  0.375000   0.875000 0
  0.000000   0.750000 0
  0.375000   0.625000 0
  0.000000   0.250000 0
  0.125000   1.000000 0
  1.000000   0.375000 0
  0.500000   0.500000 0
  0.875000   0.375000 0
CELLS 64 320
4 56 71 58 63
4 27 58 69 63
4 41 69 32 63
4 76 33 68 40
4 27 44 58 37
4 79 31 44 37
4 56 38 68 21
4 56 58 38 37
4 52 32 71 63
4 47 38 31 37
4 76 68 59 21
4 22 59 43 21
4 65 45 33 40
4 47 43 38 21
4 52 71 45 40
4 56 68 71 40
4 74 30 66 23
4 46 66 29 23
4 22 43 30 23
4 72 48 77 34
4 46 53 42 73
4 50 64 53 73
4 70 42 57 73
4 74 66 48 34
4 46 42 66 34
4 47 29 43 23
4 70 77 42 34
4 60 57 64 73
4 79 67 31 75
4 47 31 29 75
4 50 53 67 75
4 46 29 53 75
4 10 78 6 80
4 36 6 1 80
4 15 1 12 80
4 36 4 6 26
4 14 12 78 80
4 2 17 9 26
4 36 18 4 55
4 15 28 1 11
4 62 4 20 55
4 10 6 17 26
4 27 18 44 11
4 62 9 4 26
4 27 69 18 55
4 36 1 18 11
4 41 20 69 55
4 79 44 28 11
4 16 24 54 7
4 19 54 39 7
4 50 39 64 7
4 8 25 61 3
4 60 64 24 7
4 79 28 67 13
4 19 51 61 49
4 8 61 0 49
4 15 51 28 13
4 19 39 51 13
4 50 67 39 13
4 19 61 54 3
4 14 0 12 49
4 5 35 25 3
4 15 12 51 49
4 16 54 35 3
CELL_TYPES 64
8
8
8
8
8
8
8
8
8
8
8
8
8
8
8
8
8
8
8
8
8
8
8
8
8
8
8
8
8
8
8
8
8
8
8
8
8
8
8
8
8
8
8
8
8
8
8
8
8
8
8
8
8
8
8
8
8
8
8
8
8
8
8
8
CELL_DATA 64
VECTORS vector_value float
-0.0187815 -0.0800618 0
-0.067483 -0.236986 0
-0.11179 -0.213458 0
0.0129567 -1.60557 0
0.00204053 -0.183832 0
0.313102 -1.55994 0
-0.702286 -0.329298 0
-0.282118 -0.439844 0
-0.097815 -0.220698 0
-0.62254 -0.601756 0
-0.268179 -1.18728 0
-0.0460536 -0.871345 0
0.129724 -1.21909 0
-0.087256 -0.0438669 0
0.225403 -0.667403 0
-0.095672 -0.263075 0
-0.0270146 -0.798779 0
0.00599462 -0.0908333 0
-0.010912 -0.815464 0
0.0881917 -0.934155 0
0.182851 -0.236805 0
0.831101 -0.721421 0
1.37513 -0.903304 0
0.0333637 -0.75256 0
0.0633128 -0.177588 0
-0.0208385 -0.0402489 0
0.596119 -0.369834 0
1.41702 -2.03504 0
-1.0964 -2.42874 0
-0.0701437 -0.150408 0
-0.0201381 -0.435429 0
0.0202727 -0.0717879 0
0.178989 -0.407093 0
1.22376 -2.09616 0
0.10709 -0.86095 0
0.227282 -2.62906 0
0.0567258 -0.237009 0
0.0534996 -1.1368 0
0.0922358 -1.85113 0
0.452329 -2.33114 0
-0.0569616 -2.05983 0
0.211125 -0.821808 0
0.731955 -1.19878 0
0.00389449 -2.10085 0
-0.015797 -0.512307 0
1.58447 -2.15771 0
-0.0326231 -0.381866 0
0.79883 -1.494 0
-0.188288 -1.57303 0
-0.597538 -1.99761 0
1.24159 -3.25299 0
-0.082157 -0.144788 0
-0.0316648 -0.60529 0
0.00151892 -1.22996 0
0.056986 -0.780416 0
-0.0108342 -0.0882133 0
0.159301 -2.36204 0
0.312526 -1.74535 0
-0.710822 -3.98919 0
-0.376136 -0.716247 0
0.0330999 -0.0997981 0
-0.36313 -0.405486 0
0.117509 -0.873341 0
-0.672514 -1.17386 0
