# vtk DataFile Version 2.0
Unstructured Grid by M++
ASCII
DATASET UNSTRUCTURED_GRID
POINTS 81 float
  1.000000   0.625000 0
  0.750000   0.375000 0
  1.000000   0.000000 0
  0.875000   0.875000 0
  0.750000   0.125000 0
  1.000000   1.000000 0
  0.875000   0.250000 0
  0.625000   0.875000 0
  1.000000   0.750000 0
  0.875000   0.000000 0
  1.000000   0.250000 0
  0.625000   0.375000 0
  0.875000   0.500000 0
  0.625000   0.625000 0
  1.000000   0.500000 0
  0.750000   0.500000 0
  0.750000   1.000000 0
  1.000000   0.125000 0
  0.625000   0.250000 0
  0.750000   0.750000 0
  0.625000   0.000000 0
  0.125000   0.375000 0
  0.000000   0.500000 0
  0.125000   0.625000 0
  0.625000   1.000000 0
  1.000000   0.875000 0
  0.875000   0.125000 0
  0.500000   0.250000 0
  0.625000   0.500000 0
  0.250000   0.625000 0
  0.000000   0.625000 0
  0.375000   0.500000 0
  0.375000   0.000000 0
  0.000000   0.125000 0
  0.125000   0.875000 0
  0.875000   1.000000 0
  0.750000   0.250000 0
  0.375000   0.375000 0
  0.250000   0.375000 0
  0.625000   0.750000 0
  0.125000   0.125000 0
  0.500000   0.000000 0
  0.250000   0.875000 0
  0.125000   0.500000 0
  0.500000   0.375000 0
  0.125000   0.000000 0
  0.250000   0.750000 0
  0.250000   0.500000 0
  0.000000   0.875000 0
  0.875000   0.625000 0
  0.500000   0.750000 0
  0.750000   0.625000 0
  0.250000   0.000000 0
  0.375000   0.750000 0
  0.750000   0.875000 0
  0.625000   0.125000 0
  0.250000   0.250000 0
  0.375000   1.000000 0
  0.375000   0.250000 0
  0.000000   0.375000 0
  0.500000   1.000000 0
  0.875000   0.750000 0
  0.750000   0.000000 0
  0.375000   0.125000 0
  0.500000   0.875000 0
  0.000000   0.000000 0
  0.125000   0.750000 0
  0.500000   0.625000 0
  0.125000   0.250000 0
  0.500000   0.125000 0
  0.250000   1.000000 0
  0.250000   0.125000 0
  0.000000   1.000000 0
  0.375000   0.875000 0
  0.000000   0.750000 0
  0.375000   0.625000 0
  0.000000   0.250000 0
  0.125000   1.000000 0
  1.000000   0.375000 0
  0.500000   0.500000 0
  0.875000   0.375000 0
CELLS 64 320
4 56 71 58 63
4 27 58 69 63
4 41 69 32 63
4 76 33 68 40
4 27 44 58 37
4 79 31 44 37
4 56 38 68 21
4 56 58 38 37
4 52 32 71 63
4 47 38 31 37
4 76 68 59 21
4 22 59 43 21
4 65 45 33 40
4 47 43 38 21
4 52 71 45 40
4 56 68 71 40
4 74 30 66 23
4 46 66 29 23
4 22 43 30 23
4 72 48 77 34
4 46 53 42 73
4 50 64 53 73
4 70 42 57 73
4 74 66 48 34
4 46 42 66 34
4 47 29 43 23
4 70 77 42 34
4 60 57 64 73
4 79 67 31 75
4 47 31 29 75
4 50 53 67 75
4 46 29 53 75
4 10 78 6 80
4 36 6 1 80
4 15 1 12 80
4 36 4 6 26
4 14 12 78 80
4 2 17 9 26
4 36 18 4 55
4 15 28 1 11
4 62 4 20 55
4 10 6 17 26
4 27 18 44 11
4 62 9 4 26
4 27 69 18 55
4 36 1 18 11
4 41 20 69 55
4 79 44 28 11
4 16 24 54 7
4 19 54 39 7
4 50 39 64 7
4 8 25 61 3
4 60 64 24 7
4 79 28 67 13
4 19 51 61 49
4 8 61 0 49
4 15 51 28 13
4 19 39 51 13
4 50 67 39 13
4 19 61 54 3
4 14 0 12 49
4 5 35 25 3
4 15 12 51 49
4 16 54 35 3
CELL_TYPES 64
8
8
8
8
8
8
8
8
8
8
8
8
8
8
8
8
8
8
8
8
8
8
8
8
8
8
8
8
8
8
8
8
8
8
8
8
8
8
8
8
8
8
8
8
8
8
8
8
8
8
8
8
8
8
8
8
8
8
8
8
8
8
8
8
CELL_DATA 64
VECTORS vector_value float
-0.128542 -0.522016 0
0.0119552 -0.0260565 0
0.00630839 -0.0155274 0
-1.18922 -1.00167 0
-0.059522 -0.995769 0
0.770786 -3.00932 0
-0.149486 -0.370058 0
-2.29545 -3.32464 0
0.0104248 -0.534274 0
0.405373 -2.43337 0
-0.010781 -0.170526 0
-0.0103637 -0.199229 0
-0.463063 -3.35017 0
0.00588639 -0.183324 0
-0.0153338 -0.469439 0
-3.11661 -2.84016 0
0.247297 -0.488821 0
1.09294 -1.68754 0
-0.014679 -0.130271 0
0.23028 -0.606183 0
-0.186431 -0.974533 0
-0.807571 -2.27975 0
-0.284092 -1.37222 0
-0.0417351 -0.647432 0
-0.216232 -1.75665 0
0.128987 -0.512521 0
0.182406 -1.39453 0
-0.638242 -1.25201 0
0.0953238 -1.83561 0
0.621265 -3.61911 0
-0.23963 -2.72399 0
0.27245 -1.56094 0
0.0869905 -0.985651 0
0.361286 -0.60844 0
0.39211 -0.382068 0
0.853429 -0.779027 0
0.0859657 -0.729189 0
0.289847 -2.41098 0
0.937627 -1.09003 0
0.797299 -0.474929 0
0.0733059 -0.128044 0
0.441552 -1.69518 0
1.05291 -0.422865 0
0.713502 -1.04354 0
0.0371876 -0.0458513 0
0.824813 -1.12205 0
0.0109953 -0.0480283 0
0.925235 -0.588566 0
-0.536709 -0.787685 0
-0.703982 -0.131382 0
-1.29181 -0.651203 0
-0.528991 -0.612475 0
-0.762613 -0.894365 0
0.208846 -0.969029 0
0.114206 -0.594565 0
0.0890192 -0.299172 0
0.0299365 -0.147923 0
-0.39153 -0.320229 0
-0.0723412 -0.324743 0
-1.0192 -0.946577 0
0.121248 -0.658147 0
0.168169 -1.50766 0
0.0176902 -0.127386 0
0.118641 -0.185349 0
