# vtk DataFile Version 2.0
Unstructured Grid by M++
ASCII
DATASET UNSTRUCTURED_GRID
POINTS 289 float
  0.562500   1.000000 0
  0.562500   0.625000 0
  0.625000   1.000000 0
  0.562500   0.937500 0
  0.562500   0.562500 0
  0.625000   0.937500 0
  0.562500   0.875000 0
  0.625000   0.750000 0
  0.625000   0.625000 0
  0.562500   0.812500 0
  0.562500   0.750000 0
  0.562500   0.687500 0
  0.625000   0.875000 0
  0.625000   0.812500 0
  0.625000   0.687500 0
  0.687500   0.125000 0
  0.875000   0.062500 0
  0.625000   0.125000 0
  0.625000   0.187500 0
  0.625000   0.250000 0
  0.812500   0.187500 0
  1.000000   0.125000 0
  0.687500   0.187500 0
  0.750000   0.125000 0
  0.937500   0.062500 0
  0.937500   0.125000 0
  0.750000   0.187500 0
  0.812500   0.062500 0
  0.812500   0.125000 0
  0.875000   0.687500 0
  0.187500   0.250000 0
  0.437500   0.250000 0
  0.375000   0.187500 0
  0.812500   0.625000 0
  0.125000   0.187500 0
  0.937500   0.750000 0
  0.250000   0.312500 0
  0.500000   0.312500 0
  0.625000   0.062500 0
  0.437500   0.500000 0
  0.375000   0.125000 0
  0.437500   0.187500 0
  0.437500   0.437500 0
  0.437500   0.375000 0
  0.875000   0.875000 0
  0.187500   0.375000 0
  0.687500   0.562500 0
  0.687500   0.625000 0
  0.000000   0.125000 0
  0.937500   0.625000 0
  0.250000   0.125000 0
  0.375000   0.062500 0
  0.375000   0.000000 0
  0.812500   0.500000 0
  0.125000   0.000000 0
  0.937500   0.937500 0
  0.250000   0.437500 0
  0.687500   0.875000 0
  0.687500   0.937500 0
  0.000000   0.437500 0
  0.500000   0.500000 0
  0.500000   0.437500 0
  0.750000   0.937500 0
  0.750000   1.000000 0
  0.062500   0.500000 0
  1.000000   1.000000 0
  0.312500   0.500000 0
  0.875000   0.562500 0
  0.187500   0.062500 0
  0.437500   0.125000 0
  0.437500   0.062500 0
  0.500000   0.375000 0
  0.937500   0.812500 0
  0.937500   0.875000 0
  0.250000   0.375000 0
  0.687500   0.812500 0
  0.000000   0.375000 0
  0.750000   0.562500 0
  0.062500   0.125000 0
  1.000000   0.562500 0
  1.000000   0.625000 0
  0.312500   0.125000 0
  0.562500   0.125000 0
  0.437500   0.000000 0
  0.875000   0.437500 0
  0.875000   0.500000 0
  0.187500   0.000000 0
  0.937500   0.562500 0
  0.937500   0.500000 0
  0.250000   0.062500 0
  0.687500   0.500000 0
  0.000000   0.062500 0
  0.500000   0.062500 0
  1.000000   0.875000 0
  1.000000   0.937500 0
  0.312500   0.437500 0
  0.750000   0.875000 0
  0.062500   0.437500 0
  0.812500   0.937500 0
  0.125000   0.500000 0
  0.375000   0.500000 0
  0.625000   0.562500 0
  0.625000   0.500000 0
  0.437500   0.312500 0
  0.875000   0.812500 0
  0.875000   0.750000 0
  0.187500   0.312500 0
  0.812500   0.687500 0
  0.812500   0.750000 0
  0.125000   0.250000 0
  0.375000   0.250000 0
  1.000000   0.687500 0
  0.312500   0.187500 0
  0.750000   0.687500 0
  0.750000   0.625000 0
  0.062500   0.187500 0
  0.562500   0.250000 0
  0.562500   0.187500 0
  0.375000   1.000000 0
  0.500000   0.562500 0
  0.500000   0.250000 0
  0.750000   0.250000 0
  0.500000   0.125000 0
  0.500000   0.187500 0
  1.000000   0.187500 0
  0.625000   0.375000 0
  0.875000   0.375000 0
  1.000000   0.437500 0
  0.312500   0.000000 0
  0.562500   0.000000 0
  0.812500   0.000000 0
  0.250000   0.687500 0
  0.000000   0.687500 0
  0.500000   1.000000 0
  0.250000   1.000000 0
  0.000000   1.000000 0
  0.437500   0.687500 0
  0.437500   0.625000 0
  0.187500   0.625000 0
  0.687500   0.750000 0
  0.000000   0.312500 0
  0.000000   0.250000 0
  0.375000   0.375000 0
  0.375000   0.312500 0
  0.812500   0.812500 0
  0.125000   0.312500 0
  0.875000   0.625000 0
  0.187500   0.187500 0
  0.187500   0.125000 0
  0.937500   1.000000 0
  0.250000   0.562500 0
  0.250000   0.500000 0
  0.687500   1.000000 0
  0.000000   0.500000 0
  0.687500   0.687500 0
  0.000000   0.187500 0
  0.937500   0.687500 0
  0.250000   0.250000 0
  0.250000   0.187500 0
  0.187500   0.687500 0
  0.000000   0.750000 0
  0.250000   0.750000 0
  0.125000   0.625000 0
  0.750000   0.750000 0
  0.062500   0.250000 0
  0.875000   0.937500 0
  0.187500   0.500000 0
  0.187500   0.437500 0
  0.812500   0.562500 0
  0.125000   0.125000 0
  0.125000   0.062500 0
  0.375000   0.625000 0
  0.375000   0.687500 0
  1.000000   0.750000 0
  0.312500   0.250000 0
  0.312500   0.312500 0
  0.812500   0.312500 0
  0.562500   0.312500 0
  0.375000   0.750000 0
  0.500000   0.625000 0
  0.250000   0.625000 0
  0.312500   0.687500 0
  0.750000   0.812500 0
  0.062500   0.312500 0
  0.062500   0.375000 0
  1.000000   0.812500 0
  0.312500   0.375000 0
  0.562500   0.375000 0
  0.687500   0.437500 0
  0.000000   0.000000 0
  0.500000   0.000000 0
  0.937500   0.437500 0
  0.250000   0.000000 0
  0.375000   0.437500 0
  0.812500   0.875000 0
  0.125000   0.375000 0
  0.125000   0.437500 0
  0.625000   0.437500 0
  1.000000   0.500000 0
  0.312500   0.062500 0
  0.750000   0.500000 0
  0.062500   0.000000 0
  0.062500   0.062500 0
  0.562500   0.062500 0
  0.062500   0.750000 0
  0.312500   0.750000 0
  0.312500   0.625000 0
  0.312500   0.562500 0
  0.062500   0.562500 0
  0.187500   1.000000 0
  0.437500   0.562500 0
  0.875000   1.000000 0
  0.187500   0.562500 0
  0.500000   0.937500 0
  0.250000   0.937500 0
  0.312500   1.000000 0
  0.125000   0.750000 0
  0.125000   0.687500 0
  1.000000   0.000000 0
  0.000000   0.937500 0
  0.000000   0.875000 0
  0.875000   0.125000 0
  0.875000   0.187500 0
  0.062500   0.812500 0
  0.312500   0.812500 0
  0.000000   0.812500 0
  0.000000   0.625000 0
  0.000000   0.562500 0
  0.062500   1.000000 0
  0.062500   0.937500 0
  0.937500   0.187500 0
  0.937500   0.250000 0
  0.062500   0.687500 0
  0.062500   0.625000 0
  0.125000   1.000000 0
  1.000000   0.250000 0
  1.000000   0.312500 0
  0.062500   0.875000 0
  0.125000   0.812500 0
  0.375000   0.812500 0
  0.125000   0.875000 0
  0.375000   0.937500 0
  0.375000   0.875000 0
  0.187500   0.750000 0
  0.187500   0.812500 0
  0.437500   0.812500 0
  0.187500   0.875000 0
  0.437500   0.875000 0
  0.375000   0.562500 0
  0.812500   1.000000 0
  0.125000   0.562500 0
  0.437500   1.000000 0
  0.437500   0.937500 0
  0.187500   0.937500 0
  0.125000   0.937500 0
  0.500000   0.687500 0
  0.500000   0.750000 0
  0.500000   0.812500 0
  0.250000   0.812500 0
  0.250000   0.875000 0
  0.500000   0.875000 0
  0.437500   0.750000 0
  0.312500   0.875000 0
  0.312500   0.937500 0
  0.687500   0.250000 0
  0.687500   0.312500 0
  0.937500   0.312500 0
  0.875000   0.250000 0
  0.625000   0.000000 0
  0.875000   0.000000 0
  0.687500   0.375000 0
  0.937500   0.375000 0
  0.875000   0.312500 0
  0.625000   0.312500 0
  0.687500   0.000000 0
  0.937500   0.000000 0
  0.750000   0.312500 0
  0.750000   0.375000 0
  1.000000   0.375000 0
  0.812500   0.250000 0
  0.562500   0.437500 0
  0.562500   0.500000 0
  0.687500   0.062500 0
  0.750000   0.437500 0
  0.750000   0.000000 0
  0.750000   0.062500 0
  1.000000   0.062500 0
  0.812500   0.375000 0
  0.812500   0.437500 0
CELLS 256 1280
4 169 170 148 68
4 151 166 56 167
4 195 45 196 167
4 54 170 201 202
4 109 34 30 147
4 40 32 81 112
4 192 89 86 68
4 48 91 78 202
4 99 64 196 97
4 71 43 37 103
4 74 186 56 95
4 109 164 34 115
4 50 81 158 112
4 122 69 92 70
4 195 145 45 106
4 110 143 174 175
4 157 30 158 147
4 40 69 32 41
4 50 158 148 147
4 141 155 164 115
4 122 123 69 41
4 142 186 143 175
4 60 39 61 42
4 40 51 69 70
4 120 31 123 41
4 157 174 36 175
4 50 148 89 68
4 48 78 155 115
4 52 83 51 70
4 151 56 66 95
4 71 61 43 42
4 169 148 34 147
4 100 193 39 42
4 40 81 51 199
4 110 174 32 112
4 109 30 145 106
4 100 66 193 95
4 169 34 78 115
4 190 92 83 70
4 50 89 81 199
4 54 86 170 68
4 74 56 45 167
4 142 143 43 103
4 153 59 64 97
4 99 196 166 167
4 169 78 170 202
4 142 193 186 95
4 192 128 89 199
4 74 45 36 106
4 110 31 143 103
4 76 184 59 97
4 142 43 193 42
4 52 51 128 199
4 189 201 91 202
4 120 37 31 103
4 74 36 186 175
4 195 196 184 97
4 141 164 140 183
4 157 158 174 112
4 109 145 164 183
4 195 184 145 183
4 110 32 31 41
4 157 36 30 106
4 76 140 184 183
4 171 172 206 181
4 178 172 261 136
4 256 261 255 136
4 256 257 261 245
4 180 150 206 207
4 60 119 39 210
4 118 215 241 263
4 178 205 172 181
4 216 243 238 244
4 162 217 233 232
4 180 206 131 181
4 179 137 119 210
4 216 204 217 232
4 220 237 219 229
4 216 217 243 159
4 259 258 262 224
4 240 254 237 229
4 153 64 227 208
4 161 205 258 224
4 240 237 238 223
4 226 227 233 208
4 234 228 254 229
4 171 248 137 210
4 160 132 204 232
4 180 131 138 159
4 133 251 213 252
4 171 206 248 207
4 162 138 217 159
4 161 258 243 244
4 220 225 237 223
4 151 150 166 212
4 260 247 257 245
4 259 262 214 263
4 151 66 150 207
4 234 254 209 253
4 162 233 250 208
4 242 241 262 263
4 171 137 172 136
4 161 243 131 159
4 160 204 225 223
4 161 131 205 181
4 179 255 137 136
4 216 238 204 223
4 100 39 248 210
4 260 213 247 252
4 226 233 132 232
4 134 214 215 263
4 180 138 150 212
4 178 261 239 245
4 259 246 258 244
4 178 239 205 224
4 240 238 246 244
4 242 262 239 224
4 99 250 64 208
4 240 246 254 253
4 242 239 247 245
4 135 219 228 229
4 99 166 250 212
4 259 214 246 253
4 118 241 251 252
4 100 248 66 207
4 134 209 214 253
4 162 250 138 212
4 242 247 241 252
4 71 187 61 280
4 102 281 197 280
4 122 92 82 203
4 17 18 82 117
4 122 82 123 117
4 19 264 273 265
4 267 279 222 20
4 125 273 270 265
4 267 272 279 176
4 19 116 18 117
4 21 25 286 24
4 23 28 26 20
4 23 285 28 27
4 218 286 275 24
4 85 53 84 288
4 235 236 231 266
4 221 222 28 20
4 267 222 231 230
4 268 38 129 203
4 125 270 197 188
4 126 287 272 176
4 277 270 276 265
4 267 231 272 266
4 125 197 187 280
4 190 129 92 203
4 277 276 287 176
4 19 18 264 22
4 17 82 38 203
4 102 197 90 188
4 126 84 287 288
4 284 130 285 27
4 121 276 264 265
4 71 37 187 177
4 120 123 116 117
4 198 88 127 191
4 221 16 25 24
4 23 26 15 22
4 121 279 276 176
4 235 231 124 230
4 125 187 273 177
4 278 271 236 266
4 277 287 283 288
4 284 285 274 282
4 278 127 271 191
4 269 275 16 24
4 200 283 53 288
4 23 15 285 282
4 121 26 279 20
4 21 124 25 230
4 19 273 116 177
4 200 90 283 188
4 126 271 84 191
4 269 16 130 27
4 17 38 15 282
4 221 25 222 230
4 121 264 26 22
4 120 116 37 177
4 60 61 281 280
4 277 283 270 188
4 126 272 271 266
4 268 274 38 282
4 85 84 88 191
4 17 15 18 22
4 221 28 16 27
4 93 94 73 55
4 85 88 67 87
4 80 49 79 87
4 44 104 73 72
4 146 33 67 168
4 211 165 149 55
4 8 47 14 154
4 105 104 108 144
4 105 108 29 107
4 7 139 13 75
4 44 165 194 98
4 200 53 77 168
4 8 1 101 4
4 2 5 152 58
4 260 6 213 3
4 105 35 104 72
4 96 57 182 75
4 7 14 139 154
4 146 29 33 107
4 7 13 10 9
4 12 13 57 75
4 85 67 53 168
4 44 73 165 55
4 63 152 62 58
4 8 101 47 46
4 96 182 194 144
4 60 281 119 4
4 12 5 6 3
4 173 185 35 72
4 65 149 94 55
4 146 67 49 87
4 114 113 47 154
4 163 108 182 144
4 12 6 13 9
4 173 35 111 156
4 163 182 139 75
4 260 257 6 9
4 105 29 35 156
4 163 139 113 154
4 256 10 257 9
4 146 49 29 156
4 163 113 108 107
4 80 111 49 156
4 102 101 281 4
4 12 57 5 58
4 44 194 104 144
4 96 194 62 98
4 2 0 5 3
4 93 73 185 72
4 179 119 1 4
4 200 77 90 46
4 114 33 113 107
4 7 10 14 11
4 96 62 57 58
4 133 213 0 3
4 102 90 101 46
4 256 255 10 11
4 63 62 249 98
4 114 47 77 46
4 179 1 255 11
4 211 249 165 98
4 114 77 33 168
4 198 79 88 87
4 8 14 1 11
CELL_TYPES 256
8
8
8
8
8
8
8
8
8
8
8
8
8
8
8
8
8
8
8
8
8
8
8
8
8
8
8
8
8
8
8
8
8
8
8
8
8
8
8
8
8
8
8
8
8
8
8
8
8
8
8
8
8
8
8
8
8
8
8
8
8
8
8
8
8
8
8
8
8
8
8
8
8
8
8
8
8
8
8
8
8
8
8
8
8
8
8
8
8
8
8
8
8
8
8
8
8
8
8
8
8
8
8
8
8
8
8
8
8
8
8
8
8
8
8
8
8
8
8
8
8
8
8
8
8
8
8
8
8
8
8
8
8
8
8
8
8
8
8
8
8
8
8
8
8
8
8
8
8
8
8
8
8
8
8
8
8
8
8
8
8
8
8
8
8
8
8
8
8
8
8
8
8
8
8
8
8
8
8
8
8
8
8
8
8
8
8
8
8
8
8
8
8
8
8
8
8
8
8
8
8
8
8
8
8
8
8
8
8
8
8
8
8
8
8
8
8
8
8
8
8
8
8
8
8
8
8
8
8
8
8
8
8
8
8
8
8
8
8
8
8
8
8
8
8
8
8
8
8
8
8
8
8
8
8
8
CELL_DATA 256
VECTORS vector_value float
-0.354318 -3.49303 0
0.074331 -0.54388 0
0.438742 -1.71983 0
-0.0997234 -1.25657 0
0.546818 -2.11646 0
0.218391 -1.08773 0
-0.284664 -3.98807 0
-0.0634614 -0.392609 0
-0.783818 -5.52906 0
-0.0435441 -0.240049 0
0.0293626 -0.535138 0
0.325765 -1.19909 0
-0.127373 -2.44625 0
0.187886 -0.298182 0
2.06827 -2.60111 0
-0.0030953 -0.637968 0
0.984359 -4.15168 0
0.367712 -0.583769 0
-0.763968 -3.9415 0
0.0409926 -0.274897 0
0.320285 -0.376477 0
-0.208348 -1.06411 0
-0.411319 -0.5394 0
0.196878 -0.581084 0
0.328127 -0.31059 0
0.884764 -2.62962 0
-0.446566 -3.16191 0
-0.0329238 -0.286185 0
0.0524111 -0.39894 0
0.143042 -0.428588 0
-0.215599 -0.45725 0
-0.599353 -2.65796 0
-0.367928 -0.662992 0
0.0423773 -0.689951 0
0.556664 -0.878211 0
3.47811 -3.79638 0
-0.0196247 -0.586087 0
-0.112611 -1.00878 0
0.0879185 -0.515902 0
-0.463101 -2.20175 0
-0.0601199 -3.37439 0
0.0881464 -0.419433 0
-0.144605 -0.556166 0
-0.500256 -2.74396 0
-0.187902 -1.49687 0
-0.200674 -1.19871 0
-0.289028 -1.08824 0
-0.124572 -1.27658 0
0.945791 -1.47908 0
0.167115 -0.629772 0
0.0995839 -3.26827 0
-0.305759 -0.55287 0
0.0113173 -0.609977 0
-0.0551227 -0.554483 0
0.105293 -0.193835 0
-0.105145 -0.833988 0
0.53966 -4.76409 0
0.412364 -0.813832 0
0.560588 -3.1992 0
1.48687 -1.82065 0
2.53759 -3.96976 0
0.313541 -0.499875 0
2.25902 -2.27489 0
0.822475 -2.1036 0
0.0420869 -0.238065 0
-0.125841 -0.141689 0
-0.12827 -0.195551 0
-0.178009 -0.183335 0
0.101933 -0.805761 0
-0.174691 -0.556976 0
-3.64691 -1.40835 0
-0.16687 -0.305807 0
0.166378 -4.09463 0
-0.624315 -2.75767 0
-0.161525 -1.07376 0
-0.0433762 -0.361063 0
0.0850435 -3.05062 0
-0.036707 -0.365376 0
0.233795 -4.1592 0
-0.665693 -0.839429 0
-0.422371 -2.48645 0
-0.175242 -1.72565 0
-0.221004 -1.02936 0
-0.495656 -3.40359 0
-0.105702 -1.63643 0
-0.0476618 -2.07165 0
0.0318781 -0.266136 0
-0.0706485 -0.933899 0
-0.403028 -1.84652 0
-3.30251 -0.917069 0
0.104617 -0.205062 0
-0.637458 -4.4418 0
0.0204964 -1.28296 0
-0.0938679 -0.55021 0
-0.051146 -0.76159 0
-0.150481 -0.168918 0
-1.99634 -1.10717 0
0.0800386 -0.371248 0
-1.61518 -1.94871 0
-0.539918 -3.30136 0
-1.36302 -1.16594 0
0.0167037 -0.180952 0
0.065427 -1.73713 0
-0.130268 -0.783416 0
-0.162003 -1.28912 0
-0.0805037 -0.257288 0
-0.048594 -3.77241 0
0.00361969 -0.358787 0
-0.503513 -0.341145 0
-0.2126 -1.14582 0
-3.10554 -1.02195 0
-0.521087 -1.53142 0
-0.143076 -0.128972 0
-0.777127 -1.42153 0
-0.202113 -0.366965 0
-0.678145 -4.26586 0
-0.500989 -0.616335 0
-1.29898 -5.05298 0
-1.62833 -4.10272 0
-0.273358 -0.197259 0
0.314955 -0.523359 0
-1.22219 -2.959 0
-2.18041 -1.25968 0
-3.77053 -0.580607 0
0.171341 -0.461906 0
-2.7365 -1.06186 0
-0.957379 -3.93537 0
-0.769562 -0.343696 0
-0.018671 -0.270773 0
-0.168109 -0.349176 0
0.183132 -0.630781 0
0.0558954 -0.408854 0
0.123749 -0.282444 0
0.043088 -0.339191 0
0.21925 -0.633833 0
0.0984687 -0.422517 0
0.0299367 -0.355431 0
0.149283 -0.354577 0
0.107769 -0.42808 0
0.15453 -0.896362 0
0.179337 -0.782591 0
0.00761993 -0.492501 0
-0.0580283 -0.517258 0
-0.0525954 -0.187716 0
0.192591 -0.582433 0
0.0218703 -0.245748 0
0.0116578 -0.500973 0
0.0196604 -0.444056 0
-0.0804058 -0.2868 0
0.057673 -0.840296 0
-0.0938394 -0.187285 0
0.0384957 -0.258609 0
0.0129061 -0.603611 0
-0.0763495 -0.767065 0
0.0542453 -0.403234 0
0.0245909 -0.414514 0
-0.120543 -0.334468 0
-0.142528 -0.396788 0
0.0262507 -0.603825 0
0.196881 -0.825516 0
0.0140768 -0.152277 0
0.231276 -0.195659 0
0.00325135 -0.259988 0
0.19757 -0.388937 0
0.0925365 -0.394974 0
0.214671 -0.87624 0
-0.0075527 -0.113215 0
0.0569036 -0.259132 0
-0.0425092 -0.318668 0
-0.102755 -0.631675 0
0.00541684 -0.320815 0
0.0269789 -0.312711 0
0.0708283 -0.5485 0
-0.0611866 -0.443713 0
0.0516081 -0.306294 0
0.259019 -0.960994 0
0.0716279 -0.199891 0
0.0483234 -0.255178 0
-0.177357 -0.780894 0
-0.021939 -0.189433 0
0.0747176 -0.584589 0
0.0147343 -0.414728 0
0.23502 -0.411308 0
0.10819 -0.462746 0
0.0920939 -0.176496 0
-0.297873 -0.479954 0
-0.00364985 -0.690825 0
-0.0419097 -0.105385 0
0.00125413 -0.370273 0
-0.00603783 -0.303714 0
0.0563086 -0.435085 0
0.276856 -0.61685 0
-0.00547558 -1.78588 0
-0.046533 -0.289077 0
-0.0706318 -0.370512 0
-0.349421 -1.22004 0
-0.53425 -0.63331 0
0.722379 -0.908453 0
-0.348237 -0.22362 0
-0.38675 -0.67188 0
-0.354518 -0.688287 0
-0.0999744 -0.292783 0
0.140334 -0.43845 0
-0.381925 -0.85208 0
-0.256878 -0.304322 0
-1.45498 -0.912469 0
-0.47657 -0.363665 0
-0.470682 -1.39426 0
-0.0809093 -0.179271 0
-0.119289 -0.228613 0
-0.718062 -0.750057 0
-0.143351 -0.230205 0
-0.123688 -0.358421 0
-0.138681 -0.56708 0
0.120048 -1.12879 0
-0.816987 -0.623065 0
-0.334491 -0.297683 0
-0.0811086 -0.133903 0
-0.242786 -0.556651 0
-0.318637 -0.305369 0
-0.252162 -1.09264 0
0.382479 -1.61196 0
-0.336369 -0.562394 0
-0.486415 -0.449463 0
-0.174595 -0.224956 0
-0.126246 -0.203329 0
-0.0518296 -0.697163 0
-0.07221 -0.15565 0
-0.146282 -0.342688 0
-0.302074 -1.39959 0
-0.145213 -0.251329 0
-0.161632 -0.295583 0
-0.420355 -0.892106 0
-0.312759 -0.435018 0
-0.108844 -0.604094 0
-0.221901 -0.300167 0
-0.188081 -0.440455 0
-0.178057 -0.468898 0
-0.00296252 -0.142519 0
-2.03472 -0.718117 0
-0.241392 -1.63032 0
-0.177956 -0.481795 0
-0.30012 -0.50085 0
-0.610282 -0.550123 0
-0.127478 -0.234486 0
-0.110579 -0.222695 0
-2.5922 -0.595968 0
-0.2629 -0.39772 0
-0.123563 -0.252489 0
-0.0812597 -0.379367 0
-0.428141 -0.539852 0
-0.194269 -0.304049 0
0.503342 -0.717047 0
-0.516749 -0.767532 0
-0.0192132 -0.28824 0
-0.314896 -0.284606 0
