# vtk DataFile Version 2.0
Unstructured Grid by M++
ASCII
DATASET UNSTRUCTURED_GRID
POINTS 81 float
  1.000000   0.625000 0
  0.750000   0.375000 0
  1.000000   0.000000 0
  0.875000   0.875000 0
  0.750000   0.125000 0
  1.000000   1.000000 0
  0.875000   0.250000 0
  0.625000   0.875000 0
  1.000000   0.750000 0
  0.875000   0.000000 0
  1.000000   0.250000 0
  0.625000   0.375000 0
  0.875000   0.500000 0
  0.625000   0.625000 0
  1.000000   0.500000 0
  0.750000   0.500000 0
  0.750000   1.000000 0
  1.000000   0.125000 0
  0.625000   0.250000 0
  0.750000   0.750000 0
  0.625000   0.000000 0
  0.125000   0.375000 0
  0.000000   0.500000 0
  0.125000   0.625000 0
  0.625000   1.000000 0
  1.000000   0.875000 0
  0.875000   0.125000 0
  0.500000   0.250000 0
  0.625000   0.500000 0
  0.250000   0.625000 0
  0.000000   0.625000 0
  0.375000   0.500000 0
  0.375000   0.000000 0
  0.000000   0.125000 0
  0.125000   0.875000 0
  0.875000   1.000000 0
  0.750000   0.250000 0
  0.375000   0.375000 0
  0.250000   0.375000 0
  0.625000   0.750000 0
  0.125000   0.125000 0
  0.500000   0.000000 0
  0.250000   0.875000 0
  0.125000   0.500000 0
  0.500000   0.375000 0
  0.125000   0.000000 0
  0.250000   0.750000 0
  0.250000   0.500000 0
  0.000000   0.875000 0
  0.875000   0.625000 0
  0.500000   0.750000 0
  0.750000   0.625000 0
  0.250000   0.000000 0
  0.375000   0.750000 0
  0.750000   0.875000 0
  0.625000   0.125000 0
  0.250000   0.250000 0
  0.375000   1.000000 0
  0.375000   0.250000 0
  0.000000   0.375000 0
  0.500000   1.000000 0
  0.875000   0.750000 0
  0.750000   0.000000 0
  0.375000   0.125000 0
  0.500000   0.875000 0
  0.000000   0.000000 0
  0.125000   0.750000 0
  0.500000   0.625000 0
  0.125000   0.250000 0
  0.500000   0.125000 0
  0.250000   1.000000 0
  0.250000   0.125000 0
  0.000000   1.000000 0
  0.375000   0.875000 0
  0.000000   0.750000 0
  0.375000   0.625000 0
  0.000000   0.250000 0
  0.125000   1.000000 0
  1.000000   0.375000 0
  0.500000   0.500000 0
  0.875000   0.375000 0
CELLS 64 320
4 56 71 58 63
4 27 58 69 63
4 41 69 32 63
4 76 33 68 40
4 27 44 58 37
4 79 31 44 37
4 56 38 68 21
4 56 58 38 37
4 52 32 71 63
4 47 38 31 37
4 76 68 59 21
4 22 59 43 21
4 65 45 33 40
4 47 43 38 21
4 52 71 45 40
4 56 68 71 40
4 74 30 66 23
4 46 66 29 23
4 22 43 30 23
4 72 48 77 34
4 46 53 42 73
4 50 64 53 73
4 70 42 57 73
4 74 66 48 34
4 46 42 66 34
4 47 29 43 23
4 70 77 42 34
4 60 57 64 73
4 79 67 31 75
4 47 31 29 75
4 50 53 67 75
4 46 29 53 75
4 10 78 6 80
4 36 6 1 80
4 15 1 12 80
4 36 4 6 26
4 14 12 78 80
4 2 17 9 26
4 36 18 4 55
4 15 28 1 11
4 62 4 20 55
4 10 6 17 26
4 27 18 44 11
4 62 9 4 26
4 27 69 18 55
4 36 1 18 11
4 41 20 69 55
4 79 44 28 11
4 16 24 54 7
4 19 54 39 7
4 50 39 64 7
4 8 25 61 3
4 60 64 24 7
4 79 28 67 13
4 19 51 61 49
4 8 61 0 49
4 15 51 28 13
4 19 39 51 13
4 50 67 39 13
4 19 61 54 3
4 14 0 12 49
4 5 35 25 3
4 15 12 51 49
4 16 54 35 3
CELL_TYPES 64
8
8
8
8
8
8
8
8
8
8
8
8
8
8
8
8
8
8
8
8
8
8
8
8
8
8
8
8
8
8
8
8
8
8
8
8
8
8
8
8
8
8
8
8
8
8
8
8
8
8
8
8
8
8
8
8
8
8
8
8
8
8
8
8
CELL_DATA 64
VECTORS vector_value float
-0.0071186 -0.11109 0
0.150104 -0.58752 0
-0.0157578 -0.303115 0
-0.00290009 -0.992674 0
0.790968 -0.496029 0
1.02001 -2.01941 0
-0.0155524 -0.0735223 0
0.504933 -0.642987 0
-0.101311 -0.246269 0
0.358519 -0.521659 0
-0.0177559 -0.960059 0
-0.268409 -0.745086 0
0.0174527 -0.956515 0
0.124036 -0.868858 0
0.00203724 -0.121802 0
-0.0068757 -0.0508959 0
0.311871 -1.12787 0
0.203498 -0.804049 0
0.129645 -0.427452 0
-0.268859 -1.43872 0
0.60558 -1.15089 0
0.160527 -0.274416 0
-0.617086 -0.911361 0
0.123606 -1.54212 0
0.427599 -0.704343 0
0.326142 -1.31384 0
-0.577961 -1.12353 0
-0.11626 -0.247278 0
-0.0473087 -1.90202 0
0.370828 -0.998567 0
0.078944 -0.845763 0
0.167319 -0.897898 0
-0.0360184 -0.219426 0
-0.160077 -0.435599 0
-1.23028 -2.0968 0
1.48959 -2.24324 0
-0.21154 -0.588099 0
0.457369 -0.91984 0
1.68111 -3.04691 0
-0.0900244 -0.293829 0
0.253882 -1.47168 0
-0.00951606 -0.128772 0
2.20644 -1.95509 0
0.814537 -3.39968 0
0.337272 -0.838897 0
0.356005 -3.21729 0
0.0495207 -0.581101 0
0.210139 -0.866266 0
0.57744 -1.19753 0
-0.220383 -1.10826 0
-0.237668 -0.936735 0
-0.0525438 -1.68443 0
0.547506 -0.643277 0
0.046873 -0.238248 0
-0.116438 -1.97359 0
-0.346283 -0.904885 0
-0.106416 -0.214637 0
0.146057 -0.0904909 0
-0.570084 -1.35546 0
0.00507762 -0.598806 0
-0.0612236 -0.790133 0
0.295904 -1.33126 0
-0.0243152 -2.1151 0
0.477339 -1.10704 0
