# vtk DataFile Version 2.0
Unstructured Grid by M++
ASCII
DATASET UNSTRUCTURED_GRID
POINTS 81 float
  1.000000   0.625000 0
  0.750000   0.375000 0
  1.000000   0.000000 0
  0.875000   0.875000 0
  0.750000   0.125000 0
  1.000000   1.000000 0
  0.875000   0.250000 0
  0.625000   0.875000 0
  1.000000   0.750000 0
  0.875000   0.000000 0
  1.000000   0.250000 0
  0.625000   0.375000 0
  0.875000   0.500000 0
  0.625000   0.625000 0
  1.000000   0.500000 0
  0.750000   0.500000 0
  0.750000   1.000000 0
  1.000000   0.125000 0
  0.625000   0.250000 0
  0.750000   0.750000 0
  0.625000   0.000000 0
  0.125000   0.375000 0
  0.000000   0.500000 0
  0.125000   0.625000 0
  0.625000   1.000000 0
  1.000000   0.875000 0
  0.875000   0.125000 0
  0.500000   0.250000 0
  0.625000   0.500000 0
  0.250000   0.625000 0
  0.000000   0.625000 0
  0.375000   0.500000 0
  0.375000   0.000000 0
  0.000000   0.125000 0
  0.125000   0.875000 0
  0.875000   1.000000 0
  0.750000   0.250000 0
  0.375000   0.375000 0
  0.250000   0.375000 0
  0.625000   0.750000 0
  0.125000   0.125000 0
  0.500000   0.000000 0
  0.250000   0.875000 0
  0.125000   0.500000 0
  0.500000   0.375000 0
  0.125000   0.000000 0
  0.250000   0.750000 0
  0.250000   0.500000 0
  0.000000   0.875000 0
  0.875000   0.625000 0
  0.500000   0.750000 0
  0.750000   0.625000 0
  0.250000   0.000000 0
  0.375000   0.750000 0
  0.750000   0.875000 0
  0.625000   0.125000 0
  0.250000   0.250000 0
  0.375000   1.000000 0
  0.375000   0.250000 0
  0.000000   0.375000 0
  0.500000   1.000000 0
  0.875000   0.750000 0
  0.750000   0.000000 0
  0.375000   0.125000 0
  0.500000   0.875000 0
  0.000000   0.000000 0
  0.125000   0.750000 0
  0.500000   0.625000 0
  0.125000   0.250000 0
  0.500000   0.125000 0
  0.250000   1.000000 0
  0.250000   0.125000 0
  0.000000   1.000000 0
  0.375000   0.875000 0
  0.000000   0.750000 0
  0.375000   0.625000 0
  0.000000   0.250000 0
  0.125000   1.000000 0
  1.000000   0.375000 0
  0.500000   0.500000 0
  0.875000   0.375000 0
CELLS 64 320
4 56 71 58 63
4 27 58 69 63
4 41 69 32 63
4 76 33 68 40
4 27 44 58 37
4 79 31 44 37
4 56 38 68 21
4 56 58 38 37
4 52 32 71 63
4 47 38 31 37
4 76 68 59 21
4 22 59 43 21
4 65 45 33 40
4 47 43 38 21
4 52 71 45 40
4 56 68 71 40
4 74 30 66 23
4 46 66 29 23
4 22 43 30 23
4 72 48 77 34
4 46 53 42 73
4 50 64 53 73
4 70 42 57 73
4 74 66 48 34
4 46 42 66 34
4 47 29 43 23
4 70 77 42 34
4 60 57 64 73
4 79 67 31 75
4 47 31 29 75
4 50 53 67 75
4 46 29 53 75
4 10 78 6 80
4 36 6 1 80
4 15 1 12 80
4 36 4 6 26
4 14 12 78 80
4 2 17 9 26
4 36 18 4 55
4 15 28 1 11
4 62 4 20 55
4 10 6 17 26
4 27 18 44 11
4 62 9 4 26
4 27 69 18 55
4 36 1 18 11
4 41 20 69 55
4 79 44 28 11
4 16 24 54 7
4 19 54 39 7
4 50 39 64 7
4 8 25 61 3
4 60 64 24 7
4 79 28 67 13
4 19 51 61 49
4 8 61 0 49
4 15 51 28 13
4 19 39 51 13
4 50 67 39 13
4 19 61 54 3
4 14 0 12 49
4 5 35 25 3
4 15 12 51 49
4 16 54 35 3
CELL_TYPES 64
8
8
8
8
8
8
8
8
8
8
8
8
8
8
8
8
8
8
8
8
8
8
8
8
8
8
8
8
8
8
8
8
8
8
8
8
8
8
8
8
8
8
8
8
8
8
8
8
8
8
8
8
8
8
8
8
8
8
8
8
8
8
8
8
CELL_DATA 64
VECTORS vector_value float
0.0450806 -1.68044 0
-0.0174857 -0.239934 0
0.138231 -0.994023 0
0.11724 -0.543395 0
-0.0786304 -0.147051 0
-0.613291 -0.874772 0
-0.0175953 -0.613638 0
-0.317686 -2.14891 0
0.0833072 -1.11168 0
-1.06287 -1.41022 0
0.267057 -1.53513 0
-0.0950884 -1.02528 0
0.00441218 -0.487493 0
-0.501254 -1.04757 0
-0.0199424 -2.20332 0
0.2377 -2.08588 0
-0.251199 -0.798718 0
-0.192655 -0.768207 0
-0.0444277 -1.07444 0
0.294112 -0.511944 0
0.143089 -0.984949 0
0.163813 -1.70028 0
0.345287 -0.580425 0
-0.0351161 -0.422551 0
-0.0521149 -1.11297 0
-0.0348622 -0.403079 0
0.488249 -1.53784 0
0.0913544 -1.62471 0
-0.575722 -1.99533 0
-0.0948524 -0.674587 0
0.115268 -1.47268 0
0.125882 -0.859326 0
0.165304 -0.735321 0
0.271005 -1.41867 0
0.209785 -1.03853 0
0.110504 -1.01131 0
0.0302379 -0.489762 0
0.142742 -1.35837 0
-0.230599 -0.92005 0
0.204381 -1.78799 0
-0.0730221 -0.706115 0
0.118882 -0.98243 0
-0.103634 -0.423451 0
0.0652251 -0.566388 0
-0.229004 -0.536568 0
-0.0475214 -0.977833 0
-0.170364 -0.572613 0
-0.125602 -0.325876 0
0.0975517 -1.06418 0
0.0119705 -0.782305 0
0.114635 -0.77988 0
-0.0189272 -0.726722 0
-0.120935 -0.659035 0
-0.14105 -0.529873 0
-0.14655 -1.24574 0
-0.0262267 -0.768704 0
-0.171658 -1.6964 0
-0.0254564 -1.17762 0
0.164741 -0.909001 0
-0.0315496 -1.49035 0
-0.0962106 -0.550147 0
-0.112826 -0.949739 0
-0.305113 -1.07614 0
-0.0208711 -1.07212 0
