# vtk DataFile Version 2.0
Unstructured Grid by M++
ASCII
DATASET UNSTRUCTURED_GRID
POINTS 81 float
  1.000000   0.625000 0
  0.750000   0.375000 0
  1.000000   0.000000 0
  0.875000   0.875000 0
  0.750000   0.125000 0
  1.000000   1.000000 0
  0.875000   0.250000 0
  0.625000   0.875000 0
  1.000000   0.750000 0
  0.875000   0.000000 0
  1.000000   0.250000 0
  0.625000   0.375000 0
  0.875000   0.500000 0
  0.625000   0.625000 0
  1.000000   0.500000 0
  0.750000   0.500000 0
  0.750000   1.000000 0
  1.000000   0.125000 0
  0.625000   0.250000 0
  0.750000   0.750000 0
  0.625000   0.000000 0
  0.125000   0.375000 0
  0.000000   0.500000 0
  0.125000   0.625000 0
  0.625000   1.000000 0
  1.000000   0.875000 0
  0.875000   0.125000 0
  0.500000   0.250000 0
  0.625000   0.500000 0
  0.250000   0.625000 0
  0.000000   0.625000 0
  0.375000   0.500000 0
  0.375000   0.000000 0
  0.000000   0.125000 0
  0.125000   0.875000 0
  0.875000   1.000000 0
  0.750000   0.250000 0
  0.375000   0.375000 0
  0.250000   0.375000 0
  0.625000   0.750000 0
  0.125000   0.125000 0
  0.500000   0.000000 0
  0.250000   0.875000 0
  0.125000   0.500000 0
  0.500000   0.375000 0
  0.125000   0.000000 0
  0.250000   0.750000 0
  0.250000   0.500000 0
  0.000000   0.875000 0
  0.875000   0.625000 0
  0.500000   0.750000 0
  0.750000   0.625000 0
  0.250000   0.000000 0
  0.375000   0.750000 0
  0.750000   0.875000 0
  0.625000   0.125000 0
  0.250000   0.250000 0
  0.375000   1.000000 0
  0.375000   0.250000 0
  0.000000   0.375000 0
  0.500000   1.000000 0
  0.875000   0.750000 0
  0.750000   0.000000 0
  0.375000   0.125000 0
  0.500000   0.875000 0
  0.000000   0.000000 0
  0.125000   0.750000 0
  0.500000   0.625000 0
  0.125000   0.250000 0
  0.500000   0.125000 0
  0.250000   1.000000 0
  0.250000   0.125000 0
  0.000000   1.000000 0
  0.375000   0.875000 0
  0.000000   0.750000 0
  0.375000   0.625000 0
  0.000000   0.250000 0
  0.125000   1.000000 0
  1.000000   0.375000 0
  0.500000   0.500000 0
  0.875000   0.375000 0
CELLS 64 320
4 56 71 58 63
4 27 58 69 63
4 41 69 32 63
4 76 33 68 40
4 27 44 58 37
4 79 31 44 37
4 56 38 68 21
4 56 58 38 37
4 52 32 71 63
4 47 38 31 37
4 76 68 59 21
4 22 59 43 21
4 65 45 33 40
4 47 43 38 21
4 52 71 45 40
4 56 68 71 40
4 74 30 66 23
4 46 66 29 23
4 22 43 30 23
4 72 48 77 34
4 46 53 42 73
4 50 64 53 73
4 70 42 57 73
4 74 66 48 34
4 46 42 66 34
4 47 29 43 23
4 70 77 42 34
4 60 57 64 73
4 79 67 31 75
4 47 31 29 75
4 50 53 67 75
4 46 29 53 75
4 10 78 6 80
4 36 6 1 80
4 15 1 12 80
4 36 4 6 26
4 14 12 78 80
4 2 17 9 26
4 36 18 4 55
4 15 28 1 11
4 62 4 20 55
4 10 6 17 26
4 27 18 44 11
4 62 9 4 26
4 27 69 18 55
4 36 1 18 11
4 41 20 69 55
4 79 44 28 11
4 16 24 54 7
4 19 54 39 7
4 50 39 64 7
4 8 25 61 3
4 60 64 24 7
4 79 28 67 13
4 19 51 61 49
4 8 61 0 49
4 15 51 28 13
4 19 39 51 13
4 50 67 39 13
4 19 61 54 3
4 14 0 12 49
4 5 35 25 3
4 15 12 51 49
4 16 54 35 3
CELL_TYPES 64
8
8
8
8
8
8
8
8
8
8
8
8
8
8
8
8
8
8
8
8
8
8
8
8
8
8
8
8
8
8
8
8
8
8
8
8
8
8
8
8
8
8
8
8
8
8
8
8
8
8
8
8
8
8
8
8
8
8
8
8
8
8
8
8
CELL_DATA 64
VECTORS vector_value float
0.1391 -0.290377 0
-0.223281 -1.40272 0
-0.232152 -2.27716 0
0.437344 -3.64322 0
0.024698 -0.753901 0
0.418139 -0.758443 0
0.0552487 -0.216914 0
0.216961 -0.260977 0
0.0728227 -0.288386 0
0.127769 -0.232109 0
-0.129149 -3.97361 0
-0.443503 -3.36905 0
0.0899057 -2.81872 0
-0.278247 -1.06036 0
0.318831 -1.07907 0
0.381402 -0.383754 0
0.173568 -1.41511 0
-0.0931354 -1.78943 0
-0.630043 -1.84277 0
-0.612724 -1.78197 0
-0.355997 -0.97745 0
-0.962503 -1.86812 0
-0.321145 -0.666401 0
0.220227 -2.1929 0
-0.10578 -0.380799 0
-1.29406 -2.43644 0
-0.789374 -0.608191 0
-0.319969 -1.09886 0
0.199191 -0.625106 0
-0.0161738 -0.941033 0
-0.767565 -1.29944 0
-1.39318 -1.51835 0
-0.0176722 -0.0205725 0
-0.105869 -0.105821 0
-0.338966 -0.270602 0
0.0133069 -0.0369689 0
-0.156587 -0.156005 0
0.0100136 -0.0203573 0
-0.172538 -0.910811 0
0.189253 -1.23416 0
-0.0289331 -0.51505 0
0.000285563 -0.00306412 0
-0.421155 -1.31006 0
0.0305935 -0.0786597 0
-0.534717 -1.32909 0
-0.435754 -1.35815 0
-0.208922 -0.922603 0
0.500972 -0.91927 0
-1.19439 -0.937915 0
-0.355125 -0.580572 0
-0.598513 -1.11764 0
-0.109076 -0.617141 0
-1.08459 -1.34751 0
0.230338 -1.14765 0
-0.0411773 -0.142672 0
-0.0156902 -0.467366 0
0.0223668 -0.432305 0
-0.173158 -0.387548 0
-0.342866 -0.980095 0
-0.250821 -0.265375 0
-0.0479742 -0.382639 0
-0.151452 -0.900266 0
-0.0603794 -0.192053 0
-0.681902 -0.65889 0
