# vtk DataFile Version 2.0
Unstructured Grid by M++
ASCII
DATASET UNSTRUCTURED_GRID
POINTS 81 float
  1.000000   0.625000 0
  0.750000   0.375000 0
  1.000000   0.000000 0
  0.875000   0.875000 0
  0.750000   0.125000 0
  1.000000   1.000000 0
  0.875000   0.250000 0
  0.625000   0.875000 0
  1.000000   0.750000 0
  0.875000   0.000000 0
  1.000000   0.250000 0
  0.625000   0.375000 0
  0.875000   0.500000 0
  0.625000   0.625000 0
  1.000000   0.500000 0
  0.750000   0.500000 0
  0.750000   1.000000 0
  1.000000   0.125000 0
  0.625000   0.250000 0
  0.750000   0.750000 0
  0.625000   0.000000 0
  0.125000   0.375000 0
  0.000000   0.500000 0
  0.125000   0.625000 0
  0.625000   1.000000 0
  1.000000   0.875000 0
  0.875000   0.125000 0
  0.500000   0.250000 0
  0.625000   0.500000 0
  0.250000   0.625000 0
  0.000000   0.625000 0
  0.375000   0.500000 0
  0.375000   0.000000 0
  0.000000   0.125000 0
  0.125000   0.875000 0
  0.875000   1.000000 0
  0.750000   0.250000 0
  0.375000   0.375000 0
  0.250000   0.375000 0
  0.625000   0.750000 0
  0.125000   0.125000 0
  0.500000   0.000000 0
  0.250000   0.875000 0
  0.125000   0.500000 0
  0.500000   0.375000 0
  0.125000   0.000000 0
  0.250000   0.750000 0
  0.250000   0.500000 0
  0.000000   0.875000 0
  0.875000   0.625000 0
  0.500000   0.750000 0
  0.750000   0.625000 0
  0.250000   0.000000 0
  0.375000   0.750000 0
  0.750000   0.875000 0
  0.625000   0.125000 0
  0.250000   0.250000 0
  0.375000   1.000000 0
  0.375000   0.250000 0
  0.000000   0.375000 0
  0.500000   1.000000 0
  0.875000   0.750000 0
  0.750000   0.000000 0
  0.375000   0.125000 0
  0.500000   0.875000 0
  0.000000   0.000000 0
  0.125000   0.750000 0
  0.500000   0.625000 0
  0.125000   0.250000 0
  0.500000   0.125000 0
  0.250000   1.000000 0
  0.250000   0.125000 0
  0.000000   1.000000 0
  0.375000   0.875000 0
  0.000000   0.750000 0
  0.375000   0.625000 0
  0.000000   0.250000 0
  0.125000   1.000000 0
  1.000000   0.375000 0
  0.500000   0.500000 0
  0.875000   0.375000 0
CELLS 64 320
4 56 71 58 63
4 27 58 69 63
4 41 69 32 63
4 76 33 68 40
4 27 44 58 37
4 79 31 44 37
4 56 38 68 21
4 56 58 38 37
4 52 32 71 63
4 47 38 31 37
4 76 68 59 21
4 22 59 43 21
4 65 45 33 40
4 47 43 38 21
4 52 71 45 40
4 56 68 71 40
4 74 30 66 23
4 46 66 29 23
4 22 43 30 23
4 72 48 77 34
4 46 53 42 73
4 50 64 53 73
4 70 42 57 73
4 74 66 48 34
4 46 42 66 34
4 47 29 43 23
4 70 77 42 34
4 60 57 64 73
4 79 67 31 75
4 47 31 29 75
4 50 53 67 75
4 46 29 53 75
4 10 78 6 80
4 36 6 1 80
4 15 1 12 80
4 36 4 6 26
4 14 12 78 80
4 2 17 9 26
4 36 18 4 55
4 15 28 1 11
4 62 4 20 55
4 10 6 17 26
4 27 18 44 11
4 62 9 4 26
4 27 69 18 55
4 36 1 18 11
4 41 20 69 55
4 79 44 28 11
4 16 24 54 7
4 19 54 39 7
4 50 39 64 7
4 8 25 61 3
4 60 64 24 7
4 79 28 67 13
4 19 51 61 49
4 8 61 0 49
4 15 51 28 13
4 19 39 51 13
4 50 67 39 13
4 19 61 54 3
4 14 0 12 49
4 5 35 25 3
4 15 12 51 49
4 16 54 35 3
CELL_TYPES 64
8
8
8
8
8
8
8
8
8
8
8
8
8
8
8
8
8
8
8
8
8
8
8
8
8
8
8
8
8
8
8
8
8
8
8
8
8
8
8
8
8
8
8
8
8
8
8
8
8
8
8
8
8
8
8
8
8
8
8
8
8
8
8
8
CELL_DATA 64
VECTORS vector_value float
-0.980078 -2.66182 0
-0.615426 -1.18213 0
-0.0147593 -0.988582 0
-0.0751873 -0.244474 0
-0.465519 -0.882522 0
-0.752339 -2.17418 0
-0.294806 -1.01222 0
-0.647757 -2.66955 0
-0.0904969 -1.88357 0
-0.872202 -1.85979 0
0.00109104 -0.200069 0
0.0150332 -0.22864 0
-0.109286 -0.542351 0
-0.114123 -0.424827 0
-0.248807 -2.34346 0
-0.691991 -1.61505 0
0.0572441 -0.440865 0
0.0423009 -0.0680085 0
0.0565937 -0.273618 0
0.254819 -0.575503 0
0.21561 -0.802991 0
0.088991 -2.40328 0
1.25647 -1.06652 0
0.0103021 -0.484006 0
0.239183 -0.264464 0
0.0549834 -0.248194 0
0.757711 -0.669666 0
0.665712 -1.80125 0
-0.612209 -3.24262 0
-0.441738 -0.788615 0
-0.0605811 -3.24913 0
0.217513 -0.655461 0
-0.188149 -0.514127 0
-0.271784 -0.381645 0
-0.161055 -0.128419 0
0.0597671 -0.636369 0
-0.19672 -0.893296 0
0.153834 -0.579256 0
-0.126769 -0.403593 0
-0.580109 -0.975129 0
-0.0405355 -0.407241 0
0.0411113 -0.235125 0
-0.617914 -1.7482 0
0.0145672 -0.165082 0
-0.188934 -1.02143 0
-0.172103 -0.591669 0
-0.0270664 -1.09046 0
-0.207633 -1.31572 0
0.285942 -0.558782 0
0.0427417 -0.391605 0
-0.0932211 -0.97864 0
0.687096 -1.80376 0
0.0240622 -0.971913 0
-0.438348 -1.03378 0
-0.335217 -0.697313 0
-0.401714 -1.97474 0
-0.829179 -0.399568 0
-0.138786 -0.213982 0
-0.258648 -0.700493 0
0.605506 -0.871253 0
-0.133646 -1.10808 0
-0.146545 -0.73907 0
-1.00773 -0.90553 0
0.260166 -1.6173 0
