# vtk DataFile Version 2.0
Unstructured Grid by M++
ASCII
DATASET UNSTRUCTURED_GRID
POINTS 81 float
  1.000000   0.625000 0
  0.750000   0.375000 0
  1.000000   0.000000 0
  0.875000   0.875000 0
  0.750000   0.125000 0
  1.000000   1.000000 0
  0.875000   0.250000 0
  0.625000   0.875000 0
  1.000000   0.750000 0
  0.875000   0.000000 0
  1.000000   0.250000 0
  0.625000   0.375000 0
  0.875000   0.500000 0
  0.625000   0.625000 0
  1.000000   0.500000 0
  0.750000   0.500000 0
  0.750000   1.000000 0
  1.000000   0.125000 0
  0.625000   0.250000 0
  0.750000   0.750000 0
  0.625000   0.000000 0
  0.125000   0.375000 0
  0.000000   0.500000 0
  0.125000   0.625000 0
  0.625000   1.000000 0
  1.000000   0.875000 0
  0.875000   0.125000 0
  0.500000   0.250000 0
  0.625000   0.500000 0
  0.250000   0.625000 0
  0.000000   0.625000 0
  0.375000   0.500000 0
  0.375000   0.000000 0
  0.000000   0.125000 0
  0.125000   0.875000 0
  0.875000   1.000000 0
  0.750000   0.250000 0
  0.375000   0.375000 0
  0.250000   0.375000 0
  0.625000   0.750000 0
  0.125000   0.125000 0
  0.500000   0.000000 0
  0.250000   0.875000 0
  0.125000   0.500000 0
  0.500000   0.375000 0
  0.125000   0.000000 0
  0.250000   0.750000 0
  0.250000   0.500000 0
  0.000000   0.875000 0
  0.875000   0.625000 0
  0.500000   0.750000 0
  0.750000   0.625000 0
  0.250000   0.000000 0
  0.375000   0.750000 0
  0.750000   0.875000 0
  0.625000   0.125000 0
  0.250000   0.250000 0
  0.375000   1.000000 0
  0.375000   0.250000 0
  0.000000   0.375000 0
  0.500000   1.000000 0
  0.875000   0.750000 0
  0.750000   0.000000 0
  0.375000   0.125000 0
  0.500000   0.875000 0
  0.000000   0.000000 0
  0.125000   0.750000 0
  0.500000   0.625000 0
  0.125000   0.250000 0
  0.500000   0.125000 0
  0.250000   1.000000 0
  0.250000   0.125000 0
  0.000000   1.000000 0
  0.375000   0.875000 0
  0.000000   0.750000 0
  0.375000   0.625000 0
  0.000000   0.250000 0
  0.125000   1.000000 0
  1.000000   0.375000 0
  0.500000   0.500000 0
  0.875000   0.375000 0
CELLS 64 320
4 56 71 58 63
4 27 58 69 63
4 41 69 32 63
4 76 33 68 40
4 27 44 58 37
4 79 31 44 37
4 56 38 68 21
4 56 58 38 37
4 52 32 71 63
4 47 38 31 37
4 76 68 59 21
4 22 59 43 21
4 65 45 33 40
4 47 43 38 21
4 52 71 45 40
4 56 68 71 40
4 74 30 66 23
4 46 66 29 23
4 22 43 30 23
4 72 48 77 34
4 46 53 42 73
4 50 64 53 73
4 70 42 57 73
4 74 66 48 34
4 46 42 66 34
4 47 29 43 23
4 70 77 42 34
4 60 57 64 73
4 79 67 31 75
4 47 31 29 75
4 50 53 67 75
4 46 29 53 75
4 10 78 6 80
4 36 6 1 80
4 15 1 12 80
4 36 4 6 26
4 14 12 78 80
4 2 17 9 26
4 36 18 4 55
4 15 28 1 11
4 62 4 20 55
4 10 6 17 26
4 27 18 44 11
4 62 9 4 26
4 27 69 18 55
4 36 1 18 11
4 41 20 69 55
4 79 44 28 11
4 16 24 54 7
4 19 54 39 7
4 50 39 64 7
4 8 25 61 3
4 60 64 24 7
4 79 28 67 13
4 19 51 61 49
4 8 61 0 49
4 15 51 28 13
4 19 39 51 13
4 50 67 39 13
4 19 61 54 3
4 14 0 12 49
4 5 35 25 3
4 15 12 51 49
4 16 54 35 3
CELL_TYPES 64
8
8
8
8
8
8
8
8
8
8
8
8
8
8
8
8
8
8
8
8
8
8
8
8
8
8
8
8
8
8
8
8
8
8
8
8
8
8
8
8
8
8
8
8
8
8
8
8
8
8
8
8
8
8
8
8
8
8
8
8
8
8
8
8
CELL_DATA 64
VECTORS vector_value float
0.123053 -1.33725 0
-0.150846 -0.770341 0
0.149171 -1.1536 0
-0.180146 -1.98405 0
-0.391854 -0.451704 0
-1.02319 -0.978212 0
-0.546779 -1.22575 0
-0.633122 -1.16024 0
0.0826923 -1.01935 0
-0.754562 -0.769946 0
-0.148288 -1.27551 0
0.0543376 -1.35606 0
0.0277834 -1.9054 0
-0.083775 -0.506356 0
0.0265926 -0.575034 0
-0.0188978 -0.505156 0
-0.255886 -1.44795 0
-0.0867506 -0.132817 0
0.0318535 -1.4226 0
0.111115 -0.716969 0
0.471364 -0.927166 0
0.697451 -0.3316 0
0.284262 -1.06019 0
-0.0888374 -0.86918 0
-0.299035 -0.613016 0
-0.0304377 -0.267615 0
0.350598 -1.16107 0
0.580767 -0.553281 0
-0.544272 -1.00233 0
-0.0511479 -0.141415 0
0.131043 -0.368269 0
0.0011347 -0.304314 0
0.0108363 -0.136915 0
0.031936 -0.521552 0
-0.42104 -1.14187 0
0.304466 -0.728115 0
-0.0244048 -0.140437 0
0.00576966 -0.395464 0
-0.00814047 -1.92785 0
-0.266501 -1.60003 0
-0.0815616 -1.2341 0
0.115591 -0.336401 0
-0.2734 -0.839976 0
0.0621829 -0.884685 0
-0.128303 -0.410831 0
-0.00286875 -2.38835 0
-0.247266 -0.832357 0
-0.315184 -1.50709 0
0.620119 -0.96828 0
-0.207049 -0.988022 0
0.325262 -1.64971 0
-0.271635 -1.29631 0
0.682946 -1.0402 0
-0.39374 -2.11712 0
-0.308123 -1.08464 0
-0.173884 -0.76715 0
-0.198871 -1.32572 0
-0.471519 -1.43681 0
-0.261094 -2.45805 0
-0.558286 -1.32499 0
-0.168536 -0.383211 0
0.204955 -1.38658 0
-0.307572 -1.33999 0
0.544607 -1.11342 0
