# vtk DataFile Version 2.0
Unstructured Grid by M++
ASCII
DATASET UNSTRUCTURED_GRID
POINTS 289 float
  0.562500   1.000000 0
  0.562500   0.625000 0
  0.625000   1.000000 0
  0.562500   0.937500 0
  0.562500   0.562500 0
  0.625000   0.937500 0
  0.562500   0.875000 0
  0.625000   0.750000 0
  0.625000   0.625000 0
  0.562500   0.812500 0
  0.562500   0.750000 0
  0.562500   0.687500 0
  0.625000   0.875000 0
  0.625000   0.812500 0
  0.625000   0.687500 0
  0.687500   0.125000 0
  0.875000   0.062500 0
  0.625000   0.125000 0
  0.625000   0.187500 0
  0.625000   0.250000 0
  0.812500   0.187500 0
  1.000000   0.125000 0
  0.687500   0.187500 0
  0.750000   0.125000 0
  0.937500   0.062500 0
  0.937500   0.125000 0
  0.750000   0.187500 0
  0.812500   0.062500 0
  0.812500   0.125000 0
  0.875000   0.687500 0
  0.187500   0.250000 0
  0.437500   0.250000 0
  0.375000   0.187500 0
  0.812500   0.625000 0
  0.125000   0.187500 0
  0.937500   0.750000 0
  0.250000   0.312500 0
  0.500000   0.312500 0
  0.625000   0.062500 0
  0.437500   0.500000 0
  0.375000   0.125000 0
  0.437500   0.187500 0
  0.437500   0.437500 0
  0.437500   0.375000 0
  0.875000   0.875000 0
  0.187500   0.375000 0
  0.687500   0.562500 0
  0.687500   0.625000 0
  0.000000   0.125000 0
  0.937500   0.625000 0
  0.250000   0.125000 0
  0.375000   0.062500 0
  0.375000   0.000000 0
  0.812500   0.500000 0
  0.125000   0.000000 0
  0.937500   0.937500 0
  0.250000   0.437500 0
  0.687500   0.875000 0
  0.687500   0.937500 0
  0.000000   0.437500 0
  0.500000   0.500000 0
  0.500000   0.437500 0
  0.750000   0.937500 0
  0.750000   1.000000 0
  0.062500   0.500000 0
  1.000000   1.000000 0
  0.312500   0.500000 0
  0.875000   0.562500 0
  0.187500   0.062500 0
  0.437500   0.125000 0
  0.437500   0.062500 0
  0.500000   0.375000 0
  0.937500   0.812500 0
  0.937500   0.875000 0
  0.250000   0.375000 0
  0.687500   0.812500 0
  0.000000   0.375000 0
  0.750000   0.562500 0
  0.062500   0.125000 0
  1.000000   0.562500 0
  1.000000   0.625000 0
  0.312500   0.125000 0
  0.562500   0.125000 0
  0.437500   0.000000 0
  0.875000   0.437500 0
  0.875000   0.500000 0
  0.187500   0.000000 0
  0.937500   0.562500 0
  0.937500   0.500000 0
  0.250000   0.062500 0
  0.687500   0.500000 0
  0.000000   0.062500 0
  0.500000   0.062500 0
  1.000000   0.875000 0
  1.000000   0.937500 0
  0.312500   0.437500 0
  0.750000   0.875000 0
  0.062500   0.437500 0
  0.812500   0.937500 0
  0.125000   0.500000 0
  0.375000   0.500000 0
  0.625000   0.562500 0
  0.625000   0.500000 0
  0.437500   0.312500 0
  0.875000   0.812500 0
  0.875000   0.750000 0
  0.187500   0.312500 0
  0.812500   0.687500 0
  0.812500   0.750000 0
  0.125000   0.250000 0
  0.375000   0.250000 0
  1.000000   0.687500 0
  0.312500   0.187500 0
  0.750000   0.687500 0
  0.750000   0.625000 0
  0.062500   0.187500 0
  0.562500   0.250000 0
  0.562500   0.187500 0
  0.375000   1.000000 0
  0.500000   0.562500 0
  0.500000   0.250000 0
  0.750000   0.250000 0
  0.500000   0.125000 0
  0.500000   0.187500 0
  1.000000   0.187500 0
  0.625000   0.375000 0
  0.875000   0.375000 0
  1.000000   0.437500 0
  0.312500   0.000000 0
  0.562500   0.000000 0
  0.812500   0.000000 0
  0.250000   0.687500 0
  0.000000   0.687500 0
  0.500000   1.000000 0
  0.250000   1.000000 0
  0.000000   1.000000 0
  0.437500   0.687500 0
  0.437500   0.625000 0
  0.187500   0.625000 0
  0.687500   0.750000 0
  0.000000   0.312500 0
  0.000000   0.250000 0
  0.375000   0.375000 0
  0.375000   0.312500 0
  0.812500   0.812500 0
  0.125000   0.312500 0
  0.875000   0.625000 0
  0.187500   0.187500 0
  0.187500   0.125000 0
  0.937500   1.000000 0
  0.250000   0.562500 0
  0.250000   0.500000 0
  0.687500   1.000000 0
  0.000000   0.500000 0
  0.687500   0.687500 0
  0.000000   0.187500 0
  0.937500   0.687500 0
  0.250000   0.250000 0
  0.250000   0.187500 0
  0.187500   0.687500 0
  0.000000   0.750000 0
  0.250000   0.750000 0
  0.125000   0.625000 0
  0.750000   0.750000 0
  0.062500   0.250000 0
  0.875000   0.937500 0
  0.187500   0.500000 0
  0.187500   0.437500 0
  0.812500   0.562500 0
  0.125000   0.125000 0
  0.125000   0.062500 0
  0.375000   0.625000 0
  0.375000   0.687500 0
  1.000000   0.750000 0
  0.312500   0.250000 0
  0.312500   0.312500 0
  0.812500   0.312500 0
  0.562500   0.312500 0
  0.375000   0.750000 0
  0.500000   0.625000 0
  0.250000   0.625000 0
  0.312500   0.687500 0
  0.750000   0.812500 0
  0.062500   0.312500 0
  0.062500   0.375000 0
  1.000000   0.812500 0
  0.312500   0.375000 0
  0.562500   0.375000 0
  0.687500   0.437500 0
  0.000000   0.000000 0
  0.500000   0.000000 0
  0.937500   0.437500 0
  0.250000   0.000000 0
  0.375000   0.437500 0
  0.812500   0.875000 0
  0.125000   0.375000 0
  0.125000   0.437500 0
  0.625000   0.437500 0
  1.000000   0.500000 0
  0.312500   0.062500 0
  0.750000   0.500000 0
  0.062500   0.000000 0
  0.062500   0.062500 0
  0.562500   0.062500 0
  0.062500   0.750000 0
  0.312500   0.750000 0
  0.312500   0.625000 0
  0.312500   0.562500 0
  0.062500   0.562500 0
  0.187500   1.000000 0
  0.437500   0.562500 0
  0.875000   1.000000 0
  0.187500   0.562500 0
  0.500000   0.937500 0
  0.250000   0.937500 0
  0.312500   1.000000 0
  0.125000   0.750000 0
  0.125000   0.687500 0
  1.000000   0.000000 0
  0.000000   0.937500 0
  0.000000   0.875000 0
  0.875000   0.125000 0
  0.875000   0.187500 0
  0.062500   0.812500 0
  0.312500   0.812500 0
  0.000000   0.812500 0
  0.000000   0.625000 0
  0.000000   0.562500 0
  0.062500   1.000000 0
  0.062500   0.937500 0
  0.937500   0.187500 0
  0.937500   0.250000 0
  0.062500   0.687500 0
  0.062500   0.625000 0
  0.125000   1.000000 0
  1.000000   0.250000 0
  1.000000   0.312500 0
  0.062500   0.875000 0
  0.125000   0.812500 0
  0.375000   0.812500 0
  0.125000   0.875000 0
  0.375000   0.937500 0
  0.375000   0.875000 0
  0.187500   0.750000 0
  0.187500   0.812500 0
  0.437500   0.812500 0
  0.187500   0.875000 0
  0.437500   0.875000 0
  0.375000   0.562500 0
  0.812500   1.000000 0
  0.125000   0.562500 0
  0.437500   1.000000 0
  0.437500   0.937500 0
  0.187500   0.937500 0
  0.125000   0.937500 0
  0.500000   0.687500 0
  0.500000   0.750000 0
  0.500000   0.812500 0
  0.250000   0.812500 0
  0.250000   0.875000 0
  0.500000   0.875000 0
  0.437500   0.750000 0
  0.312500   0.875000 0
  0.312500   0.937500 0
  0.687500   0.250000 0
  0.687500   0.312500 0
  0.937500   0.312500 0
  0.875000   0.250000 0
  0.625000   0.000000 0
  0.875000   0.000000 0
  0.687500   0.375000 0
  0.937500   0.375000 0
  0.875000   0.312500 0
  0.625000   0.312500 0
  0.687500   0.000000 0
  0.937500   0.000000 0
  0.750000   0.312500 0
  0.750000   0.375000 0
  1.000000   0.375000 0
  0.812500   0.250000 0
  0.562500   0.437500 0
  0.562500   0.500000 0
  0.687500   0.062500 0
  0.750000   0.437500 0
  0.750000   0.000000 0
  0.750000   0.062500 0
  1.000000   0.062500 0
  0.812500   0.375000 0
  0.812500   0.437500 0
CELLS 256 1280
4 169 170 148 68
4 151 166 56 167
4 195 45 196 167
4 54 170 201 202
4 109 34 30 147
4 40 32 81 112
4 192 89 86 68
4 48 91 78 202
4 99 64 196 97
4 71 43 37 103
4 74 186 56 95
4 109 164 34 115
4 50 81 158 112
4 122 69 92 70
4 195 145 45 106
4 110 143 174 175
4 157 30 158 147
4 40 69 32 41
4 50 158 148 147
4 141 155 164 115
4 122 123 69 41
4 142 186 143 175
4 60 39 61 42
4 40 51 69 70
4 120 31 123 41
4 157 174 36 175
4 50 148 89 68
4 48 78 155 115
4 52 83 51 70
4 151 56 66 95
4 71 61 43 42
4 169 148 34 147
4 100 193 39 42
4 40 81 51 199
4 110 174 32 112
4 109 30 145 106
4 100 66 193 95
4 169 34 78 115
4 190 92 83 70
4 50 89 81 199
4 54 86 170 68
4 74 56 45 167
4 142 143 43 103
4 153 59 64 97
4 99 196 166 167
4 169 78 170 202
4 142 193 186 95
4 192 128 89 199
4 74 45 36 106
4 110 31 143 103
4 76 184 59 97
4 142 43 193 42
4 52 51 128 199
4 189 201 91 202
4 120 37 31 103
4 74 36 186 175
4 195 196 184 97
4 141 164 140 183
4 157 158 174 112
4 109 145 164 183
4 195 184 145 183
4 110 32 31 41
4 157 36 30 106
4 76 140 184 183
4 171 172 206 181
4 178 172 261 136
4 256 261 255 136
4 256 257 261 245
4 180 150 206 207
4 60 119 39 210
4 118 215 241 263
4 178 205 172 181
4 216 243 238 244
4 162 217 233 232
4 180 206 131 181
4 179 137 119 210
4 216 204 217 232
4 220 237 219 229
4 216 217 243 159
4 259 258 262 224
4 240 254 237 229
4 153 64 227 208
4 161 205 258 224
4 240 237 238 223
4 226 227 233 208
4 234 228 254 229
4 171 248 137 210
4 160 132 204 232
4 180 131 138 159
4 133 251 213 252
4 171 206 248 207
4 162 138 217 159
4 161 258 243 244
4 220 225 237 223
4 151 150 166 212
4 260 247 257 245
4 259 262 214 263
4 151 66 150 207
4 234 254 209 253
4 162 233 250 208
4 242 241 262 263
4 171 137 172 136
4 161 243 131 159
4 160 204 225 223
4 161 131 205 181
4 179 255 137 136
4 216 238 204 223
4 100 39 248 210
4 260 213 247 252
4 226 233 132 232
4 134 214 215 263
4 180 138 150 212
4 178 261 239 245
4 259 246 258 244
4 178 239 205 224
4 240 238 246 244
4 242 262 239 224
4 99 250 64 208
4 240 246 254 253
4 242 239 247 245
4 135 219 228 229
4 99 166 250 212
4 259 214 246 253
4 118 241 251 252
4 100 248 66 207
4 134 209 214 253
4 162 250 138 212
4 242 247 241 252
4 71 187 61 280
4 102 281 197 280
4 122 92 82 203
4 17 18 82 117
4 122 82 123 117
4 19 264 273 265
4 267 279 222 20
4 125 273 270 265
4 267 272 279 176
4 19 116 18 117
4 21 25 286 24
4 23 28 26 20
4 23 285 28 27
4 218 286 275 24
4 85 53 84 288
4 235 236 231 266
4 221 222 28 20
4 267 222 231 230
4 268 38 129 203
4 125 270 197 188
4 126 287 272 176
4 277 270 276 265
4 267 231 272 266
4 125 197 187 280
4 190 129 92 203
4 277 276 287 176
4 19 18 264 22
4 17 82 38 203
4 102 197 90 188
4 126 84 287 288
4 284 130 285 27
4 121 276 264 265
4 71 37 187 177
4 120 123 116 117
4 198 88 127 191
4 221 16 25 24
4 23 26 15 22
4 121 279 276 176
4 235 231 124 230
4 125 187 273 177
4 278 271 236 266
4 277 287 283 288
4 284 285 274 282
4 278 127 271 191
4 269 275 16 24
4 200 283 53 288
4 23 15 285 282
4 121 26 279 20
4 21 124 25 230
4 19 273 116 177
4 200 90 283 188
4 126 271 84 191
4 269 16 130 27
4 17 38 15 282
4 221 25 222 230
4 121 264 26 22
4 120 116 37 177
4 60 61 281 280
4 277 283 270 188
4 126 272 271 266
4 268 274 38 282
4 85 84 88 191
4 17 15 18 22
4 221 28 16 27
4 93 94 73 55
4 85 88 67 87
4 80 49 79 87
4 44 104 73 72
4 146 33 67 168
4 211 165 149 55
4 8 47 14 154
4 105 104 108 144
4 105 108 29 107
4 7 139 13 75
4 44 165 194 98
4 200 53 77 168
4 8 1 101 4
4 2 5 152 58
4 260 6 213 3
4 105 35 104 72
4 96 57 182 75
4 7 14 139 154
4 146 29 33 107
4 7 13 10 9
4 12 13 57 75
4 85 67 53 168
4 44 73 165 55
4 63 152 62 58
4 8 101 47 46
4 96 182 194 144
4 60 281 119 4
4 12 5 6 3
4 173 185 35 72
4 65 149 94 55
4 146 67 49 87
4 114 113 47 154
4 163 108 182 144
4 12 6 13 9
4 173 35 111 156
4 163 182 139 75
4 260 257 6 9
4 105 29 35 156
4 163 139 113 154
4 256 10 257 9
4 146 49 29 156
4 163 113 108 107
4 80 111 49 156
4 102 101 281 4
4 12 57 5 58
4 44 194 104 144
4 96 194 62 98
4 2 0 5 3
4 93 73 185 72
4 179 119 1 4
4 200 77 90 46
4 114 33 113 107
4 7 10 14 11
4 96 62 57 58
4 133 213 0 3
4 102 90 101 46
4 256 255 10 11
4 63 62 249 98
4 114 47 77 46
4 179 1 255 11
4 211 249 165 98
4 114 77 33 168
4 198 79 88 87
4 8 14 1 11
CELL_TYPES 256
8
8
8
8
8
8
8
8
8
8
8
8
8
8
8
8
8
8
8
8
8
8
8
8
8
8
8
8
8
8
8
8
8
8
8
8
8
8
8
8
8
8
8
8
8
8
8
8
8
8
8
8
8
8
8
8
8
8
8
8
8
8
8
8
8
8
8
8
8
8
8
8
8
8
8
8
8
8
8
8
8
8
8
8
8
8
8
8
8
8
8
8
8
8
8
8
8
8
8
8
8
8
8
8
8
8
8
8
8
8
8
8
8
8
8
8
8
8
8
8
8
8
8
8
8
8
8
8
8
8
8
8
8
8
8
8
8
8
8
8
8
8
8
8
8
8
8
8
8
8
8
8
8
8
8
8
8
8
8
8
8
8
8
8
8
8
8
8
8
8
8
8
8
8
8
8
8
8
8
8
8
8
8
8
8
8
8
8
8
8
8
8
8
8
8
8
8
8
8
8
8
8
8
8
8
8
8
8
8
8
8
8
8
8
8
8
8
8
8
8
8
8
8
8
8
8
8
8
8
8
8
8
8
8
8
8
8
8
8
8
8
8
8
8
8
8
8
8
8
8
8
8
8
8
8
8
CELL_DATA 256
VECTORS vector_value float
0.286782 -0.654966 0
0.122625 -0.66489 0
0.241294 -0.970593 0
0.0841801 -0.546933 0
0.298661 -0.639658 0
0.401951 -0.647886 0
0.144842 -0.885076 0
0.113047 -0.779263 0
0.169043 -1.0796 0
-0.0877891 -0.900268 0
0.082792 -0.613169 0
0.243412 -0.910431 0
0.303065 -0.9628 0
0.473341 -1.97736 0
0.339585 -0.896849 0
0.227436 -0.846137 0
0.268065 -0.862569 0
0.501579 -1.70497 0
0.258191 -0.952445 0
0.101196 -1.16951 0
0.327012 -1.9735 0
-0.0754577 -0.793365 0
-0.475747 -1.63892 0
0.162563 -1.46785 0
0.103359 -1.5796 0
0.288574 -1.17595 0
0.247377 -0.956018 0
0.0789978 -0.952832 0
0.0108688 -1.23362 0
-0.0156057 -0.427274 0
-0.291298 -1.27901 0
0.265629 -0.607969 0
-0.277311 -1.00214 0
0.100486 -0.819623 0
0.456762 -0.752234 0
0.302629 -0.650507 0
-0.0603082 -0.421551 0
0.218062 -0.844031 0
0.11605 -1.62795 0
0.193213 -0.869777 0
0.154028 -0.785376 0
0.258229 -0.750544 0
-0.122625 -1.49637 0
0.116971 -1.92865 0
0.179521 -0.991101 0
0.304988 -0.714185 0
-0.167555 -0.636694 0
0.0557618 -1.23184 0
0.303899 -0.741772 0
0.198502 -1.33596 0
0.0969722 -1.62456 0
-0.377684 -1.2713 0
-0.0567842 -0.801651 0
0.021672 -0.608342 0
0.0347531 -1.23235 0
0.141688 -0.961988 0
0.224855 -1.18025 0
0.0631929 -1.27814 0
0.371488 -1.21326 0
0.195609 -1.07381 0
0.216503 -1.10255 0
0.360701 -1.51321 0
0.423453 -0.957898 0
0.102562 -1.48586 0
0.0211117 -0.318815 0
0.0901623 -0.614146 0
0.0269775 -1.13451 0
0.011377 -0.992573 0
0.0817746 -0.468979 0
-0.215301 -1.3911 0
0.263263 -0.846285 0
0.0418492 -0.289707 0
-0.325464 -1.58567 0
-0.149366 -1.74835 0
0.101994 -0.335471 0
-0.115719 -1.20695 0
-0.479754 -1.60625 0
0.018374 -1.68373 0
-0.316649 -1.18592 0
-0.305505 -0.439574 0
-0.118372 -1.03193 0
0.0236799 -2.007 0
-0.0557685 -0.236884 0
0.136722 -1.33895 0
-0.0346053 -2.04103 0
-0.558487 -0.994652 0
-0.0869532 -0.731 0
-0.116499 -1.61908 0
0.140131 -0.455478 0
0.575948 -0.863963 0
-0.00193683 -0.39424 0
0.0507808 -0.769401 0
-0.259445 -0.763643 0
0.0453878 -1.42623 0
0.0181436 -0.384732 0
0.0245443 -0.898802 0
-0.127644 -0.436997 0
-0.0191978 -0.470729 0
-0.535471 -0.967351 0
0.073765 -1.45796 0
-0.0833614 -0.761536 0
-0.0352944 -0.593008 0
0.0465661 -0.537431 0
-0.0389026 -1.46929 0
0.0546185 -0.232635 0
-0.0962629 -1.29285 0
-0.0968122 -1.12332 0
-0.0570594 -0.758565 0
0.201289 -0.657065 0
-0.11135 -1.82246 0
-0.0836001 -0.638793 0
0.070066 -0.405061 0
0.114452 -0.595239 0
-0.271976 -0.885586 0
0.0741653 -0.442118 0
-0.0348109 -1.02781 0
-0.102622 -0.599824 0
0.167875 -1.11792 0
-0.230862 -1.0165 0
0.0440681 -0.518894 0
-0.281256 -1.3901 0
0.225051 -1.08491 0
-0.199657 -0.695674 0
0.395049 -1.02396 0
-0.00685244 -0.45992 0
-0.429558 -0.869599 0
0.0770026 -0.713441 0
0.10477 -0.825403 0
-0.0431985 -0.819421 0
-0.200805 -0.621268 0
0.473733 -1.15678 0
-0.0990924 -0.442436 0
0.0254933 -0.948061 0
-0.0113183 -0.830713 0
-0.502713 -1.36162 0
-0.0258322 -0.712994 0
-0.201803 -1.10849 0
-0.166721 -0.521019 0
0.0564334 -0.460324 0
-0.461763 -1.09795 0
-0.595409 -1.13543 0
0.0903714 -0.72862 0
0.0493095 -0.865358 0
-0.226039 -1.37152 0
-0.504033 -1.39495 0
-0.579197 -1.85443 0
0.0661487 -1.40686 0
-0.110377 -0.683324 0
-0.0663749 -1.03927 0
-0.049068 -0.59449 0
-0.347121 -1.78414 0
-0.0605457 -0.677947 0
0.224589 -1.30915 0
-0.0257972 -0.454803 0
-0.0652061 -0.68691 0
0.0430086 -0.851174 0
-0.22419 -0.626873 0
0.0553959 -0.949659 0
-0.17938 -1.05837 0
-0.014041 -0.505217 0
-0.0678902 -0.730724 0
-0.143084 -0.745126 0
-0.140021 -2.21958 0
-0.112268 -1.24692 0
-0.208831 -0.696927 0
-0.0819329 -0.589491 0
-0.248865 -0.861462 0
0.0162514 -0.751603 0
-0.108047 -1.70666 0
0.0405824 -0.565198 0
-0.217424 -1.05416 0
-0.12441 -1.83698 0
0.00258478 -0.689816 0
0.0293976 -0.630805 0
-0.504553 -0.893596 0
-0.209007 -0.687641 0
-0.0697438 -0.515882 0
-0.0903641 -0.650837 0
-0.135374 -0.870132 0
-0.156601 -1.54774 0
-0.112778 -1.14392 0
-0.319684 -0.750212 0
-0.310525 -1.61143 0
-0.0578842 -0.641322 0
-0.113738 -0.608844 0
-0.292068 -0.884319 0
-0.058668 -0.593611 0
-0.145227 -1.63042 0
-0.150074 -0.888306 0
-0.0893429 -1.12754 0
-0.136737 -0.64593 0
-0.508968 -1.26653 0
0.0524792 -1.93277 0
-0.0456011 -1.01927 0
0.131642 -2.12608 0
0.0551529 -2.05513 0
-0.271393 -0.807868 0
0.888305 -0.926167 0
0.034986 -0.454562 0
-0.0161666 -1.35175 0
-0.219572 -1.53917 0
0.0573839 -0.478862 0
0.568488 -1.00134 0
-0.254051 -0.800803 0
-0.00574055 -0.616215 0
0.406689 -1.0975 0
0.075148 -1.31378 0
-0.185435 -2.51146 0
0.289997 -0.406798 0
0.0482281 -0.393953 0
-0.150929 -0.92692 0
-0.0160566 -0.807751 0
0.127889 -0.509642 0
-0.171722 -0.886803 0
0.416194 -1.51096 0
0.708343 -0.6016 0
-0.0477956 -0.498157 0
0.329918 -0.517479 0
-0.279704 -1.11705 0
0.0116937 -1.17331 0
-0.0427331 -1.48924 0
0.414545 -1.5619 0
-0.0424027 -1.56521 0
-0.116747 -0.512682 0
0.139566 -0.484305 0
-0.00803115 -0.974872 0
0.102782 -1.65303 0
0.0901313 -0.251403 0
-0.0935662 -1.40281 0
0.112285 -2.04866 0
0.00125537 -0.308282 0
-0.0455039 -1.4165 0
0.113158 -1.96547 0
-0.202809 -0.618293 0
0.108984 -1.87866 0
-0.187137 -0.633836 0
0.25521 -0.792904 0
0.386221 -1.12916 0
0.617189 -0.775278 0
0.469582 -1.32604 0
-0.140935 -1.86845 0
-0.0650097 -1.29708 0
-0.322941 -0.949036 0
-0.326315 -0.916219 0
-0.0163677 -0.75895 0
0.404858 -0.39082 0
0.633864 -0.90093 0
-0.245138 -0.597963 0
-0.073196 -1.45999 0
1.01562 -0.811457 0
-0.197478 -0.803423 0
-0.0537966 -1.42627 0
1.13864 -1.1797 0
-0.274159 -0.867323 0
0.0229289 -2.32036 0
0.0218326 -0.583399 0
