# vtk DataFile Version 2.0
Unstructured Grid by M++
ASCII
DATASET UNSTRUCTURED_GRID
POINTS 81 float
  1.000000   0.625000 0
  0.750000   0.375000 0
  1.000000   0.000000 0
  0.875000   0.875000 0
  0.750000   0.125000 0
  1.000000   1.000000 0
  0.875000   0.250000 0
  0.625000   0.875000 0
  1.000000   0.750000 0
  0.875000   0.000000 0
  1.000000   0.250000 0
  0.625000   0.375000 0
  0.875000   0.500000 0
  0.625000   0.625000 0
  1.000000   0.500000 0
  0.750000   0.500000 0
  0.750000   1.000000 0
  1.000000   0.125000 0
  0.625000   0.250000 0
  0.750000   0.750000 0
  0.625000   0.000000 0
  0.125000   0.375000 0
  0.000000   0.500000 0
  0.125000   0.625000 0
  0.625000   1.000000 0
  1.000000   0.875000 0
  0.875000   0.125000 0
  0.500000   0.250000 0
  0.625000   0.500000 0
  0.250000   0.625000 0
  0.000000   0.625000 0
  0.375000   0.500000 0
  0.375000   0.000000 0
  0.000000   0.125000 0
  0.125000   0.875000 0
  0.875000   1.000000 0
  0.750000   0.250000 0
  0.375000   0.375000 0
  0.250000   0.375000 0
  0.625000   0.750000 0
  0.125000   0.125000 0
  0.500000   0.000000 0
  0.250000   0.875000 0
  0.125000   0.500000 0
  0.500000   0.375000 0
  0.125000   0.000000 0
  0.250000   0.750000 0
  0.250000   0.500000 0
  0.000000   0.875000 0
  0.875000   0.625000 0
  0.500000   0.750000 0
  0.750000   0.625000 0
  0.250000   0.000000 0
  0.375000   0.750000 0
  0.750000   0.875000 0
  0.625000   0.125000 0
  0.250000   0.250000 0
  0.375000   1.000000 0
  0.375000   0.250000 0
  0.000000   0.375000 0
  0.500000   1.000000 0
  0.875000   0.750000 0
  0.750000   0.000000 0
  0.375000   0.125000 0
  0.500000   0.875000 0
  0.000000   0.000000 0
  0.125000   0.750000 0
  0.500000   0.625000 0
  0.125000   0.250000 0
  0.500000   0.125000 0
  0.250000   1.000000 0
  0.250000   0.125000 0
  0.000000   1.000000 0
  0.375000   0.875000 0
  0.000000   0.750000 0
  0.375000   0.625000 0
  0.000000   0.250000 0
  0.125000   1.000000 0
  1.000000   0.375000 0
  0.500000   0.500000 0
  0.875000   0.375000 0
CELLS 64 320
4 56 71 58 63
4 27 58 69 63
4 41 69 32 63
4 76 33 68 40
4 27 44 58 37
4 79 31 44 37
4 56 38 68 21
4 56 58 38 37
4 52 32 71 63
4 47 38 31 37
4 76 68 59 21
4 22 59 43 21
4 65 45 33 40
4 47 43 38 21
4 52 71 45 40
4 56 68 71 40
4 74 30 66 23
4 46 66 29 23
4 22 43 30 23
4 72 48 77 34
4 46 53 42 73
4 50 64 53 73
4 70 42 57 73
4 74 66 48 34
4 46 42 66 34
4 47 29 43 23
4 70 77 42 34
4 60 57 64 73
4 79 67 31 75
4 47 31 29 75
4 50 53 67 75
4 46 29 53 75
4 10 78 6 80
4 36 6 1 80
4 15 1 12 80
4 36 4 6 26
4 14 12 78 80
4 2 17 9 26
4 36 18 4 55
4 15 28 1 11
4 62 4 20 55
4 10 6 17 26
4 27 18 44 11
4 62 9 4 26
4 27 69 18 55
4 36 1 18 11
4 41 20 69 55
4 79 44 28 11
4 16 24 54 7
4 19 54 39 7
4 50 39 64 7
4 8 25 61 3
4 60 64 24 7
4 79 28 67 13
4 19 51 61 49
4 8 61 0 49
4 15 51 28 13
4 19 39 51 13
4 50 67 39 13
4 19 61 54 3
4 14 0 12 49
4 5 35 25 3
4 15 12 51 49
4 16 54 35 3
CELL_TYPES 64
8
8
8
8
8
8
8
8
8
8
8
8
8
8
8
8
8
8
8
8
8
8
8
8
8
8
8
8
8
8
8
8
8
8
8
8
8
8
8
8
8
8
8
8
8
8
8
8
8
8
8
8
8
8
8
8
8
8
8
8
8
8
8
8
CELL_DATA 64
VECTORS vector_value float
-0.0957221 -1.07086 0
0.558891 -1.82188 0
0.0679158 -1.43711 0
-0.149986 -1.40472 0
0.955765 -1.81331 0
0.155893 -1.26766 0
-0.0607703 -0.942787 0
1.1005 -2.09169 0
-0.0389313 -0.540962 0
0.526177 -1.63542 0
-0.25529 -0.935508 0
-0.0792502 -0.559418 0
-0.285848 -1.96691 0
0.379436 -2.47328 0
-0.309813 -0.436984 0
-0.34387 -0.582279 0
0.0509591 -0.365848 0
-0.754004 -1.47359 0
-0.0800517 -0.417676 0
0.192763 -0.800873 0
0.0173714 -2.48423 0
-0.355986 -1.24165 0
0.0229037 -1.74621 0
0.0756077 -0.515647 0
0.210866 -0.416248 0
-0.432681 -3.50888 0
0.5738 -0.83303 0
-0.484644 -1.0479 0
0.0181834 -0.567884 0
0.275887 -1.20854 0
-1.06811 -1.02156 0
-1.98905 -2.41228 0
0.0610253 -0.419426 0
0.0430849 -0.433326 0
0.051329 -0.587743 0
0.43973 -0.917232 0
0.0364838 -0.265977 0
0.0546628 -0.653256 0
0.675942 -0.282589 0
-0.101625 -0.538567 0
0.67466 -0.725626 0
0.0603452 -0.526205 0
0.322728 -0.971984 0
0.320949 -1.40599 0
1.01145 -1.39424 0
0.119838 -0.391972 0
0.219874 -0.833161 0
-0.254681 -0.67193 0
0.369595 -1.16883 0
-0.463956 -1.193 0
-0.406473 -0.127503 0
-0.0360121 -0.282925 0
0.0133714 -0.0989056 0
-0.296843 -0.317044 0
-0.298571 -1.16978 0
-0.0344578 -0.259009 0
-0.523617 -0.894302 0
-0.716332 -1.12491 0
-0.871321 -0.173029 0
-0.262196 -1.7388 0
0.0222854 -0.188915 0
-0.328594 -0.506628 0
-0.162907 -0.896761 0
-0.221675 -1.79763 0
