# vtk DataFile Version 2.0
Unstructured Grid by M++
ASCII
DATASET UNSTRUCTURED_GRID
POINTS 289 float
  0.562500   1.000000 0
  0.562500   0.625000 0
  0.625000   1.000000 0
  0.562500   0.937500 0
  0.562500   0.562500 0
  0.625000   0.937500 0
  0.562500   0.875000 0
  0.625000   0.750000 0
  0.625000   0.625000 0
  0.562500   0.812500 0
  0.562500   0.750000 0
  0.562500   0.687500 0
  0.625000   0.875000 0
  0.625000   0.812500 0
  0.625000   0.687500 0
  0.687500   0.125000 0
  0.875000   0.062500 0
  0.625000   0.125000 0
  0.625000   0.187500 0
  0.625000   0.250000 0
  0.812500   0.187500 0
  1.000000   0.125000 0
  0.687500   0.187500 0
  0.750000   0.125000 0
  0.937500   0.062500 0
  0.937500   0.125000 0
  0.750000   0.187500 0
  0.812500   0.062500 0
  0.812500   0.125000 0
  0.875000   0.687500 0
  0.187500   0.250000 0
  0.437500   0.250000 0
  0.375000   0.187500 0
  0.812500   0.625000 0
  0.125000   0.187500 0
  0.937500   0.750000 0
  0.250000   0.312500 0
  0.500000   0.312500 0
  0.625000   0.062500 0
  0.437500   0.500000 0
  0.375000   0.125000 0
  0.437500   0.187500 0
  0.437500   0.437500 0
  0.437500   0.375000 0
  0.875000   0.875000 0
  0.187500   0.375000 0
  0.687500   0.562500 0
  0.687500   0.625000 0
  0.000000   0.125000 0
  0.937500   0.625000 0
  0.250000   0.125000 0
  0.375000   0.062500 0
  0.375000   0.000000 0
  0.812500   0.500000 0
  0.125000   0.000000 0
  0.937500   0.937500 0
  0.250000   0.437500 0
  0.687500   0.875000 0
  0.687500   0.937500 0
  0.000000   0.437500 0
  0.500000   0.500000 0
  0.500000   0.437500 0
  0.750000   0.937500 0
  0.750000   1.000000 0
  0.062500   0.500000 0
  1.000000   1.000000 0
  0.312500   0.500000 0
  0.875000   0.562500 0
  0.187500   0.062500 0
  0.437500   0.125000 0
  0.437500   0.062500 0
  0.500000   0.375000 0
  0.937500   0.812500 0
  0.937500   0.875000 0
  0.250000   0.375000 0
  0.687500   0.812500 0
  0.000000   0.375000 0
  0.750000   0.562500 0
  0.062500   0.125000 0
  1.000000   0.562500 0
  1.000000   0.625000 0
  0.312500   0.125000 0
  0.562500   0.125000 0
  0.437500   0.000000 0
  0.875000   0.437500 0
  0.875000   0.500000 0
  0.187500   0.000000 0
  0.937500   0.562500 0
  0.937500   0.500000 0
  0.250000   0.062500 0
  0.687500   0.500000 0
  0.000000   0.062500 0
  0.500000   0.062500 0
  1.000000   0.875000 0
  1.000000   0.937500 0
  0.312500   0.437500 0
  0.750000   0.875000 0
  0.062500   0.437500 0
  0.812500   0.937500 0
  0.125000   0.500000 0
  0.375000   0.500000 0
  0.625000   0.562500 0
  0.625000   0.500000 0
  0.437500   0.312500 0
  0.875000   0.812500 0
  0.875000   0.750000 0
  0.187500   0.312500 0
  0.812500   0.687500 0
  0.812500   0.750000 0
  0.125000   0.250000 0
  0.375000   0.250000 0
  1.000000   0.687500 0
  0.312500   0.187500 0
  0.750000   0.687500 0
  0.750000   0.625000 0
  0.062500   0.187500 0
  0.562500   0.250000 0
  0.562500   0.187500 0
  0.375000   1.000000 0
  0.500000   0.562500 0
  0.500000   0.250000 0
  0.750000   0.250000 0
  0.500000   0.125000 0
  0.500000   0.187500 0
  1.000000   0.187500 0
  0.625000   0.375000 0
  0.875000   0.375000 0
  1.000000   0.437500 0
  0.312500   0.000000 0
  0.562500   0.000000 0
  0.812500   0.000000 0
  0.250000   0.687500 0
  0.000000   0.687500 0
  0.500000   1.000000 0
  0.250000   1.000000 0
  0.000000   1.000000 0
  0.437500   0.687500 0
  0.437500   0.625000 0
  0.187500   0.625000 0
  0.687500   0.750000 0
  0.000000   0.312500 0
  0.000000   0.250000 0
  0.375000   0.375000 0
  0.375000   0.312500 0
  0.812500   0.812500 0
  0.125000   0.312500 0
  0.875000   0.625000 0
  0.187500   0.187500 0
  0.187500   0.125000 0
  0.937500   1.000000 0
  0.250000   0.562500 0
  0.250000   0.500000 0
  0.687500   1.000000 0
  0.000000   0.500000 0
  0.687500   0.687500 0
  0.000000   0.187500 0
  0.937500   0.687500 0
  0.250000   0.250000 0
  0.250000   0.187500 0
  0.187500   0.687500 0
  0.000000   0.750000 0
  0.250000   0.750000 0
  0.125000   0.625000 0
  0.750000   0.750000 0
  0.062500   0.250000 0
  0.875000   0.937500 0
  0.187500   0.500000 0
  0.187500   0.437500 0
  0.812500   0.562500 0
  0.125000   0.125000 0
  0.125000   0.062500 0
  0.375000   0.625000 0
  0.375000   0.687500 0
  1.000000   0.750000 0
  0.312500   0.250000 0
  0.312500   0.312500 0
  0.812500   0.312500 0
  0.562500   0.312500 0
  0.375000   0.750000 0
  0.500000   0.625000 0
  0.250000   0.625000 0
  0.312500   0.687500 0
  0.750000   0.812500 0
  0.062500   0.312500 0
  0.062500   0.375000 0
  1.000000   0.812500 0
  0.312500   0.375000 0
  0.562500   0.375000 0
  0.687500   0.437500 0
  0.000000   0.000000 0
  0.500000   0.000000 0
  0.937500   0.437500 0
  0.250000   0.000000 0
  0.375000   0.437500 0
  0.812500   0.875000 0
  0.125000   0.375000 0
  0.125000   0.437500 0
  0.625000   0.437500 0
  1.000000   0.500000 0
  0.312500   0.062500 0
  0.750000   0.500000 0
  0.062500   0.000000 0
  0.062500   0.062500 0
  0.562500   0.062500 0
  0.062500   0.750000 0
  0.312500   0.750000 0
  0.312500   0.625000 0
  0.312500   0.562500 0
  0.062500   0.562500 0
  0.187500   1.000000 0
  0.437500   0.562500 0
  0.875000   1.000000 0
  0.187500   0.562500 0
  0.500000   0.937500 0
  0.250000   0.937500 0
  0.312500   1.000000 0
  0.125000   0.750000 0
  0.125000   0.687500 0
  1.000000   0.000000 0
  0.000000   0.937500 0
  0.000000   0.875000 0
  0.875000   0.125000 0
  0.875000   0.187500 0
  0.062500   0.812500 0
  0.312500   0.812500 0
  0.000000   0.812500 0
  0.000000   0.625000 0
  0.000000   0.562500 0
  0.062500   1.000000 0
  0.062500   0.937500 0
  0.937500   0.187500 0
  0.937500   0.250000 0
  0.062500   0.687500 0
  0.062500   0.625000 0
  0.125000   1.000000 0
  1.000000   0.250000 0
  1.000000   0.312500 0
  0.062500   0.875000 0
  0.125000   0.812500 0
  0.375000   0.812500 0
  0.125000   0.875000 0
  0.375000   0.937500 0
  0.375000   0.875000 0
  0.187500   0.750000 0
  0.187500   0.812500 0
  0.437500   0.812500 0
  0.187500   0.875000 0
  0.437500   0.875000 0
  0.375000   0.562500 0
  0.812500   1.000000 0
  0.125000   0.562500 0
  0.437500   1.000000 0
  0.437500   0.937500 0
  0.187500   0.937500 0
  0.125000   0.937500 0
  0.500000   0.687500 0
  0.500000   0.750000 0
  0.500000   0.812500 0
  0.250000   0.812500 0
  0.250000   0.875000 0
  0.500000   0.875000 0
  0.437500   0.750000 0
  0.312500   0.875000 0
  0.312500   0.937500 0
  0.687500   0.250000 0
  0.687500   0.312500 0
  0.937500   0.312500 0
  0.875000   0.250000 0
  0.625000   0.000000 0
  0.875000   0.000000 0
  0.687500   0.375000 0
  0.937500   0.375000 0
  0.875000   0.312500 0
  0.625000   0.312500 0
  0.687500   0.000000 0
  0.937500   0.000000 0
  0.750000   0.312500 0
  0.750000   0.375000 0
  1.000000   0.375000 0
  0.812500   0.250000 0
  0.562500   0.437500 0
  0.562500   0.500000 0
  0.687500   0.062500 0
  0.750000   0.437500 0
  0.750000   0.000000 0
  0.750000   0.062500 0
  1.000000   0.062500 0
  0.812500   0.375000 0
  0.812500   0.437500 0
CELLS 256 1280
4 169 170 148 68
4 151 166 56 167
4 195 45 196 167
4 54 170 201 202
4 109 34 30 147
4 40 32 81 112
4 192 89 86 68
4 48 91 78 202
4 99 64 196 97
4 71 43 37 103
4 74 186 56 95
4 109 164 34 115
4 50 81 158 112
4 122 69 92 70
4 195 145 45 106
4 110 143 174 175
4 157 30 158 147
4 40 69 32 41
4 50 158 148 147
4 141 155 164 115
4 122 123 69 41
4 142 186 143 175
4 60 39 61 42
4 40 51 69 70
4 120 31 123 41
4 157 174 36 175
4 50 148 89 68
4 48 78 155 115
4 52 83 51 70
4 151 56 66 95
4 71 61 43 42
4 169 148 34 147
4 100 193 39 42
4 40 81 51 199
4 110 174 32 112
4 109 30 145 106
4 100 66 193 95
4 169 34 78 115
4 190 92 83 70
4 50 89 81 199
4 54 86 170 68
4 74 56 45 167
4 142 143 43 103
4 153 59 64 97
4 99 196 166 167
4 169 78 170 202
4 142 193 186 95
4 192 128 89 199
4 74 45 36 106
4 110 31 143 103
4 76 184 59 97
4 142 43 193 42
4 52 51 128 199
4 189 201 91 202
4 120 37 31 103
4 74 36 186 175
4 195 196 184 97
4 141 164 140 183
4 157 158 174 112
4 109 145 164 183
4 195 184 145 183
4 110 32 31 41
4 157 36 30 106
4 76 140 184 183
4 171 172 206 181
4 178 172 261 136
4 256 261 255 136
4 256 257 261 245
4 180 150 206 207
4 60 119 39 210
4 118 215 241 263
4 178 205 172 181
4 216 243 238 244
4 162 217 233 232
4 180 206 131 181
4 179 137 119 210
4 216 204 217 232
4 220 237 219 229
4 216 217 243 159
4 259 258 262 224
4 240 254 237 229
4 153 64 227 208
4 161 205 258 224
4 240 237 238 223
4 226 227 233 208
4 234 228 254 229
4 171 248 137 210
4 160 132 204 232
4 180 131 138 159
4 133 251 213 252
4 171 206 248 207
4 162 138 217 159
4 161 258 243 244
4 220 225 237 223
4 151 150 166 212
4 260 247 257 245
4 259 262 214 263
4 151 66 150 207
4 234 254 209 253
4 162 233 250 208
4 242 241 262 263
4 171 137 172 136
4 161 243 131 159
4 160 204 225 223
4 161 131 205 181
4 179 255 137 136
4 216 238 204 223
4 100 39 248 210
4 260 213 247 252
4 226 233 132 232
4 134 214 215 263
4 180 138 150 212
4 178 261 239 245
4 259 246 258 244
4 178 239 205 224
4 240 238 246 244
4 242 262 239 224
4 99 250 64 208
4 240 246 254 253
4 242 239 247 245
4 135 219 228 229
4 99 166 250 212
4 259 214 246 253
4 118 241 251 252
4 100 248 66 207
4 134 209 214 253
4 162 250 138 212
4 242 247 241 252
4 71 187 61 280
4 102 281 197 280
4 122 92 82 203
4 17 18 82 117
4 122 82 123 117
4 19 264 273 265
4 267 279 222 20
4 125 273 270 265
4 267 272 279 176
4 19 116 18 117
4 21 25 286 24
4 23 28 26 20
4 23 285 28 27
4 218 286 275 24
4 85 53 84 288
4 235 236 231 266
4 221 222 28 20
4 267 222 231 230
4 268 38 129 203
4 125 270 197 188
4 126 287 272 176
4 277 270 276 265
4 267 231 272 266
4 125 197 187 280
4 190 129 92 203
4 277 276 287 176
4 19 18 264 22
4 17 82 38 203
4 102 197 90 188
4 126 84 287 288
4 284 130 285 27
4 121 276 264 265
4 71 37 187 177
4 120 123 116 117
4 198 88 127 191
4 221 16 25 24
4 23 26 15 22
4 121 279 276 176
4 235 231 124 230
4 125 187 273 177
4 278 271 236 266
4 277 287 283 288
4 284 285 274 282
4 278 127 271 191
4 269 275 16 24
4 200 283 53 288
4 23 15 285 282
4 121 26 279 20
4 21 124 25 230
4 19 273 116 177
4 200 90 283 188
4 126 271 84 191
4 269 16 130 27
4 17 38 15 282
4 221 25 222 230
4 121 264 26 22
4 120 116 37 177
4 60 61 281 280
4 277 283 270 188
4 126 272 271 266
4 268 274 38 282
4 85 84 88 191
4 17 15 18 22
4 221 28 16 27
4 93 94 73 55
4 85 88 67 87
4 80 49 79 87
4 44 104 73 72
4 146 33 67 168
4 211 165 149 55
4 8 47 14 154
4 105 104 108 144
4 105 108 29 107
4 7 139 13 75
4 44 165 194 98
4 200 53 77 168
4 8 1 101 4
4 2 5 152 58
4 260 6 213 3
4 105 35 104 72
4 96 57 182 75
4 7 14 139 154
4 146 29 33 107
4 7 13 10 9
4 12 13 57 75
4 85 67 53 168
4 44 73 165 55
4 63 152 62 58
4 8 101 47 46
4 96 182 194 144
4 60 281 119 4
4 12 5 6 3
4 173 185 35 72
4 65 149 94 55
4 146 67 49 87
4 114 113 47 154
4 163 108 182 144
4 12 6 13 9
4 173 35 111 156
4 163 182 139 75
4 260 257 6 9
4 105 29 35 156
4 163 139 113 154
4 256 10 257 9
4 146 49 29 156
4 163 113 108 107
4 80 111 49 156
4 102 101 281 4
4 12 57 5 58
4 44 194 104 144
4 96 194 62 98
4 2 0 5 3
4 93 73 185 72
4 179 119 1 4
4 200 77 90 46
4 114 33 113 107
4 7 10 14 11
4 96 62 57 58
4 133 213 0 3
4 102 90 101 46
4 256 255 10 11
4 63 62 249 98
4 114 47 77 46
4 179 1 255 11
4 211 249 165 98
4 114 77 33 168
4 198 79 88 87
4 8 14 1 11
CELL_TYPES 256
8
8
8
8
8
8
8
8
8
8
8
8
8
8
8
8
8
8
8
8
8
8
8
8
8
8
8
8
8
8
8
8
8
8
8
8
8
8
8
8
8
8
8
8
8
8
8
8
8
8
8
8
8
8
8
8
8
8
8
8
8
8
8
8
8
8
8
8
8
8
8
8
8
8
8
8
8
8
8
8
8
8
8
8
8
8
8
8
8
8
8
8
8
8
8
8
8
8
8
8
8
8
8
8
8
8
8
8
8
8
8
8
8
8
8
8
8
8
8
8
8
8
8
8
8
8
8
8
8
8
8
8
8
8
8
8
8
8
8
8
8
8
8
8
8
8
8
8
8
8
8
8
8
8
8
8
8
8
8
8
8
8
8
8
8
8
8
8
8
8
8
8
8
8
8
8
8
8
8
8
8
8
8
8
8
8
8
8
8
8
8
8
8
8
8
8
8
8
8
8
8
8
8
8
8
8
8
8
8
8
8
8
8
8
8
8
8
8
8
8
8
8
8
8
8
8
8
8
8
8
8
8
8
8
8
8
8
8
8
8
8
8
8
8
8
8
8
8
8
8
8
8
8
8
8
8
CELL_DATA 256
VECTORS vector_value float
-0.0471604 -0.510466 0
0.315507 -0.0748119 0
0.788998 -0.756134 0
0.0682726 -0.236607 0
0.00171801 -0.390401 0
-0.159534 -0.310184 0
-0.17414 -0.480437 0
-0.0384841 -0.317257 0
0.653213 -1.02734 0
0.315259 -0.900673 0
0.322902 -0.0413605 0
-0.00664082 -0.371728 0
-0.0631335 -0.649124 0
-0.500618 -1.45033 0
0.587571 -0.81329 0
0.0639897 -0.179301 0
0.0577387 -0.625356 0
-0.434307 -0.709816 0
-0.0341857 -0.499819 0
-0.0058402 -0.207862 0
-0.598992 -1.11743 0
0.120161 -0.125815 0
0.934675 -2.89619 0
-0.279001 -0.793692 0
-0.513734 -1.02589 0
0.23218 -0.271011 0
-0.116178 -0.520578 0
-0.0121425 -0.228443 0
-0.462218 -1.06514 0
0.322492 -0.044973 0
1.00675 -2.17687 0
-0.032268 -0.408573 0
0.534729 -0.418494 0
-0.186492 -0.528529 0
-0.0527872 -0.280565 0
0.202242 -0.423738 0
0.333496 -0.116477 0
-0.0272389 -0.378434 0
-0.273149 -1.172 0
-0.110893 -0.65661 0
-0.0557528 -0.801597 0
0.423482 -0.143674 0
0.0751712 -0.201659 0
0.307349 -1.31754 0
0.444472 -0.40255 0
-0.0244636 -0.289254 0
0.381329 -0.103915 0
-0.117636 -0.598638 0
0.498926 -0.432764 0
-0.00265649 -0.290135 0
0.34601 -0.752454 0
0.334356 -0.23653 0
-0.236833 -0.824144 0
0.0223189 -0.281105 0
-0.0671505 -0.679741 0
0.228897 -0.102573 0
0.788631 -0.839566 0
0.0104143 -0.205883 0
0.0681036 -0.480355 0
0.0958646 -0.490137 0
0.29687 -0.624814 0
-0.17058 -0.338504 0
0.390955 -0.754682 0
0.0854349 -0.309919 0
0.408774 -0.354407 0
0.102535 -0.102593 0
-0.0294204 -0.196761 0
0.0205933 -0.0772955 0
0.209066 -0.137524 0
0.0528636 -2.79013 0
0.615173 -0.308605 0
0.176576 -0.187857 0
-0.0123831 -0.360281 0
-0.00308968 -0.752802 0
0.504655 -0.406654 0
-0.41658 -1.69073 0
0.0418304 -1.06579 0
-0.125233 -1.16423 0
0.190944 -0.280345 0
0.147684 -0.362034 0
-0.423963 -1.34282 0
0.226067 -1.96171 0
0.0688211 -0.305768 0
-0.606098 -1.26689 0
0.131663 -2.37338 0
-0.119618 -0.984941 0
0.364967 -0.520232 0
-0.0138761 -2.2103 0
0.260852 -0.17037 0
2.52276 -0.591486 0
0.534784 -0.384358 0
0.147336 -0.177262 0
0.0672118 -0.415216 0
-0.370936 -1.79875 0
0.23601 -0.0857617 0
0.050131 -0.055696 0
0.0953292 -0.30456 0
0.252237 -0.0653529 0
-0.344569 -1.26269 0
0.180137 -0.675722 0
0.24157 -0.108255 0
0.18913 -0.226559 0
0.314048 -0.327612 0
-0.107936 -2.28043 0
0.287752 -0.398945 0
-0.167887 -0.576886 0
-0.14735 -1.08156 0
0.501463 -0.701651 0
0.245306 -0.075454 0
-0.0730979 -2.3962 0
-0.0671296 -0.783118 0
0.112937 -0.103193 0
0.0502936 -0.0491725 0
-0.0101411 -0.533403 0
0.0807645 -0.132165 0
-0.31343 -0.608689 0
0.0777615 -0.0711092 0
0.345614 -0.82192 0
-0.335995 -0.932034 0
0.0488073 -0.0282799 0
-0.0185435 -0.96577 0
0.248159 -0.231258 0
-0.0687318 -0.936119 0
1.59027 -0.49263 0
0.251341 -0.121429 0
-0.362842 -1.02831 0
0.102316 -0.128433 0
0.224906 -0.0187822 0
1.20712 -3.80404 0
-0.41309 -1.4197 0
-0.212058 -1.40478 0
0.835514 -2.23419 0
-0.327098 -2.26844 0
1.31525 -1.26011 0
0.66712 -0.713868 0
0.235704 -1.09429 0
0.264739 -0.601589 0
0.816284 -3.28843 0
-0.154451 -1.26073 0
0.458575 -1.78082 0
0.0798033 -1.78242 0
-0.0371121 -0.897272 0
-0.00977011 -0.74765 0
0.116982 -0.359713 0
0.622144 -0.791925 0
0.408695 -0.291128 0
0.0580987 -0.76665 0
-0.873202 -1.41183 0
0.080837 -0.525472 0
0.104007 -0.324437 0
0.199587 -0.233719 0
0.398323 -3.56484 0
-0.0777252 -1.04267 0
0.0896092 -0.655239 0
1.8429 -1.64722 0
0.222608 -1.19826 0
-0.839985 -1.19772 0
0.0733466 -0.63015 0
-0.0120457 -1.27491 0
0.963258 -0.682797 0
1.29858 -3.98551 0
-0.245873 -3.20289 0
0.0122496 -0.081558 0
0.0157378 -0.909818 0
0.867588 -1.46543 0
0.430509 -0.804897 0
0.192583 -0.678545 0
0.785035 -5.42748 0
0.0288362 -0.160284 0
-0.0442737 -0.705458 0
0.0842825 -3.59984 0
0.0206134 -0.120668 0
-0.0979885 -1.3054 0
-0.498871 -1.28952 0
0.577992 -2.6515 0
1.23601 -1.53999 0
0.22482 -1.10548 0
0.906939 -5.51998 0
-0.948185 -0.945876 0
0.0782889 -0.217029 0
0.0712866 -0.758195 0
0.727472 -1.17784 0
0.619127 -0.579847 0
1.63048 -0.917277 0
-0.093054 -3.24257 0
0.553596 -3.8729 0
-0.323612 -0.495473 0
0.115002 -0.315773 0
0.226299 -0.895388 0
0.0485202 -0.146695 0
1.37995 -1.47204 0
0.181733 -0.547936 0
-0.116717 -0.555624 0
-0.00386259 -0.162424 0
0.00197184 -0.0523255 0
-0.107962 -1.27033 0
-0.528962 -1.7816 0
-0.236309 -1.00116 0
-1.79124 -1.21861 0
-0.000503643 -2.31646 0
-0.121149 -3.30253 0
0.453271 -1.62644 0
-0.0535086 -1.36113 0
-0.534659 -1.53936 0
-1.43583 -1.35126 0
0.287494 -1.72825 0
0.72108 -0.603493 0
-0.255133 -0.900813 0
1.2947 -2.21961 0
-0.213614 -1.02679 0
-0.819901 -2.81075 0
-0.156021 -1.13922 0
1.25251 -3.13392 0
-0.272418 -1.22407 0
-0.243666 -1.01528 0
-0.373418 -0.88454 0
-1.75279 -1.32139 0
0.517796 -1.16042 0
-0.930352 -2.14323 0
1.72674 -2.59771 0
-0.0169664 -0.318678 0
-0.140797 -0.861709 0
-0.0940278 -0.311802 0
-2.00476 -1.53801 0
1.06834 -2.25396 0
0.229085 -1.3536 0
-0.0464275 -0.237163 0
1.44632 -2.34836 0
0.0472894 -0.29516 0
-0.222032 -0.515087 0
0.180377 -1.5774 0
-0.109854 -0.394165 0
-0.190337 -0.455949 0
0.399379 -2.97287 0
-0.0702897 -0.12862 0
-1.58583 -1.81469 0
1.60332 -2.89752 0
0.117076 -1.49051 0
0.124213 -0.686427 0
1.89556 -2.24076 0
-0.0801056 -0.351614 0
-0.910418 -1.52035 0
-0.935392 -1.40028 0
-1.6818 -2.67962 0
-0.490867 -0.823194 0
0.579572 -1.40057 0
2.86048 -1.01644 0
-1.03232 -0.871385 0
-0.346332 -0.774773 0
-0.249322 -0.844005 0
-1.59347 -1.48786 0
-0.929344 -1.39269 0
-0.178418 -1.0056 0
-1.28694 -2.15984 0
0.00726153 -0.0653479 0
-1.16852 -0.714606 0
