# vtk DataFile Version 2.0
Unstructured Grid by M++
ASCII
DATASET UNSTRUCTURED_GRID
POINTS 289 float
  0.562500   1.000000 0
  0.562500   0.625000 0
  0.625000   1.000000 0
  0.562500   0.937500 0
  0.562500   0.562500 0
  0.625000   0.937500 0
  0.562500   0.875000 0
  0.625000   0.750000 0
  0.625000   0.625000 0
  0.562500   0.812500 0
  0.562500   0.750000 0
  0.562500   0.687500 0
  0.625000   0.875000 0
  0.625000   0.812500 0
  0.625000   0.687500 0
  0.687500   0.125000 0
  0.875000   0.062500 0
  0.625000   0.125000 0
  0.625000   0.187500 0
  0.625000   0.250000 0
  0.812500   0.187500 0
  1.000000   0.125000 0
  0.687500   0.187500 0
  0.750000   0.125000 0
  0.937500   0.062500 0
  0.937500   0.125000 0
  0.750000   0.187500 0
  0.812500   0.062500 0
  0.812500   0.125000 0
  0.875000   0.687500 0
  0.187500   0.250000 0
  0.437500   0.250000 0
  0.375000   0.187500 0
  0.812500   0.625000 0
  0.125000   0.187500 0
  0.937500   0.750000 0
  0.250000   0.312500 0
  0.500000   0.312500 0
  0.625000   0.062500 0
  0.437500   0.500000 0
  0.375000   0.125000 0
  0.437500   0.187500 0
  0.437500   0.437500 0
  0.437500   0.375000 0
  0.875000   0.875000 0
  0.187500   0.375000 0
  0.687500   0.562500 0
  0.687500   0.625000 0
  0.000000   0.125000 0
  0.937500   0.625000 0
  0.250000   0.125000 0
  0.375000   0.062500 0
  0.375000   0.000000 0
  0.812500   0.500000 0
  0.125000   0.000000 0
  0.937500   0.937500 0
  0.250000   0.437500 0
  0.687500   0.875000 0
  0.687500   0.937500 0
  0.000000   0.437500 0
  0.500000   0.500000 0
  0.500000   0.437500 0
  0.750000   0.937500 0
  0.750000   1.000000 0
  0.062500   0.500000 0
  1.000000   1.000000 0
  0.312500   0.500000 0
  0.875000   0.562500 0
  0.187500   0.062500 0
  0.437500   0.125000 0
  0.437500   0.062500 0
  0.500000   0.375000 0
  0.937500   0.812500 0
  0.937500   0.875000 0
  0.250000   0.375000 0
  0.687500   0.812500 0
  0.000000   0.375000 0
  0.750000   0.562500 0
  0.062500   0.125000 0
  1.000000   0.562500 0
  1.000000   0.625000 0
  0.312500   0.125000 0
  0.562500   0.125000 0
  0.437500   0.000000 0
  0.875000   0.437500 0
  0.875000   0.500000 0
  0.187500   0.000000 0
  0.937500   0.562500 0
  0.937500   0.500000 0
  0.250000   0.062500 0
  0.687500   0.500000 0
  0.000000   0.062500 0
  0.500000   0.062500 0
  1.000000   0.875000 0
  1.000000   0.937500 0
  0.312500   0.437500 0
  0.750000   0.875000 0
  0.062500   0.437500 0
  0.812500   0.937500 0
  0.125000   0.500000 0
  0.375000   0.500000 0
  0.625000   0.562500 0
  0.625000   0.500000 0
  0.437500   0.312500 0
  0.875000   0.812500 0
  0.875000   0.750000 0
  0.187500   0.312500 0
  0.812500   0.687500 0
  0.812500   0.750000 0
  0.125000   0.250000 0
  0.375000   0.250000 0
  1.000000   0.687500 0
  0.312500   0.187500 0
  0.750000   0.687500 0
  0.750000   0.625000 0
  0.062500   0.187500 0
  0.562500   0.250000 0
  0.562500   0.187500 0
  0.375000   1.000000 0
  0.500000   0.562500 0
  0.500000   0.250000 0
  0.750000   0.250000 0
  0.500000   0.125000 0
  0.500000   0.187500 0
  1.000000   0.187500 0
  0.625000   0.375000 0
  0.875000   0.375000 0
  1.000000   0.437500 0
  0.312500   0.000000 0
  0.562500   0.000000 0
  0.812500   0.000000 0
  0.250000   0.687500 0
  0.000000   0.687500 0
  0.500000   1.000000 0
  0.250000   1.000000 0
  0.000000   1.000000 0
  0.437500   0.687500 0
  0.437500   0.625000 0
  0.187500   0.625000 0
  0.687500   0.750000 0
  0.000000   0.312500 0
  0.000000   0.250000 0
  0.375000   0.375000 0
  0.375000   0.312500 0
  0.812500   0.812500 0
  0.125000   0.312500 0
  0.875000   0.625000 0
  0.187500   0.187500 0
  0.187500   0.125000 0
  0.937500   1.000000 0
  0.250000   0.562500 0
  0.250000   0.500000 0
  0.687500   1.000000 0
  0.000000   0.500000 0
  0.687500   0.687500 0
  0.000000   0.187500 0
  0.937500   0.687500 0
  0.250000   0.250000 0
  0.250000   0.187500 0
  0.187500   0.687500 0
  0.000000   0.750000 0
  0.250000   0.750000 0
  0.125000   0.625000 0
  0.750000   0.750000 0
  0.062500   0.250000 0
  0.875000   0.937500 0
  0.187500   0.500000 0
  0.187500   0.437500 0
  0.812500   0.562500 0
  0.125000   0.125000 0
  0.125000   0.062500 0
  0.375000   0.625000 0
  0.375000   0.687500 0
  1.000000   0.750000 0
  0.312500   0.250000 0
  0.312500   0.312500 0
  0.812500   0.312500 0
  0.562500   0.312500 0
  0.375000   0.750000 0
  0.500000   0.625000 0
  0.250000   0.625000 0
  0.312500   0.687500 0
  0.750000   0.812500 0
  0.062500   0.312500 0
  0.062500   0.375000 0
  1.000000   0.812500 0
  0.312500   0.375000 0
  0.562500   0.375000 0
  0.687500   0.437500 0
  0.000000   0.000000 0
  0.500000   0.000000 0
  0.937500   0.437500 0
  0.250000   0.000000 0
  0.375000   0.437500 0
  0.812500   0.875000 0
  0.125000   0.375000 0
  0.125000   0.437500 0
  0.625000   0.437500 0
  1.000000   0.500000 0
  0.312500   0.062500 0
  0.750000   0.500000 0
  0.062500   0.000000 0
  0.062500   0.062500 0
  0.562500   0.062500 0
  0.062500   0.750000 0
  0.312500   0.750000 0
  0.312500   0.625000 0
  0.312500   0.562500 0
  0.062500   0.562500 0
  0.187500   1.000000 0
  0.437500   0.562500 0
  0.875000   1.000000 0
  0.187500   0.562500 0
  0.500000   0.937500 0
  0.250000   0.937500 0
  0.312500   1.000000 0
  0.125000   0.750000 0
  0.125000   0.687500 0
  1.000000   0.000000 0
  0.000000   0.937500 0
  0.000000   0.875000 0
  0.875000   0.125000 0
  0.875000   0.187500 0
  0.062500   0.812500 0
  0.312500   0.812500 0
  0.000000   0.812500 0
  0.000000   0.625000 0
  0.000000   0.562500 0
  0.062500   1.000000 0
  0.062500   0.937500 0
  0.937500   0.187500 0
  0.937500   0.250000 0
  0.062500   0.687500 0
  0.062500   0.625000 0
  0.125000   1.000000 0
  1.000000   0.250000 0
  1.000000   0.312500 0
  0.062500   0.875000 0
  0.125000   0.812500 0
  0.375000   0.812500 0
  0.125000   0.875000 0
  0.375000   0.937500 0
  0.375000   0.875000 0
  0.187500   0.750000 0
  0.187500   0.812500 0
  0.437500   0.812500 0
  0.187500   0.875000 0
  0.437500   0.875000 0
  0.375000   0.562500 0
  0.812500   1.000000 0
  0.125000   0.562500 0
  0.437500   1.000000 0
  0.437500   0.937500 0
  0.187500   0.937500 0
  0.125000   0.937500 0
  0.500000   0.687500 0
  0.500000   0.750000 0
  0.500000   0.812500 0
  0.250000   0.812500 0
  0.250000   0.875000 0
  0.500000   0.875000 0
  0.437500   0.750000 0
  0.312500   0.875000 0
  0.312500   0.937500 0
  0.687500   0.250000 0
  0.687500   0.312500 0
  0.937500   0.312500 0
  0.875000   0.250000 0
  0.625000   0.000000 0
  0.875000   0.000000 0
  0.687500   0.375000 0
  0.937500   0.375000 0
  0.875000   0.312500 0
  0.625000   0.312500 0
  0.687500   0.000000 0
  0.937500   0.000000 0
  0.750000   0.312500 0
  0.750000   0.375000 0
  1.000000   0.375000 0
  0.812500   0.250000 0
  0.562500   0.437500 0
  0.562500   0.500000 0
  0.687500   0.062500 0
  0.750000   0.437500 0
  0.750000   0.000000 0
  0.750000   0.062500 0
  1.000000   0.062500 0
  0.812500   0.375000 0
  0.812500   0.437500 0
CELLS 256 1280
4 169 170 148 68
4 151 166 56 167
4 195 45 196 167
4 54 170 201 202
4 109 34 30 147
4 40 32 81 112
4 192 89 86 68
4 48 91 78 202
4 99 64 196 97
4 71 43 37 103
4 74 186 56 95
4 109 164 34 115
4 50 81 158 112
4 122 69 92 70
4 195 145 45 106
4 110 143 174 175
4 157 30 158 147
4 40 69 32 41
4 50 158 148 147
4 141 155 164 115
4 122 123 69 41
4 142 186 143 175
4 60 39 61 42
4 40 51 69 70
4 120 31 123 41
4 157 174 36 175
4 50 148 89 68
4 48 78 155 115
4 52 83 51 70
4 151 56 66 95
4 71 61 43 42
4 169 148 34 147
4 100 193 39 42
4 40 81 51 199
4 110 174 32 112
4 109 30 145 106
4 100 66 193 95
4 169 34 78 115
4 190 92 83 70
4 50 89 81 199
4 54 86 170 68
4 74 56 45 167
4 142 143 43 103
4 153 59 64 97
4 99 196 166 167
4 169 78 170 202
4 142 193 186 95
4 192 128 89 199
4 74 45 36 106
4 110 31 143 103
4 76 184 59 97
4 142 43 193 42
4 52 51 128 199
4 189 201 91 202
4 120 37 31 103
4 74 36 186 175
4 195 196 184 97
4 141 164 140 183
4 157 158 174 112
4 109 145 164 183
4 195 184 145 183
4 110 32 31 41
4 157 36 30 106
4 76 140 184 183
4 171 172 206 181
4 178 172 261 136
4 256 261 255 136
4 256 257 261 245
4 180 150 206 207
4 60 119 39 210
4 118 215 241 263
4 178 205 172 181
4 216 243 238 244
4 162 217 233 232
4 180 206 131 181
4 179 137 119 210
4 216 204 217 232
4 220 237 219 229
4 216 217 243 159
4 259 258 262 224
4 240 254 237 229
4 153 64 227 208
4 161 205 258 224
4 240 237 238 223
4 226 227 233 208
4 234 228 254 229
4 171 248 137 210
4 160 132 204 232
4 180 131 138 159
4 133 251 213 252
4 171 206 248 207
4 162 138 217 159
4 161 258 243 244
4 220 225 237 223
4 151 150 166 212
4 260 247 257 245
4 259 262 214 263
4 151 66 150 207
4 234 254 209 253
4 162 233 250 208
4 242 241 262 263
4 171 137 172 136
4 161 243 131 159
4 160 204 225 223
4 161 131 205 181
4 179 255 137 136
4 216 238 204 223
4 100 39 248 210
4 260 213 247 252
4 226 233 132 232
4 134 214 215 263
4 180 138 150 212
4 178 261 239 245
4 259 246 258 244
4 178 239 205 224
4 240 238 246 244
4 242 262 239 224
4 99 250 64 208
4 240 246 254 253
4 242 239 247 245
4 135 219 228 229
4 99 166 250 212
4 259 214 246 253
4 118 241 251 252
4 100 248 66 207
4 134 209 214 253
4 162 250 138 212
4 242 247 241 252
4 71 187 61 280
4 102 281 197 280
4 122 92 82 203
4 17 18 82 117
4 122 82 123 117
4 19 264 273 265
4 267 279 222 20
4 125 273 270 265
4 267 272 279 176
4 19 116 18 117
4 21 25 286 24
4 23 28 26 20
4 23 285 28 27
4 218 286 275 24
4 85 53 84 288
4 235 236 231 266
4 221 222 28 20
4 267 222 231 230
4 268 38 129 203
4 125 270 197 188
4 126 287 272 176
4 277 270 276 265
4 267 231 272 266
4 125 197 187 280
4 190 129 92 203
4 277 276 287 176
4 19 18 264 22
4 17 82 38 203
4 102 197 90 188
4 126 84 287 288
4 284 130 285 27
4 121 276 264 265
4 71 37 187 177
4 120 123 116 117
4 198 88 127 191
4 221 16 25 24
4 23 26 15 22
4 121 279 276 176
4 235 231 124 230
4 125 187 273 177
4 278 271 236 266
4 277 287 283 288
4 284 285 274 282
4 278 127 271 191
4 269 275 16 24
4 200 283 53 288
4 23 15 285 282
4 121 26 279 20
4 21 124 25 230
4 19 273 116 177
4 200 90 283 188
4 126 271 84 191
4 269 16 130 27
4 17 38 15 282
4 221 25 222 230
4 121 264 26 22
4 120 116 37 177
4 60 61 281 280
4 277 283 270 188
4 126 272 271 266
4 268 274 38 282
4 85 84 88 191
4 17 15 18 22
4 221 28 16 27
4 93 94 73 55
4 85 88 67 87
4 80 49 79 87
4 44 104 73 72
4 146 33 67 168
4 211 165 149 55
4 8 47 14 154
4 105 104 108 144
4 105 108 29 107
4 7 139 13 75
4 44 165 194 98
4 200 53 77 168
4 8 1 101 4
4 2 5 152 58
4 260 6 213 3
4 105 35 104 72
4 96 57 182 75
4 7 14 139 154
4 146 29 33 107
4 7 13 10 9
4 12 13 57 75
4 85 67 53 168
4 44 73 165 55
4 63 152 62 58
4 8 101 47 46
4 96 182 194 144
4 60 281 119 4
4 12 5 6 3
4 173 185 35 72
4 65 149 94 55
4 146 67 49 87
4 114 113 47 154
4 163 108 182 144
4 12 6 13 9
4 173 35 111 156
4 163 182 139 75
4 260 257 6 9
4 105 29 35 156
4 163 139 113 154
4 256 10 257 9
4 146 49 29 156
4 163 113 108 107
4 80 111 49 156
4 102 101 281 4
4 12 57 5 58
4 44 194 104 144
4 96 194 62 98
4 2 0 5 3
4 93 73 185 72
4 179 119 1 4
4 200 77 90 46
4 114 33 113 107
4 7 10 14 11
4 96 62 57 58
4 133 213 0 3
4 102 90 101 46
4 256 255 10 11
4 63 62 249 98
4 114 47 77 46
4 179 1 255 11
4 211 249 165 98
4 114 77 33 168
4 198 79 88 87
4 8 14 1 11
CELL_TYPES 256
8
8
8
8
8
8
8
8
8
8
8
8
8
8
8
8
8
8
8
8
8
8
8
8
8
8
8
8
8
8
8
8
8
8
8
8
8
8
8
8
8
8
8
8
8
8
8
8
8
8
8
8
8
8
8
8
8
8
8
8
8
8
8
8
8
8
8
8
8
8
8
8
8
8
8
8
8
8
8
8
8
8
8
8
8
8
8
8
8
8
8
8
8
8
8
8
8
8
8
8
8
8
8
8
8
8
8
8
8
8
8
8
8
8
8
8
8
8
8
8
8
8
8
8
8
8
8
8
8
8
8
8
8
8
8
8
8
8
8
8
8
8
8
8
8
8
8
8
8
8
8
8
8
8
8
8
8
8
8
8
8
8
8
8
8
8
8
8
8
8
8
8
8
8
8
8
8
8
8
8
8
8
8
8
8
8
8
8
8
8
8
8
8
8
8
8
8
8
8
8
8
8
8
8
8
8
8
8
8
8
8
8
8
8
8
8
8
8
8
8
8
8
8
8
8
8
8
8
8
8
8
8
8
8
8
8
8
8
8
8
8
8
8
8
8
8
8
8
8
8
8
8
8
8
8
8
CELL_DATA 256
VECTORS vector_value float
-0.101302 -1.31395 0
-1.47512 -1.15889 0
-0.780725 -2.18097 0
0.787855 -2.99384 0
-0.615718 -1.36362 0
0.10009 -0.522032 0
-0.0466753 -0.603045 0
0.559522 -5.24951 0
-0.307876 -3.04712 0
0.024217 -0.06818 0
-0.729592 -1.12761 0
-0.723419 -2.06657 0
0.0372725 -0.875022 0
0.0394805 -0.123144 0
-0.239153 -1.75145 0
0.0164199 -0.53602 0
-0.387565 -1.40047 0
0.105947 -0.150459 0
-0.178967 -0.92848 0
-0.444037 -4.90715 0
0.0532023 -0.0703322 0
-0.219905 -0.558373 0
-0.194206 -0.47585 0
0.0697281 -0.19345 0
0.0491371 -0.0423057 0
-0.0825427 -1.34718 0
-0.0717472 -0.577816 0
-0.163769 -5.64971 0
0.0103854 -0.172775 0
-1.77522 -1.35138 0
-0.0234849 -0.16755 0
-0.389573 -1.25185 0
-0.782593 -0.779459 0
0.0612633 -0.475541 0
0.109849 -0.537369 0
-0.290459 -1.40386 0
-1.32173 -1.25629 0
-0.375354 -1.98668 0
0.00440201 -0.165913 0
0.0299089 -0.830239 0
0.469606 -2.25805 0
-0.803087 -1.50593 0
-0.0578574 -0.149881 0
-0.0316014 -1.70616 0
-0.914298 -1.88323 0
0.534238 -2.6474 0
-0.58722 -0.881271 0
0.00377381 -0.674465 0
-0.0931521 -1.5187 0
0.0282576 -0.0803644 0
-0.179763 -1.74143 0
-0.227543 -0.326384 0
0.0411184 -0.550191 0
0.27801 -4.0029 0
0.0428464 -0.0393159 0
-0.274058 -1.40964 0
-0.590231 -3.70172 0
-0.577834 -3.87742 0
-0.0157281 -1.07456 0
-0.638057 -2.61137 0
-0.983055 -3.76531 0
0.0670544 -0.0829718 0
-0.21495 -1.62923 0
-0.578873 -2.35819 0
-0.47152 -0.645394 0
-0.422267 -1.28542 0
-0.925016 -2.24327 0
-0.212498 -1.48273 0
-0.549814 -0.604439 0
-0.751247 -1.39389 0
-0.13623 -0.705879 0
-0.363525 -0.651057 0
0.00198061 -0.404526 0
-0.0877494 -1.07416 0
-0.426222 -0.559838 0
-0.907354 -1.9859 0
0.0253413 -0.450173 0
-0.282849 -1.77319 0
-0.217993 -0.631186 0
0.249922 -0.872573 0
-0.416839 -0.80458 0
0.131986 -1.64688 0
0.0763729 -1.0822 0
-0.141489 -0.44087 0
0.0535763 -2.03791 0
-0.499816 -0.929552 0
-1.48378 -1.96037 0
0.0707398 -2.33055 0
-0.69528 -0.667464 0
0.0805694 -1.03912 0
-0.99366 -1.03646 0
-0.770298 -1.17376 0
0.074936 -0.687831 0
-0.182804 -2.30078 0
-0.92947 -0.729935 0
-0.0430428 -1.14865 0
0.119271 -0.62336 0
-1.3733 -1.01537 0
-0.493182 -1.26114 0
-0.318593 -1.7249 0
0.192147 -0.626518 0
-0.838035 -1.57496 0
-0.642094 -0.823924 0
-0.00134488 -2.38771 0
-0.560569 -0.848213 0
-1.06248 -2.62185 0
-0.0183864 -0.386687 0
-1.39798 -1.28843 0
-0.0120169 -0.98799 0
0.114398 -2.02718 0
-0.423917 -0.873562 0
-0.444841 -0.504707 0
-0.015571 -1.24931 0
0.204978 -0.888539 0
0.00470241 -0.632136 0
0.0236303 -0.548001 0
0.143705 -0.556913 0
-0.115075 -2.69909 0
-0.0290738 -0.893059 0
0.117204 -1.27676 0
-0.220471 -1.12021 0
-0.660652 -1.22372 0
0.185264 -1.1086 0
0.0487361 -0.869913 0
-1.87604 -1.61608 0
-0.54632 -1.15191 0
-0.540284 -1.17647 0
0.111173 -1.10061 0
0.08133 -0.257559 0
0.386973 -1.03748 0
-0.0282745 -0.225079 0
0.0812416 -1.03984 0
0.0243233 -0.14627 0
-0.118052 -1.23095 0
-0.0278865 -0.439113 0
0.100436 -1.05394 0
0.0337779 -0.386686 0
0.0246954 -1.01215 0
-0.0581971 -0.207348 0
0.0392593 -0.416658 0
0.198646 -0.527155 0
-0.0295294 -0.122436 0
8.21413e-05 -0.0745739 0
-0.0164717 -0.494818 0
-0.0345044 -0.46363 0
-0.0494999 -0.314396 0
0.0193093 -0.591344 0
0.284737 -0.951569 0
0.0928389 -0.254957 0
0.053506 -0.767516 0
-0.0252852 -0.296543 0
0.235959 -1.00706 0
-0.0240725 -0.27289 0
0.14014 -0.504609 0
-0.0879886 -1.42062 0
0.0489147 -0.781081 0
0.500952 -1.1267 0
0.0333399 -0.181346 0
0.21462 -0.60903 0
-0.129962 -0.62445 0
0.0583102 -0.220238 0
0.0638582 -0.169435 0
-0.0224692 -0.616482 0
-0.11879 -0.403222 0
0.142295 -0.414683 0
0.0202581 -0.350896 0
-0.0269922 -0.440615 0
0.102141 -0.832816 0
-0.0195078 -0.500975 0
0.242313 -0.377225 0
0.168884 -0.556639 0
-0.0274325 -0.557239 0
-0.0652298 -0.404565 0
0.048998 -0.136616 0
0.346393 -0.616624 0
0.00170665 -0.327754 0
-0.0610988 -0.364181 0
0.0312986 -0.894389 0
0.255088 -0.641406 0
-0.0408778 -0.183741 0
0.0697744 -0.944247 0
0.242226 -1.19096 0
-0.073066 -0.331326 0
-0.0421252 -0.40089 0
0.0676194 -0.196512 0
0.183974 -0.537471 0
0.382033 -0.851399 0
0.00325526 -0.285228 0
0.109499 -1.07767 0
-0.0337939 -0.170891 0
0.213212 -1.38884 0
0.0185693 -0.637481 0
0.0910383 -1.12175 0
-0.0083973 -0.158301 0
0.00604623 -0.644384 0
-0.616355 -0.989218 0
-0.0211424 -0.0542907 0
0.00211258 -1.04494 0
-0.458187 -0.938994 0
-0.697787 -0.444408 0
-0.159205 -0.163563 0
-1.3159 -1.42224 0
0.0032065 -0.703602 0
0.00714029 -0.0943733 0
0.0123005 -1.09647 0
0.44444 -1.15655 0
-0.0135468 -0.6637 0
-0.301232 -0.52612 0
-0.85156 -1.36768 0
-1.35426 -1.33205 0
-0.0546296 -0.0830087 0
-1.38083 -1.50909 0
-0.676482 -1.40291 0
-0.00509098 -0.0474648 0
0.245995 -1.2717 0
0.0565461 -1.36572 0
0.0124205 -0.762949 0
-0.766048 -0.549088 0
0.107577 -0.990779 0
-0.170272 -0.868253 0
-0.048685 -0.769257 0
-0.021101 -0.95644 0
-0.0017333 -0.164822 0
-0.237279 -0.370201 0
-0.919627 -0.5191 0
-0.481461 -1.16633 0
-0.0434866 -0.70279 0
-1.14036 -1.04343 0
-0.242821 -0.853587 0
-0.0817872 -0.212807 0
-0.792394 -0.584976 0
-0.831225 -1.45324 0
-0.0214689 -0.211927 0
-0.4691 -0.337746 0
-0.000119581 -0.62516 0
0.3993 -1.1863 0
-0.433569 -1.46371 0
-0.851555 -0.580661 0
-0.329516 -0.708365 0
0.485851 -0.771283 0
-0.160719 -1.05743 0
-0.316443 -1.83222 0
0.0801403 -0.433767 0
-0.0810193 -0.0984379 0
-1.62292 -1.3534 0
-0.393959 -1.28102 0
0.218035 -0.772759 0
0.230522 -0.832 0
-1.57727 -2.04888 0
0.00180173 -0.983973 0
-0.0105065 -0.325279 0
-0.833011 -2.18524 0
0.110966 -0.997045 0
-0.0380398 -0.0884392 0
-0.00497804 -0.643616 0
-0.659016 -1.14243 0
