# vtk DataFile Version 2.0
Unstructured Grid by M++
ASCII
DATASET UNSTRUCTURED_GRID
POINTS 81 float
  1.000000   0.625000 0
  0.750000   0.375000 0
  1.000000   0.000000 0
  0.875000   0.875000 0
  0.750000   0.125000 0
  1.000000   1.000000 0
  0.875000   0.250000 0
  0.625000   0.875000 0
  1.000000   0.750000 0
  0.875000   0.000000 0
  1.000000   0.250000 0
  0.625000   0.375000 0
  0.875000   0.500000 0
  0.625000   0.625000 0
  1.000000   0.500000 0
  0.750000   0.500000 0
  0.750000   1.000000 0
  1.000000   0.125000 0
  0.625000   0.250000 0
  0.750000   0.750000 0
  0.625000   0.000000 0
  0.125000   0.375000 0
  0.000000   0.500000 0
  0.125000   0.625000 0
  0.625000   1.000000 0
  1.000000   0.875000 0
  0.875000   0.125000 0
  0.500000   0.250000 0
  0.625000   0.500000 0
  0.250000   0.625000 0
  0.000000   0.625000 0
  0.375000   0.500000 0
  0.375000   0.000000 0
  0.000000   0.125000 0
  0.125000   0.875000 0
  0.875000   1.000000 0
  0.750000   0.250000 0
  0.375000   0.375000 0
  0.250000   0.375000 0
  0.625000   0.750000 0
  0.125000   0.125000 0
  0.500000   0.000000 0
  0.250000   0.875000 0
  0.125000   0.500000 0
  0.500000   0.375000 0
  0.125000   0.000000 0
  0.250000   0.750000 0
  0.250000   0.500000 0
  0.000000   0.875000 0
  0.875000   0.625000 0
  0.500000   0.750000 0
  0.750000   0.625000 0
  0.250000   0.000000 0
  0.375000   0.750000 0
  0.750000   0.875000 0
  0.625000   0.125000 0
  0.250000   0.250000 0
  0.375000   1.000000 0
  0.375000   0.250000 0
  0.000000   0.375000 0
  0.500000   1.000000 0
  0.875000   0.750000 0
  0.750000   0.000000 0
  0.375000   0.125000 0
  0.500000   0.875000 0
  0.000000   0.000000 0
  0.125000   0.750000 0
  0.500000   0.625000 0
  0.125000   0.250000 0
  0.500000   0.125000 0
  0.250000   1.000000 0
  0.250000   0.125000 0
  0.000000   1.000000 0
  0.375000   0.875000 0
  0.000000   0.750000 0
  0.375000   0.625000 0
  0.000000   0.250000 0
  0.125000   1.000000 0
  1.000000   0.375000 0
  0.500000   0.500000 0
  0.875000   0.375000 0
CELLS 64 320
4 56 71 58 63
4 27 58 69 63
4 41 69 32 63
4 76 33 68 40
4 27 44 58 37
4 79 31 44 37
4 56 38 68 21
4 56 58 38 37
4 52 32 71 63
4 47 38 31 37
4 76 68 59 21
4 22 59 43 21
4 65 45 33 40
4 47 43 38 21
4 52 71 45 40
4 56 68 71 40
4 74 30 66 23
4 46 66 29 23
4 22 43 30 23
4 72 48 77 34
4 46 53 42 73
4 50 64 53 73
4 70 42 57 73
4 74 66 48 34
4 46 42 66 34
4 47 29 43 23
4 70 77 42 34
4 60 57 64 73
4 79 67 31 75
4 47 31 29 75
4 50 53 67 75
4 46 29 53 75
4 10 78 6 80
4 36 6 1 80
4 15 1 12 80
4 36 4 6 26
4 14 12 78 80
4 2 17 9 26
4 36 18 4 55
4 15 28 1 11
4 62 4 20 55
4 10 6 17 26
4 27 18 44 11
4 62 9 4 26
4 27 69 18 55
4 36 1 18 11
4 41 20 69 55
4 79 44 28 11
4 16 24 54 7
4 19 54 39 7
4 50 39 64 7
4 8 25 61 3
4 60 64 24 7
4 79 28 67 13
4 19 51 61 49
4 8 61 0 49
4 15 51 28 13
4 19 39 51 13
4 50 67 39 13
4 19 61 54 3
4 14 0 12 49
4 5 35 25 3
4 15 12 51 49
4 16 54 35 3
CELL_TYPES 64
8
8
8
8
8
8
8
8
8
8
8
8
8
8
8
8
8
8
8
8
8
8
8
8
8
8
8
8
8
8
8
8
8
8
8
8
8
8
8
8
8
8
8
8
8
8
8
8
8
8
8
8
8
8
8
8
8
8
8
8
8
8
8
8
CELL_DATA 64
VECTORS vector_value float
-1.61101 -3.72481 0
-1.52003 -2.03761 0
-0.321168 -1.26311 0
-0.0281275 -0.137111 0
-1.57021 -3.40675 0
-0.581526 -2.2535 0
-0.0771763 -0.179907 0
-0.334324 -1.25121 0
-0.216931 -4.81377 0
-0.0281272 -0.954321 0
0.00752832 -0.0857152 0
-0.00390352 -0.100398 0
0.000940764 -0.140512 0
0.0173045 -0.0362255 0
0.000827778 -0.25054 0
-0.0726681 -0.236513 0
0.169133 -0.351163 0
0.788367 -1.07639 0
-0.00266304 -0.086194 0
0.126503 -0.785043 0
0.622149 -0.195935 0
0.45597 -0.229349 0
0.106563 -0.373303 0
0.16049 -0.848243 0
0.530948 -1.19557 0
0.116314 -0.247382 0
-0.0695614 -1.55264 0
0.883411 -0.519807 0
0.0270453 -1.06071 0
0.642975 -0.856892 0
0.236604 -0.5911 0
0.48461 -0.268732 0
-0.258752 -0.733816 0
-0.581254 -0.627985 0
-0.263816 -0.418705 0
-0.0996309 -0.60161 0
-0.200653 -1.28666 0
0.016715 -0.431198 0
-0.268978 -0.217751 0
-0.710816 -0.817065 0
-0.121541 -0.219996 0
0.00996038 -0.376367 0
-1.19382 -1.55883 0
-0.028103 -0.329897 0
-0.387183 -0.668232 0
-0.324541 -0.15579 0
-0.166351 -0.550976 0
-0.850702 -2.13313 0
-0.377246 -0.681 0
0.281047 -1.20873 0
0.59507 -2.77649 0
0.00847703 -0.792708 0
0.301543 -2.23957 0
-0.643129 -2.67958 0
0.26178 -0.773439 0
0.166094 -1.10599 0
-0.284298 -1.12987 0
0.15721 -1.31257 0
0.0734289 -2.52062 0
0.0146405 -0.752971 0
0.0673787 -1.25394 0
-0.0908355 -0.865242 0
0.0231607 -0.685429 0
-0.235314 -0.983396 0
