# vtk DataFile Version 2.0
Unstructured Grid by M++
ASCII
DATASET UNSTRUCTURED_GRID
POINTS 289 float
  0.562500   1.000000 0
  0.562500   0.625000 0
  0.625000   1.000000 0
  0.562500   0.937500 0
  0.562500   0.562500 0
  0.625000   0.937500 0
  0.562500   0.875000 0
  0.625000   0.750000 0
  0.625000   0.625000 0
  0.562500   0.812500 0
  0.562500   0.750000 0
  0.562500   0.687500 0
  0.625000   0.875000 0
  0.625000   0.812500 0
  0.625000   0.687500 0
  0.687500   0.125000 0
  0.875000   0.062500 0
  0.625000   0.125000 0
  0.625000   0.187500 0
  0.625000   0.250000 0
  0.812500   0.187500 0
  1.000000   0.125000 0
  0.687500   0.187500 0
  0.750000   0.125000 0
  0.937500   0.062500 0
  0.937500   0.125000 0
  0.750000   0.187500 0
  0.812500   0.062500 0
  0.812500   0.125000 0
  0.875000   0.687500 0
  0.187500   0.250000 0
  0.437500   0.250000 0
  0.375000   0.187500 0
  0.812500   0.625000 0
  0.125000   0.187500 0
  0.937500   0.750000 0
  0.250000   0.312500 0
  0.500000   0.312500 0
  0.625000   0.062500 0
  0.437500   0.500000 0
  0.375000   0.125000 0
  0.437500   0.187500 0
  0.437500   0.437500 0
  0.437500   0.375000 0
  0.875000   0.875000 0
  0.187500   0.375000 0
  0.687500   0.562500 0
  0.687500   0.625000 0
  0.000000   0.125000 0
  0.937500   0.625000 0
  0.250000   0.125000 0
  0.375000   0.062500 0
  0.375000   0.000000 0
  0.812500   0.500000 0
  0.125000   0.000000 0
  0.937500   0.937500 0
  0.250000   0.437500 0
  0.687500   0.875000 0
  0.687500   0.937500 0
  0.000000   0.437500 0
  0.500000   0.500000 0
  0.500000   0.437500 0
  0.750000   0.937500 0
  0.750000   1.000000 0
  0.062500   0.500000 0
  1.000000   1.000000 0
  0.312500   0.500000 0
  0.875000   0.562500 0
  0.187500   0.062500 0
  0.437500   0.125000 0
  0.437500   0.062500 0
  0.500000   0.375000 0
  0.937500   0.812500 0
  0.937500   0.875000 0
  0.250000   0.375000 0
  0.687500   0.812500 0
  0.000000   0.375000 0
  0.750000   0.562500 0
  0.062500   0.125000 0
  1.000000   0.562500 0
  1.000000   0.625000 0
  0.312500   0.125000 0
  0.562500   0.125000 0
  0.437500   0.000000 0
  0.875000   0.437500 0
  0.875000   0.500000 0
  0.187500   0.000000 0
  0.937500   0.562500 0
  0.937500   0.500000 0
  0.250000   0.062500 0
  0.687500   0.500000 0
  0.000000   0.062500 0
  0.500000   0.062500 0
  1.000000   0.875000 0
  1.000000   0.937500 0
  0.312500   0.437500 0
  0.750000   0.875000 0
  0.062500   0.437500 0
  0.812500   0.937500 0
  0.125000   0.500000 0
  0.375000   0.500000 0
  0.625000   0.562500 0
  0.625000   0.500000 0
  0.437500   0.312500 0
  0.875000   0.812500 0
  0.875000   0.750000 0
  0.187500   0.312500 0
  0.812500   0.687500 0
  0.812500   0.750000 0
  0.125000   0.250000 0
  0.375000   0.250000 0
  1.000000   0.687500 0
  0.312500   0.187500 0
  0.750000   0.687500 0
  0.750000   0.625000 0
  0.062500   0.187500 0
  0.562500   0.250000 0
  0.562500   0.187500 0
  0.375000   1.000000 0
  0.500000   0.562500 0
  0.500000   0.250000 0
  0.750000   0.250000 0
  0.500000   0.125000 0
  0.500000   0.187500 0
  1.000000   0.187500 0
  0.625000   0.375000 0
  0.875000   0.375000 0
  1.000000   0.437500 0
  0.312500   0.000000 0
  0.562500   0.000000 0
  0.812500   0.000000 0
  0.250000   0.687500 0
  0.000000   0.687500 0
  0.500000   1.000000 0
  0.250000   1.000000 0
  0.000000   1.000000 0
  0.437500   0.687500 0
  0.437500   0.625000 0
  0.187500   0.625000 0
  0.687500   0.750000 0
  0.000000   0.312500 0
  0.000000   0.250000 0
  0.375000   0.375000 0
  0.375000   0.312500 0
  0.812500   0.812500 0
  0.125000   0.312500 0
  0.875000   0.625000 0
  0.187500   0.187500 0
  0.187500   0.125000 0
  0.937500   1.000000 0
  0.250000   0.562500 0
  0.250000   0.500000 0
  0.687500   1.000000 0
  0.000000   0.500000 0
  0.687500   0.687500 0
  0.000000   0.187500 0
  0.937500   0.687500 0
  0.250000   0.250000 0
  0.250000   0.187500 0
  0.187500   0.687500 0
  0.000000   0.750000 0
  0.250000   0.750000 0
  0.125000   0.625000 0
  0.750000   0.750000 0
  0.062500   0.250000 0
  0.875000   0.937500 0
  0.187500   0.500000 0
  0.187500   0.437500 0
  0.812500   0.562500 0
  0.125000   0.125000 0
  0.125000   0.062500 0
  0.375000   0.625000 0
  0.375000   0.687500 0
  1.000000   0.750000 0
  0.312500   0.250000 0
  0.312500   0.312500 0
  0.812500   0.312500 0
  0.562500   0.312500 0
  0.375000   0.750000 0
  0.500000   0.625000 0
  0.250000   0.625000 0
  0.312500   0.687500 0
  0.750000   0.812500 0
  0.062500   0.312500 0
  0.062500   0.375000 0
  1.000000   0.812500 0
  0.312500   0.375000 0
  0.562500   0.375000 0
  0.687500   0.437500 0
  0.000000   0.000000 0
  0.500000   0.000000 0
  0.937500   0.437500 0
  0.250000   0.000000 0
  0.375000   0.437500 0
  0.812500   0.875000 0
  0.125000   0.375000 0
  0.125000   0.437500 0
  0.625000   0.437500 0
  1.000000   0.500000 0
  0.312500   0.062500 0
  0.750000   0.500000 0
  0.062500   0.000000 0
  0.062500   0.062500 0
  0.562500   0.062500 0
  0.062500   0.750000 0
  0.312500   0.750000 0
  0.312500   0.625000 0
  0.312500   0.562500 0
  0.062500   0.562500 0
  0.187500   1.000000 0
  0.437500   0.562500 0
  0.875000   1.000000 0
  0.187500   0.562500 0
  0.500000   0.937500 0
  0.250000   0.937500 0
  0.312500   1.000000 0
  0.125000   0.750000 0
  0.125000   0.687500 0
  1.000000   0.000000 0
  0.000000   0.937500 0
  0.000000   0.875000 0
  0.875000   0.125000 0
  0.875000   0.187500 0
  0.062500   0.812500 0
  0.312500   0.812500 0
  0.000000   0.812500 0
  0.000000   0.625000 0
  0.000000   0.562500 0
  0.062500   1.000000 0
  0.062500   0.937500 0
  0.937500   0.187500 0
  0.937500   0.250000 0
  0.062500   0.687500 0
  0.062500   0.625000 0
  0.125000   1.000000 0
  1.000000   0.250000 0
  1.000000   0.312500 0
  0.062500   0.875000 0
  0.125000   0.812500 0
  0.375000   0.812500 0
  0.125000   0.875000 0
  0.375000   0.937500 0
  0.375000   0.875000 0
  0.187500   0.750000 0
  0.187500   0.812500 0
  0.437500   0.812500 0
  0.187500   0.875000 0
  0.437500   0.875000 0
  0.375000   0.562500 0
  0.812500   1.000000 0
  0.125000   0.562500 0
  0.437500   1.000000 0
  0.437500   0.937500 0
  0.187500   0.937500 0
  0.125000   0.937500 0
  0.500000   0.687500 0
  0.500000   0.750000 0
  0.500000   0.812500 0
  0.250000   0.812500 0
  0.250000   0.875000 0
  0.500000   0.875000 0
  0.437500   0.750000 0
  0.312500   0.875000 0
  0.312500   0.937500 0
  0.687500   0.250000 0
  0.687500   0.312500 0
  0.937500   0.312500 0
  0.875000   0.250000 0
  0.625000   0.000000 0
  0.875000   0.000000 0
  0.687500   0.375000 0
  0.937500   0.375000 0
  0.875000   0.312500 0
  0.625000   0.312500 0
  0.687500   0.000000 0
  0.937500   0.000000 0
  0.750000   0.312500 0
  0.750000   0.375000 0
  1.000000   0.375000 0
  0.812500   0.250000 0
  0.562500   0.437500 0
  0.562500   0.500000 0
  0.687500   0.062500 0
  0.750000   0.437500 0
  0.750000   0.000000 0
  0.750000   0.062500 0
  1.000000   0.062500 0
  0.812500   0.375000 0
  0.812500   0.437500 0
CELLS 256 1280
4 169 170 148 68
4 151 166 56 167
4 195 45 196 167
4 54 170 201 202
4 109 34 30 147
4 40 32 81 112
4 192 89 86 68
4 48 91 78 202
4 99 64 196 97
4 71 43 37 103
4 74 186 56 95
4 109 164 34 115
4 50 81 158 112
4 122 69 92 70
4 195 145 45 106
4 110 143 174 175
4 157 30 158 147
4 40 69 32 41
4 50 158 148 147
4 141 155 164 115
4 122 123 69 41
4 142 186 143 175
4 60 39 61 42
4 40 51 69 70
4 120 31 123 41
4 157 174 36 175
4 50 148 89 68
4 48 78 155 115
4 52 83 51 70
4 151 56 66 95
4 71 61 43 42
4 169 148 34 147
4 100 193 39 42
4 40 81 51 199
4 110 174 32 112
4 109 30 145 106
4 100 66 193 95
4 169 34 78 115
4 190 92 83 70
4 50 89 81 199
4 54 86 170 68
4 74 56 45 167
4 142 143 43 103
4 153 59 64 97
4 99 196 166 167
4 169 78 170 202
4 142 193 186 95
4 192 128 89 199
4 74 45 36 106
4 110 31 143 103
4 76 184 59 97
4 142 43 193 42
4 52 51 128 199
4 189 201 91 202
4 120 37 31 103
4 74 36 186 175
4 195 196 184 97
4 141 164 140 183
4 157 158 174 112
4 109 145 164 183
4 195 184 145 183
4 110 32 31 41
4 157 36 30 106
4 76 140 184 183
4 171 172 206 181
4 178 172 261 136
4 256 261 255 136
4 256 257 261 245
4 180 150 206 207
4 60 119 39 210
4 118 215 241 263
4 178 205 172 181
4 216 243 238 244
4 162 217 233 232
4 180 206 131 181
4 179 137 119 210
4 216 204 217 232
4 220 237 219 229
4 216 217 243 159
4 259 258 262 224
4 240 254 237 229
4 153 64 227 208
4 161 205 258 224
4 240 237 238 223
4 226 227 233 208
4 234 228 254 229
4 171 248 137 210
4 160 132 204 232
4 180 131 138 159
4 133 251 213 252
4 171 206 248 207
4 162 138 217 159
4 161 258 243 244
4 220 225 237 223
4 151 150 166 212
4 260 247 257 245
4 259 262 214 263
4 151 66 150 207
4 234 254 209 253
4 162 233 250 208
4 242 241 262 263
4 171 137 172 136
4 161 243 131 159
4 160 204 225 223
4 161 131 205 181
4 179 255 137 136
4 216 238 204 223
4 100 39 248 210
4 260 213 247 252
4 226 233 132 232
4 134 214 215 263
4 180 138 150 212
4 178 261 239 245
4 259 246 258 244
4 178 239 205 224
4 240 238 246 244
4 242 262 239 224
4 99 250 64 208
4 240 246 254 253
4 242 239 247 245
4 135 219 228 229
4 99 166 250 212
4 259 214 246 253
4 118 241 251 252
4 100 248 66 207
4 134 209 214 253
4 162 250 138 212
4 242 247 241 252
4 71 187 61 280
4 102 281 197 280
4 122 92 82 203
4 17 18 82 117
4 122 82 123 117
4 19 264 273 265
4 267 279 222 20
4 125 273 270 265
4 267 272 279 176
4 19 116 18 117
4 21 25 286 24
4 23 28 26 20
4 23 285 28 27
4 218 286 275 24
4 85 53 84 288
4 235 236 231 266
4 221 222 28 20
4 267 222 231 230
4 268 38 129 203
4 125 270 197 188
4 126 287 272 176
4 277 270 276 265
4 267 231 272 266
4 125 197 187 280
4 190 129 92 203
4 277 276 287 176
4 19 18 264 22
4 17 82 38 203
4 102 197 90 188
4 126 84 287 288
4 284 130 285 27
4 121 276 264 265
4 71 37 187 177
4 120 123 116 117
4 198 88 127 191
4 221 16 25 24
4 23 26 15 22
4 121 279 276 176
4 235 231 124 230
4 125 187 273 177
4 278 271 236 266
4 277 287 283 288
4 284 285 274 282
4 278 127 271 191
4 269 275 16 24
4 200 283 53 288
4 23 15 285 282
4 121 26 279 20
4 21 124 25 230
4 19 273 116 177
4 200 90 283 188
4 126 271 84 191
4 269 16 130 27
4 17 38 15 282
4 221 25 222 230
4 121 264 26 22
4 120 116 37 177
4 60 61 281 280
4 277 283 270 188
4 126 272 271 266
4 268 274 38 282
4 85 84 88 191
4 17 15 18 22
4 221 28 16 27
4 93 94 73 55
4 85 88 67 87
4 80 49 79 87
4 44 104 73 72
4 146 33 67 168
4 211 165 149 55
4 8 47 14 154
4 105 104 108 144
4 105 108 29 107
4 7 139 13 75
4 44 165 194 98
4 200 53 77 168
4 8 1 101 4
4 2 5 152 58
4 260 6 213 3
4 105 35 104 72
4 96 57 182 75
4 7 14 139 154
4 146 29 33 107
4 7 13 10 9
4 12 13 57 75
4 85 67 53 168
4 44 73 165 55
4 63 152 62 58
4 8 101 47 46
4 96 182 194 144
4 60 281 119 4
4 12 5 6 3
4 173 185 35 72
4 65 149 94 55
4 146 67 49 87
4 114 113 47 154
4 163 108 182 144
4 12 6 13 9
4 173 35 111 156
4 163 182 139 75
4 260 257 6 9
4 105 29 35 156
4 163 139 113 154
4 256 10 257 9
4 146 49 29 156
4 163 113 108 107
4 80 111 49 156
4 102 101 281 4
4 12 57 5 58
4 44 194 104 144
4 96 194 62 98
4 2 0 5 3
4 93 73 185 72
4 179 119 1 4
4 200 77 90 46
4 114 33 113 107
4 7 10 14 11
4 96 62 57 58
4 133 213 0 3
4 102 90 101 46
4 256 255 10 11
4 63 62 249 98
4 114 47 77 46
4 179 1 255 11
4 211 249 165 98
4 114 77 33 168
4 198 79 88 87
4 8 14 1 11
CELL_TYPES 256
8
8
8
8
8
8
8
8
8
8
8
8
8
8
8
8
8
8
8
8
8
8
8
8
8
8
8
8
8
8
8
8
8
8
8
8
8
8
8
8
8
8
8
8
8
8
8
8
8
8
8
8
8
8
8
8
8
8
8
8
8
8
8
8
8
8
8
8
8
8
8
8
8
8
8
8
8
8
8
8
8
8
8
8
8
8
8
8
8
8
8
8
8
8
8
8
8
8
8
8
8
8
8
8
8
8
8
8
8
8
8
8
8
8
8
8
8
8
8
8
8
8
8
8
8
8
8
8
8
8
8
8
8
8
8
8
8
8
8
8
8
8
8
8
8
8
8
8
8
8
8
8
8
8
8
8
8
8
8
8
8
8
8
8
8
8
8
8
8
8
8
8
8
8
8
8
8
8
8
8
8
8
8
8
8
8
8
8
8
8
8
8
8
8
8
8
8
8
8
8
8
8
8
8
8
8
8
8
8
8
8
8
8
8
8
8
8
8
8
8
8
8
8
8
8
8
8
8
8
8
8
8
8
8
8
8
8
8
8
8
8
8
8
8
8
8
8
8
8
8
8
8
8
8
8
8
CELL_DATA 256
VECTORS vector_value float
-0.564533 -1.70921 0
-0.0576403 -1.07957 0
0.0010598 -0.445196 0
-0.17864 -1.13689 0
-0.417518 -1.31326 0
-1.17428 -1.33098 0
-0.427255 -4.98559 0
-0.375251 -1.08957 0
0.0508359 -0.388858 0
-0.389939 -0.847104 0
-0.220932 -2.96657 0
-0.00240796 -0.334107 0
-1.90444 -4.42539 0
-0.0803503 -0.0943446 0
0.00386654 -0.591076 0
-1.04331 -1.87656 0
-1.03924 -2.54715 0
-0.344139 -0.285631 0
-1.44933 -2.10565 0
0.0170158 -0.430426 0
-0.118233 -0.153854 0
-0.64549 -2.37553 0
-0.034156 -1.08697 0
-0.152051 -0.132262 0
-0.551353 -0.472788 0
-1.37736 -4.03415 0
-1.38548 -3.70844 0
-0.126775 -0.562233 0
-0.0312706 -0.115118 0
-0.382083 -2.31775 0
-0.356467 -1.17175 0
-1.36034 -2.3923 0
-0.185796 -1.30245 0
-0.470985 -0.634047 0
-1.27412 -2.23376 0
0.042337 -0.688317 0
-0.528482 -3.05759 0
-0.497658 -0.561161 0
-0.0126981 -0.0367622 0
-1.51993 -3.25766 0
-0.144628 -1.54386 0
0.00594514 -1.04757 0
-0.600217 -1.49968 0
0.0517399 -0.572708 0
-0.0117666 -0.448658 0
-0.990011 -1.26446 0
-0.315022 -2.7122 0
-0.257065 -2.06693 0
-0.0452971 -0.931341 0
-0.906731 -1.14967 0
0.0043019 -0.46236 0
-0.2121 -1.06033 0
-0.0449508 -0.328339 0
-0.145657 -1.68277 0
-0.658474 -0.792413 0
-0.351272 -3.56169 0
0.0304606 -0.486984 0
0.0035185 -0.476536 0
-0.97643 -3.70442 0
0.0520884 -0.292359 0
0.0272799 -0.407685 0
-0.968091 -0.595031 0
-0.655597 -1.86918 0
-0.00514067 -0.475133 0
-1.14193 -2.79746 0
-1.86021 -2.24689 0
-1.8682 -1.75384 0
-1.52687 -1.80872 0
-0.775177 -1.44436 0
-0.186474 -1.09706 0
3.29126 -0.964895 0
-0.838614 -1.7318 0
0.0155362 -0.126822 0
-0.100114 -0.229708 0
-0.472161 -0.981365 0
-0.63048 -1.46927 0
-0.00866636 -0.120469 0
0.0420334 -0.368234 0
-0.047058 -0.148809 0
0.0595439 -0.42653 0
0.184087 -0.284253 0
-0.0651401 -0.527224 0
-0.0876858 -0.474728 0
0.0636488 -0.146494 0
-0.062934 -0.395531 0
0.897533 -0.816398 0
-1.09877 -2.48366 0
-0.00244471 -0.288309 0
-0.200059 -0.363102 0
2.5585 -1.12824 0
-0.979479 -2.98627 0
-0.166739 -0.190107 0
-0.0144438 -0.229197 0
0.0245137 -0.322098 0
-0.401578 -0.904372 0
-0.39595 -1.63393 0
0.516373 -0.419809 0
-0.813943 -1.8932 0
1.54548 -0.452545 0
-0.192331 -0.337006 0
0.564796 -0.740099 0
-1.31516 -2.45404 0
-0.130028 -0.304891 0
0.00182461 -0.283708 0
-0.306939 -0.695589 0
-1.28005 -1.67389 0
0.00898826 -0.124419 0
-0.584915 -1.72469 0
1.15121 -1.44685 0
-0.0163302 -0.301415 0
2.94409 -0.71233 0
-0.475914 -0.618738 0
-0.733198 -1.20904 0
0.0629222 -0.188755 0
-0.317596 -1.1888 0
0.0645595 -0.105658 0
-0.0838978 -0.843242 0
-0.12608 -0.432481 0
0.402581 -0.182431 0
-0.31836 -0.931726 0
0.289065 -0.684799 0
-0.173485 -0.297688 0
0.464879 -0.22484 0
3.11498 -1.25409 0
-1.0856 -3.29926 0
2.3206 -0.637116 0
-0.305054 -0.260229 0
0.888879 -1.17796 0
-0.250356 -0.735838 0
-0.0970027 -0.700293 0
-0.0131064 -0.0302322 0
-0.00406742 -0.0169564 0
-0.0565961 -0.0994034 0
0.0542343 -0.142528 0
0.0410019 -0.953247 0
0.0833452 -0.451291 0
0.453763 -0.802989 0
-0.0368773 -0.0703873 0
-0.0713931 -0.646094 0
0.000796263 -0.382242 0
0.00433945 -0.322447 0
-0.0490508 -0.460483 0
-0.0703384 -0.94293 0
-0.0863803 -1.29913 0
-0.177217 -1.14481 0
-0.22803 -1.64506 0
-0.0112989 -0.027388 0
-0.0689162 -0.864358 0
0.0845466 -0.767413 0
0.214347 -0.340835 0
0.171508 -1.0704 0
-0.162575 -0.560356 0
-0.00365213 -0.0298452 0
0.236256 -0.490423 0
0.0292415 -0.0862484 0
-0.00417309 -0.0144378 0
-0.224578 -0.867875 0
-0.00873681 -0.662444 0
-0.0186243 -0.410969 0
0.28067 -0.27972 0
-0.312648 -0.554183 0
-0.201594 -0.239076 0
0.0349784 -0.703134 0
-0.12321 -1.01569 0
0.0156278 -0.143785 0
0.46813 -0.452242 0
-0.177324 -0.951264 0
-0.301799 -0.668107 0
0.189665 -1.22575 0
-0.0481132 -0.316898 0
0.00297656 -0.11225 0
0.0682955 -0.854839 0
0.0343217 -1.4311 0
-0.107346 -0.224279 0
-0.000217283 -0.133931 0
0.072622 -0.280451 0
-0.0407 -0.728486 0
-0.123709 -0.268901 0
-0.158756 -0.400083 0
0.108043 -1.21216 0
0.057232 -1.58076 0
-0.0119661 -0.064335 0
-0.347118 -1.60972 0
0.0523918 -0.143319 0
-0.457993 -0.504898 0
-0.0335824 -0.63978 0
0.0797057 -0.440139 0
0.157947 -0.812768 0
-0.00561009 -0.0509511 0
0.0535458 -1.26708 0
0.00694464 -0.057394 0
-0.166956 -1.88283 0
-0.160981 -0.392072 0
-0.215954 -1.35171 0
-0.262777 -1.2441 0
0.0634661 -0.690052 0
-0.0713047 -0.54772 0
-0.527537 -0.692557 0
-0.185882 -0.52053 0
0.649546 -1.36614 0
0.313076 -0.782292 0
-1.44114 -1.45206 0
-0.21725 -0.911485 0
-0.0974016 -0.373918 0
-0.129356 -0.458625 0
0.554326 -1.59692 0
1.07915 -1.77534 0
0.64567 -0.571125 0
0.079988 -1.60851 0
-0.361726 -0.679637 0
0.00629677 -0.471441 0
-2.16475 -1.99821 0
-0.168349 -2.26382 0
-0.123628 -0.842857 0
-0.302276 -0.698411 0
-0.073825 -1.13535 0
-0.144677 -0.651854 0
0.244687 -1.71541 0
-0.0796693 -0.803813 0
0.898278 -2.03421 0
0.328039 -0.669919 0
-0.18116 -0.731351 0
-0.315714 -1.14291 0
-0.174574 -0.830371 0
0.151979 -1.44064 0
-0.334098 -1.88326 0
0.250456 -1.19954 0
-0.489294 -1.14875 0
-0.428958 -1.64965 0
0.572273 -0.848518 0
-0.321054 -0.690335 0
-1.94053 -1.90771 0
-0.065184 -0.942926 0
-0.159941 -1.03199 0
-0.060568 -1.49528 0
-0.0704385 -0.405841 0
0.552164 -1.99832 0
0.179558 -1.32656 0
-0.00385929 -1.79517 0
1.36051 -1.48899 0
0.00284414 -0.264296 0
-0.218138 -0.822437 0
-0.205714 -0.530713 0
-0.0211354 -0.589471 0
-1.00924 -1.4891 0
0.264676 -1.55052 0
2.01697 -1.32751 0
-0.147315 -0.756646 0
-1.66612 -1.988 0
-0.522019 -1.4003 0
-0.127019 -0.638916 0
-0.844961 -1.50989 0
-0.758092 -0.9766 0
-0.0256488 -0.498382 0
-0.0618773 -0.758537 0
-0.251079 -0.649013 0
