# vtk DataFile Version 2.0
Unstructured Grid by M++
ASCII
DATASET UNSTRUCTURED_GRID
POINTS 81 float
  1.000000   0.625000 0
  0.750000   0.375000 0
  1.000000   0.000000 0
  0.875000   0.875000 0
  0.750000   0.125000 0
  1.000000   1.000000 0
  0.875000   0.250000 0
  0.625000   0.875000 0
  1.000000   0.750000 0
  0.875000   0.000000 0
  1.000000   0.250000 0
  0.625000   0.375000 0
  0.875000   0.500000 0
  0.625000   0.625000 0
  1.000000   0.500000 0
  0.750000   0.500000 0
  0.750000   1.000000 0
  1.000000   0.125000 0
  0.625000   0.250000 0
  0.750000   0.750000 0
  0.625000   0.000000 0
  0.125000   0.375000 0
  0.000000   0.500000 0
  0.125000   0.625000 0
  0.625000   1.000000 0
  1.000000   0.875000 0
  0.875000   0.125000 0
  0.500000   0.250000 0
  0.625000   0.500000 0
  0.250000   0.625000 0
  0.000000   0.625000 0
  0.375000   0.500000 0
  0.375000   0.000000 0
  0.000000   0.125000 0
  0.125000   0.875000 0
  0.875000   1.000000 0
  0.750000   0.250000 0
  0.375000   0.375000 0
  0.250000   0.375000 0
  0.625000   0.750000 0
  0.125000   0.125000 0
  0.500000   0.000000 0
  0.250000   0.875000 0
  0.125000   0.500000 0
  0.500000   0.375000 0
  0.125000   0.000000 0
  0.250000   0.750000 0
  0.250000   0.500000 0
  0.000000   0.875000 0
  0.875000   0.625000 0
  0.500000   0.750000 0
  0.750000   0.625000 0
  0.250000   0.000000 0
  0.375000   0.750000 0
  0.750000   0.875000 0
  0.625000   0.125000 0
  0.250000   0.250000 0
  0.375000   1.000000 0
  0.375000   0.250000 0
  0.000000   0.375000 0
  0.500000   1.000000 0
  0.875000   0.750000 0
  0.750000   0.000000 0
  0.375000   0.125000 0
  0.500000   0.875000 0
  0.000000   0.000000 0
  0.125000   0.750000 0
  0.500000   0.625000 0
  0.125000   0.250000 0
  0.500000   0.125000 0
  0.250000   1.000000 0
  0.250000   0.125000 0
  0.000000   1.000000 0
  0.375000   0.875000 0
  0.000000   0.750000 0
  0.375000   0.625000 0
  0.000000   0.250000 0
  0.125000   1.000000 0
  1.000000   0.375000 0
  0.500000   0.500000 0
  0.875000   0.375000 0
CELLS 64 320
4 56 71 58 63
4 27 58 69 63
4 41 69 32 63
4 76 33 68 40
4 27 44 58 37
4 79 31 44 37
4 56 38 68 21
4 56 58 38 37
4 52 32 71 63
4 47 38 31 37
4 76 68 59 21
4 22 59 43 21
4 65 45 33 40
4 47 43 38 21
4 52 71 45 40
4 56 68 71 40
4 74 30 66 23
4 46 66 29 23
4 22 43 30 23
4 72 48 77 34
4 46 53 42 73
4 50 64 53 73
4 70 42 57 73
4 74 66 48 34
4 46 42 66 34
4 47 29 43 23
4 70 77 42 34
4 60 57 64 73
4 79 67 31 75
4 47 31 29 75
4 50 53 67 75
4 46 29 53 75
4 10 78 6 80
4 36 6 1 80
4 15 1 12 80
4 36 4 6 26
4 14 12 78 80
4 2 17 9 26
4 36 18 4 55
4 15 28 1 11
4 62 4 20 55
4 10 6 17 26
4 27 18 44 11
4 62 9 4 26
4 27 69 18 55
4 36 1 18 11
4 41 20 69 55
4 79 44 28 11
4 16 24 54 7
4 19 54 39 7
4 50 39 64 7
4 8 25 61 3
4 60 64 24 7
4 79 28 67 13
4 19 51 61 49
4 8 61 0 49
4 15 51 28 13
4 19 39 51 13
4 50 67 39 13
4 19 61 54 3
4 14 0 12 49
4 5 35 25 3
4 15 12 51 49
4 16 54 35 3
CELL_TYPES 64
8
8
8
8
8
8
8
8
8
8
8
8
8
8
8
8
8
8
8
8
8
8
8
8
8
8
8
8
8
8
8
8
8
8
8
8
8
8
8
8
8
8
8
8
8
8
8
8
8
8
8
8
8
8
8
8
8
8
8
8
8
8
8
8
CELL_DATA 64
VECTORS vector_value float
-0.0198014 -0.0680641 0
-0.014962 -0.117215 0
-0.00348958 -0.0365437 0
0.0024366 -0.220367 0
0.059527 -0.0751894 0
0.0637492 -0.198039 0
-0.00148152 -0.146397 0
-0.00564961 -0.19486 0
-0.0243096 -0.120737 0
0.0160494 -0.185444 0
0.0200656 -0.291458 0
-0.0174328 -0.242542 0
-0.096629 -0.39237 0
-0.013177 -0.233718 0
-0.0554992 -0.141991 0
-0.0519028 -0.307804 0
-0.0626104 -0.15943 0
0.0504288 -0.387212 0
-0.00329908 -0.243031 0
0.398809 -0.429547 0
0.202757 -0.264394 0
0.723247 -1.17769 0
1.46755 -0.619212 0
0.0463707 -0.122509 0
0.200503 -0.63658 0
-0.00464584 -0.207394 0
0.903159 -0.899258 0
1.46469 -2.00312 0
0.02629 -0.252425 0
-0.00322048 -0.217173 0
0.506998 -0.576416 0
0.267841 -0.277747 0
1.33641 -3.93734 0
2.21619 -1.55736 0
1.61913 -1.54417 0
-0.0179822 -0.542678 0
0.965451 -2.01921 0
-0.244384 -4.41703 0
0.183005 -1.02325 0
0.986377 -3.23235 0
0.176396 -0.925711 0
-0.222177 -5.43066 0
0.130542 -0.653854 0
-0.3614 -1.86085 0
0.123879 -0.289964 0
0.723575 -1.14354 0
0.0283019 -0.104769 0
0.0879956 -0.344524 0
-0.392905 -0.575822 0
1.27283 -0.831933 0
1.86175 -2.71886 0
-0.257919 -0.344227 0
-0.0732632 -1.60943 0
0.22455 -0.670662 0
-0.00762772 -2.89639 0
0.112228 -0.195198 0
0.427865 -3.9602 0
0.892987 -1.63651 0
1.37694 -1.8711 0
0.171933 -1.90381 0
0.130507 -0.576122 0
-0.152333 -0.799962 0
0.370016 -1.87299 0
-0.203032 -1.06365 0
