# vtk DataFile Version 2.0
Unstructured Grid by M++
ASCII
DATASET UNSTRUCTURED_GRID
POINTS 81 float
  1.000000   0.625000 0
  0.750000   0.375000 0
  1.000000   0.000000 0
  0.875000   0.875000 0
  0.750000   0.125000 0
  1.000000   1.000000 0
  0.875000   0.250000 0
  0.625000   0.875000 0
  1.000000   0.750000 0
  0.875000   0.000000 0
  1.000000   0.250000 0
  0.625000   0.375000 0
  0.875000   0.500000 0
  0.625000   0.625000 0
  1.000000   0.500000 0
  0.750000   0.500000 0
  0.750000   1.000000 0
  1.000000   0.125000 0
  0.625000   0.250000 0
  0.750000   0.750000 0
  0.625000   0.000000 0
  0.125000   0.375000 0
  0.000000   0.500000 0
  0.125000   0.625000 0
  0.625000   1.000000 0
  1.000000   0.875000 0
  0.875000   0.125000 0
  0.500000   0.250000 0
  0.625000   0.500000 0
  0.250000   0.625000 0
  0.000000   0.625000 0
  0.375000   0.500000 0
  0.375000   0.000000 0
  0.000000   0.125000 0
  0.125000   0.875000 0
  0.875000   1.000000 0
  0.750000   0.250000 0
  0.375000   0.375000 0
  0.250000   0.375000 0
  0.625000   0.750000 0
  0.125000   0.125000 0
  0.500000   0.000000 0
  0.250000   0.875000 0
  0.125000   0.500000 0
  0.500000   0.375000 0
  0.125000   0.000000 0
  0.250000   0.750000 0
  0.250000   0.500000 0
  0.000000   0.875000 0
  0.875000   0.625000 0
  0.500000   0.750000 0
  0.750000   0.625000 0
  0.250000   0.000000 0
  0.375000   0.750000 0
  0.750000   0.875000 0
  0.625000   0.125000 0
  0.250000   0.250000 0
  0.375000   1.000000 0
  0.375000   0.250000 0
  0.000000   0.375000 0
  0.500000   1.000000 0
  0.875000   0.750000 0
  0.750000   0.000000 0
  0.375000   0.125000 0
  0.500000   0.875000 0
  0.000000   0.000000 0
  0.125000   0.750000 0
  0.500000   0.625000 0
  0.125000   0.250000 0
  0.500000   0.125000 0
  0.250000   1.000000 0
  0.250000   0.125000 0
  0.000000   1.000000 0
  0.375000   0.875000 0
  0.000000   0.750000 0
  0.375000   0.625000 0
  0.000000   0.250000 0
  0.125000   1.000000 0
  1.000000   0.375000 0
  0.500000   0.500000 0
  0.875000   0.375000 0
CELLS 64 320
4 56 71 58 63
4 27 58 69 63
4 41 69 32 63
4 76 33 68 40
4 27 44 58 37
4 79 31 44 37
4 56 38 68 21
4 56 58 38 37
4 52 32 71 63
4 47 38 31 37
4 76 68 59 21
4 22 59 43 21
4 65 45 33 40
4 47 43 38 21
4 52 71 45 40
4 56 68 71 40
4 74 30 66 23
4 46 66 29 23
4 22 43 30 23
4 72 48 77 34
4 46 53 42 73
4 50 64 53 73
4 70 42 57 73
4 74 66 48 34
4 46 42 66 34
4 47 29 43 23
4 70 77 42 34
4 60 57 64 73
4 79 67 31 75
4 47 31 29 75
4 50 53 67 75
4 46 29 53 75
4 10 78 6 80
4 36 6 1 80
4 15 1 12 80
4 36 4 6 26
4 14 12 78 80
4 2 17 9 26
4 36 18 4 55
4 15 28 1 11
4 62 4 20 55
4 10 6 17 26
4 27 18 44 11
4 62 9 4 26
4 27 69 18 55
4 36 1 18 11
4 41 20 69 55
4 79 44 28 11
4 16 24 54 7
4 19 54 39 7
4 50 39 64 7
4 8 25 61 3
4 60 64 24 7
4 79 28 67 13
4 19 51 61 49
4 8 61 0 49
4 15 51 28 13
4 19 39 51 13
4 50 67 39 13
4 19 61 54 3
4 14 0 12 49
4 5 35 25 3
4 15 12 51 49
4 16 54 35 3
CELL_TYPES 64
8
8
8
8
8
8
8
8
8
8
8
8
8
8
8
8
8
8
8
8
8
8
8
8
8
8
8
8
8
8
8
8
8
8
8
8
8
8
8
8
8
8
8
8
8
8
8
8
8
8
8
8
8
8
8
8
8
8
8
8
8
8
8
8
CELL_DATA 64
VECTORS vector_value float
-0.05022 -0.378901 0
-0.0094197 -0.0119913 0
-0.000787098 -0.00149504 0
-0.0118681 -0.255677 0
-0.54392 -0.613789 0
0.165203 -1.57807 0
-0.439484 -0.916047 0
-1.54398 -1.29612 0
-0.0533173 -0.267187 0
0.138694 -0.54261 0
0.0352806 -0.25337 0
0.159005 -0.423647 0
-0.034878 -0.329301 0
0.162168 -0.556992 0
-0.0289213 -2.43712 0
-0.417521 -2.38552 0
0.0251199 -0.523585 0
0.403113 -0.927586 0
-0.0434567 -0.671386 0
0.144796 -1.04773 0
0.0917075 -0.921048 0
-0.0116396 -1.10383 0
-0.247289 -0.823661 0
0.0555375 -0.66983 0
0.265195 -1.57709 0
0.0475221 -0.345443 0
-0.0447529 -1.28925 0
-0.211211 -1.0169 0
0.92423 -1.7269 0
0.4229 -0.947676 0
0.153057 -1.35831 0
0.832607 -1.57213 0
-0.828711 -1.82755 0
-0.134971 -1.69824 0
-0.22884 -0.396203 0
0.167117 -3.68666 0
-0.118654 -2.60885 0
0.0320454 -1.06349 0
0.205868 -0.447132 0
0.102531 -0.177444 0
0.00436483 -0.388053 0
0.0715901 -0.790318 0
0.492967 -0.597634 0
0.0206639 -3.50535 0
0.0255941 -0.0438031 0
1.38067 -0.797252 0
0.000420295 -0.00800202 0
0.657817 -1.71618 0
0.550308 -0.577469 0
0.0344912 -0.139619 0
-0.0445314 -0.583665 0
0.261661 -2.93212 0
-0.0395503 -0.673174 0
0.409264 -1.21201 0
0.0363576 -0.0767885 0
-0.0132403 -2.97832 0
-0.0213218 -0.0464428 0
0.00668358 -0.0751988 0
-0.0410156 -0.488076 0
0.0581509 -0.0728017 0
-0.110876 -2.98118 0
0.743273 -1.95606 0
-0.0266328 -0.068967 0
1.42777 -0.615756 0
