# vtk DataFile Version 2.0
Unstructured Grid by M++
ASCII
DATASET UNSTRUCTURED_GRID
POINTS 289 float
  0.562500   1.000000 0
  0.562500   0.625000 0
  0.625000   1.000000 0
  0.562500   0.937500 0
  0.562500   0.562500 0
  0.625000   0.937500 0
  0.562500   0.875000 0
  0.625000   0.750000 0
  0.625000   0.625000 0
  0.562500   0.812500 0
  0.562500   0.750000 0
  0.562500   0.687500 0
  0.625000   0.875000 0
  0.625000   0.812500 0
  0.625000   0.687500 0
  0.687500   0.125000 0
  0.875000   0.062500 0
  0.625000   0.125000 0
  0.625000   0.187500 0
  0.625000   0.250000 0
  0.812500   0.187500 0
  1.000000   0.125000 0
  0.687500   0.187500 0
  0.750000   0.125000 0
  0.937500   0.062500 0
  0.937500   0.125000 0
  0.750000   0.187500 0
  0.812500   0.062500 0
  0.812500   0.125000 0
  0.875000   0.687500 0
  0.187500   0.250000 0
  0.437500   0.250000 0
  0.375000   0.187500 0
  0.812500   0.625000 0
  0.125000   0.187500 0
  0.937500   0.750000 0
  0.250000   0.312500 0
  0.500000   0.312500 0
  0.625000   0.062500 0
  0.437500   0.500000 0
  0.375000   0.125000 0
  0.437500   0.187500 0
  0.437500   0.437500 0
  0.437500   0.375000 0
  0.875000   0.875000 0
  0.187500   0.375000 0
  0.687500   0.562500 0
  0.687500   0.625000 0
  0.000000   0.125000 0
  0.937500   0.625000 0
  0.250000   0.125000 0
  0.375000   0.062500 0
  0.375000   0.000000 0
  0.812500   0.500000 0
  0.125000   0.000000 0
  0.937500   0.937500 0
  0.250000   0.437500 0
  0.687500   0.875000 0
  0.687500   0.937500 0
  0.000000   0.437500 0
  0.500000   0.500000 0
  0.500000   0.437500 0
  0.750000   0.937500 0
  0.750000   1.000000 0
  0.062500   0.500000 0
  1.000000   1.000000 0
  0.312500   0.500000 0
  0.875000   0.562500 0
  0.187500   0.062500 0
  0.437500   0.125000 0
  0.437500   0.062500 0
  0.500000   0.375000 0
  0.937500   0.812500 0
  0.937500   0.875000 0
  0.250000   0.375000 0
  0.687500   0.812500 0
  0.000000   0.375000 0
  0.750000   0.562500 0
  0.062500   0.125000 0
  1.000000   0.562500 0
  1.000000   0.625000 0
  0.312500   0.125000 0
  0.562500   0.125000 0
  0.437500   0.000000 0
  0.875000   0.437500 0
  0.875000   0.500000 0
  0.187500   0.000000 0
  0.937500   0.562500 0
  0.937500   0.500000 0
  0.250000   0.062500 0
  0.687500   0.500000 0
  0.000000   0.062500 0
  0.500000   0.062500 0
  1.000000   0.875000 0
  1.000000   0.937500 0
  0.312500   0.437500 0
  0.750000   0.875000 0
  0.062500   0.437500 0
  0.812500   0.937500 0
  0.125000   0.500000 0
  0.375000   0.500000 0
  0.625000   0.562500 0
  0.625000   0.500000 0
  0.437500   0.312500 0
  0.875000   0.812500 0
  0.875000   0.750000 0
  0.187500   0.312500 0
  0.812500   0.687500 0
  0.812500   0.750000 0
  0.125000   0.250000 0
  0.375000   0.250000 0
  1.000000   0.687500 0
  0.312500   0.187500 0
  0.750000   0.687500 0
  0.750000   0.625000 0
  0.062500   0.187500 0
  0.562500   0.250000 0
  0.562500   0.187500 0
  0.375000   1.000000 0
  0.500000   0.562500 0
  0.500000   0.250000 0
  0.750000   0.250000 0
  0.500000   0.125000 0
  0.500000   0.187500 0
  1.000000   0.187500 0
  0.625000   0.375000 0
  0.875000   0.375000 0
  1.000000   0.437500 0
  0.312500   0.000000 0
  0.562500   0.000000 0
  0.812500   0.000000 0
  0.250000   0.687500 0
  0.000000   0.687500 0
  0.500000   1.000000 0
  0.250000   1.000000 0
  0.000000   1.000000 0
  0.437500   0.687500 0
  0.437500   0.625000 0
  0.187500   0.625000 0
  0.687500   0.750000 0
  0.000000   0.312500 0
  0.000000   0.250000 0
  0.375000   0.375000 0
  0.375000   0.312500 0
  0.812500   0.812500 0
  0.125000   0.312500 0
  0.875000   0.625000 0
  0.187500   0.187500 0
  0.187500   0.125000 0
  0.937500   1.000000 0
  0.250000   0.562500 0
  0.250000   0.500000 0
  0.687500   1.000000 0
  0.000000   0.500000 0
  0.687500   0.687500 0
  0.000000   0.187500 0
  0.937500   0.687500 0
  0.250000   0.250000 0
  0.250000   0.187500 0
  0.187500   0.687500 0
  0.000000   0.750000 0
  0.250000   0.750000 0
  0.125000   0.625000 0
  0.750000   0.750000 0
  0.062500   0.250000 0
  0.875000   0.937500 0
  0.187500   0.500000 0
  0.187500   0.437500 0
  0.812500   0.562500 0
  0.125000   0.125000 0
  0.125000   0.062500 0
  0.375000   0.625000 0
  0.375000   0.687500 0
  1.000000   0.750000 0
  0.312500   0.250000 0
  0.312500   0.312500 0
  0.812500   0.312500 0
  0.562500   0.312500 0
  0.375000   0.750000 0
  0.500000   0.625000 0
  0.250000   0.625000 0
  0.312500   0.687500 0
  0.750000   0.812500 0
  0.062500   0.312500 0
  0.062500   0.375000 0
  1.000000   0.812500 0
  0.312500   0.375000 0
  0.562500   0.375000 0
  0.687500   0.437500 0
  0.000000   0.000000 0
  0.500000   0.000000 0
  0.937500   0.437500 0
  0.250000   0.000000 0
  0.375000   0.437500 0
  0.812500   0.875000 0
  0.125000   0.375000 0
  0.125000   0.437500 0
  0.625000   0.437500 0
  1.000000   0.500000 0
  0.312500   0.062500 0
  0.750000   0.500000 0
  0.062500   0.000000 0
  0.062500   0.062500 0
  0.562500   0.062500 0
  0.062500   0.750000 0
  0.312500   0.750000 0
  0.312500   0.625000 0
  0.312500   0.562500 0
  0.062500   0.562500 0
  0.187500   1.000000 0
  0.437500   0.562500 0
  0.875000   1.000000 0
  0.187500   0.562500 0
  0.500000   0.937500 0
  0.250000   0.937500 0
  0.312500   1.000000 0
  0.125000   0.750000 0
  0.125000   0.687500 0
  1.000000   0.000000 0
  0.000000   0.937500 0
  0.000000   0.875000 0
  0.875000   0.125000 0
  0.875000   0.187500 0
  0.062500   0.812500 0
  0.312500   0.812500 0
  0.000000   0.812500 0
  0.000000   0.625000 0
  0.000000   0.562500 0
  0.062500   1.000000 0
  0.062500   0.937500 0
  0.937500   0.187500 0
  0.937500   0.250000 0
  0.062500   0.687500 0
  0.062500   0.625000 0
  0.125000   1.000000 0
  1.000000   0.250000 0
  1.000000   0.312500 0
  0.062500   0.875000 0
  0.125000   0.812500 0
  0.375000   0.812500 0
  0.125000   0.875000 0
  0.375000   0.937500 0
  0.375000   0.875000 0
  0.187500   0.750000 0
  0.187500   0.812500 0
  0.437500   0.812500 0
  0.187500   0.875000 0
  0.437500   0.875000 0
  0.375000   0.562500 0
  0.812500   1.000000 0
  0.125000   0.562500 0
  0.437500   1.000000 0
  0.437500   0.937500 0
  0.187500   0.937500 0
  0.125000   0.937500 0
  0.500000   0.687500 0
  0.500000   0.750000 0
  0.500000   0.812500 0
  0.250000   0.812500 0
  0.250000   0.875000 0
  0.500000   0.875000 0
  0.437500   0.750000 0
  0.312500   0.875000 0
  0.312500   0.937500 0
  0.687500   0.250000 0
  0.687500   0.312500 0
  0.937500   0.312500 0
  0.875000   0.250000 0
  0.625000   0.000000 0
  0.875000   0.000000 0
  0.687500   0.375000 0
  0.937500   0.375000 0
  0.875000   0.312500 0
  0.625000   0.312500 0
  0.687500   0.000000 0
  0.937500   0.000000 0
  0.750000   0.312500 0
  0.750000   0.375000 0
  1.000000   0.375000 0
  0.812500   0.250000 0
  0.562500   0.437500 0
  0.562500   0.500000 0
  0.687500   0.062500 0
  0.750000   0.437500 0
  0.750000   0.000000 0
  0.750000   0.062500 0
  1.000000   0.062500 0
  0.812500   0.375000 0
  0.812500   0.437500 0
CELLS 256 1280
4 169 170 148 68
4 151 166 56 167
4 195 45 196 167
4 54 170 201 202
4 109 34 30 147
4 40 32 81 112
4 192 89 86 68
4 48 91 78 202
4 99 64 196 97
4 71 43 37 103
4 74 186 56 95
4 109 164 34 115
4 50 81 158 112
4 122 69 92 70
4 195 145 45 106
4 110 143 174 175
4 157 30 158 147
4 40 69 32 41
4 50 158 148 147
4 141 155 164 115
4 122 123 69 41
4 142 186 143 175
4 60 39 61 42
4 40 51 69 70
4 120 31 123 41
4 157 174 36 175
4 50 148 89 68
4 48 78 155 115
4 52 83 51 70
4 151 56 66 95
4 71 61 43 42
4 169 148 34 147
4 100 193 39 42
4 40 81 51 199
4 110 174 32 112
4 109 30 145 106
4 100 66 193 95
4 169 34 78 115
4 190 92 83 70
4 50 89 81 199
4 54 86 170 68
4 74 56 45 167
4 142 143 43 103
4 153 59 64 97
4 99 196 166 167
4 169 78 170 202
4 142 193 186 95
4 192 128 89 199
4 74 45 36 106
4 110 31 143 103
4 76 184 59 97
4 142 43 193 42
4 52 51 128 199
4 189 201 91 202
4 120 37 31 103
4 74 36 186 175
4 195 196 184 97
4 141 164 140 183
4 157 158 174 112
4 109 145 164 183
4 195 184 145 183
4 110 32 31 41
4 157 36 30 106
4 76 140 184 183
4 171 172 206 181
4 178 172 261 136
4 256 261 255 136
4 256 257 261 245
4 180 150 206 207
4 60 119 39 210
4 118 215 241 263
4 178 205 172 181
4 216 243 238 244
4 162 217 233 232
4 180 206 131 181
4 179 137 119 210
4 216 204 217 232
4 220 237 219 229
4 216 217 243 159
4 259 258 262 224
4 240 254 237 229
4 153 64 227 208
4 161 205 258 224
4 240 237 238 223
4 226 227 233 208
4 234 228 254 229
4 171 248 137 210
4 160 132 204 232
4 180 131 138 159
4 133 251 213 252
4 171 206 248 207
4 162 138 217 159
4 161 258 243 244
4 220 225 237 223
4 151 150 166 212
4 260 247 257 245
4 259 262 214 263
4 151 66 150 207
4 234 254 209 253
4 162 233 250 208
4 242 241 262 263
4 171 137 172 136
4 161 243 131 159
4 160 204 225 223
4 161 131 205 181
4 179 255 137 136
4 216 238 204 223
4 100 39 248 210
4 260 213 247 252
4 226 233 132 232
4 134 214 215 263
4 180 138 150 212
4 178 261 239 245
4 259 246 258 244
4 178 239 205 224
4 240 238 246 244
4 242 262 239 224
4 99 250 64 208
4 240 246 254 253
4 242 239 247 245
4 135 219 228 229
4 99 166 250 212
4 259 214 246 253
4 118 241 251 252
4 100 248 66 207
4 134 209 214 253
4 162 250 138 212
4 242 247 241 252
4 71 187 61 280
4 102 281 197 280
4 122 92 82 203
4 17 18 82 117
4 122 82 123 117
4 19 264 273 265
4 267 279 222 20
4 125 273 270 265
4 267 272 279 176
4 19 116 18 117
4 21 25 286 24
4 23 28 26 20
4 23 285 28 27
4 218 286 275 24
4 85 53 84 288
4 235 236 231 266
4 221 222 28 20
4 267 222 231 230
4 268 38 129 203
4 125 270 197 188
4 126 287 272 176
4 277 270 276 265
4 267 231 272 266
4 125 197 187 280
4 190 129 92 203
4 277 276 287 176
4 19 18 264 22
4 17 82 38 203
4 102 197 90 188
4 126 84 287 288
4 284 130 285 27
4 121 276 264 265
4 71 37 187 177
4 120 123 116 117
4 198 88 127 191
4 221 16 25 24
4 23 26 15 22
4 121 279 276 176
4 235 231 124 230
4 125 187 273 177
4 278 271 236 266
4 277 287 283 288
4 284 285 274 282
4 278 127 271 191
4 269 275 16 24
4 200 283 53 288
4 23 15 285 282
4 121 26 279 20
4 21 124 25 230
4 19 273 116 177
4 200 90 283 188
4 126 271 84 191
4 269 16 130 27
4 17 38 15 282
4 221 25 222 230
4 121 264 26 22
4 120 116 37 177
4 60 61 281 280
4 277 283 270 188
4 126 272 271 266
4 268 274 38 282
4 85 84 88 191
4 17 15 18 22
4 221 28 16 27
4 93 94 73 55
4 85 88 67 87
4 80 49 79 87
4 44 104 73 72
4 146 33 67 168
4 211 165 149 55
4 8 47 14 154
4 105 104 108 144
4 105 108 29 107
4 7 139 13 75
4 44 165 194 98
4 200 53 77 168
4 8 1 101 4
4 2 5 152 58
4 260 6 213 3
4 105 35 104 72
4 96 57 182 75
4 7 14 139 154
4 146 29 33 107
4 7 13 10 9
4 12 13 57 75
4 85 67 53 168
4 44 73 165 55
4 63 152 62 58
4 8 101 47 46
4 96 182 194 144
4 60 281 119 4
4 12 5 6 3
4 173 185 35 72
4 65 149 94 55
4 146 67 49 87
4 114 113 47 154
4 163 108 182 144
4 12 6 13 9
4 173 35 111 156
4 163 182 139 75
4 260 257 6 9
4 105 29 35 156
4 163 139 113 154
4 256 10 257 9
4 146 49 29 156
4 163 113 108 107
4 80 111 49 156
4 102 101 281 4
4 12 57 5 58
4 44 194 104 144
4 96 194 62 98
4 2 0 5 3
4 93 73 185 72
4 179 119 1 4
4 200 77 90 46
4 114 33 113 107
4 7 10 14 11
4 96 62 57 58
4 133 213 0 3
4 102 90 101 46
4 256 255 10 11
4 63 62 249 98
4 114 47 77 46
4 179 1 255 11
4 211 249 165 98
4 114 77 33 168
4 198 79 88 87
4 8 14 1 11
CELL_TYPES 256
8
8
8
8
8
8
8
8
8
8
8
8
8
8
8
8
8
8
8
8
8
8
8
8
8
8
8
8
8
8
8
8
8
8
8
8
8
8
8
8
8
8
8
8
8
8
8
8
8
8
8
8
8
8
8
8
8
8
8
8
8
8
8
8
8
8
8
8
8
8
8
8
8
8
8
8
8
8
8
8
8
8
8
8
8
8
8
8
8
8
8
8
8
8
8
8
8
8
8
8
8
8
8
8
8
8
8
8
8
8
8
8
8
8
8
8
8
8
8
8
8
8
8
8
8
8
8
8
8
8
8
8
8
8
8
8
8
8
8
8
8
8
8
8
8
8
8
8
8
8
8
8
8
8
8
8
8
8
8
8
8
8
8
8
8
8
8
8
8
8
8
8
8
8
8
8
8
8
8
8
8
8
8
8
8
8
8
8
8
8
8
8
8
8
8
8
8
8
8
8
8
8
8
8
8
8
8
8
8
8
8
8
8
8
8
8
8
8
8
8
8
8
8
8
8
8
8
8
8
8
8
8
8
8
8
8
8
8
8
8
8
8
8
8
8
8
8
8
8
8
8
8
8
8
8
8
CELL_DATA 256
VECTORS vector_value float
-0.919302 -0.946267 0
0.0475585 -0.338647 0
0.0287124 -0.124418 0
-0.280088 -1.33971 0
-0.11587 -0.313157 0
-0.456091 -1.18294 0
-0.182906 -1.11981 0
-0.0388638 -0.128079 0
0.0346885 -0.0853431 0
-0.981041 -1.61455 0
-0.0878781 -0.798831 0
-0.0279018 -0.20268 0
-0.886604 -1.22163 0
0.0998637 -1.21738 0
-0.0231961 -0.182987 0
-0.6448 -0.787439 0
-0.396305 -0.886997 0
-0.358611 -1.62307 0
-0.762374 -1.18198 0
0.00161018 -0.0628026 0
-0.326649 -1.15323 0
-0.0884177 -0.505317 0
0.152224 -1.29899 0
0.0710537 -1.69287 0
-0.547032 -1.44542 0
-0.32536 -0.835022 0
-1.11222 -1.35471 0
-0.0113119 -0.0800446 0
0.013477 -1.08251 0
0.082905 -0.791222 0
-0.0036368 -1.53961 0
-0.45044 -0.695256 0
0.137513 -0.881846 0
-0.304397 -0.632649 0
-1.15903 -1.62167 0
-0.0415063 -0.251272 0
0.0372028 -0.683337 0
-0.0758011 -0.255509 0
0.0861841 -1.55263 0
-0.724959 -0.818055 0
-0.361795 -1.11048 0
-0.0477024 -0.493099 0
-0.466095 -1.15624 0
0.0161853 -0.203049 0
0.0552866 -0.153572 0
-0.443956 -0.784595 0
0.0279933 -0.425262 0
-0.0443936 -0.38141 0
-0.0769474 -0.586004 0
-1.38527 -1.7922 0
0.012671 -0.1679 0
0.0928818 -0.788907 0
-0.0370942 -0.660869 0
-0.0571813 -0.263641 0
-1.31781 -1.85014 0
-0.0483952 -0.606035 0
0.0223578 -0.0778357 0
0.0166842 -0.0828667 0
-0.715103 -1.06782 0
0.0154297 -0.138327 0
0.0316962 -0.108858 0
-0.787431 -1.45736 0
-0.120999 -0.618674 0
0.024536 -0.123105 0
0.414662 -0.356307 0
0.691389 -0.593554 0
0.618734 -1.2869 0
0.491765 -0.985372 0
0.446006 -0.456089 0
0.251362 -1.36663 0
0.485116 -0.66937 0
0.730023 -0.369246 0
0.534261 -0.720944 0
0.477471 -0.517185 0
0.457193 -0.252106 0
0.0588597 -1.33061 0
0.46581 -0.843581 0
-0.0504515 -2.29174 0
0.792285 -0.781618 0
0.319055 -0.409735 0
-0.186253 -0.527475 0
0.0225282 -0.244354 0
0.760023 -0.270682 0
0.450573 -0.911529 0
0.0923759 -0.367429 0
-0.87585 -0.798066 0
0.177236 -1.09285 0
0.137263 -0.843361 0
0.81263 -0.493907 0
1.41124 -1.24614 0
0.373473 -0.420582 0
0.700984 -0.571727 0
0.665096 -0.493474 0
0.377964 -1.88481 0
0.420215 -0.598341 0
0.31775 -0.9026 0
0.00701703 -0.555226 0
0.300332 -0.550004 0
-0.401757 -0.517972 0
0.246002 -0.266063 0
0.217539 -0.473748 0
0.375338 -0.723269 0
0.683718 -0.324108 0
0.20745 -1.16251 0
0.782862 -0.256927 0
0.235672 -1.4675 0
0.586066 -1.17507 0
0.132823 -1.18794 0
0.232136 -0.885677 0
0.149327 -0.594409 0
0.145559 -0.902324 0
0.356452 -0.462984 0
0.702776 -0.556859 0
0.132028 -0.66145 0
0.845989 -0.390364 0
0.0960417 -0.570107 0
0.390147 -0.3459 0
0.0795804 -0.144588 0
-0.188514 -0.477471 0
0.412139 -0.490727 0
-0.542137 -1.75755 0
0.133224 -0.172128 0
-0.194649 -0.787609 0
1.02795 -0.64265 0
0.11602 -0.489198 0
-0.0278153 -0.849886 0
0.4427 -0.447895 0
0.247909 -0.398928 0
-0.126284 -1.06585 0
-0.0226971 -0.402765 0
0.122831 -1.70037 0
-0.0396422 -2.11296 0
-0.176035 -2.0117 0
-0.994917 -1.461 0
-0.0225167 -0.52451 0
-3.46089 -1.96667 0
0.0195856 -0.358338 0
-0.394054 -2.20496 0
-0.0541693 -1.06185 0
0.0108434 -0.296709 0
0.0380133 -0.519253 0
0.050771 -1.14523 0
-0.118856 -0.658589 0
0.0391901 -1.97141 0
-0.113904 -0.636767 0
-0.228924 -1.02336 0
0.15852 -1.54276 0
-1.11166 -0.826095 0
-0.126578 -0.685107 0
-2.00188 -1.81749 0
0.00635655 -0.857321 0
-0.370933 -0.771579 0
0.0591799 -1.50383 0
-0.604277 -0.689289 0
-0.149833 -0.937207 0
0.479472 -1.83748 0
-0.0688517 -0.329588 0
-0.551951 -0.854712 0
0.0439603 -0.583721 0
-0.316229 -0.537443 0
-1.59838 -1.643 0
-0.540947 -2.06321 0
-0.30288 -1.67765 0
-0.140161 -1.35187 0
0.0856667 -0.262751 0
-0.0042678 -0.312855 0
-0.23229 -1.74713 0
-2.4636 -1.63734 0
0.154548 -1.5994 0
-1.60278 -2.14226 0
0.223532 -0.658802 0
0.0109776 -1.3678 0
-0.00703396 -1.12293 0
-0.503556 -3.92869 0
0.196036 -0.308916 0
0.0133009 -0.174867 0
-0.12468 -1.24132 0
-1.41413 -2.51272 0
-0.189419 -1.72929 0
-0.255878 -1.62636 0
-0.0370983 -0.911614 0
0.492447 -0.903048 0
-0.264697 -1.36678 0
0.00639941 -0.266856 0
-1.05397 -1.63297 0
0.130606 -1.05901 0
-2.72119 -2.92949 0
0.232405 -1.07862 0
0.291128 -1.02006 0
-0.538352 -1.7784 0
0.0393686 -0.677357 0
-0.132315 -0.742617 0
0.307559 -2.7392 0
-0.176156 -0.847092 0
-0.0426102 -2.73173 0
0.0312027 -0.5169 0
0.00681602 -0.79505 0
1.37092 -0.981945 0
2.08894 -1.97636 0
0.0149454 -0.361656 0
0.058813 -0.436051 0
0.284347 -1.17202 0
0.191052 -0.56282 0
0.949658 -3.32771 0
0.198145 -0.504324 0
-0.0113513 -1.26077 0
0.473683 -2.18787 0
-0.0629439 -0.712934 0
-0.0146993 -0.49352 0
0.622122 -1.33912 0
0.0746848 -0.474217 0
0.235065 -2.04149 0
-0.0402815 -0.977381 0
-0.099475 -0.77846 0
0.313776 -0.684085 0
0.0936513 -0.593814 0
1.52384 -1.96834 0
-0.0295538 -0.254777 0
0.117118 -0.836919 0
0.122458 -1.35455 0
-0.111741 -2.85275 0
0.654033 -1.74611 0
-0.116367 -0.821062 0
1.13663 -1.50972 0
-0.0160393 -0.360328 0
0.173179 -2.31776 0
-0.0286217 -2.58376 0
0.0711162 -0.546888 0
0.290268 -1.7421 0
-0.0259515 -0.988562 0
0.322757 -0.918357 0
0.248508 -2.19666 0
0.0673209 -0.820938 0
0.0889537 -0.284937 0
0.0788064 -2.79677 0
0.00920691 -0.20857 0
-0.133968 -1.20453 0
0.000724184 -0.574001 0
0.0463226 -0.329011 0
0.174367 -0.871623 0
-0.00719376 -2.94671 0
0.0460861 -0.685609 0
1.02865 -2.10391 0
0.393718 -0.561537 0
0.843178 -1.91798 0
-0.0366176 -0.540054 0
0.773926 -1.60219 0
0.110403 -0.565709 0
0.831814 -2.23194 0
0.619373 -0.91603 0
1.74574 -2.46991 0
0.648486 -1.11018 0
1.05386 -0.643558 0
0.535288 -1.17947 0
-0.310625 -2.57843 0
2.05162 -1.77387 0
