# vtk DataFile Version 2.0
Unstructured Grid by M++
ASCII
DATASET UNSTRUCTURED_GRID
POINTS 81 float
  1.000000   0.625000 0
  0.750000   0.375000 0
  1.000000   0.000000 0
  0.875000   0.875000 0
  0.750000   0.125000 0
  1.000000   1.000000 0
  0.875000   0.250000 0
  0.625000   0.875000 0
  1.000000   0.750000 0
  0.875000   0.000000 0
  1.000000   0.250000 0
  0.625000   0.375000 0
  0.875000   0.500000 0
  0.625000   0.625000 0
  1.000000   0.500000 0
  0.750000   0.500000 0
  0.750000   1.000000 0
  1.000000   0.125000 0
  0.625000   0.250000 0
  0.750000   0.750000 0
  0.625000   0.000000 0
  0.125000   0.375000 0
  0.000000   0.500000 0
  0.125000   0.625000 0
  0.625000   1.000000 0
  1.000000   0.875000 0
  0.875000   0.125000 0
  0.500000   0.250000 0
  0.625000   0.500000 0
  0.250000   0.625000 0
  0.000000   0.625000 0
  0.375000   0.500000 0
  0.375000   0.000000 0
  0.000000   0.125000 0
  0.125000   0.875000 0
  0.875000   1.000000 0
  0.750000   0.250000 0
  0.375000   0.375000 0
  0.250000   0.375000 0
  0.625000   0.750000 0
  0.125000   0.125000 0
  0.500000   0.000000 0
  0.250000   0.875000 0
  0.125000   0.500000 0
  0.500000   0.375000 0
  0.125000   0.000000 0
  0.250000   0.750000 0
  0.250000   0.500000 0
  0.000000   0.875000 0
  0.875000   0.625000 0
  0.500000   0.750000 0
  0.750000   0.625000 0
  0.250000   0.000000 0
  0.375000   0.750000 0
  0.750000   0.875000 0
  0.625000   0.125000 0
  0.250000   0.250000 0
  0.375000   1.000000 0
  0.375000   0.250000 0
  0.000000   0.375000 0
  0.500000   1.000000 0
  0.875000   0.750000 0
  0.750000   0.000000 0
  0.375000   0.125000 0
  0.500000   0.875000 0
  0.000000   0.000000 0
  0.125000   0.750000 0
  0.500000   0.625000 0
  0.125000   0.250000 0
  0.500000   0.125000 0
  0.250000   1.000000 0
  0.250000   0.125000 0
  0.000000   1.000000 0
  0.375000   0.875000 0
  0.000000   0.750000 0
  0.375000   0.625000 0
  0.000000   0.250000 0
  0.125000   1.000000 0
  1.000000   0.375000 0
  0.500000   0.500000 0
  0.875000   0.375000 0
CELLS 64 320
4 56 71 58 63
4 27 58 69 63
4 41 69 32 63
4 76 33 68 40
4 27 44 58 37
4 79 31 44 37
4 56 38 68 21
4 56 58 38 37
4 52 32 71 63
4 47 38 31 37
4 76 68 59 21
4 22 59 43 21
4 65 45 33 40
4 47 43 38 21
4 52 71 45 40
4 56 68 71 40
4 74 30 66 23
4 46 66 29 23
4 22 43 30 23
4 72 48 77 34
4 46 53 42 73
4 50 64 53 73
4 70 42 57 73
4 74 66 48 34
4 46 42 66 34
4 47 29 43 23
4 70 77 42 34
4 60 57 64 73
4 79 67 31 75
4 47 31 29 75
4 50 53 67 75
4 46 29 53 75
4 10 78 6 80
4 36 6 1 80
4 15 1 12 80
4 36 4 6 26
4 14 12 78 80
4 2 17 9 26
4 36 18 4 55
4 15 28 1 11
4 62 4 20 55
4 10 6 17 26
4 27 18 44 11
4 62 9 4 26
4 27 69 18 55
4 36 1 18 11
4 41 20 69 55
4 79 44 28 11
4 16 24 54 7
4 19 54 39 7
4 50 39 64 7
4 8 25 61 3
4 60 64 24 7
4 79 28 67 13
4 19 51 61 49
4 8 61 0 49
4 15 51 28 13
4 19 39 51 13
4 50 67 39 13
4 19 61 54 3
4 14 0 12 49
4 5 35 25 3
4 15 12 51 49
4 16 54 35 3
CELL_TYPES 64
8
8
8
8
8
8
8
8
8
8
8
8
8
8
8
8
8
8
8
8
8
8
8
8
8
8
8
8
8
8
8
8
8
8
8
8
8
8
8
8
8
8
8
8
8
8
8
8
8
8
8
8
8
8
8
8
8
8
8
8
8
8
8
8
CELL_DATA 64
VECTORS vector_value float
-0.0187821 -0.0987685 0
-0.0774547 -0.231006 0
-0.121902 -0.443603 0
0.0662203 -0.609952 0
0.00338553 -0.173552 0
0.821424 -0.90958 0
-0.00256422 -0.0344596 0
0.000222156 -0.0210823 0
0.0411099 -0.19982 0
0.0739313 -0.141275 0
-0.0315498 -0.707359 0
-0.0606552 -0.546368 0
0.0242295 -0.509282 0
-0.108601 -0.181913 0
0.0601155 -0.12869 0
0.0978568 -0.113408 0
0.0770964 -0.492737 0
0.315856 -0.422976 0
-0.0324733 -0.424439 0
0.113845 -0.826008 0
0.349174 -1.89675 0
0.0158191 -0.784419 0
-0.169999 -1.57714 0
0.0926839 -0.701937 0
0.362872 -0.845159 0
-0.0180077 -0.283032 0
0.228865 -1.0725 0
-0.316932 -0.57052 0
1.29764 -2.18587 0
0.493098 -0.891311 0
0.798109 -1.52875 0
1.00022 -1.74278 0
0.119628 -0.651618 0
1.61624 -2.64392 0
-1.36453 -2.02898 0
0.397029 -2.02718 0
-0.454579 -1.06325 0
0.0392179 -3.12912 0
0.0308474 -1.07877 0
0.512374 -1.37209 0
0.0619687 -0.968989 0
1.05301 -2.70028 0
0.388991 -1.14578 0
0.211359 -1.71945 0
-0.0688243 -1.14063 0
1.29512 -2.62222 0
-0.0967939 -0.901045 0
1.93708 -1.75655 0
0.955528 -0.603137 0
0.00984446 -0.154284 0
-0.0583292 -0.192641 0
0.442436 -2.07612 0
0.216931 -0.499496 0
0.346994 -0.732558 0
0.0136468 -0.360084 0
0.307931 -3.07584 0
-0.00213768 -0.0831566 0
-0.0201537 -0.0357589 0
0.0859017 -0.341076 0
0.709946 -1.34869 0
-0.828702 -3.0501 0
0.392157 -1.34665 0
-0.0786771 -0.349538 0
1.01906 -1.50455 0
