# vtk DataFile Version 2.0
Unstructured Grid by M++
ASCII
DATASET UNSTRUCTURED_GRID
POINTS 81 float
  1.000000   0.625000 0
  0.750000   0.375000 0
  1.000000   0.000000 0
  0.875000   0.875000 0
  0.750000   0.125000 0
  1.000000   1.000000 0
  0.875000   0.250000 0
  0.625000   0.875000 0
  1.000000   0.750000 0
  0.875000   0.000000 0
  1.000000   0.250000 0
  0.625000   0.375000 0
  0.875000   0.500000 0
  0.625000   0.625000 0
  1.000000   0.500000 0
  0.750000   0.500000 0
  0.750000   1.000000 0
  1.000000   0.125000 0
  0.625000   0.250000 0
  0.750000   0.750000 0
  0.625000   0.000000 0
  0.125000   0.375000 0
  0.000000   0.500000 0
  0.125000   0.625000 0
  0.625000   1.000000 0
  1.000000   0.875000 0
  0.875000   0.125000 0
  0.500000   0.250000 0
  0.625000   0.500000 0
  0.250000   0.625000 0
  0.000000   0.625000 0
  0.375000   0.500000 0
  0.375000   0.000000 0
  0.000000   0.125000 0
  0.125000   0.875000 0
  0.875000   1.000000 0
  0.750000   0.250000 0
  0.375000   0.375000 0
  0.250000   0.375000 0
  0.625000   0.750000 0
  0.125000   0.125000 0
  0.500000   0.000000 0
  0.250000   0.875000 0
  0.125000   0.500000 0
  0.500000   0.375000 0
  0.125000   0.000000 0
  0.250000   0.750000 0
  0.250000   0.500000 0
  0.000000   0.875000 0
  0.875000   0.625000 0
  0.500000   0.750000 0
  0.750000   0.625000 0
  0.250000   0.000000 0
  0.375000   0.750000 0
  0.750000   0.875000 0
  0.625000   0.125000 0
  0.250000   0.250000 0
  0.375000   1.000000 0
  0.375000   0.250000 0
  0.000000   0.375000 0
  0.500000   1.000000 0
  0.875000   0.750000 0
  0.750000   0.000000 0
  0.375000   0.125000 0
  0.500000   0.875000 0
  0.000000   0.000000 0
  0.125000   0.750000 0
  0.500000   0.625000 0
  0.125000   0.250000 0
  0.500000   0.125000 0
  0.250000   1.000000 0
  0.250000   0.125000 0
  0.000000   1.000000 0
  0.375000   0.875000 0
  0.000000   0.750000 0
  0.375000   0.625000 0
  0.000000   0.250000 0
  0.125000   1.000000 0
  1.000000   0.375000 0
  0.500000   0.500000 0
  0.875000   0.375000 0
CELLS 64 320
4 56 71 58 63
4 27 58 69 63
4 41 69 32 63
4 76 33 68 40
4 27 44 58 37
4 79 31 44 37
4 56 38 68 21
4 56 58 38 37
4 52 32 71 63
4 47 38 31 37
4 76 68 59 21
4 22 59 43 21
4 65 45 33 40
4 47 43 38 21
4 52 71 45 40
4 56 68 71 40
4 74 30 66 23
4 46 66 29 23
4 22 43 30 23
4 72 48 77 34
4 46 53 42 73
4 50 64 53 73
4 70 42 57 73
4 74 66 48 34
4 46 42 66 34
4 47 29 43 23
4 70 77 42 34
4 60 57 64 73
4 79 67 31 75
4 47 31 29 75
4 50 53 67 75
4 46 29 53 75
4 10 78 6 80
4 36 6 1 80
4 15 1 12 80
4 36 4 6 26
4 14 12 78 80
4 2 17 9 26
4 36 18 4 55
4 15 28 1 11
4 62 4 20 55
4 10 6 17 26
4 27 18 44 11
4 62 9 4 26
4 27 69 18 55
4 36 1 18 11
4 41 20 69 55
4 79 44 28 11
4 16 24 54 7
4 19 54 39 7
4 50 39 64 7
4 8 25 61 3
4 60 64 24 7
4 79 28 67 13
4 19 51 61 49
4 8 61 0 49
4 15 51 28 13
4 19 39 51 13
4 50 67 39 13
4 19 61 54 3
4 14 0 12 49
4 5 35 25 3
4 15 12 51 49
4 16 54 35 3
CELL_TYPES 64
8
8
8
8
8
8
8
8
8
8
8
8
8
8
8
8
8
8
8
8
8
8
8
8
8
8
8
8
8
8
8
8
8
8
8
8
8
8
8
8
8
8
8
8
8
8
8
8
8
8
8
8
8
8
8
8
8
8
8
8
8
8
8
8
CELL_DATA 64
VECTORS vector_value float
-0.253721 -0.668665 0
-0.0540722 -0.518087 0
-0.0123861 -0.443556 0
0.00374471 -0.568578 0
-0.0178456 -0.613461 0
0.0716464 -0.840256 0
-0.00227239 -0.349078 0
-0.097088 -0.85574 0
-0.0726679 -0.421601 0
0.00262308 -0.733691 0
0.0293227 -0.653492 0
-0.0407321 -0.679549 0
-0.0883592 -0.755315 0
0.00855818 -0.351504 0
-0.174317 -0.850364 0
-0.193728 -0.719556 0
-0.0042771 -0.305072 0
0.0988479 -0.904646 0
-0.121519 -0.462674 0
0.17402 -0.918256 0
0.252764 -1.01469 0
0.190807 -0.685607 0
0.255116 -0.884515 0
0.155416 -0.476485 0
0.415656 -1.16164 0
-0.0823156 -0.662194 0
0.220022 -0.965534 0
0.378431 -1.0924 0
0.465618 -1.44926 0
0.138405 -0.662111 0
0.226678 -1.02256 0
0.445978 -1.11881 0
-0.102316 -0.936966 0
-0.0924459 -1.51853 0
-0.0155086 -1.75298 0
0.120551 -1.88036 0
-0.0138803 -0.903588 0
0.133389 -0.923766 0
0.274174 -2.07437 0
0.0717935 -1.60834 0
0.0724588 -1.57446 0
-0.0191704 -0.634879 0
0.0946025 -1.1858 0
0.232309 -2.0572 0
0.0607973 -0.935513 0
0.00496075 -1.88693 0
-0.0134399 -0.973741 0
0.268219 -1.13009 0
0.114119 -1.19129 0
0.0118335 -1.92382 0
0.237894 -1.22453 0
0.188945 -0.926838 0
0.352319 -0.846152 0
0.340778 -0.69312 0
0.231169 -0.924719 0
0.0215084 -0.967362 0
0.394518 -1.77262 0
0.336413 -1.707 0
0.198884 -1.04983 0
0.0972064 -0.586395 0
-0.0215959 -1.0755 0
-0.202765 -0.544573 0
0.205047 -1.22252 0
-0.287244 -1.55728 0
