# vtk DataFile Version 2.0
Unstructured Grid by M++
ASCII
DATASET UNSTRUCTURED_GRID
POINTS 81 float
  1.000000   0.625000 0
  0.750000   0.375000 0
  1.000000   0.000000 0
  0.875000   0.875000 0
  0.750000   0.125000 0
  1.000000   1.000000 0
  0.875000   0.250000 0
  0.625000   0.875000 0
  1.000000   0.750000 0
  0.875000   0.000000 0
  1.000000   0.250000 0
  0.625000   0.375000 0
  0.875000   0.500000 0
  0.625000   0.625000 0
  1.000000   0.500000 0
  0.750000   0.500000 0
  0.750000   1.000000 0
  1.000000   0.125000 0
  0.625000   0.250000 0
  0.750000   0.750000 0
  0.625000   0.000000 0
  0.125000   0.375000 0
  0.000000   0.500000 0
  0.125000   0.625000 0
  0.625000   1.000000 0
  1.000000   0.875000 0
  0.875000   0.125000 0
  0.500000   0.250000 0
  0.625000   0.500000 0
  0.250000   0.625000 0
  0.000000   0.625000 0
  0.375000   0.500000 0
  0.375000   0.000000 0
  0.000000   0.125000 0
  0.125000   0.875000 0
  0.875000   1.000000 0
  0.750000   0.250000 0
  0.375000   0.375000 0
  0.250000   0.375000 0
  0.625000   0.750000 0
  0.125000   0.125000 0
  0.500000   0.000000 0
  0.250000   0.875000 0
  0.125000   0.500000 0
  0.500000   0.375000 0
  0.125000   0.000000 0
  0.250000   0.750000 0
  0.250000   0.500000 0
  0.000000   0.875000 0
  0.875000   0.625000 0
  0.500000   0.750000 0
  0.750000   0.625000 0
  0.250000   0.000000 0
  0.375000   0.750000 0
  0.750000   0.875000 0
  0.625000   0.125000 0
  0.250000   0.250000 0
  0.375000   1.000000 0
  0.375000   0.250000 0
  0.000000   0.375000 0
  0.500000   1.000000 0
  0.875000   0.750000 0
  0.750000   0.000000 0
  0.375000   0.125000 0
  0.500000   0.875000 0
  0.000000   0.000000 0
  0.125000   0.750000 0
  0.500000   0.625000 0
  0.125000   0.250000 0
  0.500000   0.125000 0
  0.250000   1.000000 0
  0.250000   0.125000 0
  0.000000   1.000000 0
  0.375000   0.875000 0
  0.000000   0.750000 0
  0.375000   0.625000 0
  0.000000   0.250000 0
  0.125000   1.000000 0
  1.000000   0.375000 0
  0.500000   0.500000 0
  0.875000   0.375000 0
CELLS 64 320
4 56 71 58 63
4 27 58 69 63
4 41 69 32 63
4 76 33 68 40
4 27 44 58 37
4 79 31 44 37
4 56 38 68 21
4 56 58 38 37
4 52 32 71 63
4 47 38 31 37
4 76 68 59 21
4 22 59 43 21
4 65 45 33 40
4 47 43 38 21
4 52 71 45 40
4 56 68 71 40
4 74 30 66 23
4 46 66 29 23
4 22 43 30 23
4 72 48 77 34
4 46 53 42 73
4 50 64 53 73
4 70 42 57 73
4 74 66 48 34
4 46 42 66 34
4 47 29 43 23
4 70 77 42 34
4 60 57 64 73
4 79 67 31 75
4 47 31 29 75
4 50 53 67 75
4 46 29 53 75
4 10 78 6 80
4 36 6 1 80
4 15 1 12 80
4 36 4 6 26
4 14 12 78 80
4 2 17 9 26
4 36 18 4 55
4 15 28 1 11
4 62 4 20 55
4 10 6 17 26
4 27 18 44 11
4 62 9 4 26
4 27 69 18 55
4 36 1 18 11
4 41 20 69 55
4 79 44 28 11
4 16 24 54 7
4 19 54 39 7
4 50 39 64 7
4 8 25 61 3
4 60 64 24 7
4 79 28 67 13
4 19 51 61 49
4 8 61 0 49
4 15 51 28 13
4 19 39 51 13
4 50 67 39 13
4 19 61 54 3
4 14 0 12 49
4 5 35 25 3
4 15 12 51 49
4 16 54 35 3
CELL_TYPES 64
8
8
8
8
8
8
8
8
8
8
8
8
8
8
8
8
8
8
8
8
8
8
8
8
8
8
8
8
8
8
8
8
8
8
8
8
8
8
8
8
8
8
8
8
8
8
8
8
8
8
8
8
8
8
8
8
8
8
8
8
8
8
8
8
CELL_DATA 64
VECTORS vector_value float
-0.180924 -0.532062 0
-0.0780812 -0.725895 0
0.000489778 -0.590428 0
0.217053 -1.0099 0
-0.0155806 -0.473121 0
0.207297 -0.871671 0
-0.40842 -0.692966 0
-0.136123 -0.77806 0
-0.0496968 -0.339397 0
-0.187778 -1.14984 0
-0.240095 -0.88706 0
-0.0426301 -0.501655 0
0.0437441 -0.524723 0
-0.177089 -0.601851 0
0.0763234 -1.53826 0
-0.00443871 -0.78116 0
-0.119069 -0.407686 0
0.172941 -1.2516 0
-0.0245999 -0.408629 0
0.370979 -0.489347 0
0.10133 -0.59871 0
-0.0846545 -1.44963 0
0.230407 -0.73187 0
0.0395475 -0.174677 0
0.0800291 -1.75906 0
0.11038 -0.713277 0
0.369143 -1.47647 0
0.297708 -0.99362 0
0.325957 -0.811954 0
0.29722 -1.45879 0
0.149356 -1.74927 0
0.184605 -0.761243 0
0.355039 -1.1092 0
1.16175 -1.52014 0
0.415336 -1.78163 0
0.31504 -0.543303 0
0.156591 -0.526459 0
0.0791765 -3.09138 0
0.102234 -0.461628 0
0.423655 -1.75275 0
0.0680432 -0.263101 0
0.721246 -2.69756 0
-0.125346 -0.917553 0
0.223727 -0.391021 0
-0.165749 -1.24849 0
0.127182 -1.6219 0
0.0383722 -1.26169 0
0.305229 -0.814139 0
-0.234006 -1.26462 0
0.0773069 -1.49594 0
-0.0356524 -0.940658 0
-0.0338119 -0.343744 0
0.0570841 -1.47532 0
0.737355 -1.19861 0
0.0471821 -1.0234 0
0.0685471 -0.47514 0
0.523348 -1.75112 0
0.0375282 -1.70444 0
0.0714511 -0.62723 0
-0.0732814 -1.23759 0
-0.0066661 -0.524771 0
-0.281237 -0.755904 0
0.194907 -1.13285 0
-0.460483 -0.812853 0
