# vtk DataFile Version 2.0
Unstructured Grid by M++
ASCII
DATASET UNSTRUCTURED_GRID
POINTS 81 float
  1.000000   0.625000 0
  0.750000   0.375000 0
  1.000000   0.000000 0
  0.875000   0.875000 0
  0.750000   0.125000 0
  1.000000   1.000000 0
  0.875000   0.250000 0
  0.625000   0.875000 0
  1.000000   0.750000 0
  0.875000   0.000000 0
  1.000000   0.250000 0
  0.625000   0.375000 0
  0.875000   0.500000 0
  0.625000   0.625000 0
  1.000000   0.500000 0
  0.750000   0.500000 0
  0.750000   1.000000 0
  1.000000   0.125000 0
  0.625000   0.250000 0
  0.750000   0.750000 0
  0.625000   0.000000 0
  0.125000   0.375000 0
  0.000000   0.500000 0
  0.125000   0.625000 0
  0.625000   1.000000 0
  1.000000   0.875000 0
  0.875000   0.125000 0
  0.500000   0.250000 0
  0.625000   0.500000 0
  0.250000   0.625000 0
  0.000000   0.625000 0
  0.375000   0.500000 0
  0.375000   0.000000 0
  0.000000   0.125000 0
  0.125000   0.875000 0
  0.875000   1.000000 0
  0.750000   0.250000 0
  0.375000   0.375000 0
  0.250000   0.375000 0
  0.625000   0.750000 0
  0.125000   0.125000 0
  0.500000   0.000000 0
  0.250000   0.875000 0
  0.125000   0.500000 0
  0.500000   0.375000 0
  0.125000   0.000000 0
  0.250000   0.750000 0
  0.250000   0.500000 0
  0.000000   0.875000 0
  0.875000   0.625000 0
  0.500000   0.750000 0
  0.750000   0.625000 0
  0.250000   0.000000 0
  0.375000   0.750000 0
  0.750000   0.875000 0
  0.625000   0.125000 0
  0.250000   0.250000 0
  0.375000   1.000000 0
  0.375000   0.250000 0
  0.000000   0.375000 0
  0.500000   1.000000 0
  0.875000   0.750000 0
  0.750000   0.000000 0
  0.375000   0.125000 0
  0.500000   0.875000 0
  0.000000   0.000000 0
  0.125000   0.750000 0
  0.500000   0.625000 0
  0.125000   0.250000 0
  0.500000   0.125000 0
  0.250000   1.000000 0
  0.250000   0.125000 0
  0.000000   1.000000 0
  0.375000   0.875000 0
  0.000000   0.750000 0
  0.375000   0.625000 0
  0.000000   0.250000 0
  0.125000   1.000000 0
  1.000000   0.375000 0
  0.500000   0.500000 0
  0.875000   0.375000 0
CELLS 64 320
4 56 71 58 63
4 27 58 69 63
4 41 69 32 63
4 76 33 68 40
4 27 44 58 37
4 79 31 44 37
4 56 38 68 21
4 56 58 38 37
4 52 32 71 63
4 47 38 31 37
4 76 68 59 21
4 22 59 43 21
4 65 45 33 40
4 47 43 38 21
4 52 71 45 40
4 56 68 71 40
4 74 30 66 23
4 46 66 29 23
4 22 43 30 23
4 72 48 77 34
4 46 53 42 73
4 50 64 53 73
4 70 42 57 73
4 74 66 48 34
4 46 42 66 34
4 47 29 43 23
4 70 77 42 34
4 60 57 64 73
4 79 67 31 75
4 47 31 29 75
4 50 53 67 75
4 46 29 53 75
4 10 78 6 80
4 36 6 1 80
4 15 1 12 80
4 36 4 6 26
4 14 12 78 80
4 2 17 9 26
4 36 18 4 55
4 15 28 1 11
4 62 4 20 55
4 10 6 17 26
4 27 18 44 11
4 62 9 4 26
4 27 69 18 55
4 36 1 18 11
4 41 20 69 55
4 79 44 28 11
4 16 24 54 7
4 19 54 39 7
4 50 39 64 7
4 8 25 61 3
4 60 64 24 7
4 79 28 67 13
4 19 51 61 49
4 8 61 0 49
4 15 51 28 13
4 19 39 51 13
4 50 67 39 13
4 19 61 54 3
4 14 0 12 49
4 5 35 25 3
4 15 12 51 49
4 16 54 35 3
CELL_TYPES 64
8
8
8
8
8
8
8
8
8
8
8
8
8
8
8
8
8
8
8
8
8
8
8
8
8
8
8
8
8
8
8
8
8
8
8
8
8
8
8
8
8
8
8
8
8
8
8
8
8
8
8
8
8
8
8
8
8
8
8
8
8
8
8
8
CELL_DATA 64
VECTORS vector_value float
-0.203851 -3.58956 0
-0.861025 -0.676666 0
-0.269017 -0.418958 0
-0.39376 -1.39581 0
-0.154836 -0.516667 0
-0.0800916 -0.361612 0
-0.0891605 -1.50015 0
0.336285 -3.03657 0
-0.187245 -4.83527 0
0.357884 -1.40477 0
-0.0693013 -0.722993 0
-0.233168 -0.2679 0
-0.00649466 -1.56137 0
0.197565 -3.57789 0
0.031724 -0.103259 0
-0.0796329 -0.670536 0
0.00417779 -0.121935 0
-0.0979252 -1.51466 0
-0.0175869 -0.14096 0
0.367332 -0.643417 0
-0.248274 -3.15046 0
-0.332155 -0.245882 0
-0.462191 -1.0345 0
0.0670313 -0.20865 0
0.258918 -1.41499 0
-0.705158 -2.63897 0
0.375952 -1.67641 0
-1.21853 -0.998674 0
-0.173392 -0.43823 0
-0.953915 -2.29311 0
-0.16517 -0.626402 0
-0.252169 -3.21459 0
-0.0260532 -0.115641 0
-0.319855 -0.561854 0
-0.381512 -0.276396 0
0.0462249 -0.170566 0
-0.280055 -0.503405 0
0.00814609 -0.139869 0
-0.15185 -0.932524 0
0.0235538 -1.367 0
0.00498562 -0.275282 0
0.00437014 -0.120605 0
-0.286493 -0.32175 0
0.160801 -0.490243 0
-0.853786 -0.443738 0
-0.45879 -1.22438 0
-0.0480556 -0.175744 0
-0.0446768 -0.241026 0
-0.789319 -0.765504 0
-0.171206 -1.16114 0
-0.408994 -0.887209 0
-0.0420719 -0.441525 0
-0.864018 -1.37393 0
0.103875 -0.860912 0
0.224755 -0.604304 0
0.16922 -0.661307 0
-0.103983 -0.522696 0
-0.0848077 -0.532466 0
-0.112596 -0.724336 0
-0.114347 -0.49014 0
-0.0238384 -0.788092 0
-0.238426 -0.791463 0
-0.0603325 -0.31703 0
-0.643944 -0.716097 0
