# vtk DataFile Version 2.0
Unstructured Grid by M++
ASCII
DATASET UNSTRUCTURED_GRID
POINTS 4225 float
  0.921875   0.593750 0
  0.921875   0.609375 0
  0.656250   0.609375 0
  0.671875   0.609375 0
  0.656250   0.546875 0
  0.671875   0.546875 0
  0.656250   0.562500 0
  0.656250   0.578125 0
  0.656250   0.593750 0
  0.671875   0.593750 0
  0.671875   0.562500 0
  0.671875   0.578125 0
  0.671875   0.625000 0
  0.671875   0.640625 0
  0.906250   0.578125 0
  0.890625   0.578125 0
  0.546875   0.515625 0
  1.000000   0.890625 0
  0.515625   0.640625 0
  0.515625   0.625000 0
  1.000000   0.875000 0
  0.515625   0.656250 0
  0.515625   0.687500 0
  0.515625   0.671875 0
  1.000000   0.921875 0
  0.546875   0.531250 0
  0.546875   0.546875 0
  0.546875   0.562500 0
  0.796875   0.531250 0
  0.953125   0.890625 0
  0.953125   0.875000 0
  0.953125   0.843750 0
  0.953125   0.828125 0
  0.953125   0.812500 0
  0.531250   0.562500 0
  0.531250   0.546875 0
  0.515625   0.562500 0
  0.515625   0.546875 0
  1.000000   0.812500 0
  0.781250   0.546875 0
  0.765625   0.546875 0
  0.859375   0.921875 0
  0.921875   0.671875 0
  0.609375   0.906250 0
  0.671875   0.656250 0
  0.609375   0.921875 0
  0.671875   0.671875 0
  0.671875   0.984375 0
  0.671875   1.000000 0
  0.906250   0.984375 0
  0.906250   1.000000 0
  0.921875   0.984375 0
  0.921875   1.000000 0
  0.859375   0.609375 0
  1.000000   0.781250 0
  0.515625   0.531250 0
  0.531250   0.531250 0
  0.531250   0.515625 0
  0.515625   0.515625 0
  1.000000   0.750000 0
  0.765625   0.531250 0
  0.781250   0.531250 0
  0.781250   0.515625 0
  0.765625   0.515625 0
  0.859375   0.875000 0
  0.921875   0.625000 0
  0.859375   0.890625 0
  0.921875   0.640625 0
  0.671875   0.968750 0
  0.671875   0.953125 0
  0.921875   0.968750 0
  0.921875   0.953125 0
  0.859375   0.593750 0
  0.859375   0.578125 0
  0.875000   0.578125 0
  0.828125   0.890625 0
  0.890625   0.640625 0
  0.593750   0.890625 0
  0.656250   0.640625 0
  0.593750   0.875000 0
  0.656250   0.625000 0
  0.578125   0.890625 0
  0.640625   0.640625 0
  0.578125   0.875000 0
  0.640625   0.625000 0
  0.968750   0.890625 0
  0.984375   0.890625 0
  0.968750   0.812500 0
  0.968750   0.828125 0
  0.984375   0.812500 0
  0.984375   0.828125 0
  1.000000   0.828125 0
  0.656250   0.953125 0
  0.640625   0.953125 0
  0.890625   0.968750 0
  0.906250   0.968750 0
  0.906250   0.953125 0
  0.890625   0.953125 0
  0.531250   0.703125 0
  0.531250   0.718750 0
  0.546875   0.718750 0
  0.546875   0.703125 0
  0.593750   0.578125 0
  0.562500   0.578125 0
  0.578125   0.578125 0
  0.843750   0.578125 0
  0.828125   0.578125 0
  0.828125   0.812500 0
  0.890625   0.562500 0
  0.828125   0.796875 0
  0.953125   0.906250 0
  0.953125   0.921875 0
  0.531250   0.859375 0
  0.593750   0.609375 0
  0.531250   0.843750 0
  0.593750   0.593750 0
  0.515625   0.843750 0
  0.578125   0.593750 0
  0.515625   0.859375 0
  0.578125   0.609375 0
  0.937500   0.859375 0
  1.000000   0.609375 0
  0.921875   0.859375 0
  0.984375   0.609375 0
  0.937500   0.796875 0
  0.921875   0.796875 0
  0.984375   0.546875 0
  0.562500   0.812500 0
  0.843750   0.796875 0
  0.843750   0.812500 0
  0.859375   0.796875 0
  0.859375   0.812500 0
  1.000000   0.906250 0
  0.984375   0.906250 0
  0.968750   0.906250 0
  0.968750   0.921875 0
  0.984375   0.921875 0
  0.593750   0.921875 0
  0.656250   0.671875 0
  0.593750   0.906250 0
  0.656250   0.656250 0
  0.578125   0.906250 0
  0.640625   0.656250 0
  0.578125   0.921875 0
  0.640625   0.671875 0
  1.000000   0.843750 0
  0.984375   0.843750 0
  0.968750   0.843750 0
  0.968750   0.859375 0
  0.968750   0.875000 0
  1.000000   0.859375 0
  0.984375   0.859375 0
  0.984375   0.875000 0
  0.656250   1.000000 0
  0.656250   0.984375 0
  0.656250   0.968750 0
  0.640625   0.968750 0
  0.640625   1.000000 0
  0.640625   0.984375 0
  0.843750   0.921875 0
  0.906250   0.671875 0
  0.843750   0.906250 0
  0.906250   0.656250 0
  0.828125   0.906250 0
  0.890625   0.656250 0
  0.828125   0.921875 0
  0.890625   0.671875 0
  0.781250   0.859375 0
  0.843750   0.609375 0
  0.781250   0.843750 0
  0.843750   0.593750 0
  0.765625   0.843750 0
  0.828125   0.593750 0
  0.765625   0.859375 0
  0.828125   0.609375 0
  0.968750   0.609375 0
  0.906250   0.859375 0
  0.953125   0.609375 0
  0.890625   0.859375 0
  0.937500   0.609375 0
  0.875000   0.859375 0
  0.562500   0.593750 0
  0.546875   0.593750 0
  0.531250   0.593750 0
  0.531250   0.609375 0
  0.562500   0.609375 0
  0.546875   0.609375 0
  0.609375   0.625000 0
  0.546875   0.875000 0
  0.609375   0.640625 0
  0.546875   0.890625 0
  0.625000   0.640625 0
  0.562500   0.890625 0
  0.625000   0.625000 0
  0.562500   0.875000 0
  0.921875   0.843750 0
  0.984375   0.593750 0
  0.937500   0.843750 0
  1.000000   0.593750 0
  0.921875   0.812500 0
  0.921875   0.828125 0
  0.984375   0.578125 0
  0.937500   0.828125 0
  1.000000   0.578125 0
  0.937500   0.812500 0
  1.000000   0.562500 0
  0.578125   0.828125 0
  0.921875   0.781250 0
  0.937500   0.781250 0
  1.000000   0.531250 0
  0.921875   0.765625 0
  0.984375   0.515625 0
  0.937500   0.765625 0
  0.625000   0.656250 0
  0.562500   0.906250 0
  0.609375   0.656250 0
  0.546875   0.906250 0
  0.625000   0.671875 0
  0.562500   0.921875 0
  0.609375   0.671875 0
  0.546875   0.921875 0
  0.859375   0.781250 0
  0.859375   0.765625 0
  0.828125   0.671875 0
  0.765625   0.921875 0
  0.828125   0.734375 0
  0.765625   0.984375 0
  0.875000   0.843750 0
  0.937500   0.593750 0
  0.890625   0.843750 0
  0.953125   0.593750 0
  0.906250   0.843750 0
  0.968750   0.593750 0
  0.906250   0.828125 0
  0.968750   0.578125 0
  0.937500   0.578125 0
  0.953125   0.578125 0
  0.906250   0.765625 0
  0.875000   0.765625 0
  0.953125   0.515625 0
  0.531250   0.781250 0
  0.671875   0.890625 0
  0.531250   0.921875 0
  0.953125   0.656250 0
  0.828125   0.781250 0
  0.843750   0.781250 0
  0.703125   0.984375 0
  0.687500   0.984375 0
  0.843750   0.875000 0
  0.906250   0.625000 0
  0.671875   0.781250 0
  0.734375   0.531250 0
  0.906250   0.609375 0
  0.671875   0.765625 0
  0.734375   0.515625 0
  0.906250   0.593750 0
  0.890625   0.593750 0
  0.875000   0.593750 0
  0.828125   0.875000 0
  0.890625   0.625000 0
  0.656250   0.781250 0
  0.718750   0.531250 0
  0.890625   0.609375 0
  0.656250   0.765625 0
  0.718750   0.515625 0
  0.875000   0.609375 0
  0.640625   0.765625 0
  0.703125   0.515625 0
  0.812500   0.921875 0
  0.875000   0.671875 0
  0.812500   0.875000 0
  0.875000   0.625000 0
  0.640625   0.781250 0
  0.703125   0.531250 0
  0.812500   0.515625 0
  0.750000   0.828125 0
  0.812500   0.578125 0
  0.687500   1.000000 0
  0.937500   0.656250 0
  0.875000   0.906250 0
  0.531250   0.656250 0
  0.890625   0.906250 0
  0.906250   0.906250 0
  0.562500   0.656250 0
  0.906250   0.890625 0
  0.562500   0.640625 0
  0.968750   0.625000 0
  0.906250   0.875000 0
  0.562500   0.625000 0
  0.937500   0.640625 0
  0.875000   0.890625 0
  0.890625   0.890625 0
  0.546875   0.640625 0
  0.953125   0.625000 0
  0.890625   0.875000 0
  0.546875   0.625000 0
  0.546875   0.687500 0
  0.890625   0.937500 0
  0.937500   0.625000 0
  0.875000   0.875000 0
  0.531250   0.625000 0
  0.531250   0.640625 0
  0.546875   0.656250 0
  0.937500   0.968750 0
  0.687500   0.968750 0
  0.953125   0.968750 0
  0.703125   0.968750 0
  0.968750   0.968750 0
  0.718750   0.968750 0
  0.718750   0.906250 0
  0.968750   0.953125 0
  0.718750   0.953125 0
  0.968750   0.937500 0
  0.859375   0.906250 0
  0.921875   0.656250 0
  0.718750   0.937500 0
  0.828125   0.531250 0
  0.937500   0.953125 0
  0.687500   0.953125 0
  0.953125   0.953125 0
  0.703125   0.953125 0
  0.703125   0.890625 0
  0.843750   0.515625 0
  0.953125   0.937500 0
  0.953125   1.000000 0
  0.703125   0.937500 0
  0.937500   0.937500 0
  0.687500   0.937500 0
  0.703125   0.906250 0
  0.718750   0.890625 0
  0.687500   0.890625 0
  0.687500   0.765625 0
  0.750000   0.515625 0
  0.687500   0.781250 0
  0.750000   0.531250 0
  0.859375   0.937500 0
  0.921875   0.687500 0
  0.687500   0.796875 0
  0.750000   0.546875 0
  0.578125   0.750000 0
  0.515625   1.000000 0
  0.843750   0.765625 0
  0.578125   0.734375 0
  0.515625   0.984375 0
  0.562500   0.734375 0
  0.828125   0.750000 0
  0.765625   1.000000 0
  0.562500   0.750000 0
  0.562500   0.718750 0
  0.578125   0.515625 0
  0.921875   0.703125 0
  0.921875   0.718750 0
  0.593750   0.515625 0
  0.687500   0.875000 0
  0.750000   0.625000 0
  0.578125   0.531250 0
  0.921875   0.750000 0
  0.703125   0.875000 0
  0.765625   0.625000 0
  0.593750   0.531250 0
  0.875000   0.968750 0
  0.937500   0.718750 0
  0.703125   0.828125 0
  0.765625   0.578125 0
  0.937500   0.734375 0
  0.703125   0.812500 0
  0.765625   0.562500 0
  0.890625   0.687500 0
  0.828125   0.937500 0
  0.656250   0.796875 0
  0.718750   0.546875 0
  0.890625   0.718750 0
  0.828125   0.968750 0
  0.906250   0.796875 0
  0.718750   0.828125 0
  0.781250   0.578125 0
  0.890625   0.703125 0
  0.828125   0.953125 0
  0.656250   0.859375 0
  0.906250   0.781250 0
  0.968750   0.531250 0
  0.546875   0.796875 0
  0.671875   0.796875 0
  0.734375   0.546875 0
  0.843750   0.953125 0
  0.906250   0.703125 0
  0.671875   0.875000 0
  0.718750   0.812500 0
  0.781250   0.562500 0
  0.875000   0.812500 0
  0.531250   0.890625 0
  0.593750   0.640625 0
  0.937500   0.890625 0
  0.875000   0.781250 0
  0.609375   0.703125 0
  0.546875   0.953125 0
  0.890625   0.796875 0
  0.625000   0.718750 0
  0.562500   0.968750 0
  0.906250   0.812500 0
  0.734375   0.859375 0
  0.796875   0.609375 0
  0.718750   0.875000 0
  0.781250   0.625000 0
  0.750000   0.859375 0
  0.812500   0.609375 0
  0.812500   0.546875 0
  0.750000   0.812500 0
  0.734375   0.843750 0
  0.796875   0.593750 0
  0.750000   0.843750 0
  0.812500   0.593750 0
[...]
CELL_DATA 4096
SCALARS scalar_value float 1
LOOKUP_TABLE default
0.00390797
0.0075686
0.0247875
0.00949537
0.00595939
0.0106042
0.00255771
0.00101271
0.0164842
0.0219696
0.0120098
0.0165441
0.0175927
0.0197414
0.00904613
0.00759984
0.248339
0.11346
0.516255
0.464537
0.00998651
0.025593
0.0928009
0.0791808
0.0185848
0.0309489
0.00443358
0.00439281
75788.7
98859.3
90990.2
85777
0.14492
0.0485087
0.0559273
0.178798
54590
77472.5
39374.7
43197
87.1972
31.1406
5.19363
39.9678
0.629711
0.253178
0.115923
0.315156
122.808
764.608
110.749
8.26938
0.123426
0.213431
1.13166
0.26715
622.45
6290.04
14671.8
3887.7
0.0973426
0.040005
0.193236
0.284152
1.90174
11.9572
62.6586
30.8775
0.0102023
0.036148
0.0301869
0.0445968
19.5554
100.959
413.909
153.195
0.15205
0.0861535
0.119926
0.148265
125.319
42.0956
147.59
541.205
596.015
1196.57
837.107
385.069
4.21876
14.3964
4.94555
2.19442
0.00297808
0.0114818
0.0156741
0.00352015
3965.34
3554.98
4664.18
7850.96
134.892
106.481
411.389
485.971
187.399
69.9007
16.4521
53.469
0.0888283
0.0245569
0.00657945
0.0316065
825.457
1404.86
188.487
330.502
26075.1
3600.13
2720.74
8798.21
1270.5
449.673
1384.38
4836.03
0.0063077
0.00591994
0.00512822
0.0037867
2.05866
21.2539
30.2364
3.44675
119.182
898.555
209.903
128.85
0.0523473
0.0670646
0.129752
0.069572
4.67078
12.6297
11.8009
8.25355
0.00507454
0.00496763
0.0117324
0.0051535
25.9259
31.2044
122.213
107.656
4.14761
2.02442
4.19313
13.8721
0.000312911
0.000316271
0.000148602
0.00023146
4.84187e+06
4.29871e+06
1.20525e+07
2.12287e+07
0.000864363
0.000530912
0.000969698
0.0032334
2.13041e+06
1.3017e+06
208752
643214
9.69728
7.28923
2.5585
7.7071
4.19032
3.65736
2.59425
5.45228
0.000212944
0.000394441
0.000467749
0.000620437
269131
1.76219e+06
3.45091e+06
722334
111.155
60.9099
77.0215
98.5403
2.55495
2.78483
6.48849
7.89309
0.000378885
0.000319603
0.000514397
0.00164001
1.42895e+07
0.646921
0.0101789
241.264
3.12304e+06
0.0133024
0.0150154
0.0531457
0.32177
0.0114817
0.221625
0.011763
2.59582
0.00447825
1.1016
0.0193077
2.79997
0.00860601
6.9251
0.00688399
9.03781
0.0218347
4.6477
0.385814
0.0404588
0.286363
0.572052
0.684456
0.0653157
488535
0.221861
0.245683
0.0184822
14.3473
0.018888
13.0109
0.0101685
16.954
0.00366643
1.74994
0.00492905
0.80152
0.0939102
5.82111
0.0916144
19.0031
0.0660752
1.91733
0.345747
0.298376
2.3429e-05
0.0391468
1.37521
2.57419e-05
0.054578
0.000135966
0.0470746
0.703117
0.000222372
0.120868
0.26786
26.8216
0.187024
6.13773
0.175463
56.9551
0.0433066
1.33443
0.330668
90.0317
106.417
0.233993
460.944
0.0366717
3.52078
0.0492648
12.2903
0.174053
2.51792
2.9145
0.190707
2.86985
1.24946
0.0428263
9.97919
3.13557
0.484523
7.5776
0.12287
2116.52
4.70212e+06
0.0041764
0.00448131
5.64104
0.0113322
6.79157
0.00429638
11.1568
0.0273042
0.00141875
59.7734
0.0254469
30.385
0.0129981
7.29124
0.0432147
23.5645
0.00332072
0.00251286
0.0744875
64.5005
0.0268638
4.61005
0.291471
0.627496
1.4943
4.77793
0.0119854
4.21942
0.00428325
0.863973
0.00194235
0.506353
0.0135377
7.30827
0.0132657
1.8746
0.0138688
0.938741
0.0194452
0.79501
0.279126
2.00372
5.1216
8.21713
5754.1
0.0183658
0.34977
2884.76
20860.7
0.113524
2.18568
0.0266175
3.17294
7676.59
0.223738
15.7983
0.0207558
1.07573
1.1508
10801.1
11.9285
19361.3
0.02694
0.869081
0.0968644
0.336742
0.182102
0.299948
0.000140572
0.0873604
2.22802e-05
0.0563834
0.0154181
0.50179
3.30908e-05
0.0348824
0.121685
0.235378
0.167696
0.0666414
1.59736
0.0542902
1.08414
0.0152345
2.09108
0.0354046
3.91445
0.139781
0.100742
35.6343
2.72373
0.145811
13.7444
2.03867
0.0213385
4.34934
0.0611146
0.737265
1.07876
0.155444
3.53865
6.22616
3.40005
0.358559
1.00042
14.5595
0.0150919
23.5211
4.10248
0.724122
1.97228
14.7758
0.0201875
4.86136
0.0774484
0.0598513
0.655599
13.0086
0.0370345
2.75014
0.0303677
1.56261
0.00875635
1.55246
0.00650759
1.78919
0.0141113
0.653881
0.00635186
0.482805
0.00724206
0.433317
0.0122214
0.00636283
1.08804
0.000198309
4.81214e-05
0.00260304
5.23871
0.000320712
0.00119383
3.77868
1.07227
0.000103026
0.000976139
1.03949
0.000425035
0.00135838
0.00461236
1375.21
1.08298e+06
0.0222333
0.264673
0.000125006
1.95819e-05
939.235
6.31688e+06
0.00181139
1.46598e-05
5.06501e-05
0.000918574
0.00173279
0.00528602
2.13023
0.00506659
5.4081
0.00645299
6.23283
0.00872155
2.27779
0.0106109
0.00153392
24.2814
3.44386
8.27616e-06
0.00273797
0.00110136
1.77857e-05
0.00449277
7.2179
0.114121
816.35
0.514403
5.20589e-05
0.000582559
0.806008
0.00545093
39904.5
1.21085e+06
888464
144188
9.8606
0.0212109
3079.95
4.63746
1.1704
202384
19302.5
0.336406
18.1956
0.00311688
2.83269
0.00509582
0.00416278
879.479
0.274215
3.04165e-05
0.00175448
0.00163724
9.93651e-05
0.00103278
7.57244
0.186509
6.03835
0.473195
0.286311
70.9477
0.000222434
0.00587751
0.0075673
4687.04
0.182459
0.198929
0.000433624
0.000912026
0.000489684
0.000371331
0.175072
0.641499
14372.8
0.668934
4034.51
3.11341
1.96773e+06
158.57
14.2578
9.93098
0.00981133
35.347
1.25938
0.00340532
4.51019
275979
0.372077
88.5014
0.0049509
0.00248009
14.6109
0.0219937
0.248821
1.05627
253094
0.00671464
0.0371466
13.4316
0.0107275
2.03377
45613.3
4.43005
1.92325
58844.2
0.00485975
0.00194651
29.5128
0.0142772
0.212773
14.0568
9466.99
0.445846
3.23729
4.17007e+06
32.9707
72.6738
0.858957
19.242
0.00445172
0.403845
0.0516069
5.11553
1170.42
11.7682
51997.3
2.49082
0.263926
0.00184783
0.0155223
0.0319971
6482.62
0.334167
0.73719
0.110793
1.66981
99.8188
0.744969
6.91137
6046.07
0.44455
1.35387e-05
0.020864
1.08731e-05
0.0110949
13816.2
0.758183
0.804107
363.874
91528.2
1.07076
0.446391
18.2541
0.0241049
18502.8
0.000765358
2490.86
0.169465
10.0852
27048.5
1.06708
0.0994052
24364.3
1.47152
0.687055
547068
43.8444
5.62664
0.866455
6.04639
0.0139667
6.41981
192800
6.61843
3.94757
245.582
0.00704195
0.0187409
0.13119
0.320636
3001.22
0.228575
0.000871125
0.0109005
0.00490699
40.07
0.0266934
210.204
0.292458
0.636958
922.124
0.0176047
1.67672
0.00929626
0.0152656
987.701
0.0866063
0.0202379
0.0558812
1647.83
0.0283825
0.60039
1461.21
0.0332826
0.0553047
0.0427319
0.0238852
0.020542
0.053445
0.0128119
0.0415033
0.00130943
0.397913
0.000129453
0.125533
0.00291009
0.193582
0.012732
0.136703
58875.8
1.76287
6.4854
0.0253624
0.00477022
0.260029
2.28676e-05
0.112628
3.70386
0.0517875
0.99255
0.0746339
0.197735
0.345761
0.911695
112043
10.2815
0.0169589
0.815787
0.0354294
11.9557
0.00234091
0.80076
0.104951
0.22648
0.0370636
489893
0.0526895
10.3905
8.78844
0.00796849
0.191723
0.0294945
0.0470739
18264.1
0.798878
2417.82
0.290161
4922.6
0.549232
565.502
0.163857
2216.66
0.0759862
9238.55
0.174874
0.0300287
0.000126526
0.0035281
9.33587
0.00018766
0.00278514
5.80802
1.77169e-05
6161.59
8.17392
0.00365043
5.52152e+06
147.818
12.2646
0.00618977
467166
14.3698
0.00805745
71.2003
0.242454
0.148224
3.66767
0.0327616
77655.9
0.668384
0.117186
3883.07
0.289409
0.0756815
1.86521
51054.4
0.502658
0.107491
0.514183
11476.2
0.374211
0.036961
0.626973
992788
2.17301
39700.3
0.0128493
9.08498
0.0170557
8.07204
0.0387098
14.8058
0.0157599
10.7427
1.53241e-05
0.00941632
1.69445e-05
0.00459473
1.15626e-05
0.0275041
1.8762e-05
0.0323815
0.356903
0.000746551
0.442873
0.00106392
0.316263
2.19142
0.00456861
0.540308
0.00237179
0.864171
115622
53614.4
58059.8
36546.7
0.000453174
0.000882272
0.00135947
0.000846076
5880.28
3619.13
1557.26
2775.53
0.00207501
4.88651
0.00134643
2.4665
0.00101424
3.70762
0.00140936
6.37786
0.682398
0.010187
5.21126
0.0211152
11.1511
0.0202445
1.02239
0.00866271
0.0195353
0.0652798
0.089818
0.0393304
0.268112
0.420783
1.54607
1.66101
37.883
214.221
40.9232
213.968
38.587
250.033
45.3073
145.922
997166
454718
786383
1.24509e+06
0.28402
0.272003
0.241561
0.179623
0.0135259
33.4026
0.0224013
13.7863
0.0281973
24.861
0.0353976
16.7953
0.573539
0.106959
0.244331
0.387971
5.89439
3.66047
8.37966
11.9904
0.0470513
0.000645172
0.0173839
0.0171105
0.0446638
0.00294856
0.00130448
0.00273211
0.0111099
5248.06
3.57529
3629.47
9.48861
523.333
21.9184
1274.21
12.0496
0.665762
0.229351
3.24389
0.047678
6.95437
0.0571087
2.60505
0.0956603
0.157628
2.82532
0.15605
5.24443
0.466887
2.52373
0.406708
2.06124
12798
7913.92
7460.4
18454.1
0.0060009
3.35497
0.00228838
1.41141
0.000919055
3.39797
0.00233442
2.31698
2.47494
951.328
6.70315
225.376
20.6443
237.44
18.7776
2299.79
0.000535931
0.605045
0.000854726
2.31866
0.00076868
2.76781
0.00133546
1.25136
0.0105486
0.0244546
0.0936551
0.0541079
4.64536
3.8992
4.57106
10.484
0.0899697
0.0981775
0.157909
0.0542194
1.21618
0.321036
1.87454
0.469044
0.593333
1.51859
0.276178
0.459114
14.1338
26.446
18.6815
84.4702
38.5163
242.606
10.6742
131.317
120181
74959.6
454505
349378
0.161303
0.168551
0.329065
0.194305
0.00128821
0.00764712
0.00371548
0.000810029
2.00624
7.36515
3.63833
1.29354
0.497486
0.00387459
1.83637
0.00258451
5.89054
0.00975806
2.71849
0.00997216
0.408716
2207.07
0.63222
1.08176
0.314595
1.0595
2.50794
0.480775
7.08768
12782.2
16734.2
19321.7
30743.1
0.00175047
0.65097
0.00160551
1.012
0.000490038
1.65532
0.000857136
1.11281
4.00867e-06
4.45962e-06
5.36965e-06
1.34748e-05
0.000827416
0.00338886
0.00608258
0.00164062
0.0100678
0.00732287
0.00352247
0.00550197
9289.3
1.82377
22918.3
3.68372
288255
0.772775
64212.6
0.43322
0.185477
0.173006
0.0694762
0.0683504
0.0341639
0.00830894
0.00456431
0.00961172
0.152864
0.0691639
0.0413786
0.208512
0.332667
0.552208
0.560604
0.431343
0.0268207
0.0469868
0.0220577
0.0129753
1.4731e+07
4.19422e+06
1.87833e+06
516.915
426.818
137.537
599.982
1232.14
532.965
820.432
3227.7
1162.83
536.882
1346.34
3417.98
87.8041
264.752
287.922
49.1763
6812.68
3201.59
2205.9
1369.94
489.774
158.63
148.999
360.024
4161.78
771.929
3678.74
13799.3
66547.3
81824.7
76744.8
70384.3
1976.04
384.393
214.145
3472.9
2791.31
1605.11
1620.77
6694.26
457.472
35.9485
169.855
495.79
1704.72
981.237
4037.06
2775.78
878.79
978.504
564.49
844.811
22.648
5.82408
1.06393
5.0464
630.937
582.195
799.963
986.234
1997.69
2543
1521.18
1229.13
125.324
460.552
74.0339
26.9264
164.612
204.921
287.242
120.358
2285.75
6212.12
7001.36
5197.75
0.00033346
0.000426473
0.0012667
0.00128614
0.000393169
0.000311347
0.000827187
0.00185324
0.00020959
0.000171365
0.000354066
0.00260903
0.000416581
0.000309635
0.00193316
0.0522014
0.0346979
0.179801
0.326762
948.502
231.104
158.541
363.431
0.00918867
0.019278
0.030961
0.0153522
0.0707523
0.0383902
0.00850754
0.0146348
73.1899
145.335
102.308
73.0879
0.162611
0.105035
0.190783
0.891858
143.068
285.739
943.157
482.607
893.147
983.676
2358.45
5938.31
103.628
382.214
816.597
192.333
13.0027
9.50402
2.63177
1.54289
269.912
129.075
89.9404
157.58
0.31239
0.0540315
0.369437
1.24937
0.00607939
0.0017439
0.00332895
0.00853858
68860.3
127696
19752.4
18949.6
188289
78928.3
34348.6
125495
96011.3
112785
89513.4
85037.3
848.754
651.958
551.881
1216.06
626.349
157.365
123.873
477.066
124252
170557
99541.9
101489
817.088
409.261
136.123
336.364
3474.17
11637.7
12797.5
3578.94
0.0300623
0.0217208
0.338681
0.656087
3303.49
4970.24
10262.1
11094.1
11619.2
6815.99
2619.74
5570.03
35821.8
52879.3
52861.7
51579
51687
14598.5
11438.7
26214
7776.45
24346.9
9221.51
2911.44
18565.7
5491.03
0.940803
1.01494
0.68345
14098.1
0.44054
0.317872
3413.25
0.386622
0.000588962
62.3733
403.846
2.39531
31.6843
0.08092
111.516
426.608
0.0196555
1044.9
0.026438
764.599
0.0118013
0.00474105
5259.54
0.00717691
12672.9
18.2205
24.9701
0.475773
1.48968
90.3056
0.545394
1544.5
1319.38
2134.56
0.000249915
4.12954
6460.21
0.000851995
2.98849
214.194
62.4577
48.2493
136.469
0.000367302
2.77461
0.000238891
12.7167
42.5213
0.00151551
7.1219
7.68961
95.3624
0.00128979
2.0796
43.8461
2.23789
253.558
52.1247
98.376
16.8298
109.299
3912.15
0.00381581
4.51762
98.4295
2380.85
0.000818997
506.366
18.5433
1.90426
462.356
0.468336
8056.36
690.698
0.000282311
1.36993
1588.1
759.228
0.000289657
209.723
0.000149215
27847.8
0.182554
102471
0.0823126
103302
0.582879
21106.6
0.997191
0.00166327
806.397
0.0034021
602.721
0.306068
1.16005
0.0448019
2.42528
0.493255
0.409319
0.00611846
114.618
8509.06
0.0116676
62359.5
0.0418029
13442.1
0.0602902
8327.48
0.0257239
0.000450012
26967
0.000713589
6778.91
0.000881684
2294.73
0.000874521
10703.5
0.0772156
80058.9
4.05075
2791.15
12.5767
1352.9
1.39633
0.921666
1.96724
3.77771
12.5953
4758.41
7.00002
14.1114
22988.7
4.1762
1448.81
32.9101
3131.54
86.8999
35.4763
10.1909
3.73652
20.2542
9759.35
4.16318
18.1613
46.0737
66.2142
4.95246
3039.28
19300.6
0.0014876
8.09753
1770.74
103.804
3.67673
6933.84
3.72162
12805.1
0.138071
2213.7
0.208701
6735.37
0.000928667
4708.34
418.25
1268.73
29.1809
1950.76
217.088
601.453
2.55038
51.0174
16.7602
49.889
40.8202
4980.16
3.98144
328.141
1.29412
149.755
0.0082247
7840.1
0.00969728
10220.8
0.00405472
21691.1
232.46
138.677
170.192
8001.43
49.1376
78.0918
1603.19
719.647
7.2232
3787.57
727.074
22.2851
1515.98
241.574
7310.8
15.306
29.0308
7.68502
3.9261
0.000595935
55.2875
0.000761128
2469.02
881.883
185.823
291.324
2426.47
0.0394553
0.108113
17.2664
2.63727
6.53883
811.455
285.874
0.0147143
17079.4
0.00359048
8101.8
0.0162959
11242.4
0.00641862
36797.9
0.00731713
4783.68
0.00661835
17603.3
0.012806
74923.9
0.0443437
384.205
0.0108913
49898.6
1.78687
109.667
42955.4
0.0064526
0.312053
803.528
5.07239
3.38316
47294
0.516082
0.00555605
9891.6
92.5748
0.00022739
104663
63.4865
0.00164762
107481
0.00947672
200.327
0.0627207
191787
4282.69
8.38499
0.458742
116929
12132.2
54.1549
0.0454248
13161.7
0.000351881
0.0913204
14.0247
185.576
0.000811933
3218.49
6292.63
0.00146789
0.00601591
33372.5
0.0380654
0.00263198
4164.65
210.696
0.000172349
25983.6
0.000544067
0.0045357
12982.4
0.0250468
35583.4
0.0141045
54685.2
0.0052776
22705.4
0.103025
89857.9
113.591
0.000664047
34.8363
0.209574
1817.7
2.06898
0.0362317
2215.74
916.683
0.52312
405.684
1306.98
0.000390299
2.30197
1187.81
2.99815
0.0042528
1369
8976.17
14.0926
1.2916
10.1362
0.0135104
4455.25
669.542
8458.59
12.1712
249.072
704.607
1.47384
0.124722
23770.7
384.298
0.201959
0.0603413
143475
0.0316588
4884.23
0.00660103
22616.3
2.45998
35.0744
0.580647
4797.6
0.301699
338.137
0.00831561
9972.07
0.015714
71682.9
0.0194665
36425.1
39370.7
0.00379148
0.00525811
70704.1
0.00717587
45347.3
0.00691969
34888
73518.7
0.290513
1032.35
944.187
11792.9
634.697
127.584
3342.93
0.0574053
0.000349034
15957.6
460.623
5699.2
548.54
0.949228
3267.39
266.675
0.0416117
1456.94
111.776
4338.12
487.376
0.256989
124.694
0.00206133
1663.14
6448.73
1071.43
91.9591
580.413
1053.73
18.3
0.08108
928.47
0.433484
2270.03
0.0153329
2233.04
0.0364757
762.346
102.775
2854.22
8.16617
2.35988
1680.41
216.798
0.000446289
3.01269
6.85483
165547
0.419582
1538.54
1527.46
5219.9
50.4196
1351.43
0.000992275
0.0089206
2539.66
1092.17
3871.15
0.164389
51.287
5.71728
4305.29
215.211
0.000257487
0.190983
0.0061779
793.432
4321.14
0.000407481
46.7985
2663.59
20664.1
0.00690767
1765.33
0.00136551
591.669
0.000234749
12063.3
2583.55
6577.39
6228.31
1870.23
30263.8
0.00332365
53.4666
138.096
7.78619
591.895
31115.5
0.00628189
49.331
6.33673
0.00107603
0.000137358
63103
201.775
1054.4
12964.4
17.9506
0.000225248
0.0477928
349.914
161.129
3269.51
597.642
4.80645
49275.6
1.89708
0.0297253
100.188
925.675
3.90748
15752.6
0.566783
0.0252527
6.03465
339.642
0.975932
825.176
2851.9
472.5
1.0548
28.111
3.50691
14.7905
354.499
0.00435976
23447
0.00464004
0.00205705
217.204
0.0139515
12232.3
3182.34
2165.07
9463.02
198.399
0.105923
870.244
41359.7
5.84288
0.0158432
751.94
0.0115576
694.595
20284.7
58.2323
0.106012
342.914
8.784
1.92194
54736.6
6.22497
8.23209
9557.97
59.0137
0.0463641
14874.1
0.0110384
22819.6
0.00415482
27906
0.0179482
15225.9
8.75536
21992.4
7.51579
7916.57
0.0458764
8415.74
0.0323478
136.905
0.0186208
1345.88
76.6368
8103.94
0.0911644
47.1628
0.321748
93924.6
6.90571
91034.7
0.0271916
130.836
855.204
316.51
44.0445
1667.57
14.0097
2303.37
33.609
3693.23
19.7261
1912.61
10.3547
128.401
267.511
355.119
188.684
0.025581
0.186228
0.439086
0.104124
0.106809
0.126362
1.10588
0.255289
82.5689
1343.67
36.927
2001.31
41.268
3957.95
43.4045
4505.32
413.198
234.323
73.6117
130.766
1106.33
333.672
649.736
1316.92
1.37645
7.20969
2.07563
0.48431
0.0376867
0.00452235
0.00876576
0.0594625
1923.76
1.615
845.452
0.741689
1618.26
0.103904
3912.25
0.142667
18878.7
46.719
17390.4
19.2061
38237.8
1.38617
57896.1
8.24457
0.000377412
0.000868773
0.00155856
0.000950862
32.4688
36.5354
19.9076
18.5892
0.38568
5.91786
226.451
1.13977
218.124
0.653887
31.5811
5.02613
86.5825
3.53816
875.444
2.2578
1675.89
2.73728
3704.48
4.60919
2567.73
2375.26
0.062832
1469.29
0.118986
1014.3
0.404598
4204.19
0.132627
0.0874452
0.0781217
0.0158653
0.0355227
0.00375219
0.0940097
0.0203648
0.00287905
0.00104928
4074.57
0.0087329
6545.58
0.0119021
70530.1
0.00283862
12280.3
0.00514991
82.776
0.155896
141.423
0.322219
218.229
0.20109
198.838
0.215886
1327.04
2336.56
665.724
608.076
4398.27
94856.8
0.00421341
76770.9
0.00874812
112883
0.0128209
82697.4
0.00911697
42013.1
1.74847
7767.06
4.93655
17532.7
7.26136
47724.8
2.6316
65111
0.047032
87588.7
0.020308
29430.2
0.18656
5249.19
5.43798
21986.6
2.61629
11280.4
7.62049
1592.13
15.07
0.000281741
139.113
0.000372624
82.4086
0.000135627
293.406
0.545636
0.00019893
484.502
1.799
1.60127
0.514229
2.05853
267.743
4.48179
89.3319
13.1477
369.804
0.857039
737.997
0.583172
2.5775
2.15437
2.8679
2.19237
724.486
324.159
385.877
1557.68
0.0196729
0.00211171
0.00111168
0.0058976
82443.2
0.000886544
100513
0.000564826
48959.9
0.00117489
64476.4
0.00155219
261.532
721.773
94.7391
95.362
1024.47
801.318
936.1
2177.13
8.88361
6.57845
14.2727
33.6159
800.194
1377.47
782.963
767.684
0.746232
0.238178
0.619718
1.85525
0.0023664
0.00327399
0.00206018
0.0043518
392.675
126.604
253.201
567.24
2059.81
1020.33
746.609
1621.52
6.18495
37.3015
15.5378
2.17256
0.0397313
0.552019
0.261123
0.0142095
0.00172933
0.00820764
0.00465916
0.00202485
156.419
24758.3
33.1631
44958.5
44.9865
15767.9
173.373
4.54489
6338.68
0.287545
13664.5
0.838184
33197.9
5.5347
6957.6
0.204419
0.983368
4.8676
1.28326
0.00373199
0.0087493
0.11069
0.0314371
0.331331
0.0704166
42.5607
83.9437
51.172
13.5465
2227.2
700.122
240.369
179.237
26.0725
35.4196
98.0303
142.125
3.96125
5.17105
30.3851
18.9371
0.0131369
0.00214777
0.00292329
0.0124793
0.348478
0.0206766
0.147693
2.93214
3.12011
8.15772
77.444
31.0964
0.00058341
0.00533186
0.0254822
0.00317183
0.00170975
0.000661292
0.000479501
0.00118394
17405
37689
32823.9
24431.2
11100.1
5615.33
3125.04
3830.18
4722.9
1811.83
1792.29
32946.1
19349.9
15428.6
75129.4
26.366
3.73618
6.05188
28.8469
0.00800583
0.00811676
0.044755
0.0337328
1.50391
2.39285
9.72418
3.36374
0.0216617
0.00517477
0.00174058
0.00449897
0.00226516
0.000204266
0.000326484
0.00323195
0.193748
0.769557
0.4913
0.195049
0.0210635
0.0351187
0.0299248
0.00829792
1.30276
1.24026
0.329216
0.768455
0.0789091
0.0521723
0.134556
0.119612
116.929
116.128
805.235
836.752
11.1154
8.39322
34.158
117.723
0.241519
0.28361
0.00636592
0.00855791
0.0915078
0.0980727
0.0215466
0.0109817
108.093
13.7215
4.49747
26.9024
12.1155
1.04523
1.254
10.3911
0.00820037
0.140146
0.0785492
0.00760924
0.0407708
0.2185
0.395312
0.0314315
9.78154
4.59293
1.98775
1.4657
0.0415467
0.100373
0.14461
0.0419068
67246.9
13744.2
5888.95
12251.7
4259.79
1124.28
162.212
747.507
0.0223187
0.0525661
0.0250473
0.00971619
41675.1
78681.1
3705.57
3035.93
7670.7
8830.15
0.00320429
0.00820125
0.0144419
0.00353952
10479.4
20422.3
20435.5
12703.4
67593.8
46827.3
125239
100959
1049.57
7042.35
1623.23
44.9926
310.359
39.3672
7.93585
0.137811
0.0654347
0.0791061
0.0752438
0.464189
0.210818
0.0229668
0.0301848
33.2083
4.80445
7.06062
51.2947
6.5894
3.65711
49.8711
35.851
0.0157552
0.213084
0.254971
0.00839926
105019
25393.3
15108.3
23681.3
0.0457184
0.0343011
0.0248505
0.0261065
0.0131443
0.0422249
0.0456996
0.0426083
9899.79
22353.8
63182.8
20657.2
0.0346696
0.0444318
0.00984618
0.0117073
10092.5
9544.09
3130.77
2438.33
0.0533442
0.0493395
0.106726
0.313581
4401.08
31.2319
0.0496537
288.657
8241.45
0.0289533
324.317
3438.53
2.4999
0.00464728
0.779775
0.00881708
0.28773
0.00302155