# vtk DataFile Version 2.0
Unstructured Grid by M++
ASCII
DATASET UNSTRUCTURED_GRID
POINTS 1089 float
  0.718750   0.687500 0
  0.750000   0.687500 0
  0.718750   0.656250 0
  0.750000   0.718750 0
  0.625000   0.562500 0
  0.625000   0.593750 0
  0.656250   0.593750 0
  0.750000   0.750000 0
  0.687500   0.656250 0
  0.687500   0.625000 0
  0.656250   0.625000 0
  0.906250   0.593750 0
  1.000000   0.968750 0
  0.750000   0.968750 0
  0.718750   0.968750 0
  0.718750   1.000000 0
  0.750000   1.000000 0
  0.906250   0.906250 0
  0.843750   0.531250 0
  0.656250   0.937500 0
  0.656250   0.906250 0
  0.562500   0.812500 0
  0.562500   0.843750 0
  0.593750   0.875000 0
  0.593750   0.843750 0
  0.812500   0.718750 0
  0.625000   0.625000 0
  0.968750   0.875000 0
  0.531250   0.875000 0
  0.625000   0.937500 0
  0.562500   0.562500 0
  0.906250   0.812500 0
  0.531250   0.781250 0
  0.562500   0.593750 0
  0.906250   0.843750 0
  0.625000   0.656250 0
  0.968750   0.906250 0
  0.687500   0.968750 0
  0.812500   0.812500 0
  0.687500   1.000000 0
  0.687500   0.687500 0
  0.937500   0.843750 0
  0.593750   0.593750 0
  1.000000   0.625000 0
  0.968750   0.593750 0
  0.906250   0.875000 0
  0.968750   0.625000 0
  0.625000   0.875000 0
  0.875000   0.875000 0
  0.625000   0.906250 0
  0.875000   0.843750 0
  0.531250   0.812500 0
  0.968750   0.562500 0
  0.593750   0.625000 0
  0.937500   0.875000 0
  0.656250   0.687500 0
  1.000000   0.937500 0
  0.875000   0.562500 0
  0.687500   0.937500 0
  0.937500   0.625000 0
  0.812500   0.781250 0
  0.937500   0.562500 0
  0.875000   0.781250 0
  0.531250   0.531250 0
  0.718750   0.937500 0
  0.968750   0.937500 0
  0.906250   0.562500 0
  0.843750   0.781250 0
  0.593750   0.562500 0
  1.000000   0.906250 0
  0.656250   0.656250 0
  0.937500   0.906250 0
  0.875000   0.531250 0
  0.812500   0.750000 0
  0.656250   0.968750 0
  0.937500   0.531250 0
  0.843750   0.812500 0
  0.906250   0.531250 0
  0.843750   0.750000 0
  0.937500   0.593750 0
  0.875000   0.812500 0
  0.531250   0.562500 0
  1.000000   0.593750 0
  0.562500   0.906250 0
  0.562500   0.531250 0
  0.593750   0.906250 0
  0.593750   0.937500 0
  0.562500   0.875000 0
  0.781250   0.750000 0
  0.781250   0.781250 0
  0.593750   0.531250 0
  1.000000   0.687500 0
  0.531250   0.843750 0
  0.718750   0.718750 0
  0.781250   0.718750 0
  0.781250   0.687500 0
  1.000000   0.656250 0
  0.968750   0.656250 0
  0.843750   0.843750 0
  0.781250   1.000000 0
  0.656250   0.312500 0
  0.531250   0.250000 0
  0.875000   0.500000 0
  0.531250   0.218750 0
  0.875000   0.468750 0
  0.531250   0.156250 0
  0.593750   0.812500 0
  0.093750   0.562500 0
  0.656250   0.562500 0
  0.156250   0.312500 0
  0.031250   0.812500 0
  0.125000   1.000000 0
  0.312500   0.250000 0
  0.250000   0.500000 0
  0.375000   0.000000 0
  0.187500   0.750000 0
  0.812500   0.906250 0
  0.312500   0.656250 0
  0.250000   0.906250 0
  0.875000   0.656250 0
  0.375000   0.406250 0
  0.750000   0.843750 0
  0.250000   0.593750 0
  0.187500   0.843750 0
  0.812500   0.593750 0
  0.312500   0.343750 0
  0.625000   0.968750 0
  0.125000   0.718750 0
  0.687500   0.718750 0
  0.187500   0.468750 0
  0.062500   0.968750 0
  0.125000   0.656250 0
  0.187500   0.406250 0
  0.250000   0.156250 0
  0.062500   0.906250 0
  0.468750   0.906250 0
  0.656250   0.156250 0
  0.468750   0.812500 0
  0.593750   0.312500 0
  0.656250   0.062500 0
  0.625000   0.812500 0
  0.125000   0.562500 0
  0.687500   0.562500 0
  0.187500   0.312500 0
  0.062500   0.812500 0
  0.562500   0.937500 0
  0.062500   0.687500 0
  0.625000   0.687500 0
  0.125000   0.437500 0
  0.000000   0.937500 0
  0.062500   0.625000 0
  0.187500   0.125000 0
  0.125000   0.375000 0
  0.000000   0.875000 0
  0.406250   0.875000 0
  0.468750   0.625000 0
  0.593750   0.125000 0
  0.812500   0.937500 0
  0.312500   0.687500 0
  0.250000   0.937500 0
  0.875000   0.687500 0
  0.375000   0.437500 0
  0.750000   0.875000 0
  0.250000   0.625000 0
  0.187500   0.875000 0
  0.812500   0.625000 0
  0.312500   0.375000 0
  0.468750   0.781250 0
  0.593750   0.281250 0
  0.656250   0.031250 0
  0.625000   0.781250 0
  0.125000   0.531250 0
  0.062500   0.781250 0
  0.687500   0.531250 0
  0.187500   0.281250 0
  0.500000   0.812500 0
  0.687500   0.062500 0
  0.625000   0.312500 0
  0.656250   0.812500 0
  0.156250   0.562500 0
  0.718750   0.562500 0
  0.218750   0.312500 0
  0.093750   0.812500 0
  0.437500   0.968750 0
  0.625000   0.218750 0
  0.500000   0.781250 0
  0.687500   0.031250 0
  0.625000   0.281250 0
  0.656250   0.781250 0
  0.156250   0.531250 0
  0.718750   0.531250 0
  0.218750   0.281250 0
  0.093750   0.781250 0
  0.062500   0.562500 0
  0.125000   0.312500 0
  0.187500   0.062500 0
  0.000000   0.812500 0
  0.406250   0.812500 0
  0.968750   0.812500 0
  0.468750   0.562500 0
  0.593750   0.062500 0
  0.218750   0.687500 0
  0.156250   0.937500 0
  0.281250   0.437500 0
  0.062500   0.843750 0
  0.687500   0.593750 0
  0.187500   0.343750 0
  0.625000   0.843750 0
  0.125000   0.593750 0
  0.312500   0.843750 0
  0.437500   0.343750 0
  0.500000   0.093750 0
  0.375000   0.593750 0
  0.312500   0.906250 0
  0.937500   0.656250 0
  0.437500   0.406250 0
  0.875000   0.906250 0
  0.375000   0.656250 0
  0.062500   0.875000 0
  0.187500   0.375000 0
  0.250000   0.125000 0
  0.125000   0.625000 0
  0.093750   0.656250 0
  0.031250   0.906250 0
  0.218750   0.156250 0
  0.156250   0.406250 0
  0.593750   0.968750 0
  0.093750   0.718750 0
  0.031250   0.968750 0
  0.656250   0.718750 0
  0.156250   0.468750 0
  0.437500   0.906250 0
  0.625000   0.156250 0
  0.718750   0.812500 0
  0.218750   0.562500 0
  0.781250   0.562500 0
  0.281250   0.312500 0
  0.156250   0.812500 0
  0.062500   0.656250 0
  0.000000   0.906250 0
  0.187500   0.156250 0
  0.125000   0.406250 0
  0.562500   0.968750 0
  0.062500   0.718750 0
  0.000000   0.968750 0
  0.625000   0.718750 0
  0.125000   0.468750 0
  0.406250   0.968750 0
  0.968750   0.968750 0
  0.468750   0.718750 0
  0.531250   0.468750 0
  0.593750   0.218750 0
  0.406250   0.906250 0
  0.468750   0.656250 0
  0.593750   0.156250 0
  0.687500   0.781250 0
  0.187500   0.531250 0
  0.750000   0.531250 0
  0.250000   0.281250 0
  0.125000   0.781250 0
  0.781250   0.906250 0
  0.281250   0.656250 0
  0.218750   0.906250 0
  0.843750   0.656250 0
  0.343750   0.406250 0
  0.750000   0.906250 0
  0.250000   0.656250 0
  0.187500   0.906250 0
  0.812500   0.656250 0
  0.312500   0.406250 0
  0.875000   0.406250 0
  0.375000   0.156250 0
  0.812500   0.968750 0
  0.312500   0.718750 0
  0.250000   0.968750 0
  0.875000   0.718750 0
  0.375000   0.468750 0
  0.781250   0.937500 0
  0.281250   0.687500 0
  0.218750   0.937500 0
  0.843750   0.687500 0
  0.343750   0.437500 0
  0.718750   0.875000 0
  0.218750   0.625000 0
  0.156250   0.875000 0
  0.781250   0.625000 0
  0.281250   0.375000 0
  0.750000   0.937500 0
  0.250000   0.687500 0
  0.187500   0.937500 0
  0.875000   0.437500 0
  0.375000   0.187500 0
  0.812500   0.687500 0
  0.312500   0.437500 0
  0.687500   0.875000 0
  0.187500   0.625000 0
  0.750000   0.625000 0
  0.250000   0.375000 0
  0.125000   0.875000 0
  0.812500   1.000000 0
  0.312500   0.750000 0
  0.250000   1.000000 0
  0.875000   0.750000 0
  0.375000   0.500000 0
  0.562500   1.000000 0
  0.062500   0.750000 0
  0.000000   1.000000 0
  0.625000   0.750000 0
  0.125000   0.500000 0
  0.406250   1.000000 0
  0.968750   1.000000 0
  0.468750   0.750000 0
  0.656250   0.000000 0
  0.531250   0.500000 0
  0.593750   0.250000 0
  0.406250   0.937500 0
  0.468750   0.687500 0
  0.593750   0.187500 0
  0.687500   0.812500 0
  0.187500   0.562500 0
  0.750000   0.562500 0
  0.250000   0.312500 0
  0.125000   0.812500 0
  0.437500   0.843750 0
  0.625000   0.093750 0
  0.093750   0.593750 0
  0.156250   0.343750 0
  0.218750   0.093750 0
  0.031250   0.843750 0
  0.281250   0.937500 0
  0.843750   0.937500 0
  0.343750   0.687500 0
  0.906250   0.687500 0
  0.406250   0.437500 0
  0.156250   0.968750 0
  0.218750   0.718750 0
  0.281250   0.468750 0
  0.343750   0.218750 0
  0.156250   1.000000 0
  0.406250   0.000000 0
  0.281250   0.500000 0
  0.343750   0.250000 0
  0.218750   0.750000 0
  0.187500   0.968750 0
  0.250000   0.718750 0
  0.375000   0.218750 0
  0.312500   0.468750 0
  0.187500   1.000000 0
  0.312500   0.500000 0
  0.375000   0.250000 0
  0.437500   0.000000 0
  0.250000   0.750000 0
  0.031250   0.781250 0
  0.656250   0.531250 0
  0.156250   0.281250 0
  0.593750   0.781250 0
  0.093750   0.531250 0
  0.000000   0.781250 0
  0.625000   0.531250 0
  0.125000   0.281250 0
  0.562500   0.781250 0
  0.062500   0.531250 0
  0.781250   0.968750 0
  0.281250   0.718750 0
  0.218750   0.968750 0
  0.843750   0.718750 0
  0.343750   0.468750 0
  0.281250   0.968750 0
  0.843750   0.968750 0
  0.343750   0.718750 0
  0.906250   0.718750 0
  0.406250   0.468750 0
  0.281250   1.000000 0
  0.906250   0.750000 0
  0.406250   0.500000 0
  0.843750   1.000000 0
  0.343750   0.750000 0
  0.531250   0.000000 0
  0.718750   0.843750 0
  0.218750   0.593750 0
  0.156250   0.843750 0
  0.781250   0.593750 0
  0.281250   0.343750 0
  0.687500   0.843750 0
  0.187500   0.593750 0
  0.750000   0.593750 0
  0.250000   0.343750 0
  0.125000   0.843750 0
  0.218750   0.875000 0
  0.843750   0.625000 0
  0.343750   0.375000 0
  0.781250   0.875000 0
  0.281250   0.625000 0
  0.156250   0.906250 0
  0.781250   0.656250 0
  0.281250   0.406250 0
  0.718750   0.906250 0
  0.218750   0.656250 0
  0.031250   1.000000 0
  0.656250   0.750000 0
  0.156250   0.500000 0
  0.593750   1.000000 0
  0.093750   0.750000 0
  0.218750   1.000000 0
  0.343750   0.500000 0
  0.468750   0.000000 0
  0.406250   0.250000 0
  0.281250   0.750000 0
  0.593750   0.406250 0
  0.093750   0.156250 0
  0.531250   0.656250 0
  0.031250   0.406250 0
[...]
CELL_DATA 1024
SCALARS scalar_value float 1
LOOKUP_TABLE default
0.798774
1.2804
2.28782
4.1876
4.542
2.05954
0.202848
0.314963
0.226081
0.267458
0.507601
0.453315
0.248277
0.199776
0.211448
0.278204
0.325819
0.367513
0.149002
0.243574
0.145243
0.517747
0.211637
0.542848
6.46582
3.64233
3.59155
6.6602
3.00155
5.75439
6.94274
8.38279
7.8447
8.73063
0.64518
0.543263
0.162122
0.309628
0.511785
4.6555
8.29482
8.06533
1.86681
4.03772
13.0329
0.820236
3.56719
14.3816
1.94639
2.13691
8.89229
5.28762
1.01867
3.89062
1.58968
4.1055
2.31984
5.18975
4.44387
2.20578
1.04396
1.02081
4.03652
3.73483
0.468627
1.09359
1.37127
0.444204
13.7696
0.9295
4.33323
4.75588
3.50609
2.78095
9.0816
4.03624
2.53055
9.43072
2.10887
5.75388
1.24578
1.12168
2.44133
2.22574
4.63065
3.11094
0.850663
1.34025
1.49992
3.94996
4.05051
2.67636
2.01475
1.90702
1.52936
1.49975
4.2357
1.23508
1.3772
1.44119
7.31012
2.31954
1.3797
2.21217
7.43763
6.0815
1.76077
3.78505
4.83866
2.87811
2.49985
15.5028
1.68049
11.2818
0.723386
6.74497
2.78781
3.40418
17.2093
3.20495
3.61029
2.48474
0.618012
27.4471
1.23036
1.2213
7.0918
3.9782
1.67997
15.6628
6.1562
1.89418
8.96646
2.03774
8.87181
9.87422
5.49974
0.901705
4.21317
2.84308
6.43866
3.99992
1.51626
17.373
1.76129
1.58282
0.839293
5.19502
3.36899
4.27689
1.39701
1.30886
8.65702
2.80157
0.358556
1.22228
1.31627
22.7931
11.778
2.33034
4.02719
5.54939
5.92573
3.33064
4.35776
2.82935
2.5425
14.7697
2.0356
12.8371
2.99695
2.05687
2.59504
2.26517
3.23466
3.05052
3.53306
2.5752
1.67089
4.17379
10.8185
9.32942
1.63688
4.4105
11.0774
1.39361
3.21365
8.50436
1.74923
8.31069
14.371
1.2375
8.98301
2.87733
13.5503
1.42401
8.02752
1.21088
8.2809
6.39326
1.63308
7.9822
14.3325
0.943477
1.30305
0.55433
29.5189
0.979876
1.61698
0.938172
25.1528
0.593718
1.16532
1.13766
19.0085
0.597376
20.0398
2.12742
1.88429
1.73698
1.71342
9.11534
2.34417
1.54102
2.88787
0.643989
5.8058
4.59113
3.30772
0.805476
2.94948
3.65186
5.61133
0.836611
3.96322
2.22595
5.28973
0.471957
10.6761
1.60598
3.20671
3.77411
6.28148
1.7805
8.16036
2.06512
2.98101
12.0292
2.16257
16.9396
14.8514
10.7613
4.15723
6.62514
5.71271
3.67856
0.934951
1.37229
0.219062
0.253067
0.313771
0.314971
10.5665
11.1077
22.4096
0.0512394
0.130331
0.137248
0.0758646
2.19663
2.08202
0.14688
0.130478
0.0413937
0.0674506
0.0547404
0.0286811
0.0219004
0.0295366
0.0316855
0.0296393
0.0290191
0.0364425
0.0430443
0.181984
0.0594187
11.4818
0.577593
4.43984
0.139259
14.652
0.144385
13.8009
0.0759384
0.468113
0.582321
0.316795
1.40045
0.0601452
0.0438425
0.0461127
0.0441821
0.0580051
0.0552797
0.0468499
0.0923273
0.0704174
0.0634163
0.0422719
0.83934
0.0637116
4.189
0.0519219
0.260045
0.0261798
0.818097
1.74441
5.49834
0.144586
8.75258
3.86947
6.05618
0.0561887
6.21877
0.0275065
1.02973
8.86553
2.7199
0.750545
0.195791
9.20128
1.82119
0.672816
0.137516
5.5664
2.17692
0.0502167
0.0164493
1.36614
0.0422616
0.0866277
0.10574
0.0188794
2.13524
0.0449493
0.241012
0.0646067
1.44303
0.0311878
1.61683
0.0626932
0.0459659
0.0396182
0.0890724
0.128224
6.38751
0.488948
0.0593573
3.8493
0.210359
0.0696572
1.27518
0.580464
0.094254
0.0698467
0.618415
1.13594
0.0563522
0.297366
0.0546871
0.0587826
0.343191
0.85104
0.045944
12.6232
0.483606
0.102026
2.93971
0.0964413
0.108141
0.554001
0.0228025
0.0529725
0.130335
0.254167
0.33771
0.0780403
0.06618
0.111077
0.0988099
11.7451
0.0734608
4.14175
2.19053
0.0459594
0.181972
0.0199628
0.185741
0.227627
6.40802
1.33656
0.294622
0.0267658
0.348759
0.329591
8.79297
1.28007
0.296512
0.53998
0.0381325
0.925213
0.615724
0.238148
0.177244
1.99276
0.318119
0.0947315
1.55568
0.627297
0.405311
4.17024
0.0330172
0.0458499
0.0931802
0.0389977
0.0546656
0.952961
4.66952
7.29114
2.72463
0.217779
1.57597
4.94231
0.0296444
0.647089
2.21062
9.49027
0.200621
2.11901
0.4361
0.256255
3.40485
0.198718
0.0678049
0.88337
0.0268317
0.0252658
0.464009
0.0397806
0.0266215
0.0354126
0.316352
0.0271285
0.0270431
0.492702
0.0364272
0.0170706
0.0202257
0.762989
0.0369634
0.0531204
0.109502
0.0586213
0.150858
0.0927675
0.12046
0.142027
0.256088
0.0231289
0.256183
0.0565684
0.643592
0.451456
0.0749159
0.0963423
0.0983151
7.46821
0.773907
0.0597058
0.0166705
0.0456755
0.106907
0.0453145
0.0542018
0.048546
0.0448931
0.0537094
0.0419266
0.0747733
31.6292
28.2688
21.2903
19.4454
0.294836
0.0641963
0.0604831
0.161414
0.0556702
0.09455
0.195332
0.0350771
0.15066
0.23314
0.0294481
0.0327175
0.0378747
0.260227
0.342748
0.235261
0.166881
0.113373
0.161358
0.740056
61.1111
53.5045
1.71289
0.769143
0.068899
0.077837
0.0945672
0.599481
13.5945
16.0135
0.0989897
13.1809
12.0733
9.74171
19.8966
4.06326
2.21067
2.51617
14.9377
3.73711
0.189243
0.356821
0.471432
0.258925
0.109973
0.10475
0.112816
0.091294
0.880074
0.405552
0.315997
1.6892
0.274126
0.122256
6.57853
0.150436
0.160325
2.59834
0.11871
0.714495
0.0958091
2.01786
0.0958017
32.0783
2.5451
1.01469
1.39269
3.13296
1.2753
2.28808
0.201997
0.709504
2.32872
0.217839
4.09534
1.69273
2.27361
0.660349
1.54865
5.75407
2.16605
1.13085
0.723654
1.43283
2.09447
0.829216
0.165695
2.03615
0.566677
0.155027
0.162517
0.982752
6.34183
0.939869
0.140223
0.270433
0.907416
2.15035
4.56083
1.25106
0.260904
0.360879
6.34615
0.39212
8.6121
0.170555
0.808765
4.52495
1.88884
1.51986
12.1184
0.567211
0.768876
1.19319
1.84912
3.11372
2.29897
10.062
0.265162
0.233283
4.87627
1.41776
0.163706
16.063
11.929
0.39357
21.251
0.195124
1.90194
10.2132
6.22585
0.831402
2.7961
8.28834
0.0625918
0.128715
0.227356
6.11195
7.78487
2.20348
4.89061
1.09626
0.196057
0.0891489
11.998
0.35199
2.6699
0.374887
2.6611
0.44626
24.1457
1.70402
1.42817
0.559342
1.11118
0.088636
12.7528
14.3989
0.507149
2.09471
0.213815
0.493071
3.63944
2.316
0.386187
0.289022
3.08184
4.69551
0.642336
11.1432
0.0963042
12.301
1.00489
8.63693
1.02092
25.5628
0.650576
16.6835
0.868154
9.20011
1.36199
7.27475
0.164358
0.129999
0.161098
0.77327
0.0762532
0.268936
0.109466
0.352974
0.187099
1.1236
0.110105
0.18356
5.74587
1.97134
0.178606
0.141974
9.04128
3.9632
4.99455
0.247787
9.23565
6.57446
3.44131
0.13555
0.115142
8.22736
9.84243
1.87377
2.00444
14.515
0.305218
4.33079
0.117897
7.68462
30.4295
0.124365
5.06461
33.2227
0.277948
1.61025
0.862367
1.33454
1.72052
18.5998
4.81302
23.5183
5.4845
45.5843
33.057
3.66382
0.750961
0.787488
0.199675
0.208791
2.38915
2.49534
1.99559
3.41521
1.07478
1.89166
1.17297
1.73165
1.33827
1.6967
2.9516
6.14314
2.09576
0.118597
0.0802185
0.123801
0.139448
0.0925953
0.107775
2.00168
0.546602
65.3215
0.985895
58.6571
0.383361
13.5377
39.9612
0.258532
47.9671
0.61455
0.582936
0.822139
0.952668
0.704235
0.0956022
0.105037
0.131869
0.118483
0.141165
0.123715
0.219713
0.286793
0.395389
0.215625
0.232022
0.336277
0.239183
0.305105
0.264262
0.345771
0.175518
0.3006
0.196098
0.0866243
0.102074
0.104603
0.137281
0.163142
0.0914133
0.101089
0.364227
0.843745
1.37898
4.75184
0.14031
0.31425
0.183354
0.581719
0.477829
1.3945
1.78792
0.238057
0.219823
0.322751
0.312815
0.213846
0.477017
1.62711
0.523549
0.20933
0.109144
0.347817
3.56091
0.288382
0.210113
0.189513
0.16105
0.231174
0.228045
0.231361
0.212082
0.239606
0.305274
0.769843
0.279201
0.18672
0.344979
0.447099
0.401577
0.146815
4.55269
0.58009
4.70429
0.355253
0.189786
0.109545
0.125611
0.0834971
0.0906499
0.256623
0.45169
0.132319
0.105998
0.0747807
0.204886
0.122506
0.305647
0.643381
0.109691
0.109175
0.221708
0.12235
0.0729704
0.159323
0.219559
0.0909564
0.0982837
4.77743
0.114706
0.218417
0.208011
0.2047
0.442927
1.07275
1.05603
3.25789
0.0855384
0.365165
1.60545
0.173398
3.66045
0.193793
1.74484
1.08051
0.114264
0.546136
0.102509
0.279865
0.189394
0.158918
2.05362
0.664193
0.390809
0.398567
0.770064
1.74082
1.2051
0.199579
0.231577
0.785709
0.566396
0.153016
0.395821
0.215109
0.123021
0.13998
0.255835
2.2485
0.0726613
0.154347
0.211131
0.392784
0.620163
0.492721
0.391422
0.331321
0.296703
0.115894
0.236185
0.105508
3.08571
0.179309
2.38841
0.327012
0.831689
0.206404
0.210661
0.141157
0.284157
0.30121
0.197954
0.104289
1.36677
1.89197
0.156128
0.303208
5.19207
0.103166
0.246869
0.239878
0.868128
0.158567
0.486053
0.278226
0.264053
0.354203
0.188792
0.0973142
0.0759879
0.10782
0.0627527
0.0662274
0.0615668
0.0984746
0.264356
0.542912
0.56386
0.179028
0.384898
0.900295
0.697946
0.126543
0.164544
0.208373
0.162661
0.223831
0.190848
2.1625
0.261991
0.228285
1.0882
0.194162
0.245959
0.71092
0.227643
0.294457
0.602376
0.0829445
0.180168
0.112004
0.274641
0.475204
0.0974493
0.136574
0.453162
0.200838
0.0660684
0.137026
0.124295
0.135301
0.115463
0.06168
0.183461
0.130212
0.0624924
0.195025
0.171483
1.00737
0.248709
0.490505
0.515347
0.342431
0.973999
0.314291
1.85792
0.184532
0.298288
0.0888496
0.12815
0.205123
0.289764
0.18662
0.292981
0.15815
0.363502
0.242009
0.336146
2.01037
1.05045
0.281574
0.346304
0.402859
0.508757
0.435961
0.436311
1.89777
0.302093
0.520341
0.0741674
6.39661
0.0712251
3.68128
0.165658
0.0778633
2.73179
