# vtk DataFile Version 2.0
Unstructured Grid by M++
ASCII
DATASET UNSTRUCTURED_GRID
POINTS 4225 float
  0.921875   0.593750 0
  0.921875   0.609375 0
  0.656250   0.609375 0
  0.671875   0.609375 0
  0.656250   0.546875 0
  0.671875   0.546875 0
  0.656250   0.562500 0
  0.656250   0.578125 0
  0.656250   0.593750 0
  0.671875   0.593750 0
  0.671875   0.562500 0
  0.671875   0.578125 0
  0.671875   0.625000 0
  0.671875   0.640625 0
  0.906250   0.578125 0
  0.890625   0.578125 0
  0.546875   0.515625 0
  1.000000   0.890625 0
  0.515625   0.640625 0
  0.515625   0.625000 0
  1.000000   0.875000 0
  0.515625   0.656250 0
  0.515625   0.687500 0
  0.515625   0.671875 0
  1.000000   0.921875 0
  0.546875   0.531250 0
  0.546875   0.546875 0
  0.546875   0.562500 0
  0.796875   0.531250 0
  0.953125   0.890625 0
  0.953125   0.875000 0
  0.953125   0.843750 0
  0.953125   0.828125 0
  0.953125   0.812500 0
  0.531250   0.562500 0
  0.531250   0.546875 0
  0.515625   0.562500 0
  0.515625   0.546875 0
  1.000000   0.812500 0
  0.781250   0.546875 0
  0.765625   0.546875 0
  0.859375   0.921875 0
  0.921875   0.671875 0
  0.609375   0.906250 0
  0.671875   0.656250 0
  0.609375   0.921875 0
  0.671875   0.671875 0
  0.671875   0.984375 0
  0.671875   1.000000 0
  0.906250   0.984375 0
  0.906250   1.000000 0
  0.921875   0.984375 0
  0.921875   1.000000 0
  0.859375   0.609375 0
  1.000000   0.781250 0
  0.515625   0.531250 0
  0.531250   0.531250 0
  0.531250   0.515625 0
  0.515625   0.515625 0
  1.000000   0.750000 0
  0.765625   0.531250 0
  0.781250   0.531250 0
  0.781250   0.515625 0
  0.765625   0.515625 0
  0.859375   0.875000 0
  0.921875   0.625000 0
  0.859375   0.890625 0
  0.921875   0.640625 0
  0.671875   0.968750 0
  0.671875   0.953125 0
  0.921875   0.968750 0
  0.921875   0.953125 0
  0.859375   0.593750 0
  0.859375   0.578125 0
  0.875000   0.578125 0
  0.828125   0.890625 0
  0.890625   0.640625 0
  0.593750   0.890625 0
  0.656250   0.640625 0
  0.593750   0.875000 0
  0.656250   0.625000 0
  0.578125   0.890625 0
  0.640625   0.640625 0
  0.578125   0.875000 0
  0.640625   0.625000 0
  0.968750   0.890625 0
  0.984375   0.890625 0
  0.968750   0.812500 0
  0.968750   0.828125 0
  0.984375   0.812500 0
  0.984375   0.828125 0
  1.000000   0.828125 0
  0.656250   0.953125 0
  0.640625   0.953125 0
  0.890625   0.968750 0
  0.906250   0.968750 0
  0.906250   0.953125 0
  0.890625   0.953125 0
  0.531250   0.703125 0
  0.531250   0.718750 0
  0.546875   0.718750 0
  0.546875   0.703125 0
  0.593750   0.578125 0
  0.562500   0.578125 0
  0.578125   0.578125 0
  0.843750   0.578125 0
  0.828125   0.578125 0
  0.828125   0.812500 0
  0.890625   0.562500 0
  0.828125   0.796875 0
  0.953125   0.906250 0
  0.953125   0.921875 0
  0.531250   0.859375 0
  0.593750   0.609375 0
  0.531250   0.843750 0
  0.593750   0.593750 0
  0.515625   0.843750 0
  0.578125   0.593750 0
  0.515625   0.859375 0
  0.578125   0.609375 0
  0.937500   0.859375 0
  1.000000   0.609375 0
  0.921875   0.859375 0
  0.984375   0.609375 0
  0.937500   0.796875 0
  0.921875   0.796875 0
  0.984375   0.546875 0
  0.562500   0.812500 0
  0.843750   0.796875 0
  0.843750   0.812500 0
  0.859375   0.796875 0
  0.859375   0.812500 0
  1.000000   0.906250 0
  0.984375   0.906250 0
  0.968750   0.906250 0
  0.968750   0.921875 0
  0.984375   0.921875 0
  0.593750   0.921875 0
  0.656250   0.671875 0
  0.593750   0.906250 0
  0.656250   0.656250 0
  0.578125   0.906250 0
  0.640625   0.656250 0
  0.578125   0.921875 0
  0.640625   0.671875 0
  1.000000   0.843750 0
  0.984375   0.843750 0
  0.968750   0.843750 0
  0.968750   0.859375 0
  0.968750   0.875000 0
  1.000000   0.859375 0
  0.984375   0.859375 0
  0.984375   0.875000 0
  0.656250   1.000000 0
  0.656250   0.984375 0
  0.656250   0.968750 0
  0.640625   0.968750 0
  0.640625   1.000000 0
  0.640625   0.984375 0
  0.843750   0.921875 0
  0.906250   0.671875 0
  0.843750   0.906250 0
  0.906250   0.656250 0
  0.828125   0.906250 0
  0.890625   0.656250 0
  0.828125   0.921875 0
  0.890625   0.671875 0
  0.781250   0.859375 0
  0.843750   0.609375 0
  0.781250   0.843750 0
  0.843750   0.593750 0
  0.765625   0.843750 0
  0.828125   0.593750 0
  0.765625   0.859375 0
  0.828125   0.609375 0
  0.968750   0.609375 0
  0.906250   0.859375 0
  0.953125   0.609375 0
  0.890625   0.859375 0
  0.937500   0.609375 0
  0.875000   0.859375 0
  0.562500   0.593750 0
  0.546875   0.593750 0
  0.531250   0.593750 0
  0.531250   0.609375 0
  0.562500   0.609375 0
  0.546875   0.609375 0
  0.609375   0.625000 0
  0.546875   0.875000 0
  0.609375   0.640625 0
  0.546875   0.890625 0
  0.625000   0.640625 0
  0.562500   0.890625 0
  0.625000   0.625000 0
  0.562500   0.875000 0
  0.921875   0.843750 0
  0.984375   0.593750 0
  0.937500   0.843750 0
  1.000000   0.593750 0
  0.921875   0.812500 0
  0.921875   0.828125 0
  0.984375   0.578125 0
  0.937500   0.828125 0
  1.000000   0.578125 0
  0.937500   0.812500 0
  1.000000   0.562500 0
  0.578125   0.828125 0
  0.921875   0.781250 0
  0.937500   0.781250 0
  1.000000   0.531250 0
  0.921875   0.765625 0
  0.984375   0.515625 0
  0.937500   0.765625 0
  0.625000   0.656250 0
  0.562500   0.906250 0
  0.609375   0.656250 0
  0.546875   0.906250 0
  0.625000   0.671875 0
  0.562500   0.921875 0
  0.609375   0.671875 0
  0.546875   0.921875 0
  0.859375   0.781250 0
  0.859375   0.765625 0
  0.828125   0.671875 0
  0.765625   0.921875 0
  0.828125   0.734375 0
  0.765625   0.984375 0
  0.875000   0.843750 0
  0.937500   0.593750 0
  0.890625   0.843750 0
  0.953125   0.593750 0
  0.906250   0.843750 0
  0.968750   0.593750 0
  0.906250   0.828125 0
  0.968750   0.578125 0
  0.937500   0.578125 0
  0.953125   0.578125 0
  0.906250   0.765625 0
  0.875000   0.765625 0
  0.953125   0.515625 0
  0.531250   0.781250 0
  0.671875   0.890625 0
  0.531250   0.921875 0
  0.953125   0.656250 0
  0.828125   0.781250 0
  0.843750   0.781250 0
  0.703125   0.984375 0
  0.687500   0.984375 0
  0.843750   0.875000 0
  0.906250   0.625000 0
  0.671875   0.781250 0
  0.734375   0.531250 0
  0.906250   0.609375 0
  0.671875   0.765625 0
  0.734375   0.515625 0
  0.906250   0.593750 0
  0.890625   0.593750 0
  0.875000   0.593750 0
  0.828125   0.875000 0
  0.890625   0.625000 0
  0.656250   0.781250 0
  0.718750   0.531250 0
  0.890625   0.609375 0
  0.656250   0.765625 0
  0.718750   0.515625 0
  0.875000   0.609375 0
  0.640625   0.765625 0
  0.703125   0.515625 0
  0.812500   0.921875 0
  0.875000   0.671875 0
  0.812500   0.875000 0
  0.875000   0.625000 0
  0.640625   0.781250 0
  0.703125   0.531250 0
  0.812500   0.515625 0
  0.750000   0.828125 0
  0.812500   0.578125 0
  0.687500   1.000000 0
  0.937500   0.656250 0
  0.875000   0.906250 0
  0.531250   0.656250 0
  0.890625   0.906250 0
  0.906250   0.906250 0
  0.562500   0.656250 0
  0.906250   0.890625 0
  0.562500   0.640625 0
  0.968750   0.625000 0
  0.906250   0.875000 0
  0.562500   0.625000 0
  0.937500   0.640625 0
  0.875000   0.890625 0
  0.890625   0.890625 0
  0.546875   0.640625 0
  0.953125   0.625000 0
  0.890625   0.875000 0
  0.546875   0.625000 0
  0.546875   0.687500 0
  0.890625   0.937500 0
  0.937500   0.625000 0
  0.875000   0.875000 0
  0.531250   0.625000 0
  0.531250   0.640625 0
  0.546875   0.656250 0
  0.937500   0.968750 0
  0.687500   0.968750 0
  0.953125   0.968750 0
  0.703125   0.968750 0
  0.968750   0.968750 0
  0.718750   0.968750 0
  0.718750   0.906250 0
  0.968750   0.953125 0
  0.718750   0.953125 0
  0.968750   0.937500 0
  0.859375   0.906250 0
  0.921875   0.656250 0
  0.718750   0.937500 0
  0.828125   0.531250 0
  0.937500   0.953125 0
  0.687500   0.953125 0
  0.953125   0.953125 0
  0.703125   0.953125 0
  0.703125   0.890625 0
  0.843750   0.515625 0
  0.953125   0.937500 0
  0.953125   1.000000 0
  0.703125   0.937500 0
  0.937500   0.937500 0
  0.687500   0.937500 0
  0.703125   0.906250 0
  0.718750   0.890625 0
  0.687500   0.890625 0
  0.687500   0.765625 0
  0.750000   0.515625 0
  0.687500   0.781250 0
  0.750000   0.531250 0
  0.859375   0.937500 0
  0.921875   0.687500 0
  0.687500   0.796875 0
  0.750000   0.546875 0
  0.578125   0.750000 0
  0.515625   1.000000 0
  0.843750   0.765625 0
  0.578125   0.734375 0
  0.515625   0.984375 0
  0.562500   0.734375 0
  0.828125   0.750000 0
  0.765625   1.000000 0
  0.562500   0.750000 0
  0.562500   0.718750 0
  0.578125   0.515625 0
  0.921875   0.703125 0
  0.921875   0.718750 0
  0.593750   0.515625 0
  0.687500   0.875000 0
  0.750000   0.625000 0
  0.578125   0.531250 0
  0.921875   0.750000 0
  0.703125   0.875000 0
  0.765625   0.625000 0
  0.593750   0.531250 0
  0.875000   0.968750 0
  0.937500   0.718750 0
  0.703125   0.828125 0
  0.765625   0.578125 0
  0.937500   0.734375 0
  0.703125   0.812500 0
  0.765625   0.562500 0
  0.890625   0.687500 0
  0.828125   0.937500 0
  0.656250   0.796875 0
  0.718750   0.546875 0
  0.890625   0.718750 0
  0.828125   0.968750 0
  0.906250   0.796875 0
  0.718750   0.828125 0
  0.781250   0.578125 0
  0.890625   0.703125 0
  0.828125   0.953125 0
  0.656250   0.859375 0
  0.906250   0.781250 0
  0.968750   0.531250 0
  0.546875   0.796875 0
  0.671875   0.796875 0
  0.734375   0.546875 0
  0.843750   0.953125 0
  0.906250   0.703125 0
  0.671875   0.875000 0
  0.718750   0.812500 0
  0.781250   0.562500 0
  0.875000   0.812500 0
  0.531250   0.890625 0
  0.593750   0.640625 0
  0.937500   0.890625 0
  0.875000   0.781250 0
  0.609375   0.703125 0
  0.546875   0.953125 0
  0.890625   0.796875 0
  0.625000   0.718750 0
  0.562500   0.968750 0
  0.906250   0.812500 0
  0.734375   0.859375 0
  0.796875   0.609375 0
  0.718750   0.875000 0
  0.781250   0.625000 0
  0.750000   0.859375 0
  0.812500   0.609375 0
  0.812500   0.546875 0
  0.750000   0.812500 0
  0.734375   0.843750 0
  0.796875   0.593750 0
  0.750000   0.843750 0
  0.812500   0.593750 0
[...]
CELL_DATA 4096
SCALARS scalar_value float 1
LOOKUP_TABLE default
1547.27
1209.79
1466.66
3983.93
1424.36
1231.48
3591.25
4169.59
111.908
163.104
335.207
597.826
299.639
419.178
216.132
168.874
1.84629e-07
8.27943e-08
1.85974e-07
1.66673e-07
1.96545e-07
8.91394e-08
4.63143e-07
1.62888e-06
6.91698e-08
7.10664e-08
8.28077e-08
3.26914e-08
5.747
166.798
15.3416
1.47939
1.06816e-07
4.28313e-08
8.32323e-08
1.10878e-07
188.915
1980.89
16125.4
1808.2
6.33211e+08
1.37606e+09
1.64169e+09
4.15542e+08
0.00618846
0.0197433
0.013069
0.00573793
1.98815e+07
1.79573e+06
2.23391e+07
1.74506e+08
3.80781e-06
8.05882e-06
3.52486e-06
6.79894e-07
4.22843e+07
7.27706e+06
1.33714e+06
4.74595e+06
0.000292851
0.00134401
0.000620431
5.86309e-05
1.16314e+08
1.63674e+07
1.521e+07
1.15331e+08
0.235427
0.0593644
0.0404041
0.110652
0.115574
7.96844
3.30843
0.19002
0.0107383
0.00688562
0.00198523
0.00503772
6.01374e+07
4.23957e+08
1.86871e+08
2.26191e+07
4.59725e+08
1.92274e+08
1.33477e+08
3.44846e+08
7.56143
10.2626
0.232689
0.78011
0.0142531
0.0123771
0.0219675
0.03642
2.47811e+07
1.40858e+07
656371
1.69335e+06
3.94371e+08
1.08408e+09
3.53394e+08
3.61129e+08
497.581
150.623
96.2363
631.491
0.00344243
0.00427367
0.00988548
0.00512421
1.42343e+08
4.24289e+07
1.73691e+08
6.09689e+08
3.44704e+06
2.32813e+07
1.50371e+07
2.0355e+06
40.6218
96.9388
483.381
212.185
395.201
337.323
343.459
413.123
1.72832e+09
1.46718e+09
5.04555e+08
4.98212e+08
3.16792e+07
8.5497e+07
2.62044e+08
1.15387e+08
0.00922442
0.0126905
0.00983526
0.00645698
0.000191235
0.00125127
0.00135547
0.000118661
673.282
774.235
557.696
443.097
0.0196549
0.0221915
0.136302
0.128401
1.66729e-05
7.94594e-05
0.000112072
3.75924e-05
1.47818e-05
5.47158e-06
2.84698e-05
0.000117197
1.4811
6.30198
0.997274
0.243004
8.56955e-06
1.82748e-06
1.03032e-05
2.79874e-05
1.58706
13.7165
96.229
9.54838
0.020655
0.00424943
0.000620809
0.00297172
0.000169943
6.83965e-05
6.56514e-05
0.000112301
4.80526e-07
4.8223e-07
6.90099e-07
1.21009e-07
1.63044
0.0783078
0.383668
4.58114
0.307823
0.0594142
0.138071
0.47954
0.000353042
0.000143474
0.000191441
0.000731434
1.73093e-05
1.98959e-06
1.73921e-06
8.29871e-06
0.0720602
4.51532e-06
274582
2.22108e+06
0.0512394
0.0490267
111636
392817
25.513
41384.7
2.12363
195.349
8.59223e-07
16.8278
7.66598e-07
2532.35
1.26799e-05
882.337
2.67173e-06
1005.34
2.12217e-06
1495.23
1.12867e-05
2868.56
8229.49
78624.7
2.71871
1.11799
684.952
15.0895
0.268783
0.457879
0.321664
9.55185e-05
0.289366
6.71398e-05
0.330391
7.16314e-05
1063.49
4.00415e-06
8789.27
3.11509e-06
4.44704e+08
0.00116097
4.89762e+07
0.0172454
54.9577
1.23468e-05
10.3305
0.000120479
1.67007
1.75131e-07
3.74346e-05
0.536754
1.77059e-06
0.926094
1.95437e-06
5.2987e-05
4.79249
2.00657e-07
2.10193e+09
0.000608649
1.63832e+09
0.000764641
1.96148e+08
0.0118163
1.05279e+07
7.13026e+06
3.80215e+07
16889.4
1119.88
5.03887e+08
0.0206948
0.063793
0.000167431
0.10273
0.000322726
0.0650774
0.000147489
2.56279e-05
216.603
0.000186624
372.45
0.118312
0.000226499
0.000261651
390.769
4.0465e-05
363.259
286613
0.0142284
0.049748
239.744
4.97555e-06
4248.42
1.47109e-05
229.747
1.25785e-05
0.716073
0.364077
0.0255578
2.92768
0.00279632
7615.54
7.54504e-06
7.88889
0.0088523
0.125905
8.17609e-07
1.48339
0.0724849
0.126271
0.000241879
3.5374e+10
0.000146431
6.68253e+07
0.000908954
752.962
5.28222e-06
1520.66
2.7287e-05
4811.02
0.000108159
13.2372
2.11828e-06
0.0623729
0.000145367
198.948
6.35924e-07
0.0199101
1.11871e-05
8.74502e+09
0.000124933
1.32746e+07
0.00338956
1.43549e+07
0.039082
3.54933e-05
2.40122e+07
5.29452e+06
7.42242e+09
0.000152007
0.0658661
6.76245e-05
9.19578e+06
1.96007e+06
130.117
1.09546e+06
119.718
11.4902
3256.28
759.441
31879.4
6.80937
0.000159549
3.73822
0.00286303
3.20861
0.000863616
0.191819
1.25592e-05
0.240253
1.26487e-05
4.57321
0.000990047
0.100112
0.000103845
2.5646
1.43728
1.80032
7.37805
0.000102841
1.22451e+08
0.000190258
1.74408e+08
0.000283251
1.86339e+09
0.000102693
1.17224e+09
1.65808e+08
124418
396706
7.34509e+08
846764
0.000828512
5.77879e+07
0.00596476
6.14188e+06
0.00443551
322.191
1.45802e+10
0.000116448
3.18334e+07
0.00148725
0.0227467
2328.36
1.14319e-06
583.57
4.51511e+06
0.00848716
0.00185782
559.526
1.13506e-06
399.172
5.58363e-06
319.539
0.0329521
811.381
7.8848e-06
480.917
0.00899409
569722
0.00105843
4.5237e+06
0.00191051
233403
0.0531803
77400.8
4.09257e-05
245679
7.96055e-05
4.26388e+06
9.45187e-06
5.64487e+06
130222
6.62902e-06
4.25107
0.496793
295.658
1.09084e-05
0.232491
279.772
1.52382e-06
0.144352
0.43414
785.958
2.47691e-06
0.590387
1.47094
1.58311
9.59957e+06
0.0237439
0.0500514
0.369367
0.738483
0.701219
109504
0.0423042
0.116355
0.605716
0.736634
15.4906
91.3403
126.855
3.24187e-07
151.446
7.68268e-07
267.614
9.49816e-07
581.408
7.58505e-07
342.498
66.5178
118.907
6.14527e-07
0.461478
1.28925e-06
0.117509
0.579911
7.18266e-08
0.000360683
7.32792e+09
0.0145223
7.88313e+08
8.43052
16.6278
5.4132e-06
316079
0.0237352
0.00895528
0.0929248
0.0732064
0.000447659
0.171665
0.0202105
6.80445e+08
3.14411e+08
0.0718069
0.250126
0.00286079
9.03087e+06
6390.07
1.6601e-06
0.068995
1.48126e-05
0.0789859
1.60069e+07
1.59993
0.252226
1.17131e-06
0.713726
2.46334e-07
5.86593e-07
0.0889527
0.00279357
4.84129e+09
0.00694557
4.21253e+06
1.73267
0.0326272
5.87552e-05
0.0575834
5.03237e+07
1.01248
0.628445
4.53323e-07
0.56344
8.63489e-07
0.000392033
4.73143e+09
3961.97
0.13634
0.466388
17.0522
0.0857072
2.17386e+06
0.006317
8.03997e-05
11.074
1.3705
1.91858e-05
1743.93
44.478
0.0272006
44.2275
0.394549
0.1085
3.82731e-06
0.0014375
0.517282
0.00340907
3.02405
0.0140799
0.0615949
3.13641e-06
0.000298819
17.0028
0.0325366
0.0886743
1.4728
6.47962
0.0637967
0.0569996
4.80688e-06
0.00114092
0.0952433
0.00237397
9.63572e+07
133717
0.691762
9.20728e-06
0.94587
83266.8
0.00729613
2.71466e+09
1.6937e-05
5.89591
0.00654782
2.05498e+07
22185.7
1.11426e+08
6.18152e-07
1.02932
536895
0.0269327
15.5838
0.0983797
1.15077e-05
0.16449
0.0298103
0.000239115
1.45793e+10
0.0060457
1.43891e+06
0.293565
4.1447e-07
7.64533
144460
0.553035
2.10791e-06
1.19089
1.60829e-07
0.178448
5.97447e+06
0.020718
457738
0.109986
0.00101768
1.76032e+09
0.000111445
0.220514
0.0696307
15.3027
0.713797
1.5543e+06
5.46798e-07
64.9097
26753.5
0.453625
1479.68
1.0943
2.26075
0.315596
1.51504e+06
3.04439e-06
2.11715
8.046e-05
838.219
0.541796
4.55697
52951.1
1.56453e-06
0.0607803
0.382963
0.0205099
0.00021596
0.0281652
335088
0.0343137
4.31219
0.0485576
1.53323e-05
0.011381
0.193585
0.0236576
0.00595543
0.0133142
5.42072e+06
2.00178e+06
5.32106e-05
0.0219999
0.00024291
2.63599e+08
5.40785e+07
0.0385125
5.60311e-05
7.76632e+07
5.30561e+06
1.91059e-05
1.2059e+08
1067.85
0.320569
1067.58
0.147701
1196.55
0.0206879
1440.93
0.110476
5900.93
0.00258685
0.246876
0.000198778
2450.17
0.029562
2021.59
0.00804638
0.272379
0.483316
0.000962178
108.4
3248.81
0.000569363
0.235117
2714.42
8.35201e-05
3960.69
0.000124392
3340.4
0.00198288
2070.07
0.000792518
0.0709936
0.00028935
1.53795
990.509
0.0553687
1.89114e-05
23.6495
922.018
0.0171675
1181.79
0.0249135
0.0739217
13.7646
0.0613611
4.95868e-05
103.031
677.041
0.140619
1.32251
595.776
0.0354443
277882
4.54717
631108
0.253466
1.65557e+06
0.149534
52423.4
2.51814
8300.13
0.000122103
0.0343608
0.24757
120.061
2.07095e-05
0.130036
507.386
2.82332e-06
0.375211
0.0487994
1.01363e-05
64.9865
0.1975
126488
2.33043e-05
15.5367
0.0843754
4.67911e-05
2.37099
0.00267222
2.4416e+09
0.00200861
1.46782e+08
4.67679
136.487
1.01081
0.126514
13067
0.000468806
0.0416834
0.208092
350.172
0.000242361
0.0560448
0.108037
24452
0.000122336
0.0543302
0.389245
75.7337
0.348951
1214.61
510.652
2.24629e-06
192.35
1.54996e-06
16.0182
4.355e-06
80.4981
8.24937e-06
0.0959891
7.97033e-05
0.186381
1.38578e-05
0.309784
1.45823e-05
0.0732126
9.63797e-05
0.000859796
0.564397
0.000175219
0.557632
2.01734e-05
0.00595792
3.34408
5.28097e-05
3.00349
0.000416076
30.3563
17.6142
400.432
286.897
0.000387676
0.000157654
0.00172665
0.00187891
5.21327e+06
1.19857e+07
2.97254e+07
3.33118e+07
547.483
3.37679e-06
327.68
2.35706e-06
569.516
1.41554e-05
620.776
1.67418e-05
6.57701e-06
0.0957378
1.95909e-05
0.155867
6.03364e-06
1.03643
1.46104e-06
1.09393
18161.9
60778
13306.6
2918.26
5.45294
6.81211
11.8246
10.2382
0.232555
3814.77
0.210467
2525.71
0.153947
14867.8
0.100946
17045.8
0.0133971
0.0216641
0.01159
0.00381568
0.17315
0.110668
0.0769573
0.206828
1.41318
6.1839e-05
6.22447
2.72433e-05
1.56203
1.95371e-05
0.313154
5.45303e-05
11438.3
6126.34
15106.9
58737.9
6125.09
707.907
76.4345
1124.75
0.0179135
1.26342e-06
0.00764298
0.043227
0.0649253
0.00189736
0.00307851
0.00443947
0.0032719
1608.25
0.117793
4932.66
0.0846662
6936.43
0.106435
2520.36
0.135808
2.51121e-05
102.988
6.24113e-06
167.7
2.45637e-06
231.287
5.92403e-06
181.596
0.00755592
16001.4
0.00192517
2731.85
0.00149171
775.673
0.0110128
4434.92
5.78817e+06
3.04156e+07
2.11137e+07
3.15668e+06
10105.4
0.0447121
1317.95
0.00507412
1028.94
0.000200023
12050.5
0.00133828
0.0771803
183726
0.0265998
581952
0.122263
102729
0.10861
15768.7
3391.88
0.000598381
1934.31
5.46919e-05
1131.1
8.61184e-05
2081.42
0.00112068
173.896
763.966
1737.04
618.999
104.4
45.753
35.711
110.927
0.131434
0.108177
0.0371827
0.0267444
0.000328082
2.88351e+09
0.000429905
5.43169e+08
0.000509566
3.95951e+08
0.000485179
7.11463e+09
0.0141681
1.30945e+06
0.0303252
190187
0.0822792
141630
0.0345983
1.08717e+06
0.204007
0.27914
0.0339573
0.0703586
4.11958e+06
722584
95185.3
512478
13.5264
28.4139
6.4726
2.69007
57.3909
78.4486
18.0987
10.8537
4.65431e-07
30.4822
3.56346e-07
96.6268
8.49581e-07
150.392
2.54183e-06
135.951
5.11351e-05
0.768627
133.761
1.88902e-05
94.9008
0.000165298
150.234
0.000179064
177.125
36229.5
517420
1.41681e+06
144570
8080.56
3.18419e-06
12247.8
2.49731e-05
759.356
7.16778e-06
560.8
1.4773e-06
0.194995
0.172093
0.278845
0.550598
0.321304
0.3571
0.0649194
0.121875
0.000101541
0.000680132
0.000888763
9.55763e-05
28286.4
0.182908
5495.51
0.270033
319.773
0.577945
1689.89
0.83943
0.00106431
0.0123585
0.0182305
0.000972573
0.0063146
0.0031082
0.00390543
0.00436283
0.0951827
0.0941424
0.0822072
0.0609346
0.00226588
0.00301927
0.0310079
0.0330516
0.000517674
0.0013409
0.0176621
0.00400672
0.0632451
0.0100848
0.0217888
13.1762
49.5529
381.791
202.091
3.5469
9.6493
4.06668
0.698146
9.29328
20.3017
15.5207
5.52815
348.331
40.412
24.6669
156.944
0.0277743
0.0132883
0.023695
0.0330732
0.000944482
0.000946
0.00165534
0.00689918
0.0202241
0.037086
0.021086
0.0070616
0.0981155
0.225782
0.445621
0.919889
0.0816501
0.0510506
0.0430801
0.17456
0.142889
0.0794427
0.073237
0.140931
0.0543524
0.0303781
0.0987756
0.102373
0.157851
0.0862514
0.0772247
0.0850471
0.131119
0.115149
0.185084
0.213492
0.160612
0.0319847
0.0490917
0.189189
0.0432476
0.0309952
0.24943
0.10546
0.0908428
0.113033
0.112661
0.198892
0.195611
0.426001
0.607673
0.187693
0.0441625
0.0328889
0.0320293
0.0471494
0.0743756
0.121375
0.529537
0.139917
0.488429
0.0197718
0.0327008
0.385155
0.158163
0.119561
0.734196
0.906277
0.000712252
0.0077792
0.0163515
0.00154599
0.00146989
0.00018472
0.000158677
0.00645744
0.00866844
0.00982436
0.00229081
0.0621964
0.150241
0.133571
0.0626209
0.00321594
0.00523521
0.00350556
0.00457656
0.0251538
0.0351828
0.00833194
0.00537279
1.40261
1.22724
0.744612
1.67358
0.0209417
0.0220527
0.0254072
0.0538086
0.276008
0.16167
0.25975
0.0803969
0.0894575
0.0182675
0.0247924
0.0945597
0.075869
0.0361666
0.125807
0.176423
0.0317043
0.0531949
0.0190674
0.0169187
0.0517573
0.0296612
0.081191
0.162402
12.0273
12.2368
3.77896
8.6723
39.9798
30.7791
7.88671
8.87844
0.0918764
0.289754
1.03481
0.366346
4.98777
5.70641
3.05839
5.99269
0.0296206
0.111594
0.023807
0.00651764
0.000916533
0.00381246
0.00295303
0.000927828
0.0257276
0.0710721
0.0237387
0.00976716
10.0363
7.98393
5.25485
2.27271
0.0751839
0.0925115
0.214978
0.137939
10.0026
8.30227
2.0488
1.90438
0.00347426
0.121224
0.533193
0.0120185
2.89059
1.04736
0.259449
1.50488
1.28183
2.29263
2.76789
0.827267
1.33096
0.703177
0.7808
3.06359
1.09937
1.71364
3.87459
6.60979
0.624062
0.62135
0.846156
0.803387
0.132783
0.0576395
0.00498528
0.191203
7.83225e-05
0.00649621
0.0694328
0.0125044
0.00751134
0.0456666
0.0059599
85.0626
78.4414
0.00225876
0.213393
0.00166211
0.761102
0.0557772
0.00048506
0.149307
0.00197064
0.0780824
0.00130257
0.00166517
24.4578
2.50817e-05
5.42877
60.6623
0.294193
0.00284152
47.6871
1.04234
0.000899039
0.0191233
31.1823
25.0623
0.147537
0.856887
34.9655
0.888552
0.753733
0.0128847
0.0165619
1.59364
12.0415
0.00548539
1.00882
0.00108438
0.0108772
45.8333
0.00186935
0.218261
0.0027973
13.3465
0.00514484
0.501899
0.00519298
0.0885221
0.108135
0.0645489
0.00422818
0.120059
0.0410773
0.171215
0.00151099
0.0296074
0.012526
0.235437
0.0176848
0.0213929
0.729101
0.0104121
0.0342746
0.000885398
0.389488
0.271357
0.12293
0.00650593
0.190394
0.32709
0.0801769
0.507676
0.597847
0.606108
0.000141119
0.755904
3.93379e-05
0.100312
0.000145376
0.123943
0.00069806
0.590347
84.7619
0.226456
28.3361
0.00805695
0.0167894
0.050237
0.0483297
0.0418283
0.0171647
0.0172939
0.941742
5.79364
1.93919e-05
2.82679
2.09816e-05
7.3821
0.000123953
27.7268
0.000149399
7.56768
14.9245
1.86066
44.5607
1.1549
72.9638
3.95229
37.2246
2.56521e-06
0.0332212
0.203468
0.0493071
0.127703
0.0282762
0.00741751
0.00714743
0.0132515
0.00717675
0.227847
0.0199722
0.0121652
0.00229098
0.0120577
0.00101877
0.00393524
0.011156
0.00296317
0.00515044
0.00205374
0.188155
0.000486316
0.131837
0.0133087
0.00340392
0.000714407
0.117512
1.07182
0.454138
8.06602
0.158117
0.0023402
0.647044
1.50876
0.151303
0.19011
1.63826
0.41147
7.90279
0.051686
0.130361
0.0148059
0.13246
0.3797
34.1906
0.00289268
0.0182975
0.00623148
0.158673
0.00195846
0.0318758
0.00132808
0.173558
0.00182577
0.344744
0.00462816
0.0597272
0.00137313
0.72442
0.00205579
1.01963
1.09653e-05
0.189621
9.22227e-05
0.14797
0.000116268
0.203688
0.00331662
0.0621458
0.0123813
0.0342597
0.00234105
0.114269
0.00628952
0.0086347
59.931
0.00626039
0.00874949
0.00545625
0.275912
0.011938
0.0541836
0.378682
0.721971
1.07668
0.562403
0.00599723
25.097
0.0128829
0.384829
0.00265603
0.002069
0.00586023
0.0108055
8.21684e-05
0.00145681
3.06391
0.191436
0.594198
3.35959
1.71772
1.09359e-05
0.378136
0.000233914
8.98336
1.16198e-05
0.388614
3.1742e-06
0.735695
0.000525701
28.0322
1.39508e-06
0.602636
2.74928e-07
0.137153
0.000988917
0.18894
1.57086e-06
0.680948
1.5501
0.34
0.856315
2.22666e-06
0.00192838
0.835672
2.23579
0.0200074
0.00965185
1.84266e-05
0.0387255
0.10962
0.0318152
17.9609
3.33577
0.168865
0.190183
0.235162
0.000123847
0.0361645
2.82679e-06
0.35021
0.0184972
0.118276
4.47668e-06
0.0216566
0.00396303
0.149247
10.9175
1.05449
4.22382
0.00039107
106.019
0.0131201
2.59266
1.00903
2.22884
4.27309
3.69226e-06
0.232403
0.000191748
0.00110024
18.7403
0.205081
0.145795
3.06189
14.4616
0.000486728
7.5694
1.69935e-06
0.0761016
4.33962e-07
0.0886312
6.50716e-07
0.545496
9.38081e-07
0.0288597
68.4429
0.0156787
0.709981
0.0298184
0.0374567
3.02515
0.0617612
0.581268
0.119001
38.6095
0.0133794
58.4537
0.307401
1.74462
0.0366564
58.5657
0.0269962
0.19848
0.0211421
1.88618
0.10646
1.53192
0.0174457
0.722017
0.0322495
0.00138224
146.997
0.0254927
0.110253
218.174
1.18929e-05
0.0249793
0.358605
339.24
9.05566e-07
0.0697144
0.000171998
0.0131429
9.13725e-06
0.253799
0.126719
0.317071
0.00080937
0.0105229
0.000911777
0.864723
0.000184203
0.0568317
1.48366e-06
0.69319
1.39036e-05
0.0589707
0.0628925
0.354095
8.79096e-06
0.112322
3.8843e-07
0.400688
8.80066e-05
0.132576
0.00830933
8.51706
5.44223
6.93714
0.0338854
0.00978337
1.40423
23.7896
0.0146787
4.70551
13.1283
0.740878
0.0459038
0.00902602
0.0952056
0.00371737
2.36215
0.0387364
0.28162
0.0137507
0.00318191
0.662
0.106728
0.244407
0.00302208
5.91305
0.0883325
0.00880695
10.2347
0.0116493
0.00985439
14.9105
0.00479747
0.309393
0.131041
0.0707366
0.0141482
0.470136
0.0341503
0.5343
0.00303851
0.00493468
0.00609941
0.00110372
0.0167535
38.2755
0.0309678
2.44847
0.0129045
0.0162939
6.48976e-06
0.0022189
0.00521178
0.00421445
1.08349
15.497
0.163536
0.0118608
1.29172
0.0165235
0.0034998
0.0624975
0.60287
0.000542388
0.00488083
0.213185
21.9045
0.0104857
0.163147
0.482358
0.198567
36.2125
0.0594542
18.4857
0.898699
1.29354e-05
0.171402
50.8031
0.0464066
8.71978
2.93383
39.8319
3.13096
0.292166
0.00409906
3.19462
3.38434e-05
0.127612
0.296828
1.05711
1.43726
0.376294
6.26e-07
0.00221235
0.0414579
29.2093
16.2761
7.96942
0.0204523
0.40632
0.86842
0.000990421
0.0762581
0.0157397
0.683769
0.000716583
0.00162612
0.131168
45.1708
0.0243819
0.0691746
1.32646
0.000896669
0.0499857
31.3674
0.0246053
0.0493078
2.43497
0.000858684
0.56856
22.4568
0.00341285
0.00339214
0.119018
18.6793
0.00160618
1.39081
0.00276984
0.304245
0.159697
0.504525
0.00151288
0.0555074
37.4741
0.0661156
0.236159
0.00453182
0.861979
0.00259489
0.244526
0.0181875
0.111803
0.00648492
0.000182875
0.00388369
0.119282
0.01689
0.48472
0.00349824
0.000730453
0.0649999
0.311841
0.52426
0.0035571
0.00323194
6.21363e-05
51.5822
0.00338808
0.00147462
0.00175347
0.520574
0.000855493
0.685874
0.000190757
3.06987
0.000104031
1.38904
3.52141e-05
0.00346225
8.74979e-05
0.00243917
0.00906692
0.13463
0.0114155
1.40694
0.00841872
1.69829
0.000223322
0.00145675
0.00516469
0.622137
1.88051e-05
0.0330348
0.00536855
3.68333
20.3778
0.000674942
0.000142671
0.000258288
0.000967409
0.128179
21.92
0.544479
12.9743
0.0713209
12.0906
0.0356187
19.7641
1.85645
1.18363
3.36444
2.85123
0.13625
1.95685
0.0857519
1.19423
23.6239
36.7358
33.6992
37.7676
2.44924
26.6545
1.95224
7.26946
7.29571
0.80295
14.331
2.40236
0.0937208
0.11625
0.397721
0.641253
3.05396
5.916
8.66071
9.71096
10.9951
18.6658
35.9999
15.7275
354.617
146.789
3.18766
12.2805
0.80811
0.0139347
1.30935
0.00484531
1.20965
0.0108258
1.2911
0.0256368
0.151921
0.0523006
0.0625887
0.0171861
0.39244
0.110506
0.684675
0.147812
2.8946
0.354761
0.939287
18.745
63.5499
49.0977
68.053
30.6354
24.2156
0.186891
0.0144505
0.0591909
0.0201982
0.0447233
0.00746978
0.0675752
0.00273594
0.756865
0.0560805
1.72559
0.0564081
1.037
0.043052
1.02881
0.0287584
21.7849
0.00255482
9.9779
0.0175416
1.89678
0.016769
3.93811
0.0011971
0.00211019
0.000984771
7.8893e-05
0.000632667
0.0439576
0.651381
0.0702615
0.0724667
0.0745805
0.0716916
0.128963
0.0475424
0.504374
0.0747775
0.1822
0.137803
0.0728677
1.0569
17.6412
0.817321
27.3229
0.438702
7.88767
0.770802
3.4712
0.0597093
0.000334183
0.0002151
0.000244546
0.000171468
1.05068
13.7116
0.124466
4.78434
1.04833
17.9543
3.34299
40.0413
0.00797253
29.7976
0.019885
34.2917
0.0407922
11.6355
0.0181499
13.3513
9.89207
3.68104
7.59044
23.344
3.40793
3.09204
0.373597
9.31543
0.0962256
17.1851
0.13423
4.76503
1.29118
4.09922
0.00180486
12.3184
0.00369603
12.3375
0.00871152
19.0488
0.00710226
0.0181515
16.8289
0.392452
0.106543
0.160551
0.468306
0.480428
0.114259
0.174773
0.192331
0.911558
0.0886283
2.27294
0.0334653
0.302463
0.781439
0.528831
0.12567
0.0268499
0.231198
0.0431813
0.00693847
0.117522
0.17868
0.434678
0.236539
1.53421
4.57724
5.00131
8.35973
8.55725
2.03095
1.30092
0.692463
0.072833
0.0981117
0.236484
0.227437
0.0147546
0.00405862
0.00992633
0.0206123
0.137643
0.373479
0.228405
0.107337
0.00697131
0.0249467
0.0128422
0.00364523
20.3461
6.11926
8.63007
25.9884
3.31983
0.689794
0.854969
2.20744
0.877946
0.973681
0.526317
1.02667
0.32081
0.448769
0.271156
0.290427
3.90537
0.96506
1.3263
1.45415
2.63641
1.74255
1.97487
5.12964
0.00189329
0.00248864
0.0689459
0.0370863
0.0335949
0.24336
0.293484
0.630877
0.508078
0.715319
0.0821324
0.0147124
0.465703
0.0703834
0.541734
0.0626685
0.421019
0.00773681
0.150228
2.14285
1.35678
0.601712
1.1645
0.657094
2.12441
0.515262
0.193158
20.252
5.18622
0.190909
0.103674
0.248508
0.259749
1.31894
4.48179
1.13554
0.216525
37.4564
11.6273
4.74312
12.4671
5.02516
1.02793
1.92035
6.72194
37.4541
26.5833
4.12399
14.4379
519.32
107.926
118.977
400.581
2436.82
1716.8
1020.61
3914.09
185.744
73.0761
596.188
1436
2.63306
13.0097
22.8116
2.66148
1797.52
3197.72
3779.72
2936.84
2785.97
1826.25
958.434