# vtk DataFile Version 2.0
Unstructured Grid by M++
ASCII
DATASET UNSTRUCTURED_GRID
POINTS 289 float
  0.562500   1.000000 0
  0.562500   0.625000 0
  0.625000   1.000000 0
  0.562500   0.937500 0
  0.562500   0.562500 0
  0.625000   0.937500 0
  0.562500   0.875000 0
  0.625000   0.750000 0
  0.625000   0.625000 0
  0.562500   0.812500 0
  0.562500   0.750000 0
  0.562500   0.687500 0
  0.625000   0.875000 0
  0.625000   0.812500 0
  0.625000   0.687500 0
  0.687500   0.125000 0
  0.875000   0.062500 0
  0.625000   0.125000 0
  0.625000   0.187500 0
  0.625000   0.250000 0
  0.812500   0.187500 0
  1.000000   0.125000 0
  0.687500   0.187500 0
  0.750000   0.125000 0
  0.937500   0.062500 0
  0.937500   0.125000 0
  0.750000   0.187500 0
  0.812500   0.062500 0
  0.812500   0.125000 0
  0.875000   0.687500 0
  0.187500   0.250000 0
  0.437500   0.250000 0
  0.375000   0.187500 0
  0.812500   0.625000 0
  0.125000   0.187500 0
  0.937500   0.750000 0
  0.250000   0.312500 0
  0.500000   0.312500 0
  0.625000   0.062500 0
  0.437500   0.500000 0
  0.375000   0.125000 0
  0.437500   0.187500 0
  0.437500   0.437500 0
  0.437500   0.375000 0
  0.875000   0.875000 0
  0.187500   0.375000 0
  0.687500   0.562500 0
  0.687500   0.625000 0
  0.000000   0.125000 0
  0.937500   0.625000 0
  0.250000   0.125000 0
  0.375000   0.062500 0
  0.375000   0.000000 0
  0.812500   0.500000 0
  0.125000   0.000000 0
  0.937500   0.937500 0
  0.250000   0.437500 0
  0.687500   0.875000 0
  0.687500   0.937500 0
  0.000000   0.437500 0
  0.500000   0.500000 0
  0.500000   0.437500 0
  0.750000   0.937500 0
  0.750000   1.000000 0
  0.062500   0.500000 0
  1.000000   1.000000 0
  0.312500   0.500000 0
  0.875000   0.562500 0
  0.187500   0.062500 0
  0.437500   0.125000 0
  0.437500   0.062500 0
  0.500000   0.375000 0
  0.937500   0.812500 0
  0.937500   0.875000 0
  0.250000   0.375000 0
  0.687500   0.812500 0
  0.000000   0.375000 0
  0.750000   0.562500 0
  0.062500   0.125000 0
  1.000000   0.562500 0
  1.000000   0.625000 0
  0.312500   0.125000 0
  0.562500   0.125000 0
  0.437500   0.000000 0
  0.875000   0.437500 0
  0.875000   0.500000 0
  0.187500   0.000000 0
  0.937500   0.562500 0
  0.937500   0.500000 0
  0.250000   0.062500 0
  0.687500   0.500000 0
  0.000000   0.062500 0
  0.500000   0.062500 0
  1.000000   0.875000 0
  1.000000   0.937500 0
  0.312500   0.437500 0
  0.750000   0.875000 0
  0.062500   0.437500 0
  0.812500   0.937500 0
  0.125000   0.500000 0
  0.375000   0.500000 0
  0.625000   0.562500 0
  0.625000   0.500000 0
  0.437500   0.312500 0
  0.875000   0.812500 0
  0.875000   0.750000 0
  0.187500   0.312500 0
  0.812500   0.687500 0
  0.812500   0.750000 0
  0.125000   0.250000 0
  0.375000   0.250000 0
  1.000000   0.687500 0
  0.312500   0.187500 0
  0.750000   0.687500 0
  0.750000   0.625000 0
  0.062500   0.187500 0
  0.562500   0.250000 0
  0.562500   0.187500 0
  0.375000   1.000000 0
  0.500000   0.562500 0
  0.500000   0.250000 0
  0.750000   0.250000 0
  0.500000   0.125000 0
  0.500000   0.187500 0
  1.000000   0.187500 0
  0.625000   0.375000 0
  0.875000   0.375000 0
  1.000000   0.437500 0
  0.312500   0.000000 0
  0.562500   0.000000 0
  0.812500   0.000000 0
  0.250000   0.687500 0
  0.000000   0.687500 0
  0.500000   1.000000 0
  0.250000   1.000000 0
  0.000000   1.000000 0
  0.437500   0.687500 0
  0.437500   0.625000 0
  0.187500   0.625000 0
  0.687500   0.750000 0
  0.000000   0.312500 0
  0.000000   0.250000 0
  0.375000   0.375000 0
  0.375000   0.312500 0
  0.812500   0.812500 0
  0.125000   0.312500 0
  0.875000   0.625000 0
  0.187500   0.187500 0
  0.187500   0.125000 0
  0.937500   1.000000 0
  0.250000   0.562500 0
  0.250000   0.500000 0
  0.687500   1.000000 0
  0.000000   0.500000 0
  0.687500   0.687500 0
  0.000000   0.187500 0
  0.937500   0.687500 0
  0.250000   0.250000 0
  0.250000   0.187500 0
  0.187500   0.687500 0
  0.000000   0.750000 0
  0.250000   0.750000 0
  0.125000   0.625000 0
  0.750000   0.750000 0
  0.062500   0.250000 0
  0.875000   0.937500 0
  0.187500   0.500000 0
  0.187500   0.437500 0
  0.812500   0.562500 0
  0.125000   0.125000 0
  0.125000   0.062500 0
  0.375000   0.625000 0
  0.375000   0.687500 0
  1.000000   0.750000 0
  0.312500   0.250000 0
  0.312500   0.312500 0
  0.812500   0.312500 0
  0.562500   0.312500 0
  0.375000   0.750000 0
  0.500000   0.625000 0
  0.250000   0.625000 0
  0.312500   0.687500 0
  0.750000   0.812500 0
  0.062500   0.312500 0
  0.062500   0.375000 0
  1.000000   0.812500 0
  0.312500   0.375000 0
  0.562500   0.375000 0
  0.687500   0.437500 0
  0.000000   0.000000 0
  0.500000   0.000000 0
  0.937500   0.437500 0
  0.250000   0.000000 0
  0.375000   0.437500 0
  0.812500   0.875000 0
  0.125000   0.375000 0
  0.125000   0.437500 0
  0.625000   0.437500 0
  1.000000   0.500000 0
  0.312500   0.062500 0
  0.750000   0.500000 0
  0.062500   0.000000 0
  0.062500   0.062500 0
  0.562500   0.062500 0
  0.062500   0.750000 0
  0.312500   0.750000 0
  0.312500   0.625000 0
  0.312500   0.562500 0
  0.062500   0.562500 0
  0.187500   1.000000 0
  0.437500   0.562500 0
  0.875000   1.000000 0
  0.187500   0.562500 0
  0.500000   0.937500 0
  0.250000   0.937500 0
  0.312500   1.000000 0
  0.125000   0.750000 0
  0.125000   0.687500 0
  1.000000   0.000000 0
  0.000000   0.937500 0
  0.000000   0.875000 0
  0.875000   0.125000 0
  0.875000   0.187500 0
  0.062500   0.812500 0
  0.312500   0.812500 0
  0.000000   0.812500 0
  0.000000   0.625000 0
  0.000000   0.562500 0
  0.062500   1.000000 0
  0.062500   0.937500 0
  0.937500   0.187500 0
  0.937500   0.250000 0
  0.062500   0.687500 0
  0.062500   0.625000 0
  0.125000   1.000000 0
  1.000000   0.250000 0
  1.000000   0.312500 0
  0.062500   0.875000 0
  0.125000   0.812500 0
  0.375000   0.812500 0
  0.125000   0.875000 0
  0.375000   0.937500 0
  0.375000   0.875000 0
  0.187500   0.750000 0
  0.187500   0.812500 0
  0.437500   0.812500 0
  0.187500   0.875000 0
  0.437500   0.875000 0
  0.375000   0.562500 0
  0.812500   1.000000 0
  0.125000   0.562500 0
  0.437500   1.000000 0
  0.437500   0.937500 0
  0.187500   0.937500 0
  0.125000   0.937500 0
  0.500000   0.687500 0
  0.500000   0.750000 0
  0.500000   0.812500 0
  0.250000   0.812500 0
  0.250000   0.875000 0
  0.500000   0.875000 0
  0.437500   0.750000 0
  0.312500   0.875000 0
  0.312500   0.937500 0
  0.687500   0.250000 0
  0.687500   0.312500 0
  0.937500   0.312500 0
  0.875000   0.250000 0
  0.625000   0.000000 0
  0.875000   0.000000 0
  0.687500   0.375000 0
  0.937500   0.375000 0
  0.875000   0.312500 0
  0.625000   0.312500 0
  0.687500   0.000000 0
  0.937500   0.000000 0
  0.750000   0.312500 0
  0.750000   0.375000 0
  1.000000   0.375000 0
  0.812500   0.250000 0
  0.562500   0.437500 0
  0.562500   0.500000 0
  0.687500   0.062500 0
  0.750000   0.437500 0
  0.750000   0.000000 0
  0.750000   0.062500 0
  1.000000   0.062500 0
  0.812500   0.375000 0
  0.812500   0.437500 0
CELLS 256 1280
4 169 170 148 68
4 151 166 56 167
4 195 45 196 167
4 54 170 201 202
4 109 34 30 147
4 40 32 81 112
4 192 89 86 68
4 48 91 78 202
4 99 64 196 97
4 71 43 37 103
4 74 186 56 95
4 109 164 34 115
4 50 81 158 112
4 122 69 92 70
4 195 145 45 106
4 110 143 174 175
4 157 30 158 147
4 40 69 32 41
4 50 158 148 147
4 141 155 164 115
4 122 123 69 41
4 142 186 143 175
4 60 39 61 42
4 40 51 69 70
4 120 31 123 41
4 157 174 36 175
4 50 148 89 68
4 48 78 155 115
4 52 83 51 70
4 151 56 66 95
4 71 61 43 42
4 169 148 34 147
4 100 193 39 42
4 40 81 51 199
4 110 174 32 112
4 109 30 145 106
4 100 66 193 95
4 169 34 78 115
4 190 92 83 70
4 50 89 81 199
4 54 86 170 68
4 74 56 45 167
4 142 143 43 103
4 153 59 64 97
4 99 196 166 167
4 169 78 170 202
4 142 193 186 95
4 192 128 89 199
4 74 45 36 106
4 110 31 143 103
4 76 184 59 97
4 142 43 193 42
4 52 51 128 199
4 189 201 91 202
4 120 37 31 103
4 74 36 186 175
4 195 196 184 97
4 141 164 140 183
4 157 158 174 112
4 109 145 164 183
4 195 184 145 183
4 110 32 31 41
4 157 36 30 106
4 76 140 184 183
4 171 172 206 181
4 178 172 261 136
4 256 261 255 136
4 256 257 261 245
4 180 150 206 207
4 60 119 39 210
4 118 215 241 263
4 178 205 172 181
4 216 243 238 244
4 162 217 233 232
4 180 206 131 181
4 179 137 119 210
4 216 204 217 232
4 220 237 219 229
4 216 217 243 159
4 259 258 262 224
4 240 254 237 229
4 153 64 227 208
4 161 205 258 224
4 240 237 238 223
4 226 227 233 208
4 234 228 254 229
4 171 248 137 210
4 160 132 204 232
4 180 131 138 159
4 133 251 213 252
4 171 206 248 207
4 162 138 217 159
4 161 258 243 244
4 220 225 237 223
4 151 150 166 212
4 260 247 257 245
4 259 262 214 263
4 151 66 150 207
4 234 254 209 253
4 162 233 250 208
4 242 241 262 263
4 171 137 172 136
4 161 243 131 159
4 160 204 225 223
4 161 131 205 181
4 179 255 137 136
4 216 238 204 223
4 100 39 248 210
4 260 213 247 252
4 226 233 132 232
4 134 214 215 263
4 180 138 150 212
4 178 261 239 245
4 259 246 258 244
4 178 239 205 224
4 240 238 246 244
4 242 262 239 224
4 99 250 64 208
4 240 246 254 253
4 242 239 247 245
4 135 219 228 229
4 99 166 250 212
4 259 214 246 253
4 118 241 251 252
4 100 248 66 207
4 134 209 214 253
4 162 250 138 212
4 242 247 241 252
4 71 187 61 280
4 102 281 197 280
4 122 92 82 203
4 17 18 82 117
4 122 82 123 117
4 19 264 273 265
4 267 279 222 20
4 125 273 270 265
4 267 272 279 176
4 19 116 18 117
4 21 25 286 24
4 23 28 26 20
4 23 285 28 27
4 218 286 275 24
4 85 53 84 288
4 235 236 231 266
4 221 222 28 20
4 267 222 231 230
4 268 38 129 203
4 125 270 197 188
4 126 287 272 176
4 277 270 276 265
4 267 231 272 266
4 125 197 187 280
4 190 129 92 203
4 277 276 287 176
4 19 18 264 22
4 17 82 38 203
4 102 197 90 188
4 126 84 287 288
4 284 130 285 27
4 121 276 264 265
4 71 37 187 177
4 120 123 116 117
4 198 88 127 191
4 221 16 25 24
4 23 26 15 22
4 121 279 276 176
4 235 231 124 230
4 125 187 273 177
4 278 271 236 266
4 277 287 283 288
4 284 285 274 282
4 278 127 271 191
4 269 275 16 24
4 200 283 53 288
4 23 15 285 282
4 121 26 279 20
4 21 124 25 230
4 19 273 116 177
4 200 90 283 188
4 126 271 84 191
4 269 16 130 27
4 17 38 15 282
4 221 25 222 230
4 121 264 26 22
4 120 116 37 177
4 60 61 281 280
4 277 283 270 188
4 126 272 271 266
4 268 274 38 282
4 85 84 88 191
4 17 15 18 22
4 221 28 16 27
4 93 94 73 55
4 85 88 67 87
4 80 49 79 87
4 44 104 73 72
4 146 33 67 168
4 211 165 149 55
4 8 47 14 154
4 105 104 108 144
4 105 108 29 107
4 7 139 13 75
4 44 165 194 98
4 200 53 77 168
4 8 1 101 4
4 2 5 152 58
4 260 6 213 3
4 105 35 104 72
4 96 57 182 75
4 7 14 139 154
4 146 29 33 107
4 7 13 10 9
4 12 13 57 75
4 85 67 53 168
4 44 73 165 55
4 63 152 62 58
4 8 101 47 46
4 96 182 194 144
4 60 281 119 4
4 12 5 6 3
4 173 185 35 72
4 65 149 94 55
4 146 67 49 87
4 114 113 47 154
4 163 108 182 144
4 12 6 13 9
4 173 35 111 156
4 163 182 139 75
4 260 257 6 9
4 105 29 35 156
4 163 139 113 154
4 256 10 257 9
4 146 49 29 156
4 163 113 108 107
4 80 111 49 156
4 102 101 281 4
4 12 57 5 58
4 44 194 104 144
4 96 194 62 98
4 2 0 5 3
4 93 73 185 72
4 179 119 1 4
4 200 77 90 46
4 114 33 113 107
4 7 10 14 11
4 96 62 57 58
4 133 213 0 3
4 102 90 101 46
4 256 255 10 11
4 63 62 249 98
4 114 47 77 46
4 179 1 255 11
4 211 249 165 98
4 114 77 33 168
4 198 79 88 87
4 8 14 1 11
CELL_TYPES 256
8
8
8
8
8
8
8
8
8
8
8
8
8
8
8
8
8
8
8
8
8
8
8
8
8
8
8
8
8
8
8
8
8
8
8
8
8
8
8
8
8
8
8
8
8
8
8
8
8
8
8
8
8
8
8
8
8
8
8
8
8
8
8
8
8
8
8
8
8
8
8
8
8
8
8
8
8
8
8
8
8
8
8
8
8
8
8
8
8
8
8
8
8
8
8
8
8
8
8
8
8
8
8
8
8
8
8
8
8
8
8
8
8
8
8
8
8
8
8
8
8
8
8
8
8
8
8
8
8
8
8
8
8
8
8
8
8
8
8
8
8
8
8
8
8
8
8
8
8
8
8
8
8
8
8
8
8
8
8
8
8
8
8
8
8
8
8
8
8
8
8
8
8
8
8
8
8
8
8
8
8
8
8
8
8
8
8
8
8
8
8
8
8
8
8
8
8
8
8
8
8
8
8
8
8
8
8
8
8
8
8
8
8
8
8
8
8
8
8
8
8
8
8
8
8
8
8
8
8
8
8
8
8
8
8
8
8
8
8
8
8
8
8
8
8
8
8
8
8
8
8
8
8
8
8
8
POINT_DATA 289
SCALARS scalar_value float 1
LOOKUP_TABLE default
-1.30133
-0.0628213
-1.03129
-1.02494
-0.0355527
-0.890305
-0.834644
-0.38033
-0.0744747
-0.568882
-0.432844
-0.22562
-0.699484
-0.505299
-0.257314
-0.00340622
-0.00225788
-0.00278002
-0.00485228
-0.00683523
-0.0060094
-0.00359123
-0.0054147
-0.003901
-0.00212
-0.00390753
-0.00580409
-0.00175923
-0.00410882
-0.137441
-0.0218152
-0.0170449
-0.0148741
-0.036323
-0.0269285
-0.411873
-0.0198934
-0.0159323
-0.000969238
-0.0251685
-0.00626132
-0.0120693
-0.0226729
-0.0193019
-0.641388
-0.0326776
-0.0132176
-0.0759156
-0.0294896
-0.0528184
-0.00624592
-0.0017775
0
-0.00757381
0
-0.662623
-0.0300939
-0.636638
-0.816415
-0.0889854
-0.0247307
-0.020111
-0.764428
-0.879412
-0.145259
-0.665697
-0.0295229
-0.0119705
-0.00224669
-0.0043794
-0.00118231
-0.0174283
-0.570985
-0.642933
-0.0229487
-0.511905
-0.0566547
-0.01013
-0.0283819
-0.0119156
-0.0614652
-0.0066396
-0.00257332
0
-0.00693676
-0.0075412
0
-0.0121288
-0.00776174
-0.00172972
-0.00837612
-0.0153426
-0.00103423
-0.643612
-0.661527
-0.023754
-0.62156
-0.0845919
-0.710521
-0.117
-0.0262519
-0.0300913
-0.0128463
-0.0183767
-0.543079
-0.3819
-0.0267883
-0.146187
-0.363567
-0.0369203
-0.0182712
-0.205619
-0.0136259
-0.226268
-0.0508496
-0.0343473
-0.00949528
-0.00576939
-1.33104
-0.0288387
-0.0133064
-0.00632632
-0.00331037
-0.00740408
-0.00603821
-0.00836223
-0.00670398
-0.00693767
0
0
0
-0.319197
-0.324838
-1.35893
-1.20521
-0.980731
-0.277036
-0.0465318
-0.223187
-0.363982
-0.0469211
-0.0414871
-0.0201095
-0.0192833
-0.520412
-0.041153
-0.0380089
-0.012619
-0.00554934
-0.668153
-0.0985913
-0.0483297
-0.932095
-0.151928
-0.262448
-0.0350668
-0.179905
-0.0178235
-0.0121245
-0.313683
-0.386673
-0.434145
-0.259347
-0.363345
-0.0403192
-0.674819
-0.0784622
-0.0455719
-0.0103433
-0.0122796
-0.00385636
-0.0735034
-0.298821
-0.420663
-0.0182519
-0.0194148
-0.00666682
-0.0115684
-0.572458
-0.0532365
-0.18677
-0.343445
-0.516185
-0.0451248
-0.0546371
-0.577962
-0.0204199
-0.0127861
-0.00739166
0
0
-0.00695417
0
-0.0230934
-0.635777
-0.0480367
-0.0685077
-0.00953923
-0.00803586
-0.00166762
-0.00773698
0
-0.0124345
-0.00106827
-0.382906
-0.477593
-0.128513
-0.047209
-0.229127
-1.16868
-0.0278686
-0.701615
-0.145795
-1.20182
-1.06981
-1.293
-0.387305
-0.33149
0
-0.927013
-0.799543
-0.00396978
-0.00604968
-0.556027
-0.62889
-0.572337
-0.289089
-0.234899
-1.00561
-0.926011
-0.00596892
-0.00657235
-0.330976
-0.284844
-1.13667
-0.00655102
-0.00664817
-0.795551
-0.525587
-0.757274
-0.798226
-1.16586
-1.04011
-0.404898
-0.524172
-0.863554
-0.812731
-1.08716
-0.0308246
-0.80929
-0.197452
-1.31849
-1.21417
-1.01219
-0.94793
-0.206502
-0.529683
-0.721999
-0.573998
-0.829135
-1.01915
-0.630822
-0.909661
-1.09797
-0.00626993
-0.00669448
-0.00665014
-0.00653231
0
0
-0.00701601
-0.0066969
-0.00665834
-0.00777732
0
0
-0.00666809
-0.00682064
-0.00673138
-0.0064458
-0.0140804
-0.0196944
-0.00105114
-0.00700683
0
-0.00119877
-0.00198058
-0.00674991
-0.00695012
