# vtk DataFile Version 2.0
Unstructured Grid by M++
ASCII
DATASET UNSTRUCTURED_GRID
POINTS 4225 float
  0.921875   0.593750 0
  0.921875   0.609375 0
  0.656250   0.609375 0
  0.671875   0.609375 0
  0.656250   0.546875 0
  0.671875   0.546875 0
  0.656250   0.562500 0
  0.656250   0.578125 0
  0.656250   0.593750 0
  0.671875   0.593750 0
  0.671875   0.562500 0
  0.671875   0.578125 0
  0.671875   0.625000 0
  0.671875   0.640625 0
  0.906250   0.578125 0
  0.890625   0.578125 0
  0.546875   0.515625 0
  1.000000   0.890625 0
  0.515625   0.640625 0
  0.515625   0.625000 0
  1.000000   0.875000 0
  0.515625   0.656250 0
  0.515625   0.687500 0
  0.515625   0.671875 0
  1.000000   0.921875 0
  0.546875   0.531250 0
  0.546875   0.546875 0
  0.546875   0.562500 0
  0.796875   0.531250 0
  0.953125   0.890625 0
  0.953125   0.875000 0
  0.953125   0.843750 0
  0.953125   0.828125 0
  0.953125   0.812500 0
  0.531250   0.562500 0
  0.531250   0.546875 0
  0.515625   0.562500 0
  0.515625   0.546875 0
  1.000000   0.812500 0
  0.781250   0.546875 0
  0.765625   0.546875 0
  0.859375   0.921875 0
  0.921875   0.671875 0
  0.609375   0.906250 0
  0.671875   0.656250 0
  0.609375   0.921875 0
  0.671875   0.671875 0
  0.671875   0.984375 0
  0.671875   1.000000 0
  0.906250   0.984375 0
  0.906250   1.000000 0
  0.921875   0.984375 0
  0.921875   1.000000 0
  0.859375   0.609375 0
  1.000000   0.781250 0
  0.515625   0.531250 0
  0.531250   0.531250 0
  0.531250   0.515625 0
  0.515625   0.515625 0
  1.000000   0.750000 0
  0.765625   0.531250 0
  0.781250   0.531250 0
  0.781250   0.515625 0
  0.765625   0.515625 0
  0.859375   0.875000 0
  0.921875   0.625000 0
  0.859375   0.890625 0
  0.921875   0.640625 0
  0.671875   0.968750 0
  0.671875   0.953125 0
  0.921875   0.968750 0
  0.921875   0.953125 0
  0.859375   0.593750 0
  0.859375   0.578125 0
  0.875000   0.578125 0
  0.828125   0.890625 0
  0.890625   0.640625 0
  0.593750   0.890625 0
  0.656250   0.640625 0
  0.593750   0.875000 0
  0.656250   0.625000 0
  0.578125   0.890625 0
  0.640625   0.640625 0
  0.578125   0.875000 0
  0.640625   0.625000 0
  0.968750   0.890625 0
  0.984375   0.890625 0
  0.968750   0.812500 0
  0.968750   0.828125 0
  0.984375   0.812500 0
  0.984375   0.828125 0
  1.000000   0.828125 0
  0.656250   0.953125 0
  0.640625   0.953125 0
  0.890625   0.968750 0
  0.906250   0.968750 0
  0.906250   0.953125 0
  0.890625   0.953125 0
  0.531250   0.703125 0
  0.531250   0.718750 0
  0.546875   0.718750 0
  0.546875   0.703125 0
  0.593750   0.578125 0
  0.562500   0.578125 0
  0.578125   0.578125 0
  0.843750   0.578125 0
  0.828125   0.578125 0
  0.828125   0.812500 0
  0.890625   0.562500 0
  0.828125   0.796875 0
  0.953125   0.906250 0
  0.953125   0.921875 0
  0.531250   0.859375 0
  0.593750   0.609375 0
  0.531250   0.843750 0
  0.593750   0.593750 0
  0.515625   0.843750 0
  0.578125   0.593750 0
  0.515625   0.859375 0
  0.578125   0.609375 0
  0.937500   0.859375 0
  1.000000   0.609375 0
  0.921875   0.859375 0
  0.984375   0.609375 0
  0.937500   0.796875 0
  0.921875   0.796875 0
  0.984375   0.546875 0
  0.562500   0.812500 0
  0.843750   0.796875 0
  0.843750   0.812500 0
  0.859375   0.796875 0
  0.859375   0.812500 0
  1.000000   0.906250 0
  0.984375   0.906250 0
  0.968750   0.906250 0
  0.968750   0.921875 0
  0.984375   0.921875 0
  0.593750   0.921875 0
  0.656250   0.671875 0
  0.593750   0.906250 0
  0.656250   0.656250 0
  0.578125   0.906250 0
  0.640625   0.656250 0
  0.578125   0.921875 0
  0.640625   0.671875 0
  1.000000   0.843750 0
  0.984375   0.843750 0
  0.968750   0.843750 0
  0.968750   0.859375 0
  0.968750   0.875000 0
  1.000000   0.859375 0
  0.984375   0.859375 0
  0.984375   0.875000 0
  0.656250   1.000000 0
  0.656250   0.984375 0
  0.656250   0.968750 0
  0.640625   0.968750 0
  0.640625   1.000000 0
  0.640625   0.984375 0
  0.843750   0.921875 0
  0.906250   0.671875 0
  0.843750   0.906250 0
  0.906250   0.656250 0
  0.828125   0.906250 0
  0.890625   0.656250 0
  0.828125   0.921875 0
  0.890625   0.671875 0
  0.781250   0.859375 0
  0.843750   0.609375 0
  0.781250   0.843750 0
  0.843750   0.593750 0
  0.765625   0.843750 0
  0.828125   0.593750 0
  0.765625   0.859375 0
  0.828125   0.609375 0
  0.968750   0.609375 0
  0.906250   0.859375 0
  0.953125   0.609375 0
  0.890625   0.859375 0
  0.937500   0.609375 0
  0.875000   0.859375 0
  0.562500   0.593750 0
  0.546875   0.593750 0
  0.531250   0.593750 0
  0.531250   0.609375 0
  0.562500   0.609375 0
  0.546875   0.609375 0
  0.609375   0.625000 0
  0.546875   0.875000 0
  0.609375   0.640625 0
  0.546875   0.890625 0
  0.625000   0.640625 0
  0.562500   0.890625 0
  0.625000   0.625000 0
  0.562500   0.875000 0
  0.921875   0.843750 0
  0.984375   0.593750 0
  0.937500   0.843750 0
  1.000000   0.593750 0
  0.921875   0.812500 0
  0.921875   0.828125 0
  0.984375   0.578125 0
  0.937500   0.828125 0
  1.000000   0.578125 0
  0.937500   0.812500 0
  1.000000   0.562500 0
  0.578125   0.828125 0
  0.921875   0.781250 0
  0.937500   0.781250 0
  1.000000   0.531250 0
  0.921875   0.765625 0
  0.984375   0.515625 0
  0.937500   0.765625 0
  0.625000   0.656250 0
  0.562500   0.906250 0
  0.609375   0.656250 0
  0.546875   0.906250 0
  0.625000   0.671875 0
  0.562500   0.921875 0
  0.609375   0.671875 0
  0.546875   0.921875 0
  0.859375   0.781250 0
  0.859375   0.765625 0
  0.828125   0.671875 0
  0.765625   0.921875 0
  0.828125   0.734375 0
  0.765625   0.984375 0
  0.875000   0.843750 0
  0.937500   0.593750 0
  0.890625   0.843750 0
  0.953125   0.593750 0
  0.906250   0.843750 0
  0.968750   0.593750 0
  0.906250   0.828125 0
  0.968750   0.578125 0
  0.937500   0.578125 0
  0.953125   0.578125 0
  0.906250   0.765625 0
  0.875000   0.765625 0
  0.953125   0.515625 0
  0.531250   0.781250 0
  0.671875   0.890625 0
  0.531250   0.921875 0
  0.953125   0.656250 0
  0.828125   0.781250 0
  0.843750   0.781250 0
  0.703125   0.984375 0
  0.687500   0.984375 0
  0.843750   0.875000 0
  0.906250   0.625000 0
  0.671875   0.781250 0
  0.734375   0.531250 0
  0.906250   0.609375 0
  0.671875   0.765625 0
  0.734375   0.515625 0
  0.906250   0.593750 0
  0.890625   0.593750 0
  0.875000   0.593750 0
  0.828125   0.875000 0
  0.890625   0.625000 0
  0.656250   0.781250 0
  0.718750   0.531250 0
  0.890625   0.609375 0
  0.656250   0.765625 0
  0.718750   0.515625 0
  0.875000   0.609375 0
  0.640625   0.765625 0
  0.703125   0.515625 0
  0.812500   0.921875 0
  0.875000   0.671875 0
  0.812500   0.875000 0
  0.875000   0.625000 0
  0.640625   0.781250 0
  0.703125   0.531250 0
  0.812500   0.515625 0
  0.750000   0.828125 0
  0.812500   0.578125 0
  0.687500   1.000000 0
  0.937500   0.656250 0
  0.875000   0.906250 0
  0.531250   0.656250 0
  0.890625   0.906250 0
  0.906250   0.906250 0
  0.562500   0.656250 0
  0.906250   0.890625 0
  0.562500   0.640625 0
  0.968750   0.625000 0
  0.906250   0.875000 0
  0.562500   0.625000 0
  0.937500   0.640625 0
  0.875000   0.890625 0
  0.890625   0.890625 0
  0.546875   0.640625 0
  0.953125   0.625000 0
  0.890625   0.875000 0
  0.546875   0.625000 0
  0.546875   0.687500 0
  0.890625   0.937500 0
  0.937500   0.625000 0
  0.875000   0.875000 0
  0.531250   0.625000 0
  0.531250   0.640625 0
  0.546875   0.656250 0
  0.937500   0.968750 0
  0.687500   0.968750 0
  0.953125   0.968750 0
  0.703125   0.968750 0
  0.968750   0.968750 0
  0.718750   0.968750 0
  0.718750   0.906250 0
  0.968750   0.953125 0
  0.718750   0.953125 0
  0.968750   0.937500 0
  0.859375   0.906250 0
  0.921875   0.656250 0
  0.718750   0.937500 0
  0.828125   0.531250 0
  0.937500   0.953125 0
  0.687500   0.953125 0
  0.953125   0.953125 0
  0.703125   0.953125 0
  0.703125   0.890625 0
  0.843750   0.515625 0
  0.953125   0.937500 0
  0.953125   1.000000 0
  0.703125   0.937500 0
  0.937500   0.937500 0
  0.687500   0.937500 0
  0.703125   0.906250 0
  0.718750   0.890625 0
  0.687500   0.890625 0
  0.687500   0.765625 0
  0.750000   0.515625 0
  0.687500   0.781250 0
  0.750000   0.531250 0
  0.859375   0.937500 0
  0.921875   0.687500 0
  0.687500   0.796875 0
  0.750000   0.546875 0
  0.578125   0.750000 0
  0.515625   1.000000 0
  0.843750   0.765625 0
  0.578125   0.734375 0
  0.515625   0.984375 0
  0.562500   0.734375 0
  0.828125   0.750000 0
  0.765625   1.000000 0
  0.562500   0.750000 0
  0.562500   0.718750 0
  0.578125   0.515625 0
  0.921875   0.703125 0
  0.921875   0.718750 0
  0.593750   0.515625 0
  0.687500   0.875000 0
  0.750000   0.625000 0
  0.578125   0.531250 0
  0.921875   0.750000 0
  0.703125   0.875000 0
  0.765625   0.625000 0
  0.593750   0.531250 0
  0.875000   0.968750 0
  0.937500   0.718750 0
  0.703125   0.828125 0
  0.765625   0.578125 0
  0.937500   0.734375 0
  0.703125   0.812500 0
  0.765625   0.562500 0
  0.890625   0.687500 0
  0.828125   0.937500 0
  0.656250   0.796875 0
  0.718750   0.546875 0
  0.890625   0.718750 0
  0.828125   0.968750 0
  0.906250   0.796875 0
  0.718750   0.828125 0
  0.781250   0.578125 0
  0.890625   0.703125 0
  0.828125   0.953125 0
  0.656250   0.859375 0
  0.906250   0.781250 0
  0.968750   0.531250 0
  0.546875   0.796875 0
  0.671875   0.796875 0
  0.734375   0.546875 0
  0.843750   0.953125 0
  0.906250   0.703125 0
  0.671875   0.875000 0
  0.718750   0.812500 0
  0.781250   0.562500 0
  0.875000   0.812500 0
  0.531250   0.890625 0
  0.593750   0.640625 0
  0.937500   0.890625 0
  0.875000   0.781250 0
  0.609375   0.703125 0
  0.546875   0.953125 0
  0.890625   0.796875 0
  0.625000   0.718750 0
  0.562500   0.968750 0
  0.906250   0.812500 0
  0.734375   0.859375 0
  0.796875   0.609375 0
  0.718750   0.875000 0
  0.781250   0.625000 0
  0.750000   0.859375 0
  0.812500   0.609375 0
  0.812500   0.546875 0
  0.750000   0.812500 0
  0.734375   0.843750 0
  0.796875   0.593750 0
  0.750000   0.843750 0
  0.812500   0.593750 0
[...]
POINT_DATA 4225
SCALARS scalar_value float 1
LOOKUP_TABLE default
-1.43765
-1.44223
-0.470955
-0.505316
-0.299453
-0.295995
-0.319179
-0.331212
-0.366415
-0.370876
-0.31402
-0.335275
-0.748032
-0.989709
-1.41999
-1.40752
-0.320494
-1.4817
-0.349465
-0.339455
-1.48087
-0.371717
-0.589117
-0.422623
-1.48383
-0.322421
-0.32667
-0.331234
-0.394149
-1.4824
-1.48188
-1.47693
-1.47069
-1.46597
-0.331542
-0.326947
-0.33189
-0.327441
-1.46468
-0.517433
-0.398383
-1.48369
-1.4474
-1.48117
-1.15973
-1.51021
-1.23234
-1.50959
-1.51002
-1.48488
-1.48498
-1.48495
-1.48512
-1.42546
-1.45958
-0.323403
-0.322952
-0.321138
-0.321482
-1.4554
-0.311997
-0.34308
-0.280984
-0.276161
-1.48101
-1.44455
-1.48209
-1.44578
-1.50938
-1.50824
-1.48481
-1.48464
-1.41927
-1.39801
-1.39685
-1.48087
-1.44209
-1.38681
-0.937808
-1.32354
-0.68265
-1.34358
-0.877879
-1.2915
-0.632892
-1.48221
-1.48197
-1.46522
-1.47066
-1.46458
-1.46986
-1.46916
-1.51073
-1.51529
-1.48471
-1.48476
-1.48462
-1.48457
-0.983814
-1.16954
-1.21452
-1.06141
-0.333423
-0.333703
-0.333346
-1.38868
-1.36443
-1.47075
-1.29031
-1.4689
-1.48327
-1.48403
-1.2116
-0.365759
-1.22732
-0.346962
-1.20419
-0.340595
-1.18139
-0.355036
-1.48075
-1.44507
-1.48111
-1.44471
-1.46433
-1.46433
-1.23948
-1.26851
-1.4697
-1.47163
-1.46889
-1.47125
-1.48269
-1.48269
-1.48306
-1.48406
-1.48403
-1.49843
-1.22116
-1.4583
-1.08494
-1.40469
-1.05266
-1.46887
-1.17539
-1.47623
-1.47635
-1.47643
-1.48013
-1.48155
-1.47924
-1.47966
-1.48115
-1.51385
-1.51235
-1.51176
-1.51649
-1.52472
-1.51825
-1.48351
-1.44678
-1.48308
-1.44573
-1.48261
-1.4431
-1.48327
-1.44493
-1.46659
-1.42291
-1.45455
-1.41815
-1.43871
-1.41391
-1.45383
-1.42005
-1.4442
-1.48115
-1.44383
-1.48081
-1.44339
-1.48026
-0.337053
-0.335838
-0.335551
-0.337019
-0.343934
-0.338975
-0.462919
-1.22452
-0.708421
-1.22255
-0.800353
-1.27947
-0.574867
-1.25171
-1.47786
-1.43362
-1.47745
-1.43206
-1.46691
-1.47198
-1.39071
-1.47081
-1.3823
-1.46655
-1.33862
-1.26874
-1.4619
-1.46144
-1.10337
-1.45997
-0.856449
-1.45939
-1.00679
-1.345
-0.923602
-1.25509
-1.13326
-1.40539
-1.0476
-1.3407
-1.46708
-1.46438
-1.42986
-1.47927
-1.44937
-1.49844
-1.47806
-1.43969
-1.47879
-1.43993
-1.47821
-1.43659
-1.4735
-1.40241
-1.42053
-1.41528
-1.46076
-1.46282
-0.668262
-1.26632
-1.46477
-1.20402
-1.44739
-1.46774
-1.4684
-1.50478
-1.50671
-1.48023
-1.44343
-1.28218
-0.284679
-1.43968
-1.27789
-0.276052
-1.43516
-1.4332
-1.42626
-1.4788
-1.44064
-1.27619
-0.283315
-1.43702
-1.27531
-0.279543
-1.43166
-1.27277
-0.284981
-1.48292
-1.44113
-1.4766
-1.43324
-1.27313
-0.287036
-0.31072
-1.40995
-1.28638
-1.50725
-1.44682
-1.48339
-0.399559
-1.48353
-1.48346
-0.500568
-1.48277
-0.4059
-1.44621
-1.48234
-0.360808
-1.44629
-1.48264
-1.48298
-0.374321
-1.44519
-1.48199
-0.349118
-0.858338
-1.48441
-1.44495
-1.48153
-0.342462
-0.357025
-0.445904
-1.48483
-1.50616
-1.48496
-1.50406
-1.48554
-1.5015
-1.47623
-1.48471
-1.4985
-1.48444
-1.48325
-1.44646
-1.49319
-0.520581
-1.48464
-1.50497
-1.48465
-1.50052
-1.4647
-0.328184
-1.4844
-1.48667
-1.49636
-1.48443
-1.50096
-1.478
-1.4642
-1.46388
-1.28511
-0.275056
-1.29152
-0.292905
-1.48414
-1.44863
-1.29709
-0.337158
-1.26678
-1.48187
-1.46564
-1.26229
-1.32073
-1.25942
-1.4574
-1.50212
-1.2656
-1.23894
-0.313641
-1.45059
-1.4531
-0.309541
-1.42561
-1.29099
-0.318519
-1.45795
-1.43583
-1.34101
-0.31541
-1.48462
-1.45294
-1.3382
-0.963723
-1.45477
-1.31867
-0.72589
-1.44723
-1.48389
-1.27827
-0.295267
-1.45481
-1.48474
-1.46416
-1.3769
-1.04513
-1.45035
-1.48416
-1.32111
-1.46241
-1.02015
-1.26802
-1.28774
-0.307919
-1.4842
-1.45061
-1.4132
-1.34645
-0.862882
-1.46992
-1.17613
-0.55085
-1.48263
-1.46449
-1.22846
-1.57688
-1.46514
-1.2623
-2.27697
-1.46744
-1.432
-1.37159
-1.44366
-1.37064
-1.44002
-1.41186
-0.7628
-1.39971
-1.4118
-1.31067
-1.41951
-1.39357
-1.39805
-1.17981
-1.37967
-1.48721
-1.45682
-1.48529
-0.491703
-1.30103
-1.31217
-0.654923
-1.48404
-1.44849
-1.46008
-1.49627
-0.53563
-1.30081
-1.49487
-1.45806
-1.48704
-1.46681
-1.28344
-0.324059
-1.45863
-1.49639
-1.4611
-1.26184
-1.51045
-1.49857
-1.14755
-1.42947
-1.49584
-1.24793
-1.26796
-1.44245
-1.49593
-1.43324
-1.49826
-1.47853
-1.43314
-1.29178
-1.20524
-1.54533
-1.44874
-1.48458
-1.46329
-0.3356
-0.387684
-0.484086
-0.83985
-0.423542
-0.264619
-0.264657
-0.877091
-0.0330434
-0.806829
-0.834968
-0.339275
-0.847804
-0.346551
-0.847998
-0.473806
-0.264193
-0.845291
-0.338255
-0.848336
-0.263617
-0.646875
-0.264539
-0.848413
-0.844185
-0.561759
-0.00396202
-0.338585
-0.264473
-0.00301745
-0.383944
-0.264629
-0.264654
-0.401701
-0.264661
-1.04373
-0.0576391
-0.84812
-0.32639
-0.856872
-0.812433
-0.41194
-0.26258
-0.857254
-0.826987
-0.453084
-0.254765
-0.848451
-0.264655
-0.588897
-0.843659
-0.264636
-0.848445
-0.85851
-0.832068
-0.00348247
-0.393687
-0.00324287
-0.388457
-0.404955
-0.00465673
-0.00421766
-0.788572
-0.387816
-0.003756
-0.413142
-0.419742
-0.848674
-0.342429
-0.494954
-0.330076
-0.861416
-0.264676
-0.6372
-0.560162
-0.502343
-0.868456
-0.0345647
-0.339531
-0.868832
-0.035788
-0.866721
-0.339929
-0.375153
-0.86678
-0.335156
-0.399219
-0.856848
-0.335344
-0.853037
-0.337418
-0.694589
-0.917468
-0.856702
-0.78336
-0.839662
-0.852902
-0.343953
-0.352448
-0.845231
-0.843137
-1.28262
-0.848759
-0.865519
-0.998444
-0.848704
-0.236434
-0.721461
-0.846515
-0.371392
-0.379953
-0.383599
-0.262208
-0.671455
-0.400874
-0.400453
-0.389452
-0.380504
-0.386474
-0.00385129
-0.50953
-0.238618
-0.00387818
-0.555463
-0.350178
-0.846931
-0.363191
-0.847075
-0.355688
-0.845893
-0.236376
-0.360897
-0.845413
-0.661314
-0.00400103
-0.370596
-0.845641
-0.790237
-0.762535
-0.328274
-0.831345
-0.379129
-0.390537
-0.387935
-0.381955
-0.498363
-0.00684416
-0.3318
-0.855965
-0.331579
-0.860423
-0.0218251
-0.599812
0
-0.84854
-0.546285
-0.333082
-0.865725
-0.00615688
-0.603156
-0.102244
-0.333634
-0.170084
-0.375018
-0.375231
-0.377974
-0.372603
-0.371911
-0.383333
-0.849588
-0.324366
-0.341144
-0.00409276
-0.609931
-0.383385
-0.335845
-0.885746
-0.0541599
-0.869731
-0.869528
-0.0450532
-0.60088
-0.0644671
-0.893271
-0.0454371
-0.872817
-0.0392724
-0.374181
-0.370407
-0.35759
-0.362071
-0.361424
-0.364152
-0.364629
-0.367424
-0.369241
-0.368082
-0.368025
-0.368501
-0.919436
-0.880308
-0.0132676
-0.905524
-0.0194225
-0.0045871
-0.509383
0
-0.091189
-0.359633
-0.358138
-0.379288
-0.393297
-0.353212
-0.350162
-0.355941
-0.00412155
-0.69746
-0.358723
-0.463996
-0.34382
-0.00422619
-0.814592
-0.354208
-0.846852
-0.845975
-0.8461
-0.845443
-0.845476
-0.845416
-0.00409181
-0.72765
-0.00396652
-0.6157
-1.04106
-1.13681
-0.250932
-0.990506
-0.0294679
-1.0004
-1.12559
-0.845669
-0.845544
-0.00408816
-0.649177
-0.946845
-0.0244401
-0.970526
-1.07056
-0.00383229
-0.436812
-0.84715
-0.833432
-0.00424532
-0.847746
-0.836497
-0.00423981
-0.852372
-0.872184
-0.0271151
-0.00468267
-0.632454
-0.138154
-0.246543
-0.200277
-0.756672
-0.264606
-0.755731
-0.866433
-0.349189
-0.845301
-0.547337
-0.00396386
-0.537404
-0.00417472
-0.413307
-0.00405204
-0.867971
-0.0396313
-0.695226
-0.181715
-0.235122
-0.867379
-0.867429
-0.0498821
-0.238395
-0.259665
-0.866661
-0.331065
-0.331751
-0.327552
-0.332422
-0.339175
-0.00412356
-0.764272
-0.00418631
-0.796264
-0.377942
-0.110124
-1.00453
-0.0326153
-0.906862
-0.0355772
-0.00422044
-0.810109
-0.443674
-0.0823437
-0.916619
-0.0387009
-0.511285
-0.144894
-0.870104
-0.0368786
-0.00418331
-0.785921
-0.895382
-0.0341745
-0.835336
-0.253608
-0.861115
-0.863886
-2.48247e-07
-1.147e-05
-1.42204
-0.00762232
-0.350843
-0.0616689
-0.000434508
-0.848238
-0.061296
-0.360541
-2.85314e-05
-1.40193
-0.0611942
-7.42807e-05
-1.37517
-0.0330855
-0.870334
-0.2782
-0.626158
-0.0322168
-0.917588
-0.528693
-0.55886
-0.0269891
-0.888259
-0.0499346
-0.90718
0
-0.0273008
-0.0858516
-0.0647014
-0.0706229
-0.0054158
-0.366203
-0.845372
-0.0603359
-3.25071
-0.0603415
-0.319972
-0.320662
-0.320317
-0.0501774
-0.320942
-0.32187
-0.321054
-0.318165
-0.0380462
-0.866689
-0.318925
-0.319942
-0.320612
-0.321126
-0.3187
-0.0391463
-0.319651
-0.319869
-0.0451435
-9.62779e-08
-5.10872e-07
-0.861306
-6.75569e-07
-0.0245472
-0.857878
-2.05612e-08
-1.48974e-07
-1.46671
-0.256953
-7.70787e-05
-0.374178
-9.92782e-07
-1.27374
-4.90361e-06
-1.2727
-0.845442
-0.0603393
-0.379063
0
-1.27206
-0.366981
-0.00150251
-0.285753
-0.295592
-0.310713
-0.316129
-0.295705
-0.303651
-0.313626
-0.308401
-0.0357857
-0.867182
-0.318994
-0.0411678
-0.866633
-0.330799
-0.0542484
-0.845057
-0.0467856
-0.866803
-0.0462545
-0.866629
-0.0514923
-0.84438
-0.0603468
-3.1511
-0.85649
-0.0603604
-3.61324
-0.845391
-0.0603746
-1.34262
-0.855977
-0.00321499
-0.369284
-0.0603919
0
-0.0035152
-0.371661
-0.0603975
-0.367637
0
-0.845446
-0.0604311
-0.00279657
-0.371981
-0.864358
-3.12408e-05
-2.5587e-06
-1.46774
-1.40147e-05
-1.47464
-0.86613
-0.00124835
-0.000127181
-0.371156
-4.19996e-06
-1.1941e-05
-1.27692
-0.84709
-0.243748
-0.000158329
-3.01449e-05
-1.29052
-0.0006866
-0.145764
-0.353688
-0.00044401
-1.48867
-0.175841
-0.85447
-0.0617207
-0.356118
-3.59471e-05
-0.0616832
-9.64618e-05
-0.0625197
-0.757177
-0.855396
-0.847902
-0.0377077
-0.000603643
-0.0622857
-0.000203262
-0.481142
-0.0133153
-0.433327
-0.019913
-0.876001
-0.267373
-0.322708
-0.321964
-0.321429
-0.323296
-0.323884
-0.32368
-0.00424487
-0.815757
-0.830422
-0.042095
-0.867562
-0.0414852
-0.871345
-0.302332
-0.00800675
-0.31295
-0.0748911
-1.48275
-0.3102
-0.0243647
-0.0798461
-0.323279
-0.221299
-0.324953
-0.166674
-0.995079
-0.051369
-0.325022
-0.181365
-0.323833
-0.234021
-0.0817525
-0.856941
-0.847434
-0.0366881
-0.00068011
-0.0735018
-0.000315827
-1.47929
-0.000321865
-0.200492
-0.239706
-0.255038
-0.246419
-0.000123618
-0.155881
-0.226542
-0.551012
-0.0439657
-0.0593888
-0.0886873
-0.347144
-8.9588e-05
-0.866528
-0.11158
-0.000265702
-1.48673
-0.866551
-0.138112
-0.345357
-0.000136467
-1.48533
-5.67532e-05
-1.48081
-0.812825
-0.0585798
-0.0504408
-0.841559
-0.0599389
-0.0603618
-0.00970952
-1.49448
-0.00457716
-0.0495223
-0.659738
-0.0550728
-1.52277
-0.839156
-0.0599723
-0.0602873
-0.856759
-0.00223653
-0.369887
-0.844672
-0.0603867
-0.0592024
-0.0601124
-0.25842
-0.000915929
-0.00231002
-0.00986397
-0.264135
-0.00991503
-0.940109
-0.00517406
-1.0122
0
-1.0152
-0.388613
-0.00654488
-0.872954
-0.262303
-0.00625737
0
-0.260842
-0.0358009
-0.876772
-0.00421034
-0.798606
-0.0385117
-0.868706
-0.00421207
-0.807376
-0.77858
-0.0372283
-0.877188
-6.12827e-05
-0.119241
-0.000214613
-0.176656
-8.65723e-06
-1.47949
-0.0802504
-4.43013e-05
-0.0589736
-1.03251
-0.01771
-0.0972241
-0.865563
-6.99014e-06
-0.0774547
-8.68511e-07
-1.47716
-0.0576164
-1.00267
-0.0134879
-0.0692076
-0.0183797
-1.48394
-0.324678
-0.00841234
-0.956936
-0.0334601
-0.318513
-0.854433
-0.0634355
-0.363942
-0.00211231
-0.00425241
-1.48666
-0.0628487
-1.09806
-0.856427
-0.847671
-0.0322301
-0.00095572
-0.364339
-0.00229892
-1.48307
-0.0688767
-1.25996
-0.856753
-0.847525
-0.0323344
-0.000932784
-1.13971
-0.0120421
-0.114018
-0.000101623
-0.155006
-0.000457236
-1.06865
-0.0218081
-0.247774
-0.00201601
-0.0608996
-0.292053
-0.010287
-5.80244e-08
-1.44005
-0.857505
-0.0610534
-0.330179
-1.16904e-07
-1.45914
-0.849412
-0.845443
-0.00428439
-1.77357e-07
-0.333577
-2.47765e-07
-1.42492
-0.849728
-0.845503
-0.00434708
-3.51836e-07
-0.322057
-0.183875
-1.48408
-0.33473
-1.0258e-07
-0.320094
-0.121173
-1.48321
-0.169377
-0.848144
-0.845179
-0.00427405
-8.41956e-08
-0.330547
-1.08714e-08
-1.40343
-0.0599117
-0.333991
-2.05711e-08
-1.35773
-0.847152
-0.842963
-0.00428508
-1.74711e-08
-0.3227
-0.2035
-0.300272
-0.0436171
-1.48228
-0.0174474
-0.0503797
-1.5183
-0.851813
-0.0961545
-0.39462
-0.0316762
-1.50523
-0.0132315
-0.0125754
-0.11252
-1.02205
-0.848765
-0.040638
-1.5096
0
-0.016984
-0.866589
-0.230877
-0.355134
-0.000548599
-1.48648
-0.324767
-0.25404
-0.851894
-0.845607
-0.00434937
-6.34245e-07
-0.0616055
-0.852723
-4.22165e-07
-1.22605e-05
-1.47708
-0.0772459
-0.0683275
-0.85933
-6.40781e-06
-1.47465
0
-1.26756
-0.845536
-0.0580067
-0.126687
-0.334149
-0.059212
-0.060248
-0.324258
-0.059796
-0.0774651
-0.355604
0
-1.26984
-0.326363
-0.0697732
-1.48449
-0.0940398
-0.327067
-0.200967
-0.329887
-0.324796
-0.0149575
-0.0366011
-1.48431
-0.325657
-0.325514
-0.866584
-0.0840337
-0.114644
-0.897468
-0.0406492
-0.325911
-0.32625
-0.133293
-0.0147806
0
-0.365068
-0.0103141
-0.361173
-0.383602
-0.00915291
-1.30987
-0.846573
-0.0613494
-0.00638275
-1.50644
-0.354786
-0.701173
-0.8487
-0.233902
-0.0391771
-1.49791
-0.0769327
0
-1.27172
-0.0602382
-0.0142052
-0.369836
-0.0599865
-0.0359402
-0.357745
-0.060266
-0.00426235
-0.84533
-0.0598535
-2.09735
-1.09003
-0.849231
-0.0602637
-2.79488
-0.012402
-0.360692
-0.00265197
-0.301754
-0.00231767
-0.301728
-0.344642
-0.00110001
-0.87359
-0.0345438
-0.233248
-0.00469678
-0.316325
-0.000625626
-0.263506
-0.863129
-1.83416e-05
-1.47924
-0.0832409
-0.336392
-3.77411e-05
-1.4817
-0.866778
-0.117573
-6.22203e-06
-0.0710172
-0.074865
-0.865463
-0.845537
-0.00430407
-8.54578e-06
-0.0510976
-2.73509e-08
-0.336116
-5.21251e-05
-0.0900009
-0.865498
-0.00015618
-0.154846
-0.863668
-0.000124992
-0.204495
-0.170841
-1.48486
-0.889272
-0.0504643
-0.326982
-0.176637
-0.328926
-0.00811238
-0.323861
-0.857673
-0.113683
-0.029607
-1.50582
-0.778479
-0.849291
-0.0228202
-0.0747161
-0.849627
-0.07724
-0.389585
-0.0317354
-0.441919
-0.848792
-0.848495
-0.195824
-0.0181354
-1.46467
-0.0668207
-0.848313
-0.15527
-0.00392968
-0.0621221
-0.00127316
-0.0612907
-0.865603
-0.00117831
-0.297463
-0.000247263
-0.0608944
-0.000866497
-0.293842
-0.00421622
-0.061416
-0.375709
-0.0011605
-0.846453
-0.060833
-0.86377
-0.0626314
-0.331743
-2.60403e-07
-1.47055
-0.0649464
-0.860352
-1.75406e-06
-0.0388265
-5.84326e-09
-1.46062
-0.376435
-0.799971
-0.0227887
-0.322569
0
-0.0630987
-0.859447
-2.59959e-07
-0.0665073
-1.36433e-06
-1.47632
-0.383934
-0.0299737
0
-1.45597
-5.43249e-09
-1.44831
-0.0467094
-0.0345668
-0.849596
-0.845005
-0.00425326
-7.68391e-09
-0.0536507
-2.99719e-08
-1.46223
-4.3242e-08
-0.0565933
-0.000159102
-1.48463
-0.186418
-0.258163
-0.00313821
-0.0606639
-0.241385
-0.0164393
-1.36425
-0.0636063
-0.362824
-0.0593546
-0.0742333
-0.0438506
-0.770256
-0.0585243
-1.53162
-0.856865
-0.836475
-0.0599755
-1.59312
-0.856915
-0.00145328
-0.368964
-0.368634
-0.0602377
-2.09232
-0.312104
-0.499218
-0.0551604
-1.53276
-0.795879
-0.0110518
-0.86659
-0.367802
-0.0501406
-0.157895
-0.848087
-0.0669822
-0.392271
-0.0268758
-1.43512
-0.0637514
-0.292791
-0.0565128
-1.01808
-0.323829
-0.101334
-1.17716
-0.0149799
-0.237031
-0.00254268
-0.946163
-0.0360844
-0.324742
-0.0374868
-1.48406
-0.321486
-0.0170433
-0.00744971
-0.239657
-0.0160443
-0.276817
-0.000930385
-0.173675
-9.05609e-06
-0.0739825
-0.861026
0
-0.0641205
-0.334806
-0.270631
-0.0572505
-0.0143622
-1.24831
-0.0599926
-0.27359
-0.00980415
-1.25266
-0.0597826
-0.26716
-0.0145444
-1.23228
-0.0595973
-0.275801
-0.856748
-0.00110976
-0.367314
-0.824967
-0.0599303
-1.74989
-0.180408
-0.43859
-0.0548908
-0.367451
-0.0602123
-2.23078
-0.32281
-0.00666718
-0.0456267
-0.0436454
-0.866785
-0.329411
-0.0288517
-0.866881
-0.0391979
-0.327158
-0.0166997
-1.48448
-0.104122
-0.26324
-0.00185054
-0.0602266
-0.382984
-0.000653528
-1.27748
-0.845696
-0.0604086
-2.28154e-07
-1.47463
-0.0609656
-0.00211609
-0.27371
-1.40637e-06
-1.47461
-0.0660295
-0.13159
-0.000298704
-0.058677
-0.0412173
-0.216352
-0.000706307
-0.735206
-0.364908
-0.00197717
-0.0629686
-0.00597949
-0.368381
-0.354101
-0.8476
-0.0630748
-0.38014
-0.0101441
-1.37653
-0.357738
-0.328472
-0.0650776
-0.122516
-0.207346
-0.32526
-0.047872
-0.863157
-0.0590672
-0.618128
-0.0339088
-1.12398
-0.847832
-0.0604676
0
-1.20343
-0.00672188
-0.846134
-0.0542982
-0.00380483
-0.419174
-0.0143958
-0.0138925
-0.846913
-0.0578804
-0.222576
-0.0101191
-1.23035
-0.057542
-3.79358e-07
-1.47603
-0.00264254
-0.381233
-0.333012
0
-1.31625
-0.537935
-0.0574557
-0.327151
-0.25098
-0.845423
-0.0584614
-0.848706
-0.103453
-0.325191
-0.326797
-0.238037
-0.858055
-0.300073
-0.375322
-0.858077
-1.19416e-05
-1.47583
-0.071494
-0.0373251
-0.354098
-0.253305
-0.00841593
-1.24532
-0.0583856
-0.0350296
-0.858084
-0.743692
-0.0563163
-0.0595659
-0.0601645
-0.0603467
-0.043144
-0.0188244
-0.333724
-0.059546
-1.67977
-0.314928
-0.0604336
0
-0.356158
-0.0257602
-0.858367
-0.00079123
-0.371259
-0.0612095
-0.0603348
0
-1.12244
-0.335974
-0.00512286
-1.10324
-0.0275369
-0.0221042
-0.857112
-0.8465
-0.00552886
-0.715737
-0.397736
-0.00373232
-0.0557553
-0.05712
-1.4848
-0.308964
-0.377406
-0.00490716
-0.846319
0
-1.30367
-0.0602346
-0.328566
-0.234787
-0.0547198
-0.0274345
-0.0577831
-0.63267
-0.00568315
-0.846611
-3.26244e-08
-1.32722
-0.00426518
-1.18476
-0.321898
-0.0554199
-0.0409152
-0.0614208
-0.0571585
-0.0572709
-0.351352
0
-0.00267549
-0.374812
-0.845155
-0.0604434
-0.26295
-0.0128932
-0.0587229
-5.23194e-07
-0.0609242
-0.370026
-0.0594867
-0.0168664
-0.0583127
-0.344335
-2.75768e-08
-1.31123
-0.845921
-0.0605616
-0.0760209
-0.59271
-0.0271249
-1.09154
-0.847873
-0.058023
-0.259291
-0.000372415
-1.48391
-0.359963
-3.88442e-07
-1.30277
-0.846557
-0.0606413
-0.0607106
-0.0368388
-0.866812
-0.0543447
-0.855284
-0.0720821
-0.108515
-0.294859
-0.845225
-0.0559808
-0.888963
-0.851188
-0.845412
-0.00427429
-8.53057e-08
-0.00380159
-0.402734
-0.0120453
-1.2432
-0.00523714
-0.846501
-0.0594909
-0.265971
-0.0358719
-1.50348
-0.37508
-2.04198e-07
-0.0607072
-0.112048
-1.4848
-0.327657
-0.35494
-6.53665e-07
-0.84735
-0.0608136
-0.869365
-0.0498065
-0.328404
-0.343336
-0.147419
-1.48509
-0.314216
-0.00278392
-0.0605438
-3.7162e-08
-0.0605544
-0.0604698
-0.00576156
-1.25472
-0.0592413
-0.261199
-2.01128e-06
-1.31313
-0.0607864
-0.278571
-0.0157821
-0.0591132
-0.0503779
-0.12142
-0.30119
-0.0200474
-1.1904
-0.0595274
-0.343236
-1.38512e-07
-0.84732
-0.0607018
-0.857219
-0.000579168
-0.36628
-0.800814
-0.0586324
-0.0380848
-0.867195
-0.134919
-0.338198
-6.32198e-05
-1.48209
-0.264127
-0.00442313
-1.26088
-0.0596895
-0.845526
-0.0604023
-0.84595
-0.0605751
-0.0198123
-0.00329614
-0.387866
-0.00205692
-1.2457
-0.00586759
-0.846292
-0.0558092
-0.70285
-0.0587443
-0.0368392
-0.867417
-0.0326188
-0.0592849
-0.140193
-0.00371714
-0.399799
-0.0117849
-1.20471
-0.0182166
-0.846836
-0.2391
-0.0570752
-0.0921633
-0.00674127
-1.22864
-0.0566535
-0.0586489
-0.770612
-0.848803
-0.32422
-0.24456
0
-1.25184
-0.0547086
-0.326095
-0.226925
-0.645271
-0.0175203
-0.390788
-0.00280437
-1.27239
-0.84562
-0.0600888
-0.263955
-0.00101799
-0.0600722
-3.87413e-08
-0.36692
-0.0595063
-0.852497
-0.12649
-0.415656
-0.0459449
-1.51191
-0.843602
-0.26168
-0.00159836
-0.0595756
-0.254519
-0.631034
-0.0630123
-0.00114419
-1.27021
-0.0599131
-0.857273
-0.00183238
-0.373278
-0.8567
-0.345887
-0.371143
-0.273187
-0.327655
-0.201173
-1.48496
-0.265636
-0.00340387
-0.0599901
-8.59029e-08
-1.47263
-0.0673475
-0.845478
-0.0557932
-0.0556766
-0.145725
-0.0613289
-0.318941
-0.714215
-0.041566
-0.86641
-0.384739
-0.837285
-0.0571273
-0.322227
-0.313927
-0.0576138
-1.39729
-0.265668
-0.328023
-0.0663595
-0.0570738
-0.182146
-0.315663
-0.0433894
-0.866626
-0.319324
-0.0603127
-2.75446
-0.317755
-0.0603067
-2.78937
-0.320204
-0.0551129
-1.27155
-0.192295
-0.32143
-0.0593912
-0.663304
-0.0445479
-1.17146
-0.0709586
-0.318728
-0.00425388
-0.84505
-0.0601941
-2.29837
-0.321237
-0.320492
-0.855002
-0.0612977
-0.322786
-0.00424517
-0.84308
-0.0587715
-1.52039
-0.509105
-0.849406
0
-0.311527
-0.32251
-0.0260519
-1.50275
-0.352909
-0.0538182
-0.847785
-0.844396
-0.00425498
-6.67808e-09
-0.261784
0
-0.21608
-0.365516
-0.0600177
-0.0554603
-0.850454
-0.842849
-0.00424418
0
-0.370364
-0.016682
-0.340832
-1.56982e-05
-1.47443
-0.863114
-0.0661299
-0.390195
-0.000164335
-1.27114
-0.8455
-0.0600528
-2.32394e-05
-0.323753
-1.06599e-08
-0.865728
-0.845479
-0.00428992
-2.1547e-06
-2.56219e-05
-1.47044
-0.0626036
-0.000186801
-0.0598419
-0.257012
-0.000369981
-1.26934
-0.059488
0
-0.342712
-0.0591305
-0.0477694
0
-1.41271
-0.388621
-0.0580767
-0.861426
-2.37075e-05
-0.0992442
-0.258672
-0.324979
-0.325504
-0.086675