# vtk DataFile Version 2.0
Unstructured Grid by M++
ASCII
DATASET UNSTRUCTURED_GRID
POINTS 4225 float
  0.921875   0.593750 0
  0.921875   0.609375 0
  0.656250   0.609375 0
  0.671875   0.609375 0
  0.656250   0.546875 0
  0.671875   0.546875 0
  0.656250   0.562500 0
  0.656250   0.578125 0
  0.656250   0.593750 0
  0.671875   0.593750 0
  0.671875   0.562500 0
  0.671875   0.578125 0
  0.671875   0.625000 0
  0.671875   0.640625 0
  0.906250   0.578125 0
  0.890625   0.578125 0
  0.546875   0.515625 0
  1.000000   0.890625 0
  0.515625   0.640625 0
  0.515625   0.625000 0
  1.000000   0.875000 0
  0.515625   0.656250 0
  0.515625   0.687500 0
  0.515625   0.671875 0
  1.000000   0.921875 0
  0.546875   0.531250 0
  0.546875   0.546875 0
  0.546875   0.562500 0
  0.796875   0.531250 0
  0.953125   0.890625 0
  0.953125   0.875000 0
  0.953125   0.843750 0
  0.953125   0.828125 0
  0.953125   0.812500 0
  0.531250   0.562500 0
  0.531250   0.546875 0
  0.515625   0.562500 0
  0.515625   0.546875 0
  1.000000   0.812500 0
  0.781250   0.546875 0
  0.765625   0.546875 0
  0.859375   0.921875 0
  0.921875   0.671875 0
  0.609375   0.906250 0
  0.671875   0.656250 0
  0.609375   0.921875 0
  0.671875   0.671875 0
  0.671875   0.984375 0
  0.671875   1.000000 0
  0.906250   0.984375 0
  0.906250   1.000000 0
  0.921875   0.984375 0
  0.921875   1.000000 0
  0.859375   0.609375 0
  1.000000   0.781250 0
  0.515625   0.531250 0
  0.531250   0.531250 0
  0.531250   0.515625 0
  0.515625   0.515625 0
  1.000000   0.750000 0
  0.765625   0.531250 0
  0.781250   0.531250 0
  0.781250   0.515625 0
  0.765625   0.515625 0
  0.859375   0.875000 0
  0.921875   0.625000 0
  0.859375   0.890625 0
  0.921875   0.640625 0
  0.671875   0.968750 0
  0.671875   0.953125 0
  0.921875   0.968750 0
  0.921875   0.953125 0
  0.859375   0.593750 0
  0.859375   0.578125 0
  0.875000   0.578125 0
  0.828125   0.890625 0
  0.890625   0.640625 0
  0.593750   0.890625 0
  0.656250   0.640625 0
  0.593750   0.875000 0
  0.656250   0.625000 0
  0.578125   0.890625 0
  0.640625   0.640625 0
  0.578125   0.875000 0
  0.640625   0.625000 0
  0.968750   0.890625 0
  0.984375   0.890625 0
  0.968750   0.812500 0
  0.968750   0.828125 0
  0.984375   0.812500 0
  0.984375   0.828125 0
  1.000000   0.828125 0
  0.656250   0.953125 0
  0.640625   0.953125 0
  0.890625   0.968750 0
  0.906250   0.968750 0
  0.906250   0.953125 0
  0.890625   0.953125 0
  0.531250   0.703125 0
  0.531250   0.718750 0
  0.546875   0.718750 0
  0.546875   0.703125 0
  0.593750   0.578125 0
  0.562500   0.578125 0
  0.578125   0.578125 0
  0.843750   0.578125 0
  0.828125   0.578125 0
  0.828125   0.812500 0
  0.890625   0.562500 0
  0.828125   0.796875 0
  0.953125   0.906250 0
  0.953125   0.921875 0
  0.531250   0.859375 0
  0.593750   0.609375 0
  0.531250   0.843750 0
  0.593750   0.593750 0
  0.515625   0.843750 0
  0.578125   0.593750 0
  0.515625   0.859375 0
  0.578125   0.609375 0
  0.937500   0.859375 0
  1.000000   0.609375 0
  0.921875   0.859375 0
  0.984375   0.609375 0
  0.937500   0.796875 0
  0.921875   0.796875 0
  0.984375   0.546875 0
  0.562500   0.812500 0
  0.843750   0.796875 0
  0.843750   0.812500 0
  0.859375   0.796875 0
  0.859375   0.812500 0
  1.000000   0.906250 0
  0.984375   0.906250 0
  0.968750   0.906250 0
  0.968750   0.921875 0
  0.984375   0.921875 0
  0.593750   0.921875 0
  0.656250   0.671875 0
  0.593750   0.906250 0
  0.656250   0.656250 0
  0.578125   0.906250 0
  0.640625   0.656250 0
  0.578125   0.921875 0
  0.640625   0.671875 0
  1.000000   0.843750 0
  0.984375   0.843750 0
  0.968750   0.843750 0
  0.968750   0.859375 0
  0.968750   0.875000 0
  1.000000   0.859375 0
  0.984375   0.859375 0
  0.984375   0.875000 0
  0.656250   1.000000 0
  0.656250   0.984375 0
  0.656250   0.968750 0
  0.640625   0.968750 0
  0.640625   1.000000 0
  0.640625   0.984375 0
  0.843750   0.921875 0
  0.906250   0.671875 0
  0.843750   0.906250 0
  0.906250   0.656250 0
  0.828125   0.906250 0
  0.890625   0.656250 0
  0.828125   0.921875 0
  0.890625   0.671875 0
  0.781250   0.859375 0
  0.843750   0.609375 0
  0.781250   0.843750 0
  0.843750   0.593750 0
  0.765625   0.843750 0
  0.828125   0.593750 0
  0.765625   0.859375 0
  0.828125   0.609375 0
  0.968750   0.609375 0
  0.906250   0.859375 0
  0.953125   0.609375 0
  0.890625   0.859375 0
  0.937500   0.609375 0
  0.875000   0.859375 0
  0.562500   0.593750 0
  0.546875   0.593750 0
  0.531250   0.593750 0
  0.531250   0.609375 0
  0.562500   0.609375 0
  0.546875   0.609375 0
  0.609375   0.625000 0
  0.546875   0.875000 0
  0.609375   0.640625 0
  0.546875   0.890625 0
  0.625000   0.640625 0
  0.562500   0.890625 0
  0.625000   0.625000 0
  0.562500   0.875000 0
  0.921875   0.843750 0
  0.984375   0.593750 0
  0.937500   0.843750 0
  1.000000   0.593750 0
  0.921875   0.812500 0
  0.921875   0.828125 0
  0.984375   0.578125 0
  0.937500   0.828125 0
  1.000000   0.578125 0
  0.937500   0.812500 0
  1.000000   0.562500 0
  0.578125   0.828125 0
  0.921875   0.781250 0
  0.937500   0.781250 0
  1.000000   0.531250 0
  0.921875   0.765625 0
  0.984375   0.515625 0
  0.937500   0.765625 0
  0.625000   0.656250 0
  0.562500   0.906250 0
  0.609375   0.656250 0
  0.546875   0.906250 0
  0.625000   0.671875 0
  0.562500   0.921875 0
  0.609375   0.671875 0
  0.546875   0.921875 0
  0.859375   0.781250 0
  0.859375   0.765625 0
  0.828125   0.671875 0
  0.765625   0.921875 0
  0.828125   0.734375 0
  0.765625   0.984375 0
  0.875000   0.843750 0
  0.937500   0.593750 0
  0.890625   0.843750 0
  0.953125   0.593750 0
  0.906250   0.843750 0
  0.968750   0.593750 0
  0.906250   0.828125 0
  0.968750   0.578125 0
  0.937500   0.578125 0
  0.953125   0.578125 0
  0.906250   0.765625 0
  0.875000   0.765625 0
  0.953125   0.515625 0
  0.531250   0.781250 0
  0.671875   0.890625 0
  0.531250   0.921875 0
  0.953125   0.656250 0
  0.828125   0.781250 0
  0.843750   0.781250 0
  0.703125   0.984375 0
  0.687500   0.984375 0
  0.843750   0.875000 0
  0.906250   0.625000 0
  0.671875   0.781250 0
  0.734375   0.531250 0
  0.906250   0.609375 0
  0.671875   0.765625 0
  0.734375   0.515625 0
  0.906250   0.593750 0
  0.890625   0.593750 0
  0.875000   0.593750 0
  0.828125   0.875000 0
  0.890625   0.625000 0
  0.656250   0.781250 0
  0.718750   0.531250 0
  0.890625   0.609375 0
  0.656250   0.765625 0
  0.718750   0.515625 0
  0.875000   0.609375 0
  0.640625   0.765625 0
  0.703125   0.515625 0
  0.812500   0.921875 0
  0.875000   0.671875 0
  0.812500   0.875000 0
  0.875000   0.625000 0
  0.640625   0.781250 0
  0.703125   0.531250 0
  0.812500   0.515625 0
  0.750000   0.828125 0
  0.812500   0.578125 0
  0.687500   1.000000 0
  0.937500   0.656250 0
  0.875000   0.906250 0
  0.531250   0.656250 0
  0.890625   0.906250 0
  0.906250   0.906250 0
  0.562500   0.656250 0
  0.906250   0.890625 0
  0.562500   0.640625 0
  0.968750   0.625000 0
  0.906250   0.875000 0
  0.562500   0.625000 0
  0.937500   0.640625 0
  0.875000   0.890625 0
  0.890625   0.890625 0
  0.546875   0.640625 0
  0.953125   0.625000 0
  0.890625   0.875000 0
  0.546875   0.625000 0
  0.546875   0.687500 0
  0.890625   0.937500 0
  0.937500   0.625000 0
  0.875000   0.875000 0
  0.531250   0.625000 0
  0.531250   0.640625 0
  0.546875   0.656250 0
  0.937500   0.968750 0
  0.687500   0.968750 0
  0.953125   0.968750 0
  0.703125   0.968750 0
  0.968750   0.968750 0
  0.718750   0.968750 0
  0.718750   0.906250 0
  0.968750   0.953125 0
  0.718750   0.953125 0
  0.968750   0.937500 0
  0.859375   0.906250 0
  0.921875   0.656250 0
  0.718750   0.937500 0
  0.828125   0.531250 0
  0.937500   0.953125 0
  0.687500   0.953125 0
  0.953125   0.953125 0
  0.703125   0.953125 0
  0.703125   0.890625 0
  0.843750   0.515625 0
  0.953125   0.937500 0
  0.953125   1.000000 0
  0.703125   0.937500 0
  0.937500   0.937500 0
  0.687500   0.937500 0
  0.703125   0.906250 0
  0.718750   0.890625 0
  0.687500   0.890625 0
  0.687500   0.765625 0
  0.750000   0.515625 0
  0.687500   0.781250 0
  0.750000   0.531250 0
  0.859375   0.937500 0
  0.921875   0.687500 0
  0.687500   0.796875 0
  0.750000   0.546875 0
  0.578125   0.750000 0
  0.515625   1.000000 0
  0.843750   0.765625 0
  0.578125   0.734375 0
  0.515625   0.984375 0
  0.562500   0.734375 0
  0.828125   0.750000 0
  0.765625   1.000000 0
  0.562500   0.750000 0
  0.562500   0.718750 0
  0.578125   0.515625 0
  0.921875   0.703125 0
  0.921875   0.718750 0
  0.593750   0.515625 0
  0.687500   0.875000 0
  0.750000   0.625000 0
  0.578125   0.531250 0
  0.921875   0.750000 0
  0.703125   0.875000 0
  0.765625   0.625000 0
  0.593750   0.531250 0
  0.875000   0.968750 0
  0.937500   0.718750 0
  0.703125   0.828125 0
  0.765625   0.578125 0
  0.937500   0.734375 0
  0.703125   0.812500 0
  0.765625   0.562500 0
  0.890625   0.687500 0
  0.828125   0.937500 0
  0.656250   0.796875 0
  0.718750   0.546875 0
  0.890625   0.718750 0
  0.828125   0.968750 0
  0.906250   0.796875 0
  0.718750   0.828125 0
  0.781250   0.578125 0
  0.890625   0.703125 0
  0.828125   0.953125 0
  0.656250   0.859375 0
  0.906250   0.781250 0
  0.968750   0.531250 0
  0.546875   0.796875 0
  0.671875   0.796875 0
  0.734375   0.546875 0
  0.843750   0.953125 0
  0.906250   0.703125 0
  0.671875   0.875000 0
  0.718750   0.812500 0
  0.781250   0.562500 0
  0.875000   0.812500 0
  0.531250   0.890625 0
  0.593750   0.640625 0
  0.937500   0.890625 0
  0.875000   0.781250 0
  0.609375   0.703125 0
  0.546875   0.953125 0
  0.890625   0.796875 0
  0.625000   0.718750 0
  0.562500   0.968750 0
  0.906250   0.812500 0
  0.734375   0.859375 0
  0.796875   0.609375 0
  0.718750   0.875000 0
  0.781250   0.625000 0
  0.750000   0.859375 0
  0.812500   0.609375 0
  0.812500   0.546875 0
  0.750000   0.812500 0
  0.734375   0.843750 0
  0.796875   0.593750 0
  0.750000   0.843750 0
  0.812500   0.593750 0
[...]
POINT_DATA 4225
SCALARS scalar_value float 1
LOOKUP_TABLE default
-3.07551
-3.07592
-3.08145
-3.08227
-3.07837
-3.07823
-3.07909
-3.07965
-3.08017
-3.08059
-3.07896
-3.07967
-3.08494
-3.09054
-3.07517
-3.07522
-3.07714
-5.85397
-3.08493
-3.07641
-5.85393
-3.10083
-3.1515
-3.12472
-5.85405
-3.07697
-3.07703
-3.07709
-3.07512
-5.85396
-5.85389
-5.85382
-5.85379
-5.85377
-3.07561
-3.07613
-3.07394
-3.07482
-5.85386
-3.07515
-3.07518
-5.85276
-3.11687
-5.78225
-3.12077
-5.78268
-3.24824
-79.7451
-425.627
-5.85417
-5.85417
-5.85417
-5.85417
-3.07664
-5.84976
-3.0752
-3.07644
-3.0765
-3.07491
-5.71798
-3.07518
-3.07514
-3.07513
-3.0752
-5.84342
-3.07634
-5.84831
-3.07915
-13.8061
-8.21795
-5.85415
-5.85412
-3.07569
-3.07531
-3.07527
-5.83994
-3.08083
-5.78193
-3.08676
-5.78152
-3.08364
-5.78195
-3.08562
-5.78156
-3.08288
-5.85397
-5.85396
-5.85381
-5.85384
-5.85385
-5.85387
-5.85388
-6.37003
-5.86382
-5.85416
-5.85415
-5.85412
-5.85412
-3.28356
-3.71449
-3.80766
-3.32204
-3.07888
-3.07799
-3.07854
-3.07536
-3.07526
-5.69858
-3.07505
-5.68657
-5.85401
-5.85406
-5.7789
-3.08017
-5.77606
-3.07935
-5.77238
-3.079
-5.77838
-3.07982
-5.85381
-3.07453
-5.85369
-3.07469
-5.85355
-5.85316
-3.07156
-5.76795
-5.70138
-5.73328
-5.74611
-5.77285
-5.85401
-5.85401
-5.85401
-5.85405
-5.85404
-5.78245
-3.17746
-5.78218
-3.0984
-5.78216
-3.0948
-5.7824
-3.12984
-5.8539
-5.85389
-5.85387
-5.85389
-5.85392
-5.85391
-5.8539
-5.85393
-23.6628
-9.59874
-7.04869
-5.97634
-7.02415
-6.27707
-5.85129
-3.11308
-5.84845
-3.08609
-5.84611
-3.09068
-5.85078
-3.12675
-5.6927
-3.07813
-5.68785
-3.07596
-5.68631
-3.07624
-5.68963
-3.08183
-3.07517
-5.85329
-3.07553
-5.85235
-3.07576
-5.84741
-3.07842
-3.07745
-3.07594
-3.07726
-3.07916
-3.07838
-3.08179
-5.78079
-3.08371
-5.78169
-3.08413
-5.78191
-3.08221
-5.78135
-5.85364
-3.07369
-5.85376
-3.07358
-5.85348
-5.85358
-3.07298
-5.85373
-3.07285
-5.85369
-3.07238
-5.7764
-5.84894
-5.8498
-3.07007
-5.81182
-3.06942
-5.80016
-3.08919
-5.78214
-3.08643
-5.78206
-3.10732
-5.78237
-3.0939
-5.78232
-5.70199
-5.6772
-3.86114
-5.8288
-5.49157
-6.40518
-5.84316
-3.07533
-5.85166
-3.07494
-5.85311
-3.07424
-5.85298
-3.07351
-3.07492
-3.07419
-5.80244
-5.69712
-3.07082
-5.42724
-5.7591
-5.78225
-3.09626
-5.67328
-5.68336
-686.294
-244.811
-5.83733
-3.07665
-5.50392
-3.07549
-3.07591
-5.32576
-3.07554
-3.07557
-3.07558
-3.07557
-5.82312
-3.07722
-5.54374
-3.07594
-3.07595
-5.17388
-3.07591
-3.07615
-5.24808
-3.0765
-5.84969
-3.25869
-5.79769
-3.07795
-5.56934
-3.07673
-3.07507
-5.68343
-3.07522
-3322.31
-3.09208
-5.85279
-3.0973
-5.85378
-5.85394
-3.0887
-5.85371
-3.08455
-3.07758
-5.85356
-3.08168
-3.0788
-5.85148
-5.8533
-3.0853
-3.07668
-5.85288
-3.08114
-3.14498
-5.85407
-3.07634
-5.85034
-3.08039
-3.08481
-3.0916
-5.85415
-35.5624
-5.85415
-83.4607
-5.85417
-108.173
-5.80127
-5.85412
-17.1062
-5.85408
-5.85001
-3.08478
-7.85483
-3.07508
-5.85412
-11.6239
-5.85412
-13.1844
-5.73875
-3.07495
-5.85409
-5.85421
-8.54021
-5.8541
-7.72478
-5.85476
-5.72651
-5.75383
-5.44558
-3.0753
-5.55675
-3.07528
-5.85381
-3.31047
-5.63061
-3.07529
-5.00858
-5.78302
-5.66273
-4.33085
-5.78299
-4.45831
-5.61987
-7.51596
-5.00611
-3.72337
-3.07806
-3.68632
-4.40219
-3.07806
-5.74534
-3.22352
-3.07812
-5.61833
-5.72694
-3.28425
-3.07814
-5.85416
-4.37239
-5.68998
-3.07538
-5.31325
-5.65959
-3.0752
-3.3872
-5.85325
-5.68254
-3.07615
-4.86953
-5.85527
-5.85127
-5.68131
-3.07527
-4.03281
-5.85466
-5.75725
-5.84241
-3.07141
-5.70224
-5.66582
-3.07549
-5.85412
-3.7756
-5.75278
-5.66373
-3.07517
-5.82572
-5.78125
-3.0834
-5.85393
-5.74076
-3.20011
-5.78258
-5.83934
-3.47821
-5.78281
-5.85264
-5.69046
-3.09789
-5.71149
-3.27955
-5.68915
-3.0873
-3.07512
-5.67944
-5.68578
-3.07649
-5.68569
-3.07626
-5.68172
-3.07522
-5.67366
-5.83601
-5.17668
-5.85454
-3.07666
-5.72927
-5.74469
-3.08258
-5.85348
-3.29452
-5.54922
-5.85686
-3.08128
-5.75413
-5.79507
-5.28761
-5.85594
-5.76767
-5.72727
-3.07656
-5.49081
-5.92109
-5.56779
-5.11588
-5.86
-5.78266
-3.29444
-4.95228
-6.79685
-3.5761
-5.78284
-5.26968
-6.10231
-5.22423
-10.0383
-5.83679
-3.21957
-5.76187
-3.14757
-5.7825
-4.60624
-5.85523
-5.80822
-3.06417
-2.64246
-3.24316
-3.58229
-3.05246
-3.06201
-3.0609
-5.56576
-2.05547
-3.49863
-3.35791
-3.06064
-3.6453
-3.04732
-3.62405
-3.06792
-3.06275
-3.35712
-3.02523
-3.24445
-3.06273
-3.11541
-3.06192
-3.24446
-3.19054
-3.04896
-3.06287
-2.93847
-3.06229
-3.03659
-2.46998
-3.0614
-3.0604
-3.03467
-3.05938
-5.78307
-2.22059
-3.24446
-3.05245
-3.25108
-3.13684
-3.05516
-3.06282
-3.26239
-3.14245
-3.07251
-3.06287
-3.24446
-3.06005
-3.08847
-3.1744
-3.06119
-3.24446
-3.33489
-3.16098
-3.05871
-2.73849
-3.05106
-2.54034
-3.21702
-2.87931
-3.06287
-3.10626
-2.85982
-2.83681
-3.04369
-3.03911
-3.24446
-3.101
-3.06215
-3.06504
-4.14411
-3.06023
-3.07066
-3.24316
-3.05081
-5.57928
-2.19679
-3.08086
-5.73896
-2.21598
-5.57337
-3.0911
-2.98727
-5.02492
-3.07095
-3.04311
-4.1116
-3.06044
-3.8298
-3.05953
-3.09708
-3.06939
-3.24701
-3.11394
-3.19151
-3.82654
-3.05664
-3.05062
-3.21746
-3.18223
-3.07496
-3.24493
-3.7298
-3.07494
-3.24485
-3.06391
-3.41027
-3.24007
-3.0097
-3.0452
-3.03907
-3.06309
-3.08827
-3.03713
-3.03823
-3.03642
-2.70778
-3.03755
-3.06283
-3.02101
-3.06287
-3.06287
-3.03923
-3.02698
-3.35154
-3.03212
-3.27515
-2.99317
-3.22296
-3.06287
-2.82754
-3.21559
-3.07428
-3.06287
-2.92245
-3.23057
-3.52513
-3.34034
-3.06074
-3.64318
-3.24284
-2.7395
-2.93802
-2.85203
-3.24204
-2.99164
-3.06127
-3.9375
-3.06213
-4.27091
-3.04022
-3.24318
0
-3.24446
-3.24226
-3.06588
-4.71609
-3.06225
-3.2426
-0.0148215
-3.0612
-0.00920792
-2.92606
-3.03961
-3.0366
-2.66269
-3.03253
-3.02483
-3.81215
-3.0694
-3.08208
-3.06287
-3.05936
-3.15851
-3.07493
-5.78323
-2.22058
-5.78387
-5.78292
-2.22057
-3.24322
-2.95414
-5.78253
-2.22057
-5.78048
-2.2205
-3.07111
-3.05364
-3.05273
-3.04965
-3.04822
-3.0453
-3.04283
-3.00895
-3.04484
-3.04093
-3.04898
-3.03745
-5.13475
-4.71111
-1.08737
-5.29306
-1.56174
-3.05677
-3.23683
0
-0.031199
-3.05334
-3.04456
-3.11845
-3.17713
-3.05617
-3.06519
-3.05914
-3.06287
-3.07731
-3.1183
-3.21196
-3.06424
-3.06287
-3.13505
-3.08302
-3.24368
-3.24085
-3.24397
-3.23091
-3.23793
-3.23039
-3.06287
-3.16626
-3.06286
-3.08597
-5.77603
-5.77595
-0.111943
-5.76526
-2.08636
-5.733
-5.73186
-3.23732
-3.24067
-3.06287
-3.21777
-5.65056
-1.87816
-5.5756
-5.61499
-3.06256
-2.94058
-3.25056
-3.20404
-3.06287
-3.4695
-3.16683
-3.06287
-3.61355
-5.14719
-1.82443
-3.06287
-3.24059
-0.0871033
-0.131071
-3.06287
-3.24407
-2.31728
-3.24409
-5.00758
-3.05602
-3.22047
-3.15812
-3.06282
-3.22996
-3.06275
-3.17504
-3.04433
-5.77981
-2.2205
-3.24336
-3.0625
-3.06283
-5.78427
-5.78464
-2.22058
-3.06287
-3.06278
-5.77457
-3.0171
-3.05424
-3.04636
-3.06048
-3.05117
-3.06287
-3.1413
-3.06287
-3.19606
-3.24302
-2.08513
-5.77947
-2.19922
-5.77728
-2.21535
-3.06287
-3.19296
-3.24314
-2.67766
-5.78112
-2.22037
-3.24316
-2.7357
-5.77618
-2.2193
-3.06287
-3.21193
-5.74878
-2.186
-3.24439
-1.1089
-3.40018
-4.17886
-0.381809
-0.40281
-5.69838
-0.473015
-2.60222
-2.22743
-0.66829
-3.51386
-2.23423
-3.04661
-0.513393
-5.71562
-2.22659
-0.609945
-5.73878
-2.03986
-5.34339
-2.47125
-3.23304
-2.06445
-5.71251
-3.21309
-3.23924
-1.81278
-5.40404
-2.42647
-4.0258
0
-2.39165
-2.43945
-2.43798
-2.43937
-1.24665
-2.48829
-3.22497
-2.22059
-5.78326
-2.22059
-2.81757
-2.76634
-2.99747
-2.22059
-2.95805
-3.04867
-3.05985
-2.46979
-2.22011
-5.76669
-2.459
-2.45531
-2.46137
-2.48266
-2.49182
-2.2204
-2.4721
-2.50598
-2.43754
-0.0354566
-0.019694
-4.4284
-0.0039579
-2.41103
-4.0564
-0.0128338
-0.00602419
-5.79361
-3.06287
-1.07686
-2.83518
-0.473246
-5.69381
-0.756224
-5.72198
-3.234
-2.2206
-2.59504
0
-5.59158
-3.12077
-0.747789
-2.46472
-2.46116
-2.45808
-2.45633
-2.46917
-2.46247
-2.4597
-2.46666
-2.21582
-5.69835
-2.53723
-2.22052
-5.78047
-2.45592
-2.22059
-3.2442
-2.22057
-5.78677
-2.22057
-5.79758
-2.22059
-3.20688
-2.22059
-5.78557
-3.246
-2.22059
-5.78373
-3.22736
-2.2206
-3.07296
-3.2454
-2.04256
-2.51679
-2.2206
0
-2.31545
-2.69214
-2.2206
-2.73792
0
-3.2256
-2.22061
-2.61561
-2.57437
-4.71434
-0.00519138
-0.00927217
-5.84805
-0.0131554
-5.8496
-5.1026
-0.00467938
-0.00640001
-2.97895
-0.543964
-0.734682
-5.74478
-3.24445
-3.06287
-0.86207
-0.670475
-5.74249
-0.668686
-2.39162
-3.11818
-0.606743
-5.86579
-2.39864
-3.85986
-2.25509
-3.05204
-0.444695
-2.2401
-0.543989
-2.24329
-3.06975
-3.24519
-3.24445
-3.06287
-0.613046
-2.26428
-0.485268
-3.22012
-1.16976
-3.23132
-1.50314
-4.96668
-2.4739
-3.04647
-2.96831
-2.75501
-2.76182
-3.04257
-2.99507
-3.06287
-3.23533
-3.24173
-2.22055
-5.78235
-2.22055
-5.78182
-2.45006
-0.133074
-2.45376
-0.0314117
-5.85381
-2.45137
-0.0647252
-2.22095
-2.45105
-2.19951
-2.4491
-1.83032
-5.78264
-2.22058
-2.4497
-2.32129
-2.45784
-2.44964
-2.37124
-3.25527
-3.24445
-3.06299
-0.644446
-2.35299
-0.563401
-5.82731
-0.00388188
-2.46198
-2.46636
-2.46858
-2.47093
-0.00264165
-2.45979
-2.46584
-3.09107
-2.19279
-2.22006
-2.37233
-3.07296
-0.496162
-5.26068
-2.38565
-0.560154
-5.87756
-5.47001
-2.40092
-3.09786
-0.509782
-5.85795
-0.448348
-5.83924
-3.13713
-2.21777
-2.21026
-3.24148
-2.22317
-2.22523
-1.5629
-6.22728
-1.1801
-2.21479
-3.08727
-2.21958
-5.79161
-3.16105
-2.22063
-2.22061
-3.25069
-2.63717
-2.353
-3.19762
-2.2206
-2.42573
-2.39975
-2.399
-0.737262
-0.945786
-0.646987
-2.48743
-0.690123
-4.81638
-0.498155
-4.85933
0
-4.44383
-3.16771
-0.442611
-4.10361
-2.49931
-0.468781
0
-2.51001
-2.21536
-5.77039
-3.06287
-3.21588
-2.22029
-5.77792
-3.06287
-3.21144
-3.17291
-2.21977
-5.77924
-0.231956
-2.44575
-0.178253
-2.44857
-0.180054
-5.8318
-2.44614
-0.0936016
-2.22064
-5.68887
-1.76621
-2.44875
-5.00409
-0.0553467
-2.44841
-0.122689
-5.81933
-2.22063
-5.43912
-1.2614
-2.44406
-0.326775
-5.85378
-2.44608
-0.272481
-5.7739
-2.18921
-2.44702
-3.58387
-2.24828
-3.05102
-0.854708
-1.11231
-6.26276
-2.27975
-3.0704
-3.24586
-3.24445
-3.06288
-0.621162
-3.05579
-0.800361
-6.14545
-2.33465
-3.07139
-3.24843
-3.24445
-3.0629
-0.640985
-5.67916
-1.5542
-2.45128
-0.0188731
-2.45053
-0.0293147
-5.76348
-2.03259
-2.45035
-0.0628008
-2.22067
-2.45143
-0.024151
-0.227234
-5.68412
-4.02135
-2.38246
-3.06203
-0.2338
-5.68803
-3.26018
-3.24405
-3.06287
-0.262062
-3.06042
-0.286283
-5.68433
-3.24495
-3.24435
-3.06287
-0.31575
-2.45258
-0.285303
-5.85407
-3.05807
-0.276994
-2.45303
-0.0667399
-5.85399
-2.22139
-3.24572
-3.24394
-3.06287
-0.256753
-3.05846
-0.202581
-5.67519
-2.23202
-3.04445
-0.206874
-5.64983
-3.24444
-3.24393
-3.06287
-0.218307
-2.45139
-0.968415
-2.4545
-0.0117846
-5.85374
-1.65158
-2.21818
-5.78758
-3.28008
-2.22671
-3.05663
-2.05602
-5.93063
-1.3906
-2.15199
-2.22437
-3.07481
-3.24489
-2.17544
-5.80759
0
-2.35412
-5.71111
-2.4057
-3.11627
-0.572619
-5.85743
-2.80336
-2.52809
-3.25316
-3.24435
-3.06287
-0.320074
-2.32088
-3.32089
-0.274594
-0.333619
-5.8164
-2.41796
-2.41042
-3.33542
-0.324604
-5.75726
0
-5.53358
-3.24427
-2.2206
-1.20133
-3.24254
-2.22059
-0.459763
-3.13087
-2.2206
-1.49868
-3.24087
0
-5.6831
-2.44273
-1.12502
-5.85411
-1.516
-2.44003
-2.45755
-2.96045
-2.43959
-0.498256
-0.590856
-5.85402
-2.44559
-2.44869
-6.01809
-0.67693
-1.50472
-5.78175
-2.22055
-2.44737
-2.44512
-2.01657
-2.33543
0
-2.53797
-2.17195
-2.45336
-3.03672
-1.51378
-5.77584
-3.24428
-2.22118
-1.48493
-5.87583
-2.41488
-3.07484
-3.24482
-3.06312
-2.1929
-5.78225
-2.22249
0
-5.65663
-2.2206
-1.75442
-3.13526
-2.22059
-1.17185
-3.15757
-2.22059
-3.06287
-3.23422
-2.22059
-5.78301
-3.07442
-3.24493
-2.22059
-5.78305
-0.930247
-2.80026
-0.320209
-2.44365
-0.403698
-2.43523
-3.08463
-0.344401
-5.68302
-2.19155
-2.43734
-0.499184
-2.43199
-0.395508
-2.42837
-3.43533
-0.33091
-5.83273
-2.42766
-3.07726
-0.353172
-5.84239
-5.26677
-2.42594
-0.318791
-2.42679
-2.43199
-3.61243
-3.24371
-3.06287
-0.295736
-2.41107
-0.103958
-3.07205
-0.323798
-2.43279
-3.73427
-0.358838
-2.43144
-3.6052
-0.401602
-2.42013
-2.3401
-5.85417
-5.78289
-2.22058
-2.47877
-2.42032
-2.82353
-0.642748
-2.42942
-3.34026
-2.23342
-2.04083
-6.74169
-3.07388
-3.2449
-1.91786
-2.22414
-3.24758
-2.22301
-3.04309
-2.10995
-3.07376
-3.24483
-3.24446
-3.06288
-1.96509
-5.77447
-2.22258
-3.24446
-3.06287
-1.12797
-2.22256
-0.8236
-2.22208
-5.1715
-0.485369
-2.42577
-0.763133
-2.22124
-0.586938
-2.41413
-1.07125
-2.2217
-3.02781
-0.975782
-3.2435
-2.22098
-4.4115
-2.40976
-3.06523
-0.256948
-5.7102
-2.42108
-3.42249
-0.292686
-2.3452
-0.0849122
-5.68228
-2.51002
-3.62731
-2.23816
-3.06788
0
-2.42787
-3.5204
-0.226974
-2.42983
-0.260343
-5.76923
-2.50186
-2.21656
0
-5.67139
-0.125557
-5.68072
-2.32461
-2.38576
-3.60894
-3.22176
-3.06287
-0.0454823
-2.38857
-0.160816
-5.68793
-0.194866
-2.37039
-0.497974
-5.85405
-2.41108
-3.06287
-1.31007
-2.22081
-3.06287
-1.94825
-5.77675
-2.22184
-2.22782
-2.22055
-2.22209
-2.21378
-3.11166
-2.22011
-5.80174
-3.24994
-3.15419
-2.2205
-5.91606
-3.25286
-2.49476
-2.27554
-2.25654
-2.22057
-5.80172
-2.22313
-3.06488
-2.22026
-5.78329
-3.54901
-2.07246
-5.93223
-2.44118
-2.21918
-2.22258
-3.24458
-2.22223
-3.03843
-2.13935
-5.77977
-0.0538966
-3.00358
-2.22059
-5.78303
-2.45069
-0.319386
-5.7562
-1.98126
-2.45176
-0.0123006
-5.78032
-2.21862
-2.44916
-0.311834
-5.85399
-2.44937
-0.201666
-0.00515039
-2.45909
-0.00648083
-2.45632
-0.00783733
-2.45335
-0.00335493
-2.45233
-4.38286
0
-2.42141
-2.73123
-2.47224
-2.22055
-2.17787
-5.7804
-2.22069
-2.46613
-2.13049
-5.77863
-2.22066
-2.46754
-2.18474
-5.77953
-2.22065
-2.46331
-3.24748
-1.20208
-2.23583
-3.1628
-2.22056
-5.79152
-2.22222
-3.05421
-2.22026
-2.23457
-2.22058
-5.78394
-2.44273
-0.368422
-2.22057
-2.22056
-5.78548
-2.43
-1.19179
-5.77822
-2.22043
-2.42947
-0.879853
-5.85444
-2.40203
-3.06287
-1.68321
-2.22065
-2.97115
-1.21211
-5.77267
-3.24296
-2.22065
-0.0772118
-5.7965
-2.44203
-0.229128
-2.4482
-0.0303266
-5.83859
-2.44665
-2.43855
-0.304024
-2.43411
-2.22053
-2.44478
-0.276207
-3.21357
-3.04721
-0.893929
-2.2291
-1.64647
-2.71506
-2.47888
-3.24466
-2.22227
-3.03816
-1.51029
-5.76806
-2.57602
-2.43667
-2.2313
-2.38389
-2.45244
-2.51202
-2.13479
-3.48276
-2.24461
-3.0587
-2.21454
-5.78081
-3.24445
-2.22066
0
-5.11668
-3.06287
-3.24445
-2.2206
-3.06272
-2.98328
-2.0509
-3.06287
-3.24445
-2.22063
-2.46092
-1.87982
-5.73678
-2.22063
-0.178715
-5.77654
-3.01339
-2.40576
-2.97906
0
-5.59583
-3.04563
-2.22063
-3.01762
-2.48851
-3.24352
-2.22059
-3.2449
-0.887355
-3.2363
-2.97083
-2.49236
-3.30484
-2.23517
-2.37299
-3.30323
-0.348692
-5.76471
-2.38492
-1.82149
-2.37509
-2.4651
-1.9713
-5.76269
-2.22063
-2.21591
-3.29822
-3.125
-2.21525
-2.22059
-2.2561
-2.22062
-2.44284
-0.321195
-2.76413
-2.22059
-5.78296
-2.40283
-2.22064
0
-2.25216
-2.18524
-3.30062
-2.78971
-2.34429
-2.26658
-2.22061
0
-4.86011
-2.22919
-0.558422
-5.1628
-2.42515
-1.94731
-3.26626
-3.24444
-3.06287
-3.11484
-2.92928
-3.06225
-2.21817
-1.49562
-5.85425
-3.18207
-2.39519
-3.0629
-3.24443
0
-5.57732
-2.22141
-3.00487
-2.47297
-2.44697
-2.12589
-2.22064
-3.17357
-3.06301
-3.24445
-0.208714
-5.63397
-0.774732
-5.36499
-3.07193
-2.22061
-2.43528
-2.2456
-2.22059
-2.22063
-2.89626
0
-2.9813
-2.41823
-3.19997
-2.22077
-2.46296
-2.10736
-2.22063
-0.359171
-2.23317
-2.30534
-2.2199
-2.1265
-2.22063
-3.0075
-0.184217
-5.62793
-3.25196
-2.22281
-2.45067
-3.04952
-2.14901
-5.77904
-3.24445
-2.22064
-2.41718
-0.492717
-5.85347
-3.01975
-0.360329
-5.67211
-3.25419
-2.2224
-2.22083
-2.21953
-5.74498
-2.22059
-3.42917
-2.23597
-0.204355
-3.1897
-3.24358
-2.22059
-5.78333
-3.42273
-3.24214
-3.06287
-0.20453
-3.06273
-3.009
-2.13449
-5.77738
-3.06288
-3.24443
-2.22064
-2.46524
-1.66631
-2631.39
-2.41678
-0.337614
-2.22491
-2.06804
-5.85419
-2.44847
-3.03867
-0.411702
-3.42934
-2.22956
-5.78366
-2.22058
-2.54055
-3.22327
-2.33425
-5.8542
-2.42421
-0.622069
-2.22069
-0.232902
-2.22122
-2.22063
-2.04476
-5.77287
-2.22063
-2.46712
-0.4846
-5.70572
-2.22518
-2.46047
-2.16848
-2.22064
-2.22055
-2.22149
-2.4579
-2.20267
-5.7802
-2.22065
-3.03813
-0.316389
-3.49891
-2.22934
-3.26216
-1.755
-2.26467
-3.12848
-2.21927
-2.22013
-5.77532
-2.41374
-3.08786
-0.419264
-5.84736
-2.46924
-2.06672
-5.77471
-2.22064
-3.23416
-2.22062
-3.23532
-2.22069
-2.08272
-3.04913
-2.55723
-1.07437
-5.4538
-3.06287
-3.24444
-2.22061
-3.11156
-2.22066
-2.21943
-5.76965
-2.20918
-2.22066
-2.45506
-3.06212
-2.76052
-1.74589
-5.71033
-3.06287
-3.24445
-3.06287
-2.22062
-2.45592
-1.45264
-5.63971
-2.22062
-2.22058
-3.07458
-3.24488
-2.54482
-2.51473
0
-5.24461
-2.2206
-2.78553
-2.48386
-3.2432
-3.06167
-2.93117
-1.85748
-5.77806
-3.24408
-2.22065
-3.06287
-1.66111
-2.22062
-0.0601554
-2.24802
-2.2204
-3.24575
-2.22299
-3.05219
-2.21532
-5.78417
-3.24335
-2.47285
-1.82462
-2.22061
-3.06327
-3.24324
-3.03292
-1.792
-5.77244
-2.22062
-3.27204
-2.93652
-2.356
-3.24994
-2.22518
-2.34466
-2.2238
-2.68517
-2.43569
-5.85418
-2.47941
-2.00729
-2.22065
-0.157051
-5.71884
-2.2548
-3.24423
-2.22059
-2.22056
-2.22129
-2.34514
-2.45519
-3.34813
-1.97921
-6.41622
-2.44321
-3.63307
-2.28211
-2.45441
-2.45615
-2.22058
-5.7826
-2.25887
-2.92283
-2.29804
-2.22052
-2.22174
-2.46458
-2.22055
-5.7906
-2.64855
-2.22059
-5.78321
-2.45752
-2.22059
-5.78302
-2.58566
-2.22058
-5.78246
-2.22472
-2.4533
-2.30219
-3.07055
-2.21984
-5.78192
-2.22081
-2.45478
-3.06287
-3.21238
-2.22059
-5.78295
-2.54012
-2.4537
-3.87582
-2.31305
-2.53308
-3.06287
-3.20194
-2.22058
-5.7828
-3.07274
-3.24486
0
-2.45369
-2.46467
-1.39748
-486.851
-2.3865
-2.30958
-3.24624
-3.24197
-3.06287
-0.162634
-3.06286
0
-2.46637
-3.22812
-2.2206
-2.20775
-3.82439
-3.1863
-3.06287
0
-2.50317
-2.30134
-3.06205
-0.382209
-5.73386
-4.62356
-2.33719
-2.61746
-0.806337
-5.76555
-3.24325
-2.2206
-0.271357
-3.07346
-0.0250678
-3.81007
-3.24218
-3.06287
-0.231123
-0.408004
-5.71939
-2.30124
-0.789254
-2.2206
-2.4781
-0.971107
-5.73957
-2.2206
0
-3.24248
-2.2206
-2.23817
0
-5.66836
-2.47093
-2.33225
-3.35281
-0.356252
-2.41744
-2.52034
-2.99273
-3.03053
-2.22423
-3.06287
-3.17179
-3.63349
-2.9931
-2.38979
-2.21432
-2.22393
-2.22051
-5.78196
-3.24449
-2.22257
-3.10533
-2.22054
-5.78214
-2.42943
-2.11111
0
-2.58743
-2.22058
-2.29456
-2.22058
-5.78264
-3.02922
-2.43513
-3.03871
0
-5.64066
-2.22878
-2.23471
-2.22057
-5.78241
-2.23993
-2.22057
-5.78236
-3.09945
-2.23945
-2.22058
-5.78285
-2.32017
-2.3393
-3.06287
-3.21951
0
-2.77379
-3.29276
-2.22669
-3.04772
-1.61996
-1.24058
-5.56613
-3.06287
-3.24445
-3.06285
-2.22062
-2.22062
-3.77911
-2.2477
-3.05461
-0.336103
-2.22061
-3.06287
-0.917425
-2.40082
-0.988523
-4.48315
-2.35641
-3.07464
-0.735136
-6.45732
-2.39376
-1.11666
-124.288
-2.21985
-2.37124
-1.23892
-3.24439
-2.22062
-1.85317
-5.75444
-2.42067
-1.39269
-33.3275
-2.22068
-2.08854
-5.77966
-2.22072
-2.14145
-5.78098
-2.3952
-3.16808
-0.788331
-2.22092
-3.06289
-2.14834
-4.0042
-2.40369
-2.00513
-4512.5
-0.92207
-5.85796
-2.40922
-3.24314
-2.22062
-2.77072
-1.41342
-5.77531
-2.39053
-3.06973
-0.390183
-5.81495
-3.72948
-2.23923
-3.0492
-0.374916
-5.6894
-2.44093
-2.86222
0
-2.22064
0
-2.22341
-2.22058
-5.78269
-2.25384
-3.24444
-3.06287
-0.351823
-3.07164
-2.20623
-5.8377
-3.262
-2.22582
-3.07104
-2.42159
-1.39904
-511.023
-2.22107
-2.21979
-3.15804
-0.695026
-5.8608
-5.75499
-2.40327
-2.32181
-3.07248
-3.24655
-3.24445
-3.06323
-0.955424
-3.24446
-2.2209
-3.1031
-2.21961
-5.78125
-2.39153
-0.853367
-2.32762
-3.06085
-0.483175
-5.78432
-3.30453
-3.18875
-3.06287
-2.22641
-3.03956
-0.5665
-5.72532
-1.91883
-2.33163
-2.19701
-2.22273
-3.24446
-3.06287
-0.691724
-3.22701
-2.22071
-2.97132
-0.300379
-3.07347
-2.22118
-2.30379
-0.540188
-5.77631
-2.22229
-0.654284
-2.22073
-2.21584
-0.785193
-2.41983
-0.931256
-2.40481
-2.76212
-2.38726
-2.15686
-2.22078
-2.21984
-2.36018
-0.433043
-5.79115
-2.2207
-3.06287
-1.97294
-5.77971
-2.4153
0
-2.22602
-3.33626
-2.17867
-4.26843
-2.289
-0.373298
-5.69782
-2.37203
-0.867308
-12.5373
-2.27955
-3.05542
-0.442557
-5.71891
-2.22395
-3.07182
-3.24491
-3.24446
-3.06287
-1.15315
-2.2216
-3.02578
-0.576268
-1.92214
-6.11326
-2.22914
-2.30217
-2.60051
-2.48823
-2.23579
0
-5.67059
-2.22206
-2.22058
-2.22397
-2.22058
-5.7826
-2.22084
-3.04178
-2.40536