# vtk DataFile Version 2.0
Unstructured Grid by M++
ASCII
DATASET UNSTRUCTURED_GRID
POINTS 4072 float
  0.546875   0.656250 0
  0.546875   0.578125 0
  0.718750   0.625000 0
  0.656250   0.875000 0
  0.734375   0.609375 0
  0.671875   0.859375 0
  0.718750   0.609375 0
  0.656250   0.859375 0
  0.734375   0.593750 0
  0.671875   0.843750 0
  0.578125   0.984375 0
  0.640625   0.734375 0
  0.546875   0.593750 0
  0.593750   0.984375 0
  0.656250   0.734375 0
  0.640625   0.984375 0
  0.703125   0.734375 0
  0.546875   0.781250 0
  0.609375   0.531250 0
  0.546875   0.796875 0
  0.968750   0.531250 0
  0.609375   0.546875 0
  0.890625   0.984375 0
  0.953125   0.734375 0
  0.578125   0.593750 0
  0.515625   0.843750 0
  0.953125   0.625000 0
  0.890625   0.875000 0
  0.781250   0.578125 0
  0.718750   0.828125 0
  0.734375   0.812500 0
  0.640625   0.968750 0
  0.703125   0.718750 0
  0.671875   0.937500 0
  0.734375   0.687500 0
  0.671875   0.953125 0
  0.734375   0.703125 0
  0.656250   0.953125 0
  0.718750   0.703125 0
  0.656250   0.968750 0
  0.718750   0.718750 0
  0.578125   0.765625 0
  0.562500   0.765625 0
  0.578125   0.750000 0
  0.921875   0.953125 0
  0.984375   0.703125 0
  0.921875   0.937500 0
  0.984375   0.687500 0
  0.562500   0.953125 0
  0.578125   0.578125 0
  0.515625   0.828125 0
  0.562500   0.578125 0
  0.656250   0.937500 0
  0.718750   0.687500 0
  0.640625   0.937500 0
  0.703125   0.687500 0
  0.640625   0.953125 0
  0.703125   0.703125 0
  0.546875   0.765625 0
  0.609375   0.515625 0
  0.531250   0.765625 0
  0.593750   0.515625 0
  0.890625   0.937500 0
  0.953125   0.687500 0
  0.859375   0.750000 0
  0.796875   1.000000 0
  0.984375   0.734375 0
  0.921875   0.984375 0
  0.968750   0.734375 0
  0.906250   0.984375 0
  0.984375   0.718750 0
  0.921875   0.968750 0
  0.593750   0.546875 0
  0.531250   0.796875 0
  0.593750   0.531250 0
  0.531250   0.781250 0
  0.953125   0.515625 0
  0.578125   0.562500 0
  0.515625   0.812500 0
  0.578125   0.546875 0
  0.515625   0.796875 0
  0.593750   0.609375 0
  0.531250   0.859375 0
  0.578125   0.609375 0
  0.515625   0.859375 0
  0.859375   0.703125 0
  0.796875   0.953125 0
  0.828125   0.750000 0
  0.765625   1.000000 0
  0.828125   0.734375 0
  0.765625   0.984375 0
  0.921875   0.796875 0
  0.984375   0.546875 0
  0.562500   0.812500 0
  0.906250   0.796875 0
  0.921875   0.781250 0
  0.812500   0.765625 0
  0.750000   1.000000 0
  0.812500   0.750000 0
  0.859375   0.531250 0
  0.796875   0.781250 0
  0.796875   0.765625 0
  0.781250   0.781250 0
  0.875000   0.578125 0
  0.812500   0.828125 0
  0.937500   0.734375 0
  0.875000   0.984375 0
  0.765625   0.578125 0
  0.703125   0.828125 0
  0.781250   0.562500 0
  0.718750   0.812500 0
  0.750000   0.578125 0
  0.687500   0.828125 0
  0.765625   0.562500 0
  0.703125   0.812500 0
  0.625000   0.953125 0
  0.687500   0.703125 0
  0.609375   0.968750 0
  0.671875   0.718750 0
  0.609375   0.953125 0
  0.671875   0.703125 0
  0.625000   0.875000 0
  0.687500   0.625000 0
  0.609375   0.890625 0
  0.671875   0.640625 0
  0.625000   0.890625 0
  0.687500   0.640625 0
  0.609375   0.906250 0
  0.671875   0.656250 0
  0.937500   0.578125 0
  0.875000   0.828125 0
  0.921875   0.593750 0
  0.859375   0.843750 0
  0.921875   0.578125 0
  0.859375   0.828125 0
  0.937500   0.640625 0
  0.875000   0.890625 0
  0.562500   0.703125 0
  0.546875   0.718750 0
  0.546875   0.703125 0
  0.531250   0.718750 0
  0.906250   0.968750 0
  0.968750   0.718750 0
  0.906250   0.953125 0
  0.968750   0.703125 0
  0.906250   0.937500 0
  0.968750   0.687500 0
  0.890625   0.968750 0
  0.953125   0.718750 0
  0.890625   0.953125 0
  0.953125   0.703125 0
  0.593750   0.765625 0
  0.609375   0.750000 0
  0.593750   0.750000 0
  0.937500   0.953125 0
  0.843750   0.921875 0
  0.906250   0.671875 0
  0.828125   0.937500 0
  0.890625   0.687500 0
  0.546875   0.750000 0
  0.546875   0.734375 0
  0.531250   0.750000 0
  0.953125   0.671875 0
  0.890625   0.921875 0
  0.531250   0.671875 0
  0.515625   0.687500 0
  0.875000   0.921875 0
  0.937500   0.671875 0
  0.515625   0.937500 0
  0.859375   0.937500 0
  0.921875   0.687500 0
  0.859375   0.921875 0
  0.921875   0.671875 0
  0.843750   0.937500 0
  0.906250   0.687500 0
  0.921875   0.703125 0
  0.859375   0.953125 0
  0.937500   0.703125 0
  0.875000   0.953125 0
  0.937500   0.687500 0
  0.875000   0.937500 0
  0.828125   0.656250 0
  0.968750   0.593750 0
  0.968750   0.578125 0
  0.906250   0.812500 0
  0.953125   0.593750 0
  0.953125   0.578125 0
  0.875000   0.843750 0
  0.937500   0.593750 0
  0.953125   0.656250 0
  0.531250   0.921875 0
  0.890625   0.906250 0
  0.953125   0.640625 0
  0.890625   0.890625 0
  0.937500   0.656250 0
  0.875000   0.906250 0
  0.718750   0.593750 0
  0.656250   0.843750 0
  0.734375   0.578125 0
  0.671875   0.828125 0
  0.718750   0.578125 0
  0.656250   0.828125 0
  0.734375   0.562500 0
  0.671875   0.812500 0
  0.578125   0.890625 0
  0.640625   0.640625 0
  0.593750   0.890625 0
  0.656250   0.640625 0
  0.578125   0.906250 0
  0.640625   0.656250 0
  0.578125   0.953125 0
  0.640625   0.703125 0
  0.593750   0.953125 0
  0.656250   0.703125 0
  0.578125   0.968750 0
  1.000000   0.703125 0
  0.640625   0.718750 0
  0.593750   0.968750 0
  0.656250   0.718750 0
  0.734375   0.515625 0
  0.671875   0.765625 0
  0.968750   0.765625 0
  0.984375   0.750000 0
  0.843750   0.750000 0
  0.781250   1.000000 0
  0.859375   0.734375 0
  0.796875   0.984375 0
  0.843750   0.734375 0
  0.781250   0.984375 0
  0.859375   0.718750 0
  0.796875   0.968750 0
  0.843750   0.718750 0
  0.781250   0.968750 0
  0.828125   0.640625 0
  0.765625   0.875000 0
  0.828125   0.625000 0
  0.875000   0.546875 0
  0.812500   0.796875 0
  0.812500   0.781250 0
  0.796875   0.796875 0
  0.875000   0.609375 0
  0.812500   0.859375 0
  0.968750   0.796875 0
  0.546875   0.687500 0
  0.546875   0.671875 0
  0.531250   0.687500 0
  0.984375   0.796875 0
  1.000000   0.796875 0
  0.562500   0.796875 0
  0.578125   0.781250 0
  0.625000   0.531250 0
  0.562500   0.781250 0
  0.578125   0.640625 0
  0.515625   0.890625 0
  0.562500   0.640625 0
  0.578125   0.625000 0
  0.515625   0.875000 0
  0.875000   0.703125 0
  0.812500   0.953125 0
  0.750000   0.609375 0
  0.687500   0.859375 0
  0.765625   0.593750 0
  0.703125   0.843750 0
  0.750000   0.593750 0
  0.687500   0.843750 0
  0.625000   0.984375 0
  0.687500   0.734375 0
  0.625000   0.968750 0
  0.687500   0.718750 0
  0.609375   1.000000 0
  0.671875   0.750000 0
  0.609375   0.984375 0
  0.671875   0.734375 0
  0.625000   0.906250 0
  0.687500   0.656250 0
  0.609375   0.921875 0
  0.671875   0.671875 0
  0.625000   0.921875 0
  0.687500   0.671875 0
  0.609375   0.937500 0
  0.671875   0.687500 0
  0.625000   0.937500 0
  0.687500   0.687500 0
  0.968750   0.656250 0
  0.906250   0.906250 0
  0.984375   0.640625 0
  0.921875   0.890625 0
  0.968750   0.640625 0
  0.906250   0.890625 0
  0.984375   0.625000 0
  0.921875   0.875000 0
  0.968750   0.625000 0
  0.906250   0.875000 0
  0.953125   0.765625 0
  0.906250   1.000000 0
  0.968750   0.750000 0
  0.937500   0.765625 0
  0.953125   0.750000 0
  0.953125   0.796875 0
  0.937500   0.796875 0
  0.953125   0.781250 0
  1.000000   0.531250 0
  0.937500   0.781250 0
  0.984375   1.000000 0
  1.000000   1.000000 0
  1.000000   0.984375 0
  0.890625   0.765625 0
  0.718750   0.515625 0
  0.656250   0.765625 0
  0.890625   0.796875 0
  0.890625   0.781250 0
  0.562500   0.671875 0
  0.921875   0.656250 0
  0.578125   0.656250 0
  0.515625   0.906250 0
  0.562500   0.656250 0
  0.890625   0.750000 0
  0.828125   1.000000 0
  0.875000   0.734375 0
  0.812500   0.984375 0
  0.546875   0.968750 0
  0.625000   0.718750 0
  0.171875   0.656250 0
  0.750000   0.046875 0
  0.062500   0.609375 0
  0.046875   0.609375 0
  0.734375   0.031250 0
  0.046875   0.593750 0
  0.718750   0.125000 0
  0.703125   0.109375 0
  0.687500   0.125000 0
  0.500000   0.937500 0
  0.437500   0.765625 0
  0.359375   0.625000 0
  0.296875   0.875000 0
  0.343750   0.609375 0
  0.281250   0.859375 0
  0.250000   0.515625 0
  0.484375   0.531250 0
  0.468750   0.515625 0
  0.468750   0.656250 0
  0.453125   0.671875 0
  0.031250   0.937500 0
  0.390625   0.921875 0
  0.250000   0.968750 0
  0.765625   0.234375 0
  0.750000   0.093750 0
  0.750000   0.078125 0
  0.000000   0.515625 0
  0.500000   0.765625 0
  0.328125   0.718750 0
  0.343750   0.703125 0
  0.328125   0.687500 0
  0.312500   0.703125 0
  0.343750   0.781250 0
  0.406250   0.531250 0
  0.015625   0.531250 0
  0.062500   0.593750 0
  0.750000   0.015625 0
  0.062500   0.578125 0
  0.046875   0.578125 0
  0.734375   0.000000 0
  0.296875   0.687500 0
  0.484375   0.843750 0
  0.031250   0.593750 0
  0.718750   0.015625 0
  0.031250   0.578125 0
  0.468750   0.828125 0
  0.703125   0.000000 0
  0.750000   0.234375 0
  0.453125   0.750000 0
  0.218750   0.687500 0
  0.421875   1.000000 0
  0.000000   0.218750 0
  0.484375   0.750000 0
  0.468750   0.765625 0
  0.468750   0.875000 0
  0.046875   0.093750 0
  0.296875   0.781250 0
  0.437500   0.984375 0
  0.015625   0.203125 0
  0.500000   0.796875 0
  0.078125   0.015625 0
  0.484375   0.875000 0
  0.484375   1.000000 0
  0.062500   0.218750 0
  0.468750   0.859375 0
  0.484375   0.781250 0
  0.062500   0.000000 0
  0.484375   0.921875 0
  0.062500   0.140625 0
  0.453125   1.000000 0
  0.031250   0.218750 0
  0.312500   0.562500 0
  0.250000   0.812500 0
  0.468750   0.937500 0
  0.046875   0.156250 0
  0.343750   0.593750 0
  0.375000   0.562500 0
  0.312500   0.812500 0
  0.203125   0.671875 0
  1.000000   0.234375 0
  0.375000   0.593750 0
  0.312500   0.796875 0
  0.484375   0.890625 0
  0.062500   0.109375 0
  0.296875   0.796875 0
  0.187500   0.656250 0
  0.984375   0.218750 0
  0.359375   0.546875 0
  0.375000   0.625000 0
  0.359375   0.609375 0
[...]
POINT_DATA 4072
SCALARS scalar_value float 1
LOOKUP_TABLE default
0.000932042
0.00153485
-0.00325873
0.000409299
-0.00730635
0.000388566
-0.00353949
0.000519345
-0.00835892
0.000516569
5.75329e-06
0.00184715
0.00128836
-2.9564e-07
0.00228762
2.33495e-05
0.000385553
0.000253322
0.0204981
0.000168411
1.80148e-05
0.0180928
-2.2113e-07
9.06494e-06
0.00584048
-0.000150108
2.71984e-05
-7.44722e-06
0.000637267
-0.000570157
-0.000711418
5.27476e-05
0.000552251
0.000100898
-0.00338314
7.37999e-05
-0.00287593
9.43934e-05
-0.00154638
5.76273e-05
-0.00135857
0.000648369
0.00068343
0.000905714
-8.0749e-07
-2.37361e-06
-1.19798e-06
-3.02108e-06
2.07381e-05
0.00708862
-0.0001889
0.00437815
0.000137154
-0.00179056
0.000132384
0.000816851
8.88322e-05
0.000699208
0.000392207
0.0228428
1.87291e-05
0.016579
-8.81409e-07
1.54325e-05
3.07357e-05
0
-1.16994e-06
-2.22147e-07
6.61998e-06
-2.62872e-07
-1.75606e-06
-4.88325e-07
0.0129649
-6.27508e-05
0.0148022
-3.74229e-05
6.51885e-05
0.00847962
-0.000229032
0.009917
-0.000265694
0.00596003
-3.90785e-05
0.00478434
-0.000115716
5.36878e-05
9.9976e-06
0.000140575
0
0.000174886
-2.33795e-06
-8.19446e-06
-2.69466e-06
0.000277193
-1.60563e-05
-7.13357e-06
0.000149493
0
0.000186473
-0.000122361
0.000124927
0.000154006
0.000218446
-0.000139071
5.79952e-05
3.24821e-06
1.98816e-07
-0.00192545
-0.000273825
0.000670599
-0.000675294
-0.00847633
0.000259513
-0.00231745
-0.000239915
7.5119e-05
0.0028935
2.80031e-05
0.00303037
4.83091e-05
0.00352576
0.000354509
0.0060426
0.000181547
0.00668262
0.00027845
0.00508656
0.000139718
0.00561715
-7.14249e-07
-1.14846e-05
-2.2111e-05
1.86236e-06
-4.46927e-05
1.47239e-06
1.44892e-05
-9.38857e-07
0.00151606
0.000858
0.000976429
0.000232552
-5.70695e-07
7.01449e-06
-9.2694e-07
7.38102e-06
-1.34266e-06
7.71053e-06
-4.35483e-07
1.1019e-05
-6.44722e-07
1.31358e-05
0.000400796
0.000490959
0.00062838
-1.01863e-07
1.41738e-05
-4.28942e-05
1.53215e-05
-4.79569e-05
0.000589757
0.000730674
0.000102877
1.79304e-05
-1.24901e-06
0.000182432
-0.000407794
1.88827e-06
1.00332e-05
-2.13545e-05
5.58015e-06
-7.21104e-06
7.2007e-06
-7.57658e-06
1.08335e-05
-3.83235e-05
-6.8864e-06
3.76129e-06
6.26872e-06
1.02879e-06
8.04499e-06
1.56385e-06
0.000415188
1.25089e-05
1.53533e-05
-1.22745e-05
3.67771e-05
4.39392e-05
-1.02085e-05
1.53516e-05
2.06658e-05
-1.07233e-05
-1.99874e-06
2.37091e-05
-3.69909e-06
1.22139e-05
1.45914e-06
-0.00355981
0.000654326
-0.0094406
0.00068272
-0.00314034
0.000818192
-0.0105244
0.000892901
8.67939e-05
0.00595479
3.60812e-05
0.00598544
6.4945e-05
0.00471949
2.19612e-05
0.00242865
3.34259e-06
0.00300146
1.29485e-05
-1.10307e-05
0.00209152
7.13582e-07
0.00260531
-0.0147098
0.00181136
5.78802e-06
-6.16313e-07
7.2769e-05
0
3.83208e-05
2.17996e-06
9.01506e-05
6.82281e-07
4.59995e-05
5.30678e-06
0.000109308
2.46066e-06
0.000472601
8.10886e-05
0.000529005
-0.000294961
9.358e-05
0.000118681
9.98404e-05
-4.68102e-05
3.91597e-05
4.85642e-06
0.00105991
0.000985132
0.000262928
6.94179e-07
-4.28944e-06
0.000359339
0.000491562
0.0259077
0.000480914
0.00318157
-6.39101e-05
0.00194031
0.00390684
-8.69852e-05
9.42983e-07
1.26552e-05
-0.00623867
6.40123e-05
-0.00158217
-0.000283307
-0.00729014
0.000142313
1.93237e-05
0.00203207
4.41091e-05
0.00245519
0
0.00219165
1.20783e-05
0.00259208
0.000213736
0.00439014
0.000103806
0.00477596
0.000159015
0.00383378
7.34502e-05
0.00409802
0.000113136
0.00334866
8.31006e-06
-2.52013e-06
-4.96313e-06
-3.79712e-06
8.70397e-06
-3.51066e-06
-5.42778e-06
-4.72897e-06
9.35764e-06
-5.39898e-06
5.55128e-06
0
6.20935e-06
4.81755e-07
7.25347e-06
2.16075e-06
-3.67335e-06
3.89295e-06
-4.02304e-05
-1.19849e-06
0
0
-1.37476e-07
-2.05662e-05
-0.00241546
0.00175828
-1.3322e-05
-1.68274e-05
0.00156979
-8.0457e-06
0.0025823
-4.58439e-05
0.00168042
-2.47864e-05
0
2.16436e-06
3.06844e-06
4.63918e-06
0.000787611
8.60149e-05
-0.432913
6.77131e-05
-4.27341e-05
-0.385572
-4.67472e-05
0.0371044
0.709169
1.32076
-4.54356e-05
0.00190723
0.00224071
-0.000127515
-0.0011179
-9.82447e-05
-0.0021686
-0.00417245
0.00234749
-0.0012138
0.000392026
-2.02467e-06
0.000148185
-1.03696e-06
-0.0556573
-0.336617
-0.36567
0.000103295
-0.000595196
-6.96394e-06
0.000843785
-0.000405037
-0.000942183
0.000698919
0.0218721
-5.04526e-05
8.27003e-05
-0.518191
0.000101015
-5.00183e-05
-0.474178
-0.00154191
-0.000337211
-8.52031e-05
0.0155557
-9.68922e-05
-9.94744e-05
0.719841
-0.13266
0.00103827
0.000173018
0
0.000136114
-0.000751342
-6.88159e-06
-0.000138447
0.000336561
-0.000505145
1.10315e-05
-0.000631526
-0.000466311
0.004872
-0.000232542
0
0.00153932
-0.000148468
-0.000546983
0.00245826
-0.000106403
0.00476071
0
-0.000749828
-0.00719539
-6.98868e-05
-5.73815e-05
0.00146125
-0.00135634
0.0106947
-0.000264761
0.000294487
-3.00811e-05
0.00705133
-0.00028952
-0.000184646
0.00296644
-0.000419369
0.000243298
0.000339992
0.00713602
0.00525407
0.00234786
0.00338996
-0.000275959
-1.11571e-05
0.000462291
-0.000343559
-9.83505e-05
0.00131613
-0.000244119
-0.000901909
1.28191e-05
0.00288061
-0.000378142
0.000108845
-0.000859377
-0.000117497
-0.00471541
0.000271933
-0.000857693
0.000272918
0.000163018
-0.000321697
0.0190883
-0.000244973
-0.000164803
0.00119345
-0.00218896
-0.000366041
-4.02148e-05
-0.000359942
-3.44955e-05
0.106383
4.46183e-05
-9.40805e-05
0.00683203
0.858618
-0.00168827
1.80039
-0.00012818
3.21932e-05
-0.000757896
-0.00192152
-0.276409
0.000157623
0.0306309
-0.00055197
0.000152853
-0.000965023
-0.000604496
0.000334016
0.000416628
0.0167201
0.142263
-0.00141964
-0.284646
0.159184
-0.30555
-1.69629e-05
-0.000122888
-5.20978e-05
0.000200785
-0.000649098
-0.000835151
-0.000793223
2.29506e-06
-0.000590636
-0.000395891
-0.000220872
0.00127458
-0.00021813
-3.31847e-05
0.0010149
-8.71195e-05
-0.00013694
0.0311558
-5.7872e-05
0.000572306
-0.00103096
3.11799e-07
-0.00118991
-0.000447024
0
2.58499e-05
-0.00297482
-1.94392e-06
0
7.04421e-05
-0.000763089
-0.0523984
-9.02273e-07
-1.59324e-07
-0.0144207
0
0
-2.43685e-05
0.00108077
-1.33695e-05
0.00231343
0.744512
-2.65124e-06
-0.000546082
-0.0331214
-0.0414369
0.000120669
-3.27481e-07
-0.0472547
-0.00043378
-0.000863881
-4.90242e-07
-0.000882144
-1.46139e-05
0.392526
0.00609982
-9.80346e-06
0.00309199
-0.0835672
0.000158002
-9.62629e-05
-0.000128607
0.000503539
-0.281031
6.0216e-05
6.23729e-05
-0.00534891
-0.108146
1.531e-05
2.28084e-06
-1.52537e-06
-4.44879e-06
-1.21346e-06
0.0317901
0.000888434
0
0.00223209
0.0072497
0.000596794
0.0128487
0.0118415
0.000434584
0.0157195
0.00170713
0.00196879
-0.00425992
-0.16289
-0.00123814
0.00595593
-0.000662687
4.34146e-06
0.00152037
0.01842
0.008842
-8.48938e-06
-0.00051386
-0.00333624
-0.000174654
0.000944207
0.00136195
0.0259133
-8.55855e-06
0.00172275
0.0368272
1.76099e-05
0.038713
-5.25226e-05
-0.00292826
-0.00225559
0.00068245
-0.00147338
0.0125031
-3.83368e-05
-0.341562
0.00891817
4.50796e-05
-0.397361
-0.00209628
-0.00157751
-0.00346661
0.000804879
-8.95457e-05
0.000433171
0.000851377
0.000150989
0.305502
-8.21682e-06
0.0602609
-0.0964638
-5.5147e-06
-0.401812
0.0031471
0.000223424
0.00115871
-0.00126847
-0.00320197
-0.000114894
0.125276
0.00180808
9.62707e-05
-0.0194607
-0.0538592
-0.000371031
0.000575068
-0.195804
0.0835905
0.000656449
-0.000472914
-0.00165423
-0.000268441
-0.0114347
-2.71359e-05
0.0126385
0.00107877
-0.000366814
-0.0636781
0.00356667
0.00297514
0.00151834
0.0350886
-0.00931514
9.59215e-05
0.00578248
-5.70565e-05
-0.00425243
0.00142778
0.00029975
3.94761e-05
1.5298
0.0061569
1.65514e-05
2.07906e-05
-4.15543e-05
-0.00105787
5.21318e-05
5.01347e-05
0.00477911
-0.00074129
6.55692e-05
-0.00563511
-0.00846603
-0.00123089
-0.00054301
5.35168e-05
-0.154823
-0.00022453
-3.67465e-05
-0.000267218
-0.000307188
-0.00434197
0.00081901
0.00288949
0.000432197
-3.62928e-05
-0.00274066
-0.0038932
9.55657e-05
-0.00164916
1.93433e-06
5.14125e-07
-0.000865788
0.398252
1.1895e-05
-0.00463192
0
0.638313
0.00348135
0.00281444
0.00223235
0.096758
1.41139e-05
0.00782989
0.000293668
0.00279581
-1.30242e-05
0.00786639
-0.00652789
1.96878e-07
-0.000462204
1.00296e-05
0.00229576
-0.00764795
0.000152227
0.00924164
-0.0234125
0
0.0266141
-0.114958
0.000639193
-0.355654
-7.84059e-05
0.0062248
-0.114991
0.000914637
0.000430112
-0.0012191
-0.00576349
1.46589e-05
0.00918878
-1.49715e-05
0.000891849
-0.032488
8.55033e-06
-0.0021291
2.36266e-05
2.99233e-06
0.000486281
-0.0407217
1.17093e-05
0.0287078
0.0292642
0.000622586
0.00976061
8.62292e-05
-0.000198477
0.102331
0.011325
-5.01806e-05
-0.0528958
1.09729
0.000122068
-0.0577896
2.41822e-05
-2.8921e-05
0.000698544
1.22854
-0.000240037
0.00371768
-0.000276411
0.000800588
0.0120555
-0.0640354
1.37674
0.000170152
-0.0721253
5.08192e-06
1.54647
0.23714
7.30696e-06
0.0398194
0.126158
0.0554614
0
0.121546
0.0581651
-0.00166132
0.184343
1.7023e-05
0.000198761
-0.00083937
0.0464335
-0.00160164
2.61499e-05
-0.000548535
4.91729e-06
-0.0006596
9.49362e-05
-0.0762775
-0.000795003
0.000102753
7.13053e-05
9.41632e-05
-0.00883492
0.00115655
0.0007006
0.0108483
0.0001175
-0.000209982
0.15298
0.0136091
-6.731e-05
-0.000207417
0.0124259
-6.08705e-05
-0.000520744
0.0127012
-0.000474706
-0.00104218
0.000172985
0.0116953
-1.19389e-05
-8.38962e-05
-0.00312027
-0.00694561
0.000119496
1.63698e-05
-0.00556041
7.89382e-06
0.000242258
-0.00144317
0.13823
0.000190436
-0.000401193
0.00434154
0.125555
0.123942
0.212966
0.0194134
-0.00137132
0.389927
1.02584e-05
-0.000696533
3.81926e-05
0.000732552
-0.00069576
0.4809
7.19238e-06
-0.00138962
0.526935
0.000172894
-0.0129816
-0.00135549
0.654956
2.6798e-05
-0.0182108
-2.09682e-05
0.703744
3.15715e-05
-6.73416e-05
0.00238272
-0.000711934
-0.0789439
-2.39639e-06
0.00557331
-0.210996
-0.00024582
0.0030155
7.62172e-05
-1.46078e-06
-0.0867937
-2.48179e-05
0.000835965
0.00074884
-0.0484252
9.38648e-06
-0.000228948
-0.0049454
-0.000977449
0.000116558
0.0136569
2.81039e-06
0.11842
0.191547
0.0291105
0.0199773
0.0237587
-0.000725694
-0.000110614
0.0180237
0.405244
0.0166606
0.41156
1.95402e-05
8.87471e-05
-0.00451445
-0.00105498
0.571864
1.80193e-05
-0.00840938
0.614063
2.21742e-05
0.000317438
-0.0240498
-0.00155507
0.766183
3.60745e-05
-0.0303258
-2.99185e-05
-6.20439e-07
-0.000330823
0.847048
0.00100301
0.00538377
0.000105507
0.00109953
0.00543469
0.000135074
0.000237292
-2.80972e-06
-2.41675e-05
0.00917166
0.000464759
-4.75114e-06
0.000428433
0.00742392
4.03343e-05
0.00405199
-0.0944277
-0.000188095
4.83008e-05
-0.000680366
0.00533232
-0.00135282
-0.10151
0.000244047
-0.00518446
0.000132016
0.00194136
5.75157e-05
-8.42776e-07
4.73666e-06
0.00154381
-0.0711181
0.0439394
-0.0138269
-0.000107017
-4.24791e-05
-0.000139776
0.0151736
-0.206935
-0.000525713
0.00852447
-0.340282
-0.000468153
-0.107627
0.000518478
-0.112294
0.000422643
2.46347e-05
-0.00589051
6.30275e-06
-0.000503216
-0.00660881
-0.00795231
0
-0.00159828
0.0102894
-0.000637301
0.27405
0
-0.000561322
0.0296053
-0.000654091
0.181018
0.0139487
0.296856
-0.000688667
2.41501e-05
-0.0159568
-0.000274617
-0.000884896
-9.15507e-05
0.00394847
-0.000337699
0.000177894
0.00184473
-0.000385187
-0.000315499
-2.87265e-05
-0.000147989
0.218085
0.114983
-0.000478709
0.00218444
0.232099
0.193468
-1.47575e-05
0.247249
0.184658
-1.2932e-05
-0.000117128
-0.374281
0.00473331
-0.281758
0.00646539
-0.25741
0.403957
8.61226e-06
0.225618
0.002349
-0.00567988
9.82077e-05
0.00173172
0
0.00246887
-0.104857
-0.0389891
2.59021e-06
0.0026394
-1.79437e-05
-0.00663213
0.00145889
-0.0725251
-0.00091224
0.000147283
-0.000887034
0.000375535
0.0675444
-7.23859e-05
0.221473
0.000580288
-6.2298e-05
0.0140695
-0.00310003
0.508605
3.41657e-05
0.0308012
0.0967728
0.0329165
0
-0.00018087
0.0256448
-0.00117701
-0.00123886
0.0245399
1.48074e-05
-0.00110093
-0.0138496
-0.00188371
0.0507771
0.105138
0
0.0354354
0.113722
9.02322e-07
-8.30211e-05
0.0137814
-0.000570844
0.0148815
-0.000200491
0.000734523
0.0133844
-2.12186e-05
0.000939843
0.0149531
-0.00062425
0.222743
0.0162549
-0.000166734
-0.00014562
1.55428e-05
0.000268411
-0.0140654
5.50545e-05
-0.000998761
-0.2251
0.0232683
-0.246456
-0.000921438
0.0139787
-0.411297
4.97106e-05
0.000768306
-0.451365
-0.000781107
-0.306531
-0.0187163
-0.0115497
-4.39609e-05
-0.00176999
-0.00820916
-0.0179472
-0.00994974
4.63552e-06
-0.000534845
-0.00145345
-0.000954314
-0.0189552
-0.0136211
0.0169289
0.320685
0.396211
-0.0263199
-0.0275703
-0.0591203
-4.64206e-05
0.583604
-0.0314034
-0.0025818
-0.0337928
0.000218828
3.11249e-05
0.00204136
0.469953
-0.027781
0.208296
-0.0207348
-0.000223244
-0.0180077
0
-0.0144839
0.00212394
0.198003
-0.00136123
4.24118e-07
-0.000954926
-0.0429293
-0.00982228
0.359147
-0.00197616
0.000160302
0.00502529
-0.0001425
-0.0601537
-0.019172
9.55013e-05
0.00124672
0.264173
2.32957e-05
7.91191e-05
-0.0225945
-5.88672e-05
-0.0266932
-0.0187005
0.292781
0.863442
5.40714e-05
0.0228619
0.126259
0.000734886
-0.000119793
-0.00111462
-0.00457186
0.000303203
-2.26524e-06
0.00208946
0.075055
4.28114e-05
-0.012974
-0.0225065
-1.53823e-05
-0.00843192
-0.00246385
-0.0596317
-0.00190246
0.000453209
0.479034
6.92443e-05
-0.0138573
-0.0507268
3.94724e-05
-0.00160177
-0.0698106
0.000443478
6.15585e-05
-0.00223379
0.308633
-0.00874514
0.000383371
0.547686
0.000104617
-0.0170798
-0.00153162
0.035405
-0.00590037
0.0331576
-1.68847e-05
-0.00211453
-0.00253541
-0.00492016
-0.08142
-0.021132
0.620759
1.06527e-05
9.58032e-06
4.74505e-05
-0.000488052
0.000262739
2.73345e-05
0.000163278
0.000890658
-0.000477905
6.34352e-05
6.02026e-05
0.000103691
3.68432e-05
-0.00748246
0.0340607
-0.000685224
-0.000821903
0.000144379
0.00012549
-0.0182494
-7.42673e-06
0.0242967
0.00239982
0
-0.0198205
-0.0128954
0
1.23024e-05
0.54757
-0.0284791
-0.00362402
-0.0452694
-4.69303e-06
0.953025
4.36034e-05
1.71715e-05
0.978828
9.92472e-05
-0.0486393
2.36356e-05
-0.00458118
-0.00319943
0.000603623
-0.0530327
0.00203779
1.059
4.9255e-05
0.000201861
-0.0259866
0.000488141
0.696843
-0.0114762
0.415986
-0.0133134
0.0515799
0.107623
5.32693e-05
-0.0133274
-0.0134375
0
0.0476725
0.0135941
0.209661
-0.000143141
0.000290025
-0.00368375
3.86328e-05
0.905395
-0.0286785
0.805501
3.70974e-05
-0.0268102
-0.0267167
0.714254
4.07968e-05
0.00215424
-0.00274363
0.000170883
0.357169
9.3867e-07
0.000154228
-0.000727313
4.52953e-05
0.00527929
0.100853
-0.000875092
6.26718e-05
-0.00182939
7.28665e-06
0.0861472
0.00179292
-0.00648613
0.0445092
-0.013106
-0.00398933
1.1897
8.70338e-05
-0.0127398
0.000337056
-0.000146229
-0.014406
-0.00447041
-1.0374e-05
-0.00956799
-0.0142239
-9.53692e-06
0.0748656
0.000234735
-0.00977714
0.0265359
-0.0146914
-7.97651e-06
0.0254051
-0.0064462
0.0287368
3.25402e-07
-0.00475738
0.000245879
1.13128e-05
0.0145787
-0.00319652
0.00319148
-4.028e-07
0.113649
0.00017888
-0.00253555
-0.000751582
-0.00522514
-3.95446e-06
9.34727e-05
0.0021471
-0.130321
-9.39502e-05
-5.91186e-05
0.00239199
-3.75264e-05
0.00156656
0.000277618
-0.0634428
-3.54744e-06
-0.0559196
3.27237e-06
0.00120515
-9.81328e-05
0.00353428
0.0022482
-0.168542
-0.000168066
1.70734e-05
0.000385631
0
0.00105638
-0.000566503
0.00720439
3.13409e-05
0.000433108
0.0816593
0.000459516
-0.0112454
0.000443411
0.00478774
0.238158
0.040304
0.00892379
-0.000328948
0.00733796
1.75346e-05
0.000397419
-2.9754e-06
-0.000611522
0.0558586
0.000839701
0.00180813
4.73581e-05
0.00683497
1.23045e-05
0.000389283
-0.000432749
0.0107425
0.00073053
0.00502407
3.15507e-05
0.0463734
-0.000186062
-4.44948e-05
0.00400005
-0.000169985
0.00975403
2.295e-05
0.000173724
-0.309127
-0.00037221
-0.148918
-0.000129561
0.00288631
0.0026818
-0.23376
-0.000272725
-0.000216756
0.00688171
0.0106718
-0.180272
-0.000221474
-6.14308e-05
0.00446998
-0.152082
-0.00354308
-0.00745266
-0.0360044
-9.43813e-06
-0.021802
-9.18671e-05
0.00299236
-6.81604e-06
-0.00212589
0.00800423
5.14079e-05
0.000506603
-0.164671
-8.28311e-05
0.00172843
0.0016481
-0.0021434
0.000188546
-0.00664865
-0.0451874
0.00494024
-0.146091
-4.3544e-05
-4.36939e-05
-0.00313617
0.0406022
-0.000174626
-0.0142143
-0.0124157
0.141452
6.30969e-05
-0.0107994
0
-0.00049673
0.0181024
0.00273065
0
0.000676459
0.00032671
-0.00427907
-0.0502778
0.000640205
0.00143911
0.392336
0.000178505
0.343431
-2.27212e-06
-0.000824366
0.313968
-1.93444e-06
0.000382405
0.000254876
0.0063619
8.03916e-06
0.0243797
0.165956
0.000593198
0.0261091
-0.145228
0.00109242
-0.0022947
-1.61988e-05
0.0016189
0.000685617
0.00733537
-0.00266079
-0.139479
-4.94199e-05
-0.00308743
-0.163914
-7.86918e-05
6.41411e-06
0.000165945
-0.000142022
0.00416464
1.99746e-06
0.00188579
5.27602e-06
2.1426e-05
0.00158441
-0.000495783
0.435617
-0.00398907
1.56388e-05
0.00233259
-0.0434366
-0.00570233
-0.0805361
0.00115838
0.007207
-0.0951899
0.00136957
-0.00599776
0.363876
-0.00319828
0.000174785
-0.000190729
0.00186197
-0.000284605
-0.0169917
-0.000165322
0.00470552
0.0264945
-0.00016638
1.80099e-05
0.000759027
-0.189237
0.00440076
4.61518e-07
0.00184688
0.000354575
-5.74223e-05
-0.00234311
-2.0988e-05
0.00370288
-0.000531886
0.00553447
0.151688
0.00458481
0.0367837
-4.29464e-05
0.00449466
-1.1578e-06
0.00373954
-3.12158e-06
4.99267e-08
0.00367174
0
-0.0157239
0.0749659
-0.112659
-6.1795e-05
0.0020086
-0.00930404
0.175625
-3.72111e-05
0.00296623
-0.000722681
0.0222383
2.62147e-05
0.00601647
-0.280533
-0.000287442
-0.00017983
0.00583408
-5.79057e-05
-0.185085
-0.000108132
0.00190906
-0.00497425
-0.0237623
0.000126507
1.64999e-05
0.00145093
0.327203
-0.0245031
0.120316
-0.0173598
-7.75583e-06
0.775639
-0.0316409
-0.0085032
-0.10955
-0.0028727
-0.0012601
0.00170134
0.145771
-7.8292e-05
0.0178866
-0.00575193
0.000173152
4.6199e-06
-1.17056e-05
0.00708011
-0.000185589
0.000510999
0.000410633
0.000568158
0.00332322
0.0103076
-0.000394652
0.00981709
0.03919
-3.98595e-05
0.00300666
0.0428784
-0.00617755
0.0889377
-0.0303802
0.00550249
-0.000370719
0.026645
0.0277216
-0.494376
-0.000885592
2.49161e-05
0.0202306
0.00819412
0.00180127
-6.57866e-05
-0.171129
-0.000112502
-0.00101706
1.74204
0.000379404
-0.0824738
-8.28296e-07
-8.7587e-05
-0.000101803
0.351702
0
0.00057014
0.000352023
-0.0380886
0.000988614
0.859833
-0.00277189
-0.126375
0.000951803
9.65492e-05
2.54112e-05
-0.000113364
0.279173
0.258084
-6.17626e-06
0.0347069
-5.26382e-05
0.00489485
-2.67091e-06
-0.00302001
0.000131599
0
0.0684847
0.0447193
0.00149485
-0.00590258
0.00380351
-7.46595e-06
0.0202026
-0.000231758
-0.00058901
0.278757
-0.000407482
0.0561641
0.00866747
-0.000151284
0.000414193
-0.0280179
0.0109619
0.628818
3.91186e-05
2.47149e-05
-0.00359545
-0.0376111
0.000409224
-0.00025243
0.000840885
-4.79135e-05
-0.000320844
8.4782e-07
-0.0108354
0.00383939
-0.254155
-0.000223587
-6.80419e-05
0.0675191
0.00166246
-0.00959957
0.042577
-9.58459e-06
0.222036
-0.0120057
0.0448625
3.37559e-05
0.252453
0.270799
0.00700548
-3.77823e-05
-0.000779926
3.81164e-07
-0.000239793
0.0119977
-0.032673
1.01756
7.51483e-06
0.00012934
0.0243789
5.07319e-05
1.20054e-05
-0.00114016
0.316211
-0.00114292
2.43109e-05
1.14564
-0.039597
0.00109196
0.357671
-0.00077467
-0.00415122
2.10592e-05
0.000531272
0.00837552
-1.53345e-05
-0.000130818
0.000132122
0.00897555
3.14761e-06
-0.000360144
-0.000169707
0.00939461
-2.93207e-05
0.0222748
0.0222815
-3.81255e-05
2.85854e-06
-0.000147994
-0.000719399
1.47778e-05
-0.000629556
0.0646774
0.0921034
-0.0124716
0.10887
-0.0127635
0.120491
0.0503505
0.195013
2.44916e-05
-0.0113592
0.133782
0.0236458
-0.00019631
0.0033398
0
0.0371781
-7.70913e-05
0.00148314
0.0806435
4.2652e-06
0.0241718
0.0936134
0
-0.0119285
-7.43204e-05
-2.19072e-05
0.00204083
-2.66853e-05
-3.9692e-05
9.655e-05
0.178194
0.021844
-0.013886
0.00386221
-1.62313e-05
6.92251e-07
-0.00365955
-0.157821
-5.95071e-05
0.00146582
0.00663697
-0.0158673
-0.0193248
0.00378909
0.000102101
-0.229156
5.30503e-05
0.000133779
-0.000524994
-3.44529e-07
-0.000458795
0.00416784
0.0109745
-0.331341
-0.000176283
-0.000561288
0.0213459
0
0.167491
-0.000722527
0.0059756
0.023229
-0.0803069
-0.0286721
0.0017085
0.0740954
-1.04375e-05
-0.00815512
0.00238727
0.0881026
1.1446e-05
-0.0158522
-0.00670559
2.39382e-05
0.000599261
-0.0139663
-0.00337765
0.000239579
0.00185706
0.147692
-0.0148815
0.0439481