# vtk DataFile Version 2.0
Unstructured Grid by M++
ASCII
DATASET UNSTRUCTURED_GRID
POINTS 4072 float
  0.546875   0.656250 0
  0.546875   0.578125 0
  0.718750   0.625000 0
  0.656250   0.875000 0
  0.734375   0.609375 0
  0.671875   0.859375 0
  0.718750   0.609375 0
  0.656250   0.859375 0
  0.734375   0.593750 0
  0.671875   0.843750 0
  0.578125   0.984375 0
  0.640625   0.734375 0
  0.546875   0.593750 0
  0.593750   0.984375 0
  0.656250   0.734375 0
  0.640625   0.984375 0
  0.703125   0.734375 0
  0.546875   0.781250 0
  0.609375   0.531250 0
  0.546875   0.796875 0
  0.968750   0.531250 0
  0.609375   0.546875 0
  0.890625   0.984375 0
  0.953125   0.734375 0
  0.578125   0.593750 0
  0.515625   0.843750 0
  0.953125   0.625000 0
  0.890625   0.875000 0
  0.781250   0.578125 0
  0.718750   0.828125 0
  0.734375   0.812500 0
  0.640625   0.968750 0
  0.703125   0.718750 0
  0.671875   0.937500 0
  0.734375   0.687500 0
  0.671875   0.953125 0
  0.734375   0.703125 0
  0.656250   0.953125 0
  0.718750   0.703125 0
  0.656250   0.968750 0
  0.718750   0.718750 0
  0.578125   0.765625 0
  0.562500   0.765625 0
  0.578125   0.750000 0
  0.921875   0.953125 0
  0.984375   0.703125 0
  0.921875   0.937500 0
  0.984375   0.687500 0
  0.562500   0.953125 0
  0.578125   0.578125 0
  0.515625   0.828125 0
  0.562500   0.578125 0
  0.656250   0.937500 0
  0.718750   0.687500 0
  0.640625   0.937500 0
  0.703125   0.687500 0
  0.640625   0.953125 0
  0.703125   0.703125 0
  0.546875   0.765625 0
  0.609375   0.515625 0
  0.531250   0.765625 0
  0.593750   0.515625 0
  0.890625   0.937500 0
  0.953125   0.687500 0
  0.859375   0.750000 0
  0.796875   1.000000 0
  0.984375   0.734375 0
  0.921875   0.984375 0
  0.968750   0.734375 0
  0.906250   0.984375 0
  0.984375   0.718750 0
  0.921875   0.968750 0
  0.593750   0.546875 0
  0.531250   0.796875 0
  0.593750   0.531250 0
  0.531250   0.781250 0
  0.953125   0.515625 0
  0.578125   0.562500 0
  0.515625   0.812500 0
  0.578125   0.546875 0
  0.515625   0.796875 0
  0.593750   0.609375 0
  0.531250   0.859375 0
  0.578125   0.609375 0
  0.515625   0.859375 0
  0.859375   0.703125 0
  0.796875   0.953125 0
  0.828125   0.750000 0
  0.765625   1.000000 0
  0.828125   0.734375 0
  0.765625   0.984375 0
  0.921875   0.796875 0
  0.984375   0.546875 0
  0.562500   0.812500 0
  0.906250   0.796875 0
  0.921875   0.781250 0
  0.812500   0.765625 0
  0.750000   1.000000 0
  0.812500   0.750000 0
  0.859375   0.531250 0
  0.796875   0.781250 0
  0.796875   0.765625 0
  0.781250   0.781250 0
  0.875000   0.578125 0
  0.812500   0.828125 0
  0.937500   0.734375 0
  0.875000   0.984375 0
  0.765625   0.578125 0
  0.703125   0.828125 0
  0.781250   0.562500 0
  0.718750   0.812500 0
  0.750000   0.578125 0
  0.687500   0.828125 0
  0.765625   0.562500 0
  0.703125   0.812500 0
  0.625000   0.953125 0
  0.687500   0.703125 0
  0.609375   0.968750 0
  0.671875   0.718750 0
  0.609375   0.953125 0
  0.671875   0.703125 0
  0.625000   0.875000 0
  0.687500   0.625000 0
  0.609375   0.890625 0
  0.671875   0.640625 0
  0.625000   0.890625 0
  0.687500   0.640625 0
  0.609375   0.906250 0
  0.671875   0.656250 0
  0.937500   0.578125 0
  0.875000   0.828125 0
  0.921875   0.593750 0
  0.859375   0.843750 0
  0.921875   0.578125 0
  0.859375   0.828125 0
  0.937500   0.640625 0
  0.875000   0.890625 0
  0.562500   0.703125 0
  0.546875   0.718750 0
  0.546875   0.703125 0
  0.531250   0.718750 0
  0.906250   0.968750 0
  0.968750   0.718750 0
  0.906250   0.953125 0
  0.968750   0.703125 0
  0.906250   0.937500 0
  0.968750   0.687500 0
  0.890625   0.968750 0
  0.953125   0.718750 0
  0.890625   0.953125 0
  0.953125   0.703125 0
  0.593750   0.765625 0
  0.609375   0.750000 0
  0.593750   0.750000 0
  0.937500   0.953125 0
  0.843750   0.921875 0
  0.906250   0.671875 0
  0.828125   0.937500 0
  0.890625   0.687500 0
  0.546875   0.750000 0
  0.546875   0.734375 0
  0.531250   0.750000 0
  0.953125   0.671875 0
  0.890625   0.921875 0
  0.531250   0.671875 0
  0.515625   0.687500 0
  0.875000   0.921875 0
  0.937500   0.671875 0
  0.515625   0.937500 0
  0.859375   0.937500 0
  0.921875   0.687500 0
  0.859375   0.921875 0
  0.921875   0.671875 0
  0.843750   0.937500 0
  0.906250   0.687500 0
  0.921875   0.703125 0
  0.859375   0.953125 0
  0.937500   0.703125 0
  0.875000   0.953125 0
  0.937500   0.687500 0
  0.875000   0.937500 0
  0.828125   0.656250 0
  0.968750   0.593750 0
  0.968750   0.578125 0
  0.906250   0.812500 0
  0.953125   0.593750 0
  0.953125   0.578125 0
  0.875000   0.843750 0
  0.937500   0.593750 0
  0.953125   0.656250 0
  0.531250   0.921875 0
  0.890625   0.906250 0
  0.953125   0.640625 0
  0.890625   0.890625 0
  0.937500   0.656250 0
  0.875000   0.906250 0
  0.718750   0.593750 0
  0.656250   0.843750 0
  0.734375   0.578125 0
  0.671875   0.828125 0
  0.718750   0.578125 0
  0.656250   0.828125 0
  0.734375   0.562500 0
  0.671875   0.812500 0
  0.578125   0.890625 0
  0.640625   0.640625 0
  0.593750   0.890625 0
  0.656250   0.640625 0
  0.578125   0.906250 0
  0.640625   0.656250 0
  0.578125   0.953125 0
  0.640625   0.703125 0
  0.593750   0.953125 0
  0.656250   0.703125 0
  0.578125   0.968750 0
  1.000000   0.703125 0
  0.640625   0.718750 0
  0.593750   0.968750 0
  0.656250   0.718750 0
  0.734375   0.515625 0
  0.671875   0.765625 0
  0.968750   0.765625 0
  0.984375   0.750000 0
  0.843750   0.750000 0
  0.781250   1.000000 0
  0.859375   0.734375 0
  0.796875   0.984375 0
  0.843750   0.734375 0
  0.781250   0.984375 0
  0.859375   0.718750 0
  0.796875   0.968750 0
  0.843750   0.718750 0
  0.781250   0.968750 0
  0.828125   0.640625 0
  0.765625   0.875000 0
  0.828125   0.625000 0
  0.875000   0.546875 0
  0.812500   0.796875 0
  0.812500   0.781250 0
  0.796875   0.796875 0
  0.875000   0.609375 0
  0.812500   0.859375 0
  0.968750   0.796875 0
  0.546875   0.687500 0
  0.546875   0.671875 0
  0.531250   0.687500 0
  0.984375   0.796875 0
  1.000000   0.796875 0
  0.562500   0.796875 0
  0.578125   0.781250 0
  0.625000   0.531250 0
  0.562500   0.781250 0
  0.578125   0.640625 0
  0.515625   0.890625 0
  0.562500   0.640625 0
  0.578125   0.625000 0
  0.515625   0.875000 0
  0.875000   0.703125 0
  0.812500   0.953125 0
  0.750000   0.609375 0
  0.687500   0.859375 0
  0.765625   0.593750 0
  0.703125   0.843750 0
  0.750000   0.593750 0
  0.687500   0.843750 0
  0.625000   0.984375 0
  0.687500   0.734375 0
  0.625000   0.968750 0
  0.687500   0.718750 0
  0.609375   1.000000 0
  0.671875   0.750000 0
  0.609375   0.984375 0
  0.671875   0.734375 0
  0.625000   0.906250 0
  0.687500   0.656250 0
  0.609375   0.921875 0
  0.671875   0.671875 0
  0.625000   0.921875 0
  0.687500   0.671875 0
  0.609375   0.937500 0
  0.671875   0.687500 0
  0.625000   0.937500 0
  0.687500   0.687500 0
  0.968750   0.656250 0
  0.906250   0.906250 0
  0.984375   0.640625 0
  0.921875   0.890625 0
  0.968750   0.640625 0
  0.906250   0.890625 0
  0.984375   0.625000 0
  0.921875   0.875000 0
  0.968750   0.625000 0
  0.906250   0.875000 0
  0.953125   0.765625 0
  0.906250   1.000000 0
  0.968750   0.750000 0
  0.937500   0.765625 0
  0.953125   0.750000 0
  0.953125   0.796875 0
  0.937500   0.796875 0
  0.953125   0.781250 0
  1.000000   0.531250 0
  0.937500   0.781250 0
  0.984375   1.000000 0
  1.000000   1.000000 0
  1.000000   0.984375 0
  0.890625   0.765625 0
  0.718750   0.515625 0
  0.656250   0.765625 0
  0.890625   0.796875 0
  0.890625   0.781250 0
  0.562500   0.671875 0
  0.921875   0.656250 0
  0.578125   0.656250 0
  0.515625   0.906250 0
  0.562500   0.656250 0
  0.890625   0.750000 0
  0.828125   1.000000 0
  0.875000   0.734375 0
  0.812500   0.984375 0
  0.546875   0.968750 0
  0.625000   0.718750 0
  0.171875   0.656250 0
  0.750000   0.046875 0
  0.062500   0.609375 0
  0.046875   0.609375 0
  0.734375   0.031250 0
  0.046875   0.593750 0
  0.718750   0.125000 0
  0.703125   0.109375 0
  0.687500   0.125000 0
  0.500000   0.937500 0
  0.437500   0.765625 0
  0.359375   0.625000 0
  0.296875   0.875000 0
  0.343750   0.609375 0
  0.281250   0.859375 0
  0.250000   0.515625 0
  0.484375   0.531250 0
  0.468750   0.515625 0
  0.468750   0.656250 0
  0.453125   0.671875 0
  0.031250   0.937500 0
  0.390625   0.921875 0
  0.250000   0.968750 0
  0.765625   0.234375 0
  0.750000   0.093750 0
  0.750000   0.078125 0
  0.000000   0.515625 0
  0.500000   0.765625 0
  0.328125   0.718750 0
  0.343750   0.703125 0
  0.328125   0.687500 0
  0.312500   0.703125 0
  0.343750   0.781250 0
  0.406250   0.531250 0
  0.015625   0.531250 0
  0.062500   0.593750 0
  0.750000   0.015625 0
  0.062500   0.578125 0
  0.046875   0.578125 0
  0.734375   0.000000 0
  0.296875   0.687500 0
  0.484375   0.843750 0
  0.031250   0.593750 0
  0.718750   0.015625 0
  0.031250   0.578125 0
  0.468750   0.828125 0
  0.703125   0.000000 0
  0.750000   0.234375 0
  0.453125   0.750000 0
  0.218750   0.687500 0
  0.421875   1.000000 0
  0.000000   0.218750 0
  0.484375   0.750000 0
  0.468750   0.765625 0
  0.468750   0.875000 0
  0.046875   0.093750 0
  0.296875   0.781250 0
  0.437500   0.984375 0
  0.015625   0.203125 0
  0.500000   0.796875 0
  0.078125   0.015625 0
  0.484375   0.875000 0
  0.484375   1.000000 0
  0.062500   0.218750 0
  0.468750   0.859375 0
  0.484375   0.781250 0
  0.062500   0.000000 0
  0.484375   0.921875 0
  0.062500   0.140625 0
  0.453125   1.000000 0
  0.031250   0.218750 0
  0.312500   0.562500 0
  0.250000   0.812500 0
  0.468750   0.937500 0
  0.046875   0.156250 0
  0.343750   0.593750 0
  0.375000   0.562500 0
  0.312500   0.812500 0
  0.203125   0.671875 0
  1.000000   0.234375 0
  0.375000   0.593750 0
  0.312500   0.796875 0
  0.484375   0.890625 0
  0.062500   0.109375 0
  0.296875   0.796875 0
  0.187500   0.656250 0
  0.984375   0.218750 0
  0.359375   0.546875 0
  0.375000   0.625000 0
  0.359375   0.609375 0
[...]
POINT_DATA 4072
SCALARS scalar_value float 1
LOOKUP_TABLE default
0.57954
1.2986
0.440846
-0.00692221
0.274383
-0.00962876
0.539379
-0.00859535
0.3313
-0.0122203
0.00175892
0.23572
1.16848
-0.000282138
0.134628
0.00100107
0.0565516
0.0634405
1.44221
0.0346503
1.10254e-07
1.46171
4.64552e-07
-1.57234e-07
1.59352
-0.0222193
3.21995e-07
1.06268e-05
-0.010589
0.00696818
0.00263634
0.00197399
0.0895273
-0.00260716
0.0830703
-0.0017561
0.0605797
-0.000454448
0.113339
3.88987e-05
0.0796296
0.174056
0.215067
0.283751
3.30845e-07
2.29359e-07
4.81269e-07
2.0653e-07
0.00680888
1.63335
-0.0230666
1.35904
-0.00127165
0.157269
0.00361848
0.1975
0.00285618
0.135986
0.114984
1.40926
0.0114734
1.48362
3.97511e-06
1.9809e-07
9.18524e-05
0
2.44892e-07
1.03828e-07
1.45298e-07
4.94161e-08
2.4297e-07
2.10687e-07
1.5989
-0.026827
1.5479
-0.0139858
3.87455e-07
1.63886
-0.0221696
1.6155
-0.0183217
1.66558
-0.0216992
1.5151
-0.0203726
9.88844e-05
-0.000125426
0.000185102
0
0.000217303
-0.000127796
7.91246e-08
2.15602e-08
0.0763545
4.19512e-08
-6.62107e-07
-9.04676e-05
0
-9.59739e-05
-2.41229e-06
-0.00126741
-0.00162943
-0.00445282
-1.04253e-06
-0.000128057
-3.67075e-07
8.97082e-07
-0.0415097
0.00724759
-0.00966059
0.00990219
0.0533
-0.000484905
-0.0419281
0.00867029
0.00360476
0.155628
0.000420821
0.0954836
0.00107535
0.157135
0.0171198
0.750173
0.00735324
0.608614
0.0134632
0.589401
0.00524082
0.456834
7.51416e-07
1.6573e-05
1.24238e-06
2.94651e-05
4.51199e-07
3.31122e-05
4.19767e-07
1.52675e-05
0.605735
0.323483
0.391361
0.148288
2.07768e-07
2.32812e-07
5.18585e-07
2.94005e-07
1.02471e-06
3.27831e-07
1.23991e-06
-1.94008e-08
2.39624e-06
1.01979e-07
0.0449584
0.120639
0.147793
1.22336e-07
1.33149e-05
-1.35205e-05
-2.66334e-05
1.77995e-05
0.193453
0.25795
0.0508505
2.65059e-07
5.94221e-06
0.366886
0.273304
9.77373e-06
1.79029e-07
-0.00724429
9.56455e-06
-3.38412e-07
1.34121e-05
1.267e-07
1.24402e-05
-1.30297e-05
-7.26048e-07
5.98692e-06
-1.16877e-07
4.16149e-06
3.34916e-08
6.7173e-06
0.000315694
1.71753e-07
1.46266e-07
4.55527e-07
3.6469e-07
4.57484e-07
1.5492e-05
7.37875e-07
3.03644e-07
-0.00538929
8.11864e-06
3.19189e-07
1.00473e-05
3.08919e-07
1.29615e-05
0.650405
-0.0100074
0.393696
-0.0151831
0.772455
-0.0105292
0.454071
-0.0179385
0.0240573
0.821919
-0.0058841
0.683679
0.0185691
0.671237
0.00664229
0.387684
-0.00137862
0.261133
0.00394648
-1.10929e-07
0.306519
-0.000740278
0.192863
0.515557
-0.00588378
-8.75383e-08
2.33944e-07
0.000125818
0
9.82233e-05
-1.57863e-05
0.000135389
-7.26449e-05
0.000100635
-4.74009e-05
0.00014151
-0.000174439
0.000310025
-0.00207017
0.00029026
1.0281e-05
-8.98794e-05
-8.63002e-05
-0.000964419
9.13363e-06
-0.000239902
-2.9288e-07
0.451425
0.491854
0.277624
1.46335e-07
-1.44067e-08
0.0996988
0.118078
1.50175
0.139543
1.25478
-0.0153142
0.855206
1.39981
-0.01798
6.47204e-05
-8.66512e-05
0.028561
0.000849116
-0.04086
0.00604861
0.04027
0.000322717
0.000867404
0.0544922
0.00206703
0.096917
0
0.0152525
8.38828e-05
0.0487237
0.0103658
0.448402
0.00347951
0.332999
0.00772767
0.329429
0.00208922
0.23537
0.00548611
0.232501
3.22372e-07
2.81331e-06
1.17262e-07
1.76035e-06
2.92548e-07
4.35776e-06
9.16048e-08
3.8518e-06
2.52894e-07
7.25853e-06
-4.15844e-07
0
3.56786e-08
-4.05735e-07
-2.96938e-07
-4.03071e-07
2.01096e-07
-4.75905e-07
-1.01242e-07
-2.44584e-07
0
0
1.6641e-09
2.97343e-05
1.03038
0.0418757
2.29684e-05
2.75245e-05
0.668082
6.25374e-07
1.09006
-0.0125506
0.736815
2.99316e-05
0
6.67536e-05
-1.02435e-05
0.00264248
0.365952
0.000537018
-0.0077558
-4.15761e-06
-1.08985e-06
-0.00189968
-1.34165e-06
0.0392662
0.0321392
-0.00168618
-0.00465547
0.219799
0.9003
-0.00384548
0.849239
0.00298537
0.053463
1.67582
1.6523
0.540435
0.435703
1.93154e-08
0.00353403
0.000513448
0.000267987
-0.0109904
-0.00988995
3.49324e-07
0.0438588
0.079752
0.203416
0.2093
0.103581
0.0434823
1.83735
-6.70737e-07
-3.68846e-06
-0.00562248
-2.96458e-06
-1.62351e-06
-0.00248857
0.146149
-0.00841807
1.62806e-06
0.00937341
1.61216e-06
0.00309575
0.00867505
-0.0345573
0.134952
-0.024633
0
1.28596e-07
0.0498333
0.0413628
-0.000171338
2.44222e-08
-0.0113789
0.000172256
-1.12288e-07
0.0105063
-4.3464e-09
-0.0054263
0
-1.48266e-06
-0.000785051
0.00953181
6.90037e-09
-0.000984346
-6.91976e-07
0
2.45754e-07
0.641802
0.00855732
0.00141892
-3.13743e-07
0.964827
1.4722
-0.0127921
-0.0230463
2.73571e-08
1.27156
-0.0133868
-0.00366981
-2.87072e-07
-0.0126835
-0.00980816
-1.99928e-08
1.52355
1.0147
1.03219
1.29535
-0.0102459
0.000314922
-3.42799e-07
-0.0120276
0.00124152
-1.60624e-07
-0.00307166
1.22758
-4.47186e-07
1.51955
-0.00597206
-0.000105996
2.46841e-08
0.0107026
0.825921
0.0183247
-5.55814e-08
-2.25538e-08
-0.0060438
-0.0121169
1.51252
0.018579
5.35118e-05
1.79603e-07
1.42339
0.0234903
0.00248387
-7.27674e-08
1.28826e-06
0.0169478
1.09786e-07
-0.00677353
-1.37993e-08
0.0230092
0.165447
-0.00605143
-0.00746415
0.00418135
1.22267e-07
0.168185
0.00189535
0.0129528
1.35763
0.000120924
-0.00159038
2.17318e-08
-0.00688677
-0.0140608
-1.74188e-08
1.56221
0.0310229
0.142289
0.00140096
0.0221501
0.000337656
-4.93698e-07
1.53192e-06
-1.91592e-06
-0.00777814
0.0483292
0.0650395
0.0268777
1.20798e-05
-3.93572e-06
0.0280592
0.000139479
1.63724e-07
-1.13875e-07
0.00174985
2.18062e-07
-1.50925e-05
1.46838e-06
-0.00013275
-6.64432e-07
-0.000133453
0.0877294
6.9226e-08
0.215406
0.00270616
0
0.000538207
0.593804
-0.000348036
0
0.00253866
-7.81666e-08
0.00155414
9.77457e-10
2.96967e-09
0.00171876
0
0
0.000719107
-4.01094e-07
0.000269642
-9.62063e-07
0.0181787
-0.00036866
1.6633e-07
0.00157643
0.393278
-6.04477e-05
5.89695e-09
0.122343
0.0202765
0.0676751
8.47442e-09
0.284424
-2.53789e-07
0.0506076
-0.000645181
1.94271e-08
0.669135
0.0466254
-0.0210428
-0.00331456
1.79054e-05
-6.10023e-08
-0.0136262
0.00392495
0.00326092
0.584991
0.00361647
-2.83496e-06
1.96291e-08
-9.80815e-09
0.000383119
0.000267386
1.31473
0.079502
0
0.632379
1.23815
0.0261884
1.5666
2.09817
0.0202872
2.07804
0.207791
0.201637
0.565351
0.002115
1.49876
1.51951
1.59343
-2.84994e-07
0.103482
1.40198
1.53242
2.30081e-07
-0.00150516
0.164774
0.637019
-0.0409758
0.101836
1.28328
7.95648e-08
0.134819
1.11925
6.52485e-08
1.65241e-06
-2.18828e-06
0.350818
-2.91692e-08
0.72941
0.871132
1.33857e-05
-8.78887e-07
-0.000938153
1.22901e-05
-4.5089e-06
-0.00883748
0.725024
1.21628
1.38525
0.0531583
2.82635e-08
0.019788
0.0468168
-6.19452e-07
0.151951
7.37798e-08
0.194014
0.0993873
1.48685e-07
0.00175307
6.78334e-07
-5.12303e-05
0.0873364
0.420713
0.491554
-0.00762455
0.405074
0.428263
3.27228e-07
7.1057e-05
0.297512
0.00924827
0.395356
0.0016008
0.567068
2.13595e-08
0.00381042
-4.41074e-08
0.00556335
0.00239461
-0.00386764
1.45874
9.52755e-08
0.00067836
0.00385527
0.602145
0.435834
0.144369
1.26541
0.359952
-0.0114416
0.95947
-0.000652492
0.501673
1.05812
0.000541849
9.63085e-08
-0.00468308
1.54435
0.000859512
-0.00228048
0.00633788
1.70452e-08
0.000323683
1.28233e-07
-0.00018069
2.80844e-08
0.00101023
0.30545
0.529671
0.0855299
-2.03528e-06
-0.0001383
0.00337091
0.0160918
0.00215708
-9.14176e-08
-0.00510421
1.10959
0.0351595
1.34805
0.0264745
3.9515e-08
1.0678
0.317877
-2.78122e-08
0.26974
0.000251419
0.000144523
0.0193868
0.101433
5.32753e-08
0.308429
0
0.0445512
0.744095
0.495705
0.248412
0.136742
5.76361e-08
4.20655e-06
3.298e-05
0.461222
-1.73042e-07
-0.000576182
0.630883
1.1455e-07
0.00368035
4.92395e-08
0.00279482
-0.0428063
0.0257266
0.00045789
-0.0107365
0
1.20633
-0.000871186
-0.00107858
-0.00317435
0.0145761
1.60051
-0.000569439
0.00168584
-0.000159536
0.101136
-6.99213e-06
-0.00321314
1.47177
0.000421274
0.143012
-0.0106289
-0.000169082
-0.00226461
-0.000403479
4.26811e-09
-0.00515629
-0.00970551
-0.000246147
1.1444
1.10569
-5.44651e-06
2.87548e-07
0.013604
3.88802e-07
0.482145
1.52214e-06
-0.0264665
0.0157823
0.0156312
-0.00183459
-0.000685456
-0.0012568
0.000101415
4.38425e-08
0.0124703
-3.36056e-07
-1.12081e-07
-0.00616737
-3.88e-06
4.39053e-07
-0.00719162
0.00994228
-0.00276863
-0.00750478
0.00149869
0.00787859
0.0671116
9.81997e-06
1.20202
0.0935701
0.88512
0
0.0726717
0.909664
0.778178
0.0486847
1.61627e-05
0.0121178
-6.03617e-08
0.990878
-2.90468e-06
-4.13841e-05
1.52499e-07
0.000981283
-2.64196e-06
-2.25747e-05
0.0014718
-7.05235e-08
0.00459671
7.95742e-08
0.00497729
1.28124
-2.18856e-06
-4.70759e-06
3.89334e-07
0.0200698
5.10264e-07
0.336539
9.82136e-07
-0.0310658
5.00617e-07
1.22636e-06
-0.0301263
4.30355e-07
-2.21873e-07
5.03764e-07
1.92524e-08
-0.00248391
-1.82156e-07
5.91893e-05
8.74705e-09
1.59085
1.56591
1.12879e-07
0.000876041
-1.2557e-06
-0.00220036
-0.000199945
0.00185069
0.178932
0.00212923
0.00193357
-2.89065e-08
0.20671
0.00114892
-0.043575
1.3725
0.310348
0.000928369
-5.58468e-06
0.0133991
0.00265604
1.38189
0.193173
-0.0137017
-3.2153e-05
1.28326
-0.016871
0.0095536
0.909525
0.699491
-0.0156036
-0.000315974
0.786766
0.000881873
-0.0143023
-0.000357768
0.00349562
-0.00468147
0.740728
-0.00424897
0.00089343
-0.00601158
-0.00713109
0.00390248
-0.00311402
3.04795e-07
6.11085e-05
-0.00346112
0.00137346
-0.00816312
0.288205
-0.0085125
-0.000192265
0.00285744
-0.00173433
6.94985e-08
0.0109832
0.0230408
2.66931e-05
0.526788
0.176998
0.318904
1.36173
1.27873
2.77333e-07
-5.28081e-07
1.27686
0.00781005
1.16419
0.0129733
-5.00981e-05
0.00545922
1.1652
0.400702
-0.0176224
-0.000239251
1.03777
-0.0168803
-0.000275445
0.0154894
0.673918
1.04664
-0.0131304
-0.00039795
0.573952
0.00194224
0.000936434
1.76212e-08
-0.0120911
1.76799e-05
-5.94639e-06
0.0339699
1.36974e-05
-5.07071e-06
0.0416238
9.59943e-08
0.000100049
9.57926e-07
-0.000295774
-6.57998e-06
1.86611e-08
-0.0303113
4.06379e-07
0.0102868
-0.00183361
-0.00277492
-0.000659852
0.00130661
2.96575e-08
-0.00118863
1.08843
-0.0021807
-0.00075569
-0.0010563
-0.00355535
-0.00640311
4.64711e-07
3.97246e-05
-2.84857e-07
-4.5449e-05
-0.00514847
0.928607
0.197016
-1.37576e-06
4.18303e-08
-0.00024174
1.51281
0.0203751
0.000778652
1.38317
0.00394019
0.00461206
-0.00167009
1.38592
-0.00123583
-0.00123798
-0.000236983
1.18389e-05
-0.000618567
0.0361301
3.94669e-05
0.000259669
0
0.000321065
1.62112
0.0252706
-0.0363561
0
-1.33937e-07
1.37313
0.073316
0.116819
1.59195
-0.0300696
1.0677e-06
-7.29805e-06
0.00524102
-3.01717e-07
-5.41213e-08
0.00319937
-6.36005e-08
-0.00330514
2.46631e-07
1.2719e-09
-0.00826626
-2.66411e-07
0.0106986
3.02058e-08
0.132528
0.0132108
-0.000169535
7.98239e-09
-0.0437409
0.000500292
1.01322e-05
0.0946278
0.0106191
1.74501e-05
3.66129e-08
0.00278039
1.41991
-0.00481107
-0.00142045
-0.00548873
0.0106506
5.38295e-05
0.249178
1.76468e-05
-5.21718e-06
0.0460523
-0.00181583
0
-1.43602e-05
-0.0442317
-5.69303e-06
0.00112159
1.64213e-05
-0.0211118
-3.98482e-06
1.72892e-05
0.0564059
-1.25527e-05
0.0377026
-4.99971e-08
0.0271609
0.683524
-0.00181196
0.0307696
0.0365187
3.36025e-08
0.704258
1.23436
0.0115833
-1.11612e-05
0.266357
0.210723
0.220038
0
1.21944e-06
0.00145783
0.00431394
0.17538
0.00164637
-0.000220741
0.00643627
8.79548e-05
0.00330931
0.859239
0.17581
0
0.179314
0.144822
1.18913e-06
-6.0644e-07
-2.37874e-07
3.71152e-07
7.77061e-07
4.20378e-07
-0.0226115
4.42621e-07
0.000125635
-3.01573e-06
-2.39018e-07
3.28674e-07
0.226848
6.05224e-07
2.42351e-07
2.42033e-08
0.0192133
0.00762153
0.00897497
-1.9088e-05
-2.4906e-06
0.0166002
1.50022
0.013484
0.00513119
1.52329
0.00181388
1.08878e-05
1.9073e-07
0.0010329
0.0136829
-0.00420554
0.211804
0.263587
-2.55213e-06
0.75231
0.386135
0.264367
0.32023
-4.43532e-05
-4.86868e-08
0.00226361
0.0529527
0.000168011
0.000205937
1.5488
-0.0227562
0.0652856
-0.0324985
-0.0144576
1.64383e-05
-4.33264e-05
0.0561488
0.336858
0.0935146
-6.10885e-06
-0.00933002
-0.0008755
-2.27056e-05
0.0518275
-0.0446816
0.127294
0.041925
-1.78652e-05
6.56974e-05
0
0.820632
0.267383
0.246391
-2.6887e-05
4.0556e-07
0.00507393
8.78212e-05
1.20188
0.114078
0.948634
3.48828e-07
-5.93501e-07
-0.00215486
-0.0617168
-6.81859e-06
-0.0116326
-5.01641e-05
0.102479
-0.0010455
0.000648332
0.0113959
-4.29288e-05
4.22025e-05
0.708208
0.158801
0.00216813
7.68697e-05
0.450406
0.349727
-3.43862e-08
0.000646573
0.0346286
-6.65819e-06
0.0694044
0.000748517
1.83843e-05
0.0711217
-0.00173689
-0.0239623
0.148548
-0.000291504
0.00672424
0.00709911
6.32774e-05
-3.71217e-05
0.231094
0.0570837
0.00151184
1.07556
7.45309e-05
-0.00387383
-4.68043e-05
5.42686e-05
0.0215091
-0.00687655
-2.27208e-05
0.152205
1.21979
0.320091
0.0373228
0.00234805
0.97473
0.000539543
0.000651003
0.61228
0.000750972
0.0040122
0.000738412
-1.64436e-05
0.00797429
4.75168e-05
0.858876
0.0226468
-0.000286984
8.84951e-06
-1.81108e-05
-1.62874e-07
3.75326e-06
4.42376e-06
1.71157e-07
5.67736e-08
0.00142755
-1.9925e-05
1.28536e-05
1.00307e-07
0.00193422
1.48749
1.29272
-9.80021e-08
-6.47616e-08
0.00768872
0.00731649
0.0188725
1.62073e-06
0.600897
-5.59611e-07
0
0.132012
0.215131
0
-0.000145549
0.0410404
-0.0505675
1.52219
0.404923
0.00151748
-0.000707279
-0.00051128
-0.000435394
0.0197279
-0.00157201
0.0486733
-3.91939e-06
1.43934
1.68584
0.0227914
0.320394
1.2128
-0.00170192
-0.000515759
0.00522687
0.737265
0.574107
0.0123588
1.15269
0.082505
0.128892
0.757527
0.0581383
-0.00202334
-0.0247783
0.159848
0
0.841003
2.11074
0.0305592
-0.0038489
0.0118182
-0.0058009
-0.00367787
0.0154637
-0.0399168
0.0199303
-0.00614237
-0.0440073
-0.0482401
0.0254892
-0.00451004
-1.25506e-07
1.2756
3.13868e-07
0.0107861
9.46887e-08
3.62678e-07
-8.71864e-08
0.0012611
0.0282878
0.611485
9.38342e-08
0.00685142
0.034284
2.18661e-05
0.699317
-1.39099e-08
1.62654
0.327443
0.242806
1.70662
0.000519926
0.000124132
0.648595
3.26938e-05
1.92164e-08
0.297686
0.125038
-0.000654355
-0.00455369
0.00858876
8.32657e-07
0.342486
0.0122336
0.0136968
0.444933
0.0168244
1.35328e-06
0.519177
0.462165
0.0172477
-1.41374e-07
0.548761
0.0142005
5.33323e-08
0.022019
0.645776
0.0273566
6.67597e-08
0.239311
0.00289709
-0.000311233
0.308148
-0.00137221
0.00190147
-5.83298e-05
0.499767
-0.0125454
0.00121581
-0.00146069
-0.0199327
0.00254856
-0.00798837
0.516481
-0.00616662
0.000280709
-0.00729914
-5.57835e-06
-0.00887071
-0.00267779
-0.0132941
0.76855
-0.00935285
0.00231408
5.91902e-09
-0.00622465
0
-7.84597e-09
0.0137143
2.23871e-06
0.00976466
-6.2908e-06
0.293634
0.0157309
0.0067015
-0.000168015
-0.000799231
0.0596984
1.16443
2.97504e-06
8.29497e-07
1.05005e-05
0.00750865
-3.93665e-06
-0.000497397
1.80146e-07
0.755646
-1.89234e-05
-2.38249e-05
0.0138796
1.17386e-05
0.00593396
-1.81837e-06
5.86631e-07
-1.00168e-07
3.4779e-05
-5.38532e-06
0.010677
0.958655
-3.9928e-07
0.00261469
-2.68675e-07
-0.00775595
-0.00017177
1.77562e-06
5.43605e-06
0.00528528
0.00276615
-0.0107933
0.00171974
-0.0168105
1.16458
-0.00625438
0.00493004
-0.00795387
-0.00280578
1.38333
0.0302095
-0.00155634
-0.00392196
-0.00146953
0.0605593
-0.0059571
0.0206274
0.174825
-9.65411e-05
-9.94699e-05
-5.80692e-07
-3.87613e-07
-0.0010272
0.493778
8.206e-08
0.0105808
-6.45798e-06
0.0135458
0.000515525
-0.0263053
1.84158e-05
-1.02862e-05
0.0461673
0.0379345
0.20376
0.827915
0.0704497
-0.000689958
-9.97028e-06
-0.0044968
1.01406
1.54822e-08
0.242211
-0.0221794
0.0472238
-0.00234923
-0.0135348
0
-4.10974e-06
0.104358
-1.62167e-05
0
-5.82686e-06
3.77493e-06
0.000765879
-0.000109873
0.0103377
1.49863
0.00290235
0.00661424
0.00567809
4.49532e-05
1.50057
0.0375609
6.22822e-05
5.44544e-07
-0.0201284
1.29653e-05
0.00426207
1.46665
0.134646
0.0229582
0.000516844
3.78117e-05
0.0920535
-6.56226e-05
0.000624351
2.72609e-06
-0.0400389
-1.13308e-06
-0.00279099
0.0810666
-0.000286152
-0.00726083
0.0435042
-0.00177845
1.43655e-06
3.32488e-07
2.48873e-05
-3.32012e-06
0.00119519
-3.24399e-05
0.00153453
0.00160115
1.4532
0.126535
-0.00734086
0.000882835
6.10642e-08
0.00231087
-0.000103179
0.000405095
-0.000122116
0.037863
1.37844
-0.000122845
0.0652637
0.000265079
-0.000676092
1.41406
2.93178e-07
8.94828e-05
-4.88127e-08
-0.00717872
0.327422
-4.27492e-07
-3.51933e-07
-8.62604e-05
1.31278e-06
-1.01357e-06
1.18084e-05
-0.0081502
-0.00963814
-5.63204e-05
-7.61146e-07
-0.000148498
-0.00454848
-2.36987e-05
4.5941e-05
-1.79303e-07
0.0238096
1.25344e-08
0.155157
0.00113702
2.96784e-05
-2.35151e-06
5.80894e-06
-7.68523e-05
9.30061e-06
-0.00126023
5.99526e-06
1.60675e-07
0
0.0288064
0.426592
-0.0147115
0.000783273
-0.0223174
-0.0155812
0.0381125
-0.00288355
1.46402e-05
0.0536075
0.0021463
0.000187814
1.14676
0.00678856
0.00150654
-0.00755035
-0.00572244
8.25849e-06
0.0128572
0.000543585
-0.0225834
0.302029
-6.62179e-06
-0.0133594
-0.000642055
-4.01378e-05
0.0819803
-0.0136913
0.191403
0.115001
0.000875133
0.0056157
0.617465
0.0078034
3.98731e-05
-3.41388e-05
-2.08374e-08
0.178169
0.285923
-1.25783e-05
0.00350867
1.33692
9.31584e-07
-1.19805e-06
-9.77029e-08
-0.000613383
1.7428e-07
-1.49121e-08
-0.0166484
2.55682e-05
1.25564e-06
1.90436e-06
6.73054e-07
7.54187e-08
3.22523e-05
-2.46924e-06
-6.58959e-06
1.04173
0.00470482
0.249868
0.511288
-3.78094e-06
-0.00748847
0.00699368
1.39075
0.000418221
0.0188809
-0.00262506
0.00644942
-5.66665e-07
1.04388e-06
-6.52329e-07
0.0363986
-0.00204963
-0.00591889
0.0061974
-0.0306797
-0.00384085
4.86038e-05
-1.91135e-06
0.0570476
0.0176728
0
1.51654
0.0109801
0.505189
0.89378
0.00152844
-5.04928e-05
3.83081e-05
0.062144
4.15075e-08
0.029129
1.91176e-08
0.0630758
0.00795773
3.13758e-05
2.72481e-05
-2.3084e-06
1.16621e-05
-0.000533148
1.64607
-5.26373e-05
0
0.396911
0.000346076
0.0131765
0.000467859
3.5746e-06
-0.00290301
-2.48621e-05
1.0069e-06
-0.00265512
0.0192777
-0.00616392
0.756345
3.73022e-06
-5.48099e-07
0.0158413
-0.0512085
1.52309
0.0324079
-0.00301234
-0.00147286
0.00102919
-9.49735e-05
0.00646826
9.66107e-07
1.14646e-07
3.90199e-05
1.37281e-05
-7.48803e-08
-0.0351203
-0.0105263
0.00840032
0.000954814
-2.18518e-06
0.007757
-2.79532e-05
1.15751
1.08777
0.000135677
0.0537082
-0.0201076
0.0864456
-0.00149586
-0.0411082
-0.000217755
1.57364
7.04523e-05
0.173247
-2.51706e-08
-0.0112843
0.0021019
-0.0361267
0.0118916
-0.0100972
0.00498119
0.00766651
-0.005425
2.79353e-06
-2.35576e-06
0.0151847
-0.00330814
-0.00160061
0.00906187
-0.0325655
-0.0379452
0.0119115
-0.00875843
-0.00517003
7.96148e-09
-0.013459
7.38283e-06
-0.00846268
-1.01864e-06
-0.000855629
5.65041e-07
2.66166e-06
7.56299e-07
-1.41271e-07
2.49004e-06
-0.0167984
0.783082
0.007135
0.00233404
4.11374e-06
-4.53624e-07
2.08643e-07
0.00230836
1.45374e-07
0.862191
0.0544676
0.044748
0.417833
0.056545
0.0742037
-0.00012148
-0.0398175
-0.000483713
0.0448527
0.0330905
-5.12644e-05
1.13513e-06
1.22785e-05
0
0.0842479
0.00148972
-2.4417e-07
0.545342
-5.31637e-05
0.0602365
0.485982
0
-0.000118402
-6.30566e-07
0.000951087
-9.99913e-08
2.52711e-07
1.37435e-05
-2.16088e-07
-0.0315332
0.00379644
0.173717
-5.43799e-07
-0.00218541
9.30247e-07
-0.00700745
0.0515577
-0.00141932
4.83769e-06
-1.87966e-06
0.40234
0.168178
3.71458e-06
1.90685e-05
0.00135146
7.02495e-08
0.00723927
1.58633e-07
0.000106213
-0.00466307
0.000732819
1.57917
-0.00366203
0.0107779
0.0216087
0.00263606
0
0.228156
0.00256227
0.00123917
0.689401
-0.0537167
-6.41008e-06
-3.12258e-05
0.785857
0.000517158
0.0404378
0.369322
0.231192
-0.000327725
0.15566
-8.74598e-06
-0.00443274
-0.000125457
0.446369
-8.33572e-06
0.0563299
1.86734e-05
0.00334482
0.0798615
0.839893
0.878958
1.13274
0.00151279
-0.00650466
0.270727
0.0885008
0.774555
0.199283
0.433793
0.0738617
-0.000685026
-4.33329e-05
2.16091e-05
0.0160281
2.50969e-06
5.13805e-08
0.00285816
-3.71485e-05
0.00427381
0.00177584
1.6647
0.00864667
8.71646e-05
0.361515
0.165989
0.000551436
0.0326133
-4.22928e-05
8.05291e-06
0.00772453
6.89654e-05
0.116569
0.197179
1.20146
0.0251994
-0.000962438
0.0992361
4.65107e-06
0.0625217
-3.73521e-05
-2.28152e-06
3.48597e-06
-0.00943756
-0.0173855
3.21629e-08
0.00645385
0.000100431
0.842036
0.300374
1.6171
-0.00567395
0.000918074
9.90435e-05
0.385075
0.825121
0.0921046
-4.21182e-05
-0.000725734
0.67048
0.0243452
-0.00494639
-0.00325976
0.0386032
6.93181e-07
0.811473
0.457278
0.00104656
-8.99141e-07
0.000251948
3.81913e-07
-0.000187297
-7.96885e-07
0.205517
0.107394
0.32174
0.00794949
0.0137865
0.0109406
0.0905617
0.00014099
-0.000102736
0.000960076
-6.63041e-05
0.00488191