# vtk DataFile Version 2.0
Unstructured Grid by M++
ASCII
DATASET UNSTRUCTURED_GRID
POINTS 289 float
  1.000000   0.687500 0
  1.000000   0.625000 0
  1.000000   0.562500 0
  0.812500   0.750000 0
  0.937500   0.812500 0
  0.750000   1.000000 0
  0.937500   0.687500 0
  0.937500   0.625000 0
  0.937500   0.562500 0
  0.750000   0.687500 0
  0.687500   0.625000 0
  0.875000   0.750000 0
  0.687500   0.937500 0
  0.875000   0.687500 0
  0.875000   0.625000 0
  0.875000   0.562500 0
  0.812500   1.000000 0
  0.812500   0.687500 0
  0.625000   0.875000 0
  0.812500   0.625000 0
  0.812500   0.562500 0
  0.750000   0.937500 0
  0.750000   0.875000 0
  0.750000   0.812500 0
  0.750000   0.750000 0
  0.750000   0.625000 0
  0.562500   0.812500 0
  0.750000   0.562500 0
  0.562500   0.937500 0
  0.562500   0.875000 0
  0.812500   0.937500 0
  0.812500   0.812500 0
  0.812500   0.875000 0
  0.562500   1.000000 0
  0.875000   1.000000 0
  0.562500   0.750000 0
  0.875000   0.937500 0
  0.562500   0.687500 0
  0.875000   0.812500 0
  0.562500   0.562500 0
  0.875000   0.875000 0
  0.562500   0.625000 0
  0.625000   0.937500 0
  0.625000   1.000000 0
  0.687500   0.562500 0
  0.937500   0.750000 0
  0.687500   0.687500 0
  0.687500   0.750000 0
  0.687500   0.812500 0
  0.687500   0.875000 0
  0.625000   0.562500 0
  0.937500   0.875000 0
  0.625000   0.625000 0
  0.625000   0.750000 0
  0.625000   0.812500 0
  0.937500   0.937500 0
  0.625000   0.687500 0
  0.687500   1.000000 0
  1.000000   0.750000 0
  1.000000   0.812500 0
  1.000000   0.937500 0
  1.000000   1.000000 0
  0.812500   0.437500 0
  0.937500   0.500000 0
  0.750000   0.375000 0
  0.687500   0.312500 0
  0.812500   0.000000 0
  0.812500   0.187500 0
  0.812500   0.125000 0
  0.812500   0.062500 0
  0.625000   0.250000 0
  0.750000   0.000000 0
  0.750000   0.500000 0
  0.750000   0.437500 0
  0.750000   0.312500 0
  0.562500   0.500000 0
  0.750000   0.250000 0
  0.750000   0.187500 0
  0.750000   0.125000 0
  0.750000   0.062500 0
  0.812500   0.250000 0
  0.562500   0.437500 0
  0.562500   0.375000 0
  0.562500   0.312500 0
  0.812500   0.312500 0
  0.812500   0.375000 0
  0.875000   0.500000 0
  0.562500   0.250000 0
  0.812500   0.500000 0
  0.875000   0.375000 0
  0.562500   0.125000 0
  0.875000   0.437500 0
  0.562500   0.187500 0
  0.562500   0.000000 0
  0.875000   0.312500 0
  0.625000   0.312500 0
  0.625000   0.375000 0
  0.625000   0.437500 0
  0.625000   0.500000 0
  0.937500   0.312500 0
  0.625000   0.062500 0
  0.937500   0.375000 0
  0.625000   0.125000 0
  0.937500   0.437500 0
  0.625000   0.187500 0
  0.625000   0.000000 0
  0.687500   0.375000 0
  0.000000   0.437500 0
  0.500000   0.187500 0
  0.312500   0.187500 0
  0.375000   0.125000 0
  0.250000   1.000000 0
  0.125000   0.437500 0
  0.312500   0.250000 0
  0.062500   0.062500 0
  0.437500   0.187500 0
  0.375000   0.187500 0
  0.562500   0.062500 0
  0.437500   0.937500 0
  0.312500   0.062500 0
  0.187500   0.937500 0
  0.062500   0.500000 0
  0.125000   0.500000 0
  0.187500   0.062500 0
  0.937500   0.187500 0
  0.062500   0.937500 0
  0.500000   0.312500 0
  0.250000   0.125000 0
  1.000000   0.250000 0
  0.125000   1.000000 0
  1.000000   0.437500 0
  0.312500   0.000000 0
  0.187500   0.875000 0
  0.250000   0.062500 0
  1.000000   0.187500 0
  0.125000   0.937500 0
  1.000000   0.375000 0
  0.250000   0.000000 0
  1.000000   0.125000 0
  0.125000   0.875000 0
  1.000000   0.312500 0
  0.062500   0.312500 0
  0.500000   0.062500 0
  0.000000   0.312500 0
  0.187500   0.125000 0
  0.250000   0.375000 0
  0.500000   0.125000 0
  0.312500   0.312500 0
  0.000000   0.375000 0
  0.062500   0.375000 0
  0.250000   0.187500 0
  1.000000   0.500000 0
  0.375000   0.375000 0
  0.062500   0.125000 0
  0.312500   0.375000 0
  0.000000   0.125000 0
  0.187500   0.187500 0
  0.375000   0.000000 0
  0.437500   0.500000 0
  0.125000   0.250000 0
  0.187500   0.250000 0
  0.187500   0.312500 0
  0.250000   0.312500 0
  0.187500   0.375000 0
  0.437500   0.000000 0
  0.312500   0.875000 0
  0.437500   0.312500 0
  0.125000   0.062500 0
  0.187500   0.437500 0
  0.000000   0.625000 0
  0.375000   0.062500 0
  0.250000   0.937500 0
  0.375000   0.312500 0
  0.187500   0.500000 0
  0.437500   0.062500 0
  0.250000   0.250000 0
  0.000000   0.250000 0
  0.000000   0.062500 0
  0.500000   0.437500 0
  0.312500   0.625000 0
  0.937500   1.000000 0
  0.000000   0.000000 0
  0.062500   0.437500 0
  0.312500   0.437500 0
  0.000000   0.187500 0
  0.500000   0.250000 0
  0.187500   0.000000 0
  0.937500   0.125000 0
  0.062500   0.875000 0
  0.500000   0.375000 0
  0.250000   0.500000 0
  0.062500   0.687500 0
  0.375000   0.250000 0
  0.062500   0.000000 0
  0.125000   0.375000 0
  0.125000   0.125000 0
  0.875000   0.250000 0
  0.000000   1.000000 0
  0.437500   0.437500 0
  0.125000   0.187500 0
  0.125000   0.312500 0
  0.312500   0.125000 0
  0.187500   1.000000 0
  0.437500   0.125000 0
  0.312500   1.000000 0
  0.125000   0.000000 0
  0.875000   0.125000 0
  0.000000   0.875000 0
  0.437500   0.250000 0
  0.437500   0.375000 0
  0.250000   0.562500 0
  0.000000   0.500000 0
  0.062500   0.187500 0
  0.375000   0.500000 0
  0.062500   0.250000 0
  0.500000   0.000000 0
  0.375000   0.875000 0
  0.500000   0.500000 0
  0.375000   0.437500 0
  0.312500   0.500000 0
  0.250000   0.437500 0
  0.500000   1.000000 0
  0.500000   0.937500 0
  0.500000   0.750000 0
  0.187500   0.687500 0
  0.187500   0.625000 0
  0.500000   0.875000 0
  0.187500   0.562500 0
  0.500000   0.812500 0
  0.437500   0.750000 0
  0.125000   0.687500 0
  0.125000   0.625000 0
  0.437500   0.875000 0
  0.125000   0.562500 0
  0.437500   0.812500 0
  1.000000   0.062500 0
  0.125000   0.812500 0
  0.437500   1.000000 0
  0.375000   0.750000 0
  0.062500   0.625000 0
  0.062500   0.562500 0
  0.375000   0.812500 0
  1.000000   0.875000 0
  0.375000   0.937500 0
  0.000000   0.562500 0
  0.312500   0.812500 0
  0.312500   0.750000 0
  0.937500   0.000000 0
  0.062500   0.750000 0
  0.375000   1.000000 0
  0.937500   0.062500 0
  0.062500   0.812500 0
  0.187500   0.750000 0
  0.875000   0.187500 0
  0.000000   0.937500 0
  0.000000   0.687500 0
  0.312500   0.937500 0
  0.875000   0.000000 0
  0.000000   0.750000 0
  0.875000   0.062500 0
  0.000000   0.812500 0
  0.250000   0.625000 0
  0.250000   0.687500 0
  0.250000   0.750000 0
  0.937500   0.250000 0
  0.062500   1.000000 0
  0.250000   0.812500 0
  0.250000   0.875000 0
  1.000000   0.000000 0
  0.125000   0.750000 0
  0.312500   0.562500 0
  0.312500   0.687500 0
  0.375000   0.562500 0
  0.187500   0.812500 0
  0.375000   0.625000 0
  0.375000   0.687500 0
  0.437500   0.562500 0
  0.437500   0.625000 0
  0.437500   0.687500 0
  0.500000   0.562500 0
  0.500000   0.625000 0
  0.500000   0.687500 0
  0.687500   0.125000 0
  0.687500   0.000000 0
  0.687500   0.250000 0
  0.687500   0.187500 0
  0.687500   0.062500 0
  0.687500   0.500000 0
  0.687500   0.437500 0
CELLS 478 1912
3 110 203 116
3 153 114 167
3 108 185 208
3 160 156 150
3 162 113 147
3 154 147 172
3 176 214 143
3 119 157 170
3 198 178 158
3 170 174 110
3 194 163 112
3 193 205 114
3 146 108 115
3 195 123 144
3 156 144 127
3 113 192 147
3 156 199 144
3 184 212 176
3 209 189 198
3 157 164 170
3 200 161 194
3 145 220 168
3 218 209 198
3 220 183 190
3 177 193 114
3 144 123 133
3 150 201 109
3 167 123 195
3 215 117 142
3 150 109 175
3 214 159 141
3 172 166 152
3 201 170 110
3 149 200 194
3 189 178 198
3 127 201 150
3 218 213 219
3 147 192 172
3 148 149 107
3 116 203 115
3 192 208 172
3 170 164 174
3 163 145 168
3 205 186 167
3 183 219 190
3 176 212 214
3 185 126 166
3 159 156 160
3 107 182 211
3 155 114 153
3 174 203 110
3 154 152 183
3 145 147 154
3 149 141 200
3 152 218 183
3 116 115 192
3 214 212 199
3 137 131 133
3 112 122 121
3 144 133 127
3 116 192 113
3 143 141 148
3 153 167 195
3 178 217 158
3 161 163 194
3 183 218 219
3 167 186 123
3 133 119 127
3 220 154 183
3 154 172 152
3 156 127 150
3 161 162 163
3 164 215 174
3 107 149 182
3 200 160 161
3 126 189 209
3 182 121 211
3 168 220 173
3 203 146 115
3 114 205 167
3 112 163 168
3 110 116 109
3 194 112 182
3 166 209 152
3 182 112 121
3 214 199 159
3 133 131 119
3 201 110 109
3 152 209 218
3 143 214 141
3 186 137 123
3 175 113 162
3 115 208 192
3 160 150 175
3 215 142 174
3 199 195 144
3 159 160 200
3 115 108 208
3 184 153 212
3 181 193 177
3 131 157 119
3 127 119 201
3 162 145 163
3 148 141 149
3 201 119 170
3 162 147 145
3 159 199 156
3 123 137 133
3 208 185 166
3 177 114 155
3 141 159 200
3 145 154 220
3 109 113 175
3 166 126 209
3 149 194 182
3 172 208 166
3 155 153 184
3 109 116 113
3 220 190 173
3 118 222 221
3 278 281 223
3 277 280 281
3 158 217 279
3 118 221 237
3 118 232 222
3 232 234 226
3 229 278 223
3 232 226 222
3 278 277 281
3 234 228 226
3 277 276 280
3 229 223 228
3 276 158 279
3 243 118 237
3 216 232 118
3 229 275 278
3 274 277 278
3 277 272 276
3 216 118 243
3 216 241 232
3 238 275 229
3 275 274 278
3 232 241 234
3 274 272 277
3 272 213 276
3 165 216 243
3 245 241 216
3 238 271 275
3 275 179 274
3 270 272 274
3 243 237 249
3 219 213 272
3 256 165 243
3 245 216 165
3 245 246 241
3 236 269 273
3 230 252 269
3 266 245 165
3 276 279 280
3 263 246 245
3 231 225 224
3 225 233 227
3 240 233 231
3 121 122 233
3 231 224 230
3 139 132 120
3 240 121 233
3 248 269 236
3 267 256 171
3 191 230 269
3 266 165 267
3 239 231 230
3 263 245 266
3 191 269 248
3 188 139 135
3 191 239 230
3 252 263 266
3 240 231 239
3 213 158 276
3 224 262 263
3 211 121 240
3 256 243 249
3 246 271 238
3 125 129 265
3 125 188 135
3 251 248 236
3 255 191 248
3 132 273 267
3 169 239 191
3 273 252 266
3 169 191 255
3 233 122 227
3 269 252 273
3 258 248 251
3 211 240 244
3 230 224 252
3 244 239 169
3 260 251 188
3 258 251 260
3 244 240 239
3 260 188 207
3 207 125 254
3 254 265 197
3 207 188 125
3 139 120 135
3 135 202 129
3 122 173 227
3 139 236 132
3 275 271 179
3 231 233 225
3 132 236 273
3 255 248 258
3 254 125 265
3 227 173 210
3 273 266 267
3 225 227 261
3 225 261 262
3 224 225 262
3 120 111 202
3 173 190 210
3 227 210 261
3 224 263 252
3 120 171 111
3 125 135 129
3 210 190 270
3 267 165 256
3 262 261 271
3 246 262 271
3 234 229 228
3 171 204 111
3 256 249 204
3 190 219 270
3 271 261 179
3 263 262 246
3 171 256 204
3 246 238 241
3 135 120 202
3 270 219 272
3 179 270 274
3 103 130 151
3 124 134 128
3 250 235 138
3 247 268 235
3 103 101 130
3 101 99 136
3 264 124 128
3 101 136 130
3 124 187 134
3 99 140 136
3 187 250 138
3 264 128 140
3 250 247 235
3 91 103 63
3 264 253 124
3 206 187 124
3 257 247 250
3 89 103 91
3 89 94 101
3 94 196 99
3 196 253 264
3 89 101 103
3 253 206 124
3 101 94 99
3 206 259 187
3 196 264 99
3 259 257 250
3 85 89 91
3 196 67 253
3 69 259 206
3 62 85 91
3 84 89 85
3 84 80 94
3 100 105 286
3 67 78 68
3 96 95 106
3 95 70 65
3 64 85 62
3 187 138 134
3 74 84 85
3 117 100 102
3 93 105 100
3 97 287 98
3 96 288 97
3 104 284 70
3 97 288 287
3 77 78 67
3 83 96 82
3 117 93 100
3 87 70 95
3 64 62 73
3 90 102 104
3 76 84 74
3 83 87 95
3 82 96 97
3 92 90 104
3 187 259 250
3 284 76 74
3 83 95 96
3 117 102 90
3 215 93 117
3 62 91 86
3 80 67 196
3 81 98 75
3 81 82 97
3 185 87 83
3 288 106 73
3 108 92 87
3 106 65 64
3 108 87 185
3 106 95 65
3 142 117 90
3 126 83 82
3 142 90 146
3 66 257 259
3 104 285 284
3 146 92 108
3 70 284 65
3 146 90 92
3 65 284 74
3 189 81 178
3 126 82 189
3 178 75 217
3 105 283 286
3 102 282 285
3 102 285 104
3 96 106 288
3 178 81 75
3 286 283 79
3 185 83 126
3 282 286 78
3 106 64 73
3 285 282 77
3 189 82 81
3 285 77 76
3 288 72 287
3 283 71 79
3 286 79 78
3 282 78 77
3 65 74 64
3 285 76 284
3 288 73 72
3 78 79 68
3 73 62 88
3 76 77 80
3 81 97 98
3 79 71 69
3 76 80 84
3 74 85 64
3 99 264 140
3 73 88 72
3 62 86 88
3 71 66 69
3 68 79 69
3 80 77 67
3 80 196 94
3 69 66 259
3 84 94 89
3 68 69 206
3 242 60 55
3 59 242 51
3 58 59 4
3 0 58 45
3 1 0 6
3 2 1 7
3 51 242 55
3 4 59 51
3 45 58 4
3 8 2 7
3 63 151 8
3 55 180 34
3 38 45 4
3 6 45 11
3 8 7 14
3 36 55 34
3 40 51 36
3 11 45 38
3 13 6 11
3 14 7 13
3 31 11 38
3 13 11 3
3 14 13 17
3 20 86 15
3 30 36 16
3 32 40 30
3 32 31 38
3 3 11 31
3 56 52 10
3 50 44 52
3 30 16 5
3 18 49 42
3 54 48 18
3 53 47 54
3 91 63 86
3 37 52 56
3 41 50 52
3 39 98 50
3 41 39 50
3 21 5 57
3 75 98 39
3 22 21 12
3 222 28 221
3 42 43 33
3 36 51 55
3 41 52 37
3 18 42 28
3 29 54 18
3 9 17 24
3 26 53 54
3 25 19 9
3 29 18 28
3 29 26 54
3 35 53 26
3 42 49 12
3 279 75 39
3 7 1 6
3 280 39 41
3 6 0 45
3 281 41 37
3 19 20 15
3 24 3 23
3 28 42 33
3 228 26 226
3 223 35 228
3 28 33 221
3 40 36 30
3 280 41 281
3 281 37 223
3 55 60 180
3 222 29 28
3 32 38 40
3 279 39 280
3 226 26 29
3 226 29 222
3 47 46 9
3 228 35 26
3 46 10 25
3 223 37 35
3 10 44 27
3 42 12 43
3 52 44 10
3 103 151 63
3 46 56 10
3 60 61 180
3 53 56 46
3 88 86 20
3 53 46 47
3 19 15 14
3 54 47 48
3 19 14 17
3 48 49 18
3 17 13 3
3 217 75 279
3 12 57 43
3 36 34 16
3 287 72 44
3 15 8 14
3 47 24 48
3 48 23 49
3 49 22 12
3 151 2 8
3 12 21 57
3 44 72 27
3 10 27 25
3 46 25 9
3 47 9 24
3 24 23 48
3 13 7 6
3 23 22 49
3 72 88 27
3 22 31 32
3 27 20 25
3 23 31 22
3 21 30 5
3 27 88 20
3 25 20 19
3 9 19 17
3 17 3 24
3 23 3 31
CELL_TYPES 478
5
5
5
5
5
5
5
5
5
5
5
5
5
5
5
5
5
5
5
5
5
5
5
5
5
5
5
5
5
5
5
5
5
5
5
5
5
5
5
5
5
5
5
5
5
5
5
5
5
5
5
5
5
5
5
5
5
5
5
5
5
5
5
5
5
5
5
5
5
5
5
5
5
5
5
5
5
5
5
5
5
5
5
5
5
5
5
5
5
5
5
5
5
5
5
5
5
5
5
5
5
5
5
5
5
5
5
5
5
5
5
5
5
5
5
5
5
5
5
5
5
5
5
5
5
5
5
5
5
5
5
5
5
5
5
5
5
5
5
5
5
5
5
5
5
5
5
5
5
5
5
5
5
5
5
5
5
5
5
5
5
5
5
5
5
5
5
5
5
5
5
5
5
5
5
5
5
5
5
5
5
5
5
5
5
5
5
5
5
5
5
5
5
5
5
5
5
5
5
5
5
5
5
5
5
5
5
5
5
5
5
5
5
5
5
5
5
5
5
5
5
5
5
5
5
5
5
5
5
5
5
5
5
5
5
5
5
5
5
5
5
5
5
5
5
5
5
5
5
5
5
5
5
5
5
5
5
5
5
5
5
5
5
5
5
5
5
5
5
5
5
5
5
5
5
5
5
5
5
5
5
5
5
5
5
5
5
5
5
5
5
5
5
5
5
5
5
5
5
5
5
5
5
5
5
5
5
5
5
5
5
5
5
5
5
5
5
5
5
5
5
5
5
5
5
5
5
5
5
5
5
5
5
5
5
5
5
5
5
5
5
5
5
5
5
5
5
5
5
5
5
5
5
5
5
5
5
5
5
5
5
5
5
5
5
5
5
5
5
5
5
5
5
5
5
5
5
5
5
5
5
5
5
5
5
5
5
5
5
5
5
5
5
5
5
5
5
5
5
5
5
5
5
5
5
5
5
5
5
5
5
5
5
5
5
5
5
5
5
5
5
5
5
5
5
5
5
5
5
5
5
5
5
5
5
5
5
5
5
5
5
5
5
5
5
5
5
5
5
5
5
5
5
5
5
5
5
5
5
5
5
5
5
5
5
5
5
5
5
5
5
5
5
5
5
5
5
5
POINT_DATA 289
SCALARS scalar_value float 1
LOOKUP_TABLE default
0.0784617
0.0315808
0.0119394
-0.00222197
0.0297172
0
-0.131276
-0.0281784
0.0120669
0.120303
-0.127444
-0.00362198
-0.0270211
0.0351978
-0.0804897
0.226026
0
0.074691
-0.118341
-0.0581307
0.0381142
0.00477927
-0.0403236
0.0149052
-0.167461
-0.110039
0.0430389
0.27827
0.187022
-0.166263
-0.0875286
-0.0320452
-0.0886928
0
0
-0.0627364
0.0447078
-0.0262592
0.0353441
0.128045
0.0677992
0.116781
0.210678
0
-0.0618165
-0.0275765
0.0317796
-0.280454
-0.0487621
-0.162669
0.154596
-0.00975549
0.120827
-0.0936467
0.110528
0.0183006
0.125644
0
-0.0376585
0.00847775
-0.043463
0
0.152279
-0.00700294
-0.177337
1.22388
-0.45191
0.368058
0.268729
-0.132689
2.12879
0.73279
-0.0572795
0.0697373
0.104668
0.204465
0.572885
1.26004
1.36206
1.3568
0.538952
0.458966
0.715555
2.26818
0.30696
0.0490833
-0.176837
1.98216
-0.00238673
0.0811638
0.291844
0.0938549
1.72289
0.161351
0.0903022
3.03427
2.31864
1.4174
0.457941
-0.0192264
-0.939686
0.00124775
-1.13022
-0.0445625
0.147574
-0.472619
0.710278
0.0910733
1.22141
1.79284
0.975887
0
0.113972
1.30247
-0.0174759
1.917
2.26113
0.0629889
0.0379705
0.467455
-0.0382763
-0.0507388
0.00196964
-0.4109
-0.0599371
0.035603
0.659737
0.292813
-0.0312945
0
0.175688
-0.0786147
0.0264649
-0.0984131
0.00410884
0.0236364
-0.0642525
-0.19469
0.0127923
0.0687847
0.170234
0.0303675
1.04602
0.0380088
-0.450687
0.319331
0.86215
1.11393
-0.0365041
0.0327683
0.652957
0.0773987
1.66034
-0.0179258
0.423033
-0.00111719
-0.329398
-0.737831
0.564203
0.135782
0.194112
0.670279
0.673227
-0.0295996
-1.01437
-0.052155
2.83982
0.0856717
-0.0477889
0.0299423
-0.0991272
0.0238886
1.83801
-0.085973
-0.671753
0.813467
0.0376031
0.0563752
0.587703
0.16209
0
0.0604205
0.0191532
-0.140262
-0.0471821
1.50224
-0.104914
0.0281603
0.0407649
0.743773
0.248264
-0.00941382
2.32635
-0.0114716
-0.144438
0.104052
-0.0263889
0
0.695543
0.170012
-0.00853102
1.37391
0
-0.0966913
0
0.142555
-0.496409
0.000530472
3.19287
2.75445
0.0734614
-0.014589
-0.0920302
0.0826699
-0.100037
0.9081
-0.0631583
-0.100013
0.566922
0.29346
0.275274
0
0.32557
0.116801
-0.0117853
0.0121142
0.127073
0.15105
-0.0756445
-0.0241311
-0.0153606
-0.0219468
-0.150401
0.0739899
-0.0202593
-0.0332507
-0.032635
0
0.09876
-0.0354691
0.0455032
-0.0097803
-0.00603415
0.13803
-0.0610936
0.134937
-0.125363
0.185624
0.0266406
0
0.159399
-0.0336704
-0.120897
0.0274343
0.0547413
-0.0571589
-0.0357811
-0.00625595
0.0402313
-0.386946
0.0473804
-0.0857573
0.0598884
-0.0163807
-0.203367
0
-0.0111885
0.0892358
-0.0606771
0.00445393
-0.332053
0.0394449
0.217716
0.00477408
0.20055
-0.155818
-0.00401083
0.15132
-0.124638
0.0729021
-0.152506
-0.0898028
0.779904
0.292263
1.17466
0.965806
0.452818
0.252898
0.579327
