# vtk DataFile Version 2.0
Unstructured Grid by M++
ASCII
DATASET UNSTRUCTURED_GRID
POINTS 289 float
  1.000000   0.687500 0
  1.000000   0.625000 0
  1.000000   0.562500 0
  0.812500   0.750000 0
  0.937500   0.812500 0
  0.750000   1.000000 0
  0.937500   0.687500 0
  0.937500   0.625000 0
  0.937500   0.562500 0
  0.750000   0.687500 0
  0.687500   0.625000 0
  0.875000   0.750000 0
  0.687500   0.937500 0
  0.875000   0.687500 0
  0.875000   0.625000 0
  0.875000   0.562500 0
  0.812500   1.000000 0
  0.812500   0.687500 0
  0.625000   0.875000 0
  0.812500   0.625000 0
  0.812500   0.562500 0
  0.750000   0.937500 0
  0.750000   0.875000 0
  0.750000   0.812500 0
  0.750000   0.750000 0
  0.750000   0.625000 0
  0.562500   0.812500 0
  0.750000   0.562500 0
  0.562500   0.937500 0
  0.562500   0.875000 0
  0.812500   0.937500 0
  0.812500   0.812500 0
  0.812500   0.875000 0
  0.562500   1.000000 0
  0.875000   1.000000 0
  0.562500   0.750000 0
  0.875000   0.937500 0
  0.562500   0.687500 0
  0.875000   0.812500 0
  0.562500   0.562500 0
  0.875000   0.875000 0
  0.562500   0.625000 0
  0.625000   0.937500 0
  0.625000   1.000000 0
  0.687500   0.562500 0
  0.937500   0.750000 0
  0.687500   0.687500 0
  0.687500   0.750000 0
  0.687500   0.812500 0
  0.687500   0.875000 0
  0.625000   0.562500 0
  0.937500   0.875000 0
  0.625000   0.625000 0
  0.625000   0.750000 0
  0.625000   0.812500 0
  0.937500   0.937500 0
  0.625000   0.687500 0
  0.687500   1.000000 0
  1.000000   0.750000 0
  1.000000   0.812500 0
  1.000000   0.937500 0
  1.000000   1.000000 0
  0.812500   0.437500 0
  0.937500   0.500000 0
  0.750000   0.375000 0
  0.687500   0.312500 0
  0.812500   0.000000 0
  0.812500   0.187500 0
  0.812500   0.125000 0
  0.812500   0.062500 0
  0.625000   0.250000 0
  0.750000   0.000000 0
  0.750000   0.500000 0
  0.750000   0.437500 0
  0.750000   0.312500 0
  0.562500   0.500000 0
  0.750000   0.250000 0
  0.750000   0.187500 0
  0.750000   0.125000 0
  0.750000   0.062500 0
  0.812500   0.250000 0
  0.562500   0.437500 0
  0.562500   0.375000 0
  0.562500   0.312500 0
  0.812500   0.312500 0
  0.812500   0.375000 0
  0.875000   0.500000 0
  0.562500   0.250000 0
  0.812500   0.500000 0
  0.875000   0.375000 0
  0.562500   0.125000 0
  0.875000   0.437500 0
  0.562500   0.187500 0
  0.562500   0.000000 0
  0.875000   0.312500 0
  0.625000   0.312500 0
  0.625000   0.375000 0
  0.625000   0.437500 0
  0.625000   0.500000 0
  0.937500   0.312500 0
  0.625000   0.062500 0
  0.937500   0.375000 0
  0.625000   0.125000 0
  0.937500   0.437500 0
  0.625000   0.187500 0
  0.625000   0.000000 0
  0.687500   0.375000 0
  0.000000   0.437500 0
  0.500000   0.187500 0
  0.312500   0.187500 0
  0.375000   0.125000 0
  0.250000   1.000000 0
  0.125000   0.437500 0
  0.312500   0.250000 0
  0.062500   0.062500 0
  0.437500   0.187500 0
  0.375000   0.187500 0
  0.562500   0.062500 0
  0.437500   0.937500 0
  0.312500   0.062500 0
  0.187500   0.937500 0
  0.062500   0.500000 0
  0.125000   0.500000 0
  0.187500   0.062500 0
  0.937500   0.187500 0
  0.062500   0.937500 0
  0.500000   0.312500 0
  0.250000   0.125000 0
  1.000000   0.250000 0
  0.125000   1.000000 0
  1.000000   0.437500 0
  0.312500   0.000000 0
  0.187500   0.875000 0
  0.250000   0.062500 0
  1.000000   0.187500 0
  0.125000   0.937500 0
  1.000000   0.375000 0
  0.250000   0.000000 0
  1.000000   0.125000 0
  0.125000   0.875000 0
  1.000000   0.312500 0
  0.062500   0.312500 0
  0.500000   0.062500 0
  0.000000   0.312500 0
  0.187500   0.125000 0
  0.250000   0.375000 0
  0.500000   0.125000 0
  0.312500   0.312500 0
  0.000000   0.375000 0
  0.062500   0.375000 0
  0.250000   0.187500 0
  1.000000   0.500000 0
  0.375000   0.375000 0
  0.062500   0.125000 0
  0.312500   0.375000 0
  0.000000   0.125000 0
  0.187500   0.187500 0
  0.375000   0.000000 0
  0.437500   0.500000 0
  0.125000   0.250000 0
  0.187500   0.250000 0
  0.187500   0.312500 0
  0.250000   0.312500 0
  0.187500   0.375000 0
  0.437500   0.000000 0
  0.312500   0.875000 0
  0.437500   0.312500 0
  0.125000   0.062500 0
  0.187500   0.437500 0
  0.000000   0.625000 0
  0.375000   0.062500 0
  0.250000   0.937500 0
  0.375000   0.312500 0
  0.187500   0.500000 0
  0.437500   0.062500 0
  0.250000   0.250000 0
  0.000000   0.250000 0
  0.000000   0.062500 0
  0.500000   0.437500 0
  0.312500   0.625000 0
  0.937500   1.000000 0
  0.000000   0.000000 0
  0.062500   0.437500 0
  0.312500   0.437500 0
  0.000000   0.187500 0
  0.500000   0.250000 0
  0.187500   0.000000 0
  0.937500   0.125000 0
  0.062500   0.875000 0
  0.500000   0.375000 0
  0.250000   0.500000 0
  0.062500   0.687500 0
  0.375000   0.250000 0
  0.062500   0.000000 0
  0.125000   0.375000 0
  0.125000   0.125000 0
  0.875000   0.250000 0
  0.000000   1.000000 0
  0.437500   0.437500 0
  0.125000   0.187500 0
  0.125000   0.312500 0
  0.312500   0.125000 0
  0.187500   1.000000 0
  0.437500   0.125000 0
  0.312500   1.000000 0
  0.125000   0.000000 0
  0.875000   0.125000 0
  0.000000   0.875000 0
  0.437500   0.250000 0
  0.437500   0.375000 0
  0.250000   0.562500 0
  0.000000   0.500000 0
  0.062500   0.187500 0
  0.375000   0.500000 0
  0.062500   0.250000 0
  0.500000   0.000000 0
  0.375000   0.875000 0
  0.500000   0.500000 0
  0.375000   0.437500 0
  0.312500   0.500000 0
  0.250000   0.437500 0
  0.500000   1.000000 0
  0.500000   0.937500 0
  0.500000   0.750000 0
  0.187500   0.687500 0
  0.187500   0.625000 0
  0.500000   0.875000 0
  0.187500   0.562500 0
  0.500000   0.812500 0
  0.437500   0.750000 0
  0.125000   0.687500 0
  0.125000   0.625000 0
  0.437500   0.875000 0
  0.125000   0.562500 0
  0.437500   0.812500 0
  1.000000   0.062500 0
  0.125000   0.812500 0
  0.437500   1.000000 0
  0.375000   0.750000 0
  0.062500   0.625000 0
  0.062500   0.562500 0
  0.375000   0.812500 0
  1.000000   0.875000 0
  0.375000   0.937500 0
  0.000000   0.562500 0
  0.312500   0.812500 0
  0.312500   0.750000 0
  0.937500   0.000000 0
  0.062500   0.750000 0
  0.375000   1.000000 0
  0.937500   0.062500 0
  0.062500   0.812500 0
  0.187500   0.750000 0
  0.875000   0.187500 0
  0.000000   0.937500 0
  0.000000   0.687500 0
  0.312500   0.937500 0
  0.875000   0.000000 0
  0.000000   0.750000 0
  0.875000   0.062500 0
  0.000000   0.812500 0
  0.250000   0.625000 0
  0.250000   0.687500 0
  0.250000   0.750000 0
  0.937500   0.250000 0
  0.062500   1.000000 0
  0.250000   0.812500 0
  0.250000   0.875000 0
  1.000000   0.000000 0
  0.125000   0.750000 0
  0.312500   0.562500 0
  0.312500   0.687500 0
  0.375000   0.562500 0
  0.187500   0.812500 0
  0.375000   0.625000 0
  0.375000   0.687500 0
  0.437500   0.562500 0
  0.437500   0.625000 0
  0.437500   0.687500 0
  0.500000   0.562500 0
  0.500000   0.625000 0
  0.500000   0.687500 0
  0.687500   0.125000 0
  0.687500   0.000000 0
  0.687500   0.250000 0
  0.687500   0.187500 0
  0.687500   0.062500 0
  0.687500   0.500000 0
  0.687500   0.437500 0
CELLS 478 1912
3 110 203 116
3 153 114 167
3 108 185 208
3 160 156 150
3 162 113 147
3 154 147 172
3 176 214 143
3 119 157 170
3 198 178 158
3 170 174 110
3 194 163 112
3 193 205 114
3 146 108 115
3 195 123 144
3 156 144 127
3 113 192 147
3 156 199 144
3 184 212 176
3 209 189 198
3 157 164 170
3 200 161 194
3 145 220 168
3 218 209 198
3 220 183 190
3 177 193 114
3 144 123 133
3 150 201 109
3 167 123 195
3 215 117 142
3 150 109 175
3 214 159 141
3 172 166 152
3 201 170 110
3 149 200 194
3 189 178 198
3 127 201 150
3 218 213 219
3 147 192 172
3 148 149 107
3 116 203 115
3 192 208 172
3 170 164 174
3 163 145 168
3 205 186 167
3 183 219 190
3 176 212 214
3 185 126 166
3 159 156 160
3 107 182 211
3 155 114 153
3 174 203 110
3 154 152 183
3 145 147 154
3 149 141 200
3 152 218 183
3 116 115 192
3 214 212 199
3 137 131 133
3 112 122 121
3 144 133 127
3 116 192 113
3 143 141 148
3 153 167 195
3 178 217 158
3 161 163 194
3 183 218 219
3 167 186 123
3 133 119 127
3 220 154 183
3 154 172 152
3 156 127 150
3 161 162 163
3 164 215 174
3 107 149 182
3 200 160 161
3 126 189 209
3 182 121 211
3 168 220 173
3 203 146 115
3 114 205 167
3 112 163 168
3 110 116 109
3 194 112 182
3 166 209 152
3 182 112 121
3 214 199 159
3 133 131 119
3 201 110 109
3 152 209 218
3 143 214 141
3 186 137 123
3 175 113 162
3 115 208 192
3 160 150 175
3 215 142 174
3 199 195 144
3 159 160 200
3 115 108 208
3 184 153 212
3 181 193 177
3 131 157 119
3 127 119 201
3 162 145 163
3 148 141 149
3 201 119 170
3 162 147 145
3 159 199 156
3 123 137 133
3 208 185 166
3 177 114 155
3 141 159 200
3 145 154 220
3 109 113 175
3 166 126 209
3 149 194 182
3 172 208 166
3 155 153 184
3 109 116 113
3 220 190 173
3 118 222 221
3 278 281 223
3 277 280 281
3 158 217 279
3 118 221 237
3 118 232 222
3 232 234 226
3 229 278 223
3 232 226 222
3 278 277 281
3 234 228 226
3 277 276 280
3 229 223 228
3 276 158 279
3 243 118 237
3 216 232 118
3 229 275 278
3 274 277 278
3 277 272 276
3 216 118 243
3 216 241 232
3 238 275 229
3 275 274 278
3 232 241 234
3 274 272 277
3 272 213 276
3 165 216 243
3 245 241 216
3 238 271 275
3 275 179 274
3 270 272 274
3 243 237 249
3 219 213 272
3 256 165 243
3 245 216 165
3 245 246 241
3 236 269 273
3 230 252 269
3 266 245 165
3 276 279 280
3 263 246 245
3 231 225 224
3 225 233 227
3 240 233 231
3 121 122 233
3 231 224 230
3 139 132 120
3 240 121 233
3 248 269 236
3 267 256 171
3 191 230 269
3 266 165 267
3 239 231 230
3 263 245 266
3 191 269 248
3 188 139 135
3 191 239 230
3 252 263 266
3 240 231 239
3 213 158 276
3 224 262 263
3 211 121 240
3 256 243 249
3 246 271 238
3 125 129 265
3 125 188 135
3 251 248 236
3 255 191 248
3 132 273 267
3 169 239 191
3 273 252 266
3 169 191 255
3 233 122 227
3 269 252 273
3 258 248 251
3 211 240 244
3 230 224 252
3 244 239 169
3 260 251 188
3 258 251 260
3 244 240 239
3 260 188 207
3 207 125 254
3 254 265 197
3 207 188 125
3 139 120 135
3 135 202 129
3 122 173 227
3 139 236 132
3 275 271 179
3 231 233 225
3 132 236 273
3 255 248 258
3 254 125 265
3 227 173 210
3 273 266 267
3 225 227 261
3 225 261 262
3 224 225 262
3 120 111 202
3 173 190 210
3 227 210 261
3 224 263 252
3 120 171 111
3 125 135 129
3 210 190 270
3 267 165 256
3 262 261 271
3 246 262 271
3 234 229 228
3 171 204 111
3 256 249 204
3 190 219 270
3 271 261 179
3 263 262 246
3 171 256 204
3 246 238 241
3 135 120 202
3 270 219 272
3 179 270 274
3 103 130 151
3 124 134 128
3 250 235 138
3 247 268 235
3 103 101 130
3 101 99 136
3 264 124 128
3 101 136 130
3 124 187 134
3 99 140 136
3 187 250 138
3 264 128 140
3 250 247 235
3 91 103 63
3 264 253 124
3 206 187 124
3 257 247 250
3 89 103 91
3 89 94 101
3 94 196 99
3 196 253 264
3 89 101 103
3 253 206 124
3 101 94 99
3 206 259 187
3 196 264 99
3 259 257 250
3 85 89 91
3 196 67 253
3 69 259 206
3 62 85 91
3 84 89 85
3 84 80 94
3 100 105 286
3 67 78 68
3 96 95 106
3 95 70 65
3 64 85 62
3 187 138 134
3 74 84 85
3 117 100 102
3 93 105 100
3 97 287 98
3 96 288 97
3 104 284 70
3 97 288 287
3 77 78 67
3 83 96 82
3 117 93 100
3 87 70 95
3 64 62 73
3 90 102 104
3 76 84 74
3 83 87 95
3 82 96 97
3 92 90 104
3 187 259 250
3 284 76 74
3 83 95 96
3 117 102 90
3 215 93 117
3 62 91 86
3 80 67 196
3 81 98 75
3 81 82 97
3 185 87 83
3 288 106 73
3 108 92 87
3 106 65 64
3 108 87 185
3 106 95 65
3 142 117 90
3 126 83 82
3 142 90 146
3 66 257 259
3 104 285 284
3 146 92 108
3 70 284 65
3 146 90 92
3 65 284 74
3 189 81 178
3 126 82 189
3 178 75 217
3 105 283 286
3 102 282 285
3 102 285 104
3 96 106 288
3 178 81 75
3 286 283 79
3 185 83 126
3 282 286 78
3 106 64 73
3 285 282 77
3 189 82 81
3 285 77 76
3 288 72 287
3 283 71 79
3 286 79 78
3 282 78 77
3 65 74 64
3 285 76 284
3 288 73 72
3 78 79 68
3 73 62 88
3 76 77 80
3 81 97 98
3 79 71 69
3 76 80 84
3 74 85 64
3 99 264 140
3 73 88 72
3 62 86 88
3 71 66 69
3 68 79 69
3 80 77 67
3 80 196 94
3 69 66 259
3 84 94 89
3 68 69 206
3 242 60 55
3 59 242 51
3 58 59 4
3 0 58 45
3 1 0 6
3 2 1 7
3 51 242 55
3 4 59 51
3 45 58 4
3 8 2 7
3 63 151 8
3 55 180 34
3 38 45 4
3 6 45 11
3 8 7 14
3 36 55 34
3 40 51 36
3 11 45 38
3 13 6 11
3 14 7 13
3 31 11 38
3 13 11 3
3 14 13 17
3 20 86 15
3 30 36 16
3 32 40 30
3 32 31 38
3 3 11 31
3 56 52 10
3 50 44 52
3 30 16 5
3 18 49 42
3 54 48 18
3 53 47 54
3 91 63 86
3 37 52 56
3 41 50 52
3 39 98 50
3 41 39 50
3 21 5 57
3 75 98 39
3 22 21 12
3 222 28 221
3 42 43 33
3 36 51 55
3 41 52 37
3 18 42 28
3 29 54 18
3 9 17 24
3 26 53 54
3 25 19 9
3 29 18 28
3 29 26 54
3 35 53 26
3 42 49 12
3 279 75 39
3 7 1 6
3 280 39 41
3 6 0 45
3 281 41 37
3 19 20 15
3 24 3 23
3 28 42 33
3 228 26 226
3 223 35 228
3 28 33 221
3 40 36 30
3 280 41 281
3 281 37 223
3 55 60 180
3 222 29 28
3 32 38 40
3 279 39 280
3 226 26 29
3 226 29 222
3 47 46 9
3 228 35 26
3 46 10 25
3 223 37 35
3 10 44 27
3 42 12 43
3 52 44 10
3 103 151 63
3 46 56 10
3 60 61 180
3 53 56 46
3 88 86 20
3 53 46 47
3 19 15 14
3 54 47 48
3 19 14 17
3 48 49 18
3 17 13 3
3 217 75 279
3 12 57 43
3 36 34 16
3 287 72 44
3 15 8 14
3 47 24 48
3 48 23 49
3 49 22 12
3 151 2 8
3 12 21 57
3 44 72 27
3 10 27 25
3 46 25 9
3 47 9 24
3 24 23 48
3 13 7 6
3 23 22 49
3 72 88 27
3 22 31 32
3 27 20 25
3 23 31 22
3 21 30 5
3 27 88 20
3 25 20 19
3 9 19 17
3 17 3 24
3 23 3 31
CELL_TYPES 478
5
5
5
5
5
5
5
5
5
5
5
5
5
5
5
5
5
5
5
5
5
5
5
5
5
5
5
5
5
5
5
5
5
5
5
5
5
5
5
5
5
5
5
5
5
5
5
5
5
5
5
5
5
5
5
5
5
5
5
5
5
5
5
5
5
5
5
5
5
5
5
5
5
5
5
5
5
5
5
5
5
5
5
5
5
5
5
5
5
5
5
5
5
5
5
5
5
5
5
5
5
5
5
5
5
5
5
5
5
5
5
5
5
5
5
5
5
5
5
5
5
5
5
5
5
5
5
5
5
5
5
5
5
5
5
5
5
5
5
5
5
5
5
5
5
5
5
5
5
5
5
5
5
5
5
5
5
5
5
5
5
5
5
5
5
5
5
5
5
5
5
5
5
5
5
5
5
5
5
5
5
5
5
5
5
5
5
5
5
5
5
5
5
5
5
5
5
5
5
5
5
5
5
5
5
5
5
5
5
5
5
5
5
5
5
5
5
5
5
5
5
5
5
5
5
5
5
5
5
5
5
5
5
5
5
5
5
5
5
5
5
5
5
5
5
5
5
5
5
5
5
5
5
5
5
5
5
5
5
5
5
5
5
5
5
5
5
5
5
5
5
5
5
5
5
5
5
5
5
5
5
5
5
5
5
5
5
5
5
5
5
5
5
5
5
5
5
5
5
5
5
5
5
5
5
5
5
5
5
5
5
5
5
5
5
5
5
5
5
5
5
5
5
5
5
5
5
5
5
5
5
5
5
5
5
5
5
5
5
5
5
5
5
5
5
5
5
5
5
5
5
5
5
5
5
5
5
5
5
5
5
5
5
5
5
5
5
5
5
5
5
5
5
5
5
5
5
5
5
5
5
5
5
5
5
5
5
5
5
5
5
5
5
5
5
5
5
5
5
5
5
5
5
5
5
5
5
5
5
5
5
5
5
5
5
5
5
5
5
5
5
5
5
5
5
5
5
5
5
5
5
5
5
5
5
5
5
5
5
5
5
5
5
5
5
5
5
5
5
5
5
5
5
5
5
5
5
5
5
5
5
5
5
5
5
5
5
5
5
5
5
5
5
5
5
5
5
5
POINT_DATA 289
SCALARS scalar_value float 1
LOOKUP_TABLE default
-0.0682416
0.0747927
-0.0799824
-0.0305324
-0.0447742
0
-0.0624171
-0.0892704
0.0756872
0.142193
0.0304036
-0.0317998
0.0344166
-0.0433098
-0.107045
0.105737
0
0.110382
0.0437596
-0.0374089
0.0629241
-0.0613543
-0.117771
0.0439621
-0.0867938
0.090889
-0.126683
0.141092
0.0497014
0.0261319
-0.0953628
-0.0224057
-0.0145275
0
0
-0.215043
0.0466741
-0.380049
-0.0348198
-0.349901
0.0425024
-0.37663
0.167632
0
-0.0827494
0.0248424
0.0351396
0.0366035
0.0603552
-0.0581189
-0.0142898
0.032369
-0.14961
-0.0848844
0.114953
0.0271112
-0.132356
0
0.0182373
0.0328264
0.042152
0
0.0497169
-0.1011
0.0406846
0.0062251
-0.257082
-0.123603
-0.168705
-0.296499
0.175513
-0.177208
0.0919439
0.0731228
0.113894
-0.269404
-0.0952956
0.13776
-0.080521
-0.158609
-0.135939
-0.158798
-0.00254597
0.188274
0.0878692
-0.148563
-0.149087
0.276659
0.0818249
-0.0757955
0.230379
0.164313
0.20287
0.123353
0.0461724
0.263487
0.249774
0.157332
0.0633896
-0.060073
0.0892801
-0.0607818
-0.302748
0.0179166
0.0433613
0.957028
0.00450959
-0.0157522
0.238548
0.0799538
-0.0177386
0
0.0276895
0.0468459
0.00254394
0.10296
0.0889266
0.258543
0.0266972
0.0461939
0.0481739
0.0019694
0.00518997
0.0542013
-0.0291696
0.0047505
0.0614485
-0.0891252
0.020925
0
0.0473904
0.0984695
0.0277341
-0.118759
0.0591185
-0.0167911
0.0385095
-0.0855736
0.0908869
-0.0193866
0.0303623
0.0126919
0.15875
0.0481168
0.0782901
-0.0101808
0.291316
0.0457558
-0.0279857
0.00625167
-0.103668
-0.0539267
0.161267
0.049503
0.0217918
0.103126
0.0922315
-0.0786754
0.016992
0.0978588
-0.024275
-0.0910832
-0.0632154
-0.066026
-0.110974
0.0361292
0.191361
-0.0034707
0.00302381
-0.0383132
-0.0944596
0.0396112
0.147508
0.0290398
-0.095299
-0.103524
0.0260056
0.0995974
-0.0772111
0.00427028
0
0.0952749
-0.00843746
-0.0533049
0.0670226
0.176427
0.037564
-0.038888
-0.00706657
-0.0450335
0.0171972
0.0109423
0.15876
-0.0115697
0.0125069
0.147442
-0.00639276
0
0.10438
0.151078
0.0625569
0.0537764
0
-0.0214531
0
-0.0613254
-0.152507
-0.0150101
0.206003
0.191955
-0.0128734
-0.0290003
0.117686
-0.0565399
0.0565609
0.367841
-0.0239035
-0.179773
0.0817456
-0.0360464
0.0189168
0
-0.00409407
-0.127408
0.00874943
0.00229223
-0.0359986
0.0209242
-0.0770276
-0.0316417
0.0217962
-0.00554228
-0.0258468
0.00273439
0.0206923
0.0520892
0.0107024
0
-0.0890915
0.0130685
0.00466608
-0.0351986
-0.0324477
-0.0106968
-0.0214309
0.0227606
0.013147
-0.00724908
0.00657275
0
-0.0120095
0.0113322
0.0374309
-0.102108
-0.0291145
-0.0214808
0.0341708
0.0691992
-0.0349978
-0.0610265
-0.0192865
-0.0165096
0.0365298
0.0354506
-0.0473058
0
0.0678301
0.0411166
0.0109745
0.00657671
-0.0300341
0.0155373
-0.065181
0.0367156
-0.0789782
-0.0817247
-0.0603856
-0.100425
-0.0709016
-0.21094
-0.254924
-0.16712
-0.336698
0.402881
-0.0419158
-0.00565444
0.0761568
-0.00073758
-0.00574192
