# vtk DataFile Version 2.0
Unstructured Grid by M++
ASCII
DATASET UNSTRUCTURED_GRID
POINTS 1089 float
  6.250000   0.625000 0
  5.625000   0.625000 0
  1.250000   7.500000 0
  4.375000   3.750000 0
  0.625000   8.125000 0
  5.000000   4.375000 0
  8.750000   4.375000 0
  1.875000   8.125000 0
  4.375000   4.375000 0
  1.250000   8.125000 0
  2.500000   8.750000 0
  9.375000   5.000000 0
  5.000000   3.750000 0
  8.750000   8.125000 0
  8.750000   8.750000 0
  9.375000   4.375000 0
  2.500000   8.125000 0
  9.375000   8.750000 0
 10.000000   8.750000 0
  5.000000   3.125000 0
  1.875000   6.875000 0
  4.375000   6.875000 0
  3.750000   8.125000 0
  4.375000   8.125000 0
  7.500000   4.375000 0
  9.375000   0.625000 0
  4.375000   8.750000 0
  7.500000   5.000000 0
  3.750000   8.750000 0
  1.250000   8.750000 0
  4.375000   5.000000 0
  9.375000   1.250000 0
  3.750000   9.375000 0
  7.500000   5.625000 0
  4.375000   9.375000 0
  7.500000   6.250000 0
  4.375000  10.000000 0
  5.000000   1.875000 0
  5.000000   2.500000 0
  7.500000   6.875000 0
  5.625000   1.250000 0
  6.875000   6.875000 0
  5.625000   1.875000 0
  5.625000   2.500000 0
  6.875000   6.250000 0
  3.750000  10.000000 0
  8.750000   7.500000 0
  6.250000   7.500000 0
  6.250000   8.125000 0
  7.500000  10.000000 0
  1.875000   8.750000 0
  8.750000   5.000000 0
  5.000000   6.875000 0
  8.125000   3.125000 0
  6.250000  10.000000 0
  5.625000  10.000000 0
  8.125000   2.500000 0
  8.750000   1.250000 0
  6.250000   9.375000 0
  6.875000  10.000000 0
  1.875000   7.500000 0
  8.750000   3.750000 0
  7.500000   3.125000 0
  0.625000   6.875000 0
  5.625000   9.375000 0
  8.750000   0.625000 0
  6.250000   8.750000 0
  5.625000   7.500000 0
  8.125000   3.750000 0
  5.000000   7.500000 0
  4.375000   5.625000 0
  8.125000   5.625000 0
  1.250000   9.375000 0
  0.625000   7.500000 0
  7.500000   3.750000 0
  4.375000   7.500000 0
  3.750000   5.625000 0
  0.625000   9.375000 0
  6.875000   8.125000 0
  5.000000   8.750000 0
  8.125000   5.000000 0
  8.750000   6.875000 0
  3.750000   6.875000 0
  5.625000   8.750000 0
  1.250000   5.000000 0
  8.125000   1.250000 0
  9.375000   6.875000 0
  5.000000   9.375000 0
  7.500000   7.500000 0
  5.000000   8.125000 0
  8.125000   4.375000 0
  3.750000   6.250000 0
  0.625000  10.000000 0
 10.000000   8.125000 0
 10.000000   3.750000 0
  3.125000   7.500000 0
  6.875000   8.750000 0
  9.375000   7.500000 0
  5.625000   8.125000 0
  4.375000   6.250000 0
  6.875000   9.375000 0
  0.625000   8.750000 0
  7.500000   9.375000 0
  7.500000   8.750000 0
  7.500000   8.125000 0
  6.875000   7.500000 0
 10.000000   6.875000 0
  9.375000   8.125000 0
  9.375000   3.750000 0
  2.500000   7.500000 0
 10.000000   7.500000 0
  3.750000   7.500000 0
  5.000000  10.000000 0
  6.250000   6.875000 0
  1.250000   4.375000 0
  8.125000   0.625000 0
  7.500000   1.250000 0
  0.625000   5.000000 0
  5.625000   6.875000 0
  8.750000   3.125000 0
  8.750000   2.500000 0
  1.250000   6.875000 0
  3.125000   6.875000 0
 10.000000   3.125000 0
  2.500000   6.875000 0
  9.375000   3.125000 0
  8.125000   1.875000 0
  1.250000   5.625000 0
 10.000000  10.000000 0
  9.375000  10.000000 0
  9.375000   9.375000 0
 10.000000   9.375000 0
  8.750000  10.000000 0
  8.750000   9.375000 0
  8.750000   1.875000 0
  8.125000   6.875000 0
  8.125000   7.500000 0
  1.250000  10.000000 0
  8.125000   6.250000 0
  0.625000   0.625000 0
  9.375000   6.250000 0
  2.500000  10.000000 0
  8.750000   6.250000 0
  1.875000  10.000000 0
  8.750000   5.625000 0
  1.875000   9.375000 0
  9.375000   5.625000 0
  2.500000   9.375000 0
 10.000000   5.625000 0
  3.125000   9.375000 0
 10.000000   6.250000 0
  3.125000  10.000000 0
 10.000000   5.000000 0
  3.125000   8.750000 0
 10.000000   4.375000 0
  3.125000   8.125000 0
  8.125000   9.375000 0
  8.125000  10.000000 0
  8.125000   8.750000 0
  8.125000   8.125000 0
  7.500000   1.875000 0
  0.625000   5.625000 0
  7.500000   2.500000 0
  0.625000   6.250000 0
  9.375000   0.000000 0
  1.875000   1.875000 0
  8.750000  -1.875000 0
  5.000000  -6.250000 0
  4.375000  -6.250000 0
 -5.000000  -9.375000 0
 -5.625000  -6.875000 0
 -8.750000   5.625000 0
  5.625000  -5.000000 0
  5.000000  -2.500000 0
 -6.250000  -9.375000 0
 -6.875000  -6.875000 0
  3.125000   5.625000 0
 10.000000   1.875000 0
 -3.750000   9.375000 0
  3.750000   3.125000 0
 -3.125000   6.875000 0
  4.375000   0.625000 0
 -2.500000   4.375000 0
  6.250000   5.625000 0
 -0.625000   9.375000 0
 -7.500000 -10.000000 0
 -8.125000  -7.500000 0
  6.875000   3.125000 0
  0.000000   6.875000 0
 -6.875000   5.625000 0
 -4.375000  -4.375000 0
 -3.750000  -6.875000 0
 -6.875000   5.000000 0
 -5.000000  -2.500000 0
 -4.375000  -5.000000 0
 -3.750000  -7.500000 0
 -6.250000   5.000000 0
 -6.250000   5.625000 0
  3.125000  -8.125000 0
 -3.750000  -4.375000 0
 -5.625000   3.125000 0
  0.625000   1.250000 0
  7.500000  -2.500000 0
 -6.875000   6.250000 0
 -3.750000  -6.250000 0
 -6.250000   3.750000 0
  1.250000  -2.500000 0
 -5.625000   1.250000 0
 -7.500000   5.625000 0
 -5.000000  -4.375000 0
 -4.375000  -6.875000 0
 -5.625000  -1.875000 0
 -6.875000   3.125000 0
 -6.250000   0.625000 0
 -4.375000   1.875000 0
 -5.000000   4.375000 0
  9.375000  -6.250000 0
 10.000000  -8.750000 0
  6.875000   4.375000 0
  0.000000   8.125000 0
 -7.500000  -8.750000 0
 -6.250000   4.375000 0
 -7.500000   6.875000 0
 -3.750000  -8.125000 0
 -5.625000  -0.625000 0
 -4.375000  -5.625000 0
 -5.000000  -3.125000 0
 -6.875000   4.375000 0
-10.000000   7.500000 0
 -6.250000  -7.500000 0
 -5.625000 -10.000000 0
  4.375000  -3.125000 0
 -5.000000 -10.000000 0
 -5.625000  -7.500000 0
 -9.375000   7.500000 0
  5.000000  -3.125000 0
 -5.625000   5.000000 0
 -5.000000   2.500000 0
  8.750000  -5.625000 0
  1.250000   0.625000 0
  8.125000  -3.125000 0
  9.375000  -8.125000 0
 -5.625000   4.375000 0
  8.750000  -6.250000 0
 -5.625000  -8.125000 0
 -9.375000   6.875000 0
  5.000000  -3.750000 0
 -6.250000  -8.125000 0
-10.000000   6.875000 0
  3.750000  -1.250000 0
  3.750000   4.375000 0
 -3.125000   8.125000 0
  4.375000   1.875000 0
 -2.500000   5.625000 0
 -6.250000  -8.750000 0
  3.750000   3.750000 0
 -3.125000   7.500000 0
  4.375000   1.250000 0
 -2.500000   5.000000 0
  3.125000   6.250000 0
 10.000000   2.500000 0
 -3.750000  10.000000 0
 -5.625000  -8.750000 0
-10.000000   8.750000 0
 -9.375000   6.250000 0
  4.375000  -1.875000 0
  5.000000  -4.375000 0
 -9.375000   5.000000 0
 -2.500000   1.250000 0
 -7.500000  -2.500000 0
 -0.625000  -6.250000 0
 -6.875000  -5.000000 0
  0.000000  -8.750000 0
 -8.125000   0.000000 0
 -1.250000  -3.750000 0
 -8.750000   5.000000 0
 -1.875000   1.250000 0
 -8.125000   2.500000 0
 -1.250000  -1.250000 0
 -6.250000  -5.000000 0
  0.625000  -8.750000 0
  4.375000   3.125000 0
 -2.500000   6.875000 0
  5.000000   0.625000 0
 -1.875000   4.375000 0
 -5.625000  -9.375000 0
 -0.625000  -5.625000 0
 -7.500000  -1.875000 0
  0.000000  -8.125000 0
 -6.875000  -4.375000 0
 -6.250000  -6.875000 0
-10.000000   8.125000 0
 -1.875000  -0.625000 0
 -8.750000   3.125000 0
 -2.500000   1.875000 0
 -9.375000   5.625000 0
  4.375000  -2.500000 0
 -8.125000   5.625000 0
 -6.875000   0.625000 0
 -7.500000   3.125000 0
 -7.500000  -5.625000 0
 -6.875000  -8.125000 0
 -8.125000  -3.125000 0
 -8.750000   4.375000 0
 -1.875000   0.625000 0
 -6.875000  -3.125000 0
  0.000000  -6.875000 0
 -6.250000  -5.625000 0
  0.625000  -9.375000 0
 -9.375000   4.375000 0
 -2.500000   0.625000 0
 -6.875000  -5.625000 0
  0.000000  -9.375000 0
 -8.125000  -0.625000 0
 -1.250000  -4.375000 0
 -8.750000   1.875000 0
 -1.875000  -1.875000 0
 -7.500000  -3.125000 0
 -0.625000  -6.875000 0
 -5.000000  -8.750000 0
 -1.875000   1.875000 0
  5.000000  -1.875000 0
  5.625000  -4.375000 0
 -4.375000 -10.000000 0
 -5.000000  -7.500000 0
 -1.875000   3.125000 0
  5.000000  -0.625000 0
  6.250000  -5.625000 0
  5.625000  -3.125000 0
 -5.000000  -8.125000 0
 -1.875000   2.500000 0
  5.000000  -1.250000 0
  5.625000  -3.750000 0
  3.750000   0.000000 0
 -3.125000   3.750000 0
  2.500000   5.000000 0
 -4.375000   8.750000 0
  3.125000   2.500000 0
 -3.750000   6.250000 0
 -8.750000  -2.500000 0
 -8.125000  -5.000000 0
 -9.375000   0.000000 0
 -7.500000  -7.500000 0
-10.000000   2.500000 0
  0.625000   3.125000 0
  7.500000  -0.625000 0
 -6.250000   6.875000 0
 -3.750000 -10.000000 0
 -4.375000  -7.500000 0
  6.875000  -5.625000 0
 -8.125000   3.125000 0
 -1.250000  -0.625000 0
 -6.250000  -4.375000 0
  0.625000  -8.125000 0
 -3.750000   3.750000 0
  1.875000   5.000000 0
 -5.000000   8.750000 0
  2.500000   2.500000 0
 -4.375000   6.250000 0
 -9.375000  -1.875000 0
-10.000000   0.625000 0
 -5.625000   8.125000 0
 -5.000000   5.625000 0
 -4.375000  -8.125000 0
  6.875000  -6.250000 0
  6.250000  -3.750000 0
  3.750000   0.625000 0
 -3.125000   4.375000 0
  9.375000   1.875000 0
  2.500000   5.625000 0
 -4.375000   9.375000 0
  3.125000   3.125000 0
 -3.750000   6.875000 0
 -8.750000  -1.875000 0
 -6.875000  -9.375000 0
  0.000000  10.000000 0
 -7.500000  -6.875000 0
 -8.125000  -4.375000 0
 -9.375000   0.625000 0
 -7.500000  -6.250000 0
 -8.750000  -1.250000 0
 -8.125000  -3.750000 0
 -6.875000  -8.750000 0
 -9.375000   8.750000 0
  9.375000  -8.750000 0
 -7.500000  -4.375000 0
 -0.625000  -8.125000 0
-10.000000   5.625000 0
 -3.125000   1.875000 0
 -9.375000   3.125000 0
 -2.500000  -0.625000 0
 -8.750000   0.625000 0
 -1.875000  -3.125000 0
 -8.125000  -1.875000 0
 -1.250000  -5.625000 0
 -8.125000  -5.625000 0
 -9.375000  -0.625000 0
 -8.750000  -3.125000 0
-10.000000   1.875000 0
 -5.625000   8.750000 0
 -5.000000   6.250000 0
  1.875000   5.625000 0
 -5.000000   9.375000 0
  3.125000   0.625000 0
 -3.750000   4.375000 0
  2.500000   3.125000 0
 -4.375000   6.875000 0
  1.875000   6.250000 0
 -5.000000  10.000000 0
  2.500000   3.750000 0
 -4.375000   7.500000 0
  3.125000   1.250000 0
[...]
CELL_DATA 1024
SCALARS scalar_value float 1
LOOKUP_TABLE default
0
0
0
0
0
0
0
0
0
0
0
0
0
0
0
0
0
0
0
0
0
0
0
0
0
0
0
0
0
0
0
0
0
0
0
0
0
0
0
0
0
0
0
0
0
0
0
0
0
0
0
0
0
0
0
0
0
0
0
0
0
0
0
0
0
0
0
0
0
0
0
0
0
0
0
0
0
0
0
0
0
0
0
0
0
0
0
0
0
0
0
0
0
0
0
0
0
0
0
0
0
0
0
0
0
0
0
0
0
0
0
0
0
0
0
0
0
0
0
0
0
0
0
0
0
0
0
0
0
0
0
0
0
0
0
0
0
0
0
0
0
0
0
0
0
0
0
0
0
0
0
0
0
0
0
0
0
0
0
0
0
0
0
0
0
0
0
0
0
0
0
0
0
0
0
0
0
0
0
0
0
0
0
-2.9033e-10
0
0
0
0
0
0
0
0
0
0
0
0
0
0
0
0
0
0
0
0
0
0
0
0
1.12972e-09
0
0
0
0
0
0
0
0
0
0
0
0
0
0
0
0
0
0
0
0
0
0
0
0
0
0
0
0
0
0
0
0
0
0
0
0
0
0
0
0
0
0
0
0
0
0
0
0
0
0
0
0
0
0
0
0
0
-3.23354e-08
2.2034e-08
2.29227e-08
8.40082e-08
0
0
0
3.78687e-07
1.63696e-07
-1.39519e-08
-4.82193e-07
0
0
0
0
0
2.13287e-09
-6.88024e-09
-8.57332e-10
-3.67903e-09
1.83844e-10
0
0
0
0
0
4.00006e-10
0
0
0
0
0
0
0
0
-8.87176e-10
0
0
0
0
0
0
0
0
0
0
0
0
0
0
0
-5.31746e-10
-1.98174e-10
0
0
0
0
-6.8006e-10
0
0
0
0
1.21272e-09
3.60899e-09
0
1.21582e-08
-1.00138e-10
0
0
0
0
3.36703e-09
0
0
0
0
0
-7.48593e-07
0
0
0
0
0
0
-7.37196e-09
0
0
0
-1.90522e-10
0
0
-2.03337e-10
0
2.04007e-08
0
-1.51841e-10
0
0
0
0
0
0
0
0
0
-1.89162e-09
0
0
0
-1.14213e-09
0
0
0
-1.6814e-10
0
0
0
2.29523e-06
2.07398e-06
0
0
0
0
2.50737e-07
0
0
0
-6.12026e-08
0
0
0
4.70821e-10
0
3.30045e-07
0
0
4.61625e-10
0
2.34548e-09
0
3.00261e-10
0
-3.64373e-10
0
-4.85316e-10
0
-1.49593e-09
0
0
0
0
0
-5.11611e-09
0
0
0
0
8.65114e-07
0
2.86645e-07
0
0
0
0
0
0
0
0
0
0
0
0
0
0
0
0
0
0
0
0
0
2.86162e-09
0
0
0
-1.90333e-08
0
0
0
1.64986e-10
0
-2.40576e-09
0
0
0
-1.09076e-08
0
0
0
4.9049e-09
0
0
0
0
0
0
0
0
9.52413e-09
1.37613e-08
0
3.18631e-08
0
0
0
0
0
0
0
0
0
0
1.99019e-10
-5.26314e-10
2.1192e-10
0
0
0
0
0
0
0
-3.82118e-09
0
0
0
4.28558e-09
0
0
-5.4353e-10
0
0
2.34789e-08
0
0
0
0
0
1.59487e-09
-2.61745e-10
1.15177e-08
3.93721e-08
0
0
0
0
0
0
0
0
-4.34956e-09
0
-6.05511e-10
0
0
0
0
0
0
0
0
0
0
0
0
0
0
0
0
0
0
0
-2.84569e-09
0
0
0
0
0
0
0
0
0
4.1176e-09
2.25129e-08
0
0
0
0
0
0
0
0
0
0
0
0
-3.32307e-08
0
0
0
0
0
0
0
0
0
0
0
0
0
0
0
0
0
-4.23614e-09
0
0
0
0
0
0
0
-1.11775e-09
0
0
0
0
0
0
0
5.0312e-10
0
0
0
0
0
0
0
0
0
0
0
-1.64559e-10
0
0
0
0
0
0
0
0
0
0
0
0
0
0
0
0
0
0
0
0
0
0
0
0
1.56512e-10
0
0
0
7.35639e-09
0
0
2.13343e-09
0
0
0
0
0
0
0
0
0
0
1.78339e-10
0
0
0
0
-2.82153e-10
0
-1.59486e-10
0
0
0
0
0
0
0
0
0
0
0
0
0
0
0
0
0
0
0
0
0
0
0
-2.22255e-10
0
0
0
0
1.09922e-05
0
0
-4.99782e-07
0
0
0
3.0909e-07
0
0
0
0
0
0
4.92469e-06
7.35268e-10
0
0
7.69946e-06
0
2.32692e-08
0
4.78828e-08
0
0
0
0
0
0
0
0
0
0
0
0
0
0
1.50098e-08
0
-2.35857e-08
-9.50172e-08
0
5.6686e-07
0
-1.37311e-07
0
0
0
0
1.0497e-08
0
1.43829e-09
0
2.93385e-09
0
0
0
0
0
0
0
0
0
0
0
0
0
0
1.05407e-06
0
0
4.20908e-07
-1.87853e-07
-8.57016e-07
-2.99498e-06
1.64796e-06
2.72029e-09
1.49508e-09
0
0
0
0
1.42693e-06
-6.13775e-07
-3.04928e-08
3.34343e-08
0
0
0
0
1.63606e-07
2.38329e-07
-2.0938e-06
-2.09486e-06
-3.68937e-05
1.1415e-05
2.62307e-06
-1.26476e-05
0.000204722
-0.000111112
0.000859893
-0.0019456
7.11375e-08
8.05309e-08
6.68853e-09
6.89863e-07
3.28045e-06
-1.76256e-05
-1.18988e-07
7.24375e-08
0
-2.98619e-06
-1.0086e-07
1.32966e-09
-1.47002e-08
5.46787e-06
5.05237e-08
9.5618e-10
-8.07196e-08
-5.36868e-07
-9.12407e-05
-0.00111481
3.61085e-05
-3.94881e-06
9.93128e-09
3.95722e-09
-5.05212e-05
2.48536e-08
-0.00191859
1.2364e-08
4.15107e-09
-0.000891047
-8.16496e-08
0
0
0
9.36842e-05
3.08999e-10
1.32004e-10
-1.80295e-09
3.23482e-10
0
-0.00039216
1.13939e-09
-7.4185e-09
0.00129918
1.44241e-09
-2.30217e-10
0
-7.2971e-06
0
2.08722e-05
-1.63033e-08
5.22918e-08
0
-1.46255e-09
-3.6967e-09
8.4939e-08
0
-3.43417e-08
1.18021e-06
-3.39223e-05
6.41406e-05
0
0
-6.43291e-06
0
6.90258e-05
-2.22745e-05
0.147488
6.41589e-05
-9.08635e-10
0
-2.28022e-07
-2.8627e-06
0.00142067
0
-5.90249e-09
0.000571503
0.00225371
0.00051538
-1.06658e-06
2.36524e-05
-2.06977e-06
0.188205
0
8.96665e-10
-2.4721e-05
0
7.03226e-05
-3.06464e-10
0
0.000399697
-3.87536e-05
0.0204165
1.1753e-05
0.0505985
1.67539e-08
0.000304027
7.1954e-08
1.02374e-06
-5.5831e-06
7.71418e-05
2.84807e-08
1.3527e-06
-1.66375e-06
-8.05975e-06
-5.07366e-08
-0.000184921
-7.73829e-07
4.94748e-07
0
-2.00892e-06
4.93158e-08
1.26977e-07
2.71311e-09
1.66371e-05
0
0.164565
1.20912e-05
-2.09337e-10
6.48773e-07
4.69741e-08
-7.13559e-05
8.61002e-07
0.835327
-2.96428e-07
1.3358e-06
-0.000117542
-3.96773e-09
-1.02864e-05
3.84916e-09
2.36754e-09
2.33138e-07
-0.00134578
2.77863e-09
2.19527e-08
1.82984e-06
0.000312186
-2.45815e-07
0
-0.000615331
0
-0.00206433
0.000201418
-8.26726e-08
0.0288068
2.69496e-08
0.110972
-1.2233e-10
-4.94536e-09
0.0346883
-3.35322e-10
0.803339
0.520534
1.18528e-06
3.00526e-10
1.06823
0.0825859
1.29636
-3.44175e-07
0.00385849
-2.1852e-05
0
0.26258
-5.97645e-07
0.0037645
8.90931e-05
-0.000329311
0.00144749
0
0.0286281
0.000922674
-0.000104438
1.91571e-05
0.726159
0
2.52882
2.71572
-5.85049e-08
2.8111e-07
9.63555e-09
-1.91471e-06
3.67756e-07
-6.72813e-08
9.40493e-07
3.22244
3.01104
-9.09666e-07
-2.39118e-09
9.64017e-08
7.45385e-10
1.45176
-3.40981e-06
1.35246
4.61253e-07
0
-2.88487e-10
-0.00339067
0
0.0344169
0
-0.00152447
0
0.000458625
5.7108e-10
0.000236681
0
-1.07098e-05
6.86897e-10
-1.22194e-05
1.03213
0.0617397
6.13946e-09
1.15497e-08
3.55559e-06
0
-0.00542604
0.00041934
-4.19281e-10
0.396107
2.35565e-05
0
0.00310159
-7.34365e-05
0
-1.28467e-09
