# vtk DataFile Version 2.0
Unstructured Grid by M++
ASCII
DATASET UNSTRUCTURED_GRID
POINTS 4225 float
  5.312500   3.437500 0
  8.750000   1.562500 0
  5.625000   2.187500 0
  9.062500   0.312500 0
  9.375000   0.937500 0
  9.687500   0.625000 0
  2.812500   1.562500 0
  4.687500   5.625000 0
  8.125000   3.750000 0
  5.625000   1.875000 0
  5.312500   3.125000 0
  8.750000   1.250000 0
  9.375000   1.250000 0
  9.687500   0.312500 0
  9.375000   1.562500 0
  3.750000  10.000000 0
  4.687500   5.312500 0
  8.125000   3.437500 0
  5.625000   1.562500 0
  5.312500   2.812500 0
  4.375000   6.562500 0
  7.812500   4.687500 0
  5.000000   3.750000 0
  4.687500   5.000000 0
  8.125000   3.125000 0
  5.625000   1.250000 0
  5.312500   2.500000 0
  7.500000   5.625000 0
  4.375000   6.250000 0
  7.812500   4.375000 0
  9.375000   0.625000 0
  8.437500   4.375000 0
 10.000000   7.812500 0
  6.562500   9.687500 0
  5.937500   9.687500 0
  6.250000   9.687500 0
  6.562500   8.437500 0
  0.625000  10.000000 0
  2.500000   2.500000 0
  3.750000   0.937500 0
  6.875000   0.312500 0
  0.937500   0.625000 0
  6.875000   0.625000 0
  0.937500   0.937500 0
  5.000000   0.312500 0
  3.437500  10.000000 0
  5.000000   2.500000 0
  4.687500   3.750000 0
 10.000000   8.125000 0
  6.562500  10.000000 0
  1.875000   3.125000 0
  7.812500   2.812500 0
  4.375000   4.687500 0
  1.250000   5.625000 0
  7.187500   5.312500 0
  1.562500   4.375000 0
  7.500000   4.062500 0
  6.562500   7.812500 0
  6.250000   9.062500 0
  2.187500   1.875000 0
  8.125000   1.562500 0
  4.687500   3.437500 0
  5.312500   2.187500 0
  3.437500   1.250000 0
  2.812500   2.187500 0
  3.125000   0.937500 0
  4.375000   0.625000 0
  4.062500   5.937500 0
 10.000000   5.625000 0
  0.625000   7.812500 0
  6.562500   7.500000 0
  3.437500   8.437500 0
  9.375000   8.125000 0
  5.937500  10.000000 0
  3.750000   7.187500 0
  9.687500   6.875000 0
  6.250000   8.750000 0
  7.500000   7.187500 0
  8.125000   4.687500 0
  7.812500   5.937500 0
  1.250000  10.000000 0
  7.187500   9.687500 0
  5.312500  10.000000 0
  7.187500   5.937500 0
  4.687500   4.062500 0
  4.375000   5.312500 0
  6.875000   7.187500 0
  2.500000   0.625000 0
  8.437500   0.312500 0
  3.125000   2.187500 0
  3.437500   0.937500 0
  5.000000   2.812500 0
  3.437500   1.875000 0
  3.750000   0.625000 0
  7.500000   4.687500 0
  1.562500   5.000000 0
  5.000000   3.125000 0
  2.500000   1.562500 0
  8.437500   1.250000 0
  7.812500   3.437500 0
  1.875000   3.750000 0
  5.312500   1.875000 0
  8.125000   2.187500 0
  2.187500   2.500000 0
  5.625000   0.625000 0
  8.437500   0.937500 0
  2.500000   1.250000 0
  4.062500  10.000000 0
 10.000000   5.312500 0
  4.062500   5.625000 0
  6.562500   7.187500 0
  0.625000   7.500000 0
  1.562500   4.062500 0
  7.500000   3.750000 0
  7.500000   3.437500 0
  1.562500   3.750000 0
  9.687500   6.562500 0
  3.750000   6.875000 0
  6.250000   8.437500 0
  0.312500   8.750000 0
  1.250000   5.312500 0
  7.187500   5.000000 0
  9.375000   7.812500 0
  3.437500   8.125000 0
  0.937500   6.562500 0
  6.875000   6.250000 0
  7.187500   3.437500 0
  1.250000   3.750000 0
  0.937500   5.312500 0
  6.875000   5.000000 0
  6.562500   5.937500 0
  0.625000   6.250000 0
  6.250000   7.187500 0
  0.312500   7.500000 0
  1.250000   4.062500 0
  7.187500   3.750000 0
  6.875000   4.687500 0
  0.937500   5.000000 0
  1.875000   1.562500 0
  7.812500   1.250000 0
  6.875000   3.437500 0
  0.937500   3.750000 0
  7.500000   0.937500 0
  1.562500   1.250000 0
  0.937500   4.062500 0
  6.875000   3.750000 0
  1.562500   1.562500 0
  7.500000   1.250000 0
  7.187500   2.187500 0
  1.250000   2.500000 0
  4.687500   0.625000 0
  8.750000   0.312500 0
  2.812500   0.625000 0
  7.187500   1.250000 0
  1.250000   1.562500 0
  0.937500   2.500000 0
  6.875000   2.187500 0
  0.625000   3.750000 0
  6.562500   3.437500 0
  1.250000   1.250000 0
  7.187500   0.937500 0
  6.875000   2.812500 0
  0.937500   3.125000 0
  6.562500   4.062500 0
  0.625000   4.375000 0
  7.500000   0.312500 0
  1.562500   0.625000 0
  7.187500   1.562500 0
  1.250000   1.875000 0
  6.875000   9.687500 0
  0.937500  10.000000 0
  0.625000   4.062500 0
  6.562500   3.750000 0
  5.000000  10.000000 0
  8.437500  10.000000 0
  2.812500   9.062500 0
  8.750000   8.750000 0
  6.250000  10.000000 0
  6.562500   8.750000 0
  2.500000  10.000000 0
  8.437500   9.687500 0
  4.375000   5.625000 0
  1.875000   4.062500 0
  7.812500   3.750000 0
 10.000000   6.562500 0
  4.062500   6.875000 0
  7.500000   5.000000 0
  6.875000   7.500000 0
  9.687500   7.812500 0
  3.750000   8.125000 0
  7.187500   6.250000 0
 10.000000   8.437500 0
-10.000000  10.000000 0
 -4.687500   2.500000 0
  5.000000  -4.375000 0
-10.000000   5.312500 0
 -9.687500   4.062500 0
-10.000000 -10.000000 0
 -5.000000   2.500000 0
 -8.437500   4.375000 0
 -0.625000   1.875000 0
 -1.250000   4.375000 0
 -4.687500   6.250000 0
 -0.937500   2.812500 0
 -4.375000   4.687500 0
 -1.250000   4.062500 0
 -4.687500   5.937500 0
 -2.812500  10.000000 0
 -1.250000   3.750000 0
 -4.687500   5.625000 0
 -0.312500   0.937500 0
-10.000000   7.812500 0
 -1.250000   4.687500 0
  1.875000  -6.875000 0
 -9.375000   9.375000 0
 -9.062500   8.437500 0
 -9.375000   9.687500 0
 -5.937500   7.812500 0
 -9.687500   9.062500 0
 -5.625000   7.812500 0
 -5.312500   6.562500 0
 -8.750000   8.437500 0
 -5.000000   5.312500 0
 -5.312500   2.500000 0
 -8.750000   4.375000 0
 -5.625000   3.750000 0
 -9.062500   5.625000 0
 -9.375000  10.000000 0
 -5.937500   8.125000 0
 -9.062500   8.750000 0
 -5.625000   6.875000 0
 -6.250000   5.312500 0
 -9.687500   7.187500 0
  0.000000   0.312500 0
 -0.625000   4.062500 0
  5.937500  -9.375000 0
  5.000000   5.000000 0
 -0.937500   5.312500 0
  1.562500   6.875000 0
 -4.375000   7.187500 0
  5.625000  -8.125000 0
  9.375000 -10.000000 0
  5.937500  -8.125000 0
 -9.687500   6.875000 0
  0.000000   0.000000 0
  9.375000   6.562500 0
  3.437500   6.875000 0
 -2.500000   7.187500 0
 -7.812500  -4.375000 0
 -5.937500   5.000000 0
 -9.375000   6.875000 0
  0.312500   0.000000 0
-10.000000   4.687500 0
 -7.187500  -6.250000 0
 -9.062500   5.000000 0
 -6.250000   5.625000 0
 -9.687500   7.500000 0
  0.000000   0.625000 0
 -9.062500   9.062500 0
 -5.625000   7.187500 0
 -5.000000   6.250000 0
 -7.187500   2.812500 0
  5.625000   4.062500 0
 -0.312500   4.375000 0
  2.187500   5.937500 0
  8.125000   5.625000 0
 -3.750000   6.250000 0
  6.250000  -9.062500 0
  3.125000   2.500000 0
 -2.812500   2.812500 0
  5.312500   5.312500 0
 -0.625000   5.625000 0
  9.375000  -9.687500 0
 -0.625000   2.812500 0
  1.875000   4.375000 0
 -4.062500   4.687500 0
 -0.312500   1.562500 0
-10.000000   8.437500 0
 -0.937500   4.062500 0
  5.625000  -9.375000 0
 -1.250000   5.312500 0
  1.875000  -6.250000 0
  5.312500  -8.125000 0
  0.312500   5.000000 0
  6.250000   4.687500 0
 -5.625000   5.312500 0
 -8.750000  -3.437500 0
  4.062500   1.875000 0
 10.000000   1.562500 0
 -1.875000   2.187500 0
 -8.437500  -4.687500 0
 -9.375000  -1.562500 0
  1.250000  -6.250000 0
 -5.312500   7.187500 0
  6.250000  -9.375000 0
 -9.375000  -1.875000 0
-10.000000   5.000000 0
 -8.750000  -3.750000 0
 -5.937500   5.312500 0
 -9.375000   7.187500 0
  0.312500   0.312500 0
  0.937500  -5.312500 0
 -5.625000   8.125000 0
 -5.312500   6.875000 0
 -9.375000   9.062500 0
 -0.312500   3.125000 0
 -7.500000   2.812500 0
  5.312500   4.062500 0
 -0.625000   4.375000 0
  1.875000   5.937500 0
 -4.062500   6.250000 0
  5.937500  -9.062500 0
  1.562500   7.187500 0
 -4.375000   7.500000 0
  5.625000  -7.812500 0
  5.000000   5.312500 0
 -0.937500   5.625000 0
  9.062500  -9.687500 0
  5.937500   5.312500 0
  0.000000   5.625000 0
 -5.937500   5.937500 0
 -9.062500  -2.812500 0
  1.875000   5.000000 0
 -4.062500   5.312500 0
  5.937500 -10.000000 0
 -0.625000   3.437500 0
  5.312500  -7.500000 0
 -1.250000   5.937500 0
 -0.312500   2.187500 0
-10.000000   9.062500 0
  0.937500   8.750000 0
 -5.000000   9.062500 0
  5.000000  -6.250000 0
  8.750000  -9.375000 0
  2.812500  -9.062500 0
 -9.687500   9.375000 0
 -5.000000   5.625000 0
 -9.062500  -2.187500 0
 -0.625000   0.312500 0
  9.062500  -6.562500 0
 -0.625000   2.500000 0
 -4.062500   4.375000 0
 -8.125000   9.062500 0
 -2.187500   8.750000 0
  3.437500   9.687500 0
 -2.500000  10.000000 0
 -0.312500   1.250000 0
-10.000000   8.125000 0
 -1.250000   5.000000 0
 -2.187500   8.437500 0
 -8.125000   8.750000 0
  1.875000  -6.562500 0
  5.312500  -8.437500 0
 -9.687500   8.437500 0
  0.000000   1.562500 0
 -9.687500  10.000000 0
 -9.375000   8.750000 0
 -0.625000   3.125000 0
  1.875000   4.687500 0
 -4.062500   5.000000 0
  0.625000   9.687500 0
 -5.312500  10.000000 0
  4.687500  -5.312500 0
  3.750000   9.062500 0
 -8.125000   9.687500 0
 -2.187500   9.375000 0
 -0.312500   1.875000 0
-10.000000   8.750000 0
 -0.937500   4.375000 0
  2.187500  -7.187500 0
  5.625000  -9.062500 0
 -1.250000   5.625000 0
  3.750000   8.750000 0
 -2.187500   9.062500 0
 -8.125000   9.375000 0
  1.875000  -5.937500 0
  5.312500  -7.812500 0
  4.375000   6.875000 0
 -1.562500   7.187500 0
 -7.500000   7.500000 0
  8.437500  -8.125000 0
  2.500000  -7.812500 0
  0.000000   0.937500 0
 -9.687500   7.812500 0
 -0.937500   4.687500 0
  4.062500   7.812500 0
 -1.875000   8.125000 0
 -7.812500   8.437500 0
  2.187500  -6.875000 0
  5.625000  -8.750000 0
  5.625000   3.125000 0
 -0.312500   3.437500 0
  2.187500   5.000000 0
 -3.750000   5.312500 0
  6.250000 -10.000000 0
 -7.500000   3.125000 0
  5.000000   5.625000 0
 -0.937500   5.937500 0
  9.062500  -9.375000 0
  1.562500   7.500000 0
 -4.375000   7.812500 0
  5.625000  -7.500000 0
  5.937500  -8.750000 0
 -9.062500   9.375000 0
 -5.625000   7.500000 0
 -8.750000   8.125000 0
 -5.312500   6.250000 0
 -4.375000   2.812500 0
  5.312500  -4.062500 0
  5.937500   3.125000 0
  0.000000   3.437500 0
  2.500000   5.000000 0
[...]
CELL_DATA 4096
SCALARS scalar_value float 1
LOOKUP_TABLE default
0
0
0
0
0
0
0
0
0
0
0
0
0
0
0
0
0
0
0
0
0
0
0
0
0
0
0
0
0
1.82503e-10
1.02731e-09
2.38809e-10
0
0
0
0
0
0
0
0
0
0
0
0
0
0
0
0
0
1.51888e-09
6.17593e-09
3.94601e-08
1.21011e-08
0
0
0
0
0
0
0
0
0
0
0
0
0
0
0
0
0
0
0
0
0
0
0
0
0
0
0
0
0
0
0
0
0
0
0
0
0
0
0
0
0
0
0
0
0
0
0
0
0
0
0
0
0
0
0
0
0
0
0
0
1.09313e-09
0
0
0
0
0
0
0
0
0
0
0
0
0
0
0
0
0
0
0
0
0
0
0
0
0
0
0
0
0
0
0
0
0
0
0
0
0
0
0
0
0
0
0
0
0
0
0
0
0
0
0
0
0
0
0
0
0
0
0
0
0
0
0
1.17768e-08
0
0
0
0
1.18844e-10
0
0
0
2.01877e-09
7.26226e-09
9.01528e-09
2.393e-09
0
0
0
0
0
0
0
0
0
0
0
1.54749e-09
0
0
0
0
0
0
0
0
0
0
0
0
0
0
0
0
0
0
0
0
0
0
0
5.34642e-09
0
0
0
0
0
0
0
1.8086e-09
0
0
0
0
0
0
0
0
0
0
0
0
0
0
0
0
0
0
0
0
0
0
0
0
0
0
0
0
0
0
0
0
0
0
0
0
0
0
0
0
3.18411e-10
0
0
0
0
0
0
0
0
0
0
0
0
0
0
0
0
0
0
0
0
0
0
0
0
0
0
0
0
0
0
0
0
0
0
0
0
0
0
0
0
0
0
0
0
0
0
0
0
0
0
0
1.2661e-09
0
0
0
0
0
0
0
0
0
0
0
0
0
0
0
0
0
0
0
0
0
0
0
0
0
0
0
0
0
0
0
0
0
0
0
0
0
0
0
0
0
0
0
0
0
0
0
0
0
0
0
0
0
0
0
0
0
0
0
0
0
0
0
0
0
0
0
0
0
0
0
0
3.20503e-10
0
2.53077e-09
0
0
8.74002e-10
0
1.00542e-08
0
0
1.79971e-09
0
9.84408e-09
0
0
6.48682e-10
0
2.33061e-09
0
0
0
0
0
0
0
0
0
3.64451e-09
0
0
0
0
0
0
0
0
0
0
0
0
0
0
0
0
0
0
0
0
0
0
0
0
0
4.34793e-10
0
0
0
0
0
0
0
0
0
0
0
1.47961e-10
3.28732e-08
0
0
0
0
0
1.15626e-07
6.19437e-10
1.14405e-10
0
0
0
0
0
0
0
0
0
0
0
0
0
0
0
1.87845e-10
0
0
0
0
0
0
0
0
0
0
0
0
0
0
0
0
0
0
0
0
0
0
0
0
0
0
0
0
0
0
0
0
0
0
0
0
0
0
0
0
0
0
0
0
0
0
0
0
0
0
0
0
0
0
0
0
0
0
0
0
0
0
0
0
0
0
0
0
0
0
0
0
0
0
0
0
0
0
0
0
0
0
0
0
0
0
0
0
0
0
0
0
0
0
0
0
0
0
0
0
0
0
0
0
0
0
0
0
0
0
0
0
0
0
0
0
0
0
0
0
0
0
0
0
0
0
0
0
0
0
0
0
0
0
0
0
0
0
0
0
0
0
0
0
0
0
0
0
0
0
0
0
0
0
0
0
0
0
0
0
0
0
0
0
0
0
0
0
0
0
0
0
0
0
0
0
0
0
0
0
0
0
0
0
0
0
0
0
0
0
0
0
0
0
0
0
0
0
0
0
0
0
0
0
0
0
0
0
0
0
0
0
0
0
0
0
0
0
0
0
0
0
0
0
0
0
0
0
0
0
0
0
1.21795e-10
3.86884e-08
0
0
0
0
0
0
0
0
6.85683e-09
0
1.3783e-10
0
0
0
0
5.54813e-09
0
0
0
0
0
0
1.53175e-10
0
0
0
0
0
0
0
5.38265e-10
1.43597e-07
2.27376e-10
0
0
0
0
0
0
0
0
0
0
0
0
0
0
0
0
1.54827e-10
0
0
0
2.52884e-08
0
0
0
0
0
0
0
0
0
0
0
0
0
0
0
6.16777e-10
0
0
0
0
0
0
8.49987e-08
0
0
3.91831e-10
1.59845e-07
4.35014e-10
0
0
0
0
0
0
0
0
0
0
0
0
0
0
0
0
0
4.11175e-10
0
0
0
0
0
2.37462e-09
0
0
0
0
0
0
1.1311e-09
0
0
0
1.55476e-07
2.29328e-10
7.98097e-10
0
0
0
0
0
0
0
0
0
4.03661e-08
1.45388e-10
0
0
0
0
0
0
0
3.68085e-08
0
0
0
0
0
0
0
0
0
0
0
0
0
0
0
0
0
0
0
0
0
0
0
0
0
0
0
0
0
0
0
0
0
0
0
0
0
0
0
0
0
0
0
0
0
0
0
0
0
0
0
0
0
0
0
0
0
0
0
0
0
0
0
0
0
0
0
0
0
0
0
0
0
0
0
0
0
0
0
0
0
3.57996e-09
0
8.19698e-09
0
0
0
0
0
0
0
0
0
0
0
3.626e-08
0
2.60683e-10
0
0
0
0
0
0
0
0
0
0
0
0
0
0
0
5.44674e-10
5.78334e-08
0
0
7.28253e-09
0
2.20974e-08
0
1.25971e-08
0
2.16432e-10
0
2.85989e-09
4.26179e-09
0
0
0
5.37726e-10
0
0
4.45097e-10
0
0
0
0
2.68738e-08
1.02961e-10
1.39774e-09
0
0
0
0
1.27362e-07
1.42998e-10
1.78893e-08
0
0
0
0
2.32405e-09
0
8.30764e-08
0
7.19462e-10
0
1.5405e-08
0
0
0
0
0
0
4.94838e-05
0
1.10105e-05
1.52602e-05
3.43103e-05
1.20907e-05
4.41429e-05
4.02564e-05
1.79964e-05
1.98589e-05
0
0.00408216
0.00290781
0.00156853
0.00219774
0.000116417
3.69518e-05
6.48154e-05
3.97179e-10
3.87464e-06
0
0
0
1.17425e-10
0
1.82606e-05
0
0.000851082
0
0.000527641
1.99612e-05
2.05426e-05
3.74253e-10
2.67406e-06
7.53883e-05
0
0.000209448
0
0.000322004
6.64881e-06
5.24891e-06
7.88067e-06
3.77999e-06
0
0
0
0
0
0
0
0.0013322
6.30026e-10
0.00662144
4.47343e-07
2.13037e-10
0.000366206
0
0
0
0
2.7355e-06
0
5.18598e-10
0.000711143
0
0
7.75716e-10
0.0103538
8.67062e-07
0
0
3.02951e-05
0.00099242
1.1592e-06
9.60219e-05
0.0207327
5.00547e-05
0.000204208
0.0328805
9.79854e-05
0.00036148
0.000188639
0.0175335
0.00026034
8.81296e-05
0.0110848
8.9297e-06
1.08768e-08
2.17638e-08
3.31585e-08
0.0104406
0
4.205e-05
0
0.0125666
1.47916e-06
0
0.00730379
5.12943e-07
0.000109006
0
0.00519131
2.59778e-07
0
0.00891003
7.79271e-07
0
0.000316146
0
1.15942e-09
0
0.00113468
0
0
8.63597e-06
0.000200377
4.53318e-05
0.0208587
4.92649e-06
1.84968e-06
3.37246e-06
0.000110886
4.36984e-05
0.030562
7.55003e-05
0.00513804
0.000292565
1.18115e-07
2.05623e-05
3.722e-08
0
0.00119458
1.07432e-09
0
0
0.000527589
0
2.9191e-07
0
0.00199414
2.31753e-09
2.6605e-06
0
3.48748e-07
0
0.000759746
0
5.23595e-10
8.96624e-06
9.91453e-08
1.64925e-06
0
0.00165535
2.4745e-09
0
0.000390561
2.12611e-10
1.07623e-05
5.37323e-06
3.60369e-08
7.53657e-07
4.72183e-10
0.000581044
2.60609e-07
1.1778e-07
1.99094e-05
1.02753e-05
1.78687e-05
1.57632e-05
2.48322e-10
0.0291045
3.47237e-05
9.91817e-06
1.47287e-05
0.000130107
0.00310118
0.0014138
4.74387e-08
1.88608e-10
0.000289647
0
1.03253e-05
0
0.0020405
0.000926526
2.39173e-08
9.08096e-10
0.0154565
1.56802e-06
0
5.62712e-05
6.81675e-05
0
0.000184876
5.97728e-06
0.00016245
0.00803037
0.000410155
0.000185892
1.20193e-07
0.000816088
0
0
5.76307e-06
0
1.11425e-05
0
2.71123e-09
0.00241948
0
4.0069e-10
5.16822e-08
0.0157451
1.69824e-06
1.99082e-09
0.00113333
2.01864e-09
0
0.0123793
3.3903e-08
2.22288e-10
1.91869e-08
0.0236224
3.08451e-06
2.35043e-09
0.000846229
9.99927e-10
6.49151e-07
2.6024e-07
1.39497e-05
0.00114151
6.86551e-10
1.32904e-07
6.1719e-06
0.0100227
8.78365e-07
1.60322e-09
0.00658959
2.97886e-10
4.3307e-07
6.54386e-06
2.26116e-06
8.23825e-06
1.42909e-07
4.42356e-09
0.00423653
2.43944e-10
2.2258e-07
0
1.69186e-06
0
0.000689221
7.17447e-06
8.50105e-08
0.000200949
1.14212e-09
3.90088e-08
4.81746e-10
0.000113057
1.15542e-07
8.75072e-06
0.00438292
0
6.54957e-09
0.0024617
0
2.8795e-09
3.64495e-05
4.28227e-08
0.000421197
3.9656e-10
0.000158311
1.89917e-10
9.7978e-08
0.00260554
0.000564884
7.95589e-10
8.05553e-05
1.4036e-10
2.91196e-08
0.00153619
0.000126204
3.57207e-10
6.18543e-08
0.00237807
0.000248959
4.86657e-10
2.00456e-07
0.00405217
0
6.66536e-07
0
2.81168e-07
0
0.00205697
5.89432e-07
0
0
0
3.08183e-10
0
1.54494e-10
0
3.38326e-06
1.29882e-10
0.000799213
0
2.72486e-07
6.59443e-05
1.05073e-07
5.9078e-05
0
0
2.94595e-08
0
0.00775922
3.64265e-06
1.42511e-06
0
0
0
1.13554e-06
4.95001e-05
1.36512e-10
1.60192e-06
0
0
1.64583e-06
0.000130759
1.45824e-10
0.000332758
0
2.94846e-07
0
5.08239e-07
0
2.44296e-05
0.000274441
0.00476785
3.93925e-05
0
0.000869954
1.71789e-05
0.000474047
1.02882e-05
0.00030014
0.00139969
2.53526e-07
3.87638e-09
1.11036e-07
0.000799793
4.2544e-08
1.19311e-08
3.01578e-06
6.17327e-05
0.0013409
5.9108e-06
0
7.61594e-07
0
0.000173821
3.35563e-09
1.45679e-08
2.52285e-05
0.194095
6.02515e-05
1.74005e-05
0
7.27115e-09
0.0683102
2.77948e-05
0.000727724
0.000380749
0
2.2341e-06
1.47779e-10
0.00057283
3.25109e-07
8.94239e-06
1.03779e-05
0.0500677
6.77885e-09
4.00203e-07
0.00610739
1.22829e-09
0.000335973
0
1.28313e-07
0.00356997
0.000192351
5.93715e-06
5.9942e-09
0.0348699
8.34028e-05
1.84179e-08
8.99699e-10
0.156101
6.66692e-05
0.00169759
1.21993e-08
1.7542e-07
8.87091e-07
0.000579458
2.38301e-08
2.01452e-08
1.45049e-05
6.20455e-05
4.66953e-08
1.99082e-10
2.16187e-05
2.70142e-09
0.0713841
1.54e-10
0.000146957
3.46038e-09
0.12117
3.65213e-09
0.000424161
1.81982e-09
0.0507647
3.07057e-08
1.22956e-08
0
0.00420546
1.57977e-06
2.38985e-08
0.00515384
0
1.40008e-06
2.74953e-07
0.000630086
9.5726e-08
1.75539e-08
0.000107061
0.00294352
0
7.77203e-08
2.26358e-07
1.04802e-05
2.28482e-07
0
2.09722e-06
0
0.00134245
1.23588e-09
0
0
0.0008569
5.75168e-08
7.74243e-09
1.25126e-06
0.000232749
5.55886e-09
1.18836e-08
0.194795
1.38834e-05
2.7954e-05
1.40529e-10
7.38875e-09
0.0882728
4.47211e-05
3.96375e-05
0.0403795
8.94942e-10
0.00712328
0
1.5104e-08
9.11732e-06
0
1.25349e-07
0.00594403
7.06283e-07
7.0161e-06
0
1.98176e-07
0.00158445
0.000112456
1.11636e-09
0.000206638
0.0538737
9.91556e-09
1.06732e-09
7.04629e-06
0.0378742
0
1.57075e-06
0
3.39159e-05
0.0485395
6.18587e-10
0.00200558
9.3994e-05
3.25277e-06
5.03335e-09
0.0231427
0.00821441
6.85912e-07
0
7.8297e-05
0.0188413
2.5391e-07
0
1.74541e-06
2.70243e-06
0.0219713
1.00997e-09
0.000174794
0.102203
5.35439e-09
2.50894e-09
0.000394391
0.027227
1.05971e-09
3.14331e-05
0.081269
3.26335e-10
2.44154e-09
2.21084e-06
2.2657e-10
5.91727e-07
1.51804e-10
7.41312e-08
5.76281e-05
0.000858102
2.92456e-08
7.88172e-08
4.12913e-06
0
0.00320469
3.1168e-07
5.03975e-08
0.000101261
8.22312e-10
4.81914e-08
0
0.00137632
1.2065e-09
1.82605e-07
0.000295415
9.14905e-09
0.1807
8.65184e-09
7.1161e-06
0.00085957
4.74982e-09
7.40164e-08
4.90589e-07
4.29523e-05
7.10593e-09
0.107641
3.76016e-10
3.08465e-05
0.00541666
0
1.93441e-07
1.83993e-05
0.00115405
0
2.3955e-07
0.000211749
0.00221385
0
5.02977e-09
6.72475e-07
5.38329e-05
1.9016e-08
9.67268e-05
0.127323
3.43456e-10
0.00167965
1.99171e-08
2.3211e-06
1.35072e-07
0.000452611
3.08437e-08
2.86826e-05
1.28668e-08
0
7.09211e-07
0.000341431
0.0124755
5.85932e-10
6.07776e-07
1.72047e-10
3.15444e-07
0
0.0127141
3.13117e-08
0
0.000694008
4.8421e-10
6.48051e-08
1.53244e-06
0.00019601
0.0782879
1.72022e-09
7.4671e-09
4.35231e-05
0.0864806
2.08721e-09
5.94851e-10
4.45977e-06
0.0296533
1.06617e-09
0
1.11996e-06
0
6.00384e-09
0.00314933
0
1.68398e-06
0.0001407
0.000158144
4.70127e-08
2.10884e-09
1.53197e-06
0.00326333
0
3.08108e-08
4.08533e-07
2.86959e-05
0.00110793
6.1112e-08
4.60886e-08
0.00159951
2.16512e-07
7.06547e-09
3.21512e-07
0.000123364
1.85904e-09
0.179945
1.68565e-08
4.25873e-05
0.000701258
2.99879e-08
1.73602e-08
6.83608e-06
4.61687e-06
0
0.00656958
4.94664e-07
0
0
1.69275e-06
2.34027e-10
1.66723e-07
0
9.82128e-09
1.42662e-08
0
0.00582089
3.91538e-06
0
0.00609839
7.6464e-08
2.51392e-06
9.34346e-07
0
0.00206267
1.5421e-07
5.50106e-05
1.03565e-07
0.00272381
9.71427e-09
6.01177e-07
0
1.80192e-07
0.000335132
3.76366e-08
7.74842e-09
5.26619e-05
0.000426022
2.96242e-09
0.0825009
2.4079e-08
0.000116804
4.51043e-09
0.131668
2.35893e-09
0.00397638
0
6.56582e-09
3.96642e-06
4.39803e-08
0.00582421
0
8.52149e-07
1.17448e-06
0.000439812
1.0952e-07
0.000183478
9.78118e-09
0.00253844
0
1.12863e-07
2.4895e-05
1.56733e-07
3.39389e-06
4.40896e-07
0
9.33048e-07
0.000182807
4.45383e-07
0.0194583
1.02002e-10
5.66182e-06
9.87071e-07
3.32418e-05
1.85701e-08
0
0.0980524
0.00108477
4.35213e-05
1.68441e-06
4.01827e-09
0.0146743
0
0
0
0
0.00155515
3.07006e-08
9.90014e-08
5.72969e-06
0
0
0
7.10955e-07
0
1.19046e-06
0
4.84056e-09
0.0028462
0
4.89983e-07
0.000212884
0.0110638
0
1.86319e-07
3.89614e-06
0.0037349
0
3.82651e-07
0.000102025
7.34207e-07
1.21188e-10
1.7322e-05
3.97647e-06
3.35027e-05
1.04352e-06
2.82715e-10
7.64832e-06
0.00215492
2.78918e-09
0
0
0.00309553
1.77868e-08
5.38389e-07
0
5.08849e-07
0.00135221
4.46241e-08
1.32722e-05
6.91673e-08
0.000235851
4.33061e-08
8.95268e-05
4.30733e-09
1.06721e-07
0.0106391
0
1.26518e-06
0.00463368
0
2.80684e-07
4.50151e-05
1.57598e-06
5.84104e-07
5.7664e-08
0.00946936
0
3.90904e-07
3.20026e-06
3.00744e-06
2.57132e-06
0.00147846
0.00020434
0.00978187
3.45839e-10
7.80341e-07
1.01244e-09
0.0456105
0
1.06427e-05
0.00599577
3.80341e-07
0.0281267
0
5.12844e-06
0.000984949
2.17956e-08
0.00841693
6.46832e-07
0.0315768
0
7.32497e-06
0.00162547
0
4.6756e-08
0.0138219
3.81528e-10
1.33575e-06
0.0654157
2.20681e-09
8.41862e-05
0.0515726
9.09484e-10
1.32791e-10
1.53381e-05
1.58502e-07
1.23846e-10
0.0240762
0
0.00019842
0
1.26039e-08
0.00685328
1.36326e-07
0
5.11812e-07
0.0168711
0
0.000477181
4.73022e-07
0
3.09044e-05
0.00967831
0
1.45193e-08
0.00757554
6.91028e-08
0
0.0138868
0
0.000149956
0
3.06223e-07
1.13349e-05
0.0107035
0
5.93092e-09
0.00412965
0.0235187
0
3.42547e-06
0.0340598
9.78866e-05
0.00406423
1.12781e-10
2.1167e-07
0.0535136
4.02874e-10
2.74426e-05
3.99646e-10
0.0185368
0
2.18669e-06
0.0497664
3.05253e-09
9.36043e-05
0.00262834
0
1.08231e-07
0.0544929
2.4358e-10
2.10482e-05
2.53209e-06
6.22486e-10
1.34934e-06
4.14576e-10
1.57605e-07
6.41243e-07
4.74289e-10
7.13557e-07
2.55196e-10
6.55518e-08
5.35349e-06
0.03376
2.63582e-09
0.000354447
0.153727
1.27788e-08
3.40903e-06
6.64933e-09
0.00080453
9.05298e-08
2.75886e-09
6.29959e-05
0.123341
7.86573e-10
1.97705e-05
6.46242e-09
2.72823e-05
8.90569e-06
0.0458267
0
2.80458e-09
0.000400855
0.118818
1.79724e-08
4.56462e-09
0.000700221
1.51981e-09
8.79982e-05
0.132158
1.17844e-05
1.42608e-09
5.55443e-09
7.75507e-07
9.33103e-10
3.59542e-07
6.3894e-10
2.39413e-06
9.50822e-06
7.73394e-10
3.42234e-10
3.55038e-07
1.49237e-10
2.59598e-08
0.000565779
1.96742e-05
1.71718e-08
0.0715554
0.000284997
1.11761e-05
1.5055e-08
0.0496418
0.000135271
9.6165e-05
0.00019965
0.000278354
0
2.84019e-06
1.42154e-10
1.72623e-06
2.49028e-05
3.34191e-10
2.21955e-10
0.000407026
0
0
0
0.000139013
6.09039e-06
1.25311e-08
0.0328323
6.58577e-05
3.15372e-06
0.0207538
0.0141235
0
1.63135e-06
0.00243213
1.01269e-07
0.0322998
1.62199e-10
1.287e-05
0.0112112
0
1.05043e-06
0.00158297
5.1449e-08
0.0331247
0
9.96118e-06
0.003564
1.8163e-07
0.0167677
0
2.42067e-06
0.000348096
2.65165e-09
0.00496822
3.07022e-07
0.0186856
0
3.42621e-06
0.000580299
9.92983e-09
6.52584e-08
1.92783e-09
0
4.85002e-09
0.00323759
7.52847e-08
0
0.0181531
0.000963386
1.33963e-08
0
0.0781323
1.51568e-09
7.14023e-05
1.29005e-09
0.000548264
0
5.72588e-05
0.0855376
9.83442e-10
1.68735e-09
0.000587139
6.02581e-09
0
1.41897e-05
2.8285e-09
0.0588917
0
2.02152e-05
0
0
7.32963e-06
4.47814e-05
0
0
0
0
0
0
0
1.48864e-06
5.70369e-07
1.03437e-06
0
0
0
0
0
0
0
0
0
0
0
0
0
0
0
0
0
0
0
0
0
0
0
1.9185e-06
0
0
0
0
0
0
0
0
0
0
0
0
0
0
0
0
0
0
0
2.09958e-08
3.0336e-08
6.43113e-08
0
8.92023e-09
6.87617e-09
0
0
0
0
1.19337e-10
1.7719e-05
0
0
0
0
0
0
0
0
8.43526e-09
0
0
5.08868e-07
0
8.39079e-08
1.88192e-10
3.38655e-06
0
0
9.01847e-10
0
0
0
0
0
0
0
0
0
0
0
0
0
0
0
0
0
0
0
5.45175e-07
0
0
0
0
0
2.90826e-08
0
0
0
0
1.90547e-08
2.36148e-05
0
2.31563e-10
0
4.68623e-09
0
1.25444e-05
2.62106e-09
2.76329e-08
0
0
0
0
2.98604e-08
0
0
0
4.66437e-08
0
0
0
0
3.52776e-09
0
5.8417e-09
0
0
0
0
0
0
0
0
0
1.78812e-07
0
0
0
0
0
0
0
0
0
0
0
0
2.494e-07
0
0
0
0
8.74497e-10
0
8.27202e-07
0
0
0
0
5.04931e-08
0
0
0
0
0
0
0
0
0
0
0
0
0
0
0
0
0
0
0
0
0
0
0
0
0
0
0
0
0
0
0
0
0
0
0
0
0
1.30041e-10
0
0
0
0
0
0
0
0
0
0
0
0
0
0
0
0
0
0
0
0
0
0
0
0
0
0
0
0
0
0
0
0
0
0
0
0
0
0
0
0
0
0
7.65166e-08
6.93874e-05
0
0
0
3.4313e-06
0
0
0
0
0
0
0
0
0
0
0
4.43597e-07
0
0
0
0
0
0
0
0
0
0
0
0
0
0
0
0
0
0
0
0
0
0
0
0
0
0
4.56725e-08
0
0
0
0
0
0
0
0
0
0
0
0
0
0
0
5.32378e-06
0
0
0
0
4.46683e-09
0
0
0
0
0
0
0
0
0
0
0
0
0
0
0
0
0
0
0
0
0
0
0
0
0
0
0
0
0
0
0
0
0
0
0
0
0
0
0
0
7.392e-08
0
0
0
0
1.12268e-08
0
0
0
0
0
6.17942e-08
6.18919e-10
3.56151e-10
0
3.36407e-06
0
0
0
0
0
0
0
0
0
0
0
0
0
0
0
6.13856e-08
0
0
0
9.50917e-09
0
1.89973e-07
4.29365e-10
0
0
0
5.60017e-09
0
0
0
0
0
0
1.50523e-09
3.72952e-06
0
0
1.32159e-06
0
0
0
2.79336e-06
0
0
0
0
2.83464e-09
0
0
0
0
0
0
0
0
0
0
5.01265e-09
0
0
0
0
0
0
0
0
1.21316e-08
0
0
0
1.18583e-09
0
0
0
0
0
0
0
0
0
0
2.35424e-08
0
0
0
1.31529e-08
0
0
0
0
0
0
0
0
0
0
8.55261e-06
0
0
1.77032e-08
0
0
0
0
9.03254e-06
0
0
9.07898e-10
0
3.58993e-07
0
0
0
0
0
0
0
0
0
0
0
0
0
2.90735e-10
0
0
0
0
0
0
0
3.26934e-05
0
0
0
4.52778e-08
0
0
4.00571e-10
0
0
4.92732e-10
4.81509e-07
0
0
0
0
0
0
0
0
0
1.28849e-10
0
0
0
2.69013e-07
0
8.72605e-10
0
0
0
0
3.90398e-09
0
0
2.26863e-07
4.17612e-10
0
1.16275e-09
0
0
0
0
0
0
0
7.96732e-09
0
0
0
0
0
4.56246e-10
0
0
0
0
0
0
1.56523e-07
0
0
0
0
0
0
0
0
0
0
0
0
0
0
0
0
0
0
0
0
1.39207e-09
0
0
0
1.65054e-07
0
2.47173e-10
1.35045e-06
0
0
0
0
0
0
0
4.32593e-10
0
0
0
0
0
2.83046e-06
0
5.5009e-07
2.13482e-09
0
0
0
0
0
0
6.10384e-08
0
0
0
8.81118e-09
0
0
8.16885e-10
0
1.56279e-07
0
0
0
0
0
0
0
0
0
0
0
0
4.82698e-08
0
0
0
0
0
0
0
0
0
0
0
1.07883e-05
0
3.7715e-10
0
0
0
7.49987e-07
0
4.26277e-10
0
0
0
0
0
0
0
0
1.65201e-08
0
0
0
0
4.60064e-09
0
0
9.34376e-09
0
4.59413e-06
5.57287e-10
0
0
0
0
0
0
0
1.55471e-09
0
1.31917e-06
0
0
1.57591e-09
0
0
0
0
0
2.94999e-09
0
0
0
0
0
0
0
0
0
0
0
0
0
0
0
0
0
4.25269e-09
4.0366e-10
2.8792e-08
0
1.41064e-08
0
0
0
1.28305e-09
0
5.29209e-05
0
0
0
0
0
0
0
0
0
0
0
0
0
0
0
0
0
0
0
0
0
0
0
6.27045e-10
0
6.75334e-08
0
3.75294e-09
0
6.32657e-09
0
0
0
1.50824e-10
0
0
0
0
0
0
0
0
0
0
0
0
0
0
0
0
0
0
0
0
0
0
0
0
7.22282e-08
0
0
0
0
0
0
7.39619e-05
0
4.69505e-09
0
0
0
0
0
0
0
0
0
0
0
0
8.59921e-10
0
0
0
0
0
0
0
0
0
0
0
0
0
0
0
0
0
0
0
4.9589e-07
0
0
0
0
0
0
2.83489e-06
0
0
0
0
0
0
0
0
0
0
9.5276e-09
0
0
0
0
0
0
2.14293e-10
0
0
0
0
0
0
8.64364e-05
0
0
1.70918e-05
0
0
0
1.88776e-05
0
0
0
0
8.76859e-05
0
0
0
0
0
0
0
0
0
0
0
0
0
0
0
0
0
0
0
0
0
0
0
0
0
0
1.68609e-07
0
0
0
0
0
0
3.89874e-07
0
0
4.04937e-10
0
0
0
0
0
0
0
0
0
0
1.93431e-06
0
7.40208e-10
0
0
0
2.06421e-06
0
0
0
0
0
0
0
0
0
0
1.63221e-09
1.25753e-07
0
0
0
0
0
0
0
0
0
0
0
3.8389e-07
0
0
1.11214e-10
0
9.10869e-08
0
0
0
0
0
0
0
0
0
0
0
0
0
0
0
0
0
0
0
0
0
0
0
0
0
0
0
0
0
1.34509e-05
0
0
0
0
0
0
0
0
0
0
0
0
0
0
0
0
0
1.82491e-10
1.30701e-09
0
0
1.73037e-05
0
1.32212e-10
0
0
0
0
0
0
0
0
0
0
3.95005e-07
9.49588e-08
1.46466e-07
0.578405
0.691235
0.343351
0.457563
0.417186
0.314599
0.727177
5.72674e-10
2.70816e-09
2.88407e-09
2.42726e-09
5.24838e-10
4.59326e-10
3.83243e-10
3.04322e-10
1.36641e-08
0.0340602
1.25581e-08
0.0358571
0.154133
0.0261591
0.166927
0.0306333
0.245121
0.225536
0.0164889
0.0678138
0.021263
0.108692
0.100661
0.622327
3.93176e-08
0.0688437
0.524314
4.86249e-08
0.0745902
2.86346e-09
2.9366e-09
0.135047
0.0884444
0.0554492
1.40727e-08
1.41843e-08
1.33667e-08
6.06565e-08
1.21741e-08
5.6995e-08
0.0758943
0.0125331
0.252078
0.0238176
0.0122245
0.0406191
1.68341e-09
0.0125656
0.00153928
5.20041e-05
0.00378951
5.73022e-10
0.165221
1.29771e-09
0.010429
0.000951138
6.56269e-08
0.0464206
2.23493e-05
0.00449176
5.97498e-10
0.244459
2.16849e-08
0.0477478
0.726324
0.00474631
0.476162
0.000926211
0.00244254
0.00359478
4.27201e-09
1.97741e-09
0.00490386
0.0412878
2.07852e-09
3.00628e-08
0.0594246
0.694814
0.00398957
0.00812725
0.620319
0.00148436
0.00179827
3.1129e-09
1.01914e-09
0.00347258
0.0237415
1.72956e-09
0.00188934
0.00016692
1.27693e-09
3.73857e-09
0.138337
0.000262036
0.0677952
9.95393e-05
0.0208094
8.82431e-05
0.00675709
9.73143e-06
0.0462802
9.50504e-07
7.8398e-07
0.00145979
1.49836e-06
0.090231
3.16404e-07
0.0113865
1.59127e-06
2.80604e-08
0.00120456
0.29813
3.89395e-05
0.721962
0.00525791
0.822508
0.000796358
4.22625e-07
9.14552e-07
1.81272e-08
0.000639284
0.595439
0.00549768
4.6979e-07
0.00102208
0.496335
3.48385e-05
2.13355e-09
0.000164784
5.37484e-08
1.15912e-07
1.10287e-07
1.29489e-09
8.22517e-05
0.585177
5.10822e-05
4.5732e-08
8.56113e-08
0.000946197
1.01348e-10
0.096678
0.00861637
0.397012
0.000569445
0.0152082
0.527069
0.00269162
0.00304934
5.27913e-10
0.106896
0.00234529
4.6782e-10
0.0663365
0
0.000398935
6.91388e-05
0.215875
0.000110711
0.061385
0.588441
5.50646e-08
0.229577
0.370219
8.78656e-07
0.0409687
0.523382
3.35425e-08
0.205692
0.433907
6.67182e-07
0
0.000837712
0.000121712
0.295577
0.00012188
0
0.0817854
0.000258225
3.53196e-08
1.25404e-08
0.000107966
1.8332e-10
0
1.79845e-05
1.42003e-10
0.000127676
0.385684
0.000388422
0
0.189808
0.000532792
0
0.0355925
0.000341043
1.48803e-10
0.00346339
0.000126961
0.478376
5.59399e-08
1.90243e-07
1.72715e-07
3.15446e-07
3.05661e-07
1.51325e-07
9.3429e-08
1.86446e-07
2.18622e-07
3.41431e-09
0.000320287
0.387991
2.20132e-05
0.551528
1.11419e-10
0.00176646
2.33944e-09
3.76523e-05
0.778422
0
0.000323451
1.03205e-06
0.00173497
0.00377162
0.0620898
1.15558e-06
0.096226
0.222179
9.91751e-10
0.000270708
0.640038
6.96976e-05
5.30217e-09
0.000603376
0.277367
1.28267e-05
0.673764
0
0.001709
4.07545e-09
7.93673e-05
0.752075
0.000247058
6.90206e-09
0.000163929
0.000390633
7.98271e-09
0.00110053
1.13542e-08
0.000328717
0.000590874
0.00181711
5.82819e-10
1.94481e-10
0.00118115
0.149929
1.12008e-10
0.00122057
0.0227039
3.28572e-10
0.000207267
0.00173033
1.06999e-10
5.74431e-05
1.17418e-10
0
8.55584e-06
0
0.000323897
0.127265
0
0.00037583
0.0203892
0
0.000972631
0.00363474
8.04718e-10
3.76453e-10
0.588386
0.000490766
0
3.98719e-05
7.63937e-10
0.00140788
0.222714
1.19032e-10
0.00172739
0.0395573
3.99267e-10
0.106952
0.589814
1.2161e-07
0.562388
0.000119528
2.77919e-10
0.000419807
0.000196634
2.4082e-10
3.70315e-05
0.624637
0.000106233
3.97256e-10
7.4076e-05
4.0878e-10
0.000880112
0.00034665
0.0843335
0.610993
8.45164e-08
7.21187e-09
0.0291741
7.63898e-07
0.0305583
1.10894e-06