# vtk DataFile Version 2.0
Unstructured Grid by M++
ASCII
DATASET UNSTRUCTURED_GRID
POINTS 4225 float
  5.312500   3.437500 0
  8.750000   1.562500 0
  5.625000   2.187500 0
  9.062500   0.312500 0
  9.375000   0.937500 0
  9.687500   0.625000 0
  2.812500   1.562500 0
  4.687500   5.625000 0
  8.125000   3.750000 0
  5.625000   1.875000 0
  5.312500   3.125000 0
  8.750000   1.250000 0
  9.375000   1.250000 0
  9.687500   0.312500 0
  9.375000   1.562500 0
  3.750000  10.000000 0
  4.687500   5.312500 0
  8.125000   3.437500 0
  5.625000   1.562500 0
  5.312500   2.812500 0
  4.375000   6.562500 0
  7.812500   4.687500 0
  5.000000   3.750000 0
  4.687500   5.000000 0
  8.125000   3.125000 0
  5.625000   1.250000 0
  5.312500   2.500000 0
  7.500000   5.625000 0
  4.375000   6.250000 0
  7.812500   4.375000 0
  9.375000   0.625000 0
  8.437500   4.375000 0
 10.000000   7.812500 0
  6.562500   9.687500 0
  5.937500   9.687500 0
  6.250000   9.687500 0
  6.562500   8.437500 0
  0.625000  10.000000 0
  2.500000   2.500000 0
  3.750000   0.937500 0
  6.875000   0.312500 0
  0.937500   0.625000 0
  6.875000   0.625000 0
  0.937500   0.937500 0
  5.000000   0.312500 0
  3.437500  10.000000 0
  5.000000   2.500000 0
  4.687500   3.750000 0
 10.000000   8.125000 0
  6.562500  10.000000 0
  1.875000   3.125000 0
  7.812500   2.812500 0
  4.375000   4.687500 0
  1.250000   5.625000 0
  7.187500   5.312500 0
  1.562500   4.375000 0
  7.500000   4.062500 0
  6.562500   7.812500 0
  6.250000   9.062500 0
  2.187500   1.875000 0
  8.125000   1.562500 0
  4.687500   3.437500 0
  5.312500   2.187500 0
  3.437500   1.250000 0
  2.812500   2.187500 0
  3.125000   0.937500 0
  4.375000   0.625000 0
  4.062500   5.937500 0
 10.000000   5.625000 0
  0.625000   7.812500 0
  6.562500   7.500000 0
  3.437500   8.437500 0
  9.375000   8.125000 0
  5.937500  10.000000 0
  3.750000   7.187500 0
  9.687500   6.875000 0
  6.250000   8.750000 0
  7.500000   7.187500 0
  8.125000   4.687500 0
  7.812500   5.937500 0
  1.250000  10.000000 0
  7.187500   9.687500 0
  5.312500  10.000000 0
  7.187500   5.937500 0
  4.687500   4.062500 0
  4.375000   5.312500 0
  6.875000   7.187500 0
  2.500000   0.625000 0
  8.437500   0.312500 0
  3.125000   2.187500 0
  3.437500   0.937500 0
  5.000000   2.812500 0
  3.437500   1.875000 0
  3.750000   0.625000 0
  7.500000   4.687500 0
  1.562500   5.000000 0
  5.000000   3.125000 0
  2.500000   1.562500 0
  8.437500   1.250000 0
  7.812500   3.437500 0
  1.875000   3.750000 0
  5.312500   1.875000 0
  8.125000   2.187500 0
  2.187500   2.500000 0
  5.625000   0.625000 0
  8.437500   0.937500 0
  2.500000   1.250000 0
  4.062500  10.000000 0
 10.000000   5.312500 0
  4.062500   5.625000 0
  6.562500   7.187500 0
  0.625000   7.500000 0
  1.562500   4.062500 0
  7.500000   3.750000 0
  7.500000   3.437500 0
  1.562500   3.750000 0
  9.687500   6.562500 0
  3.750000   6.875000 0
  6.250000   8.437500 0
  0.312500   8.750000 0
  1.250000   5.312500 0
  7.187500   5.000000 0
  9.375000   7.812500 0
  3.437500   8.125000 0
  0.937500   6.562500 0
  6.875000   6.250000 0
  7.187500   3.437500 0
  1.250000   3.750000 0
  0.937500   5.312500 0
  6.875000   5.000000 0
  6.562500   5.937500 0
  0.625000   6.250000 0
  6.250000   7.187500 0
  0.312500   7.500000 0
  1.250000   4.062500 0
  7.187500   3.750000 0
  6.875000   4.687500 0
  0.937500   5.000000 0
  1.875000   1.562500 0
  7.812500   1.250000 0
  6.875000   3.437500 0
  0.937500   3.750000 0
  7.500000   0.937500 0
  1.562500   1.250000 0
  0.937500   4.062500 0
  6.875000   3.750000 0
  1.562500   1.562500 0
  7.500000   1.250000 0
  7.187500   2.187500 0
  1.250000   2.500000 0
  4.687500   0.625000 0
  8.750000   0.312500 0
  2.812500   0.625000 0
  7.187500   1.250000 0
  1.250000   1.562500 0
  0.937500   2.500000 0
  6.875000   2.187500 0
  0.625000   3.750000 0
  6.562500   3.437500 0
  1.250000   1.250000 0
  7.187500   0.937500 0
  6.875000   2.812500 0
  0.937500   3.125000 0
  6.562500   4.062500 0
  0.625000   4.375000 0
  7.500000   0.312500 0
  1.562500   0.625000 0
  7.187500   1.562500 0
  1.250000   1.875000 0
  6.875000   9.687500 0
  0.937500  10.000000 0
  0.625000   4.062500 0
  6.562500   3.750000 0
  5.000000  10.000000 0
  8.437500  10.000000 0
  2.812500   9.062500 0
  8.750000   8.750000 0
  6.250000  10.000000 0
  6.562500   8.750000 0
  2.500000  10.000000 0
  8.437500   9.687500 0
  4.375000   5.625000 0
  1.875000   4.062500 0
  7.812500   3.750000 0
 10.000000   6.562500 0
  4.062500   6.875000 0
  7.500000   5.000000 0
  6.875000   7.500000 0
  9.687500   7.812500 0
  3.750000   8.125000 0
  7.187500   6.250000 0
 10.000000   8.437500 0
-10.000000  10.000000 0
 -4.687500   2.500000 0
  5.000000  -4.375000 0
-10.000000   5.312500 0
 -9.687500   4.062500 0
-10.000000 -10.000000 0
 -5.000000   2.500000 0
 -8.437500   4.375000 0
 -0.625000   1.875000 0
 -1.250000   4.375000 0
 -4.687500   6.250000 0
 -0.937500   2.812500 0
 -4.375000   4.687500 0
 -1.250000   4.062500 0
 -4.687500   5.937500 0
 -2.812500  10.000000 0
 -1.250000   3.750000 0
 -4.687500   5.625000 0
 -0.312500   0.937500 0
-10.000000   7.812500 0
 -1.250000   4.687500 0
  1.875000  -6.875000 0
 -9.375000   9.375000 0
 -9.062500   8.437500 0
 -9.375000   9.687500 0
 -5.937500   7.812500 0
 -9.687500   9.062500 0
 -5.625000   7.812500 0
 -5.312500   6.562500 0
 -8.750000   8.437500 0
 -5.000000   5.312500 0
 -5.312500   2.500000 0
 -8.750000   4.375000 0
 -5.625000   3.750000 0
 -9.062500   5.625000 0
 -9.375000  10.000000 0
 -5.937500   8.125000 0
 -9.062500   8.750000 0
 -5.625000   6.875000 0
 -6.250000   5.312500 0
 -9.687500   7.187500 0
  0.000000   0.312500 0
 -0.625000   4.062500 0
  5.937500  -9.375000 0
  5.000000   5.000000 0
 -0.937500   5.312500 0
  1.562500   6.875000 0
 -4.375000   7.187500 0
  5.625000  -8.125000 0
  9.375000 -10.000000 0
  5.937500  -8.125000 0
 -9.687500   6.875000 0
  0.000000   0.000000 0
  9.375000   6.562500 0
  3.437500   6.875000 0
 -2.500000   7.187500 0
 -7.812500  -4.375000 0
 -5.937500   5.000000 0
 -9.375000   6.875000 0
  0.312500   0.000000 0
-10.000000   4.687500 0
 -7.187500  -6.250000 0
 -9.062500   5.000000 0
 -6.250000   5.625000 0
 -9.687500   7.500000 0
  0.000000   0.625000 0
 -9.062500   9.062500 0
 -5.625000   7.187500 0
 -5.000000   6.250000 0
 -7.187500   2.812500 0
  5.625000   4.062500 0
 -0.312500   4.375000 0
  2.187500   5.937500 0
  8.125000   5.625000 0
 -3.750000   6.250000 0
  6.250000  -9.062500 0
  3.125000   2.500000 0
 -2.812500   2.812500 0
  5.312500   5.312500 0
 -0.625000   5.625000 0
  9.375000  -9.687500 0
 -0.625000   2.812500 0
  1.875000   4.375000 0
 -4.062500   4.687500 0
 -0.312500   1.562500 0
-10.000000   8.437500 0
 -0.937500   4.062500 0
  5.625000  -9.375000 0
 -1.250000   5.312500 0
  1.875000  -6.250000 0
  5.312500  -8.125000 0
  0.312500   5.000000 0
  6.250000   4.687500 0
 -5.625000   5.312500 0
 -8.750000  -3.437500 0
  4.062500   1.875000 0
 10.000000   1.562500 0
 -1.875000   2.187500 0
 -8.437500  -4.687500 0
 -9.375000  -1.562500 0
  1.250000  -6.250000 0
 -5.312500   7.187500 0
  6.250000  -9.375000 0
 -9.375000  -1.875000 0
-10.000000   5.000000 0
 -8.750000  -3.750000 0
 -5.937500   5.312500 0
 -9.375000   7.187500 0
  0.312500   0.312500 0
  0.937500  -5.312500 0
 -5.625000   8.125000 0
 -5.312500   6.875000 0
 -9.375000   9.062500 0
 -0.312500   3.125000 0
 -7.500000   2.812500 0
  5.312500   4.062500 0
 -0.625000   4.375000 0
  1.875000   5.937500 0
 -4.062500   6.250000 0
  5.937500  -9.062500 0
  1.562500   7.187500 0
 -4.375000   7.500000 0
  5.625000  -7.812500 0
  5.000000   5.312500 0
 -0.937500   5.625000 0
  9.062500  -9.687500 0
  5.937500   5.312500 0
  0.000000   5.625000 0
 -5.937500   5.937500 0
 -9.062500  -2.812500 0
  1.875000   5.000000 0
 -4.062500   5.312500 0
  5.937500 -10.000000 0
 -0.625000   3.437500 0
  5.312500  -7.500000 0
 -1.250000   5.937500 0
 -0.312500   2.187500 0
-10.000000   9.062500 0
  0.937500   8.750000 0
 -5.000000   9.062500 0
  5.000000  -6.250000 0
  8.750000  -9.375000 0
  2.812500  -9.062500 0
 -9.687500   9.375000 0
 -5.000000   5.625000 0
 -9.062500  -2.187500 0
 -0.625000   0.312500 0
  9.062500  -6.562500 0
 -0.625000   2.500000 0
 -4.062500   4.375000 0
 -8.125000   9.062500 0
 -2.187500   8.750000 0
  3.437500   9.687500 0
 -2.500000  10.000000 0
 -0.312500   1.250000 0
-10.000000   8.125000 0
 -1.250000   5.000000 0
 -2.187500   8.437500 0
 -8.125000   8.750000 0
  1.875000  -6.562500 0
  5.312500  -8.437500 0
 -9.687500   8.437500 0
  0.000000   1.562500 0
 -9.687500  10.000000 0
 -9.375000   8.750000 0
 -0.625000   3.125000 0
  1.875000   4.687500 0
 -4.062500   5.000000 0
  0.625000   9.687500 0
 -5.312500  10.000000 0
  4.687500  -5.312500 0
  3.750000   9.062500 0
 -8.125000   9.687500 0
 -2.187500   9.375000 0
 -0.312500   1.875000 0
-10.000000   8.750000 0
 -0.937500   4.375000 0
  2.187500  -7.187500 0
  5.625000  -9.062500 0
 -1.250000   5.625000 0
  3.750000   8.750000 0
 -2.187500   9.062500 0
 -8.125000   9.375000 0
  1.875000  -5.937500 0
  5.312500  -7.812500 0
  4.375000   6.875000 0
 -1.562500   7.187500 0
 -7.500000   7.500000 0
  8.437500  -8.125000 0
  2.500000  -7.812500 0
  0.000000   0.937500 0
 -9.687500   7.812500 0
 -0.937500   4.687500 0
  4.062500   7.812500 0
 -1.875000   8.125000 0
 -7.812500   8.437500 0
  2.187500  -6.875000 0
  5.625000  -8.750000 0
  5.625000   3.125000 0
 -0.312500   3.437500 0
  2.187500   5.000000 0
 -3.750000   5.312500 0
  6.250000 -10.000000 0
 -7.500000   3.125000 0
  5.000000   5.625000 0
 -0.937500   5.937500 0
  9.062500  -9.375000 0
  1.562500   7.500000 0
 -4.375000   7.812500 0
  5.625000  -7.500000 0
  5.937500  -8.750000 0
 -9.062500   9.375000 0
 -5.625000   7.500000 0
 -8.750000   8.125000 0
 -5.312500   6.250000 0
 -4.375000   2.812500 0
  5.312500  -4.062500 0
  5.937500   3.125000 0
  0.000000   3.437500 0
  2.500000   5.000000 0
[...]
CELL_DATA 4096
SCALARS scalar_value float 1
LOOKUP_TABLE default
0
0
0
0
0
0
0
0
0
0
0
0
0
0
0
0
0
0
0
0
0
0
0
0
0
0
0
0
0
1.74202e-09
7.71952e-09
1.79284e-09
4.3005e-10
0
0
0
0
1.11304e-09
2.5943e-09
0
0
0
0
0
0
0
0
0
4.66421e-10
8.43562e-09
3.67612e-08
1.90519e-07
5.00619e-08
0
0
0
0
0
0
0
0
0
0
0
0
0
0
0
0
0
0
2.76126e-10
0
0
2.29534e-10
0
2.23054e-09
1.05194e-10
0
0
0
0
0
0
0
0
0
0
0
0
5.41549e-10
2.88047e-10
0
0
0
0
0
0
0
0
0
0
0
0
0
0
0
0
0
0
3.13874e-10
0
0
2.90313e-08
0
0
0
0
0
0
0
0
0
0
0
0
0
0
0
0
0
0
0
0
0
0
0
0
0
0
0
0
0
0
0
0
0
0
0
0
0
0
0
0
0
0
0
0
0
0
0
0
0
0
0
0
0
0
0
0
0
0
0
0
0
0
0
2.48301e-07
0
0
0
0
3.52379e-09
0
0
0
4.10757e-08
1.30694e-07
1.4135e-07
4.26195e-08
0
0
0
0
0
0
0
0
0
0
0
3.59775e-08
0
0
0
0
0
0
0
0
0
0
0
0
0
0
0
0
0
0
0
0
0
0
0
1.10347e-07
5.25926e-09
1.09093e-09
0
0
0
0
0
2.19001e-08
0
0
0
0
0
0
0
0
0
0
0
3.03503e-09
1.91051e-10
0
0
0
0
0
0
0
0
0
0
0
0
0
0
0
0
0
0
0
0
0
0
0
0
0
0
0
9.50957e-09
0
0
0
0
0
0
0
0
0
0
0
0
0
0
0
0
0
1.24884e-09
9.45532e-10
0
0
0
0
0
0
0
0
0
0
0
0
0
0
0
0
0
0
0
0
0
0
0
0
0
0
0
0
0
0
0
0
4.58888e-08
0
0
0
0
0
0
0
1.26352e-09
0
0
0
0
0
0
0
0
0
0
0
0
0
0
0
0
0
0
0
0
0
0
0
0
0
0
0
0
0
0
0
0
0
0
0
0
0
0
9.23337e-10
0
0
0
0
0
0
0
0
0
0
0
3.73359e-10
0
0
0
0
0
0
0
0
0
0
0
0
0
1.51313e-08
1.50151e-10
3.94923e-08
5.3146e-10
0
3.7161e-08
5.84135e-10
1.37273e-07
1.47066e-09
0
6.70043e-08
3.52111e-10
1.17077e-07
2.37167e-09
0
2.68461e-08
0
3.19469e-08
8.39547e-10
0
0
0
0
0
1.06316e-09
0
0
8.61855e-08
0
0
0
0
0
0
0
0
0
0
0
0
0
0
0
0
0
0
0
0
0
0
0
0
0
1.14058e-08
0
0
0
0
0
0
0
3.11468e-10
0
0
0
3.04874e-09
4.55001e-07
2.31844e-09
0
0
0
0
1.41664e-06
1.10881e-08
5.99921e-09
0
0
0
0
0
0
0
0
0
0
0
0
0
0
1.00744e-09
1.03868e-08
0
0
0
5.00075e-10
0
0
0
0
0
0
0
0
0
2.77704e-10
4.35062e-09
0
0
0
1.87441e-10
0
0
0
0
0
0
0
0
0
0
1.4759e-10
0
0
0
0
0
0
0
0
0
0
0
0
0
0
0
0
0
0
0
0
0
0
0
0
0
0
0
0
0
0
0
0
0
0
0
0
0
0
0
0
0
0
0
0
0
0
0
0
0
0
0
0
0
0
0
0
0
0
0
0
0
0
0
0
0
0
0
0
0
0
0
0
0
0
0
0
0
0
0
0
0
0
0
0
0
0
0
0
0
0
0
0
0
0
0
0
0
0
0
0
0
0
0
0
0
0
0
0
0
0
0
0
0
0
0
0
0
0
0
0
0
0
0
0
0
0
0
0
0
0
0
0
0
0
0
0
0
0
0
0
0
0
0
0
0
0
0
0
0
0
0
0
0
0
0
0
0
0
0
0
0
0
0
0
0
0
0
0
0
0
0
0
0
0
0
0
0
0
0
0
0
0
0
0
0
0
0
0
0
0
0
0
0
0
0
0
0
0
0
0
0
0
2.24869e-09
4.6389e-07
3.97269e-09
0
0
0
0
0
0
0
1.95095e-07
0
5.33568e-09
0
1.10231e-10
0
0
5.05648e-08
0
0
0
0
0
2.19011e-10
8.24225e-09
0
0
0
3.21992e-10
0
0
0
8.54459e-09
1.51766e-06
1.04642e-08
0
2.90298e-10
0
0
0
0
0
0
0
0
0
0
0
0
0
0
3.58782e-09
0
0
0
4.03375e-07
1.30384e-09
0
0
0
0
0
0
0
0
0
0
0
0
0
0
1.25128e-08
1.15945e-10
0
0
0
0
0
1.20418e-06
3.31918e-09
0
5.56861e-09
1.45313e-06
1.75559e-08
0
4.27021e-10
1.22052e-10
0
0
0
0
0
0
0
0
0
0
0
0
0
8.234e-10
1.99458e-08
0
0
0
0
8.74247e-10
7.5297e-08
0
1.80192e-09
0
0
0
0
1.22439e-08
0
0
0
1.21182e-06
2.96977e-09
2.82201e-08
0
5.94027e-10
2.70526e-10
0
0
0
0
0
1.40424e-09
4.18647e-07
6.53667e-09
0
1.41094e-10
0
0
0
0
0
6.92752e-07
0
0
0
0
0
0
0
0
0
1.87682e-10
0
0
0
0
0
0
0
0
0
0
0
0
0
0
0
0
0
0
0
0
0
0
0
0
0
0
0
0
0
0
0
0
0
0
0
0
0
0
0
0
0
0
0
0
0
0
0
0
0
0
0
0
0
0
0
0
0
0
0
0
0
0
0
0
0
0
0
0
0
0
0
1.16585e-07
1.76818e-10
8.50896e-08
3.65056e-09
0
0
0
0
0
0
0
0
0
0
3.24944e-07
7.23104e-10
1.02853e-08
0
1.9143e-10
1.1959e-10
0
0
0
0
0
0
0
0
0
0
0
0
1.2557e-08
9.4528e-07
1.77729e-09
0
1.76142e-07
0
4.78034e-07
0
3.1275e-07
0
7.35983e-09
0
2.32316e-08
1.18096e-07
0
2.41944e-09
0
5.3344e-09
0
3.00777e-10
1.54006e-08
0
2.43497e-10
2.57331e-10
0
2.08197e-07
1.25439e-09
4.32627e-08
0
7.76301e-10
5.87542e-10
0
8.48172e-07
3.74348e-09
3.28317e-07
7.08738e-10
0
1.08684e-10
4.13045e-10
6.29075e-08
0
4.71225e-07
1.00938e-10
2.18162e-08
0
1.03679e-07
0
0
0
2.32869e-09
1.17658e-10
5.09366e-10
0.000165475
2.49219e-10
4.11985e-05
0.000211049
0.000417664
0.000171796
0.000520965
0.000481083
0.000243815
0.000265135
0
0.0124102
0.00982486
0.00551648
0.00696153
0.000824748
0.00030042
0.000474584
2.16888e-08
6.49194e-05
5.93031e-09
2.66513e-09
5.31391e-09
8.10549e-09
4.4347e-09
0.000240608
5.9953e-10
0.00321923
2.44279e-10
0.00235261
0.000262946
0.000271752
2.09282e-08
4.67574e-05
0.000391029
1.35939e-10
0.0010005
3.32378e-10
0.0013005
0.000104423
8.48609e-05
0.000121
6.45402e-05
0
0
0
0
2.8128e-09
6.1472e-09
1.45027e-09
0.00425566
2.91173e-08
0.0248272
6.35047e-06
1.2938e-08
0.00256991
0
0
0
0
2.66698e-05
0
2.76435e-08
0.00432571
0
0
3.59568e-08
0.0375532
1.21352e-05
0
0
0.00021433
0.00233394
3.25431e-06
0.00100152
0.0520491
0.00031975
0.001882
0.0711901
0.000603328
0.000740804
0.00175238
0.0381014
0.000651634
0.000928706
0.0281371
0.000132516
2.47335e-07
4.98636e-07
9.91554e-07
0.039717
2.45058e-09
0.000169684
2.17009e-10
0.0352933
1.58569e-05
0
0.0213312
5.44639e-06
0.000477361
1.77198e-10
0.016868
3.017e-06
0
0.0278709
9.17723e-06
0
0.00165442
0
5.63897e-08
1.04199e-10
0.00668088
0
0
6.94418e-05
0.00127706
0.000531203
0.0602508
4.36407e-05
1.63863e-05
2.72633e-05
0.000731184
0.000510923
0.0881505
0.000808606
0.013328
0.00211286
3.22332e-06
0.000185603
1.10163e-06
4.21785e-10
0.00504047
4.69908e-08
3.39296e-10
0
0.00341565
3.79981e-10
7.06359e-06
1.03842e-09
0.00717241
8.87664e-08
4.45677e-05
1.38413e-09
6.84471e-06
0
0.00415849
1.10264e-10
2.69478e-08
0.000125912
1.98374e-06
2.62065e-05
1.5134e-10
0.00951888
1.10289e-07
0
0.0022472
1.20932e-08
4.84675e-05
7.96867e-05
8.02161e-07
1.30166e-05
2.61756e-08
0.00393439
1.05849e-06
3.90699e-07
0.000167235
8.90307e-05
0.000139941
0.000208602
1.14233e-08
0.0969539
0.000263038
2.42708e-05
0.000107403
0.00125051
0.00699869
0.00797926
9.86603e-07
1.19074e-08
0.00225299
5.71392e-10
3.15849e-05
3.45569e-09
0.00548342
0.0053774
4.9586e-07
4.23376e-08
0.0543059
2.1463e-05
1.17553e-09
0.000153727
0.000150263
5.8232e-10
0.00109782
4.40628e-05
0.00153004
0.0176756
0.00156744
0.00137944
3.23128e-06
0.00299045
0
0
5.5207e-05
1.0683e-10
0.000103754
6.98839e-10
1.07141e-07
0.00978879
0
2.37853e-08
1.18814e-06
0.0511386
2.1485e-05
8.25218e-08
0.00732922
9.44547e-08
4.17277e-09
0.0412734
9.67593e-07
1.41957e-08
4.90127e-07
0.0742194
3.8063e-05
9.78329e-08
0.00557758
5.08108e-08
1.06551e-05
4.70326e-06
0.000186929
0.0037709
3.80705e-08
2.76258e-06
9.4517e-05
0.0336957
1.13165e-05
6.63813e-08
0.026692
1.54367e-08
6.70037e-06
8.99093e-05
9.60605e-06
0.00012206
2.90252e-06
9.83278e-08
0.0177173
1.25794e-08
3.47836e-06
2.67868e-10
5.91872e-06
1.8997e-09
0.0019519
0.000106572
1.75282e-06
0.00137932
2.44889e-08
8.89584e-07
1.12547e-08
0.000863565
3.07474e-06
0.000132136
0.0172048
1.10964e-09
2.34778e-07
0.0111983
4.42949e-10
1.17931e-07
0.000319054
1.27153e-06
0.00317957
2.29548e-08
0.000878689
9.75948e-09
1.52184e-06
0.0112659
0.00417127
4.24106e-08
0.000464475
7.18664e-09
4.411e-07
0.00687654
0.000656656
1.64759e-08
8.57998e-07
0.00956646
0.00124556
2.24656e-08
2.84148e-06
0.0157278
1.54062e-10
1.45402e-05
1.12058e-09
6.65624e-06
2.22322e-10
0.0113102
1.31472e-05
1.28787e-09
1.28636e-09
2.84076e-09
1.87013e-08
1.31116e-09
1.01792e-08
5.98527e-10
5.88523e-05
7.59257e-09
0.00503831
4.57029e-10
6.71633e-06
0.000519304
2.78008e-06
0.000403505
1.39038e-10
0
9.27274e-07
1.35781e-09
0.0336123
6.06847e-05
2.8076e-05
3.14841e-09
5.41091e-10
0
2.26517e-05
0.000302235
8.59708e-09
3.092e-05
2.72448e-09
3.7571e-10
3.14117e-05
0.000734742
8.956e-09
0.00221639
2.99424e-10
7.04012e-06
1.72926e-10
9.82431e-06
0
0.000161402
0.00231273
0.00906317
0.000235593
4.99122e-09
0.00403665
0.000105057
0.00228275
6.9106e-05
0.00160498
0.00894426
5.97693e-06
1.67838e-07
1.86756e-06
0.00580012
1.14158e-06
4.54758e-07
3.9204e-05
0.000333948
0.00559735
8.83585e-05
3.23135e-09
1.34176e-05
0
0.00149678
1.03006e-07
5.32116e-07
0.000283754
0.404756
0.000660096
0.00018315
9.65681e-10
2.74687e-07
0.179855
0.000154619
0.00315573
0.00171706
2.40657e-10
4.10741e-05
8.89148e-09
0.00197524
6.14217e-06
0.000131439
0.000112224
0.136089
2.53449e-07
5.17297e-06
0.0212798
5.09082e-08
0.00192628
9.05108e-10
1.62903e-06
0.0129066
0.000903022
6.6028e-05
2.22716e-07
0.097983
0.000749545
6.38904e-07
2.68603e-08
0.344301
0.000682071
0.0107828
4.59529e-07
4.14997e-06
1.20513e-05
0.00430316
8.26458e-07
5.52271e-07
0.000160795
0.000527383
1.39671e-06
5.06563e-09
0.000241796
1.19028e-07
0.19945
5.49142e-09
0.00137502
1.5416e-07
0.273695
1.23413e-07
0.00345348
8.87704e-08
0.095027
9.09318e-07
4.42122e-07
5.35321e-10
0.0208287
2.95905e-05
7.95307e-07
0.0253877
7.11345e-10
2.6202e-05
3.46639e-06
0.00433531
2.73412e-06
4.42389e-07
0.000907725
0.0168094
5.55433e-10
2.29121e-06
4.88136e-06
0.000101646
4.56093e-06
0
3.54206e-05
8.12814e-10
0.00706703
5.77716e-08
1.7458e-10
0
0.00617498
1.53067e-06
3.12114e-07
1.78098e-05
0.00196912
1.70395e-07
4.49066e-07
0.396127
0.000165806
0.000286877
4.42545e-09
2.83297e-07
0.225471
0.000504734
0.00046445
0.116997
3.71577e-08
0.027408
1.68645e-09
4.9331e-07
0.000136138
1.26485e-09
3.42434e-06
0.0297272
1.34793e-05
6.42018e-05
5.69699e-10
5.15336e-06
0.00952894
0.000872436
5.81289e-08
0.00189924
0.117033
3.29254e-07
5.18112e-08
8.97643e-05
0.122147
8.27783e-10
2.68318e-05
4.19489e-10
0.000399849
0.141976
2.56967e-08
0.00753188
0.000459607
3.71749e-05
1.86539e-07
0.0673156
0.0376363
1.49019e-05
3.64947e-09
0.000515142
0.0719936
6.02548e-06
5.69106e-09
1.45039e-05
3.60886e-05
0.0748941
4.7528e-08
0.00161954
0.226984
1.79809e-07
1.17084e-07
0.00322879
0.0508033
5.53152e-08
0.000344682
0.221525
1.19618e-08
1.10409e-07
1.56879e-05
1.40167e-08
1.22719e-05
1.0185e-08
1.84649e-06
0.000517266
0.00578224
7.30668e-07
2.32243e-06
4.38982e-05
5.01579e-10
0.0181024
6.64571e-06
1.56861e-06
0.000837173
2.17809e-08
1.45853e-06
2.79384e-10
0.0064837
5.44371e-08
3.17449e-06
0.00246248
3.59705e-07
0.35915
2.63411e-07
9.09883e-05
0.00618187
2.03677e-07
1.95915e-06
7.69497e-06
0.000430626
2.77838e-07
0.267168
1.2273e-08
0.000361351
0.0274503
1.39522e-09
5.01019e-06
0.000153501
0.00709816
5.22763e-10
6.0473e-06
0.0015547
0.0125319
2.10448e-10
2.06407e-07
1.41613e-05
0.00049586
6.47825e-07
0.00095549
0.289538
9.92211e-09
0.0107165
7.05756e-07
2.85875e-05
3.2176e-06
0.00341734
1.02942e-06
0.000297248
3.562e-07
9.2794e-10
1.52142e-05
0.00282682
0.023378
3.28968e-08
4.86785e-06
1.11224e-08
7.02101e-06
6.68838e-09
0.037053
8.56957e-07
1.68996e-10
0.00342475
2.41629e-08
1.25503e-06
2.29842e-05
0.00180507
0.171581
8.45632e-08
2.49159e-07
0.000469091
0.230501
9.73735e-08
2.2157e-08
5.81242e-05
0.0982297
5.08463e-08
1.70236e-10
1.9405e-05
1.798e-10
2.34495e-07
0.0157885
3.85058e-10
3.17061e-05
0.00125581
0.00127403
1.44662e-06
5.75437e-08
1.79834e-05
0.0183057
4.32394e-10
1.01872e-06
8.63791e-06
0.000275231
0.00733016
1.86869e-06
1.13714e-06
0.0101628
5.10373e-06
2.84555e-07
4.84702e-06
0.00108398
5.66239e-08
0.385575
5.98436e-07
0.000454921
0.00513753
8.1301e-07
6.29317e-07
8.17439e-05
6.96914e-05
1.91106e-09
0.0307444
8.87814e-06
0
2.24527e-09
3.21876e-05
1.48042e-08
3.7995e-06
6.02792e-09
2.87507e-07
4.87811e-07
9.77509e-10
0.0254257
6.5451e-05
1.09395e-09
0.0302098
2.21733e-06
2.54302e-05
1.76564e-05
5.92064e-10
0.0121586
4.15551e-06
0.000455443
2.29877e-06
0.0152839
3.68909e-07
1.26278e-05
2.79937e-10
2.62691e-06
0.00257957
1.21585e-06
2.15611e-07
0.000514682
0.00346726
1.35768e-07
0.155824
7.15836e-07
0.00110731
1.92904e-07
0.303401
7.99982e-08
0.0176467
6.72694e-10
2.45132e-07
6.68404e-05
1.36219e-06
0.0286996
9.0286e-10
9.59478e-06
2.20473e-05
0.00309706
3.04939e-06
0.00148324
2.46645e-07
0.0147055
5.87037e-10
3.17115e-06
0.000222082
3.4265e-06
4.99609e-05
2.14957e-06
3.64335e-09
1.94963e-05
0.0011184
9.9077e-06
0.0751814
6.85285e-09
4.2098e-05
9.57627e-06
0.000314425
6.24265e-07
2.23394e-09
0.230232
0.00423622
0.000220017
1.96771e-05
1.49012e-07
0.0442378
0
0
0
0
0.0100079
1.02945e-06
2.3816e-06
6.44168e-05
0
0
0
1.50752e-05
7.29255e-10
2.4079e-05
3.46833e-09
1.20627e-07
0.0152778
1.41066e-09
1.12397e-05
0.00142415
0.0484011
2.75523e-09
4.73441e-06
3.38548e-05
0.0196159
1.47351e-09
9.08234e-06
0.000727206
1.54134e-05
7.86337e-09
0.000116168
6.39154e-05
0.000161355
2.03016e-05
1.68247e-08
4.84334e-05
0.0110209
1.1891e-07
2.6496e-10
0
0.0173218
6.28477e-07
7.02331e-06
3.5595e-10
1.07041e-05
0.00880914
1.42457e-06
0.000137247
1.6841e-06
0.0018552
1.36172e-06
0.000832514
1.19428e-07
2.89477e-06
0.0461642
2.28097e-09
1.22593e-05
0.0238716
1.46809e-09
6.93702e-06
0.000345436
2.66659e-05
3.38307e-06
1.67999e-06
0.0409432
1.80137e-09
4.2506e-06
5.3359e-05
4.7464e-05
1.30734e-05
0.00289038
0.00176527
0.0384364
1.80569e-08
1.18432e-05
5.02608e-08
0.1435
2.40698e-09
0.000132797
0.0263501
6.39711e-06
0.0996694
1.0339e-09
7.13904e-05
0.00528558
4.05552e-07
0.0359981
1.06594e-05
0.109657
2.33013e-09
0.000100248
0.00782978
4.17434e-09
7.95162e-07
0.0527722
2.01386e-08
1.98178e-05
0.16587
8.24259e-08
0.000877193
0.158649
4.64e-08
5.33247e-09
0.000187896
3.81046e-06
8.41018e-09
0.0797549
1.00297e-09
0.000604234
4.19733e-09
3.80842e-07
0.0203389
3.47347e-06
4.50516e-09
4.78523e-06
0.0640256
8.00767e-10
0.0016192
1.07559e-05
3.48547e-09
0.00022102
0.0435286
2.74311e-09
4.55043e-07
0.0256313
1.90199e-06
3.40124e-09
0.0526053
4.24911e-10
0.000550182
3.1737e-09
7.33656e-06
8.89751e-05
0.0473964
1.72469e-09
2.0506e-07
0.0143206
0.0852554
3.47451e-10
4.86194e-05
0.0852704
0.00101593
0.0183866
6.53161e-09
3.61742e-06
0.158657
1.66787e-08
0.00032668
2.14099e-08
0.068893
0
3.17103e-05
0.125061
1.13539e-07
0.00097132
0.0122603
5.3539e-09
1.86019e-06
0.164326
9.97967e-09
0.000253809
1.52615e-05
3.40637e-08
2.44275e-05
2.45111e-08
3.42149e-06
4.37982e-06
2.70941e-08
1.38568e-05
1.60763e-08
1.56463e-06
6.43367e-05
0.102754
1.10569e-07
0.00292026
0.299406
3.85653e-07
4.7036e-05
2.7356e-07
0.00580309
2.39129e-06
1.26543e-07
0.000618358
0.298017
2.62941e-08
0.000242289
2.58968e-07
0.000340496
0.000104309
0.135326
4.09358e-10
1.19051e-07
0.00327591
0.227469
5.37835e-07
1.97643e-07
0.00509411
7.49626e-08
0.000847744
0.311482
0.000152304
4.82448e-08
2.29324e-07
1.41674e-05
4.93685e-08
7.13855e-06
3.56398e-08
4.06905e-05
5.09759e-05
4.07572e-08
2.05185e-08
7.44557e-06
1.00676e-08
6.84669e-07
0.0022999
0.000191418
5.72172e-07
0.173722
0.00120715
0.000111986
4.9927e-07
0.124773
0.000509828
0.000400203
0.00079657
0.00100292
1.75815e-09
5.06325e-05
8.41465e-09
3.17253e-05
0.000141975
1.92303e-08
1.30187e-08
0.00258295
0
5.90166e-09
0
0.000614111
6.28428e-05
4.15159e-07
0.0855371
0.000302248
3.33756e-05
0.0561082
0.0575554
1.43034e-10
2.57974e-05
0.0122893
1.91006e-06
0.1087
7.40847e-09
0.000171682
0.0467535
0
1.69476e-05
0.00823631
9.71632e-07
0.113053
4.40904e-09
0.000134391
0.0175193
3.38353e-06
0.0669349
4.35378e-10
3.7594e-05
0.00214714
5.21597e-08
0.0238038
5.61802e-06
0.0732682
9.98318e-10
5.23862e-05
0.00346935
2.02012e-07
1.47044e-06
4.67919e-08
2.52047e-09
1.62498e-07
0.0098984
1.96655e-06
6.06399e-09
0.0601275
0.0047988
2.21492e-07
3.08412e-09
0.200758
5.68094e-08
0.000749928
6.50937e-08
0.00282787
2.1437e-09
0.000608266
0.223511
3.68663e-08
8.16446e-08
0.00325452
1.08695e-07
1.30227e-09
0.000162244
1.22037e-07
0.169007
1.93344e-09
0.000260468
0
0
2.13958e-06
1.35795e-05
0
0
0
0
0
0
0
2.59913e-07
9.70769e-08
2.90274e-07
0
0
0
0
0
0
0
0
0
0
0
0
0
0
0
0
0
0
0
0
0
0
0
4.71409e-07
0
0
0
0
0
0
0
0
0
0
0
0
0
0
0
0
0
0
0
3.50155e-09
5.24302e-09
1.26669e-08
0
1.51705e-09
1.35418e-09
0
0
0
0
0
3.11591e-06
0
0
0
0
0
3.6644e-10
0
0
1.5627e-09
0
0
1.01356e-07
0
1.48579e-08
0
6.88694e-07
0
0
1.56074e-10
0
0
0
0
0
0
0
0
0
0
0
0
0
0
0
0
0
0
0
1.0186e-07
0
0
0
0
1.34626e-10
5.31065e-09
0
0
0
0
3.74947e-09
8.48944e-06
0
0
0
9.97948e-10
0
3.19078e-06
6.15792e-10
6.51028e-09
0
0
0
0
4.89886e-09
0
0
0
9.94542e-09
0
0
0
0
6.15837e-10
0
1.86231e-08
0
0
0
0
0
0
0
0
0
2.9842e-08
0
0
0
0
0
0
0
0
0
0
0
0
5.96663e-08
0
0
0
0
1.51395e-10
0
6.91727e-07
0
0
0
0
1.60699e-08
0
0
0
0
0
0
0
0
0
0
0
0
0
0
0
0
0
0
0
0
0
0
0
0
0
0
0
0
0
0
0
0
0
0
0
0
0
0
0
0
0
0
0
0
0
0
0
0
0
0
0
0
0
0
0
0
0
0
0
0
0
0
0
0
0
0
0
0
0
0
0
0
0
0
0
0
0
0
0
0
1.29453e-08
1.83041e-05
0
0
0
1.18937e-06
0
0
0
0
0
0
0
0
0
0
0
1.46918e-07
0
0
0
0
0
0
0
0
0
0
0
0
0
0
0
0
0
0
0
0
0
0
0
0
0
0
7.52403e-09
0
0
0
0
0
0
0
0
0
0
0
0
0
0
0
9.17376e-07
0
0
0
0
7.36046e-10
0
0
0
0
0
0
0
0
0
0
0
0
0
0
0
0
0
0
0
0
0
0
0
0
0
0
0
0
0
0
0
0
0
0
0
0
0
0
0
0
1.3681e-08
0
0
0
0
1.99576e-09
0
0
0
0
0
1.16856e-08
1.7672e-09
0
0
6.4012e-07
0
0
0
0
0
0
0
0
0
0
0
0
0
0
0
5.46891e-08
0
0
0
1.80155e-09
1.77095e-10
3.47279e-08
1.98013e-09
0
0
0
1.15245e-09
0
0
0
0
0
0
3.30042e-09
6.45106e-07
0
0
2.23449e-07
0
0
0
4.74061e-07
0
0
0
0
4.65024e-10
0
0
0
0
0
0
0
0
0
0
1.55378e-09
0
0
0
0
0
0
0
0
2.893e-08
0
0
0
3.14471e-10
0
0
0
0
0
0
0
0
0
0
2.66176e-08
0
0
0
3.50768e-09
0
0
0
0
0
0
0
0
0
0
1.48212e-06
0
0
2.8911e-09
0
0
0
0
1.60013e-06
0
0
1.62523e-10
0
3.70969e-07
0
0
0
0
0
0
0
0
0
0
0
0
0
2.54016e-10
0
0
0
0
0
0
0
5.91586e-06
0
0
0
7.53128e-09
0
0
0
0
0
7.64178e-10
2.59354e-07
0
0
0
0
0
0
0
0
0
0
0
0
0
4.49814e-08
0
1.80664e-10
0
0
0
0
7.18149e-10
0
0
3.92265e-08
0
0
7.39094e-10
0
0
0
0
0
0
0
1.36149e-09
0
0
0
0
0
0
0
0
0
0
0
0
6.33887e-08
0
0
0
0
0
0
0
0
0
0
0
0
0
0
0
0
0
0
0
0
1.67216e-09
0
0
0
2.72037e-08
0
0
5.74994e-07
0
0
0
0
0
0
0
1.32633e-10
0
0
0
0
0
6.2593e-07
0
9.78785e-08
3.60503e-10
0
0
0
0
0
0
1.03985e-08
0
0
0
1.55795e-09
0
0
1.53106e-10
0
1.98913e-07
0
0
0
0
0
0
0
0
0
0
0
0
2.4837e-08
0
0
0
0
0
0
0
0
0
0
0
4.71905e-06
0
0
0
0
0
1.25104e-07
0
0
0
0
0
0
0
0
0
0
6.35584e-09
0
0
0
0
2.22276e-09
0
0
1.32381e-08
0
2.48654e-06
0
0
0
0
0
0
0
0
5.75799e-10
0
2.23378e-07
0
0
3.40646e-10
0
0
0
0
0
5.8291e-10
0
0
0
0
0
0
0
0
0
0
0
0
0
0
0
0
0
3.85887e-09
0
5.5458e-08
0
9.55783e-09
0
0
0
2.45536e-10
0
9.99773e-06
0
0
0
0
0
0
0
0
0
0
0
0
0
0
0
0
0
0
0
0
0
0
0
1.2485e-10
0
1.05733e-07
0
6.61414e-09
0
1.05643e-09
0
0
0
0
0
0
0
0
0
0
0
0
0
0
0
0
0
0
0
0
0
0
0
0
0
0
0
0
1.27447e-08
0
0
0
0
0
0
1.48055e-05
0
7.78478e-10
0
0
0
0
0
0
0
0
0
0
0
0
1.43103e-10
0
0
0
0
0
0
0
0
0
0
0
0
0
0
0
0
0
0
0
8.8186e-08
0
0
0
0
0
0
5.12225e-07
0
0
0
0
0
0
0
0
0
0
1.56186e-09
0
0
0
0
0
0
0
0
0
0
0
0
0
2.03856e-05
0
0
3.89782e-06
0
0
0
3.94536e-06
0
0
0
0
1.88882e-05
0
0
0
0
0
0
0
0
0
0
0
0
0
0
0
0
0
0
0
0
0
0
0
0
0
0
1.16865e-07
0
0
0
0
0
0
6.68416e-08
0
0
1.85096e-10
0
0
0
0
0
0
0
0
0
0
1.30286e-06
0
1.2529e-10
0
0
0
3.58873e-07
0
0
0
0
0
0
0
0
0
0
2.68713e-10
3.41888e-08
0
0
0
0
0
0
0
0
0
0
0
6.37464e-08
0
0
0
0
1.49425e-08
0
0
0
0
0
0
0
0
0
0
0
0
0
0
0
0
0
0
0
0
0
0
0
0
0
0
0
0
0
2.48217e-06
0
0
0
0
0
0
0
0
0
0
0
0
0
0
0
0
0
3.59078e-10
2.3558e-10
0
0
3.37268e-06
0
0
0
0
0
0
0
0
0
0
0
0
8.53255e-08
5.79173e-08
8.43343e-08
0.641648
0.737425
0.412875
0.528262
0.537267
0.421461
0.695053
2.04834e-10
9.06758e-10
1.02454e-09
7.66563e-10
1.76886e-10
1.4598e-10
1.14958e-10
0
4.54851e-09
0.0115672
3.94467e-09
0.0116198
0.224016
0.00976973
0.218264
0.0109073
0.307244
0.314577
0.00678496
0.0967061
0.00833347
0.148365
0.152569
0.742639
1.03983e-08
0.0216727
0.649679
1.35846e-08
0.0245786
1.14718e-09
1.10753e-09
0.218506
0.149069
0.0974361
5.27149e-09
5.00724e-09
5.31584e-09
2.39375e-08
5.14255e-09
1.68373e-08
0.0261858
0.00425107
0.284458
0.00926925
0.00528398
0.0605596
4.74288e-10
0.00337236
0.000334575
9.54072e-06
0.00130733
2.45818e-10
0.175812
3.45922e-10
0.00267475
0.00019825
2.44152e-08
0.0193296
3.97387e-06
0.00147596
2.41134e-10
0.248864
5.15877e-09
0.013734
0.806333
0.00107442
0.410499
0.000530261
0.00129239
0.00644878
2.45297e-09
1.81542e-09
0.00202342
0.0556342
1.0008e-09
7.53535e-09
0.0178787
0.799298
0.002266
0.00192016
0.552335
0.000827278
0.00338453
1.90222e-09
9.92935e-10
0.00150674
0.0334995
8.86053e-10
0.00170206
0.000201532
1.26738e-09
3.23519e-09
0.0963485
5.02391e-05
0.0460712
1.84803e-05
0.015957
6.21504e-05
0.00515799
7.43383e-06
0.027066
3.88924e-07
5.02856e-07
0.00150379
8.21525e-07
0.0403236
1.10303e-07
0.00879839
7.55564e-07
1.758e-08
0.000886732
0.149858
7.42268e-06
0.619779
0.00142923
0.539311
0.000178262
2.86626e-07
5.29596e-07
1.20563e-08
0.000496247
0.532888
0.00156576
7.90584e-07
0.00146862
0.242835
7.34657e-06
1.64329e-09
0.000126707
2.25095e-08
5.72786e-08
7.31245e-08
1.06119e-09
6.68111e-05
0.298494
1.12615e-05
2.03318e-08
4.48784e-08
0.00033936
0
0.0974733
0.00207967
0.38748
0.000382877
0.00383188
0.529938
0.00177552
0.00110501
2.40815e-10
0.118975