# vtk DataFile Version 2.0
Unstructured Grid by M++
ASCII
DATASET UNSTRUCTURED_GRID
POINTS 1089 float
  6.250000   0.625000 0
  5.625000   0.625000 0
  1.250000   7.500000 0
  4.375000   3.750000 0
  0.625000   8.125000 0
  5.000000   4.375000 0
  8.750000   4.375000 0
  1.875000   8.125000 0
  4.375000   4.375000 0
  1.250000   8.125000 0
  2.500000   8.750000 0
  9.375000   5.000000 0
  5.000000   3.750000 0
  8.750000   8.125000 0
  8.750000   8.750000 0
  9.375000   4.375000 0
  2.500000   8.125000 0
  9.375000   8.750000 0
 10.000000   8.750000 0
  5.000000   3.125000 0
  1.875000   6.875000 0
  4.375000   6.875000 0
  3.750000   8.125000 0
  4.375000   8.125000 0
  7.500000   4.375000 0
  9.375000   0.625000 0
  4.375000   8.750000 0
  7.500000   5.000000 0
  3.750000   8.750000 0
  1.250000   8.750000 0
  4.375000   5.000000 0
  9.375000   1.250000 0
  3.750000   9.375000 0
  7.500000   5.625000 0
  4.375000   9.375000 0
  7.500000   6.250000 0
  4.375000  10.000000 0
  5.000000   1.875000 0
  5.000000   2.500000 0
  7.500000   6.875000 0
  5.625000   1.250000 0
  6.875000   6.875000 0
  5.625000   1.875000 0
  5.625000   2.500000 0
  6.875000   6.250000 0
  3.750000  10.000000 0
  8.750000   7.500000 0
  6.250000   7.500000 0
  6.250000   8.125000 0
  7.500000  10.000000 0
  1.875000   8.750000 0
  8.750000   5.000000 0
  5.000000   6.875000 0
  8.125000   3.125000 0
  6.250000  10.000000 0
  5.625000  10.000000 0
  8.125000   2.500000 0
  8.750000   1.250000 0
  6.250000   9.375000 0
  6.875000  10.000000 0
  1.875000   7.500000 0
  8.750000   3.750000 0
  7.500000   3.125000 0
  0.625000   6.875000 0
  5.625000   9.375000 0
  8.750000   0.625000 0
  6.250000   8.750000 0
  5.625000   7.500000 0
  8.125000   3.750000 0
  5.000000   7.500000 0
  4.375000   5.625000 0
  8.125000   5.625000 0
  1.250000   9.375000 0
  0.625000   7.500000 0
  7.500000   3.750000 0
  4.375000   7.500000 0
  3.750000   5.625000 0
  0.625000   9.375000 0
  6.875000   8.125000 0
  5.000000   8.750000 0
  8.125000   5.000000 0
  8.750000   6.875000 0
  3.750000   6.875000 0
  5.625000   8.750000 0
  1.250000   5.000000 0
  8.125000   1.250000 0
  9.375000   6.875000 0
  5.000000   9.375000 0
  7.500000   7.500000 0
  5.000000   8.125000 0
  8.125000   4.375000 0
  3.750000   6.250000 0
  0.625000  10.000000 0
 10.000000   8.125000 0
 10.000000   3.750000 0
  3.125000   7.500000 0
  6.875000   8.750000 0
  9.375000   7.500000 0
  5.625000   8.125000 0
  4.375000   6.250000 0
  6.875000   9.375000 0
  0.625000   8.750000 0
  7.500000   9.375000 0
  7.500000   8.750000 0
  7.500000   8.125000 0
  6.875000   7.500000 0
 10.000000   6.875000 0
  9.375000   8.125000 0
  9.375000   3.750000 0
  2.500000   7.500000 0
 10.000000   7.500000 0
  3.750000   7.500000 0
  5.000000  10.000000 0
  6.250000   6.875000 0
  1.250000   4.375000 0
  8.125000   0.625000 0
  7.500000   1.250000 0
  0.625000   5.000000 0
  5.625000   6.875000 0
  8.750000   3.125000 0
  8.750000   2.500000 0
  1.250000   6.875000 0
  3.125000   6.875000 0
 10.000000   3.125000 0
  2.500000   6.875000 0
  9.375000   3.125000 0
  8.125000   1.875000 0
  1.250000   5.625000 0
 10.000000  10.000000 0
  9.375000  10.000000 0
  9.375000   9.375000 0
 10.000000   9.375000 0
  8.750000  10.000000 0
  8.750000   9.375000 0
  8.750000   1.875000 0
  8.125000   6.875000 0
  8.125000   7.500000 0
  1.250000  10.000000 0
  8.125000   6.250000 0
  0.625000   0.625000 0
  9.375000   6.250000 0
  2.500000  10.000000 0
  8.750000   6.250000 0
  1.875000  10.000000 0
  8.750000   5.625000 0
  1.875000   9.375000 0
  9.375000   5.625000 0
  2.500000   9.375000 0
 10.000000   5.625000 0
  3.125000   9.375000 0
 10.000000   6.250000 0
  3.125000  10.000000 0
 10.000000   5.000000 0
  3.125000   8.750000 0
 10.000000   4.375000 0
  3.125000   8.125000 0
  8.125000   9.375000 0
  8.125000  10.000000 0
  8.125000   8.750000 0
  8.125000   8.125000 0
  7.500000   1.875000 0
  0.625000   5.625000 0
  7.500000   2.500000 0
  0.625000   6.250000 0
  9.375000   0.000000 0
  1.875000   1.875000 0
  8.750000  -1.875000 0
  5.000000  -6.250000 0
  4.375000  -6.250000 0
 -5.000000  -9.375000 0
 -5.625000  -6.875000 0
 -8.750000   5.625000 0
  5.625000  -5.000000 0
  5.000000  -2.500000 0
 -6.250000  -9.375000 0
 -6.875000  -6.875000 0
  3.125000   5.625000 0
 10.000000   1.875000 0
 -3.750000   9.375000 0
  3.750000   3.125000 0
 -3.125000   6.875000 0
  4.375000   0.625000 0
 -2.500000   4.375000 0
  6.250000   5.625000 0
 -0.625000   9.375000 0
 -7.500000 -10.000000 0
 -8.125000  -7.500000 0
  6.875000   3.125000 0
  0.000000   6.875000 0
 -6.875000   5.625000 0
 -4.375000  -4.375000 0
 -3.750000  -6.875000 0
 -6.875000   5.000000 0
 -5.000000  -2.500000 0
 -4.375000  -5.000000 0
 -3.750000  -7.500000 0
 -6.250000   5.000000 0
 -6.250000   5.625000 0
  3.125000  -8.125000 0
 -3.750000  -4.375000 0
 -5.625000   3.125000 0
  0.625000   1.250000 0
  7.500000  -2.500000 0
 -6.875000   6.250000 0
 -3.750000  -6.250000 0
 -6.250000   3.750000 0
  1.250000  -2.500000 0
 -5.625000   1.250000 0
 -7.500000   5.625000 0
 -5.000000  -4.375000 0
 -4.375000  -6.875000 0
 -5.625000  -1.875000 0
 -6.875000   3.125000 0
 -6.250000   0.625000 0
 -4.375000   1.875000 0
 -5.000000   4.375000 0
  9.375000  -6.250000 0
 10.000000  -8.750000 0
  6.875000   4.375000 0
  0.000000   8.125000 0
 -7.500000  -8.750000 0
 -6.250000   4.375000 0
 -7.500000   6.875000 0
 -3.750000  -8.125000 0
 -5.625000  -0.625000 0
 -4.375000  -5.625000 0
 -5.000000  -3.125000 0
 -6.875000   4.375000 0
-10.000000   7.500000 0
 -6.250000  -7.500000 0
 -5.625000 -10.000000 0
  4.375000  -3.125000 0
 -5.000000 -10.000000 0
 -5.625000  -7.500000 0
 -9.375000   7.500000 0
  5.000000  -3.125000 0
 -5.625000   5.000000 0
 -5.000000   2.500000 0
  8.750000  -5.625000 0
  1.250000   0.625000 0
  8.125000  -3.125000 0
  9.375000  -8.125000 0
 -5.625000   4.375000 0
  8.750000  -6.250000 0
 -5.625000  -8.125000 0
 -9.375000   6.875000 0
  5.000000  -3.750000 0
 -6.250000  -8.125000 0
-10.000000   6.875000 0
  3.750000  -1.250000 0
  3.750000   4.375000 0
 -3.125000   8.125000 0
  4.375000   1.875000 0
 -2.500000   5.625000 0
 -6.250000  -8.750000 0
  3.750000   3.750000 0
 -3.125000   7.500000 0
  4.375000   1.250000 0
 -2.500000   5.000000 0
  3.125000   6.250000 0
 10.000000   2.500000 0
 -3.750000  10.000000 0
 -5.625000  -8.750000 0
-10.000000   8.750000 0
 -9.375000   6.250000 0
  4.375000  -1.875000 0
  5.000000  -4.375000 0
 -9.375000   5.000000 0
 -2.500000   1.250000 0
 -7.500000  -2.500000 0
 -0.625000  -6.250000 0
 -6.875000  -5.000000 0
  0.000000  -8.750000 0
 -8.125000   0.000000 0
 -1.250000  -3.750000 0
 -8.750000   5.000000 0
 -1.875000   1.250000 0
 -8.125000   2.500000 0
 -1.250000  -1.250000 0
 -6.250000  -5.000000 0
  0.625000  -8.750000 0
  4.375000   3.125000 0
 -2.500000   6.875000 0
  5.000000   0.625000 0
 -1.875000   4.375000 0
 -5.625000  -9.375000 0
 -0.625000  -5.625000 0
 -7.500000  -1.875000 0
  0.000000  -8.125000 0
 -6.875000  -4.375000 0
 -6.250000  -6.875000 0
-10.000000   8.125000 0
 -1.875000  -0.625000 0
 -8.750000   3.125000 0
 -2.500000   1.875000 0
 -9.375000   5.625000 0
  4.375000  -2.500000 0
 -8.125000   5.625000 0
 -6.875000   0.625000 0
 -7.500000   3.125000 0
 -7.500000  -5.625000 0
 -6.875000  -8.125000 0
 -8.125000  -3.125000 0
 -8.750000   4.375000 0
 -1.875000   0.625000 0
 -6.875000  -3.125000 0
  0.000000  -6.875000 0
 -6.250000  -5.625000 0
  0.625000  -9.375000 0
 -9.375000   4.375000 0
 -2.500000   0.625000 0
 -6.875000  -5.625000 0
  0.000000  -9.375000 0
 -8.125000  -0.625000 0
 -1.250000  -4.375000 0
 -8.750000   1.875000 0
 -1.875000  -1.875000 0
 -7.500000  -3.125000 0
 -0.625000  -6.875000 0
 -5.000000  -8.750000 0
 -1.875000   1.875000 0
  5.000000  -1.875000 0
  5.625000  -4.375000 0
 -4.375000 -10.000000 0
 -5.000000  -7.500000 0
 -1.875000   3.125000 0
  5.000000  -0.625000 0
  6.250000  -5.625000 0
  5.625000  -3.125000 0
 -5.000000  -8.125000 0
 -1.875000   2.500000 0
  5.000000  -1.250000 0
  5.625000  -3.750000 0
  3.750000   0.000000 0
 -3.125000   3.750000 0
  2.500000   5.000000 0
 -4.375000   8.750000 0
  3.125000   2.500000 0
 -3.750000   6.250000 0
 -8.750000  -2.500000 0
 -8.125000  -5.000000 0
 -9.375000   0.000000 0
 -7.500000  -7.500000 0
-10.000000   2.500000 0
  0.625000   3.125000 0
  7.500000  -0.625000 0
 -6.250000   6.875000 0
 -3.750000 -10.000000 0
 -4.375000  -7.500000 0
  6.875000  -5.625000 0
 -8.125000   3.125000 0
 -1.250000  -0.625000 0
 -6.250000  -4.375000 0
  0.625000  -8.125000 0
 -3.750000   3.750000 0
  1.875000   5.000000 0
 -5.000000   8.750000 0
  2.500000   2.500000 0
 -4.375000   6.250000 0
 -9.375000  -1.875000 0
-10.000000   0.625000 0
 -5.625000   8.125000 0
 -5.000000   5.625000 0
 -4.375000  -8.125000 0
  6.875000  -6.250000 0
  6.250000  -3.750000 0
  3.750000   0.625000 0
 -3.125000   4.375000 0
  9.375000   1.875000 0
  2.500000   5.625000 0
 -4.375000   9.375000 0
  3.125000   3.125000 0
 -3.750000   6.875000 0
 -8.750000  -1.875000 0
 -6.875000  -9.375000 0
  0.000000  10.000000 0
 -7.500000  -6.875000 0
 -8.125000  -4.375000 0
 -9.375000   0.625000 0
 -7.500000  -6.250000 0
 -8.750000  -1.250000 0
 -8.125000  -3.750000 0
 -6.875000  -8.750000 0
 -9.375000   8.750000 0
  9.375000  -8.750000 0
 -7.500000  -4.375000 0
 -0.625000  -8.125000 0
-10.000000   5.625000 0
 -3.125000   1.875000 0
 -9.375000   3.125000 0
 -2.500000  -0.625000 0
 -8.750000   0.625000 0
 -1.875000  -3.125000 0
 -8.125000  -1.875000 0
 -1.250000  -5.625000 0
 -8.125000  -5.625000 0
 -9.375000  -0.625000 0
 -8.750000  -3.125000 0
-10.000000   1.875000 0
 -5.625000   8.750000 0
 -5.000000   6.250000 0
  1.875000   5.625000 0
 -5.000000   9.375000 0
  3.125000   0.625000 0
 -3.750000   4.375000 0
  2.500000   3.125000 0
 -4.375000   6.875000 0
  1.875000   6.250000 0
 -5.000000  10.000000 0
  2.500000   3.750000 0
 -4.375000   7.500000 0
  3.125000   1.250000 0
[...]
CELL_DATA 1024
SCALARS scalar_value float 1
LOOKUP_TABLE default
0.000532169
2.87578e-05
0.00014473
-0.000510824
-3.81944e-07
4.80054e-07
4.84095e-08
-4.50281e-07
1.27646e-08
-0.000643268
-4.16301e-08
0.000187747
4.42041e-09
4.12707e-08
0.00312941
-0.000333055
-0.000194887
9.19831e-05
-1.97837e-07
9.72047e-05
4.38301e-07
2.8806e-05
7.52701e-07
-1.11308e-05
1.66209e-07
-3.22209e-05
-1.11387e-07
-2.49948e-08
-1.04108e-07
3.09159e-07
2.31703e-07
8.19607e-05
2.21883e-05
0.000560275
0.000450114
6.17861e-09
9.80192e-09
-1.38142e-08
6.68523e-09
-0.000811349
0.015247
0
-2.72745e-05
1.79374
0
-2.18393e-06
2.96226
4.07092e-06
0.000181493
-2.79649e-09
-0.00320323
4.42167e-07
-0.00428005
7.43825e-09
-8.24644e-09
1.67615e-06
0
-7.56606e-07
0
-1.59087e-08
2.00518e-08
0.0682565
-3.48701e-06
0
-3.48742e-05
8.37004e-10
0
-0.000767336
2.38014e-08
-1.33137e-10
1.11686e-09
-8.02332e-09
0.000113507
-1.12023e-09
-8.64463e-10
-3.65031e-09
6.22658e-10
-1.10121e-10
5.28961e-06
1.92763e-06
0.0725746
2.10169e-10
0.00020316
-8.20428e-09
-1.57893e-06
0.00145374
0.00319344
-1.96164e-08
5.7617e-07
-0.00309595
0.000905774
-2.67991e-07
-0.000644008
0.171142
3.48476e-09
-0.00478447
-5.15274e-08
-0.000817426
-3.45265e-05
2.07
0
0.0774329
4.17876e-06
0.866112
0
2.61851e-10
9.53377e-06
0.00423261
-3.1908e-05
-0.000315936
-5.2705e-08
0.00514169
2.36257e-06
-2.69381e-06
4.16908e-06
-0.000703026
1.31325e-07
0.408012
-1.37071e-06
9.80554e-10
1.04293e-06
0.511289
0.000179528
0.536886
-4.64951e-06
0.00326651
-0.00126
2.96332e-06
1.941
-5.04057e-05
0
-0.0032184
0.159921
0
0.000106566
6.49949e-06
0.00201036
1.42008e-07
0.00507208
0
3.41149
-1.39771e-08
-4.09523e-05
0.953831
-0.000456995
1.00288e-05
0.560385
0.000190999
1.51402
0
-1.96394e-06
-1.35945e-05
6.70564e-07
7.47466e-05
0
2.27619
1.18131e-09
1.61031e-05
1.17724e-07
-3.0291e-05
-7.77022e-05
-4.88624e-06
0
0.966535
-4.68231e-06
-3.89769e-07
0.000404916
0.00440806
-0.00559669
5.79713e-07
7.71165e-07
1.52524e-09
-9.38219e-08
9.3038e-06
-2.2449e-06
0.000601105
-2.8323e-05
-5.81074e-08
0.000224033
-4.45625e-05
1.53336e-09
0.000729583
1.59699e-08
-1.49909e-06
3.51152e-09
1.36166e-07
-1.25873e-09
1.75518e-07
1.15857e-06
9.81673e-10
0.000289397
-2.27936e-05
1.7026e-09
2.98313e-06
-6.49188e-05
-5.35628e-06
-4.06453e-05
-3.9169e-07
-4.35348e-07
-3.11937e-07
1.56684e-07
3.55751e-07
1.69438e-05
7.08149e-05
-0.00177057
-0.00352726
-3.21455e-06
2.28086e-08
-2.8352e-06
0.0543686
1.00174e-05
2.14989e-08
-0.000344106
0.0149549
-4.70164e-06
7.93836e-06
1.31901e-06
-2.39338e-10
-3.67221e-07
-2.50714e-06
2.12169e-09
6.84431e-06
-1.25064e-05
4.99673e-08
-2.55239e-09
0
4.05663e-08
-7.75118e-08
-5.49979e-08
-5.4664e-07
1.9395e-06
-1.85837e-05
1.37066e-07
-3.83407e-08
-2.61544e-09
-5.70151e-07
4.28609e-06
1.55187e-07
-1.98121e-06
-5.94349e-08
-3.26113e-06
1.44769e-05
3.88258e-09
-6.07925e-05
-2.52969e-09
1.93424e-05
3.07629e-10
1.85919e-05
1.63437e-09
-6.12316e-05
7.3754e-06
1.98393e-07
2.42281e-07
-8.71053e-08
-1.78335e-06
-0.00634399
-3.75015e-09
-0.00610856
-0.00108457
0.000981318
-0.000223926
0
-1.43373e-08
0
0
0
0
0
0
0
0
0
0
0
7.56579e-10
-2.82419e-10
0
-6.92369e-10
0
0
0
0
0
-1.49596e-10
2.93644e-05
8.71704e-06
7.74762e-05
-5.35442e-10
2.53595e-09
-6.40492e-10
1.31714e-10
0.00015585
2.50502e-05
0.00143857
0
0
9.00962e-06
0
-4.47262e-05
0
0
-1.20092e-05
1.5666e-10
0
0
0
0
0
0.00153521
0
0
0
1.07941e-05
-6.80486e-09
-3.72395e-08
0
-2.05225e-10
6.06897e-06
1.7307e-05
-2.24575e-08
-0.0162853
1.95748e-07
0.118807
4.64036e-06
-5.59899e-09
0
0
-5.92873e-05
0
1.26389e-07
0
6.60742e-07
1.34842e-07
0.000840672
0
-2.72666e-08
0
7.55574e-06
-0.000137421
0
0
4.1563e-09
0
2.6432e-08
-7.25415e-10
1.37574e-09
0
0
-7.1067e-09
0
-9.80553e-07
2.00854e-10
0
0
-0.000141036
2.93837e-08
0
1.35406e-10
0
-1.83497e-10
0
0
-8.72951e-05
0
0.000821378
1.05518e-10
0
0
0
-1.45833e-06
0.00150502
0
1.47741e-07
0
0
-1.16159e-06
0.00110085
-4.93261e-10
-1.85593e-10
-7.90339e-07
0
0
-2.63996e-05
3.45216e-09
-5.36794e-10
4.58514e-09
0
0
1.67796e-05
5.55719e-09
0
1.14669e-05
0
6.37276e-07
-2.12402e-09
-2.19875e-08
0
0
-0.000202494
-1.46842e-08
1.60771e-07
0
-2.28746e-08
0
3.85703e-09
0
-2.78774e-08
0
2.02652e-07
0
-6.10432e-10
0
7.50469e-06
-0.0255123
2.13781e-09
0.00265738
2.59926e-09
0
2.30888e-07
0
1.07377e-10
0
0
3.62613e-08
-1.09399e-09
5.80013e-08
0
-1.25923e-06
0
3.87699e-09
2.04286e-05
0
0
-3.84902e-10
0
-1.27514e-09
7.08654e-09
1.54917e-09
-7.54394e-09
0.387828
-8.65333e-09
0.316435
-1.14707e-06
0
-0.0302799
1.10869e-05
0
0
-0.0176722
-8.44601e-07
0
0
0.0467269
7.32234e-07
1.5139e-10
-1.28209e-08
0
2.20496e-07
2.402e-10
4.36765e-07
2.38723e-10
0
-0.0127519
2.6227e-07
0
0
0.000546179
-1.466e-06
2.72741e-08
1.25614e-07
2.34754e-07
1.10552e-07
0
-2.36661e-06
8.31965e-10
9.67027e-07
-1.47242e-08
-1.65958e-08
-3.17858e-10
1.12759e-05
-1.05212e-06
-1.17988e-05
0.00124773
0
-0.000148971
0
2.19552e-05
0
0
0
0
3.82625e-06
0
-1.71406e-10
0.00170204
0
1.94041e-07
0
0
0.000114769
-1.61452e-07
0
0
0.003448
2.30872e-07
2.74457e-05
-2.27853e-06
-1.02852e-06
1.42364e-06
9.76781e-08
0.0001941
-6.50842e-05
0
0
1.91806e-09
-5.05125e-08
2.08175e-08
-4.96543e-09
0
0
0
0
-1.05277e-09
-6.15546e-10
3.36735e-09
1.24945e-09
6.6044e-08
2.50829e-09
-5.49057e-07
2.21576e-10
1.17619e-06
4.3095e-10
0
-6.98528e-10
0
-4.45975e-09
0
-7.96472e-09
0
0
0
0
0
0
0
0
0
1.30767e-09
-6.302e-10
-9.92742e-10
2.09986e-10
0
0
2.41135e-08
0
0
0
0
0
0
0
0
0
0
3.45661e-10
-1.03498e-10
0
0
0
0
0
0
0
2.73201e-09
1.05713e-07
0
0
0
-1.5179e-08
0
0
-1.80646e-10
1.43445e-08
-5.22221e-08
0
0
0
0
7.4642e-09
0
-1.21829e-10
0
0
0
1.45214e-08
0
0
3.98115e-10
0
0
0
7.57343e-08
0
0
0
1.71591e-07
0
0
0
1.89908e-08
0
5.20902e-07
0
1.53448e-06
0
7.85436e-07
0
0
0
0
0
0
0
0
0
0
-5.26144e-07
0
0
0
-3.48035e-07
0
0
0
0
-1.69548e-10
0
0
0
0
0
0
-1.39998e-10
0
0
0
-9.68621e-10
0
0
0
0
-1.18368e-09
0
0
0
0
-4.38378e-08
-4.82148e-08
0
0
-1.68043e-10
0
4.99708e-10
0
0
-1.6628e-10
-9.20663e-09
0
0
0
0
0
0
0
0
-1.21605e-08
0
-3.28749e-07
0
1.88581e-08
0
-4.76486e-09
0
0
0
0
0
0
0
-2.62217e-07
0
0
2.23433e-09
3.86912e-10
0
-6.71044e-10
0
0
0
0
0
0
0
-7.00927e-09
0
0
0
0
0
7.57552e-07
0
0
0
-2.41122e-10
0
0
0
-1.05909e-10
0
0
0
3.0218e-09
-3.75702e-09
0
-2.22186e-09
0
-4.28054e-10
2.06125e-10
1.79447e-09
-8.43981e-10
0
0
0
0
0
2.53051e-09
0
0
-6.58e-09
0
1.95523e-08
-9.57245e-10
0
0
0
0
0
0
0
0
0
0
0
-7.06458e-08
0
-4.17299e-08
0
0
0
0
0
0
0
0
0
1.64961e-10
-1.68497e-08
0
0
0
0
0
0
0
0
0
0
0
0
0
0
0
0
0
0
0
0
0
0
0
0
-3.36326e-09
8.57706e-09
-3.5589e-08
-4.84679e-09
-2.52188e-10
-3.86641e-09
0
0
0
0
0
-1.77913e-08
5.78907e-09
0
-1.14326e-09
0
0
0
0
0
2.81281e-07
0
0
0
0
-2.28567e-07
-1.46917e-10
0
-1.09978e-10
-1.71015e-10
0
0
0
0
0
0
0
0
0
0
0
0
0
0
0
0
0
0
0
0
0
0
0
0
0
0
0
0
0
0
0
0
0
-5.04471e-08
0
0
0
0
0
0
0
0
0
0
0
0
0
0
0
0
1.74441e-09
0
0
0
0
0
0
0
0
1.98234e-10
0
0
0
0
0
0
0
0
0
0
0
0
0
0
0
0
0
0
0
0
0
0
0
0
0
0
0
0
0
0
0
0
0
0
0
0
0
4.01332e-09
0
0
0
0
0
0
0
0
0
0
0
0
0
0
0
0
0
0
0
0
0
0
0
0
0
0
0
0
0
0
0
0
0
0
0
0
0
0
0
0
0
0
0
0
0
0
0
0
0
0
0
-6.26885e-10
0
0
0
0
0
0
0
0
0
0
0
0
0
0
0
0
0
0
0
0
0
0
0
0
0
0
0
0
0
0
0
0
0
0
0
0
0
0
0
0
0
0
0
0
0
0
0
0
0
0
0
0
0
