# vtk DataFile Version 2.0
Unstructured Grid by M++
ASCII
DATASET UNSTRUCTURED_GRID
POINTS 1089 float
  6.250000   0.625000 0
  5.625000   0.625000 0
  1.250000   7.500000 0
  4.375000   3.750000 0
  0.625000   8.125000 0
  5.000000   4.375000 0
  8.750000   4.375000 0
  1.875000   8.125000 0
  4.375000   4.375000 0
  1.250000   8.125000 0
  2.500000   8.750000 0
  9.375000   5.000000 0
  5.000000   3.750000 0
  8.750000   8.125000 0
  8.750000   8.750000 0
  9.375000   4.375000 0
  2.500000   8.125000 0
  9.375000   8.750000 0
 10.000000   8.750000 0
  5.000000   3.125000 0
  1.875000   6.875000 0
  4.375000   6.875000 0
  3.750000   8.125000 0
  4.375000   8.125000 0
  7.500000   4.375000 0
  9.375000   0.625000 0
  4.375000   8.750000 0
  7.500000   5.000000 0
  3.750000   8.750000 0
  1.250000   8.750000 0
  4.375000   5.000000 0
  9.375000   1.250000 0
  3.750000   9.375000 0
  7.500000   5.625000 0
  4.375000   9.375000 0
  7.500000   6.250000 0
  4.375000  10.000000 0
  5.000000   1.875000 0
  5.000000   2.500000 0
  7.500000   6.875000 0
  5.625000   1.250000 0
  6.875000   6.875000 0
  5.625000   1.875000 0
  5.625000   2.500000 0
  6.875000   6.250000 0
  3.750000  10.000000 0
  8.750000   7.500000 0
  6.250000   7.500000 0
  6.250000   8.125000 0
  7.500000  10.000000 0
  1.875000   8.750000 0
  8.750000   5.000000 0
  5.000000   6.875000 0
  8.125000   3.125000 0
  6.250000  10.000000 0
  5.625000  10.000000 0
  8.125000   2.500000 0
  8.750000   1.250000 0
  6.250000   9.375000 0
  6.875000  10.000000 0
  1.875000   7.500000 0
  8.750000   3.750000 0
  7.500000   3.125000 0
  0.625000   6.875000 0
  5.625000   9.375000 0
  8.750000   0.625000 0
  6.250000   8.750000 0
  5.625000   7.500000 0
  8.125000   3.750000 0
  5.000000   7.500000 0
  4.375000   5.625000 0
  8.125000   5.625000 0
  1.250000   9.375000 0
  0.625000   7.500000 0
  7.500000   3.750000 0
  4.375000   7.500000 0
  3.750000   5.625000 0
  0.625000   9.375000 0
  6.875000   8.125000 0
  5.000000   8.750000 0
  8.125000   5.000000 0
  8.750000   6.875000 0
  3.750000   6.875000 0
  5.625000   8.750000 0
  1.250000   5.000000 0
  8.125000   1.250000 0
  9.375000   6.875000 0
  5.000000   9.375000 0
  7.500000   7.500000 0
  5.000000   8.125000 0
  8.125000   4.375000 0
  3.750000   6.250000 0
  0.625000  10.000000 0
 10.000000   8.125000 0
 10.000000   3.750000 0
  3.125000   7.500000 0
  6.875000   8.750000 0
  9.375000   7.500000 0
  5.625000   8.125000 0
  4.375000   6.250000 0
  6.875000   9.375000 0
  0.625000   8.750000 0
  7.500000   9.375000 0
  7.500000   8.750000 0
  7.500000   8.125000 0
  6.875000   7.500000 0
 10.000000   6.875000 0
  9.375000   8.125000 0
  9.375000   3.750000 0
  2.500000   7.500000 0
 10.000000   7.500000 0
  3.750000   7.500000 0
  5.000000  10.000000 0
  6.250000   6.875000 0
  1.250000   4.375000 0
  8.125000   0.625000 0
  7.500000   1.250000 0
  0.625000   5.000000 0
  5.625000   6.875000 0
  8.750000   3.125000 0
  8.750000   2.500000 0
  1.250000   6.875000 0
  3.125000   6.875000 0
 10.000000   3.125000 0
  2.500000   6.875000 0
  9.375000   3.125000 0
  8.125000   1.875000 0
  1.250000   5.625000 0
 10.000000  10.000000 0
  9.375000  10.000000 0
  9.375000   9.375000 0
 10.000000   9.375000 0
  8.750000  10.000000 0
  8.750000   9.375000 0
  8.750000   1.875000 0
  8.125000   6.875000 0
  8.125000   7.500000 0
  1.250000  10.000000 0
  8.125000   6.250000 0
  0.625000   0.625000 0
  9.375000   6.250000 0
  2.500000  10.000000 0
  8.750000   6.250000 0
  1.875000  10.000000 0
  8.750000   5.625000 0
  1.875000   9.375000 0
  9.375000   5.625000 0
  2.500000   9.375000 0
 10.000000   5.625000 0
  3.125000   9.375000 0
 10.000000   6.250000 0
  3.125000  10.000000 0
 10.000000   5.000000 0
  3.125000   8.750000 0
 10.000000   4.375000 0
  3.125000   8.125000 0
  8.125000   9.375000 0
  8.125000  10.000000 0
  8.125000   8.750000 0
  8.125000   8.125000 0
  7.500000   1.875000 0
  0.625000   5.625000 0
  7.500000   2.500000 0
  0.625000   6.250000 0
  9.375000   0.000000 0
  1.875000   1.875000 0
  8.750000  -1.875000 0
  5.000000  -6.250000 0
  4.375000  -6.250000 0
 -5.000000  -9.375000 0
 -5.625000  -6.875000 0
 -8.750000   5.625000 0
  5.625000  -5.000000 0
  5.000000  -2.500000 0
 -6.250000  -9.375000 0
 -6.875000  -6.875000 0
  3.125000   5.625000 0
 10.000000   1.875000 0
 -3.750000   9.375000 0
  3.750000   3.125000 0
 -3.125000   6.875000 0
  4.375000   0.625000 0
 -2.500000   4.375000 0
  6.250000   5.625000 0
 -0.625000   9.375000 0
 -7.500000 -10.000000 0
 -8.125000  -7.500000 0
  6.875000   3.125000 0
  0.000000   6.875000 0
 -6.875000   5.625000 0
 -4.375000  -4.375000 0
 -3.750000  -6.875000 0
 -6.875000   5.000000 0
 -5.000000  -2.500000 0
 -4.375000  -5.000000 0
 -3.750000  -7.500000 0
 -6.250000   5.000000 0
 -6.250000   5.625000 0
  3.125000  -8.125000 0
 -3.750000  -4.375000 0
 -5.625000   3.125000 0
  0.625000   1.250000 0
  7.500000  -2.500000 0
 -6.875000   6.250000 0
 -3.750000  -6.250000 0
 -6.250000   3.750000 0
  1.250000  -2.500000 0
 -5.625000   1.250000 0
 -7.500000   5.625000 0
 -5.000000  -4.375000 0
 -4.375000  -6.875000 0
 -5.625000  -1.875000 0
 -6.875000   3.125000 0
 -6.250000   0.625000 0
 -4.375000   1.875000 0
 -5.000000   4.375000 0
  9.375000  -6.250000 0
 10.000000  -8.750000 0
  6.875000   4.375000 0
  0.000000   8.125000 0
 -7.500000  -8.750000 0
 -6.250000   4.375000 0
 -7.500000   6.875000 0
 -3.750000  -8.125000 0
 -5.625000  -0.625000 0
 -4.375000  -5.625000 0
 -5.000000  -3.125000 0
 -6.875000   4.375000 0
-10.000000   7.500000 0
 -6.250000  -7.500000 0
 -5.625000 -10.000000 0
  4.375000  -3.125000 0
 -5.000000 -10.000000 0
 -5.625000  -7.500000 0
 -9.375000   7.500000 0
  5.000000  -3.125000 0
 -5.625000   5.000000 0
 -5.000000   2.500000 0
  8.750000  -5.625000 0
  1.250000   0.625000 0
  8.125000  -3.125000 0
  9.375000  -8.125000 0
 -5.625000   4.375000 0
  8.750000  -6.250000 0
 -5.625000  -8.125000 0
 -9.375000   6.875000 0
  5.000000  -3.750000 0
 -6.250000  -8.125000 0
-10.000000   6.875000 0
  3.750000  -1.250000 0
  3.750000   4.375000 0
 -3.125000   8.125000 0
  4.375000   1.875000 0
 -2.500000   5.625000 0
 -6.250000  -8.750000 0
  3.750000   3.750000 0
 -3.125000   7.500000 0
  4.375000   1.250000 0
 -2.500000   5.000000 0
  3.125000   6.250000 0
 10.000000   2.500000 0
 -3.750000  10.000000 0
 -5.625000  -8.750000 0
-10.000000   8.750000 0
 -9.375000   6.250000 0
  4.375000  -1.875000 0
  5.000000  -4.375000 0
 -9.375000   5.000000 0
 -2.500000   1.250000 0
 -7.500000  -2.500000 0
 -0.625000  -6.250000 0
 -6.875000  -5.000000 0
  0.000000  -8.750000 0
 -8.125000   0.000000 0
 -1.250000  -3.750000 0
 -8.750000   5.000000 0
 -1.875000   1.250000 0
 -8.125000   2.500000 0
 -1.250000  -1.250000 0
 -6.250000  -5.000000 0
  0.625000  -8.750000 0
  4.375000   3.125000 0
 -2.500000   6.875000 0
  5.000000   0.625000 0
 -1.875000   4.375000 0
 -5.625000  -9.375000 0
 -0.625000  -5.625000 0
 -7.500000  -1.875000 0
  0.000000  -8.125000 0
 -6.875000  -4.375000 0
 -6.250000  -6.875000 0
-10.000000   8.125000 0
 -1.875000  -0.625000 0
 -8.750000   3.125000 0
 -2.500000   1.875000 0
 -9.375000   5.625000 0
  4.375000  -2.500000 0
 -8.125000   5.625000 0
 -6.875000   0.625000 0
 -7.500000   3.125000 0
 -7.500000  -5.625000 0
 -6.875000  -8.125000 0
 -8.125000  -3.125000 0
 -8.750000   4.375000 0
 -1.875000   0.625000 0
 -6.875000  -3.125000 0
  0.000000  -6.875000 0
 -6.250000  -5.625000 0
  0.625000  -9.375000 0
 -9.375000   4.375000 0
 -2.500000   0.625000 0
 -6.875000  -5.625000 0
  0.000000  -9.375000 0
 -8.125000  -0.625000 0
 -1.250000  -4.375000 0
 -8.750000   1.875000 0
 -1.875000  -1.875000 0
 -7.500000  -3.125000 0
 -0.625000  -6.875000 0
 -5.000000  -8.750000 0
 -1.875000   1.875000 0
  5.000000  -1.875000 0
  5.625000  -4.375000 0
 -4.375000 -10.000000 0
 -5.000000  -7.500000 0
 -1.875000   3.125000 0
  5.000000  -0.625000 0
  6.250000  -5.625000 0
  5.625000  -3.125000 0
 -5.000000  -8.125000 0
 -1.875000   2.500000 0
  5.000000  -1.250000 0
  5.625000  -3.750000 0
  3.750000   0.000000 0
 -3.125000   3.750000 0
  2.500000   5.000000 0
 -4.375000   8.750000 0
  3.125000   2.500000 0
 -3.750000   6.250000 0
 -8.750000  -2.500000 0
 -8.125000  -5.000000 0
 -9.375000   0.000000 0
 -7.500000  -7.500000 0
-10.000000   2.500000 0
  0.625000   3.125000 0
  7.500000  -0.625000 0
 -6.250000   6.875000 0
 -3.750000 -10.000000 0
 -4.375000  -7.500000 0
  6.875000  -5.625000 0
 -8.125000   3.125000 0
 -1.250000  -0.625000 0
 -6.250000  -4.375000 0
  0.625000  -8.125000 0
 -3.750000   3.750000 0
  1.875000   5.000000 0
 -5.000000   8.750000 0
  2.500000   2.500000 0
 -4.375000   6.250000 0
 -9.375000  -1.875000 0
-10.000000   0.625000 0
 -5.625000   8.125000 0
 -5.000000   5.625000 0
 -4.375000  -8.125000 0
  6.875000  -6.250000 0
  6.250000  -3.750000 0
  3.750000   0.625000 0
 -3.125000   4.375000 0
  9.375000   1.875000 0
  2.500000   5.625000 0
 -4.375000   9.375000 0
  3.125000   3.125000 0
 -3.750000   6.875000 0
 -8.750000  -1.875000 0
 -6.875000  -9.375000 0
  0.000000  10.000000 0
 -7.500000  -6.875000 0
 -8.125000  -4.375000 0
 -9.375000   0.625000 0
 -7.500000  -6.250000 0
 -8.750000  -1.250000 0
 -8.125000  -3.750000 0
 -6.875000  -8.750000 0
 -9.375000   8.750000 0
  9.375000  -8.750000 0
 -7.500000  -4.375000 0
 -0.625000  -8.125000 0
-10.000000   5.625000 0
 -3.125000   1.875000 0
 -9.375000   3.125000 0
 -2.500000  -0.625000 0
 -8.750000   0.625000 0
 -1.875000  -3.125000 0
 -8.125000  -1.875000 0
 -1.250000  -5.625000 0
 -8.125000  -5.625000 0
 -9.375000  -0.625000 0
 -8.750000  -3.125000 0
-10.000000   1.875000 0
 -5.625000   8.750000 0
 -5.000000   6.250000 0
  1.875000   5.625000 0
 -5.000000   9.375000 0
  3.125000   0.625000 0
 -3.750000   4.375000 0
  2.500000   3.125000 0
 -4.375000   6.875000 0
  1.875000   6.250000 0
 -5.000000  10.000000 0
  2.500000   3.750000 0
 -4.375000   7.500000 0
  3.125000   1.250000 0
[...]
CELL_DATA 1024
SCALARS scalar_value float 1
LOOKUP_TABLE default
-2.59895e-05
7.70049e-06
0.00095729
0.00118587
0
0
0
0
0
-0.000295569
0.000683607
-0.000316495
-8.3177e-05
1.65283e-07
2.13361e-07
5.1595e-07
-5.35069e-08
-2.65503e-08
1.01683
-5.01671e-08
0
4.57545e-07
0
3.63174e-07
1.21659e-05
-4.28218e-08
-1.32448e-06
2.59496e-05
8.26171e-06
-1.57376e-05
-7.5869e-05
1.22065e-06
3.64539e-06
5.43891e-06
3.80682e-07
5.57589e-07
-1.69888e-06
-5.18903e-06
1.86613e-06
8.43449e-09
-4.37687e-08
0
0.169073
-3.8864e-08
0
0.53575
1.67108e-07
0
-3.27946e-06
3.288e-09
-1.02969e-06
-0.0102597
6.3518e-07
-3.6717e-10
0.000139379
-0.000977143
0
0.00126795
0
9.0766e-10
0.00223697
7.55826e-07
-0.0173086
0
-0.00208319
0
0
0.00139161
0.000881967
0
0
0
-0.00356554
0
0
-3.30379e-10
0
0
2.32737
0
2.18233e-07
0
0.002267
-0.000131092
0.00177504
0.00346923
-4.22654e-06
0
-3.80825e-05
4.20958e-06
0.00434829
6.27326e-05
-0.00847272
1.26648e-05
0
-0.000225697
0.00016482
4.21045e-05
0.000498779
1.15455e-09
0
2.21708e-05
0.000364153
2.45913e-07
0
7.28302e-06
0.00251921
0.000219272
8.01313e-06
-1.37928e-09
0.000814441
2.82233e-05
0
2.00555
0
-4.3312e-06
-7.35234e-09
-4.77475e-06
0.0958424
0
0.612489
1.73295e-05
-0.0348926
9.98489e-09
-0.00011488
0.000733185
-3.28455e-05
0.457628
2.67684e-07
0.0963825
0
1.51219e-07
-5.54201e-07
0
-0.0082145
9.56781e-06
9.87772e-09
-0.00240713
-0.000101365
0
3.04767e-07
-9.37512e-07
-0.0301962
-6.71024e-08
-0.00233532
-0.0230506
1.30943e-07
-0.0188841
-1.90308e-06
0
-0.00260663
-0.00598203
1.21737e-05
4.87721e-09
0
-4.10025e-06
2.14501e-06
0.180127
-6.18361e-07
5.60824e-09
2.27141e-09
7.38145e-09
0
1.18125e-05
0.0628552
0.0193626
4.47192e-05
-9.04714e-05
-0.0003149
2.02043
0.8348
1.52953
2.88705e-08
5.06635e-09
3.38044
0
0
-2.15825e-08
3.61227e-05
0
4.03875e-09
2.62099e-10
-2.47357e-08
2.16482e-07
-1.3007e-05
-4.13371e-10
-9.83079e-06
-1.89922e-10
2.92294
6.06982e-09
-1.2148e-09
-9.25918e-07
-4.03051e-10
1.39016e-10
2.94645e-05
0
-2.76954e-06
1.73383
0.930433
2.01288e-10
0.484867
-2.20172e-09
1.79784e-05
2.21176e-10
-2.95217e-10
-1.91873e-09
4.34044e-09
1.19088e-07
-4.97462e-07
1.34554e-08
-3.84893e-08
4.66516e-07
0.00227635
-4.35524e-10
2.37746e-07
3.23878e-07
2.01513e-09
-2.5971e-08
-5.81556e-06
-2.33285e-08
-6.61874e-08
-1.98244e-06
0
-5.33291e-10
0
0
0
5.84714e-09
0.000636186
-3.01372e-08
5.28403e-08
-3.13739e-10
-1.42147e-06
0
-4.5929e-07
2.24719e-07
0
0.0407622
0
-0.0027223
3.60775e-06
0
1.17644e-05
-0.000240677
1.13552e-06
-0.000113873
2.00882e-06
0.000552069
1.56024e-05
0.00172018
-4.69943e-10
5.33255e-08
2.12978e-08
8.10571e-08
-4.60779e-10
-8.59186e-08
0
-2.70298e-08
4.49659e-09
5.08548e-09
-2.6814e-08
0
0
0
0
0
0
0
0
0
0
0
0
0
0
0
0
0
0
0
0
0
0
0
1.74246e-08
-2.23661e-08
1.97955e-08
0
0
0
0
0
-2.09665e-10
0
0
0
0
0
0
0
0
3.14996e-10
0
0
0
0
0
0
1.64792e-10
0
0
0
0
0
0
0
0
0
0
0
1.71679e-09
0
-2.21712e-08
3.42865e-07
0
0
0
0
0
-7.63009e-08
0
-6.49748e-07
0
0
0
0
0
-4.48334e-10
0
0
0
0
0
6.14514e-10
0
0
0
0
0
0
3.09545e-10
0
0
0
0
0
0
0
0
0
0
0
0
0
0
0
0
0
0
0
0
0
0
0
0
0
1.73201e-10
0
0
0
0
0
0
2.29325e-09
2.75463e-10
0
0
0
0
1.46372e-10
0
0
0
-2.12499e-08
0
0
0
0
0
0
0
0
0
0
0
0
0
0
0
0
0
0
0
-6.02984e-10
0
1.40902e-10
0
0
0
0
0
0
0
6.90086e-09
0
-2.96797e-09
0
0
0
0
0
0
0
0
0
0
0
0
0
1.13779e-09
0
5.96611e-09
0
0
-7.5481e-10
0
0
0
1.05179e-10
0
0
0
-8.98703e-10
0
0
-1.15052e-10
0
-8.07442e-10
0
0
0
0
-3.06095e-10
0
0
0
0
0
0
0
0
0
0
0
0
1.17711e-08
0
-5.75444e-10
0
0
0
0
0
0
0
0
0
0
0
0
0
0
0
0
0
0
0
0
0
0
0
0
0
0
0
2.98972e-08
0
0
2.9885e-09
0
0
0
0
0
-3.61552e-06
9.85504e-06
-1.19588e-06
1.42527e-06
4.33408e-10
6.20227e-10
-3.63034e-10
-3.62577e-10
2.33036e-05
-2.52073e-05
0.000100292
-7.84232e-05
-3.11175e-06
0.000247771
-2.57357e-06
-6.44465e-05
-3.6784e-06
-5.48761e-05
-4.58212e-08
0.000196607
-3.39476e-08
-0.000783657
2.29066e-07
-0.000959192
1.32335e-08
-1.63352e-10
3.63402e-09
8.18877e-09
-3.30907e-09
0
-4.5378e-10
0
0
5.10255e-06
-3.97735e-06
2.35638e-06
2.20041e-06
2.03267e-07
2.16322e-07
0.00548338
-5.97749e-07
0
1.78045e-06
0
-1.36105e-09
1.52158e-07
-1.12124e-10
9.04796e-07
-3.72761e-06
8.01085e-06
0.000246006
-7.19333e-05
0
5.85791e-07
7.80584e-10
-1.0419e-07
3.23098e-08
1.04293e-08
-3.03635e-08
-0.000759649
0.323788
0
-7.65681e-08
3.43998e-06
-0.0062196
2.28088e-08
-4.56179e-06
4.5776e-06
-0.00249045
0.044882
0
-7.99502e-07
4.05038e-08
-7.23723e-07
-0.000291634
2.98247e-08
1.65452e-06
-3.59021e-09
1.55297e-10
-4.6757e-08
9.83246e-06
0
2.55258e-08
7.81012e-05
3.15976e-08
1.35525e-09
2.91362e-09
0.00530096
3.24806e-09
-1.67795e-10
-4.12891e-06
-0.00650092
1.5651e-09
-1.52131e-09
-1.26892e-07
0.000275993
1.19822e-06
7.0059e-05
-5.17899e-05
0.00311482
-6.38628e-05
-0.00889666
-2.79279e-10
-8.28256e-10
2.49245e-09
-3.47814e-07
0
0
-6.59133e-06
0
8.37957e-07
2.99748e-10
0.104215
0
-9.30817e-08
1.8264e-05
-0.000222428
-1.72958e-10
1.52185e-06
3.32482e-10
1.89664e-07
1.0678e-05
2.04296e-06
3.48424e-10
3.42127e-08
7.17977e-10
0
-4.74914e-08
-6.57611e-05
-9.94285e-09
2.398e-08
0
-0.000185923
1.19088e-09
0
-8.72533e-07
-7.51327e-08
0.000164963
0
-1.2001e-09
1.62411e-05
-7.46001e-06
-0.00443001
0.391832
0
-2.58487e-08
-1.91476e-05
1.60436e-07
-4.07613e-05
-5.23415e-06
-4.05168e-06
1.668e-05
6.93502e-06
1.67805e-05
0
0
2.39273e-08
0
-7.46466e-07
-1.75919e-10
3.91745e-09
-4.41324e-05
-5.66949e-06
2.77964e-05
1.70097e-05
-5.38299e-05
-5.22431e-06
0.000204557
2.21072e-09
6.65696e-06
-1.3758e-10
7.3399e-06
5.17184e-10
-1.45901e-09
-1.42394e-06
0.000760391
5.9928e-06
0
-1.54475e-06
0.000231208
0
0.000184468
2.49453e-09
3.57658e-08
0
7.10106e-05
-9.48396e-08
-1.50341e-10
-7.3937e-05
0.00431636
3.02107e-08
0
2.16753e-05
0
-2.32808e-05
-0.000322991
-1.07645e-08
-9.8601e-08
3.23075e-10
-0.000130045
3.03245e-08
2.49819e-07
2.60207e-08
-7.32683e-07
-1.42071e-08
2.73656e-07
-5.15072e-09
-0.000750428
0.00536314
0
0.00377268
4.06105e-10
-0.000871568
0.000255151
-0.000336257
-0.000537805
0
-6.76179e-07
-5.73327e-10
-3.06066e-07
-8.18839e-09
-0.000236231
1.58939e-06
4.45828e-09
0.00612862
-1.29044e-08
-0.0053462
5.45888e-08
-7.66537e-09
2.3651e-06
3.93905e-10
-2.05826e-07
-5.51735e-07
-1.54215e-08
2.62014e-08
-1.29332e-08
1.11941e-07
2.29741e-09
2.90194e-09
0.000445279
2.19848e-06
-0.000743315
-9.51003e-07
0
1.74703e-06
0
1.2432e-06
0
-1.63378e-07
-3.98026e-07
-3.61607e-08
-4.41299e-07
0.00459462
1.74817e-07
0
0
0
0
0
0
0
0
0
0
0
-1.69748e-09
6.12147e-10
-2.26107e-10
6.08699e-10
0
0
0
0
0
0
0
0
-9.31693e-09
1.66632e-08
-1.46188e-09
6.97542e-09
1.99094e-08
6.96174e-09
-4.24417e-09
-2.72196e-09
0
0
0
-2.90767e-07
1.16917e-07
7.50081e-09
-3.38742e-07
0
0
0
0
0
-3.53247e-07
-2.34803e-10
0
0
0
-1.1048e-07
-6.51314e-08
1.0434e-08
6.98575e-08
1.46995e-07
0
0
0
0
0
0
0
0
0
0
0
0
0
0
0
0
-1.94376e-10
0
0
0
0
1.22947e-10
0
0
0
0
0
0
0
0
0
0
0
-1.60715e-07
0
0
0
0
0
0
0
0
0
0
0
0
0
0
0
0
1.33334e-09
8.94324e-09
0
0
0
0
6.21787e-10
0
0
1.2448e-10
2.41752e-09
0
0
0
0
0
0
0
0
0
3.0432e-10
0
-1.00461e-08
0
0
0
0
0
0
0
0
0
0
0
0
0
0
0
0
0
0
0
0
0
0
0
0
1.50245e-07
0
0
0
2.17794e-09
0
0
2.33375e-10
0
0
0
0
0
-1.88147e-10
0
0
0
3.38701e-08
0
0
-1.05209e-08
0
1.44521e-08
-7.32913e-08
0
0
0
0
0
0
1.35236e-10
0
0
0
0
0
0
0
0
0
0
-1.26046e-08
0
0
4.57706e-09
0
-1.672e-09
0
4.52096e-09
0
-1.01334e-09
-9.89704e-10
-1.38764e-09
0
-8.33229e-10
0
2.17684e-10
-1.7504e-10
0
0
0
0
0
0
0
0
4.09261e-10
0
0
0
0
0
0
-2.10013e-10
0
0
0
0
0
0
0
0
0
0
0
0
0
0
0
0
-1.39572e-09
2.59639e-10
0
0
0
0
-1.4605e-09
0
0
0
0
0
2.30493e-09
0
0
0
