# vtk DataFile Version 2.0
Unstructured Grid by M++
ASCII
DATASET UNSTRUCTURED_GRID
POINTS 1089 float
  6.250000   0.625000 0
  5.625000   0.625000 0
  1.250000   7.500000 0
  4.375000   3.750000 0
  0.625000   8.125000 0
  5.000000   4.375000 0
  8.750000   4.375000 0
  1.875000   8.125000 0
  4.375000   4.375000 0
  1.250000   8.125000 0
  2.500000   8.750000 0
  9.375000   5.000000 0
  5.000000   3.750000 0
  8.750000   8.125000 0
  8.750000   8.750000 0
  9.375000   4.375000 0
  2.500000   8.125000 0
  9.375000   8.750000 0
 10.000000   8.750000 0
  5.000000   3.125000 0
  1.875000   6.875000 0
  4.375000   6.875000 0
  3.750000   8.125000 0
  4.375000   8.125000 0
  7.500000   4.375000 0
  9.375000   0.625000 0
  4.375000   8.750000 0
  7.500000   5.000000 0
  3.750000   8.750000 0
  1.250000   8.750000 0
  4.375000   5.000000 0
  9.375000   1.250000 0
  3.750000   9.375000 0
  7.500000   5.625000 0
  4.375000   9.375000 0
  7.500000   6.250000 0
  4.375000  10.000000 0
  5.000000   1.875000 0
  5.000000   2.500000 0
  7.500000   6.875000 0
  5.625000   1.250000 0
  6.875000   6.875000 0
  5.625000   1.875000 0
  5.625000   2.500000 0
  6.875000   6.250000 0
  3.750000  10.000000 0
  8.750000   7.500000 0
  6.250000   7.500000 0
  6.250000   8.125000 0
  7.500000  10.000000 0
  1.875000   8.750000 0
  8.750000   5.000000 0
  5.000000   6.875000 0
  8.125000   3.125000 0
  6.250000  10.000000 0
  5.625000  10.000000 0
  8.125000   2.500000 0
  8.750000   1.250000 0
  6.250000   9.375000 0
  6.875000  10.000000 0
  1.875000   7.500000 0
  8.750000   3.750000 0
  7.500000   3.125000 0
  0.625000   6.875000 0
  5.625000   9.375000 0
  8.750000   0.625000 0
  6.250000   8.750000 0
  5.625000   7.500000 0
  8.125000   3.750000 0
  5.000000   7.500000 0
  4.375000   5.625000 0
  8.125000   5.625000 0
  1.250000   9.375000 0
  0.625000   7.500000 0
  7.500000   3.750000 0
  4.375000   7.500000 0
  3.750000   5.625000 0
  0.625000   9.375000 0
  6.875000   8.125000 0
  5.000000   8.750000 0
  8.125000   5.000000 0
  8.750000   6.875000 0
  3.750000   6.875000 0
  5.625000   8.750000 0
  1.250000   5.000000 0
  8.125000   1.250000 0
  9.375000   6.875000 0
  5.000000   9.375000 0
  7.500000   7.500000 0
  5.000000   8.125000 0
  8.125000   4.375000 0
  3.750000   6.250000 0
  0.625000  10.000000 0
 10.000000   8.125000 0
 10.000000   3.750000 0
  3.125000   7.500000 0
  6.875000   8.750000 0
  9.375000   7.500000 0
  5.625000   8.125000 0
  4.375000   6.250000 0
  6.875000   9.375000 0
  0.625000   8.750000 0
  7.500000   9.375000 0
  7.500000   8.750000 0
  7.500000   8.125000 0
  6.875000   7.500000 0
 10.000000   6.875000 0
  9.375000   8.125000 0
  9.375000   3.750000 0
  2.500000   7.500000 0
 10.000000   7.500000 0
  3.750000   7.500000 0
  5.000000  10.000000 0
  6.250000   6.875000 0
  1.250000   4.375000 0
  8.125000   0.625000 0
  7.500000   1.250000 0
  0.625000   5.000000 0
  5.625000   6.875000 0
  8.750000   3.125000 0
  8.750000   2.500000 0
  1.250000   6.875000 0
  3.125000   6.875000 0
 10.000000   3.125000 0
  2.500000   6.875000 0
  9.375000   3.125000 0
  8.125000   1.875000 0
  1.250000   5.625000 0
 10.000000  10.000000 0
  9.375000  10.000000 0
  9.375000   9.375000 0
 10.000000   9.375000 0
  8.750000  10.000000 0
  8.750000   9.375000 0
  8.750000   1.875000 0
  8.125000   6.875000 0
  8.125000   7.500000 0
  1.250000  10.000000 0
  8.125000   6.250000 0
  0.625000   0.625000 0
  9.375000   6.250000 0
  2.500000  10.000000 0
  8.750000   6.250000 0
  1.875000  10.000000 0
  8.750000   5.625000 0
  1.875000   9.375000 0
  9.375000   5.625000 0
  2.500000   9.375000 0
 10.000000   5.625000 0
  3.125000   9.375000 0
 10.000000   6.250000 0
  3.125000  10.000000 0
 10.000000   5.000000 0
  3.125000   8.750000 0
 10.000000   4.375000 0
  3.125000   8.125000 0
  8.125000   9.375000 0
  8.125000  10.000000 0
  8.125000   8.750000 0
  8.125000   8.125000 0
  7.500000   1.875000 0
  0.625000   5.625000 0
  7.500000   2.500000 0
  0.625000   6.250000 0
  9.375000   0.000000 0
  1.875000   1.875000 0
  8.750000  -1.875000 0
  5.000000  -6.250000 0
  4.375000  -6.250000 0
 -5.000000  -9.375000 0
 -5.625000  -6.875000 0
 -8.750000   5.625000 0
  5.625000  -5.000000 0
  5.000000  -2.500000 0
 -6.250000  -9.375000 0
 -6.875000  -6.875000 0
  3.125000   5.625000 0
 10.000000   1.875000 0
 -3.750000   9.375000 0
  3.750000   3.125000 0
 -3.125000   6.875000 0
  4.375000   0.625000 0
 -2.500000   4.375000 0
  6.250000   5.625000 0
 -0.625000   9.375000 0
 -7.500000 -10.000000 0
 -8.125000  -7.500000 0
  6.875000   3.125000 0
  0.000000   6.875000 0
 -6.875000   5.625000 0
 -4.375000  -4.375000 0
 -3.750000  -6.875000 0
 -6.875000   5.000000 0
 -5.000000  -2.500000 0
 -4.375000  -5.000000 0
 -3.750000  -7.500000 0
 -6.250000   5.000000 0
 -6.250000   5.625000 0
  3.125000  -8.125000 0
 -3.750000  -4.375000 0
 -5.625000   3.125000 0
  0.625000   1.250000 0
  7.500000  -2.500000 0
 -6.875000   6.250000 0
 -3.750000  -6.250000 0
 -6.250000   3.750000 0
  1.250000  -2.500000 0
 -5.625000   1.250000 0
 -7.500000   5.625000 0
 -5.000000  -4.375000 0
 -4.375000  -6.875000 0
 -5.625000  -1.875000 0
 -6.875000   3.125000 0
 -6.250000   0.625000 0
 -4.375000   1.875000 0
 -5.000000   4.375000 0
  9.375000  -6.250000 0
 10.000000  -8.750000 0
  6.875000   4.375000 0
  0.000000   8.125000 0
 -7.500000  -8.750000 0
 -6.250000   4.375000 0
 -7.500000   6.875000 0
 -3.750000  -8.125000 0
 -5.625000  -0.625000 0
 -4.375000  -5.625000 0
 -5.000000  -3.125000 0
 -6.875000   4.375000 0
-10.000000   7.500000 0
 -6.250000  -7.500000 0
 -5.625000 -10.000000 0
  4.375000  -3.125000 0
 -5.000000 -10.000000 0
 -5.625000  -7.500000 0
 -9.375000   7.500000 0
  5.000000  -3.125000 0
 -5.625000   5.000000 0
 -5.000000   2.500000 0
  8.750000  -5.625000 0
  1.250000   0.625000 0
  8.125000  -3.125000 0
  9.375000  -8.125000 0
 -5.625000   4.375000 0
  8.750000  -6.250000 0
 -5.625000  -8.125000 0
 -9.375000   6.875000 0
  5.000000  -3.750000 0
 -6.250000  -8.125000 0
-10.000000   6.875000 0
  3.750000  -1.250000 0
  3.750000   4.375000 0
 -3.125000   8.125000 0
  4.375000   1.875000 0
 -2.500000   5.625000 0
 -6.250000  -8.750000 0
  3.750000   3.750000 0
 -3.125000   7.500000 0
  4.375000   1.250000 0
 -2.500000   5.000000 0
  3.125000   6.250000 0
 10.000000   2.500000 0
 -3.750000  10.000000 0
 -5.625000  -8.750000 0
-10.000000   8.750000 0
 -9.375000   6.250000 0
  4.375000  -1.875000 0
  5.000000  -4.375000 0
 -9.375000   5.000000 0
 -2.500000   1.250000 0
 -7.500000  -2.500000 0
 -0.625000  -6.250000 0
 -6.875000  -5.000000 0
  0.000000  -8.750000 0
 -8.125000   0.000000 0
 -1.250000  -3.750000 0
 -8.750000   5.000000 0
 -1.875000   1.250000 0
 -8.125000   2.500000 0
 -1.250000  -1.250000 0
 -6.250000  -5.000000 0
  0.625000  -8.750000 0
  4.375000   3.125000 0
 -2.500000   6.875000 0
  5.000000   0.625000 0
 -1.875000   4.375000 0
 -5.625000  -9.375000 0
 -0.625000  -5.625000 0
 -7.500000  -1.875000 0
  0.000000  -8.125000 0
 -6.875000  -4.375000 0
 -6.250000  -6.875000 0
-10.000000   8.125000 0
 -1.875000  -0.625000 0
 -8.750000   3.125000 0
 -2.500000   1.875000 0
 -9.375000   5.625000 0
  4.375000  -2.500000 0
 -8.125000   5.625000 0
 -6.875000   0.625000 0
 -7.500000   3.125000 0
 -7.500000  -5.625000 0
 -6.875000  -8.125000 0
 -8.125000  -3.125000 0
 -8.750000   4.375000 0
 -1.875000   0.625000 0
 -6.875000  -3.125000 0
  0.000000  -6.875000 0
 -6.250000  -5.625000 0
  0.625000  -9.375000 0
 -9.375000   4.375000 0
 -2.500000   0.625000 0
 -6.875000  -5.625000 0
  0.000000  -9.375000 0
 -8.125000  -0.625000 0
 -1.250000  -4.375000 0
 -8.750000   1.875000 0
 -1.875000  -1.875000 0
 -7.500000  -3.125000 0
 -0.625000  -6.875000 0
 -5.000000  -8.750000 0
 -1.875000   1.875000 0
  5.000000  -1.875000 0
  5.625000  -4.375000 0
 -4.375000 -10.000000 0
 -5.000000  -7.500000 0
 -1.875000   3.125000 0
  5.000000  -0.625000 0
  6.250000  -5.625000 0
  5.625000  -3.125000 0
 -5.000000  -8.125000 0
 -1.875000   2.500000 0
  5.000000  -1.250000 0
  5.625000  -3.750000 0
  3.750000   0.000000 0
 -3.125000   3.750000 0
  2.500000   5.000000 0
 -4.375000   8.750000 0
  3.125000   2.500000 0
 -3.750000   6.250000 0
 -8.750000  -2.500000 0
 -8.125000  -5.000000 0
 -9.375000   0.000000 0
 -7.500000  -7.500000 0
-10.000000   2.500000 0
  0.625000   3.125000 0
  7.500000  -0.625000 0
 -6.250000   6.875000 0
 -3.750000 -10.000000 0
 -4.375000  -7.500000 0
  6.875000  -5.625000 0
 -8.125000   3.125000 0
 -1.250000  -0.625000 0
 -6.250000  -4.375000 0
  0.625000  -8.125000 0
 -3.750000   3.750000 0
  1.875000   5.000000 0
 -5.000000   8.750000 0
  2.500000   2.500000 0
 -4.375000   6.250000 0
 -9.375000  -1.875000 0
-10.000000   0.625000 0
 -5.625000   8.125000 0
 -5.000000   5.625000 0
 -4.375000  -8.125000 0
  6.875000  -6.250000 0
  6.250000  -3.750000 0
  3.750000   0.625000 0
 -3.125000   4.375000 0
  9.375000   1.875000 0
  2.500000   5.625000 0
 -4.375000   9.375000 0
  3.125000   3.125000 0
 -3.750000   6.875000 0
 -8.750000  -1.875000 0
 -6.875000  -9.375000 0
  0.000000  10.000000 0
 -7.500000  -6.875000 0
 -8.125000  -4.375000 0
 -9.375000   0.625000 0
 -7.500000  -6.250000 0
 -8.750000  -1.250000 0
 -8.125000  -3.750000 0
 -6.875000  -8.750000 0
 -9.375000   8.750000 0
  9.375000  -8.750000 0
 -7.500000  -4.375000 0
 -0.625000  -8.125000 0
-10.000000   5.625000 0
 -3.125000   1.875000 0
 -9.375000   3.125000 0
 -2.500000  -0.625000 0
 -8.750000   0.625000 0
 -1.875000  -3.125000 0
 -8.125000  -1.875000 0
 -1.250000  -5.625000 0
 -8.125000  -5.625000 0
 -9.375000  -0.625000 0
 -8.750000  -3.125000 0
-10.000000   1.875000 0
 -5.625000   8.750000 0
 -5.000000   6.250000 0
  1.875000   5.625000 0
 -5.000000   9.375000 0
  3.125000   0.625000 0
 -3.750000   4.375000 0
  2.500000   3.125000 0
 -4.375000   6.875000 0
  1.875000   6.250000 0
 -5.000000  10.000000 0
  2.500000   3.750000 0
 -4.375000   7.500000 0
  3.125000   1.250000 0
[...]
CELL_DATA 1024
SCALARS scalar_value float 1
LOOKUP_TABLE default
3.79675e-09
2.2067e-08
-4.32522e-09
5.36089e-09
0
0
0
0
0
0
1.91188e-08
0
1.62961e-10
-8.40796e-10
0
0
0
0
3.61094e-07
0
0
0
0
0
0
0
0
2.48655e-10
0
0
0
4.8581e-08
-2.52411e-08
1.89509e-09
3.21462e-10
0
0
0
0
0
0
0
-5.20858e-08
0
0
-7.20362e-08
0
0
0
0
0
6.86787e-09
0
0
1.16474e-07
0
0
-2.67951e-09
0
0
9.88543e-07
0
8.35563e-09
0
-1.4807e-09
0
0
1.21669e-10
-9.73627e-08
0
0
0
-1.40027e-09
0
0
0
0
0
5.79994e-07
0
-4.01741e-10
0
1.64018e-10
1.49107e-08
0
2.22721e-09
0
0
0
7.0221e-10
-6.60711e-10
4.00891e-10
6.26246e-09
0
0
1.58909e-10
-1.5555e-09
0
2.07436e-07
0
0
2.39484e-10
2.65999e-06
0
0
-1.25072e-09
-9.81046e-10
-1.30841e-09
1.59628e-07
0
1.62576e-08
0
0
7.40818e-07
0
0
0
0
-6.04736e-08
0
3.54909e-07
0
8.57064e-09
0
0
0
1.13704e-09
-9.31948e-08
0
3.12665e-07
0
-2.07409e-09
-2.09569e-10
0
1.93942e-07
2.18952e-07
0
-7.33801e-08
0
0
0
2.34219e-10
1.04906e-08
0
-1.79362e-08
1.20482e-08
0
-4.3022e-08
0
0
1.22023e-05
-1.00439e-06
0
0
0
0
0
-1.69278e-06
0
0
0
0
0
0
2.01627e-05
-1.20548e-07
0
0
0
4.79492e-05
3.34568e-05
-2.56499e-06
0
0
-5.01283e-06
0
0
0
0
0
0
0
0
8.30809e-08
-4.88119e-08
0
8.44679e-09
0
-5.28849e-06
0
0
5.00244e-09
0
0
0
0
0
2.9293e-05
-1.09394e-06
0
-4.60877e-06
0
0
0
0
0
0
0
-4.11402e-07
0
0
0
-1.12612e-09
0
0
0
0
0
1.27676e-06
0
0
0
0
0
0
0
0
0
-5.83841e-06
0
0
0
0
0
0
0
0
1.1699e-06
0
1.22108e-07
0
0
-5.4391e-10
0
1.17868e-10
0
1.17229e-10
0
-1.27418e-09
1.62479e-10
0
0
0
0
0
0
0
-4.9639e-10
-2.05591e-10
1.77837e-09
-9.84906e-10
0
0
0
0
0
-2.34562e-10
1.05566e-10
-3.04907e-10
7.39372e-10
0
0
0
2.85064e-09
-1.10351e-09
4.87904e-10
-1.5085e-09
0
0
0
0
0
0
0
6.48405e-09
-1.04351e-08
5.22672e-09
0
0
0
0
0
4.43923e-10
2.42326e-10
0
0
0
0
0
0
0
3.16622e-10
0
0
0
0
0
0
0
0
0
0
0
0
0
0
0
-6.55554e-10
0
0
-1.09251e-10
0
0
-8.82489e-08
0
0
0
0
0
-6.46314e-08
0
-1.36058e-07
0
0
0
0
0
-6.68382e-10
0
0
0
0
0
1.32438e-07
0
0
0
0
0
0
0
0
0
0
0
0
0
0
0
4.93521e-10
0
0
0
0
0
0
0
0
0
0
0
0
0
0
0
0
0
0
0
0
0
0
0
1.65939e-08
-6.007e-09
0
0
0
0
2.89426e-09
0
0
0
-2.49677e-08
0
0
0
0
0
-7.28361e-09
0
0
-1.58662e-10
0
0
0
0
0
0
0
0
0
-1.91695e-10
0
0
0
0
0
1.99464e-10
0
0
0
0
-4.98551e-08
0
1.47777e-08
0
0
0
0
0
0
0
0
0
0
0
0
0
0
0
0
0
0
0
0
0
0
0
0
0
0
0
0
0
-1.09562e-09
0
1.52251e-09
0
0
0
0
0
0
0
0
0
0
0
0
0
0
0
0
-1.963e-10
-1.75751e-09
0
-2.40988e-09
0
0
0
0
0
0
0
0
0
0
0
0
0
0
0
0
0
0
0
0
0
0
0
0
0
0
0
1.02728e-08
0
0
-3.36098e-08
0
0
0
0
0
0.000712589
-0.000175433
8.50232e-05
-0.000333055
1.52761e-06
5.94555e-06
-7.74273e-07
1.76677e-07
2.47238
2.72045
0.879745
0.7823
-1.04432e-05
0.290825
-4.92923e-07
1.15978
5.72967e-06
0.0940729
-4.22978e-07
-0.0365468
1.05552e-07
-0.0244748
3.07798e-07
-0.0376297
-1.54956e-06
-1.70042e-09
-2.38871e-08
3.40709e-07
3.29504e-09
-1.11116e-10
2.33099e-09
-1.41874e-10
0
-0.00834781
0.0300741
0.827318
0.19311
1.45397e-05
2.0001e-06
0.00567079
1.74167e-07
-1.66218e-06
-1.60986e-07
0
-3.80004e-05
-0.00397548
-1.83603e-06
6.16828e-06
3.83585e-08
7.46218e-08
-4.55953e-06
-1.73131e-06
0
-1.38514e-08
-1.57208e-08
1.06864e-05
-6.54234e-06
5.10751e-07
0.00651647
8.3589e-07
-4.36752e-05
0
0.0038572
5.20416e-09
-0.000571632
-0.000819283
8.27717e-09
3.12757
-0.000216314
7.41802e-05
0
1.05438
6.07538e-06
1.52333e-05
0.0261353
7.70457e-05
0.0636293
0.000199173
-7.45548e-07
-3.12386e-06
-0.000755015
0
-0.000235855
2.87798e-07
0.00253163
-2.52213e-05
-1.29821e-06
0.00255686
0.00026791
1.12445e-05
-5.34689e-07
0.00276876
0.000305439
-6.52341e-05
-6.38534e-05
0.0326926
-6.08372e-09
6.56072e-06
-0.0229586
-6.89527e-05
0.00342706
-0.000176092
1.89897e-07
-4.8731e-05
6.73316e-05
0.00161068
-1.07151e-08
3.45983e-06
-1.86584e-05
5.16259e-09
0.0300248
-3.21281e-07
-0.000316515
-8.38143e-10
-0.00430618
0.00259213
0.000306985
2.38198e-08
-0.0112672
6.50162e-08
-0.00923315
-5.59273e-10
3.82724e-08
1.46902e-05
-5.20268e-09
1.10071e-05
1.31582e-09
1.99111e-05
5.15526e-07
-0.000787079
4.41193e-05
7.16613e-10
-1.36344e-06
-0.000872096
2.02162e-06
3.41352e-06
0.00204285
-6.43267e-08
-4.58873e-10
-0.00107517
-5.95047e-08
2.91638
0.000983653
-0.000305461
1.61374e-09
0.00478957
-4.00988e-08
-0.00760566
4.31075e-09
0.0357678
0.557242
1.36657
1.44438e-05
0.147933
-0.000101492
1.20401e-09
5.17642e-09
-3.67114e-06
1.2384e-08
-2.77694e-06
7.70418e-10
0.00051183
-0.00736936
3.37576e-05
-0.0164572
-0.00352883
0.00196453
-0.000232552
0.00022219
-5.05018e-07
-5.42814e-05
4.46458e-06
-2.72441e-06
1.26644e-05
2.65516e-09
0.00132547
9.84835e-05
6.74706e-07
0.00500243
0.00385808
0
-0.0113678
-4.60464e-09
-0.0007876
7.61382e-06
-0.000230948
0.00519849
3.25819e-05
-7.05809e-06
-5.41e-06
0.000289513
-1.06231e-05
-3.29538e-05
-2.91232e-06
5.45046e-05
1.22653e-05
0.000111773
0.000757154
-8.95023e-06
-0.000377988
-0.000446436
0.00222457
-4.78844e-05
-0.000716901
1.61805e-05
0.0038683
-1.02091e-08
0.00497131
0.00319713
0
-0.000504221
7.7097e-10
0.00170391
3.9135e-05
-9.2811e-05
3.34405e-05
-3.25999e-07
0.135954
-6.31784e-09
0.149347
-0.00067795
-1.16562e-06
0.00176483
0.000267811
6.87169e-05
-0.000505065
5.67259e-06
-0.000797173
1.68404e-06
1.34144
-1.93906e-08
1.42378
0.0119077
-2.15767e-05
0.442347
-4.497e-06
0.0162697
2.18686e-06
7.54207e-06
-0.00977386
7.9031e-06
-0.00497005
-4.62418e-05
0
0.000731059
0
0.00065007
0
-0.000106581
0.000921127
0.00180461
0.00130254
-0.00382234
1.43344e-07
0
0
6.26145e-10
3.2728e-09
-2.18488e-09
1.29582e-06
-4.45003e-10
0
0
0
0
-3.04064e-05
-4.0303e-06
1.63163e-05
-2.95183e-05
0
0
0
0
0
0
1.17094e-10
1.14722e-10
-4.88016e-07
1.11908e-06
-3.70901e-07
1.13954e-07
1.50271e-05
-6.0078e-06
2.40466e-06
-3.95366e-06
0
0
0
-4.02095e-05
1.49399e-05
-4.66392e-05
0.000134639
0
0
-5.81322e-07
3.9416e-09
0
-6.16629e-07
3.31487e-06
-1.75551e-09
0
-5.66684e-06
1.17867e-06
-6.71146e-05
7.70453e-05
-0.000347714
0.000219408
2.40811e-09
0
2.28236e-07
5.50116e-10
-3.83541e-07
-1.77213e-10
-1.7795e-10
1.52357e-06
-1.62931e-10
0
0
0
-3.9687e-10
0
0
0
1.98938e-05
0
5.29626e-09
0
0
2.87289e-07
0
0
0
-2.88279e-10
0
2.44868e-08
2.41082e-08
0
0
0
-6.90209e-06
8.75242e-06
0
0
-6.8909e-09
4.29605e-08
-1.75815e-09
0
0
1.59297e-10
2.08029e-07
5.51024e-09
8.24124e-10
2.16266e-06
1.35021e-08
-2.3327e-10
0
2.03572e-07
-4.44175e-08
2.49745e-05
-9.47647e-08
0
-9.17945e-09
-1.80363e-08
1.73724e-05
0
-6.78955e-08
2.22645e-08
-9.46294e-06
4.53019e-09
0
6.33085e-09
-1.08836e-06
-3.9909e-08
0
4.55899e-08
-6.83806e-08
6.11531e-10
-5.52519e-06
-9.42111e-09
-8.57647e-06
0
-1.32551e-09
0
1.90831e-08
-1.147e-08
-1.44108e-09
0
-3.59047e-09
5.49972e-09
0
0
-6.11499e-10
5.87138e-09
2.00453e-10
0
0
0
-6.99276e-09
-3.90594e-08
-1.61292e-09
0
-7.19973e-07
-3.28895e-10
0
-3.57096e-06
-6.47459e-08
4.51481e-09
1.78897e-06
-3.04388e-06
0
5.75478e-09
-1.03469e-07
0
5.30652e-09
1.11761e-09
0
2.38379e-09
-5.2775e-06
0
-2.30344e-10
-1.14231e-06
-0.00022724
0
0
5.90039e-05
0
0.000126677
-0.000526644
0
-5.17398e-08
0
-6.06079e-08
0
-1.14391e-08
7.71548e-08
-1.37351e-10
-8.19263e-07
2.74868e-07
0
0
2.9227e-07
-3.70119e-08
3.21027e-07
0
-1.14789e-07
0.000154555
0
1.16776e-07
0.000189742
1.94366e-08
-5.76469e-05
5.07808e-08
-3.68791e-05
0
6.51425e-07
-8.92583e-07
2.26674e-07
-1.44847e-08
3.15695e-06
4.18713e-09
2.59689e-06
-1.08558e-06
-6.75596e-08
1.34287e-10
1.79535e-07
-1.29857e-09
-8.43714e-10
0
1.36538e-10
-9.68204e-07
1.68489e-06
-2.99431e-10
3.63844e-08
0
-9.54323e-08
-8.76054e-07
0
1.87017e-06
6.73133e-10
0
1.69255e-06
-2.52866e-08
-8.16912e-06
1.81025e-07
2.9738e-06
6.32074e-08
-3.01292e-07
4.4037e-09
2.9315e-07
-4.56176e-09
-3.42723e-07
-8.62629e-09
-3.77212e-07
4.153e-09
9.75627e-07
-2.29997e-05
0
0
3.72514e-09
2.41447e-07
1.33376e-05
-1.24495e-08
0
-1.55452e-06
-2.60972e-09
0
-8.42253e-06
4.46336e-09
0
4.85212e-10
