# vtk DataFile Version 2.0
Unstructured Grid by M++
ASCII
DATASET UNSTRUCTURED_GRID
POINTS 4225 float
  5.312500   3.437500 0
  8.750000   1.562500 0
  5.625000   2.187500 0
  9.062500   0.312500 0
  9.375000   0.937500 0
  9.687500   0.625000 0
  2.812500   1.562500 0
  4.687500   5.625000 0
  8.125000   3.750000 0
  5.625000   1.875000 0
  5.312500   3.125000 0
  8.750000   1.250000 0
  9.375000   1.250000 0
  9.687500   0.312500 0
  9.375000   1.562500 0
  3.750000  10.000000 0
  4.687500   5.312500 0
  8.125000   3.437500 0
  5.625000   1.562500 0
  5.312500   2.812500 0
  4.375000   6.562500 0
  7.812500   4.687500 0
  5.000000   3.750000 0
  4.687500   5.000000 0
  8.125000   3.125000 0
  5.625000   1.250000 0
  5.312500   2.500000 0
  7.500000   5.625000 0
  4.375000   6.250000 0
  7.812500   4.375000 0
  9.375000   0.625000 0
  8.437500   4.375000 0
 10.000000   7.812500 0
  6.562500   9.687500 0
  5.937500   9.687500 0
  6.250000   9.687500 0
  6.562500   8.437500 0
  0.625000  10.000000 0
  2.500000   2.500000 0
  3.750000   0.937500 0
  6.875000   0.312500 0
  0.937500   0.625000 0
  6.875000   0.625000 0
  0.937500   0.937500 0
  5.000000   0.312500 0
  3.437500  10.000000 0
  5.000000   2.500000 0
  4.687500   3.750000 0
 10.000000   8.125000 0
  6.562500  10.000000 0
  1.875000   3.125000 0
  7.812500   2.812500 0
  4.375000   4.687500 0
  1.250000   5.625000 0
  7.187500   5.312500 0
  1.562500   4.375000 0
  7.500000   4.062500 0
  6.562500   7.812500 0
  6.250000   9.062500 0
  2.187500   1.875000 0
  8.125000   1.562500 0
  4.687500   3.437500 0
  5.312500   2.187500 0
  3.437500   1.250000 0
  2.812500   2.187500 0
  3.125000   0.937500 0
  4.375000   0.625000 0
  4.062500   5.937500 0
 10.000000   5.625000 0
  0.625000   7.812500 0
  6.562500   7.500000 0
  3.437500   8.437500 0
  9.375000   8.125000 0
  5.937500  10.000000 0
  3.750000   7.187500 0
  9.687500   6.875000 0
  6.250000   8.750000 0
  7.500000   7.187500 0
  8.125000   4.687500 0
  7.812500   5.937500 0
  1.250000  10.000000 0
  7.187500   9.687500 0
  5.312500  10.000000 0
  7.187500   5.937500 0
  4.687500   4.062500 0
  4.375000   5.312500 0
  6.875000   7.187500 0
  2.500000   0.625000 0
  8.437500   0.312500 0
  3.125000   2.187500 0
  3.437500   0.937500 0
  5.000000   2.812500 0
  3.437500   1.875000 0
  3.750000   0.625000 0
  7.500000   4.687500 0
  1.562500   5.000000 0
  5.000000   3.125000 0
  2.500000   1.562500 0
  8.437500   1.250000 0
  7.812500   3.437500 0
  1.875000   3.750000 0
  5.312500   1.875000 0
  8.125000   2.187500 0
  2.187500   2.500000 0
  5.625000   0.625000 0
  8.437500   0.937500 0
  2.500000   1.250000 0
  4.062500  10.000000 0
 10.000000   5.312500 0
  4.062500   5.625000 0
  6.562500   7.187500 0
  0.625000   7.500000 0
  1.562500   4.062500 0
  7.500000   3.750000 0
  7.500000   3.437500 0
  1.562500   3.750000 0
  9.687500   6.562500 0
  3.750000   6.875000 0
  6.250000   8.437500 0
  0.312500   8.750000 0
  1.250000   5.312500 0
  7.187500   5.000000 0
  9.375000   7.812500 0
  3.437500   8.125000 0
  0.937500   6.562500 0
  6.875000   6.250000 0
  7.187500   3.437500 0
  1.250000   3.750000 0
  0.937500   5.312500 0
  6.875000   5.000000 0
  6.562500   5.937500 0
  0.625000   6.250000 0
  6.250000   7.187500 0
  0.312500   7.500000 0
  1.250000   4.062500 0
  7.187500   3.750000 0
  6.875000   4.687500 0
  0.937500   5.000000 0
  1.875000   1.562500 0
  7.812500   1.250000 0
  6.875000   3.437500 0
  0.937500   3.750000 0
  7.500000   0.937500 0
  1.562500   1.250000 0
  0.937500   4.062500 0
  6.875000   3.750000 0
  1.562500   1.562500 0
  7.500000   1.250000 0
  7.187500   2.187500 0
  1.250000   2.500000 0
  4.687500   0.625000 0
  8.750000   0.312500 0
  2.812500   0.625000 0
  7.187500   1.250000 0
  1.250000   1.562500 0
  0.937500   2.500000 0
  6.875000   2.187500 0
  0.625000   3.750000 0
  6.562500   3.437500 0
  1.250000   1.250000 0
  7.187500   0.937500 0
  6.875000   2.812500 0
  0.937500   3.125000 0
  6.562500   4.062500 0
  0.625000   4.375000 0
  7.500000   0.312500 0
  1.562500   0.625000 0
  7.187500   1.562500 0
  1.250000   1.875000 0
  6.875000   9.687500 0
  0.937500  10.000000 0
  0.625000   4.062500 0
  6.562500   3.750000 0
  5.000000  10.000000 0
  8.437500  10.000000 0
  2.812500   9.062500 0
  8.750000   8.750000 0
  6.250000  10.000000 0
  6.562500   8.750000 0
  2.500000  10.000000 0
  8.437500   9.687500 0
  4.375000   5.625000 0
  1.875000   4.062500 0
  7.812500   3.750000 0
 10.000000   6.562500 0
  4.062500   6.875000 0
  7.500000   5.000000 0
  6.875000   7.500000 0
  9.687500   7.812500 0
  3.750000   8.125000 0
  7.187500   6.250000 0
 10.000000   8.437500 0
-10.000000  10.000000 0
 -4.687500   2.500000 0
  5.000000  -4.375000 0
-10.000000   5.312500 0
 -9.687500   4.062500 0
-10.000000 -10.000000 0
 -5.000000   2.500000 0
 -8.437500   4.375000 0
 -0.625000   1.875000 0
 -1.250000   4.375000 0
 -4.687500   6.250000 0
 -0.937500   2.812500 0
 -4.375000   4.687500 0
 -1.250000   4.062500 0
 -4.687500   5.937500 0
 -2.812500  10.000000 0
 -1.250000   3.750000 0
 -4.687500   5.625000 0
 -0.312500   0.937500 0
-10.000000   7.812500 0
 -1.250000   4.687500 0
  1.875000  -6.875000 0
 -9.375000   9.375000 0
 -9.062500   8.437500 0
 -9.375000   9.687500 0
 -5.937500   7.812500 0
 -9.687500   9.062500 0
 -5.625000   7.812500 0
 -5.312500   6.562500 0
 -8.750000   8.437500 0
 -5.000000   5.312500 0
 -5.312500   2.500000 0
 -8.750000   4.375000 0
 -5.625000   3.750000 0
 -9.062500   5.625000 0
 -9.375000  10.000000 0
 -5.937500   8.125000 0
 -9.062500   8.750000 0
 -5.625000   6.875000 0
 -6.250000   5.312500 0
 -9.687500   7.187500 0
  0.000000   0.312500 0
 -0.625000   4.062500 0
  5.937500  -9.375000 0
  5.000000   5.000000 0
 -0.937500   5.312500 0
  1.562500   6.875000 0
 -4.375000   7.187500 0
  5.625000  -8.125000 0
  9.375000 -10.000000 0
  5.937500  -8.125000 0
 -9.687500   6.875000 0
  0.000000   0.000000 0
  9.375000   6.562500 0
  3.437500   6.875000 0
 -2.500000   7.187500 0
 -7.812500  -4.375000 0
 -5.937500   5.000000 0
 -9.375000   6.875000 0
  0.312500   0.000000 0
-10.000000   4.687500 0
 -7.187500  -6.250000 0
 -9.062500   5.000000 0
 -6.250000   5.625000 0
 -9.687500   7.500000 0
  0.000000   0.625000 0
 -9.062500   9.062500 0
 -5.625000   7.187500 0
 -5.000000   6.250000 0
 -7.187500   2.812500 0
  5.625000   4.062500 0
 -0.312500   4.375000 0
  2.187500   5.937500 0
  8.125000   5.625000 0
 -3.750000   6.250000 0
  6.250000  -9.062500 0
  3.125000   2.500000 0
 -2.812500   2.812500 0
  5.312500   5.312500 0
 -0.625000   5.625000 0
  9.375000  -9.687500 0
 -0.625000   2.812500 0
  1.875000   4.375000 0
 -4.062500   4.687500 0
 -0.312500   1.562500 0
-10.000000   8.437500 0
 -0.937500   4.062500 0
  5.625000  -9.375000 0
 -1.250000   5.312500 0
  1.875000  -6.250000 0
  5.312500  -8.125000 0
  0.312500   5.000000 0
  6.250000   4.687500 0
 -5.625000   5.312500 0
 -8.750000  -3.437500 0
  4.062500   1.875000 0
 10.000000   1.562500 0
 -1.875000   2.187500 0
 -8.437500  -4.687500 0
 -9.375000  -1.562500 0
  1.250000  -6.250000 0
 -5.312500   7.187500 0
  6.250000  -9.375000 0
 -9.375000  -1.875000 0
-10.000000   5.000000 0
 -8.750000  -3.750000 0
 -5.937500   5.312500 0
 -9.375000   7.187500 0
  0.312500   0.312500 0
  0.937500  -5.312500 0
 -5.625000   8.125000 0
 -5.312500   6.875000 0
 -9.375000   9.062500 0
 -0.312500   3.125000 0
 -7.500000   2.812500 0
  5.312500   4.062500 0
 -0.625000   4.375000 0
  1.875000   5.937500 0
 -4.062500   6.250000 0
  5.937500  -9.062500 0
  1.562500   7.187500 0
 -4.375000   7.500000 0
  5.625000  -7.812500 0
  5.000000   5.312500 0
 -0.937500   5.625000 0
  9.062500  -9.687500 0
  5.937500   5.312500 0
  0.000000   5.625000 0
 -5.937500   5.937500 0
 -9.062500  -2.812500 0
  1.875000   5.000000 0
 -4.062500   5.312500 0
  5.937500 -10.000000 0
 -0.625000   3.437500 0
  5.312500  -7.500000 0
 -1.250000   5.937500 0
 -0.312500   2.187500 0
-10.000000   9.062500 0
  0.937500   8.750000 0
 -5.000000   9.062500 0
  5.000000  -6.250000 0
  8.750000  -9.375000 0
  2.812500  -9.062500 0
 -9.687500   9.375000 0
 -5.000000   5.625000 0
 -9.062500  -2.187500 0
 -0.625000   0.312500 0
  9.062500  -6.562500 0
 -0.625000   2.500000 0
 -4.062500   4.375000 0
 -8.125000   9.062500 0
 -2.187500   8.750000 0
  3.437500   9.687500 0
 -2.500000  10.000000 0
 -0.312500   1.250000 0
-10.000000   8.125000 0
 -1.250000   5.000000 0
 -2.187500   8.437500 0
 -8.125000   8.750000 0
  1.875000  -6.562500 0
  5.312500  -8.437500 0
 -9.687500   8.437500 0
  0.000000   1.562500 0
 -9.687500  10.000000 0
 -9.375000   8.750000 0
 -0.625000   3.125000 0
  1.875000   4.687500 0
 -4.062500   5.000000 0
  0.625000   9.687500 0
 -5.312500  10.000000 0
  4.687500  -5.312500 0
  3.750000   9.062500 0
 -8.125000   9.687500 0
 -2.187500   9.375000 0
 -0.312500   1.875000 0
-10.000000   8.750000 0
 -0.937500   4.375000 0
  2.187500  -7.187500 0
  5.625000  -9.062500 0
 -1.250000   5.625000 0
  3.750000   8.750000 0
 -2.187500   9.062500 0
 -8.125000   9.375000 0
  1.875000  -5.937500 0
  5.312500  -7.812500 0
  4.375000   6.875000 0
 -1.562500   7.187500 0
 -7.500000   7.500000 0
  8.437500  -8.125000 0
  2.500000  -7.812500 0
  0.000000   0.937500 0
 -9.687500   7.812500 0
 -0.937500   4.687500 0
  4.062500   7.812500 0
 -1.875000   8.125000 0
 -7.812500   8.437500 0
  2.187500  -6.875000 0
  5.625000  -8.750000 0
  5.625000   3.125000 0
 -0.312500   3.437500 0
  2.187500   5.000000 0
 -3.750000   5.312500 0
  6.250000 -10.000000 0
 -7.500000   3.125000 0
  5.000000   5.625000 0
 -0.937500   5.937500 0
  9.062500  -9.375000 0
  1.562500   7.500000 0
 -4.375000   7.812500 0
  5.625000  -7.500000 0
  5.937500  -8.750000 0
 -9.062500   9.375000 0
 -5.625000   7.500000 0
 -8.750000   8.125000 0
 -5.312500   6.250000 0
 -4.375000   2.812500 0
  5.312500  -4.062500 0
  5.937500   3.125000 0
  0.000000   3.437500 0
  2.500000   5.000000 0
[...]
CELL_DATA 4096
SCALARS scalar_value float 1
LOOKUP_TABLE default
0.00405116
0.00296696
0.00716301
0.00543359
0.00400231
0.00530769
6.32427e-06
3.95321e-06
0.0110804
0.000119256
7.9248e-05
0.00635095
0.00802236
0.00993712
0.00882576
0.00991441
0.0118428
0.00694153
0.00928599
0.00690699
0.000471408
0.000306044
0.000371494
0.00849852
0.010218
0.0144191
0.0120794
2.01723e-05
1.21901e-05
0.00181294
0.00141847
0.000597102
0.000841948
0.000964703
0.00140605
0.00180987
0.00125063
0.204756
0.221043
0.0871306
0.0238809
0.0719888
0.0177096
3.32834e-05
0.000238885
3.61395e-05
5.9035e-05
5.43154e-05
0.185732
0.00037513
0.00103786
0.000760131
0.000214248
0.000277612
6.25523e-05
0.000176102
3.8249e-05
0.000120593
3.94298e-05
0.000193596
6.45774e-05
0.00201211
0.00282889
0.0850296
0.0147559
0.138547
0.0530999
2.07759e-06
0.000255598
3.33869e-06
0.000399928
0.188048
0.103174
0.0198205
0.155647
0.066961
0.238433
0.160104
0.00173865
0.00301378
9.95861e-05
0.000628569
0.000675919
1.21875e-05
0.00240524
0.00438092
0.00015522
0.000959192
0.000996429
1.97191e-05
0.171383
0.0829351
0.00214438
0.00148256
2.45208e-05
0.000105132
0.000197733
1.42387e-05
4.3884e-05
7.43569e-06
0.00016818
0.000310816
2.37682e-05
7.35279e-05
1.32697e-05
0.0208528
0.00147964
1.86008e-05
0.0700356
0.00498815
0.0669718
0.0252501
0.000941596
0.162322
0.00690304
0.000144666
0.0015007
0.000109819
0.00634326
0.000645495
0.00451213
0.000420955
0.00101221
6.87928e-05
0.00446829
0.000825534
0.00319081
0.000538093
0.000407185
7.46087e-06
0.000448007
2.56406e-05
0.00204873
6.32512e-05
0.00122637
4.0824e-06
0.00026068
4.58374e-06
0.000290169
1.46686e-05
0.00137639
3.97793e-05
0.000844152
2.20725e-06
0.00452634
0.0490792
0.00691669
0.000822289
0.0172645
0.00374149
0.000122479
0.00463835
0.00550353
0.000551346
0.0124945
0.00278036
7.87629e-05
0.00318278
1.11558e-05
0.00318585
0.0377475
0.00816339
1.38879e-05
6.66236e-05
0.000104472
0.000304224
9.5033e-06
0.000641913
0.00105713
1.95502e-05
2.31063e-05
0.000109442
0.00016704
0.000468029
1.534e-05
0.000980946
0.00152176
0.203518
0.034089
0.00328
4.58593e-05
0.00924557
0.0958622
0.00194885
0.00957721
0.0101421
0.0943903
0.105153
0.0720207
0.0655535
8.80747e-06
5.65017e-05
4.93204e-06
3.35738e-05
8.36565e-06
5.75216e-05
0.0759198
0.0220792
0.00390984
0.0263432
0.016594
0.127503
1.45464e-05
9.43688e-05
0.0960573
0.0245795
0.00215633
0.00531526
0.0355688
0.0198034
0.000113262
0.00970617
0.0155071
6.96361e-05
0.00678615
0.0121441
9.66995e-06
0.000181126
0.00303121
0.0090558
0.000177245
0.0137046
0.0194971
7.86428e-05
0.000863982
0.14329
0.257638
0.0617773
2.49662e-05
0.00015204
0.00319721
0.00711084
0.000713665
0.0144834
1.59241e-05
0.000284958
0.000260005
0.0190924
0.0241316
0.000125623
0.00128216
2.02079e-05
1.55003e-05
1.31824e-05
9.31931e-05
0.120401
0.165076
0.0434231
2.67451e-05
2.18703e-05
0.000150679
4.53295e-06
0.000556943
1.87247e-05
0.000159008
0.00250251
0.000147889
0.000288438
2.4302e-06
1.12349e-06
2.15034e-06
8.28445e-06
1.28437e-06
0.000388668
9.33474e-06
0.000238342
1.48302e-05
0.00728666
0.000548313
0.000977847
0.00189518
7.79045e-05
0.000598126
2.42534e-06
0.141092
0.0544281
6.61242e-06
4.52479e-05
4.51017e-06
0.000102955
0.000113664
1.16401e-05
7.50741e-05
8.21815e-06
0.000164866
0.000183681
0.00361912
0.000443523
0.000231253
0.000848216
0.000253159
3.04115e-05
0.184858
0.100856
0.0029594
0.00221585
3.88111e-05
2.4348e-05
2.82975e-06
5.75705e-07
3.03907e-06
0.000360993
1.14168e-05
9.76284e-05
0.00170868
9.36427e-05
0.000183412
1.27705e-06
7.41969e-06
0.000230866
6.96956e-06
5.86267e-05
0.00115185
5.87157e-05
0.000114101
6.6102e-07
4.03493e-06
2.90721e-07
1.60451e-06
0.00403248
0.00128196
0.00019187
0.000913878
0.000567151
2.47752e-05
0.00716379
0.324466
0.00278138
0.000886626
0.000122872
0.000599612
0.000372029
1.52811e-05
0.00252776
0.179531
3.9724e-05
0.00215852
5.01352e-05
0.00202051
6.2384e-06
0.000415428
5.83172e-06
0.000718595
2.31983e-05
0.00144713
3.15966e-05
0.00143532
3.43636e-06
0.00026585
3.59637e-06
0.000477857
4.22185e-07
8.30883e-07
0.015875
0.119079
0.00357794
0.0545757
1.16686e-05
0.000977421
0.000649498
0.000161634
0.000641432
0.0184769
9.43026e-05
0.0047829
5.20431e-05
0.00204282
0.000360454
0.00316775
0.000271692
0.000766429
6.94818e-05
3.64574e-05
0.21601
0.0136745
0.0192327
3.37937e-05
0.00695792
0.00145933
0.000244503
0.00219488
0.000173593
0.000503172
4.14373e-05
2.24141e-05
0.19169
0.0118807
0.0978985
0.00252866
0.0418581
7.2482e-06
0.0015045
0.000638719
0.000428869
0.000101114
0.000431491
0.0133358
6.08132e-05
0.00327447
0.316924
0.0179779
0.0425343
0.190309
0.00583467
0.343565
0.0203986
0.0457443
0.224576
0.00720104
0.354506
0.0128015
0.0267871
0.222467
0.00474101
0.326623
0.0115752
0.025714
0.188379
0.00389919
0.0269085
0.00221543
2.93566e-05
0.00684677
0.0808785
0.0340166
0.00136408
0.183384
0.0098404
0.000219445
1.00661e-05
3.2963e-07
1.17153e-07
1.7322e-05
6.43268e-07
2.37435e-07
0.00516819
0.000666423
0.000357956
0.0012757
0.00039379
4.89118e-05
0.0002488
0.000149189
5.71576e-06
4.92121e-05
2.32245e-06
9.24175e-07
2.10574e-07
0.0423745
0.00480024
7.08837e-05
0.0122725
0.111547
0.00274389
0.000487161
2.94521e-05
1.23333e-06
4.72714e-07
1.03577e-07
0.00380416
0.0516649
0.000712093
0.000108362
0.0160002
0.0351606
0.0783478
0.252689
0.0129338
0.00384312
0.000482231
1.98526e-06
0.0848032
0.0390265
0.286011
0.0154412
0.00538956
0.000739835
3.15246e-06
0.0038107
0.0338982
0.101279
0.000573387
4.87384e-05
0.000752001
0.0266636
0.0360999
0.00224549
0.000347133
0.0448876
0.292205
0.00676473
0.00204239
0.0149906
0.205988
0.00281396
0.0304173
0.0798899
0.0223034
0.0266897
0.00155667
0.000221678
0.000374554
2.98952e-05
0.0380476
0.270151
0.00497866
0.00136078
0.0118377
0.175058
1.00159e-05
1.10688e-06
0.000524328
1.56997e-05
1.75839e-06
2.17073e-05
0.0051891
0.00102677
0.000163759
0.0204722
0.166733
0.00633946
0.0628128
0.0261899
0.12296
0.00121145
0.0235301
2.76206e-06
0.000705067
0.000264077
0.00492638
0.000188455
0.00667873
0.00874684
0.0790847
0.0340214
0.143843
0.00176205
0.0316161
4.45989e-06
0.00104042
0.000412921
0.000286801
0.00949816
0.0109643
0.00140014
0.000830858
0.0101408
0.00462244
0.0284014
0.0205403
0.000119848
0.0594916
2.59949e-05
1.41877e-05
0.000633319
0.0704608
0.0908816
0.014862
0.0139796
0.00257628
0.000584849
0.0232412
0.0473159
0.0268832
0.119466
0.000125728
0.0167603
0.039238
3.19635e-05
6.02206e-05
8.66824e-05
0.0120249
0.0315246
1.83105e-05
3.64617e-05
0.0183538
0.0194504
0.00360921
0.000896842
0.00195489
0.00124492
0.013926
0.00660378
0.0367023
4.46025e-05
2.37764e-05
0.0122661
0.00184362
0.00265928
0.0188636
0.00930729
0.0466968
7.48935e-05
3.95528e-05
0.000296557
0.00180706
0.00577471
0.0134317
0.0120337
8.44248e-05
0.0149663
0.0484478
0.00319373
0.0216493
6.87779e-05
6.3445e-05
5.85697e-05
0.0107488
0.0388099
0.00217924
0.0162636
4.07083e-05
3.85574e-05
0.00851047
5.89357e-05
0.0249304
0.00168622
7.70212e-06
0.0101739
0.0338403
0.000372795
0.0456115
3.4451e-05
0.000145595
0.102165
0.00187736
0.061077
1.02708e-05
2.17377e-05
0.00761356
4.0053e-05
0.0305973
0.00146928
0.0120461
0.031185
0.00025279
0.0578609
9.12779e-05
0.000157207
0.0973881
0.00126254
0.0796626
2.35763e-05
2.30947e-05
0.00532151
2.70216e-05
0.0237528
0.000979276
0.00880033
0.0230312
0.000179685
0.0480498
5.46103e-05
9.79931e-05
0.0766439
0.000957509
0.0712151
1.33656e-05
1.37151e-05
0.00594463
3.95464e-05
0.0194152
0.00112307
4.95403e-06
0.00745586
0.0249804
0.000263165
0.0379728
1.98204e-05
9.0487e-05
0.0804028
0.0014102
0.054672
5.64359e-06
1.28338e-05
0.00555271
0.00567275
0.0429808
0.00102583
0.00432746
0.0157061
0.00389574
0.00453462
0.0331561
0.000686008
0.00332121
0.0114007
0.00780521
0.00688596
0.0548496
0.0316941
0.1036
0.00151577
0.00549028
0.0213426
0.00324695
0.000239433
0.0062914
0.0129334
0.0584641
0.0026971
0.00352136
0.0251926
0.000123039
6.49065e-05
0.000453531
0.0024822
0.0081664
0.0108134
0.00810024
0.0688685
0.0413751
0.120945
0.0022119
0.006783
0.0285931
0.00427808
0.000365376
0.00892318
0.00250315
0.0136913
1.18422e-05
0.022556
0.0489002
0.25979
0.00866816
0.127581
0.0669701
0.00244927
0.0451535
0.0538601
0.00051963
0.336947
0.00445468
0.193833
0.00187503
0.12732
0.0789797
0.00052776
0.0071254
0.0144211
0.00213308
0.0138953
0.00187498
0.000198678
0.0267509
0.297248
0.000441319
2.62003e-05
0.00845334
0.18557
0.00367222
0.0181652
1.79977e-05
0.0243379
0.0524291
0.294406
0.0101596
0.156477
0.0720408
0.00312673
0.0593092
0.062494
0.000711914
0.000122191
0.109707
0.0191498
0.0451522
0.0169105
0.000566945
0.126198
0.0371044
0.00506808
0.0518869
0.0481034
0.0313497
0.00106253
0.115603
0.237636
0.0185888
0.0884066
0.01752
4.2072e-05
0.000240679
0.00468597
0.0093649
0.0619773
0.0268181
0.00014014
0.00106253
0.00444685
0.0119448
3.73447e-05
0.0588285
0.154457
0.0398743
0.00661233
0.0631109
0.0362368
0.00147768
0.12573
0.268598
0.0225521
0.0142927
0.0293187
0.292152
0.00644146
0.149136
0.094107
0.00205519
0.0545768
0.0796166
0.000475184
3.44175e-05
0.000195167
0.133751
0.0205619
0.059018
0.0194907
0.000849538
0.000673233
4.26689e-05
0.0310155
0.321862
0.00270309
1.2384e-06
0.000311097
0.0105763
0.218707
0.30969
0.00427885
0.164288
0.00159283
0.0623757
0.1135
0.000408575
0.00763273
0.0157454
8.76978e-05
1.09913e-05
0.0145957
0.00794316
0.278626
0.00394831
0.136631
0.12046
0.00131383
0.0484217
0.0992574
0.00030948
0.00922104
0.0137313
0.0278343
0.257562
0.00560883
0.121606
0.0874326
0.00162955
0.0415839
0.0684801
0.000349715
0.221934
0.00410029
2.62069e-05
0.0148958
1.36434e-05
2.42136e-05
0.000325774
0.000182975
0.0181732
0.0310936
0.158195
0.00461847
0.0540932
1.11695e-05
5.53861e-05
0.0622227
0.00103951
0.0480556
2.44774e-06
0.000377449
0.00279403
1.71621e-05
0.0112627
8.3061e-06
1.38697e-05
0.000207885
0.000125414
0.0130367
0.0250536
0.129078
0.00357689
0.0503119
6.16837e-06
3.33667e-05
0.04738
0.000752863
0.041497
1.53142e-06
0.000241104
1.37989e-05
0.00143812
9.53713e-05
5.40984e-06
0.000619222
0.000328986
0.0138489
7.11724e-06
0.0012532
0.00616808
4.29379e-06
8.08485e-05
0.000376169
0.0262304
0.0293931
0.00644554
5.662e-05
0.0155232
0.00202073
0.0814771
0.0411611
1.77357e-06
1.1591e-05
0.000152432
8.6831e-06
0.000948717
1.11123e-05
0.0018818
0.0083943
7.79119e-06
0.000130667
0.00053632
0.0355193
0.0352197
0.00922645
8.48077e-05
0.0198725
0.00271428
0.103444
0.0459259
3.33975e-06
1.97736e-05
4.00152e-08
0.352599
0.00769603
0.0144081
0.212026
0.00302506
0.101802
0.0894343
0.000826684
0.027771
0.0718215
0.000167386
1.91638e-08
5.68033e-08
1.66005e-07
0.0143113
0.00796882
0.245524
0.00351337
0.111544
0.111845
0.00105503
0.0369673
0.0851994
0.000229741
2.71862e-08
8.21888e-08
4.20479e-09
9.03034e-09
1.81442e-05
0.145956
0.0288778
0.00916246
0.0834225
0.172745
0.24443
0.0315867
0.24641
0.00139572
0.268614
0.00136169
0.308191
0.0024964
0.169422
0.00113163
0.00326931
0.282951
0.00247711
0.143945
0.000977582
0.00380001
7.84964e-07
0.00443707
0.224302
0.00213649
0.0982496
0.140032
0.000665736
0.00660186
0.00421155
0.254479
0.00234773
0.120026
0.150925
0.000818301
0.00635339
0.0724594
0.158497
0.216578
0.0256872
0.00107094
0.0021522
0.221697
0.00135875
0.00237731
0.00238797
0.195665
0.00126474
0.00273638
0.00125115
0.142236
4.5108e-06
0.102142
0.075994
0.0792645
0.00469667
0.0784942
0.00370404
0.0895143
0.0923778
0.117755
0.0489877
0.0682753
0.0660765
0.04737
0.0216261
2.28607e-05
3.23209e-05
1.79778e-05
1.28423e-05
0.000156549
9.28672e-05
8.33482e-05
0.00260697
0.14217
0.166145
0.132553
0.130748
0.0925432
0.0984062
0.0146997
0.0393859
0.0314975
0.0285843
0.0521983
0.0223314
0.032991
0.00379224
0.176719
0.0465437
0.0303263
0.0498242
0.0418141
0.0289599
0.0843944
0.111135
0.0622565
0.0409839
0.0157089
0.0158897
0.0111806
0.0110324
0.195214
0.201669
0.0533313
0.0175777
0.000335193
0.000314272
2.21443e-05
0.203646
0.152096
0.0100365
0.0157146
0.014324
0.0224138
1.02546e-05
0.0151773
0.243772
0.123939
0.0072921
0.021684
0.000573364
0.000523731
5.12542e-05
0.0106444
0.0152028
1.92091e-05
0.00329402
0.000226846
0.0492869
0.0121802
1.6642e-05
0.0481802
0.00674511
3.25482e-05
0.000888933
0.0669052
0.00618273
0.00241182
0.0685912
0.0116237
0.0210411
1.00245e-05
2.69312e-05
0.341432
0.0401747
0.0146892
0.0111078
0.0595308
6.75911e-05
1.00461e-05
0.0438988
3.97795e-05
2.75998e-06
0.0260395
0.0433473
5.68268e-05
2.46741e-06
0.0314212
9.76107e-05
9.53569e-06
0.0203979
0.0804004
0.0318075
0.240568
0.00624044
0.107733
0.0226595
0.0223943
9.68851e-06
0.000136155
0.0341341
0.0199279
1.01338e-05
3.16373e-06
3.2357e-06
7.28152e-05
0.0231092
0.0182952
0.0926268
0.0105153
0.00102508
0.0162227
0.000100735
0.00246159
0.0263001
0.053206
0.340777
3.02492e-06
5.05843e-09
0.000907477
6.0615e-05
0.0193019
0.0362097
0.0332486
0.364121
0.00511419
1.13164e-05
0.000539257
6.4141e-08
0.105635
0.0118719
0.281566
0.230115
0.343375
0.355058
0.0052065
0.0905431
0.231807
0.0131999
0.11219
0.272357
0.00934319
0.268895
0.32866
0.372075
0.200903
0.130671
0.000721656
0.000168135
4.77747e-05
2.3345e-05
2.15056e-05
0.00941579
4.99722e-05
0.0196962
4.32355e-05
0.000348693
8.95569e-06
0.117666
0.00430664
0.00133399
3.23877e-05
0.163882
0.151969
0.102547
0.00123843
0.0709188
0.00904773
0.000780581
1.24227e-05
0.000944566
0.000850451
0.000106601
0.103538
0.00172562
0.000559053
7.6402e-06
6.19055e-05
3.20511e-06
0.0901066
0.00532236
5.2232e-06
0.000581918
0.0110555
9.78884e-06
0.042054
0.0434508
2.45677e-05
0.0589393
5.13139e-05
0.0236118
0.352795
0.0524971
0.0570546
0.0759775
0.373647
0.000380942
5.35336e-05
0.000753048
0.0874473
0.18192
0.0242267
0.0310197
0.379045
0.084911
0.358631
0.000612629
0.000109443
0.00123741
0.108682
0.193523
0.352808
0.351683
0.191409
7.05918e-06
0.0662708
0.38132
0.186649
0.000230707
2.37884e-05
0.000442188
0.000695364
0.000427391
4.76823e-05
0.300074
0.00296747
0.0138577
0.000150699
2.9222e-06
0.000413952
0.000248561
2.00104e-05
0.0992881
0.000914901
0.0753786
0.00745948
0.00888251
7.31623e-05
0.00028755
5.35826e-07
6.22457e-05
3.90515e-07
0.000322919
0.0073319
0.0446183
0.0499449
0.0206761
0.357155
0.0712396
0.0147959
0.323392
0.000191022
0.00391616
0.125315
0.157845
2.70822e-05
0.000138149
6.80123e-06
0.000240491
0.100072
0.148373
1.39908e-05
7.27833e-05
1.49501e-06
0.000136499
1.14196e-05
9.98919e-05
1.81456e-06
0.000105191
2.19131e-05
0.000187697
7.83964e-06
0.000183978
7.65051e-06
0.0322054
0.000155755
0.00869366
1.63673e-05
0.00222393
0.0448587
0.000261105
0.131293
0.164559
0.1184
0.159319
0.12594
0.127121
0.0571749
0.000517558
0.00155675
0.000107142
0.0276045
0.000175226
0.00473212
3.80415e-05
1.95936e-06
3.26676e-06
0.29044
0.00855396
0.0458939
0.0127558
0.0512396
0.000371434
2.45071e-05
4.12038e-07
0.162712
0.0760091
0.00278832
0.0367514
0.000222764
1.1617e-05
0.130753
0.0790229
0.00191761
0.000516656
3.25002e-05
0.0131313
1.04144e-06
0.000962698
2.96779e-07
8.00026e-06
0.110409
0.00191956
6.90522e-06
3.59397e-05
7.57681e-05
2.84241e-06
4.1169e-05
3.07102e-06
5.11977e-05
0.0680537
0.00560236
0.166799
0.237818
0.0201189
0.000617939
0.0742932
0.308562
5.75918e-06
5.88025e-05
0.0055445
1.63745e-05
0.000598896
1.03745e-07
0.00350571
3.27064e-05
0.0212448
0.252377
0.0021727
0.121352
0.000390738
1.32061e-07
0.00389909
0.000986244
2.53739e-06
3.21689e-05
1.72383e-05
5.04133e-06
0.102126
0.00127989
3.80071e-06
0.380901
0.150426
0.000210006
0.000657306
0.00252535
8.77676e-06
0.000136254
0.000249281
0.000115211
1.73228e-05
2.14493e-06
7.85648e-05
9.05399e-06
0.000109364
0.0015883
0.000425169
0.00120426
0.0107864
4.49711e-06
0.00127023
0.182963
0.0373302
0.129845
0.00214507
0.259171
0.00856624
0.0467789
0.000180834
0.281108
0.000353111
0.00605901
2.78181e-07
0.00127447
0.00663854
0.00305643
2.32395e-06
0.00965031
0.0295095
0.00537526
0.000116306
0.0456983
0.0846435
0.0035173
0.00150327
0.254884
0.00604231
0.0593487
0.0114746
0.23388
0.0470017
0.00478291
0.00737207
0.135548
0.00296114
0.0321758
5.15654e-05
0.203593
0.0156304
0.00099911
0.108954
0.000849412
0.211206
0.000291582
8.5533e-09
0.00311329
4.56551e-06
0.09635
0.284559
0.0104169
0.0304551
0.0295125
0.00107615
0.0899094
0.312386
0.00576138
7.22515e-05
0.0286194
0.00267161
0.284016
0.000708593
8.3413e-07
0.00585195
0.00143372
0.154245
0.0152106
0.0160331
0.000133927
0.0457024
0.0176526
0.353356
0.0310753
0.00201461
0.154576
0.0189414
0.0016677
0.157691
0.000292394
0.0519602
0.00425037
0.187936
0.0563257
0.0336654
0.00692375
0.000720582
0.00347828
0.000712061
0.00307417
3.87005e-07
0.0018466
1.60555e-06
0.00974043
0.0134374
6.78443e-05
4.42752e-05
4.64375e-06
5.43255e-05
0.000968362
0.000267328
0.00714023
0.117178
0.00138427
0.116412
0.0214922
0.265437
0.00723044
0.0619776
0.000208337
0.00134387
0.00150427
0.0150547
0.00615799
0.00022433
0.037596
0.0632698
0.00309384
0.0971102
0.00220472
0.00420856
7.20116e-06
0.00941215
0.0352587
0.00986781
0.286871
0.0326785
0.393589
0.225477
0.00484616
0.00010983
0.0434798
0.210025
0.00141177
0.0227378
0.00147307
0.131989
0.00063786
1.63892e-06
0.00912068
0.016879
0.0766263
0.31976
0.301011
0.00922302
0.037518
0.0031397
0.000146814
0.311144
0.0419941
0.10595
0.0018148
0.309696
0.00125464
0.00854235
0.0020155
3.27245e-06
0.190259
0.0130955
0.00142683
0.127596
0.160618
0.00260559
0.000180719
0.0384023
0.171589
0.0735227
0.00423289
0.217973
0.0100956
0.00068098
0.00737693
0.148987
0.000918036
1.18315e-06
0.026346
0.110137
0.26324
0.00127288
0.00536121
0.0356317
0.258465
9.02225e-05
8.88146e-05
0.0224866
0.0849068
0.002531
0.108589
0.0318428
0.012853
0.319432
0.0383662
0.0206954
0.396397
0.0187832
0.0796896
0.309116
0.287099
0.346326
0.0228389
0.00670849
0.0466326
0.000410696
0.00372156
0.0055853
0.0129841
1.87195e-05
0.000391044
0.00206352
0.00232165
5.75368e-08
0.00106662
4.68301e-07
0.270902
0.0722918
0.00743459
0.0173855
0.169882
0.00112613
0.0133597
6.02778e-06
0.204964
0.0320486
0.00193708
0.155634
0.00248197
0.243006
0.0077228
0.0571558
0.000217329
0.051233
0.00351422
0.14909
0.250456
0.0020799
1.31865e-05
0.00169418
0.015346
0.218044
0.0133164
0.000341924
0.0597583
0.29805
0.00337219
6.73333e-06
0.00467342
0.000325527
1.41888e-08
0.000127942
0.0256305
0.0271215
0.38185
0.0651068
0.374669
0.308404
0.010537
0.0551836
0.0193504
0.00276344
0.026527
0.182235
0.152165
0.00281046
0.000455594
0.00674974
0.0683754
0.200245
0.000254845
0.0576749
0.199902
0.00649567
0.00335174
0.185646
0.00326783
0.0264071
4.16057e-05
0.231309
0.03201
0.0718782
0.00373687
0.000890233
0.00602102
0.022546
0.00447749
5.64157e-05
0.0638848
0.012647
0.319583
0.0285577
0.209173
0.0359265
0.00368571
0.144604
0.00461218
0.00176371
0.023163
0.178588
2.17955e-05
0.0104226
0.000685697
0.087512
0.208029
0.000474292
0.330622
0.00245861
0.000923142
0.0914958
0.115752
0.231715
0.0161699
0.00541069
0.0670715
2.99937e-06
0.000376213
0.00490838
1.93779e-07
0.000641005
2.44108e-05
2.1809e-06
2.47945e-05
0.000570681
0.00016362
6.60789e-07
1.84121e-07
2.94748e-09
2.31737e-08
0.0180266
0.0909485
0.000732711
0.262078
1.12336e-07
3.886e-08
1.24667e-06
0.0152737
4.80892e-05
0.0694481
0.000595919
7.8757e-06
0.0036127
0.000420507
0.0607577
0.14912
0.0211312
0.00390072
0.208186
0.105199
0.00571172
0.000653033
0.0800132
0.156631
0.196874
0.00393908
0.0718701
0.225042
0.0230828
0.250885
0.00737416
0.0389654
0.0849463
0.280975
0.00891339
0.031473
0.0437207
0.178701
0.196622
0.00258346
0.00406927
0.0119704
0.0730926
0.255338
0.000407469
0.00194189
0.0190415
0.201196
1.71759e-05
0.238781
0.0283727
0.00520676
0.0987642
0.00877778
0.000980629
0.102459
0.160404
0.338281
0.00680014
0.266753
0.036757
0.00676357
0.091721
0.00818459
0.305652
0.007907
0.00135056
0.139112
0.00113861
0.000706417
0.000101055
0.0050639
0.00443587
1.61153e-06
0.00126312
0.00147184
9.32323e-05
0.00617084
1.0918e-06
0.00122216
0.000374124
4.70452e-06
0.0023638
0.000186541
0.00870624
3.56432e-06
0.00211507
0.000304593
9.93987e-05
5.73522e-06
0.00181504
0.00112701
0.000199684
0.0102079
0.000175386
0.0153376
0.00618813
0.00716894
5.12761e-06
0.0021857
0.346642
0.0163003
0.0239081
0.0782142
0.00596386
0.0439056
0.390374
0.0204909
0.296134
0.00940418
0.0568665
0.027526
0.0566543
0.0154042
0.145907
0.00201294