# vtk DataFile Version 2.0
Unstructured Grid by M++
ASCII
DATASET UNSTRUCTURED_GRID
POINTS 4225 float
  5.312500   3.437500 0
  8.750000   1.562500 0
  5.625000   2.187500 0
  9.062500   0.312500 0
  9.375000   0.937500 0
  9.687500   0.625000 0
  2.812500   1.562500 0
  4.687500   5.625000 0
  8.125000   3.750000 0
  5.625000   1.875000 0
  5.312500   3.125000 0
  8.750000   1.250000 0
  9.375000   1.250000 0
  9.687500   0.312500 0
  9.375000   1.562500 0
  3.750000  10.000000 0
  4.687500   5.312500 0
  8.125000   3.437500 0
  5.625000   1.562500 0
  5.312500   2.812500 0
  4.375000   6.562500 0
  7.812500   4.687500 0
  5.000000   3.750000 0
  4.687500   5.000000 0
  8.125000   3.125000 0
  5.625000   1.250000 0
  5.312500   2.500000 0
  7.500000   5.625000 0
  4.375000   6.250000 0
  7.812500   4.375000 0
  9.375000   0.625000 0
  8.437500   4.375000 0
 10.000000   7.812500 0
  6.562500   9.687500 0
  5.937500   9.687500 0
  6.250000   9.687500 0
  6.562500   8.437500 0
  0.625000  10.000000 0
  2.500000   2.500000 0
  3.750000   0.937500 0
  6.875000   0.312500 0
  0.937500   0.625000 0
  6.875000   0.625000 0
  0.937500   0.937500 0
  5.000000   0.312500 0
  3.437500  10.000000 0
  5.000000   2.500000 0
  4.687500   3.750000 0
 10.000000   8.125000 0
  6.562500  10.000000 0
  1.875000   3.125000 0
  7.812500   2.812500 0
  4.375000   4.687500 0
  1.250000   5.625000 0
  7.187500   5.312500 0
  1.562500   4.375000 0
  7.500000   4.062500 0
  6.562500   7.812500 0
  6.250000   9.062500 0
  2.187500   1.875000 0
  8.125000   1.562500 0
  4.687500   3.437500 0
  5.312500   2.187500 0
  3.437500   1.250000 0
  2.812500   2.187500 0
  3.125000   0.937500 0
  4.375000   0.625000 0
  4.062500   5.937500 0
 10.000000   5.625000 0
  0.625000   7.812500 0
  6.562500   7.500000 0
  3.437500   8.437500 0
  9.375000   8.125000 0
  5.937500  10.000000 0
  3.750000   7.187500 0
  9.687500   6.875000 0
  6.250000   8.750000 0
  7.500000   7.187500 0
  8.125000   4.687500 0
  7.812500   5.937500 0
  1.250000  10.000000 0
  7.187500   9.687500 0
  5.312500  10.000000 0
  7.187500   5.937500 0
  4.687500   4.062500 0
  4.375000   5.312500 0
  6.875000   7.187500 0
  2.500000   0.625000 0
  8.437500   0.312500 0
  3.125000   2.187500 0
  3.437500   0.937500 0
  5.000000   2.812500 0
  3.437500   1.875000 0
  3.750000   0.625000 0
  7.500000   4.687500 0
  1.562500   5.000000 0
  5.000000   3.125000 0
  2.500000   1.562500 0
  8.437500   1.250000 0
  7.812500   3.437500 0
  1.875000   3.750000 0
  5.312500   1.875000 0
  8.125000   2.187500 0
  2.187500   2.500000 0
  5.625000   0.625000 0
  8.437500   0.937500 0
  2.500000   1.250000 0
  4.062500  10.000000 0
 10.000000   5.312500 0
  4.062500   5.625000 0
  6.562500   7.187500 0
  0.625000   7.500000 0
  1.562500   4.062500 0
  7.500000   3.750000 0
  7.500000   3.437500 0
  1.562500   3.750000 0
  9.687500   6.562500 0
  3.750000   6.875000 0
  6.250000   8.437500 0
  0.312500   8.750000 0
  1.250000   5.312500 0
  7.187500   5.000000 0
  9.375000   7.812500 0
  3.437500   8.125000 0
  0.937500   6.562500 0
  6.875000   6.250000 0
  7.187500   3.437500 0
  1.250000   3.750000 0
  0.937500   5.312500 0
  6.875000   5.000000 0
  6.562500   5.937500 0
  0.625000   6.250000 0
  6.250000   7.187500 0
  0.312500   7.500000 0
  1.250000   4.062500 0
  7.187500   3.750000 0
  6.875000   4.687500 0
  0.937500   5.000000 0
  1.875000   1.562500 0
  7.812500   1.250000 0
  6.875000   3.437500 0
  0.937500   3.750000 0
  7.500000   0.937500 0
  1.562500   1.250000 0
  0.937500   4.062500 0
  6.875000   3.750000 0
  1.562500   1.562500 0
  7.500000   1.250000 0
  7.187500   2.187500 0
  1.250000   2.500000 0
  4.687500   0.625000 0
  8.750000   0.312500 0
  2.812500   0.625000 0
  7.187500   1.250000 0
  1.250000   1.562500 0
  0.937500   2.500000 0
  6.875000   2.187500 0
  0.625000   3.750000 0
  6.562500   3.437500 0
  1.250000   1.250000 0
  7.187500   0.937500 0
  6.875000   2.812500 0
  0.937500   3.125000 0
  6.562500   4.062500 0
  0.625000   4.375000 0
  7.500000   0.312500 0
  1.562500   0.625000 0
  7.187500   1.562500 0
  1.250000   1.875000 0
  6.875000   9.687500 0
  0.937500  10.000000 0
  0.625000   4.062500 0
  6.562500   3.750000 0
  5.000000  10.000000 0
  8.437500  10.000000 0
  2.812500   9.062500 0
  8.750000   8.750000 0
  6.250000  10.000000 0
  6.562500   8.750000 0
  2.500000  10.000000 0
  8.437500   9.687500 0
  4.375000   5.625000 0
  1.875000   4.062500 0
  7.812500   3.750000 0
 10.000000   6.562500 0
  4.062500   6.875000 0
  7.500000   5.000000 0
  6.875000   7.500000 0
  9.687500   7.812500 0
  3.750000   8.125000 0
  7.187500   6.250000 0
 10.000000   8.437500 0
-10.000000  10.000000 0
 -4.687500   2.500000 0
  5.000000  -4.375000 0
-10.000000   5.312500 0
 -9.687500   4.062500 0
-10.000000 -10.000000 0
 -5.000000   2.500000 0
 -8.437500   4.375000 0
 -0.625000   1.875000 0
 -1.250000   4.375000 0
 -4.687500   6.250000 0
 -0.937500   2.812500 0
 -4.375000   4.687500 0
 -1.250000   4.062500 0
 -4.687500   5.937500 0
 -2.812500  10.000000 0
 -1.250000   3.750000 0
 -4.687500   5.625000 0
 -0.312500   0.937500 0
-10.000000   7.812500 0
 -1.250000   4.687500 0
  1.875000  -6.875000 0
 -9.375000   9.375000 0
 -9.062500   8.437500 0
 -9.375000   9.687500 0
 -5.937500   7.812500 0
 -9.687500   9.062500 0
 -5.625000   7.812500 0
 -5.312500   6.562500 0
 -8.750000   8.437500 0
 -5.000000   5.312500 0
 -5.312500   2.500000 0
 -8.750000   4.375000 0
 -5.625000   3.750000 0
 -9.062500   5.625000 0
 -9.375000  10.000000 0
 -5.937500   8.125000 0
 -9.062500   8.750000 0
 -5.625000   6.875000 0
 -6.250000   5.312500 0
 -9.687500   7.187500 0
  0.000000   0.312500 0
 -0.625000   4.062500 0
  5.937500  -9.375000 0
  5.000000   5.000000 0
 -0.937500   5.312500 0
  1.562500   6.875000 0
 -4.375000   7.187500 0
  5.625000  -8.125000 0
  9.375000 -10.000000 0
  5.937500  -8.125000 0
 -9.687500   6.875000 0
  0.000000   0.000000 0
  9.375000   6.562500 0
  3.437500   6.875000 0
 -2.500000   7.187500 0
 -7.812500  -4.375000 0
 -5.937500   5.000000 0
 -9.375000   6.875000 0
  0.312500   0.000000 0
-10.000000   4.687500 0
 -7.187500  -6.250000 0
 -9.062500   5.000000 0
 -6.250000   5.625000 0
 -9.687500   7.500000 0
  0.000000   0.625000 0
 -9.062500   9.062500 0
 -5.625000   7.187500 0
 -5.000000   6.250000 0
 -7.187500   2.812500 0
  5.625000   4.062500 0
 -0.312500   4.375000 0
  2.187500   5.937500 0
  8.125000   5.625000 0
 -3.750000   6.250000 0
  6.250000  -9.062500 0
  3.125000   2.500000 0
 -2.812500   2.812500 0
  5.312500   5.312500 0
 -0.625000   5.625000 0
  9.375000  -9.687500 0
 -0.625000   2.812500 0
  1.875000   4.375000 0
 -4.062500   4.687500 0
 -0.312500   1.562500 0
-10.000000   8.437500 0
 -0.937500   4.062500 0
  5.625000  -9.375000 0
 -1.250000   5.312500 0
  1.875000  -6.250000 0
  5.312500  -8.125000 0
  0.312500   5.000000 0
  6.250000   4.687500 0
 -5.625000   5.312500 0
 -8.750000  -3.437500 0
  4.062500   1.875000 0
 10.000000   1.562500 0
 -1.875000   2.187500 0
 -8.437500  -4.687500 0
 -9.375000  -1.562500 0
  1.250000  -6.250000 0
 -5.312500   7.187500 0
  6.250000  -9.375000 0
 -9.375000  -1.875000 0
-10.000000   5.000000 0
 -8.750000  -3.750000 0
 -5.937500   5.312500 0
 -9.375000   7.187500 0
  0.312500   0.312500 0
  0.937500  -5.312500 0
 -5.625000   8.125000 0
 -5.312500   6.875000 0
 -9.375000   9.062500 0
 -0.312500   3.125000 0
 -7.500000   2.812500 0
  5.312500   4.062500 0
 -0.625000   4.375000 0
  1.875000   5.937500 0
 -4.062500   6.250000 0
  5.937500  -9.062500 0
  1.562500   7.187500 0
 -4.375000   7.500000 0
  5.625000  -7.812500 0
  5.000000   5.312500 0
 -0.937500   5.625000 0
  9.062500  -9.687500 0
  5.937500   5.312500 0
  0.000000   5.625000 0
 -5.937500   5.937500 0
 -9.062500  -2.812500 0
  1.875000   5.000000 0
 -4.062500   5.312500 0
  5.937500 -10.000000 0
 -0.625000   3.437500 0
  5.312500  -7.500000 0
 -1.250000   5.937500 0
 -0.312500   2.187500 0
-10.000000   9.062500 0
  0.937500   8.750000 0
 -5.000000   9.062500 0
  5.000000  -6.250000 0
  8.750000  -9.375000 0
  2.812500  -9.062500 0
 -9.687500   9.375000 0
 -5.000000   5.625000 0
 -9.062500  -2.187500 0
 -0.625000   0.312500 0
  9.062500  -6.562500 0
 -0.625000   2.500000 0
 -4.062500   4.375000 0
 -8.125000   9.062500 0
 -2.187500   8.750000 0
  3.437500   9.687500 0
 -2.500000  10.000000 0
 -0.312500   1.250000 0
-10.000000   8.125000 0
 -1.250000   5.000000 0
 -2.187500   8.437500 0
 -8.125000   8.750000 0
  1.875000  -6.562500 0
  5.312500  -8.437500 0
 -9.687500   8.437500 0
  0.000000   1.562500 0
 -9.687500  10.000000 0
 -9.375000   8.750000 0
 -0.625000   3.125000 0
  1.875000   4.687500 0
 -4.062500   5.000000 0
  0.625000   9.687500 0
 -5.312500  10.000000 0
  4.687500  -5.312500 0
  3.750000   9.062500 0
 -8.125000   9.687500 0
 -2.187500   9.375000 0
 -0.312500   1.875000 0
-10.000000   8.750000 0
 -0.937500   4.375000 0
  2.187500  -7.187500 0
  5.625000  -9.062500 0
 -1.250000   5.625000 0
  3.750000   8.750000 0
 -2.187500   9.062500 0
 -8.125000   9.375000 0
  1.875000  -5.937500 0
  5.312500  -7.812500 0
  4.375000   6.875000 0
 -1.562500   7.187500 0
 -7.500000   7.500000 0
  8.437500  -8.125000 0
  2.500000  -7.812500 0
  0.000000   0.937500 0
 -9.687500   7.812500 0
 -0.937500   4.687500 0
  4.062500   7.812500 0
 -1.875000   8.125000 0
 -7.812500   8.437500 0
  2.187500  -6.875000 0
  5.625000  -8.750000 0
  5.625000   3.125000 0
 -0.312500   3.437500 0
  2.187500   5.000000 0
 -3.750000   5.312500 0
  6.250000 -10.000000 0
 -7.500000   3.125000 0
  5.000000   5.625000 0
 -0.937500   5.937500 0
  9.062500  -9.375000 0
  1.562500   7.500000 0
 -4.375000   7.812500 0
  5.625000  -7.500000 0
  5.937500  -8.750000 0
 -9.062500   9.375000 0
 -5.625000   7.500000 0
 -8.750000   8.125000 0
 -5.312500   6.250000 0
 -4.375000   2.812500 0
  5.312500  -4.062500 0
  5.937500   3.125000 0
  0.000000   3.437500 0
  2.500000   5.000000 0
[...]
CELL_DATA 4096
SCALARS scalar_value float 1
LOOKUP_TABLE default
0.00644281
0.00483497
0.0108343
0.00842913
0.00618834
0.00801001
2.00101e-05
1.28474e-05
0.0155072
0.00031152
0.00021309
0.00910565
0.0112236
0.0135601
0.012671
0.0176377
0.0170105
0.0127239
0.0136892
0.0101689
0.000926561
0.000615424
0.000723022
0.0113122
0.0132707
0.0187007
0.0160719
5.53228e-05
3.42624e-05
0.00258367
0.0019201
0.000844407
0.00124968
0.00173863
0.00247583
0.00320786
0.00227118
0.226998
0.237827
0.112054
0.0396553
0.0952976
0.0304046
8.89911e-05
0.000475199
9.51161e-05
0.00015143
0.000141486
0.212156
0.000502353
0.00132476
0.000903901
0.000268179
0.000534535
0.000158096
0.00034624
9.91459e-05
0.000234125
0.000100707
0.000368402
0.0001609
0.0034596
0.00474678
0.112649
0.0257242
0.16328
0.07951
6.95324e-06
0.000596503
1.0891e-05
0.00090788
0.227904
0.132721
0.0334087
0.178144
0.0967471
0.263731
0.200127
0.00265584
0.0057013
0.000260422
0.0013405
0.00113446
3.63203e-05
0.00359506
0.0080566
0.000394427
0.00199046
0.00163762
5.71971e-05
0.190489
0.115547
0.003475
0.00302213
7.06377e-05
0.00025198
0.000364229
3.81225e-05
8.8564e-05
1.64055e-05
0.000392897
0.000561121
6.21806e-05
0.000145574
2.87503e-05
0.03452
0.00304863
5.47455e-05
0.0989116
0.00962708
0.0944285
0.0404136
0.00210394
0.194282
0.0125359
0.000371988
0.00285353
0.000279818
0.0108313
0.00146625
0.00791857
0.000984591
0.00197507
0.000180208
0.00756347
0.00181874
0.00554432
0.0012203
0.000892
2.28323e-05
0.000767553
5.27265e-05
0.00398565
0.000170159
0.00191362
9.16895e-06
0.000586278
1.43934e-05
0.000507253
3.07242e-05
0.00275272
0.000110047
0.001345
5.04484e-06
0.00885451
0.0711783
0.00943174
0.00185646
0.0282901
0.0056257
0.000317487
0.00859784
0.00768456
0.00128279
0.0210795
0.00427787
0.000210103
0.00607132
2.50061e-05
0.00643325
0.056378
0.0103491
3.77768e-05
0.000136367
0.000253752
0.000567166
2.89106e-05
0.00138374
0.00179153
4.3012e-05
6.1382e-05
0.000219605
0.000395251
0.000854389
4.54217e-05
0.00205668
0.00252255
0.22511
0.0525351
0.00637781
0.000127631
0.0166981
0.12517
0.00409215
0.0118528
0.0114112
0.114804
0.122545
0.0847077
0.0806296
2.04299e-05
0.000119587
1.16518e-05
7.24663e-05
2.04083e-05
0.000127664
0.107625
0.0264952
0.00639917
0.0424466
0.0220505
0.153697
3.48044e-05
0.000205062
0.132034
0.028737
0.00436573
0.0084814
0.0555899
0.0256352
0.000249182
0.0174403
0.02228
0.000156606
0.0125683
0.0179185
2.81363e-05
0.000389557
0.00603118
0.0141123
0.000449645
0.0238834
0.0272726
0.000202628
0.0016725
0.165804
0.276394
0.0849561
5.85512e-05
0.00032326
0.00628551
0.0110577
0.00137018
0.018785
4.51817e-05
0.000598726
0.000640346
0.0322615
0.0328596
0.000314888
0.00242067
4.67006e-05
3.52857e-05
3.64423e-05
0.000193318
0.155667
0.194271
0.0659015
5.97224e-05
5.90178e-05
0.000306172
9.51351e-06
0.00116432
5.36674e-05
0.000260485
0.00466541
0.000372689
0.000431294
5.19012e-06
2.36036e-06
4.4405e-06
1.70819e-05
2.8866e-06
0.000842342
2.80033e-05
0.000403379
3.00339e-05
0.0125044
0.00126667
0.00137558
0.00365727
0.000205639
0.000923389
5.35803e-06
0.175564
0.07965
1.58764e-05
9.90606e-05
9.79131e-06
0.000243593
0.000206632
2.74267e-05
0.00016105
1.75272e-05
0.000380438
0.000327504
0.0065652
0.000649988
0.000566316
0.0017274
0.000406712
8.48456e-05
0.199525
0.135406
0.00468576
0.00439011
0.00010873
7.09387e-05
9.41371e-06
1.23028e-06
5.96469e-06
0.000774262
3.35965e-05
0.000163042
0.00327254
0.000242748
0.000279756
2.77469e-06
1.4793e-05
0.000507694
2.10408e-05
9.97873e-05
0.00226541
0.000156504
0.000177492
1.4608e-06
8.18809e-06
6.31824e-07
3.20471e-06
0.00736287
0.00189947
0.000478401
0.00187822
0.000922346
7.04511e-05
0.0113965
0.356834
0.00522179
0.00134118
0.000315281
0.00126581
0.000617312
4.46438e-05
0.00479571
0.227461
8.28996e-05
0.00423608
0.000137577
0.00317947
1.42412e-05
0.00092033
1.82183e-05
0.00124437
4.93383e-05
0.00292086
8.91609e-05
0.0023088
7.98597e-06
0.000604972
1.15282e-05
0.000845107
8.72768e-07
1.6885e-06
0.0272061
0.153297
0.0071322
0.0794327
3.52971e-05
0.00207208
0.00119736
0.000387599
0.00147754
0.0304676
0.000249599
0.00894385
0.000144001
0.00424588
0.000867238
0.00571199
0.000654114
0.00154716
0.000110206
9.98705e-05
0.246334
0.0186501
0.0319417
9.61906e-05
0.0128221
0.00313084
0.000606066
0.00406504
0.000430037
0.00104195
6.70014e-05
6.30698e-05
0.22536
0.0210642
0.129869
0.00520348
0.0627729
2.25253e-05
0.00257002
0.00139269
0.000808245
0.000249008
0.00102426
0.0226504
0.000165626
0.00630352
0.34889
0.0271878
0.0530543
0.23925
0.0105003
0.366016
0.0296119
0.0544411
0.27313
0.0125039
0.377057
0.0190316
0.0323671
0.271256
0.00844764
0.359296
0.0179297
0.0326385
0.237635
0.00719857
0.0429965
0.004435
8.40338e-05
0.0127868
0.109785
0.0528346
0.00295534
0.211033
0.01735
0.000548009
2.49452e-05
6.17586e-07
2.38499e-07
4.20752e-05
1.18393e-06
4.75168e-07
0.00911975
0.000956987
0.000851542
0.00252954
0.000620254
0.000132764
0.000553244
0.000257451
1.75928e-05
0.000114609
4.12281e-06
1.78641e-06
4.42755e-07
0.0629301
0.00906362
0.000191741
0.0214208
0.139995
0.00558126
0.00114624
7.00728e-05
2.22949e-06
9.29819e-07
2.2147e-07
0.00749184
0.0738699
0.0016254
0.000284804
0.0269699
0.0479357
0.0880433
0.296963
0.0211347
0.0067104
0.00111008
6.76477e-06
0.0910209
0.0509359
0.325334
0.0242896
0.00916139
0.00165419
1.04617e-05
0.00742135
0.0394866
0.139761
0.00113741
0.000129013
0.00170255
0.034452
0.0568253
0.00400348
0.000810071
0.062684
0.312652
0.010825
0.00418614
0.0248688
0.249787
0.0056631
0.0363813
0.11377
0.0295965
0.0433355
0.00284635
0.000532107
0.000760878
8.12507e-05
0.055288
0.298231
0.00817832
0.00287225
0.0203554
0.219092
3.08415e-05
3.87713e-06
0.00122399
4.70317e-05
6.00502e-06
6.3542e-05
0.00988859
0.00227267
0.000418052
0.0332982
0.202062
0.012008
0.0884419
0.042656
0.153566
0.00265296
0.0374418
9.04399e-06
0.00125964
0.00060837
0.00723502
0.000474547
0.0120272
0.0160338
0.108092
0.0535075
0.174396
0.00374135
0.0488442
1.42325e-05
0.00181808
0.000925675
0.000701313
0.0166131
0.0132412
0.001929
0.00186323
0.0169199
0.00902387
0.0421598
0.034781
0.000309317
0.07873
5.16914e-05
3.7398e-05
0.0014091
0.103216
0.107517
0.0207944
0.0241304
0.00445418
0.0013079
0.0293047
0.0717095
0.0306216
0.159188
0.000325424
0.0289442
0.053401
5.83716e-05
0.000144049
0.000230987
0.0214346
0.0441117
3.4058e-05
8.9234e-05
0.0250106
0.0325667
0.00608377
0.00194882
0.00263699
0.00270918
0.0225874
0.0124928
0.0529537
8.70594e-05
6.12745e-05
0.0144498
0.00389192
0.00351115
0.0297374
0.0170549
0.0654756
0.000143442
9.95729e-05
0.000718258
0.00262176
0.0102519
0.0154303
0.0152436
0.000224328
0.0261787
0.0659569
0.00643128
0.0330599
0.000127438
0.000153805
0.000160172
0.0194134
0.0543482
0.00452495
0.0255453
7.68551e-05
9.56991e-05
0.0156522
0.000161635
0.0358633
0.00355333
2.42195e-05
0.0163767
0.0542111
0.000886098
0.0587626
5.975e-05
0.000328054
0.142479
0.00383578
0.0706642
1.94533e-05
5.43886e-05
0.0141923
0.000112699
0.0440694
0.00314461
0.0194586
0.050489
0.00061665
0.0744712
0.000160561
0.000358437
0.136749
0.00264785
0.0918837
4.53395e-05
5.86418e-05
0.0102342
7.8206e-05
0.0351827
0.00215957
0.014617
0.0385187
0.000451587
0.0635965
9.78907e-05
0.000228932
0.11129
0.00207359
0.0844499
2.61746e-05
3.55984e-05
0.0112766
0.000111591
0.0287099
0.00243817
1.60059e-05
0.0123345
0.0413191
0.000644654
0.0502855
3.50195e-05
0.000208753
0.11587
0.00297622
0.0650031
1.08822e-05
3.28027e-05
0.0106746
0.00701028
0.0621538
0.00227251
0.00588058
0.0255959
0.00772983
0.00573079
0.0493533
0.00156613
0.00461467
0.019121
0.014531
0.00831781
0.0770454
0.0508759
0.129425
0.0032571
0.00729343
0.0337907
0.00474656
0.000591003
0.0112447
0.0229455
0.0796561
0.00552106
0.00454949
0.0385942
0.00023115
0.000159495
0.00106664
0.00352496
0.0140929
0.019486
0.00956015
0.093954
0.0641657
0.146757
0.0046085
0.00880457
0.0439727
0.0061136
0.000875758
0.0154966
0.00511829
0.0214392
3.62324e-05
0.0313761
0.055456
0.305603
0.0145075
0.172123
0.0753952
0.00484158
0.0700304
0.0675024
0.00119794
0.357682
0.00700944
0.238194
0.00353776
0.146058
0.112862
0.00117074
0.00900085
0.0161532
0.00355995
0.0171627
0.00345051
0.000484263
0.039604
0.327621
0.000905241
7.24303e-05
0.0148566
0.232686
0.00728341
0.0276669
5.35638e-05
0.0323755
0.0566247
0.334922
0.0163695
0.204164
0.0789179
0.00597551
0.0890212
0.0761885
0.0015911
0.000256697
0.145811
0.0219048
0.0680419
0.021374
0.00107891
0.168711
0.0420926
0.00954514
0.0695462
0.0733877
0.0394389
0.00233203
0.129016
0.279166
0.0297232
0.121133
0.0205619
9.66525e-05
0.000500359
0.00894279
0.0141874
0.0910624
0.0329349
0.000345859
0.0019914
0.00858651
0.0181231
0.000105788
0.0755828
0.2
0.0440531
0.0120349
0.0932912
0.0443826
0.00314248
0.134345
0.305649
0.0347193
0.0194519
0.0319374
0.332591
0.0106563
0.195609
0.102679
0.00403462
0.0826964
0.0968798
0.00109069
7.79699e-05
0.000401264
0.172409
0.0229232
0.0862697
0.0240051
0.00157979
0.00134728
0.000114857
0.0440968
0.343582
0.0048465
4.33125e-06
0.000737044
0.0179322
0.265515
0.340694
0.00700919
0.209282
0.00311063
0.0923087
0.133997
0.000935047
0.0101643
0.0189585
0.00022242
3.1424e-05
0.0160888
0.0111053
0.31763
0.00672214
0.180355
0.130933
0.00265348
0.0741701
0.120589
0.000730335
0.0106285
0.0195548
0.0319512
0.30348
0.00963558
0.165063
0.0980845
0.00330763
0.0651457
0.085703
0.000827692
0.235918
0.00801953
7.60641e-05
0.0226394
3.94104e-05
3.99046e-05
0.00069159
0.000461753
0.0310256
0.0423205
0.205532
0.00860632
0.0595044
2.01004e-05
0.000130731
0.0926311
0.00226485
0.0587143
8.16722e-06
0.000868377
0.0056325
5.12213e-05
0.0175908
2.46103e-05
2.32928e-05
0.000452134
0.00032593
0.0229636
0.0350446
0.17327
0.00689619
0.056853
1.13038e-05
8.05195e-05
0.0728399
0.0016925
0.0520987
5.24186e-06
0.000570422
4.15251e-05
0.00299763
0.000238267
1.71866e-05
0.00136678
0.000797606
0.0237012
2.24412e-05
0.00268126
0.0101673
7.48398e-06
0.000184174
0.000899062
0.0429621
0.0389583
0.0120744
0.000155896
0.0229261
0.00416167
0.116664
0.0490798
3.36845e-06
2.9173e-05
0.00037069
2.68533e-05
0.0020353
3.40938e-05
0.00390874
0.0134706
1.33311e-05
0.000290952
0.00124345
0.0563718
0.045434
0.0167628
0.000226895
0.0285648
0.00541038
0.143434
0.0533103
6.23119e-06
4.87497e-05
7.90133e-08
0.374574
0.0117534
0.0177523
0.259406
0.00554164
0.117086
0.126598
0.00178199
0.0455015
0.092384
0.000419468
3.8497e-08
1.17618e-07
3.16564e-07
0.0166967
0.0116591
0.289994
0.00620836
0.152508
0.125055
0.00220205
0.0585788
0.106512
0.000558807
5.7247e-08
1.59497e-07
8.73876e-09
1.84526e-08
5.05986e-05
0.188501
0.0320468
0.0163164
0.105807
0.184005
0.278388
0.0477063
0.271823
0.00244138
0.285208
0.00229284
0.32709
0.00405838
0.209358
0.00220271
0.00426104
0.311584
0.00418847
0.184597
0.00196812
0.00522209
2.81528e-06
0.00669273
0.265805
0.00389093
0.135496
0.156087
0.00143071
0.00787236
0.00607388
0.290731
0.00412248
0.159662
0.163454
0.00170268
0.00712078
0.0957445
0.175978
0.254464
0.0402803
0.00166199
0.00321425
0.25406
0.00246561
0.00272906
0.00372538
0.232881
0.00237811
0.00336038
0.00202461
0.17767
1.46119e-05
0.0997607
0.0810048
0.0800095
0.00416139
0.0814174
0.0034848
0.0614166
0.0626757
0.0830233
0.0315431
0.0451046
0.0441577
0.0308631
0.0212168
9.94122e-06
1.4242e-05
7.83859e-06
5.52782e-06
7.55793e-05
4.48368e-05
3.9741e-05
0.00184865
0.104146
0.16507
0.132379
0.126966
0.0855812
0.0935139
0.00892814
0.0371684
0.0242911
0.027159
0.0406549
0.0138704
0.0209764
0.00274683
0.133188
0.039622
0.0295609
0.0405375
0.0404979
0.0233786
0.058542
0.0791896
0.0420769
0.0273208
0.0159049
0.0164976
0.0116753
0.0112382
0.204607
0.205266
0.0499886
0.0134091
0.000213421
0.000147891
1.1077e-05
0.201307
0.110176
0.00973249
0.0167328
0.0137968
0.0237369
4.84347e-06
0.0149869
0.239785
0.0887881
0.00657643
0.023561
0.000371772
0.000250243
2.59569e-05
0.0105785
0.0166028
8.84836e-06
0.00257835
0.000234458
0.0313558
0.00802539
7.5734e-06
0.0302763
0.00435774
1.49651e-05
0.000727252
0.043158
0.00416669
0.00200172
0.0447827
0.00798369
0.0132261
5.30581e-06
1.44398e-05
0.310938
0.0258314
0.012324
0.00985987
0.0604205
3.00788e-05
4.80011e-06
0.0448036
1.74913e-05
1.30582e-06
0.022047
0.0430941
2.53287e-05
1.1808e-06
0.0314268
4.4049e-05
4.6089e-06
0.0195134
0.0631994
0.0326469
0.229716
0.00549613
0.0745883
0.0233908
0.022535
4.47081e-06
6.48956e-05
0.0214443
0.0128591
4.73122e-06
1.46295e-06
1.47914e-06
3.42843e-05
0.0141799
0.0113917
0.062129
0.0075517
0.000523691
0.0110388
4.92419e-05
0.00155692
0.0243621
0.0397368
0.352312
1.83339e-06
2.95703e-09
0.00045749
4.06648e-05
0.0129919
0.0333018
0.0245454
0.375392
0.00305266
6.88805e-06
0.000303247
3.74245e-08
0.0775704
0.0108859
0.284151
0.175288
0.338568
0.305305
0.00447935
0.060665
0.214922
0.0124037
0.0855529
0.283384
0.00876201
0.211271
0.336187
0.331077
0.192901
0.0915465
0.000790572
0.000191364
2.27942e-05
1.10148e-05
1.00263e-05
0.00559801
3.02438e-05
0.0116943
2.03774e-05
0.000330969
4.08442e-06
0.0802492
0.00319357
0.000674475
1.71715e-05
0.158239
0.107686
0.105844
0.0011709
0.0660263
0.00681546
0.000388257
6.50212e-06
0.000624111
0.000413072
5.46943e-05
0.10395
0.00152549
0.000490773
4.69975e-06
2.87804e-05
1.44839e-06
0.059733
0.0037551
2.23538e-06
0.000292675
0.00735697
4.22683e-06
0.0452477
0.0455309
1.17301e-05
0.0614434
2.47821e-05
0.0213281
0.353262
0.0376624
0.0610973
0.0665881
0.369342
0.000179381
2.67958e-05
0.000483048
0.0575204
0.164899
0.0206556
0.0203428
0.354375
0.0764326
0.367348
0.000293133
5.54872e-05
0.000808884
0.0737305
0.18052
0.323498
0.334334
0.141465
3.0101e-06
0.0565676
0.363823
0.139317
0.000107035
1.17631e-05
0.000278522
0.000337076
0.000280088
2.44298e-05
0.24137
0.00297184
0.00851908
8.21693e-05
1.52854e-06
0.000197561
0.00015996
1.01246e-05
0.105364
0.000928477
0.072083
0.00591279
0.00534567
3.93232e-05
0.000140697
2.77544e-07
3.38374e-05
2.04551e-07
0.000160058
0.00477528
0.0294081
0.0344821
0.0182167
0.346421
0.0498304
0.0131386
0.315098
9.4588e-05
0.00252647
0.0860388
0.148145
1.22973e-05
8.73593e-05
3.40146e-06
0.000113127
0.0666501
0.135388
6.28965e-06
4.5253e-05
7.40264e-07
6.3354e-05
5.07113e-06
6.14472e-05
8.88366e-07
4.81713e-05
9.82613e-06
0.000117429
3.87661e-06
8.53619e-05
4.88036e-06
0.021949
0.000105313
0.00559898
1.06111e-05
0.00114433
0.0313247
0.000179859
0.134865
0.168251
0.108761
0.167647
0.118934
0.134321
0.0390726
0.000349249
0.000797926
7.31823e-05
0.0190178
8.56792e-05
0.00301889
1.77095e-05
1.20012e-06
2.05189e-06
0.258098
0.00706852
0.0289867
0.00793548
0.0353995
0.000253252
1.57254e-05
2.51524e-07
0.123804
0.0650561
0.00203994
0.024774
0.000149076
7.33433e-06
0.0967429
0.0647734
0.00137368
0.000256466
2.14274e-05
0.00864209
6.22488e-07
0.000550418
1.75131e-07
3.60585e-06
0.0744253
0.00139338
3.07556e-06
2.19849e-05
3.47326e-05
1.25517e-06
1.86569e-05
1.37188e-06
2.35007e-05
0.0434595
0.00353375
0.146958
0.242973
0.0117281
0.000365815
0.0591692
0.271472
2.53467e-06
2.66037e-05
0.00326984
9.86158e-06
0.000332825
5.98852e-08
0.00190405
1.83842e-05
0.0154613
0.194764
0.00113497
0.0837078
0.000201179
7.15174e-08
0.00262419
0.000481251
1.10758e-06
1.43922e-05
7.63331e-06
3.13378e-06
0.0735304
0.000898247
1.60675e-06
0.350894
0.10908
0.000106607
0.000315004
0.00166538
4.29087e-06
6.23497e-05
0.000154282
5.42084e-05
1.08229e-05
1.03824e-06
3.54955e-05
3.97147e-06
5.47831e-05
0.00102705
0.00020037
0.000631502
0.00749793
2.46047e-06
0.000634022
0.132484
0.0225613
0.108192
0.00130114
0.244799
0.00477669
0.0353928
0.000103595
0.230204
0.000177278
0.0039902
1.47344e-07
0.000685559
0.00471173
0.00157986
1.29956e-06
0.0055248
0.0227549
0.00302294
6.81303e-05
0.028356
0.0716746
0.00222086
0.000932871
0.227999
0.00503657
0.0380191
0.00722255
0.203131
0.0292106
0.00389611
0.0045436
0.138697
0.00156608
0.0229437
2.83483e-05
0.154182
0.0088643
0.000752634
0.0852311
0.000491386
0.18376
0.000161399
4.9463e-09
0.00182289
2.73803e-06
0.0682258
0.278561
0.00932266
0.0329273
0.0176235
0.000648328
0.0735228
0.285139
0.00318993
4.12156e-05
0.0213321
0.00143168
0.22656
0.000370374
4.56029e-07
0.00402231
0.000713337
0.109526
0.00912553
0.00965559
8.14987e-05
0.0304214
0.0151746
0.33206
0.0199925
0.00153543
0.123186
0.0108488
0.000970263
0.142136
0.000207368
0.0375876
0.00225992
0.146047
0.0468426
0.0206322
0.00430234
0.000444008
0.0024413
0.000381591
0.00158075
2.16254e-07
0.0010616
9.49531e-07
0.00571979
0.0078441
4.062e-05
1.9769e-05
2.01939e-06
2.68728e-05
0.000614428
0.00012404
0.00384533
0.0875539
0.00100162
0.0961084
0.0125947
0.220468
0.00565291
0.0608184
0.000108368
0.00066435
0.00101349
0.00880658
0.00357099
0.000133552
0.0297161
0.0403104
0.00203762
0.0844663
0.00120651
0.00222625
4.07969e-06
0.00683021
0.0346719
0.007643
0.236403
0.0276327
0.366126
0.176796
0.00261236
6.12668e-05
0.0317723
0.190067
0.00108616
0.013211
0.00086718
0.106102
0.000325
8.76509e-07
0.0061361
0.0153614
0.0556374
0.321405
0.29616
0.00521176
0.0286583
0.00172965
8.5053e-05
0.25675
0.0257214
0.0889983
0.00111351
0.293428
0.000666408
0.00600056
0.00102402
1.81014e-06
0.139201
0.00732118
0.00106458
0.0989079
0.138979
0.00135941
0.000125746
0.0271004
0.128669
0.0477392
0.00355854
0.196274
0.00642832
0.000351452
0.00501677
0.104646
0.000449025
6.39774e-07
0.0155216
0.0892998
0.239229
0.000758095
0.00292927
0.0262983
0.204433
5.08977e-05
5.89779e-05
0.0149694
0.0556106
0.00174586
0.09705
0.0329331
0.0101905
0.271498
0.0332735
0.0138728
0.381194
0.0175242
0.0601581
0.320564
0.293415
0.306419
0.013667
0.00402147
0.0377994
0.00024866
0.00207406
0.00302894
0.00963952
1.07549e-05
0.00020637
0.00103965
0.00159601
3.18532e-08
0.000602621
2.73414e-07
0.24966
0.04781
0.00634365
0.0111861
0.121709
0.00058292
0.00918878
3.26187e-06
0.193063
0.019104
0.00152277
0.12863
0.0014881
0.197464
0.00424835
0.0428284
0.0001231
0.031807
0.0021728
0.127718
0.245993
0.00110939
7.30927e-06
0.00086434
0.0109114
0.162922
0.00758744
0.00019905
0.0463753
0.252902
0.00195075
3.99541e-06
0.002464
0.00017809
8.11674e-09
8.40852e-05
0.0168722
0.0223688
0.343703
0.0590266
0.384466
0.282528
0.00891554
0.0359995
0.0123071
0.00215244
0.0155888
0.149385
0.142988
0.00166533
0.000329506
0.00366201
0.0507373
0.161433
0.000142707
0.036344
0.174868
0.00405039
0.00275436
0.189738
0.0017516
0.0190244
2.31293e-05
0.176854
0.0193678
0.0592769
0.00227023
0.000542437
0.0033774
0.0169697
0.00244761
3.2539e-05
0.0431185
0.0109607
0.3019
0.0185866
0.176459
0.0216947
0.0029352
0.141757
0.00278595
0.000916259
0.0161288
0.130755
1.18173e-05
0.00577746
0.000506001
0.0666545
0.174149
0.000269847
0.27488
0.00262987
0.00065449
0.0665525
0.0917865
0.186811
0.00922026
0.00413552
0.0628204
1.40294e-06
0.000191286
0.00326799
1.03785e-07
0.000307678
1.07815e-05
9.40987e-07
1.21193e-05
0.000355551
7.48313e-05
3.9916e-07
1.09812e-07
1.74165e-09
1.38132e-08
0.0103667
0.0717903
0.00042882
0.22929
6.77102e-08
2.29179e-08
7.71606e-07
0.0099399
3.13815e-05
0.0492121
0.000414206
4.21502e-06
0.00189415
0.000295265
0.0435038
0.114816
0.0122357
0.00300985
0.169251
0.0986652
0.0030553
0.000467663
0.058788
0.12525
0.154148
0.0029448
0.0643126
0.173031
0.0205351
0.200561
0.00558242
0.0364727
0.0580874
0.266848
0.00778789
0.0331534
0.0267765
0.151917
0.192878
0.00207602
0.00248702
0.00672841
0.0561981
0.215209
0.000234519
0.00102231
0.0133991
0.148836
9.41635e-06
0.199881
0.0168836
0.00410865
0.0968253
0.00479684
0.000716629
0.0772988
0.133359
0.283342
0.00716082
0.230024
0.0225153
0.0054605
0.0940556
0.0049851
0.247877
0.00784892
0.00103739
0.0966217
0.000561263
0.000471727
5.2464e-05
0.00363106
0.00233146
9.11002e-07
0.000688003
0.000736151
4.89709e-05
0.00329618
6.23899e-07
0.000673964
0.000180833
2.40645e-06
0.00120412
9.937e-05
0.00476259
2.06338e-06
0.00118672
0.000145248
6.35242e-05
2.90088e-06
0.000910957
0.000767341
0.000105119
0.00603692
0.000105571
0.00908726
0.00332985
0.00525477
2.93658e-06
0.00121123
0.304016
0.0132351
0.0146434
0.0768383
0.00499033
0.0390661
0.388177
0.0143044
0.253526
0.00752421
0.0585145
0.0166068
0.0545218
0.0123303
0.112062
0.00148729
0.098561
0.00583126
0.0248343
0.369409
0.0225367
0.284252
0.00975536
0.0211072
0.0580692
0.0110882