# vtk DataFile Version 2.0
Unstructured Grid by M++
ASCII
DATASET UNSTRUCTURED_GRID
POINTS 4225 float
  5.312500   3.437500 0
  8.750000   1.562500 0
  5.625000   2.187500 0
  9.062500   0.312500 0
  9.375000   0.937500 0
  9.687500   0.625000 0
  2.812500   1.562500 0
  4.687500   5.625000 0
  8.125000   3.750000 0
  5.625000   1.875000 0
  5.312500   3.125000 0
  8.750000   1.250000 0
  9.375000   1.250000 0
  9.687500   0.312500 0
  9.375000   1.562500 0
  3.750000  10.000000 0
  4.687500   5.312500 0
  8.125000   3.437500 0
  5.625000   1.562500 0
  5.312500   2.812500 0
  4.375000   6.562500 0
  7.812500   4.687500 0
  5.000000   3.750000 0
  4.687500   5.000000 0
  8.125000   3.125000 0
  5.625000   1.250000 0
  5.312500   2.500000 0
  7.500000   5.625000 0
  4.375000   6.250000 0
  7.812500   4.375000 0
  9.375000   0.625000 0
  8.437500   4.375000 0
 10.000000   7.812500 0
  6.562500   9.687500 0
  5.937500   9.687500 0
  6.250000   9.687500 0
  6.562500   8.437500 0
  0.625000  10.000000 0
  2.500000   2.500000 0
  3.750000   0.937500 0
  6.875000   0.312500 0
  0.937500   0.625000 0
  6.875000   0.625000 0
  0.937500   0.937500 0
  5.000000   0.312500 0
  3.437500  10.000000 0
  5.000000   2.500000 0
  4.687500   3.750000 0
 10.000000   8.125000 0
  6.562500  10.000000 0
  1.875000   3.125000 0
  7.812500   2.812500 0
  4.375000   4.687500 0
  1.250000   5.625000 0
  7.187500   5.312500 0
  1.562500   4.375000 0
  7.500000   4.062500 0
  6.562500   7.812500 0
  6.250000   9.062500 0
  2.187500   1.875000 0
  8.125000   1.562500 0
  4.687500   3.437500 0
  5.312500   2.187500 0
  3.437500   1.250000 0
  2.812500   2.187500 0
  3.125000   0.937500 0
  4.375000   0.625000 0
  4.062500   5.937500 0
 10.000000   5.625000 0
  0.625000   7.812500 0
  6.562500   7.500000 0
  3.437500   8.437500 0
  9.375000   8.125000 0
  5.937500  10.000000 0
  3.750000   7.187500 0
  9.687500   6.875000 0
  6.250000   8.750000 0
  7.500000   7.187500 0
  8.125000   4.687500 0
  7.812500   5.937500 0
  1.250000  10.000000 0
  7.187500   9.687500 0
  5.312500  10.000000 0
  7.187500   5.937500 0
  4.687500   4.062500 0
  4.375000   5.312500 0
  6.875000   7.187500 0
  2.500000   0.625000 0
  8.437500   0.312500 0
  3.125000   2.187500 0
  3.437500   0.937500 0
  5.000000   2.812500 0
  3.437500   1.875000 0
  3.750000   0.625000 0
  7.500000   4.687500 0
  1.562500   5.000000 0
  5.000000   3.125000 0
  2.500000   1.562500 0
  8.437500   1.250000 0
  7.812500   3.437500 0
  1.875000   3.750000 0
  5.312500   1.875000 0
  8.125000   2.187500 0
  2.187500   2.500000 0
  5.625000   0.625000 0
  8.437500   0.937500 0
  2.500000   1.250000 0
  4.062500  10.000000 0
 10.000000   5.312500 0
  4.062500   5.625000 0
  6.562500   7.187500 0
  0.625000   7.500000 0
  1.562500   4.062500 0
  7.500000   3.750000 0
  7.500000   3.437500 0
  1.562500   3.750000 0
  9.687500   6.562500 0
  3.750000   6.875000 0
  6.250000   8.437500 0
  0.312500   8.750000 0
  1.250000   5.312500 0
  7.187500   5.000000 0
  9.375000   7.812500 0
  3.437500   8.125000 0
  0.937500   6.562500 0
  6.875000   6.250000 0
  7.187500   3.437500 0
  1.250000   3.750000 0
  0.937500   5.312500 0
  6.875000   5.000000 0
  6.562500   5.937500 0
  0.625000   6.250000 0
  6.250000   7.187500 0
  0.312500   7.500000 0
  1.250000   4.062500 0
  7.187500   3.750000 0
  6.875000   4.687500 0
  0.937500   5.000000 0
  1.875000   1.562500 0
  7.812500   1.250000 0
  6.875000   3.437500 0
  0.937500   3.750000 0
  7.500000   0.937500 0
  1.562500   1.250000 0
  0.937500   4.062500 0
  6.875000   3.750000 0
  1.562500   1.562500 0
  7.500000   1.250000 0
  7.187500   2.187500 0
  1.250000   2.500000 0
  4.687500   0.625000 0
  8.750000   0.312500 0
  2.812500   0.625000 0
  7.187500   1.250000 0
  1.250000   1.562500 0
  0.937500   2.500000 0
  6.875000   2.187500 0
  0.625000   3.750000 0
  6.562500   3.437500 0
  1.250000   1.250000 0
  7.187500   0.937500 0
  6.875000   2.812500 0
  0.937500   3.125000 0
  6.562500   4.062500 0
  0.625000   4.375000 0
  7.500000   0.312500 0
  1.562500   0.625000 0
  7.187500   1.562500 0
  1.250000   1.875000 0
  6.875000   9.687500 0
  0.937500  10.000000 0
  0.625000   4.062500 0
  6.562500   3.750000 0
  5.000000  10.000000 0
  8.437500  10.000000 0
  2.812500   9.062500 0
  8.750000   8.750000 0
  6.250000  10.000000 0
  6.562500   8.750000 0
  2.500000  10.000000 0
  8.437500   9.687500 0
  4.375000   5.625000 0
  1.875000   4.062500 0
  7.812500   3.750000 0
 10.000000   6.562500 0
  4.062500   6.875000 0
  7.500000   5.000000 0
  6.875000   7.500000 0
  9.687500   7.812500 0
  3.750000   8.125000 0
  7.187500   6.250000 0
 10.000000   8.437500 0
-10.000000  10.000000 0
 -4.687500   2.500000 0
  5.000000  -4.375000 0
-10.000000   5.312500 0
 -9.687500   4.062500 0
-10.000000 -10.000000 0
 -5.000000   2.500000 0
 -8.437500   4.375000 0
 -0.625000   1.875000 0
 -1.250000   4.375000 0
 -4.687500   6.250000 0
 -0.937500   2.812500 0
 -4.375000   4.687500 0
 -1.250000   4.062500 0
 -4.687500   5.937500 0
 -2.812500  10.000000 0
 -1.250000   3.750000 0
 -4.687500   5.625000 0
 -0.312500   0.937500 0
-10.000000   7.812500 0
 -1.250000   4.687500 0
  1.875000  -6.875000 0
 -9.375000   9.375000 0
 -9.062500   8.437500 0
 -9.375000   9.687500 0
 -5.937500   7.812500 0
 -9.687500   9.062500 0
 -5.625000   7.812500 0
 -5.312500   6.562500 0
 -8.750000   8.437500 0
 -5.000000   5.312500 0
 -5.312500   2.500000 0
 -8.750000   4.375000 0
 -5.625000   3.750000 0
 -9.062500   5.625000 0
 -9.375000  10.000000 0
 -5.937500   8.125000 0
 -9.062500   8.750000 0
 -5.625000   6.875000 0
 -6.250000   5.312500 0
 -9.687500   7.187500 0
  0.000000   0.312500 0
 -0.625000   4.062500 0
  5.937500  -9.375000 0
  5.000000   5.000000 0
 -0.937500   5.312500 0
  1.562500   6.875000 0
 -4.375000   7.187500 0
  5.625000  -8.125000 0
  9.375000 -10.000000 0
  5.937500  -8.125000 0
 -9.687500   6.875000 0
  0.000000   0.000000 0
  9.375000   6.562500 0
  3.437500   6.875000 0
 -2.500000   7.187500 0
 -7.812500  -4.375000 0
 -5.937500   5.000000 0
 -9.375000   6.875000 0
  0.312500   0.000000 0
-10.000000   4.687500 0
 -7.187500  -6.250000 0
 -9.062500   5.000000 0
 -6.250000   5.625000 0
 -9.687500   7.500000 0
  0.000000   0.625000 0
 -9.062500   9.062500 0
 -5.625000   7.187500 0
 -5.000000   6.250000 0
 -7.187500   2.812500 0
  5.625000   4.062500 0
 -0.312500   4.375000 0
  2.187500   5.937500 0
  8.125000   5.625000 0
 -3.750000   6.250000 0
  6.250000  -9.062500 0
  3.125000   2.500000 0
 -2.812500   2.812500 0
  5.312500   5.312500 0
 -0.625000   5.625000 0
  9.375000  -9.687500 0
 -0.625000   2.812500 0
  1.875000   4.375000 0
 -4.062500   4.687500 0
 -0.312500   1.562500 0
-10.000000   8.437500 0
 -0.937500   4.062500 0
  5.625000  -9.375000 0
 -1.250000   5.312500 0
  1.875000  -6.250000 0
  5.312500  -8.125000 0
  0.312500   5.000000 0
  6.250000   4.687500 0
 -5.625000   5.312500 0
 -8.750000  -3.437500 0
  4.062500   1.875000 0
 10.000000   1.562500 0
 -1.875000   2.187500 0
 -8.437500  -4.687500 0
 -9.375000  -1.562500 0
  1.250000  -6.250000 0
 -5.312500   7.187500 0
  6.250000  -9.375000 0
 -9.375000  -1.875000 0
-10.000000   5.000000 0
 -8.750000  -3.750000 0
 -5.937500   5.312500 0
 -9.375000   7.187500 0
  0.312500   0.312500 0
  0.937500  -5.312500 0
 -5.625000   8.125000 0
 -5.312500   6.875000 0
 -9.375000   9.062500 0
 -0.312500   3.125000 0
 -7.500000   2.812500 0
  5.312500   4.062500 0
 -0.625000   4.375000 0
  1.875000   5.937500 0
 -4.062500   6.250000 0
  5.937500  -9.062500 0
  1.562500   7.187500 0
 -4.375000   7.500000 0
  5.625000  -7.812500 0
  5.000000   5.312500 0
 -0.937500   5.625000 0
  9.062500  -9.687500 0
  5.937500   5.312500 0
  0.000000   5.625000 0
 -5.937500   5.937500 0
 -9.062500  -2.812500 0
  1.875000   5.000000 0
 -4.062500   5.312500 0
  5.937500 -10.000000 0
 -0.625000   3.437500 0
  5.312500  -7.500000 0
 -1.250000   5.937500 0
 -0.312500   2.187500 0
-10.000000   9.062500 0
  0.937500   8.750000 0
 -5.000000   9.062500 0
  5.000000  -6.250000 0
  8.750000  -9.375000 0
  2.812500  -9.062500 0
 -9.687500   9.375000 0
 -5.000000   5.625000 0
 -9.062500  -2.187500 0
 -0.625000   0.312500 0
  9.062500  -6.562500 0
 -0.625000   2.500000 0
 -4.062500   4.375000 0
 -8.125000   9.062500 0
 -2.187500   8.750000 0
  3.437500   9.687500 0
 -2.500000  10.000000 0
 -0.312500   1.250000 0
-10.000000   8.125000 0
 -1.250000   5.000000 0
 -2.187500   8.437500 0
 -8.125000   8.750000 0
  1.875000  -6.562500 0
  5.312500  -8.437500 0
 -9.687500   8.437500 0
  0.000000   1.562500 0
 -9.687500  10.000000 0
 -9.375000   8.750000 0
 -0.625000   3.125000 0
  1.875000   4.687500 0
 -4.062500   5.000000 0
  0.625000   9.687500 0
 -5.312500  10.000000 0
  4.687500  -5.312500 0
  3.750000   9.062500 0
 -8.125000   9.687500 0
 -2.187500   9.375000 0
 -0.312500   1.875000 0
-10.000000   8.750000 0
 -0.937500   4.375000 0
  2.187500  -7.187500 0
  5.625000  -9.062500 0
 -1.250000   5.625000 0
  3.750000   8.750000 0
 -2.187500   9.062500 0
 -8.125000   9.375000 0
  1.875000  -5.937500 0
  5.312500  -7.812500 0
  4.375000   6.875000 0
 -1.562500   7.187500 0
 -7.500000   7.500000 0
  8.437500  -8.125000 0
  2.500000  -7.812500 0
  0.000000   0.937500 0
 -9.687500   7.812500 0
 -0.937500   4.687500 0
  4.062500   7.812500 0
 -1.875000   8.125000 0
 -7.812500   8.437500 0
  2.187500  -6.875000 0
  5.625000  -8.750000 0
  5.625000   3.125000 0
 -0.312500   3.437500 0
  2.187500   5.000000 0
 -3.750000   5.312500 0
  6.250000 -10.000000 0
 -7.500000   3.125000 0
  5.000000   5.625000 0
 -0.937500   5.937500 0
  9.062500  -9.375000 0
  1.562500   7.500000 0
 -4.375000   7.812500 0
  5.625000  -7.500000 0
  5.937500  -8.750000 0
 -9.062500   9.375000 0
 -5.625000   7.500000 0
 -8.750000   8.125000 0
 -5.312500   6.250000 0
 -4.375000   2.812500 0
  5.312500  -4.062500 0
  5.937500   3.125000 0
  0.000000   3.437500 0
  2.500000   5.000000 0
[...]
CELL_DATA 4096
SCALARS scalar_value float 1
LOOKUP_TABLE default
0.0125743
0.00986827
0.0192803
0.0157157
0.0114192
0.0141348
0.000150349
0.000101188
0.0238075
0.00165941
0.00119492
0.0145582
0.0171495
0.0197855
0.0203931
0.044471
0.0275172
0.0338776
0.0232337
0.0171443
0.00269776
0.0018676
0.0020588
0.0157001
0.0175973
0.0248311
0.0223771
0.000308081
0.000199237
0.00476528
0.00323428
0.00155442
0.002502
0.00428521
0.0058486
0.00770338
0.00570112
0.232692
0.230441
0.150936
0.0905001
0.135461
0.0737141
0.000473806
0.00140799
0.000490091
0.000745448
0.000719238
0.230038
0.000841673
0.00201141
0.00120849
0.000399902
0.00148656
0.000754419
0.00100037
0.000494833
0.000658698
0.000487233
0.000999073
0.000744939
0.00782423
0.0102667
0.161115
0.0644652
0.18685
0.150305
5.7381e-05
0.00246894
8.59381e-05
0.00357589
0.278794
0.179701
0.0787716
0.192987
0.171324
0.270461
0.259362
0.0047564
0.0158514
0.00136432
0.00465245
0.00242582
0.000241024
0.00618446
0.0212758
0.00196331
0.00657588
0.00336855
0.000361848
0.195317
0.191407
0.00699078
0.00971242
0.000443509
0.00108347
0.000927424
0.000200516
0.000267546
5.85382e-05
0.0016138
0.00137679
0.000313927
0.000424556
9.92235e-05
0.0792214
0.0100358
0.000358673
0.160835
0.029289
0.160878
0.0831672
0.00836316
0.242913
0.0326583
0.00190867
0.00789661
0.00138051
0.0246318
0.00588955
0.018934
0.00416798
0.00572799
0.000934044
0.0167739
0.00685095
0.012899
0.00484236
0.00324915
0.000158768
0.00170479
0.000164876
0.0116596
0.000937556
0.00356501
3.38053e-05
0.00223883
0.000104708
0.00116937
9.93844e-05
0.00846689
0.000637215
0.00260448
1.92074e-05
0.0274564
0.120969
0.0136895
0.00748072
0.060494
0.00982024
0.00164496
0.0231431
0.0116537
0.00545497
0.0475505
0.00779137
0.00114557
0.0172177
9.21115e-05
0.0211196
0.101164
0.0130726
0.00020533
0.000424059
0.00112269
0.00148131
0.000199884
0.00491954
0.00391321
0.000153123
0.000319965
0.000658546
0.00166896
0.0021471
0.000299401
0.00695474
0.00529052
0.24264
0.105907
0.0189037
0.000757285
0.0450914
0.185167
0.0145556
0.014317
0.0115045
0.149916
0.147752
0.104665
0.108279
8.03545e-05
0.000396696
4.73835e-05
0.000249133
8.85641e-05
0.000465156
0.177107
0.0304473
0.013223
0.0888683
0.030753
0.19603
0.000145837
0.000719146
0.205208
0.0314585
0.0139883
0.016728
0.110049
0.0340556
0.000897522
0.0449982
0.0362149
0.000586847
0.0342628
0.030594
0.000175601
0.001347
0.0188142
0.0267675
0.00227389
0.0582861
0.0421863
0.00101501
0.00475879
0.19588
0.267588
0.139152
0.000236635
0.00108989
0.019095
0.0207995
0.00382303
0.0284721
0.000269765
0.00198491
0.00307235
0.0744223
0.0483558
0.00150185
0.00658173
0.00018308
0.00013412
0.000204806
0.000618197
0.224674
0.222762
0.128429
0.000219189
0.000317849
0.00094293
3.08197e-05
0.00386156
0.000329328
0.000529958
0.0125137
0.00181116
0.000739108
1.73652e-05
7.64868e-06
1.39364e-05
5.35564e-05
1.06328e-05
0.00299525
0.000187122
0.000873602
9.10876e-05
0.0288302
0.00526841
0.00210353
0.0104941
0.00109043
0.00168219
1.91202e-05
0.236005
0.145251
6.67039e-05
0.000350728
3.3833e-05
0.00101859
0.000512108
0.000111362
0.000549531
5.86139e-05
0.00152122
0.000783076
0.0167538
0.00107286
0.00261483
0.00546443
0.00079795
0.00049641
0.193603
0.209524
0.00903272
0.0133994
0.000649751
0.000460737
7.76158e-05
4.11475e-06
1.70099e-05
0.0026892
0.000215983
0.000343816
0.00921887
0.00124067
0.000497541
9.58394e-06
4.34995e-05
0.00184436
0.000141479
0.00021801
0.00669656
0.000840505
0.000327465
5.20678e-06
2.48796e-05
2.18029e-06
9.44129e-06
0.0191024
0.00320593
0.00229156
0.00606914
0.00185514
0.00042833
0.0251284
0.371433
0.0142522
0.00235246
0.00158955
0.00429299
0.00128879
0.000284711
0.0145607
0.310512
0.000267105
0.0126491
0.000788849
0.00603616
5.42395e-05
0.00343696
0.000131985
0.00282805
0.000164585
0.00917745
0.000537225
0.00456458
3.14263e-05
0.00237074
8.73715e-05
0.00199653
2.74131e-06
5.13716e-06
0.06647
0.208853
0.0229942
0.136554
0.000242736
0.00718149
0.00307567
0.00168417
0.00620143
0.0662227
0.00134831
0.024577
0.000849563
0.0149064
0.00397207
0.014351
0.00291621
0.00479417
0.000210844
0.000563052
0.267538
0.0272966
0.0706872
0.000596707
0.0360995
0.0116318
0.00292707
0.0107234
0.00201765
0.00338079
0.000132875
0.000372868
0.259148
0.054717
0.187095
0.0177605
0.11404
0.000162457
0.00571877
0.00507812
0.00216139
0.00113457
0.00453594
0.051973
0.000941332
0.0182606
0.359953
0.0539888
0.0736679
0.318335
0.0286651
0.354935
0.0546192
0.0692956
0.341615
0.0320222
0.366432
0.0369063
0.0427211
0.342779
0.0227972
0.372129
0.0374276
0.0471667
0.319964
0.0206927
0.0925542
0.0138576
0.000524117
0.0366716
0.174444
0.102894
0.0111172
0.245112
0.04283
0.00266914
0.000111786
1.61257e-06
7.27425e-07
0.000181882
2.9902e-06
1.40376e-06
0.0221275
0.00152075
0.00373298
0.00762446
0.00117293
0.000739829
0.00206018
0.000578052
0.000122978
0.000459348
9.73366e-06
4.94685e-06
1.43523e-06
0.118605
0.0254688
0.00108161
0.0543964
0.192464
0.0187546
0.00502082
0.000291846
5.44507e-06
2.65988e-06
7.40696e-07
0.0237594
0.129919
0.00674471
0.00152646
0.0643163
0.0783422
0.0998603
0.346457
0.0482418
0.0158243
0.0045458
5.84504e-05
0.0946217
0.0768701
0.356995
0.0517775
0.0205686
0.00642864
8.62941e-05
0.0231955
0.043098
0.219934
0.00338274
0.000678019
0.00699805
0.0457992
0.114561
0.00976243
0.00338386
0.106294
0.302635
0.0215583
0.0137787
0.05797
0.307437
0.0187694
0.0417166
0.189768
0.0413418
0.0924726
0.0072676
0.00233797
0.00236244
0.000447458
0.100795
0.306198
0.0170896
0.00996912
0.0506102
0.286049
0.000220893
3.49829e-05
0.00531274
0.000320873
5.18399e-05
0.000414214
0.0295655
0.00892708
0.00212761
0.074456
0.245947
0.0351371
0.142308
0.094513
0.196775
0.0101227
0.0758625
7.14867e-05
0.00304285
0.00244877
0.0120926
0.00233489
0.0307116
0.0442295
0.164604
0.111266
0.211422
0.0135074
0.0937312
0.000107547
0.00421737
0.00354797
0.00327473
0.0402233
0.015282
0.00283726
0.00734792
0.0370517
0.0275973
0.0741
0.0818009
0.00163728
0.111335
0.000151568
0.000190437
0.00570699
0.185305
0.122818
0.0320444
0.0575833
0.0102217
0.00503773
0.0370731
0.134157
0.0319302
0.233556
0.00172237
0.0701838
0.0791917
0.00014559
0.00061128
0.00128714
0.0550523
0.0688743
8.78944e-05
0.000394446
0.0367005
0.0735111
0.0133284
0.00712799
0.00372871
0.0101233
0.0469581
0.0360988
0.088302
0.000246663
0.000299773
0.0159231
0.0137699
0.00477036
0.0586689
0.0465237
0.103555
0.000392462
0.000467284
0.00326647
0.00425521
0.0252677
0.0162264
0.019298
0.00125003
0.0653069
0.098312
0.0208003
0.0612247
0.000327172
0.000671641
0.000939076
0.0513243
0.0853627
0.0154654
0.0498303
0.000204275
0.000435813
0.0425489
0.000947732
0.0589407
0.0124125
0.000181693
0.0332673
0.114033
0.00401221
0.0783534
0.000135186
0.00124491
0.231076
0.0132054
0.0767711
5.19234e-05
0.000250094
0.0397306
0.000694828
0.0729183
0.0113497
0.039966
0.108851
0.00293887
0.099554
0.000373548
0.00139604
0.225844
0.00960316
0.099667
0.000124697
0.00027811
0.0303132
0.000506784
0.0613082
0.0082254
0.031598
0.0881072
0.00226878
0.0895537
0.000235865
0.000931346
0.195505
0.00796057
0.0964779
7.44534e-05
0.000175551
0.032421
0.000688113
0.0496516
0.00898635
0.000125948
0.0263486
0.0921445
0.00307914
0.0705689
8.20205e-05
0.000826406
0.19965
0.0108541
0.0743132
3.00292e-05
0.000156684
0.0319138
0.00841836
0.104569
0.00880922
0.008451
0.0539295
0.0244642
0.00717553
0.0875915
0.00640728
0.00691151
0.0424679
0.0410018
0.00957295
0.122834
0.109173
0.165154
0.0119547
0.0100489
0.0675117
0.00783643
0.00279321
0.0281892
0.0590371
0.119453
0.0184823
0.00593561
0.0722313
0.000610323
0.000716961
0.0046024
0.00549787
0.0329806
0.0518433
0.0105369
0.141898
0.129317
0.177366
0.0160035
0.0116204
0.0832756
0.0096781
0.00392738
0.0368598
0.0169342
0.0413963
0.000258995
0.053574
0.0644931
0.359105
0.034787
0.262558
0.0778327
0.0157166
0.138838
0.0855023
0.0051382
0.350159
0.0152699
0.308977
0.0107063
0.158196
0.194712
0.00474449
0.0131207
0.0162048
0.00759068
0.0207312
0.00895549
0.00219703
0.0751766
0.337038
0.0028737
0.000413044
0.0386414
0.306458
0.0228085
0.0507581
0.000364642
0.0509721
0.0600319
0.369563
0.0366707
0.292701
0.0774064
0.0182667
0.166203
0.0916578
0.00645939
0.000843266
0.211846
0.0229347
0.125337
0.0270538
0.00294914
0.250333
0.0437274
0.0281
0.109411
0.139692
0.0498859
0.00906974
0.14338
0.323775
0.0648396
0.186226
0.0225842
0.000376352
0.00161989
0.0257433
0.0254327
0.160908
0.0396702
0.00159699
0.0053183
0.0253699
0.0327212
0.000653708
0.110016
0.279662
0.0435551
0.0333269
0.167559
0.0534078
0.011554
0.137463
0.333917
0.0707329
0.0321709
0.0347032
0.369509
0.0251951
0.284776
0.100372
0.0130148
0.157957
0.116644
0.00466747
0.000294833
0.00126767
0.236627
0.0228775
0.150237
0.0289542
0.00414057
0.00409038
0.000624797
0.0777852
0.332748
0.0119952
3.91709e-05
0.00317808
0.0437347
0.329204
0.356866
0.0164
0.290287
0.0100044
0.169808
0.15315
0.00400344
0.0162997
0.0218404
0.0010782
0.000189223
0.0180414
0.0194369
0.355827
0.0168431
0.267237
0.127613
0.00905656
0.145317
0.14541
0.00330085
0.011209
0.0350983
0.0383319
0.359691
0.0243657
0.256058
0.101005
0.0113203
0.132261
0.10874
0.00373935
0.235815
0.0243686
0.000493014
0.0411874
0.00024403
8.20025e-05
0.00234686
0.00232493
0.0732968
0.0624946
0.290751
0.0250028
0.0585867
4.87158e-05
0.000539166
0.169444
0.00874063
0.0706239
6.73712e-05
0.00351969
0.018077
0.000348781
0.0336527
0.000159347
4.95811e-05
0.0016026
0.00172879
0.0574293
0.0544417
0.260438
0.021289
0.0588634
2.8339e-05
0.000345505
0.141347
0.00690557
0.0659245
4.52096e-05
0.00243088
0.000284268
0.0101239
0.00111915
0.000129457
0.00511828
0.00368533
0.0554115
0.00016837
0.00958107
0.0214778
1.70751e-05
0.000709457
0.00408986
0.0936202
0.0545279
0.0337689
0.000916046
0.0393837
0.0144512
0.19759
0.0561792
9.02661e-06
0.000134976
0.00165935
0.000192909
0.00724071
0.000243761
0.0132412
0.0270871
2.93833e-05
0.00107581
0.00535914
0.115962
0.0604701
0.044347
0.00126707
0.0466708
0.0177246
0.228927
0.0580382
1.61537e-05
0.000217357
2.2756e-07
0.365157
0.0240938
0.0244994
0.331782
0.0158119
0.126873
0.213412
0.00682432
0.100795
0.123915
0.00210784
1.1449e-07
3.7026e-07
8.5428e-07
0.0208328
0.0221368
0.347242
0.0166172
0.241155
0.128523
0.0079657
0.122101
0.135474
0.00266401
1.85952e-07
4.44715e-07
2.76907e-08
5.66533e-08
0.000291618
0.260953
0.0318282
0.0432007
0.149337
0.185866
0.303103
0.0932877
0.28966
0.00651356
0.282664
0.00572204
0.321956
0.00944174
0.276078
0.00709085
0.00663755
0.328911
0.0104444
0.26081
0.00672312
0.00894174
2.65998e-05
0.0135252
0.322154
0.0110616
0.21897
0.160183
0.00548289
0.0103282
0.0113336
0.328958
0.0109886
0.241404
0.158916
0.0061641
0.00832237
0.145736
0.192323
0.293719
0.0843079
0.00359613
0.00643867
0.290916
0.00701625
0.00337382
0.00805928
0.28631
0.00720376
0.00470258
0.00471296
0.228834
0.000114967
0.0791605
0.0754868
0.0672971
0.00310229
0.0720813
0.00292369
0.025583
0.0256488
0.0364836
0.0116428
0.0175134
0.0174653
0.0116115
0.0166642
1.76925e-06
2.59202e-06
1.3949e-06
9.62454e-07
1.60694e-05
9.49413e-06
8.23687e-06
0.00078649
0.0491151
0.136406
0.110008
0.100057
0.0612233
0.0704482
0.00292404
0.0273216
0.0135344
0.02015
0.0229349
0.00474833
0.00752084
0.00121735
0.0663968
0.0266346
0.0230182
0.0249273
0.0312677
0.0142597
0.0248117
0.0353774
0.0169456
0.0106663
0.0132093
0.0143632
0.0102407
0.00940942
0.187859
0.178319
0.0364101
0.00736736
7.40133e-05
3.05506e-05
2.47871e-06
0.165469
0.0525616
0.00742819
0.0152726
0.0104312
0.0215226
9.78345e-07
0.0118748
0.196114
0.0416671
0.00437674
0.0224128
0.000133503
5.33465e-05
5.94872e-06
0.00845569
0.0158871
1.71565e-06
0.00151805
0.000242405
0.0113495
0.00331356
1.43809e-06
0.0107411
0.00174322
2.90297e-06
0.000473172
0.0161268
0.00181573
0.00132439
0.0170624
0.00358444
0.00461772
1.31127e-06
3.65643e-06
0.222544
0.00994586
0.0072178
0.00731077
0.0511488
5.62234e-06
9.89401e-07
0.0381827
3.1874e-06
2.64198e-07
0.0147733
0.0349541
4.72283e-06
2.43764e-07
0.0256878
8.43046e-06
9.6934e-07
0.014614
0.0360638
0.0280153
0.177577
0.00349708
0.0327129
0.0202157
0.0185655
8.67098e-07
1.34991e-05
0.00753912
0.00505279
9.36472e-07
2.84291e-07
2.81697e-07
6.95442e-06
0.00475788
0.00416511
0.0249671
0.00370819
0.000124381
0.00441983
1.06509e-05
0.00053869
0.0172263
0.020629
0.321147
5.76998e-07
8.7079e-10
0.000106231
1.54298e-05
0.00511073
0.0233122
0.0125394
0.342082
0.000958732
2.18703e-06
8.4388e-05
1.09861e-08
0.0384517
0.00749951
0.24508
0.0900264
0.289546
0.199468
0.0027262
0.0249285
0.157064
0.0089506
0.0456937
0.258964
0.00723797
0.115267
0.308455
0.231112
0.150041
0.0408825
0.000904629
0.000239466
4.71173e-06
2.22618e-06
1.98489e-06
0.00175747
9.52475e-06
0.00385867
4.12436e-06
0.000289219
7.76147e-07
0.033479
0.00168742
0.000158257
4.26328e-06
0.123874
0.0489282
0.093216
0.00100226
0.047658
0.00368207
8.81172e-05
1.5756e-06
0.000232381
9.10835e-05
1.28586e-05
0.0868947
0.00114371
0.000367466
1.52018e-06
5.71286e-06
2.70332e-07
0.02356
0.00179508
3.82171e-07
6.73449e-05
0.00282024
7.36675e-07
0.0425755
0.0407719
2.42005e-06
0.0547007
5.23096e-06
0.0143776
0.303058
0.0180509
0.057202
0.0429998
0.315612
3.73067e-05
6.01726e-06
0.00017032
0.0226659
0.114928
0.0125172
0.00820158
0.267996
0.0519393
0.336001
6.30173e-05
1.27793e-05
0.000295791
0.0308921
0.132894
0.24058
0.266571
0.0684851
5.13551e-07
0.0347295
0.290504
0.0684517
2.15847e-05
2.57975e-06
9.48233e-05
7.36356e-05
0.000102417
5.71302e-06
0.138522
0.00281906
0.0028465
2.15292e-05
3.6959e-07
4.17977e-05
5.64977e-05
2.31149e-06
0.0977637
0.000913574
0.0547411
0.0035357
0.00171266
1.00213e-05
3.07445e-05
6.59144e-08
8.79548e-06
4.9553e-08
3.57544e-05
0.00175525
0.0112728
0.0153093
0.011712
0.27971
0.0225648
0.00854527
0.255415
2.10007e-05
0.000908575
0.0367262
0.109883
2.33504e-06
2.98429e-05
7.59729e-07
2.32307e-05
0.0267866
0.0951727
1.16955e-06
1.49719e-05
1.62314e-07
1.26535e-05
9.23359e-07
1.99556e-05
1.90918e-07
9.40391e-06
1.82626e-06
3.93817e-05
8.48724e-07
1.71246e-05
1.68541e-06
0.00888016
4.0621e-05
0.00202027
3.77646e-06
0.00027823
0.0132901
7.18643e-05
0.118192
0.146778
0.077123
0.154399
0.088897
0.124143
0.0160165
0.00013475
0.00019161
2.8724e-05
0.00782923
1.8617e-05
0.00106565
3.50925e-06
3.84785e-07
6.8857e-07
0.175438
0.00400857
0.0107047
0.00270418
0.0147649
9.94421e-05
5.49667e-06
8.00914e-08
0.0626041
0.0438878
0.000918941
0.00984751
5.64947e-05
2.48727e-06
0.0463243
0.0401399
0.000594283
5.77109e-05
7.8692e-06
0.00325337
1.90952e-07
0.000158247
5.24774e-08
6.71315e-07
0.0304849
0.000712703
5.60948e-07
7.05426e-06
6.76028e-06
2.25009e-07
3.54538e-06
2.5094e-07
4.56444e-06
0.0161463
0.00122411
0.0970061
0.225135
0.00361499
0.000111591
0.0320368
0.187403
4.52879e-07
5.06367e-06
0.00100642
3.07327e-06
9.07681e-05
1.72467e-08
0.000507236
5.06671e-06
0.00700565
0.103601
0.000296212
0.0355488
4.79519e-05
1.83821e-08
0.00101825
0.000108378
1.9459e-07
2.67575e-06
1.38861e-06
1.03254e-06
0.033384
0.000373613
2.69026e-07
0.261901
0.0506484
2.46984e-05
6.83378e-05
0.000621197
9.2078e-07
1.22177e-05
5.07874e-05
1.10303e-05
3.60365e-06
2.18689e-07
6.77233e-06
7.08083e-07
1.2358e-05
0.000368782
4.19832e-05
0.000156784
0.00310788
6.44761e-07
0.000150612
0.0621953
0.00750945
0.0641607
0.000417467
0.195016
0.00134716
0.0173535
2.96561e-05
0.138225
4.04751e-05
0.00149373
3.64079e-08
0.000177722
0.00202016
0.000398086
3.53973e-07
0.00162846
0.0114906
0.000911371
2.02715e-05
0.0098545
0.0434997
0.00085554
0.00031102
0.156259
0.00289498
0.0143632
0.00250934
0.131554
0.0103861
0.00214336
0.00151453
0.130608
0.00039888
0.0100642
7.51482e-06
0.0798568
0.00260993
0.00035572
0.044924
0.000144124
0.125575
4.35464e-05
1.42884e-09
0.000551143
8.45756e-07
0.031468
0.22677
0.00613389
0.0311478
0.0057
0.000204633
0.0418879
0.211378
0.000883166
1.16805e-05
0.010124
0.000393855
0.128572
9.09939e-05
1.19251e-07
0.00162582
0.000167223
0.0492442
0.00292836
0.00329988
2.59769e-05
0.0125554
0.00930904
0.252391
0.00730722
0.00074392
0.0675796
0.0032744
0.000288692
0.104696
8.73914e-05
0.017019
0.000584405
0.0800157
0.0273579
0.00696477
0.0015901
0.000145606
0.00102123
9.78174e-05
0.000391756
5.87871e-08
0.000309566
2.85849e-07
0.00175902
0.00251671
1.25543e-05
3.67944e-06
3.53452e-07
5.91216e-06
0.000212681
2.51619e-05
0.00103023
0.0425567
0.000440567
0.0600111
0.00402357
0.132154
0.00289249
0.0535816
2.61776e-05
0.000151898
0.000391792
0.00270971
0.00114629
4.0986e-05
0.0157384
0.0147643
0.000855474
0.0539664
0.000323699
0.000588143
1.13828e-06
0.00305688
0.0309079
0.00385333
0.140192
0.016541
0.275576
0.0980358
0.000691394
1.67002e-05
0.0146162
0.140217
0.000534392
0.00408342
0.00026321
0.0589513
7.64525e-05
2.20428e-07
0.00239467
0.0104683
0.0271354
0.276402
0.253707
0.001503
0.0142611
0.000503698
2.48248e-05
0.155649
0.00875107
0.0533931
0.000364231
0.233769
0.000169088
0.00252986
0.000250643
4.8362e-07
0.0663748
0.00210464
0.000495269
0.0514261
0.0945339
0.000338357
5.11134e-05
0.0116925
0.0657163
0.0184285
0.00207275
0.135643
0.00227637
8.45003e-05
0.00199272
0.0462684
0.000102272
1.6407e-07
0.00490936
0.0502442
0.176865
0.000234671
0.000793103
0.0122891
0.114695
1.41474e-05
2.19869e-05
0.00578402
0.0215157
0.000805314
0.0653098
0.032385
0.00537335
0.170925
0.0209046
0.00588559
0.305779
0.0125173
0.0316927
0.292486
0.27036
0.212685
0.00439967
0.00138137
0.0210149
7.88262e-05
0.000577076
0.000841949
0.00450847
3.08016e-06
5.13081e-05
0.000247132
0.000641404
8.51438e-09
0.00016979
8.03902e-08
0.181152
0.0192488
0.0038122
0.00405788
0.0562266
0.00014157
0.00374377
8.38306e-07
0.153923
0.00621608
0.000780593
0.0753989
0.000468213
0.11742
0.00117117
0.0206874
3.45573e-05
0.0111704
0.000723769
0.0798846
0.211304
0.000285001
1.96233e-06
0.000214836
0.00472578
0.0813502
0.00223435
5.87759e-05
0.0238833
0.16273
0.000577932
1.21121e-06
0.000632396
4.70922e-05
2.29986e-09
3.07918e-05
0.00640162
0.0127655
0.242839
0.0405072
0.35092
0.203581
0.00528932
0.0141839
0.00438064
0.00108707
0.00495431
0.0865478
0.114204
0.000513706
0.000144127
0.000986293
0.0241392
0.0950514
3.92783e-05
0.0132158
0.114332
0.00137653
0.00153637
0.177069
0.000456347
0.0084823
6.25209e-06
0.0928467
0.00640147
0.0341941
0.000808212
0.000174534
0.000955785
0.00817801
0.00069626
9.40073e-06
0.0181842
0.00680675
0.230698
0.00692266
0.108052
0.00728182
0.00154655
0.122894
0.000892546
0.000225106
0.00675467
0.0633694
3.05159e-06
0.0016248
0.000229954
0.0333608
0.110383
7.66083e-05
0.168232
0.00283942
0.00027688
0.0306988
0.0529469
0.105704
0.00278739
0.00202617
0.0505461
2.78183e-07
4.4628e-05
0.00124565
2.6156e-08
6.73903e-05
1.96104e-06
1.62025e-07
2.60456e-06
0.000118813
1.47292e-05
1.24759e-07
3.35317e-08
5.22795e-10
4.21195e-09
0.00312401
0.0383539
0.000128281
0.157463
2.10675e-08
6.857e-09
2.52003e-07
0.00367377
1.1321e-05
0.0215705
0.000168721
1.06232e-06
0.000478368
0.00012235
0.019383
0.0621256
0.00379463
0.00149728
0.096911
0.0790377
0.000803515
0.000201198
0.0275432
0.0730059
0.0824118
0.00138276
0.0473361
0.0900855
0.0151671
0.112133
0.00269341
0.0295294
0.0249961
0.205066
0.00489585
0.0298701
0.00919746
0.0940175
0.166327
0.00110969
0.000812559
0.00193686
0.028534
0.137436
6.79076e-05
0.000256872
0.00570717
0.073234
2.47946e-06
0.121099
0.00553187
0.00213345
0.0845311
0.00131713
0.000320441
0.03813
0.0838982
0.175056
0.00742338
0.147569
0.00781914
0.00296206
0.0895764
0.00162934
0.143837
0.00724838
0.000594734
0.0419883
0.000126895
0.00017881
1.25885e-05
0.00158294
0.00060423
2.52954e-07
0.000182179
0.000170586
1.19906e-05
0.000877815
1.76585e-07
0.000182239
3.88885e-05
5.59303e-07
0.00028963
2.50089e-05
0.00133121
5.98102e-07
0.000332116
3.05262e-05
2.21015e-05
6.6096e-07
0.000213682
0.000301903
2.59213e-05
0.00200224
3.3021e-05
0.00285606
0.00090537
0.00239008
8.35159e-07
0.000331944
0.203343
0.00730484
0.00514491
0.0614066
0.00332254
0.0257732
0.331933
0.00658358
0.161119
0.00402426
0.0565223
0.00562574
0.0417454
0.00745383
0.0574661
0.000680911
0.0667536
0.00163548
0.0157834
0.297231
0.00979267
0.191654
0.00545796
0.00760923
0.0467478
0.00740792
0.00102344
0.0755982
0.0731056
0.00252683
0.0194173
0.322379
0.0112727
0.000562733