# vtk DataFile Version 2.0
Unstructured Grid by M++
ASCII
DATASET UNSTRUCTURED_GRID
POINTS 4225 float
  5.312500   3.437500 0
  8.750000   1.562500 0
  5.625000   2.187500 0
  9.062500   0.312500 0
  9.375000   0.937500 0
  9.687500   0.625000 0
  2.812500   1.562500 0
  4.687500   5.625000 0
  8.125000   3.750000 0
  5.625000   1.875000 0
  5.312500   3.125000 0
  8.750000   1.250000 0
  9.375000   1.250000 0
  9.687500   0.312500 0
  9.375000   1.562500 0
  3.750000  10.000000 0
  4.687500   5.312500 0
  8.125000   3.437500 0
  5.625000   1.562500 0
  5.312500   2.812500 0
  4.375000   6.562500 0
  7.812500   4.687500 0
  5.000000   3.750000 0
  4.687500   5.000000 0
  8.125000   3.125000 0
  5.625000   1.250000 0
  5.312500   2.500000 0
  7.500000   5.625000 0
  4.375000   6.250000 0
  7.812500   4.375000 0
  9.375000   0.625000 0
  8.437500   4.375000 0
 10.000000   7.812500 0
  6.562500   9.687500 0
  5.937500   9.687500 0
  6.250000   9.687500 0
  6.562500   8.437500 0
  0.625000  10.000000 0
  2.500000   2.500000 0
  3.750000   0.937500 0
  6.875000   0.312500 0
  0.937500   0.625000 0
  6.875000   0.625000 0
  0.937500   0.937500 0
  5.000000   0.312500 0
  3.437500  10.000000 0
  5.000000   2.500000 0
  4.687500   3.750000 0
 10.000000   8.125000 0
  6.562500  10.000000 0
  1.875000   3.125000 0
  7.812500   2.812500 0
  4.375000   4.687500 0
  1.250000   5.625000 0
  7.187500   5.312500 0
  1.562500   4.375000 0
  7.500000   4.062500 0
  6.562500   7.812500 0
  6.250000   9.062500 0
  2.187500   1.875000 0
  8.125000   1.562500 0
  4.687500   3.437500 0
  5.312500   2.187500 0
  3.437500   1.250000 0
  2.812500   2.187500 0
  3.125000   0.937500 0
  4.375000   0.625000 0
  4.062500   5.937500 0
 10.000000   5.625000 0
  0.625000   7.812500 0
  6.562500   7.500000 0
  3.437500   8.437500 0
  9.375000   8.125000 0
  5.937500  10.000000 0
  3.750000   7.187500 0
  9.687500   6.875000 0
  6.250000   8.750000 0
  7.500000   7.187500 0
  8.125000   4.687500 0
  7.812500   5.937500 0
  1.250000  10.000000 0
  7.187500   9.687500 0
  5.312500  10.000000 0
  7.187500   5.937500 0
  4.687500   4.062500 0
  4.375000   5.312500 0
  6.875000   7.187500 0
  2.500000   0.625000 0
  8.437500   0.312500 0
  3.125000   2.187500 0
  3.437500   0.937500 0
  5.000000   2.812500 0
  3.437500   1.875000 0
  3.750000   0.625000 0
  7.500000   4.687500 0
  1.562500   5.000000 0
  5.000000   3.125000 0
  2.500000   1.562500 0
  8.437500   1.250000 0
  7.812500   3.437500 0
  1.875000   3.750000 0
  5.312500   1.875000 0
  8.125000   2.187500 0
  2.187500   2.500000 0
  5.625000   0.625000 0
  8.437500   0.937500 0
  2.500000   1.250000 0
  4.062500  10.000000 0
 10.000000   5.312500 0
  4.062500   5.625000 0
  6.562500   7.187500 0
  0.625000   7.500000 0
  1.562500   4.062500 0
  7.500000   3.750000 0
  7.500000   3.437500 0
  1.562500   3.750000 0
  9.687500   6.562500 0
  3.750000   6.875000 0
  6.250000   8.437500 0
  0.312500   8.750000 0
  1.250000   5.312500 0
  7.187500   5.000000 0
  9.375000   7.812500 0
  3.437500   8.125000 0
  0.937500   6.562500 0
  6.875000   6.250000 0
  7.187500   3.437500 0
  1.250000   3.750000 0
  0.937500   5.312500 0
  6.875000   5.000000 0
  6.562500   5.937500 0
  0.625000   6.250000 0
  6.250000   7.187500 0
  0.312500   7.500000 0
  1.250000   4.062500 0
  7.187500   3.750000 0
  6.875000   4.687500 0
  0.937500   5.000000 0
  1.875000   1.562500 0
  7.812500   1.250000 0
  6.875000   3.437500 0
  0.937500   3.750000 0
  7.500000   0.937500 0
  1.562500   1.250000 0
  0.937500   4.062500 0
  6.875000   3.750000 0
  1.562500   1.562500 0
  7.500000   1.250000 0
  7.187500   2.187500 0
  1.250000   2.500000 0
  4.687500   0.625000 0
  8.750000   0.312500 0
  2.812500   0.625000 0
  7.187500   1.250000 0
  1.250000   1.562500 0
  0.937500   2.500000 0
  6.875000   2.187500 0
  0.625000   3.750000 0
  6.562500   3.437500 0
  1.250000   1.250000 0
  7.187500   0.937500 0
  6.875000   2.812500 0
  0.937500   3.125000 0
  6.562500   4.062500 0
  0.625000   4.375000 0
  7.500000   0.312500 0
  1.562500   0.625000 0
  7.187500   1.562500 0
  1.250000   1.875000 0
  6.875000   9.687500 0
  0.937500  10.000000 0
  0.625000   4.062500 0
  6.562500   3.750000 0
  5.000000  10.000000 0
  8.437500  10.000000 0
  2.812500   9.062500 0
  8.750000   8.750000 0
  6.250000  10.000000 0
  6.562500   8.750000 0
  2.500000  10.000000 0
  8.437500   9.687500 0
  4.375000   5.625000 0
  1.875000   4.062500 0
  7.812500   3.750000 0
 10.000000   6.562500 0
  4.062500   6.875000 0
  7.500000   5.000000 0
  6.875000   7.500000 0
  9.687500   7.812500 0
  3.750000   8.125000 0
  7.187500   6.250000 0
 10.000000   8.437500 0
-10.000000  10.000000 0
 -4.687500   2.500000 0
  5.000000  -4.375000 0
-10.000000   5.312500 0
 -9.687500   4.062500 0
-10.000000 -10.000000 0
 -5.000000   2.500000 0
 -8.437500   4.375000 0
 -0.625000   1.875000 0
 -1.250000   4.375000 0
 -4.687500   6.250000 0
 -0.937500   2.812500 0
 -4.375000   4.687500 0
 -1.250000   4.062500 0
 -4.687500   5.937500 0
 -2.812500  10.000000 0
 -1.250000   3.750000 0
 -4.687500   5.625000 0
 -0.312500   0.937500 0
-10.000000   7.812500 0
 -1.250000   4.687500 0
  1.875000  -6.875000 0
 -9.375000   9.375000 0
 -9.062500   8.437500 0
 -9.375000   9.687500 0
 -5.937500   7.812500 0
 -9.687500   9.062500 0
 -5.625000   7.812500 0
 -5.312500   6.562500 0
 -8.750000   8.437500 0
 -5.000000   5.312500 0
 -5.312500   2.500000 0
 -8.750000   4.375000 0
 -5.625000   3.750000 0
 -9.062500   5.625000 0
 -9.375000  10.000000 0
 -5.937500   8.125000 0
 -9.062500   8.750000 0
 -5.625000   6.875000 0
 -6.250000   5.312500 0
 -9.687500   7.187500 0
  0.000000   0.312500 0
 -0.625000   4.062500 0
  5.937500  -9.375000 0
  5.000000   5.000000 0
 -0.937500   5.312500 0
  1.562500   6.875000 0
 -4.375000   7.187500 0
  5.625000  -8.125000 0
  9.375000 -10.000000 0
  5.937500  -8.125000 0
 -9.687500   6.875000 0
  0.000000   0.000000 0
  9.375000   6.562500 0
  3.437500   6.875000 0
 -2.500000   7.187500 0
 -7.812500  -4.375000 0
 -5.937500   5.000000 0
 -9.375000   6.875000 0
  0.312500   0.000000 0
-10.000000   4.687500 0
 -7.187500  -6.250000 0
 -9.062500   5.000000 0
 -6.250000   5.625000 0
 -9.687500   7.500000 0
  0.000000   0.625000 0
 -9.062500   9.062500 0
 -5.625000   7.187500 0
 -5.000000   6.250000 0
 -7.187500   2.812500 0
  5.625000   4.062500 0
 -0.312500   4.375000 0
  2.187500   5.937500 0
  8.125000   5.625000 0
 -3.750000   6.250000 0
  6.250000  -9.062500 0
  3.125000   2.500000 0
 -2.812500   2.812500 0
  5.312500   5.312500 0
 -0.625000   5.625000 0
  9.375000  -9.687500 0
 -0.625000   2.812500 0
  1.875000   4.375000 0
 -4.062500   4.687500 0
 -0.312500   1.562500 0
-10.000000   8.437500 0
 -0.937500   4.062500 0
  5.625000  -9.375000 0
 -1.250000   5.312500 0
  1.875000  -6.250000 0
  5.312500  -8.125000 0
  0.312500   5.000000 0
  6.250000   4.687500 0
 -5.625000   5.312500 0
 -8.750000  -3.437500 0
  4.062500   1.875000 0
 10.000000   1.562500 0
 -1.875000   2.187500 0
 -8.437500  -4.687500 0
 -9.375000  -1.562500 0
  1.250000  -6.250000 0
 -5.312500   7.187500 0
  6.250000  -9.375000 0
 -9.375000  -1.875000 0
-10.000000   5.000000 0
 -8.750000  -3.750000 0
 -5.937500   5.312500 0
 -9.375000   7.187500 0
  0.312500   0.312500 0
  0.937500  -5.312500 0
 -5.625000   8.125000 0
 -5.312500   6.875000 0
 -9.375000   9.062500 0
 -0.312500   3.125000 0
 -7.500000   2.812500 0
  5.312500   4.062500 0
 -0.625000   4.375000 0
  1.875000   5.937500 0
 -4.062500   6.250000 0
  5.937500  -9.062500 0
  1.562500   7.187500 0
 -4.375000   7.500000 0
  5.625000  -7.812500 0
  5.000000   5.312500 0
 -0.937500   5.625000 0
  9.062500  -9.687500 0
  5.937500   5.312500 0
  0.000000   5.625000 0
 -5.937500   5.937500 0
 -9.062500  -2.812500 0
  1.875000   5.000000 0
 -4.062500   5.312500 0
  5.937500 -10.000000 0
 -0.625000   3.437500 0
  5.312500  -7.500000 0
 -1.250000   5.937500 0
 -0.312500   2.187500 0
-10.000000   9.062500 0
  0.937500   8.750000 0
 -5.000000   9.062500 0
  5.000000  -6.250000 0
  8.750000  -9.375000 0
  2.812500  -9.062500 0
 -9.687500   9.375000 0
 -5.000000   5.625000 0
 -9.062500  -2.187500 0
 -0.625000   0.312500 0
  9.062500  -6.562500 0
 -0.625000   2.500000 0
 -4.062500   4.375000 0
 -8.125000   9.062500 0
 -2.187500   8.750000 0
  3.437500   9.687500 0
 -2.500000  10.000000 0
 -0.312500   1.250000 0
-10.000000   8.125000 0
 -1.250000   5.000000 0
 -2.187500   8.437500 0
 -8.125000   8.750000 0
  1.875000  -6.562500 0
  5.312500  -8.437500 0
 -9.687500   8.437500 0
  0.000000   1.562500 0
 -9.687500  10.000000 0
 -9.375000   8.750000 0
 -0.625000   3.125000 0
  1.875000   4.687500 0
 -4.062500   5.000000 0
  0.625000   9.687500 0
 -5.312500  10.000000 0
  4.687500  -5.312500 0
  3.750000   9.062500 0
 -8.125000   9.687500 0
 -2.187500   9.375000 0
 -0.312500   1.875000 0
-10.000000   8.750000 0
 -0.937500   4.375000 0
  2.187500  -7.187500 0
  5.625000  -9.062500 0
 -1.250000   5.625000 0
  3.750000   8.750000 0
 -2.187500   9.062500 0
 -8.125000   9.375000 0
  1.875000  -5.937500 0
  5.312500  -7.812500 0
  4.375000   6.875000 0
 -1.562500   7.187500 0
 -7.500000   7.500000 0
  8.437500  -8.125000 0
  2.500000  -7.812500 0
  0.000000   0.937500 0
 -9.687500   7.812500 0
 -0.937500   4.687500 0
  4.062500   7.812500 0
 -1.875000   8.125000 0
 -7.812500   8.437500 0
  2.187500  -6.875000 0
  5.625000  -8.750000 0
  5.625000   3.125000 0
 -0.312500   3.437500 0
  2.187500   5.000000 0
 -3.750000   5.312500 0
  6.250000 -10.000000 0
 -7.500000   3.125000 0
  5.000000   5.625000 0
 -0.937500   5.937500 0
  9.062500  -9.375000 0
  1.562500   7.500000 0
 -4.375000   7.812500 0
  5.625000  -7.500000 0
  5.937500  -8.750000 0
 -9.062500   9.375000 0
 -5.625000   7.500000 0
 -8.750000   8.125000 0
 -5.312500   6.250000 0
 -4.375000   2.812500 0
  5.312500  -4.062500 0
  5.937500   3.125000 0
  0.000000   3.437500 0
  2.500000   5.000000 0
[...]
CELL_DATA 4096
SCALARS scalar_value float 1
LOOKUP_TABLE default
0.00785803
0.00596628
0.0128999
0.0101588
0.00744222
0.00952151
3.43126e-05
2.23088e-05
0.0177775
0.000487817
0.000338264
0.010555
0.0128576
0.0153493
0.0147054
0.0228491
0.019757
0.0167204
0.0160994
0.0119451
0.00125261
0.000841076
0.000972304
0.0126458
0.0146606
0.0206561
0.0179724
8.81596e-05
5.52314e-05
0.00304655
0.00221001
0.000993565
0.00150399
0.00225258
0.00317229
0.00412558
0.00295501
0.233468
0.24108
0.123754
0.0498776
0.106726
0.0388544
0.000140129
0.000645726
0.000148572
0.000233687
0.000220069
0.221387
0.000576284
0.00148322
0.000978576
0.000298132
0.000714769
0.000242125
0.000467628
0.000153661
0.000314157
0.000154897
0.000489616
0.00024461
0.00438261
0.00594347
0.126284
0.0331367
0.172877
0.0951885
1.22336e-05
0.000879784
1.89333e-05
0.00132161
0.245045
0.146686
0.0423513
0.185962
0.113862
0.271115
0.218417
0.00317221
0.00759166
0.000407034
0.00189091
0.00141838
6.04084e-05
0.00424939
0.0105841
0.000608183
0.00277154
0.00202692
9.39286e-05
0.196047
0.133638
0.00427424
0.00417505
0.000115695
0.000375887
0.000476374
5.99514e-05
0.000121063
2.34125e-05
0.000579045
0.000726841
9.6727e-05
0.000197176
4.06748e-05
0.0434175
0.00423572
9.06289e-05
0.114496
0.0130327
0.109928
0.0497098
0.0030547
0.208857
0.0163899
0.000577489
0.00380197
0.000431249
0.0137084
0.00214021
0.0101543
0.00145722
0.00266412
0.000281388
0.00952133
0.00261337
0.00706742
0.0017777
0.00127439
3.84509e-05
0.000969175
7.27261e-05
0.00537844
0.000269534
0.00230922
1.31973e-05
0.000848108
2.45332e-05
0.000646728
4.27536e-05
0.00376391
0.000176628
0.00163943
7.32234e-06
0.0120557
0.0833985
0.0106669
0.00270691
0.0351698
0.00667189
0.000494463
0.0113449
0.00879052
0.00189726
0.0265742
0.00512978
0.000331676
0.00812147
3.59717e-05
0.00889191
0.0669975
0.0112952
5.98901e-05
0.000187749
0.000381158
0.000746415
4.85813e-05
0.0019631
0.00225136
6.13241e-05
9.62371e-05
0.000299495
0.000586414
0.00111316
7.53627e-05
0.00287956
0.0031366
0.23291
0.0638631
0.00862027
0.000205797
0.0219051
0.140445
0.00576927
0.0127871
0.0117524
0.124596
0.130278
0.0905394
0.0880621
2.98853e-05
0.000167379
1.7194e-05
0.00010238
3.0607e-05
0.000182957
0.12489
0.0281894
0.00791748
0.0524121
0.0246559
0.165938
5.17187e-05
0.00029094
0.150955
0.0301926
0.00601901
0.010367
0.067645
0.0283047
0.000355829
0.0227157
0.0258954
0.000225973
0.016608
0.0210943
4.61579e-05
0.000550336
0.00825169
0.0170651
0.000694463
0.0306572
0.0312924
0.000313743
0.00224609
0.175499
0.279948
0.0978065
8.61835e-05
0.000453917
0.00854536
0.01335
0.00183175
0.0211094
7.32512e-05
0.000836513
0.000975283
0.0408052
0.0372177
0.00048127
0.00321233
6.82261e-05
5.11569e-05
5.82525e-05
0.000267992
0.173692
0.205674
0.0794661
8.57939e-05
9.32761e-05
0.000420278
1.32471e-05
0.0016249
8.75319e-05
0.00032169
0.00616161
0.000571736
0.000509577
7.28784e-06
3.2876e-06
6.13378e-06
2.35843e-05
4.15493e-06
0.00119657
4.66914e-05
0.000506175
4.11101e-05
0.0158734
0.00186483
0.00157805
0.00491335
0.000322642
0.00110818
7.6489e-06
0.19231
0.0943885
2.36196e-05
0.00014097
1.3861e-05
0.000360934
0.000268452
4.04392e-05
0.000226977
2.46018e-05
0.000557072
0.000421538
0.00855827
0.000760546
0.000857091
0.00238091
0.000497572
0.000136641
0.202445
0.153848
0.00569972
0.00598324
0.000175762
0.000117016
1.65365e-05
1.72769e-06
8.03839e-06
0.00109376
5.54791e-05
0.00020323
0.00437798
0.000377399
0.000333723
3.92851e-06
2.00915e-05
0.000725736
3.51643e-05
0.000125529
0.00306921
0.000246532
0.000213751
2.08521e-06
1.12158e-05
8.945e-07
4.35543e-06
0.00963386
0.00223492
0.000730655
0.00260167
0.00113539
0.00011455
0.0141232
0.367026
0.00692376
0.00159385
0.000488096
0.00177584
0.00076729
7.35173e-05
0.00646361
0.250745
0.000115199
0.00574373
0.000220104
0.00385404
2.06657e-05
0.0013227
3.09978e-05
0.00158002
6.91854e-05
0.00401374
0.000144535
0.00282833
1.16879e-05
0.00088059
1.98527e-05
0.00108395
1.20601e-06
2.31401e-06
0.0347868
0.169595
0.00980426
0.093289
5.91909e-05
0.00291818
0.00156817
0.000579062
0.00217633
0.0380148
0.000392809
0.0118582
0.000231695
0.00596116
0.00130555
0.00742021
0.000981445
0.00212224
0.000133972
0.000159362
0.257006
0.0211166
0.0400164
0.000156846
0.0169939
0.00446202
0.000925304
0.00534859
0.000654007
0.00144666
8.2211e-05
0.000101918
0.238617
0.0273717
0.145771
0.00726151
0.0747905
3.82554e-05
0.0032437
0.00198776
0.00106975
0.000376714
0.00153026
0.0286643
0.000264193
0.00847405
0.358529
0.0328355
0.0583933
0.262373
0.013782
0.37018
0.0350748
0.05858
0.294769
0.0161367
0.381303
0.0228201
0.0351201
0.293318
0.0110447
0.369341
0.0219211
0.0362618
0.261219
0.0095705
0.0531761
0.00607802
0.000137306
0.0170426
0.125499
0.0640593
0.0042287
0.222587
0.0223665
0.000839088
3.77102e-05
8.1367e-07
3.27096e-07
6.30056e-05
1.54646e-06
6.46324e-07
0.0117324
0.00110882
0.00127121
0.00344251
0.000751618
0.000211063
0.000795526
0.000326099
2.96885e-05
0.000168235
5.29211e-06
2.38951e-06
6.16828e-07
0.0751604
0.0120801
0.000305049
0.0276487
0.154115
0.00775121
0.00170641
0.000103907
2.88701e-06
1.25424e-06
3.1105e-07
0.0102467
0.0866419
0.00238532
0.000446999
0.0342395
0.0550552
0.0920476
0.314995
0.0264804
0.00857901
0.00162962
1.2025e-05
0.093055
0.0572937
0.339675
0.0298888
0.0115631
0.00239508
1.83677e-05
0.0101038
0.0414341
0.160199
0.00154534
0.000202319
0.00249055
0.0380263
0.0694317
0.00516644
0.00119619
0.0727596
0.316464
0.0132575
0.00580878
0.0313582
0.268824
0.00783065
0.0386663
0.132398
0.0330893
0.0537412
0.00371771
0.000796299
0.00104552
0.000129011
0.0654048
0.306483
0.0101425
0.00404163
0.0261073
0.239418
5.22155e-05
6.97701e-06
0.00181655
7.86029e-05
1.0679e-05
0.000104984
0.0133157
0.00328708
0.000647184
0.0415628
0.217115
0.0161011
0.102162
0.0531977
0.167318
0.0038129
0.0458969
1.57402e-05
0.00162429
0.000891258
0.00848403
0.000729024
0.0156523
0.0211674
0.123087
0.0656283
0.187309
0.00529911
0.0590317
2.4474e-05
0.00231971
0.0013387
0.00106257
0.0213214
0.0141173
0.00219076
0.00270482
0.0211916
0.0122582
0.0498924
0.0441251
0.000482557
0.0881057
7.01363e-05
5.83452e-05
0.00204867
0.122097
0.113914
0.023849
0.0308129
0.00566083
0.00189158
0.0319487
0.0859828
0.03177
0.179297
0.000508033
0.0370412
0.0605367
7.59798e-05
0.000214407
0.000365575
0.0278481
0.0506795
4.47256e-05
0.00013426
0.0283222
0.0409846
0.00763868
0.00278035
0.00296442
0.00387728
0.0279088
0.0167188
0.0618146
0.000117075
9.45854e-05
0.0152222
0.00549029
0.00390653
0.036245
0.0224809
0.0753878
0.000191152
0.000152018
0.00108202
0.00305363
0.013235
0.0160593
0.0166388
0.000354789
0.0337295
0.0748262
0.00886607
0.0396596
0.000167089
0.000230524
0.000256774
0.0253972
0.0625003
0.00632944
0.0310623
0.000101679
0.000145037
0.0206409
0.000259301
0.0417555
0.0050022
4.14602e-05
0.0201371
0.0668863
0.00132805
0.0648393
7.58478e-05
0.000474374
0.164373
0.00534955
0.0739843
2.57705e-05
8.26904e-05
0.0188482
0.000183104
0.0513702
0.0044623
0.0239813
0.062653
0.000936204
0.0821808
0.000205257
0.000521552
0.158397
0.0037413
0.0961101
6.05188e-05
8.98343e-05
0.0137948
0.000128758
0.0415673
0.00310831
0.0182565
0.0485457
0.00069529
0.0711327
0.000126283
0.00033697
0.130999
0.0029745
0.0895268
3.52445e-05
5.51009e-05
0.0150913
0.000181434
0.0338728
0.0034812
2.77506e-05
0.0153671
0.0517656
0.000979997
0.0562265
4.48543e-05
0.000305251
0.135799
0.00421472
0.0689605
1.45411e-05
5.03761e-05
0.0144045
0.00755439
0.0726782
0.00328192
0.00663653
0.0317174
0.0105885
0.00624276
0.0585182
0.00229422
0.00526399
0.0240223
0.0193119
0.00886531
0.0888403
0.0629649
0.140949
0.00463647
0.00814152
0.0412957
0.00555086
0.000898872
0.0145725
0.029784
0.0904562
0.00767563
0.00500897
0.046398
0.000305191
0.00024074
0.00158466
0.00406345
0.0179489
0.0254993
0.0100759
0.106825
0.0781169
0.157592
0.00646495
0.00971938
0.0529945
0.00707192
0.00131359
0.0198086
0.00710294
0.0260156
6.12317e-05
0.0364175
0.0582947
0.324538
0.0183992
0.195433
0.0779021
0.00664781
0.0850764
0.0734985
0.00176978
0.361882
0.00864996
0.258929
0.00475975
0.152549
0.132027
0.00170102
0.00999955
0.0166078
0.00444334
0.0185068
0.00452346
0.000730413
0.047309
0.336643
0.00125041
0.000116002
0.0192674
0.254677
0.00996235
0.0331284
8.93522e-05
0.0367856
0.0581245
0.349948
0.0203906
0.228108
0.0804711
0.0080751
0.106464
0.0818565
0.00231653
0.000358193
0.16392
0.0227614
0.0813092
0.0233175
0.00143543
0.190452
0.0436075
0.0127911
0.0791564
0.088334
0.0429731
0.00336173
0.134305
0.295864
0.0368297
0.138191
0.0216325
0.00014088
0.000695141
0.0119873
0.0169151
0.107575
0.0354527
0.000524421
0.00263184
0.0115814
0.0216354
0.000172208
0.0842993
0.222324
0.0450583
0.0158687
0.110603
0.0477389
0.00446307
0.136918
0.318971
0.0422527
0.0223658
0.0329559
0.34788
0.0134525
0.219263
0.104554
0.00552602
0.0994199
0.104051
0.00160915
0.000112834
0.00055421
0.190981
0.0235258
0.101595
0.0258626
0.00207882
0.00183931
0.000181659
0.0516705
0.3476
0.00627499
7.7937e-06
0.00109684
0.0228643
0.286102
0.350737
0.00881529
0.231486
0.00425342
0.109809
0.14191
0.00137862
0.0115792
0.0201937
0.000341624
5.10956e-05
0.0167173
0.0129467
0.332699
0.00860941
0.202939
0.13315
0.00368616
0.0896982
0.129492
0.00109243
0.0110747
0.0229739
0.0338211
0.322771
0.0123825
0.188101
0.101227
0.0046021
0.0795795
0.0933046
0.00123887
0.239412
0.0108897
0.000125322
0.027065
6.44747e-05
4.94157e-05
0.000971613
0.000711854
0.0394614
0.0479501
0.229004
0.0114837
0.0607661
2.59744e-05
0.00019324
0.11027
0.00325584
0.0631139
1.43582e-05
0.00127291
0.00775913
8.5506e-05
0.0213067
4.07443e-05
2.91084e-05
0.000642534
0.000509465
0.0296466
0.0402325
0.196121
0.00935101
0.0588184
1.47357e-05
0.000120272
0.0880568
0.00246925
0.0567427
9.32585e-06
0.000847297
6.95066e-05
0.00419043
0.000363149
2.95095e-05
0.00196332
0.00120432
0.0301222
3.84418e-05
0.00379955
0.0126376
9.52196e-06
0.000267537
0.0013501
0.0535357
0.043555
0.0160525
0.000250403
0.0270171
0.00582172
0.136214
0.0521121
4.46753e-06
4.44512e-05
0.000557825
4.55289e-05
0.00288439
5.7658e-05
0.00546165
0.0165295
1.68105e-05
0.000418107
0.00184069
0.069195
0.0501361
0.0219629
0.000359548
0.033226
0.00745266
0.164903
0.0558744
8.19374e-06
7.35582e-05
1.06774e-07
0.378835
0.0142872
0.0194652
0.281174
0.00734671
0.122372
0.147316
0.00255252
0.0568262
0.101978
0.000645402
5.24566e-08
1.62637e-07
4.20646e-07
0.0178335
0.013888
0.309017
0.00809202
0.174533
0.128925
0.00310673
0.0720005
0.115966
0.000847821
7.98036e-08
2.13737e-07
1.21046e-08
2.53518e-08
8.13185e-05
0.209138
0.0328323
0.0212772
0.117174
0.187077
0.290454
0.057484
0.280644
0.0031729
0.289032
0.00292714
0.331148
0.00509094
0.228375
0.00300988
0.00481086
0.321167
0.00535211
0.205
0.00273224
0.00604546
5.12564e-06
0.00809612
0.283913
0.00514852
0.155826
0.160769
0.00204802
0.00850795
0.00719364
0.305076
0.00536214
0.180462
0.166024
0.00240062
0.0074686
0.108137
0.182568
0.269526
0.0494112
0.00204228
0.00387446
0.267207
0.00326004
0.00289996
0.00458358
0.249468
0.00319725
0.00368825
0.00253704
0.193719
2.53494e-05
0.0962666
0.0815137
0.0784126
0.00389073
0.0808528
0.00335658
0.0500691
0.0508411
0.0686034
0.0249308
0.0361068
0.035532
0.0245234
0.0204682
6.50289e-06
9.37311e-06
5.13074e-06
3.59681e-06
5.18845e-05
3.07642e-05
2.71104e-05
0.00152322
0.0876536
0.160791
0.129202
0.12224
0.0804159
0.0890429
0.0068509
0.0352194
0.021151
0.025808
0.0355412
0.0107624
0.0164667
0.00228698
0.113682
0.0362015
0.0284418
0.0362156
0.0388619
0.0208248
0.0479594
0.065743
0.0340293
0.0219337
0.015573
0.0163512
0.0115989
0.0110313
0.204666
0.202421
0.0472341
0.0116239
0.000166866
0.000100524
7.72053e-06
0.195715
0.0926166
0.00932795
0.016788
0.0131858
0.0237637
3.2856e-06
0.0144972
0.232696
0.0742793
0.00608481
0.023882
0.000293274
0.000171417
1.82019e-05
0.0102603
0.0168624
5.93463e-06
0.00226922
0.000237332
0.0246484
0.00647148
5.05097e-06
0.0236676
0.00348301
1.00332e-05
0.000655332
0.0341802
0.0034019
0.00181399
0.03566
0.00657366
0.0103184
3.79732e-06
1.03994e-05
0.291115
0.0205213
0.0110219
0.00921621
0.0593421
1.99114e-05
3.27384e-06
0.0441011
1.15074e-05
8.86363e-07
0.020109
0.0418814
1.67682e-05
8.05812e-07
0.0306173
2.93476e-05
3.16039e-06
0.0185957
0.0554551
0.0322074
0.219724
0.00502692
0.0613482
0.0231289
0.0220092
2.99999e-06
4.42869e-05
0.0167428
0.0102514
3.19208e-06
9.82402e-07
9.8794e-07
2.3252e-05
0.0109419
0.00892012
0.0501405
0.00635851
0.000369713
0.00893525
3.39813e-05
0.001215
0.0228659
0.0340206
0.350924
1.39881e-06
2.21736e-09
0.000321002
3.25742e-05
0.0104647
0.0311622
0.0209122
0.373646
0.00231998
5.26676e-06
0.000223638
2.80389e-08
0.0657473
0.0101579
0.279377
0.150581
0.330657
0.2786
0.00405047
0.0490877
0.202637
0.011713
0.0738867
0.282794
0.00841622
0.18429
0.334286
0.307245
0.184904
0.0756886
0.000822337
0.000203227
1.55467e-05
7.47062e-06
6.76243e-06
0.00425015
2.3069e-05
0.00893305
1.38196e-05
0.000321155
2.72574e-06
0.0653409
0.00273565
0.000474224
1.23018e-05
0.15201
0.089477
0.104914
0.0011321
0.0622138
0.0058773
0.000270738
4.62918e-06
0.000496901
0.000285323
3.86016e-05
0.101662
0.00142653
0.000458079
3.61134e-06
1.9405e-05
9.62203e-07
0.0479543
0.00313733
1.44908e-06
0.000205
0.0058898
2.75276e-06
0.0456915
0.045393
7.99985e-06
0.0611353
1.69981e-05
0.0197744
0.346434
0.0316048
0.0615865
0.0609501
0.360894
0.000122053
1.86879e-05
0.000379169
0.0460858
0.153681
0.0186272
0.0163352
0.336282
0.07088
0.365245
0.000201083
3.89449e-05
0.000640852
0.0599901
0.170613
0.304883
0.320734
0.119723
1.94903e-06
0.0511138
0.349394
0.118413
7.22784e-05
8.15475e-06
0.000216681
0.000232438
0.000222036
1.7224e-05
0.213133
0.00295253
0.00657311
5.96812e-05
1.08777e-06
0.00013516
0.000125686
7.09466e-06
0.105853
0.000929784
0.0688122
0.00523023
0.00408121
2.83604e-05
9.7244e-05
1.96588e-07
2.45335e-05
1.45651e-07
0.000111288
0.00378255
0.0234892
0.0283868
0.0166857
0.334489
0.0412568
0.0120752
0.304731
6.56993e-05
0.00199101
0.0703765
0.140358
8.19709e-06
6.80566e-05
2.3701e-06
7.68282e-05
0.0536983
0.12652
4.17111e-06
3.49652e-05
5.13339e-07
4.27327e-05
3.34396e-06
4.72419e-05
6.12764e-07
3.2291e-05
6.51197e-06
9.10291e-05
2.68684e-06
5.76052e-05
3.81535e-06
0.0177973
8.46992e-05
0.00441245
8.36045e-06
0.000811729
0.0257065
0.00014597
0.133441
0.16619
0.101916
0.167922
0.112963
0.134736
0.0317567
0.000280767
0.000564566
5.91353e-05
0.0154956
5.91651e-05
0.00236695
1.19417e-05
9.2018e-07
1.59221e-06
0.238619
0.0062723
0.0228055
0.00615606
0.0289118
0.000204566
1.23304e-05
1.92525e-07
0.106111
0.0595451
0.00170612
0.0199891
0.000119326
5.70609e-06
0.0817797
0.0580297
0.0011371
0.000178554
1.70202e-05
0.00688403
4.71775e-07
0.000409274
1.31919e-07
2.39316e-06
0.0602851
0.00118245
2.02996e-06
1.68533e-05
2.32794e-05
8.24891e-07
1.24316e-05
9.06474e-07
1.57521e-05
0.0343101
0.00275633
0.135072
0.241836
0.00884104
0.000276412
0.0517297
0.250881
1.66371e-06
1.77232e-05
0.00247135
7.50298e-06
0.000244114
4.46401e-08
0.00138464
1.35394e-05
0.0129248
0.168602
0.000815431
0.0685014
0.00014236
5.17299e-08
0.00210989
0.000333693
7.23972e-07
9.5331e-06
5.02941e-06
2.4199e-06
0.0613259
0.000736115
1.03568e-06
0.331231
0.0913973
7.49046e-05
0.000216421
0.00132564
2.95813e-06
4.18079e-05
0.000118999
3.67734e-05
8.37912e-06
7.12325e-07
2.36462e-05
2.60396e-06
3.82363e-05
0.000809659
0.000136491
0.000451224
0.00612781
1.78858e-06
0.000445092
0.111127
0.0173279
0.0967594
0.000995431
0.234449
0.00352171
0.030172
7.70228e-05
0.205352
0.000123993
0.00317664
1.05469e-07
0.000495634
0.00388707
0.00112707
9.54436e-07
0.00412273
0.0195618
0.00225259
5.11829e-05
0.0220401
0.0645432
0.00175664
0.000721192
0.211352
0.0044864
0.0301027
0.00563293
0.185599
0.0227802
0.00343176
0.00350678
0.138387
0.00112503
0.0190057
2.06619e-05
0.132408
0.00659876
0.00063787
0.0739357
0.000367364
0.169144
0.000118102
3.69018e-09
0.00137218
2.07866e-06
0.0567897
0.26985
0.00859707
0.0333121
0.0134463
0.000494132
0.0651175
0.268326
0.00234219
3.05724e-05
0.0180436
0.00104204
0.199364
0.000264075
3.31348e-07
0.0032677
0.000499533
0.0909277
0.00696323
0.00743476
6.2344e-05
0.0245907
0.0137332
0.315703
0.0157782
0.00130918
0.107898
0.00812138
0.000727725
0.133238
0.000170656
0.0313731
0.00162874
0.127126
0.0417901
0.0159287
0.00337184
0.000341937
0.00200219
0.000275224
0.00112388
1.58754e-07
0.000791876
7.16054e-07
0.00431811
0.00594586
3.08282e-05
1.30901e-05
1.31813e-06
1.86387e-05
0.000479882
8.38267e-05
0.00279271
0.074331
0.000832902
0.0863366
0.00955054
0.197295
0.00488411
0.0595564
7.70059e-05
0.000463016
0.000814666
0.00664277
0.00270261
0.000101128
0.0258581
0.0317474
0.00164642
0.077067
0.00087979
0.0016069
3.01505e-06
0.00569659
0.0340212
0.00657608
0.210861
0.0248302
0.346798
0.154466
0.00189469
4.49743e-05
0.0266386
0.178377
0.000930058
0.00995462
0.000653943
0.0932824
0.000229009
6.30302e-07
0.00493677
0.0142882
0.0469304
0.315582
0.289153
0.00386596
0.0245342
0.00127672
6.35672e-05
0.229739
0.0198751
0.0798686
0.000856382
0.281234
0.000478986
0.00492727
0.000724769
1.32262e-06
0.11729
0.00541444
0.000898328
0.0854605
0.127677
0.000970457
0.000102529
0.022345
0.110035
0.0380283
0.00318179
0.18243
0.00503989
0.00024912
0.00405599
0.0864609
0.000311978
4.62459e-07
0.01177
0.0788009
0.224806
0.000574748
0.00213776
0.022147
0.179259
3.75588e-05
4.70201e-05
0.0119976
0.0444043
0.001444
0.0897314
0.0331291
0.00886884
0.245873
0.0302711
0.0112729
0.366991
0.016498
0.0517363
0.319577
0.291854
0.283764
0.0104264
0.00309504
0.0333011
0.000189852
0.00152625
0.00221398
0.00813023
8.00223e-06
0.00014771
0.000731581
0.00129565
2.32805e-08
0.000445641
2.04919e-07
0.23483
0.0384627
0.0057155
0.00881966
0.101616
0.000414027
0.00747387
2.35892e-06
0.184795
0.0145809
0.0013177
0.114639
0.00113241
0.175596
0.00311276
0.0363555
9.1045e-05
0.0247592
0.0016781
0.115784
0.240156
0.000799472
5.34676e-06
0.000613576
0.00901742
0.138801
0.00565475
0.000149166
0.0400313
0.229588
0.0014603
3.01814e-06
0.00177048
0.000129609
6.02461e-09
6.67153e-05
0.0134545
0.0198564
0.320349
0.0549027
0.382327
0.265125
0.00800315
0.0287851
0.0096528
0.00185486
0.0118211
0.132673
0.136817
0.00126045
0.000273771
0.00266614
0.0428837
0.143098
0.000104987
0.0285211
0.160249
0.00314278
0.00243558
0.18904
0.00126608
0.0158316
1.69461e-05
0.152496
0.0148657
0.0526919
0.00176097
0.00041559
0.00249472
0.014416
0.00179786
2.4261e-05
0.035069
0.0099549
0.28759
0.0147455
0.158942
0.016677
0.00255698
0.138494
0.00212884
0.000652327
0.0132047
0.110425
8.55529e-06
0.0042519
0.000424556
0.0570661
0.157273
0.000200084
0.246711
0.00269949
0.000538851
0.0557573
0.0808227
0.164744
0.00689627
0.0035337
0.0601188
9.47182e-07
0.000134576
0.00261465
7.4679e-08
0.000211729
7.09913e-06
6.11759e-07
8.35625e-06
0.000275216
5.01994e-05
3.04026e-07
8.31316e-08
1.31263e-09
1.04537e-08
0.00776647
0.0625208
0.000322309
0.21147
5.15149e-08
1.72572e-08
5.94532e-07
0.00787767
2.4808e-05
0.0407005
0.000337736
3.03243e-06
0.00135636
0.000241879
0.0361462
0.0995573
0.00921609
0.00258282
0.149789
0.0943994
0.00221001
0.000386807
0.0494713
0.110662
0.133996
0.00248913
0.0601749
0.149239
0.0191953
0.176236
0.0047496
0.0349268
0.0475166
0.254713
0.00709827
0.033121
0.0207155
0.13728
0.18834
0.00181582
0.00191064
0.00498342
0.0483128
0.194863
0.00017482
0.000732291
0.0110218
0.126255
6.85261e-06
0.179457
0.0128924
0.00356458
0.0946833
0.00350721
0.000598616
0.0659034
0.12012
0.255073
0.00728433
0.209551
0.0174443
0.00479064
0.0940315
0.00382683
0.219624
0.0077544
0.00090572
0.0794374
0.000390332
0.000377408
3.72312e-05
0.0030094
0.00167608
6.7249e-07
0.000500274
0.000515402
3.49417e-05
0.00238729
4.62901e-07
0.000492863
0.000124358
1.69463e-06
0.00085087
7.13971e-05
0.00349103
1.54046e-06
0.000875356
9.92655e-05
4.97321e-05
2.03205e-06
0.000639328
0.000619781
7.51135e-05
0.00461012
8.03501e-05
0.00689454
0.00242244
0.00440242
2.1813e-06
0.000888354
0.279598
0.0116537
0.0113621
0.0743198
0.00453494
0.0359884
0.379875
0.0118624
0.230278
0.00657483
0.0586551
0.0127782
0.0521825
0.0109482
0.0964385
0.00124948
0.0903764
0.00428354
0.0226702
0.356147
0.0184385
0.262107
0.00862316
0.016495
0.0562992