# vtk DataFile Version 2.0
Unstructured Grid by M++
ASCII
DATASET UNSTRUCTURED_GRID
POINTS 4225 float
  5.312500   3.437500 0
  8.750000   1.562500 0
  5.625000   2.187500 0
  9.062500   0.312500 0
  9.375000   0.937500 0
  9.687500   0.625000 0
  2.812500   1.562500 0
  4.687500   5.625000 0
  8.125000   3.750000 0
  5.625000   1.875000 0
  5.312500   3.125000 0
  8.750000   1.250000 0
  9.375000   1.250000 0
  9.687500   0.312500 0
  9.375000   1.562500 0
  3.750000  10.000000 0
  4.687500   5.312500 0
  8.125000   3.437500 0
  5.625000   1.562500 0
  5.312500   2.812500 0
  4.375000   6.562500 0
  7.812500   4.687500 0
  5.000000   3.750000 0
  4.687500   5.000000 0
  8.125000   3.125000 0
  5.625000   1.250000 0
  5.312500   2.500000 0
  7.500000   5.625000 0
  4.375000   6.250000 0
  7.812500   4.375000 0
  9.375000   0.625000 0
  8.437500   4.375000 0
 10.000000   7.812500 0
  6.562500   9.687500 0
  5.937500   9.687500 0
  6.250000   9.687500 0
  6.562500   8.437500 0
  0.625000  10.000000 0
  2.500000   2.500000 0
  3.750000   0.937500 0
  6.875000   0.312500 0
  0.937500   0.625000 0
  6.875000   0.625000 0
  0.937500   0.937500 0
  5.000000   0.312500 0
  3.437500  10.000000 0
  5.000000   2.500000 0
  4.687500   3.750000 0
 10.000000   8.125000 0
  6.562500  10.000000 0
  1.875000   3.125000 0
  7.812500   2.812500 0
  4.375000   4.687500 0
  1.250000   5.625000 0
  7.187500   5.312500 0
  1.562500   4.375000 0
  7.500000   4.062500 0
  6.562500   7.812500 0
  6.250000   9.062500 0
  2.187500   1.875000 0
  8.125000   1.562500 0
  4.687500   3.437500 0
  5.312500   2.187500 0
  3.437500   1.250000 0
  2.812500   2.187500 0
  3.125000   0.937500 0
  4.375000   0.625000 0
  4.062500   5.937500 0
 10.000000   5.625000 0
  0.625000   7.812500 0
  6.562500   7.500000 0
  3.437500   8.437500 0
  9.375000   8.125000 0
  5.937500  10.000000 0
  3.750000   7.187500 0
  9.687500   6.875000 0
  6.250000   8.750000 0
  7.500000   7.187500 0
  8.125000   4.687500 0
  7.812500   5.937500 0
  1.250000  10.000000 0
  7.187500   9.687500 0
  5.312500  10.000000 0
  7.187500   5.937500 0
  4.687500   4.062500 0
  4.375000   5.312500 0
  6.875000   7.187500 0
  2.500000   0.625000 0
  8.437500   0.312500 0
  3.125000   2.187500 0
  3.437500   0.937500 0
  5.000000   2.812500 0
  3.437500   1.875000 0
  3.750000   0.625000 0
  7.500000   4.687500 0
  1.562500   5.000000 0
  5.000000   3.125000 0
  2.500000   1.562500 0
  8.437500   1.250000 0
  7.812500   3.437500 0
  1.875000   3.750000 0
  5.312500   1.875000 0
  8.125000   2.187500 0
  2.187500   2.500000 0
  5.625000   0.625000 0
  8.437500   0.937500 0
  2.500000   1.250000 0
  4.062500  10.000000 0
 10.000000   5.312500 0
  4.062500   5.625000 0
  6.562500   7.187500 0
  0.625000   7.500000 0
  1.562500   4.062500 0
  7.500000   3.750000 0
  7.500000   3.437500 0
  1.562500   3.750000 0
  9.687500   6.562500 0
  3.750000   6.875000 0
  6.250000   8.437500 0
  0.312500   8.750000 0
  1.250000   5.312500 0
  7.187500   5.000000 0
  9.375000   7.812500 0
  3.437500   8.125000 0
  0.937500   6.562500 0
  6.875000   6.250000 0
  7.187500   3.437500 0
  1.250000   3.750000 0
  0.937500   5.312500 0
  6.875000   5.000000 0
  6.562500   5.937500 0
  0.625000   6.250000 0
  6.250000   7.187500 0
  0.312500   7.500000 0
  1.250000   4.062500 0
  7.187500   3.750000 0
  6.875000   4.687500 0
  0.937500   5.000000 0
  1.875000   1.562500 0
  7.812500   1.250000 0
  6.875000   3.437500 0
  0.937500   3.750000 0
  7.500000   0.937500 0
  1.562500   1.250000 0
  0.937500   4.062500 0
  6.875000   3.750000 0
  1.562500   1.562500 0
  7.500000   1.250000 0
  7.187500   2.187500 0
  1.250000   2.500000 0
  4.687500   0.625000 0
  8.750000   0.312500 0
  2.812500   0.625000 0
  7.187500   1.250000 0
  1.250000   1.562500 0
  0.937500   2.500000 0
  6.875000   2.187500 0
  0.625000   3.750000 0
  6.562500   3.437500 0
  1.250000   1.250000 0
  7.187500   0.937500 0
  6.875000   2.812500 0
  0.937500   3.125000 0
  6.562500   4.062500 0
  0.625000   4.375000 0
  7.500000   0.312500 0
  1.562500   0.625000 0
  7.187500   1.562500 0
  1.250000   1.875000 0
  6.875000   9.687500 0
  0.937500  10.000000 0
  0.625000   4.062500 0
  6.562500   3.750000 0
  5.000000  10.000000 0
  8.437500  10.000000 0
  2.812500   9.062500 0
  8.750000   8.750000 0
  6.250000  10.000000 0
  6.562500   8.750000 0
  2.500000  10.000000 0
  8.437500   9.687500 0
  4.375000   5.625000 0
  1.875000   4.062500 0
  7.812500   3.750000 0
 10.000000   6.562500 0
  4.062500   6.875000 0
  7.500000   5.000000 0
  6.875000   7.500000 0
  9.687500   7.812500 0
  3.750000   8.125000 0
  7.187500   6.250000 0
 10.000000   8.437500 0
-10.000000  10.000000 0
 -4.687500   2.500000 0
  5.000000  -4.375000 0
-10.000000   5.312500 0
 -9.687500   4.062500 0
-10.000000 -10.000000 0
 -5.000000   2.500000 0
 -8.437500   4.375000 0
 -0.625000   1.875000 0
 -1.250000   4.375000 0
 -4.687500   6.250000 0
 -0.937500   2.812500 0
 -4.375000   4.687500 0
 -1.250000   4.062500 0
 -4.687500   5.937500 0
 -2.812500  10.000000 0
 -1.250000   3.750000 0
 -4.687500   5.625000 0
 -0.312500   0.937500 0
-10.000000   7.812500 0
 -1.250000   4.687500 0
  1.875000  -6.875000 0
 -9.375000   9.375000 0
 -9.062500   8.437500 0
 -9.375000   9.687500 0
 -5.937500   7.812500 0
 -9.687500   9.062500 0
 -5.625000   7.812500 0
 -5.312500   6.562500 0
 -8.750000   8.437500 0
 -5.000000   5.312500 0
 -5.312500   2.500000 0
 -8.750000   4.375000 0
 -5.625000   3.750000 0
 -9.062500   5.625000 0
 -9.375000  10.000000 0
 -5.937500   8.125000 0
 -9.062500   8.750000 0
 -5.625000   6.875000 0
 -6.250000   5.312500 0
 -9.687500   7.187500 0
  0.000000   0.312500 0
 -0.625000   4.062500 0
  5.937500  -9.375000 0
  5.000000   5.000000 0
 -0.937500   5.312500 0
  1.562500   6.875000 0
 -4.375000   7.187500 0
  5.625000  -8.125000 0
  9.375000 -10.000000 0
  5.937500  -8.125000 0
 -9.687500   6.875000 0
  0.000000   0.000000 0
  9.375000   6.562500 0
  3.437500   6.875000 0
 -2.500000   7.187500 0
 -7.812500  -4.375000 0
 -5.937500   5.000000 0
 -9.375000   6.875000 0
  0.312500   0.000000 0
-10.000000   4.687500 0
 -7.187500  -6.250000 0
 -9.062500   5.000000 0
 -6.250000   5.625000 0
 -9.687500   7.500000 0
  0.000000   0.625000 0
 -9.062500   9.062500 0
 -5.625000   7.187500 0
 -5.000000   6.250000 0
 -7.187500   2.812500 0
  5.625000   4.062500 0
 -0.312500   4.375000 0
  2.187500   5.937500 0
  8.125000   5.625000 0
 -3.750000   6.250000 0
  6.250000  -9.062500 0
  3.125000   2.500000 0
 -2.812500   2.812500 0
  5.312500   5.312500 0
 -0.625000   5.625000 0
  9.375000  -9.687500 0
 -0.625000   2.812500 0
  1.875000   4.375000 0
 -4.062500   4.687500 0
 -0.312500   1.562500 0
-10.000000   8.437500 0
 -0.937500   4.062500 0
  5.625000  -9.375000 0
 -1.250000   5.312500 0
  1.875000  -6.250000 0
  5.312500  -8.125000 0
  0.312500   5.000000 0
  6.250000   4.687500 0
 -5.625000   5.312500 0
 -8.750000  -3.437500 0
  4.062500   1.875000 0
 10.000000   1.562500 0
 -1.875000   2.187500 0
 -8.437500  -4.687500 0
 -9.375000  -1.562500 0
  1.250000  -6.250000 0
 -5.312500   7.187500 0
  6.250000  -9.375000 0
 -9.375000  -1.875000 0
-10.000000   5.000000 0
 -8.750000  -3.750000 0
 -5.937500   5.312500 0
 -9.375000   7.187500 0
  0.312500   0.312500 0
  0.937500  -5.312500 0
 -5.625000   8.125000 0
 -5.312500   6.875000 0
 -9.375000   9.062500 0
 -0.312500   3.125000 0
 -7.500000   2.812500 0
  5.312500   4.062500 0
 -0.625000   4.375000 0
  1.875000   5.937500 0
 -4.062500   6.250000 0
  5.937500  -9.062500 0
  1.562500   7.187500 0
 -4.375000   7.500000 0
  5.625000  -7.812500 0
  5.000000   5.312500 0
 -0.937500   5.625000 0
  9.062500  -9.687500 0
  5.937500   5.312500 0
  0.000000   5.625000 0
 -5.937500   5.937500 0
 -9.062500  -2.812500 0
  1.875000   5.000000 0
 -4.062500   5.312500 0
  5.937500 -10.000000 0
 -0.625000   3.437500 0
  5.312500  -7.500000 0
 -1.250000   5.937500 0
 -0.312500   2.187500 0
-10.000000   9.062500 0
  0.937500   8.750000 0
 -5.000000   9.062500 0
  5.000000  -6.250000 0
  8.750000  -9.375000 0
  2.812500  -9.062500 0
 -9.687500   9.375000 0
 -5.000000   5.625000 0
 -9.062500  -2.187500 0
 -0.625000   0.312500 0
  9.062500  -6.562500 0
 -0.625000   2.500000 0
 -4.062500   4.375000 0
 -8.125000   9.062500 0
 -2.187500   8.750000 0
  3.437500   9.687500 0
 -2.500000  10.000000 0
 -0.312500   1.250000 0
-10.000000   8.125000 0
 -1.250000   5.000000 0
 -2.187500   8.437500 0
 -8.125000   8.750000 0
  1.875000  -6.562500 0
  5.312500  -8.437500 0
 -9.687500   8.437500 0
  0.000000   1.562500 0
 -9.687500  10.000000 0
 -9.375000   8.750000 0
 -0.625000   3.125000 0
  1.875000   4.687500 0
 -4.062500   5.000000 0
  0.625000   9.687500 0
 -5.312500  10.000000 0
  4.687500  -5.312500 0
  3.750000   9.062500 0
 -8.125000   9.687500 0
 -2.187500   9.375000 0
 -0.312500   1.875000 0
-10.000000   8.750000 0
 -0.937500   4.375000 0
  2.187500  -7.187500 0
  5.625000  -9.062500 0
 -1.250000   5.625000 0
  3.750000   8.750000 0
 -2.187500   9.062500 0
 -8.125000   9.375000 0
  1.875000  -5.937500 0
  5.312500  -7.812500 0
  4.375000   6.875000 0
 -1.562500   7.187500 0
 -7.500000   7.500000 0
  8.437500  -8.125000 0
  2.500000  -7.812500 0
  0.000000   0.937500 0
 -9.687500   7.812500 0
 -0.937500   4.687500 0
  4.062500   7.812500 0
 -1.875000   8.125000 0
 -7.812500   8.437500 0
  2.187500  -6.875000 0
  5.625000  -8.750000 0
  5.625000   3.125000 0
 -0.312500   3.437500 0
  2.187500   5.000000 0
 -3.750000   5.312500 0
  6.250000 -10.000000 0
 -7.500000   3.125000 0
  5.000000   5.625000 0
 -0.937500   5.937500 0
  9.062500  -9.375000 0
  1.562500   7.500000 0
 -4.375000   7.812500 0
  5.625000  -7.500000 0
  5.937500  -8.750000 0
 -9.062500   9.375000 0
 -5.625000   7.500000 0
 -8.750000   8.125000 0
 -5.312500   6.250000 0
 -4.375000   2.812500 0
  5.312500  -4.062500 0
  5.937500   3.125000 0
  0.000000   3.437500 0
  2.500000   5.000000 0
[...]
CELL_DATA 4096
SCALARS scalar_value float 1
LOOKUP_TABLE default
0.0179653
0.0146718
0.0253698
0.0215573
0.0154408
0.0183648
0.000791164
0.000553774
0.0273048
0.0065001
0.00488775
0.0172297
0.0194875
0.0215698
0.0244001
0.0849029
0.0332463
0.0678392
0.0293045
0.0213845
0.0055759
0.00400283
0.0041516
0.0162845
0.0175171
0.0248665
0.0233879
0.00118518
0.000794876
0.00780359
0.00491233
0.00258393
0.00445107
0.00756955
0.00995043
0.0133683
0.0102879
0.192159
0.180704
0.158922
0.163687
0.149735
0.140533
0.0017549
0.00294046
0.00175486
0.00256791
0.00256164
0.199993
0.00129767
0.00280208
0.00151101
0.000561921
0.00292211
0.00251572
0.00203408
0.00171421
0.00130296
0.00163406
0.00191252
0.00240647
0.0128083
0.0161551
0.180139
0.127376
0.169662
0.230556
0.000324286
0.00729128
0.000468032
0.01012
0.273878
0.191214
0.147629
0.166683
0.248107
0.224751
0.268507
0.00620697
0.0323817
0.00513879
0.0115962
0.0037264
0.00111494
0.00778305
0.0415449
0.00708058
0.0157049
0.00499749
0.00160807
0.160415
0.261317
0.0102104
0.0227812
0.00197061
0.00326633
0.00167206
0.00072196
0.000563968
0.000143634
0.00467811
0.00240122
0.00109166
0.000867208
0.000236319
0.146107
0.0241795
0.00166197
0.204295
0.0693736
0.226951
0.13112
0.025064
0.257756
0.0637729
0.00715127
0.0157866
0.00485206
0.041434
0.0173643
0.0332918
0.0128542
0.0119303
0.00342336
0.0272849
0.0188832
0.0218888
0.0139586
0.00844376
0.000763689
0.00270971
0.000358449
0.0249016
0.00368556
0.00482064
8.54106e-05
0.00605986
0.000522906
0.00192195
0.000222724
0.0188911
0.00261228
0.00364684
4.99445e-05
0.0656491
0.158883
0.0147834
0.0225342
0.0980692
0.0125749
0.00617569
0.0462277
0.0130921
0.0172044
0.0808187
0.010364
0.00449084
0.0359992
0.000233235
0.0530339
0.13948
0.0123995
0.000764603
0.000920438
0.00348903
0.00274219
0.000962891
0.0125945
0.00615106
0.000376152
0.00115005
0.00138401
0.00498378
0.00384066
0.00138578
0.0170495
0.00801969
0.224757
0.174524
0.0415724
0.00322819
0.0964107
0.230485
0.0396802
0.0130413
0.00886041
0.168341
0.154347
0.112855
0.125847
0.000216395
0.000915362
0.00013143
0.000593352
0.00026209
0.00117597
0.228818
0.0267561
0.0199813
0.143151
0.0323512
0.213591
0.000418549
0.0017583
0.251887
0.0264538
0.0331188
0.0242529
0.168696
0.0342882
0.00225757
0.0882094
0.044176
0.00152785
0.070475
0.0390008
0.000752607
0.00326993
0.0437866
0.0376871
0.00852513
0.108822
0.0492202
0.00359204
0.00969225
0.199075
0.210893
0.19118
0.000658038
0.00257459
0.0431643
0.0289097
0.00761187
0.0379855
0.00111407
0.00464523
0.0110187
0.132253
0.053943
0.00509781
0.0128824
0.000493528
0.00035043
0.000789169
0.00138097
0.271323
0.20382
0.203876
0.000555254
0.00118152
0.00203754
6.89932e-05
0.00914479
0.00140903
0.000774113
0.0244834
0.00632261
0.000922165
4.00217e-05
1.70957e-05
3.02605e-05
0.000116407
2.67773e-05
0.00757861
0.000865197
0.00135336
0.000192148
0.0493726
0.0161025
0.00236594
0.021908
0.00412435
0.00222282
4.67983e-05
0.267383
0.217543
0.000191109
0.000860763
8.04464e-05
0.00298051
0.000898374
0.000309609
0.00130554
0.000135335
0.00428367
0.00133005
0.0313767
0.0012936
0.00873854
0.0124201
0.00112777
0.00204038
0.151161
0.269252
0.0126997
0.0300497
0.00276925
0.00214614
0.000444054
9.46406e-06
3.38118e-05
0.00662819
0.000960845
0.000518833
0.0188283
0.00452072
0.000642107
2.2732e-05
8.90469e-05
0.00472594
0.000653433
0.000339741
0.0142642
0.003194
0.000436983
1.27052e-05
5.24628e-05
5.15876e-06
1.93296e-05
0.0365103
0.00395282
0.00794992
0.0141347
0.00268815
0.00182963
0.0467141
0.323175
0.0284794
0.00300349
0.00576007
0.0104266
0.00193147
0.00126597
0.0357884
0.348535
0.000598361
0.0276658
0.00322693
0.00833354
0.00014148
0.00918053
0.000661077
0.00460568
0.000380279
0.0209833
0.00229151
0.00653525
8.43939e-05
0.00660052
0.000454306
0.00336608
5.94843e-06
1.08294e-05
0.129416
0.224836
0.0572393
0.182311
0.00117139
0.0180923
0.00563532
0.00518496
0.0194662
0.109581
0.00527665
0.0502877
0.00362699
0.0404689
0.0136054
0.0263581
0.00940129
0.0106402
0.000290822
0.00222934
0.234331
0.0299904
0.119579
0.00265741
0.0805921
0.0331356
0.0104861
0.0205571
0.00679435
0.00780967
0.000189378
0.00153659
0.239149
0.112326
0.211831
0.0464232
0.159945
0.000815797
0.00918106
0.013367
0.00410373
0.00363737
0.0149034
0.0902176
0.00384568
0.0391282
0.306456
0.0900643
0.0890773
0.344218
0.0633168
0.285382
0.0854983
0.0775189
0.349231
0.0669916
0.29716
0.0608963
0.0498977
0.356189
0.0502901
0.320078
0.0657749
0.0596972
0.352161
0.0481521
0.161474
0.0319082
0.00233015
0.0825695
0.23138
0.154474
0.0317884
0.243193
0.0797732
0.00956882
0.0003417
2.95328e-06
1.53552e-06
0.000538831
5.31272e-06
2.8784e-06
0.0396397
0.00177134
0.0119344
0.016616
0.00160328
0.00291837
0.00542448
0.000925207
0.00059036
0.00127436
1.62625e-05
9.5635e-06
3.20484e-06
0.184305
0.0534623
0.00441827
0.110316
0.22437
0.0487052
0.0164501
0.000837097
9.38272e-06
5.29657e-06
1.70155e-06
0.0587279
0.190024
0.0211061
0.00597183
0.123557
0.10936
0.0995835
0.330181
0.0907045
0.0273291
0.013544
0.000349898
0.0870391
0.100058
0.321663
0.0918044
0.0340143
0.0183119
0.000497083
0.0570404
0.0363172
0.274767
0.00716151
0.00249905
0.0218718
0.0463736
0.179615
0.0172672
0.010194
0.151862
0.239902
0.0316989
0.0335956
0.110064
0.305636
0.0485202
0.0367632
0.249766
0.0437737
0.152448
0.0133856
0.00735476
0.00519314
0.00171575
0.153416
0.256264
0.0262244
0.0254495
0.101566
0.300031
0.0011168
0.000215592
0.0173884
0.00155762
0.000308085
0.0019232
0.0694892
0.0266633
0.00796735
0.135301
0.239033
0.0799273
0.177969
0.167815
0.199186
0.0291048
0.117245
0.000387356
0.00525496
0.0070184
0.0148931
0.00838979
0.0585727
0.0956263
0.195914
0.186932
0.203509
0.037043
0.138034
0.000561448
0.00702559
0.00974979
0.0112553
0.0732059
0.0133582
0.00308017
0.0214571
0.0606248
0.0643423
0.0991179
0.150828
0.00651243
0.121797
0.000310169
0.000663255
0.0180109
0.267621
0.110106
0.0370658
0.104752
0.0170418
0.0140698
0.0357134
0.195586
0.0256902
0.272208
0.00680151
0.132008
0.089922
0.000256296
0.001801
0.00530703
0.108878
0.0819176
0.000159586
0.00120364
0.0406233
0.127343
0.0213282
0.0190395
0.00390535
0.0282257
0.073374
0.0801348
0.11268
0.000489436
0.00100902
0.0133477
0.0366344
0.00481802
0.0875047
0.0982546
0.126016
0.000754686
0.00151801
0.0108417
0.00506382
0.0461632
0.0130372
0.0184232
0.0051902
0.126763
0.112776
0.050895
0.0858116
0.000592483
0.00203971
0.00406826
0.104783
0.102644
0.0396859
0.0731512
0.000381687
0.00137195
0.0884146
0.00407805
0.0734049
0.0322543
0.000967147
0.0503434
0.188088
0.0138001
0.0803906
0.000217475
0.00331239
0.300614
0.0357878
0.0650646
9.71985e-05
0.000789496
0.0852454
0.00313938
0.0918771
0.0305237
0.0614244
0.184721
0.0106292
0.102937
0.000617429
0.00382071
0.300705
0.0274076
0.0847851
0.000240295
0.000906437
0.0683007
0.00238708
0.0809166
0.0231692
0.0508193
0.157478
0.00857645
0.0970508
0.00040242
0.00264626
0.275006
0.0238325
0.0860389
0.000147905
0.000591619
0.0707329
0.00308865
0.0647263
0.0244565
0.000697627
0.0416941
0.159994
0.0110774
0.0758277
0.000136161
0.0022806
0.274137
0.0308822
0.0659697
5.79359e-05
0.000511068
0.0734485
0.00759985
0.135293
0.025508
0.00900805
0.0857756
0.0591356
0.00672863
0.118879
0.0194288
0.00764776
0.0707747
0.0897698
0.00831484
0.151441
0.187133
0.165578
0.033034
0.0103106
0.102431
0.00950349
0.00963916
0.0525842
0.118517
0.138567
0.0468868
0.00577801
0.10279
0.00113674
0.00224509
0.0146055
0.00631093
0.0575632
0.107882
0.00879938
0.166635
0.209819
0.169257
0.0421717
0.0114682
0.120472
0.0113012
0.0129607
0.0656493
0.041989
0.0598788
0.00132416
0.0784422
0.0664712
0.346815
0.0688104
0.32334
0.062965
0.0405301
0.217357
0.0837415
0.016886
0.289885
0.0283889
0.333642
0.0264817
0.135847
0.273466
0.0151036
0.0171265
0.012475
0.0117329
0.0189694
0.0168279
0.00714618
0.119545
0.284354
0.00647615
0.00164112
0.0812414
0.326118
0.0539296
0.0701469
0.00178981
0.0695451
0.0568018
0.336941
0.0684499
0.340922
0.0597635
0.0447753
0.246752
0.0856716
0.0202687
0.00193763
0.243189
0.0184365
0.179084
0.0259461
0.00573667
0.296662
0.0352289
0.065665
0.14635
0.208155
0.0482911
0.0270496
0.139009
0.304908
0.116274
0.224933
0.0189603
0.00101313
0.00369332
0.0555269
0.0338642
0.222964
0.0365549
0.00524137
0.0101898
0.0563234
0.0440867
0.00292033
0.137386
0.314162
0.0335447
0.0739193
0.237128
0.0494169
0.0328567
0.123437
0.297715
0.119575
0.0462927
0.0339574
0.341374
0.0496929
0.338716
0.0776473
0.0336599
0.240967
0.109695
0.0154252
0.000770014
0.00281459
0.258027
0.0176069
0.204183
0.0265845
0.00776153
0.00886668
0.00238557
0.11606
0.265529
0.0216181
0.000243489
0.00989728
0.0870286
0.331635
0.314544
0.0323786
0.333016
0.0260362
0.252407
0.138123
0.0133416
0.0231009
0.0191455
0.00368833
0.000782168
0.0183892
0.0296893
0.333639
0.0352245
0.325309
0.0989681
0.0247695
0.228331
0.137693
0.0115077
0.00899311
0.0541938
0.0410846
0.352571
0.0508722
0.322396
0.0819451
0.0307715
0.212908
0.107244
0.012932
0.20366
0.0557813
0.00230735
0.0561801
0.0010455
0.000120723
0.00563638
0.00874335
0.13387
0.0703075
0.332285
0.0582254
0.0451668
8.34268e-05
0.00154143
0.24536
0.0260861
0.0656562
0.000383119
0.0102705
0.0433875
0.00170117
0.0480088
0.000708661
7.53733e-05
0.00399705
0.00679256
0.110248
0.0641069
0.314339
0.0522002
0.047509
5.00477e-05
0.00102214
0.215671
0.0216006
0.0641685
0.000266702
0.00740496
0.00137517
0.0250894
0.00370447
0.00067833
0.0138688
0.0126342
0.0983862
0.000890567
0.025234
0.033463
2.76526e-05
0.00190173
0.0140232
0.158242
0.0581412
0.0714706
0.00392276
0.0507541
0.0391522
0.265378
0.0496752
1.69373e-05
0.000426181
0.00527182
0.000971631
0.0187701
0.00123846
0.0333018
0.0403949
4.61109e-05
0.00278323
0.0175568
0.186298
0.061612
0.0894201
0.00519866
0.057503
0.0457071
0.291581
0.0490338
2.94102e-05
0.000664682
4.55712e-07
0.299009
0.0421039
0.0301102
0.351083
0.0368856
0.108401
0.291476
0.0205513
0.176379
0.129234
0.00802792
2.36088e-07
8.044e-07
1.61227e-06
0.0234074
0.0362428
0.346051
0.0367358
0.311129
0.10463
0.0228714
0.202572
0.134651
0.00971008
4.15675e-07
8.64678e-07
6.04984e-08
1.20264e-07
0.00116188
0.288609
0.0244991
0.0915017
0.179799
0.163461
0.267713
0.150926
0.263354
0.0146606
0.240267
0.0121895
0.269857
0.0187541
0.304944
0.0186423
0.00929759
0.29416
0.0219801
0.30655
0.0185678
0.0135706
0.000171382
0.0236051
0.327054
0.0259689
0.290207
0.130937
0.016661
0.0122937
0.0184948
0.313619
0.0244475
0.301507
0.123623
0.0178652
0.00892669
0.187662
0.181973
0.273661
0.144687
0.00681492
0.0112924
0.282593
0.0166555
0.00386518
0.0150682
0.296773
0.0180083
0.00600945
0.00948194
0.234121
0.000632672
0.050543
0.0556157
0.0451276
0.0021799
0.0506695
0.00230638
0.00924462
0.00915623
0.0138894
0.00375649
0.00593844
0.00599984
0.00379837
0.0103017
2.9529e-07
4.40142e-07
2.31233e-07
1.56877e-07
3.08194e-06
1.80439e-06
1.53904e-06
0.000275545
0.0199232
0.0913472
0.0736744
0.0637921
0.0354951
0.0428612
0.000834834
0.0160239
0.00699725
0.0118681
0.0118995
0.00141596
0.00234683
0.000443369
0.0284204
0.0164096
0.0141776
0.0140757
0.0191928
0.00805975
0.0090729
0.0136161
0.00589572
0.00358318
0.0085601
0.0097189
0.00694853
0.00611854
0.139407
0.125739
0.021268
0.00379153
2.14298e-05
5.84992e-06
4.88569e-07
0.110847
0.0224533
0.00443623
0.0107896
0.00619994
0.0151792
1.7671e-07
0.00736966
0.131475
0.0176308
0.00230259
0.0165133
3.99478e-05
1.05525e-05
1.19953e-06
0.00526926
0.0117169
3.00817e-07
0.000855128
0.000242044
0.00361039
0.00129402
2.4797e-07
0.00336743
0.00066598
5.11796e-07
0.000298679
0.00532139
0.000756431
0.000837579
0.00570847
0.00152291
0.00139729
2.80817e-07
8.00753e-07
0.133877
0.00353169
0.00340886
0.00505395
0.034339
9.88894e-07
1.81723e-07
0.0256725
5.45629e-07
4.76973e-08
0.00915725
0.0224558
8.22894e-07
4.47562e-08
0.0165461
1.50996e-06
1.81044e-07
0.00864575
0.0187685
0.0188706
0.112948
0.00176451
0.0129479
0.0136458
0.0119931
1.5147e-07
2.54465e-06
0.00231887
0.00186039
1.66343e-07
4.96289e-08
4.83602e-08
1.27743e-06
0.00139776
0.00142622
0.00880185
0.00172344
2.65563e-05
0.00149477
2.05883e-06
0.000157586
0.00970307
0.00986089
0.242296
1.5197e-07
2.16115e-10
2.22837e-05
4.80564e-06
0.00170639
0.0130649
0.00594943
0.259635
0.000260359
5.81309e-07
2.02786e-05
2.71995e-09
0.017293
0.00408965
0.173587
0.0400952
0.212725
0.112692
0.00131974
0.00925087
0.0947807
0.00509533
0.0221144
0.19351
0.00556052
0.0544279
0.242112
0.139102
0.0954764
0.0163655
0.000979904
0.000288518
8.73819e-07
4.03619e-07
3.53898e-07
0.000481325
2.52052e-06
0.0011821
7.52104e-07
0.000244505
1.33342e-07
0.0123113
0.000853247
3.37279e-05
9.18448e-07
0.0788877
0.0197971
0.0655342
0.000816602
0.0277313
0.00188237
1.81563e-05
3.31893e-07
7.19616e-05
1.8655e-05
2.65794e-06
0.0582216
0.000818218
0.000266691
4.1041e-07
1.03157e-06
4.56419e-08
0.00819896
0.000820955
6.06645e-08
1.3926e-05
0.000914501
1.19409e-07
0.0313432
0.0286872
4.46174e-07
0.0384624
9.86569e-07
0.00774613
0.216106
0.00797246
0.0421187
0.022648
0.230085
7.24014e-06
1.19332e-06
5.02332e-05
0.00801849
0.0659892
0.00612914
0.00307321
0.17082
0.0286985
0.261087
1.26567e-05
2.59793e-06
9.03169e-05
0.0116123
0.0803262
0.154824
0.183286
0.0288013
8.18777e-08
0.017442
0.198656
0.0290454
4.05679e-06
5.00074e-07
2.70522e-05
1.48445e-05
3.10901e-05
1.17129e-06
0.0690876
0.00250721
0.000825036
4.88075e-06
7.75988e-08
8.15338e-06
1.66009e-05
4.63259e-07
0.0721045
0.000853284
0.0333951
0.00199918
0.00047635
2.21258e-06
6.06346e-06
1.36204e-08
1.97388e-06
1.04134e-08
7.175e-06
0.000546488
0.00373749
0.00626667
0.00603689
0.188475
0.00934846
0.00443438
0.171727
4.16813e-06
0.000275884
0.0139747
0.0665442
4.04773e-07
8.49967e-06
1.49205e-07
4.39421e-06
0.00960479
0.0548112
1.98328e-07
4.13923e-06
3.13502e-08
2.3256e-06
1.53996e-07
5.43345e-06
3.62572e-08
1.69786e-06
3.11281e-07
1.10493e-05
1.63916e-07
3.18089e-06
4.81651e-07
0.00306017
1.28704e-05
0.000620328
1.10914e-06
6.14693e-05
0.00479565
2.3529e-05
0.0831386
0.103348
0.0445599
0.114282
0.0539533
0.0917004
0.00564205
4.2911e-05
4.15803e-05
9.23006e-06
0.0027317
3.63243e-06
0.000319035
6.29224e-07
1.02951e-07
1.91744e-07
0.0999542
0.00182966
0.00362
0.000795466
0.00526471
3.21104e-05
1.59036e-06
2.12802e-08
0.0270273
0.0268992
0.000338744
0.00335095
1.76471e-05
7.00067e-07
0.0189735
0.0226468
0.000210842
1.17265e-05
2.37846e-06
0.00104092
4.91523e-08
3.92544e-05
1.32296e-08
1.13431e-07
0.0110725
0.000353388
9.32262e-08
1.89591e-06
1.20952e-06
3.67523e-08
6.18604e-07
4.16704e-08
8.10188e-07
0.00538847
0.000361267
0.0529195
0.181091
0.00099652
2.90121e-05
0.0144133
0.113086
7.40349e-08
8.90295e-07
0.000269109
8.04192e-07
2.1464e-05
4.20093e-09
0.000120307
1.19369e-06
0.00264661
0.0482993
7.3821e-05
0.0132292
1.01289e-05
4.06235e-09
0.000330192
2.30005e-05
3.12661e-08
4.5894e-07
2.32733e-07
2.83127e-07
0.0129867
0.000127713
4.20175e-08
0.168002
0.0203433
5.07082e-06
1.39524e-05
0.000193954
1.74879e-07
2.22849e-06
1.40361e-05
2.0435e-06
9.98847e-07
4.08356e-08
1.20115e-06
1.16152e-07
2.47062e-06
0.000111019
8.26736e-06
3.46576e-05
0.00107787
1.45067e-07
3.40505e-05
0.0256737
0.00224687
0.0316255
0.000114367
0.135925
0.000339919
0.00710142
7.25572e-06
0.0729254
8.26348e-06
0.000471484
7.78071e-09
4.06402e-05
0.00071811
9.41324e-05
8.22904e-08
0.000425031
0.00479457
0.000261043
5.11882e-06
0.0030434
0.0217095
0.000318099
8.7789e-05
0.0892382
0.00133324
0.00493526
0.000748952
0.0712123
0.00335935
0.00094733
0.000434115
0.108463
9.13637e-05
0.00371701
1.71411e-06
0.036733
0.000694967
0.000135917
0.0198848
3.63199e-05
0.0761151
1.01549e-05
3.48832e-10
0.000144194
2.1927e-07
0.0131808
0.152211
0.00320492
0.0229354
0.00164826
5.49785e-05
0.019781
0.136557
0.000217669
2.82414e-06
0.00399821
0.000103642
0.0638216
1.98119e-05
2.67563e-08
0.000548271
3.69922e-05
0.0193773
0.000823305
0.0010555
6.96527e-06
0.00477867
0.0045921
0.160688
0.0023125
0.000291815
0.0312333
0.000899055
7.40536e-05
0.0687403
2.99989e-05
0.00650977
0.000136635
0.0391408
0.0131066
0.00207897
0.000560587
4.03198e-05
0.000353291
2.20233e-05
9.04303e-05
1.36323e-08
7.81668e-05
7.24154e-08
0.00047423
0.000755181
3.27094e-06
6.3574e-07
5.68412e-08
1.15306e-06
6.18215e-05
4.7904e-06
0.000252469
0.0175964
0.000158279
0.0338374
0.00118468
0.067173
0.00120281
0.0425152
5.55724e-06
3.22898e-05
0.00012573
0.000737996
0.000350063
1.06556e-05
0.00687192
0.00480267
0.000347236
0.0282721
7.65919e-05
0.00014597
2.70419e-07
0.00113211
0.0250429
0.00158603
0.0709191
0.00804028
0.175936
0.0481961
0.000164575
3.91043e-06
0.00565131
0.0914881
0.000212013
0.00114143
6.85774e-05
0.0274424
1.60862e-05
4.78458e-08
0.000786833
0.00567374
0.0120991
0.196373
0.188053
0.00038578
0.00589319
0.000140557
6.17059e-06
0.0823508
0.00266092
0.0264813
0.000101291
0.161752
3.802e-05
0.000888329
5.79689e-05
1.10608e-07
0.0276591
0.000550333
0.000187004
0.0225764
0.057475
7.61263e-05
1.69661e-05
0.00426887
0.0300145
0.00642773
0.000963106
0.0776653
0.000689196
1.80877e-05
0.000663368
0.0180115
2.21331e-05
3.62083e-08
0.00139618
0.0235576
0.114784
6.20924e-05
0.000192132
0.00480241
0.0566617
3.36633e-06
6.74984e-06
0.00190617
0.00738784
0.00035967
0.0359274
0.028836
0.00230762
0.0915531
0.0106342
0.00234058
0.207298
0.0070875
0.0152483
0.219533
0.214654
0.128149
0.00125309
0.000452034
0.00960853
2.11333e-05
0.000141567
0.000220097
0.00174141
7.49351e-07
1.12069e-05
5.46675e-05
0.00021358
1.94549e-09
4.14522e-05
1.99424e-08
0.10917
0.00704628
0.00183032
0.00126323
0.0229835
3.07591e-05
0.00128226
1.85542e-07
0.108188
0.00182897
0.000321831
0.0369373
0.000126338
0.0617791
0.000290389
0.00838266
8.32143e-06
0.00352535
0.000205632
0.0414163
0.158216
6.51905e-05
4.51317e-07
5.09045e-05
0.00170961
0.0356628
0.000588576
1.48113e-05
0.0102438
0.0917802
0.000148841
3.09087e-07
0.000148404
1.08054e-05
5.52301e-10
9.3163e-06
0.00208193
0.00593176
0.146018
0.0224843
0.270271
0.122559
0.00251863
0.00511683
0.00134468
0.00044339
0.00143247
0.0421406
0.0810512
0.000136503
5.12211e-05
0.000240208
0.0096843
0.049875
9.30817e-06
0.00434375
0.0621251
0.000400404
0.000685557
0.144561
0.000106382
0.00316863
1.44937e-06
0.0430006
0.00188119
0.0162641
0.000277211
4.76082e-05
0.000239581
0.00326357
0.000187912
2.30943e-06
0.00701954
0.00338293
0.146771
0.00222119
0.0554599
0.0022236
0.000656416
0.0943345
0.000246112
4.97267e-05
0.00238575
0.0273151
6.79323e-07
0.000413235
8.46961e-05
0.0140519
0.0622145
1.87051e-05
0.0892674
0.00286523
9.58882e-05
0.0120676
0.0276327
0.0508441
0.000776363
0.000808676
0.0367516
4.93844e-08
9.26838e-06
0.000398545
5.68435e-09
1.40022e-05
3.30657e-07
2.56124e-08
4.96524e-07
3.33962e-05
2.71707e-06
3.26286e-08
8.59036e-09
1.31888e-10
1.07717e-09
0.000846612
0.0171159
3.28373e-05
0.0952064
5.48418e-09
1.72549e-09
6.84865e-08
0.00115956
3.37178e-06
0.0080706
5.63881e-05
2.31286e-07
0.000109815
4.14439e-05
0.00733331
0.0302321
0.00107732
0.000604114
0.0468996
0.0567248
0.000192136
7.05893e-05
0.0109389
0.0382047
0.0375387
0.000530138
0.0315755
0.0404286
0.01034
0.0536073
0.00106335
0.0218005
0.00977506
0.130423
0.00245168
0.0210379
0.00285633
0.0484973
0.125989
0.000475807
0.000227454
0.000501446
0.0121287
0.0774782
1.68454e-05
5.77488e-05
0.00204021
0.0318401
5.61045e-07
0.0618527
0.00165954
0.000896293
0.0658887
0.000328911
0.000116571
0.0159137
0.0472902
0.0931693
0.00711108
0.0795895
0.00248652
0.00129667
0.0758661
0.000460107
0.0720776
0.00620683
0.000330773
0.016164
2.64973e-05
5.61535e-05
2.64561e-06
0.000569582
0.000145982
5.97719e-08
4.23583e-05
3.63071e-05
2.5619e-06
0.000216537
4.24099e-08
4.30749e-05
7.62605e-06
1.13578e-07
6.40268e-05
5.4874e-06
0.000344877
1.46743e-07
8.12135e-05
5.87956e-06
6.38964e-06
1.31997e-07
4.63295e-05
9.82099e-05
5.59473e-06
0.000626487
8.71868e-06
0.00079046
0.000229676
0.000895487
2.01634e-07
7.98553e-05
0.115383
0.00327546
0.00167906
0.0392764
0.00208901
0.013726
0.238942
0.00284057
0.0865929
0.00174486
0.048982
0.00175701
0.0255424
0.00421612
0.0250191
0.000254034
0.0407346
0.000419702
0.00808173
0.200831
0.00395489
0.108959
0.00246914
0.00252958
0.0299622
0.00462369
0.000396896
0.0346873
0.0483508
0.000681012
0.0104004
0.230887
0.0049255
0.000132587