# vtk DataFile Version 2.0
Unstructured Grid by M++
ASCII
DATASET UNSTRUCTURED_GRID
POINTS 4225 float
  5.312500   3.437500 0
  8.750000   1.562500 0
  5.625000   2.187500 0
  9.062500   0.312500 0
  9.375000   0.937500 0
  9.687500   0.625000 0
  2.812500   1.562500 0
  4.687500   5.625000 0
  8.125000   3.750000 0
  5.625000   1.875000 0
  5.312500   3.125000 0
  8.750000   1.250000 0
  9.375000   1.250000 0
  9.687500   0.312500 0
  9.375000   1.562500 0
  3.750000  10.000000 0
  4.687500   5.312500 0
  8.125000   3.437500 0
  5.625000   1.562500 0
  5.312500   2.812500 0
  4.375000   6.562500 0
  7.812500   4.687500 0
  5.000000   3.750000 0
  4.687500   5.000000 0
  8.125000   3.125000 0
  5.625000   1.250000 0
  5.312500   2.500000 0
  7.500000   5.625000 0
  4.375000   6.250000 0
  7.812500   4.375000 0
  9.375000   0.625000 0
  8.437500   4.375000 0
 10.000000   7.812500 0
  6.562500   9.687500 0
  5.937500   9.687500 0
  6.250000   9.687500 0
  6.562500   8.437500 0
  0.625000  10.000000 0
  2.500000   2.500000 0
  3.750000   0.937500 0
  6.875000   0.312500 0
  0.937500   0.625000 0
  6.875000   0.625000 0
  0.937500   0.937500 0
  5.000000   0.312500 0
  3.437500  10.000000 0
  5.000000   2.500000 0
  4.687500   3.750000 0
 10.000000   8.125000 0
  6.562500  10.000000 0
  1.875000   3.125000 0
  7.812500   2.812500 0
  4.375000   4.687500 0
  1.250000   5.625000 0
  7.187500   5.312500 0
  1.562500   4.375000 0
  7.500000   4.062500 0
  6.562500   7.812500 0
  6.250000   9.062500 0
  2.187500   1.875000 0
  8.125000   1.562500 0
  4.687500   3.437500 0
  5.312500   2.187500 0
  3.437500   1.250000 0
  2.812500   2.187500 0
  3.125000   0.937500 0
  4.375000   0.625000 0
  4.062500   5.937500 0
 10.000000   5.625000 0
  0.625000   7.812500 0
  6.562500   7.500000 0
  3.437500   8.437500 0
  9.375000   8.125000 0
  5.937500  10.000000 0
  3.750000   7.187500 0
  9.687500   6.875000 0
  6.250000   8.750000 0
  7.500000   7.187500 0
  8.125000   4.687500 0
  7.812500   5.937500 0
  1.250000  10.000000 0
  7.187500   9.687500 0
  5.312500  10.000000 0
  7.187500   5.937500 0
  4.687500   4.062500 0
  4.375000   5.312500 0
  6.875000   7.187500 0
  2.500000   0.625000 0
  8.437500   0.312500 0
  3.125000   2.187500 0
  3.437500   0.937500 0
  5.000000   2.812500 0
  3.437500   1.875000 0
  3.750000   0.625000 0
  7.500000   4.687500 0
  1.562500   5.000000 0
  5.000000   3.125000 0
  2.500000   1.562500 0
  8.437500   1.250000 0
  7.812500   3.437500 0
  1.875000   3.750000 0
  5.312500   1.875000 0
  8.125000   2.187500 0
  2.187500   2.500000 0
  5.625000   0.625000 0
  8.437500   0.937500 0
  2.500000   1.250000 0
  4.062500  10.000000 0
 10.000000   5.312500 0
  4.062500   5.625000 0
  6.562500   7.187500 0
  0.625000   7.500000 0
  1.562500   4.062500 0
  7.500000   3.750000 0
  7.500000   3.437500 0
  1.562500   3.750000 0
  9.687500   6.562500 0
  3.750000   6.875000 0
  6.250000   8.437500 0
  0.312500   8.750000 0
  1.250000   5.312500 0
  7.187500   5.000000 0
  9.375000   7.812500 0
  3.437500   8.125000 0
  0.937500   6.562500 0
  6.875000   6.250000 0
  7.187500   3.437500 0
  1.250000   3.750000 0
  0.937500   5.312500 0
  6.875000   5.000000 0
  6.562500   5.937500 0
  0.625000   6.250000 0
  6.250000   7.187500 0
  0.312500   7.500000 0
  1.250000   4.062500 0
  7.187500   3.750000 0
  6.875000   4.687500 0
  0.937500   5.000000 0
  1.875000   1.562500 0
  7.812500   1.250000 0
  6.875000   3.437500 0
  0.937500   3.750000 0
  7.500000   0.937500 0
  1.562500   1.250000 0
  0.937500   4.062500 0
  6.875000   3.750000 0
  1.562500   1.562500 0
  7.500000   1.250000 0
  7.187500   2.187500 0
  1.250000   2.500000 0
  4.687500   0.625000 0
  8.750000   0.312500 0
  2.812500   0.625000 0
  7.187500   1.250000 0
  1.250000   1.562500 0
  0.937500   2.500000 0
  6.875000   2.187500 0
  0.625000   3.750000 0
  6.562500   3.437500 0
  1.250000   1.250000 0
  7.187500   0.937500 0
  6.875000   2.812500 0
  0.937500   3.125000 0
  6.562500   4.062500 0
  0.625000   4.375000 0
  7.500000   0.312500 0
  1.562500   0.625000 0
  7.187500   1.562500 0
  1.250000   1.875000 0
  6.875000   9.687500 0
  0.937500  10.000000 0
  0.625000   4.062500 0
  6.562500   3.750000 0
  5.000000  10.000000 0
  8.437500  10.000000 0
  2.812500   9.062500 0
  8.750000   8.750000 0
  6.250000  10.000000 0
  6.562500   8.750000 0
  2.500000  10.000000 0
  8.437500   9.687500 0
  4.375000   5.625000 0
  1.875000   4.062500 0
  7.812500   3.750000 0
 10.000000   6.562500 0
  4.062500   6.875000 0
  7.500000   5.000000 0
  6.875000   7.500000 0
  9.687500   7.812500 0
  3.750000   8.125000 0
  7.187500   6.250000 0
 10.000000   8.437500 0
-10.000000  10.000000 0
 -4.687500   2.500000 0
  5.000000  -4.375000 0
-10.000000   5.312500 0
 -9.687500   4.062500 0
-10.000000 -10.000000 0
 -5.000000   2.500000 0
 -8.437500   4.375000 0
 -0.625000   1.875000 0
 -1.250000   4.375000 0
 -4.687500   6.250000 0
 -0.937500   2.812500 0
 -4.375000   4.687500 0
 -1.250000   4.062500 0
 -4.687500   5.937500 0
 -2.812500  10.000000 0
 -1.250000   3.750000 0
 -4.687500   5.625000 0
 -0.312500   0.937500 0
-10.000000   7.812500 0
 -1.250000   4.687500 0
  1.875000  -6.875000 0
 -9.375000   9.375000 0
 -9.062500   8.437500 0
 -9.375000   9.687500 0
 -5.937500   7.812500 0
 -9.687500   9.062500 0
 -5.625000   7.812500 0
 -5.312500   6.562500 0
 -8.750000   8.437500 0
 -5.000000   5.312500 0
 -5.312500   2.500000 0
 -8.750000   4.375000 0
 -5.625000   3.750000 0
 -9.062500   5.625000 0
 -9.375000  10.000000 0
 -5.937500   8.125000 0
 -9.062500   8.750000 0
 -5.625000   6.875000 0
 -6.250000   5.312500 0
 -9.687500   7.187500 0
  0.000000   0.312500 0
 -0.625000   4.062500 0
  5.937500  -9.375000 0
  5.000000   5.000000 0
 -0.937500   5.312500 0
  1.562500   6.875000 0
 -4.375000   7.187500 0
  5.625000  -8.125000 0
  9.375000 -10.000000 0
  5.937500  -8.125000 0
 -9.687500   6.875000 0
  0.000000   0.000000 0
  9.375000   6.562500 0
  3.437500   6.875000 0
 -2.500000   7.187500 0
 -7.812500  -4.375000 0
 -5.937500   5.000000 0
 -9.375000   6.875000 0
  0.312500   0.000000 0
-10.000000   4.687500 0
 -7.187500  -6.250000 0
 -9.062500   5.000000 0
 -6.250000   5.625000 0
 -9.687500   7.500000 0
  0.000000   0.625000 0
 -9.062500   9.062500 0
 -5.625000   7.187500 0
 -5.000000   6.250000 0
 -7.187500   2.812500 0
  5.625000   4.062500 0
 -0.312500   4.375000 0
  2.187500   5.937500 0
  8.125000   5.625000 0
 -3.750000   6.250000 0
  6.250000  -9.062500 0
  3.125000   2.500000 0
 -2.812500   2.812500 0
  5.312500   5.312500 0
 -0.625000   5.625000 0
  9.375000  -9.687500 0
 -0.625000   2.812500 0
  1.875000   4.375000 0
 -4.062500   4.687500 0
 -0.312500   1.562500 0
-10.000000   8.437500 0
 -0.937500   4.062500 0
  5.625000  -9.375000 0
 -1.250000   5.312500 0
  1.875000  -6.250000 0
  5.312500  -8.125000 0
  0.312500   5.000000 0
  6.250000   4.687500 0
 -5.625000   5.312500 0
 -8.750000  -3.437500 0
  4.062500   1.875000 0
 10.000000   1.562500 0
 -1.875000   2.187500 0
 -8.437500  -4.687500 0
 -9.375000  -1.562500 0
  1.250000  -6.250000 0
 -5.312500   7.187500 0
  6.250000  -9.375000 0
 -9.375000  -1.875000 0
-10.000000   5.000000 0
 -8.750000  -3.750000 0
 -5.937500   5.312500 0
 -9.375000   7.187500 0
  0.312500   0.312500 0
  0.937500  -5.312500 0
 -5.625000   8.125000 0
 -5.312500   6.875000 0
 -9.375000   9.062500 0
 -0.312500   3.125000 0
 -7.500000   2.812500 0
  5.312500   4.062500 0
 -0.625000   4.375000 0
  1.875000   5.937500 0
 -4.062500   6.250000 0
  5.937500  -9.062500 0
  1.562500   7.187500 0
 -4.375000   7.500000 0
  5.625000  -7.812500 0
  5.000000   5.312500 0
 -0.937500   5.625000 0
  9.062500  -9.687500 0
  5.937500   5.312500 0
  0.000000   5.625000 0
 -5.937500   5.937500 0
 -9.062500  -2.812500 0
  1.875000   5.000000 0
 -4.062500   5.312500 0
  5.937500 -10.000000 0
 -0.625000   3.437500 0
  5.312500  -7.500000 0
 -1.250000   5.937500 0
 -0.312500   2.187500 0
-10.000000   9.062500 0
  0.937500   8.750000 0
 -5.000000   9.062500 0
  5.000000  -6.250000 0
  8.750000  -9.375000 0
  2.812500  -9.062500 0
 -9.687500   9.375000 0
 -5.000000   5.625000 0
 -9.062500  -2.187500 0
 -0.625000   0.312500 0
  9.062500  -6.562500 0
 -0.625000   2.500000 0
 -4.062500   4.375000 0
 -8.125000   9.062500 0
 -2.187500   8.750000 0
  3.437500   9.687500 0
 -2.500000  10.000000 0
 -0.312500   1.250000 0
-10.000000   8.125000 0
 -1.250000   5.000000 0
 -2.187500   8.437500 0
 -8.125000   8.750000 0
  1.875000  -6.562500 0
  5.312500  -8.437500 0
 -9.687500   8.437500 0
  0.000000   1.562500 0
 -9.687500  10.000000 0
 -9.375000   8.750000 0
 -0.625000   3.125000 0
  1.875000   4.687500 0
 -4.062500   5.000000 0
  0.625000   9.687500 0
 -5.312500  10.000000 0
  4.687500  -5.312500 0
  3.750000   9.062500 0
 -8.125000   9.687500 0
 -2.187500   9.375000 0
 -0.312500   1.875000 0
-10.000000   8.750000 0
 -0.937500   4.375000 0
  2.187500  -7.187500 0
  5.625000  -9.062500 0
 -1.250000   5.625000 0
  3.750000   8.750000 0
 -2.187500   9.062500 0
 -8.125000   9.375000 0
  1.875000  -5.937500 0
  5.312500  -7.812500 0
  4.375000   6.875000 0
 -1.562500   7.187500 0
 -7.500000   7.500000 0
  8.437500  -8.125000 0
  2.500000  -7.812500 0
  0.000000   0.937500 0
 -9.687500   7.812500 0
 -0.937500   4.687500 0
  4.062500   7.812500 0
 -1.875000   8.125000 0
 -7.812500   8.437500 0
  2.187500  -6.875000 0
  5.625000  -8.750000 0
  5.625000   3.125000 0
 -0.312500   3.437500 0
  2.187500   5.000000 0
 -3.750000   5.312500 0
  6.250000 -10.000000 0
 -7.500000   3.125000 0
  5.000000   5.625000 0
 -0.937500   5.937500 0
  9.062500  -9.375000 0
  1.562500   7.500000 0
 -4.375000   7.812500 0
  5.625000  -7.500000 0
  5.937500  -8.750000 0
 -9.062500   9.375000 0
 -5.625000   7.500000 0
 -8.750000   8.125000 0
 -5.312500   6.250000 0
 -4.375000   2.812500 0
  5.312500  -4.062500 0
  5.937500   3.125000 0
  0.000000   3.437500 0
  2.500000   5.000000 0
[...]
CELL_DATA 4096
SCALARS scalar_value float 1
LOOKUP_TABLE default
0.00640858
0.00588999
0.00708805
0.00681458
0.00450469
0.00475395
0.03011
0.0231368
0.00486228
0.114232
0.0954723
0.00324894
0.00324949
0.00317269
0.00493416
0.115963
0.00720252
0.105769
0.007218
0.0048989
0.00656819
0.00523888
0.00439408
0.00198679
0.00188515
0.002827
0.00302755
0.0122808
0.00905309
0.0208471
0.0111211
0.00846485
0.0166118
0.0052444
0.0061717
0.00912689
0.00787003
0.0169621
0.0135412
0.0283593
0.25661
0.0309586
0.254049
0.0164772
0.00345005
0.0143881
0.0190222
0.0217241
0.0207485
0.00371299
0.00524396
0.00219883
0.0013742
0.00277911
0.0163191
0.00214016
0.0123017
0.00122988
0.0102862
0.00163461
0.0137026
0.00709261
0.00796469
0.0404509
0.269854
0.0192192
0.230038
0.0138223
0.0342733
0.0182737
0.0424694
0.0458865
0.0369682
0.271522
0.0161589
0.210896
0.0212384
0.0528255
0.00152958
0.0459353
0.0651073
0.0298778
0.00155211
0.0248879
0.0017155
0.0519449
0.0803849
0.0360001
0.00187113
0.0325127
0.0132813
0.188157
0.00375367
0.052173
0.0420526
0.0147664
0.00116313
0.00549963
0.000645968
0.000266724
0.0190264
0.0015095
0.00757325
0.000902436
0.00040074
0.275106
0.0626008
0.0415531
0.0742308
0.268766
0.192195
0.0940245
0.188594
0.0890272
0.0880708
0.100015
0.018346
0.0439614
0.0294472
0.0997606
0.0268595
0.0830395
0.0155693
0.034542
0.0160971
0.0817518
0.0145945
0.0680395
0.0243813
0.0187672
0.00125322
0.000451229
0.0399804
0.0520011
0.00132556
0.00017346
0.0195498
0.0140842
0.000985298
0.000307712
0.0342401
0.0409506
0.00111692
0.000110777
0.244753
0.060559
0.00203987
0.161843
0.0723906
0.00300926
0.0820109
0.0646735
0.0020381
0.13893
0.0682772
0.00278349
0.0664582
0.0571875
0.00048616
0.224617
0.061305
0.00111343
0.00664738
0.00117819
0.0179133
0.00211822
0.0250524
0.036607
0.00282119
0.000715629
0.00910121
0.00160767
0.0229982
0.00267588
0.0326952
0.0440469
0.00329705
0.0510079
0.243075
0.0838967
0.0658013
0.286501
0.137014
0.23484
0.0010338
0.000405592
0.0801935
0.0592756
0.0518424
0.0720247
0.000555118
0.00144364
0.000368371
0.00102869
0.000934834
0.00257185
0.0921173
0.00204035
0.00874606
0.115005
0.00443897
0.0860407
0.00136508
0.00348925
0.0871775
0.00176156
0.0860216
0.00939913
0.117649
0.0041187
0.00503211
0.136704
0.0102647
0.00375878
0.12469
0.0103328
0.0113218
0.00658642
0.114371
0.0139739
0.134615
0.147374
0.0100116
0.031482
0.0113801
0.0649782
0.0168457
0.161928
0.00195791
0.00462489
0.0988634
0.00989365
0.00804806
0.0423677
0.0152503
0.00843166
0.156126
0.156117
0.00958838
0.0401069
0.0135022
0.00130241
0.000821297
0.00784507
0.00197758
0.137436
0.0247945
0.239217
0.00118693
0.0106879
0.00264399
9.3537e-05
0.0186694
0.0233264
0.000266195
0.0280053
0.0593118
0.000191148
5.93975e-05
2.28003e-05
3.68595e-05
0.000144012
5.30187e-05
0.0194283
0.0183034
0.000567176
0.000216675
0.0386949
0.107248
0.000353737
0.0314914
0.0500436
0.000558335
8.4839e-05
0.112321
0.217518
0.000603783
0.00167517
0.000133367
0.0118903
0.000563218
0.000894902
0.00230861
0.000204942
0.0153919
0.000754601
0.0317179
0.000240752
0.0732882
0.0226241
0.000349699
0.0305405
0.0106673
0.163183
0.00416451
0.0608537
0.0533271
0.0609696
0.0218199
1.38078e-05
3.09193e-05
0.0151193
0.0175397
0.000197622
0.0243049
0.0473231
0.000148075
3.68953e-05
9.02146e-05
0.0120077
0.0130961
0.000143179
0.0207213
0.0372141
0.000111992
2.25272e-05
5.83086e-05
8.22556e-06
1.93966e-05
0.0409692
0.000799851
0.0774326
0.0288423
0.000915444
0.0317855
0.133312
0.0462922
0.0362156
0.00067763
0.0626892
0.0238831
0.000730214
0.0243056
0.21907
0.116486
0.000842527
0.0497885
0.05311
0.00250586
0.000322627
0.0299363
0.0189147
0.00235132
0.000588059
0.0426745
0.0418522
0.00219516
0.000210208
0.0240746
0.0142307
0.0019088
7.16882e-06
1.19142e-05
0.281359
0.0473228
0.252083
0.0767003
0.0323336
0.052867
0.00434978
0.0272193
0.164672
0.0902173
0.0822451
0.0790747
0.0786368
0.252871
0.16169
0.0240811
0.0681435
0.0173428
8.27468e-05
0.0288303
0.0261292
0.0046925
0.110388
0.0638583
0.286618
0.233614
0.139232
0.0212118
0.0551289
0.0142394
5.97605e-05
0.021991
0.0313828
0.280852
0.051915
0.231812
0.0777186
0.0247989
0.00463018
0.0439721
0.0035202
0.0212599
0.141484
0.0850818
0.0666881
0.0699024
0.0365456
0.163473
0.0623589
0.0911475
0.253853
0.0283448
0.131556
0.0434269
0.0779674
0.234592
0.0320609
0.11749
0.0348729
0.0886835
0.217978
0.0417
0.148828
0.0521643
0.104356
0.237723
0.26215
0.0730188
0.0526547
0.280605
0.164812
0.096254
0.21235
0.0684256
0.0965429
0.119884
0.00137799
2.06255e-06
1.68696e-06
0.00198566
3.37009e-06
2.88464e-06
0.035324
0.000295653
0.0892885
0.0269255
0.00044774
0.0393821
0.015515
0.000429225
0.0137017
0.0038924
8.48868e-06
7.95565e-06
4.22743e-06
0.218968
0.0949364
0.0810944
0.28565
0.110338
0.254807
0.164605
0.00281172
5.4014e-06
4.83809e-06
2.45449e-06
0.270921
0.191332
0.188274
0.0985414
0.277674
0.113762
0.0360895
0.0561
0.223881
0.0200221
0.0758507
0.0202607
0.0244164
0.0860042
0.0458773
0.194972
0.0219958
0.091133
0.0263167
0.277943
0.00252824
0.105788
0.00939188
0.0243271
0.207256
0.00589869
0.141032
0.0129757
0.0558117
0.15487
0.0205114
0.0133493
0.099495
0.25789
0.056007
0.268078
0.00293832
0.112069
0.0063765
0.138003
0.0113043
0.0451141
0.00758468
0.018493
0.185772
0.0260395
0.0125124
0.0852688
0.274653
0.0647703
0.0386288
0.0125988
0.184677
0.0488684
0.0165497
0.0511397
0.281894
0.211654
0.118018
0.262722
0.0368162
0.261615
0.0586896
0.266905
0.0330778
0.185563
0.0754558
0.0141399
0.00329514
0.0290182
0.00316774
0.0997934
0.0720061
0.274002
0.055765
0.255985
0.0289598
0.209237
0.0772792
0.0187453
0.00395569
0.0360089
0.119705
0.0789091
0.000932696
0.000412012
0.126968
0.0416959
0.199269
0.0361844
0.234288
0.144393
0.0232921
0.000318421
0.00443486
0.215797
0.198277
0.0109488
0.00704778
0.12505
0.0103541
0.0599273
0.00374992
0.118093
0.00149244
0.0807504
0.13845
0.204107
0.0183882
0.000160081
0.00702227
0.119715
0.19311
0.0192503
0.000109812
0.00517295
0.00676655
0.132548
0.0114992
0.0720092
0.000466753
0.148094
0.0441929
0.21784
0.0357919
0.000456853
0.00614797
0.000819155
0.170086
0.000513799
0.0460601
0.233828
0.0347597
0.000639634
0.00839906
0.0943091
0.000917561
0.045602
0.000702018
0.00174492
0.127239
0.226451
0.024881
0.179136
0.0359341
0.00040988
0.00900627
0.110188
0.214614
0.026077
0.158387
0.0350697
0.000290992
0.00668451
0.179394
0.101844
0.0197889
0.125946
0.0425508
0.0251821
0.190774
0.188729
0.0115764
0.000101298
0.00934583
0.146091
0.256092
0.004993
7.36059e-05
0.00372974
0.19962
0.0938678
0.0268287
0.137835
0.033647
0.215091
0.175645
0.0158575
0.000316671
0.0121542
0.165975
0.239618
0.00686241
0.000201639
0.0048592
0.182387
0.0787276
0.0271082
0.118132
0.0317426
0.211639
0.15738
0.0172401
0.000227899
0.00933386
0.177766
0.233618
0.00806096
0.000136447
0.00347814
0.163765
0.0853099
0.0199824
0.107925
0.0336989
0.0237401
0.187281
0.168785
0.0125625
7.00252e-05
0.0071241
0.155797
0.248802
0.00584329
4.82352e-05
0.0026459
0.233145
0.000570487
0.0469612
0.156229
0.00115973
0.0570568
0.213585
0.000568728
0.0475046
0.134014
0.0011055
0.0538251
0.249771
0.000553312
0.0455633
0.253443
0.025448
0.179296
0.00117982
0.0594717
0.00186967
0.0978653
0.0578188
0.246209
0.0331252
0.192217
0.000548994
0.0471904
0.000873523
0.011246
0.113243
0.00102229
0.0499467
0.262343
0.000518068
0.0433611
0.244472
0.0223568
0.202419
0.00116382
0.0609237
0.00198007
0.117461
0.0633407
0.144771
0.026257
0.0529836
0.10131
0.0291771
0.0649957
0.209506
0.13383
0.00418089
0.256993
0.190408
0.0104653
0.206989
0.037593
0.0896141
0.105848
0.179812
0.0123555
0.199514
0.19994
0.0202394
0.000588636
0.00528634
0.00157801
0.0156977
0.0503277
0.176162
0.0312193
0.0105623
0.0203566
0.26647
0.0777171
0.163825
0.0269116
0.0650522
0.0744626
0.0190695
0.0527684
0.180236
0.119666
0.0034296
0.2509
0.186035
0.00927724
0.222362
0.00310662
0.065388
0.00102985
0.0967235
0.00258587
0.00546351
0.0976831
0.00213398
0.281375
0.124539
0.141358
0.00535625
0.228287
0.0424303
0.0472658
0.234872
0.0704021
0.00121088
0.00274422
0.00599037
0.111902
0.0102086
0.116225
0.00335074
0.0359225
0.00964272
0.129471
0.0143603
0.0750122
0.0964967
0.0881638
0.00176644
0.277633
0.138853
0.0047732
0.24649
0.0294926
0.0389064
0.207013
0.0629154
0.0139759
0.0591013
0.163896
0.134475
0.00467077
0.232613
0.208395
0.0126432
0.20599
0.00185177
0.00408219
0.0594315
0.000859554
0.0953405
0.00231907
0.00663401
0.0129553
0.026729
0.144397
0.0244092
0.0178965
0.0153852
0.0622323
0.248229
0.0668615
0.0498922
0.117832
0.126609
0.198864
0.216086
0.014631
0.196195
0.0336791
0.00139644
0.0281622
0.0102273
0.00957374
0.0522109
0.0643336
0.146927
0.147314
0.00625878
0.212328
0.228276
0.0169552
0.187788
0.000467432
0.0882987
0.0223823
0.0733889
0.192806
0.151276
0.00572171
0.239458
0.214056
0.0143024
0.192224
0.0369005
0.147018
0.0704098
0.0198255
0.0165074
4.22093e-05
0.0114609
0.148239
0.180297
0.0133795
0.103919
0.266221
0.00247961
4.73244e-05
0.00531572
0.162458
0.23611
0.00670363
0.0175286
0.0491422
0.129881
0.0572856
0.0193283
0.0122916
2.91708e-05
0.0090365
0.127992
0.17036
0.0139905
0.115637
0.271258
0.00300883
3.12843e-05
0.00388082
0.165787
0.219231
0.00754195
0.0132988
0.0396967
0.0403896
0.0737358
0.0247133
0.0241475
0.0518167
0.141574
0.104111
0.0363622
0.0968132
0.0174224
1.3076e-05
0.00526873
0.178051
0.162384
0.00901687
0.144261
0.0909833
0.014493
0.260527
0.133558
0.00417327
1.28208e-05
0.00194594
0.0315741
0.0314549
0.0622738
0.0459588
0.112979
0.0185151
1.97351e-05
0.00697545
0.199459
0.165715
0.00832427
0.158117
0.108744
0.0143675
0.269133
0.125691
0.00357865
2.02395e-05
0.00277139
4.22623e-07
0.035252
0.103241
0.0269573
0.0982474
0.199405
0.00928448
0.18418
0.220601
0.237441
0.021382
0.160848
2.40265e-07
9.68039e-07
1.23865e-06
0.0163129
0.075692
0.080624
0.174794
0.166868
0.00770636
0.219591
0.235476
0.0192378
0.175659
5.47511e-07
7.30159e-07
7.39683e-08
1.34205e-07
0.0138218
0.0731545
0.00124064
0.284311
0.104893
0.033789
0.0322348
0.215298
0.0525184
0.0893375
0.0385847
0.0659813
0.0387805
0.0771144
0.110732
0.159991
0.0149738
0.0520815
0.103041
0.133832
0.177972
0.026485
0.0117564
0.0641635
0.0860209
0.156346
0.179487
0.0102067
0.198311
0.0113772
0.0428798
0.0679187
0.13011
0.157168
0.00824481
0.190954
0.00613251
0.132567
0.0475618
0.0389283
0.24151
0.0288766
0.0351183
0.0693851
0.113995
0.00371443
0.0540628
0.0889675
0.138146
0.0077207
0.0454749
0.0422095
0.0283694
0.00164418
0.00275531
0.00165614
0.000363381
0.0021632
0.000595782
5.73732e-05
5.65365e-05
0.000104734
1.58427e-05
3.02094e-05
3.08062e-05
1.62287e-05
0.000251407
1.76379e-10
2.63357e-10
1.24512e-10
0
2.19132e-09
1.18829e-09
9.83446e-10
1.02282e-06
0.000182488
0.00376864
0.00291631
0.00214917
0.000838123
0.00118892
2.13603e-06
0.000352406
0.000303763
0.000255706
0.000487858
4.26941e-06
8.39571e-06
1.88731e-06
0.00031725
0.00128962
0.000353733
0.000796425
0.00049042
0.000492471
5.65717e-05
0.000102688
3.05386e-05
1.56875e-05
0.000235265
0.000306531
0.000214168
0.000164735
0.00836978
0.0064066
0.000478191
0.000174549
4.17057e-08
5.20604e-09
3.18252e-10
0.00477836
0.000345072
9.07881e-05
0.000389846
0.000128828
0.000564535
0
0.000176231
0.0059378
0.000275721
3.1034e-05
0.000704105
8.71856e-08
1.07503e-08
8.4702e-10
0.000123759
0.000484086
1.53864e-10
6.83772e-05
0.000229793
1.50208e-05
2.18819e-05
1.23077e-10
1.38107e-05
1.13595e-05
2.78997e-10
4.71779e-05
2.65232e-05
1.82626e-05
0.00010533
2.87545e-05
3.59712e-05
4.29164e-06
2.22306e-10
6.81716e-10
0.00481433
3.32088e-05
3.49031e-05
0.000719722
0.00121749
7.42495e-10
0
0.000881245
3.64071e-10
0
0.000794487
0.000665658
5.50768e-10
0
0.00047736
1.13844e-09
1.01994e-10
0.000182785
0.000728136
0.000628443
0.00428345
2.06807e-05
0.000156702
0.000441793
0.000337388
0
1.75734e-09
8.16227e-06
2.30251e-05
0
0
0
7.92617e-10
4.13521e-06
1.32369e-05
5.40457e-05
5.79971e-05
2.78823e-08
5.84011e-06
1.39832e-09
3.51233e-07
0.000180324
0.000295168
0.0185895
2.07572e-10
0
2.27309e-08
1.09713e-08
6.57439e-06
0.000247
0.000185345
0.0213979
5.14502e-07
8.24752e-10
2.45686e-08
0
0.000361465
6.39826e-05
0.00983014
0.000564929
0.0197338
0.00395642
1.34552e-05
8.73241e-05
0.00301106
9.19041e-05
0.000611568
0.0130343
0.00117652
0.000950703
0.0280411
0.00611503
0.0034727
0.000196286
0.000937828
0.000500682
5.21249e-10
2.20088e-10
1.86787e-10
1.05231e-06
3.61486e-09
6.60096e-06
4.34937e-10
0.000124426
0
9.26133e-05
4.45588e-05
3.82695e-08
7.52361e-10
0.00275841
0.000235155
0.00291286
0.000272097
0.000638456
9.20196e-05
1.79979e-08
2.5245e-10
1.77166e-07
2.19384e-08
2.05665e-09
0.00221652
0.0001658
7.4328e-05
6.05425e-10
6.22013e-10
0
5.00326e-05
2.87693e-05
0
1.28776e-08
3.06274e-06
0
0.00143364
0.00113798
2.51633e-10
0.001581
6.07628e-10
0.000124065
0.0137882
0.000175776
0.00200248
0.000386101
0.0195999
7.21048e-09
8.1331e-10
1.06607e-07
5.9838e-05
0.00169757
7.33388e-05
3.80361e-05
0.00786004
0.000576055
0.0275169
1.45475e-08
1.94368e-09
2.16754e-07
0.000109436
0.0024594
0.00909713
0.0135555
0.000328195
0
0.000252422
0.0136166
0.000327552
3.53028e-09
3.13838e-10
5.10728e-08
1.55106e-08
6.98192e-08
8.57534e-10
0.00154574
0.00101593
2.15553e-06
4.77796e-09
0
7.44104e-09
3.33223e-08
3.13428e-10
0.00373203
0.000477312
0.000899729
0.000144649
1.06564e-06
1.97201e-09
4.82908e-09
0
1.82532e-09
0
5.88486e-09
1.57663e-06
1.61684e-05
0.000102801
8.32893e-05
0.00996302
0.000151109
6.06249e-05
0.00858668
3.14645e-09
7.04453e-07
0.000131355
0.00196763
2.14603e-10
1.53424e-08
0
3.53007e-09
7.19313e-05
0.00136801
0
6.76167e-09
0
1.65651e-09
0
8.56946e-09
0
1.17975e-09
1.60752e-10
1.92949e-08
0
2.49223e-09
8.33221e-10
1.37076e-05
3.15984e-08
1.75532e-06
2.09283e-09
8.04804e-08
2.545e-05
6.45291e-08
0.003857
0.00501761
0.00108085
0.00651054
0.00154372
0.00497226
2.94705e-05
1.11364e-07
4.85354e-08
2.33662e-08
1.23722e-05
2.66055e-09
7.97083e-07
3.53105e-10
1.46402e-10
3.05908e-10
0.00284597
1.61655e-05
2.65204e-05
2.1212e-06
2.77219e-05
8.56387e-08
2.89356e-09
0
0.000298715
0.00192971
1.46468e-06
1.48418e-05
4.20325e-08
1.16604e-09
0.000172956
0.00119198
7.97289e-07
1.0532e-08
4.923e-09
3.42808e-06
0
5.35211e-08
0
0
8.31404e-05
2.05179e-05
0
2.82135e-09
7.69106e-10
0
3.5341e-10
0
4.75209e-10
3.21147e-05
8.83168e-07
0.00114221
0.0259284
2.71496e-06
4.32592e-08
0.000152484
0.00559875
0
5.52378e-10
5.18939e-07
1.09761e-09
2.52132e-08
0
1.76049e-07
1.23655e-09
1.4479e-05
0.000885288
2.44682e-07
9.96411e-05
9.09112e-09
0
1.0098e-06
3.55638e-08
0
2.55895e-10
1.1733e-10
4.34349e-10
9.79387e-05
4.24047e-07
0
0.00923367
0.000187238
4.07183e-09
1.83455e-08
5.17557e-07
1.02359e-10
1.70789e-09
2.37242e-08
1.37162e-09
1.6019e-09
0
8.16681e-10
0
1.78851e-09
2.59853e-07
9.33603e-09
3.85608e-08
4.32993e-06
1.29725e-10
7.4865e-08
0.000298765
8.782e-06
0.000479522
2.12373e-07
0.0119003
6.57967e-07
5.35637e-05
8.70659e-09
0.00221943
6.98226e-09
1.38679e-06
0
4.79176e-08
2.96746e-06
2.11847e-07
0
8.65024e-07
3.62184e-05
1.38764e-06
6.5873e-09
1.22944e-05
0.000318787
5.58626e-06
1.71792e-07
0.00245179
1.18001e-05
3.64348e-05
2.03765e-06
0.00162506
1.95966e-05
7.28461e-06
1.01572e-06
0.0199728
1.2649e-07
2.00281e-05
1.64548e-09
0.000708557
1.80916e-06
6.18518e-07
0.000213784
5.10026e-08
0.00430854
1.10147e-08
0
2.47689e-07
2.87704e-10
0.000209652
0.00722233
4.34733e-05
0.0010117
5.39989e-06
9.23774e-08
0.000248387
0.00861552
3.69514e-07
3.19069e-09
2.56558e-05
4.31536e-07
0.00147463
2.00174e-08
0
1.93096e-06
6.79896e-08
0.000180029
2.06197e-06
7.47064e-06
1.06109e-08
5.89868e-05
5.45706e-05
0.00701501
8.40344e-06
1.4882e-06
0.000407544
2.76651e-06
1.14428e-07
0.00553924
9.4781e-08
4.12649e-05
2.13971e-07
0.00100369
0.00016102
7.07055e-06
6.91812e-06
7.17468e-08
1.28807e-06
2.36208e-08
1.73191e-07
0
1.1749e-07
0
1.01281e-06
4.14372e-06
4.52275e-09
3.86128e-10
0
7.59129e-10
1.27643e-07
4.68884e-09
5.22143e-07
0.00015965
6.10131e-07
0.00166375
5.32921e-06
0.00133818
7.9269e-06
0.00781247
4.75637e-09
4.42322e-08
3.51095e-07
1.76803e-06
2.41529e-06
1.51669e-08
6.09636e-05
2.36674e-05
8.77614e-06
0.00049105
1.03014e-07
4.00001e-07
2.80745e-10
5.41669e-06
0.00538845
1.03856e-05
0.00145167
9.69674e-05
0.00855958
0.0011922
2.64823e-07
4.10816e-09
3.59653e-05
0.00675535
1.09739e-06
3.5897e-06
1.08946e-07
0.000353274
1.53187e-08
0
2.67958e-06
8.97515e-05
0.000259811
0.0117823
0.0191197
7.65884e-07
4.44762e-05
7.48003e-07
7.66603e-09
0.00240261
1.05785e-05
0.000394949
1.93066e-07
0.0129769
4.35472e-08
3.61891e-06
1.28133e-07
1.03066e-10
0.000318507
1.39891e-06
8.36041e-07
0.000244864
0.00350195
1.02493e-07
4.78677e-08
2.28283e-05
0.000594459
4.7742e-05
8.54776e-06
0.0020629
1.91249e-06
1.77411e-08
2.29724e-06
0.000168068
4.04424e-08
0
4.48354e-06
0.000299404
0.0078134
1.01435e-07
3.17602e-07
3.06868e-05
0.00135375
3.66658e-09
1.49132e-08
7.24093e-06
4.4771e-05
1.35213e-05
0.000737768
0.00866401
1.75315e-05
0.00229781
0.000149941
3.92837e-05
0.0123776
0.000129664
0.000438578
0.0157494
0.0275247
0.00596813
3.56245e-06
4.12766e-06
0.00010026
3.35164e-08
2.18755e-07
7.44429e-07
9.67972e-06
8.38962e-10
1.06974e-08
8.80826e-08
6.79911e-07
0
5.48879e-08
0
0.00360626
6.65398e-05
1.86666e-05
4.02035e-06
0.000270254
3.32444e-08
5.0799e-06
1.59267e-10
0.0104065
7.02087e-06
1.90014e-06
0.00056993
2.28588e-07
0.00196524
5.47793e-07
6.32084e-05
9.64971e-09
1.69341e-05
4.36806e-07
0.000749365
0.017758
8.28717e-08
4.32383e-10
1.3644e-07
7.99974e-06
0.000519912
1.34563e-06
1.97375e-08
9.14229e-05
0.00356237
2.49078e-07
3.89653e-10
2.58591e-07
1.13439e-08
0
1.99252e-08
7.79539e-06
6.1213e-05
0.00577334
0.000441778
0.0260929
0.00421915
2.57235e-05
4.82629e-05
4.20499e-06
2.58693e-06
5.39465e-06
0.000662293
0.00863192
2.40655e-07
1.82037e-07
4.41423e-07
7.3016e-05
0.00166177
1.04365e-08
2.56297e-05
0.00137773
9.57697e-07
5.30252e-06
0.023339
1.51433e-07
1.72029e-05
1.44502e-09
0.000808283
6.28192e-06
0.000201926
3.48261e-06
8.23045e-08
4.17525e-07
2.10354e-05
7.83546e-07
2.70767e-09
8.62194e-05
3.99685e-05
0.00609713
8.195e-06
0.00105037
1.03637e-05
4.39232e-06
0.0132436
4.98276e-07
5.97199e-08
1.09238e-05
0.000412455
6.01325e-10
8.99453e-07
3.39979e-07
0.000126372
0.00270005
2.33826e-08
0.00250145
0.00184153
3.25462e-07
9.09978e-05
0.00101669
0.000831343
2.80484e-06
4.61822e-06
0.00493672
0
8.07022e-09
1.19522e-06
0
2.15188e-08
1.8057e-10
0
3.00445e-10
6.1196e-08
2.32485e-09
0
0
0
0
2.25548e-06
0.000182491
4.75073e-08
0.00502969
0
0
1.01393e-10
3.75454e-06
6.74103e-09
5.07532e-05
1.69254e-07
1.90627e-10
1.67335e-07
1.27597e-07
4.63021e-05
0.000804625
3.97585e-06
3.4857e-06
0.000751476
0.00674889
3.4385e-07
2.45101e-07
8.24778e-05
0.00133616
0.000504224
2.63033e-06
0.00309742
0.000560336
0.00128317
0.000895257
6.01475e-06
0.00334863
0.000119259
0.00516994
2.88316e-05
0.000807182
1.35236e-05
0.000897215
0.0157399
3.21218e-06
4.71714e-07
1.11892e-06
0.000108641
0.00317509
2.17367e-08
7.13565e-08
9.44346e-06
0.000472375
5.16573e-10
0.00120069
7.60402e-06
5.94942e-06
0.0105119
6.97984e-07
4.58413e-07
0.000143731
0.00218062
0.00251221
0.00337453
0.00187178
1.43188e-05
9.92206e-06
0.0161532
1.05282e-06
0.00156354
0.00196347
3.09528e-05
0.000151422
3.19632e-08
1.41897e-07
2.11867e-09
2.38832e-06
3.36114e-07
0
5.1411e-08
4.49827e-08
2.12479e-09
5.10964e-07
0
5.38171e-08
6.46851e-09
0
9.23899e-08
5.01704e-09
9.89587e-07
1.65243e-10
1.15496e-07
4.85094e-09
1.19278e-08
0
6.50989e-08
2.80756e-07
4.9477e-09
4.37136e-06
1.28355e-08
1.93679e-06
6.43573e-07
4.33453e-06
2.17992e-10
1.10449e-07
0.0035493
2.89208e-05
1.20445e-05
0.00123625
0.000227653
0.000226248
0.0174505
6.57224e-05
0.00210209
1.32984e-05
0.0122606
9.9716e-06
0.000669589
0.000279537
0.000273874
1.11648e-06
0.00268531
1.04109e-06
0.000112656
0.0112619
6.57105e-05
0.00322133
2.17988e-05
1.83561e-05
0.00091432
0.000446916
1.99569e-06
0.000459074
0.00428158
2.04863e-06
0.000168879
0.0157271
0.000111363
2.60374e-07
0
2.47277e-08
1.30438e-05
7.71162e-06
2.16505e-08
5.47469e-08
8.44092e-10
2.26126e-06
1.80999e-09
4.90428e-07
5.42084e-07
1.31e-07
0
1.118e-08
7.62256e-06
2.85188e-08
3.89474e-06
1.03044e-08
2.60497e-08
2.99923e-10
1.21518e-06
6.65671e-10
2.34266e-07