# vtk DataFile Version 2.0
Unstructured Grid by M++
ASCII
DATASET UNSTRUCTURED_GRID
POINTS 4225 float
  5.312500   3.437500 0
  8.750000   1.562500 0
  5.625000   2.187500 0
  9.062500   0.312500 0
  9.375000   0.937500 0
  9.687500   0.625000 0
  2.812500   1.562500 0
  4.687500   5.625000 0
  8.125000   3.750000 0
  5.625000   1.875000 0
  5.312500   3.125000 0
  8.750000   1.250000 0
  9.375000   1.250000 0
  9.687500   0.312500 0
  9.375000   1.562500 0
  3.750000  10.000000 0
  4.687500   5.312500 0
  8.125000   3.437500 0
  5.625000   1.562500 0
  5.312500   2.812500 0
  4.375000   6.562500 0
  7.812500   4.687500 0
  5.000000   3.750000 0
  4.687500   5.000000 0
  8.125000   3.125000 0
  5.625000   1.250000 0
  5.312500   2.500000 0
  7.500000   5.625000 0
  4.375000   6.250000 0
  7.812500   4.375000 0
  9.375000   0.625000 0
  8.437500   4.375000 0
 10.000000   7.812500 0
  6.562500   9.687500 0
  5.937500   9.687500 0
  6.250000   9.687500 0
  6.562500   8.437500 0
  0.625000  10.000000 0
  2.500000   2.500000 0
  3.750000   0.937500 0
  6.875000   0.312500 0
  0.937500   0.625000 0
  6.875000   0.625000 0
  0.937500   0.937500 0
  5.000000   0.312500 0
  3.437500  10.000000 0
  5.000000   2.500000 0
  4.687500   3.750000 0
 10.000000   8.125000 0
  6.562500  10.000000 0
  1.875000   3.125000 0
  7.812500   2.812500 0
  4.375000   4.687500 0
  1.250000   5.625000 0
  7.187500   5.312500 0
  1.562500   4.375000 0
  7.500000   4.062500 0
  6.562500   7.812500 0
  6.250000   9.062500 0
  2.187500   1.875000 0
  8.125000   1.562500 0
  4.687500   3.437500 0
  5.312500   2.187500 0
  3.437500   1.250000 0
  2.812500   2.187500 0
  3.125000   0.937500 0
  4.375000   0.625000 0
  4.062500   5.937500 0
 10.000000   5.625000 0
  0.625000   7.812500 0
  6.562500   7.500000 0
  3.437500   8.437500 0
  9.375000   8.125000 0
  5.937500  10.000000 0
  3.750000   7.187500 0
  9.687500   6.875000 0
  6.250000   8.750000 0
  7.500000   7.187500 0
  8.125000   4.687500 0
  7.812500   5.937500 0
  1.250000  10.000000 0
  7.187500   9.687500 0
  5.312500  10.000000 0
  7.187500   5.937500 0
  4.687500   4.062500 0
  4.375000   5.312500 0
  6.875000   7.187500 0
  2.500000   0.625000 0
  8.437500   0.312500 0
  3.125000   2.187500 0
  3.437500   0.937500 0
  5.000000   2.812500 0
  3.437500   1.875000 0
  3.750000   0.625000 0
  7.500000   4.687500 0
  1.562500   5.000000 0
  5.000000   3.125000 0
  2.500000   1.562500 0
  8.437500   1.250000 0
  7.812500   3.437500 0
  1.875000   3.750000 0
  5.312500   1.875000 0
  8.125000   2.187500 0
  2.187500   2.500000 0
  5.625000   0.625000 0
  8.437500   0.937500 0
  2.500000   1.250000 0
  4.062500  10.000000 0
 10.000000   5.312500 0
  4.062500   5.625000 0
  6.562500   7.187500 0
  0.625000   7.500000 0
  1.562500   4.062500 0
  7.500000   3.750000 0
  7.500000   3.437500 0
  1.562500   3.750000 0
  9.687500   6.562500 0
  3.750000   6.875000 0
  6.250000   8.437500 0
  0.312500   8.750000 0
  1.250000   5.312500 0
  7.187500   5.000000 0
  9.375000   7.812500 0
  3.437500   8.125000 0
  0.937500   6.562500 0
  6.875000   6.250000 0
  7.187500   3.437500 0
  1.250000   3.750000 0
  0.937500   5.312500 0
  6.875000   5.000000 0
  6.562500   5.937500 0
  0.625000   6.250000 0
  6.250000   7.187500 0
  0.312500   7.500000 0
  1.250000   4.062500 0
  7.187500   3.750000 0
  6.875000   4.687500 0
  0.937500   5.000000 0
  1.875000   1.562500 0
  7.812500   1.250000 0
  6.875000   3.437500 0
  0.937500   3.750000 0
  7.500000   0.937500 0
  1.562500   1.250000 0
  0.937500   4.062500 0
  6.875000   3.750000 0
  1.562500   1.562500 0
  7.500000   1.250000 0
  7.187500   2.187500 0
  1.250000   2.500000 0
  4.687500   0.625000 0
  8.750000   0.312500 0
  2.812500   0.625000 0
  7.187500   1.250000 0
  1.250000   1.562500 0
  0.937500   2.500000 0
  6.875000   2.187500 0
  0.625000   3.750000 0
  6.562500   3.437500 0
  1.250000   1.250000 0
  7.187500   0.937500 0
  6.875000   2.812500 0
  0.937500   3.125000 0
  6.562500   4.062500 0
  0.625000   4.375000 0
  7.500000   0.312500 0
  1.562500   0.625000 0
  7.187500   1.562500 0
  1.250000   1.875000 0
  6.875000   9.687500 0
  0.937500  10.000000 0
  0.625000   4.062500 0
  6.562500   3.750000 0
  5.000000  10.000000 0
  8.437500  10.000000 0
  2.812500   9.062500 0
  8.750000   8.750000 0
  6.250000  10.000000 0
  6.562500   8.750000 0
  2.500000  10.000000 0
  8.437500   9.687500 0
  4.375000   5.625000 0
  1.875000   4.062500 0
  7.812500   3.750000 0
 10.000000   6.562500 0
  4.062500   6.875000 0
  7.500000   5.000000 0
  6.875000   7.500000 0
  9.687500   7.812500 0
  3.750000   8.125000 0
  7.187500   6.250000 0
 10.000000   8.437500 0
-10.000000  10.000000 0
 -4.687500   2.500000 0
  5.000000  -4.375000 0
-10.000000   5.312500 0
 -9.687500   4.062500 0
-10.000000 -10.000000 0
 -5.000000   2.500000 0
 -8.437500   4.375000 0
 -0.625000   1.875000 0
 -1.250000   4.375000 0
 -4.687500   6.250000 0
 -0.937500   2.812500 0
 -4.375000   4.687500 0
 -1.250000   4.062500 0
 -4.687500   5.937500 0
 -2.812500  10.000000 0
 -1.250000   3.750000 0
 -4.687500   5.625000 0
 -0.312500   0.937500 0
-10.000000   7.812500 0
 -1.250000   4.687500 0
  1.875000  -6.875000 0
 -9.375000   9.375000 0
 -9.062500   8.437500 0
 -9.375000   9.687500 0
 -5.937500   7.812500 0
 -9.687500   9.062500 0
 -5.625000   7.812500 0
 -5.312500   6.562500 0
 -8.750000   8.437500 0
 -5.000000   5.312500 0
 -5.312500   2.500000 0
 -8.750000   4.375000 0
 -5.625000   3.750000 0
 -9.062500   5.625000 0
 -9.375000  10.000000 0
 -5.937500   8.125000 0
 -9.062500   8.750000 0
 -5.625000   6.875000 0
 -6.250000   5.312500 0
 -9.687500   7.187500 0
  0.000000   0.312500 0
 -0.625000   4.062500 0
  5.937500  -9.375000 0
  5.000000   5.000000 0
 -0.937500   5.312500 0
  1.562500   6.875000 0
 -4.375000   7.187500 0
  5.625000  -8.125000 0
  9.375000 -10.000000 0
  5.937500  -8.125000 0
 -9.687500   6.875000 0
  0.000000   0.000000 0
  9.375000   6.562500 0
  3.437500   6.875000 0
 -2.500000   7.187500 0
 -7.812500  -4.375000 0
 -5.937500   5.000000 0
 -9.375000   6.875000 0
  0.312500   0.000000 0
-10.000000   4.687500 0
 -7.187500  -6.250000 0
 -9.062500   5.000000 0
 -6.250000   5.625000 0
 -9.687500   7.500000 0
  0.000000   0.625000 0
 -9.062500   9.062500 0
 -5.625000   7.187500 0
 -5.000000   6.250000 0
 -7.187500   2.812500 0
  5.625000   4.062500 0
 -0.312500   4.375000 0
  2.187500   5.937500 0
  8.125000   5.625000 0
 -3.750000   6.250000 0
  6.250000  -9.062500 0
  3.125000   2.500000 0
 -2.812500   2.812500 0
  5.312500   5.312500 0
 -0.625000   5.625000 0
  9.375000  -9.687500 0
 -0.625000   2.812500 0
  1.875000   4.375000 0
 -4.062500   4.687500 0
 -0.312500   1.562500 0
-10.000000   8.437500 0
 -0.937500   4.062500 0
  5.625000  -9.375000 0
 -1.250000   5.312500 0
  1.875000  -6.250000 0
  5.312500  -8.125000 0
  0.312500   5.000000 0
  6.250000   4.687500 0
 -5.625000   5.312500 0
 -8.750000  -3.437500 0
  4.062500   1.875000 0
 10.000000   1.562500 0
 -1.875000   2.187500 0
 -8.437500  -4.687500 0
 -9.375000  -1.562500 0
  1.250000  -6.250000 0
 -5.312500   7.187500 0
  6.250000  -9.375000 0
 -9.375000  -1.875000 0
-10.000000   5.000000 0
 -8.750000  -3.750000 0
 -5.937500   5.312500 0
 -9.375000   7.187500 0
  0.312500   0.312500 0
  0.937500  -5.312500 0
 -5.625000   8.125000 0
 -5.312500   6.875000 0
 -9.375000   9.062500 0
 -0.312500   3.125000 0
 -7.500000   2.812500 0
  5.312500   4.062500 0
 -0.625000   4.375000 0
  1.875000   5.937500 0
 -4.062500   6.250000 0
  5.937500  -9.062500 0
  1.562500   7.187500 0
 -4.375000   7.500000 0
  5.625000  -7.812500 0
  5.000000   5.312500 0
 -0.937500   5.625000 0
  9.062500  -9.687500 0
  5.937500   5.312500 0
  0.000000   5.625000 0
 -5.937500   5.937500 0
 -9.062500  -2.812500 0
  1.875000   5.000000 0
 -4.062500   5.312500 0
  5.937500 -10.000000 0
 -0.625000   3.437500 0
  5.312500  -7.500000 0
 -1.250000   5.937500 0
 -0.312500   2.187500 0
-10.000000   9.062500 0
  0.937500   8.750000 0
 -5.000000   9.062500 0
  5.000000  -6.250000 0
  8.750000  -9.375000 0
  2.812500  -9.062500 0
 -9.687500   9.375000 0
 -5.000000   5.625000 0
 -9.062500  -2.187500 0
 -0.625000   0.312500 0
  9.062500  -6.562500 0
 -0.625000   2.500000 0
 -4.062500   4.375000 0
 -8.125000   9.062500 0
 -2.187500   8.750000 0
  3.437500   9.687500 0
 -2.500000  10.000000 0
 -0.312500   1.250000 0
-10.000000   8.125000 0
 -1.250000   5.000000 0
 -2.187500   8.437500 0
 -8.125000   8.750000 0
  1.875000  -6.562500 0
  5.312500  -8.437500 0
 -9.687500   8.437500 0
  0.000000   1.562500 0
 -9.687500  10.000000 0
 -9.375000   8.750000 0
 -0.625000   3.125000 0
  1.875000   4.687500 0
 -4.062500   5.000000 0
  0.625000   9.687500 0
 -5.312500  10.000000 0
  4.687500  -5.312500 0
  3.750000   9.062500 0
 -8.125000   9.687500 0
 -2.187500   9.375000 0
 -0.312500   1.875000 0
-10.000000   8.750000 0
 -0.937500   4.375000 0
  2.187500  -7.187500 0
  5.625000  -9.062500 0
 -1.250000   5.625000 0
  3.750000   8.750000 0
 -2.187500   9.062500 0
 -8.125000   9.375000 0
  1.875000  -5.937500 0
  5.312500  -7.812500 0
  4.375000   6.875000 0
 -1.562500   7.187500 0
 -7.500000   7.500000 0
  8.437500  -8.125000 0
  2.500000  -7.812500 0
  0.000000   0.937500 0
 -9.687500   7.812500 0
 -0.937500   4.687500 0
  4.062500   7.812500 0
 -1.875000   8.125000 0
 -7.812500   8.437500 0
  2.187500  -6.875000 0
  5.625000  -8.750000 0
  5.625000   3.125000 0
 -0.312500   3.437500 0
  2.187500   5.000000 0
 -3.750000   5.312500 0
  6.250000 -10.000000 0
 -7.500000   3.125000 0
  5.000000   5.625000 0
 -0.937500   5.937500 0
  9.062500  -9.375000 0
  1.562500   7.500000 0
 -4.375000   7.812500 0
  5.625000  -7.500000 0
  5.937500  -8.750000 0
 -9.062500   9.375000 0
 -5.625000   7.500000 0
 -8.750000   8.125000 0
 -5.312500   6.250000 0
 -4.375000   2.812500 0
  5.312500  -4.062500 0
  5.937500   3.125000 0
  0.000000   3.437500 0
  2.500000   5.000000 0
[...]
CELL_DATA 4096
SCALARS scalar_value float 1
LOOKUP_TABLE default
0.00200169
0.00189633
0.00207997
0.00206374
0.00131782
0.00134825
0.0424745
0.0331225
0.00125193
0.138296
0.117558
0.000837122
0.000810732
0.000766045
0.00131283
0.0616789
0.0019808
0.0579321
0.00205114
0.00134612
0.00289432
0.00237077
0.00186102
0.000450589
0.000413581
0.000638163
0.000707018
0.0107334
0.00807223
0.0216293
0.0113793
0.00995531
0.0195166
0.00196809
0.00225123
0.00345877
0.00306893
0.00411047
0.00313855
0.00811515
0.16043
0.00919974
0.163607
0.0141064
0.00150057
0.0117385
0.0151879
0.0182092
0.00525139
0.00440231
0.00528269
0.00215975
0.00166086
0.00113244
0.0124208
0.000895592
0.00957114
0.000495735
0.00763781
0.000641551
0.00994979
0.00251338
0.00274041
0.0125228
0.18498
0.00488398
0.130629
0.019323
0.0243474
0.0251788
0.0294525
0.0137386
0.0110153
0.180875
0.00393951
0.115632
0.00534732
0.0164886
0.000418754
0.0230695
0.0663819
0.0175155
0.000493855
0.0288345
0.000455681
0.0253463
0.0803384
0.0205601
0.000578463
0.0370071
0.0031035
0.0994233
0.0011665
0.030414
0.0496017
0.0100034
0.000428496
0.00426366
0.000274358
0.000130017
0.0125881
0.000541085
0.00574774
0.000373449
0.000190578
0.190164
0.0383043
0.0517433
0.027039
0.220527
0.108784
0.0412272
0.18015
0.0395631
0.045893
0.10969
0.0083089
0.0390368
0.0118614
0.081032
0.0111516
0.0690182
0.00724967
0.0313266
0.0059785
0.0597213
0.00558549
0.0509224
0.0146632
0.0221229
0.000410249
0.000196638
0.0206528
0.0540681
0.000373877
8.6647e-05
0.0120549
0.0168802
0.000331724
0.000137549
0.0181816
0.0434038
0.000324436
5.66873e-05
0.193249
0.0218452
0.000477977
0.148795
0.0312639
0.000825558
0.0866364
0.0330646
0.00049314
0.130494
0.0304334
0.000787326
0.071566
0.0300864
0.000246109
0.181718
0.0228978
0.000229914
0.00539579
0.000519412
0.0127138
0.000809213
0.0305839
0.0224873
0.000929442
0.000353508
0.00723502
0.000690644
0.0159462
0.000994639
0.0392408
0.026366
0.0010552
0.0203438
0.158128
0.0486306
0.0791847
0.223693
0.0716622
0.214947
0.000206455
6.90801e-05
0.0412966
0.0289755
0.0275126
0.0402378
0.000299262
0.00067843
0.000203335
0.000495713
0.000558899
0.00134197
0.0351859
0.000414713
0.0029201
0.0529748
0.00106843
0.0410596
0.000797471
0.00177605
0.0320866
0.000345416
0.0538762
0.00304332
0.0524384
0.000957671
0.00266963
0.0765753
0.00292125
0.0020439
0.0718944
0.00303991
0.0111172
0.00340762
0.0734366
0.004549
0.160215
0.0801393
0.00275443
0.0271431
0.00508296
0.0294319
0.00405153
0.0949248
0.00111717
0.0022955
0.0602734
0.0031047
0.00345166
0.0313358
0.014693
0.00425221
0.182646
0.0823457
0.00254868
0.0338388
0.00586608
0.000713388
0.000432257
0.00667198
0.000906014
0.0669909
0.00654714
0.145205
0.000609698
0.00890568
0.00118048
4.13878e-05
0.00999937
0.0243762
7.94189e-05
0.0128666
0.054322
4.93462e-05
2.69513e-05
1.00059e-05
1.577e-05
6.21249e-05
2.617e-05
0.0111647
0.0204994
0.000179585
9.11057e-05
0.0162645
0.0919958
8.33658e-05
0.0155513
0.0493327
0.000152649
4.08675e-05
0.0523644
0.127619
0.000346688
0.000839575
6.26773e-05
0.00769501
0.000200375
0.000501973
0.00112854
9.39451e-05
0.00972577
0.0002612
0.0141557
6.03084e-05
0.0657013
0.011801
0.000101368
0.0313141
0.00238692
0.0829201
0.001256
0.0345261
0.0617947
0.082154
0.0329613
6.21416e-06
1.21697e-05
0.00831031
0.0186727
6.06682e-05
0.0114877
0.0442599
3.9385e-05
1.71636e-05
3.66609e-05
0.00676942
0.0141932
4.52162e-05
0.0100693
0.0355266
3.06826e-05
1.07412e-05
2.43157e-05
3.7954e-06
7.83651e-06
0.0191058
0.000206003
0.0732658
0.0157335
0.000273756
0.0343287
0.121827
0.0145921
0.0173851
0.000179843
0.0605569
0.0133759
0.00022473
0.0267372
0.235125
0.0469698
0.00038105
0.0269372
0.0582798
0.000730441
0.000167329
0.0188608
0.0234783
0.000797057
0.000272764
0.0237287
0.0467829
0.000659112
0.000111658
0.0155475
0.0179474
0.000665501
3.04968e-06
4.93984e-06
0.200099
0.014711
0.21182
0.0289592
0.040938
0.0332057
0.00167855
0.0197965
0.160603
0.0408531
0.0918971
0.042418
0.0984661
0.241537
0.177899
0.0102987
0.0579271
0.00865937
2.33454e-05
0.0280806
0.00687856
0.00116852
0.0525025
0.0812987
0.239432
0.227812
0.156025
0.0093383
0.0479084
0.00730107
1.73582e-05
0.0218431
0.00862756
0.205287
0.0167756
0.199362
0.0303862
0.0319137
0.00158125
0.0283341
0.00139621
0.0158218
0.140839
0.0397576
0.0758945
0.0385759
0.0104508
0.12578
0.0380133
0.03291
0.233701
0.00770979
0.0982066
0.0251883
0.0269521
0.211218
0.00912807
0.0957577
0.0222722
0.0323331
0.212273
0.0125022
0.124619
0.0349126
0.0397599
0.236135
0.175914
0.0434995
0.0644656
0.22468
0.089792
0.040832
0.198598
0.0288718
0.0488357
0.129021
0.000858563
7.49822e-07
6.97936e-07
0.00120922
1.19222e-06
1.16278e-06
0.0153045
7.18455e-05
0.0783159
0.0136697
0.000126064
0.0396021
0.00914327
0.000139782
0.0156124
0.00226154
2.84178e-06
3.0423e-06
1.84483e-06
0.137868
0.0535106
0.0958966
0.217295
0.0552279
0.228146
0.170446
0.0016728
1.85904e-06
1.8997e-06
1.09852e-06
0.237173
0.116373
0.191153
0.114482
0.205598
0.0753287
0.0180636
0.0176342
0.18201
0.00797633
0.0597948
0.0323027
0.0114229
0.0547654
0.0137673
0.154322
0.00850218
0.0701644
0.0414117
0.254378
0.000509289
0.0409121
0.00431028
0.0214226
0.219678
0.00141452
0.0661749
0.00511393
0.0427723
0.0980429
0.00512877
0.00448543
0.065596
0.199607
0.0175482
0.250709
0.000613969
0.0449835
0.00158377
0.0669034
0.00458516
0.0353844
0.00357471
0.0166253
0.121812
0.00682521
0.00433668
0.0576891
0.21827
0.021171
0.0536782
0.0195449
0.199457
0.0668766
0.0253438
0.0661817
0.241146
0.210636
0.134672
0.189128
0.0105568
0.201468
0.0204281
0.172597
0.00947684
0.166922
0.0315506
0.018772
0.00119125
0.0196457
0.000842433
0.103386
0.035751
0.205658
0.0187113
0.160493
0.00796958
0.184078
0.0312595
0.0245106
0.00139024
0.0237902
0.121582
0.0380218
0.000180048
9.41427e-05
0.106466
0.0169912
0.143199
0.0124009
0.142012
0.200977
0.00665595
0.000130467
0.00328611
0.265567
0.099308
0.00259057
0.00187465
0.0645406
0.00381107
0.0426238
0.000841845
0.0508839
0.000282203
0.0286049
0.183424
0.120248
0.0052472
5.66266e-05
0.00444929
0.160975
0.117157
0.00569053
3.99096e-05
0.00335456
0.00173974
0.0663303
0.00410848
0.0499659
0.000103373
0.121336
0.0174474
0.152488
0.0118509
0.000182356
0.00445803
0.000152776
0.136096
0.000110261
0.0176053
0.159324
0.0111107
0.000248656
0.00595651
0.0873701
0.000229253
0.020646
0.000126439
0.000370117
0.179512
0.141374
0.00737391
0.13207
0.0127374
0.000149833
0.00596664
0.157588
0.137873
0.00800908
0.11973
0.0128479
0.000109269
0.00453131
0.111986
0.138994
0.00605571
0.0923498
0.0651809
0.0091458
0.0997958
0.227437
0.00296529
3.28998e-05
0.00540118
0.0628168
0.269266
0.00106563
2.74779e-05
0.00247448
0.131856
0.1361
0.00853291
0.106774
0.0127313
0.119162
0.22591
0.00420766
0.000106038
0.00734144
0.0755327
0.27047
0.00151067
7.77562e-05
0.00336901
0.123778
0.11573
0.00892191
0.0937295
0.0123964
0.120971
0.205434
0.00474563
7.84451e-05
0.00577561
0.0839372
0.268085
0.00184488
5.40208e-05
0.00246503
0.105109
0.11817
0.00632594
0.0811113
0.0523249
0.00889787
0.101138
0.206718
0.00333648
2.33841e-05
0.00421861
0.069523
0.266435
0.00129553
1.84916e-05
0.00179495
0.173206
0.000111156
0.0162151
0.135524
0.000263938
0.0235409
0.162748
0.00011448
0.0169812
0.118879
0.00025965
0.0229218
0.18079
0.000104317
0.0151838
0.153652
0.00700599
0.152033
0.000260068
0.0237552
0.000481648
0.0958404
0.0273929
0.163166
0.0102134
0.150133
0.000114122
0.01745
0.000330625
0.00779686
0.102678
0.000247693
0.0219388
0.184871
9.44662e-05
0.0139338
0.143545
0.00591619
0.167697
0.000248359
0.0235415
0.000494472
0.112675
0.0291176
0.103512
0.00923446
0.08006
0.0731927
0.0159697
0.0214704
0.184328
0.055365
0.000858439
0.265235
0.096379
0.00258365
0.245425
0.011826
0.0879348
0.0433305
0.205791
0.00290674
0.10252
0.260703
0.0160745
0.000102342
0.00175336
0.000323438
0.00662979
0.0415326
0.124929
0.00853713
0.00518973
0.0192302
0.227724
0.0266648
0.114154
0.00915903
0.0969534
0.0518947
0.00974138
0.0166239
0.154798
0.047552
0.000677065
0.25409
0.0910084
0.00220596
0.259388
0.00148067
0.0220991
0.00018993
0.0396607
0.000563952
0.00225222
0.0363512
0.000414219
0.251874
0.0759086
0.0641327
0.0012394
0.237409
0.0195675
0.0141748
0.176839
0.0247152
0.000231413
0.00152886
0.00289797
0.0663678
0.00310282
0.0483619
0.000725903
0.0288206
0.00402295
0.0809135
0.00452617
0.0995044
0.056433
0.0315263
0.000330245
0.24292
0.0608451
0.00106516
0.251435
0.0127374
0.0111505
0.151399
0.0482404
0.00787188
0.0196023
0.153112
0.0565631
0.000949383
0.253933
0.108087
0.0031103
0.257244
0.000990146
0.00189625
0.0193148
0.00015292
0.0377512
0.00048838
0.00266049
0.00619849
0.0247461
0.0990832
0.00635856
0.00734317
0.0248467
0.0502072
0.207013
0.0219759
0.0165865
0.117826
0.0541978
0.230896
0.115092
0.00358457
0.259085
0.0277106
0.000276442
0.0231004
0.00956688
0.00601912
0.0442716
0.0225352
0.149629
0.0657834
0.00131162
0.25012
0.125825
0.00432234
0.251202
8.23966e-05
0.0699018
0.0135151
0.0255496
0.183967
0.0662448
0.0012107
0.26583
0.114814
0.00365551
0.243612
0.0138416
0.0969512
0.0989843
0.00648852
0.0167134
1.26193e-05
0.00603114
0.184501
0.100417
0.00368203
0.0391212
0.250422
0.000476073
1.62451e-05
0.00322384
0.0751332
0.257451
0.00154307
0.0254586
0.0358085
0.0879461
0.081728
0.00653541
0.0126766
8.97446e-06
0.00487799
0.161879
0.0977681
0.00398685
0.0453147
0.260561
0.000600281
1.10365e-05
0.00240949
0.0793631
0.24335
0.00180128
0.0195821
0.029618
0.0531197
0.047414
0.019301
0.0327706
0.0350608
0.149473
0.0510862
0.0534047
0.0689953
0.00627548
4.25693e-06
0.00298837
0.204712
0.0830082
0.0023142
0.0876934
0.118799
0.00441992
0.260586
0.0564595
0.000897633
4.77378e-06
0.00126461
0.0241085
0.0420296
0.0410885
0.0665325
0.0785055
0.00646365
6.24642e-06
0.00386062
0.225348
0.0820185
0.00206158
0.0934257
0.139749
0.0042369
0.26386
0.0511931
0.000741521
7.33624e-06
0.00176084
1.66514e-07
0.0105341
0.0921834
0.0191145
0.0378936
0.21037
0.00211124
0.0889442
0.267537
0.139598
0.00588677
0.220903
9.71969e-08
4.10979e-07
4.6264e-07
0.0109803
0.0659326
0.0296734
0.18121
0.0775647
0.00168289
0.262459
0.134132
0.00509868
0.238069
2.38472e-07
2.80131e-07
3.1525e-08
5.57317e-08
0.0126794
0.0249094
0.000226127
0.231754
0.0566175
0.0135615
0.00884437
0.145891
0.0196305
0.107637
0.013593
0.0788022
0.0128858
0.0833858
0.0482818
0.198857
0.0134412
0.0183238
0.112996
0.0610241
0.223755
0.0243985
0.0192181
0.061735
0.0335838
0.176389
0.0888185
0.0023038
0.255383
0.00864065
0.0404066
0.0252134
0.144714
0.0747443
0.001784
0.242935
0.00437273
0.0746951
0.0203407
0.0111651
0.16881
0.0340325
0.0369377
0.0274024
0.138685
0.00306724
0.057652
0.0369823
0.169828
0.00670626
0.0539042
0.0126093
0.0422618
0.000281428
0.000522719
0.00028905
0.000178656
0.000393945
0.000337375
6.53818e-06
6.52346e-06
1.27628e-05
1.60207e-06
3.25966e-06
3.28868e-06
1.62612e-06
3.69016e-05
2.7707e-10
1.96414e-10
1.10744e-10
1.56941e-10
1.37031e-10
0
0
8.51119e-08
2.34302e-05
0.000713354
0.000536645
0.000377429
0.000130432
0.00019418
1.79363e-07
5.15026e-05
8.46744e-05
3.66588e-05
0.000129371
3.79373e-07
7.91311e-07
1.64218e-07
4.35643e-05
0.000428976
5.2944e-05
0.000236411
7.4917e-05
0.000154698
6.36851e-06
1.2338e-05
3.22598e-06
1.54406e-06
3.52727e-05
4.77705e-05
3.27534e-05
2.42559e-05
0.00179175
0.00131016
7.1303e-05
5.18649e-05
2.84014e-09
7.59057e-10
0
0.000931584
5.93875e-05
1.23547e-05
6.30772e-05
1.78186e-05
9.3323e-05
0
2.53908e-05
0.00119393
4.86608e-05
3.72962e-06
0.000120797
6.15984e-09
1.46005e-09
0
1.75267e-05
8.12221e-05
0
3.27954e-05
0.000269615
1.53321e-06
5.23929e-06
0
1.42321e-06
3.67028e-06
0
4.45235e-05
2.92546e-06
6.3976e-06
5.70731e-05
3.13662e-06
9.5051e-06
3.78874e-07
0
0
0.000953419
5.24226e-06
3.98448e-06
0.000314672
0.000207295
8.60553e-10
0
0.000146532
4.88565e-10
0
0.00028189
0.00010616
3.48576e-10
0
7.45058e-05
6.1923e-10
0
2.57278e-05
0.000184682
0.000102158
0.000818116
2.38182e-06
2.52597e-05
7.02813e-05
5.15858e-05
0
1.16997e-10
7.75358e-07
4.41129e-06
0
0
0
0
3.69907e-07
2.31682e-06
6.31543e-06
1.70832e-05
1.88259e-09
5.26832e-07
0
2.5949e-08
2.47366e-05
7.00629e-05
0.00460573
0
0
1.5607e-09
7.58557e-10
5.97185e-07
3.44974e-05
4.59963e-05
0.00552579
3.85674e-08
0
1.54013e-09
0
7.21217e-05
8.13398e-06
0.00214841
8.65839e-05
0.00578357
0.000837369
1.48463e-06
1.28911e-05
0.000545242
1.21916e-05
0.000134665
0.00299099
0.000587862
0.000156728
0.00876743
0.00139173
0.000644183
3.09581e-05
0.000856765
0.000610175
0
0
0
8.36992e-08
2.23887e-10
9.121e-07
0
0.000137735
0
1.17927e-05
1.90493e-05
2.80846e-09
0
0.000497574
3.63105e-05
0.000545018
0.000190631
9.72147e-05
3.04877e-05
1.27379e-09
0
1.30156e-08
2.83104e-09
1.15621e-10
0.000396995
0.000101949
7.6545e-05
0
0
0
5.92221e-06
1.10688e-05
0
8.34485e-10
2.62315e-07
0
0.000258042
0.00019701
0
0.000280564
0
1.62703e-05
0.00324216
3.74508e-05
0.000369812
5.43611e-05
0.00546879
1.58289e-09
0
7.52873e-09
7.98277e-06
0.000283601
8.89588e-06
6.84957e-06
0.00171069
8.53146e-05
0.00816613
2.92273e-09
1.09383e-10
1.5936e-08
1.58527e-05
0.000433301
0.00231822
0.00371034
4.67796e-05
0
3.3758e-05
0.00355997
4.58153e-05
8.62157e-10
0
3.47248e-09
1.54962e-09
4.93745e-09
0
0.000281764
0.000664416
1.80009e-07
2.78836e-10
0
7.65722e-10
2.27399e-09
0
0.000728234
0.000383069
0.000143573
5.43319e-05
8.43703e-08
1.11638e-10
3.09543e-10
0
1.037e-10
0
3.67498e-10
1.28412e-07
1.60555e-06
1.97301e-05
1.04345e-05
0.00221756
2.81349e-05
7.48463e-06
0.00184461
1.86831e-10
5.44735e-08
1.86818e-05
0.00033766
0
1.01279e-09
0
3.81553e-10
9.44473e-06
0.000222993
0
4.32891e-10
0
1.92132e-10
0
5.46302e-10
0
2.1097e-10
0
1.26963e-09
0
3.9823e-10
0
1.32611e-06
2.24759e-09
1.43633e-07
1.36799e-10
6.16063e-09
2.60767e-06
4.75038e-09
0.000742391
0.000994804
0.000172069
0.0013494
0.000258309
0.000999259
3.08109e-06
8.18131e-09
3.4755e-09
1.66684e-09
1.18694e-06
1.6088e-10
6.18453e-08
0
0
0
0.000514997
1.74218e-06
3.73288e-06
1.76201e-07
2.86895e-06
6.29626e-09
1.88068e-10
0
4.02886e-05
0.000605485
1.26846e-07
1.44815e-06
2.9825e-09
0
2.18575e-05
0.000336219
6.61167e-08
6.96734e-10
3.30594e-10
2.95294e-07
0
3.49287e-09
0
0
1.07485e-05
1.59089e-05
0
1.7565e-10
0
0
0
0
0
3.95785e-06
6.87743e-08
0.000180693
0.00909787
2.501e-07
2.82175e-09
1.8928e-05
0.00138016
0
1.12873e-10
3.90403e-08
0
1.5808e-09
0
1.28608e-08
0
1.42854e-06
0.000153481
1.33056e-07
1.24997e-05
5.52114e-10
0
8.12249e-08
1.12049e-08
0
0
0
0
1.16057e-05
3.37176e-08
0
0.00225523
2.44323e-05
2.38002e-10
6.25866e-09
3.97884e-08
0
4.72281e-10
1.55683e-09
1.02506e-10
1.00875e-10
0
2.60127e-10
0
1.00967e-10
1.91278e-08
3.50143e-09
2.56103e-09
3.85474e-07
0
4.38911e-08
4.42827e-05
9.33169e-07
6.78053e-05
1.5067e-08
0.00360062
5.38057e-08
5.94885e-06
5.28783e-10
0.000465635
4.2978e-10
1.12451e-07
0
3.15666e-09
2.60989e-07
3.56044e-08
0
6.98606e-08
3.92837e-06
3.72738e-07
4.0266e-10
1.27942e-06
4.34051e-05
3.39387e-06
1.21507e-08
0.00043155
1.25892e-06
5.02861e-06
1.68388e-07
0.000269797
2.48919e-06
7.43577e-07
7.97251e-08
0.00801046
9.3728e-09
2.01278e-06
0
0.000129595
1.69876e-07
5.29847e-08
2.73952e-05
3.32648e-09
0.0011602
6.65131e-10
0
1.76952e-08
0
3.79774e-05
0.0014999
5.29285e-06
0.00017768
5.30521e-07
6.27115e-09
3.25982e-05
0.002296
2.84259e-08
1.88657e-10
2.66863e-06
2.30732e-07
0.000276639
1.26673e-09
0
1.62777e-07
2.00873e-08
2.42895e-05
1.74128e-07
1.20527e-06
6.7387e-10
1.02421e-05
6.52733e-06
0.0014744
7.85984e-07
1.33352e-07
5.64513e-05
2.81134e-07
7.79412e-09
0.00171652
7.23962e-09
4.4335e-06
1.6879e-08
0.000206543
2.04421e-05
6.82644e-07
2.08987e-06
4.86978e-09
1.07604e-07
1.48624e-09
2.1327e-08
0
8.01728e-09
0
8.09461e-08
6.22042e-07
2.78775e-10
1.4399e-10
0
0
9.01489e-09
1.96221e-09
4.78056e-08
1.98662e-05
5.04481e-08
0.000447468
6.53541e-07
0.000219502
7.86519e-07
0.00334222
2.76721e-10
5.52567e-09
2.68755e-08
1.51117e-07
6.6516e-07
9.57229e-10
6.96826e-06
2.6402e-06
5.71135e-06
7.05025e-05
7.10508e-09
6.69965e-08
0
4.99984e-07
0.00250757
1.03937e-06
0.000244153
1.19351e-05
0.00193235
0.000237622
2.06619e-08
2.41065e-10
3.82158e-06
0.0019846
9.79102e-08
3.59966e-07
7.40969e-09
4.80352e-05
9.81043e-10
0
2.2823e-07
1.15843e-05
5.34979e-05
0.00266859
0.00590427
6.22178e-08
4.8806e-06
3.98755e-07
4.66975e-10
0.000487538
1.11209e-06
5.47834e-05
1.36738e-08
0.00372884
2.87887e-09
3.20176e-07
3.60456e-08
0
4.62844e-05
1.33131e-07
7.18374e-08
3.19033e-05
0.000989276
7.68766e-09
3.53013e-09
2.31627e-06
0.000111817
6.47489e-06
9.03449e-07
0.000353563
1.57254e-07
1.12802e-09
1.9463e-07
2.30695e-05
2.51289e-08
0
4.44748e-07
3.99848e-05
0.00218314
6.89106e-09
2.45854e-08
3.22567e-06
0.000261633
2.15919e-10
1.02707e-09
6.62408e-07
5.36937e-06
9.55268e-06
0.0001116
0.0044689
1.84061e-06
0.000413077
1.9383e-05
8.30789e-06
0.00297357
1.74844e-05
0.000100135
0.00375165
0.00909874
0.00141226
3.23157e-07
1.18217e-06
1.20783e-05
2.19064e-09
1.58349e-08
1.2613e-07
9.38644e-07
0
6.46305e-10
1.08385e-08
5.43271e-08
0
3.58575e-09
0
0.000671959
1.00192e-05
2.08156e-06
3.50488e-07
4.08753e-05
2.22234e-09
4.55186e-07
0
0.00332678
7.5481e-07
1.76728e-07
8.22067e-05
1.62503e-08
0.000426867
4.5152e-08
7.10722e-06
5.84624e-10
1.93446e-06
3.24338e-08
0.000112127
0.00579838
5.76468e-09
0
7.65106e-08
7.49322e-07
8.33132e-05
1.16607e-07
1.24042e-09
1.07331e-05
0.000810695
1.78454e-08
0
2.24463e-08
6.84462e-10
0
1.36743e-09
7.18314e-07
7.17087e-06
0.00122187
6.41106e-05
0.00737278
0.000809954
2.9014e-06
7.42549e-06
3.68871e-07
2.41949e-07
5.87947e-07
9.7511e-05
0.00292693
1.71481e-08
1.44256e-08
3.67635e-08
8.31466e-06
0.000374244
6.31081e-10
3.2047e-06
0.000223177
7.48665e-08
5.36888e-07
0.00873224
1.11299e-08
1.71278e-06
0
0.000143873
6.11688e-07
2.60572e-05
2.00379e-06
5.5856e-09
3.19489e-08
2.16583e-06
2.08265e-07
1.60819e-10
1.4564e-05
4.71731e-06
0.00123946
7.60737e-07
0.000164292
1.21673e-06
4.29067e-07
0.00489608
3.72246e-08
4.21686e-09
1.03944e-06
6.92708e-05
0
7.9389e-08
2.79933e-08
1.52627e-05
0.000665251
1.46628e-09
0.000491583
0.00138218
2.58354e-08
1.06379e-05
0.00024736
0.000127792
3.19969e-07
4.37582e-07
0.00191037
0
4.92612e-10
9.65125e-08
0
1.43632e-08
0
0
0
4.1562e-09
1.10146e-09
0
0
0
0
2.09608e-07
2.30108e-05
3.09796e-09
0.00129436
0
0
0
3.25335e-07
4.5049e-10
5.57913e-06
1.29187e-08
0
1.34315e-08
9.74008e-09
5.03133e-06
0.000171163
4.41138e-07
3.28044e-07
0.000113013
0.00243823
2.90804e-08
1.94342e-08
9.5148e-06
0.000312491
7.26034e-05
2.38162e-07
0.00108036
8.40629e-05
0.000514847
0.000140761
5.74069e-07
0.00139699
1.96644e-05
0.00101801
3.35999e-06
0.000136478
1.56492e-06
0.000137206
0.00545606
3.11645e-07
3.51287e-08
9.77618e-08
1.29341e-05
0.000751137
1.36422e-09
4.99429e-09
8.91435e-07
7.74696e-05
0
0.000192244
9.08786e-07
5.85559e-07
0.00416707
6.24808e-08
3.78131e-08
1.76171e-05
0.000560699
0.000478707
0.00218343
0.000318795
1.85259e-06
1.02176e-06
0.00698817
8.29883e-08
0.000277207
0.00112029
2.64986e-05
2.1153e-05
3.15511e-09
1.04219e-08
1.19153e-10
2.08887e-07
4.20249e-08
0
3.37731e-09
3.84557e-09
1.19666e-10
5.51407e-08
0
3.52732e-09
4.78047e-10
0
8.11918e-09
2.91898e-10
1.12178e-07
0
7.91775e-09
4.11002e-10
7.90282e-10
0
6.44809e-09
2.14597e-08
2.87732e-10
8.32645e-07
8.12414e-10
1.64523e-07
8.27877e-08
3.97372e-07
0
7.59317e-09
0.000681193
3.18619e-06
1.80523e-06
0.000206463
9.75766e-05
3.06991e-05
0.00444922
1.54629e-05
0.000367636
1.38238e-06
0.00576465
1.32253e-06
0.000104494
9.41201e-05
3.62969e-05
9.62852e-08
0.000798122
1.01094e-07
1.43318e-05
0.00260175
1.30967e-05
0.000599969
2.37462e-06
2.64852e-06
0.000149143
0.000171221
1.79711e-07
6.48153e-05
0.00140462
2.12099e-07
2.25196e-05
0.00384672
2.47059e-05
2.7006e-08
0
1.5532e-09
2.86059e-06
7.38439e-07
1.82044e-09
3.87714e-09
0
3.1899e-07
1.08609e-10
3.71873e-08
4.31982e-08
1.31987e-08
0
6.74707e-10
1.54869e-06
1.86726e-09
3.50797e-07
8.63189e-10
1.78229e-09
0
1.62783e-07
0
1.68941e-08
0.00174582
1.3508e-06
0.000264083
1.57534e-05
0.0021205
0.00323665
2.41081e-06
0.000451385
2.57959e-05
0.00330379
2.5972e-10
5.42584e-09
3.30181e-08
1.34784e-07
6.86376e-07
1.10225e-09
0.000839643
8.73081e-06
2.30155e-06
2.93145e-08
8.97757e-05
6.48284e-09
6.47108e-08
0
8.63897e-05
6.1782e-07