# vtk DataFile Version 2.0
Unstructured Grid by M++
ASCII
DATASET UNSTRUCTURED_GRID
POINTS 4225 float
  5.312500   3.437500 0
  8.750000   1.562500 0
  5.625000   2.187500 0
  9.062500   0.312500 0
  9.375000   0.937500 0
  9.687500   0.625000 0
  2.812500   1.562500 0
  4.687500   5.625000 0
  8.125000   3.750000 0
  5.625000   1.875000 0
  5.312500   3.125000 0
  8.750000   1.250000 0
  9.375000   1.250000 0
  9.687500   0.312500 0
  9.375000   1.562500 0
  3.750000  10.000000 0
  4.687500   5.312500 0
  8.125000   3.437500 0
  5.625000   1.562500 0
  5.312500   2.812500 0
  4.375000   6.562500 0
  7.812500   4.687500 0
  5.000000   3.750000 0
  4.687500   5.000000 0
  8.125000   3.125000 0
  5.625000   1.250000 0
  5.312500   2.500000 0
  7.500000   5.625000 0
  4.375000   6.250000 0
  7.812500   4.375000 0
  9.375000   0.625000 0
  8.437500   4.375000 0
 10.000000   7.812500 0
  6.562500   9.687500 0
  5.937500   9.687500 0
  6.250000   9.687500 0
  6.562500   8.437500 0
  0.625000  10.000000 0
  2.500000   2.500000 0
  3.750000   0.937500 0
  6.875000   0.312500 0
  0.937500   0.625000 0
  6.875000   0.625000 0
  0.937500   0.937500 0
  5.000000   0.312500 0
  3.437500  10.000000 0
  5.000000   2.500000 0
  4.687500   3.750000 0
 10.000000   8.125000 0
  6.562500  10.000000 0
  1.875000   3.125000 0
  7.812500   2.812500 0
  4.375000   4.687500 0
  1.250000   5.625000 0
  7.187500   5.312500 0
  1.562500   4.375000 0
  7.500000   4.062500 0
  6.562500   7.812500 0
  6.250000   9.062500 0
  2.187500   1.875000 0
  8.125000   1.562500 0
  4.687500   3.437500 0
  5.312500   2.187500 0
  3.437500   1.250000 0
  2.812500   2.187500 0
  3.125000   0.937500 0
  4.375000   0.625000 0
  4.062500   5.937500 0
 10.000000   5.625000 0
  0.625000   7.812500 0
  6.562500   7.500000 0
  3.437500   8.437500 0
  9.375000   8.125000 0
  5.937500  10.000000 0
  3.750000   7.187500 0
  9.687500   6.875000 0
  6.250000   8.750000 0
  7.500000   7.187500 0
  8.125000   4.687500 0
  7.812500   5.937500 0
  1.250000  10.000000 0
  7.187500   9.687500 0
  5.312500  10.000000 0
  7.187500   5.937500 0
  4.687500   4.062500 0
  4.375000   5.312500 0
  6.875000   7.187500 0
  2.500000   0.625000 0
  8.437500   0.312500 0
  3.125000   2.187500 0
  3.437500   0.937500 0
  5.000000   2.812500 0
  3.437500   1.875000 0
  3.750000   0.625000 0
  7.500000   4.687500 0
  1.562500   5.000000 0
  5.000000   3.125000 0
  2.500000   1.562500 0
  8.437500   1.250000 0
  7.812500   3.437500 0
  1.875000   3.750000 0
  5.312500   1.875000 0
  8.125000   2.187500 0
  2.187500   2.500000 0
  5.625000   0.625000 0
  8.437500   0.937500 0
  2.500000   1.250000 0
  4.062500  10.000000 0
 10.000000   5.312500 0
  4.062500   5.625000 0
  6.562500   7.187500 0
  0.625000   7.500000 0
  1.562500   4.062500 0
  7.500000   3.750000 0
  7.500000   3.437500 0
  1.562500   3.750000 0
  9.687500   6.562500 0
  3.750000   6.875000 0
  6.250000   8.437500 0
  0.312500   8.750000 0
  1.250000   5.312500 0
  7.187500   5.000000 0
  9.375000   7.812500 0
  3.437500   8.125000 0
  0.937500   6.562500 0
  6.875000   6.250000 0
  7.187500   3.437500 0
  1.250000   3.750000 0
  0.937500   5.312500 0
  6.875000   5.000000 0
  6.562500   5.937500 0
  0.625000   6.250000 0
  6.250000   7.187500 0
  0.312500   7.500000 0
  1.250000   4.062500 0
  7.187500   3.750000 0
  6.875000   4.687500 0
  0.937500   5.000000 0
  1.875000   1.562500 0
  7.812500   1.250000 0
  6.875000   3.437500 0
  0.937500   3.750000 0
  7.500000   0.937500 0
  1.562500   1.250000 0
  0.937500   4.062500 0
  6.875000   3.750000 0
  1.562500   1.562500 0
  7.500000   1.250000 0
  7.187500   2.187500 0
  1.250000   2.500000 0
  4.687500   0.625000 0
  8.750000   0.312500 0
  2.812500   0.625000 0
  7.187500   1.250000 0
  1.250000   1.562500 0
  0.937500   2.500000 0
  6.875000   2.187500 0
  0.625000   3.750000 0
  6.562500   3.437500 0
  1.250000   1.250000 0
  7.187500   0.937500 0
  6.875000   2.812500 0
  0.937500   3.125000 0
  6.562500   4.062500 0
  0.625000   4.375000 0
  7.500000   0.312500 0
  1.562500   0.625000 0
  7.187500   1.562500 0
  1.250000   1.875000 0
  6.875000   9.687500 0
  0.937500  10.000000 0
  0.625000   4.062500 0
  6.562500   3.750000 0
  5.000000  10.000000 0
  8.437500  10.000000 0
  2.812500   9.062500 0
  8.750000   8.750000 0
  6.250000  10.000000 0
  6.562500   8.750000 0
  2.500000  10.000000 0
  8.437500   9.687500 0
  4.375000   5.625000 0
  1.875000   4.062500 0
  7.812500   3.750000 0
 10.000000   6.562500 0
  4.062500   6.875000 0
  7.500000   5.000000 0
  6.875000   7.500000 0
  9.687500   7.812500 0
  3.750000   8.125000 0
  7.187500   6.250000 0
 10.000000   8.437500 0
-10.000000  10.000000 0
 -4.687500   2.500000 0
  5.000000  -4.375000 0
-10.000000   5.312500 0
 -9.687500   4.062500 0
-10.000000 -10.000000 0
 -5.000000   2.500000 0
 -8.437500   4.375000 0
 -0.625000   1.875000 0
 -1.250000   4.375000 0
 -4.687500   6.250000 0
 -0.937500   2.812500 0
 -4.375000   4.687500 0
 -1.250000   4.062500 0
 -4.687500   5.937500 0
 -2.812500  10.000000 0
 -1.250000   3.750000 0
 -4.687500   5.625000 0
 -0.312500   0.937500 0
-10.000000   7.812500 0
 -1.250000   4.687500 0
  1.875000  -6.875000 0
 -9.375000   9.375000 0
 -9.062500   8.437500 0
 -9.375000   9.687500 0
 -5.937500   7.812500 0
 -9.687500   9.062500 0
 -5.625000   7.812500 0
 -5.312500   6.562500 0
 -8.750000   8.437500 0
 -5.000000   5.312500 0
 -5.312500   2.500000 0
 -8.750000   4.375000 0
 -5.625000   3.750000 0
 -9.062500   5.625000 0
 -9.375000  10.000000 0
 -5.937500   8.125000 0
 -9.062500   8.750000 0
 -5.625000   6.875000 0
 -6.250000   5.312500 0
 -9.687500   7.187500 0
  0.000000   0.312500 0
 -0.625000   4.062500 0
  5.937500  -9.375000 0
  5.000000   5.000000 0
 -0.937500   5.312500 0
  1.562500   6.875000 0
 -4.375000   7.187500 0
  5.625000  -8.125000 0
  9.375000 -10.000000 0
  5.937500  -8.125000 0
 -9.687500   6.875000 0
  0.000000   0.000000 0
  9.375000   6.562500 0
  3.437500   6.875000 0
 -2.500000   7.187500 0
 -7.812500  -4.375000 0
 -5.937500   5.000000 0
 -9.375000   6.875000 0
  0.312500   0.000000 0
-10.000000   4.687500 0
 -7.187500  -6.250000 0
 -9.062500   5.000000 0
 -6.250000   5.625000 0
 -9.687500   7.500000 0
  0.000000   0.625000 0
 -9.062500   9.062500 0
 -5.625000   7.187500 0
 -5.000000   6.250000 0
 -7.187500   2.812500 0
  5.625000   4.062500 0
 -0.312500   4.375000 0
  2.187500   5.937500 0
  8.125000   5.625000 0
 -3.750000   6.250000 0
  6.250000  -9.062500 0
  3.125000   2.500000 0
 -2.812500   2.812500 0
  5.312500   5.312500 0
 -0.625000   5.625000 0
  9.375000  -9.687500 0
 -0.625000   2.812500 0
  1.875000   4.375000 0
 -4.062500   4.687500 0
 -0.312500   1.562500 0
-10.000000   8.437500 0
 -0.937500   4.062500 0
  5.625000  -9.375000 0
 -1.250000   5.312500 0
  1.875000  -6.250000 0
  5.312500  -8.125000 0
  0.312500   5.000000 0
  6.250000   4.687500 0
 -5.625000   5.312500 0
 -8.750000  -3.437500 0
  4.062500   1.875000 0
 10.000000   1.562500 0
 -1.875000   2.187500 0
 -8.437500  -4.687500 0
 -9.375000  -1.562500 0
  1.250000  -6.250000 0
 -5.312500   7.187500 0
  6.250000  -9.375000 0
 -9.375000  -1.875000 0
-10.000000   5.000000 0
 -8.750000  -3.750000 0
 -5.937500   5.312500 0
 -9.375000   7.187500 0
  0.312500   0.312500 0
  0.937500  -5.312500 0
 -5.625000   8.125000 0
 -5.312500   6.875000 0
 -9.375000   9.062500 0
 -0.312500   3.125000 0
 -7.500000   2.812500 0
  5.312500   4.062500 0
 -0.625000   4.375000 0
  1.875000   5.937500 0
 -4.062500   6.250000 0
  5.937500  -9.062500 0
  1.562500   7.187500 0
 -4.375000   7.500000 0
  5.625000  -7.812500 0
  5.000000   5.312500 0
 -0.937500   5.625000 0
  9.062500  -9.687500 0
  5.937500   5.312500 0
  0.000000   5.625000 0
 -5.937500   5.937500 0
 -9.062500  -2.812500 0
  1.875000   5.000000 0
 -4.062500   5.312500 0
  5.937500 -10.000000 0
 -0.625000   3.437500 0
  5.312500  -7.500000 0
 -1.250000   5.937500 0
 -0.312500   2.187500 0
-10.000000   9.062500 0
  0.937500   8.750000 0
 -5.000000   9.062500 0
  5.000000  -6.250000 0
  8.750000  -9.375000 0
  2.812500  -9.062500 0
 -9.687500   9.375000 0
 -5.000000   5.625000 0
 -9.062500  -2.187500 0
 -0.625000   0.312500 0
  9.062500  -6.562500 0
 -0.625000   2.500000 0
 -4.062500   4.375000 0
 -8.125000   9.062500 0
 -2.187500   8.750000 0
  3.437500   9.687500 0
 -2.500000  10.000000 0
 -0.312500   1.250000 0
-10.000000   8.125000 0
 -1.250000   5.000000 0
 -2.187500   8.437500 0
 -8.125000   8.750000 0
  1.875000  -6.562500 0
  5.312500  -8.437500 0
 -9.687500   8.437500 0
  0.000000   1.562500 0
 -9.687500  10.000000 0
 -9.375000   8.750000 0
 -0.625000   3.125000 0
  1.875000   4.687500 0
 -4.062500   5.000000 0
  0.625000   9.687500 0
 -5.312500  10.000000 0
  4.687500  -5.312500 0
  3.750000   9.062500 0
 -8.125000   9.687500 0
 -2.187500   9.375000 0
 -0.312500   1.875000 0
-10.000000   8.750000 0
 -0.937500   4.375000 0
  2.187500  -7.187500 0
  5.625000  -9.062500 0
 -1.250000   5.625000 0
  3.750000   8.750000 0
 -2.187500   9.062500 0
 -8.125000   9.375000 0
  1.875000  -5.937500 0
  5.312500  -7.812500 0
  4.375000   6.875000 0
 -1.562500   7.187500 0
 -7.500000   7.500000 0
  8.437500  -8.125000 0
  2.500000  -7.812500 0
  0.000000   0.937500 0
 -9.687500   7.812500 0
 -0.937500   4.687500 0
  4.062500   7.812500 0
 -1.875000   8.125000 0
 -7.812500   8.437500 0
  2.187500  -6.875000 0
  5.625000  -8.750000 0
  5.625000   3.125000 0
 -0.312500   3.437500 0
  2.187500   5.000000 0
 -3.750000   5.312500 0
  6.250000 -10.000000 0
 -7.500000   3.125000 0
  5.000000   5.625000 0
 -0.937500   5.937500 0
  9.062500  -9.375000 0
  1.562500   7.500000 0
 -4.375000   7.812500 0
  5.625000  -7.500000 0
  5.937500  -8.750000 0
 -9.062500   9.375000 0
 -5.625000   7.500000 0
 -8.750000   8.125000 0
 -5.312500   6.250000 0
 -4.375000   2.812500 0
  5.312500  -4.062500 0
  5.937500   3.125000 0
  0.000000   3.437500 0
  2.500000   5.000000 0
[...]
CELL_DATA 4096
SCALARS scalar_value float 1
LOOKUP_TABLE default
0.00010992
0.000108351
0.000105337
0.000108863
6.51501e-05
6.39767e-05
0.0262362
0.0205933
5.23598e-05
0.0748311
0.0640306
3.43393e-05
3.1867e-05
2.88367e-05
5.7301e-05
0.00890789
9.22838e-05
0.00863161
9.96664e-05
6.12785e-05
0.000263333
0.00022333
0.000158064
1.53129e-05
1.34473e-05
2.19937e-05
2.5474e-05
0.0028801
0.00221229
0.0162978
0.00884289
0.00993865
0.0183528
0.000140096
0.000154353
0.000254037
0.000233868
0.000191927
0.000138167
0.000455765
0.0346693
0.000541963
0.0363391
0.0037051
0.000132063
0.00283966
0.00359158
0.00468157
0.000259589
0.00477998
0.00426461
0.00182578
0.00205619
9.00375e-05
0.00270494
7.38377e-05
0.00213501
3.83985e-05
0.00157309
4.7889e-05
0.00199813
0.000165921
0.00017411
0.00080126
0.0460684
0.000235476
0.0257345
0.0111923
0.00493042
0.0144613
0.0058189
0.000900356
0.000671674
0.0439391
0.000179941
0.0219919
0.000270849
0.00113918
1.83855e-05
0.00279937
0.0252032
0.00261018
2.69928e-05
0.0126343
1.91888e-05
0.00297743
0.0300749
0.00297618
3.03795e-05
0.0160107
0.000134074
0.0182035
6.25136e-05
0.00465895
0.0231947
0.00180654
2.90044e-05
0.000923312
2.28646e-05
1.32589e-05
0.00221338
3.5254e-05
0.00121405
3.00084e-05
1.87691e-05
0.0508684
0.006408
0.0264903
0.00226082
0.0720324
0.0227087
0.00444725
0.0696378
0.0059759
0.00623208
0.0491432
0.000817477
0.0114656
0.00101374
0.0220474
0.000988222
0.0191491
0.000737779
0.00937429
0.000438108
0.0134628
0.000424849
0.0117422
0.00224863
0.00981888
2.33296e-05
1.6992e-05
0.00258692
0.0208188
1.71092e-05
9.14761e-06
0.00190177
0.00758836
1.96209e-05
1.23214e-05
0.00234934
0.0169492
1.54696e-05
6.19349e-06
0.0574531
0.00174387
1.69696e-05
0.0525792
0.00319623
3.68302e-05
0.0356601
0.00423708
1.82821e-05
0.0467952
0.00322626
3.66068e-05
0.0298244
0.00397887
2.66758e-05
0.0550374
0.00190621
6.7715e-06
0.00126242
4.6012e-05
0.00248927
5.81958e-05
0.014622
0.00364426
5.39111e-05
3.70297e-05
0.00165307
5.90298e-05
0.00304357
6.88964e-05
0.0185526
0.00415524
5.88418e-05
0.00269177
0.0401752
0.00768986
0.0398059
0.0705312
0.0137968
0.0809418
5.81267e-06
1.54359e-06
0.00835088
0.00552527
0.00617535
0.00954105
3.57257e-05
6.63286e-05
2.50854e-05
5.01707e-05
7.85236e-05
0.000154997
0.00322992
1.24572e-05
0.000178469
0.00627882
4.09437e-05
0.00714537
0.000108597
0.000198478
0.00281699
9.89685e-06
0.00960329
0.000178829
0.00598828
3.50895e-05
0.000320085
0.0121786
0.000145696
0.000253051
0.0117808
0.00015814
0.00358321
0.000395592
0.0140011
0.000275727
0.0861437
0.0123571
0.000131594
0.00744474
0.000479989
0.00481852
0.000193168
0.0219295
0.000147403
0.000248154
0.0104549
0.000175297
0.000303223
0.0126953
0.00464924
0.000477856
0.0976095
0.0122958
0.000116531
0.00909644
0.000535097
8.79649e-05
4.99164e-05
0.00168854
8.55477e-05
0.0112468
0.000342
0.0324237
6.8093e-05
0.00220384
0.000107624
3.63255e-06
0.00126751
0.00898183
3.90721e-06
0.00132368
0.0171505
1.96694e-06
2.45249e-06
8.64188e-07
1.31292e-06
5.25791e-06
2.70052e-06
0.0015792
0.00835373
9.66902e-06
7.43355e-06
0.0015072
0.0275493
2.91988e-06
0.00179307
0.0173437
6.63343e-06
4.07237e-06
0.00836216
0.0275915
4.55975e-05
9.06669e-05
6.02916e-06
0.00128387
1.2811e-05
6.39365e-05
0.00011782
8.72166e-06
0.00157804
1.60648e-05
0.00140749
2.30308e-06
0.0203854
0.00145003
4.78627e-06
0.0113586
9.7371e-05
0.0145667
6.46628e-05
0.00513769
0.0285845
0.049855
0.0223688
5.5664e-07
8.94978e-07
0.00108636
0.00698977
3.10906e-06
0.00122206
0.0142168
1.63818e-06
1.6189e-06
2.83399e-06
0.000912349
0.00539669
2.41306e-06
0.00110706
0.0116091
1.33138e-06
1.04981e-06
1.95092e-06
3.52495e-07
5.98513e-07
0.00206232
8.22928e-06
0.0249603
0.00209611
1.35965e-05
0.0135959
0.0615293
0.00118637
0.00194015
7.49419e-06
0.0209586
0.0018365
1.16228e-05
0.0107407
0.137778
0.00542797
3.49767e-05
0.00367365
0.0245909
3.53816e-05
1.87632e-05
0.00314175
0.0113531
4.80737e-05
2.5937e-05
0.00333494
0.0199875
3.32491e-05
1.29486e-05
0.00266117
0.00877754
4.17247e-05
2.51025e-07
3.91718e-07
0.0547896
0.000977456
0.0703494
0.00252819
0.0211565
0.0057083
0.00012401
0.00410788
0.0628805
0.00457171
0.0416097
0.00594357
0.0539995
0.10049
0.0856725
0.000945592
0.0163837
0.000983483
1.05651e-06
0.00933449
0.000369358
4.67972e-05
0.00644973
0.0449016
0.0852022
0.0958065
0.0757651
0.000887801
0.0138095
0.000856277
8.19082e-07
0.00738667
0.0004901
0.0574636
0.00116994
0.0672871
0.00276542
0.0166523
9.76864e-05
0.00500267
0.000107023
0.00336358
0.0558432
0.00460982
0.0347318
0.00557243
0.000692833
0.0465437
0.0106701
0.00305065
0.10471
0.000478484
0.0356624
0.0067317
0.00236718
0.0938344
0.000624356
0.0408421
0.00717584
0.00316234
0.108322
0.000915331
0.0537807
0.011715
0.00410426
0.120928
0.0459017
0.00707745
0.0327008
0.0721316
0.0180376
0.00424017
0.0757795
0.00409756
0.00642086
0.0571983
0.000129101
4.89462e-08
5.5058e-08
0.000176398
7.48027e-08
8.83154e-08
0.00146966
2.62791e-06
0.0238755
0.00162746
5.71115e-06
0.0141421
0.00133193
7.83248e-06
0.00645329
0.000310239
1.64585e-07
2.14031e-07
1.57585e-07
0.0340318
0.00821716
0.047781
0.0672286
0.0101399
0.0847593
0.0739927
0.000236654
1.1208e-07
1.38883e-07
9.73485e-08
0.0868991
0.0278353
0.0821135
0.0565458
0.0623486
0.0227451
0.0037922
0.00132121
0.0695399
0.000653986
0.015115
0.0239249
0.0022079
0.0159958
0.000971807
0.0580711
0.000671948
0.0173654
0.0305673
0.103516
1.54698e-05
0.00395997
0.000421202
0.00599462
0.104085
5.52528e-05
0.0083373
0.00040352
0.0100847
0.0261944
0.000265851
0.000282879
0.0128335
0.0676086
0.00126204
0.103171
1.95688e-05
0.00455043
6.47339e-05
0.00873945
0.000375134
0.00852784
0.000361378
0.00474618
0.0335463
0.000376501
0.000284367
0.0115742
0.0752295
0.00160598
0.0329514
0.0134103
0.0952708
0.0408118
0.0172914
0.036821
0.0870982
0.0895318
0.0659506
0.0561438
0.00063311
0.0587549
0.00156143
0.0408394
0.000549786
0.0581085
0.00310695
0.0099905
7.94526e-05
0.00365459
3.60465e-05
0.0420297
0.00443543
0.0587868
0.00136728
0.0369273
0.000439114
0.0631093
0.00296132
0.0129162
8.92551e-05
0.00431224
0.0488154
0.00456261
4.84371e-06
3.15658e-06
0.0313077
0.00151811
0.035079
0.000872117
0.0282041
0.147047
0.000362233
1.026e-05
0.000659541
0.175185
0.0154128
0.000107507
8.3678e-05
0.00902545
0.000269667
0.00897799
2.94692e-05
0.0055901
7.70702e-06
0.0023971
0.120757
0.0220704
0.000277026
3.5708e-06
0.000707139
0.10614
0.0221348
0.000314106
2.61631e-06
0.000548703
7.43419e-05
0.00897079
0.000279932
0.0102741
3.31722e-06
0.0350233
0.00150152
0.0365048
0.000798906
1.38183e-05
0.000871687
3.92541e-06
0.038543
3.38541e-06
0.00145783
0.0372402
0.000717062
1.81513e-05
0.00113433
0.0292952
8.7767e-06
0.00215389
3.10133e-06
1.15076e-05
0.131147
0.028883
0.000420208
0.0330798
0.000933375
9.9556e-06
0.00102351
0.115044
0.0289402
0.00047729
0.0306415
0.000979879
7.54323e-06
0.000799085
0.0217542
0.0918366
0.000349086
0.0218799
0.047844
0.000670052
0.0154541
0.134054
0.000132734
1.82792e-06
0.000750332
0.00748271
0.139543
3.66611e-05
1.87217e-06
0.000416513
0.0284049
0.0993511
0.000531127
0.0279035
0.00100951
0.0205574
0.148537
0.000202504
6.18198e-06
0.00110116
0.0100462
0.158336
5.55361e-05
5.57554e-06
0.000610718
0.0273393
0.0845288
0.000579364
0.024999
0.00102096
0.0215415
0.135118
0.000239358
4.75696e-06
0.000891808
0.011634
0.157082
7.13676e-05
4.02245e-06
0.000459193
0.0209726
0.0782788
0.000380426
0.0196464
0.0385069
0.000677346
0.0161943
0.122202
0.00015644
1.35225e-06
0.000603959
0.00864099
0.138691
4.68542e-05
1.30911e-06
0.000310816
0.0461676
2.98431e-06
0.00118759
0.0432601
8.87706e-06
0.00220497
0.0442949
3.21509e-06
0.0012973
0.0385853
9.12115e-06
0.00222777
0.0471562
2.67651e-06
0.00106466
0.0322564
0.000374549
0.0477091
8.37154e-06
0.00214196
1.94463e-05
0.0353727
0.00311253
0.0371993
0.000630199
0.0416942
3.35164e-06
0.00138876
2.32438e-05
0.00144599
0.0338774
9.08495e-06
0.00221016
0.0471435
2.31552e-06
0.000934008
0.0292222
0.000300605
0.0517127
7.64866e-06
0.00204094
1.91341e-05
0.040995
0.00319732
0.0239745
0.000650532
0.0586397
0.026009
0.00400978
0.00178096
0.0811589
0.00630531
2.80652e-05
0.136879
0.0144108
0.000110286
0.144299
0.000999231
0.0523842
0.00534642
0.139058
0.000123106
0.017229
0.194828
0.00783455
2.39531e-06
0.000104193
9.61102e-06
0.000583942
0.0109407
0.039795
0.000515077
0.000564422
0.00597256
0.0894042
0.00223074
0.0258292
0.000619801
0.0708953
0.0179728
0.00225497
0.00129786
0.0675078
0.00516358
2.10143e-05
0.13061
0.013115
8.96926e-05
0.152207
0.000149409
0.00168613
4.90932e-06
0.00395902
1.85788e-05
0.000184557
0.00335951
1.19813e-05
0.101325
0.0195991
0.00778084
4.62241e-05
0.11159
0.00348174
0.000964047
0.0587868
0.00197584
6.26992e-06
0.000195422
0.00030299
0.011194
0.000168223
0.00510286
2.42568e-05
0.00709826
0.000341121
0.0150216
0.000263464
0.0600664
0.01401
0.00277554
9.08918e-06
0.0965652
0.0070964
3.78952e-05
0.11725
0.00208747
0.000715258
0.0493177
0.0199624
0.00222313
0.00170197
0.0776007
0.00687175
3.14138e-05
0.148655
0.0174123
0.000135784
0.169379
0.000118174
0.0001849
0.00140377
3.76865e-06
0.00361679
1.53688e-05
0.000210275
0.00065222
0.00754413
0.0307825
0.000359833
0.000624202
0.0184733
0.0129578
0.0802119
0.00174233
0.00150663
0.0698401
0.00705124
0.154912
0.0200838
0.000160078
0.192389
0.0136872
7.84622e-06
0.00581322
0.00284212
0.00212219
0.0220486
0.00218914
0.0883279
0.00898809
4.63966e-05
0.166832
0.0227442
0.000203237
0.185568
1.92874e-06
0.0294094
0.00412215
0.00235908
0.0935557
0.00843301
4.22497e-05
0.155571
0.0191581
0.000167665
0.160231
0.00169229
0.0198517
0.0657692
0.000406655
0.00575018
6.2071e-07
0.000730193
0.109438
0.016601
0.000180641
0.00381601
0.113129
1.38967e-05
9.77495e-07
0.000475572
0.00972217
0.134648
5.86057e-05
0.0159372
0.00772305
0.0184645
0.054492
0.000426456
0.00443632
4.60019e-07
0.000609501
0.0963862
0.0166662
0.000204441
0.00463851
0.118659
1.84357e-05
6.90821e-07
0.000366195
0.0106705
0.127909
7.17694e-05
0.012345
0.00653867
0.0297782
0.00867876
0.00446145
0.0186648
0.00675589
0.0655729
0.00649629
0.0358976
0.0151979
0.00044276
2.36776e-07
0.000397451
0.108769
0.0119869
0.000101167
0.0158395
0.0713601
0.000246866
0.120562
0.00631819
3.04353e-05
3.23101e-07
0.000203885
0.00544659
0.023746
0.00771857
0.0445323
0.0168881
0.000438747
3.33576e-07
0.000497725
0.119072
0.0114377
8.60828e-05
0.0164022
0.0835606
0.000226857
0.121118
0.00548535
2.39393e-05
4.77568e-07
0.000275677
1.22209e-08
0.000798431
0.0463811
0.00752298
0.00415031
0.12348
8.31785e-05
0.0132677
0.176965
0.0269134
0.000305556
0.161997
7.41364e-09
3.36652e-08
3.14113e-08
0.00414092
0.0330257
0.00306766
0.106624
0.0110905
6.28647e-05
0.174242
0.0250626
0.000252065
0.17514
2.02778e-08
1.97773e-08
2.59491e-09
4.41665e-09
0.00369293
0.00198827
5.88228e-06
0.0811972
0.0120411
0.00190901
0.000517954
0.0412883
0.00227291
0.0883326
0.00145741
0.0662833
0.00122189
0.0589776
0.00675436
0.154729
0.00822202
0.00187216
0.0787665
0.00899108
0.171901
0.0148267
0.0143493
0.0369949
0.00391203
0.12022
0.0143348
9.23995e-05
0.192323
0.00411042
0.0243777
0.00275848
0.0996497
0.0115477
6.76631e-05
0.184629
0.00198209
0.016599
0.00310456
0.000692497
0.0489771
0.0305765
0.0271409
0.00340098
0.111476
0.00185589
0.0414896
0.00488738
0.134131
0.00411164
0.0467049
0.000796733
0.0285386
7.34792e-06
1.53874e-05
7.58918e-06
0.000116417
1.09729e-05
0.000185967
1.11118e-07
1.19989e-07
2.36584e-07
2.9141e-08
5.79318e-08
5.25116e-08
2.53761e-08
6.96995e-07
1.08397e-07
7.74732e-08
5.06763e-08
7.05773e-08
5.37353e-09
2.40824e-09
3.65563e-09
6.80258e-10
4.56327e-07
2.25457e-05
1.59037e-05
1.04597e-05
2.95735e-06
4.73309e-06
4.0231e-09
1.00296e-06
2.14429e-05
6.81137e-07
1.80351e-05
6.89903e-09
1.28069e-08
1.40909e-09
9.45546e-07
6.19245e-05
1.04818e-06
3.20922e-05
1.55767e-06
3.30699e-05
1.01836e-07
2.16731e-07
4.77056e-08
2.00961e-08
6.74309e-07
9.64356e-07
6.32312e-07
4.43931e-07
6.89104e-05
4.73523e-05
1.45801e-06
3.08006e-05
0
1.28119e-07
1.0375e-10
3.14858e-05
2.57111e-06
2.01754e-07
1.3409e-06
3.03053e-07
2.08467e-06
4.02911e-10
4.58422e-07
4.32772e-05
2.64006e-06
5.05241e-08
2.83676e-06
0
1.89563e-07
1.69966e-10
3.03358e-07
1.81316e-06
2.43485e-09
0.000110533
0.000566332
3.48576e-08
2.38482e-05
3.60216e-09
4.43522e-08
3.9704e-05
5.45468e-09
0.000250451
7.65652e-08
5.24513e-05
0.000138805
6.51764e-08
3.10011e-05
5.54283e-09
0
0
3.65103e-05
3.03129e-06
5.21152e-08
0.00010082
5.14128e-06
2.52195e-07
2.49034e-10
3.44079e-06
1.65721e-07
0
5.67997e-05
2.34949e-06
1.17871e-07
0
1.56718e-06
1.78459e-07
1.51042e-10
4.56935e-07
1.78308e-05
2.27608e-06
2.75228e-05
3.02186e-08
1.47786e-06
1.48894e-06
1.03339e-06
9.96699e-10
8.12277e-09
1.56185e-08
1.08952e-05
6.39671e-10
2.80019e-10
4.63416e-10
5.49307e-09
9.0575e-09
8.25325e-06
1.29693e-07
3.976e-05
1.04661e-08
5.30859e-09
1.5704e-09
2.10478e-10
4.30205e-07
1.11437e-05
0.000243793
0
0
1.63211e-08
0
6.24714e-09
6.27447e-07
1.51317e-05
0.000320007
7.72527e-10
0
1.03504e-10
0
5.13169e-06
1.21916e-07
9.00346e-05
2.355e-06
0.000462382
3.94781e-05
1.76211e-08
8.9978e-07
1.69414e-05
1.94863e-07
9.64479e-06
0.000133954
0.000191195
4.80007e-06
0.000766588
7.36281e-05
2.02617e-05
1.32245e-06
0.000761431
0.000940313
1.62746e-09
1.06807e-09
1.62406e-09
2.5365e-09
0
2.81571e-06
2.46279e-09
0.000409261
1.52461e-09
2.84165e-07
8.7445e-05
3.62086e-08
0
1.46717e-05
1.26807e-06
1.61374e-05
0.00023967
2.09122e-06
5.04985e-05
2.51955e-08
0
0
2.78699e-07
2.55236e-10
1.10603e-05
0.000176711
0.000317673
0
8.17015e-09
7.52217e-10
1.43016e-07
6.8247e-05
2.13671e-08
7.33555e-09
2.46761e-09
3.29877e-08
6.75253e-06
4.89181e-06
6.9204e-10
7.36973e-06
1.06293e-09
2.64225e-07
0.000159776
7.51298e-06
1.02515e-05
1.05653e-06
0.000392644
2.78148e-07
2.74389e-10
0
4.33437e-07
7.62254e-06
1.30045e-07
6.55138e-06
7.76333e-05
1.79351e-06
0.000638382
4.11799e-07
4.08748e-10
1.11377e-10
7.26631e-07
1.26252e-05
0.00015067
0.000268629
1.13351e-06
4.57399e-08
6.05115e-07
0.00023268
1.0486e-06
1.86764e-07
1.71e-10
0
1.27573e-07
0
1.03746e-10
1.04252e-05
0.000356076
3.00973e-09
0
0
8.68178e-08
0
0
2.2823e-05
0.000379712
3.31209e-06
6.41588e-05
1.77001e-09
0
7.83969e-09
0
0
0
5.10099e-09
1.14675e-09
2.25396e-08
5.39459e-06
1.57906e-07
0.000101086
3.73278e-06
1.08973e-07
7.76341e-05
2.28317e-09
4.46257e-10
6.45387e-07
9.24878e-06
7.98778e-09
0
0
5.87058e-08
3.50006e-07
5.65117e-06
5.26259e-09
0
0
3.94561e-08
7.5974e-09
0
0
5.74966e-08
1.15733e-08
0
0
8.60734e-08
0
1.55671e-08
0
1.3605e-09
0
5.16188e-08
3.32696e-08
0
2.34268e-05
3.35474e-05
4.12038e-06
4.83313e-05
6.66689e-06
3.34314e-05
4.297e-08
0
2.32747e-08
0
1.33998e-08
3.5197e-09
5.38735e-10
3.68523e-09
0
0
1.6744e-05
2.04975e-08
1.40427e-06
2.36705e-09
3.81443e-08
0
0
0
8.315e-07
7.08178e-05
1.06566e-09
1.77996e-08
0
0
4.05725e-07
3.48609e-05
5.18352e-10
1.13545e-08
0
2.90458e-09
0
1.47598e-10
0
2.29054e-09
3.07302e-07
0.000152093
3.38212e-09
0
2.63645e-08
1.86611e-09
1.75173e-08
1.19696e-09
1.20266e-08
2.80221e-07
6.51648e-10
4.46317e-06
0.00101779
4.59877e-08
0
3.11479e-07
8.78977e-05
4.91226e-09
3.81972e-08
1.12377e-09
0
1.68216e-10
0
8.08059e-09
0
1.59233e-08
5.38523e-06
8.65161e-06
2.68414e-07
1.3284e-09
0
6.49382e-10
1.30973e-06
2.84876e-09
2.52402e-08
1.65897e-08
0
1.94386e-07
2.47473e-10
2.95007e-08
0.000133091
5.01197e-07
9.33726e-10
8.89489e-07
3.00327e-10
0
1.24701e-07
0
1.21542e-08
0
0
8.28167e-08
1.08436e-08
6.47178e-10
1.38606e-10
6.0036e-07
4.18545e-09
3.65054e-09
0
4.1202e-06
1.23166e-06
1.38201e-07
1.40172e-06
1.73145e-10
0.000325862
2.46579e-08
8.16653e-08
0
2.28868e-05
3.28729e-09
9.60005e-10
0
1.62225e-09
2.34547e-09
1.84992e-06
0
9.43372e-09
5.02795e-08
1.14201e-05
0
6.07456e-08
8.14678e-07
6.49303e-05
1.02438e-10
1.31364e-05
1.43716e-08
8.85901e-07
1.93248e-09
7.49456e-06
6.50079e-07
7.91446e-09
9.99314e-10
0.00119069
2.07816e-08
2.39068e-08
0
5.37906e-06
1.2055e-07
4.21221e-10
4.91471e-07
0
9.09177e-05
0
0
4.94883e-10
0
2.94589e-06
5.84877e-05
7.42556e-08
4.39958e-06
6.3338e-08
0
5.87045e-07
0.000165211
1.11121e-08
0
3.24064e-08
1.23932e-05
1.10174e-05
1.87143e-09
0
1.39275e-09
1.91585e-06
5.65682e-07
5.68525e-09
6.17182e-06
0
4.01443e-06
9.18914e-08
6.178e-05
1.0921e-08
1.15294e-09
1.17123e-06
2.65675e-07
2.16672e-10
0.000174437
0
5.96808e-08
4.61442e-08
1.07435e-05
3.37313e-07
2.78468e-08
2.96278e-05
0
8.78154e-10
7.23697e-10
8.48917e-07
0
3.35485e-10
0
3.80666e-09
4.55731e-06
0
5.47163e-08
7.02524e-09
4.3673e-10
0
4.02854e-07
2.25859e-07
3.52372e-07
3.88544e-10
3.89184e-05
1.28355e-06
6.23981e-06
8.2232e-09
0.000610013
3.67771e-10
4.0699e-07
1.92499e-10
1.31118e-08
1.58732e-05
0
9.71034e-08
9.62199e-08
8.74184e-05
1.43901e-06
2.23988e-09
2.64193e-06
0
4.85418e-09
0.000552003
1.11735e-08
7.38569e-06
1.8142e-07
9.53256e-05
1.11675e-05
2.8909e-08
0
4.96395e-08
0.000178344
8.30399e-10
1.63515e-07
1.44194e-10
9.49291e-07
4.69388e-09
0
2.07019e-09
1.80585e-07
5.76733e-06
0.000121045
0.000529105
1.522e-08
6.46601e-08
1.76038e-05
0
2.20576e-05
8.92208e-08
1.07829e-06
1.31505e-10
0.000300828
2.61443e-09
2.9511e-09
2.78282e-06
0
1.19492e-06
1.95028e-07
5.80853e-10
5.9879e-07
8.70376e-05
3.29151e-08
0
2.84747e-08
5.20894e-06
5.92905e-07
1.00242e-08
1.01013e-05
1.61374e-09
2.97639e-09
1.71147e-09
5.86647e-07
2.81357e-06
0
1.01e-07
7.53783e-07
0.00017495
0
1.7971e-08
4.04877e-08
1.12732e-05
0
0
7.24785e-09
1.65256e-07
0.000116126
2.47093e-06
0.00113158
2.13741e-08
1.39161e-05
3.18303e-07
1.42084e-05
0.000160871
2.91256e-07
9.72297e-06
0.000182299
0.000896223
8.17849e-05
1.86842e-08
2.18183e-05
1.83223e-07
0
3.08242e-09
3.73966e-06
9.86823e-09
0
5.1899e-10
5.90066e-07
4.1406e-10
0
2.35598e-10
0
2.23227e-05
1.24393e-06
2.54766e-08
3.94482e-09
1.24999e-06
6.6478e-09
4.43936e-09
0
0.000340345
2.21125e-07
1.60139e-09
1.78775e-06
2.35996e-10
2.29295e-05
3.98757e-08
1.01211e-07
0
1.92921e-07
3.25522e-10
2.53701e-06
0.000586816
5.83796e-09
0
5.99238e-06
7.68486e-09
2.58814e-06
3.36747e-08
0
1.61307e-07
4.54355e-05
7.57677e-10
0
1.61311e-07
1.20255e-10
0
0
8.31908e-09
1.0076e-07
5.46081e-05
1.28198e-06
0.000518618
2.88467e-05
3.66844e-08
1.88684e-06
4.62622e-09
2.2401e-09
3.59057e-07
2.23445e-06
0.000341557
3.34889e-10
1.01423e-10
6.4112e-08
1.2298e-07
2.21758e-05
0
4.14496e-07
5.83982e-06
7.9743e-10
5.56693e-09
0.00111994
1.30059e-08
1.96932e-08
0
5.45505e-06
4.09752e-08
4.48877e-07
4.7629e-05
0
6.85929e-09
2.54724e-08
8.13245e-06
0
2.59384e-06
6.40436e-08
4.81187e-05
9.50523e-09
4.15052e-06
4.82863e-07
4.25828e-09
0.00064934
5.55825e-10
1.48107e-08
1.1335e-08
2.59042e-06
0
8.82819e-08
2.09015e-10
2.48523e-07
4.52997e-05
0
2.05603e-05
0.000791731
1.8661e-10
1.70545e-07
1.91068e-05
3.26839e-06
9.46101e-07
4.24794e-09
0.000301041
1.66037e-10
2.09898e-09
7.94901e-10
0
1.90897e-06
3.59676e-08
4.2556e-09
2.7706e-10
0
2.68834e-07
0
0
0
0
7.42998e-08
3.95118e-07
0
9.11427e-05
0
0
0
3.38907e-09
0
8.11712e-08
0
0
7.29636e-08
0
7.03202e-08
1.0143e-05
5.84414e-07
3.10808e-09
2.73344e-06
0.00032818
1.02214e-07
1.38378e-10
1.4638e-07
2.07777e-05
1.66822e-06
2.14904e-09
0.000146148
2.15562e-06
0.000108365
3.81426e-06
5.71676e-09
0.00026375
1.84275e-06
3.67345e-05
4.40545e-08
3.21067e-06
3.00256e-07
3.27732e-06
0.000628951
3.02002e-09
4.17797e-10
5.45838e-08
2.0221e-07
4.62383e-05
0
9.33726e-09
9.4175e-09
2.61131e-06
0
5.14662e-06
7.87045e-07
5.96101e-09
0.000643488
1.41861e-07
2.86524e-10
2.99165e-07
4.2708e-05
1.8574e-05
0.000899412
9.42174e-06
1.05248e-06
1.11819e-08
0.0012195
1.29914e-09
9.56368e-06
0.000404244
0.000196385
6.08088e-07
1.8619e-07
0
1.5751e-10
1.83307e-09
1.21123e-06
0
1.00164e-09
1.22845e-07
0
7.81729e-07
0
6.1688e-10
2.63848e-08
0
1.76563e-07
1.39547e-10
1.09432e-06
0
8.53369e-10
3.95783e-08
0
0
2.69784e-07
1.50663e-10
2.27592e-10
9.97895e-06
0
8.46087e-09
1.71282e-06
3.7606e-09
0
1.38118e-09
2.54671e-05
3.9972e-08
3.77066e-06
5.09046e-06
8.34696e-05
5.43651e-07
0.00026209
1.83535e-05
1.15863e-05
1.55746e-08
0.00119975
1.72314e-06
2.28621e-06
4.16783e-05
7.13779e-07
7.93038e-10
7.99296e-05
3.1319e-07
2.25764e-07
0.00012894
8.55868e-06
2.08889e-05
2.88317e-08
2.29208e-06
3.48018e-06
6.10046e-05
1.5863e-09
1.41399e-06
0.000163252