# vtk DataFile Version 2.0
Unstructured Grid by M++
ASCII
DATASET UNSTRUCTURED_GRID
POINTS 4225 float
  5.312500   3.437500 0
  8.750000   1.562500 0
  5.625000   2.187500 0
  9.062500   0.312500 0
  9.375000   0.937500 0
  9.687500   0.625000 0
  2.812500   1.562500 0
  4.687500   5.625000 0
  8.125000   3.750000 0
  5.625000   1.875000 0
  5.312500   3.125000 0
  8.750000   1.250000 0
  9.375000   1.250000 0
  9.687500   0.312500 0
  9.375000   1.562500 0
  3.750000  10.000000 0
  4.687500   5.312500 0
  8.125000   3.437500 0
  5.625000   1.562500 0
  5.312500   2.812500 0
  4.375000   6.562500 0
  7.812500   4.687500 0
  5.000000   3.750000 0
  4.687500   5.000000 0
  8.125000   3.125000 0
  5.625000   1.250000 0
  5.312500   2.500000 0
  7.500000   5.625000 0
  4.375000   6.250000 0
  7.812500   4.375000 0
  9.375000   0.625000 0
  8.437500   4.375000 0
 10.000000   7.812500 0
  6.562500   9.687500 0
  5.937500   9.687500 0
  6.250000   9.687500 0
  6.562500   8.437500 0
  0.625000  10.000000 0
  2.500000   2.500000 0
  3.750000   0.937500 0
  6.875000   0.312500 0
  0.937500   0.625000 0
  6.875000   0.625000 0
  0.937500   0.937500 0
  5.000000   0.312500 0
  3.437500  10.000000 0
  5.000000   2.500000 0
  4.687500   3.750000 0
 10.000000   8.125000 0
  6.562500  10.000000 0
  1.875000   3.125000 0
  7.812500   2.812500 0
  4.375000   4.687500 0
  1.250000   5.625000 0
  7.187500   5.312500 0
  1.562500   4.375000 0
  7.500000   4.062500 0
  6.562500   7.812500 0
  6.250000   9.062500 0
  2.187500   1.875000 0
  8.125000   1.562500 0
  4.687500   3.437500 0
  5.312500   2.187500 0
  3.437500   1.250000 0
  2.812500   2.187500 0
  3.125000   0.937500 0
  4.375000   0.625000 0
  4.062500   5.937500 0
 10.000000   5.625000 0
  0.625000   7.812500 0
  6.562500   7.500000 0
  3.437500   8.437500 0
  9.375000   8.125000 0
  5.937500  10.000000 0
  3.750000   7.187500 0
  9.687500   6.875000 0
  6.250000   8.750000 0
  7.500000   7.187500 0
  8.125000   4.687500 0
  7.812500   5.937500 0
  1.250000  10.000000 0
  7.187500   9.687500 0
  5.312500  10.000000 0
  7.187500   5.937500 0
  4.687500   4.062500 0
  4.375000   5.312500 0
  6.875000   7.187500 0
  2.500000   0.625000 0
  8.437500   0.312500 0
  3.125000   2.187500 0
  3.437500   0.937500 0
  5.000000   2.812500 0
  3.437500   1.875000 0
  3.750000   0.625000 0
  7.500000   4.687500 0
  1.562500   5.000000 0
  5.000000   3.125000 0
  2.500000   1.562500 0
  8.437500   1.250000 0
  7.812500   3.437500 0
  1.875000   3.750000 0
  5.312500   1.875000 0
  8.125000   2.187500 0
  2.187500   2.500000 0
  5.625000   0.625000 0
  8.437500   0.937500 0
  2.500000   1.250000 0
  4.062500  10.000000 0
 10.000000   5.312500 0
  4.062500   5.625000 0
  6.562500   7.187500 0
  0.625000   7.500000 0
  1.562500   4.062500 0
  7.500000   3.750000 0
  7.500000   3.437500 0
  1.562500   3.750000 0
  9.687500   6.562500 0
  3.750000   6.875000 0
  6.250000   8.437500 0
  0.312500   8.750000 0
  1.250000   5.312500 0
  7.187500   5.000000 0
  9.375000   7.812500 0
  3.437500   8.125000 0
  0.937500   6.562500 0
  6.875000   6.250000 0
  7.187500   3.437500 0
  1.250000   3.750000 0
  0.937500   5.312500 0
  6.875000   5.000000 0
  6.562500   5.937500 0
  0.625000   6.250000 0
  6.250000   7.187500 0
  0.312500   7.500000 0
  1.250000   4.062500 0
  7.187500   3.750000 0
  6.875000   4.687500 0
  0.937500   5.000000 0
  1.875000   1.562500 0
  7.812500   1.250000 0
  6.875000   3.437500 0
  0.937500   3.750000 0
  7.500000   0.937500 0
  1.562500   1.250000 0
  0.937500   4.062500 0
  6.875000   3.750000 0
  1.562500   1.562500 0
  7.500000   1.250000 0
  7.187500   2.187500 0
  1.250000   2.500000 0
  4.687500   0.625000 0
  8.750000   0.312500 0
  2.812500   0.625000 0
  7.187500   1.250000 0
  1.250000   1.562500 0
  0.937500   2.500000 0
  6.875000   2.187500 0
  0.625000   3.750000 0
  6.562500   3.437500 0
  1.250000   1.250000 0
  7.187500   0.937500 0
  6.875000   2.812500 0
  0.937500   3.125000 0
  6.562500   4.062500 0
  0.625000   4.375000 0
  7.500000   0.312500 0
  1.562500   0.625000 0
  7.187500   1.562500 0
  1.250000   1.875000 0
  6.875000   9.687500 0
  0.937500  10.000000 0
  0.625000   4.062500 0
  6.562500   3.750000 0
  5.000000  10.000000 0
  8.437500  10.000000 0
  2.812500   9.062500 0
  8.750000   8.750000 0
  6.250000  10.000000 0
  6.562500   8.750000 0
  2.500000  10.000000 0
  8.437500   9.687500 0
  4.375000   5.625000 0
  1.875000   4.062500 0
  7.812500   3.750000 0
 10.000000   6.562500 0
  4.062500   6.875000 0
  7.500000   5.000000 0
  6.875000   7.500000 0
  9.687500   7.812500 0
  3.750000   8.125000 0
  7.187500   6.250000 0
 10.000000   8.437500 0
-10.000000  10.000000 0
 -4.687500   2.500000 0
  5.000000  -4.375000 0
-10.000000   5.312500 0
 -9.687500   4.062500 0
-10.000000 -10.000000 0
 -5.000000   2.500000 0
 -8.437500   4.375000 0
 -0.625000   1.875000 0
 -1.250000   4.375000 0
 -4.687500   6.250000 0
 -0.937500   2.812500 0
 -4.375000   4.687500 0
 -1.250000   4.062500 0
 -4.687500   5.937500 0
 -2.812500  10.000000 0
 -1.250000   3.750000 0
 -4.687500   5.625000 0
 -0.312500   0.937500 0
-10.000000   7.812500 0
 -1.250000   4.687500 0
  1.875000  -6.875000 0
 -9.375000   9.375000 0
 -9.062500   8.437500 0
 -9.375000   9.687500 0
 -5.937500   7.812500 0
 -9.687500   9.062500 0
 -5.625000   7.812500 0
 -5.312500   6.562500 0
 -8.750000   8.437500 0
 -5.000000   5.312500 0
 -5.312500   2.500000 0
 -8.750000   4.375000 0
 -5.625000   3.750000 0
 -9.062500   5.625000 0
 -9.375000  10.000000 0
 -5.937500   8.125000 0
 -9.062500   8.750000 0
 -5.625000   6.875000 0
 -6.250000   5.312500 0
 -9.687500   7.187500 0
  0.000000   0.312500 0
 -0.625000   4.062500 0
  5.937500  -9.375000 0
  5.000000   5.000000 0
 -0.937500   5.312500 0
  1.562500   6.875000 0
 -4.375000   7.187500 0
  5.625000  -8.125000 0
  9.375000 -10.000000 0
  5.937500  -8.125000 0
 -9.687500   6.875000 0
  0.000000   0.000000 0
  9.375000   6.562500 0
  3.437500   6.875000 0
 -2.500000   7.187500 0
 -7.812500  -4.375000 0
 -5.937500   5.000000 0
 -9.375000   6.875000 0
  0.312500   0.000000 0
-10.000000   4.687500 0
 -7.187500  -6.250000 0
 -9.062500   5.000000 0
 -6.250000   5.625000 0
 -9.687500   7.500000 0
  0.000000   0.625000 0
 -9.062500   9.062500 0
 -5.625000   7.187500 0
 -5.000000   6.250000 0
 -7.187500   2.812500 0
  5.625000   4.062500 0
 -0.312500   4.375000 0
  2.187500   5.937500 0
  8.125000   5.625000 0
 -3.750000   6.250000 0
  6.250000  -9.062500 0
  3.125000   2.500000 0
 -2.812500   2.812500 0
  5.312500   5.312500 0
 -0.625000   5.625000 0
  9.375000  -9.687500 0
 -0.625000   2.812500 0
  1.875000   4.375000 0
 -4.062500   4.687500 0
 -0.312500   1.562500 0
-10.000000   8.437500 0
 -0.937500   4.062500 0
  5.625000  -9.375000 0
 -1.250000   5.312500 0
  1.875000  -6.250000 0
  5.312500  -8.125000 0
  0.312500   5.000000 0
  6.250000   4.687500 0
 -5.625000   5.312500 0
 -8.750000  -3.437500 0
  4.062500   1.875000 0
 10.000000   1.562500 0
 -1.875000   2.187500 0
 -8.437500  -4.687500 0
 -9.375000  -1.562500 0
  1.250000  -6.250000 0
 -5.312500   7.187500 0
  6.250000  -9.375000 0
 -9.375000  -1.875000 0
-10.000000   5.000000 0
 -8.750000  -3.750000 0
 -5.937500   5.312500 0
 -9.375000   7.187500 0
  0.312500   0.312500 0
  0.937500  -5.312500 0
 -5.625000   8.125000 0
 -5.312500   6.875000 0
 -9.375000   9.062500 0
 -0.312500   3.125000 0
 -7.500000   2.812500 0
  5.312500   4.062500 0
 -0.625000   4.375000 0
  1.875000   5.937500 0
 -4.062500   6.250000 0
  5.937500  -9.062500 0
  1.562500   7.187500 0
 -4.375000   7.500000 0
  5.625000  -7.812500 0
  5.000000   5.312500 0
 -0.937500   5.625000 0
  9.062500  -9.687500 0
  5.937500   5.312500 0
  0.000000   5.625000 0
 -5.937500   5.937500 0
 -9.062500  -2.812500 0
  1.875000   5.000000 0
 -4.062500   5.312500 0
  5.937500 -10.000000 0
 -0.625000   3.437500 0
  5.312500  -7.500000 0
 -1.250000   5.937500 0
 -0.312500   2.187500 0
-10.000000   9.062500 0
  0.937500   8.750000 0
 -5.000000   9.062500 0
  5.000000  -6.250000 0
  8.750000  -9.375000 0
  2.812500  -9.062500 0
 -9.687500   9.375000 0
 -5.000000   5.625000 0
 -9.062500  -2.187500 0
 -0.625000   0.312500 0
  9.062500  -6.562500 0
 -0.625000   2.500000 0
 -4.062500   4.375000 0
 -8.125000   9.062500 0
 -2.187500   8.750000 0
  3.437500   9.687500 0
 -2.500000  10.000000 0
 -0.312500   1.250000 0
-10.000000   8.125000 0
 -1.250000   5.000000 0
 -2.187500   8.437500 0
 -8.125000   8.750000 0
  1.875000  -6.562500 0
  5.312500  -8.437500 0
 -9.687500   8.437500 0
  0.000000   1.562500 0
 -9.687500  10.000000 0
 -9.375000   8.750000 0
 -0.625000   3.125000 0
  1.875000   4.687500 0
 -4.062500   5.000000 0
  0.625000   9.687500 0
 -5.312500  10.000000 0
  4.687500  -5.312500 0
  3.750000   9.062500 0
 -8.125000   9.687500 0
 -2.187500   9.375000 0
 -0.312500   1.875000 0
-10.000000   8.750000 0
 -0.937500   4.375000 0
  2.187500  -7.187500 0
  5.625000  -9.062500 0
 -1.250000   5.625000 0
  3.750000   8.750000 0
 -2.187500   9.062500 0
 -8.125000   9.375000 0
  1.875000  -5.937500 0
  5.312500  -7.812500 0
  4.375000   6.875000 0
 -1.562500   7.187500 0
 -7.500000   7.500000 0
  8.437500  -8.125000 0
  2.500000  -7.812500 0
  0.000000   0.937500 0
 -9.687500   7.812500 0
 -0.937500   4.687500 0
  4.062500   7.812500 0
 -1.875000   8.125000 0
 -7.812500   8.437500 0
  2.187500  -6.875000 0
  5.625000  -8.750000 0
  5.625000   3.125000 0
 -0.312500   3.437500 0
  2.187500   5.000000 0
 -3.750000   5.312500 0
  6.250000 -10.000000 0
 -7.500000   3.125000 0
  5.000000   5.625000 0
 -0.937500   5.937500 0
  9.062500  -9.375000 0
  1.562500   7.500000 0
 -4.375000   7.812500 0
  5.625000  -7.500000 0
  5.937500  -8.750000 0
 -9.062500   9.375000 0
 -5.625000   7.500000 0
 -8.750000   8.125000 0
 -5.312500   6.250000 0
 -4.375000   2.812500 0
  5.312500  -4.062500 0
  5.937500   3.125000 0
  0.000000   3.437500 0
  2.500000   5.000000 0
[...]
CELL_DATA 4096
SCALARS scalar_value float 1
LOOKUP_TABLE default
1.45568e-06
1.4699e-06
1.33034e-06
1.40774e-06
7.81182e-07
7.47919e-07
0.00350752
0.00270276
5.6802e-07
0.0104062
0.00869254
3.54416e-07
3.20368e-07
2.82446e-07
6.37238e-07
0.000350124
1.11179e-06
0.000341388
1.22942e-06
6.98641e-07
5.25271e-06
4.55157e-06
2.92972e-06
1.35885e-07
1.1613e-07
2.04535e-07
2.43122e-07
0.000158027
0.000121911
0.00761868
0.00465904
0.00688717
0.010914
2.25211e-06
2.42332e-06
4.30655e-06
4.05144e-06
3.21799e-06
2.24797e-06
7.91503e-06
0.00248599
9.6452e-06
0.00259492
0.000202633
2.50576e-06
0.000142471
0.000179415
0.00025549
4.48458e-06
0.00405336
0.00262386
0.00143897
0.00236685
1.55749e-06
0.000123825
1.30981e-06
9.83777e-05
6.3962e-07
6.66619e-05
7.76667e-07
8.39363e-05
2.54511e-06
2.61035e-06
1.58163e-05
0.00375131
3.77385e-06
0.00185595
0.0013109
0.000222539
0.00171596
0.000261795
2.05597e-05
1.29423e-05
0.00360666
2.80178e-06
0.00158414
5.05984e-06
2.67056e-05
1.93388e-07
8.25315e-05
0.00223042
8.79815e-05
3.37841e-07
0.00117158
1.96042e-07
8.68455e-05
0.00269578
9.94304e-05
3.69569e-07
0.00150068
2.0268e-06
0.00130689
7.89313e-07
0.00017014
0.00241204
6.90571e-05
4.30922e-07
3.99273e-05
4.02018e-07
2.74942e-07
8.38379e-05
5.09429e-07
5.19493e-05
5.13511e-07
3.79041e-07
0.0048451
0.000258537
0.00301794
5.79437e-05
0.0074087
0.00190809
0.000135938
0.00751106
0.000410309
0.000221329
0.0054662
1.8487e-05
0.000754354
2.15013e-05
0.00148593
2.13005e-05
0.00128195
1.69613e-05
0.000614093
7.75122e-06
0.000737978
7.66268e-06
0.000642356
7.65049e-05
0.000902039
3.00481e-07
3.07016e-07
7.70744e-05
0.00182053
1.85331e-07
1.94792e-07
6.53477e-05
0.000691753
2.60107e-07
2.28801e-07
7.07351e-05
0.00146597
1.72604e-07
1.35429e-07
0.00514332
4.08223e-05
1.54784e-07
0.00499078
8.88474e-05
4.01007e-07
0.00352926
0.000136721
1.71462e-07
0.00437534
9.08653e-05
4.09583e-07
0.00290751
0.000129541
5.8665e-07
0.00486391
4.54537e-05
5.31694e-08
5.91118e-05
8.59097e-07
0.000103755
9.19151e-07
0.00148033
0.000134871
7.17789e-07
7.94041e-07
7.67501e-05
1.07415e-06
0.000125985
1.06001e-06
0.00190235
0.000152745
7.62798e-07
0.000176317
0.00390764
0.000307406
0.0047007
0.00750062
0.00115335
0.00907191
4.43653e-08
9.9069e-09
0.000823894
0.000538678
0.000738088
0.00114506
8.5637e-07
1.35315e-06
6.16078e-07
1.04922e-06
2.19036e-06
3.70224e-06
9.28092e-05
1.0707e-07
2.61605e-06
0.000214717
4.22552e-07
0.000585281
2.96485e-06
4.63968e-06
7.94271e-05
8.28159e-08
0.000427792
2.56347e-06
0.000202354
3.53068e-07
8.05089e-06
0.000535424
1.90967e-06
6.49159e-06
0.000520063
2.12037e-06
0.000233211
9.76136e-06
0.000692606
4.20975e-06
0.0122844
0.000540645
1.68534e-06
0.000444752
1.01518e-05
0.000387832
3.50036e-06
0.00217732
3.9398e-06
5.67992e-06
0.000464518
2.45766e-06
5.92267e-06
0.00290715
0.000302542
1.15745e-05
0.0142896
0.000534898
1.45746e-06
0.000544564
1.11101e-05
2.19657e-06
1.16795e-06
8.57252e-05
1.70298e-06
0.000795477
6.08265e-06
0.00271109
1.55561e-06
0.000111172
2.09128e-06
6.57677e-08
3.569e-05
0.000698081
4.41221e-08
3.22555e-05
0.00124981
1.881e-08
4.56825e-08
1.53444e-08
2.26405e-08
9.25278e-08
5.59744e-08
4.91517e-05
0.00070408
1.18012e-07
1.27152e-07
3.51759e-05
0.00206051
2.53731e-08
4.85905e-05
0.00137944
6.82412e-08
8.21233e-08
0.000583975
0.00231498
1.19186e-06
2.02299e-06
1.18281e-07
4.50957e-05
1.79987e-07
1.63333e-06
2.56838e-06
1.66462e-07
5.48016e-05
2.19227e-07
3.38144e-05
2.13307e-08
0.00149771
4.02963e-05
5.23922e-08
0.000888615
1.42893e-06
0.00103962
7.9549e-07
0.000186398
0.00301828
0.00710601
0.00319555
1.01762e-08
1.39072e-08
3.10103e-05
0.0005404
3.62204e-08
3.02059e-05
0.00102835
1.61766e-08
3.10243e-08
4.60908e-08
2.64183e-05
0.000415621
2.90023e-08
2.7761e-05
0.000834231
1.35759e-08
2.06954e-08
3.26722e-08
6.63397e-09
9.58443e-09
5.45165e-05
7.95965e-08
0.00202566
6.37879e-05
1.5629e-07
0.00116437
0.0143782
4.13091e-05
5.19299e-05
7.47508e-08
0.00168319
5.65065e-05
1.37661e-07
0.000911917
0.031223
0.00024228
6.70236e-07
0.000120643
0.00236357
4.06945e-07
4.23267e-07
0.000117107
0.00113647
6.57597e-07
5.1019e-07
0.000110459
0.00189603
3.93238e-07
2.99628e-07
9.99591e-05
0.000870276
5.86547e-07
4.26828e-09
6.46403e-09
0.00515805
2.09853e-05
0.00711688
6.60158e-05
0.00237183
0.000231339
2.04203e-06
0.000186133
0.0066585
0.000141504
0.00454442
0.000212684
0.00716429
0.0129815
0.0112696
2.07092e-05
0.00108987
2.50297e-05
1.11248e-08
0.000667061
7.11186e-06
4.95211e-07
0.000222962
0.00582855
0.0103675
0.012088
0.00973523
1.97563e-05
0.000913275
2.21275e-05
8.90617e-09
0.000525539
9.71686e-06
0.00534431
2.57192e-05
0.00669669
7.34743e-05
0.00183961
1.3921e-06
0.000203682
1.80593e-06
0.00015312
0.00580869
0.000144343
0.00372793
0.000200816
1.84657e-05
0.00765465
0.00157329
0.000103472
0.0177888
1.23597e-05
0.00603429
0.000998994
7.83613e-05
0.0164912
1.83696e-05
0.00831502
0.00133973
0.000119869
0.0221461
2.77895e-05
0.0105374
0.00214292
0.00015921
0.0237435
0.00442021
0.000284262
0.00379073
0.00754363
0.00151406
0.000127858
0.00832978
0.000275347
0.000226173
0.00648495
3.85285e-06
6.86955e-10
9.01733e-10
5.16063e-06
1.01716e-09
1.40283e-09
3.48057e-05
2.35744e-08
0.00176947
4.46555e-05
6.06032e-08
0.00111496
4.19607e-05
9.85195e-08
0.00054074
8.73304e-06
2.10023e-09
3.197e-09
2.76071e-09
0.00333911
0.00032682
0.00575433
0.00726953
0.000840973
0.00969091
0.00873629
6.78942e-06
1.47646e-09
2.13937e-09
1.75686e-09
0.01014
0.00275041
0.00990476
0.00695193
0.00685384
0.00326607
0.000449132
3.73944e-05
0.0108016
1.28714e-05
0.000914405
0.00371638
0.000259423
0.00233197
2.67119e-05
0.0092809
1.29938e-05
0.00105513
0.00485358
0.0140485
1.4004e-07
0.000125875
9.07888e-06
0.000357713
0.0143895
6.03692e-07
0.000316808
7.4206e-06
0.000550727
0.0030927
5.39204e-06
4.40989e-06
0.000635092
0.0087769
3.24387e-05
0.0136556
1.82004e-07
0.000147207
7.25294e-07
0.000335431
7.03578e-06
0.000465112
7.94258e-06
0.000283197
0.00391479
7.87523e-06
4.52602e-06
0.000572872
0.00955663
4.23592e-05
0.00449409
0.00185066
0.0128415
0.00568639
0.00242475
0.00468192
0.0103766
0.0110412
0.00828528
0.00627204
1.29082e-05
0.005328
3.58403e-05
0.00337655
1.03277e-05
0.00560158
8.51632e-05
0.0010769
1.19118e-06
0.000150354
3.82055e-07
0.00422627
0.000141785
0.0053993
3.07339e-05
0.00307224
8.03132e-06
0.00618057
7.996e-05
0.00140814
1.30438e-06
0.000176443
0.0049908
0.000144403
3.59531e-08
2.65741e-08
0.00236385
3.48986e-05
0.00244784
1.69299e-05
0.00176968
0.030488
5.83487e-06
1.70592e-07
2.63802e-05
0.0379849
0.000836501
1.41642e-06
9.84389e-07
0.000352269
4.47523e-06
0.00044453
2.88975e-07
0.000186431
6.27808e-08
6.62157e-05
0.0218041
0.00122145
4.15229e-06
4.91752e-08
2.32032e-05
0.0185681
0.00122574
4.81797e-06
3.71363e-08
1.82786e-05
8.53692e-07
0.000347385
4.54909e-06
0.000508586
2.70596e-08
0.00267004
3.39777e-05
0.00256386
1.51992e-05
2.23345e-07
3.44307e-05
2.83494e-08
0.0029672
2.67637e-08
3.24487e-05
0.00263146
1.33564e-05
2.8522e-07
4.42781e-05
0.00240398
8.23334e-08
5.62172e-05
2.18041e-08
9.67384e-08
0.0262322
0.00180942
6.93105e-06
0.0022928
1.84706e-05
1.44012e-07
3.63921e-05
0.0222376
0.00180873
8.0533e-06
0.00210909
1.975e-05
1.12355e-07
2.87853e-05
0.00120449
0.0155879
5.47481e-06
0.00134153
0.00797592
1.25e-05
0.000750122
0.0232064
1.72722e-06
2.26653e-08
2.20549e-05
0.000306522
0.0245248
3.92078e-07
2.73891e-08
1.40968e-05
0.00176996
0.0185881
9.15859e-06
0.00190714
2.07083e-05
0.00113319
0.0287046
2.89057e-06
8.01413e-08
3.51377e-05
0.000470522
0.0316045
6.48806e-07
8.55153e-08
2.23072e-05
0.00169757
0.0153312
1.02006e-05
0.00169661
2.13011e-05
0.00119042
0.0252196
3.50274e-06
6.35595e-08
2.88461e-05
0.000551187
0.0301797
8.57444e-07
6.35296e-08
1.70178e-05
0.00116031
0.0129093
6.09554e-06
0.00119912
0.00626009
1.28672e-05
0.000790243
0.020495
2.08722e-06
1.72978e-08
1.80334e-05
0.000358925
0.0235655
5.15162e-07
1.97386e-08
1.06935e-05
0.0036592
2.15098e-08
2.50167e-05
0.00367988
7.6076e-08
5.52158e-05
0.00347724
2.38906e-08
2.78623e-05
0.003242
8.0538e-08
5.66009e-05
0.00377275
1.87199e-08
2.19723e-05
0.00232035
6.33997e-06
0.00410968
6.9655e-08
5.28212e-05
1.93023e-07
0.0032137
8.97848e-05
0.00264326
1.14804e-05
0.00324137
2.56851e-08
3.03786e-05
3.55123e-07
5.5831e-05
0.00281245
8.26738e-08
5.69316e-05
0.003806
1.57241e-08
1.88631e-05
0.0021063
4.95385e-06
0.00451171
6.18101e-08
4.95171e-05
1.84583e-07
0.00377739
9.11647e-05
0.00147651
1.1912e-05
0.0100395
0.00452471
0.000596311
5.7402e-05
0.0147731
0.000254219
2.91851e-07
0.0249208
0.000694896
1.39854e-06
0.0258216
3.89794e-05
0.0155112
0.000271069
0.0383017
1.73499e-06
0.00107015
0.0498399
0.00240705
1.64052e-08
1.44845e-06
7.866e-08
1.19071e-05
0.000656876
0.00550497
1.21269e-05
1.3428e-05
0.000389063
0.0131336
6.65404e-05
0.0015975
1.11329e-05
0.0124837
0.00321006
0.000337396
4.0636e-05
0.012742
0.000204453
2.12505e-07
0.0246732
0.000627367
1.10751e-06
0.0281984
3.18336e-06
4.14573e-05
3.70916e-08
0.000117631
1.68337e-07
3.34306e-06
0.000104749
1.05544e-07
0.0141096
0.00233539
0.000292351
4.92211e-07
0.015838
0.000333777
2.41029e-05
0.00779833
4.9636e-05
4.86482e-08
5.11587e-06
6.79395e-06
0.000495879
2.30664e-06
0.000167733
2.31707e-07
0.000386895
6.52759e-06
0.000742559
3.93859e-06
0.00876943
0.00167915
8.47291e-05
7.79268e-08
0.0138068
0.00026328
3.9303e-07
0.0171016
0.00019674
1.7365e-05
0.00668292
0.00439582
0.000434548
6.11045e-05
0.0173056
0.000312478
3.46727e-07
0.0322196
0.000951401
1.839e-06
0.0352745
2.88551e-06
3.8521e-06
3.37291e-05
2.77348e-08
0.000105752
1.35644e-07
3.72406e-06
1.52494e-05
0.000492546
0.00434225
8.21239e-06
1.25037e-05
0.00281215
0.000780745
0.0121136
5.06782e-05
6.06196e-05
0.0194622
0.000364475
0.040434
0.00125397
2.32149e-06
0.0469698
0.00395528
6.25244e-08
0.000316903
0.000170151
0.000558848
0.00601696
9.07755e-05
0.0232588
0.000472138
5.60941e-07
0.0414011
0.00142484
3.03034e-06
0.0433476
1.27262e-08
0.00622596
0.00078373
8.71416e-05
0.0199557
0.000389639
4.79756e-07
0.0323239
0.00105215
2.33229e-06
0.0321147
0.000107949
0.00109688
0.0105527
6.65224e-06
0.000407811
6.96937e-09
1.91704e-05
0.0178068
0.000813529
2.46909e-06
0.000132311
0.0185998
1.29188e-07
1.28992e-08
1.44348e-05
0.000408755
0.0221502
6.62103e-07
0.00205671
0.000382593
0.00101851
0.00851806
7.118e-06
0.000314042
5.33346e-09
1.62672e-05
0.0152351
0.000819408
2.86055e-06
0.000164046
0.0189022
1.76165e-07
9.40396e-09
1.13067e-05
0.000453367
0.0203992
8.32587e-07
0.00157009
0.000324239
0.00371365
0.000387532
0.000222128
0.00224839
0.000303115
0.00758388
0.000226791
0.00534846
0.000834893
7.68436e-06
2.92658e-09
1.09841e-05
0.016365
0.000517982
1.23483e-06
0.000782061
0.0106846
3.61201e-06
0.0180898
0.000231102
3.07278e-07
4.67946e-09
6.5257e-06
0.000270523
0.0029084
0.000345461
0.00679128
0.000929725
7.46865e-06
3.99333e-09
1.35132e-05
0.0184335
0.000490399
1.02472e-06
0.000808419
0.012847
3.24695e-06
0.018715
0.000197474
2.35167e-07
6.70581e-09
8.66434e-06
1.88469e-10
2.69444e-05
0.0113842
0.0017905
0.000181314
0.0293324
1.0653e-06
0.000713911
0.0400374
0.00168979
4.80171e-06
0.0348791
1.17953e-10
5.68436e-10
4.54975e-10
0.00102649
0.00853592
0.000130766
0.0266251
0.000590359
7.82268e-07
0.041232
0.00157287
3.86039e-06
0.0392359
3.52933e-10
2.95605e-10
0
0
0.000220593
5.37161e-05
4.66554e-08
0.0100941
0.00119568
0.000146906
1.11695e-05
0.00475401
0.000125305
0.0347783
7.80656e-05
0.0284059
5.55803e-05
0.0210448
0.000400366
0.0492659
0.00329598
8.77675e-05
0.0261344
0.000541784
0.0515294
0.00544039
0.00214682
0.0116947
0.000193877
0.0350738
0.000883829
1.26476e-06
0.0516982
0.00135587
0.00827319
0.00013316
0.0309266
0.000704928
8.99469e-07
0.0523165
0.000728635
0.00165126
0.000244425
1.53784e-05
0.00555713
0.0160394
0.0114668
0.000192786
0.0406413
0.000987122
0.0160365
0.000283873
0.0455753
0.00183933
0.0220022
1.66814e-05
0.00416034
7.34455e-08
1.51449e-07
7.08317e-08
0.000695168
1.05127e-07
0.00060046
1.40228e-06
2.27548e-06
1.43823e-06
1.99546e-06
2.15279e-06
1.3378e-06
1.25043e-06
4.62945e-09
3.04544e-05
2.33922e-05
1.72404e-05
2.23584e-05
2.76924e-06
1.49896e-06
2.10493e-06
3.02714e-09
8.71491e-07
2.76092e-07
1.77191e-07
1.14604e-07
3.12891e-08
4.75147e-08
9.14918e-07
8.00006e-09
0.000311406
4.99976e-09
0.000187486
1.03279e-06
1.1466e-06
3.1498e-09
8.49358e-07
0.000153939
7.50212e-09
0.000173053
1.2057e-08
0.00029249
8.59995e-07
8.75327e-07
8.26974e-07
4.82982e-07
4.20303e-09
6.13204e-09
3.7634e-09
2.58971e-09
9.82759e-07
6.56645e-07
1.27019e-08
0.000512977
2.90812e-09
3.10872e-05
1.07049e-07
4.25662e-07
2.80062e-05
1.18513e-09
8.73666e-09
1.90884e-09
1.45841e-08
3.44361e-07
2.83512e-09
6.49024e-07
4.57047e-05
4.604e-10
2.03531e-08
3.44041e-09
4.05561e-05
1.66378e-07
1.7544e-09
1.21105e-08
1.5996e-06
0.00135698
0.00182012
3.16503e-06
0.000713338
2.20445e-06
4.98713e-06
0.00107701
3.00657e-06
0.00221539
5.47647e-06
0.00118965
0.00131952
3.44439e-06
0.000774206
6.53766e-07
8.80156e-09
1.6147e-08
8.53111e-07
0.000164141
1.75356e-09
0.000396104
4.41579e-08
5.53103e-05
2.25285e-07
2.72866e-08
4.11847e-05
8.92749e-08
0.000263014
1.82633e-08
3.15065e-05
5.36581e-08
1.12823e-08
4.21335e-05
1.44387e-07
3.10061e-09
0.000112259
1.67189e-08
4.09347e-07
3.95379e-10
4.48928e-05
1.01611e-08
6.91193e-09
7.56479e-07
3.86681e-06
1.81476e-06
0.000424844
5.1565e-07
2.33315e-07
3.66131e-07
2.92689e-06
1.62151e-06
0.000379387
3.67284e-06
0.000817328
4.14911e-06
6.52291e-08
1.05656e-06
2.85066e-08
3.43291e-09
0.000195092
5.40297e-06
0
0
5.94584e-06
1.74439e-10
1.06419e-07
5.4979e-09
0.000318095
8.02766e-06
2.85439e-07
2.6378e-10
9.19334e-08
0
7.4117e-05
9.52671e-10
1.54101e-06
2.26191e-06
2.02847e-05
3.31103e-06
3.6914e-10
4.28883e-05
2.60481e-07
1.31301e-09
7.17161e-05
2.35762e-06
0.000342536
2.14411e-06
3.40028e-05
3.93348e-06
2.70648e-07
2.78425e-05
0.000971928
0.00177187
1.12225e-06
8.05636e-07
1.14408e-06
7.97981e-07
1.32689e-09
0.000193582
1.57665e-06
0.0019999
1.08757e-06
6.2054e-06
0.00134119
1.07568e-05
2.67193e-08
1.77037e-07
1.71503e-05
1.68619e-07
0.00108788
2.00117e-08
0.000835535
8.44264e-06
1.50825e-08
3.93935e-09
5.24786e-05
2.3223e-07
1.12573e-07
0.00122573
0.00214701
1.39823e-10
4.03076e-06
5.62879e-07
5.89369e-06
0.00128156
9.143e-06
3.26586e-06
6.12926e-08
1.26078e-05
5.63944e-08
3.98005e-08
5.57966e-07
6.4961e-08
7.88791e-07
2.51714e-09
3.44724e-06
0.000195579
9.27942e-08
1.67693e-08
1.46558e-05
5.50063e-05
2.51415e-07
5.74362e-09
2.53724e-05
1.14612e-07
3.01438e-09
0.000277328
1.92018e-06
2.18108e-08
2.42377e-05
7.15826e-05
3.45703e-07
6.55262e-09
2.6919e-05
1.72576e-07
7.8115e-06
1.21552e-05
2.34548e-06
1.62894e-05
1.44767e-08
8.80269e-06
1.4132e-06
4.19389e-05
1.66404e-07
4.88624e-09
2.95694e-05
2.03517e-09
1.08226e-07
3.35874e-06
0.000537656
5.8359e-07
5.62665e-08
3.67837e-09
2.2793e-05
1.70664e-09
6.75384e-08
2.45081e-07
0.000956478
3.03498e-08
0.000822519
5.12787e-07
4.06497e-08
3.60588e-06
9.23721e-10
2.5221e-08
4.83537e-10
2.54593e-06
5.65884e-08
7.79159e-07
0.000189697
2.03169e-09
2.1421e-06
0.000119103
1.23805e-09
1.45664e-06
1.38161e-06
3.18418e-08
1.67681e-05
1.13308e-07
4.08619e-06
1.37115e-09
3.36642e-08
1.74267e-05
1.598e-05
7.48426e-08
2.99791e-06
1.04496e-09
1.04393e-08
1.32186e-05
4.02744e-06
1.82683e-09
1.83414e-08
1.78445e-05
5.49764e-06
2.36254e-09
5.58007e-08
2.3643e-05
0
1.82981e-07
3.87508e-10
9.12117e-08
0
1.35741e-05
1.90043e-07
4.56923e-10
2.67942e-07
4.2162e-07
4.85613e-08
6.24591e-07
7.37129e-08
3.93082e-07
5.08733e-07
1.37646e-09
7.52784e-06
2.17522e-10
1.11906e-07
1.96505e-06
5.13509e-08
2.18922e-06
0
0
4.00319e-07
1.04617e-09
9.63935e-05
3.70013e-07
3.11572e-07
7.98493e-10
1.7632e-10
0
5.09464e-07
9.10375e-05
1.86469e-09
2.97948e-07
6.83535e-10
1.18697e-10
5.25098e-07
0.00010237
1.79252e-09
4.6518e-06
1.32599e-10
9.9383e-08
0
1.12158e-07
0
1.53303e-06
9.99094e-06
0.00211421
2.12031e-06
7.45368e-10
9.94795e-06
1.24795e-06
7.42678e-06
8.47278e-07
5.49791e-06
2.33688e-05
8.2315e-08
8.32448e-08
6.37937e-05
9.18087e-06
2.8857e-08
3.89241e-08
8.75848e-06
2.88037e-06
1.3366e-05
4.43914e-07
4.8871e-10
1.41693e-07
0
3.0008e-06
5.40769e-09
2.53884e-08
5.95688e-06
0.000557613
3.83139e-06
8.49915e-07
0
1.30758e-08
0.00016125
1.79737e-06
9.93399e-06
7.32318e-06
0
5.30707e-07
1.68464e-09
1.17696e-05
5.53767e-06
1.44196e-06
6.63868e-07
0.000125257
1.20033e-08
9.06706e-08
3.17359e-05
4.00805e-09
5.34938e-06
2.22939e-10
3.16574e-08
2.38388e-05
5.34953e-06
5.07807e-07
1.07912e-08
9.64916e-05
1.96804e-06
2.41981e-08
1.5607e-09
0.000354737
6.39797e-06
1.86505e-05
6.32793e-08
6.37624e-08
2.26251e-05
6.54895e-06
4.15887e-08
1.83219e-08
8.64034e-06
1.78167e-06
3.4922e-08
2.49138e-10
9.03146e-07
8.82053e-09
0.000188047
4.49165e-10
2.88674e-06
1.47823e-08
0.000594282
6.74044e-09
7.80238e-06
2.36374e-08
0.00159755
2.50253e-08
2.64693e-07
6.15759e-10
6.23709e-05
2.33262e-07
2.01908e-07
5.6171e-05
6.28029e-10
2.07869e-07
0.0001123
6.49815e-06
6.99253e-08
1.53727e-08
1.64931e-05
2.07949e-05
3.71166e-10
1.091e-07
7.20508e-08
2.0935e-05
7.33459e-08
0
2.45185e-07
1.51187e-10
7.40787e-05
9.78197e-07
7.52095e-10
3.4006e-08
1.06326e-05
3.44288e-08
3.797e-08
1.10476e-05
3.64212e-06
8.12791e-09
2.53085e-08
0.000687777
5.58019e-06
1.0729e-06
3.00308e-10
1.39686e-08
0.000205753
3.90393e-06
1.42523e-06
0.000332008
3.14067e-09
0.000178728
1.81481e-09
1.32601e-06
7.20157e-07
6.51645e-10
1.75179e-07
3.67032e-05
1.34081e-07
3.39988e-05
2.97154e-10
1.16882e-07
1.17036e-05
2.58881e-05
1.37675e-08
4.45783e-06
0.000953841
1.32695e-08
5.07292e-09
4.89923e-07
0.00010773
0
2.07559e-07
0
1.23366e-06
0.000285343
2.32075e-09
1.77754e-05
3.84824e-06
3.73715e-07
9.47838e-09
7.37492e-05
3.72638e-05
3.15552e-07
1.05227e-09
6.07561e-05
0.000112017
4.61189e-07
1.87032e-09
0.000113294
3.06221e-07
6.73237e-05
4.38759e-09
3.38744e-06
0.000707197
8.8457e-09
1.43108e-08
8.64815e-06
0.00179527
2.67966e-08
1.10708e-06
0.000233467
9.79961e-10
9.04182e-09
0.000153628
3.16916e-09
7.51723e-07
5.00219e-09
2.75367e-06
1.55122e-05
8.00205e-06
2.21037e-08
7.03803e-08
2.28731e-05
3.79929e-10
2.45162e-05
8.59451e-08
1.05124e-07
2.27272e-06
1.08851e-09
3.76228e-08
1.55223e-09
0.000120896
2.31938e-06
2.76612e-05
4.36581e-06
2.48187e-08
0.000838114
1.12023e-08
5.24817e-06
1.21133e-05
3.86406e-08
4.01089e-08
1.66299e-05
1.33856e-06
1.46435e-08
0.000260061
8.44863e-10
3.88091e-06
3.08546e-05
6.38517e-10
1.82525e-07
3.34607e-05
9.4361e-06
2.5923e-10
1.1548e-07
2.73393e-05
3.99596e-05
3.644e-10
1.74549e-07
1.46251e-07
1.5681e-06
2.29828e-08
6.38094e-06
0.000278783
5.76675e-10
1.62185e-05
6.31457e-08
1.57655e-05
5.46383e-08
5.42188e-06
4.22605e-08
9.29666e-06
1.35186e-08
3.14784e-10
1.72866e-07
9.39671e-06
0.00197304
3.41922e-08
0.000241351
3.08561e-09
7.79912e-07
5.43415e-09
0.000465005
4.45611e-06
2.12983e-09
0.00011866
3.59061e-06
4.69521e-05
5.82974e-06
3.91692e-06
0.000828484
1.3874e-08
1.10421e-08
1.34095e-06
0.000286498
9.10111e-09
1.76682e-09
3.9119e-07
8.5581e-05
4.76986e-09
0
1.73025e-07
0
3.89776e-07
6.77519e-05
6.18215e-10
2.57543e-07
1.05018e-05
2.86979e-06
3.98133e-08
2.83056e-09
3.07857e-05
2.84603e-05
3.81226e-10
1.03864e-07
1.00602e-07
1.43275e-05
9.73939e-06
6.95485e-08
2.95103e-08
2.10769e-05
7.30635e-08
6.84535e-08
3.71937e-05
2.44367e-06
3.18044e-09
0.00044706
2.50148e-08
6.25002e-06
7.80841e-06
2.34657e-08
4.03545e-08
8.27214e-06
3.78874e-07
2.87283e-10
3.02746e-05
1.1338e-07
0
5.61817e-10
2.79527e-07
4.93987e-09
1.83012e-06
1.38514e-08
1.70142e-05
5.78625e-07
1.04238e-09
0.000106016
4.1145e-07
6.522e-10
4.30147e-05
1.70926e-07
4.22439e-05
1.57596e-07
3.29309e-10
1.4353e-05
1.1605e-07
2.38904e-05
4.68437e-08
3.63991e-05
1.29606e-07
1.31185e-07
3.69492e-10
8.52926e-05
4.43486e-06
4.22014e-08
9.20166e-09
9.92104e-06
6.91185e-06
2.28543e-08
0.0013938
2.14865e-08
2.4266e-06
1.51174e-08
0.000492347
4.80197e-09
0.000113873
1.09085e-09
9.06079e-07
4.49826e-07
1.76268e-07
4.95968e-05
6.42761e-10
6.50723e-05
1.8238e-07
5.21938e-06
6.81702e-08
1.7063e-05
9.57468e-09
1.73897e-05
3.54253e-10
1.1322e-07
2.18911e-05
5.90129e-08
3.21465e-06
0.000609404
9.86736e-10
3.2067e-07
6.70161e-05
4.66778e-07
9.52018e-05
1.90012e-09