# vtk DataFile Version 2.0
Unstructured Grid by M++
ASCII
DATASET UNSTRUCTURED_GRID
POINTS 4072 float
  0.562500   0.968750 0
  0.906250   0.500000 0
  0.750000   0.781250 0
  0.953125   0.531250 0
  0.984375   0.875000 0
  0.828125   0.828125 0
  0.828125   0.859375 0
  0.562500   0.765625 0
  0.937500   0.687500 0
  0.968750   0.578125 0
  0.968750   0.781250 0
  0.734375   0.843750 0
  0.968750   0.718750 0
  0.734375   0.796875 0
  0.984375   0.718750 0
  0.984375   0.703125 0
  1.000000   0.750000 0
  0.984375   0.734375 0
  1.000000   0.718750 0
  0.953125   0.859375 0
  0.953125   0.843750 0
  0.937500   0.843750 0
  0.921875   0.640625 0
  0.937500   0.625000 0
  0.671875   0.906250 0
  0.687500   0.890625 0
  1.000000   0.687500 0
  0.828125   0.796875 0
  0.828125   0.750000 0
  0.515625   0.750000 0
  0.828125   0.937500 0
  0.968750   0.625000 0
  0.984375   0.593750 0
  0.984375   0.796875 0
  0.750000   0.859375 0
  0.859375   0.937500 0
  0.828125   0.953125 0
  0.859375   0.781250 0
  0.593750   0.515625 0
  0.984375   0.750000 0
  0.734375   0.828125 0
  1.000000   0.734375 0
  0.750000   0.812500 0
  0.953125   0.562500 0
  0.968750   0.750000 0
  0.734375   0.812500 0
  0.968750   0.546875 0
  0.843750   0.906250 0
  0.875000   0.875000 0
  0.578125   0.640625 0
  0.750000   0.968750 0
  0.984375   0.906250 0
  0.625000   0.515625 0
  0.937500   0.593750 0
  0.781250   0.578125 0
  0.640625   0.968750 0
  0.937500   0.531250 0
  0.937500   0.515625 0
  0.953125   0.500000 0
  0.703125   0.796875 0
  0.859375   0.718750 0
  0.703125   0.765625 0
  0.921875   0.703125 0
  0.687500   0.765625 0
  0.921875   0.500000 0
  0.718750   0.781250 0
  0.734375   0.765625 0
  0.968750   0.687500 0
  0.968750   0.890625 0
  0.734375   0.953125 0
  0.859375   0.828125 0
  0.890625   0.484375 0
  0.843750   0.843750 0
  0.828125   0.765625 0
  0.968750   0.906250 0
  0.796875   0.578125 0
  0.765625   0.828125 0
  0.609375   0.968750 0
  0.734375   0.656250 0
  0.671875   0.875000 0
  0.531250   0.906250 0
  0.546875   0.921875 0
  0.765625   0.656250 0
  0.531250   0.937500 0
  0.531250   0.734375 0
  0.765625   0.671875 0
  0.843750   0.734375 0
  0.843750   0.937500 0
  0.609375   1.000000 0
  0.593750   0.796875 0
  0.828125   0.734375 0
  0.578125   0.812500 0
  0.671875   0.562500 0
  0.781250   0.562500 0
  0.656250   1.000000 0
  0.765625   0.796875 0
  0.656250   0.593750 0
  0.796875   0.562500 0
  0.625000   0.828125 0
  0.625000   0.625000 0
  0.859375   0.562500 0
  0.796875   1.000000 0
  0.890625   0.781250 0
  0.875000   0.781250 0
  0.625000   0.859375 0
  0.843750   0.781250 0
  0.859375   0.765625 0
  0.843750   0.765625 0
  0.859375   0.750000 0
  0.843750   0.750000 0
  0.765625   1.000000 0
  0.781250   0.984375 0
  0.875000   0.625000 0
  0.875000   0.812500 0
  0.640625   0.875000 0
  0.562500   0.906250 0
  0.796875   0.843750 0
  0.796875   0.828125 0
  0.656250   0.906250 0
  0.890625   0.640625 0
  0.875000   0.843750 0
  0.859375   0.843750 0
  0.625000   0.906250 0
  0.812500   0.875000 0
  0.859375   0.515625 0
  0.812500   0.843750 0
  0.796875   0.875000 0
  0.796875   0.859375 0
  0.593750   0.968750 0
  0.859375   0.875000 0
  0.625000   0.937500 0
  0.843750   0.875000 0
  0.593750   0.953125 0
  0.859375   0.859375 0
  0.828125   0.671875 0
  0.890625   0.765625 0
  0.656250   0.828125 0
  0.656250   0.625000 0
  0.890625   0.562500 0
  0.640625   0.843750 0
  0.640625   0.640625 0
  0.875000   0.578125 0
  0.890625   0.750000 0
  0.875000   0.765625 0
  0.562500   0.625000 0
  0.968750   0.500000 0
  0.734375   0.562500 0
  0.937500   0.578125 0
  0.703125   0.640625 0
  0.656250   0.984375 0
  0.640625   1.000000 0
  0.953125   0.578125 0
  0.671875   0.984375 0
  0.906250   0.921875 0
  0.921875   0.687500 0
  0.671875   0.765625 0
  0.687500   0.750000 0
  0.906250   0.484375 0
  0.984375   0.921875 0
  0.734375   1.000000 0
  1.000000   0.906250 0
  0.750000   0.984375 0
  0.828125   0.843750 0
  0.593750   0.906250 0
  0.828125   0.640625 0
  0.843750   0.828125 0
  0.609375   0.890625 0
  0.609375   0.687500 0
  0.843750   0.625000 0
  0.734375   0.875000 0
  0.968750   0.812500 0
  0.859375   0.812500 0
  0.625000   0.875000 0
  0.859375   0.609375 0
  0.843750   0.812500 0
  0.859375   0.796875 0
  0.828125   0.812500 0
  0.593750   0.875000 0
  0.828125   0.609375 0
  0.781250   0.843750 0
  0.515625   0.921875 0
  1.000000   0.781250 0
  0.765625   0.843750 0
  1.000000   0.578125 0
  0.765625   0.968750 0
  0.890625   0.703125 0
  0.656250   0.765625 0
  0.890625   0.500000 0
  0.875000   0.703125 0
  0.937500   0.937500 0
  0.984375   0.578125 0
  0.578125   0.531250 0
  0.875000   0.609375 0
  0.640625   0.671875 0
  0.796875   0.625000 0
  0.859375   0.593750 0
  0.625000   0.656250 0
  0.609375   0.671875 0
  0.593750   0.687500 0
  1.000000   0.562500 0
  0.765625   0.625000 0
  0.656250   0.578125 0
  0.625000   0.546875 0
  0.671875   0.812500 0
  0.906250   0.750000 0
  0.796875   0.546875 0
  0.828125   0.718750 0
  0.578125   0.781250 0
  0.875000   0.656250 0
  0.640625   0.718750 0
  0.734375   0.984375 0
  0.968750   0.921875 0
  0.609375   0.531250 0
  0.953125   0.921875 0
  0.968750   0.937500 0
  0.593750   0.546875 0
  0.765625   0.609375 0
  0.531250   0.671875 0
  0.781250   0.593750 0
  0.546875   0.656250 0
  0.656250   0.656250 0
  0.890625   0.593750 0
  0.656250   0.859375 0
  0.921875   0.671875 0
  0.968750   0.734375 0
  0.718750   0.812500 0
  0.812500   0.984375 0
  0.562500   0.796875 0
  0.750000   0.640625 0
  0.765625   0.687500 0
  0.531250   0.953125 0
  0.687500   0.656250 0
  0.921875   0.593750 0
  1.000000   0.593750 0
  0.750000   0.671875 0
  0.671875   0.750000 0
  0.906250   0.687500 0
  1.000000   0.656250 0
  0.812500   0.562500 0
  0.687500   0.796875 0
  0.921875   0.734375 0
  0.828125   0.546875 0
  1.000000   0.625000 0
  0.953125   0.968750 0
  0.750000   0.906250 0
  0.515625   0.968750 0
  0.812500   0.531250 0
  1.000000   0.796875 0
  0.515625   0.937500 0
  0.750000   0.875000 0
  0.812500   0.703125 0
  0.796875   0.703125 0
  0.812500   0.593750 0
  0.937500   0.562500 0
  0.656250   0.968750 0
  0.890625   0.906250 0
  0.703125   0.625000 0
  0.953125   0.546875 0
  0.671875   0.953125 0
  0.906250   0.890625 0
  0.984375   0.781250 0
  0.796875   0.687500 0
  0.562500   0.953125 0
  0.968750   0.875000 0
  0.718750   0.953125 0
  0.562500   0.937500 0
  0.781250   0.781250 0
  0.953125   0.875000 0
  0.718750   0.937500 0
  0.953125   0.671875 0
  0.796875   0.656250 0
  0.828125   1.000000 0
  0.953125   0.890625 0
  0.703125   0.968750 0
  0.828125   0.625000 0
  0.781250   0.968750 0
  0.781250   0.671875 0
  0.781250   0.875000 0
  0.546875   0.937500 0
  0.906250   0.640625 0
  0.671875   0.703125 0
  0.640625   0.609375 0
  0.875000   0.546875 0
  0.906250   0.625000 0
  0.656250   0.703125 0
  0.656250   0.718750 0
  0.968750   0.531250 0
  0.734375   0.593750 0
  0.984375   0.531250 0
  0.781250   0.546875 0
  0.718750   0.609375 0
  0.906250   0.703125 0
  0.968750   0.593750 0
  0.687500   1.000000 0
  0.921875   0.937500 0
  0.906250   0.765625 0
  0.906250   0.562500 0
  0.718750   0.750000 0
  0.718750   0.546875 0
  0.953125   0.484375 0
  0.796875   0.593750 0
  0.515625   1.000000 0
  0.750000   0.937500 0
  0.906250   0.593750 0
  0.546875   1.000000 0
  0.781250   0.937500 0
  0.828125   0.593750 0
  0.984375   0.609375 0
  0.937500   0.953125 0
  0.796875   0.515625 0
  0.968750   0.609375 0
  0.734375   0.671875 0
  0.906250   0.781250 0
  0.671875   0.843750 0
  0.515625   0.890625 0
  0.687500   0.625000 0
  0.921875   0.562500 0
  0.843750   0.531250 0
  1.000000   0.765625 0
  0.750000   0.843750 0
  0.812500   0.671875 0
  0.687500   0.921875 0
  0.765625   0.515625 0
  0.953125   0.609375 0
  0.921875   0.625000 0
  0.687500   0.687500 0
  0.812500   0.656250 0
  0.812500   0.859375 0
  0.578125   0.921875 0
  0.796875   0.765625 0
  0.890625   0.687500 0
  0.578125   0.750000 0
  0.812500   0.687500 0
  0.578125   0.953125 0
  0.796875   0.796875 0
  0.984375   0.890625 0
  0.734375   0.968750 0
  0.718750   0.640625 0
  0.968750   0.562500 0
  0.687500   0.968750 0
  0.921875   0.906250 0
  0.765625   0.953125 0
  0.812500   0.609375 0
  0.812500   0.734375 0
  0.875000   0.562500 0
  0.968750   0.656250 0
  0.796875   0.734375 0
  0.812500   0.828125 0
  0.578125   0.890625 0
  0.781250   0.687500 0
  0.984375   0.671875 0
  0.578125   0.828125 0
  0.812500   0.765625 0
  0.875000   0.593750 0
  1.000000   0.875000 0
  0.765625   0.937500 0
  0.843750   0.656250 0
  0.843750   0.859375 0
  0.609375   0.921875 0
  0.828125   0.687500 0
  0.937500   0.656250 0
  0.937500   0.859375 0
  0.703125   0.921875 0
  0.984375   0.640625 0
  0.890625   0.468750 0
  0.656250   0.734375 0
  0.890625   0.671875 0
  0.890625   0.875000 0
  0.656250   0.937500 0
  0.578125   0.859375 0
  0.812500   0.796875 0
  0.843750   0.890625 0
  0.609375   0.953125 0
  0.937500   0.875000 0
  0.687500   0.953125 0
  0.843750   0.953125 0
  0.828125   0.703125 0
  0.593750   0.765625 0
  0.937500   0.546875 0
  0.781250   0.531250 0
  0.781250   0.734375 0
  0.546875   0.796875 0
  0.796875   0.718750 0
  0.562500   0.984375 0
  0.984375   0.812500 0
  0.562500   0.812500 0
  0.796875   0.750000 0
  0.562500   0.875000 0
  0.796875   0.812500 0
  0.640625   0.750000 0
  0.875000   0.687500 0
  0.703125   0.671875 0
  0.937500   0.609375 0
  0.562500   0.843750 0
  0.796875   0.781250 0
  0.781250   0.750000 0
  0.781250   0.609375 0
  0.812500   0.953125 0
  0.812500   0.718750 0
  0.953125   0.593750 0
  0.718750   0.656250 0
  0.671875   1.000000 0
  0.796875   0.953125 0
  0.843750   0.609375 0
  0.812500   0.812500 0
  0.812500   0.781250 0
  0.750000   0.953125 0
  0.750000   0.750000 0
  0.984375   0.687500 0
  0.781250   1.000000 0
  0.765625   0.546875 0
  0.765625   0.750000 0
[...]
POINT_DATA 4072
SCALARS scalar_value float 1
LOOKUP_TABLE default
-2.149e-10
-2.07084e-05
3.77885e-10
3.91528e-07
0
0
0
1.77883e-07
-3.46624e-10
1.95552e-08
0
0
0
3.81678e-10
0
0
0
0
0
0
0
0
1.92176e-09
-5.17292e-09
0
0
0
0
0
-1.35529e-06
0
-2.89951e-09
-7.85979e-09
0
0
0
0
0
0.00469939
0
0
0
0
4.39712e-08
0
-1.06749e-10
9.32469e-08
0
0
0.000648703
0
0
0.00220732
7.32284e-09
-3.294e-06
0
-1.03182e-06
2.80549e-06
-5.14736e-07
1.91696e-09
-1.89347e-10
7.82169e-09
3.55153e-10
-2.66516e-08
-1.75085e-05
8.01166e-10
2.18415e-09
0
0
0
0
3.88431e-05
0
0
0
-2.12303e-06
0
0
4.49645e-07
0
-2.20715e-08
4.59572e-09
1.10516e-08
-5.54544e-09
9.09499e-06
2.13913e-08
1.18201e-10
0
0
7.09642e-07
0
-3.54714e-07
0.00297499
3.49723e-06
0
0
-0.000200883
5.65521e-06
-3.52668e-09
-3.97376e-05
1.07885e-07
0
0
0
-7.10711e-10
0
1.14217e-10
1.07698e-10
-1.68978e-10
-1.35138e-10
0
0
-4.72056e-09
0
1.62417e-10
-4.4473e-09
0
0
0
-1.46501e-09
0
0
0
0
4.0806e-06
0
0
0
0
0
0
0
0
0
1.05048e-09
0
-1.74112e-10
-4.25167e-05
-7.0745e-08
1.36035e-09
3.7175e-05
2.47203e-08
-1.09387e-10
0
6.57116e-05
-5.80697e-07
-3.83988e-05
-2.94981e-08
1.5181e-06
0
0
2.84977e-09
0
0
-8.22552e-10
2.15524e-08
5.23821e-08
3.4536e-05
0
0
0
0
0
2.66811e-10
-5.46485e-09
0
-7.06007e-10
-3.971e-05
1.65207e-08
0
0
0
0
-1.27118e-08
0
0
0
-8.87219e-10
4.9494e-08
0
2.88917e-08
0
0
1.27174e-08
0
6.27887e-10
-8.23436e-08
-2.14853e-05
3.33797e-10
0
1.22783e-08
0.00494917
1.86363e-08
5.13838e-06
-2.06346e-07
7.52034e-08
4.30418e-06
2.36881e-05
0.000674678
-4.06118e-08
4.4167e-07
0.000326767
0.0016458
1.48174e-09
0
-1.03311e-05
-1.09073e-10
-3.72911e-07
9.99639e-10
3.72229e-06
0
0
0.00150396
0
0
0.00280781
-9.22114e-07
-9.30415e-06
1.96512e-06
8.44204e-05
-4.46145e-06
6.77402e-09
1.14336e-10
1.53423e-09
0
0
0
4.7609e-07
-5.07095e-07
-1.67892e-08
3.01133e-09
-1.41525e-06
9.6605e-09
-2.03426e-09
-3.19989e-08
-5.93296e-08
-9.44399e-10
0
1.04102e-06
-1.42218e-09
0
-1.18839e-06
3.43627e-10
0
0
2.80081e-09
1.07418e-05
0
-2.85518e-09
0
2.79322e-10
-2.19868e-09
-3.97985e-07
2.99627e-08
0
0
-3.7469e-06
-1.7126e-07
0
0
0
2.77635e-09
0
0
0
0
0
0
0
2.67258e-10
-3.23619e-08
0
0
0
2.8991e-09
0
2.95428e-08
0
-1.05159e-09
1.52031e-10
-2.10624e-07
9.80172e-05
-4.14683e-07
7.70806e-10
5.82401e-07
-5.59083e-07
-1.88834e-07
-7.65378e-06
1.40848e-07
2.62247e-07
4.82649e-06
5.87517e-10
-1.19756e-08
0
0
0
3.29255e-08
6.44606e-10
4.29441e-05
1.94031e-06
3.65376e-07
0
0
-5.09108e-09
0
0
-2.20417e-07
2.83695e-09
0
-5.5747e-06
6.71279e-09
-2.02714e-07
0
0
6.98535e-08
-8.86761e-06
2.76534e-08
-1.03878e-06
0
0
-5.53399e-09
0
7.32685e-05
9.21323e-09
5.15359e-10
-2.18173e-07
1.07862e-08
0
-4.84394e-10
0
-7.34357e-10
1.43502e-05
1.22525e-09
-1.46621e-10
0
0
0
1.79823e-07
-4.04486e-08
0
0
0
2.10672e-07
2.35981e-10
1.19476e-07
-1.41094e-10
-2.09862e-10
0
1.1777e-09
-1.04105e-08
0
2.01103e-07
0
-3.88385e-08
0
0
0
0
0
-9.31656e-10
-2.25635e-09
0
0
0
-3.72853e-05
-3.18792e-07
5.56109e-10
0
0
3.40577e-08
0
0
0
0
0
0
3.51618e-10
1.06302e-06
2.20422e-07
-1.21925e-05
-2.5622e-10
-1.37321e-07
7.04118e-10
2.24824e-10
0
-3.65676e-07
-1.36509e-10
-3.99534e-08
0
-5.53829e-07
0
-1.16358e-07
3.09347e-09
-1.60526e-07
-1.07469e-10
0
-7.96504e-07
0
-5.22963e-10
-1.10304e-08
2.79696e-07
0
0
-3.05648e-08
0
0
0
-8.51468e-10
0
0
1.95357e-06
2.50464e-10
1.40687e-07
-9.8111e-10
0
2.58525e-07
-1.52901e-10
0
2.74414e-08
-1.31248e-07
1.51827e-06
0
-4.04435e-09
0
3.31969e-07
-5.62112e-09
1.28835e-07
0
0
0
-4.36437e-08
-2.09897e-06
0
2.61773e-06
8.79954e-09
-2.6276e-07
-3.59678e-07
-0.000109313
4.2018e-09
2.90401e-07
0
9.93095e-07
1.68016e-08
3.05291e-06
-2.89801e-10
-1.67543e-09
1.16939e-08
0
7.51208e-09
0
-1.97354e-09
7.06808e-06
1.3611e-05
1.06844e-06
0
0
-3.29196e-10
0
0
-3.11766e-10
1.54675e-05
2.33157e-10
-3.80077e-09
0
-4.89285e-09
1.96749e-05
0
0
0
-6.18967e-09
0
0
1.30705e-10
0
0
0
0
0
0
0
-1.87566e-09
0
0
-2.09718e-05
0
0
0
9.61325e-07
0
0
0
0
9.0544e-10
1.22967e-10
6.10778e-07
2.75895e-10
-4.18378e-10
1.96107e-06
1.1937e-09
2.33467e-07
4.69675e-09
1.63422e-05
4.54023e-10
1.32792e-05
-1.06484e-08
0
0
0
-4.52067e-06
0.00135917
0
0.000126519
0
2.95018e-06
0.000144381
0
-2.69301e-06
-8.48389e-05
0
-6.7071e-05
0
0
0.0026006
0
0
0
0.00372295
0
0
4.92115e-08
0
6.03604e-06
0.0021689
0
-4.60732e-06
0.000158442
0.000489042
0
0
4.12186e-07
1.01915e-10
0
0
-9.31223e-07
0
0
5.5421e-08
2.04592e-10
0
0
-5.20255e-10
2.59748e-08
-3.62278e-10
0
-1.35954e-10
-2.06648e-07
1.03203e-08
-1.72882e-10
-1.5126e-05
1.31199e-05
0.000538466
-1.81762e-05
0.00270477
1.92219e-07
-0.000118372
2.64328e-07
-0.000116065
0.00101538
0.000348053
-7.09062e-10
0
0
0
0
0
0
-2.37218e-09
0
0
0
0
0
0
0
1.22807e-10
0
0
0
0
0
0
0
0
0
0
0
0
0
0
0
0
0
0
0
0
0
0
0
1.01206e-07
0
0
0
0
0
-5.68302e-09
0
0
0
0
0
0
0
0
0
0
0
0
0
0
0
2.67026e-09
0
0
0
0
0
-1.87219e-06
3.5642e-09
0
0
0
0
0
0
0
0
0
0
0
9.01191e-08
0
0
-5.61361e-10
0
-9.67798e-07
4.14395e-10
0
0
0
-4.69168e-09
0
0
0
0
1.22491e-08
0
0
0
0
0
0
0
-9.82989e-07
0.000499764
1.83457e-06
-8.50093e-08
6.81769e-07
0
0
-1.45014e-07
-1.5475e-10
1.81797e-07
0
-8.24222e-08
0
4.87752e-10
0
0
0
0
0
-2.17049e-09
-6.31196e-10
0.00206834
0
13.6113
3.39016e-08
2.47538e-09
3.20625e-10
-1.26362e-08
0
11.5725
0
11.2628
-2.32164e-09
1.30733e-07
0
16.521
0
0
3.63401
2.73868e-07
-1.56256e-06
-1.12916e-05
2.65739e-07
2.47566e-09
0
2.12796e-05
9.90645e-05
0
1.99355e-09
1.4022e-06
12.5223
-2.80963e-05
-2.38227e-09
0.00213261
1.34481e-07
2.22923e-06
0
1.70121
-4.14172e-09
-1.08334e-06
-2.4264e-08
0
17.0753
3.9315e-08
0.000426095
-1.48992e-06
0.00215809
6.54117e-08
0.0189469
0.000894958
-4.59178e-06
0.00241335
10.2625
0.0018166
6.41253
-3.10641e-07
1.15265e-07
2.5603e-06
1.75225e-10
2.37078e-07
0
-7.27039e-06
-8.61804e-10
9.35799
0.00212166
8.18678e-07
3.68585e-09
0
1.51581e-07
1.2634e-08
0
9.96556
0.0114
6.58863
5.85254e-07
1.2284e-07
-2.62837e-06
-5.98885e-10
-8.56729e-05
5.74665e-08
0
16.1625
1.08142e-06
0.0540743
0.00024474
-1.38663e-09
2.26432e-06
3.33194e-09
0.000208189
0
0
-4.58717e-08
4.8741e-08
-2.2083e-08
2.20597e-07
-6.66154e-10
0.000939374
1.73441e-06
-7.42015e-10
-8.58588e-08
-7.34365e-06
2.61081e-06
0
-3.35849e-08
0
2.82927e-08
4.81141e-07
1.88626e-09
-3.10001e-07
-9.22187e-10
0
-1.53024e-08
0.000277303
0.000320379
0
1.45859e-08
-0.000280253
0.0511216
7.47367e-05
0.0231012
-1.74391e-09
0
1.49265e-07
-0.000142913
9.68919e-10
0.263601
2.53687e-05
0
0.112985
0.000191408
1.62741e-06
-5.75746e-08
-2.01401e-06
1.35309e-06
0
-4.56889e-08
-8.27628e-07
0
-0.000234841
-0.000122147
1.3191e-06
5.55024e-05
2.29403e-06
3.51767e-06
2.19962e-09
-3.52789e-09
0.000115247
0.000329827
-1.7544e-06
-2.69204e-05
-7.3847e-07
1.83e-05
8.40685e-06
4.19031e-05
-3.73569e-07
0.00161696
-0.000187485
-1.0726e-10
-4.93663e-09
1.53147e-09
0.000236635
0.000234761
0
-3.60665e-10
0
-4.67492e-10
4.87663e-09
0.000687234
0.000207652
0
0
-5.73746e-07
0
2.29217
0
1.19607
0
1.37705e-10
0.00159556
-3.2979e-10
-1.07137e-09
-1.85582e-07
1.93264e-10
-2.99375e-06
4.56412e-10
-1.28483e-10
-1.22823e-09
6.24223e-07
0
5.10736e-05
6.17793e-05
-4.12287e-09
-4.07627e-08
-3.89058e-09
4.21515e-08
5.15528e-05
8.82532e-07
5.79284e-07
4.12106e-06
3.37499e-10
1.2244
0
4.1608
0.061141
0.0291597
7.56376e-10
-1.16258e-07
-4.47849e-10
7.84958e-08
5.88328e-05
7.99056e-07
-6.58665e-06
-9.98881e-07
0
0
1.9678e-05
9.91776e-05
1.07709e-08
0.000615349
0.000317849
-3.89956e-08
-3.35293e-08
0
0
-7.82785e-09
-0.000103878
2.88567e-06
0
1.32848e-10
0
6.74354e-05
0.152336
-2.08296e-07
-3.84312e-09
-2.13244e-06
0
6.86187
9.93652e-07
4.3986e-05
-1.61518e-10
4.17413e-07
1.71658e-10
0
5.70634e-07
-5.32853e-10
-2.98506e-10
0
1.5612e-07
0
0.00124278
1.98056e-06
0
2.40433e-10
3.6196e-06
-0.000268879
0.000881137
-9.4879e-09
8.89754
0
0.00575552
1.64251e-09
8.02275
0
0
0.00449587
0.00142299
4.50438
0.392461
0.114688
-3.6368e-07
0.0299671
0.0517421
0.00141173
1.63489e-05
0.000326963
2.70979e-08
0.0314079
0.309881
-1.92698e-07
-6.11408e-05
0
0.0761358
0.000164778
0.000322784
0.000393008
5.38436
0
-7.65087e-05
0.861855
8.01561e-05
3.42345e-06
9.76303e-05
0.69772
3.93829e-09
2.36523
-0.000138459
0.000104325
-4.89129e-10
0
-2.81876e-09
2.14165e-05
1.08355
-3.99239e-06
4.99503e-06
1.93745e-06
1.23871e-07
0.182821
0
-1.62182e-05
1.66013
7.99305e-06
2.93751
1.02449
0.121429
0.643369
0.000578278
0.626155
1.72119e-07
0.570451
-5.92145e-07
0.00295998
0
2.84105
6.00155e-07
-5.87194e-07
-4.00826e-05
0.0564551
0.00426036
-4.23532e-08
8.61261
0
0.0100499
0.001096
0.00266637
0.000570067
-1.0319e-08
8.35298
5.1375e-08
8.24152
0
-1.59961e-07
-0.000112656
0.0106682
0
4.60802e-06
0.100125
1.25422e-08
9.3364
0
0.00751436
5.71926e-07
-7.4401e-05
-0.000108416
0.0791219
0.502037
-9.83662e-05
-3.68542e-07
-1.53703e-05
0.0969246
0.0997528
-1.33696e-07
0.0407604
-3.65761e-05
0.0873812
0.123412
2.99645e-09
2.72697e-05
0.0104994
0.0694869
0.0837768
1.69822e-05
2.80009e-06
2.05074e-06
-2.157e-09
-6.18331e-05
-3.97519e-07
0.190055
0.0653423
0.00165353
2.8827e-06
0.0082569
-0.000116175
0.000159525
6.83613e-05
4.53482e-07
0.0393554
0.0449774
-2.87827e-05
0.00462161
-1.12993e-07
0.355615
1.16414e-06
-1.22864e-07
0.281835
5.653e-08
-3.00445e-05
5.81855e-06
-7.34743e-08
1.36171e-06
1.22079
-7.13509e-05
0.137446
1.10316
6.66607e-05
0.00503484
-6.63846e-05
0.000812774
-6.08491e-07
0.279416
3.41334e-07
4.94899e-09
9.19771e-06
0.0015867
0.71609
-2.6486e-07
1.61773e-07
-0.000243128
4.77709e-05
1.28766e-06
0.000492411
0.0331543
4.27428e-07
-3.66482e-07
-3.88279e-06
2.65237e-07
0
1.13071e-08
0.00315561
-8.59715e-05
0.00285785
0.00176267
0.00517512
0.00017828
4.53283
0.0100659
0.0891428
1.19879
0.0034681
0.000610197
0
3.32768e-08
0.132734
1.25517e-07
1.09475e-08
9.45951e-05
-8.15099e-08
0.184114
-9.52643e-07
4.36401e-09
0.000137714
-9.48365e-08
0.195043
0
0.801917
0.20339
0
0.804387
-5.7471e-08
10.3914
0
0.000192671
1.15618e-07
10.9074
0
0.00119202
4.64504e-05
0.0150805
0.283713
0.000197393
0.0308763
0.444231
2.00734e-05
0
0.853228
0.000101999
0
0
3.31973e-06
0.71892
4.4905
-2.03223e-06
0.00246634
0.00171743
1.41631e-06
0
6.63643
0
5.41556
0
-0.000240786
0
4.1161e-08
6.94986e-08
0.135273
-1.51557e-07
0.179564
-0.000123882
0.400784
-7.38262e-07
0.112614
3.28057
5.62667e-05
-5.67016e-10
1.93105
5.99198e-05
0
0
15.244
-0.000130794
0.115145
0.486455
2.92482e-06
-1.94817e-10
0
13.7711
0.000341541
-1.25288e-07
0.143133
-5.06864e-06
1.24666
-1.63064e-07
9.02014e-07
0.246587
0.130473
4.72696e-06
2.01153
0
11.3973
3.92136
0.0924115
2.73527e-05
-0.000159386
4.20371e-06
0.000509808
2.53414
0.264323
7.71986
0.105275
0.700589
1.07761e-05
0.0277893
0.0831266
7.43855
0.0198588
0.382667
0.528635
2.72648e-10
0.362368
1.62845e-05
-0.000157752
7.13541
-1.98369e-06
0.115418
-1.31516e-05
4.62942
0.16463
0.000970062
-0.000119754
-4.16246e-06
0.0029945
3.4052
7.63112e-06
-0.000103888
2.67937
0.00898277
0.00571352
-4.52394e-06
0.0399515
0
0.249082
0.00297882
8.22287e-05
-4.75844e-06
0.00859075
0.00415649
0.00783981
-4.11785e-05
-0.000322217
-1.83755e-06
0.10118
1.33117
-0.000168674
4.81061e-08
0.00958554
0.337832
-7.99614e-08
-3.33578e-07
1.00396e-05
-1.34136e-07
0.243978
0.0263398
0.000255681
0.00127985
0.000745702
-7.3138e-08
0.00125929
0.007039
0.000117472
-1.46335e-08
0.00230227
0.348093
5.99778e-07
0.00021463
-4.79632e-07
0.000477533
-1.81053e-05
0
4.02741
0
2.72726
0.104715
0.0440964
0.0500995
0.000141164
-2.73537e-07
3.89866e-05
0
0
0
7.93927e-06
0
2.19066
-5.29224e-06
4.69264e-06
-4.52946e-06
1.31455e-05
-0.000136828
0
10.9382
0
1.27372
8.37308e-05
0.000347198
0.00911677
8.74374e-06
5.64487e-07
0.0258784
-8.71242e-06
0.250104
0.537591
-6.38871e-08
0.0112171
-2.49033e-05
0.59603
1.75073
-0.000249899
-0.000206076
0.0115105
0.669623
-4.94724e-05
-0.000204051
3.37192
0.000594017
0.00257756
-0.000288217
3.82238
1.1816e-07
3.29683
0.00549522
0.0865798
2.6479
2.18024e-07
0.207804
-9.3038e-06
-1.0429e-08
9.20588e-07
0.0175229
0.0424451
-8.75085e-07
0.00252237
1.1152e-06
0.0863383
9.24161e-08
13.5235
0
0.182444
0
2.35438
0.0471348
1.65925e-09
10.3828
0.225453
5.89503e-08
-0.000405151
2.02828
0.00872288
0.000141217
-3.88725e-05
2.9088e-08
1.95461e-07
1.79722
0.00873072
0.0510163
0.00668537
5.6468e-10
-2.92202e-05
3.19336e-06
-1.88339e-05
0.0770715
0.074942
-1.95571e-07
0
0.00146731
1.75965
0.00322917
-9.37542e-05
1.04973
0.00151062
5.41137e-05
-1.21735e-06
0
0.151052
0
0
-4.17674e-06
0
0.0015331
0.00138832
-9.86539e-08
0
0.000566467
-1.77257e-07
3.99021e-09
0.0154132
0.0012682
-3.04343e-06
0.792802
0.0879846
1.11149e-05
0.00276424
0.000983079
12.4474
-0.00019904
0.00169875
0.0146456
1.60755e-05
3.44442e-05
6.97146e-09
0.0234776
0.0265952
0.167601
11.2988
0
0.000402298
0.000127857
0.00174309
0.0110723
-1.50311e-07
0.00654431
0.000132243
-0.000372615
-7.58606e-05
8.43339e-05
0.0023631
1.84882
0.342783
1.50314
-1.31857e-07
0.00607038
0.0337299
0.042882
1.6368
-2.28532e-07
0.266665
4.32904e-05
-2.22186e-07
0.296025
0.0014462
-4.28596e-07
-5.8701e-06
0.0179349
4.12071e-07
5.39732
7.69376e-10
0
-9.15691e-06
5.39391e-06
0
0.0137226
0.907367
-5.51503e-08
0.0216467
0.00415235
0.0137469
0.546971
6.43204e-08
7.93104e-08
0.0589751
0.129102
0.000522454
0
3.10865
5.57642e-05
6.1045
0.0279567
1.18109
-2.45756e-07
0.66091
-1.74702e-07
0.0106398
7.21209
1.66926e-05
6.97162e-05
0.0347888
0.817494
4.74467e-05
9.09161e-10
0.201276
-1.42625e-06
-5.84845e-09
0.0927297
0.000132603
5.20917
0
2.17679e-06
-1.32568e-07
0.000959443
-1.31835e-07
0.000171803
0.61155
2.75078
0.00488533
0.0140964
12.1724
-0.000286585
0.16083
0.0559364
0.0949395
-2.33809e-07
0.00247264
11.6486
-7.05729e-05
0.557458
0.00112694
0.0218022
1.97383e-05
0.0038732
0
2.6045
-3.40594e-05
0.241031
0
-1.17911e-06
0.0224852
-0.000115237
0.0512342
0.266659
0.481722
1.42411e-07
0.0453053
0.585691
-1.31512e-05
0.00311632
0
-1.99184e-06
0.000236512
-7.54993e-07
0.011096
0.50633
7.65522
-2.29868e-07
1.40666
0
0
0.0473871
-0.000115013
0.0302845
0.113728
0.155016
1.32246e-09
0.0102934
3.58581e-10
0.00028299
0.000332286
0
-6.0633e-09
0.0104303
0.00101643
-2.25807e-05
-6.16716e-06
-7.37036e-09
0.56776
2.00937e-07
0.00396212
0.000136181
0.00883464
-4.93934e-07
-8.23678e-07
5.75116e-08
9.68263
0
-1.88221e-05
0
2.67113
0.00158745
0.0245105
0.145047
6.27487e-09
0
8.46067e-09
0.00114738
2.00958e-05
0.0393589
0.00176433
5.51681e-10
2.73416
-0.000122427
0.00621375
0.00265842
-1.61946e-06
0.00474216
-2.87563e-05
-7.21245e-05
3.26881
0.195954
6.07064e-06
-2.32756e-08
1.00558e-09
1.58183
0.0793211
0.0913895
0.00455942
0
0.0202328
-3.96483e-07
-1.76365e-07
12.7981
0
5.51327e-07
-4.40616e-05
6.34828e-08
0.0180092
0.222978
9.21711
2.66348e-07
-0.000353535
0.0115815
6.1211e-08
6.37529
0
3.47435
0.00265851
0.0403052
0.0276236
0.000523394
-8.41636e-09
0.0013141
0.00178802
-1.12708e-08
11.4718
0
0.00225071
-8.26772e-06
0
2.18545
0.00296276
0.0607182
5.73875
0.0636374
9.54186e-05
0.0551601
8.59643e-05
4.91029
0.00219454
0.113713
-7.25169e-05
0.24829
-0.000166155
-4.71863e-07
0
1.12408e-07
2.63579
0.0767364
0.223346
0.000188432
0.000470572
-3.37051e-06
-3.33988e-05
-0.000285743
6.10436e-05
0.00450585
0.00427261
-3.70322e-06
0.0019407
0.000856077
0.473617
14.1472
0
-1.47647e-05
0.103905
0.0422591
6.77153
-0.000231203
0.138953
7.22284e-08
-1.202e-07
0.973866
0.152674
-3.70381e-05
0.0148054
2.56517
1.09553e-06
1.72936e-06
7.33968e-07
1.44956
1.74805e-06
0
3.72095e-05
0.0678532
0.690715
0.111138
-6.79687e-06
-0.000740602
0.0560244
-2.12969e-09
4.71609e-05
1.06566
2.56144e-08
0.432114
0.000288549
5.63317
0.47829
0.050897
0.00722301
0.0628299
-3.515e-09
-3.84971e-05
-3.96144e-06
0.00679533
0.00275183
0.107859
2.93187
-0.000256375
0
0.00352519
1.99859e-05
2.33592
-3.60066e-08
0.0187858
0.302624
0.126324
0.000264381
0
5.79418e-08
-2.96328e-06
0.00623948
9.36583e-06
-2.91107e-07
-1.22897e-05
9.8552e-07
2.33075e-07
0.000182194
3.65157
1.06162
0.00510755
1.03681e-06
0.869602
10.7763
0
0.500524
2.63267e-05
0.308094
0.020234
-0.00192605
1.30099e-06
0
-2.49921e-10
0.00711962
0.000282228
1.26104e-07
10.4054
0
-1.4639e-05
3.94384e-07
0.177187
1.96893e-06
9.46897
0.00557532
0.171668
0.595612
0
-9.91475e-07
2.71881e-08
5.23674e-07
0.00277345
-5.1767e-05
-5.12588e-05
2.69005e-07
0.00234753
0
0.830647
0.0060284
-5.01041e-05
0.00184475
-2.50614e-07
-7.28871e-07
-2.06391e-06
0.0319674
-5.50689e-09
5.72494
0.0239411
0.00418726
6.88287e-05
6.1742
-8.89485e-05
4.66892e-05
-3.0124e-07
0.185033
-9.0724e-06
0.122102
0.0148561
0.00242113
5.279e-05
6.21406
0.011124
-2.94046e-06
0
1.98469
0.000700471
0.170084
2.7501
-1.45551e-07
9.53218e-06
0.0352965
-0.000109945
0.0327396
4.28912e-05
0.410907
1.28887e-05
3.49941e-08
0.050809
0.0364901
0.0248296
0.0006147
-5.17826e-06
5.52463e-07
8.77483
0
5.02239e-05
-2.14567e-05
0.0431898
-3.28994e-07
0.666885
16.4582
0
0.971887
-0.000143035
0.0012983
5.96046e-06
-2.97396e-08
-0.00047409
1.39872
0.026361
0.041977
10.1111
1.68495
0.0108258
0.00527274
0
0.00645054
1.94377e-05
-2.97606e-05
-8.36654e-07
0.067773
-3.77654e-07
-0.000104075
0
2.58317e-05
2.24932
0.0674204
2.49923e-06
0.000196995
-3.3556e-07
1.21917
0.231245
0.0565738
0.179928
0.112361
0.0871857
0.20943
1.72793
0.0832319
0.43777
1.18252e-07
-2.6738e-08
6.20245
0.353116
0
6.5461
-1.78907e-05
-1.99902e-07
2.54911e-07
0.0660266
9.22772e-08
1.28421e-07
-0.000194593
0.266807
0.00630708
0.0103586
0.269202
-1.01827e-05
5.8382e-05
3.17782e-09
-1.0073e-09
-1.20686e-07
-1.43222e-05
0.0237562
0
0.471516
0.00408669
-5.10586e-05
0.321649
12.2621
0
-4.41872e-05
0.058822
0.64708
0.0162471
0.00838608
2.86186
0.324766
3.01177e-05
9.04638e-08
0.932057
-2.72368e-05
-0.000315217
0.00496598
-1.20799e-08
-5.0511e-10
0.00548593
0.000542224
0.0309416
0.576471
2.09743e-06
1.40251e-05
0
8.40841e-09
0.170914
0.439465
0.000253994
2.88151e-07
0
-3.79924e-07
-9.2553e-08
0.0427887
-2.08298e-07
0.0887581
0.897613
1.52092e-07
5.11793
0
-2.32809e-05
0
0
2.19253e-06
1.27972e-06
9.43161e-09
0
6.37751e-08
-3.38491e-08
0.451838
0.0765187
0.0337237
0.136565
0.141808
-1.30104e-07
0.0592856
0.0150273
0.00624593
0.000915691
1.50156e-06
-9.67311e-06
-1.86024e-07
0.557213
0.000258288
0.0179111
0.132934
0.00431876
-0.00119403
-8.75063e-07
7.97398
0.00258328
0.000173834
0.00540062
0.125364
-3.97769e-09
15.7442
8.41361
0.00239124
-2.01589e-06
0.00306298
-6.48653e-06
0.283469
1.52655
2.3814
0.0895889
1.14007
2.63848
0.0547887
2.04248e-06
0.277314
0.225055
4.97254e-07
-2.66985e-07
3.55661e-05
1.29689
1.14998e-06
1.36095
0.0216763
3.3038e-05
3.70112e-05
3.93547e-07
4.15039
0.00203607
0.0553208
-7.25994e-07
5.56419
-0.000356679
0.0746944
1.99976
5.79123e-07
0.114281
-2.17698e-05
3.0082e-06
7.61706
2.27986e-05
0.172235
4.19025e-05
5.47948e-05
0.00354171
-0.0004211
0.00208105
0.0724426
0.271252
1.45259e-05
-0.00012086
0.350779
0.0719865
2.64756e-05
0.000106337
-1.00602e-07
8.86788
0.018509
1.10454e-07
0.0396097
0.000826105
0.747432
0.152783
2.70791e-05
0.0166071
0.0711408
5.13636e-06
6.62509e-05
-6.00412e-05
0.938313
0
1.31876
0.0161865
0.0465797
0.0564172
3.14421e-06
-0.000773255
-0.000164236
5.70818e-05
0
1.24427e-05
-0.000186557
0.0160588
0.230304
7.76746e-06
0.0110262
-9.3283e-05
0.685142
0
1.3225
0.00698739
0.0163091
0.000482972
-0.000201008
0.944411
0.000198117
1.03094e-05
0.3212
0.0371174
1.63464e-05
2.87245e-05
0.00032848
9.56776e-08
0.0026597
1.03506e-07
0.000110008
0.342187
0.837357
0.0242541
0.102575
3.21537e-05
0
7.60605e-08
0.0131253
2.26951
1.24213
-8.68057e-05
-0.00102171
1.80417e-05
0.00293215
9.39685e-05
4.09421
0.056023
-4.38322e-07
0.0141311
1.25708e-07
0.0924511
0.0114377
0.0081156
-2.01431e-05
1.64935
0.164323
-7.95127e-06
0.00202362
-2.2815e-06
-6.14843e-06
3.51129
0.330828
12.5053
0.0105675
-4.43027e-06
0.29177
0.0309744
-2.93119e-05
-0.00063094
0.0118955
1.2274
0.0451539
0.225402
5.3255e-08
0.000265996
0.621163
0.000242946
-2.48632e-05
1.0113
0.205882
0.00058348
0.0312816
-1.91715e-05
0.206613
6.15697
0.0313616
1.43011e-07
0.027983
4.10635e-09
2.07913e-05
1.60806
1.11141
0.000933794
-6.96209e-06
0.222491
0.390053
-1.4107e-08
0.00039462
0.750517
-3.94781e-06
0.43265
0.0428173
0.00249846
8.6284
0
-3.75519e-05
0.000305998
0.354
0.185266
-1.70683e-07
-2.27319e-05
0.490973
0.00254785
3.36829e-05
0
1.27897
0.0440024
-1.17711e-06
0.000140845
0.000149513