# vtk DataFile Version 2.0
Unstructured Grid by M++
ASCII
DATASET UNSTRUCTURED_GRID
POINTS 81 float
  1.000000   0.625000 0
  0.750000   0.375000 0
  1.000000   0.000000 0
  0.875000   0.875000 0
  0.750000   0.125000 0
  1.000000   1.000000 0
  0.875000   0.250000 0
  0.625000   0.875000 0
  1.000000   0.750000 0
  0.875000   0.000000 0
  1.000000   0.250000 0
  0.625000   0.375000 0
  0.875000   0.500000 0
  0.625000   0.625000 0
  1.000000   0.500000 0
  0.750000   0.500000 0
  0.750000   1.000000 0
  1.000000   0.125000 0
  0.625000   0.250000 0
  0.750000   0.750000 0
  0.625000   0.000000 0
  0.125000   0.375000 0
  0.000000   0.500000 0
  0.125000   0.625000 0
  0.625000   1.000000 0
  1.000000   0.875000 0
  0.875000   0.125000 0
  0.500000   0.250000 0
  0.625000   0.500000 0
  0.250000   0.625000 0
  0.000000   0.625000 0
  0.375000   0.500000 0
  0.375000   0.000000 0
  0.000000   0.125000 0
  0.125000   0.875000 0
  0.875000   1.000000 0
  0.750000   0.250000 0
  0.375000   0.375000 0
  0.250000   0.375000 0
  0.625000   0.750000 0
  0.125000   0.125000 0
  0.500000   0.000000 0
  0.250000   0.875000 0
  0.125000   0.500000 0
  0.500000   0.375000 0
  0.125000   0.000000 0
  0.250000   0.750000 0
  0.250000   0.500000 0
  0.000000   0.875000 0
  0.875000   0.625000 0
  0.500000   0.750000 0
  0.750000   0.625000 0
  0.250000   0.000000 0
  0.375000   0.750000 0
  0.750000   0.875000 0
  0.625000   0.125000 0
  0.250000   0.250000 0
  0.375000   1.000000 0
  0.375000   0.250000 0
  0.000000   0.375000 0
  0.500000   1.000000 0
  0.875000   0.750000 0
  0.750000   0.000000 0
  0.375000   0.125000 0
  0.500000   0.875000 0
  0.000000   0.000000 0
  0.125000   0.750000 0
  0.500000   0.625000 0
  0.125000   0.250000 0
  0.500000   0.125000 0
  0.250000   1.000000 0
  0.250000   0.125000 0
  0.000000   1.000000 0
  0.375000   0.875000 0
  0.000000   0.750000 0
  0.375000   0.625000 0
  0.000000   0.250000 0
  0.125000   1.000000 0
  1.000000   0.375000 0
  0.500000   0.500000 0
  0.875000   0.375000 0
CELLS 64 320
4 56 71 58 63
4 27 58 69 63
4 41 69 32 63
4 76 33 68 40
4 27 44 58 37
4 79 31 44 37
4 56 38 68 21
4 56 58 38 37
4 52 32 71 63
4 47 38 31 37
4 76 68 59 21
4 22 59 43 21
4 65 45 33 40
4 47 43 38 21
4 52 71 45 40
4 56 68 71 40
4 74 30 66 23
4 46 66 29 23
4 22 43 30 23
4 72 48 77 34
4 46 53 42 73
4 50 64 53 73
4 70 42 57 73
4 74 66 48 34
4 46 42 66 34
4 47 29 43 23
4 70 77 42 34
4 60 57 64 73
4 79 67 31 75
4 47 31 29 75
4 50 53 67 75
4 46 29 53 75
4 10 78 6 80
4 36 6 1 80
4 15 1 12 80
4 36 4 6 26
4 14 12 78 80
4 2 17 9 26
4 36 18 4 55
4 15 28 1 11
4 62 4 20 55
4 10 6 17 26
4 27 18 44 11
4 62 9 4 26
4 27 69 18 55
4 36 1 18 11
4 41 20 69 55
4 79 44 28 11
4 16 24 54 7
4 19 54 39 7
4 50 39 64 7
4 8 25 61 3
4 60 64 24 7
4 79 28 67 13
4 19 51 61 49
4 8 61 0 49
4 15 51 28 13
4 19 39 51 13
4 50 67 39 13
4 19 61 54 3
4 14 0 12 49
4 5 35 25 3
4 15 12 51 49
4 16 54 35 3
CELL_TYPES 64
8
8
8
8
8
8
8
8
8
8
8
8
8
8
8
8
8
8
8
8
8
8
8
8
8
8
8
8
8
8
8
8
8
8
8
8
8
8
8
8
8
8
8
8
8
8
8
8
8
8
8
8
8
8
8
8
8
8
8
8
8
8
8
8
CELL_DATA 64
VECTORS vector_value float
0.519515 -3.79897 0
-0.0298338 -0.207701 0
0.249716 -0.584434 0
-0.0107858 -0.0329695 0
-0.196869 -0.315652 0
-0.403116 -0.915958 0
-0.375623 -2.78649 0
-0.785216 -3.30535 0
0.255465 -4.0158 0
-0.218687 -3.39147 0
0.0157645 -0.0331708 0
0.0120513 -0.0748717 0
-0.0315504 -0.10238 0
-0.180201 -1.87727 0
0.0905235 -1.73884 0
0.3974 -2.44207 0
0.0932459 -0.237862 0
0.434422 -0.611984 0
0.0450791 -0.148573 0
-0.0732339 -1.2078 0
-0.0169355 -1.4546 0
-0.394199 -2.31324 0
0.575542 -0.66768 0
0.392981 -0.916336 0
0.408772 -0.279894 0
-0.424693 -0.766711 0
0.192687 -0.479168 0
-0.112836 -1.97533 0
-0.734616 -1.86624 0
-1.2616 -3.37772 0
-0.985859 -2.493 0
-0.37462 -2.42557 0
0.010979 -1.2825 0
0.00817194 -0.185151 0
0.227943 -0.254325 0
-0.00482079 -0.148072 0
0.144686 -1.1689 0
0.0187155 -1.32696 0
-0.00648226 -0.0594989 0
0.0397408 -0.0533992 0
-0.0109413 -0.051796 0
0.00323381 -1.29373 0
-0.0166886 -0.0736184 0
0.0159693 -0.108053 0
-0.0058768 -0.0169868 0
0.00240783 -0.0180692 0
0.0163808 -0.0717394 0
-0.0905546 -0.263805 0
-1.49595 -0.703792 0
-0.21666 -0.338098 0
-0.408531 -2.04132 0
-0.0290164 -0.530483 0
-1.27907 -1.76692 0
0.055227 -0.53296 0
0.0585192 -0.0502302 0
0.0499158 -0.584916 0
0.451666 -0.332641 0
0.195309 -0.361446 0
-0.245481 -1.235 0
-0.0665267 -0.126034 0
0.173556 -0.81839 0
-0.20547 -0.695295 0
0.486983 -0.156766 0
-0.842589 -0.504011 0
