# vtk DataFile Version 2.0
Unstructured Grid by M++
ASCII
DATASET UNSTRUCTURED_GRID
POINTS 81 float
  1.000000   0.625000 0
  0.750000   0.375000 0
  1.000000   0.000000 0
  0.875000   0.875000 0
  0.750000   0.125000 0
  1.000000   1.000000 0
  0.875000   0.250000 0
  0.625000   0.875000 0
  1.000000   0.750000 0
  0.875000   0.000000 0
  1.000000   0.250000 0
  0.625000   0.375000 0
  0.875000   0.500000 0
  0.625000   0.625000 0
  1.000000   0.500000 0
  0.750000   0.500000 0
  0.750000   1.000000 0
  1.000000   0.125000 0
  0.625000   0.250000 0
  0.750000   0.750000 0
  0.625000   0.000000 0
  0.125000   0.375000 0
  0.000000   0.500000 0
  0.125000   0.625000 0
  0.625000   1.000000 0
  1.000000   0.875000 0
  0.875000   0.125000 0
  0.500000   0.250000 0
  0.625000   0.500000 0
  0.250000   0.625000 0
  0.000000   0.625000 0
  0.375000   0.500000 0
  0.375000   0.000000 0
  0.000000   0.125000 0
  0.125000   0.875000 0
  0.875000   1.000000 0
  0.750000   0.250000 0
  0.375000   0.375000 0
  0.250000   0.375000 0
  0.625000   0.750000 0
  0.125000   0.125000 0
  0.500000   0.000000 0
  0.250000   0.875000 0
  0.125000   0.500000 0
  0.500000   0.375000 0
  0.125000   0.000000 0
  0.250000   0.750000 0
  0.250000   0.500000 0
  0.000000   0.875000 0
  0.875000   0.625000 0
  0.500000   0.750000 0
  0.750000   0.625000 0
  0.250000   0.000000 0
  0.375000   0.750000 0
  0.750000   0.875000 0
  0.625000   0.125000 0
  0.250000   0.250000 0
  0.375000   1.000000 0
  0.375000   0.250000 0
  0.000000   0.375000 0
  0.500000   1.000000 0
  0.875000   0.750000 0
  0.750000   0.000000 0
  0.375000   0.125000 0
  0.500000   0.875000 0
  0.000000   0.000000 0
  0.125000   0.750000 0
  0.500000   0.625000 0
  0.125000   0.250000 0
  0.500000   0.125000 0
  0.250000   1.000000 0
  0.250000   0.125000 0
  0.000000   1.000000 0
  0.375000   0.875000 0
  0.000000   0.750000 0
  0.375000   0.625000 0
  0.000000   0.250000 0
  0.125000   1.000000 0
  1.000000   0.375000 0
  0.500000   0.500000 0
  0.875000   0.375000 0
CELLS 64 320
4 56 71 58 63
4 27 58 69 63
4 41 69 32 63
4 76 33 68 40
4 27 44 58 37
4 79 31 44 37
4 56 38 68 21
4 56 58 38 37
4 52 32 71 63
4 47 38 31 37
4 76 68 59 21
4 22 59 43 21
4 65 45 33 40
4 47 43 38 21
4 52 71 45 40
4 56 68 71 40
4 74 30 66 23
4 46 66 29 23
4 22 43 30 23
4 72 48 77 34
4 46 53 42 73
4 50 64 53 73
4 70 42 57 73
4 74 66 48 34
4 46 42 66 34
4 47 29 43 23
4 70 77 42 34
4 60 57 64 73
4 79 67 31 75
4 47 31 29 75
4 50 53 67 75
4 46 29 53 75
4 10 78 6 80
4 36 6 1 80
4 15 1 12 80
4 36 4 6 26
4 14 12 78 80
4 2 17 9 26
4 36 18 4 55
4 15 28 1 11
4 62 4 20 55
4 10 6 17 26
4 27 18 44 11
4 62 9 4 26
4 27 69 18 55
4 36 1 18 11
4 41 20 69 55
4 79 44 28 11
4 16 24 54 7
4 19 54 39 7
4 50 39 64 7
4 8 25 61 3
4 60 64 24 7
4 79 28 67 13
4 19 51 61 49
4 8 61 0 49
4 15 51 28 13
4 19 39 51 13
4 50 67 39 13
4 19 61 54 3
4 14 0 12 49
4 5 35 25 3
4 15 12 51 49
4 16 54 35 3
CELL_TYPES 64
8
8
8
8
8
8
8
8
8
8
8
8
8
8
8
8
8
8
8
8
8
8
8
8
8
8
8
8
8
8
8
8
8
8
8
8
8
8
8
8
8
8
8
8
8
8
8
8
8
8
8
8
8
8
8
8
8
8
8
8
8
8
8
8
CELL_DATA 64
VECTORS vector_value float
-0.019606 -0.155569 0
0.230679 -0.856883 0
-0.0356123 -0.645216 0
-0.0765381 -3.03527 0
0.142344 -0.512682 0
-0.396953 -0.530068 0
-0.587206 -1.39312 0
0.235016 -0.773329 0
-0.108214 -0.206556 0
-0.970383 -1.25038 0
-0.359059 -2.13077 0
-0.579312 -1.51951 0
0.281554 -2.39215 0
-1.12753 -1.4526 0
0.31012 -1.30555 0
-0.0179824 -0.571528 0
0.00196497 -0.666288 0
0.0103492 -0.410195 0
-0.0822415 -0.744543 0
-0.0695971 -1.48351 0
0.356868 -0.608192 0
-0.0598135 -0.275166 0
-0.126706 -0.653262 0
0.234079 -0.981931 0
0.984164 -1.27787 0
-0.694608 -1.223 0
-0.370539 -0.803604 0
0.491065 -0.4493 0
-0.807137 -0.893438 0
-0.92148 -1.43148 0
-0.29737 -0.656497 0
0.235494 -1.7962 0
0.0448355 -1.51357 0
0.0518372 -0.933113 0
0.128778 -1.03116 0
-0.144417 -0.983552 0
0.0611725 -1.27037 0
0.0350056 -1.46196 0
-0.177321 -0.34737 0
-0.153613 -0.857858 0
-0.0265539 -0.419717 0
-0.0386522 -1.34313 0
-0.156248 -0.399845 0
0.00581219 -0.731932 0
0.0648638 -0.706705 0
-0.0329335 -0.343569 0
-0.00248712 -0.836926 0
-0.177052 -0.0880457 0
0.840415 -1.01532 0
0.0706178 -1.51867 0
-0.180651 -0.587821 0
0.468436 -2.097 0
1.04924 -1.10513 0
-0.55495 -0.19349 0
-0.233549 -0.58859 0
-0.333802 -2.1004 0
-0.377432 -1.02589 0
-0.243859 -1.2729 0
-0.511066 -0.508935 0
0.189435 -0.653348 0
-0.143133 -1.41141 0
0.14295 -1.08872 0
-0.418834 -1.07675 0
0.749828 -1.40115 0
