# vtk DataFile Version 2.0
Unstructured Grid by M++
ASCII
DATASET UNSTRUCTURED_GRID
POINTS 289 float
  0.562500   1.000000 0
  0.562500   0.625000 0
  0.625000   1.000000 0
  0.562500   0.937500 0
  0.562500   0.562500 0
  0.625000   0.937500 0
  0.562500   0.875000 0
  0.625000   0.750000 0
  0.625000   0.625000 0
  0.562500   0.812500 0
  0.562500   0.750000 0
  0.562500   0.687500 0
  0.625000   0.875000 0
  0.625000   0.812500 0
  0.625000   0.687500 0
  0.687500   0.125000 0
  0.875000   0.062500 0
  0.625000   0.125000 0
  0.625000   0.187500 0
  0.625000   0.250000 0
  0.812500   0.187500 0
  1.000000   0.125000 0
  0.687500   0.187500 0
  0.750000   0.125000 0
  0.937500   0.062500 0
  0.937500   0.125000 0
  0.750000   0.187500 0
  0.812500   0.062500 0
  0.812500   0.125000 0
  0.875000   0.687500 0
  0.187500   0.250000 0
  0.437500   0.250000 0
  0.375000   0.187500 0
  0.812500   0.625000 0
  0.125000   0.187500 0
  0.937500   0.750000 0
  0.250000   0.312500 0
  0.500000   0.312500 0
  0.625000   0.062500 0
  0.437500   0.500000 0
  0.375000   0.125000 0
  0.437500   0.187500 0
  0.437500   0.437500 0
  0.437500   0.375000 0
  0.875000   0.875000 0
  0.187500   0.375000 0
  0.687500   0.562500 0
  0.687500   0.625000 0
  0.000000   0.125000 0
  0.937500   0.625000 0
  0.250000   0.125000 0
  0.375000   0.062500 0
  0.375000   0.000000 0
  0.812500   0.500000 0
  0.125000   0.000000 0
  0.937500   0.937500 0
  0.250000   0.437500 0
  0.687500   0.875000 0
  0.687500   0.937500 0
  0.000000   0.437500 0
  0.500000   0.500000 0
  0.500000   0.437500 0
  0.750000   0.937500 0
  0.750000   1.000000 0
  0.062500   0.500000 0
  1.000000   1.000000 0
  0.312500   0.500000 0
  0.875000   0.562500 0
  0.187500   0.062500 0
  0.437500   0.125000 0
  0.437500   0.062500 0
  0.500000   0.375000 0
  0.937500   0.812500 0
  0.937500   0.875000 0
  0.250000   0.375000 0
  0.687500   0.812500 0
  0.000000   0.375000 0
  0.750000   0.562500 0
  0.062500   0.125000 0
  1.000000   0.562500 0
  1.000000   0.625000 0
  0.312500   0.125000 0
  0.562500   0.125000 0
  0.437500   0.000000 0
  0.875000   0.437500 0
  0.875000   0.500000 0
  0.187500   0.000000 0
  0.937500   0.562500 0
  0.937500   0.500000 0
  0.250000   0.062500 0
  0.687500   0.500000 0
  0.000000   0.062500 0
  0.500000   0.062500 0
  1.000000   0.875000 0
  1.000000   0.937500 0
  0.312500   0.437500 0
  0.750000   0.875000 0
  0.062500   0.437500 0
  0.812500   0.937500 0
  0.125000   0.500000 0
  0.375000   0.500000 0
  0.625000   0.562500 0
  0.625000   0.500000 0
  0.437500   0.312500 0
  0.875000   0.812500 0
  0.875000   0.750000 0
  0.187500   0.312500 0
  0.812500   0.687500 0
  0.812500   0.750000 0
  0.125000   0.250000 0
  0.375000   0.250000 0
  1.000000   0.687500 0
  0.312500   0.187500 0
  0.750000   0.687500 0
  0.750000   0.625000 0
  0.062500   0.187500 0
  0.562500   0.250000 0
  0.562500   0.187500 0
  0.375000   1.000000 0
  0.500000   0.562500 0
  0.500000   0.250000 0
  0.750000   0.250000 0
  0.500000   0.125000 0
  0.500000   0.187500 0
  1.000000   0.187500 0
  0.625000   0.375000 0
  0.875000   0.375000 0
  1.000000   0.437500 0
  0.312500   0.000000 0
  0.562500   0.000000 0
  0.812500   0.000000 0
  0.250000   0.687500 0
  0.000000   0.687500 0
  0.500000   1.000000 0
  0.250000   1.000000 0
  0.000000   1.000000 0
  0.437500   0.687500 0
  0.437500   0.625000 0
  0.187500   0.625000 0
  0.687500   0.750000 0
  0.000000   0.312500 0
  0.000000   0.250000 0
  0.375000   0.375000 0
  0.375000   0.312500 0
  0.812500   0.812500 0
  0.125000   0.312500 0
  0.875000   0.625000 0
  0.187500   0.187500 0
  0.187500   0.125000 0
  0.937500   1.000000 0
  0.250000   0.562500 0
  0.250000   0.500000 0
  0.687500   1.000000 0
  0.000000   0.500000 0
  0.687500   0.687500 0
  0.000000   0.187500 0
  0.937500   0.687500 0
  0.250000   0.250000 0
  0.250000   0.187500 0
  0.187500   0.687500 0
  0.000000   0.750000 0
  0.250000   0.750000 0
  0.125000   0.625000 0
  0.750000   0.750000 0
  0.062500   0.250000 0
  0.875000   0.937500 0
  0.187500   0.500000 0
  0.187500   0.437500 0
  0.812500   0.562500 0
  0.125000   0.125000 0
  0.125000   0.062500 0
  0.375000   0.625000 0
  0.375000   0.687500 0
  1.000000   0.750000 0
  0.312500   0.250000 0
  0.312500   0.312500 0
  0.812500   0.312500 0
  0.562500   0.312500 0
  0.375000   0.750000 0
  0.500000   0.625000 0
  0.250000   0.625000 0
  0.312500   0.687500 0
  0.750000   0.812500 0
  0.062500   0.312500 0
  0.062500   0.375000 0
  1.000000   0.812500 0
  0.312500   0.375000 0
  0.562500   0.375000 0
  0.687500   0.437500 0
  0.000000   0.000000 0
  0.500000   0.000000 0
  0.937500   0.437500 0
  0.250000   0.000000 0
  0.375000   0.437500 0
  0.812500   0.875000 0
  0.125000   0.375000 0
  0.125000   0.437500 0
  0.625000   0.437500 0
  1.000000   0.500000 0
  0.312500   0.062500 0
  0.750000   0.500000 0
  0.062500   0.000000 0
  0.062500   0.062500 0
  0.562500   0.062500 0
  0.062500   0.750000 0
  0.312500   0.750000 0
  0.312500   0.625000 0
  0.312500   0.562500 0
  0.062500   0.562500 0
  0.187500   1.000000 0
  0.437500   0.562500 0
  0.875000   1.000000 0
  0.187500   0.562500 0
  0.500000   0.937500 0
  0.250000   0.937500 0
  0.312500   1.000000 0
  0.125000   0.750000 0
  0.125000   0.687500 0
  1.000000   0.000000 0
  0.000000   0.937500 0
  0.000000   0.875000 0
  0.875000   0.125000 0
  0.875000   0.187500 0
  0.062500   0.812500 0
  0.312500   0.812500 0
  0.000000   0.812500 0
  0.000000   0.625000 0
  0.000000   0.562500 0
  0.062500   1.000000 0
  0.062500   0.937500 0
  0.937500   0.187500 0
  0.937500   0.250000 0
  0.062500   0.687500 0
  0.062500   0.625000 0
  0.125000   1.000000 0
  1.000000   0.250000 0
  1.000000   0.312500 0
  0.062500   0.875000 0
  0.125000   0.812500 0
  0.375000   0.812500 0
  0.125000   0.875000 0
  0.375000   0.937500 0
  0.375000   0.875000 0
  0.187500   0.750000 0
  0.187500   0.812500 0
  0.437500   0.812500 0
  0.187500   0.875000 0
  0.437500   0.875000 0
  0.375000   0.562500 0
  0.812500   1.000000 0
  0.125000   0.562500 0
  0.437500   1.000000 0
  0.437500   0.937500 0
  0.187500   0.937500 0
  0.125000   0.937500 0
  0.500000   0.687500 0
  0.500000   0.750000 0
  0.500000   0.812500 0
  0.250000   0.812500 0
  0.250000   0.875000 0
  0.500000   0.875000 0
  0.437500   0.750000 0
  0.312500   0.875000 0
  0.312500   0.937500 0
  0.687500   0.250000 0
  0.687500   0.312500 0
  0.937500   0.312500 0
  0.875000   0.250000 0
  0.625000   0.000000 0
  0.875000   0.000000 0
  0.687500   0.375000 0
  0.937500   0.375000 0
  0.875000   0.312500 0
  0.625000   0.312500 0
  0.687500   0.000000 0
  0.937500   0.000000 0
  0.750000   0.312500 0
  0.750000   0.375000 0
  1.000000   0.375000 0
  0.812500   0.250000 0
  0.562500   0.437500 0
  0.562500   0.500000 0
  0.687500   0.062500 0
  0.750000   0.437500 0
  0.750000   0.000000 0
  0.750000   0.062500 0
  1.000000   0.062500 0
  0.812500   0.375000 0
  0.812500   0.437500 0
CELLS 256 1280
4 169 170 148 68
4 151 166 56 167
4 195 45 196 167
4 54 170 201 202
4 109 34 30 147
4 40 32 81 112
4 192 89 86 68
4 48 91 78 202
4 99 64 196 97
4 71 43 37 103
4 74 186 56 95
4 109 164 34 115
4 50 81 158 112
4 122 69 92 70
4 195 145 45 106
4 110 143 174 175
4 157 30 158 147
4 40 69 32 41
4 50 158 148 147
4 141 155 164 115
4 122 123 69 41
4 142 186 143 175
4 60 39 61 42
4 40 51 69 70
4 120 31 123 41
4 157 174 36 175
4 50 148 89 68
4 48 78 155 115
4 52 83 51 70
4 151 56 66 95
4 71 61 43 42
4 169 148 34 147
4 100 193 39 42
4 40 81 51 199
4 110 174 32 112
4 109 30 145 106
4 100 66 193 95
4 169 34 78 115
4 190 92 83 70
4 50 89 81 199
4 54 86 170 68
4 74 56 45 167
4 142 143 43 103
4 153 59 64 97
4 99 196 166 167
4 169 78 170 202
4 142 193 186 95
4 192 128 89 199
4 74 45 36 106
4 110 31 143 103
4 76 184 59 97
4 142 43 193 42
4 52 51 128 199
4 189 201 91 202
4 120 37 31 103
4 74 36 186 175
4 195 196 184 97
4 141 164 140 183
4 157 158 174 112
4 109 145 164 183
4 195 184 145 183
4 110 32 31 41
4 157 36 30 106
4 76 140 184 183
4 171 172 206 181
4 178 172 261 136
4 256 261 255 136
4 256 257 261 245
4 180 150 206 207
4 60 119 39 210
4 118 215 241 263
4 178 205 172 181
4 216 243 238 244
4 162 217 233 232
4 180 206 131 181
4 179 137 119 210
4 216 204 217 232
4 220 237 219 229
4 216 217 243 159
4 259 258 262 224
4 240 254 237 229
4 153 64 227 208
4 161 205 258 224
4 240 237 238 223
4 226 227 233 208
4 234 228 254 229
4 171 248 137 210
4 160 132 204 232
4 180 131 138 159
4 133 251 213 252
4 171 206 248 207
4 162 138 217 159
4 161 258 243 244
4 220 225 237 223
4 151 150 166 212
4 260 247 257 245
4 259 262 214 263
4 151 66 150 207
4 234 254 209 253
4 162 233 250 208
4 242 241 262 263
4 171 137 172 136
4 161 243 131 159
4 160 204 225 223
4 161 131 205 181
4 179 255 137 136
4 216 238 204 223
4 100 39 248 210
4 260 213 247 252
4 226 233 132 232
4 134 214 215 263
4 180 138 150 212
4 178 261 239 245
4 259 246 258 244
4 178 239 205 224
4 240 238 246 244
4 242 262 239 224
4 99 250 64 208
4 240 246 254 253
4 242 239 247 245
4 135 219 228 229
4 99 166 250 212
4 259 214 246 253
4 118 241 251 252
4 100 248 66 207
4 134 209 214 253
4 162 250 138 212
4 242 247 241 252
4 71 187 61 280
4 102 281 197 280
4 122 92 82 203
4 17 18 82 117
4 122 82 123 117
4 19 264 273 265
4 267 279 222 20
4 125 273 270 265
4 267 272 279 176
4 19 116 18 117
4 21 25 286 24
4 23 28 26 20
4 23 285 28 27
4 218 286 275 24
4 85 53 84 288
4 235 236 231 266
4 221 222 28 20
4 267 222 231 230
4 268 38 129 203
4 125 270 197 188
4 126 287 272 176
4 277 270 276 265
4 267 231 272 266
4 125 197 187 280
4 190 129 92 203
4 277 276 287 176
4 19 18 264 22
4 17 82 38 203
4 102 197 90 188
4 126 84 287 288
4 284 130 285 27
4 121 276 264 265
4 71 37 187 177
4 120 123 116 117
4 198 88 127 191
4 221 16 25 24
4 23 26 15 22
4 121 279 276 176
4 235 231 124 230
4 125 187 273 177
4 278 271 236 266
4 277 287 283 288
4 284 285 274 282
4 278 127 271 191
4 269 275 16 24
4 200 283 53 288
4 23 15 285 282
4 121 26 279 20
4 21 124 25 230
4 19 273 116 177
4 200 90 283 188
4 126 271 84 191
4 269 16 130 27
4 17 38 15 282
4 221 25 222 230
4 121 264 26 22
4 120 116 37 177
4 60 61 281 280
4 277 283 270 188
4 126 272 271 266
4 268 274 38 282
4 85 84 88 191
4 17 15 18 22
4 221 28 16 27
4 93 94 73 55
4 85 88 67 87
4 80 49 79 87
4 44 104 73 72
4 146 33 67 168
4 211 165 149 55
4 8 47 14 154
4 105 104 108 144
4 105 108 29 107
4 7 139 13 75
4 44 165 194 98
4 200 53 77 168
4 8 1 101 4
4 2 5 152 58
4 260 6 213 3
4 105 35 104 72
4 96 57 182 75
4 7 14 139 154
4 146 29 33 107
4 7 13 10 9
4 12 13 57 75
4 85 67 53 168
4 44 73 165 55
4 63 152 62 58
4 8 101 47 46
4 96 182 194 144
4 60 281 119 4
4 12 5 6 3
4 173 185 35 72
4 65 149 94 55
4 146 67 49 87
4 114 113 47 154
4 163 108 182 144
4 12 6 13 9
4 173 35 111 156
4 163 182 139 75
4 260 257 6 9
4 105 29 35 156
4 163 139 113 154
4 256 10 257 9
4 146 49 29 156
4 163 113 108 107
4 80 111 49 156
4 102 101 281 4
4 12 57 5 58
4 44 194 104 144
4 96 194 62 98
4 2 0 5 3
4 93 73 185 72
4 179 119 1 4
4 200 77 90 46
4 114 33 113 107
4 7 10 14 11
4 96 62 57 58
4 133 213 0 3
4 102 90 101 46
4 256 255 10 11
4 63 62 249 98
4 114 47 77 46
4 179 1 255 11
4 211 249 165 98
4 114 77 33 168
4 198 79 88 87
4 8 14 1 11
CELL_TYPES 256
8
8
8
8
8
8
8
8
8
8
8
8
8
8
8
8
8
8
8
8
8
8
8
8
8
8
8
8
8
8
8
8
8
8
8
8
8
8
8
8
8
8
8
8
8
8
8
8
8
8
8
8
8
8
8
8
8
8
8
8
8
8
8
8
8
8
8
8
8
8
8
8
8
8
8
8
8
8
8
8
8
8
8
8
8
8
8
8
8
8
8
8
8
8
8
8
8
8
8
8
8
8
8
8
8
8
8
8
8
8
8
8
8
8
8
8
8
8
8
8
8
8
8
8
8
8
8
8
8
8
8
8
8
8
8
8
8
8
8
8
8
8
8
8
8
8
8
8
8
8
8
8
8
8
8
8
8
8
8
8
8
8
8
8
8
8
8
8
8
8
8
8
8
8
8
8
8
8
8
8
8
8
8
8
8
8
8
8
8
8
8
8
8
8
8
8
8
8
8
8
8
8
8
8
8
8
8
8
8
8
8
8
8
8
8
8
8
8
8
8
8
8
8
8
8
8
8
8
8
8
8
8
8
8
8
8
8
8
8
8
8
8
8
8
8
8
8
8
8
8
8
8
8
8
8
8
CELL_DATA 256
VECTORS vector_value float
-0.0075245 -0.321204 0
0.545219 -0.804852 0
0.193525 -0.551037 0
-0.00240635 -0.286764 0
0.0431639 -0.552244 0
0.638242 -0.837579 0
0.0228017 -0.116056 0
-0.0158306 -0.261738 0
0.321214 -0.653671 0
0.00110674 -0.0864009 0
0.21311 -0.890672 0
-0.0133764 -0.281482 0
0.404831 -0.475778 0
-0.5916 -1.31587 0
0.111642 -0.612933 0
0.111465 -0.383894 0
0.214669 -0.756102 0
0.216376 -0.658795 0
0.196037 -0.521428 0
-0.00458722 -0.15062 0
-0.238739 -0.512469 0
0.0375902 -0.35081 0
-0.0253541 -0.0867979 0
0.267116 -1.28181 0
-0.024004 -0.190451 0
0.114381 -0.917664 0
0.104684 -0.241128 0
-0.0363935 -0.212516 0
0.0796739 -1.56383 0
0.267163 -0.570805 0
-0.0365722 -0.0963664 0
-0.00897643 -0.430865 0
-0.0227132 -0.0891768 0
0.516687 -0.808811 0
0.2412 -0.414944 0
0.0525915 -0.617179 0
0.0427285 -0.133249 0
-0.0670865 -0.272725 0
-0.242865 -2.18538 0
0.337011 -0.281376 0
-0.00102768 -0.313177 0
0.244084 -0.871142 0
0.0153881 -0.122989 0
0.0636027 -0.47046 0
0.550638 -0.68624 0
-0.0346872 -0.292211 0
0.0568488 -0.288072 0
0.0743423 -0.164453 0
0.0747016 -0.933275 0
0.0379362 -0.14417 0
0.0469115 -0.394915 0
-0.0276367 -0.103839 0
0.123489 -0.747228 0
-0.00217274 -0.273983 0
0.00270512 -0.11335 0
0.0572812 -0.928945 0
0.158818 -0.341187 0
0.0311255 -0.177344 0
0.501348 -0.963331 0
0.0694053 -0.293391 0
0.0773115 -0.221479 0
0.115335 -0.294938 0
0.103368 -0.910821 0
0.0525824 -0.293723 0
-0.0489833 -0.0892991 0
0.0330025 -0.189117 0
0.130322 -0.367173 0
0.354355 -0.56144 0
-0.0082885 -0.152382 0
0.000682283 -0.129033 0
1.77152 -1.22095 0
-0.0366856 -0.182201 0
-0.101391 -0.332282 0
0.200337 -1.01108 0
-0.0720187 -0.127868 0
0.0486538 -0.191186 0
0.147608 -1.01704 0
-0.00887828 -1.18587 0
0.0104815 -0.404954 0
-0.0480165 -0.239766 0
-0.140976 -0.747919 0
0.154683 -0.722954 0
-0.0650825 -0.134183 0
-0.292789 -0.800662 0
0.124483 -0.983971 0
0.0213109 -0.605969 0
-0.00767818 -0.0721882 0
0.0917266 -1.37408 0
-0.0258637 -0.230753 0
1.21944 -0.907614 0
-0.024735 -0.0572831 0
0.128924 -0.627545 0
-0.089753 -0.163589 0
-0.144327 -1.4004 0
0.372579 -0.579519 0
0.879344 -0.987275 0
0.173969 -0.393515 0
0.121182 -0.278951 0
0.427664 -0.716017 0
0.299582 -0.931201 0
0.520499 -0.714781 0
0.0197201 -0.147608 0
-0.0626536 -0.179715 0
0.0232855 -1.55652 0
-0.0719366 -0.115696 0
0.0984934 -0.260841 0
-0.0311575 -0.834072 0
-0.00954416 -0.0555655 0
1.32538 -1.05406 0
0.0862201 -1.18169 0
1.44091 -0.795035 0
0.127412 -0.384856 0
0.10746 -0.341398 0
-0.172722 -0.238407 0
-0.0221032 -0.254631 0
-0.285116 -0.331305 0
0.0608337 -0.30684 0
0.369125 -0.820688 0
-0.124174 -0.349568 0
0.395644 -0.762289 0
-0.0997851 -1.16966 0
0.498107 -0.846637 0
0.0146988 -0.442987 0
1.46356 -1.24495 0
0.00393806 -0.0699856 0
0.902587 -0.73929 0
0.293965 -0.788915 0
1.14606 -1.30112 0
-0.0134039 -0.258929 0
0.123673 -0.589619 0
-1.28977 -1.31571 0
-1.31054 -1.83214 0
-0.802788 -0.881437 0
-0.477597 -1.41418 0
-0.258106 -0.457307 0
-0.2723 -1.11134 0
-0.632473 -1.39905 0
-0.728845 -1.22048 0
-0.38458 -2.41703 0
-0.347544 -0.949316 0
-0.136582 -0.796924 0
-0.152295 -1.6452 0
-0.473125 -1.27875 0
0.27293 -2.81291 0
-0.160049 -0.293519 0
-0.0293644 -0.648521 0
-0.29841 -1.42371 0
-0.0638329 -0.842042 0
-1.05304 -2.46918 0
-0.555636 -1.55213 0
0.182428 -1.04598 0
-0.00253784 -0.413608 0
-0.470694 -1.49204 0
-0.995215 -2.35125 0
-1.44599 -2.09622 0
-1.32265 -1.83634 0
0.488653 -1.11593 0
-0.897233 -1.91912 0
-0.0116577 -0.706884 0
-1.14856 -2.22622 0
-0.00585138 -0.228531 0
-0.211193 -0.403027 0
-0.752942 -4.37473 0
-0.477295 -0.979488 0
-0.926227 -2.31408 0
-1.52389 -2.59626 0
0.0667809 -3.17646 0
-0.069483 -0.498174 0
0.196885 -2.07909 0
-0.378573 -2.12233 0
-0.0953703 -1.3259 0
-0.605004 -2.87213 0
-0.355942 -1.48151 0
0.397852 -1.50822 0
-0.451938 -1.65506 0
-0.93411 -1.69857 0
-0.240259 -3.04096 0
-0.161809 -0.703718 0
0.722732 -1.32364 0
-1.37791 -2.54889 0
-0.0881631 -0.688253 0
-0.919326 -1.78029 0
-0.27213 -0.624044 0
-1.63322 -2.6953 0
-0.0301745 -0.243865 0
-0.0175364 -0.264427 0
-0.139275 -1.48572 0
-0.0228571 -2.15975 0
-0.197589 -1.58564 0
-1.04593 -2.04943 0
-1.335 -2.14235 0
-0.186607 -0.415021 0
0.309301 -1.26775 0
-0.241635 -1.8198 0
0.0673534 -5.19246 0
1.12933 -2.21249 0
0.328512 -0.438727 0
0.330215 -1.454 0
0.645992 -2.0451 0
0.44932 -0.519149 0
0.377835 -0.393403 0
0.586231 -1.82026 0
1.22286 -1.49413 0
0.552375 -0.666416 0
0.316582 -1.224 0
1.18205 -1.2823 0
1.17489 -0.864866 0
0.790824 -2.4762 0
0.336988 -0.567375 0
0.724326 -2.18324 0
0.273468 -0.371315 0
0.791125 -2.21129 0
0.421761 -1.56034 0
0.218473 -0.760797 0
0.869891 -1.82291 0
0.982567 -1.1772 0
0.468513 -1.83599 0
0.639575 -0.490005 0
0.0781859 -0.302366 0
0.818651 -1.32911 0
0.395612 -3.00991 0
-0.00136302 -0.897009 0
0.235287 -1.48104 0
0.558851 -0.957401 0
0.389716 -0.323367 0
0.813734 -2.01121 0
0.521099 -4.03431 0
0.415414 -0.603104 0
0.951595 -0.841707 0
0.738963 -1.98245 0
0.510012 -0.728388 0
0.72507 -0.858606 0
0.372757 -1.46759 0
0.31339 -0.253227 0
0.307072 -4.89082 0
0.391483 -0.931571 0
0.444745 -1.39608 0
1.1129 -1.1382 0
0.870345 -0.648489 0
1.34092 -0.900653 0
0.483644 -2.11173 0
0.182964 -0.554554 0
0.955893 -1.38564 0
0.374877 -0.370462 0
0.534298 -2.00999 0
0.596104 -0.986831 0
1.37213 -0.922353 0
0.856996 -1.62684 0
0.246068 -0.584999 0
0.999993 -0.966058 0
0.540567 -1.18754 0
0.13517 -0.57148 0
0.721568 -1.00095 0
0.455912 -0.523702 0
-0.187016 -5.00324 0
0.359317 -1.64915 0
