# vtk DataFile Version 2.0
Unstructured Grid by M++
ASCII
DATASET UNSTRUCTURED_GRID
POINTS 81 float
  1.000000   0.625000 0
  0.750000   0.375000 0
  1.000000   0.000000 0
  0.875000   0.875000 0
  0.750000   0.125000 0
  1.000000   1.000000 0
  0.875000   0.250000 0
  0.625000   0.875000 0
  1.000000   0.750000 0
  0.875000   0.000000 0
  1.000000   0.250000 0
  0.625000   0.375000 0
  0.875000   0.500000 0
  0.625000   0.625000 0
  1.000000   0.500000 0
  0.750000   0.500000 0
  0.750000   1.000000 0
  1.000000   0.125000 0
  0.625000   0.250000 0
  0.750000   0.750000 0
  0.625000   0.000000 0
  0.125000   0.375000 0
  0.000000   0.500000 0
  0.125000   0.625000 0
  0.625000   1.000000 0
  1.000000   0.875000 0
  0.875000   0.125000 0
  0.500000   0.250000 0
  0.625000   0.500000 0
  0.250000   0.625000 0
  0.000000   0.625000 0
  0.375000   0.500000 0
  0.375000   0.000000 0
  0.000000   0.125000 0
  0.125000   0.875000 0
  0.875000   1.000000 0
  0.750000   0.250000 0
  0.375000   0.375000 0
  0.250000   0.375000 0
  0.625000   0.750000 0
  0.125000   0.125000 0
  0.500000   0.000000 0
  0.250000   0.875000 0
  0.125000   0.500000 0
  0.500000   0.375000 0
  0.125000   0.000000 0
  0.250000   0.750000 0
  0.250000   0.500000 0
  0.000000   0.875000 0
  0.875000   0.625000 0
  0.500000   0.750000 0
  0.750000   0.625000 0
  0.250000   0.000000 0
  0.375000   0.750000 0
  0.750000   0.875000 0
  0.625000   0.125000 0
  0.250000   0.250000 0
  0.375000   1.000000 0
  0.375000   0.250000 0
  0.000000   0.375000 0
  0.500000   1.000000 0
  0.875000   0.750000 0
  0.750000   0.000000 0
  0.375000   0.125000 0
  0.500000   0.875000 0
  0.000000   0.000000 0
  0.125000   0.750000 0
  0.500000   0.625000 0
  0.125000   0.250000 0
  0.500000   0.125000 0
  0.250000   1.000000 0
  0.250000   0.125000 0
  0.000000   1.000000 0
  0.375000   0.875000 0
  0.000000   0.750000 0
  0.375000   0.625000 0
  0.000000   0.250000 0
  0.125000   1.000000 0
  1.000000   0.375000 0
  0.500000   0.500000 0
  0.875000   0.375000 0
CELLS 64 320
4 56 71 58 63
4 27 58 69 63
4 41 69 32 63
4 76 33 68 40
4 27 44 58 37
4 79 31 44 37
4 56 38 68 21
4 56 58 38 37
4 52 32 71 63
4 47 38 31 37
4 76 68 59 21
4 22 59 43 21
4 65 45 33 40
4 47 43 38 21
4 52 71 45 40
4 56 68 71 40
4 74 30 66 23
4 46 66 29 23
4 22 43 30 23
4 72 48 77 34
4 46 53 42 73
4 50 64 53 73
4 70 42 57 73
4 74 66 48 34
4 46 42 66 34
4 47 29 43 23
4 70 77 42 34
4 60 57 64 73
4 79 67 31 75
4 47 31 29 75
4 50 53 67 75
4 46 29 53 75
4 10 78 6 80
4 36 6 1 80
4 15 1 12 80
4 36 4 6 26
4 14 12 78 80
4 2 17 9 26
4 36 18 4 55
4 15 28 1 11
4 62 4 20 55
4 10 6 17 26
4 27 18 44 11
4 62 9 4 26
4 27 69 18 55
4 36 1 18 11
4 41 20 69 55
4 79 44 28 11
4 16 24 54 7
4 19 54 39 7
4 50 39 64 7
4 8 25 61 3
4 60 64 24 7
4 79 28 67 13
4 19 51 61 49
4 8 61 0 49
4 15 51 28 13
4 19 39 51 13
4 50 67 39 13
4 19 61 54 3
4 14 0 12 49
4 5 35 25 3
4 15 12 51 49
4 16 54 35 3
CELL_TYPES 64
8
8
8
8
8
8
8
8
8
8
8
8
8
8
8
8
8
8
8
8
8
8
8
8
8
8
8
8
8
8
8
8
8
8
8
8
8
8
8
8
8
8
8
8
8
8
8
8
8
8
8
8
8
8
8
8
8
8
8
8
8
8
8
8
CELL_DATA 64
VECTORS vector_value float
-0.0813091 -0.522331 0
-0.117041 -1.80383 0
-0.0914726 -1.65972 0
0.000329603 -0.00491568 0
0.0714816 -1.78033 0
1.61281 -2.31551 0
0.0101739 -0.0274381 0
0.0199141 -0.429998 0
-0.179035 -0.520241 0
0.641194 -0.867102 0
0.00140624 -0.00769821 0
0.0533932 -0.075833 0
-0.00143201 -0.00722616 0
0.157122 -0.109381 0
-0.124488 -0.21839 0
0.0022821 -0.015153 0
0.111876 -0.167069 0
0.372605 -0.745033 0
0.00887628 -0.164478 0
0.160637 -0.95716 0
0.184031 -1.45289 0
-0.122419 -2.34321 0
0.44842 -1.28399 0
0.161062 -0.595582 0
0.124859 -0.565448 0
0.290178 -0.513829 0
0.530099 -0.70325 0
-0.263555 -1.5485 0
0.978962 -2.92493 0
0.771112 -1.63127 0
-0.159728 -2.05869 0
0.180098 -2.29962 0
-0.771453 -1.65431 0
-0.126403 -1.2733 0
-0.012392 -0.130613 0
-1.30145 -2.78634 0
-0.0157317 -2.24875 0
-0.001257 -0.256862 0
-1.2071 -2.12137 0
0.0625877 -0.157834 0
-0.269553 -3.18653 0
-0.215229 -0.499923 0
0.359361 -0.522313 0
-0.0179968 -1.22456 0
-0.129175 -0.246142 0
2.02367 -2.30461 0
-0.350602 -0.926475 0
2.52505 -2.09497 0
-0.413342 -1.45778 0
0.0146882 -0.922959 0
-0.284423 -0.514575 0
0.423186 -1.46567 0
-0.505246 -0.393616 0
0.0564495 -0.325694 0
0.743416 -0.178714 0
0.310348 -1.87226 0
0.00970879 -0.0541952 0
0.309099 -0.532584 0
-0.0986624 -0.146037 0
0.114617 -0.139674 0
0.0106408 -2.26885 0
-0.112282 -0.780599 0
0.0105796 -0.116753 0
-0.0442286 -0.875107 0
