# vtk DataFile Version 2.0
Unstructured Grid by M++
ASCII
DATASET UNSTRUCTURED_GRID
POINTS 81 float
  1.000000   0.625000 0
  0.750000   0.375000 0
  1.000000   0.000000 0
  0.875000   0.875000 0
  0.750000   0.125000 0
  1.000000   1.000000 0
  0.875000   0.250000 0
  0.625000   0.875000 0
  1.000000   0.750000 0
  0.875000   0.000000 0
  1.000000   0.250000 0
  0.625000   0.375000 0
  0.875000   0.500000 0
  0.625000   0.625000 0
  1.000000   0.500000 0
  0.750000   0.500000 0
  0.750000   1.000000 0
  1.000000   0.125000 0
  0.625000   0.250000 0
  0.750000   0.750000 0
  0.625000   0.000000 0
  0.125000   0.375000 0
  0.000000   0.500000 0
  0.125000   0.625000 0
  0.625000   1.000000 0
  1.000000   0.875000 0
  0.875000   0.125000 0
  0.500000   0.250000 0
  0.625000   0.500000 0
  0.250000   0.625000 0
  0.000000   0.625000 0
  0.375000   0.500000 0
  0.375000   0.000000 0
  0.000000   0.125000 0
  0.125000   0.875000 0
  0.875000   1.000000 0
  0.750000   0.250000 0
  0.375000   0.375000 0
  0.250000   0.375000 0
  0.625000   0.750000 0
  0.125000   0.125000 0
  0.500000   0.000000 0
  0.250000   0.875000 0
  0.125000   0.500000 0
  0.500000   0.375000 0
  0.125000   0.000000 0
  0.250000   0.750000 0
  0.250000   0.500000 0
  0.000000   0.875000 0
  0.875000   0.625000 0
  0.500000   0.750000 0
  0.750000   0.625000 0
  0.250000   0.000000 0
  0.375000   0.750000 0
  0.750000   0.875000 0
  0.625000   0.125000 0
  0.250000   0.250000 0
  0.375000   1.000000 0
  0.375000   0.250000 0
  0.000000   0.375000 0
  0.500000   1.000000 0
  0.875000   0.750000 0
  0.750000   0.000000 0
  0.375000   0.125000 0
  0.500000   0.875000 0
  0.000000   0.000000 0
  0.125000   0.750000 0
  0.500000   0.625000 0
  0.125000   0.250000 0
  0.500000   0.125000 0
  0.250000   1.000000 0
  0.250000   0.125000 0
  0.000000   1.000000 0
  0.375000   0.875000 0
  0.000000   0.750000 0
  0.375000   0.625000 0
  0.000000   0.250000 0
  0.125000   1.000000 0
  1.000000   0.375000 0
  0.500000   0.500000 0
  0.875000   0.375000 0
CELLS 64 320
4 56 71 58 63
4 27 58 69 63
4 41 69 32 63
4 76 33 68 40
4 27 44 58 37
4 79 31 44 37
4 56 38 68 21
4 56 58 38 37
4 52 32 71 63
4 47 38 31 37
4 76 68 59 21
4 22 59 43 21
4 65 45 33 40
4 47 43 38 21
4 52 71 45 40
4 56 68 71 40
4 74 30 66 23
4 46 66 29 23
4 22 43 30 23
4 72 48 77 34
4 46 53 42 73
4 50 64 53 73
4 70 42 57 73
4 74 66 48 34
4 46 42 66 34
4 47 29 43 23
4 70 77 42 34
4 60 57 64 73
4 79 67 31 75
4 47 31 29 75
4 50 53 67 75
4 46 29 53 75
4 10 78 6 80
4 36 6 1 80
4 15 1 12 80
4 36 4 6 26
4 14 12 78 80
4 2 17 9 26
4 36 18 4 55
4 15 28 1 11
4 62 4 20 55
4 10 6 17 26
4 27 18 44 11
4 62 9 4 26
4 27 69 18 55
4 36 1 18 11
4 41 20 69 55
4 79 44 28 11
4 16 24 54 7
4 19 54 39 7
4 50 39 64 7
4 8 25 61 3
4 60 64 24 7
4 79 28 67 13
4 19 51 61 49
4 8 61 0 49
4 15 51 28 13
4 19 39 51 13
4 50 67 39 13
4 19 61 54 3
4 14 0 12 49
4 5 35 25 3
4 15 12 51 49
4 16 54 35 3
CELL_TYPES 64
8
8
8
8
8
8
8
8
8
8
8
8
8
8
8
8
8
8
8
8
8
8
8
8
8
8
8
8
8
8
8
8
8
8
8
8
8
8
8
8
8
8
8
8
8
8
8
8
8
8
8
8
8
8
8
8
8
8
8
8
8
8
8
8
CELL_DATA 64
VECTORS vector_value float
-0.130921 -0.279675 0
0.15319 -0.762825 0
0.0314631 -0.510874 0
-0.396556 -1.43209 0
-0.272137 -0.893713 0
0.468584 -0.98164 0
-0.507081 -1.07131 0
-0.417595 -0.469778 0
-0.00165822 -0.101749 0
-0.224727 -0.986347 0
-0.308579 -0.905841 0
-0.198602 -0.366885 0
-0.117602 -2.15798 0
-0.563008 -1.08024 0
-0.0296966 -0.42457 0
-0.643743 -1.01768 0
0.0152053 -0.182962 0
-0.0372685 -0.232903 0
0.00708199 -0.140523 0
0.363697 -0.397964 0
0.173824 -0.928703 0
-0.000868552 -3.58438 0
1.42922 -1.12815 0
0.036765 -0.213446 0
0.129376 -0.175871 0
-0.311885 -0.798719 0
1.08809 -0.686086 0
0.30335 -2.21047 0
0.0105228 -1.57878 0
-0.60041 -1.61886 0
-0.128597 -3.29715 0
-0.361435 -1.18376 0
0.0064064 -0.585468 0
0.124523 -0.20799 0
-0.220735 -0.156355 0
0.364197 -0.222532 0
-0.0755523 -0.675642 0
0.0686785 -1.15398 0
0.287672 -2.37302 0
0.171921 -1.63234 0
0.110923 -1.73124 0
0.209095 -0.909359 0
0.263884 -1.641 0
0.336689 -0.615837 0
0.118668 -1.00282 0
0.510346 -2.2249 0
0.0614298 -1.30376 0
0.662603 -2.12055 0
-0.855656 -0.74459 0
-0.138503 -0.292549 0
-0.264474 -1.40347 0
0.0353209 -0.943195 0
-0.876638 -1.22541 0
0.426773 -1.7735 0
-0.106725 -0.268721 0
0.0116913 -1.00583 0
0.072746 -1.05944 0
-0.00552115 -0.435229 0
0.270938 -1.39344 0
-0.0321494 -0.458386 0
-0.11939 -0.942786 0
-0.0478126 -0.909257 0
-0.140697 -0.0873962 0
-0.307087 -0.698073 0
