# vtk DataFile Version 2.0
Unstructured Grid by M++
ASCII
DATASET UNSTRUCTURED_GRID
POINTS 81 float
  1.000000   0.625000 0
  0.750000   0.375000 0
  1.000000   0.000000 0
  0.875000   0.875000 0
  0.750000   0.125000 0
  1.000000   1.000000 0
  0.875000   0.250000 0
  0.625000   0.875000 0
  1.000000   0.750000 0
  0.875000   0.000000 0
  1.000000   0.250000 0
  0.625000   0.375000 0
  0.875000   0.500000 0
  0.625000   0.625000 0
  1.000000   0.500000 0
  0.750000   0.500000 0
  0.750000   1.000000 0
  1.000000   0.125000 0
  0.625000   0.250000 0
  0.750000   0.750000 0
  0.625000   0.000000 0
  0.125000   0.375000 0
  0.000000   0.500000 0
  0.125000   0.625000 0
  0.625000   1.000000 0
  1.000000   0.875000 0
  0.875000   0.125000 0
  0.500000   0.250000 0
  0.625000   0.500000 0
  0.250000   0.625000 0
  0.000000   0.625000 0
  0.375000   0.500000 0
  0.375000   0.000000 0
  0.000000   0.125000 0
  0.125000   0.875000 0
  0.875000   1.000000 0
  0.750000   0.250000 0
  0.375000   0.375000 0
  0.250000   0.375000 0
  0.625000   0.750000 0
  0.125000   0.125000 0
  0.500000   0.000000 0
  0.250000   0.875000 0
  0.125000   0.500000 0
  0.500000   0.375000 0
  0.125000   0.000000 0
  0.250000   0.750000 0
  0.250000   0.500000 0
  0.000000   0.875000 0
  0.875000   0.625000 0
  0.500000   0.750000 0
  0.750000   0.625000 0
  0.250000   0.000000 0
  0.375000   0.750000 0
  0.750000   0.875000 0
  0.625000   0.125000 0
  0.250000   0.250000 0
  0.375000   1.000000 0
  0.375000   0.250000 0
  0.000000   0.375000 0
  0.500000   1.000000 0
  0.875000   0.750000 0
  0.750000   0.000000 0
  0.375000   0.125000 0
  0.500000   0.875000 0
  0.000000   0.000000 0
  0.125000   0.750000 0
  0.500000   0.625000 0
  0.125000   0.250000 0
  0.500000   0.125000 0
  0.250000   1.000000 0
  0.250000   0.125000 0
  0.000000   1.000000 0
  0.375000   0.875000 0
  0.000000   0.750000 0
  0.375000   0.625000 0
  0.000000   0.250000 0
  0.125000   1.000000 0
  1.000000   0.375000 0
  0.500000   0.500000 0
  0.875000   0.375000 0
CELLS 64 320
4 56 71 58 63
4 27 58 69 63
4 41 69 32 63
4 76 33 68 40
4 27 44 58 37
4 79 31 44 37
4 56 38 68 21
4 56 58 38 37
4 52 32 71 63
4 47 38 31 37
4 76 68 59 21
4 22 59 43 21
4 65 45 33 40
4 47 43 38 21
4 52 71 45 40
4 56 68 71 40
4 74 30 66 23
4 46 66 29 23
4 22 43 30 23
4 72 48 77 34
4 46 53 42 73
4 50 64 53 73
4 70 42 57 73
4 74 66 48 34
4 46 42 66 34
4 47 29 43 23
4 70 77 42 34
4 60 57 64 73
4 79 67 31 75
4 47 31 29 75
4 50 53 67 75
4 46 29 53 75
4 10 78 6 80
4 36 6 1 80
4 15 1 12 80
4 36 4 6 26
4 14 12 78 80
4 2 17 9 26
4 36 18 4 55
4 15 28 1 11
4 62 4 20 55
4 10 6 17 26
4 27 18 44 11
4 62 9 4 26
4 27 69 18 55
4 36 1 18 11
4 41 20 69 55
4 79 44 28 11
4 16 24 54 7
4 19 54 39 7
4 50 39 64 7
4 8 25 61 3
4 60 64 24 7
4 79 28 67 13
4 19 51 61 49
4 8 61 0 49
4 15 51 28 13
4 19 39 51 13
4 50 67 39 13
4 19 61 54 3
4 14 0 12 49
4 5 35 25 3
4 15 12 51 49
4 16 54 35 3
CELL_TYPES 64
8
8
8
8
8
8
8
8
8
8
8
8
8
8
8
8
8
8
8
8
8
8
8
8
8
8
8
8
8
8
8
8
8
8
8
8
8
8
8
8
8
8
8
8
8
8
8
8
8
8
8
8
8
8
8
8
8
8
8
8
8
8
8
8
CELL_DATA 64
VECTORS vector_value float
0.124245 -0.0499279 0
0.239599 -0.48025 0
0.210597 -0.299152 0
0.0503181 -2.3285 0
0.169566 -0.610519 0
0.37725 -1.41308 0
-0.0767878 -0.518232 0
0.00264888 -0.210523 0
0.188886 -0.211487 0
-0.0756524 -0.385767 0
0.0459922 -2.45619 0
-0.100582 -2.4683 0
0.000541122 -2.30395 0
-0.0620707 -0.301639 0
0.0130159 -0.341056 0
0.227883 -0.624653 0
-0.150069 -1.92632 0
-0.210874 -0.659625 0
-0.0877329 -2.16254 0
-0.125584 -1.19688 0
-0.0816581 -1.14142 0
-0.449042 -0.619034 0
-0.750136 -0.957166 0
-0.284769 -1.37137 0
-0.197592 -1.52369 0
-0.14535 -0.59893 0
-0.520531 -1.42929 0
-0.481221 -0.581342 0
0.152652 -1.71842 0
0.0279613 -0.433941 0
0.309631 -1.05202 0
0.344438 -1.2792 0
-0.238389 -1.29617 0
-0.569382 -0.903191 0
0.0610496 -0.781854 0
-0.505511 -0.576978 0
0.0770376 -1.63429 0
-0.0626761 -0.513421 0
-0.459308 -1.03004 0
-0.0111859 -0.192477 0
-0.540505 -1.22419 0
-0.230102 -0.898085 0
0.373989 -1.47309 0
-0.289582 -0.322658 0
-0.0225668 -2.01157 0
-0.150116 -0.53209 0
-0.0640917 -2.78409 0
0.215145 -0.822593 0
0.223534 -0.912578 0
0.0246822 -0.690644 0
-0.290009 -0.211602 0
-0.163122 -0.925136 0
-0.0962503 -0.710062 0
0.00224476 -0.339828 0
0.154462 -1.4834 0
0.182334 -0.8501 0
-0.0259006 -0.420274 0
-0.20311 -0.63642 0
-0.176831 -0.112911 0
-0.146152 -1.5171 0
0.10779 -1.28356 0
0.0733925 -1.23541 0
0.163266 -1.0425 0
0.258335 -0.977264 0
