# vtk DataFile Version 2.0
Unstructured Grid by M++
ASCII
DATASET UNSTRUCTURED_GRID
POINTS 81 float
  1.000000   0.625000 0
  0.750000   0.375000 0
  1.000000   0.000000 0
  0.875000   0.875000 0
  0.750000   0.125000 0
  1.000000   1.000000 0
  0.875000   0.250000 0
  0.625000   0.875000 0
  1.000000   0.750000 0
  0.875000   0.000000 0
  1.000000   0.250000 0
  0.625000   0.375000 0
  0.875000   0.500000 0
  0.625000   0.625000 0
  1.000000   0.500000 0
  0.750000   0.500000 0
  0.750000   1.000000 0
  1.000000   0.125000 0
  0.625000   0.250000 0
  0.750000   0.750000 0
  0.625000   0.000000 0
  0.125000   0.375000 0
  0.000000   0.500000 0
  0.125000   0.625000 0
  0.625000   1.000000 0
  1.000000   0.875000 0
  0.875000   0.125000 0
  0.500000   0.250000 0
  0.625000   0.500000 0
  0.250000   0.625000 0
  0.000000   0.625000 0
  0.375000   0.500000 0
  0.375000   0.000000 0
  0.000000   0.125000 0
  0.125000   0.875000 0
  0.875000   1.000000 0
  0.750000   0.250000 0
  0.375000   0.375000 0
  0.250000   0.375000 0
  0.625000   0.750000 0
  0.125000   0.125000 0
  0.500000   0.000000 0
  0.250000   0.875000 0
  0.125000   0.500000 0
  0.500000   0.375000 0
  0.125000   0.000000 0
  0.250000   0.750000 0
  0.250000   0.500000 0
  0.000000   0.875000 0
  0.875000   0.625000 0
  0.500000   0.750000 0
  0.750000   0.625000 0
  0.250000   0.000000 0
  0.375000   0.750000 0
  0.750000   0.875000 0
  0.625000   0.125000 0
  0.250000   0.250000 0
  0.375000   1.000000 0
  0.375000   0.250000 0
  0.000000   0.375000 0
  0.500000   1.000000 0
  0.875000   0.750000 0
  0.750000   0.000000 0
  0.375000   0.125000 0
  0.500000   0.875000 0
  0.000000   0.000000 0
  0.125000   0.750000 0
  0.500000   0.625000 0
  0.125000   0.250000 0
  0.500000   0.125000 0
  0.250000   1.000000 0
  0.250000   0.125000 0
  0.000000   1.000000 0
  0.375000   0.875000 0
  0.000000   0.750000 0
  0.375000   0.625000 0
  0.000000   0.250000 0
  0.125000   1.000000 0
  1.000000   0.375000 0
  0.500000   0.500000 0
  0.875000   0.375000 0
CELLS 64 320
4 56 71 58 63
4 27 58 69 63
4 41 69 32 63
4 76 33 68 40
4 27 44 58 37
4 79 31 44 37
4 56 38 68 21
4 56 58 38 37
4 52 32 71 63
4 47 38 31 37
4 76 68 59 21
4 22 59 43 21
4 65 45 33 40
4 47 43 38 21
4 52 71 45 40
4 56 68 71 40
4 74 30 66 23
4 46 66 29 23
4 22 43 30 23
4 72 48 77 34
4 46 53 42 73
4 50 64 53 73
4 70 42 57 73
4 74 66 48 34
4 46 42 66 34
4 47 29 43 23
4 70 77 42 34
4 60 57 64 73
4 79 67 31 75
4 47 31 29 75
4 50 53 67 75
4 46 29 53 75
4 10 78 6 80
4 36 6 1 80
4 15 1 12 80
4 36 4 6 26
4 14 12 78 80
4 2 17 9 26
4 36 18 4 55
4 15 28 1 11
4 62 4 20 55
4 10 6 17 26
4 27 18 44 11
4 62 9 4 26
4 27 69 18 55
4 36 1 18 11
4 41 20 69 55
4 79 44 28 11
4 16 24 54 7
4 19 54 39 7
4 50 39 64 7
4 8 25 61 3
4 60 64 24 7
4 79 28 67 13
4 19 51 61 49
4 8 61 0 49
4 15 51 28 13
4 19 39 51 13
4 50 67 39 13
4 19 61 54 3
4 14 0 12 49
4 5 35 25 3
4 15 12 51 49
4 16 54 35 3
CELL_TYPES 64
8
8
8
8
8
8
8
8
8
8
8
8
8
8
8
8
8
8
8
8
8
8
8
8
8
8
8
8
8
8
8
8
8
8
8
8
8
8
8
8
8
8
8
8
8
8
8
8
8
8
8
8
8
8
8
8
8
8
8
8
8
8
8
8
CELL_DATA 64
VECTORS vector_value float
0.0728365 -0.0864988 0
0.0518579 -0.106987 0
-0.0386825 -0.299921 0
0.0822101 -0.284575 0
0.607968 -0.356923 0
1.55303 -1.58774 0
0.120519 -0.0906428 0
0.0892894 -0.143521 0
0.0502675 -0.104853 0
0.864499 -0.831109 0
0.213436 -0.678637 0
0.0390689 -0.797214 0
0.0304972 -0.130744 0
0.208525 -0.130003 0
0.0654839 -0.493445 0
0.226109 -0.422859 0
-0.0555205 -1.14258 0
-0.133263 -0.454238 0
0.128113 -1.05254 0
0.190957 -0.655012 0
0.393041 -2.12485 0
0.275876 -0.521884 0
-0.0319501 -1.81984 0
-0.189051 -0.927139 0
-0.0971978 -0.304062 0
0.316287 -0.29453 0
0.426983 -0.996781 0
-0.205231 -0.407672 0
0.116343 -1.56593 0
0.266366 -1.07791 0
0.253385 -1.1294 0
0.127414 -1.00542 0
-0.231783 -0.886257 0
-0.478455 -0.125744 0
-0.0610901 -0.339147 0
-0.203162 -0.239345 0
-0.0267962 -1.16447 0
-0.0191772 -0.334501 0
0.0584221 -2.02593 0
0.112738 -0.252697 0
-0.010063 -2.05887 0
-0.084674 -0.464958 0
1.58279 -4.65009 0
-0.0257616 -0.328874 0
0.0027792 -4.36885 0
-0.00503764 -1.06818 0
-0.0211888 -4.24879 0
0.370828 -2.89762 0
0.583556 -0.913468 0
-1.16873 -1.55241 0
-0.13251 -0.569766 0
0.0838764 -0.326498 0
0.34877 -0.663348 0
0.0250665 -2.42061 0
0.221445 -0.586364 0
0.116735 -0.645959 0
0.00620503 -0.127302 0
-0.385954 -0.93253 0
-0.833421 -2.1035 0
-0.642341 -1.67339 0
0.142318 -1.00454 0
-0.316444 -0.805132 0
0.133704 -0.45663 0
0.0503048 -1.73874 0
