# vtk DataFile Version 2.0
Unstructured Grid by M++
ASCII
DATASET UNSTRUCTURED_GRID
POINTS 81 float
  1.000000   0.625000 0
  0.750000   0.375000 0
  1.000000   0.000000 0
  0.875000   0.875000 0
  0.750000   0.125000 0
  1.000000   1.000000 0
  0.875000   0.250000 0
  0.625000   0.875000 0
  1.000000   0.750000 0
  0.875000   0.000000 0
  1.000000   0.250000 0
  0.625000   0.375000 0
  0.875000   0.500000 0
  0.625000   0.625000 0
  1.000000   0.500000 0
  0.750000   0.500000 0
  0.750000   1.000000 0
  1.000000   0.125000 0
  0.625000   0.250000 0
  0.750000   0.750000 0
  0.625000   0.000000 0
  0.125000   0.375000 0
  0.000000   0.500000 0
  0.125000   0.625000 0
  0.625000   1.000000 0
  1.000000   0.875000 0
  0.875000   0.125000 0
  0.500000   0.250000 0
  0.625000   0.500000 0
  0.250000   0.625000 0
  0.000000   0.625000 0
  0.375000   0.500000 0
  0.375000   0.000000 0
  0.000000   0.125000 0
  0.125000   0.875000 0
  0.875000   1.000000 0
  0.750000   0.250000 0
  0.375000   0.375000 0
  0.250000   0.375000 0
  0.625000   0.750000 0
  0.125000   0.125000 0
  0.500000   0.000000 0
  0.250000   0.875000 0
  0.125000   0.500000 0
  0.500000   0.375000 0
  0.125000   0.000000 0
  0.250000   0.750000 0
  0.250000   0.500000 0
  0.000000   0.875000 0
  0.875000   0.625000 0
  0.500000   0.750000 0
  0.750000   0.625000 0
  0.250000   0.000000 0
  0.375000   0.750000 0
  0.750000   0.875000 0
  0.625000   0.125000 0
  0.250000   0.250000 0
  0.375000   1.000000 0
  0.375000   0.250000 0
  0.000000   0.375000 0
  0.500000   1.000000 0
  0.875000   0.750000 0
  0.750000   0.000000 0
  0.375000   0.125000 0
  0.500000   0.875000 0
  0.000000   0.000000 0
  0.125000   0.750000 0
  0.500000   0.625000 0
  0.125000   0.250000 0
  0.500000   0.125000 0
  0.250000   1.000000 0
  0.250000   0.125000 0
  0.000000   1.000000 0
  0.375000   0.875000 0
  0.000000   0.750000 0
  0.375000   0.625000 0
  0.000000   0.250000 0
  0.125000   1.000000 0
  1.000000   0.375000 0
  0.500000   0.500000 0
  0.875000   0.375000 0
CELLS 64 320
4 56 71 58 63
4 27 58 69 63
4 41 69 32 63
4 76 33 68 40
4 27 44 58 37
4 79 31 44 37
4 56 38 68 21
4 56 58 38 37
4 52 32 71 63
4 47 38 31 37
4 76 68 59 21
4 22 59 43 21
4 65 45 33 40
4 47 43 38 21
4 52 71 45 40
4 56 68 71 40
4 74 30 66 23
4 46 66 29 23
4 22 43 30 23
4 72 48 77 34
4 46 53 42 73
4 50 64 53 73
4 70 42 57 73
4 74 66 48 34
4 46 42 66 34
4 47 29 43 23
4 70 77 42 34
4 60 57 64 73
4 79 67 31 75
4 47 31 29 75
4 50 53 67 75
4 46 29 53 75
4 10 78 6 80
4 36 6 1 80
4 15 1 12 80
4 36 4 6 26
4 14 12 78 80
4 2 17 9 26
4 36 18 4 55
4 15 28 1 11
4 62 4 20 55
4 10 6 17 26
4 27 18 44 11
4 62 9 4 26
4 27 69 18 55
4 36 1 18 11
4 41 20 69 55
4 79 44 28 11
4 16 24 54 7
4 19 54 39 7
4 50 39 64 7
4 8 25 61 3
4 60 64 24 7
4 79 28 67 13
4 19 51 61 49
4 8 61 0 49
4 15 51 28 13
4 19 39 51 13
4 50 67 39 13
4 19 61 54 3
4 14 0 12 49
4 5 35 25 3
4 15 12 51 49
4 16 54 35 3
CELL_TYPES 64
8
8
8
8
8
8
8
8
8
8
8
8
8
8
8
8
8
8
8
8
8
8
8
8
8
8
8
8
8
8
8
8
8
8
8
8
8
8
8
8
8
8
8
8
8
8
8
8
8
8
8
8
8
8
8
8
8
8
8
8
8
8
8
8
CELL_DATA 64
VECTORS vector_value float
0.282306 -1.29111 0
0.952265 -0.914958 0
0.0794409 -0.357732 0
0.521409 -1.89225 0
0.509118 -0.480552 0
-0.034866 -0.278844 0
0.511627 -1.98982 0
1.09136 -1.61319 0
0.00988716 -1.17991 0
-0.291788 -1.59168 0
-0.0632597 -2.03455 0
0.329681 -2.04104 0
0.120915 -0.819802 0
0.278093 -2.34426 0
0.416404 -2.39983 0
0.280956 -1.33308 0
-0.258188 -3.00554 0
-0.294346 -0.686933 0
0.294855 -3.1017 0
-0.439982 -1.38991 0
-0.569508 -0.66067 0
-1.30416 -1.40046 0
-0.921106 -0.736594 0
-0.395178 -2.38438 0
-0.534893 -0.991677 0
0.0182686 -0.719394 0
-1.12643 -1.32441 0
-0.557538 -0.785829 0
-0.17114 -0.609438 0
-0.245636 -1.82818 0
-0.538287 -1.13336 0
-0.663453 -1.39823 0
-0.0378038 -1.071 0
-0.0984378 -0.191853 0
-0.129811 -0.463645 0
-0.250322 -0.346938 0
-0.0102367 -1.09434 0
-0.109737 -0.442067 0
0.13321 -0.677814 0
-0.0774021 -0.129593 0
0.232598 -1.32816 0
-0.193536 -0.776082 0
0.0746725 -0.268103 0
-0.15714 -0.630097 0
0.781118 -0.767766 0
-0.188469 -0.350933 0
0.299543 -0.8424 0
-0.0027374 -0.0565989 0
-0.551928 -0.249944 0
-0.185128 -0.0183056 0
-0.900352 -0.692845 0
0.0396124 -1.70783 0
-0.820621 -1.39412 0
-0.0117156 -0.0360941 0
-0.188396 -0.189601 0
-0.142216 -1.54829 0
-0.0390703 -0.016841 0
-0.0488002 -0.00314394 0
-0.0484601 -0.0349028 0
-0.102439 -0.143824 0
-0.140863 -1.33632 0
0.297523 -1.47358 0
-0.179862 -0.352035 0
0.337332 -0.645604 0
