# vtk DataFile Version 2.0
Unstructured Grid by M++
ASCII
DATASET UNSTRUCTURED_GRID
POINTS 81 float
  1.000000   0.625000 0
  0.750000   0.375000 0
  1.000000   0.000000 0
  0.875000   0.875000 0
  0.750000   0.125000 0
  1.000000   1.000000 0
  0.875000   0.250000 0
  0.625000   0.875000 0
  1.000000   0.750000 0
  0.875000   0.000000 0
  1.000000   0.250000 0
  0.625000   0.375000 0
  0.875000   0.500000 0
  0.625000   0.625000 0
  1.000000   0.500000 0
  0.750000   0.500000 0
  0.750000   1.000000 0
  1.000000   0.125000 0
  0.625000   0.250000 0
  0.750000   0.750000 0
  0.625000   0.000000 0
  0.125000   0.375000 0
  0.000000   0.500000 0
  0.125000   0.625000 0
  0.625000   1.000000 0
  1.000000   0.875000 0
  0.875000   0.125000 0
  0.500000   0.250000 0
  0.625000   0.500000 0
  0.250000   0.625000 0
  0.000000   0.625000 0
  0.375000   0.500000 0
  0.375000   0.000000 0
  0.000000   0.125000 0
  0.125000   0.875000 0
  0.875000   1.000000 0
  0.750000   0.250000 0
  0.375000   0.375000 0
  0.250000   0.375000 0
  0.625000   0.750000 0
  0.125000   0.125000 0
  0.500000   0.000000 0
  0.250000   0.875000 0
  0.125000   0.500000 0
  0.500000   0.375000 0
  0.125000   0.000000 0
  0.250000   0.750000 0
  0.250000   0.500000 0
  0.000000   0.875000 0
  0.875000   0.625000 0
  0.500000   0.750000 0
  0.750000   0.625000 0
  0.250000   0.000000 0
  0.375000   0.750000 0
  0.750000   0.875000 0
  0.625000   0.125000 0
  0.250000   0.250000 0
  0.375000   1.000000 0
  0.375000   0.250000 0
  0.000000   0.375000 0
  0.500000   1.000000 0
  0.875000   0.750000 0
  0.750000   0.000000 0
  0.375000   0.125000 0
  0.500000   0.875000 0
  0.000000   0.000000 0
  0.125000   0.750000 0
  0.500000   0.625000 0
  0.125000   0.250000 0
  0.500000   0.125000 0
  0.250000   1.000000 0
  0.250000   0.125000 0
  0.000000   1.000000 0
  0.375000   0.875000 0
  0.000000   0.750000 0
  0.375000   0.625000 0
  0.000000   0.250000 0
  0.125000   1.000000 0
  1.000000   0.375000 0
  0.500000   0.500000 0
  0.875000   0.375000 0
CELLS 64 320
4 56 71 58 63
4 27 58 69 63
4 41 69 32 63
4 76 33 68 40
4 27 44 58 37
4 79 31 44 37
4 56 38 68 21
4 56 58 38 37
4 52 32 71 63
4 47 38 31 37
4 76 68 59 21
4 22 59 43 21
4 65 45 33 40
4 47 43 38 21
4 52 71 45 40
4 56 68 71 40
4 74 30 66 23
4 46 66 29 23
4 22 43 30 23
4 72 48 77 34
4 46 53 42 73
4 50 64 53 73
4 70 42 57 73
4 74 66 48 34
4 46 42 66 34
4 47 29 43 23
4 70 77 42 34
4 60 57 64 73
4 79 67 31 75
4 47 31 29 75
4 50 53 67 75
4 46 29 53 75
4 10 78 6 80
4 36 6 1 80
4 15 1 12 80
4 36 4 6 26
4 14 12 78 80
4 2 17 9 26
4 36 18 4 55
4 15 28 1 11
4 62 4 20 55
4 10 6 17 26
4 27 18 44 11
4 62 9 4 26
4 27 69 18 55
4 36 1 18 11
4 41 20 69 55
4 79 44 28 11
4 16 24 54 7
4 19 54 39 7
4 50 39 64 7
4 8 25 61 3
4 60 64 24 7
4 79 28 67 13
4 19 51 61 49
4 8 61 0 49
4 15 51 28 13
4 19 39 51 13
4 50 67 39 13
4 19 61 54 3
4 14 0 12 49
4 5 35 25 3
4 15 12 51 49
4 16 54 35 3
CELL_TYPES 64
8
8
8
8
8
8
8
8
8
8
8
8
8
8
8
8
8
8
8
8
8
8
8
8
8
8
8
8
8
8
8
8
8
8
8
8
8
8
8
8
8
8
8
8
8
8
8
8
8
8
8
8
8
8
8
8
8
8
8
8
8
8
8
8
CELL_DATA 64
VECTORS vector_value float
1.13292 -1.13737 0
0.457781 -0.513118 0
0.510408 -1.68092 0
0.0686892 -2.08766 0
0.0245521 -0.0867052 0
0.0705971 -0.0743043 0
0.379148 -2.28204 0
0.185531 -0.678832 0
0.444413 -0.61239 0
0.0163133 -0.827479 0
-0.370319 -2.24448 0
-0.491459 -0.701392 0
0.00105666 -2.06176 0
-0.999535 -3.75284 0
0.132363 -0.839397 0
0.447985 -1.40011 0
0.123503 -0.577858 0
-0.207995 -4.57164 0
-0.0695705 -0.284796 0
0.203394 -0.669795 0
-2.08279 -0.64298 0
-1.18105 -0.289791 0
-0.568279 -0.47149 0
0.00400202 -0.550374 0
-0.884448 -3.34729 0
0.415602 -4.54398 0
-0.242516 -1.98084 0
-0.567796 -0.846667 0
-0.0264635 -0.0474618 0
0.295857 -0.480087 0
-0.0569711 -0.069775 0
-0.0572534 -0.10268 0
-0.64259 -2.13678 0
-0.425498 -0.434891 0
0.134259 -0.411165 0
-1.16877 -0.747736 0
0.295702 -2.22596 0
-0.0645887 -0.483163 0
-0.940321 -0.591223 0
-0.000920932 -0.00405715 0
-0.43962 -0.831238 0
-0.227704 -0.949484 0
0.0344495 -0.0695798 0
-0.199812 -0.379039 0
-0.217543 -0.573292 0
-0.0532849 -0.066691 0
-0.253626 -1.11209 0
0.00183588 -0.00280093 0
-0.165932 -0.568677 0
0.242858 -0.386936 0
-0.323929 -0.591729 0
0.0595397 -1.7134 0
-0.529481 -1.42029 0
0.00427895 -0.0108659 0
0.0872267 -0.671396 0
-0.0160398 -1.89259 0
0.0396534 -0.0247294 0
0.0221172 -0.0391518 0
-0.00876975 -0.0749066 0
0.214522 -0.477509 0
-0.0193173 -1.69393 0
0.345815 -1.53752 0
0.0885215 -0.914154 0
0.408927 -0.504726 0
