# vtk DataFile Version 2.0
Unstructured Grid by M++
ASCII
DATASET UNSTRUCTURED_GRID
POINTS 81 float
  1.000000   0.625000 0
  0.750000   0.375000 0
  1.000000   0.000000 0
  0.875000   0.875000 0
  0.750000   0.125000 0
  1.000000   1.000000 0
  0.875000   0.250000 0
  0.625000   0.875000 0
  1.000000   0.750000 0
  0.875000   0.000000 0
  1.000000   0.250000 0
  0.625000   0.375000 0
  0.875000   0.500000 0
  0.625000   0.625000 0
  1.000000   0.500000 0
  0.750000   0.500000 0
  0.750000   1.000000 0
  1.000000   0.125000 0
  0.625000   0.250000 0
  0.750000   0.750000 0
  0.625000   0.000000 0
  0.125000   0.375000 0
  0.000000   0.500000 0
  0.125000   0.625000 0
  0.625000   1.000000 0
  1.000000   0.875000 0
  0.875000   0.125000 0
  0.500000   0.250000 0
  0.625000   0.500000 0
  0.250000   0.625000 0
  0.000000   0.625000 0
  0.375000   0.500000 0
  0.375000   0.000000 0
  0.000000   0.125000 0
  0.125000   0.875000 0
  0.875000   1.000000 0
  0.750000   0.250000 0
  0.375000   0.375000 0
  0.250000   0.375000 0
  0.625000   0.750000 0
  0.125000   0.125000 0
  0.500000   0.000000 0
  0.250000   0.875000 0
  0.125000   0.500000 0
  0.500000   0.375000 0
  0.125000   0.000000 0
  0.250000   0.750000 0
  0.250000   0.500000 0
  0.000000   0.875000 0
  0.875000   0.625000 0
  0.500000   0.750000 0
  0.750000   0.625000 0
  0.250000   0.000000 0
  0.375000   0.750000 0
  0.750000   0.875000 0
  0.625000   0.125000 0
  0.250000   0.250000 0
  0.375000   1.000000 0
  0.375000   0.250000 0
  0.000000   0.375000 0
  0.500000   1.000000 0
  0.875000   0.750000 0
  0.750000   0.000000 0
  0.375000   0.125000 0
  0.500000   0.875000 0
  0.000000   0.000000 0
  0.125000   0.750000 0
  0.500000   0.625000 0
  0.125000   0.250000 0
  0.500000   0.125000 0
  0.250000   1.000000 0
  0.250000   0.125000 0
  0.000000   1.000000 0
  0.375000   0.875000 0
  0.000000   0.750000 0
  0.375000   0.625000 0
  0.000000   0.250000 0
  0.125000   1.000000 0
  1.000000   0.375000 0
  0.500000   0.500000 0
  0.875000   0.375000 0
CELLS 64 320
4 56 71 58 63
4 27 58 69 63
4 41 69 32 63
4 76 33 68 40
4 27 44 58 37
4 79 31 44 37
4 56 38 68 21
4 56 58 38 37
4 52 32 71 63
4 47 38 31 37
4 76 68 59 21
4 22 59 43 21
4 65 45 33 40
4 47 43 38 21
4 52 71 45 40
4 56 68 71 40
4 74 30 66 23
4 46 66 29 23
4 22 43 30 23
4 72 48 77 34
4 46 53 42 73
4 50 64 53 73
4 70 42 57 73
4 74 66 48 34
4 46 42 66 34
4 47 29 43 23
4 70 77 42 34
4 60 57 64 73
4 79 67 31 75
4 47 31 29 75
4 50 53 67 75
4 46 29 53 75
4 10 78 6 80
4 36 6 1 80
4 15 1 12 80
4 36 4 6 26
4 14 12 78 80
4 2 17 9 26
4 36 18 4 55
4 15 28 1 11
4 62 4 20 55
4 10 6 17 26
4 27 18 44 11
4 62 9 4 26
4 27 69 18 55
4 36 1 18 11
4 41 20 69 55
4 79 44 28 11
4 16 24 54 7
4 19 54 39 7
4 50 39 64 7
4 8 25 61 3
4 60 64 24 7
4 79 28 67 13
4 19 51 61 49
4 8 61 0 49
4 15 51 28 13
4 19 39 51 13
4 50 67 39 13
4 19 61 54 3
4 14 0 12 49
4 5 35 25 3
4 15 12 51 49
4 16 54 35 3
CELL_TYPES 64
8
8
8
8
8
8
8
8
8
8
8
8
8
8
8
8
8
8
8
8
8
8
8
8
8
8
8
8
8
8
8
8
8
8
8
8
8
8
8
8
8
8
8
8
8
8
8
8
8
8
8
8
8
8
8
8
8
8
8
8
8
8
8
8
CELL_DATA 64
VECTORS vector_value float
-0.172519 -0.840202 0
-0.0177399 -0.371438 0
0.0545271 -0.379019 0
-0.841002 -1.90381 0
-0.292929 -0.529069 0
-1.10504 -1.1608 0
-0.995857 -1.23946 0
-1.3491 -2.154 0
0.0496813 -0.786831 0
-0.270013 -1.67724 0
-0.220848 -0.639619 0
0.10527 -0.37527 0
-0.209258 -2.82342 0
0.34969 -0.832029 0
-0.109473 -0.560992 0
-1.23697 -1.48281 0
0.184355 -1.62554 0
0.326528 -0.687602 0
0.270325 -0.937811 0
0.047771 -0.698654 0
0.378701 -0.746839 0
0.415708 -0.32941 0
-0.316025 -1.0895 0
-0.283198 -1.20801 0
-0.289611 -1.17138 0
0.542901 -0.752509 0
-0.209366 -1.52099 0
0.0212591 -0.934546 0
-0.261406 -0.799057 0
0.356192 -0.800329 0
0.333959 -0.507516 0
0.0535336 -0.191919 0
0.00252211 -1.10003 0
0.00740631 -1.28907 0
-0.776196 -2.07496 0
0.241752 -1.58505 0
-0.0746061 -1.11456 0
0.0922362 -1.33641 0
0.162779 -0.375489 0
-1.25166 -0.525481 0
0.0315503 -0.142897 0
0.0394827 -1.1428 0
-0.13815 -0.338327 0
0.145666 -1.57375 0
0.00486055 -0.298405 0
-0.00420223 -0.710433 0
-0.00208476 -0.396676 0
-0.86864 -0.239666 0
0.788097 -1.491 0
0.540751 -0.765897 0
0.577242 -0.619062 0
0.129222 -1.58943 0
0.276827 -0.147925 0
-0.244781 -0.539072 0
0.543952 -1.69483 0
0.269087 -2.17986 0
-0.0351098 -0.142145 0
0.254665 -0.215783 0
0.145779 -0.896949 0
0.659833 -1.56997 0
-0.493643 -2.0269 0
0.219279 -1.30965 0
-0.592441 -2.00218 0
0.417594 -0.807731 0
