# vtk DataFile Version 2.0
Unstructured Grid by M++
ASCII
DATASET UNSTRUCTURED_GRID
POINTS 81 float
  1.000000   0.625000 0
  0.750000   0.375000 0
  1.000000   0.000000 0
  0.875000   0.875000 0
  0.750000   0.125000 0
  1.000000   1.000000 0
  0.875000   0.250000 0
  0.625000   0.875000 0
  1.000000   0.750000 0
  0.875000   0.000000 0
  1.000000   0.250000 0
  0.625000   0.375000 0
  0.875000   0.500000 0
  0.625000   0.625000 0
  1.000000   0.500000 0
  0.750000   0.500000 0
  0.750000   1.000000 0
  1.000000   0.125000 0
  0.625000   0.250000 0
  0.750000   0.750000 0
  0.625000   0.000000 0
  0.125000   0.375000 0
  0.000000   0.500000 0
  0.125000   0.625000 0
  0.625000   1.000000 0
  1.000000   0.875000 0
  0.875000   0.125000 0
  0.500000   0.250000 0
  0.625000   0.500000 0
  0.250000   0.625000 0
  0.000000   0.625000 0
  0.375000   0.500000 0
  0.375000   0.000000 0
  0.000000   0.125000 0
  0.125000   0.875000 0
  0.875000   1.000000 0
  0.750000   0.250000 0
  0.375000   0.375000 0
  0.250000   0.375000 0
  0.625000   0.750000 0
  0.125000   0.125000 0
  0.500000   0.000000 0
  0.250000   0.875000 0
  0.125000   0.500000 0
  0.500000   0.375000 0
  0.125000   0.000000 0
  0.250000   0.750000 0
  0.250000   0.500000 0
  0.000000   0.875000 0
  0.875000   0.625000 0
  0.500000   0.750000 0
  0.750000   0.625000 0
  0.250000   0.000000 0
  0.375000   0.750000 0
  0.750000   0.875000 0
  0.625000   0.125000 0
  0.250000   0.250000 0
  0.375000   1.000000 0
  0.375000   0.250000 0
  0.000000   0.375000 0
  0.500000   1.000000 0
  0.875000   0.750000 0
  0.750000   0.000000 0
  0.375000   0.125000 0
  0.500000   0.875000 0
  0.000000   0.000000 0
  0.125000   0.750000 0
  0.500000   0.625000 0
  0.125000   0.250000 0
  0.500000   0.125000 0
  0.250000   1.000000 0
  0.250000   0.125000 0
  0.000000   1.000000 0
  0.375000   0.875000 0
  0.000000   0.750000 0
  0.375000   0.625000 0
  0.000000   0.250000 0
  0.125000   1.000000 0
  1.000000   0.375000 0
  0.500000   0.500000 0
  0.875000   0.375000 0
CELLS 64 320
4 56 71 58 63
4 27 58 69 63
4 41 69 32 63
4 76 33 68 40
4 27 44 58 37
4 79 31 44 37
4 56 38 68 21
4 56 58 38 37
4 52 32 71 63
4 47 38 31 37
4 76 68 59 21
4 22 59 43 21
4 65 45 33 40
4 47 43 38 21
4 52 71 45 40
4 56 68 71 40
4 74 30 66 23
4 46 66 29 23
4 22 43 30 23
4 72 48 77 34
4 46 53 42 73
4 50 64 53 73
4 70 42 57 73
4 74 66 48 34
4 46 42 66 34
4 47 29 43 23
4 70 77 42 34
4 60 57 64 73
4 79 67 31 75
4 47 31 29 75
4 50 53 67 75
4 46 29 53 75
4 10 78 6 80
4 36 6 1 80
4 15 1 12 80
4 36 4 6 26
4 14 12 78 80
4 2 17 9 26
4 36 18 4 55
4 15 28 1 11
4 62 4 20 55
4 10 6 17 26
4 27 18 44 11
4 62 9 4 26
4 27 69 18 55
4 36 1 18 11
4 41 20 69 55
4 79 44 28 11
4 16 24 54 7
4 19 54 39 7
4 50 39 64 7
4 8 25 61 3
4 60 64 24 7
4 79 28 67 13
4 19 51 61 49
4 8 61 0 49
4 15 51 28 13
4 19 39 51 13
4 50 67 39 13
4 19 61 54 3
4 14 0 12 49
4 5 35 25 3
4 15 12 51 49
4 16 54 35 3
CELL_TYPES 64
8
8
8
8
8
8
8
8
8
8
8
8
8
8
8
8
8
8
8
8
8
8
8
8
8
8
8
8
8
8
8
8
8
8
8
8
8
8
8
8
8
8
8
8
8
8
8
8
8
8
8
8
8
8
8
8
8
8
8
8
8
8
8
8
CELL_DATA 64
VECTORS vector_value float
-1.71786 -3.86657 0
-1.95736 -1.38655 0
-0.597171 -1.63345 0
0.0442784 -0.0913031 0
-1.70506 -2.29732 0
0.0590064 -1.47004 0
0.111386 -0.559542 0
-0.187844 -1.29005 0
-0.259019 -4.89321 0
0.364939 -0.742798 0
0.0119867 -0.161106 0
0.0269001 -0.177692 0
0.00527725 -0.0470439 0
0.191712 -0.799652 0
-0.0438379 -0.920043 0
-0.0490257 -0.665314 0
-0.0330677 -0.526737 0
-0.173482 -0.988573 0
0.0954779 -0.355034 0
0.343051 -0.435632 0
-0.195725 -1.78131 0
0.490742 -2.17129 0
0.630043 -1.75121 0
-0.0165465 -0.311563 0
-0.167309 -0.654541 0
0.250271 -1.06349 0
0.865914 -0.879647 0
-0.42611 -1.63411 0
0.47128 -1.00645 0
0.259066 -0.74898 0
0.388115 -1.40658 0
0.149542 -1.1128 0
-0.0121014 -0.0479414 0
-0.0726262 -0.0855812 0
-0.0752854 -0.172017 0
-0.0121713 -0.0375146 0
-0.0277267 -0.083932 0
-0.00136378 -0.0300905 0
-0.105963 -0.18962 0
-0.370085 -1.43886 0
-0.00554305 -0.106513 0
-0.00478248 -0.0375916 0
-1.33013 -2.79841 0
-0.000870663 -0.0452319 0
-1.24711 -1.72554 0
-0.597276 -0.760053 0
-0.0587779 -0.324411 0
-1.02202 -3.11502 0
-0.641156 -0.413235 0
-0.0306833 -0.139809 0
0.678592 -1.18374 0
-0.301833 -1.73274 0
-1.07954 -1.02962 0
0.310171 -1.45677 0
-0.634292 -0.570414 0
-0.365497 -0.977506 0
-1.19683 -2.54229 0
0.575188 -1.54909 0
0.583058 -0.868298 0
-0.0141032 -0.025008 0
-0.181567 -0.21621 0
0.409689 -1.57022 0
-0.886174 -0.610783 0
0.248084 -0.286327 0
