# vtk DataFile Version 2.0
Unstructured Grid by M++
ASCII
DATASET UNSTRUCTURED_GRID
POINTS 289 float
  0.562500   1.000000 0
  0.562500   0.625000 0
  0.625000   1.000000 0
  0.562500   0.937500 0
  0.562500   0.562500 0
  0.625000   0.937500 0
  0.562500   0.875000 0
  0.625000   0.750000 0
  0.625000   0.625000 0
  0.562500   0.812500 0
  0.562500   0.750000 0
  0.562500   0.687500 0
  0.625000   0.875000 0
  0.625000   0.812500 0
  0.625000   0.687500 0
  0.687500   0.125000 0
  0.875000   0.062500 0
  0.625000   0.125000 0
  0.625000   0.187500 0
  0.625000   0.250000 0
  0.812500   0.187500 0
  1.000000   0.125000 0
  0.687500   0.187500 0
  0.750000   0.125000 0
  0.937500   0.062500 0
  0.937500   0.125000 0
  0.750000   0.187500 0
  0.812500   0.062500 0
  0.812500   0.125000 0
  0.875000   0.687500 0
  0.187500   0.250000 0
  0.437500   0.250000 0
  0.375000   0.187500 0
  0.812500   0.625000 0
  0.125000   0.187500 0
  0.937500   0.750000 0
  0.250000   0.312500 0
  0.500000   0.312500 0
  0.625000   0.062500 0
  0.437500   0.500000 0
  0.375000   0.125000 0
  0.437500   0.187500 0
  0.437500   0.437500 0
  0.437500   0.375000 0
  0.875000   0.875000 0
  0.187500   0.375000 0
  0.687500   0.562500 0
  0.687500   0.625000 0
  0.000000   0.125000 0
  0.937500   0.625000 0
  0.250000   0.125000 0
  0.375000   0.062500 0
  0.375000   0.000000 0
  0.812500   0.500000 0
  0.125000   0.000000 0
  0.937500   0.937500 0
  0.250000   0.437500 0
  0.687500   0.875000 0
  0.687500   0.937500 0
  0.000000   0.437500 0
  0.500000   0.500000 0
  0.500000   0.437500 0
  0.750000   0.937500 0
  0.750000   1.000000 0
  0.062500   0.500000 0
  1.000000   1.000000 0
  0.312500   0.500000 0
  0.875000   0.562500 0
  0.187500   0.062500 0
  0.437500   0.125000 0
  0.437500   0.062500 0
  0.500000   0.375000 0
  0.937500   0.812500 0
  0.937500   0.875000 0
  0.250000   0.375000 0
  0.687500   0.812500 0
  0.000000   0.375000 0
  0.750000   0.562500 0
  0.062500   0.125000 0
  1.000000   0.562500 0
  1.000000   0.625000 0
  0.312500   0.125000 0
  0.562500   0.125000 0
  0.437500   0.000000 0
  0.875000   0.437500 0
  0.875000   0.500000 0
  0.187500   0.000000 0
  0.937500   0.562500 0
  0.937500   0.500000 0
  0.250000   0.062500 0
  0.687500   0.500000 0
  0.000000   0.062500 0
  0.500000   0.062500 0
  1.000000   0.875000 0
  1.000000   0.937500 0
  0.312500   0.437500 0
  0.750000   0.875000 0
  0.062500   0.437500 0
  0.812500   0.937500 0
  0.125000   0.500000 0
  0.375000   0.500000 0
  0.625000   0.562500 0
  0.625000   0.500000 0
  0.437500   0.312500 0
  0.875000   0.812500 0
  0.875000   0.750000 0
  0.187500   0.312500 0
  0.812500   0.687500 0
  0.812500   0.750000 0
  0.125000   0.250000 0
  0.375000   0.250000 0
  1.000000   0.687500 0
  0.312500   0.187500 0
  0.750000   0.687500 0
  0.750000   0.625000 0
  0.062500   0.187500 0
  0.562500   0.250000 0
  0.562500   0.187500 0
  0.375000   1.000000 0
  0.500000   0.562500 0
  0.500000   0.250000 0
  0.750000   0.250000 0
  0.500000   0.125000 0
  0.500000   0.187500 0
  1.000000   0.187500 0
  0.625000   0.375000 0
  0.875000   0.375000 0
  1.000000   0.437500 0
  0.312500   0.000000 0
  0.562500   0.000000 0
  0.812500   0.000000 0
  0.250000   0.687500 0
  0.000000   0.687500 0
  0.500000   1.000000 0
  0.250000   1.000000 0
  0.000000   1.000000 0
  0.437500   0.687500 0
  0.437500   0.625000 0
  0.187500   0.625000 0
  0.687500   0.750000 0
  0.000000   0.312500 0
  0.000000   0.250000 0
  0.375000   0.375000 0
  0.375000   0.312500 0
  0.812500   0.812500 0
  0.125000   0.312500 0
  0.875000   0.625000 0
  0.187500   0.187500 0
  0.187500   0.125000 0
  0.937500   1.000000 0
  0.250000   0.562500 0
  0.250000   0.500000 0
  0.687500   1.000000 0
  0.000000   0.500000 0
  0.687500   0.687500 0
  0.000000   0.187500 0
  0.937500   0.687500 0
  0.250000   0.250000 0
  0.250000   0.187500 0
  0.187500   0.687500 0
  0.000000   0.750000 0
  0.250000   0.750000 0
  0.125000   0.625000 0
  0.750000   0.750000 0
  0.062500   0.250000 0
  0.875000   0.937500 0
  0.187500   0.500000 0
  0.187500   0.437500 0
  0.812500   0.562500 0
  0.125000   0.125000 0
  0.125000   0.062500 0
  0.375000   0.625000 0
  0.375000   0.687500 0
  1.000000   0.750000 0
  0.312500   0.250000 0
  0.312500   0.312500 0
  0.812500   0.312500 0
  0.562500   0.312500 0
  0.375000   0.750000 0
  0.500000   0.625000 0
  0.250000   0.625000 0
  0.312500   0.687500 0
  0.750000   0.812500 0
  0.062500   0.312500 0
  0.062500   0.375000 0
  1.000000   0.812500 0
  0.312500   0.375000 0
  0.562500   0.375000 0
  0.687500   0.437500 0
  0.000000   0.000000 0
  0.500000   0.000000 0
  0.937500   0.437500 0
  0.250000   0.000000 0
  0.375000   0.437500 0
  0.812500   0.875000 0
  0.125000   0.375000 0
  0.125000   0.437500 0
  0.625000   0.437500 0
  1.000000   0.500000 0
  0.312500   0.062500 0
  0.750000   0.500000 0
  0.062500   0.000000 0
  0.062500   0.062500 0
  0.562500   0.062500 0
  0.062500   0.750000 0
  0.312500   0.750000 0
  0.312500   0.625000 0
  0.312500   0.562500 0
  0.062500   0.562500 0
  0.187500   1.000000 0
  0.437500   0.562500 0
  0.875000   1.000000 0
  0.187500   0.562500 0
  0.500000   0.937500 0
  0.250000   0.937500 0
  0.312500   1.000000 0
  0.125000   0.750000 0
  0.125000   0.687500 0
  1.000000   0.000000 0
  0.000000   0.937500 0
  0.000000   0.875000 0
  0.875000   0.125000 0
  0.875000   0.187500 0
  0.062500   0.812500 0
  0.312500   0.812500 0
  0.000000   0.812500 0
  0.000000   0.625000 0
  0.000000   0.562500 0
  0.062500   1.000000 0
  0.062500   0.937500 0
  0.937500   0.187500 0
  0.937500   0.250000 0
  0.062500   0.687500 0
  0.062500   0.625000 0
  0.125000   1.000000 0
  1.000000   0.250000 0
  1.000000   0.312500 0
  0.062500   0.875000 0
  0.125000   0.812500 0
  0.375000   0.812500 0
  0.125000   0.875000 0
  0.375000   0.937500 0
  0.375000   0.875000 0
  0.187500   0.750000 0
  0.187500   0.812500 0
  0.437500   0.812500 0
  0.187500   0.875000 0
  0.437500   0.875000 0
  0.375000   0.562500 0
  0.812500   1.000000 0
  0.125000   0.562500 0
  0.437500   1.000000 0
  0.437500   0.937500 0
  0.187500   0.937500 0
  0.125000   0.937500 0
  0.500000   0.687500 0
  0.500000   0.750000 0
  0.500000   0.812500 0
  0.250000   0.812500 0
  0.250000   0.875000 0
  0.500000   0.875000 0
  0.437500   0.750000 0
  0.312500   0.875000 0
  0.312500   0.937500 0
  0.687500   0.250000 0
  0.687500   0.312500 0
  0.937500   0.312500 0
  0.875000   0.250000 0
  0.625000   0.000000 0
  0.875000   0.000000 0
  0.687500   0.375000 0
  0.937500   0.375000 0
  0.875000   0.312500 0
  0.625000   0.312500 0
  0.687500   0.000000 0
  0.937500   0.000000 0
  0.750000   0.312500 0
  0.750000   0.375000 0
  1.000000   0.375000 0
  0.812500   0.250000 0
  0.562500   0.437500 0
  0.562500   0.500000 0
  0.687500   0.062500 0
  0.750000   0.437500 0
  0.750000   0.000000 0
  0.750000   0.062500 0
  1.000000   0.062500 0
  0.812500   0.375000 0
  0.812500   0.437500 0
CELLS 256 1280
4 169 170 148 68
4 151 166 56 167
4 195 45 196 167
4 54 170 201 202
4 109 34 30 147
4 40 32 81 112
4 192 89 86 68
4 48 91 78 202
4 99 64 196 97
4 71 43 37 103
4 74 186 56 95
4 109 164 34 115
4 50 81 158 112
4 122 69 92 70
4 195 145 45 106
4 110 143 174 175
4 157 30 158 147
4 40 69 32 41
4 50 158 148 147
4 141 155 164 115
4 122 123 69 41
4 142 186 143 175
4 60 39 61 42
4 40 51 69 70
4 120 31 123 41
4 157 174 36 175
4 50 148 89 68
4 48 78 155 115
4 52 83 51 70
4 151 56 66 95
4 71 61 43 42
4 169 148 34 147
4 100 193 39 42
4 40 81 51 199
4 110 174 32 112
4 109 30 145 106
4 100 66 193 95
4 169 34 78 115
4 190 92 83 70
4 50 89 81 199
4 54 86 170 68
4 74 56 45 167
4 142 143 43 103
4 153 59 64 97
4 99 196 166 167
4 169 78 170 202
4 142 193 186 95
4 192 128 89 199
4 74 45 36 106
4 110 31 143 103
4 76 184 59 97
4 142 43 193 42
4 52 51 128 199
4 189 201 91 202
4 120 37 31 103
4 74 36 186 175
4 195 196 184 97
4 141 164 140 183
4 157 158 174 112
4 109 145 164 183
4 195 184 145 183
4 110 32 31 41
4 157 36 30 106
4 76 140 184 183
4 171 172 206 181
4 178 172 261 136
4 256 261 255 136
4 256 257 261 245
4 180 150 206 207
4 60 119 39 210
4 118 215 241 263
4 178 205 172 181
4 216 243 238 244
4 162 217 233 232
4 180 206 131 181
4 179 137 119 210
4 216 204 217 232
4 220 237 219 229
4 216 217 243 159
4 259 258 262 224
4 240 254 237 229
4 153 64 227 208
4 161 205 258 224
4 240 237 238 223
4 226 227 233 208
4 234 228 254 229
4 171 248 137 210
4 160 132 204 232
4 180 131 138 159
4 133 251 213 252
4 171 206 248 207
4 162 138 217 159
4 161 258 243 244
4 220 225 237 223
4 151 150 166 212
4 260 247 257 245
4 259 262 214 263
4 151 66 150 207
4 234 254 209 253
4 162 233 250 208
4 242 241 262 263
4 171 137 172 136
4 161 243 131 159
4 160 204 225 223
4 161 131 205 181
4 179 255 137 136
4 216 238 204 223
4 100 39 248 210
4 260 213 247 252
4 226 233 132 232
4 134 214 215 263
4 180 138 150 212
4 178 261 239 245
4 259 246 258 244
4 178 239 205 224
4 240 238 246 244
4 242 262 239 224
4 99 250 64 208
4 240 246 254 253
4 242 239 247 245
4 135 219 228 229
4 99 166 250 212
4 259 214 246 253
4 118 241 251 252
4 100 248 66 207
4 134 209 214 253
4 162 250 138 212
4 242 247 241 252
4 71 187 61 280
4 102 281 197 280
4 122 92 82 203
4 17 18 82 117
4 122 82 123 117
4 19 264 273 265
4 267 279 222 20
4 125 273 270 265
4 267 272 279 176
4 19 116 18 117
4 21 25 286 24
4 23 28 26 20
4 23 285 28 27
4 218 286 275 24
4 85 53 84 288
4 235 236 231 266
4 221 222 28 20
4 267 222 231 230
4 268 38 129 203
4 125 270 197 188
4 126 287 272 176
4 277 270 276 265
4 267 231 272 266
4 125 197 187 280
4 190 129 92 203
4 277 276 287 176
4 19 18 264 22
4 17 82 38 203
4 102 197 90 188
4 126 84 287 288
4 284 130 285 27
4 121 276 264 265
4 71 37 187 177
4 120 123 116 117
4 198 88 127 191
4 221 16 25 24
4 23 26 15 22
4 121 279 276 176
4 235 231 124 230
4 125 187 273 177
4 278 271 236 266
4 277 287 283 288
4 284 285 274 282
4 278 127 271 191
4 269 275 16 24
4 200 283 53 288
4 23 15 285 282
4 121 26 279 20
4 21 124 25 230
4 19 273 116 177
4 200 90 283 188
4 126 271 84 191
4 269 16 130 27
4 17 38 15 282
4 221 25 222 230
4 121 264 26 22
4 120 116 37 177
4 60 61 281 280
4 277 283 270 188
4 126 272 271 266
4 268 274 38 282
4 85 84 88 191
4 17 15 18 22
4 221 28 16 27
4 93 94 73 55
4 85 88 67 87
4 80 49 79 87
4 44 104 73 72
4 146 33 67 168
4 211 165 149 55
4 8 47 14 154
4 105 104 108 144
4 105 108 29 107
4 7 139 13 75
4 44 165 194 98
4 200 53 77 168
4 8 1 101 4
4 2 5 152 58
4 260 6 213 3
4 105 35 104 72
4 96 57 182 75
4 7 14 139 154
4 146 29 33 107
4 7 13 10 9
4 12 13 57 75
4 85 67 53 168
4 44 73 165 55
4 63 152 62 58
4 8 101 47 46
4 96 182 194 144
4 60 281 119 4
4 12 5 6 3
4 173 185 35 72
4 65 149 94 55
4 146 67 49 87
4 114 113 47 154
4 163 108 182 144
4 12 6 13 9
4 173 35 111 156
4 163 182 139 75
4 260 257 6 9
4 105 29 35 156
4 163 139 113 154
4 256 10 257 9
4 146 49 29 156
4 163 113 108 107
4 80 111 49 156
4 102 101 281 4
4 12 57 5 58
4 44 194 104 144
4 96 194 62 98
4 2 0 5 3
4 93 73 185 72
4 179 119 1 4
4 200 77 90 46
4 114 33 113 107
4 7 10 14 11
4 96 62 57 58
4 133 213 0 3
4 102 90 101 46
4 256 255 10 11
4 63 62 249 98
4 114 47 77 46
4 179 1 255 11
4 211 249 165 98
4 114 77 33 168
4 198 79 88 87
4 8 14 1 11
CELL_TYPES 256
8
8
8
8
8
8
8
8
8
8
8
8
8
8
8
8
8
8
8
8
8
8
8
8
8
8
8
8
8
8
8
8
8
8
8
8
8
8
8
8
8
8
8
8
8
8
8
8
8
8
8
8
8
8
8
8
8
8
8
8
8
8
8
8
8
8
8
8
8
8
8
8
8
8
8
8
8
8
8
8
8
8
8
8
8
8
8
8
8
8
8
8
8
8
8
8
8
8
8
8
8
8
8
8
8
8
8
8
8
8
8
8
8
8
8
8
8
8
8
8
8
8
8
8
8
8
8
8
8
8
8
8
8
8
8
8
8
8
8
8
8
8
8
8
8
8
8
8
8
8
8
8
8
8
8
8
8
8
8
8
8
8
8
8
8
8
8
8
8
8
8
8
8
8
8
8
8
8
8
8
8
8
8
8
8
8
8
8
8
8
8
8
8
8
8
8
8
8
8
8
8
8
8
8
8
8
8
8
8
8
8
8
8
8
8
8
8
8
8
8
8
8
8
8
8
8
8
8
8
8
8
8
8
8
8
8
8
8
8
8
8
8
8
8
8
8
8
8
8
8
8
8
8
8
8
8
CELL_DATA 256
VECTORS vector_value float
-0.0211266 -0.159312 0
0.108903 -0.602782 0
0.204733 -0.277413 0
0.00363254 -0.0828639 0
0.000131552 -0.137151 0
-0.0313572 -0.285568 0
0.00955896 -0.396008 0
-6.73198e-05 -0.0562593 0
0.339655 -0.288454 0
0.52346 -1.75597 0
0.209844 -0.562644 0
-0.0164645 -0.0742722 0
-0.0689132 -0.489138 0
-0.0339774 -0.471329 0
0.10888 -0.250615 0
0.728385 -1.0669 0
-0.0747317 -0.382442 0
-0.059242 -0.206633 0
-0.0618635 -0.539616 0
-0.00843929 -0.0276977 0
0.263939 -1.06426 0
0.371974 -1.19444 0
-0.117432 -1.93464 0
-0.0594778 -0.304845 0
1.15431 -1.97797 0
0.320202 -0.72991 0
-0.00164279 -0.509593 0
-0.0063571 -0.0486672 0
-0.0383566 -0.25537 0
0.0631961 -0.453506 0
0.133538 -2.36429 0
-0.0309481 -0.127054 0
0.0126934 -2.35113 0
-0.030059 -0.278919 0
-0.0238247 -0.634243 0
0.0316228 -0.163167 0
0.0591303 -1.33993 0
-0.0127927 -0.0632374 0
-0.0378247 -0.518339 0
0.00125181 -0.500927 0
-0.016154 -0.205175 0
0.347501 -0.699632 0
0.714701 -2.56287 0
0.134804 -0.287742 0
0.321226 -0.337077 0
-0.00556989 -0.0782731 0
0.138545 -1.47349 0
0.0172412 -0.600296 0
0.238581 -0.416819 0
1.58387 -1.17009 0
0.0601425 -0.129265 0
0.104107 -2.10673 0
-0.0497253 -0.342288 0
0.00200598 -0.050408 0
2.43881 -2.68219 0
0.345684 -0.845773 0
0.163597 -0.177253 0
0.00144378 -0.0233642 0
-0.190525 -0.395872 0
0.00866222 -0.0705058 0
0.0299334 -0.0740465 0
0.375936 -0.425867 0
0.0717027 -0.262701 0
0.0143326 -0.0490583 0
0.628053 -1.47104 0
0.353183 -1.1825 0
0.0703633 -1.14476 0
0.102052 -0.663377 0
0.0357765 -0.61495 0
-0.362936 -2.03829 0
0.428916 -0.693422 0
0.417785 -1.87223 0
0.369867 -0.221022 0
0.0108121 -0.0486309 0
0.326004 -0.768138 0
-0.0475163 -1.26313 0
0.0539828 -0.109281 0
0.0602491 -0.844547 0
0.148127 -0.103876 0
0.602403 -1.18398 0
0.124301 -0.590297 0
0.114121 -0.522491 0
0.513466 -0.804567 0
0.0848102 -0.51392 0
0.0426455 -0.697157 0
0.287161 -0.618164 0
0.0682933 -2.57161 0
-0.00624224 -0.788285 0
0.109217 -0.246101 0
0.775166 -0.787258 0
-0.00741074 -1.27842 0
0.027161 -0.0589908 0
0.484674 -0.608087 0
0.0199861 -0.780118 0
-0.198141 -0.322589 0
0.109156 -0.393535 0
0.680205 -1.16295 0
-0.337988 -0.66159 0
0.672673 -0.955802 0
0.055487 -0.110435 0
0.624504 -1.12119 0
0.341986 -2.22166 0
0.322536 -0.470111 0
-0.00100783 -0.752178 0
0.379299 -0.871455 0
-0.122843 -0.989249 0
0.142286 -0.367926 0
-0.131046 -1.68032 0
0.45385 -0.696814 0
0.0119464 -0.776915 0
0.571124 -1.21494 0
0.0086982 -0.158999 0
0.286356 -1.02602 0
0.313084 -0.563112 0
0.541158 -1.9854 0
0.225829 -0.459069 0
0.401187 -1.38012 0
0.139271 -0.252454 0
0.205979 -0.563218 0
0.190025 -1.12557 0
0.0355667 -0.993756 0
0.0117111 -0.152229 0
0.515265 -0.957525 0
0.603605 -1.02461 0
-0.211443 -1.6147 0
0.771802 -1.126 0
0.00173696 -0.0821519 0
0.342255 -0.871632 0
0.0341787 -2.03949 0
-0.0716985 -1.3935 0
0.314379 -1.39307 0
2.11517 -3.97125 0
1.39543 -2.79618 0
0.325121 -0.295174 0
0.0582526 -0.899814 0
0.17148 -0.270627 0
0.0937006 -1.41486 0
2.5084 -2.64438 0
-0.0129072 -0.638898 0
0.157069 -0.828114 0
0.199476 -0.887114 0
0.0522152 -0.734207 0
0.584058 -1.28395 0
0.142102 -0.511678 0
0.143504 -1.02464 0
0.0865033 -0.92381 0
0.360646 -2.45328 0
-0.0173704 -0.446799 0
0.210117 -1.12477 0
0.14626 -0.268436 0
0.248939 -0.832843 0
-0.268649 -2.33394 0
0.058246 -0.802707 0
0.231605 -0.77514 0
1.00452 -0.744444 0
1.38135 -3.36156 0
-0.06958 -1.42088 0
0.362902 -1.10231 0
0.242502 -1.18804 0
0.21552 -0.424968 0
0.0392663 -3.31046 0
2.51524 -4.41989 0
-0.00848623 -0.0715238 0
0.070439 -1.23082 0
0.402661 -1.33643 0
0.0325101 -0.596064 0
0.0436392 -0.729941 0
-0.252243 -1.73559 0
0.124047 -0.232666 0
0.461758 -0.883628 0
0.357136 -1.83032 0
0.0218305 -0.0827471 0
0.18143 -1.42291 0
0.501734 -0.575664 0
0.457122 -1.60603 0
0.0399818 -0.935315 0
-0.0312252 -0.71959 0
0.605212 -1.24798 0
0.511574 -0.675014 0
0.281389 -0.935287 0
0.171827 -0.880724 0
1.55327 -3.50853 0
0.0197837 -0.972812 0
0.29233 -0.646889 0
1.64116 -4.50762 0
-0.0540124 -2.52446 0
0.286188 -0.385088 0
0.186749 -1.13272 0
0.532482 -4.23707 0
0.143579 -0.459747 0
1.04851 -1.5268 0
0.162454 -1.01452 0
-0.0511963 -0.298802 0
0.00586437 -0.228672 0
-0.0207068 -0.155685 0
-0.110556 -0.347523 0
0.0580332 -0.249247 0
-0.794784 -0.879775 0
0.0514332 -2.58322 0
-0.0755313 -0.153038 0
-0.0427108 -0.135435 0
-0.842561 -3.64545 0
-0.343949 -0.259168 0
0.787365 -0.642719 0
-0.403051 -2.6055 0
-0.149335 -1.71512 0
0.52123 -0.671175 0
-0.0220716 -0.278621 0
-0.660969 -0.955219 0
-0.27557 -2.38024 0
-0.0256825 -0.134964 0
-1.07697 -3.7546 0
-1.15632 -5.13976 0
0.302867 -0.66727 0
-0.207803 -0.540487 0
-0.837994 -1.09121 0
0.346218 -2.24312 0
-0.288819 -0.33666 0
-0.500823 -2.44923 0
0.713375 -1.58738 0
0.00503774 -0.227837 0
-0.312476 -0.590674 0
-0.046027 -0.211135 0
0.000547495 -0.658633 0
-0.100442 -0.233304 0
-0.13797 -1.60486 0
0.00432958 -0.272898 0
-0.132898 -0.770601 0
0.215553 -0.746874 0
-0.0176103 -0.179693 0
-0.0440215 -0.810212 0
-0.0427939 -0.507971 0
-0.0499274 -0.192541 0
-0.0396837 -0.229602 0
-0.0321036 -0.221869 0
-0.101758 -2.09241 0
-0.300968 -3.40709 0
-0.231259 -0.223593 0
-1.26764 -1.08261 0
0.761472 -1.30072 0
-0.019389 -0.246084 0
-0.653076 -2.51591 0
0.761586 -0.841033 0
0.0173937 -0.292091 0
-0.677984 -4.61393 0
-1.62492 -1.34512 0
1.05892 -1.02976 0
0.542141 -1.70026 0
-0.340712 -0.835487 0
-1.10822 -1.28929 0
0.570436 -0.835742 0
-0.544568 -1.82422 0
-1.30247 -0.689503 0
0.305684 -0.406808 0
-0.0289053 -0.133739 0
-0.375289 -3.51173 0
