# vtk DataFile Version 2.0
Unstructured Grid by M++
ASCII
DATASET UNSTRUCTURED_GRID
POINTS 81 float
  1.000000   0.625000 0
  0.750000   0.375000 0
  1.000000   0.000000 0
  0.875000   0.875000 0
  0.750000   0.125000 0
  1.000000   1.000000 0
  0.875000   0.250000 0
  0.625000   0.875000 0
  1.000000   0.750000 0
  0.875000   0.000000 0
  1.000000   0.250000 0
  0.625000   0.375000 0
  0.875000   0.500000 0
  0.625000   0.625000 0
  1.000000   0.500000 0
  0.750000   0.500000 0
  0.750000   1.000000 0
  1.000000   0.125000 0
  0.625000   0.250000 0
  0.750000   0.750000 0
  0.625000   0.000000 0
  0.125000   0.375000 0
  0.000000   0.500000 0
  0.125000   0.625000 0
  0.625000   1.000000 0
  1.000000   0.875000 0
  0.875000   0.125000 0
  0.500000   0.250000 0
  0.625000   0.500000 0
  0.250000   0.625000 0
  0.000000   0.625000 0
  0.375000   0.500000 0
  0.375000   0.000000 0
  0.000000   0.125000 0
  0.125000   0.875000 0
  0.875000   1.000000 0
  0.750000   0.250000 0
  0.375000   0.375000 0
  0.250000   0.375000 0
  0.625000   0.750000 0
  0.125000   0.125000 0
  0.500000   0.000000 0
  0.250000   0.875000 0
  0.125000   0.500000 0
  0.500000   0.375000 0
  0.125000   0.000000 0
  0.250000   0.750000 0
  0.250000   0.500000 0
  0.000000   0.875000 0
  0.875000   0.625000 0
  0.500000   0.750000 0
  0.750000   0.625000 0
  0.250000   0.000000 0
  0.375000   0.750000 0
  0.750000   0.875000 0
  0.625000   0.125000 0
  0.250000   0.250000 0
  0.375000   1.000000 0
  0.375000   0.250000 0
  0.000000   0.375000 0
  0.500000   1.000000 0
  0.875000   0.750000 0
  0.750000   0.000000 0
  0.375000   0.125000 0
  0.500000   0.875000 0
  0.000000   0.000000 0
  0.125000   0.750000 0
  0.500000   0.625000 0
  0.125000   0.250000 0
  0.500000   0.125000 0
  0.250000   1.000000 0
  0.250000   0.125000 0
  0.000000   1.000000 0
  0.375000   0.875000 0
  0.000000   0.750000 0
  0.375000   0.625000 0
  0.000000   0.250000 0
  0.125000   1.000000 0
  1.000000   0.375000 0
  0.500000   0.500000 0
  0.875000   0.375000 0
CELLS 64 320
4 56 71 58 63
4 27 58 69 63
4 41 69 32 63
4 76 33 68 40
4 27 44 58 37
4 79 31 44 37
4 56 38 68 21
4 56 58 38 37
4 52 32 71 63
4 47 38 31 37
4 76 68 59 21
4 22 59 43 21
4 65 45 33 40
4 47 43 38 21
4 52 71 45 40
4 56 68 71 40
4 74 30 66 23
4 46 66 29 23
4 22 43 30 23
4 72 48 77 34
4 46 53 42 73
4 50 64 53 73
4 70 42 57 73
4 74 66 48 34
4 46 42 66 34
4 47 29 43 23
4 70 77 42 34
4 60 57 64 73
4 79 67 31 75
4 47 31 29 75
4 50 53 67 75
4 46 29 53 75
4 10 78 6 80
4 36 6 1 80
4 15 1 12 80
4 36 4 6 26
4 14 12 78 80
4 2 17 9 26
4 36 18 4 55
4 15 28 1 11
4 62 4 20 55
4 10 6 17 26
4 27 18 44 11
4 62 9 4 26
4 27 69 18 55
4 36 1 18 11
4 41 20 69 55
4 79 44 28 11
4 16 24 54 7
4 19 54 39 7
4 50 39 64 7
4 8 25 61 3
4 60 64 24 7
4 79 28 67 13
4 19 51 61 49
4 8 61 0 49
4 15 51 28 13
4 19 39 51 13
4 50 67 39 13
4 19 61 54 3
4 14 0 12 49
4 5 35 25 3
4 15 12 51 49
4 16 54 35 3
CELL_TYPES 64
8
8
8
8
8
8
8
8
8
8
8
8
8
8
8
8
8
8
8
8
8
8
8
8
8
8
8
8
8
8
8
8
8
8
8
8
8
8
8
8
8
8
8
8
8
8
8
8
8
8
8
8
8
8
8
8
8
8
8
8
8
8
8
8
CELL_DATA 64
VECTORS vector_value float
-0.173954 -0.469129 0
-0.0336762 -0.0426237 0
-0.00644683 -0.0220187 0
0.0361539 -0.272909 0
-0.0515045 -0.16849 0
0.0725843 -0.248642 0
0.00785871 -0.393456 0
-0.0242457 -0.378343 0
-0.0821762 -0.183834 0
-0.071814 -0.590371 0
0.050655 -0.411368 0
-0.0361308 -0.589384 0
-0.0674451 -0.378284 0
-0.00695271 -0.0230613 0
-0.231444 -0.782096 0
0.0200594 -0.574043 0
0.0700699 -0.689651 0
0.0324643 -0.229973 0
0.0801401 -0.368181 0
0.0901304 -1.01264 0
0.761576 -0.82998 0
0.399484 -0.306583 0
0.600306 -1.15647 0
0.0760438 -0.633208 0
0.351859 -0.602087 0
0.187198 -0.456979 0
0.331051 -0.549467 0
1.04799 -0.456239 0
0.0973343 -0.532036 0
0.115848 -0.245161 0
0.617934 -0.728689 0
0.108466 -0.265749 0
-1.11198 -3.156 0
-1.19231 -3.19592 0
-0.107644 -0.912357 0
0.104307 -4.91372 0
-0.721753 -5.26999 0
0.518799 -2.85586 0
0.0421742 -0.271547 0
0.108289 -0.259527 0
-0.000353746 -0.264706 0
0.0925862 -1.43993 0
0.0881107 -0.131143 0
0.133343 -3.50648 0
0.00295726 -0.0161015 0
0.0740622 -0.165284 0
-0.000995814 -0.00672547 0
0.0593184 -0.106666 0
0.390501 -1.47872 0
0.722961 -2.57749 0
0.586259 -1.11052 0
-0.0110632 -1.52402 0
1.18024 -1.36534 0
0.401012 -0.22657 0
3.50242 -2.75293 0
0.666062 -1.66739 0
0.334575 -0.25243 0
2.32242 -0.983245 0
0.81334 -0.682369 0
0.0101161 -0.416122 0
1.31855 -4.95031 0
0.263193 -1.43425 0
0.444963 -0.96833 0
0.23612 -0.546875 0
