# vtk DataFile Version 2.0
Unstructured Grid by M++
ASCII
DATASET UNSTRUCTURED_GRID
POINTS 81 float
  1.000000   0.625000 0
  0.750000   0.375000 0
  1.000000   0.000000 0
  0.875000   0.875000 0
  0.750000   0.125000 0
  1.000000   1.000000 0
  0.875000   0.250000 0
  0.625000   0.875000 0
  1.000000   0.750000 0
  0.875000   0.000000 0
  1.000000   0.250000 0
  0.625000   0.375000 0
  0.875000   0.500000 0
  0.625000   0.625000 0
  1.000000   0.500000 0
  0.750000   0.500000 0
  0.750000   1.000000 0
  1.000000   0.125000 0
  0.625000   0.250000 0
  0.750000   0.750000 0
  0.625000   0.000000 0
  0.125000   0.375000 0
  0.000000   0.500000 0
  0.125000   0.625000 0
  0.625000   1.000000 0
  1.000000   0.875000 0
  0.875000   0.125000 0
  0.500000   0.250000 0
  0.625000   0.500000 0
  0.250000   0.625000 0
  0.000000   0.625000 0
  0.375000   0.500000 0
  0.375000   0.000000 0
  0.000000   0.125000 0
  0.125000   0.875000 0
  0.875000   1.000000 0
  0.750000   0.250000 0
  0.375000   0.375000 0
  0.250000   0.375000 0
  0.625000   0.750000 0
  0.125000   0.125000 0
  0.500000   0.000000 0
  0.250000   0.875000 0
  0.125000   0.500000 0
  0.500000   0.375000 0
  0.125000   0.000000 0
  0.250000   0.750000 0
  0.250000   0.500000 0
  0.000000   0.875000 0
  0.875000   0.625000 0
  0.500000   0.750000 0
  0.750000   0.625000 0
  0.250000   0.000000 0
  0.375000   0.750000 0
  0.750000   0.875000 0
  0.625000   0.125000 0
  0.250000   0.250000 0
  0.375000   1.000000 0
  0.375000   0.250000 0
  0.000000   0.375000 0
  0.500000   1.000000 0
  0.875000   0.750000 0
  0.750000   0.000000 0
  0.375000   0.125000 0
  0.500000   0.875000 0
  0.000000   0.000000 0
  0.125000   0.750000 0
  0.500000   0.625000 0
  0.125000   0.250000 0
  0.500000   0.125000 0
  0.250000   1.000000 0
  0.250000   0.125000 0
  0.000000   1.000000 0
  0.375000   0.875000 0
  0.000000   0.750000 0
  0.375000   0.625000 0
  0.000000   0.250000 0
  0.125000   1.000000 0
  1.000000   0.375000 0
  0.500000   0.500000 0
  0.875000   0.375000 0
CELLS 64 320
4 56 71 58 63
4 27 58 69 63
4 41 69 32 63
4 76 33 68 40
4 27 44 58 37
4 79 31 44 37
4 56 38 68 21
4 56 58 38 37
4 52 32 71 63
4 47 38 31 37
4 76 68 59 21
4 22 59 43 21
4 65 45 33 40
4 47 43 38 21
4 52 71 45 40
4 56 68 71 40
4 74 30 66 23
4 46 66 29 23
4 22 43 30 23
4 72 48 77 34
4 46 53 42 73
4 50 64 53 73
4 70 42 57 73
4 74 66 48 34
4 46 42 66 34
4 47 29 43 23
4 70 77 42 34
4 60 57 64 73
4 79 67 31 75
4 47 31 29 75
4 50 53 67 75
4 46 29 53 75
4 10 78 6 80
4 36 6 1 80
4 15 1 12 80
4 36 4 6 26
4 14 12 78 80
4 2 17 9 26
4 36 18 4 55
4 15 28 1 11
4 62 4 20 55
4 10 6 17 26
4 27 18 44 11
4 62 9 4 26
4 27 69 18 55
4 36 1 18 11
4 41 20 69 55
4 79 44 28 11
4 16 24 54 7
4 19 54 39 7
4 50 39 64 7
4 8 25 61 3
4 60 64 24 7
4 79 28 67 13
4 19 51 61 49
4 8 61 0 49
4 15 51 28 13
4 19 39 51 13
4 50 67 39 13
4 19 61 54 3
4 14 0 12 49
4 5 35 25 3
4 15 12 51 49
4 16 54 35 3
CELL_TYPES 64
8
8
8
8
8
8
8
8
8
8
8
8
8
8
8
8
8
8
8
8
8
8
8
8
8
8
8
8
8
8
8
8
8
8
8
8
8
8
8
8
8
8
8
8
8
8
8
8
8
8
8
8
8
8
8
8
8
8
8
8
8
8
8
8
CELL_DATA 64
VECTORS vector_value float
0.867366 -2.58319 0
1.07321 -2.18519 0
0.429671 -2.59869 0
-0.0359355 -0.292865 0
-0.088136 -2.29182 0
-0.890725 -3.37834 0
0.5082 -0.618504 0
-0.190384 -2.5501 0
0.0511648 -1.15107 0
-0.314001 -1.24344 0
0.195091 -0.417926 0
0.201326 -0.928804 0
-0.0472604 -0.451297 0
0.2855 -0.376767 0
-0.0235505 -0.287344 0
-0.0530632 -0.38604 0
0.0546256 -1.42999 0
0.185672 -0.37704 0
0.0992974 -1.24479 0
0.166825 -0.594331 0
0.203993 -0.315975 0
0.0222602 -0.154641 0
0.414203 -1.00426 0
-0.367495 -1.16717 0
-0.198575 -0.725703 0
0.141215 -0.321703 0
0.0557073 -1.16857 0
1.19275 -0.633291 0
-1.19099 -2.56852 0
0.0954387 -0.30766 0
-0.16549 -0.79282 0
0.0665703 -0.111662 0
-0.0417874 -0.75762 0
-0.240219 -0.618946 0
-0.0647127 -0.162665 0
0.12587 -0.325831 0
-0.235377 -1.26131 0
-0.0103009 -0.953539 0
0.199879 -0.796063 0
-0.0155119 -0.143058 0
0.0346022 -0.458028 0
0.104364 -0.951297 0
0.256698 -0.428151 0
0.0990365 -0.609918 0
0.406356 -0.479525 0
0.0661139 -0.31693 0
0.332955 -1.49011 0
-0.109983 -0.505622 0
0.744196 -1.77536 0
-0.852122 -2.05491 0
-0.379203 -1.46161 0
0.23317 -0.578373 0
1.27315 -0.676321 0
-1.34277 -1.80448 0
0.0534585 -0.565683 0
0.0927192 -1.03213 0
-0.193247 -0.243267 0
-0.685673 -1.30013 0
-1.11517 -2.39054 0
-0.0375741 -1.54162 0
0.087807 -1.2272 0
-0.255543 -0.563691 0
-0.0053358 -0.282377 0
-0.15552 -1.58418 0
