# vtk DataFile Version 2.0
Unstructured Grid by M++
ASCII
DATASET UNSTRUCTURED_GRID
POINTS 81 float
  1.000000   0.625000 0
  0.750000   0.375000 0
  1.000000   0.000000 0
  0.875000   0.875000 0
  0.750000   0.125000 0
  1.000000   1.000000 0
  0.875000   0.250000 0
  0.625000   0.875000 0
  1.000000   0.750000 0
  0.875000   0.000000 0
  1.000000   0.250000 0
  0.625000   0.375000 0
  0.875000   0.500000 0
  0.625000   0.625000 0
  1.000000   0.500000 0
  0.750000   0.500000 0
  0.750000   1.000000 0
  1.000000   0.125000 0
  0.625000   0.250000 0
  0.750000   0.750000 0
  0.625000   0.000000 0
  0.125000   0.375000 0
  0.000000   0.500000 0
  0.125000   0.625000 0
  0.625000   1.000000 0
  1.000000   0.875000 0
  0.875000   0.125000 0
  0.500000   0.250000 0
  0.625000   0.500000 0
  0.250000   0.625000 0
  0.000000   0.625000 0
  0.375000   0.500000 0
  0.375000   0.000000 0
  0.000000   0.125000 0
  0.125000   0.875000 0
  0.875000   1.000000 0
  0.750000   0.250000 0
  0.375000   0.375000 0
  0.250000   0.375000 0
  0.625000   0.750000 0
  0.125000   0.125000 0
  0.500000   0.000000 0
  0.250000   0.875000 0
  0.125000   0.500000 0
  0.500000   0.375000 0
  0.125000   0.000000 0
  0.250000   0.750000 0
  0.250000   0.500000 0
  0.000000   0.875000 0
  0.875000   0.625000 0
  0.500000   0.750000 0
  0.750000   0.625000 0
  0.250000   0.000000 0
  0.375000   0.750000 0
  0.750000   0.875000 0
  0.625000   0.125000 0
  0.250000   0.250000 0
  0.375000   1.000000 0
  0.375000   0.250000 0
  0.000000   0.375000 0
  0.500000   1.000000 0
  0.875000   0.750000 0
  0.750000   0.000000 0
  0.375000   0.125000 0
  0.500000   0.875000 0
  0.000000   0.000000 0
  0.125000   0.750000 0
  0.500000   0.625000 0
  0.125000   0.250000 0
  0.500000   0.125000 0
  0.250000   1.000000 0
  0.250000   0.125000 0
  0.000000   1.000000 0
  0.375000   0.875000 0
  0.000000   0.750000 0
  0.375000   0.625000 0
  0.000000   0.250000 0
  0.125000   1.000000 0
  1.000000   0.375000 0
  0.500000   0.500000 0
  0.875000   0.375000 0
CELLS 64 320
4 56 71 58 63
4 27 58 69 63
4 41 69 32 63
4 76 33 68 40
4 27 44 58 37
4 79 31 44 37
4 56 38 68 21
4 56 58 38 37
4 52 32 71 63
4 47 38 31 37
4 76 68 59 21
4 22 59 43 21
4 65 45 33 40
4 47 43 38 21
4 52 71 45 40
4 56 68 71 40
4 74 30 66 23
4 46 66 29 23
4 22 43 30 23
4 72 48 77 34
4 46 53 42 73
4 50 64 53 73
4 70 42 57 73
4 74 66 48 34
4 46 42 66 34
4 47 29 43 23
4 70 77 42 34
4 60 57 64 73
4 79 67 31 75
4 47 31 29 75
4 50 53 67 75
4 46 29 53 75
4 10 78 6 80
4 36 6 1 80
4 15 1 12 80
4 36 4 6 26
4 14 12 78 80
4 2 17 9 26
4 36 18 4 55
4 15 28 1 11
4 62 4 20 55
4 10 6 17 26
4 27 18 44 11
4 62 9 4 26
4 27 69 18 55
4 36 1 18 11
4 41 20 69 55
4 79 44 28 11
4 16 24 54 7
4 19 54 39 7
4 50 39 64 7
4 8 25 61 3
4 60 64 24 7
4 79 28 67 13
4 19 51 61 49
4 8 61 0 49
4 15 51 28 13
4 19 39 51 13
4 50 67 39 13
4 19 61 54 3
4 14 0 12 49
4 5 35 25 3
4 15 12 51 49
4 16 54 35 3
CELL_TYPES 64
8
8
8
8
8
8
8
8
8
8
8
8
8
8
8
8
8
8
8
8
8
8
8
8
8
8
8
8
8
8
8
8
8
8
8
8
8
8
8
8
8
8
8
8
8
8
8
8
8
8
8
8
8
8
8
8
8
8
8
8
8
8
8
8
CELL_DATA 64
VECTORS vector_value float
0.392927 -0.552522 0
0.250565 -0.208165 0
0.000762965 -0.166328 0
0.234874 -0.609571 0
0.202893 -0.209611 0
0.0745682 -0.448245 0
0.504896 -0.595292 0
0.172503 -0.122616 0
-0.0103696 -0.495396 0
0.0186447 -0.0687708 0
0.123409 -0.864493 0
-0.090396 -1.08395 0
0.0135451 -0.219911 0
-0.125712 -0.517182 0
0.110627 -0.587845 0
0.182892 -0.196554 0
-0.041533 -0.200939 0
-0.0918567 -0.162536 0
-0.276715 -0.579741 0
0.374061 -0.387607 0
0.808516 -1.66648 0
1.36966 -0.770547 0
0.777306 -2.12089 0
0.0550574 -0.151428 0
0.152113 -0.213074 0
-0.825916 -0.614771 0
1.09756 -0.681716 0
0.261519 -0.340724 0
0.0171861 -0.489948 0
-0.333627 -0.511483 0
-0.0633394 -0.573806 0
-0.383082 -1.21466 0
0.0342256 -0.822258 0
0.0888639 -2.04738 0
-1.99515 -4.34166 0
1.3511 -2.65965 0
-0.539327 -1.17741 0
0.079523 -2.08872 0
1.2635 -1.1202 0
0.0187091 -0.170374 0
0.235402 -1.12709 0
0.521797 -1.5855 0
0.0791874 -0.620595 0
0.289015 -3.25187 0
0.626264 -1.06784 0
-1.13966 -2.71776 0
0.0012143 -0.0628414 0
0.0361849 -0.192412 0
0.705841 -1.92948 0
2.13367 -2.45151 0
0.894449 -0.17147 0
0.107618 -0.647542 0
1.19358 -0.674976 0
0.0765136 -0.222231 0
1.23614 -2.56156 0
1.09411 -2.71713 0
0.0495066 -0.0768063 0
0.176397 -0.197493 0
0.0919051 -0.371871 0
1.63892 -1.92794 0
-0.527547 -2.77511 0
-0.212781 -0.553707 0
-0.151661 -2.72991 0
-0.194406 -1.3109 0
