# vtk DataFile Version 2.0
Unstructured Grid by M++
ASCII
DATASET UNSTRUCTURED_GRID
POINTS 289 float
  0.562500   1.000000 0
  0.562500   0.625000 0
  0.625000   1.000000 0
  0.562500   0.937500 0
  0.562500   0.562500 0
  0.625000   0.937500 0
  0.562500   0.875000 0
  0.625000   0.750000 0
  0.625000   0.625000 0
  0.562500   0.812500 0
  0.562500   0.750000 0
  0.562500   0.687500 0
  0.625000   0.875000 0
  0.625000   0.812500 0
  0.625000   0.687500 0
  0.687500   0.125000 0
  0.875000   0.062500 0
  0.625000   0.125000 0
  0.625000   0.187500 0
  0.625000   0.250000 0
  0.812500   0.187500 0
  1.000000   0.125000 0
  0.687500   0.187500 0
  0.750000   0.125000 0
  0.937500   0.062500 0
  0.937500   0.125000 0
  0.750000   0.187500 0
  0.812500   0.062500 0
  0.812500   0.125000 0
  0.875000   0.687500 0
  0.187500   0.250000 0
  0.437500   0.250000 0
  0.375000   0.187500 0
  0.812500   0.625000 0
  0.125000   0.187500 0
  0.937500   0.750000 0
  0.250000   0.312500 0
  0.500000   0.312500 0
  0.625000   0.062500 0
  0.437500   0.500000 0
  0.375000   0.125000 0
  0.437500   0.187500 0
  0.437500   0.437500 0
  0.437500   0.375000 0
  0.875000   0.875000 0
  0.187500   0.375000 0
  0.687500   0.562500 0
  0.687500   0.625000 0
  0.000000   0.125000 0
  0.937500   0.625000 0
  0.250000   0.125000 0
  0.375000   0.062500 0
  0.375000   0.000000 0
  0.812500   0.500000 0
  0.125000   0.000000 0
  0.937500   0.937500 0
  0.250000   0.437500 0
  0.687500   0.875000 0
  0.687500   0.937500 0
  0.000000   0.437500 0
  0.500000   0.500000 0
  0.500000   0.437500 0
  0.750000   0.937500 0
  0.750000   1.000000 0
  0.062500   0.500000 0
  1.000000   1.000000 0
  0.312500   0.500000 0
  0.875000   0.562500 0
  0.187500   0.062500 0
  0.437500   0.125000 0
  0.437500   0.062500 0
  0.500000   0.375000 0
  0.937500   0.812500 0
  0.937500   0.875000 0
  0.250000   0.375000 0
  0.687500   0.812500 0
  0.000000   0.375000 0
  0.750000   0.562500 0
  0.062500   0.125000 0
  1.000000   0.562500 0
  1.000000   0.625000 0
  0.312500   0.125000 0
  0.562500   0.125000 0
  0.437500   0.000000 0
  0.875000   0.437500 0
  0.875000   0.500000 0
  0.187500   0.000000 0
  0.937500   0.562500 0
  0.937500   0.500000 0
  0.250000   0.062500 0
  0.687500   0.500000 0
  0.000000   0.062500 0
  0.500000   0.062500 0
  1.000000   0.875000 0
  1.000000   0.937500 0
  0.312500   0.437500 0
  0.750000   0.875000 0
  0.062500   0.437500 0
  0.812500   0.937500 0
  0.125000   0.500000 0
  0.375000   0.500000 0
  0.625000   0.562500 0
  0.625000   0.500000 0
  0.437500   0.312500 0
  0.875000   0.812500 0
  0.875000   0.750000 0
  0.187500   0.312500 0
  0.812500   0.687500 0
  0.812500   0.750000 0
  0.125000   0.250000 0
  0.375000   0.250000 0
  1.000000   0.687500 0
  0.312500   0.187500 0
  0.750000   0.687500 0
  0.750000   0.625000 0
  0.062500   0.187500 0
  0.562500   0.250000 0
  0.562500   0.187500 0
  0.375000   1.000000 0
  0.500000   0.562500 0
  0.500000   0.250000 0
  0.750000   0.250000 0
  0.500000   0.125000 0
  0.500000   0.187500 0
  1.000000   0.187500 0
  0.625000   0.375000 0
  0.875000   0.375000 0
  1.000000   0.437500 0
  0.312500   0.000000 0
  0.562500   0.000000 0
  0.812500   0.000000 0
  0.250000   0.687500 0
  0.000000   0.687500 0
  0.500000   1.000000 0
  0.250000   1.000000 0
  0.000000   1.000000 0
  0.437500   0.687500 0
  0.437500   0.625000 0
  0.187500   0.625000 0
  0.687500   0.750000 0
  0.000000   0.312500 0
  0.000000   0.250000 0
  0.375000   0.375000 0
  0.375000   0.312500 0
  0.812500   0.812500 0
  0.125000   0.312500 0
  0.875000   0.625000 0
  0.187500   0.187500 0
  0.187500   0.125000 0
  0.937500   1.000000 0
  0.250000   0.562500 0
  0.250000   0.500000 0
  0.687500   1.000000 0
  0.000000   0.500000 0
  0.687500   0.687500 0
  0.000000   0.187500 0
  0.937500   0.687500 0
  0.250000   0.250000 0
  0.250000   0.187500 0
  0.187500   0.687500 0
  0.000000   0.750000 0
  0.250000   0.750000 0
  0.125000   0.625000 0
  0.750000   0.750000 0
  0.062500   0.250000 0
  0.875000   0.937500 0
  0.187500   0.500000 0
  0.187500   0.437500 0
  0.812500   0.562500 0
  0.125000   0.125000 0
  0.125000   0.062500 0
  0.375000   0.625000 0
  0.375000   0.687500 0
  1.000000   0.750000 0
  0.312500   0.250000 0
  0.312500   0.312500 0
  0.812500   0.312500 0
  0.562500   0.312500 0
  0.375000   0.750000 0
  0.500000   0.625000 0
  0.250000   0.625000 0
  0.312500   0.687500 0
  0.750000   0.812500 0
  0.062500   0.312500 0
  0.062500   0.375000 0
  1.000000   0.812500 0
  0.312500   0.375000 0
  0.562500   0.375000 0
  0.687500   0.437500 0
  0.000000   0.000000 0
  0.500000   0.000000 0
  0.937500   0.437500 0
  0.250000   0.000000 0
  0.375000   0.437500 0
  0.812500   0.875000 0
  0.125000   0.375000 0
  0.125000   0.437500 0
  0.625000   0.437500 0
  1.000000   0.500000 0
  0.312500   0.062500 0
  0.750000   0.500000 0
  0.062500   0.000000 0
  0.062500   0.062500 0
  0.562500   0.062500 0
  0.062500   0.750000 0
  0.312500   0.750000 0
  0.312500   0.625000 0
  0.312500   0.562500 0
  0.062500   0.562500 0
  0.187500   1.000000 0
  0.437500   0.562500 0
  0.875000   1.000000 0
  0.187500   0.562500 0
  0.500000   0.937500 0
  0.250000   0.937500 0
  0.312500   1.000000 0
  0.125000   0.750000 0
  0.125000   0.687500 0
  1.000000   0.000000 0
  0.000000   0.937500 0
  0.000000   0.875000 0
  0.875000   0.125000 0
  0.875000   0.187500 0
  0.062500   0.812500 0
  0.312500   0.812500 0
  0.000000   0.812500 0
  0.000000   0.625000 0
  0.000000   0.562500 0
  0.062500   1.000000 0
  0.062500   0.937500 0
  0.937500   0.187500 0
  0.937500   0.250000 0
  0.062500   0.687500 0
  0.062500   0.625000 0
  0.125000   1.000000 0
  1.000000   0.250000 0
  1.000000   0.312500 0
  0.062500   0.875000 0
  0.125000   0.812500 0
  0.375000   0.812500 0
  0.125000   0.875000 0
  0.375000   0.937500 0
  0.375000   0.875000 0
  0.187500   0.750000 0
  0.187500   0.812500 0
  0.437500   0.812500 0
  0.187500   0.875000 0
  0.437500   0.875000 0
  0.375000   0.562500 0
  0.812500   1.000000 0
  0.125000   0.562500 0
  0.437500   1.000000 0
  0.437500   0.937500 0
  0.187500   0.937500 0
  0.125000   0.937500 0
  0.500000   0.687500 0
  0.500000   0.750000 0
  0.500000   0.812500 0
  0.250000   0.812500 0
  0.250000   0.875000 0
  0.500000   0.875000 0
  0.437500   0.750000 0
  0.312500   0.875000 0
  0.312500   0.937500 0
  0.687500   0.250000 0
  0.687500   0.312500 0
  0.937500   0.312500 0
  0.875000   0.250000 0
  0.625000   0.000000 0
  0.875000   0.000000 0
  0.687500   0.375000 0
  0.937500   0.375000 0
  0.875000   0.312500 0
  0.625000   0.312500 0
  0.687500   0.000000 0
  0.937500   0.000000 0
  0.750000   0.312500 0
  0.750000   0.375000 0
  1.000000   0.375000 0
  0.812500   0.250000 0
  0.562500   0.437500 0
  0.562500   0.500000 0
  0.687500   0.062500 0
  0.750000   0.437500 0
  0.750000   0.000000 0
  0.750000   0.062500 0
  1.000000   0.062500 0
  0.812500   0.375000 0
  0.812500   0.437500 0
CELLS 256 1280
4 169 170 148 68
4 151 166 56 167
4 195 45 196 167
4 54 170 201 202
4 109 34 30 147
4 40 32 81 112
4 192 89 86 68
4 48 91 78 202
4 99 64 196 97
4 71 43 37 103
4 74 186 56 95
4 109 164 34 115
4 50 81 158 112
4 122 69 92 70
4 195 145 45 106
4 110 143 174 175
4 157 30 158 147
4 40 69 32 41
4 50 158 148 147
4 141 155 164 115
4 122 123 69 41
4 142 186 143 175
4 60 39 61 42
4 40 51 69 70
4 120 31 123 41
4 157 174 36 175
4 50 148 89 68
4 48 78 155 115
4 52 83 51 70
4 151 56 66 95
4 71 61 43 42
4 169 148 34 147
4 100 193 39 42
4 40 81 51 199
4 110 174 32 112
4 109 30 145 106
4 100 66 193 95
4 169 34 78 115
4 190 92 83 70
4 50 89 81 199
4 54 86 170 68
4 74 56 45 167
4 142 143 43 103
4 153 59 64 97
4 99 196 166 167
4 169 78 170 202
4 142 193 186 95
4 192 128 89 199
4 74 45 36 106
4 110 31 143 103
4 76 184 59 97
4 142 43 193 42
4 52 51 128 199
4 189 201 91 202
4 120 37 31 103
4 74 36 186 175
4 195 196 184 97
4 141 164 140 183
4 157 158 174 112
4 109 145 164 183
4 195 184 145 183
4 110 32 31 41
4 157 36 30 106
4 76 140 184 183
4 171 172 206 181
4 178 172 261 136
4 256 261 255 136
4 256 257 261 245
4 180 150 206 207
4 60 119 39 210
4 118 215 241 263
4 178 205 172 181
4 216 243 238 244
4 162 217 233 232
4 180 206 131 181
4 179 137 119 210
4 216 204 217 232
4 220 237 219 229
4 216 217 243 159
4 259 258 262 224
4 240 254 237 229
4 153 64 227 208
4 161 205 258 224
4 240 237 238 223
4 226 227 233 208
4 234 228 254 229
4 171 248 137 210
4 160 132 204 232
4 180 131 138 159
4 133 251 213 252
4 171 206 248 207
4 162 138 217 159
4 161 258 243 244
4 220 225 237 223
4 151 150 166 212
4 260 247 257 245
4 259 262 214 263
4 151 66 150 207
4 234 254 209 253
4 162 233 250 208
4 242 241 262 263
4 171 137 172 136
4 161 243 131 159
4 160 204 225 223
4 161 131 205 181
4 179 255 137 136
4 216 238 204 223
4 100 39 248 210
4 260 213 247 252
4 226 233 132 232
4 134 214 215 263
4 180 138 150 212
4 178 261 239 245
4 259 246 258 244
4 178 239 205 224
4 240 238 246 244
4 242 262 239 224
4 99 250 64 208
4 240 246 254 253
4 242 239 247 245
4 135 219 228 229
4 99 166 250 212
4 259 214 246 253
4 118 241 251 252
4 100 248 66 207
4 134 209 214 253
4 162 250 138 212
4 242 247 241 252
4 71 187 61 280
4 102 281 197 280
4 122 92 82 203
4 17 18 82 117
4 122 82 123 117
4 19 264 273 265
4 267 279 222 20
4 125 273 270 265
4 267 272 279 176
4 19 116 18 117
4 21 25 286 24
4 23 28 26 20
4 23 285 28 27
4 218 286 275 24
4 85 53 84 288
4 235 236 231 266
4 221 222 28 20
4 267 222 231 230
4 268 38 129 203
4 125 270 197 188
4 126 287 272 176
4 277 270 276 265
4 267 231 272 266
4 125 197 187 280
4 190 129 92 203
4 277 276 287 176
4 19 18 264 22
4 17 82 38 203
4 102 197 90 188
4 126 84 287 288
4 284 130 285 27
4 121 276 264 265
4 71 37 187 177
4 120 123 116 117
4 198 88 127 191
4 221 16 25 24
4 23 26 15 22
4 121 279 276 176
4 235 231 124 230
4 125 187 273 177
4 278 271 236 266
4 277 287 283 288
4 284 285 274 282
4 278 127 271 191
4 269 275 16 24
4 200 283 53 288
4 23 15 285 282
4 121 26 279 20
4 21 124 25 230
4 19 273 116 177
4 200 90 283 188
4 126 271 84 191
4 269 16 130 27
4 17 38 15 282
4 221 25 222 230
4 121 264 26 22
4 120 116 37 177
4 60 61 281 280
4 277 283 270 188
4 126 272 271 266
4 268 274 38 282
4 85 84 88 191
4 17 15 18 22
4 221 28 16 27
4 93 94 73 55
4 85 88 67 87
4 80 49 79 87
4 44 104 73 72
4 146 33 67 168
4 211 165 149 55
4 8 47 14 154
4 105 104 108 144
4 105 108 29 107
4 7 139 13 75
4 44 165 194 98
4 200 53 77 168
4 8 1 101 4
4 2 5 152 58
4 260 6 213 3
4 105 35 104 72
4 96 57 182 75
4 7 14 139 154
4 146 29 33 107
4 7 13 10 9
4 12 13 57 75
4 85 67 53 168
4 44 73 165 55
4 63 152 62 58
4 8 101 47 46
4 96 182 194 144
4 60 281 119 4
4 12 5 6 3
4 173 185 35 72
4 65 149 94 55
4 146 67 49 87
4 114 113 47 154
4 163 108 182 144
4 12 6 13 9
4 173 35 111 156
4 163 182 139 75
4 260 257 6 9
4 105 29 35 156
4 163 139 113 154
4 256 10 257 9
4 146 49 29 156
4 163 113 108 107
4 80 111 49 156
4 102 101 281 4
4 12 57 5 58
4 44 194 104 144
4 96 194 62 98
4 2 0 5 3
4 93 73 185 72
4 179 119 1 4
4 200 77 90 46
4 114 33 113 107
4 7 10 14 11
4 96 62 57 58
4 133 213 0 3
4 102 90 101 46
4 256 255 10 11
4 63 62 249 98
4 114 47 77 46
4 179 1 255 11
4 211 249 165 98
4 114 77 33 168
4 198 79 88 87
4 8 14 1 11
CELL_TYPES 256
8
8
8
8
8
8
8
8
8
8
8
8
8
8
8
8
8
8
8
8
8
8
8
8
8
8
8
8
8
8
8
8
8
8
8
8
8
8
8
8
8
8
8
8
8
8
8
8
8
8
8
8
8
8
8
8
8
8
8
8
8
8
8
8
8
8
8
8
8
8
8
8
8
8
8
8
8
8
8
8
8
8
8
8
8
8
8
8
8
8
8
8
8
8
8
8
8
8
8
8
8
8
8
8
8
8
8
8
8
8
8
8
8
8
8
8
8
8
8
8
8
8
8
8
8
8
8
8
8
8
8
8
8
8
8
8
8
8
8
8
8
8
8
8
8
8
8
8
8
8
8
8
8
8
8
8
8
8
8
8
8
8
8
8
8
8
8
8
8
8
8
8
8
8
8
8
8
8
8
8
8
8
8
8
8
8
8
8
8
8
8
8
8
8
8
8
8
8
8
8
8
8
8
8
8
8
8
8
8
8
8
8
8
8
8
8
8
8
8
8
8
8
8
8
8
8
8
8
8
8
8
8
8
8
8
8
8
8
8
8
8
8
8
8
8
8
8
8
8
8
8
8
8
8
8
8
CELL_DATA 256
VECTORS vector_value float
0.0158945 -0.71376 0
0.0185974 -0.289218 0
0.0247338 -0.410671 0
-0.0432675 -0.84514 0
-0.190078 -0.70654 0
-0.0250176 -0.716115 0
0.106393 -0.380123 0
-0.0354267 -0.847058 0
0.029602 -0.330307 0
-0.437279 -0.981034 0
-0.0812286 -0.213685 0
-0.121581 -0.725746 0
-0.0572777 -0.547935 0
0.0155302 -0.317704 0
-0.341972 -0.579124 0
-0.786903 -0.643126 0
-0.227694 -0.449101 0
-0.00122811 -0.408994 0
-0.0943352 -0.438451 0
-0.00551268 -1.00056 0
-4.91845e-05 -0.2952 0
-0.810487 -0.512444 0
0.0420573 -1.25385 0
0.0503856 -0.467117 0
-0.0574474 -0.339137 0
-0.643484 -0.492692 0
0.0618407 -0.443987 0
0.041666 -0.9157 0
-0.00410683 -0.507279 0
0.0371423 -0.221612 0
-0.155437 -1.4064 0
-0.106412 -0.792408 0
0.170511 -1.12909 0
0.0447942 -0.632824 0
-0.219584 -0.649245 0
-0.514342 -0.715635 0
0.135285 -0.3087 0
0.00292547 -0.920603 0
-0.00916119 -0.298905 0
0.04059 -0.51519 0
0.0383669 -0.617697 0
-0.0697163 -0.323204 0
-0.74999 -0.910365 0
0.00456847 -0.668852 0
0.0224332 -0.313252 0
-0.0791255 -1.09099 0
-0.156162 -0.321334 0
0.188087 -0.491011 0
-0.46914 -0.342449 0
-0.669496 -0.736961 0
0.018923 -0.594255 0
-0.255834 -1.10493 0
0.121211 -0.81551 0
-0.0771991 -1.06957 0
-0.339977 -0.550921 0
-0.629687 -0.363531 0
0.0551994 -0.301642 0
-0.114704 -0.834059 0
-0.234761 -0.609721 0
-0.344748 -0.504227 0
-0.169165 -0.340399 0
-0.173638 -0.541122 0
-0.557751 -0.422887 0
-0.0596696 -0.642884 0
0.296745 -0.593617 0
0.775341 -0.509762 0
0.820649 -0.551585 0
1.12588 -0.593609 0
0.252179 -0.462776 0
-0.0166611 -1.08954 0
0.0557838 -1.21966 0
0.643456 -0.627888 0
0.0396835 -0.516413 0
-0.150155 -0.516368 0
0.159631 -0.639764 0
0.000964182 -0.849069 0
-0.0392732 -0.391226 0
0.0763178 -0.228603 0
-0.0720398 -0.542102 0
0.604167 -1.98323 0
0.259898 -0.686662 0
-0.0740818 -0.575119 0
0.395885 -1.65269 0
0.0853574 -0.559451 0
-0.0936353 -0.364982 0
0.765023 -0.937168 0
0.193508 -0.580156 0
-0.0141194 -0.212537 0
-0.0897737 -0.65907 0
0.0809825 -0.679707 0
0.387694 -0.638605 0
-0.172913 -0.48312 0
0.151494 -0.829976 0
-0.0003872 -0.150982 0
0.0510646 -0.281295 0
0.79483 -0.716866 0
0.541198 -1.64834 0
0.129494 -0.352269 0
0.987366 -0.863218 0
-0.179041 -0.571832 0
0.373101 -1.20864 0
0.257454 -0.502534 0
-0.0434069 -0.627974 0
-0.0136333 -0.181171 0
0.248557 -1.21203 0
0.123494 -0.625629 0
-0.00353827 -0.405156 0
0.235547 -0.975507 0
0.634313 -0.6473 0
-0.040555 -0.260768 0
0.422822 -1.28299 0
0.0772126 -0.423253 0
0.996592 -0.649015 0
0.300102 -0.863028 0
0.65629 -0.812023 0
0.21846 -0.637518 0
0.765301 -1.17308 0
-0.0674607 -0.432215 0
0.403616 -0.738623 0
0.69412 -0.59237 0
0.339797 -0.567816 0
0.0200512 -0.357207 0
0.697707 -1.43301 0
-0.0258431 -1.04886 0
0.227399 -0.424116 0
0.88267 -1.3242 0
-0.0900111 -0.437696 0
0.533304 -0.814392 0
-0.183731 -0.832948 0
-0.342126 -0.444501 0
-0.00700895 -0.124753 0
0.00373416 -0.111894 0
0.000962888 -0.102695 0
0.847587 -0.911271 0
0.991326 -2.23818 0
0.00218404 -1.06319 0
0.155734 -2.20507 0
0.0723872 -0.143471 0
0.422187 -3.11676 0
1.70868 -2.61296 0
0.719997 -0.998569 0
0.0539861 -3.44667 0
-0.861698 -3.39492 0
-0.00393919 -1.01819 0
1.83627 -2.52161 0
0.696305 -1.89919 0
-0.0313032 -0.121719 0
-0.52246 -0.691449 0
-0.266985 -2.2036 0
-0.193674 -1.2942 0
0.0677603 -1.74908 0
-0.271525 -0.527019 0
-0.0252185 -0.180275 0
-0.282434 -2.39005 0
0.326256 -0.402944 0
-0.0387507 -0.148236 0
-0.327975 -0.39946 0
-0.54901 -2.37694 0
0.0798283 -0.362223 0
0.779043 -1.61394 0
0.00327195 -0.897384 0
0.0152454 -0.15858 0
0.109413 -0.952464 0
1.58519 -3.6715 0
0.533913 -0.738787 0
0.346303 -2.68338 0
0.279715 -1.4246 0
0.122836 -0.645919 0
-0.0641534 -1.18221 0
-0.87194 -2.43105 0
-0.000265313 -0.107267 0
0.0414579 -1.21742 0
0.487383 -4.97477 0
-0.904057 -1.99345 0
0.0536167 -0.235593 0
1.24656 -3.19988 0
0.438563 -2.1966 0
0.438672 -0.486285 0
-0.482747 -0.89022 0
-0.203272 -2.07808 0
0.395293 -1.69847 0
-0.0166946 -0.05308 0
1.23926 -2.53642 0
1.00063 -1.51199 0
0.0159724 -0.432271 0
-0.152676 -0.724693 0
-0.800969 -1.16898 0
-0.14757 -1.65121 0
-0.0354854 -0.0833694 0
-0.0321963 -2.68541 0
0.0407875 -0.143626 0
2.08632 -2.62289 0
-0.11383 -1.02508 0
0.0228437 -3.05764 0
0.0932712 -0.613479 0
-0.468276 -0.572135 0
1.33384 -3.69116 0
0.095239 -0.903264 0
-0.00372256 -0.341802 0
0.494226 -1.85671 0
0.820332 -2.70766 0
1.62407 -0.938243 0
-0.405472 -0.770755 0
-0.408018 -1.84989 0
-0.168 -0.252292 0
0.263776 -1.41149 0
0.629874 -0.4216 0
-0.0387276 -0.549878 0
1.87791 -2.26521 0
0.605639 -0.621401 0
1.37357 -3.37887 0
1.37392 -0.145601 0
1.85098 -1.78026 0
-0.186076 -3.78113 0
-0.348504 -0.609747 0
-0.287337 -1.41163 0
-0.20167 -0.294222 0
0.958029 -2.30519 0
-0.100244 -0.542186 0
0.906511 -0.737886 0
-0.0344476 -0.415175 0
0.0788061 -1.2009 0
0.771543 -2.59212 0
0.58129 -1.44076 0
1.53413 -3.3916 0
1.08982 -0.330746 0
0.052983 -0.493707 0
2.23114 -2.71679 0
0.782813 -0.401281 0
0.237153 -0.684267 0
1.00834 -2.13961 0
1.35506 -0.345947 0
0.551159 -1.35776 0
1.3042 -4.16465 0
0.0230717 -0.580141 0
-0.123572 -0.265839 0
0.947866 -2.09387 0
-0.230872 -1.0673 0
-0.152041 -0.95889 0
0.752025 -1.17776 0
-0.214344 -0.601364 0
-0.143097 -0.524152 0
-0.373089 -0.756487 0
1.35343 -3.91135 0
0.494075 -0.175383 0
0.32361 -1.97659 0
0.512325 -0.528116 0
-0.275965 -0.393321 0
0.691074 -0.338215 0
-0.473933 -0.871911 0
-0.215685 -0.739664 0
-0.0141958 -0.414338 0
-0.150238 -0.571323 0
0.655594 -2.96454 0
0.0695952 -0.866238 0
-0.0502876 -0.294103 0
