# vtk DataFile Version 2.0
Unstructured Grid by M++
ASCII
DATASET UNSTRUCTURED_GRID
POINTS 289 float
  0.562500   1.000000 0
  0.562500   0.625000 0
  0.625000   1.000000 0
  0.562500   0.937500 0
  0.562500   0.562500 0
  0.625000   0.937500 0
  0.562500   0.875000 0
  0.625000   0.750000 0
  0.625000   0.625000 0
  0.562500   0.812500 0
  0.562500   0.750000 0
  0.562500   0.687500 0
  0.625000   0.875000 0
  0.625000   0.812500 0
  0.625000   0.687500 0
  0.687500   0.125000 0
  0.875000   0.062500 0
  0.625000   0.125000 0
  0.625000   0.187500 0
  0.625000   0.250000 0
  0.812500   0.187500 0
  1.000000   0.125000 0
  0.687500   0.187500 0
  0.750000   0.125000 0
  0.937500   0.062500 0
  0.937500   0.125000 0
  0.750000   0.187500 0
  0.812500   0.062500 0
  0.812500   0.125000 0
  0.875000   0.687500 0
  0.187500   0.250000 0
  0.437500   0.250000 0
  0.375000   0.187500 0
  0.812500   0.625000 0
  0.125000   0.187500 0
  0.937500   0.750000 0
  0.250000   0.312500 0
  0.500000   0.312500 0
  0.625000   0.062500 0
  0.437500   0.500000 0
  0.375000   0.125000 0
  0.437500   0.187500 0
  0.437500   0.437500 0
  0.437500   0.375000 0
  0.875000   0.875000 0
  0.187500   0.375000 0
  0.687500   0.562500 0
  0.687500   0.625000 0
  0.000000   0.125000 0
  0.937500   0.625000 0
  0.250000   0.125000 0
  0.375000   0.062500 0
  0.375000   0.000000 0
  0.812500   0.500000 0
  0.125000   0.000000 0
  0.937500   0.937500 0
  0.250000   0.437500 0
  0.687500   0.875000 0
  0.687500   0.937500 0
  0.000000   0.437500 0
  0.500000   0.500000 0
  0.500000   0.437500 0
  0.750000   0.937500 0
  0.750000   1.000000 0
  0.062500   0.500000 0
  1.000000   1.000000 0
  0.312500   0.500000 0
  0.875000   0.562500 0
  0.187500   0.062500 0
  0.437500   0.125000 0
  0.437500   0.062500 0
  0.500000   0.375000 0
  0.937500   0.812500 0
  0.937500   0.875000 0
  0.250000   0.375000 0
  0.687500   0.812500 0
  0.000000   0.375000 0
  0.750000   0.562500 0
  0.062500   0.125000 0
  1.000000   0.562500 0
  1.000000   0.625000 0
  0.312500   0.125000 0
  0.562500   0.125000 0
  0.437500   0.000000 0
  0.875000   0.437500 0
  0.875000   0.500000 0
  0.187500   0.000000 0
  0.937500   0.562500 0
  0.937500   0.500000 0
  0.250000   0.062500 0
  0.687500   0.500000 0
  0.000000   0.062500 0
  0.500000   0.062500 0
  1.000000   0.875000 0
  1.000000   0.937500 0
  0.312500   0.437500 0
  0.750000   0.875000 0
  0.062500   0.437500 0
  0.812500   0.937500 0
  0.125000   0.500000 0
  0.375000   0.500000 0
  0.625000   0.562500 0
  0.625000   0.500000 0
  0.437500   0.312500 0
  0.875000   0.812500 0
  0.875000   0.750000 0
  0.187500   0.312500 0
  0.812500   0.687500 0
  0.812500   0.750000 0
  0.125000   0.250000 0
  0.375000   0.250000 0
  1.000000   0.687500 0
  0.312500   0.187500 0
  0.750000   0.687500 0
  0.750000   0.625000 0
  0.062500   0.187500 0
  0.562500   0.250000 0
  0.562500   0.187500 0
  0.375000   1.000000 0
  0.500000   0.562500 0
  0.500000   0.250000 0
  0.750000   0.250000 0
  0.500000   0.125000 0
  0.500000   0.187500 0
  1.000000   0.187500 0
  0.625000   0.375000 0
  0.875000   0.375000 0
  1.000000   0.437500 0
  0.312500   0.000000 0
  0.562500   0.000000 0
  0.812500   0.000000 0
  0.250000   0.687500 0
  0.000000   0.687500 0
  0.500000   1.000000 0
  0.250000   1.000000 0
  0.000000   1.000000 0
  0.437500   0.687500 0
  0.437500   0.625000 0
  0.187500   0.625000 0
  0.687500   0.750000 0
  0.000000   0.312500 0
  0.000000   0.250000 0
  0.375000   0.375000 0
  0.375000   0.312500 0
  0.812500   0.812500 0
  0.125000   0.312500 0
  0.875000   0.625000 0
  0.187500   0.187500 0
  0.187500   0.125000 0
  0.937500   1.000000 0
  0.250000   0.562500 0
  0.250000   0.500000 0
  0.687500   1.000000 0
  0.000000   0.500000 0
  0.687500   0.687500 0
  0.000000   0.187500 0
  0.937500   0.687500 0
  0.250000   0.250000 0
  0.250000   0.187500 0
  0.187500   0.687500 0
  0.000000   0.750000 0
  0.250000   0.750000 0
  0.125000   0.625000 0
  0.750000   0.750000 0
  0.062500   0.250000 0
  0.875000   0.937500 0
  0.187500   0.500000 0
  0.187500   0.437500 0
  0.812500   0.562500 0
  0.125000   0.125000 0
  0.125000   0.062500 0
  0.375000   0.625000 0
  0.375000   0.687500 0
  1.000000   0.750000 0
  0.312500   0.250000 0
  0.312500   0.312500 0
  0.812500   0.312500 0
  0.562500   0.312500 0
  0.375000   0.750000 0
  0.500000   0.625000 0
  0.250000   0.625000 0
  0.312500   0.687500 0
  0.750000   0.812500 0
  0.062500   0.312500 0
  0.062500   0.375000 0
  1.000000   0.812500 0
  0.312500   0.375000 0
  0.562500   0.375000 0
  0.687500   0.437500 0
  0.000000   0.000000 0
  0.500000   0.000000 0
  0.937500   0.437500 0
  0.250000   0.000000 0
  0.375000   0.437500 0
  0.812500   0.875000 0
  0.125000   0.375000 0
  0.125000   0.437500 0
  0.625000   0.437500 0
  1.000000   0.500000 0
  0.312500   0.062500 0
  0.750000   0.500000 0
  0.062500   0.000000 0
  0.062500   0.062500 0
  0.562500   0.062500 0
  0.062500   0.750000 0
  0.312500   0.750000 0
  0.312500   0.625000 0
  0.312500   0.562500 0
  0.062500   0.562500 0
  0.187500   1.000000 0
  0.437500   0.562500 0
  0.875000   1.000000 0
  0.187500   0.562500 0
  0.500000   0.937500 0
  0.250000   0.937500 0
  0.312500   1.000000 0
  0.125000   0.750000 0
  0.125000   0.687500 0
  1.000000   0.000000 0
  0.000000   0.937500 0
  0.000000   0.875000 0
  0.875000   0.125000 0
  0.875000   0.187500 0
  0.062500   0.812500 0
  0.312500   0.812500 0
  0.000000   0.812500 0
  0.000000   0.625000 0
  0.000000   0.562500 0
  0.062500   1.000000 0
  0.062500   0.937500 0
  0.937500   0.187500 0
  0.937500   0.250000 0
  0.062500   0.687500 0
  0.062500   0.625000 0
  0.125000   1.000000 0
  1.000000   0.250000 0
  1.000000   0.312500 0
  0.062500   0.875000 0
  0.125000   0.812500 0
  0.375000   0.812500 0
  0.125000   0.875000 0
  0.375000   0.937500 0
  0.375000   0.875000 0
  0.187500   0.750000 0
  0.187500   0.812500 0
  0.437500   0.812500 0
  0.187500   0.875000 0
  0.437500   0.875000 0
  0.375000   0.562500 0
  0.812500   1.000000 0
  0.125000   0.562500 0
  0.437500   1.000000 0
  0.437500   0.937500 0
  0.187500   0.937500 0
  0.125000   0.937500 0
  0.500000   0.687500 0
  0.500000   0.750000 0
  0.500000   0.812500 0
  0.250000   0.812500 0
  0.250000   0.875000 0
  0.500000   0.875000 0
  0.437500   0.750000 0
  0.312500   0.875000 0
  0.312500   0.937500 0
  0.687500   0.250000 0
  0.687500   0.312500 0
  0.937500   0.312500 0
  0.875000   0.250000 0
  0.625000   0.000000 0
  0.875000   0.000000 0
  0.687500   0.375000 0
  0.937500   0.375000 0
  0.875000   0.312500 0
  0.625000   0.312500 0
  0.687500   0.000000 0
  0.937500   0.000000 0
  0.750000   0.312500 0
  0.750000   0.375000 0
  1.000000   0.375000 0
  0.812500   0.250000 0
  0.562500   0.437500 0
  0.562500   0.500000 0
  0.687500   0.062500 0
  0.750000   0.437500 0
  0.750000   0.000000 0
  0.750000   0.062500 0
  1.000000   0.062500 0
  0.812500   0.375000 0
  0.812500   0.437500 0
CELLS 256 1280
4 169 170 148 68
4 151 166 56 167
4 195 45 196 167
4 54 170 201 202
4 109 34 30 147
4 40 32 81 112
4 192 89 86 68
4 48 91 78 202
4 99 64 196 97
4 71 43 37 103
4 74 186 56 95
4 109 164 34 115
4 50 81 158 112
4 122 69 92 70
4 195 145 45 106
4 110 143 174 175
4 157 30 158 147
4 40 69 32 41
4 50 158 148 147
4 141 155 164 115
4 122 123 69 41
4 142 186 143 175
4 60 39 61 42
4 40 51 69 70
4 120 31 123 41
4 157 174 36 175
4 50 148 89 68
4 48 78 155 115
4 52 83 51 70
4 151 56 66 95
4 71 61 43 42
4 169 148 34 147
4 100 193 39 42
4 40 81 51 199
4 110 174 32 112
4 109 30 145 106
4 100 66 193 95
4 169 34 78 115
4 190 92 83 70
4 50 89 81 199
4 54 86 170 68
4 74 56 45 167
4 142 143 43 103
4 153 59 64 97
4 99 196 166 167
4 169 78 170 202
4 142 193 186 95
4 192 128 89 199
4 74 45 36 106
4 110 31 143 103
4 76 184 59 97
4 142 43 193 42
4 52 51 128 199
4 189 201 91 202
4 120 37 31 103
4 74 36 186 175
4 195 196 184 97
4 141 164 140 183
4 157 158 174 112
4 109 145 164 183
4 195 184 145 183
4 110 32 31 41
4 157 36 30 106
4 76 140 184 183
4 171 172 206 181
4 178 172 261 136
4 256 261 255 136
4 256 257 261 245
4 180 150 206 207
4 60 119 39 210
4 118 215 241 263
4 178 205 172 181
4 216 243 238 244
4 162 217 233 232
4 180 206 131 181
4 179 137 119 210
4 216 204 217 232
4 220 237 219 229
4 216 217 243 159
4 259 258 262 224
4 240 254 237 229
4 153 64 227 208
4 161 205 258 224
4 240 237 238 223
4 226 227 233 208
4 234 228 254 229
4 171 248 137 210
4 160 132 204 232
4 180 131 138 159
4 133 251 213 252
4 171 206 248 207
4 162 138 217 159
4 161 258 243 244
4 220 225 237 223
4 151 150 166 212
4 260 247 257 245
4 259 262 214 263
4 151 66 150 207
4 234 254 209 253
4 162 233 250 208
4 242 241 262 263
4 171 137 172 136
4 161 243 131 159
4 160 204 225 223
4 161 131 205 181
4 179 255 137 136
4 216 238 204 223
4 100 39 248 210
4 260 213 247 252
4 226 233 132 232
4 134 214 215 263
4 180 138 150 212
4 178 261 239 245
4 259 246 258 244
4 178 239 205 224
4 240 238 246 244
4 242 262 239 224
4 99 250 64 208
4 240 246 254 253
4 242 239 247 245
4 135 219 228 229
4 99 166 250 212
4 259 214 246 253
4 118 241 251 252
4 100 248 66 207
4 134 209 214 253
4 162 250 138 212
4 242 247 241 252
4 71 187 61 280
4 102 281 197 280
4 122 92 82 203
4 17 18 82 117
4 122 82 123 117
4 19 264 273 265
4 267 279 222 20
4 125 273 270 265
4 267 272 279 176
4 19 116 18 117
4 21 25 286 24
4 23 28 26 20
4 23 285 28 27
4 218 286 275 24
4 85 53 84 288
4 235 236 231 266
4 221 222 28 20
4 267 222 231 230
4 268 38 129 203
4 125 270 197 188
4 126 287 272 176
4 277 270 276 265
4 267 231 272 266
4 125 197 187 280
4 190 129 92 203
4 277 276 287 176
4 19 18 264 22
4 17 82 38 203
4 102 197 90 188
4 126 84 287 288
4 284 130 285 27
4 121 276 264 265
4 71 37 187 177
4 120 123 116 117
4 198 88 127 191
4 221 16 25 24
4 23 26 15 22
4 121 279 276 176
4 235 231 124 230
4 125 187 273 177
4 278 271 236 266
4 277 287 283 288
4 284 285 274 282
4 278 127 271 191
4 269 275 16 24
4 200 283 53 288
4 23 15 285 282
4 121 26 279 20
4 21 124 25 230
4 19 273 116 177
4 200 90 283 188
4 126 271 84 191
4 269 16 130 27
4 17 38 15 282
4 221 25 222 230
4 121 264 26 22
4 120 116 37 177
4 60 61 281 280
4 277 283 270 188
4 126 272 271 266
4 268 274 38 282
4 85 84 88 191
4 17 15 18 22
4 221 28 16 27
4 93 94 73 55
4 85 88 67 87
4 80 49 79 87
4 44 104 73 72
4 146 33 67 168
4 211 165 149 55
4 8 47 14 154
4 105 104 108 144
4 105 108 29 107
4 7 139 13 75
4 44 165 194 98
4 200 53 77 168
4 8 1 101 4
4 2 5 152 58
4 260 6 213 3
4 105 35 104 72
4 96 57 182 75
4 7 14 139 154
4 146 29 33 107
4 7 13 10 9
4 12 13 57 75
4 85 67 53 168
4 44 73 165 55
4 63 152 62 58
4 8 101 47 46
4 96 182 194 144
4 60 281 119 4
4 12 5 6 3
4 173 185 35 72
4 65 149 94 55
4 146 67 49 87
4 114 113 47 154
4 163 108 182 144
4 12 6 13 9
4 173 35 111 156
4 163 182 139 75
4 260 257 6 9
4 105 29 35 156
4 163 139 113 154
4 256 10 257 9
4 146 49 29 156
4 163 113 108 107
4 80 111 49 156
4 102 101 281 4
4 12 57 5 58
4 44 194 104 144
4 96 194 62 98
4 2 0 5 3
4 93 73 185 72
4 179 119 1 4
4 200 77 90 46
4 114 33 113 107
4 7 10 14 11
4 96 62 57 58
4 133 213 0 3
4 102 90 101 46
4 256 255 10 11
4 63 62 249 98
4 114 47 77 46
4 179 1 255 11
4 211 249 165 98
4 114 77 33 168
4 198 79 88 87
4 8 14 1 11
CELL_TYPES 256
8
8
8
8
8
8
8
8
8
8
8
8
8
8
8
8
8
8
8
8
8
8
8
8
8
8
8
8
8
8
8
8
8
8
8
8
8
8
8
8
8
8
8
8
8
8
8
8
8
8
8
8
8
8
8
8
8
8
8
8
8
8
8
8
8
8
8
8
8
8
8
8
8
8
8
8
8
8
8
8
8
8
8
8
8
8
8
8
8
8
8
8
8
8
8
8
8
8
8
8
8
8
8
8
8
8
8
8
8
8
8
8
8
8
8
8
8
8
8
8
8
8
8
8
8
8
8
8
8
8
8
8
8
8
8
8
8
8
8
8
8
8
8
8
8
8
8
8
8
8
8
8
8
8
8
8
8
8
8
8
8
8
8
8
8
8
8
8
8
8
8
8
8
8
8
8
8
8
8
8
8
8
8
8
8
8
8
8
8
8
8
8
8
8
8
8
8
8
8
8
8
8
8
8
8
8
8
8
8
8
8
8
8
8
8
8
8
8
8
8
8
8
8
8
8
8
8
8
8
8
8
8
8
8
8
8
8
8
8
8
8
8
8
8
8
8
8
8
8
8
8
8
8
8
8
8
CELL_DATA 256
VECTORS vector_value float
-0.0585018 -0.182584 0
-0.301577 -2.10266 0
-1.02214 -0.890111 0
-0.0395137 -0.802759 0
-0.240343 -0.3012 0
-0.0185032 -0.779635 0
-0.0404335 -0.186632 0
-0.035088 -4.0952 0
-0.0330361 -0.0412549 0
0.237852 -0.329078 0
0.00922756 -5.74278 0
-0.397062 -0.920815 0
-0.101431 -0.392982 0
0.396955 -1.22972 0
-2.17828 -0.901613 0
0.464329 -1.48376 0
-0.099415 -0.180009 0
0.537954 -1.47388 0
-0.0725773 -0.161671 0
-0.182201 -3.63011 0
1.51796 -2.27259 0
2.67019 -2.30485 0
-0.137288 -0.120356 0
0.0312602 -0.859211 0
1.01872 -1.78436 0
0.264567 -0.88907 0
-0.0675471 -0.156291 0
-0.0825398 -3.948 0
-0.000604438 -0.524654 0
-0.418545 -6.41568 0
-0.083772 -0.157125 0
-0.0609017 -0.154825 0
-0.0810086 -0.499339 0
-0.0569871 -0.602273 0
0.543689 -1.439 0
-0.856231 -0.632707 0
-0.286374 -1.55488 0
-0.117272 -0.852963 0
0.0737297 -1.00405 0
-0.0480369 -0.456101 0
-0.0436947 -0.168377 0
-1.15482 -2.13117 0
1.50619 -1.77802 0
-0.0016268 -0.00512436 0
-0.438791 -0.667506 0
-0.0539287 -0.759713 0
0.453346 -1.43449 0
-0.00815048 -0.333598 0
-1.57468 -1.76277 0
1.0382 -2.96387 0
-0.0793948 -0.0813277 0
0.106376 -0.724139 0
-0.0280567 -0.797468 0
-0.00907907 -4.12775 0
0.808869 -0.986878 0
0.549982 -2.46738 0
-0.550245 -0.394156 0
-1.06767 -2.87967 0
0.0419999 -0.51692 0
-1.21558 -0.877493 0
-2.11372 -1.19566 0
1.15262 -2.24988 0
-0.278829 -0.704131 0
-0.605422 -0.841069 0
-1.39731 -2.51869 0
-1.66335 -1.09354 0
-1.746 -1.43311 0
-1.11283 -1.37012 0
-0.626168 -6.18897 0
-0.146038 -0.111068 0
-0.602413 -0.81679 0
-0.70957 -1.16268 0
1.21708 -2.38512 0
0.0408748 -0.0446638 0
0.518083 -4.30929 0
-0.182087 -0.159177 0
0.189771 -0.1593 0
0.0725744 -1.16377 0
1.18173 -1.2103 0
-0.0624578 -0.402991 0
0.0600351 -1.66543 0
0.0017603 -0.00542598 0
0.161645 -0.772464 0
0.986772 -1.37669 0
0.00216519 -0.0102042 0
-0.378811 -1.1835 0
-0.52575 -0.659179 0
0.0348809 -0.0625584 0
1.03973 -2.17019 0
0.347392 -1.05814 0
-0.730021 -2.38138 0
0.195744 -0.271534 0
0.871205 -2.02885 0
0.321388 -0.817738 0
-0.535636 -2.55882 0
-0.248152 -0.905854 0
-0.235585 -0.562359 0
-0.492213 -5.68978 0
-0.917764 -1.35986 0
0.00660868 -0.0139845 0
-0.100268 -0.499844 0
-1.32296 -0.939029 0
1.82541 -2.77495 0
0.147587 -0.282852 0
0.49787 -2.23813 0
-0.69077 -0.696351 0
0.5789 -0.606193 0
-0.182004 -0.485257 0
0.0144755 -0.738013 0
0.00625155 -0.0163331 0
-1.00447 -0.826904 0
0.027079 -1.55677 0
-0.62046 -0.575349 0
0.175528 -1.19881 0
-0.285389 -0.631539 0
0.886463 -2.20948 0
-0.040015 -0.433682 0
0.00049042 -0.0181518 0
-0.196537 -1.73041 0
-0.0585288 -0.336971 0
-0.0889778 -1.14095 0
-0.0298454 -0.154445 0
-0.251805 -0.802867 0
-0.0620338 -0.419018 0
-0.399173 -2.23653 0
-1.26058 -0.98365 0
0.0400142 -0.149495 0
-0.0349129 -0.331735 0
-0.0472323 -0.10778 0
-0.0861172 -0.390885 0
1.14594 -1.74601 0
0.49079 -0.303498 0
1.08697 -0.981761 0
0.117945 -0.172206 0
-0.284067 -1.47776 0
0.137675 -0.208957 0
-0.227109 -1.21201 0
0.146695 -0.117258 0
0.029891 -0.679601 0
0.222695 -0.775626 0
0.183647 -0.768326 0
0.0242089 -0.814184 0
0.0809119 -0.392914 0
-0.0324037 -1.26536 0
0.0218371 -1.74118 0
-0.276514 -1.06839 0
0.22862 -1.14382 0
0.167825 -0.290337 0
-0.026202 -0.729228 0
0.116107 -0.0782367 0
-0.217614 -1.30758 0
0.0339697 -0.237445 0
0.14025 -1.34423 0
0.0938944 -0.170375 0
0.139007 -0.103774 0
0.884972 -0.712361 0
0.0812305 -0.426979 0
0.348263 -0.639563 0
0.0198078 -0.744395 0
0.0865434 -0.133379 0
0.0342032 -0.0841913 0
0.394827 -0.433591 0
-0.296928 -1.55329 0
0.21166 -1.39867 0
0.341041 -0.24025 0
0.028957 -0.214332 0
-0.0980679 -1.05066 0
0.0827358 -0.139927 0
0.113872 -1.10223 0
0.415901 -0.215879 0
0.0145003 -0.315995 0
-0.115607 -0.986449 0
0.0408635 -1.48216 0
0.317737 -0.173889 0
0.19414 -0.326109 0
-0.0389885 -0.511603 0
-0.124792 -0.814881 0
0.100156 -0.0957654 0
0.302754 -0.304642 0
-0.0581784 -1.84516 0
0.0310547 -1.60767 0
0.458927 -0.337035 0
-0.176439 -0.99158 0
0.15707 -0.214681 0
0.225961 -0.181797 0
-0.156321 -0.181992 0
0.263897 -0.12208 0
-0.00723048 -1.90641 0
0.0731597 -0.602248 0
-0.292269 -1.16861 0
0.303703 -0.114665 0
0.266926 -1.69079 0
0.0231807 -0.875324 0
-0.193208 -0.841611 0
-0.0955393 -2.34037 0
0.345902 -1.86568 0
-0.00441757 -0.148005 0
0.139595 -1.37379 0
-0.203043 -0.798724 0
-0.182568 -0.279101 0
-0.150271 -0.194884 0
-0.41803 -0.272902 0
0.22664 -1.17273 0
0.053582 -0.113857 0
-0.161426 -0.210268 0
-0.388111 -1.09916 0
-0.140121 -1.8828 0
0.397021 -1.56532 0
-0.0556457 -0.47785 0
-0.257303 -0.40245 0
-0.0814816 -0.173756 0
-0.479714 -0.636658 0
-0.0867577 -0.292055 0
0.0122607 -0.0873769 0
0.163855 -1.71663 0
0.0566882 -0.686788 0
-0.250051 -1.01455 0
-0.220767 -0.705367 0
-0.135984 -0.207844 0
-0.380265 -1.24301 0
0.364195 -1.54292 0
-0.0684297 -0.882334 0
-0.0617464 -0.456582 0
-0.267256 -0.631609 0
-0.51447 -0.589134 0
-0.330875 -0.766086 0
0.212306 -2.22811 0
-0.582946 -0.648193 0
-0.589334 -2.36646 0
0.0920659 -0.726563 0
-0.378666 -0.75162 0
-1.00134 -1.81328 0
-0.0456884 -0.413251 0
-0.268599 -0.283913 0
0.0011652 -2.43226 0
-0.18298 -0.360039 0
-0.0502386 -0.600193 0
0.0461831 -0.756769 0
0.188768 -0.675223 0
-0.334032 -1.14724 0
0.160154 -1.08752 0
-0.132317 -0.206061 0
0.104949 -0.40103 0
-0.0961172 -0.108077 0
-0.265792 -0.442378 0
0.074339 -0.339662 0
0.107136 -1.20079 0
-0.0482139 -0.723255 0
-0.871573 -0.835512 0
0.436694 -0.63315 0
-0.11869 -0.416381 0
-0.155097 -0.243569 0
0.527396 -1.18794 0
-0.0432261 -0.0886139 0
-0.186078 -2.0055 0
-0.0700714 -0.232668 0
