# vtk DataFile Version 2.0
Unstructured Grid by M++
ASCII
DATASET UNSTRUCTURED_GRID
POINTS 289 float
  0.562500   1.000000 0
  0.562500   0.625000 0
  0.625000   1.000000 0
  0.562500   0.937500 0
  0.562500   0.562500 0
  0.625000   0.937500 0
  0.562500   0.875000 0
  0.625000   0.750000 0
  0.625000   0.625000 0
  0.562500   0.812500 0
  0.562500   0.750000 0
  0.562500   0.687500 0
  0.625000   0.875000 0
  0.625000   0.812500 0
  0.625000   0.687500 0
  0.687500   0.125000 0
  0.875000   0.062500 0
  0.625000   0.125000 0
  0.625000   0.187500 0
  0.625000   0.250000 0
  0.812500   0.187500 0
  1.000000   0.125000 0
  0.687500   0.187500 0
  0.750000   0.125000 0
  0.937500   0.062500 0
  0.937500   0.125000 0
  0.750000   0.187500 0
  0.812500   0.062500 0
  0.812500   0.125000 0
  0.875000   0.687500 0
  0.187500   0.250000 0
  0.437500   0.250000 0
  0.375000   0.187500 0
  0.812500   0.625000 0
  0.125000   0.187500 0
  0.937500   0.750000 0
  0.250000   0.312500 0
  0.500000   0.312500 0
  0.625000   0.062500 0
  0.437500   0.500000 0
  0.375000   0.125000 0
  0.437500   0.187500 0
  0.437500   0.437500 0
  0.437500   0.375000 0
  0.875000   0.875000 0
  0.187500   0.375000 0
  0.687500   0.562500 0
  0.687500   0.625000 0
  0.000000   0.125000 0
  0.937500   0.625000 0
  0.250000   0.125000 0
  0.375000   0.062500 0
  0.375000   0.000000 0
  0.812500   0.500000 0
  0.125000   0.000000 0
  0.937500   0.937500 0
  0.250000   0.437500 0
  0.687500   0.875000 0
  0.687500   0.937500 0
  0.000000   0.437500 0
  0.500000   0.500000 0
  0.500000   0.437500 0
  0.750000   0.937500 0
  0.750000   1.000000 0
  0.062500   0.500000 0
  1.000000   1.000000 0
  0.312500   0.500000 0
  0.875000   0.562500 0
  0.187500   0.062500 0
  0.437500   0.125000 0
  0.437500   0.062500 0
  0.500000   0.375000 0
  0.937500   0.812500 0
  0.937500   0.875000 0
  0.250000   0.375000 0
  0.687500   0.812500 0
  0.000000   0.375000 0
  0.750000   0.562500 0
  0.062500   0.125000 0
  1.000000   0.562500 0
  1.000000   0.625000 0
  0.312500   0.125000 0
  0.562500   0.125000 0
  0.437500   0.000000 0
  0.875000   0.437500 0
  0.875000   0.500000 0
  0.187500   0.000000 0
  0.937500   0.562500 0
  0.937500   0.500000 0
  0.250000   0.062500 0
  0.687500   0.500000 0
  0.000000   0.062500 0
  0.500000   0.062500 0
  1.000000   0.875000 0
  1.000000   0.937500 0
  0.312500   0.437500 0
  0.750000   0.875000 0
  0.062500   0.437500 0
  0.812500   0.937500 0
  0.125000   0.500000 0
  0.375000   0.500000 0
  0.625000   0.562500 0
  0.625000   0.500000 0
  0.437500   0.312500 0
  0.875000   0.812500 0
  0.875000   0.750000 0
  0.187500   0.312500 0
  0.812500   0.687500 0
  0.812500   0.750000 0
  0.125000   0.250000 0
  0.375000   0.250000 0
  1.000000   0.687500 0
  0.312500   0.187500 0
  0.750000   0.687500 0
  0.750000   0.625000 0
  0.062500   0.187500 0
  0.562500   0.250000 0
  0.562500   0.187500 0
  0.375000   1.000000 0
  0.500000   0.562500 0
  0.500000   0.250000 0
  0.750000   0.250000 0
  0.500000   0.125000 0
  0.500000   0.187500 0
  1.000000   0.187500 0
  0.625000   0.375000 0
  0.875000   0.375000 0
  1.000000   0.437500 0
  0.312500   0.000000 0
  0.562500   0.000000 0
  0.812500   0.000000 0
  0.250000   0.687500 0
  0.000000   0.687500 0
  0.500000   1.000000 0
  0.250000   1.000000 0
  0.000000   1.000000 0
  0.437500   0.687500 0
  0.437500   0.625000 0
  0.187500   0.625000 0
  0.687500   0.750000 0
  0.000000   0.312500 0
  0.000000   0.250000 0
  0.375000   0.375000 0
  0.375000   0.312500 0
  0.812500   0.812500 0
  0.125000   0.312500 0
  0.875000   0.625000 0
  0.187500   0.187500 0
  0.187500   0.125000 0
  0.937500   1.000000 0
  0.250000   0.562500 0
  0.250000   0.500000 0
  0.687500   1.000000 0
  0.000000   0.500000 0
  0.687500   0.687500 0
  0.000000   0.187500 0
  0.937500   0.687500 0
  0.250000   0.250000 0
  0.250000   0.187500 0
  0.187500   0.687500 0
  0.000000   0.750000 0
  0.250000   0.750000 0
  0.125000   0.625000 0
  0.750000   0.750000 0
  0.062500   0.250000 0
  0.875000   0.937500 0
  0.187500   0.500000 0
  0.187500   0.437500 0
  0.812500   0.562500 0
  0.125000   0.125000 0
  0.125000   0.062500 0
  0.375000   0.625000 0
  0.375000   0.687500 0
  1.000000   0.750000 0
  0.312500   0.250000 0
  0.312500   0.312500 0
  0.812500   0.312500 0
  0.562500   0.312500 0
  0.375000   0.750000 0
  0.500000   0.625000 0
  0.250000   0.625000 0
  0.312500   0.687500 0
  0.750000   0.812500 0
  0.062500   0.312500 0
  0.062500   0.375000 0
  1.000000   0.812500 0
  0.312500   0.375000 0
  0.562500   0.375000 0
  0.687500   0.437500 0
  0.000000   0.000000 0
  0.500000   0.000000 0
  0.937500   0.437500 0
  0.250000   0.000000 0
  0.375000   0.437500 0
  0.812500   0.875000 0
  0.125000   0.375000 0
  0.125000   0.437500 0
  0.625000   0.437500 0
  1.000000   0.500000 0
  0.312500   0.062500 0
  0.750000   0.500000 0
  0.062500   0.000000 0
  0.062500   0.062500 0
  0.562500   0.062500 0
  0.062500   0.750000 0
  0.312500   0.750000 0
  0.312500   0.625000 0
  0.312500   0.562500 0
  0.062500   0.562500 0
  0.187500   1.000000 0
  0.437500   0.562500 0
  0.875000   1.000000 0
  0.187500   0.562500 0
  0.500000   0.937500 0
  0.250000   0.937500 0
  0.312500   1.000000 0
  0.125000   0.750000 0
  0.125000   0.687500 0
  1.000000   0.000000 0
  0.000000   0.937500 0
  0.000000   0.875000 0
  0.875000   0.125000 0
  0.875000   0.187500 0
  0.062500   0.812500 0
  0.312500   0.812500 0
  0.000000   0.812500 0
  0.000000   0.625000 0
  0.000000   0.562500 0
  0.062500   1.000000 0
  0.062500   0.937500 0
  0.937500   0.187500 0
  0.937500   0.250000 0
  0.062500   0.687500 0
  0.062500   0.625000 0
  0.125000   1.000000 0
  1.000000   0.250000 0
  1.000000   0.312500 0
  0.062500   0.875000 0
  0.125000   0.812500 0
  0.375000   0.812500 0
  0.125000   0.875000 0
  0.375000   0.937500 0
  0.375000   0.875000 0
  0.187500   0.750000 0
  0.187500   0.812500 0
  0.437500   0.812500 0
  0.187500   0.875000 0
  0.437500   0.875000 0
  0.375000   0.562500 0
  0.812500   1.000000 0
  0.125000   0.562500 0
  0.437500   1.000000 0
  0.437500   0.937500 0
  0.187500   0.937500 0
  0.125000   0.937500 0
  0.500000   0.687500 0
  0.500000   0.750000 0
  0.500000   0.812500 0
  0.250000   0.812500 0
  0.250000   0.875000 0
  0.500000   0.875000 0
  0.437500   0.750000 0
  0.312500   0.875000 0
  0.312500   0.937500 0
  0.687500   0.250000 0
  0.687500   0.312500 0
  0.937500   0.312500 0
  0.875000   0.250000 0
  0.625000   0.000000 0
  0.875000   0.000000 0
  0.687500   0.375000 0
  0.937500   0.375000 0
  0.875000   0.312500 0
  0.625000   0.312500 0
  0.687500   0.000000 0
  0.937500   0.000000 0
  0.750000   0.312500 0
  0.750000   0.375000 0
  1.000000   0.375000 0
  0.812500   0.250000 0
  0.562500   0.437500 0
  0.562500   0.500000 0
  0.687500   0.062500 0
  0.750000   0.437500 0
  0.750000   0.000000 0
  0.750000   0.062500 0
  1.000000   0.062500 0
  0.812500   0.375000 0
  0.812500   0.437500 0
CELLS 256 1280
4 169 170 148 68
4 151 166 56 167
4 195 45 196 167
4 54 170 201 202
4 109 34 30 147
4 40 32 81 112
4 192 89 86 68
4 48 91 78 202
4 99 64 196 97
4 71 43 37 103
4 74 186 56 95
4 109 164 34 115
4 50 81 158 112
4 122 69 92 70
4 195 145 45 106
4 110 143 174 175
4 157 30 158 147
4 40 69 32 41
4 50 158 148 147
4 141 155 164 115
4 122 123 69 41
4 142 186 143 175
4 60 39 61 42
4 40 51 69 70
4 120 31 123 41
4 157 174 36 175
4 50 148 89 68
4 48 78 155 115
4 52 83 51 70
4 151 56 66 95
4 71 61 43 42
4 169 148 34 147
4 100 193 39 42
4 40 81 51 199
4 110 174 32 112
4 109 30 145 106
4 100 66 193 95
4 169 34 78 115
4 190 92 83 70
4 50 89 81 199
4 54 86 170 68
4 74 56 45 167
4 142 143 43 103
4 153 59 64 97
4 99 196 166 167
4 169 78 170 202
4 142 193 186 95
4 192 128 89 199
4 74 45 36 106
4 110 31 143 103
4 76 184 59 97
4 142 43 193 42
4 52 51 128 199
4 189 201 91 202
4 120 37 31 103
4 74 36 186 175
4 195 196 184 97
4 141 164 140 183
4 157 158 174 112
4 109 145 164 183
4 195 184 145 183
4 110 32 31 41
4 157 36 30 106
4 76 140 184 183
4 171 172 206 181
4 178 172 261 136
4 256 261 255 136
4 256 257 261 245
4 180 150 206 207
4 60 119 39 210
4 118 215 241 263
4 178 205 172 181
4 216 243 238 244
4 162 217 233 232
4 180 206 131 181
4 179 137 119 210
4 216 204 217 232
4 220 237 219 229
4 216 217 243 159
4 259 258 262 224
4 240 254 237 229
4 153 64 227 208
4 161 205 258 224
4 240 237 238 223
4 226 227 233 208
4 234 228 254 229
4 171 248 137 210
4 160 132 204 232
4 180 131 138 159
4 133 251 213 252
4 171 206 248 207
4 162 138 217 159
4 161 258 243 244
4 220 225 237 223
4 151 150 166 212
4 260 247 257 245
4 259 262 214 263
4 151 66 150 207
4 234 254 209 253
4 162 233 250 208
4 242 241 262 263
4 171 137 172 136
4 161 243 131 159
4 160 204 225 223
4 161 131 205 181
4 179 255 137 136
4 216 238 204 223
4 100 39 248 210
4 260 213 247 252
4 226 233 132 232
4 134 214 215 263
4 180 138 150 212
4 178 261 239 245
4 259 246 258 244
4 178 239 205 224
4 240 238 246 244
4 242 262 239 224
4 99 250 64 208
4 240 246 254 253
4 242 239 247 245
4 135 219 228 229
4 99 166 250 212
4 259 214 246 253
4 118 241 251 252
4 100 248 66 207
4 134 209 214 253
4 162 250 138 212
4 242 247 241 252
4 71 187 61 280
4 102 281 197 280
4 122 92 82 203
4 17 18 82 117
4 122 82 123 117
4 19 264 273 265
4 267 279 222 20
4 125 273 270 265
4 267 272 279 176
4 19 116 18 117
4 21 25 286 24
4 23 28 26 20
4 23 285 28 27
4 218 286 275 24
4 85 53 84 288
4 235 236 231 266
4 221 222 28 20
4 267 222 231 230
4 268 38 129 203
4 125 270 197 188
4 126 287 272 176
4 277 270 276 265
4 267 231 272 266
4 125 197 187 280
4 190 129 92 203
4 277 276 287 176
4 19 18 264 22
4 17 82 38 203
4 102 197 90 188
4 126 84 287 288
4 284 130 285 27
4 121 276 264 265
4 71 37 187 177
4 120 123 116 117
4 198 88 127 191
4 221 16 25 24
4 23 26 15 22
4 121 279 276 176
4 235 231 124 230
4 125 187 273 177
4 278 271 236 266
4 277 287 283 288
4 284 285 274 282
4 278 127 271 191
4 269 275 16 24
4 200 283 53 288
4 23 15 285 282
4 121 26 279 20
4 21 124 25 230
4 19 273 116 177
4 200 90 283 188
4 126 271 84 191
4 269 16 130 27
4 17 38 15 282
4 221 25 222 230
4 121 264 26 22
4 120 116 37 177
4 60 61 281 280
4 277 283 270 188
4 126 272 271 266
4 268 274 38 282
4 85 84 88 191
4 17 15 18 22
4 221 28 16 27
4 93 94 73 55
4 85 88 67 87
4 80 49 79 87
4 44 104 73 72
4 146 33 67 168
4 211 165 149 55
4 8 47 14 154
4 105 104 108 144
4 105 108 29 107
4 7 139 13 75
4 44 165 194 98
4 200 53 77 168
4 8 1 101 4
4 2 5 152 58
4 260 6 213 3
4 105 35 104 72
4 96 57 182 75
4 7 14 139 154
4 146 29 33 107
4 7 13 10 9
4 12 13 57 75
4 85 67 53 168
4 44 73 165 55
4 63 152 62 58
4 8 101 47 46
4 96 182 194 144
4 60 281 119 4
4 12 5 6 3
4 173 185 35 72
4 65 149 94 55
4 146 67 49 87
4 114 113 47 154
4 163 108 182 144
4 12 6 13 9
4 173 35 111 156
4 163 182 139 75
4 260 257 6 9
4 105 29 35 156
4 163 139 113 154
4 256 10 257 9
4 146 49 29 156
4 163 113 108 107
4 80 111 49 156
4 102 101 281 4
4 12 57 5 58
4 44 194 104 144
4 96 194 62 98
4 2 0 5 3
4 93 73 185 72
4 179 119 1 4
4 200 77 90 46
4 114 33 113 107
4 7 10 14 11
4 96 62 57 58
4 133 213 0 3
4 102 90 101 46
4 256 255 10 11
4 63 62 249 98
4 114 47 77 46
4 179 1 255 11
4 211 249 165 98
4 114 77 33 168
4 198 79 88 87
4 8 14 1 11
CELL_TYPES 256
8
8
8
8
8
8
8
8
8
8
8
8
8
8
8
8
8
8
8
8
8
8
8
8
8
8
8
8
8
8
8
8
8
8
8
8
8
8
8
8
8
8
8
8
8
8
8
8
8
8
8
8
8
8
8
8
8
8
8
8
8
8
8
8
8
8
8
8
8
8
8
8
8
8
8
8
8
8
8
8
8
8
8
8
8
8
8
8
8
8
8
8
8
8
8
8
8
8
8
8
8
8
8
8
8
8
8
8
8
8
8
8
8
8
8
8
8
8
8
8
8
8
8
8
8
8
8
8
8
8
8
8
8
8
8
8
8
8
8
8
8
8
8
8
8
8
8
8
8
8
8
8
8
8
8
8
8
8
8
8
8
8
8
8
8
8
8
8
8
8
8
8
8
8
8
8
8
8
8
8
8
8
8
8
8
8
8
8
8
8
8
8
8
8
8
8
8
8
8
8
8
8
8
8
8
8
8
8
8
8
8
8
8
8
8
8
8
8
8
8
8
8
8
8
8
8
8
8
8
8
8
8
8
8
8
8
8
8
8
8
8
8
8
8
8
8
8
8
8
8
8
8
8
8
8
8
CELL_DATA 256
VECTORS vector_value float
-0.0205599 -1.63595 0
-0.253962 -0.31771 0
-0.0113049 -0.837538 0
0.0531157 -2.47843 0
-0.116423 -2.05691 0
-0.196459 -0.804231 0
0.00955379 -0.99886 0
-0.0306745 -1.66213 0
-0.0848809 -1.5513 0
-0.504248 -0.192774 0
-0.195153 -0.414689 0
-0.175807 -2.65301 0
-0.0542363 -0.952746 0
-0.17977 -1.3187 0
0.445137 -1.73154 0
-0.50055 -0.493596 0
-0.0603852 -0.936233 0
-0.414506 -0.886831 0
-0.024615 -0.904107 0
-0.0304502 -0.485113 0
-0.591497 -0.891998 0
-0.373336 -0.353458 0
-0.102352 -0.122068 0
0.0297192 -1.06114 0
-1.00221 -0.818443 0
-0.379942 -0.499001 0
0.0250824 -0.794227 0
-0.348773 -0.942198 0
0.0305311 -0.714033 0
-0.203716 -0.310493 0
-0.283765 -0.18485 0
-0.222018 -1.86134 0
-0.18091 -0.418038 0
0.0996101 -0.861479 0
-0.445679 -0.590395 0
-0.00834651 -2.15334 0
-0.260602 -0.403752 0
-0.590405 -2.46369 0
0.18763 -1.38979 0
0.153344 -0.969328 0
0.00829789 -1.42417 0
-0.123045 -0.321212 0
-0.514561 -0.354413 0
-0.0291175 -2.63536 0
-0.147731 -0.625078 0
-0.029779 -2.01391 0
-0.197017 -0.345187 0
0.0331868 -0.531482 0
-0.232722 -0.575702 0
-0.386861 -0.31615 0
0.332587 -2.30556 0
-0.200021 -0.309462 0
0.0724924 -1.32729 0
0.0306071 -1.28099 0
-0.649521 -0.330194 0
-0.38614 -0.441678 0
0.415724 -1.85949 0
0.260981 -0.649996 0
-0.20965 -0.739138 0
0.416879 -2.34328 0
0.775636 -1.88657 0
-0.757007 -0.610415 0
-0.205469 -0.840786 0
0.416552 -1.44725 0
0.221994 -1.05304 0
-0.0803339 -0.124093 0
-0.0178959 -0.049525 0
-0.0195488 -0.101802 0
-0.208197 -0.537428 0
-0.0322326 -0.147578 0
0.661097 -0.956755 0
-0.171556 -0.977251 0
-0.0835108 -0.467977 0
-0.238717 -1.72235 0
-0.0927575 -0.817653 0
0.0125222 -0.0878234 0
-0.0876271 -1.90625 0
-0.162627 -2.03238 0
0.0203588 -0.514719 0
-0.299738 -0.56367 0
-0.391313 -0.661429 0
-0.159003 -2.31104 0
-0.206809 -0.582356 0
-0.0238715 -1.29439 0
-0.198439 -2.03823 0
-0.538666 -0.662334 0
0.185601 -0.534484 0
-0.0863698 -1.37661 0
-0.182338 -0.349375 0
1.24791 -1.20013 0
0.00530406 -0.666945 0
-0.202594 -0.497066 0
-0.127282 -0.430105 0
0.270538 -1.85245 0
-0.275131 -0.209523 0
-0.0151389 -0.231381 0
-0.0782902 -0.659745 0
-0.303613 -0.436136 0
-0.114837 -0.578659 0
-0.303816 -1.61801 0
-0.0386727 -0.92241 0
0.0740695 -0.201271 0
0.0614852 -0.322055 0
0.0890241 -1.40466 0
-0.0128257 -1.00253 0
-0.0197929 -0.0455418 0
0.131444 -1.95103 0
-0.0856372 -0.533495 0
0.0510513 -0.606756 0
-0.117224 -1.6072 0
0.501887 -0.884588 0
-0.397387 -0.427099 0
-0.194345 -0.289819 0
-0.416038 -0.447176 0
-0.382624 -1.047 0
-0.462467 -0.426342 0
-0.182408 -0.804813 0
-0.339262 -1.61744 0
-0.401671 -0.485462 0
-0.246058 -0.701347 0
-0.373005 -1.60911 0
-0.419715 -0.637997 0
-0.19063 -0.465992 0
0.884193 -0.721932 0
-0.177079 -0.440235 0
0.211467 -0.831275 0
-0.232728 -0.400797 0
-0.0370094 -0.66022 0
-0.334817 -0.0849673 0
-0.0789919 -0.108664 0
-0.378858 -1.69361 0
-0.364315 -1.28426 0
-0.929209 -1.69052 0
-1.31006 -2.00112 0
0.397212 -1.01748 0
-3.30389 -2.36814 0
0.29733 -0.81734 0
-1.11561 -2.19279 0
0.0134365 -0.233234 0
-0.0363342 -0.382973 0
-0.117513 -0.37031 0
-8.00615e-05 -0.237096 0
-0.472014 -0.784429 0
0.0447434 -0.167034 0
0.085301 -0.78668 0
0.130784 -0.325769 0
-0.125262 -1.09259 0
-0.960674 -1.14864 0
0.142885 -0.512917 0
-2.06323 -2.90262 0
0.12968 -0.197236 0
-0.466762 -0.182073 0
0.149845 -1.85906 0
-0.322802 -1.70913 0
-0.380649 -0.96801 0
-0.227126 -0.773563 0
-0.0520053 -0.653081 0
-0.389724 -0.49775 0
-0.134207 -0.530067 0
-0.219573 -1.45407 0
-0.789597 -0.296949 0
-0.773631 -1.03049 0
-0.0684685 -0.230067 0
-0.112313 -0.866118 0
-0.0847696 -0.597603 0
0.368262 -0.85061 0
-0.00381611 -0.251879 0
-1.97482 -0.94751 0
0.0212193 -0.0935409 0
-0.7991 -2.47167 0
-0.0880307 -0.461909 0
-0.0266428 -0.110612 0
-0.0255928 -0.609078 0
-1.46234 -2.92993 0
-0.121085 -0.506165 0
0.136882 -0.725649 0
-0.00494264 -0.200929 0
-1.75552 -1.87865 0
-1.09414 -4.35907 0
-0.151389 -0.27278 0
-0.110519 -0.675861 0
-0.169826 -0.554447 0
0.177801 -0.873369 0
-0.0714896 -0.598287 0
-1.51829 -1.0076 0
-0.0868015 -0.0659608 0
-1.4342 -4.65352 0
0.0285811 -0.185806 0
-0.180929 -0.389304 0
-0.212952 -0.485001 0
-0.0823426 -0.476523 0
-0.202501 -0.685671 0
0.119358 -1.18442 0
-0.39279 -0.7743 0
0.0187827 -0.46024 0
0.20235 -1.76146 0
-0.811327 -2.24391 0
0.122551 -1.14738 0
0.0560266 -0.348861 0
0.074458 -1.46962 0
-0.121945 -2.4736 0
1.32384 -1.69447 0
0.482866 -1.01621 0
-1.18169 -3.50545 0
0.0121597 -0.129919 0
0.10408 -0.639674 0
1.01609 -1.54333 0
-0.535323 -2.4248 0
1.04182 -1.30664 0
0.271078 -0.754323 0
-0.570732 -2.87751 0
0.305176 -0.328017 0
1.37528 -1.56801 0
-1.10582 -1.81516 0
0.470118 -1.60934 0
0.278545 -0.898238 0
-0.0469037 -0.556386 0
0.660399 -0.672079 0
-0.0356372 -0.0720494 0
0.932778 -1.50619 0
-0.277407 -0.934958 0
0.00452542 -0.994129 0
-0.244772 -1.28615 0
0.175377 -1.38729 0
0.985107 -1.49768 0
1.38752 -1.45894 0
-0.0708152 -0.565443 0
1.33694 -1.22729 0
0.143103 -0.283455 0
-0.216169 -2.13114 0
0.687658 -1.42975 0
0.0705998 -0.148419 0
-0.333195 -1.95944 0
0.431049 -2.11152 0
-0.0362184 -0.396605 0
-0.0218351 -0.0933053 0
0.60995 -0.957398 0
0.541295 -1.21315 0
0.342493 -0.708144 0
0.385375 -1.34471 0
-0.0332832 -1.4147 0
-0.0363325 -0.0641085 0
-0.659263 -2.27054 0
-0.0430121 -2.43903 0
0.0499394 -0.181987 0
0.353395 -0.98058 0
0.94455 -1.45169 0
-0.0744657 -0.742536 0
0.0155263 -0.0792037 0
0.440179 -0.860965 0
-0.269564 -1.3094 0
-0.0061331 -0.0356223 0
0.428917 -1.21843 0
-1.00267 -3.63907 0
-0.0818569 -0.393221 0
-0.013978 -0.262136 0
