# vtk DataFile Version 2.0
Unstructured Grid by M++
ASCII
DATASET UNSTRUCTURED_GRID
POINTS 81 float
  1.000000   0.625000 0
  0.750000   0.375000 0
  1.000000   0.000000 0
  0.875000   0.875000 0
  0.750000   0.125000 0
  1.000000   1.000000 0
  0.875000   0.250000 0
  0.625000   0.875000 0
  1.000000   0.750000 0
  0.875000   0.000000 0
  1.000000   0.250000 0
  0.625000   0.375000 0
  0.875000   0.500000 0
  0.625000   0.625000 0
  1.000000   0.500000 0
  0.750000   0.500000 0
  0.750000   1.000000 0
  1.000000   0.125000 0
  0.625000   0.250000 0
  0.750000   0.750000 0
  0.625000   0.000000 0
  0.125000   0.375000 0
  0.000000   0.500000 0
  0.125000   0.625000 0
  0.625000   1.000000 0
  1.000000   0.875000 0
  0.875000   0.125000 0
  0.500000   0.250000 0
  0.625000   0.500000 0
  0.250000   0.625000 0
  0.000000   0.625000 0
  0.375000   0.500000 0
  0.375000   0.000000 0
  0.000000   0.125000 0
  0.125000   0.875000 0
  0.875000   1.000000 0
  0.750000   0.250000 0
  0.375000   0.375000 0
  0.250000   0.375000 0
  0.625000   0.750000 0
  0.125000   0.125000 0
  0.500000   0.000000 0
  0.250000   0.875000 0
  0.125000   0.500000 0
  0.500000   0.375000 0
  0.125000   0.000000 0
  0.250000   0.750000 0
  0.250000   0.500000 0
  0.000000   0.875000 0
  0.875000   0.625000 0
  0.500000   0.750000 0
  0.750000   0.625000 0
  0.250000   0.000000 0
  0.375000   0.750000 0
  0.750000   0.875000 0
  0.625000   0.125000 0
  0.250000   0.250000 0
  0.375000   1.000000 0
  0.375000   0.250000 0
  0.000000   0.375000 0
  0.500000   1.000000 0
  0.875000   0.750000 0
  0.750000   0.000000 0
  0.375000   0.125000 0
  0.500000   0.875000 0
  0.000000   0.000000 0
  0.125000   0.750000 0
  0.500000   0.625000 0
  0.125000   0.250000 0
  0.500000   0.125000 0
  0.250000   1.000000 0
  0.250000   0.125000 0
  0.000000   1.000000 0
  0.375000   0.875000 0
  0.000000   0.750000 0
  0.375000   0.625000 0
  0.000000   0.250000 0
  0.125000   1.000000 0
  1.000000   0.375000 0
  0.500000   0.500000 0
  0.875000   0.375000 0
CELLS 64 320
4 56 71 58 63
4 27 58 69 63
4 41 69 32 63
4 76 33 68 40
4 27 44 58 37
4 79 31 44 37
4 56 38 68 21
4 56 58 38 37
4 52 32 71 63
4 47 38 31 37
4 76 68 59 21
4 22 59 43 21
4 65 45 33 40
4 47 43 38 21
4 52 71 45 40
4 56 68 71 40
4 74 30 66 23
4 46 66 29 23
4 22 43 30 23
4 72 48 77 34
4 46 53 42 73
4 50 64 53 73
4 70 42 57 73
4 74 66 48 34
4 46 42 66 34
4 47 29 43 23
4 70 77 42 34
4 60 57 64 73
4 79 67 31 75
4 47 31 29 75
4 50 53 67 75
4 46 29 53 75
4 10 78 6 80
4 36 6 1 80
4 15 1 12 80
4 36 4 6 26
4 14 12 78 80
4 2 17 9 26
4 36 18 4 55
4 15 28 1 11
4 62 4 20 55
4 10 6 17 26
4 27 18 44 11
4 62 9 4 26
4 27 69 18 55
4 36 1 18 11
4 41 20 69 55
4 79 44 28 11
4 16 24 54 7
4 19 54 39 7
4 50 39 64 7
4 8 25 61 3
4 60 64 24 7
4 79 28 67 13
4 19 51 61 49
4 8 61 0 49
4 15 51 28 13
4 19 39 51 13
4 50 67 39 13
4 19 61 54 3
4 14 0 12 49
4 5 35 25 3
4 15 12 51 49
4 16 54 35 3
CELL_TYPES 64
8
8
8
8
8
8
8
8
8
8
8
8
8
8
8
8
8
8
8
8
8
8
8
8
8
8
8
8
8
8
8
8
8
8
8
8
8
8
8
8
8
8
8
8
8
8
8
8
8
8
8
8
8
8
8
8
8
8
8
8
8
8
8
8
CELL_DATA 64
VECTORS vector_value float
0.204006 -0.265613 0
0.926495 -1.54281 0
-0.0375989 -1.68955 0
0.025591 -0.0464788 0
1.62117 -3.28246 0
0.244069 -3.39042 0
0.0988278 -0.272926 0
0.601539 -0.917792 0
0.0832388 -0.249503 0
0.756436 -1.77258 0
0.0519946 -0.12824 0
0.0115675 -0.202897 0
0.0023206 -0.0247074 0
0.138352 -0.340967 0
0.0257309 -0.156958 0
0.111021 -0.287119 0
0.0415897 -0.191955 0
0.298638 -1.83843 0
-0.00938146 -0.204018 0
-0.0141059 -1.08844 0
-0.0800028 -0.943872 0
-0.117951 -1.64085 0
0.179857 -0.967453 0
0.378457 -0.799826 0
0.0448441 -1.13441 0
0.52978 -1.37645 0
0.153908 -0.544139 0
-0.174376 -1.64507 0
-0.00724144 -2.89131 0
0.264241 -1.00377 0
-0.236778 -2.65755 0
0.198141 -0.631176 0
-0.213725 -1.16281 0
-0.0490561 -0.0416386 0
-0.159919 -0.446673 0
-0.510503 -0.42126 0
0.107581 -1.12622 0
-0.0463065 -0.427179 0
-0.10796 -0.534391 0
-0.0853573 -0.613707 0
0.102942 -1.42332 0
-0.132266 -0.593155 0
0.498862 -1.55474 0
-0.102877 -0.273632 0
1.2432 -4.30917 0
-0.379005 -0.639399 0
0.0211771 -3.75515 0
-0.00912861 -0.106536 0
-0.61489 -1.11849 0
-0.139111 -1.33455 0
-0.564231 -0.92538 0
0.117906 -0.951238 0
-0.38904 -1.24958 0
-0.060966 -0.480186 0
0.0554579 -0.337136 0
-0.0089768 -1.09447 0
0.0681702 -0.309645 0
0.0848397 -0.64374 0
-0.234634 -0.605549 0
0.180453 -0.269875 0
-0.0336086 -0.959223 0
-0.0847322 -0.844421 0
0.0876275 -0.775396 0
-0.454335 -0.542402 0
