# vtk DataFile Version 2.0
Unstructured Grid by M++
ASCII
DATASET UNSTRUCTURED_GRID
POINTS 289 float
  0.562500   1.000000 0
  0.562500   0.625000 0
  0.625000   1.000000 0
  0.562500   0.937500 0
  0.562500   0.562500 0
  0.625000   0.937500 0
  0.562500   0.875000 0
  0.625000   0.750000 0
  0.625000   0.625000 0
  0.562500   0.812500 0
  0.562500   0.750000 0
  0.562500   0.687500 0
  0.625000   0.875000 0
  0.625000   0.812500 0
  0.625000   0.687500 0
  0.687500   0.125000 0
  0.875000   0.062500 0
  0.625000   0.125000 0
  0.625000   0.187500 0
  0.625000   0.250000 0
  0.812500   0.187500 0
  1.000000   0.125000 0
  0.687500   0.187500 0
  0.750000   0.125000 0
  0.937500   0.062500 0
  0.937500   0.125000 0
  0.750000   0.187500 0
  0.812500   0.062500 0
  0.812500   0.125000 0
  0.875000   0.687500 0
  0.187500   0.250000 0
  0.437500   0.250000 0
  0.375000   0.187500 0
  0.812500   0.625000 0
  0.125000   0.187500 0
  0.937500   0.750000 0
  0.250000   0.312500 0
  0.500000   0.312500 0
  0.625000   0.062500 0
  0.437500   0.500000 0
  0.375000   0.125000 0
  0.437500   0.187500 0
  0.437500   0.437500 0
  0.437500   0.375000 0
  0.875000   0.875000 0
  0.187500   0.375000 0
  0.687500   0.562500 0
  0.687500   0.625000 0
  0.000000   0.125000 0
  0.937500   0.625000 0
  0.250000   0.125000 0
  0.375000   0.062500 0
  0.375000   0.000000 0
  0.812500   0.500000 0
  0.125000   0.000000 0
  0.937500   0.937500 0
  0.250000   0.437500 0
  0.687500   0.875000 0
  0.687500   0.937500 0
  0.000000   0.437500 0
  0.500000   0.500000 0
  0.500000   0.437500 0
  0.750000   0.937500 0
  0.750000   1.000000 0
  0.062500   0.500000 0
  1.000000   1.000000 0
  0.312500   0.500000 0
  0.875000   0.562500 0
  0.187500   0.062500 0
  0.437500   0.125000 0
  0.437500   0.062500 0
  0.500000   0.375000 0
  0.937500   0.812500 0
  0.937500   0.875000 0
  0.250000   0.375000 0
  0.687500   0.812500 0
  0.000000   0.375000 0
  0.750000   0.562500 0
  0.062500   0.125000 0
  1.000000   0.562500 0
  1.000000   0.625000 0
  0.312500   0.125000 0
  0.562500   0.125000 0
  0.437500   0.000000 0
  0.875000   0.437500 0
  0.875000   0.500000 0
  0.187500   0.000000 0
  0.937500   0.562500 0
  0.937500   0.500000 0
  0.250000   0.062500 0
  0.687500   0.500000 0
  0.000000   0.062500 0
  0.500000   0.062500 0
  1.000000   0.875000 0
  1.000000   0.937500 0
  0.312500   0.437500 0
  0.750000   0.875000 0
  0.062500   0.437500 0
  0.812500   0.937500 0
  0.125000   0.500000 0
  0.375000   0.500000 0
  0.625000   0.562500 0
  0.625000   0.500000 0
  0.437500   0.312500 0
  0.875000   0.812500 0
  0.875000   0.750000 0
  0.187500   0.312500 0
  0.812500   0.687500 0
  0.812500   0.750000 0
  0.125000   0.250000 0
  0.375000   0.250000 0
  1.000000   0.687500 0
  0.312500   0.187500 0
  0.750000   0.687500 0
  0.750000   0.625000 0
  0.062500   0.187500 0
  0.562500   0.250000 0
  0.562500   0.187500 0
  0.375000   1.000000 0
  0.500000   0.562500 0
  0.500000   0.250000 0
  0.750000   0.250000 0
  0.500000   0.125000 0
  0.500000   0.187500 0
  1.000000   0.187500 0
  0.625000   0.375000 0
  0.875000   0.375000 0
  1.000000   0.437500 0
  0.312500   0.000000 0
  0.562500   0.000000 0
  0.812500   0.000000 0
  0.250000   0.687500 0
  0.000000   0.687500 0
  0.500000   1.000000 0
  0.250000   1.000000 0
  0.000000   1.000000 0
  0.437500   0.687500 0
  0.437500   0.625000 0
  0.187500   0.625000 0
  0.687500   0.750000 0
  0.000000   0.312500 0
  0.000000   0.250000 0
  0.375000   0.375000 0
  0.375000   0.312500 0
  0.812500   0.812500 0
  0.125000   0.312500 0
  0.875000   0.625000 0
  0.187500   0.187500 0
  0.187500   0.125000 0
  0.937500   1.000000 0
  0.250000   0.562500 0
  0.250000   0.500000 0
  0.687500   1.000000 0
  0.000000   0.500000 0
  0.687500   0.687500 0
  0.000000   0.187500 0
  0.937500   0.687500 0
  0.250000   0.250000 0
  0.250000   0.187500 0
  0.187500   0.687500 0
  0.000000   0.750000 0
  0.250000   0.750000 0
  0.125000   0.625000 0
  0.750000   0.750000 0
  0.062500   0.250000 0
  0.875000   0.937500 0
  0.187500   0.500000 0
  0.187500   0.437500 0
  0.812500   0.562500 0
  0.125000   0.125000 0
  0.125000   0.062500 0
  0.375000   0.625000 0
  0.375000   0.687500 0
  1.000000   0.750000 0
  0.312500   0.250000 0
  0.312500   0.312500 0
  0.812500   0.312500 0
  0.562500   0.312500 0
  0.375000   0.750000 0
  0.500000   0.625000 0
  0.250000   0.625000 0
  0.312500   0.687500 0
  0.750000   0.812500 0
  0.062500   0.312500 0
  0.062500   0.375000 0
  1.000000   0.812500 0
  0.312500   0.375000 0
  0.562500   0.375000 0
  0.687500   0.437500 0
  0.000000   0.000000 0
  0.500000   0.000000 0
  0.937500   0.437500 0
  0.250000   0.000000 0
  0.375000   0.437500 0
  0.812500   0.875000 0
  0.125000   0.375000 0
  0.125000   0.437500 0
  0.625000   0.437500 0
  1.000000   0.500000 0
  0.312500   0.062500 0
  0.750000   0.500000 0
  0.062500   0.000000 0
  0.062500   0.062500 0
  0.562500   0.062500 0
  0.062500   0.750000 0
  0.312500   0.750000 0
  0.312500   0.625000 0
  0.312500   0.562500 0
  0.062500   0.562500 0
  0.187500   1.000000 0
  0.437500   0.562500 0
  0.875000   1.000000 0
  0.187500   0.562500 0
  0.500000   0.937500 0
  0.250000   0.937500 0
  0.312500   1.000000 0
  0.125000   0.750000 0
  0.125000   0.687500 0
  1.000000   0.000000 0
  0.000000   0.937500 0
  0.000000   0.875000 0
  0.875000   0.125000 0
  0.875000   0.187500 0
  0.062500   0.812500 0
  0.312500   0.812500 0
  0.000000   0.812500 0
  0.000000   0.625000 0
  0.000000   0.562500 0
  0.062500   1.000000 0
  0.062500   0.937500 0
  0.937500   0.187500 0
  0.937500   0.250000 0
  0.062500   0.687500 0
  0.062500   0.625000 0
  0.125000   1.000000 0
  1.000000   0.250000 0
  1.000000   0.312500 0
  0.062500   0.875000 0
  0.125000   0.812500 0
  0.375000   0.812500 0
  0.125000   0.875000 0
  0.375000   0.937500 0
  0.375000   0.875000 0
  0.187500   0.750000 0
  0.187500   0.812500 0
  0.437500   0.812500 0
  0.187500   0.875000 0
  0.437500   0.875000 0
  0.375000   0.562500 0
  0.812500   1.000000 0
  0.125000   0.562500 0
  0.437500   1.000000 0
  0.437500   0.937500 0
  0.187500   0.937500 0
  0.125000   0.937500 0
  0.500000   0.687500 0
  0.500000   0.750000 0
  0.500000   0.812500 0
  0.250000   0.812500 0
  0.250000   0.875000 0
  0.500000   0.875000 0
  0.437500   0.750000 0
  0.312500   0.875000 0
  0.312500   0.937500 0
  0.687500   0.250000 0
  0.687500   0.312500 0
  0.937500   0.312500 0
  0.875000   0.250000 0
  0.625000   0.000000 0
  0.875000   0.000000 0
  0.687500   0.375000 0
  0.937500   0.375000 0
  0.875000   0.312500 0
  0.625000   0.312500 0
  0.687500   0.000000 0
  0.937500   0.000000 0
  0.750000   0.312500 0
  0.750000   0.375000 0
  1.000000   0.375000 0
  0.812500   0.250000 0
  0.562500   0.437500 0
  0.562500   0.500000 0
  0.687500   0.062500 0
  0.750000   0.437500 0
  0.750000   0.000000 0
  0.750000   0.062500 0
  1.000000   0.062500 0
  0.812500   0.375000 0
  0.812500   0.437500 0
CELLS 256 1280
4 169 170 148 68
4 151 166 56 167
4 195 45 196 167
4 54 170 201 202
4 109 34 30 147
4 40 32 81 112
4 192 89 86 68
4 48 91 78 202
4 99 64 196 97
4 71 43 37 103
4 74 186 56 95
4 109 164 34 115
4 50 81 158 112
4 122 69 92 70
4 195 145 45 106
4 110 143 174 175
4 157 30 158 147
4 40 69 32 41
4 50 158 148 147
4 141 155 164 115
4 122 123 69 41
4 142 186 143 175
4 60 39 61 42
4 40 51 69 70
4 120 31 123 41
4 157 174 36 175
4 50 148 89 68
4 48 78 155 115
4 52 83 51 70
4 151 56 66 95
4 71 61 43 42
4 169 148 34 147
4 100 193 39 42
4 40 81 51 199
4 110 174 32 112
4 109 30 145 106
4 100 66 193 95
4 169 34 78 115
4 190 92 83 70
4 50 89 81 199
4 54 86 170 68
4 74 56 45 167
4 142 143 43 103
4 153 59 64 97
4 99 196 166 167
4 169 78 170 202
4 142 193 186 95
4 192 128 89 199
4 74 45 36 106
4 110 31 143 103
4 76 184 59 97
4 142 43 193 42
4 52 51 128 199
4 189 201 91 202
4 120 37 31 103
4 74 36 186 175
4 195 196 184 97
4 141 164 140 183
4 157 158 174 112
4 109 145 164 183
4 195 184 145 183
4 110 32 31 41
4 157 36 30 106
4 76 140 184 183
4 171 172 206 181
4 178 172 261 136
4 256 261 255 136
4 256 257 261 245
4 180 150 206 207
4 60 119 39 210
4 118 215 241 263
4 178 205 172 181
4 216 243 238 244
4 162 217 233 232
4 180 206 131 181
4 179 137 119 210
4 216 204 217 232
4 220 237 219 229
4 216 217 243 159
4 259 258 262 224
4 240 254 237 229
4 153 64 227 208
4 161 205 258 224
4 240 237 238 223
4 226 227 233 208
4 234 228 254 229
4 171 248 137 210
4 160 132 204 232
4 180 131 138 159
4 133 251 213 252
4 171 206 248 207
4 162 138 217 159
4 161 258 243 244
4 220 225 237 223
4 151 150 166 212
4 260 247 257 245
4 259 262 214 263
4 151 66 150 207
4 234 254 209 253
4 162 233 250 208
4 242 241 262 263
4 171 137 172 136
4 161 243 131 159
4 160 204 225 223
4 161 131 205 181
4 179 255 137 136
4 216 238 204 223
4 100 39 248 210
4 260 213 247 252
4 226 233 132 232
4 134 214 215 263
4 180 138 150 212
4 178 261 239 245
4 259 246 258 244
4 178 239 205 224
4 240 238 246 244
4 242 262 239 224
4 99 250 64 208
4 240 246 254 253
4 242 239 247 245
4 135 219 228 229
4 99 166 250 212
4 259 214 246 253
4 118 241 251 252
4 100 248 66 207
4 134 209 214 253
4 162 250 138 212
4 242 247 241 252
4 71 187 61 280
4 102 281 197 280
4 122 92 82 203
4 17 18 82 117
4 122 82 123 117
4 19 264 273 265
4 267 279 222 20
4 125 273 270 265
4 267 272 279 176
4 19 116 18 117
4 21 25 286 24
4 23 28 26 20
4 23 285 28 27
4 218 286 275 24
4 85 53 84 288
4 235 236 231 266
4 221 222 28 20
4 267 222 231 230
4 268 38 129 203
4 125 270 197 188
4 126 287 272 176
4 277 270 276 265
4 267 231 272 266
4 125 197 187 280
4 190 129 92 203
4 277 276 287 176
4 19 18 264 22
4 17 82 38 203
4 102 197 90 188
4 126 84 287 288
4 284 130 285 27
4 121 276 264 265
4 71 37 187 177
4 120 123 116 117
4 198 88 127 191
4 221 16 25 24
4 23 26 15 22
4 121 279 276 176
4 235 231 124 230
4 125 187 273 177
4 278 271 236 266
4 277 287 283 288
4 284 285 274 282
4 278 127 271 191
4 269 275 16 24
4 200 283 53 288
4 23 15 285 282
4 121 26 279 20
4 21 124 25 230
4 19 273 116 177
4 200 90 283 188
4 126 271 84 191
4 269 16 130 27
4 17 38 15 282
4 221 25 222 230
4 121 264 26 22
4 120 116 37 177
4 60 61 281 280
4 277 283 270 188
4 126 272 271 266
4 268 274 38 282
4 85 84 88 191
4 17 15 18 22
4 221 28 16 27
4 93 94 73 55
4 85 88 67 87
4 80 49 79 87
4 44 104 73 72
4 146 33 67 168
4 211 165 149 55
4 8 47 14 154
4 105 104 108 144
4 105 108 29 107
4 7 139 13 75
4 44 165 194 98
4 200 53 77 168
4 8 1 101 4
4 2 5 152 58
4 260 6 213 3
4 105 35 104 72
4 96 57 182 75
4 7 14 139 154
4 146 29 33 107
4 7 13 10 9
4 12 13 57 75
4 85 67 53 168
4 44 73 165 55
4 63 152 62 58
4 8 101 47 46
4 96 182 194 144
4 60 281 119 4
4 12 5 6 3
4 173 185 35 72
4 65 149 94 55
4 146 67 49 87
4 114 113 47 154
4 163 108 182 144
4 12 6 13 9
4 173 35 111 156
4 163 182 139 75
4 260 257 6 9
4 105 29 35 156
4 163 139 113 154
4 256 10 257 9
4 146 49 29 156
4 163 113 108 107
4 80 111 49 156
4 102 101 281 4
4 12 57 5 58
4 44 194 104 144
4 96 194 62 98
4 2 0 5 3
4 93 73 185 72
4 179 119 1 4
4 200 77 90 46
4 114 33 113 107
4 7 10 14 11
4 96 62 57 58
4 133 213 0 3
4 102 90 101 46
4 256 255 10 11
4 63 62 249 98
4 114 47 77 46
4 179 1 255 11
4 211 249 165 98
4 114 77 33 168
4 198 79 88 87
4 8 14 1 11
CELL_TYPES 256
8
8
8
8
8
8
8
8
8
8
8
8
8
8
8
8
8
8
8
8
8
8
8
8
8
8
8
8
8
8
8
8
8
8
8
8
8
8
8
8
8
8
8
8
8
8
8
8
8
8
8
8
8
8
8
8
8
8
8
8
8
8
8
8
8
8
8
8
8
8
8
8
8
8
8
8
8
8
8
8
8
8
8
8
8
8
8
8
8
8
8
8
8
8
8
8
8
8
8
8
8
8
8
8
8
8
8
8
8
8
8
8
8
8
8
8
8
8
8
8
8
8
8
8
8
8
8
8
8
8
8
8
8
8
8
8
8
8
8
8
8
8
8
8
8
8
8
8
8
8
8
8
8
8
8
8
8
8
8
8
8
8
8
8
8
8
8
8
8
8
8
8
8
8
8
8
8
8
8
8
8
8
8
8
8
8
8
8
8
8
8
8
8
8
8
8
8
8
8
8
8
8
8
8
8
8
8
8
8
8
8
8
8
8
8
8
8
8
8
8
8
8
8
8
8
8
8
8
8
8
8
8
8
8
8
8
8
8
8
8
8
8
8
8
8
8
8
8
8
8
8
8
8
8
8
8
CELL_DATA 256
VECTORS vector_value float
0.334889 -1.78723 0
0.836117 -1.41627 0
0.377141 -0.649656 0
0.009236 -0.38223 0
-0.188926 -1.3991 0
0.240002 -1.5236 0
0.161519 -1.4514 0
-0.00208229 -0.111795 0
0.496324 -0.663081 0
0.280361 -1.16808 0
0.188321 -1.90829 0
0.0607198 -0.681464 0
0.115483 -0.932961 0
-0.134228 -0.586245 0
0.188933 -0.720558 0
0.273026 -0.940762 0
-0.145848 -1.39255 0
0.0940021 -1.07845 0
0.0216044 -1.08079 0
0.03584 -0.171161 0
-0.0567675 -0.55505 0
0.215108 -0.841994 0
-0.230934 -1.09405 0
0.129983 -1.58288 0
0.186962 -0.665816 0
0.241322 -1.70121 0
0.2411 -1.08399 0
0.0131247 -0.119592 0
0.0463207 -1.7732 0
0.325268 -1.47232 0
0.0409615 -1.23752 0
0.0241727 -1.66243 0
-0.0270706 -0.898256 0
0.215721 -1.24474 0
0.288786 -1.40616 0
-0.0485005 -0.852564 0
-0.00796475 -1.02701 0
0.0974603 -0.721902 0
-0.084496 -0.818879 0
0.147928 -0.950625 0
0.0883497 -1.39843 0
0.462291 -1.79009 0
0.197206 -1.05538 0
0.22295 -1.21709 0
0.763498 -0.968949 0
0.0827788 -0.474732 0
0.0919842 -0.98143 0
0.0778879 -0.865084 0
0.097999 -1.75613 0
0.193372 -1.07985 0
0.137534 -0.799067 0
0.0868718 -0.906689 0
0.105992 -1.25768 0
-0.00189984 -0.120198 0
0.357082 -0.837266 0
0.134518 -2.08096 0
0.318732 -0.609989 0
0.0902761 -0.313132 0
0.215032 -1.19508 0
0.151877 -0.632152 0
0.237421 -0.572778 0
0.10899 -0.866272 0
-0.185888 -1.86245 0
0.124991 -0.530636 0
0.16899 -0.663731 0
-0.0738455 -0.27297 0
-0.138493 -0.299022 0
-0.147615 -0.248023 0
0.366469 -0.685479 0
-0.254376 -0.598974 0
-0.590429 -0.870163 0
0.0330416 -0.436591 0
-0.300941 -0.899359 0
0.467646 -1.43425 0
0.331486 -0.670241 0
-0.135502 -0.381667 0
-0.0838155 -1.99497 0
-0.0846254 -1.74432 0
0.166763 -0.795745 0
-0.401867 -0.584368 0
-0.391243 -1.80434 0
0.356831 -1.8439 0
-0.108401 -0.503586 0
-0.311764 -2.07655 0
0.256366 -2.42093 0
-0.900735 -1.32913 0
0.0386726 -0.542377 0
-0.1486 -2.64426 0
0.410354 -0.63395 0
0.222719 -0.526233 0
0.276348 -0.950112 0
0.558211 -0.831766 0
-0.134535 -0.685914 0
-0.0951043 -1.89914 0
0.510427 -0.910788 0
-0.0736644 -0.225306 0
-0.592362 -0.825451 0
0.262899 -0.980025 0
-1.01945 -0.836714 0
0.677115 -1.082 0
-0.399747 -0.671222 0
-0.0192818 -0.360358 0
0.175852 -0.531023 0
-0.229873 -2.26758 0
0.162893 -0.660944 0
-0.0937617 -0.333212 0
-0.451356 -2.23354 0
0.0262374 -0.880466 0
0.0900087 -0.290315 0
0.0895256 -2.83365 0
-0.738694 -0.89629 0
0.557664 -0.776198 0
-0.109027 -0.210346 0
-0.555445 -0.764933 0
-0.109954 -0.416906 0
-0.530187 -1.06351 0
-0.233649 -0.507554 0
0.729829 -0.802391 0
-0.688815 -0.892861 0
-0.121665 -0.208071 0
-0.32567 -1.45365 0
0.86074 -1.27252 0
-0.663247 -0.790751 0
-0.304475 -0.731955 0
0.10423 -0.919151 0
-0.889603 -0.961963 0
0.727204 -1.0525 0
-0.120191 -0.323904 0
0.00396471 -1.26277 0
-0.28246 -1.02863 0
-0.21229 -0.384791 0
0.183346 -0.914273 0
-0.0189073 -0.40088 0
0.274492 -0.905589 0
0.17537 -0.649179 0
0.134255 -0.736213 0
0.0354657 -0.422146 0
0.925665 -1.28255 0
0.0979474 -0.571827 0
0.745133 -1.2849 0
0.210627 -1.29105 0
0.0714249 -0.817653 0
-0.022232 -0.543862 0
-0.0549371 -0.576006 0
0.44701 -1.07715 0
-0.0415993 -0.448219 0
-0.0209865 -0.603632 0
0.100619 -0.90973 0
0.0206887 -0.352244 0
0.172912 -1.74358 0
-0.0541297 -0.353431 0
0.015302 -0.744628 0
-0.070536 -0.279737 0
0.129447 -1.38145 0
0.666835 -1.43741 0
-0.0901134 -0.728508 0
-0.00141643 -1.11084 0
0.0153524 -0.339123 0
0.00533031 -1.2726 0
0.138203 -1.78145 0
0.415057 -1.19033 0
0.52041 -0.702387 0
0.0331525 -0.522388 0
0.340808 -0.72502 0
0.584648 -1.92871 0
0.102231 -1.43452 0
-0.0328122 -0.451346 0
0.257136 -0.933129 0
0.00315234 -0.633942 0
0.0432889 -1.14522 0
0.0371909 -1.49383 0
0.0286222 -0.586146 0
0.121654 -0.860069 0
-0.14269 -1.13321 0
0.133513 -1.356 0
0.328206 -1.42842 0
0.0306582 -0.452414 0
0.562729 -1.24298 0
-0.03354 -1.55391 0
0.0652969 -0.338346 0
0.0430242 -1.09603 0
0.0730086 -1.70206 0
0.124291 -0.522259 0
0.306554 -1.82289 0
0.590293 -1.06449 0
-0.383846 -1.0718 0
0.15847 -1.79132 0
0.00236064 -0.302609 0
0.0238453 -1.50935 0
0.0561312 -0.278336 0
0.401509 -1.74464 0
0.409587 -1.4185 0
0.0125707 -1.03135 0
-0.0601793 -0.427332 0
-0.0942501 -0.57657 0
0.0484618 -1.31864 0
-0.606262 -0.731379 0
0.157927 -1.31429 0
-0.594511 -1.91992 0
-0.15139 -0.9886 0
-0.244807 -0.575855 0
-0.431648 -1.58075 0
0.162437 -1.58369 0
-0.387217 -1.18172 0
-0.572378 -0.990168 0
1.09232 -1.06776 0
0.268101 -0.331168 0
0.11014 -1.15725 0
-0.321136 -1.30971 0
-0.413987 -1.62483 0
-0.457485 -0.534879 0
-0.336146 -0.574324 0
-0.0921029 -1.43218 0
-0.311573 -0.678085 0
0.00563294 -1.39317 0
1.05721 -1.05468 0
-0.670582 -2.0476 0
-0.48972 -1.34624 0
-0.591427 -1.03751 0
0.548779 -0.72838 0
0.0753255 -1.17163 0
-0.0229754 -0.926795 0
-0.412014 -0.811304 0
-0.548213 -1.61863 0
-0.613615 -1.23443 0
-0.0298592 -0.491596 0
-0.0606704 -1.29413 0
-0.602289 -1.55975 0
-0.0523825 -0.251836 0
-0.127333 -1.08929 0
-0.56553 -1.85962 0
-0.198867 -0.268025 0
-0.569485 -1.09782 0
-0.400757 -0.852215 0
-0.238807 -0.966687 0
-0.707528 -1.28839 0
0.561029 -1.22407 0
-0.290969 -1.53825 0
0.229399 -1.23774 0
1.07876 -0.981473 0
0.0595789 -0.982116 0
-0.33698 -0.820247 0
-0.196093 -1.30957 0
-0.365753 -0.726483 0
-0.286787 -0.653799 0
0.321788 -1.12727 0
0.773327 -0.651272 0
-0.324832 -1.41748 0
-0.225247 -0.414734 0
0.898581 -1.27495 0
-0.344229 -1.25527 0
-0.199395 -0.551079 0
0.508692 -1.12268 0
-0.381553 -0.8762 0
0.0127498 -0.451696 0
-0.397607 -0.823331 0
