# vtk DataFile Version 2.0
Unstructured Grid by M++
ASCII
DATASET UNSTRUCTURED_GRID
POINTS 289 float
  0.562500   1.000000 0
  0.562500   0.625000 0
  0.625000   1.000000 0
  0.562500   0.937500 0
  0.562500   0.562500 0
  0.625000   0.937500 0
  0.562500   0.875000 0
  0.625000   0.750000 0
  0.625000   0.625000 0
  0.562500   0.812500 0
  0.562500   0.750000 0
  0.562500   0.687500 0
  0.625000   0.875000 0
  0.625000   0.812500 0
  0.625000   0.687500 0
  0.687500   0.125000 0
  0.875000   0.062500 0
  0.625000   0.125000 0
  0.625000   0.187500 0
  0.625000   0.250000 0
  0.812500   0.187500 0
  1.000000   0.125000 0
  0.687500   0.187500 0
  0.750000   0.125000 0
  0.937500   0.062500 0
  0.937500   0.125000 0
  0.750000   0.187500 0
  0.812500   0.062500 0
  0.812500   0.125000 0
  0.875000   0.687500 0
  0.187500   0.250000 0
  0.437500   0.250000 0
  0.375000   0.187500 0
  0.812500   0.625000 0
  0.125000   0.187500 0
  0.937500   0.750000 0
  0.250000   0.312500 0
  0.500000   0.312500 0
  0.625000   0.062500 0
  0.437500   0.500000 0
  0.375000   0.125000 0
  0.437500   0.187500 0
  0.437500   0.437500 0
  0.437500   0.375000 0
  0.875000   0.875000 0
  0.187500   0.375000 0
  0.687500   0.562500 0
  0.687500   0.625000 0
  0.000000   0.125000 0
  0.937500   0.625000 0
  0.250000   0.125000 0
  0.375000   0.062500 0
  0.375000   0.000000 0
  0.812500   0.500000 0
  0.125000   0.000000 0
  0.937500   0.937500 0
  0.250000   0.437500 0
  0.687500   0.875000 0
  0.687500   0.937500 0
  0.000000   0.437500 0
  0.500000   0.500000 0
  0.500000   0.437500 0
  0.750000   0.937500 0
  0.750000   1.000000 0
  0.062500   0.500000 0
  1.000000   1.000000 0
  0.312500   0.500000 0
  0.875000   0.562500 0
  0.187500   0.062500 0
  0.437500   0.125000 0
  0.437500   0.062500 0
  0.500000   0.375000 0
  0.937500   0.812500 0
  0.937500   0.875000 0
  0.250000   0.375000 0
  0.687500   0.812500 0
  0.000000   0.375000 0
  0.750000   0.562500 0
  0.062500   0.125000 0
  1.000000   0.562500 0
  1.000000   0.625000 0
  0.312500   0.125000 0
  0.562500   0.125000 0
  0.437500   0.000000 0
  0.875000   0.437500 0
  0.875000   0.500000 0
  0.187500   0.000000 0
  0.937500   0.562500 0
  0.937500   0.500000 0
  0.250000   0.062500 0
  0.687500   0.500000 0
  0.000000   0.062500 0
  0.500000   0.062500 0
  1.000000   0.875000 0
  1.000000   0.937500 0
  0.312500   0.437500 0
  0.750000   0.875000 0
  0.062500   0.437500 0
  0.812500   0.937500 0
  0.125000   0.500000 0
  0.375000   0.500000 0
  0.625000   0.562500 0
  0.625000   0.500000 0
  0.437500   0.312500 0
  0.875000   0.812500 0
  0.875000   0.750000 0
  0.187500   0.312500 0
  0.812500   0.687500 0
  0.812500   0.750000 0
  0.125000   0.250000 0
  0.375000   0.250000 0
  1.000000   0.687500 0
  0.312500   0.187500 0
  0.750000   0.687500 0
  0.750000   0.625000 0
  0.062500   0.187500 0
  0.562500   0.250000 0
  0.562500   0.187500 0
  0.375000   1.000000 0
  0.500000   0.562500 0
  0.500000   0.250000 0
  0.750000   0.250000 0
  0.500000   0.125000 0
  0.500000   0.187500 0
  1.000000   0.187500 0
  0.625000   0.375000 0
  0.875000   0.375000 0
  1.000000   0.437500 0
  0.312500   0.000000 0
  0.562500   0.000000 0
  0.812500   0.000000 0
  0.250000   0.687500 0
  0.000000   0.687500 0
  0.500000   1.000000 0
  0.250000   1.000000 0
  0.000000   1.000000 0
  0.437500   0.687500 0
  0.437500   0.625000 0
  0.187500   0.625000 0
  0.687500   0.750000 0
  0.000000   0.312500 0
  0.000000   0.250000 0
  0.375000   0.375000 0
  0.375000   0.312500 0
  0.812500   0.812500 0
  0.125000   0.312500 0
  0.875000   0.625000 0
  0.187500   0.187500 0
  0.187500   0.125000 0
  0.937500   1.000000 0
  0.250000   0.562500 0
  0.250000   0.500000 0
  0.687500   1.000000 0
  0.000000   0.500000 0
  0.687500   0.687500 0
  0.000000   0.187500 0
  0.937500   0.687500 0
  0.250000   0.250000 0
  0.250000   0.187500 0
  0.187500   0.687500 0
  0.000000   0.750000 0
  0.250000   0.750000 0
  0.125000   0.625000 0
  0.750000   0.750000 0
  0.062500   0.250000 0
  0.875000   0.937500 0
  0.187500   0.500000 0
  0.187500   0.437500 0
  0.812500   0.562500 0
  0.125000   0.125000 0
  0.125000   0.062500 0
  0.375000   0.625000 0
  0.375000   0.687500 0
  1.000000   0.750000 0
  0.312500   0.250000 0
  0.312500   0.312500 0
  0.812500   0.312500 0
  0.562500   0.312500 0
  0.375000   0.750000 0
  0.500000   0.625000 0
  0.250000   0.625000 0
  0.312500   0.687500 0
  0.750000   0.812500 0
  0.062500   0.312500 0
  0.062500   0.375000 0
  1.000000   0.812500 0
  0.312500   0.375000 0
  0.562500   0.375000 0
  0.687500   0.437500 0
  0.000000   0.000000 0
  0.500000   0.000000 0
  0.937500   0.437500 0
  0.250000   0.000000 0
  0.375000   0.437500 0
  0.812500   0.875000 0
  0.125000   0.375000 0
  0.125000   0.437500 0
  0.625000   0.437500 0
  1.000000   0.500000 0
  0.312500   0.062500 0
  0.750000   0.500000 0
  0.062500   0.000000 0
  0.062500   0.062500 0
  0.562500   0.062500 0
  0.062500   0.750000 0
  0.312500   0.750000 0
  0.312500   0.625000 0
  0.312500   0.562500 0
  0.062500   0.562500 0
  0.187500   1.000000 0
  0.437500   0.562500 0
  0.875000   1.000000 0
  0.187500   0.562500 0
  0.500000   0.937500 0
  0.250000   0.937500 0
  0.312500   1.000000 0
  0.125000   0.750000 0
  0.125000   0.687500 0
  1.000000   0.000000 0
  0.000000   0.937500 0
  0.000000   0.875000 0
  0.875000   0.125000 0
  0.875000   0.187500 0
  0.062500   0.812500 0
  0.312500   0.812500 0
  0.000000   0.812500 0
  0.000000   0.625000 0
  0.000000   0.562500 0
  0.062500   1.000000 0
  0.062500   0.937500 0
  0.937500   0.187500 0
  0.937500   0.250000 0
  0.062500   0.687500 0
  0.062500   0.625000 0
  0.125000   1.000000 0
  1.000000   0.250000 0
  1.000000   0.312500 0
  0.062500   0.875000 0
  0.125000   0.812500 0
  0.375000   0.812500 0
  0.125000   0.875000 0
  0.375000   0.937500 0
  0.375000   0.875000 0
  0.187500   0.750000 0
  0.187500   0.812500 0
  0.437500   0.812500 0
  0.187500   0.875000 0
  0.437500   0.875000 0
  0.375000   0.562500 0
  0.812500   1.000000 0
  0.125000   0.562500 0
  0.437500   1.000000 0
  0.437500   0.937500 0
  0.187500   0.937500 0
  0.125000   0.937500 0
  0.500000   0.687500 0
  0.500000   0.750000 0
  0.500000   0.812500 0
  0.250000   0.812500 0
  0.250000   0.875000 0
  0.500000   0.875000 0
  0.437500   0.750000 0
  0.312500   0.875000 0
  0.312500   0.937500 0
  0.687500   0.250000 0
  0.687500   0.312500 0
  0.937500   0.312500 0
  0.875000   0.250000 0
  0.625000   0.000000 0
  0.875000   0.000000 0
  0.687500   0.375000 0
  0.937500   0.375000 0
  0.875000   0.312500 0
  0.625000   0.312500 0
  0.687500   0.000000 0
  0.937500   0.000000 0
  0.750000   0.312500 0
  0.750000   0.375000 0
  1.000000   0.375000 0
  0.812500   0.250000 0
  0.562500   0.437500 0
  0.562500   0.500000 0
  0.687500   0.062500 0
  0.750000   0.437500 0
  0.750000   0.000000 0
  0.750000   0.062500 0
  1.000000   0.062500 0
  0.812500   0.375000 0
  0.812500   0.437500 0
CELLS 256 1280
4 169 170 148 68
4 151 166 56 167
4 195 45 196 167
4 54 170 201 202
4 109 34 30 147
4 40 32 81 112
4 192 89 86 68
4 48 91 78 202
4 99 64 196 97
4 71 43 37 103
4 74 186 56 95
4 109 164 34 115
4 50 81 158 112
4 122 69 92 70
4 195 145 45 106
4 110 143 174 175
4 157 30 158 147
4 40 69 32 41
4 50 158 148 147
4 141 155 164 115
4 122 123 69 41
4 142 186 143 175
4 60 39 61 42
4 40 51 69 70
4 120 31 123 41
4 157 174 36 175
4 50 148 89 68
4 48 78 155 115
4 52 83 51 70
4 151 56 66 95
4 71 61 43 42
4 169 148 34 147
4 100 193 39 42
4 40 81 51 199
4 110 174 32 112
4 109 30 145 106
4 100 66 193 95
4 169 34 78 115
4 190 92 83 70
4 50 89 81 199
4 54 86 170 68
4 74 56 45 167
4 142 143 43 103
4 153 59 64 97
4 99 196 166 167
4 169 78 170 202
4 142 193 186 95
4 192 128 89 199
4 74 45 36 106
4 110 31 143 103
4 76 184 59 97
4 142 43 193 42
4 52 51 128 199
4 189 201 91 202
4 120 37 31 103
4 74 36 186 175
4 195 196 184 97
4 141 164 140 183
4 157 158 174 112
4 109 145 164 183
4 195 184 145 183
4 110 32 31 41
4 157 36 30 106
4 76 140 184 183
4 171 172 206 181
4 178 172 261 136
4 256 261 255 136
4 256 257 261 245
4 180 150 206 207
4 60 119 39 210
4 118 215 241 263
4 178 205 172 181
4 216 243 238 244
4 162 217 233 232
4 180 206 131 181
4 179 137 119 210
4 216 204 217 232
4 220 237 219 229
4 216 217 243 159
4 259 258 262 224
4 240 254 237 229
4 153 64 227 208
4 161 205 258 224
4 240 237 238 223
4 226 227 233 208
4 234 228 254 229
4 171 248 137 210
4 160 132 204 232
4 180 131 138 159
4 133 251 213 252
4 171 206 248 207
4 162 138 217 159
4 161 258 243 244
4 220 225 237 223
4 151 150 166 212
4 260 247 257 245
4 259 262 214 263
4 151 66 150 207
4 234 254 209 253
4 162 233 250 208
4 242 241 262 263
4 171 137 172 136
4 161 243 131 159
4 160 204 225 223
4 161 131 205 181
4 179 255 137 136
4 216 238 204 223
4 100 39 248 210
4 260 213 247 252
4 226 233 132 232
4 134 214 215 263
4 180 138 150 212
4 178 261 239 245
4 259 246 258 244
4 178 239 205 224
4 240 238 246 244
4 242 262 239 224
4 99 250 64 208
4 240 246 254 253
4 242 239 247 245
4 135 219 228 229
4 99 166 250 212
4 259 214 246 253
4 118 241 251 252
4 100 248 66 207
4 134 209 214 253
4 162 250 138 212
4 242 247 241 252
4 71 187 61 280
4 102 281 197 280
4 122 92 82 203
4 17 18 82 117
4 122 82 123 117
4 19 264 273 265
4 267 279 222 20
4 125 273 270 265
4 267 272 279 176
4 19 116 18 117
4 21 25 286 24
4 23 28 26 20
4 23 285 28 27
4 218 286 275 24
4 85 53 84 288
4 235 236 231 266
4 221 222 28 20
4 267 222 231 230
4 268 38 129 203
4 125 270 197 188
4 126 287 272 176
4 277 270 276 265
4 267 231 272 266
4 125 197 187 280
4 190 129 92 203
4 277 276 287 176
4 19 18 264 22
4 17 82 38 203
4 102 197 90 188
4 126 84 287 288
4 284 130 285 27
4 121 276 264 265
4 71 37 187 177
4 120 123 116 117
4 198 88 127 191
4 221 16 25 24
4 23 26 15 22
4 121 279 276 176
4 235 231 124 230
4 125 187 273 177
4 278 271 236 266
4 277 287 283 288
4 284 285 274 282
4 278 127 271 191
4 269 275 16 24
4 200 283 53 288
4 23 15 285 282
4 121 26 279 20
4 21 124 25 230
4 19 273 116 177
4 200 90 283 188
4 126 271 84 191
4 269 16 130 27
4 17 38 15 282
4 221 25 222 230
4 121 264 26 22
4 120 116 37 177
4 60 61 281 280
4 277 283 270 188
4 126 272 271 266
4 268 274 38 282
4 85 84 88 191
4 17 15 18 22
4 221 28 16 27
4 93 94 73 55
4 85 88 67 87
4 80 49 79 87
4 44 104 73 72
4 146 33 67 168
4 211 165 149 55
4 8 47 14 154
4 105 104 108 144
4 105 108 29 107
4 7 139 13 75
4 44 165 194 98
4 200 53 77 168
4 8 1 101 4
4 2 5 152 58
4 260 6 213 3
4 105 35 104 72
4 96 57 182 75
4 7 14 139 154
4 146 29 33 107
4 7 13 10 9
4 12 13 57 75
4 85 67 53 168
4 44 73 165 55
4 63 152 62 58
4 8 101 47 46
4 96 182 194 144
4 60 281 119 4
4 12 5 6 3
4 173 185 35 72
4 65 149 94 55
4 146 67 49 87
4 114 113 47 154
4 163 108 182 144
4 12 6 13 9
4 173 35 111 156
4 163 182 139 75
4 260 257 6 9
4 105 29 35 156
4 163 139 113 154
4 256 10 257 9
4 146 49 29 156
4 163 113 108 107
4 80 111 49 156
4 102 101 281 4
4 12 57 5 58
4 44 194 104 144
4 96 194 62 98
4 2 0 5 3
4 93 73 185 72
4 179 119 1 4
4 200 77 90 46
4 114 33 113 107
4 7 10 14 11
4 96 62 57 58
4 133 213 0 3
4 102 90 101 46
4 256 255 10 11
4 63 62 249 98
4 114 47 77 46
4 179 1 255 11
4 211 249 165 98
4 114 77 33 168
4 198 79 88 87
4 8 14 1 11
CELL_TYPES 256
8
8
8
8
8
8
8
8
8
8
8
8
8
8
8
8
8
8
8
8
8
8
8
8
8
8
8
8
8
8
8
8
8
8
8
8
8
8
8
8
8
8
8
8
8
8
8
8
8
8
8
8
8
8
8
8
8
8
8
8
8
8
8
8
8
8
8
8
8
8
8
8
8
8
8
8
8
8
8
8
8
8
8
8
8
8
8
8
8
8
8
8
8
8
8
8
8
8
8
8
8
8
8
8
8
8
8
8
8
8
8
8
8
8
8
8
8
8
8
8
8
8
8
8
8
8
8
8
8
8
8
8
8
8
8
8
8
8
8
8
8
8
8
8
8
8
8
8
8
8
8
8
8
8
8
8
8
8
8
8
8
8
8
8
8
8
8
8
8
8
8
8
8
8
8
8
8
8
8
8
8
8
8
8
8
8
8
8
8
8
8
8
8
8
8
8
8
8
8
8
8
8
8
8
8
8
8
8
8
8
8
8
8
8
8
8
8
8
8
8
8
8
8
8
8
8
8
8
8
8
8
8
8
8
8
8
8
8
8
8
8
8
8
8
8
8
8
8
8
8
8
8
8
8
8
8
CELL_DATA 256
VECTORS vector_value float
0.0245535 -0.0636898 0
0.141483 -0.119452 0
0.0133428 -0.0760451 0
0.0353724 -0.134638 0
0.00418865 -0.00852708 0
-1.04553 -1.17492 0
-0.165817 -0.351258 0
0.0367789 -0.199442 0
0.000705051 -0.174156 0
0.150092 -0.195486 0
0.0953655 -0.187538 0
0.00359318 -0.0357169 0
-0.0529334 -0.0771921 0
-1.51111 -1.57068 0
0.0208745 -0.0430722 0
0.0992228 -0.195299 0
0.00506071 -0.00629091 0
-2.40638 -1.21839 0
8.21688e-05 -0.00878153 0
0.00782157 -0.376025 0
-3.53087 -1.34863 0
0.109194 -0.231497 0
0.09173 -0.185319 0
-1.31745 -1.92044 0
-1.03604 -0.55036 0
0.050303 -0.0683835 0
-0.0656807 -0.067732 0
0.0512924 -0.316014 0
-0.271543 -2.52292 0
0.215075 -0.215537 0
0.167823 -0.266657 0
0.00620837 -0.0121565 0
0.216987 -0.259421 0
-1.04333 -2.27692 0
-0.0544703 -0.24176 0
0.00717354 -0.00987953 0
0.221346 -0.246728 0
0.0497986 -0.0883535 0
-0.145521 -1.48542 0
-0.584398 -0.598758 0
0.0137208 -0.15583 0
0.0479451 -0.0501547 0
0.111189 -0.208307 0
0.00230835 -0.225284 0
0.0451322 -0.157315 0
0.0834956 -0.158282 0
0.109784 -0.233625 0
-0.240044 -0.967479 0
0.0382627 -0.0269194 0
0.107884 -0.224514 0
-0.0241143 -0.26467 0
0.130679 -0.233801 0
-0.181239 -2.24362 0
0.0131378 -0.159964 0
0.0449835 -0.255169 0
0.0801934 -0.129374 0
-0.0294439 -0.151493 0
-0.0162125 -0.362796 0
0.0199088 -0.0451089 0
-0.0111328 -0.0548449 0
-0.0291216 -0.0967109 0
-0.509328 -0.498987 0
0.0289191 -0.0220371 0
-0.0286437 -0.320112 0
0.0317581 -0.0213869 0
0.0254961 -0.0187188 0
0.0187997 -0.0111529 0
0.0358329 -0.0145892 0
0.297883 -0.183645 0
0.0485553 -0.111564 0
1.07261 -0.478782 0
0.0257682 -0.0113663 0
0.261661 -0.250887 0
0.147569 -0.696656 0
0.0710005 -0.0470845 0
0.0290588 -0.0439755 0
0.240604 -0.964788 0
0.0935525 -1.21277 0
0.229297 -0.384075 0
0.763309 0.013862 0
0.140624 -0.783494 0
0.00638518 -0.262001 0
0.054283 0.000416875 0
0.464147 -0.923343 0
-0.0415399 -0.195671 0
-0.188142 -0.710693 0
0.0574093 -0.0413613 0
0.0435448 -0.184866 0
0.257725 -0.201374 0
3.29526 -0.5474 0
0.144455 -0.104727 0
0.290714 -0.466248 0
0.104519 0.0138455 0
0.262335 -0.867617 0
0.255098 -0.276748 0
0.531117 0.0596593 0
1.64575 -0.188312 0
0.289385 -0.209478 0
0.0200099 -1.03154 0
0.0635981 -0.352675 0
2.15946 0.0344053 0
0.0278554 -0.0263162 0
0.0932719 -0.0483611 0
0.178674 -0.475087 0
0.0404696 -0.0160889 0
0.0135284 -0.0168186 0
0.29317 -0.925603 0
0.141984 -0.121653 0
1.99408 -0.00159513 0
-0.00817476 -0.149264 0
0.429016 -0.589468 0
0.309841 -0.226694 0
0.0309946 -0.00858936 0
0.464461 -0.088013 0
0.0475156 -0.00781736 0
0.380376 -0.125966 0
0.604453 0.00388754 0
0.0137763 -0.145519 0
0.416119 -0.545168 0
0.687751 -0.00221212 0
-0.154938 -1.3274 0
0.052232 -0.246094 0
1.24693 -0.58552 0
2.38865 -0.357921 0
0.277834 -0.244611 0
0.0842008 -0.962556 0
0.344166 -0.466384 0
1.75832 0.0627549 0
0.0914295 -0.21298 0
-0.0234188 -0.198155 0
-1.21239 -3.01176 0
-2.66723 -5.49228 0
-4.4925 -3.09931 0
-4.10039 -5.12894 0
-0.658175 -0.585124 0
-2.06342 -3.80184 0
-0.728229 -1.03925 0
-4.90843 -6.81616 0
0.00615407 -0.115235 0
-0.202034 -0.460516 0
0.135904 -0.604954 0
0.0115264 -0.146953 0
-1.06036 -2.78843 0
-0.189883 -0.493219 0
-0.210123 -0.356792 0
-0.268633 -0.482643 0
0.000581063 -1.69164 0
-0.665052 -1.43172 0
-0.613383 -1.4115 0
-2.59206 -3.41345 0
-0.521199 -0.819711 0
-0.0874289 -0.438769 0
-0.0258937 -2.43709 0
-2.17816 -3.01043 0
-3.85392 -3.08159 0
-0.050419 -2.90938 0
-0.0706444 -0.731307 0
-1.14362 -2.48261 0
0.023037 -0.530708 0
-3.61786 -2.83646 0
0.136968 -0.390143 0
-2.11361 -1.40145 0
0.0217852 -0.758323 0
0.00900408 -0.239776 0
-0.172304 -0.511377 0
-1.12988 -0.890142 0
-0.0824265 -0.250114 0
-0.344409 -1.04894 0
-0.0682752 -0.83005 0
-1.78663 -4.11784 0
0.0325113 -0.747442 0
0.0227549 -0.837231 0
0.0201034 -0.246821 0
-0.988406 -4.32855 0
0.236223 -0.513528 0
-1.19372 -0.690398 0
-0.0254293 -0.128165 0
-1.41299 -3.24689 0
-0.388694 -3.08832 0
-0.238313 -1.17896 0
0.0458861 -0.511956 0
0.555136 -1.36597 0
-0.131589 -0.331185 0
-1.73316 -0.929753 0
0.0141118 -0.352451 0
0.0191579 -0.143847 0
-1.82429 -3.83591 0
-0.173818 -0.842165 0
0.0289217 -1.66626 0
-0.534388 -2.37986 0
-0.524497 -1.37594 0
0.0476485 -0.38346 0
0.0372521 -1.04331 0
-0.175791 -3.1484 0
-0.0139967 -0.607415 0
-0.0922694 -0.671188 0
1.34616 -2.15968 0
-0.164764 -1.06978 0
0.484442 -1.41667 0
0.21761 -0.720019 0
0.660794 -1.12065 0
1.53255 -5.09442 0
-0.0909156 -0.371747 0
-0.0807306 -3.51344 0
-0.00688955 -0.192501 0
1.4239 -2.73395 0
2.46974 -0.297135 0
-0.166831 -0.95962 0
0.905073 -3.3546 0
1.38716 -2.74838 0
1.18832 -2.06721 0
0.41092 -0.939539 0
1.49221 -5.96891 0
-0.228768 -3.04731 0
-0.014818 -0.572425 0
-0.631865 -1.46468 0
0.118137 -0.929427 0
0.272973 -1.00415 0
-0.00274824 -0.0903119 0
3.0694 -2.8649 0
-0.0874507 -0.594846 0
-0.0225633 -0.845709 0
0.665645 -2.93704 0
1.65148 -4.65629 0
0.570249 -1.35006 0
0.769825 -1.75371 0
0.0326538 -0.524887 0
1.34453 -4.59305 0
0.358491 -0.0802273 0
0.248507 -1.24433 0
2.93902 -5.68928 0
0.0794508 -0.08014 0
0.312867 -1.3856 0
1.90906 -2.58167 0
0.0409068 -0.774374 0
-0.0228108 -0.170869 0
1.75624 -4.36308 0
0.0204371 -0.271319 0
-0.0372255 -0.621344 0
3.26641 -1.69344 0
-0.152528 -0.96615 0
-0.0160149 -0.0691377 0
0.0469741 -2.81905 0
1.91479 -3.7792 0
0.15988 -0.413618 0
0.454366 -2.64636 0
3.92128 -0.837459 0
0.021071 -0.833476 0
0.0230074 -0.037778 0
-1.12338 -0.835635 0
0.665624 -3.21097 0
0.00552501 -0.0331919 0
-0.635883 -0.513585 0
1.56908 -4.27871 0
0.0449176 -0.759473 0
0.043069 -0.262303 0
