# vtk DataFile Version 2.0
Unstructured Grid by M++
ASCII
DATASET UNSTRUCTURED_GRID
POINTS 81 float
  1.000000   0.625000 0
  0.750000   0.375000 0
  1.000000   0.000000 0
  0.875000   0.875000 0
  0.750000   0.125000 0
  1.000000   1.000000 0
  0.875000   0.250000 0
  0.625000   0.875000 0
  1.000000   0.750000 0
  0.875000   0.000000 0
  1.000000   0.250000 0
  0.625000   0.375000 0
  0.875000   0.500000 0
  0.625000   0.625000 0
  1.000000   0.500000 0
  0.750000   0.500000 0
  0.750000   1.000000 0
  1.000000   0.125000 0
  0.625000   0.250000 0
  0.750000   0.750000 0
  0.625000   0.000000 0
  0.125000   0.375000 0
  0.000000   0.500000 0
  0.125000   0.625000 0
  0.625000   1.000000 0
  1.000000   0.875000 0
  0.875000   0.125000 0
  0.500000   0.250000 0
  0.625000   0.500000 0
  0.250000   0.625000 0
  0.000000   0.625000 0
  0.375000   0.500000 0
  0.375000   0.000000 0
  0.000000   0.125000 0
  0.125000   0.875000 0
  0.875000   1.000000 0
  0.750000   0.250000 0
  0.375000   0.375000 0
  0.250000   0.375000 0
  0.625000   0.750000 0
  0.125000   0.125000 0
  0.500000   0.000000 0
  0.250000   0.875000 0
  0.125000   0.500000 0
  0.500000   0.375000 0
  0.125000   0.000000 0
  0.250000   0.750000 0
  0.250000   0.500000 0
  0.000000   0.875000 0
  0.875000   0.625000 0
  0.500000   0.750000 0
  0.750000   0.625000 0
  0.250000   0.000000 0
  0.375000   0.750000 0
  0.750000   0.875000 0
  0.625000   0.125000 0
  0.250000   0.250000 0
  0.375000   1.000000 0
  0.375000   0.250000 0
  0.000000   0.375000 0
  0.500000   1.000000 0
  0.875000   0.750000 0
  0.750000   0.000000 0
  0.375000   0.125000 0
  0.500000   0.875000 0
  0.000000   0.000000 0
  0.125000   0.750000 0
  0.500000   0.625000 0
  0.125000   0.250000 0
  0.500000   0.125000 0
  0.250000   1.000000 0
  0.250000   0.125000 0
  0.000000   1.000000 0
  0.375000   0.875000 0
  0.000000   0.750000 0
  0.375000   0.625000 0
  0.000000   0.250000 0
  0.125000   1.000000 0
  1.000000   0.375000 0
  0.500000   0.500000 0
  0.875000   0.375000 0
CELLS 64 320
4 56 71 58 63
4 27 58 69 63
4 41 69 32 63
4 76 33 68 40
4 27 44 58 37
4 79 31 44 37
4 56 38 68 21
4 56 58 38 37
4 52 32 71 63
4 47 38 31 37
4 76 68 59 21
4 22 59 43 21
4 65 45 33 40
4 47 43 38 21
4 52 71 45 40
4 56 68 71 40
4 74 30 66 23
4 46 66 29 23
4 22 43 30 23
4 72 48 77 34
4 46 53 42 73
4 50 64 53 73
4 70 42 57 73
4 74 66 48 34
4 46 42 66 34
4 47 29 43 23
4 70 77 42 34
4 60 57 64 73
4 79 67 31 75
4 47 31 29 75
4 50 53 67 75
4 46 29 53 75
4 10 78 6 80
4 36 6 1 80
4 15 1 12 80
4 36 4 6 26
4 14 12 78 80
4 2 17 9 26
4 36 18 4 55
4 15 28 1 11
4 62 4 20 55
4 10 6 17 26
4 27 18 44 11
4 62 9 4 26
4 27 69 18 55
4 36 1 18 11
4 41 20 69 55
4 79 44 28 11
4 16 24 54 7
4 19 54 39 7
4 50 39 64 7
4 8 25 61 3
4 60 64 24 7
4 79 28 67 13
4 19 51 61 49
4 8 61 0 49
4 15 51 28 13
4 19 39 51 13
4 50 67 39 13
4 19 61 54 3
4 14 0 12 49
4 5 35 25 3
4 15 12 51 49
4 16 54 35 3
CELL_TYPES 64
8
8
8
8
8
8
8
8
8
8
8
8
8
8
8
8
8
8
8
8
8
8
8
8
8
8
8
8
8
8
8
8
8
8
8
8
8
8
8
8
8
8
8
8
8
8
8
8
8
8
8
8
8
8
8
8
8
8
8
8
8
8
8
8
CELL_DATA 64
VECTORS vector_value float
2.07455 -1.04374 0
0.872988 -0.635549 0
0.902699 -1.67474 0
0.551645 -1.03137 0
0.0303528 -0.0773288 0
0.0010485 -0.0404982 0
0.895675 -1.38984 0
0.315438 -0.335254 0
0.702459 -1.09506 0
-0.00086112 -0.0811344 0
0.752122 -2.65951 0
0.0196791 -3.06191 0
0.0267942 -0.384364 0
0.0460312 -1.27433 0
0.113322 -0.464222 0
2.0537 -1.43201 0
-0.600073 -2.4132 0
-0.91054 -1.65246 0
-0.00272985 -3.11273 0
-0.15803 -1.24255 0
-0.724337 -0.37257 0
-0.121881 -0.330602 0
-0.66466 -1.36437 0
-0.277124 -1.65168 0
-0.998817 -1.71421 0
-0.0237447 -1.17532 0
-0.273217 -0.878808 0
-0.365465 -0.62945 0
-0.059341 -0.142483 0
-0.0910699 -0.0527338 0
-0.390966 -0.230161 0
-0.390563 -0.0357783 0
0.515678 -2.38365 0
0.503433 -0.775075 0
0.483603 -1.41877 0
0.0364763 -0.458063 0
0.0449733 -1.52265 0
0.00125476 -2.77086 0
-0.0786827 -0.0464927 0
0.262034 -0.30677 0
-0.057955 -0.117162 0
0.088184 -2.72445 0
0.0291005 -0.229017 0
-0.00673477 -0.284421 0
0.199011 -0.628329 0
0.082045 -0.15033 0
0.17713 -1.20917 0
0.0124068 -0.29394 0
0.323275 -1.17352 0
-0.72754 -0.93439 0
-0.413369 -0.983325 0
0.038978 -0.120639 0
0.185468 -0.444166 0
0.338828 -0.785692 0
0.548045 -1.21266 0
0.293514 -0.551834 0
0.536654 -0.466468 0
0.264374 -0.625027 0
-0.222024 -1.27888 0
-0.138613 -1.89259 0
0.329343 -1.35196 0
-0.426286 -0.374146 0
0.281933 -0.912621 0
-0.296193 -1.89299 0
