# vtk DataFile Version 2.0
Unstructured Grid by M++
ASCII
DATASET UNSTRUCTURED_GRID
POINTS 289 float
  0.562500   1.000000 0
  0.562500   0.625000 0
  0.625000   1.000000 0
  0.562500   0.937500 0
  0.562500   0.562500 0
  0.625000   0.937500 0
  0.562500   0.875000 0
  0.625000   0.750000 0
  0.625000   0.625000 0
  0.562500   0.812500 0
  0.562500   0.750000 0
  0.562500   0.687500 0
  0.625000   0.875000 0
  0.625000   0.812500 0
  0.625000   0.687500 0
  0.687500   0.125000 0
  0.875000   0.062500 0
  0.625000   0.125000 0
  0.625000   0.187500 0
  0.625000   0.250000 0
  0.812500   0.187500 0
  1.000000   0.125000 0
  0.687500   0.187500 0
  0.750000   0.125000 0
  0.937500   0.062500 0
  0.937500   0.125000 0
  0.750000   0.187500 0
  0.812500   0.062500 0
  0.812500   0.125000 0
  0.875000   0.687500 0
  0.187500   0.250000 0
  0.437500   0.250000 0
  0.375000   0.187500 0
  0.812500   0.625000 0
  0.125000   0.187500 0
  0.937500   0.750000 0
  0.250000   0.312500 0
  0.500000   0.312500 0
  0.625000   0.062500 0
  0.437500   0.500000 0
  0.375000   0.125000 0
  0.437500   0.187500 0
  0.437500   0.437500 0
  0.437500   0.375000 0
  0.875000   0.875000 0
  0.187500   0.375000 0
  0.687500   0.562500 0
  0.687500   0.625000 0
  0.000000   0.125000 0
  0.937500   0.625000 0
  0.250000   0.125000 0
  0.375000   0.062500 0
  0.375000   0.000000 0
  0.812500   0.500000 0
  0.125000   0.000000 0
  0.937500   0.937500 0
  0.250000   0.437500 0
  0.687500   0.875000 0
  0.687500   0.937500 0
  0.000000   0.437500 0
  0.500000   0.500000 0
  0.500000   0.437500 0
  0.750000   0.937500 0
  0.750000   1.000000 0
  0.062500   0.500000 0
  1.000000   1.000000 0
  0.312500   0.500000 0
  0.875000   0.562500 0
  0.187500   0.062500 0
  0.437500   0.125000 0
  0.437500   0.062500 0
  0.500000   0.375000 0
  0.937500   0.812500 0
  0.937500   0.875000 0
  0.250000   0.375000 0
  0.687500   0.812500 0
  0.000000   0.375000 0
  0.750000   0.562500 0
  0.062500   0.125000 0
  1.000000   0.562500 0
  1.000000   0.625000 0
  0.312500   0.125000 0
  0.562500   0.125000 0
  0.437500   0.000000 0
  0.875000   0.437500 0
  0.875000   0.500000 0
  0.187500   0.000000 0
  0.937500   0.562500 0
  0.937500   0.500000 0
  0.250000   0.062500 0
  0.687500   0.500000 0
  0.000000   0.062500 0
  0.500000   0.062500 0
  1.000000   0.875000 0
  1.000000   0.937500 0
  0.312500   0.437500 0
  0.750000   0.875000 0
  0.062500   0.437500 0
  0.812500   0.937500 0
  0.125000   0.500000 0
  0.375000   0.500000 0
  0.625000   0.562500 0
  0.625000   0.500000 0
  0.437500   0.312500 0
  0.875000   0.812500 0
  0.875000   0.750000 0
  0.187500   0.312500 0
  0.812500   0.687500 0
  0.812500   0.750000 0
  0.125000   0.250000 0
  0.375000   0.250000 0
  1.000000   0.687500 0
  0.312500   0.187500 0
  0.750000   0.687500 0
  0.750000   0.625000 0
  0.062500   0.187500 0
  0.562500   0.250000 0
  0.562500   0.187500 0
  0.375000   1.000000 0
  0.500000   0.562500 0
  0.500000   0.250000 0
  0.750000   0.250000 0
  0.500000   0.125000 0
  0.500000   0.187500 0
  1.000000   0.187500 0
  0.625000   0.375000 0
  0.875000   0.375000 0
  1.000000   0.437500 0
  0.312500   0.000000 0
  0.562500   0.000000 0
  0.812500   0.000000 0
  0.250000   0.687500 0
  0.000000   0.687500 0
  0.500000   1.000000 0
  0.250000   1.000000 0
  0.000000   1.000000 0
  0.437500   0.687500 0
  0.437500   0.625000 0
  0.187500   0.625000 0
  0.687500   0.750000 0
  0.000000   0.312500 0
  0.000000   0.250000 0
  0.375000   0.375000 0
  0.375000   0.312500 0
  0.812500   0.812500 0
  0.125000   0.312500 0
  0.875000   0.625000 0
  0.187500   0.187500 0
  0.187500   0.125000 0
  0.937500   1.000000 0
  0.250000   0.562500 0
  0.250000   0.500000 0
  0.687500   1.000000 0
  0.000000   0.500000 0
  0.687500   0.687500 0
  0.000000   0.187500 0
  0.937500   0.687500 0
  0.250000   0.250000 0
  0.250000   0.187500 0
  0.187500   0.687500 0
  0.000000   0.750000 0
  0.250000   0.750000 0
  0.125000   0.625000 0
  0.750000   0.750000 0
  0.062500   0.250000 0
  0.875000   0.937500 0
  0.187500   0.500000 0
  0.187500   0.437500 0
  0.812500   0.562500 0
  0.125000   0.125000 0
  0.125000   0.062500 0
  0.375000   0.625000 0
  0.375000   0.687500 0
  1.000000   0.750000 0
  0.312500   0.250000 0
  0.312500   0.312500 0
  0.812500   0.312500 0
  0.562500   0.312500 0
  0.375000   0.750000 0
  0.500000   0.625000 0
  0.250000   0.625000 0
  0.312500   0.687500 0
  0.750000   0.812500 0
  0.062500   0.312500 0
  0.062500   0.375000 0
  1.000000   0.812500 0
  0.312500   0.375000 0
  0.562500   0.375000 0
  0.687500   0.437500 0
  0.000000   0.000000 0
  0.500000   0.000000 0
  0.937500   0.437500 0
  0.250000   0.000000 0
  0.375000   0.437500 0
  0.812500   0.875000 0
  0.125000   0.375000 0
  0.125000   0.437500 0
  0.625000   0.437500 0
  1.000000   0.500000 0
  0.312500   0.062500 0
  0.750000   0.500000 0
  0.062500   0.000000 0
  0.062500   0.062500 0
  0.562500   0.062500 0
  0.062500   0.750000 0
  0.312500   0.750000 0
  0.312500   0.625000 0
  0.312500   0.562500 0
  0.062500   0.562500 0
  0.187500   1.000000 0
  0.437500   0.562500 0
  0.875000   1.000000 0
  0.187500   0.562500 0
  0.500000   0.937500 0
  0.250000   0.937500 0
  0.312500   1.000000 0
  0.125000   0.750000 0
  0.125000   0.687500 0
  1.000000   0.000000 0
  0.000000   0.937500 0
  0.000000   0.875000 0
  0.875000   0.125000 0
  0.875000   0.187500 0
  0.062500   0.812500 0
  0.312500   0.812500 0
  0.000000   0.812500 0
  0.000000   0.625000 0
  0.000000   0.562500 0
  0.062500   1.000000 0
  0.062500   0.937500 0
  0.937500   0.187500 0
  0.937500   0.250000 0
  0.062500   0.687500 0
  0.062500   0.625000 0
  0.125000   1.000000 0
  1.000000   0.250000 0
  1.000000   0.312500 0
  0.062500   0.875000 0
  0.125000   0.812500 0
  0.375000   0.812500 0
  0.125000   0.875000 0
  0.375000   0.937500 0
  0.375000   0.875000 0
  0.187500   0.750000 0
  0.187500   0.812500 0
  0.437500   0.812500 0
  0.187500   0.875000 0
  0.437500   0.875000 0
  0.375000   0.562500 0
  0.812500   1.000000 0
  0.125000   0.562500 0
  0.437500   1.000000 0
  0.437500   0.937500 0
  0.187500   0.937500 0
  0.125000   0.937500 0
  0.500000   0.687500 0
  0.500000   0.750000 0
  0.500000   0.812500 0
  0.250000   0.812500 0
  0.250000   0.875000 0
  0.500000   0.875000 0
  0.437500   0.750000 0
  0.312500   0.875000 0
  0.312500   0.937500 0
  0.687500   0.250000 0
  0.687500   0.312500 0
  0.937500   0.312500 0
  0.875000   0.250000 0
  0.625000   0.000000 0
  0.875000   0.000000 0
  0.687500   0.375000 0
  0.937500   0.375000 0
  0.875000   0.312500 0
  0.625000   0.312500 0
  0.687500   0.000000 0
  0.937500   0.000000 0
  0.750000   0.312500 0
  0.750000   0.375000 0
  1.000000   0.375000 0
  0.812500   0.250000 0
  0.562500   0.437500 0
  0.562500   0.500000 0
  0.687500   0.062500 0
  0.750000   0.437500 0
  0.750000   0.000000 0
  0.750000   0.062500 0
  1.000000   0.062500 0
  0.812500   0.375000 0
  0.812500   0.437500 0
CELLS 256 1280
4 169 170 148 68
4 151 166 56 167
4 195 45 196 167
4 54 170 201 202
4 109 34 30 147
4 40 32 81 112
4 192 89 86 68
4 48 91 78 202
4 99 64 196 97
4 71 43 37 103
4 74 186 56 95
4 109 164 34 115
4 50 81 158 112
4 122 69 92 70
4 195 145 45 106
4 110 143 174 175
4 157 30 158 147
4 40 69 32 41
4 50 158 148 147
4 141 155 164 115
4 122 123 69 41
4 142 186 143 175
4 60 39 61 42
4 40 51 69 70
4 120 31 123 41
4 157 174 36 175
4 50 148 89 68
4 48 78 155 115
4 52 83 51 70
4 151 56 66 95
4 71 61 43 42
4 169 148 34 147
4 100 193 39 42
4 40 81 51 199
4 110 174 32 112
4 109 30 145 106
4 100 66 193 95
4 169 34 78 115
4 190 92 83 70
4 50 89 81 199
4 54 86 170 68
4 74 56 45 167
4 142 143 43 103
4 153 59 64 97
4 99 196 166 167
4 169 78 170 202
4 142 193 186 95
4 192 128 89 199
4 74 45 36 106
4 110 31 143 103
4 76 184 59 97
4 142 43 193 42
4 52 51 128 199
4 189 201 91 202
4 120 37 31 103
4 74 36 186 175
4 195 196 184 97
4 141 164 140 183
4 157 158 174 112
4 109 145 164 183
4 195 184 145 183
4 110 32 31 41
4 157 36 30 106
4 76 140 184 183
4 171 172 206 181
4 178 172 261 136
4 256 261 255 136
4 256 257 261 245
4 180 150 206 207
4 60 119 39 210
4 118 215 241 263
4 178 205 172 181
4 216 243 238 244
4 162 217 233 232
4 180 206 131 181
4 179 137 119 210
4 216 204 217 232
4 220 237 219 229
4 216 217 243 159
4 259 258 262 224
4 240 254 237 229
4 153 64 227 208
4 161 205 258 224
4 240 237 238 223
4 226 227 233 208
4 234 228 254 229
4 171 248 137 210
4 160 132 204 232
4 180 131 138 159
4 133 251 213 252
4 171 206 248 207
4 162 138 217 159
4 161 258 243 244
4 220 225 237 223
4 151 150 166 212
4 260 247 257 245
4 259 262 214 263
4 151 66 150 207
4 234 254 209 253
4 162 233 250 208
4 242 241 262 263
4 171 137 172 136
4 161 243 131 159
4 160 204 225 223
4 161 131 205 181
4 179 255 137 136
4 216 238 204 223
4 100 39 248 210
4 260 213 247 252
4 226 233 132 232
4 134 214 215 263
4 180 138 150 212
4 178 261 239 245
4 259 246 258 244
4 178 239 205 224
4 240 238 246 244
4 242 262 239 224
4 99 250 64 208
4 240 246 254 253
4 242 239 247 245
4 135 219 228 229
4 99 166 250 212
4 259 214 246 253
4 118 241 251 252
4 100 248 66 207
4 134 209 214 253
4 162 250 138 212
4 242 247 241 252
4 71 187 61 280
4 102 281 197 280
4 122 92 82 203
4 17 18 82 117
4 122 82 123 117
4 19 264 273 265
4 267 279 222 20
4 125 273 270 265
4 267 272 279 176
4 19 116 18 117
4 21 25 286 24
4 23 28 26 20
4 23 285 28 27
4 218 286 275 24
4 85 53 84 288
4 235 236 231 266
4 221 222 28 20
4 267 222 231 230
4 268 38 129 203
4 125 270 197 188
4 126 287 272 176
4 277 270 276 265
4 267 231 272 266
4 125 197 187 280
4 190 129 92 203
4 277 276 287 176
4 19 18 264 22
4 17 82 38 203
4 102 197 90 188
4 126 84 287 288
4 284 130 285 27
4 121 276 264 265
4 71 37 187 177
4 120 123 116 117
4 198 88 127 191
4 221 16 25 24
4 23 26 15 22
4 121 279 276 176
4 235 231 124 230
4 125 187 273 177
4 278 271 236 266
4 277 287 283 288
4 284 285 274 282
4 278 127 271 191
4 269 275 16 24
4 200 283 53 288
4 23 15 285 282
4 121 26 279 20
4 21 124 25 230
4 19 273 116 177
4 200 90 283 188
4 126 271 84 191
4 269 16 130 27
4 17 38 15 282
4 221 25 222 230
4 121 264 26 22
4 120 116 37 177
4 60 61 281 280
4 277 283 270 188
4 126 272 271 266
4 268 274 38 282
4 85 84 88 191
4 17 15 18 22
4 221 28 16 27
4 93 94 73 55
4 85 88 67 87
4 80 49 79 87
4 44 104 73 72
4 146 33 67 168
4 211 165 149 55
4 8 47 14 154
4 105 104 108 144
4 105 108 29 107
4 7 139 13 75
4 44 165 194 98
4 200 53 77 168
4 8 1 101 4
4 2 5 152 58
4 260 6 213 3
4 105 35 104 72
4 96 57 182 75
4 7 14 139 154
4 146 29 33 107
4 7 13 10 9
4 12 13 57 75
4 85 67 53 168
4 44 73 165 55
4 63 152 62 58
4 8 101 47 46
4 96 182 194 144
4 60 281 119 4
4 12 5 6 3
4 173 185 35 72
4 65 149 94 55
4 146 67 49 87
4 114 113 47 154
4 163 108 182 144
4 12 6 13 9
4 173 35 111 156
4 163 182 139 75
4 260 257 6 9
4 105 29 35 156
4 163 139 113 154
4 256 10 257 9
4 146 49 29 156
4 163 113 108 107
4 80 111 49 156
4 102 101 281 4
4 12 57 5 58
4 44 194 104 144
4 96 194 62 98
4 2 0 5 3
4 93 73 185 72
4 179 119 1 4
4 200 77 90 46
4 114 33 113 107
4 7 10 14 11
4 96 62 57 58
4 133 213 0 3
4 102 90 101 46
4 256 255 10 11
4 63 62 249 98
4 114 47 77 46
4 179 1 255 11
4 211 249 165 98
4 114 77 33 168
4 198 79 88 87
4 8 14 1 11
CELL_TYPES 256
8
8
8
8
8
8
8
8
8
8
8
8
8
8
8
8
8
8
8
8
8
8
8
8
8
8
8
8
8
8
8
8
8
8
8
8
8
8
8
8
8
8
8
8
8
8
8
8
8
8
8
8
8
8
8
8
8
8
8
8
8
8
8
8
8
8
8
8
8
8
8
8
8
8
8
8
8
8
8
8
8
8
8
8
8
8
8
8
8
8
8
8
8
8
8
8
8
8
8
8
8
8
8
8
8
8
8
8
8
8
8
8
8
8
8
8
8
8
8
8
8
8
8
8
8
8
8
8
8
8
8
8
8
8
8
8
8
8
8
8
8
8
8
8
8
8
8
8
8
8
8
8
8
8
8
8
8
8
8
8
8
8
8
8
8
8
8
8
8
8
8
8
8
8
8
8
8
8
8
8
8
8
8
8
8
8
8
8
8
8
8
8
8
8
8
8
8
8
8
8
8
8
8
8
8
8
8
8
8
8
8
8
8
8
8
8
8
8
8
8
8
8
8
8
8
8
8
8
8
8
8
8
8
8
8
8
8
8
8
8
8
8
8
8
8
8
8
8
8
8
8
8
8
8
8
8
CELL_DATA 256
VECTORS vector_value float
-0.0252668 -0.0552019 0
0.0126567 -0.519944 0
0.0300967 -0.129173 0
0.00582017 -0.127091 0
-0.00720231 -0.0207271 0
0.00176179 -0.621914 0
-0.0520579 -0.100389 0
0.0192765 -0.097165 0
-0.0163872 -0.0770006 0
0.358516 -0.754569 0
0.344262 -0.787076 0
-0.00282892 -0.0370163 0
0.00040066 -0.181545 0
-0.663719 -1.3099 0
0.00695675 -0.0336613 0
0.343202 -0.882705 0
-0.0140174 -0.0793316 0
-0.0876169 -0.811629 0
-0.0131276 -0.0753372 0
-0.00164499 -0.136286 0
-0.27292 -1.17471 0
0.37029 -1.05738 0
0.133619 -0.709726 0
-0.45852 -0.943104 0
0.00580713 -0.808527 0
0.0993214 -0.427383 0
-0.0340326 -0.069963 0
0.004784 -0.13434 0
-0.401242 -1.28062 0
-0.129854 -0.658573 0
0.318141 -0.763836 0
-0.0122815 -0.038569 0
0.00882948 -0.746844 0
-0.209777 -0.821651 0
0.172326 -0.642335 0
-0.00192261 -0.0199727 0
-0.205717 -1.03339 0
-0.000194222 -0.0439056 0
-0.185345 -0.899652 0
-0.0604872 -0.212294 0
-0.0215997 -0.0866062 0
0.22019 -0.37393 0
0.312573 -0.516594 0
-0.0161999 -0.0457206 0
0.0210933 -0.19684 0
0.0135265 -0.0958387 0
0.308901 -1.01404 0
-0.0702155 -0.24024 0
0.0456965 -0.152146 0
0.479375 -0.634796 0
-0.0286338 -0.0868564 0
0.31426 -0.56301 0
-0.19874 -1.12346 0
0.00865675 -0.0739098 0
0.425375 -0.623686 0
0.22793 -0.697484 0
-0.0457852 -0.0599123 0
-0.00246858 -0.128735 0
0.0662354 -0.309465 0
-0.00430219 -0.0406852 0
-0.00129744 -0.0375284 0
0.194421 -0.699916 0
0.0142561 -0.10022 0
-0.00402517 -0.130643 0
0.0421683 -0.411015 0
-0.0359829 -0.573749 0
-0.199968 -1.48945 0
0.0907974 -1.37004 0
-0.0272599 -0.309419 0
-0.165475 -0.72744 0
3.0382 -0.836079 0
0.052492 -0.255554 0
0.171581 -0.263665 0
0.0250971 -0.22055 0
0.0813893 -0.249715 0
-0.4218 -0.864998 0
0.00837671 -0.187376 0
0.217825 -0.449119 0
0.0504832 -0.215702 0
0.176293 -0.168597 0
0.598663 -0.561607 0
0.00305449 -0.029181 0
0.122217 -0.221329 0
0.20115 -0.458491 0
-0.00272322 -0.0361134 0
0.474597 -0.683725 0
-0.599533 -1.54558 0
0.0078326 -0.0477743 0
0.0395578 -0.209193 0
1.54519 -1.77906 0
-0.147265 -0.468406 0
0.0164508 -0.138906 0
0.164751 -0.255234 0
0.0395311 -0.1134 0
-0.0624366 -0.334115 0
1.15136 -2.23549 0
0.733758 -0.183866 0
-0.260104 -0.458932 0
1.00555 -0.602723 0
0.0265034 -0.117717 0
1.02068 -0.510313 0
-0.235576 -0.949942 0
0.121008 -0.275083 0
0.00658353 -0.0576659 0
0.111855 -0.262237 0
-0.342819 -1.34032 0
0.0751349 -0.280541 0
-0.409421 -1.12132 0
2.21021 -2.69359 0
0.0022892 -0.0298778 0
2.56444 -0.568478 0
0.0201962 -0.1923 0
0.0651467 -0.475855 0
0.18323 -0.217274 0
0.0897036 -0.25095 0
0.222651 -0.231528 0
0.202102 -0.288656 0
0.00544118 -0.117272 0
0.723547 -0.273342 0
0.356405 -0.591654 0
0.21035 -1.05218 0
0.0132148 -0.19247 0
0.772418 -0.209357 0
2.86642 -1.62473 0
-0.603424 -0.959592 0
1.73523 -0.600457 0
0.0587452 -0.21485 0
1.67158 -1.34619 0
0.214761 -0.38747 0
0.242566 -0.75788 0
-0.357788 -0.763147 0
-0.167668 -0.593949 0
-0.375781 -0.95566 0
-0.0369746 -1.23373 0
0.0911351 -0.906687 0
0.0744231 -1.33226 0
-0.244087 -1.15666 0
-0.123538 -1.07037 0
-0.0167373 -3.64619 0
0.732286 -1.46454 0
0.437914 -1.72805 0
0.0654111 -3.83733 0
-0.227725 -0.478733 0
-0.253034 -4.83237 0
0.395598 -1.49088 0
-0.204655 -2.4568 0
-0.0117727 -0.202773 0
0.196704 -0.785626 0
-1.05579 -1.16605 0
-0.44063 -1.08727 0
-0.256695 -1.74473 0
0.390864 -0.78514 0
-0.0483961 -0.50668 0
-0.691681 -0.62286 0
0.270312 -0.92095 0
-0.0736001 -0.257693 0
0.0465989 -0.376302 0
-0.713996 -0.728006 0
0.145508 -1.71744 0
-0.0286887 -1.51355 0
0.268583 -0.621473 0
-0.240128 -0.907731 0
-0.189152 -6.91861 0
-0.0505957 -3.14756 0
0.591407 -1.19695 0
-0.304019 -0.842243 0
-0.180704 -4.19117 0
0.165248 -0.50487 0
-0.297404 -5.17214 0
-0.535476 -0.640542 0
0.0814256 -0.43988 0
-0.506715 -6.21482 0
0.00264384 -2.75742 0
-0.0679531 -0.365696 0
0.251499 -0.599981 0
0.407157 -1.29046 0
-0.167329 -3.98403 0
0.0572917 -0.97625 0
0.00885123 -0.416287 0
-0.908364 -2.15044 0
0.0137595 -2.36129 0
0.069026 -0.38702 0
-0.103171 -2.67304 0
0.544601 -1.52223 0
0.422354 -0.842284 0
0.264449 -0.578857 0
-0.167831 -0.530115 0
-0.915093 -2.11308 0
0.0156686 -0.245204 0
-0.385025 -2.1196 0
0.128967 -0.559018 0
0.178613 -1.86525 0
0.17813 -2.31069 0
0.282529 -2.37769 0
1.05845 -5.81849 0
0.603509 -2.39178 0
0.43221 -0.37704 0
1.62145 -1.56037 0
0.165093 -1.17712 0
0.580536 -1.65463 0
0.919682 -1.54183 0
1.19888 -1.23777 0
1.2909 -1.66688 0
0.0596021 -0.267511 0
-0.267933 -0.633826 0
1.48458 -0.769803 0
1.8516 -1.4952 0
0.406423 -2.39454 0
0.374618 -0.302438 0
0.668417 -1.29054 0
0.994469 -1.01125 0
1.05778 -1.76494 0
0.597462 -0.449057 0
0.0913137 -0.413591 0
0.563332 -2.00942 0
1.78402 -0.782761 0
0.0120179 -0.676647 0
0.500395 -0.665998 0
-0.0473837 -0.888477 0
1.06998 -0.710969 0
0.101082 -3.3151 0
0.596875 -1.64219 0
1.3101 -3.06848 0
0.395529 -0.512455 0
0.550745 -0.729662 0
1.5633 -1.73154 0
0.0640173 -3.25352 0
0.694929 -0.387568 0
1.72808 -1.6146 0
0.441366 -3.2021 0
0.737425 -0.532477 0
0.527136 -1.3405 0
1.30873 -3.92183 0
0.860998 -0.78423 0
0.455561 -3.93341 0
-0.00358139 -0.455952 0
0.814397 -0.325266 0
0.580276 -1.79184 0
1.30685 -0.680771 0
0.847552 -0.582893 0
0.25837 -2.74765 0
-0.307539 -0.852072 0
0.0931432 -0.351554 0
0.375127 -0.443406 0
0.343155 -1.36437 0
1.29075 -0.573421 0
0.707166 -1.02514 0
0.0330142 -0.519931 0
-0.101694 -0.724021 0
2.177 -0.979109 0
0.195951 -0.377467 0
-0.198799 -0.706346 0
1.9508 -0.910301 0
0.384574 -0.446596 0
0.262744 -6.78496 0
-0.131647 -0.744666 0
