# vtk DataFile Version 2.0
Unstructured Grid by M++
ASCII
DATASET UNSTRUCTURED_GRID
POINTS 289 float
  0.562500   1.000000 0
  0.562500   0.625000 0
  0.625000   1.000000 0
  0.562500   0.937500 0
  0.562500   0.562500 0
  0.625000   0.937500 0
  0.562500   0.875000 0
  0.625000   0.750000 0
  0.625000   0.625000 0
  0.562500   0.812500 0
  0.562500   0.750000 0
  0.562500   0.687500 0
  0.625000   0.875000 0
  0.625000   0.812500 0
  0.625000   0.687500 0
  0.687500   0.125000 0
  0.875000   0.062500 0
  0.625000   0.125000 0
  0.625000   0.187500 0
  0.625000   0.250000 0
  0.812500   0.187500 0
  1.000000   0.125000 0
  0.687500   0.187500 0
  0.750000   0.125000 0
  0.937500   0.062500 0
  0.937500   0.125000 0
  0.750000   0.187500 0
  0.812500   0.062500 0
  0.812500   0.125000 0
  0.875000   0.687500 0
  0.187500   0.250000 0
  0.437500   0.250000 0
  0.375000   0.187500 0
  0.812500   0.625000 0
  0.125000   0.187500 0
  0.937500   0.750000 0
  0.250000   0.312500 0
  0.500000   0.312500 0
  0.625000   0.062500 0
  0.437500   0.500000 0
  0.375000   0.125000 0
  0.437500   0.187500 0
  0.437500   0.437500 0
  0.437500   0.375000 0
  0.875000   0.875000 0
  0.187500   0.375000 0
  0.687500   0.562500 0
  0.687500   0.625000 0
  0.000000   0.125000 0
  0.937500   0.625000 0
  0.250000   0.125000 0
  0.375000   0.062500 0
  0.375000   0.000000 0
  0.812500   0.500000 0
  0.125000   0.000000 0
  0.937500   0.937500 0
  0.250000   0.437500 0
  0.687500   0.875000 0
  0.687500   0.937500 0
  0.000000   0.437500 0
  0.500000   0.500000 0
  0.500000   0.437500 0
  0.750000   0.937500 0
  0.750000   1.000000 0
  0.062500   0.500000 0
  1.000000   1.000000 0
  0.312500   0.500000 0
  0.875000   0.562500 0
  0.187500   0.062500 0
  0.437500   0.125000 0
  0.437500   0.062500 0
  0.500000   0.375000 0
  0.937500   0.812500 0
  0.937500   0.875000 0
  0.250000   0.375000 0
  0.687500   0.812500 0
  0.000000   0.375000 0
  0.750000   0.562500 0
  0.062500   0.125000 0
  1.000000   0.562500 0
  1.000000   0.625000 0
  0.312500   0.125000 0
  0.562500   0.125000 0
  0.437500   0.000000 0
  0.875000   0.437500 0
  0.875000   0.500000 0
  0.187500   0.000000 0
  0.937500   0.562500 0
  0.937500   0.500000 0
  0.250000   0.062500 0
  0.687500   0.500000 0
  0.000000   0.062500 0
  0.500000   0.062500 0
  1.000000   0.875000 0
  1.000000   0.937500 0
  0.312500   0.437500 0
  0.750000   0.875000 0
  0.062500   0.437500 0
  0.812500   0.937500 0
  0.125000   0.500000 0
  0.375000   0.500000 0
  0.625000   0.562500 0
  0.625000   0.500000 0
  0.437500   0.312500 0
  0.875000   0.812500 0
  0.875000   0.750000 0
  0.187500   0.312500 0
  0.812500   0.687500 0
  0.812500   0.750000 0
  0.125000   0.250000 0
  0.375000   0.250000 0
  1.000000   0.687500 0
  0.312500   0.187500 0
  0.750000   0.687500 0
  0.750000   0.625000 0
  0.062500   0.187500 0
  0.562500   0.250000 0
  0.562500   0.187500 0
  0.375000   1.000000 0
  0.500000   0.562500 0
  0.500000   0.250000 0
  0.750000   0.250000 0
  0.500000   0.125000 0
  0.500000   0.187500 0
  1.000000   0.187500 0
  0.625000   0.375000 0
  0.875000   0.375000 0
  1.000000   0.437500 0
  0.312500   0.000000 0
  0.562500   0.000000 0
  0.812500   0.000000 0
  0.250000   0.687500 0
  0.000000   0.687500 0
  0.500000   1.000000 0
  0.250000   1.000000 0
  0.000000   1.000000 0
  0.437500   0.687500 0
  0.437500   0.625000 0
  0.187500   0.625000 0
  0.687500   0.750000 0
  0.000000   0.312500 0
  0.000000   0.250000 0
  0.375000   0.375000 0
  0.375000   0.312500 0
  0.812500   0.812500 0
  0.125000   0.312500 0
  0.875000   0.625000 0
  0.187500   0.187500 0
  0.187500   0.125000 0
  0.937500   1.000000 0
  0.250000   0.562500 0
  0.250000   0.500000 0
  0.687500   1.000000 0
  0.000000   0.500000 0
  0.687500   0.687500 0
  0.000000   0.187500 0
  0.937500   0.687500 0
  0.250000   0.250000 0
  0.250000   0.187500 0
  0.187500   0.687500 0
  0.000000   0.750000 0
  0.250000   0.750000 0
  0.125000   0.625000 0
  0.750000   0.750000 0
  0.062500   0.250000 0
  0.875000   0.937500 0
  0.187500   0.500000 0
  0.187500   0.437500 0
  0.812500   0.562500 0
  0.125000   0.125000 0
  0.125000   0.062500 0
  0.375000   0.625000 0
  0.375000   0.687500 0
  1.000000   0.750000 0
  0.312500   0.250000 0
  0.312500   0.312500 0
  0.812500   0.312500 0
  0.562500   0.312500 0
  0.375000   0.750000 0
  0.500000   0.625000 0
  0.250000   0.625000 0
  0.312500   0.687500 0
  0.750000   0.812500 0
  0.062500   0.312500 0
  0.062500   0.375000 0
  1.000000   0.812500 0
  0.312500   0.375000 0
  0.562500   0.375000 0
  0.687500   0.437500 0
  0.000000   0.000000 0
  0.500000   0.000000 0
  0.937500   0.437500 0
  0.250000   0.000000 0
  0.375000   0.437500 0
  0.812500   0.875000 0
  0.125000   0.375000 0
  0.125000   0.437500 0
  0.625000   0.437500 0
  1.000000   0.500000 0
  0.312500   0.062500 0
  0.750000   0.500000 0
  0.062500   0.000000 0
  0.062500   0.062500 0
  0.562500   0.062500 0
  0.062500   0.750000 0
  0.312500   0.750000 0
  0.312500   0.625000 0
  0.312500   0.562500 0
  0.062500   0.562500 0
  0.187500   1.000000 0
  0.437500   0.562500 0
  0.875000   1.000000 0
  0.187500   0.562500 0
  0.500000   0.937500 0
  0.250000   0.937500 0
  0.312500   1.000000 0
  0.125000   0.750000 0
  0.125000   0.687500 0
  1.000000   0.000000 0
  0.000000   0.937500 0
  0.000000   0.875000 0
  0.875000   0.125000 0
  0.875000   0.187500 0
  0.062500   0.812500 0
  0.312500   0.812500 0
  0.000000   0.812500 0
  0.000000   0.625000 0
  0.000000   0.562500 0
  0.062500   1.000000 0
  0.062500   0.937500 0
  0.937500   0.187500 0
  0.937500   0.250000 0
  0.062500   0.687500 0
  0.062500   0.625000 0
  0.125000   1.000000 0
  1.000000   0.250000 0
  1.000000   0.312500 0
  0.062500   0.875000 0
  0.125000   0.812500 0
  0.375000   0.812500 0
  0.125000   0.875000 0
  0.375000   0.937500 0
  0.375000   0.875000 0
  0.187500   0.750000 0
  0.187500   0.812500 0
  0.437500   0.812500 0
  0.187500   0.875000 0
  0.437500   0.875000 0
  0.375000   0.562500 0
  0.812500   1.000000 0
  0.125000   0.562500 0
  0.437500   1.000000 0
  0.437500   0.937500 0
  0.187500   0.937500 0
  0.125000   0.937500 0
  0.500000   0.687500 0
  0.500000   0.750000 0
  0.500000   0.812500 0
  0.250000   0.812500 0
  0.250000   0.875000 0
  0.500000   0.875000 0
  0.437500   0.750000 0
  0.312500   0.875000 0
  0.312500   0.937500 0
  0.687500   0.250000 0
  0.687500   0.312500 0
  0.937500   0.312500 0
  0.875000   0.250000 0
  0.625000   0.000000 0
  0.875000   0.000000 0
  0.687500   0.375000 0
  0.937500   0.375000 0
  0.875000   0.312500 0
  0.625000   0.312500 0
  0.687500   0.000000 0
  0.937500   0.000000 0
  0.750000   0.312500 0
  0.750000   0.375000 0
  1.000000   0.375000 0
  0.812500   0.250000 0
  0.562500   0.437500 0
  0.562500   0.500000 0
  0.687500   0.062500 0
  0.750000   0.437500 0
  0.750000   0.000000 0
  0.750000   0.062500 0
  1.000000   0.062500 0
  0.812500   0.375000 0
  0.812500   0.437500 0
CELLS 256 1280
4 169 170 148 68
4 151 166 56 167
4 195 45 196 167
4 54 170 201 202
4 109 34 30 147
4 40 32 81 112
4 192 89 86 68
4 48 91 78 202
4 99 64 196 97
4 71 43 37 103
4 74 186 56 95
4 109 164 34 115
4 50 81 158 112
4 122 69 92 70
4 195 145 45 106
4 110 143 174 175
4 157 30 158 147
4 40 69 32 41
4 50 158 148 147
4 141 155 164 115
4 122 123 69 41
4 142 186 143 175
4 60 39 61 42
4 40 51 69 70
4 120 31 123 41
4 157 174 36 175
4 50 148 89 68
4 48 78 155 115
4 52 83 51 70
4 151 56 66 95
4 71 61 43 42
4 169 148 34 147
4 100 193 39 42
4 40 81 51 199
4 110 174 32 112
4 109 30 145 106
4 100 66 193 95
4 169 34 78 115
4 190 92 83 70
4 50 89 81 199
4 54 86 170 68
4 74 56 45 167
4 142 143 43 103
4 153 59 64 97
4 99 196 166 167
4 169 78 170 202
4 142 193 186 95
4 192 128 89 199
4 74 45 36 106
4 110 31 143 103
4 76 184 59 97
4 142 43 193 42
4 52 51 128 199
4 189 201 91 202
4 120 37 31 103
4 74 36 186 175
4 195 196 184 97
4 141 164 140 183
4 157 158 174 112
4 109 145 164 183
4 195 184 145 183
4 110 32 31 41
4 157 36 30 106
4 76 140 184 183
4 171 172 206 181
4 178 172 261 136
4 256 261 255 136
4 256 257 261 245
4 180 150 206 207
4 60 119 39 210
4 118 215 241 263
4 178 205 172 181
4 216 243 238 244
4 162 217 233 232
4 180 206 131 181
4 179 137 119 210
4 216 204 217 232
4 220 237 219 229
4 216 217 243 159
4 259 258 262 224
4 240 254 237 229
4 153 64 227 208
4 161 205 258 224
4 240 237 238 223
4 226 227 233 208
4 234 228 254 229
4 171 248 137 210
4 160 132 204 232
4 180 131 138 159
4 133 251 213 252
4 171 206 248 207
4 162 138 217 159
4 161 258 243 244
4 220 225 237 223
4 151 150 166 212
4 260 247 257 245
4 259 262 214 263
4 151 66 150 207
4 234 254 209 253
4 162 233 250 208
4 242 241 262 263
4 171 137 172 136
4 161 243 131 159
4 160 204 225 223
4 161 131 205 181
4 179 255 137 136
4 216 238 204 223
4 100 39 248 210
4 260 213 247 252
4 226 233 132 232
4 134 214 215 263
4 180 138 150 212
4 178 261 239 245
4 259 246 258 244
4 178 239 205 224
4 240 238 246 244
4 242 262 239 224
4 99 250 64 208
4 240 246 254 253
4 242 239 247 245
4 135 219 228 229
4 99 166 250 212
4 259 214 246 253
4 118 241 251 252
4 100 248 66 207
4 134 209 214 253
4 162 250 138 212
4 242 247 241 252
4 71 187 61 280
4 102 281 197 280
4 122 92 82 203
4 17 18 82 117
4 122 82 123 117
4 19 264 273 265
4 267 279 222 20
4 125 273 270 265
4 267 272 279 176
4 19 116 18 117
4 21 25 286 24
4 23 28 26 20
4 23 285 28 27
4 218 286 275 24
4 85 53 84 288
4 235 236 231 266
4 221 222 28 20
4 267 222 231 230
4 268 38 129 203
4 125 270 197 188
4 126 287 272 176
4 277 270 276 265
4 267 231 272 266
4 125 197 187 280
4 190 129 92 203
4 277 276 287 176
4 19 18 264 22
4 17 82 38 203
4 102 197 90 188
4 126 84 287 288
4 284 130 285 27
4 121 276 264 265
4 71 37 187 177
4 120 123 116 117
4 198 88 127 191
4 221 16 25 24
4 23 26 15 22
4 121 279 276 176
4 235 231 124 230
4 125 187 273 177
4 278 271 236 266
4 277 287 283 288
4 284 285 274 282
4 278 127 271 191
4 269 275 16 24
4 200 283 53 288
4 23 15 285 282
4 121 26 279 20
4 21 124 25 230
4 19 273 116 177
4 200 90 283 188
4 126 271 84 191
4 269 16 130 27
4 17 38 15 282
4 221 25 222 230
4 121 264 26 22
4 120 116 37 177
4 60 61 281 280
4 277 283 270 188
4 126 272 271 266
4 268 274 38 282
4 85 84 88 191
4 17 15 18 22
4 221 28 16 27
4 93 94 73 55
4 85 88 67 87
4 80 49 79 87
4 44 104 73 72
4 146 33 67 168
4 211 165 149 55
4 8 47 14 154
4 105 104 108 144
4 105 108 29 107
4 7 139 13 75
4 44 165 194 98
4 200 53 77 168
4 8 1 101 4
4 2 5 152 58
4 260 6 213 3
4 105 35 104 72
4 96 57 182 75
4 7 14 139 154
4 146 29 33 107
4 7 13 10 9
4 12 13 57 75
4 85 67 53 168
4 44 73 165 55
4 63 152 62 58
4 8 101 47 46
4 96 182 194 144
4 60 281 119 4
4 12 5 6 3
4 173 185 35 72
4 65 149 94 55
4 146 67 49 87
4 114 113 47 154
4 163 108 182 144
4 12 6 13 9
4 173 35 111 156
4 163 182 139 75
4 260 257 6 9
4 105 29 35 156
4 163 139 113 154
4 256 10 257 9
4 146 49 29 156
4 163 113 108 107
4 80 111 49 156
4 102 101 281 4
4 12 57 5 58
4 44 194 104 144
4 96 194 62 98
4 2 0 5 3
4 93 73 185 72
4 179 119 1 4
4 200 77 90 46
4 114 33 113 107
4 7 10 14 11
4 96 62 57 58
4 133 213 0 3
4 102 90 101 46
4 256 255 10 11
4 63 62 249 98
4 114 47 77 46
4 179 1 255 11
4 211 249 165 98
4 114 77 33 168
4 198 79 88 87
4 8 14 1 11
CELL_TYPES 256
8
8
8
8
8
8
8
8
8
8
8
8
8
8
8
8
8
8
8
8
8
8
8
8
8
8
8
8
8
8
8
8
8
8
8
8
8
8
8
8
8
8
8
8
8
8
8
8
8
8
8
8
8
8
8
8
8
8
8
8
8
8
8
8
8
8
8
8
8
8
8
8
8
8
8
8
8
8
8
8
8
8
8
8
8
8
8
8
8
8
8
8
8
8
8
8
8
8
8
8
8
8
8
8
8
8
8
8
8
8
8
8
8
8
8
8
8
8
8
8
8
8
8
8
8
8
8
8
8
8
8
8
8
8
8
8
8
8
8
8
8
8
8
8
8
8
8
8
8
8
8
8
8
8
8
8
8
8
8
8
8
8
8
8
8
8
8
8
8
8
8
8
8
8
8
8
8
8
8
8
8
8
8
8
8
8
8
8
8
8
8
8
8
8
8
8
8
8
8
8
8
8
8
8
8
8
8
8
8
8
8
8
8
8
8
8
8
8
8
8
8
8
8
8
8
8
8
8
8
8
8
8
8
8
8
8
8
8
8
8
8
8
8
8
8
8
8
8
8
8
8
8
8
8
8
8
CELL_DATA 256
VECTORS vector_value float
0.429164 -0.325971 0
0.0176424 -0.151514 0
0.329692 -0.701053 0
0.0508742 -0.187527 0
0.560375 -0.513926 0
-0.0892456 -2.98781 0
0.207567 -1.13853 0
0.0905515 -1.01899 0
0.0941852 -1.18388 0
-1.64295 -2.13055 0
0.0280319 -0.0985168 0
0.507035 -0.620581 0
0.0172213 -4.16345 0
0.0536422 -0.774905 0
1.20018 -0.680023 0
-0.862189 -3.06251 0
0.47127 -0.910597 0
0.0208242 -1.16441 0
0.451644 -1.06954 0
0.202944 -1.67579 0
0.110224 -0.701969 0
-0.787578 -1.41624 0
-1.08696 -1.6052 0
0.218878 -1.17811 0
0.00713068 -1.06283 0
0.660033 -1.64532 0
0.578403 -1.55739 0
0.169484 -1.26616 0
0.211939 -1.54976 0
-0.00392563 -0.0339281 0
-1.18916 -2.09754 0
0.597129 -0.471131 0
-0.38349 -0.720798 0
0.709021 -3.98507 0
-0.607631 -4.03957 0
1.24525 -0.635168 0
-0.0305958 -0.0798039 0
0.479983 -0.453422 0
0.0357688 -0.924717 0
0.600823 -3.20532 0
0.06338 -0.190244 0
0.104017 -0.181762 0
-1.83902 -1.94681 0
0.0724261 -4.13037 0
0.0534774 -0.618285 0
0.201447 -0.213287 0
-0.300718 -0.518562 0
0.216652 -3.83227 0
0.964246 -0.566608 0
-1.39394 -1.68666 0
0.350609 -3.67541 0
-0.730099 -1.2534 0
0.106794 -3.56668 0
0.019812 -0.890709 0
-0.800116 -1.4255 0
0.266256 -0.653915 0
0.50172 -1.4716 0
0.332889 -2.25368 0
0.0233752 -2.59983 0
0.7702 -0.839061 0
1.14817 -1.57597 0
-0.229343 -1.19721 0
1.40474 -0.903328 0
0.377463 -2.79662 0
-0.149327 -0.0926548 0
-0.123862 -0.111978 0
-0.203153 -0.366502 0
0.227729 -0.363143 0
-0.109756 -0.036754 0
-0.439414 -0.956945 0
-0.0827255 -0.572303 0
-0.187576 -0.148549 0
-0.183335 -1.18894 0
-0.773595 -2.51161 0
-0.201731 -0.0474473 0
-0.252604 -0.624996 0
-0.160688 -1.87473 0
-0.2431 -0.982572 0
-0.488054 -1.42239 0
-0.0740018 -0.294886 0
-0.630777 -1.99855 0
-0.205703 -4.01135 0
-0.21592 -0.23596 0
-0.267153 -1.80394 0
-0.595445 -3.17731 0
-0.308527 -1.45061 0
-0.139962 -0.308955 0
-0.00364501 -1.9799 0
-0.282162 -0.201142 0
0.467049 -0.719617 0
-0.109412 -0.0699977 0
-0.505779 -0.967226 0
-0.198765 -0.35265 0
-0.227839 -1.66822 0
-0.0382314 -0.144135 0
0.386767 -0.719508 0
-0.127016 -0.317806 0
-0.0400638 -0.0423742 0
-1.13168 -1.63447 0
-0.752712 -1.98565 0
-0.0530027 -0.502097 0
-0.206662 -0.181793 0
-0.377292 -0.30996 0
-0.0910977 -1.9849 0
-0.207865 -0.0814647 0
-0.330073 -0.441821 0
-0.179819 -1.73966 0
-0.114365 -0.374794 0
0.344017 -0.893303 0
-0.252093 -2.14291 0
-0.619148 -0.590989 0
-0.102887 -0.121459 0
0.0386138 -0.228272 0
-0.145551 -0.450374 0
-0.0782367 -0.197792 0
-0.182811 -1.18678 0
0.0468423 -0.387484 0
-0.156333 -1.36518 0
-0.377106 -1.60388 0
0.181331 -0.281391 0
0.0606919 -0.8185 0
-0.021583 -0.537829 0
-0.157433 -0.482217 0
0.26884 -0.940745 0
-0.0292423 -0.0526197 0
-1.20035 -0.778022 0
-0.251098 -0.697957 0
0.174795 -0.445458 0
-1.55543 -1.98203 0
-2.04021 -2.01089 0
0.170056 -0.800607 0
0.203641 -0.271917 0
0.274939 -1.0879 0
-0.0149775 -0.135169 0
-0.0569971 -0.207465 0
-0.0591157 -0.177084 0
0.0418702 -0.134967 0
-0.00342183 -0.199639 0
-0.0321586 -0.478417 0
-0.0801437 -0.152491 0
-0.300505 -0.441797 0
-0.00447895 -0.458893 0
0.343102 -0.463402 0
0.00946038 -1.17683 0
-0.349034 -0.533769 0
-0.308668 -0.90617 0
0.239966 -0.400265 0
-0.471717 -0.67605 0
0.142825 -0.245674 0
0.00749948 -0.109613 0
0.0658842 -0.735232 0
-0.807881 -1.07672 0
0.0835733 -0.441269 0
0.0465818 -0.0776686 0
0.00597457 -0.0776706 0
0.290698 -0.330253 0
-0.885548 -1.20628 0
0.160223 -0.308397 0
-0.180982 -0.711332 0
0.00445385 -0.0415674 0
-0.693404 -1.09597 0
0.044514 -0.90826 0
0.11112 -0.349983 0
-0.193 -0.490787 0
0.0106787 -0.108117 0
0.0238231 -0.0756364 0
-0.205551 -0.956035 0
-0.460837 -0.770516 0
0.140999 -1.00056 0
0.110536 -0.171065 0
-0.00234851 -0.534754 0
0.147168 -0.686303 0
-0.0551613 -0.346796 0
0.150921 -0.378124 0
0.0161877 -0.341528 0
0.000614471 -0.0469645 0
-0.0777882 -0.577833 0
-0.112375 -0.23899 0
-0.254486 -0.731243 0
0.235472 -0.853228 0
-0.166223 -0.398301 0
0.212816 -0.256835 0
-0.337801 -0.848027 0
0.0118066 -0.0774753 0
-0.476023 -1.0104 0
-1.70557 -1.54034 0
-0.0301461 -0.248359 0
0.217283 -0.756187 0
0.152977 -0.427958 0
0.355132 -0.795944 0
0.087143 -0.142056 0
-0.434181 -0.600735 0
-0.341928 -0.854826 0
0.379824 -0.438636 0
0.0260888 -0.094421 0
-0.414233 -0.412692 0
0.280549 -0.400957 0
-0.182089 -0.525094 0
0.56733 -4.98373 0
-0.294043 -0.286974 0
-0.0954405 -0.224434 0
-1.16579 -4.22338 0
-0.479733 -0.230088 0
0.489814 -0.655092 0
-0.720323 -1.03606 0
0.305852 -1.26673 0
0.238328 -0.964356 0
-0.106864 -0.144629 0
-0.78643 -3.30412 0
-0.0539654 -5.08718 0
0.046732 -0.213395 0
0.299463 -1.5658 0
-0.288856 -2.33647 0
0.632579 -0.560482 0
-0.549224 -0.398379 0
-0.270243 -1.5082 0
-0.225124 -3.73619 0
-0.576572 -0.563551 0
-0.894755 -1.15041 0
0.365688 -0.727092 0
-0.0336471 -0.206365 0
0.0500871 -1.1931 0
0.1004 -0.193032 0
0.75477 -1.58835 0
-0.441822 -0.354747 0
0.226732 -0.980172 0
-0.0376099 -0.141362 0
-1.23079 -1.96121 0
0.443559 -1.01922 0
-0.072238 -0.0982696 0
-0.179796 -1.37073 0
0.593156 -0.965582 0
-0.0116203 -0.162433 0
-0.0821806 -0.205254 0
-0.0172613 -0.0739917 0
-1.27727 -1.45856 0
0.426357 -1.79203 0
-0.435707 -0.266026 0
-0.754578 -0.81434 0
0.653564 -1.10012 0
-0.0819257 -0.325155 0
-0.435225 -0.783654 0
-0.245578 -1.87347 0
0.232371 -0.371236 0
0.115877 -2.01702 0
-0.609852 -2.99301 0
0.623508 -1.06299 0
-1.40381 -2.21136 0
-0.15567 -0.560269 0
-1.07582 -1.32777 0
0.486578 -2.00642 0
-0.542691 -0.598463 0
-0.859386 -0.510746 0
0.467436 -0.726198 0
0.0761255 -0.16677 0
-0.355151 -1.4218 0
