# vtk DataFile Version 2.0
Unstructured Grid by M++
ASCII
DATASET UNSTRUCTURED_GRID
POINTS 81 float
  1.000000   0.625000 0
  0.750000   0.375000 0
  1.000000   0.000000 0
  0.875000   0.875000 0
  0.750000   0.125000 0
  1.000000   1.000000 0
  0.875000   0.250000 0
  0.625000   0.875000 0
  1.000000   0.750000 0
  0.875000   0.000000 0
  1.000000   0.250000 0
  0.625000   0.375000 0
  0.875000   0.500000 0
  0.625000   0.625000 0
  1.000000   0.500000 0
  0.750000   0.500000 0
  0.750000   1.000000 0
  1.000000   0.125000 0
  0.625000   0.250000 0
  0.750000   0.750000 0
  0.625000   0.000000 0
  0.125000   0.375000 0
  0.000000   0.500000 0
  0.125000   0.625000 0
  0.625000   1.000000 0
  1.000000   0.875000 0
  0.875000   0.125000 0
  0.500000   0.250000 0
  0.625000   0.500000 0
  0.250000   0.625000 0
  0.000000   0.625000 0
  0.375000   0.500000 0
  0.375000   0.000000 0
  0.000000   0.125000 0
  0.125000   0.875000 0
  0.875000   1.000000 0
  0.750000   0.250000 0
  0.375000   0.375000 0
  0.250000   0.375000 0
  0.625000   0.750000 0
  0.125000   0.125000 0
  0.500000   0.000000 0
  0.250000   0.875000 0
  0.125000   0.500000 0
  0.500000   0.375000 0
  0.125000   0.000000 0
  0.250000   0.750000 0
  0.250000   0.500000 0
  0.000000   0.875000 0
  0.875000   0.625000 0
  0.500000   0.750000 0
  0.750000   0.625000 0
  0.250000   0.000000 0
  0.375000   0.750000 0
  0.750000   0.875000 0
  0.625000   0.125000 0
  0.250000   0.250000 0
  0.375000   1.000000 0
  0.375000   0.250000 0
  0.000000   0.375000 0
  0.500000   1.000000 0
  0.875000   0.750000 0
  0.750000   0.000000 0
  0.375000   0.125000 0
  0.500000   0.875000 0
  0.000000   0.000000 0
  0.125000   0.750000 0
  0.500000   0.625000 0
  0.125000   0.250000 0
  0.500000   0.125000 0
  0.250000   1.000000 0
  0.250000   0.125000 0
  0.000000   1.000000 0
  0.375000   0.875000 0
  0.000000   0.750000 0
  0.375000   0.625000 0
  0.000000   0.250000 0
  0.125000   1.000000 0
  1.000000   0.375000 0
  0.500000   0.500000 0
  0.875000   0.375000 0
CELLS 64 320
4 56 71 58 63
4 27 58 69 63
4 41 69 32 63
4 76 33 68 40
4 27 44 58 37
4 79 31 44 37
4 56 38 68 21
4 56 58 38 37
4 52 32 71 63
4 47 38 31 37
4 76 68 59 21
4 22 59 43 21
4 65 45 33 40
4 47 43 38 21
4 52 71 45 40
4 56 68 71 40
4 74 30 66 23
4 46 66 29 23
4 22 43 30 23
4 72 48 77 34
4 46 53 42 73
4 50 64 53 73
4 70 42 57 73
4 74 66 48 34
4 46 42 66 34
4 47 29 43 23
4 70 77 42 34
4 60 57 64 73
4 79 67 31 75
4 47 31 29 75
4 50 53 67 75
4 46 29 53 75
4 10 78 6 80
4 36 6 1 80
4 15 1 12 80
4 36 4 6 26
4 14 12 78 80
4 2 17 9 26
4 36 18 4 55
4 15 28 1 11
4 62 4 20 55
4 10 6 17 26
4 27 18 44 11
4 62 9 4 26
4 27 69 18 55
4 36 1 18 11
4 41 20 69 55
4 79 44 28 11
4 16 24 54 7
4 19 54 39 7
4 50 39 64 7
4 8 25 61 3
4 60 64 24 7
4 79 28 67 13
4 19 51 61 49
4 8 61 0 49
4 15 51 28 13
4 19 39 51 13
4 50 67 39 13
4 19 61 54 3
4 14 0 12 49
4 5 35 25 3
4 15 12 51 49
4 16 54 35 3
CELL_TYPES 64
8
8
8
8
8
8
8
8
8
8
8
8
8
8
8
8
8
8
8
8
8
8
8
8
8
8
8
8
8
8
8
8
8
8
8
8
8
8
8
8
8
8
8
8
8
8
8
8
8
8
8
8
8
8
8
8
8
8
8
8
8
8
8
8
CELL_DATA 64
VECTORS vector_value float
-0.0281199 -0.616565 0
0.00322335 -0.697011 0
0.00596702 -0.497021 0
-0.0751751 -0.399347 0
-0.173137 -0.440182 0
-0.331573 -0.382477 0
-0.247717 -0.427904 0
-0.28298 -1.24897 0
-0.0523101 -0.692855 0
0.0367005 -1.02293 0
-0.0257558 -0.0887476 0
0.0306859 -0.0670606 0
0.0376861 -0.201365 0
0.190762 -0.464675 0
0.127149 -0.861314 0
-0.225631 -0.646414 0
0.164719 -0.552345 0
0.412957 -0.511032 0
0.101083 -0.185541 0
-0.105458 -1.16275 0
0.209198 -0.228737 0
0.382179 -0.254892 0
1.0311 -0.412848 0
0.277814 -1.1293 0
0.0876326 -0.0712933 0
0.241768 -0.66384 0
0.302249 -0.54065 0
1.69618 -0.906543 0
-0.0892484 -0.212341 0
0.0745966 -0.512777 0
0.00336134 -0.121917 0
0.0939944 -0.269542 0
0.00193197 -2.62604 0
-0.284769 -2.30138 0
0.16545 -2.15387 0
0.0103311 -1.46712 0
0.28858 -3.0142 0
0.138555 -3.51742 0
-0.206083 -0.24068 0
-0.082985 -0.819864 0
-0.325005 -0.417725 0
0.195161 -3.03242 0
-0.530958 -0.278533 0
0.00140828 -0.509801 0
-0.302486 -0.900444 0
-0.75586 -0.588241 0
-0.0483505 -1.3025 0
-0.120166 -0.0749244 0
-0.242082 -1.8399 0
0.900477 -3.6264 0
1.64439 -1.81262 0
-0.10162 -0.406608 0
0.963038 -1.79633 0
-0.20203 -0.328392 0
0.616291 -1.03741 0
0.0504873 -0.405422 0
0.757026 -1.6921 0
1.63643 -4.5057 0
0.184701 -0.596634 0
-0.295975 -0.470147 0
0.919707 -1.39803 0
-0.211002 -0.887205 0
2.64208 -3.00697 0
-0.582262 -0.45378 0
