# vtk DataFile Version 2.0
Unstructured Grid by M++
ASCII
DATASET UNSTRUCTURED_GRID
POINTS 289 float
  0.562500   1.000000 0
  0.562500   0.625000 0
  0.625000   1.000000 0
  0.562500   0.937500 0
  0.562500   0.562500 0
  0.625000   0.937500 0
  0.562500   0.875000 0
  0.625000   0.750000 0
  0.625000   0.625000 0
  0.562500   0.812500 0
  0.562500   0.750000 0
  0.562500   0.687500 0
  0.625000   0.875000 0
  0.625000   0.812500 0
  0.625000   0.687500 0
  0.687500   0.125000 0
  0.875000   0.062500 0
  0.625000   0.125000 0
  0.625000   0.187500 0
  0.625000   0.250000 0
  0.812500   0.187500 0
  1.000000   0.125000 0
  0.687500   0.187500 0
  0.750000   0.125000 0
  0.937500   0.062500 0
  0.937500   0.125000 0
  0.750000   0.187500 0
  0.812500   0.062500 0
  0.812500   0.125000 0
  0.875000   0.687500 0
  0.187500   0.250000 0
  0.437500   0.250000 0
  0.375000   0.187500 0
  0.812500   0.625000 0
  0.125000   0.187500 0
  0.937500   0.750000 0
  0.250000   0.312500 0
  0.500000   0.312500 0
  0.625000   0.062500 0
  0.437500   0.500000 0
  0.375000   0.125000 0
  0.437500   0.187500 0
  0.437500   0.437500 0
  0.437500   0.375000 0
  0.875000   0.875000 0
  0.187500   0.375000 0
  0.687500   0.562500 0
  0.687500   0.625000 0
  0.000000   0.125000 0
  0.937500   0.625000 0
  0.250000   0.125000 0
  0.375000   0.062500 0
  0.375000   0.000000 0
  0.812500   0.500000 0
  0.125000   0.000000 0
  0.937500   0.937500 0
  0.250000   0.437500 0
  0.687500   0.875000 0
  0.687500   0.937500 0
  0.000000   0.437500 0
  0.500000   0.500000 0
  0.500000   0.437500 0
  0.750000   0.937500 0
  0.750000   1.000000 0
  0.062500   0.500000 0
  1.000000   1.000000 0
  0.312500   0.500000 0
  0.875000   0.562500 0
  0.187500   0.062500 0
  0.437500   0.125000 0
  0.437500   0.062500 0
  0.500000   0.375000 0
  0.937500   0.812500 0
  0.937500   0.875000 0
  0.250000   0.375000 0
  0.687500   0.812500 0
  0.000000   0.375000 0
  0.750000   0.562500 0
  0.062500   0.125000 0
  1.000000   0.562500 0
  1.000000   0.625000 0
  0.312500   0.125000 0
  0.562500   0.125000 0
  0.437500   0.000000 0
  0.875000   0.437500 0
  0.875000   0.500000 0
  0.187500   0.000000 0
  0.937500   0.562500 0
  0.937500   0.500000 0
  0.250000   0.062500 0
  0.687500   0.500000 0
  0.000000   0.062500 0
  0.500000   0.062500 0
  1.000000   0.875000 0
  1.000000   0.937500 0
  0.312500   0.437500 0
  0.750000   0.875000 0
  0.062500   0.437500 0
  0.812500   0.937500 0
  0.125000   0.500000 0
  0.375000   0.500000 0
  0.625000   0.562500 0
  0.625000   0.500000 0
  0.437500   0.312500 0
  0.875000   0.812500 0
  0.875000   0.750000 0
  0.187500   0.312500 0
  0.812500   0.687500 0
  0.812500   0.750000 0
  0.125000   0.250000 0
  0.375000   0.250000 0
  1.000000   0.687500 0
  0.312500   0.187500 0
  0.750000   0.687500 0
  0.750000   0.625000 0
  0.062500   0.187500 0
  0.562500   0.250000 0
  0.562500   0.187500 0
  0.375000   1.000000 0
  0.500000   0.562500 0
  0.500000   0.250000 0
  0.750000   0.250000 0
  0.500000   0.125000 0
  0.500000   0.187500 0
  1.000000   0.187500 0
  0.625000   0.375000 0
  0.875000   0.375000 0
  1.000000   0.437500 0
  0.312500   0.000000 0
  0.562500   0.000000 0
  0.812500   0.000000 0
  0.250000   0.687500 0
  0.000000   0.687500 0
  0.500000   1.000000 0
  0.250000   1.000000 0
  0.000000   1.000000 0
  0.437500   0.687500 0
  0.437500   0.625000 0
  0.187500   0.625000 0
  0.687500   0.750000 0
  0.000000   0.312500 0
  0.000000   0.250000 0
  0.375000   0.375000 0
  0.375000   0.312500 0
  0.812500   0.812500 0
  0.125000   0.312500 0
  0.875000   0.625000 0
  0.187500   0.187500 0
  0.187500   0.125000 0
  0.937500   1.000000 0
  0.250000   0.562500 0
  0.250000   0.500000 0
  0.687500   1.000000 0
  0.000000   0.500000 0
  0.687500   0.687500 0
  0.000000   0.187500 0
  0.937500   0.687500 0
  0.250000   0.250000 0
  0.250000   0.187500 0
  0.187500   0.687500 0
  0.000000   0.750000 0
  0.250000   0.750000 0
  0.125000   0.625000 0
  0.750000   0.750000 0
  0.062500   0.250000 0
  0.875000   0.937500 0
  0.187500   0.500000 0
  0.187500   0.437500 0
  0.812500   0.562500 0
  0.125000   0.125000 0
  0.125000   0.062500 0
  0.375000   0.625000 0
  0.375000   0.687500 0
  1.000000   0.750000 0
  0.312500   0.250000 0
  0.312500   0.312500 0
  0.812500   0.312500 0
  0.562500   0.312500 0
  0.375000   0.750000 0
  0.500000   0.625000 0
  0.250000   0.625000 0
  0.312500   0.687500 0
  0.750000   0.812500 0
  0.062500   0.312500 0
  0.062500   0.375000 0
  1.000000   0.812500 0
  0.312500   0.375000 0
  0.562500   0.375000 0
  0.687500   0.437500 0
  0.000000   0.000000 0
  0.500000   0.000000 0
  0.937500   0.437500 0
  0.250000   0.000000 0
  0.375000   0.437500 0
  0.812500   0.875000 0
  0.125000   0.375000 0
  0.125000   0.437500 0
  0.625000   0.437500 0
  1.000000   0.500000 0
  0.312500   0.062500 0
  0.750000   0.500000 0
  0.062500   0.000000 0
  0.062500   0.062500 0
  0.562500   0.062500 0
  0.062500   0.750000 0
  0.312500   0.750000 0
  0.312500   0.625000 0
  0.312500   0.562500 0
  0.062500   0.562500 0
  0.187500   1.000000 0
  0.437500   0.562500 0
  0.875000   1.000000 0
  0.187500   0.562500 0
  0.500000   0.937500 0
  0.250000   0.937500 0
  0.312500   1.000000 0
  0.125000   0.750000 0
  0.125000   0.687500 0
  1.000000   0.000000 0
  0.000000   0.937500 0
  0.000000   0.875000 0
  0.875000   0.125000 0
  0.875000   0.187500 0
  0.062500   0.812500 0
  0.312500   0.812500 0
  0.000000   0.812500 0
  0.000000   0.625000 0
  0.000000   0.562500 0
  0.062500   1.000000 0
  0.062500   0.937500 0
  0.937500   0.187500 0
  0.937500   0.250000 0
  0.062500   0.687500 0
  0.062500   0.625000 0
  0.125000   1.000000 0
  1.000000   0.250000 0
  1.000000   0.312500 0
  0.062500   0.875000 0
  0.125000   0.812500 0
  0.375000   0.812500 0
  0.125000   0.875000 0
  0.375000   0.937500 0
  0.375000   0.875000 0
  0.187500   0.750000 0
  0.187500   0.812500 0
  0.437500   0.812500 0
  0.187500   0.875000 0
  0.437500   0.875000 0
  0.375000   0.562500 0
  0.812500   1.000000 0
  0.125000   0.562500 0
  0.437500   1.000000 0
  0.437500   0.937500 0
  0.187500   0.937500 0
  0.125000   0.937500 0
  0.500000   0.687500 0
  0.500000   0.750000 0
  0.500000   0.812500 0
  0.250000   0.812500 0
  0.250000   0.875000 0
  0.500000   0.875000 0
  0.437500   0.750000 0
  0.312500   0.875000 0
  0.312500   0.937500 0
  0.687500   0.250000 0
  0.687500   0.312500 0
  0.937500   0.312500 0
  0.875000   0.250000 0
  0.625000   0.000000 0
  0.875000   0.000000 0
  0.687500   0.375000 0
  0.937500   0.375000 0
  0.875000   0.312500 0
  0.625000   0.312500 0
  0.687500   0.000000 0
  0.937500   0.000000 0
  0.750000   0.312500 0
  0.750000   0.375000 0
  1.000000   0.375000 0
  0.812500   0.250000 0
  0.562500   0.437500 0
  0.562500   0.500000 0
  0.687500   0.062500 0
  0.750000   0.437500 0
  0.750000   0.000000 0
  0.750000   0.062500 0
  1.000000   0.062500 0
  0.812500   0.375000 0
  0.812500   0.437500 0
CELLS 256 1280
4 169 170 148 68
4 151 166 56 167
4 195 45 196 167
4 54 170 201 202
4 109 34 30 147
4 40 32 81 112
4 192 89 86 68
4 48 91 78 202
4 99 64 196 97
4 71 43 37 103
4 74 186 56 95
4 109 164 34 115
4 50 81 158 112
4 122 69 92 70
4 195 145 45 106
4 110 143 174 175
4 157 30 158 147
4 40 69 32 41
4 50 158 148 147
4 141 155 164 115
4 122 123 69 41
4 142 186 143 175
4 60 39 61 42
4 40 51 69 70
4 120 31 123 41
4 157 174 36 175
4 50 148 89 68
4 48 78 155 115
4 52 83 51 70
4 151 56 66 95
4 71 61 43 42
4 169 148 34 147
4 100 193 39 42
4 40 81 51 199
4 110 174 32 112
4 109 30 145 106
4 100 66 193 95
4 169 34 78 115
4 190 92 83 70
4 50 89 81 199
4 54 86 170 68
4 74 56 45 167
4 142 143 43 103
4 153 59 64 97
4 99 196 166 167
4 169 78 170 202
4 142 193 186 95
4 192 128 89 199
4 74 45 36 106
4 110 31 143 103
4 76 184 59 97
4 142 43 193 42
4 52 51 128 199
4 189 201 91 202
4 120 37 31 103
4 74 36 186 175
4 195 196 184 97
4 141 164 140 183
4 157 158 174 112
4 109 145 164 183
4 195 184 145 183
4 110 32 31 41
4 157 36 30 106
4 76 140 184 183
4 171 172 206 181
4 178 172 261 136
4 256 261 255 136
4 256 257 261 245
4 180 150 206 207
4 60 119 39 210
4 118 215 241 263
4 178 205 172 181
4 216 243 238 244
4 162 217 233 232
4 180 206 131 181
4 179 137 119 210
4 216 204 217 232
4 220 237 219 229
4 216 217 243 159
4 259 258 262 224
4 240 254 237 229
4 153 64 227 208
4 161 205 258 224
4 240 237 238 223
4 226 227 233 208
4 234 228 254 229
4 171 248 137 210
4 160 132 204 232
4 180 131 138 159
4 133 251 213 252
4 171 206 248 207
4 162 138 217 159
4 161 258 243 244
4 220 225 237 223
4 151 150 166 212
4 260 247 257 245
4 259 262 214 263
4 151 66 150 207
4 234 254 209 253
4 162 233 250 208
4 242 241 262 263
4 171 137 172 136
4 161 243 131 159
4 160 204 225 223
4 161 131 205 181
4 179 255 137 136
4 216 238 204 223
4 100 39 248 210
4 260 213 247 252
4 226 233 132 232
4 134 214 215 263
4 180 138 150 212
4 178 261 239 245
4 259 246 258 244
4 178 239 205 224
4 240 238 246 244
4 242 262 239 224
4 99 250 64 208
4 240 246 254 253
4 242 239 247 245
4 135 219 228 229
4 99 166 250 212
4 259 214 246 253
4 118 241 251 252
4 100 248 66 207
4 134 209 214 253
4 162 250 138 212
4 242 247 241 252
4 71 187 61 280
4 102 281 197 280
4 122 92 82 203
4 17 18 82 117
4 122 82 123 117
4 19 264 273 265
4 267 279 222 20
4 125 273 270 265
4 267 272 279 176
4 19 116 18 117
4 21 25 286 24
4 23 28 26 20
4 23 285 28 27
4 218 286 275 24
4 85 53 84 288
4 235 236 231 266
4 221 222 28 20
4 267 222 231 230
4 268 38 129 203
4 125 270 197 188
4 126 287 272 176
4 277 270 276 265
4 267 231 272 266
4 125 197 187 280
4 190 129 92 203
4 277 276 287 176
4 19 18 264 22
4 17 82 38 203
4 102 197 90 188
4 126 84 287 288
4 284 130 285 27
4 121 276 264 265
4 71 37 187 177
4 120 123 116 117
4 198 88 127 191
4 221 16 25 24
4 23 26 15 22
4 121 279 276 176
4 235 231 124 230
4 125 187 273 177
4 278 271 236 266
4 277 287 283 288
4 284 285 274 282
4 278 127 271 191
4 269 275 16 24
4 200 283 53 288
4 23 15 285 282
4 121 26 279 20
4 21 124 25 230
4 19 273 116 177
4 200 90 283 188
4 126 271 84 191
4 269 16 130 27
4 17 38 15 282
4 221 25 222 230
4 121 264 26 22
4 120 116 37 177
4 60 61 281 280
4 277 283 270 188
4 126 272 271 266
4 268 274 38 282
4 85 84 88 191
4 17 15 18 22
4 221 28 16 27
4 93 94 73 55
4 85 88 67 87
4 80 49 79 87
4 44 104 73 72
4 146 33 67 168
4 211 165 149 55
4 8 47 14 154
4 105 104 108 144
4 105 108 29 107
4 7 139 13 75
4 44 165 194 98
4 200 53 77 168
4 8 1 101 4
4 2 5 152 58
4 260 6 213 3
4 105 35 104 72
4 96 57 182 75
4 7 14 139 154
4 146 29 33 107
4 7 13 10 9
4 12 13 57 75
4 85 67 53 168
4 44 73 165 55
4 63 152 62 58
4 8 101 47 46
4 96 182 194 144
4 60 281 119 4
4 12 5 6 3
4 173 185 35 72
4 65 149 94 55
4 146 67 49 87
4 114 113 47 154
4 163 108 182 144
4 12 6 13 9
4 173 35 111 156
4 163 182 139 75
4 260 257 6 9
4 105 29 35 156
4 163 139 113 154
4 256 10 257 9
4 146 49 29 156
4 163 113 108 107
4 80 111 49 156
4 102 101 281 4
4 12 57 5 58
4 44 194 104 144
4 96 194 62 98
4 2 0 5 3
4 93 73 185 72
4 179 119 1 4
4 200 77 90 46
4 114 33 113 107
4 7 10 14 11
4 96 62 57 58
4 133 213 0 3
4 102 90 101 46
4 256 255 10 11
4 63 62 249 98
4 114 47 77 46
4 179 1 255 11
4 211 249 165 98
4 114 77 33 168
4 198 79 88 87
4 8 14 1 11
CELL_TYPES 256
8
8
8
8
8
8
8
8
8
8
8
8
8
8
8
8
8
8
8
8
8
8
8
8
8
8
8
8
8
8
8
8
8
8
8
8
8
8
8
8
8
8
8
8
8
8
8
8
8
8
8
8
8
8
8
8
8
8
8
8
8
8
8
8
8
8
8
8
8
8
8
8
8
8
8
8
8
8
8
8
8
8
8
8
8
8
8
8
8
8
8
8
8
8
8
8
8
8
8
8
8
8
8
8
8
8
8
8
8
8
8
8
8
8
8
8
8
8
8
8
8
8
8
8
8
8
8
8
8
8
8
8
8
8
8
8
8
8
8
8
8
8
8
8
8
8
8
8
8
8
8
8
8
8
8
8
8
8
8
8
8
8
8
8
8
8
8
8
8
8
8
8
8
8
8
8
8
8
8
8
8
8
8
8
8
8
8
8
8
8
8
8
8
8
8
8
8
8
8
8
8
8
8
8
8
8
8
8
8
8
8
8
8
8
8
8
8
8
8
8
8
8
8
8
8
8
8
8
8
8
8
8
8
8
8
8
8
8
8
8
8
8
8
8
8
8
8
8
8
8
8
8
8
8
8
8
CELL_DATA 256
VECTORS vector_value float
-0.140179 -0.692298 0
-0.0119355 -1.30854 0
0.304609 -0.655794 0
-0.00230942 -0.0902817 0
0.0699214 -0.190736 0
-0.552847 -1.09403 0
-0.194842 -2.49932 0
0.0138685 -0.0227522 0
0.184081 -0.389386 0
-0.0533281 -0.37037 0
0.118264 -0.971527 0
0.0616182 -0.0730508 0
-0.854502 -1.45343 0
-0.317636 -0.637476 0
0.254771 -0.389456 0
0.559756 -1.17379 0
0.0570387 -0.660592 0
-0.461175 -0.836434 0
-0.486967 -1.18175 0
0.0451543 -0.133445 0
-0.328993 -0.593037 0
0.062704 -0.324312 0
0.975707 -1.04505 0
-0.376314 -0.555889 0
-0.492476 -0.703737 0
0.570084 -1.34433 0
-0.491271 -1.68127 0
0.0131293 -0.0524484 0
-0.13721 -0.543041 0
-0.0341158 -0.924998 0
0.148783 -0.414483 0
-0.00945721 -0.308353 0
0.331466 -0.413679 0
-0.678159 -1.05376 0
-0.267493 -1.44549 0
0.115883 -0.194169 0
0.0736807 -0.398786 0
0.0607138 -0.0742047 0
-0.0611941 -0.46447 0
-0.542155 -1.23663 0
0.0829253 -0.535316 0
0.36545 -1.38622 0
-0.000326156 -0.218602 0
0.0428194 -0.506994 0
0.110095 -0.441413 0
0.0232284 -0.0715811 0
0.0199304 -0.22155 0
-0.687394 -1.41354 0
0.56179 -1.05955 0
-0.137392 -0.528106 0
0.0445984 -0.397945 0
0.0533064 -0.28152 0
-0.272912 -0.514163 0
0.00295765 -0.0119105 0
-0.330525 -0.488648 0
0.653508 -1.63383 0
0.135281 -0.192287 0
0.0376871 -0.203169 0
-0.0843704 -1.30992 0
0.101814 -0.115965 0
0.111578 -0.132251 0
-0.293523 -0.763029 0
0.267096 -0.748704 0
0.0520406 -0.299711 0
0.651589 -1.01654 0
0.341021 -0.705031 0
0.577496 -0.995712 0
1.14069 -1.49323 0
0.681564 -1.70057 0
0.711244 -1.08353 0
-0.0898994 -2.02961 0
0.00243582 -1.2535 0
0.124573 -0.451791 0
-0.15618 -0.147461 0
0.383394 -2.24619 0
0.714599 -0.756239 0
0.00545559 -0.0777491 0
0.282416 -0.492094 0
-0.0388514 -0.529637 0
-0.123699 -1.68772 0
0.673238 -0.437716 0
-0.050722 -0.480641 0
-0.382813 -2.59328 0
0.243456 -0.212034 0
-0.128475 -0.282192 0
0.393742 -0.477375 0
0.923251 -0.716115 0
0.00583519 -0.0588691 0
-0.149608 -2.2576 0
-1.06493 -0.709356 0
1.02008 -1.07267 0
-0.262882 -0.466924 0
0.0447647 -1.74785 0
0.0633795 -0.165042 0
-0.0292074 -1.01961 0
-0.0280553 -0.707567 0
0.265314 -1.7253 0
-0.0371807 -1.14596 0
0.853878 -0.837088 0
-0.402179 -0.330434 0
0.0961465 -2.84618 0
0.595238 -0.597722 0
-0.223297 -2.09406 0
0.0238396 -0.0869959 0
-0.28166 -2.58783 0
0.595577 -0.81106 0
0.0731794 -0.0926975 0
0.855806 -0.774942 0
-0.536965 -0.636189 0
-0.0472019 -0.105576 0
0.897599 -1.24075 0
-0.0340117 -1.46961 0
0.319075 -1.18052 0
0.239735 -1.64094 0
-0.284921 -1.63317 0
0.443003 -0.498702 0
-0.127093 -2.39434 0
-0.0641538 -0.498662 0
0.691659 -0.530432 0
0.493395 -2.27076 0
0.0932118 -1.01298 0
0.0663151 -0.472911 0
0.686039 -1.0543 0
-1.14792 -1.3871 0
0.434066 -0.917467 0
0.979586 -0.896748 0
-0.522292 -0.595459 0
-0.217614 -1.53802 0
0.426501 -1.46122 0
0.473485 -1.68645 0
-0.140762 -0.399158 0
-0.162242 -0.415294 0
-0.338428 -0.568023 0
0.47802 -1.25684 0
0.899967 -0.662683 0
0.591603 -2.01328 0
0.211347 -0.371711 0
0.0817372 -0.665436 0
0.138961 -3.78305 0
0.940627 -0.86335 0
0.782513 -1.48028 0
0.0143709 -3.86767 0
0.0185136 -0.446199 0
-0.12729 -2.69271 0
0.584639 -0.753179 0
0.433843 -1.94046 0
-0.0250805 -0.337953 0
0.263775 -2.27574 0
0.170921 -0.472196 0
0.339683 -1.44678 0
0.0368482 -1.36925 0
0.337084 -2.03853 0
-0.0193613 -0.304242 0
0.116971 -0.506095 0
0.765388 -1.66325 0
-0.0718475 -0.266354 0
0.0276058 -1.9756 0
0.0684733 -0.329137 0
0.227379 -1.18037 0
0.678532 -2.35294 0
-0.00757913 -1.42315 0
-0.379124 -0.647188 0
0.103636 -2.76844 0
0.2128 -1.73177 0
1.03111 -1.75663 0
0.267347 -0.508957 0
0.07871 -2.50133 0
0.216279 -1.91341 0
-0.0106826 -2.88049 0
0.135541 -0.634915 0
0.0947836 -0.614125 0
0.0233465 -2.82969 0
0.0747625 -1.82684 0
-0.0524826 -0.451035 0
0.368547 -0.831797 0
1.03564 -0.602929 0
0.413999 -3.18722 0
0.309882 -1.80565 0
-0.142969 -1.18338 0
0.0717671 -0.911334 0
0.309302 -1.50556 0
0.0641027 -0.569279 0
0.684809 -1.97314 0
0.873592 -2.03673 0
-0.177052 -0.845065 0
0.962841 -1.18638 0
0.176879 -0.998106 0
0.0388064 -0.916502 0
0.00808041 -0.291208 0
0.108857 -0.873667 0
0.218885 -0.889462 0
0.375705 -0.98665 0
0.0558574 -1.20132 0
0.254543 -1.11121 0
0.0782857 -2.2823 0
0.129596 -1.34454 0
0.103825 -0.905113 0
0.129003 -0.905028 0
0.527125 -0.659454 0
0.0910159 -0.565681 0
0.337815 -0.869008 0
0.601741 -0.503984 0
0.255455 -0.5403 0
-0.223615 -0.682119 0
0.404431 -0.884432 0
-0.77418 -1.06441 0
-0.614182 -0.875911 0
0.150606 -1.37401 0
0.0671178 -0.456533 0
0.974422 -0.606968 0
0.207332 -1.0927 0
0.614151 -0.634156 0
0.12264 -0.57287 0
0.0383769 -0.691113 0
0.345336 -1.36464 0
-0.526227 -0.66615 0
0.101965 -0.908507 0
0.097285 -0.285691 0
0.386688 -0.756051 0
-0.523325 -0.95305 0
0.0698172 -1.48502 0
0.0770076 -1.12224 0
0.15119 -0.994719 0
0.408778 -0.627501 0
0.180249 -0.385255 0
-0.0485921 -0.897219 0
0.173048 -1.92259 0
0.591916 -0.738159 0
-0.146562 -0.87861 0
0.203237 -0.941769 0
0.984516 -0.584499 0
0.797991 -1.03421 0
0.267543 -1.23064 0
0.934067 -1.0032 0
0.130945 -1.92476 0
0.438017 -1.42884 0
-0.3337 -0.829688 0
0.170469 -0.599365 0
0.0378179 -0.534347 0
-0.736554 -1.06063 0
0.0832145 -1.38807 0
0.786513 -1.04355 0
-0.394158 -1.16956 0
0.269457 -1.16935 0
0.985273 -0.6464 0
-0.137 -0.440509 0
-0.74582 -0.78526 0
0.00403038 -1.3788 0
0.978906 -1.12318 0
-0.122042 -0.841774 0
-0.211807 -0.707333 0
0.502039 -0.787413 0
0.155676 -0.963502 0
-0.298607 -1.35075 0
0.133003 -2.38859 0
0.657858 -0.859116 0
