# vtk DataFile Version 2.0
Unstructured Grid by M++
ASCII
DATASET UNSTRUCTURED_GRID
POINTS 81 float
  1.000000   0.625000 0
  0.750000   0.375000 0
  1.000000   0.000000 0
  0.875000   0.875000 0
  0.750000   0.125000 0
  1.000000   1.000000 0
  0.875000   0.250000 0
  0.625000   0.875000 0
  1.000000   0.750000 0
  0.875000   0.000000 0
  1.000000   0.250000 0
  0.625000   0.375000 0
  0.875000   0.500000 0
  0.625000   0.625000 0
  1.000000   0.500000 0
  0.750000   0.500000 0
  0.750000   1.000000 0
  1.000000   0.125000 0
  0.625000   0.250000 0
  0.750000   0.750000 0
  0.625000   0.000000 0
  0.125000   0.375000 0
  0.000000   0.500000 0
  0.125000   0.625000 0
  0.625000   1.000000 0
  1.000000   0.875000 0
  0.875000   0.125000 0
  0.500000   0.250000 0
  0.625000   0.500000 0
  0.250000   0.625000 0
  0.000000   0.625000 0
  0.375000   0.500000 0
  0.375000   0.000000 0
  0.000000   0.125000 0
  0.125000   0.875000 0
  0.875000   1.000000 0
  0.750000   0.250000 0
  0.375000   0.375000 0
  0.250000   0.375000 0
  0.625000   0.750000 0
  0.125000   0.125000 0
  0.500000   0.000000 0
  0.250000   0.875000 0
  0.125000   0.500000 0
  0.500000   0.375000 0
  0.125000   0.000000 0
  0.250000   0.750000 0
  0.250000   0.500000 0
  0.000000   0.875000 0
  0.875000   0.625000 0
  0.500000   0.750000 0
  0.750000   0.625000 0
  0.250000   0.000000 0
  0.375000   0.750000 0
  0.750000   0.875000 0
  0.625000   0.125000 0
  0.250000   0.250000 0
  0.375000   1.000000 0
  0.375000   0.250000 0
  0.000000   0.375000 0
  0.500000   1.000000 0
  0.875000   0.750000 0
  0.750000   0.000000 0
  0.375000   0.125000 0
  0.500000   0.875000 0
  0.000000   0.000000 0
  0.125000   0.750000 0
  0.500000   0.625000 0
  0.125000   0.250000 0
  0.500000   0.125000 0
  0.250000   1.000000 0
  0.250000   0.125000 0
  0.000000   1.000000 0
  0.375000   0.875000 0
  0.000000   0.750000 0
  0.375000   0.625000 0
  0.000000   0.250000 0
  0.125000   1.000000 0
  1.000000   0.375000 0
  0.500000   0.500000 0
  0.875000   0.375000 0
CELLS 64 320
4 56 71 58 63
4 27 58 69 63
4 41 69 32 63
4 76 33 68 40
4 27 44 58 37
4 79 31 44 37
4 56 38 68 21
4 56 58 38 37
4 52 32 71 63
4 47 38 31 37
4 76 68 59 21
4 22 59 43 21
4 65 45 33 40
4 47 43 38 21
4 52 71 45 40
4 56 68 71 40
4 74 30 66 23
4 46 66 29 23
4 22 43 30 23
4 72 48 77 34
4 46 53 42 73
4 50 64 53 73
4 70 42 57 73
4 74 66 48 34
4 46 42 66 34
4 47 29 43 23
4 70 77 42 34
4 60 57 64 73
4 79 67 31 75
4 47 31 29 75
4 50 53 67 75
4 46 29 53 75
4 10 78 6 80
4 36 6 1 80
4 15 1 12 80
4 36 4 6 26
4 14 12 78 80
4 2 17 9 26
4 36 18 4 55
4 15 28 1 11
4 62 4 20 55
4 10 6 17 26
4 27 18 44 11
4 62 9 4 26
4 27 69 18 55
4 36 1 18 11
4 41 20 69 55
4 79 44 28 11
4 16 24 54 7
4 19 54 39 7
4 50 39 64 7
4 8 25 61 3
4 60 64 24 7
4 79 28 67 13
4 19 51 61 49
4 8 61 0 49
4 15 51 28 13
4 19 39 51 13
4 50 67 39 13
4 19 61 54 3
4 14 0 12 49
4 5 35 25 3
4 15 12 51 49
4 16 54 35 3
CELL_TYPES 64
8
8
8
8
8
8
8
8
8
8
8
8
8
8
8
8
8
8
8
8
8
8
8
8
8
8
8
8
8
8
8
8
8
8
8
8
8
8
8
8
8
8
8
8
8
8
8
8
8
8
8
8
8
8
8
8
8
8
8
8
8
8
8
8
CELL_DATA 64
VECTORS vector_value float
-0.252594 -0.387721 0
0.0717442 -0.115568 0
0.0104708 -0.0252177 0
-0.51841 -1.08585 0
0.131126 -0.265682 0
0.22741 -0.710241 0
-0.425839 -0.940286 0
-0.509861 -1.43266 0
-0.0478091 -0.162986 0
-0.0407325 -1.8425 0
-0.107643 -0.348495 0
-0.0178555 -0.169369 0
-0.161429 -1.71033 0
-0.0801496 -0.645858 0
-0.171142 -0.820868 0
-0.996673 -1.21062 0
0.156619 -0.263359 0
0.528138 -0.892935 0
-0.0110495 -0.13127 0
-0.00699694 -1.11145 0
0.199983 -1.91031 0
-0.428415 -0.655694 0
-0.370875 -0.660217 0
0.284694 -0.695552 0
0.786547 -1.15262 0
0.000826794 -0.670472 0
-0.290997 -1.36782 0
-0.185454 -0.918679 0
0.247912 -0.614708 0
0.181771 -2.19292 0
0.720158 -0.46825 0
0.719458 -2.42876 0
-0.943921 -1.61928 0
-0.946001 -1.93244 0
0.0850026 -0.800272 0
-0.0734462 -2.64907 0
-0.0840273 -2.46998 0
0.0496804 -0.533436 0
0.133568 -1.93795 0
0.471428 -1.20536 0
0.15609 -1.28503 0
-0.00271646 -0.430487 0
0.343011 -0.229697 0
0.33124 -3.19132 0
0.128087 -0.18274 0
0.113963 -1.23147 0
0.0138567 -0.27081 0
0.286628 -0.156421 0
0.0554735 -1.27546 0
0.20692 -1.59759 0
-0.0187115 -0.143289 0
0.187631 -1.52126 0
0.0327634 -0.776965 0
0.363294 -0.517041 0
0.650353 -0.86368 0
0.0881595 -1.65665 0
0.236033 -0.826877 0
0.519812 -0.820202 0
0.498574 -0.60616 0
0.184878 -0.323693 0
0.366105 -2.39319 0
0.114087 -1.13673 0
0.365665 -0.653524 0
0.0866112 -0.752678 0
