# vtk DataFile Version 2.0
Unstructured Grid by M++
ASCII
DATASET UNSTRUCTURED_GRID
POINTS 81 float
  1.000000   0.625000 0
  0.750000   0.375000 0
  1.000000   0.000000 0
  0.875000   0.875000 0
  0.750000   0.125000 0
  1.000000   1.000000 0
  0.875000   0.250000 0
  0.625000   0.875000 0
  1.000000   0.750000 0
  0.875000   0.000000 0
  1.000000   0.250000 0
  0.625000   0.375000 0
  0.875000   0.500000 0
  0.625000   0.625000 0
  1.000000   0.500000 0
  0.750000   0.500000 0
  0.750000   1.000000 0
  1.000000   0.125000 0
  0.625000   0.250000 0
  0.750000   0.750000 0
  0.625000   0.000000 0
  0.125000   0.375000 0
  0.000000   0.500000 0
  0.125000   0.625000 0
  0.625000   1.000000 0
  1.000000   0.875000 0
  0.875000   0.125000 0
  0.500000   0.250000 0
  0.625000   0.500000 0
  0.250000   0.625000 0
  0.000000   0.625000 0
  0.375000   0.500000 0
  0.375000   0.000000 0
  0.000000   0.125000 0
  0.125000   0.875000 0
  0.875000   1.000000 0
  0.750000   0.250000 0
  0.375000   0.375000 0
  0.250000   0.375000 0
  0.625000   0.750000 0
  0.125000   0.125000 0
  0.500000   0.000000 0
  0.250000   0.875000 0
  0.125000   0.500000 0
  0.500000   0.375000 0
  0.125000   0.000000 0
  0.250000   0.750000 0
  0.250000   0.500000 0
  0.000000   0.875000 0
  0.875000   0.625000 0
  0.500000   0.750000 0
  0.750000   0.625000 0
  0.250000   0.000000 0
  0.375000   0.750000 0
  0.750000   0.875000 0
  0.625000   0.125000 0
  0.250000   0.250000 0
  0.375000   1.000000 0
  0.375000   0.250000 0
  0.000000   0.375000 0
  0.500000   1.000000 0
  0.875000   0.750000 0
  0.750000   0.000000 0
  0.375000   0.125000 0
  0.500000   0.875000 0
  0.000000   0.000000 0
  0.125000   0.750000 0
  0.500000   0.625000 0
  0.125000   0.250000 0
  0.500000   0.125000 0
  0.250000   1.000000 0
  0.250000   0.125000 0
  0.000000   1.000000 0
  0.375000   0.875000 0
  0.000000   0.750000 0
  0.375000   0.625000 0
  0.000000   0.250000 0
  0.125000   1.000000 0
  1.000000   0.375000 0
  0.500000   0.500000 0
  0.875000   0.375000 0
CELLS 64 320
4 56 71 58 63
4 27 58 69 63
4 41 69 32 63
4 76 33 68 40
4 27 44 58 37
4 79 31 44 37
4 56 38 68 21
4 56 58 38 37
4 52 32 71 63
4 47 38 31 37
4 76 68 59 21
4 22 59 43 21
4 65 45 33 40
4 47 43 38 21
4 52 71 45 40
4 56 68 71 40
4 74 30 66 23
4 46 66 29 23
4 22 43 30 23
4 72 48 77 34
4 46 53 42 73
4 50 64 53 73
4 70 42 57 73
4 74 66 48 34
4 46 42 66 34
4 47 29 43 23
4 70 77 42 34
4 60 57 64 73
4 79 67 31 75
4 47 31 29 75
4 50 53 67 75
4 46 29 53 75
4 10 78 6 80
4 36 6 1 80
4 15 1 12 80
4 36 4 6 26
4 14 12 78 80
4 2 17 9 26
4 36 18 4 55
4 15 28 1 11
4 62 4 20 55
4 10 6 17 26
4 27 18 44 11
4 62 9 4 26
4 27 69 18 55
4 36 1 18 11
4 41 20 69 55
4 79 44 28 11
4 16 24 54 7
4 19 54 39 7
4 50 39 64 7
4 8 25 61 3
4 60 64 24 7
4 79 28 67 13
4 19 51 61 49
4 8 61 0 49
4 15 51 28 13
4 19 39 51 13
4 50 67 39 13
4 19 61 54 3
4 14 0 12 49
4 5 35 25 3
4 15 12 51 49
4 16 54 35 3
CELL_TYPES 64
8
8
8
8
8
8
8
8
8
8
8
8
8
8
8
8
8
8
8
8
8
8
8
8
8
8
8
8
8
8
8
8
8
8
8
8
8
8
8
8
8
8
8
8
8
8
8
8
8
8
8
8
8
8
8
8
8
8
8
8
8
8
8
8
CELL_DATA 64
VECTORS vector_value float
-0.296004 -1.13042 0
-1.06255 -1.7103 0
-1.4733 -4.78161 0
0.104124 -0.287754 0
-0.370642 -0.992117 0
0.607691 -0.876204 0
0.110348 -0.170479 0
0.0743155 -0.271453 0
-0.016732 -1.22972 0
0.294517 -0.218367 0
0.0376377 -0.393129 0
0.0608195 -0.473236 0
0.0320142 -0.0739115 0
0.279421 -0.394132 0
0.0911243 -0.321499 0
0.0797824 -0.0864394 0
0.196845 -0.498498 0
0.376769 -1.05 0
-0.0449353 -0.584226 0
-0.169982 -1.35439 0
-0.0860053 -0.877045 0
-0.559067 -1.35054 0
0.546619 -0.813259 0
0.251857 -1.21906 0
0.102848 -0.29833 0
0.180094 -0.690304 0
0.0601396 -0.292533 0
0.549841 -1.06289 0
1.55795 -1.15449 0
1.16451 -1.02004 0
-0.011395 -0.478219 0
-0.194279 -1.79868 0
0.0208749 -0.453977 0
0.00984743 -0.179662 0
-0.588622 -0.709705 0
0.0105556 -0.0150054 0
-0.067159 -0.621667 0
-0.0109085 -0.550267 0
0.0390413 -0.555277 0
-1.13609 -1.079 0
0.0200639 -0.42501 0
0.0366959 -0.566238 0
-0.754128 -4.84936 0
0.0661664 -0.170347 0
-1.86614 -3.64856 0
-0.383332 -0.689825 0
-0.132034 -0.447642 0
-0.0998154 -3.62769 0
0.164354 -1.24033 0
0.678486 -1.89493 0
0.00503467 -0.2362 0
-0.351426 -0.736898 0
0.623258 -1.46456 0
0.0698166 -0.735976 0
-0.0808454 -2.39123 0
0.00697771 -0.238638 0
-0.886295 -1.87192 0
-0.0597622 -1.45088 0
0.00145212 -0.0938638 0
0.05801 -1.387 0
0.161149 -0.526198 0
-0.0228885 -1.01934 0
-0.21653 -1.41684 0
-0.112114 -0.752693 0
