# vtk DataFile Version 2.0
Unstructured Grid by M++
ASCII
DATASET UNSTRUCTURED_GRID
POINTS 81 float
  1.000000   0.625000 0
  0.750000   0.375000 0
  1.000000   0.000000 0
  0.875000   0.875000 0
  0.750000   0.125000 0
  1.000000   1.000000 0
  0.875000   0.250000 0
  0.625000   0.875000 0
  1.000000   0.750000 0
  0.875000   0.000000 0
  1.000000   0.250000 0
  0.625000   0.375000 0
  0.875000   0.500000 0
  0.625000   0.625000 0
  1.000000   0.500000 0
  0.750000   0.500000 0
  0.750000   1.000000 0
  1.000000   0.125000 0
  0.625000   0.250000 0
  0.750000   0.750000 0
  0.625000   0.000000 0
  0.125000   0.375000 0
  0.000000   0.500000 0
  0.125000   0.625000 0
  0.625000   1.000000 0
  1.000000   0.875000 0
  0.875000   0.125000 0
  0.500000   0.250000 0
  0.625000   0.500000 0
  0.250000   0.625000 0
  0.000000   0.625000 0
  0.375000   0.500000 0
  0.375000   0.000000 0
  0.000000   0.125000 0
  0.125000   0.875000 0
  0.875000   1.000000 0
  0.750000   0.250000 0
  0.375000   0.375000 0
  0.250000   0.375000 0
  0.625000   0.750000 0
  0.125000   0.125000 0
  0.500000   0.000000 0
  0.250000   0.875000 0
  0.125000   0.500000 0
  0.500000   0.375000 0
  0.125000   0.000000 0
  0.250000   0.750000 0
  0.250000   0.500000 0
  0.000000   0.875000 0
  0.875000   0.625000 0
  0.500000   0.750000 0
  0.750000   0.625000 0
  0.250000   0.000000 0
  0.375000   0.750000 0
  0.750000   0.875000 0
  0.625000   0.125000 0
  0.250000   0.250000 0
  0.375000   1.000000 0
  0.375000   0.250000 0
  0.000000   0.375000 0
  0.500000   1.000000 0
  0.875000   0.750000 0
  0.750000   0.000000 0
  0.375000   0.125000 0
  0.500000   0.875000 0
  0.000000   0.000000 0
  0.125000   0.750000 0
  0.500000   0.625000 0
  0.125000   0.250000 0
  0.500000   0.125000 0
  0.250000   1.000000 0
  0.250000   0.125000 0
  0.000000   1.000000 0
  0.375000   0.875000 0
  0.000000   0.750000 0
  0.375000   0.625000 0
  0.000000   0.250000 0
  0.125000   1.000000 0
  1.000000   0.375000 0
  0.500000   0.500000 0
  0.875000   0.375000 0
CELLS 64 320
4 56 71 58 63
4 27 58 69 63
4 41 69 32 63
4 76 33 68 40
4 27 44 58 37
4 79 31 44 37
4 56 38 68 21
4 56 58 38 37
4 52 32 71 63
4 47 38 31 37
4 76 68 59 21
4 22 59 43 21
4 65 45 33 40
4 47 43 38 21
4 52 71 45 40
4 56 68 71 40
4 74 30 66 23
4 46 66 29 23
4 22 43 30 23
4 72 48 77 34
4 46 53 42 73
4 50 64 53 73
4 70 42 57 73
4 74 66 48 34
4 46 42 66 34
4 47 29 43 23
4 70 77 42 34
4 60 57 64 73
4 79 67 31 75
4 47 31 29 75
4 50 53 67 75
4 46 29 53 75
4 10 78 6 80
4 36 6 1 80
4 15 1 12 80
4 36 4 6 26
4 14 12 78 80
4 2 17 9 26
4 36 18 4 55
4 15 28 1 11
4 62 4 20 55
4 10 6 17 26
4 27 18 44 11
4 62 9 4 26
4 27 69 18 55
4 36 1 18 11
4 41 20 69 55
4 79 44 28 11
4 16 24 54 7
4 19 54 39 7
4 50 39 64 7
4 8 25 61 3
4 60 64 24 7
4 79 28 67 13
4 19 51 61 49
4 8 61 0 49
4 15 51 28 13
4 19 39 51 13
4 50 67 39 13
4 19 61 54 3
4 14 0 12 49
4 5 35 25 3
4 15 12 51 49
4 16 54 35 3
CELL_TYPES 64
8
8
8
8
8
8
8
8
8
8
8
8
8
8
8
8
8
8
8
8
8
8
8
8
8
8
8
8
8
8
8
8
8
8
8
8
8
8
8
8
8
8
8
8
8
8
8
8
8
8
8
8
8
8
8
8
8
8
8
8
8
8
8
8
CELL_DATA 64
VECTORS vector_value float
0.00383914 -0.0532663 0
0.00980545 -0.00478137 0
0.00683838 -0.00767968 0
-0.0552915 -0.329528 0
0.301718 -0.23668 0
0.705837 -0.338432 0
-0.070728 -0.383357 0
0.111292 -0.14741 0
0.000132845 -0.0308114 0
0.41441 -0.426981 0
-0.0779382 -0.157792 0
0.0373242 -0.117045 0
-0.0125284 -0.413109 0
0.117281 -0.601382 0
-0.00650289 -0.119646 0
-0.0520882 -0.193736 0
0.00199521 -0.252245 0
0.0128548 -0.332093 0
0.0251469 -0.227532 0
0.291356 -0.678236 0
0.991604 -0.982566 0
1.49325 -0.78201 0
0.656493 -1.52362 0
0.0812932 -0.290727 0
0.419605 -0.651578 0
-0.0444214 -0.456072 0
0.649984 -0.841156 0
0.34685 -0.792061 0
-0.0874003 -0.401869 0
-0.271359 -0.711637 0
0.156835 -0.812986 0
0.0454499 -0.425077 0
-0.57072 -0.994422 0
-0.910692 -4.06089 0
0.220051 -2.24317 0
-0.833166 -3.99539 0
-0.12395 -2.6167 0
0.0563093 -0.822042 0
-0.692341 -2.61108 0
0.186776 -0.792401 0
-0.348786 -4.21075 0
-0.00848516 -0.588459 0
0.332039 -0.140143 0
-0.096999 -2.1923 0
0.193723 -0.223768 0
0.788724 -1.87931 0
-0.0123632 -0.203669 0
0.945592 -0.863892 0
0.130115 -1.50352 0
0.0789335 -1.42952 0
0.969789 -1.99082 0
-0.0545221 -1.31584 0
0.370224 -0.766863 0
0.162665 -0.860551 0
0.154559 -0.621197 0
0.0205821 -1.212 0
0.739984 -1.17825 0
1.67817 -2.62911 0
0.863189 -1.71528 0
-0.0831896 -0.556938 0
0.437064 -1.5643 0
0.164128 -1.26851 0
1.84802 -2.59979 0
0.103444 -0.626037 0
