# vtk DataFile Version 2.0
Unstructured Grid by M++
ASCII
DATASET UNSTRUCTURED_GRID
POINTS 81 float
  1.000000   0.625000 0
  0.750000   0.375000 0
  1.000000   0.000000 0
  0.875000   0.875000 0
  0.750000   0.125000 0
  1.000000   1.000000 0
  0.875000   0.250000 0
  0.625000   0.875000 0
  1.000000   0.750000 0
  0.875000   0.000000 0
  1.000000   0.250000 0
  0.625000   0.375000 0
  0.875000   0.500000 0
  0.625000   0.625000 0
  1.000000   0.500000 0
  0.750000   0.500000 0
  0.750000   1.000000 0
  1.000000   0.125000 0
  0.625000   0.250000 0
  0.750000   0.750000 0
  0.625000   0.000000 0
  0.125000   0.375000 0
  0.000000   0.500000 0
  0.125000   0.625000 0
  0.625000   1.000000 0
  1.000000   0.875000 0
  0.875000   0.125000 0
  0.500000   0.250000 0
  0.625000   0.500000 0
  0.250000   0.625000 0
  0.000000   0.625000 0
  0.375000   0.500000 0
  0.375000   0.000000 0
  0.000000   0.125000 0
  0.125000   0.875000 0
  0.875000   1.000000 0
  0.750000   0.250000 0
  0.375000   0.375000 0
  0.250000   0.375000 0
  0.625000   0.750000 0
  0.125000   0.125000 0
  0.500000   0.000000 0
  0.250000   0.875000 0
  0.125000   0.500000 0
  0.500000   0.375000 0
  0.125000   0.000000 0
  0.250000   0.750000 0
  0.250000   0.500000 0
  0.000000   0.875000 0
  0.875000   0.625000 0
  0.500000   0.750000 0
  0.750000   0.625000 0
  0.250000   0.000000 0
  0.375000   0.750000 0
  0.750000   0.875000 0
  0.625000   0.125000 0
  0.250000   0.250000 0
  0.375000   1.000000 0
  0.375000   0.250000 0
  0.000000   0.375000 0
  0.500000   1.000000 0
  0.875000   0.750000 0
  0.750000   0.000000 0
  0.375000   0.125000 0
  0.500000   0.875000 0
  0.000000   0.000000 0
  0.125000   0.750000 0
  0.500000   0.625000 0
  0.125000   0.250000 0
  0.500000   0.125000 0
  0.250000   1.000000 0
  0.250000   0.125000 0
  0.000000   1.000000 0
  0.375000   0.875000 0
  0.000000   0.750000 0
  0.375000   0.625000 0
  0.000000   0.250000 0
  0.125000   1.000000 0
  1.000000   0.375000 0
  0.500000   0.500000 0
  0.875000   0.375000 0
CELLS 64 320
4 56 71 58 63
4 27 58 69 63
4 41 69 32 63
4 76 33 68 40
4 27 44 58 37
4 79 31 44 37
4 56 38 68 21
4 56 58 38 37
4 52 32 71 63
4 47 38 31 37
4 76 68 59 21
4 22 59 43 21
4 65 45 33 40
4 47 43 38 21
4 52 71 45 40
4 56 68 71 40
4 74 30 66 23
4 46 66 29 23
4 22 43 30 23
4 72 48 77 34
4 46 53 42 73
4 50 64 53 73
4 70 42 57 73
4 74 66 48 34
4 46 42 66 34
4 47 29 43 23
4 70 77 42 34
4 60 57 64 73
4 79 67 31 75
4 47 31 29 75
4 50 53 67 75
4 46 29 53 75
4 10 78 6 80
4 36 6 1 80
4 15 1 12 80
4 36 4 6 26
4 14 12 78 80
4 2 17 9 26
4 36 18 4 55
4 15 28 1 11
4 62 4 20 55
4 10 6 17 26
4 27 18 44 11
4 62 9 4 26
4 27 69 18 55
4 36 1 18 11
4 41 20 69 55
4 79 44 28 11
4 16 24 54 7
4 19 54 39 7
4 50 39 64 7
4 8 25 61 3
4 60 64 24 7
4 79 28 67 13
4 19 51 61 49
4 8 61 0 49
4 15 51 28 13
4 19 39 51 13
4 50 67 39 13
4 19 61 54 3
4 14 0 12 49
4 5 35 25 3
4 15 12 51 49
4 16 54 35 3
CELL_TYPES 64
8
8
8
8
8
8
8
8
8
8
8
8
8
8
8
8
8
8
8
8
8
8
8
8
8
8
8
8
8
8
8
8
8
8
8
8
8
8
8
8
8
8
8
8
8
8
8
8
8
8
8
8
8
8
8
8
8
8
8
8
8
8
8
8
CELL_DATA 64
VECTORS vector_value float
0.196562 -0.105887 0
0.554984 -0.793653 0
0.0724179 -0.283424 0
0.0949024 -0.52696 0
0.332429 -0.598544 0
0.467688 -0.343514 0
0.132514 -0.241667 0
0.377066 -0.427136 0
0.0923522 -0.239264 0
0.55971 -0.636469 0
0.16837 -0.982155 0
-0.18738 -0.887051 0
0.0182498 -0.421429 0
0.1117 -0.673825 0
0.0496804 -0.433464 0
0.340741 -0.556018 0
0.0878145 -0.581327 0
0.348585 -2.16172 0
-0.0642285 -0.486144 0
0.0177918 -0.996178 0
0.0515407 -0.0871459 0
0.0978549 -0.0291378 0
-0.351329 -1.0256 0
0.156807 -0.873184 0
-0.0807394 -1.92905 0
0.14857 -1.73656 0
-0.180933 -1.17166 0
0.54438 -0.121565 0
0.143835 -0.134201 0
0.536194 -0.43894 0
0.0626125 -0.0405998 0
0.0787716 -0.0588781 0
0.292407 -1.0703 0
0.0440861 -0.48978 0
0.0677754 -1.53164 0
-0.0165699 -0.366897 0
0.111936 -0.403528 0
-0.00142908 -1.20793 0
0.462142 -2.61878 0
-1.59993 -2.69519 0
0.229611 -3.70814 0
0.0200625 -1.21054 0
-0.124529 -2.25007 0
-0.0371459 -0.158185 0
0.767905 -1.82127 0
-0.0786021 -1.94035 0
0.4188 -1.54817 0
-0.270756 -0.828787 0
0.785859 -1.41003 0
-0.26043 -3.77568 0
0.212805 -0.16822 0
0.0493134 -0.525546 0
1.35353 -0.675572 0
0.0155273 -0.155485 0
0.0429824 -0.773651 0
-0.0054325 -0.591316 0
0.268554 -1.26916 0
0.951246 -3.64512 0
0.0448529 -0.147396 0
0.145619 -0.612032 0
-0.107034 -0.327273 0
-0.256097 -0.458589 0
0.221692 -3.45223 0
-0.68761 -2.1408 0
