# vtk DataFile Version 2.0
Unstructured Grid by M++
ASCII
DATASET UNSTRUCTURED_GRID
POINTS 81 float
  1.000000   0.625000 0
  0.750000   0.375000 0
  1.000000   0.000000 0
  0.875000   0.875000 0
  0.750000   0.125000 0
  1.000000   1.000000 0
  0.875000   0.250000 0
  0.625000   0.875000 0
  1.000000   0.750000 0
  0.875000   0.000000 0
  1.000000   0.250000 0
  0.625000   0.375000 0
  0.875000   0.500000 0
  0.625000   0.625000 0
  1.000000   0.500000 0
  0.750000   0.500000 0
  0.750000   1.000000 0
  1.000000   0.125000 0
  0.625000   0.250000 0
  0.750000   0.750000 0
  0.625000   0.000000 0
  0.125000   0.375000 0
  0.000000   0.500000 0
  0.125000   0.625000 0
  0.625000   1.000000 0
  1.000000   0.875000 0
  0.875000   0.125000 0
  0.500000   0.250000 0
  0.625000   0.500000 0
  0.250000   0.625000 0
  0.000000   0.625000 0
  0.375000   0.500000 0
  0.375000   0.000000 0
  0.000000   0.125000 0
  0.125000   0.875000 0
  0.875000   1.000000 0
  0.750000   0.250000 0
  0.375000   0.375000 0
  0.250000   0.375000 0
  0.625000   0.750000 0
  0.125000   0.125000 0
  0.500000   0.000000 0
  0.250000   0.875000 0
  0.125000   0.500000 0
  0.500000   0.375000 0
  0.125000   0.000000 0
  0.250000   0.750000 0
  0.250000   0.500000 0
  0.000000   0.875000 0
  0.875000   0.625000 0
  0.500000   0.750000 0
  0.750000   0.625000 0
  0.250000   0.000000 0
  0.375000   0.750000 0
  0.750000   0.875000 0
  0.625000   0.125000 0
  0.250000   0.250000 0
  0.375000   1.000000 0
  0.375000   0.250000 0
  0.000000   0.375000 0
  0.500000   1.000000 0
  0.875000   0.750000 0
  0.750000   0.000000 0
  0.375000   0.125000 0
  0.500000   0.875000 0
  0.000000   0.000000 0
  0.125000   0.750000 0
  0.500000   0.625000 0
  0.125000   0.250000 0
  0.500000   0.125000 0
  0.250000   1.000000 0
  0.250000   0.125000 0
  0.000000   1.000000 0
  0.375000   0.875000 0
  0.000000   0.750000 0
  0.375000   0.625000 0
  0.000000   0.250000 0
  0.125000   1.000000 0
  1.000000   0.375000 0
  0.500000   0.500000 0
  0.875000   0.375000 0
CELLS 64 320
4 56 71 58 63
4 27 58 69 63
4 41 69 32 63
4 76 33 68 40
4 27 44 58 37
4 79 31 44 37
4 56 38 68 21
4 56 58 38 37
4 52 32 71 63
4 47 38 31 37
4 76 68 59 21
4 22 59 43 21
4 65 45 33 40
4 47 43 38 21
4 52 71 45 40
4 56 68 71 40
4 74 30 66 23
4 46 66 29 23
4 22 43 30 23
4 72 48 77 34
4 46 53 42 73
4 50 64 53 73
4 70 42 57 73
4 74 66 48 34
4 46 42 66 34
4 47 29 43 23
4 70 77 42 34
4 60 57 64 73
4 79 67 31 75
4 47 31 29 75
4 50 53 67 75
4 46 29 53 75
4 10 78 6 80
4 36 6 1 80
4 15 1 12 80
4 36 4 6 26
4 14 12 78 80
4 2 17 9 26
4 36 18 4 55
4 15 28 1 11
4 62 4 20 55
4 10 6 17 26
4 27 18 44 11
4 62 9 4 26
4 27 69 18 55
4 36 1 18 11
4 41 20 69 55
4 79 44 28 11
4 16 24 54 7
4 19 54 39 7
4 50 39 64 7
4 8 25 61 3
4 60 64 24 7
4 79 28 67 13
4 19 51 61 49
4 8 61 0 49
4 15 51 28 13
4 19 39 51 13
4 50 67 39 13
4 19 61 54 3
4 14 0 12 49
4 5 35 25 3
4 15 12 51 49
4 16 54 35 3
CELL_TYPES 64
8
8
8
8
8
8
8
8
8
8
8
8
8
8
8
8
8
8
8
8
8
8
8
8
8
8
8
8
8
8
8
8
8
8
8
8
8
8
8
8
8
8
8
8
8
8
8
8
8
8
8
8
8
8
8
8
8
8
8
8
8
8
8
8
CELL_DATA 64
VECTORS vector_value float
-0.0152362 -0.100398 0
-0.0968563 -2.70101 0
-0.310133 -2.99918 0
0.25343 -1.46756 0
0.272324 -3.01286 0
-0.234663 -3.28445 0
-0.104199 -0.04093 0
-0.0929951 -0.259631 0
-0.102433 -0.323281 0
-0.109303 -0.597536 0
-0.358382 -1.43374 0
-0.10162 -0.741416 0
0.0627837 -0.941005 0
-0.55951 -0.489593 0
0.300247 -0.675505 0
-0.0257491 -0.166741 0
0.000251433 -0.106291 0
0.189913 -1.2926 0
-0.257468 -0.418388 0
0.396448 -0.471232 0
0.343243 -0.522417 0
0.245662 -0.913897 0
0.0392871 -0.608716 0
0.0445183 -0.151113 0
0.318723 -1.86782 0
-0.136641 -0.545184 0
0.288501 -1.80531 0
0.31495 -0.831044 0
-0.367418 -1.42486 0
0.186235 -0.972776 0
0.185066 -1.38272 0
0.45598 -0.718706 0
-0.014802 -0.039859 0
0.00245962 -0.155524 0
-0.124035 -0.114856 0
-0.019861 -0.245071 0
-0.0935828 -0.152714 0
0.00594679 -0.0229263 0
0.24608 -1.21966 0
-0.135544 -0.68392 0
0.385394 -2.27641 0
-0.00135769 -0.0116908 0
0.491064 -2.41727 0
-0.0331878 -0.11134 0
0.215434 -2.08786 0
0.20469 -0.640182 0
0.104177 -0.650358 0
-0.0422951 -1.93551 0
-0.168093 -0.508136 0
-0.05128 -0.543716 0
0.201978 -1.98243 0
-0.0550823 -0.873637 0
-0.0325998 -1.65946 0
-1.97498 -2.2659 0
-0.196108 -0.270999 0
-0.00627447 -0.879225 0
-1.58485 -1.71996 0
-0.0596988 -2.17885 0
0.29044 -1.17061 0
-0.608459 -1.14497 0
-0.30928 -0.459554 0
-0.0131136 -1.47644 0
-0.722349 -0.193384 0
0.274606 -0.639658 0
