# vtk DataFile Version 2.0
Unstructured Grid by M++
ASCII
DATASET UNSTRUCTURED_GRID
POINTS 81 float
  1.000000   0.625000 0
  0.750000   0.375000 0
  1.000000   0.000000 0
  0.875000   0.875000 0
  0.750000   0.125000 0
  1.000000   1.000000 0
  0.875000   0.250000 0
  0.625000   0.875000 0
  1.000000   0.750000 0
  0.875000   0.000000 0
  1.000000   0.250000 0
  0.625000   0.375000 0
  0.875000   0.500000 0
  0.625000   0.625000 0
  1.000000   0.500000 0
  0.750000   0.500000 0
  0.750000   1.000000 0
  1.000000   0.125000 0
  0.625000   0.250000 0
  0.750000   0.750000 0
  0.625000   0.000000 0
  0.125000   0.375000 0
  0.000000   0.500000 0
  0.125000   0.625000 0
  0.625000   1.000000 0
  1.000000   0.875000 0
  0.875000   0.125000 0
  0.500000   0.250000 0
  0.625000   0.500000 0
  0.250000   0.625000 0
  0.000000   0.625000 0
  0.375000   0.500000 0
  0.375000   0.000000 0
  0.000000   0.125000 0
  0.125000   0.875000 0
  0.875000   1.000000 0
  0.750000   0.250000 0
  0.375000   0.375000 0
  0.250000   0.375000 0
  0.625000   0.750000 0
  0.125000   0.125000 0
  0.500000   0.000000 0
  0.250000   0.875000 0
  0.125000   0.500000 0
  0.500000   0.375000 0
  0.125000   0.000000 0
  0.250000   0.750000 0
  0.250000   0.500000 0
  0.000000   0.875000 0
  0.875000   0.625000 0
  0.500000   0.750000 0
  0.750000   0.625000 0
  0.250000   0.000000 0
  0.375000   0.750000 0
  0.750000   0.875000 0
  0.625000   0.125000 0
  0.250000   0.250000 0
  0.375000   1.000000 0
  0.375000   0.250000 0
  0.000000   0.375000 0
  0.500000   1.000000 0
  0.875000   0.750000 0
  0.750000   0.000000 0
  0.375000   0.125000 0
  0.500000   0.875000 0
  0.000000   0.000000 0
  0.125000   0.750000 0
  0.500000   0.625000 0
  0.125000   0.250000 0
  0.500000   0.125000 0
  0.250000   1.000000 0
  0.250000   0.125000 0
  0.000000   1.000000 0
  0.375000   0.875000 0
  0.000000   0.750000 0
  0.375000   0.625000 0
  0.000000   0.250000 0
  0.125000   1.000000 0
  1.000000   0.375000 0
  0.500000   0.500000 0
  0.875000   0.375000 0
CELLS 64 320
4 56 71 58 63
4 27 58 69 63
4 41 69 32 63
4 76 33 68 40
4 27 44 58 37
4 79 31 44 37
4 56 38 68 21
4 56 58 38 37
4 52 32 71 63
4 47 38 31 37
4 76 68 59 21
4 22 59 43 21
4 65 45 33 40
4 47 43 38 21
4 52 71 45 40
4 56 68 71 40
4 74 30 66 23
4 46 66 29 23
4 22 43 30 23
4 72 48 77 34
4 46 53 42 73
4 50 64 53 73
4 70 42 57 73
4 74 66 48 34
4 46 42 66 34
4 47 29 43 23
4 70 77 42 34
4 60 57 64 73
4 79 67 31 75
4 47 31 29 75
4 50 53 67 75
4 46 29 53 75
4 10 78 6 80
4 36 6 1 80
4 15 1 12 80
4 36 4 6 26
4 14 12 78 80
4 2 17 9 26
4 36 18 4 55
4 15 28 1 11
4 62 4 20 55
4 10 6 17 26
4 27 18 44 11
4 62 9 4 26
4 27 69 18 55
4 36 1 18 11
4 41 20 69 55
4 79 44 28 11
4 16 24 54 7
4 19 54 39 7
4 50 39 64 7
4 8 25 61 3
4 60 64 24 7
4 79 28 67 13
4 19 51 61 49
4 8 61 0 49
4 15 51 28 13
4 19 39 51 13
4 50 67 39 13
4 19 61 54 3
4 14 0 12 49
4 5 35 25 3
4 15 12 51 49
4 16 54 35 3
CELL_TYPES 64
8
8
8
8
8
8
8
8
8
8
8
8
8
8
8
8
8
8
8
8
8
8
8
8
8
8
8
8
8
8
8
8
8
8
8
8
8
8
8
8
8
8
8
8
8
8
8
8
8
8
8
8
8
8
8
8
8
8
8
8
8
8
8
8
CELL_DATA 64
VECTORS vector_value float
0.106002 -1.35048 0
0.162089 -0.427243 0
-0.0111666 -0.442011 0
-0.0395354 -0.272526 0
0.143086 -0.368097 0
0.0581331 -0.209981 0
0.223042 -1.56798 0
0.333962 -1.27117 0
-0.0875537 -1.11827 0
0.124576 -1.14082 0
0.011434 -0.20684 0
0.0431889 -0.281084 0
-0.130913 -0.524035 0
0.186255 -1.78775 0
-0.211598 -1.13742 0
-0.0230634 -1.173 0
-0.195891 -0.725268 0
-0.573974 -1.84315 0
0.22762 -0.715807 0
0.291606 -0.604818 0
-0.774361 -1.50061 0
0.0447803 -0.917912 0
0.530439 -1.37893 0
0.00865406 -0.372313 0
-0.237234 -0.931709 0
0.352146 -1.60844 0
0.656416 -0.833423 0
0.166159 -1.21333 0
0.0107275 -0.26915 0
0.0959078 -0.927635 0
-0.0763977 -0.548697 0
-0.0641543 -0.46073 0
-0.367029 -1.39113 0
-0.623627 -1.39366 0
-0.14751 -1.20883 0
-0.388877 -1.29267 0
-0.0348392 -1.95657 0
0.312218 -1.25851 0
0.310034 -2.05053 0
-0.17365 -0.594434 0
0.546278 -1.40031 0
-0.117668 -0.770701 0
0.0559184 -0.892756 0
1.02167 -1.99103 0
0.489379 -0.662845 0
-0.210917 -0.90837 0
0.0260177 -0.128412 0
-0.0975547 -0.820532 0
-0.240695 -0.810343 0
1.07359 -1.26641 0
0.694625 -1.16403 0
0.135022 -0.849762 0
-0.0943244 -1.29358 0
0.0315716 -0.43748 0
0.851251 -1.79457 0
0.258483 -1.4086 0
-0.0593234 -0.654278 0
0.295427 -0.637552 0
0.112765 -0.581437 0
0.319623 -0.997252 0
0.158908 -1.4913 0
-0.163802 -0.660493 0
0.125406 -1.89591 0
-0.233629 -1.20508 0
