# vtk DataFile Version 2.0
Unstructured Grid by M++
ASCII
DATASET UNSTRUCTURED_GRID
POINTS 289 float
  0.562500   1.000000 0
  0.562500   0.625000 0
  0.625000   1.000000 0
  0.562500   0.937500 0
  0.562500   0.562500 0
  0.625000   0.937500 0
  0.562500   0.875000 0
  0.625000   0.750000 0
  0.625000   0.625000 0
  0.562500   0.812500 0
  0.562500   0.750000 0
  0.562500   0.687500 0
  0.625000   0.875000 0
  0.625000   0.812500 0
  0.625000   0.687500 0
  0.687500   0.125000 0
  0.875000   0.062500 0
  0.625000   0.125000 0
  0.625000   0.187500 0
  0.625000   0.250000 0
  0.812500   0.187500 0
  1.000000   0.125000 0
  0.687500   0.187500 0
  0.750000   0.125000 0
  0.937500   0.062500 0
  0.937500   0.125000 0
  0.750000   0.187500 0
  0.812500   0.062500 0
  0.812500   0.125000 0
  0.875000   0.687500 0
  0.187500   0.250000 0
  0.437500   0.250000 0
  0.375000   0.187500 0
  0.812500   0.625000 0
  0.125000   0.187500 0
  0.937500   0.750000 0
  0.250000   0.312500 0
  0.500000   0.312500 0
  0.625000   0.062500 0
  0.437500   0.500000 0
  0.375000   0.125000 0
  0.437500   0.187500 0
  0.437500   0.437500 0
  0.437500   0.375000 0
  0.875000   0.875000 0
  0.187500   0.375000 0
  0.687500   0.562500 0
  0.687500   0.625000 0
  0.000000   0.125000 0
  0.937500   0.625000 0
  0.250000   0.125000 0
  0.375000   0.062500 0
  0.375000   0.000000 0
  0.812500   0.500000 0
  0.125000   0.000000 0
  0.937500   0.937500 0
  0.250000   0.437500 0
  0.687500   0.875000 0
  0.687500   0.937500 0
  0.000000   0.437500 0
  0.500000   0.500000 0
  0.500000   0.437500 0
  0.750000   0.937500 0
  0.750000   1.000000 0
  0.062500   0.500000 0
  1.000000   1.000000 0
  0.312500   0.500000 0
  0.875000   0.562500 0
  0.187500   0.062500 0
  0.437500   0.125000 0
  0.437500   0.062500 0
  0.500000   0.375000 0
  0.937500   0.812500 0
  0.937500   0.875000 0
  0.250000   0.375000 0
  0.687500   0.812500 0
  0.000000   0.375000 0
  0.750000   0.562500 0
  0.062500   0.125000 0
  1.000000   0.562500 0
  1.000000   0.625000 0
  0.312500   0.125000 0
  0.562500   0.125000 0
  0.437500   0.000000 0
  0.875000   0.437500 0
  0.875000   0.500000 0
  0.187500   0.000000 0
  0.937500   0.562500 0
  0.937500   0.500000 0
  0.250000   0.062500 0
  0.687500   0.500000 0
  0.000000   0.062500 0
  0.500000   0.062500 0
  1.000000   0.875000 0
  1.000000   0.937500 0
  0.312500   0.437500 0
  0.750000   0.875000 0
  0.062500   0.437500 0
  0.812500   0.937500 0
  0.125000   0.500000 0
  0.375000   0.500000 0
  0.625000   0.562500 0
  0.625000   0.500000 0
  0.437500   0.312500 0
  0.875000   0.812500 0
  0.875000   0.750000 0
  0.187500   0.312500 0
  0.812500   0.687500 0
  0.812500   0.750000 0
  0.125000   0.250000 0
  0.375000   0.250000 0
  1.000000   0.687500 0
  0.312500   0.187500 0
  0.750000   0.687500 0
  0.750000   0.625000 0
  0.062500   0.187500 0
  0.562500   0.250000 0
  0.562500   0.187500 0
  0.375000   1.000000 0
  0.500000   0.562500 0
  0.500000   0.250000 0
  0.750000   0.250000 0
  0.500000   0.125000 0
  0.500000   0.187500 0
  1.000000   0.187500 0
  0.625000   0.375000 0
  0.875000   0.375000 0
  1.000000   0.437500 0
  0.312500   0.000000 0
  0.562500   0.000000 0
  0.812500   0.000000 0
  0.250000   0.687500 0
  0.000000   0.687500 0
  0.500000   1.000000 0
  0.250000   1.000000 0
  0.000000   1.000000 0
  0.437500   0.687500 0
  0.437500   0.625000 0
  0.187500   0.625000 0
  0.687500   0.750000 0
  0.000000   0.312500 0
  0.000000   0.250000 0
  0.375000   0.375000 0
  0.375000   0.312500 0
  0.812500   0.812500 0
  0.125000   0.312500 0
  0.875000   0.625000 0
  0.187500   0.187500 0
  0.187500   0.125000 0
  0.937500   1.000000 0
  0.250000   0.562500 0
  0.250000   0.500000 0
  0.687500   1.000000 0
  0.000000   0.500000 0
  0.687500   0.687500 0
  0.000000   0.187500 0
  0.937500   0.687500 0
  0.250000   0.250000 0
  0.250000   0.187500 0
  0.187500   0.687500 0
  0.000000   0.750000 0
  0.250000   0.750000 0
  0.125000   0.625000 0
  0.750000   0.750000 0
  0.062500   0.250000 0
  0.875000   0.937500 0
  0.187500   0.500000 0
  0.187500   0.437500 0
  0.812500   0.562500 0
  0.125000   0.125000 0
  0.125000   0.062500 0
  0.375000   0.625000 0
  0.375000   0.687500 0
  1.000000   0.750000 0
  0.312500   0.250000 0
  0.312500   0.312500 0
  0.812500   0.312500 0
  0.562500   0.312500 0
  0.375000   0.750000 0
  0.500000   0.625000 0
  0.250000   0.625000 0
  0.312500   0.687500 0
  0.750000   0.812500 0
  0.062500   0.312500 0
  0.062500   0.375000 0
  1.000000   0.812500 0
  0.312500   0.375000 0
  0.562500   0.375000 0
  0.687500   0.437500 0
  0.000000   0.000000 0
  0.500000   0.000000 0
  0.937500   0.437500 0
  0.250000   0.000000 0
  0.375000   0.437500 0
  0.812500   0.875000 0
  0.125000   0.375000 0
  0.125000   0.437500 0
  0.625000   0.437500 0
  1.000000   0.500000 0
  0.312500   0.062500 0
  0.750000   0.500000 0
  0.062500   0.000000 0
  0.062500   0.062500 0
  0.562500   0.062500 0
  0.062500   0.750000 0
  0.312500   0.750000 0
  0.312500   0.625000 0
  0.312500   0.562500 0
  0.062500   0.562500 0
  0.187500   1.000000 0
  0.437500   0.562500 0
  0.875000   1.000000 0
  0.187500   0.562500 0
  0.500000   0.937500 0
  0.250000   0.937500 0
  0.312500   1.000000 0
  0.125000   0.750000 0
  0.125000   0.687500 0
  1.000000   0.000000 0
  0.000000   0.937500 0
  0.000000   0.875000 0
  0.875000   0.125000 0
  0.875000   0.187500 0
  0.062500   0.812500 0
  0.312500   0.812500 0
  0.000000   0.812500 0
  0.000000   0.625000 0
  0.000000   0.562500 0
  0.062500   1.000000 0
  0.062500   0.937500 0
  0.937500   0.187500 0
  0.937500   0.250000 0
  0.062500   0.687500 0
  0.062500   0.625000 0
  0.125000   1.000000 0
  1.000000   0.250000 0
  1.000000   0.312500 0
  0.062500   0.875000 0
  0.125000   0.812500 0
  0.375000   0.812500 0
  0.125000   0.875000 0
  0.375000   0.937500 0
  0.375000   0.875000 0
  0.187500   0.750000 0
  0.187500   0.812500 0
  0.437500   0.812500 0
  0.187500   0.875000 0
  0.437500   0.875000 0
  0.375000   0.562500 0
  0.812500   1.000000 0
  0.125000   0.562500 0
  0.437500   1.000000 0
  0.437500   0.937500 0
  0.187500   0.937500 0
  0.125000   0.937500 0
  0.500000   0.687500 0
  0.500000   0.750000 0
  0.500000   0.812500 0
  0.250000   0.812500 0
  0.250000   0.875000 0
  0.500000   0.875000 0
  0.437500   0.750000 0
  0.312500   0.875000 0
  0.312500   0.937500 0
  0.687500   0.250000 0
  0.687500   0.312500 0
  0.937500   0.312500 0
  0.875000   0.250000 0
  0.625000   0.000000 0
  0.875000   0.000000 0
  0.687500   0.375000 0
  0.937500   0.375000 0
  0.875000   0.312500 0
  0.625000   0.312500 0
  0.687500   0.000000 0
  0.937500   0.000000 0
  0.750000   0.312500 0
  0.750000   0.375000 0
  1.000000   0.375000 0
  0.812500   0.250000 0
  0.562500   0.437500 0
  0.562500   0.500000 0
  0.687500   0.062500 0
  0.750000   0.437500 0
  0.750000   0.000000 0
  0.750000   0.062500 0
  1.000000   0.062500 0
  0.812500   0.375000 0
  0.812500   0.437500 0
CELLS 256 1280
4 169 170 148 68
4 151 166 56 167
4 195 45 196 167
4 54 170 201 202
4 109 34 30 147
4 40 32 81 112
4 192 89 86 68
4 48 91 78 202
4 99 64 196 97
4 71 43 37 103
4 74 186 56 95
4 109 164 34 115
4 50 81 158 112
4 122 69 92 70
4 195 145 45 106
4 110 143 174 175
4 157 30 158 147
4 40 69 32 41
4 50 158 148 147
4 141 155 164 115
4 122 123 69 41
4 142 186 143 175
4 60 39 61 42
4 40 51 69 70
4 120 31 123 41
4 157 174 36 175
4 50 148 89 68
4 48 78 155 115
4 52 83 51 70
4 151 56 66 95
4 71 61 43 42
4 169 148 34 147
4 100 193 39 42
4 40 81 51 199
4 110 174 32 112
4 109 30 145 106
4 100 66 193 95
4 169 34 78 115
4 190 92 83 70
4 50 89 81 199
4 54 86 170 68
4 74 56 45 167
4 142 143 43 103
4 153 59 64 97
4 99 196 166 167
4 169 78 170 202
4 142 193 186 95
4 192 128 89 199
4 74 45 36 106
4 110 31 143 103
4 76 184 59 97
4 142 43 193 42
4 52 51 128 199
4 189 201 91 202
4 120 37 31 103
4 74 36 186 175
4 195 196 184 97
4 141 164 140 183
4 157 158 174 112
4 109 145 164 183
4 195 184 145 183
4 110 32 31 41
4 157 36 30 106
4 76 140 184 183
4 171 172 206 181
4 178 172 261 136
4 256 261 255 136
4 256 257 261 245
4 180 150 206 207
4 60 119 39 210
4 118 215 241 263
4 178 205 172 181
4 216 243 238 244
4 162 217 233 232
4 180 206 131 181
4 179 137 119 210
4 216 204 217 232
4 220 237 219 229
4 216 217 243 159
4 259 258 262 224
4 240 254 237 229
4 153 64 227 208
4 161 205 258 224
4 240 237 238 223
4 226 227 233 208
4 234 228 254 229
4 171 248 137 210
4 160 132 204 232
4 180 131 138 159
4 133 251 213 252
4 171 206 248 207
4 162 138 217 159
4 161 258 243 244
4 220 225 237 223
4 151 150 166 212
4 260 247 257 245
4 259 262 214 263
4 151 66 150 207
4 234 254 209 253
4 162 233 250 208
4 242 241 262 263
4 171 137 172 136
4 161 243 131 159
4 160 204 225 223
4 161 131 205 181
4 179 255 137 136
4 216 238 204 223
4 100 39 248 210
4 260 213 247 252
4 226 233 132 232
4 134 214 215 263
4 180 138 150 212
4 178 261 239 245
4 259 246 258 244
4 178 239 205 224
4 240 238 246 244
4 242 262 239 224
4 99 250 64 208
4 240 246 254 253
4 242 239 247 245
4 135 219 228 229
4 99 166 250 212
4 259 214 246 253
4 118 241 251 252
4 100 248 66 207
4 134 209 214 253
4 162 250 138 212
4 242 247 241 252
4 71 187 61 280
4 102 281 197 280
4 122 92 82 203
4 17 18 82 117
4 122 82 123 117
4 19 264 273 265
4 267 279 222 20
4 125 273 270 265
4 267 272 279 176
4 19 116 18 117
4 21 25 286 24
4 23 28 26 20
4 23 285 28 27
4 218 286 275 24
4 85 53 84 288
4 235 236 231 266
4 221 222 28 20
4 267 222 231 230
4 268 38 129 203
4 125 270 197 188
4 126 287 272 176
4 277 270 276 265
4 267 231 272 266
4 125 197 187 280
4 190 129 92 203
4 277 276 287 176
4 19 18 264 22
4 17 82 38 203
4 102 197 90 188
4 126 84 287 288
4 284 130 285 27
4 121 276 264 265
4 71 37 187 177
4 120 123 116 117
4 198 88 127 191
4 221 16 25 24
4 23 26 15 22
4 121 279 276 176
4 235 231 124 230
4 125 187 273 177
4 278 271 236 266
4 277 287 283 288
4 284 285 274 282
4 278 127 271 191
4 269 275 16 24
4 200 283 53 288
4 23 15 285 282
4 121 26 279 20
4 21 124 25 230
4 19 273 116 177
4 200 90 283 188
4 126 271 84 191
4 269 16 130 27
4 17 38 15 282
4 221 25 222 230
4 121 264 26 22
4 120 116 37 177
4 60 61 281 280
4 277 283 270 188
4 126 272 271 266
4 268 274 38 282
4 85 84 88 191
4 17 15 18 22
4 221 28 16 27
4 93 94 73 55
4 85 88 67 87
4 80 49 79 87
4 44 104 73 72
4 146 33 67 168
4 211 165 149 55
4 8 47 14 154
4 105 104 108 144
4 105 108 29 107
4 7 139 13 75
4 44 165 194 98
4 200 53 77 168
4 8 1 101 4
4 2 5 152 58
4 260 6 213 3
4 105 35 104 72
4 96 57 182 75
4 7 14 139 154
4 146 29 33 107
4 7 13 10 9
4 12 13 57 75
4 85 67 53 168
4 44 73 165 55
4 63 152 62 58
4 8 101 47 46
4 96 182 194 144
4 60 281 119 4
4 12 5 6 3
4 173 185 35 72
4 65 149 94 55
4 146 67 49 87
4 114 113 47 154
4 163 108 182 144
4 12 6 13 9
4 173 35 111 156
4 163 182 139 75
4 260 257 6 9
4 105 29 35 156
4 163 139 113 154
4 256 10 257 9
4 146 49 29 156
4 163 113 108 107
4 80 111 49 156
4 102 101 281 4
4 12 57 5 58
4 44 194 104 144
4 96 194 62 98
4 2 0 5 3
4 93 73 185 72
4 179 119 1 4
4 200 77 90 46
4 114 33 113 107
4 7 10 14 11
4 96 62 57 58
4 133 213 0 3
4 102 90 101 46
4 256 255 10 11
4 63 62 249 98
4 114 47 77 46
4 179 1 255 11
4 211 249 165 98
4 114 77 33 168
4 198 79 88 87
4 8 14 1 11
CELL_TYPES 256
8
8
8
8
8
8
8
8
8
8
8
8
8
8
8
8
8
8
8
8
8
8
8
8
8
8
8
8
8
8
8
8
8
8
8
8
8
8
8
8
8
8
8
8
8
8
8
8
8
8
8
8
8
8
8
8
8
8
8
8
8
8
8
8
8
8
8
8
8
8
8
8
8
8
8
8
8
8
8
8
8
8
8
8
8
8
8
8
8
8
8
8
8
8
8
8
8
8
8
8
8
8
8
8
8
8
8
8
8
8
8
8
8
8
8
8
8
8
8
8
8
8
8
8
8
8
8
8
8
8
8
8
8
8
8
8
8
8
8
8
8
8
8
8
8
8
8
8
8
8
8
8
8
8
8
8
8
8
8
8
8
8
8
8
8
8
8
8
8
8
8
8
8
8
8
8
8
8
8
8
8
8
8
8
8
8
8
8
8
8
8
8
8
8
8
8
8
8
8
8
8
8
8
8
8
8
8
8
8
8
8
8
8
8
8
8
8
8
8
8
8
8
8
8
8
8
8
8
8
8
8
8
8
8
8
8
8
8
8
8
8
8
8
8
8
8
8
8
8
8
8
8
8
8
8
8
CELL_DATA 256
VECTORS vector_value float
-0.0115021 -0.258213 0
0.0555895 -0.156749 0
0.108316 -0.436264 0
-0.0227087 -0.210725 0
-0.0177194 -0.344982 0
0.00632363 -0.155387 0
0.0433332 -0.201232 0
-0.027896 -0.260245 0
0.261602 -0.418709 0
0.132873 -0.276131 0
0.0373846 -0.0846596 0
-0.0387219 -0.217779 0
0.0319184 -0.218678 0
-0.0234689 -0.101521 0
0.109706 -0.546173 0
-0.0126966 -0.184946 0
0.0204974 -0.397017 0
-0.00484737 -0.207731 0
0.0185279 -0.351298 0
-0.0261404 -0.201108 0
0.00954692 -0.131105 0
-0.01065 -0.189415 0
0.413365 -0.821608 0
-0.0277369 -0.225502 0
0.057533 -0.17759 0
-0.0130481 -0.15587 0
0.0583674 -0.267762 0
-0.00936716 -0.225883 0
-0.024438 -0.222066 0
0.0765953 -0.147054 0
0.391326 -0.497302 0
-0.0271088 -0.308462 0
0.249412 -0.555659 0
0.0137765 -0.207308 0
0.000790455 -0.117445 0
0.0484383 -0.455298 0
0.188154 -0.283216 0
-0.0313772 -0.244816 0
-0.0159328 -0.0898219 0
0.0646136 -0.256177 0
0.00607834 -0.198499 0
0.0525081 -0.22697 0
0.029643 -0.350261 0
0.110499 -0.392743 0
0.173539 -0.298438 0
-0.0584233 -0.264373 0
0.0633454 -0.197379 0
0.0554443 -0.325073 0
0.0569783 -0.211848 0
0.0400704 -0.277213 0
0.0729851 -0.224013 0
0.171058 -0.487264 0
-0.00217856 -0.2791 0
-0.0260056 -0.335356 0
0.0624616 -0.187257 0
0.012236 -0.117428 0
0.131742 -0.351531 0
-0.0245419 -0.12961 0
0.0124615 -0.21059 0
-0.0379486 -0.261534 0
0.0667539 -0.328659 0
0.0152785 -0.24588 0
0.0680489 -0.328894 0
0.003156 -0.106365 0
-0.0351726 -0.116159 0
-0.0421476 -0.448233 0
-0.426864 -1.883 0
-0.128364 -1.31533 0
-0.00545726 -0.162271 0
0.355111 -1.08687 0
3.04475 -0.561619 0
0.0429595 -0.10281 0
0.0232542 -0.289071 0
-0.0453796 -0.429583 0
0.00236262 -0.0652247 0
0.216542 -1.85991 0
0.000422128 -0.484392 0
0.0383926 -0.711024 0
0.0286544 -0.344317 0
0.132015 -0.189568 0
0.15329 -0.493182 0
0.0711259 -0.598548 0
0.050867 -0.104034 0
0.0717201 -0.391397 0
-0.0406789 -0.621752 0
0.465255 -0.778181 0
-0.0501583 -0.705862 0
-0.0170112 -0.470084 0
0.0329912 -0.151529 0
3.64707 -1.2523 0
-0.118051 -0.236307 0
0.0109043 -0.294074 0
0.025284 -0.129226 0
0.061993 -0.646948 0
0.0490662 -0.155482 0
0.216274 -0.896256 0
0.403444 -0.304781 0
0.0674558 -0.222164 0
1.04688 -0.670609 0
-0.0632173 -0.406539 0
0.540294 -0.303695 0
-0.225073 -0.845404 0
0.00950533 -0.111116 0
0.0518328 -0.465937 0
0.021393 -0.071646 0
-0.220937 -1.85306 0
0.0894972 -0.544426 0
0.0224956 -0.533802 0
0.993848 -1.3013 0
-0.0321447 -0.530434 0
2.45121 -0.839196 0
0.0551385 -0.176214 0
0.155251 -0.345204 0
0.0626871 -0.133947 0
0.114309 -0.146494 0
0.0761366 -0.299577 0
0.23275 -0.235259 0
0.112992 -0.38394 0
0.207372 -0.26389 0
0.247484 -0.327315 0
0.121789 -0.849894 0
0.0677978 -0.175909 0
0.334827 -0.231165 0
3.69975 -0.694017 0
0.0205012 -0.342346 0
1.71868 -0.516833 0
0.00493213 -0.160634 0
0.578864 -0.328672 0
0.861628 -0.784853 0
3.15716 -2.6434 0
-0.0289399 -0.149231 0
-0.0683032 -0.399946 0
0.034264 -0.124033 0
0.390772 -2.05161 0
-0.0239988 -0.372221 0
1.57267 -2.91789 0
-0.071206 -0.516656 0
0.0486585 -0.248701 0
-0.016262 -0.202553 0
-0.319842 -2.68814 0
0.12033 -2.41488 0
-0.00436567 -0.178624 0
-0.395064 -0.836697 0
0.0179497 -0.189579 0
-0.00638988 -0.338262 0
0.0199497 -0.115084 0
-0.0864496 -0.850898 0
2.47968 -4.08296 0
-0.189249 -0.655748 0
1.66342 -5.38374 0
0.0306243 -0.177966 0
1.65525 -1.33037 0
-0.0187378 -0.173271 0
0.033363 -3.69815 0
-0.09289 -2.02531 0
-0.170188 -0.611113 0
2.78616 -2.94778 0
-0.466586 -0.972467 0
0.124577 -2.7796 0
0.211532 -6.52892 0
0.267247 -0.292222 0
0.0623404 -0.119345 0
-0.212042 -0.562178 0
-0.0326027 -0.181362 0
-0.844895 -7.46981 0
-0.176111 -4.10298 0
0.0258856 -0.264276 0
0.573156 -0.535874 0
-0.00696092 -0.173132 0
0.25808 -2.59918 0
-0.0373947 -5.71381 0
-0.0556217 -0.237859 0
-0.0127077 -0.17054 0
0.148668 -1.21536 0
-0.336778 -6.87444 0
-0.488288 -3.63834 0
-0.0230465 -0.25059 0
0.183406 -0.292126 0
1.56314 -2.1774 0
-0.253647 -0.362081 0
0.00961066 -0.439924 0
-0.609711 -3.38677 0
-0.0174393 -0.140643 0
-0.574353 -7.30433 0
0.105387 -0.159544 0
1.52729 -2.0319 0
1.28321 -3.12485 0
-0.0422177 -0.216963 0
-0.205738 -3.83146 0
-0.463676 -0.511107 0
-0.59602 -2.74522 0
0.00605848 -0.338554 0
-0.0289729 -0.956341 0
-0.414741 -0.5589 0
-0.0609358 -1.28898 0
-0.0213489 -0.640086 0
-0.222251 -0.573808 0
-0.194976 -0.646041 0
0.106303 -0.996251 0
0.248055 -0.535196 0
0.242005 -0.423665 0
-0.313282 -1.96155 0
-0.0843291 -0.516842 0
-0.113214 -0.553251 0
0.501067 -3.43123 0
-0.985496 -1.2382 0
0.966057 -3.35585 0
0.0297172 -0.945956 0
-0.156888 -0.479719 0
-0.201691 -1.31889 0
-0.0218837 -0.472958 0
-0.738737 -4.77657 0
-0.226843 -2.23814 0
-0.394667 -0.690278 0
-0.036241 -0.657979 0
-1.19279 -0.789767 0
0.388476 -1.25738 0
-0.0133592 -0.284122 0
1.31523 -3.76147 0
0.423 -3.53864 0
-0.0646777 -0.76536 0
0.00153072 -1.02249 0
-0.21063 -0.660781 0
0.03144 -0.0933891 0
0.19949 -0.21992 0
0.183761 -4.40069 0
0.0984416 -0.833601 0
0.105223 -0.302478 0
0.393288 -3.38317 0
0.293498 -1.21534 0
0.0973079 -0.151115 0
-0.534353 -3.15324 0
0.0882144 -0.992072 0
0.204341 -0.195913 0
0.154392 -1.15862 0
1.92574 -3.11322 0
-0.40538 -1.8707 0
0.00977101 -0.520413 0
-0.242069 -0.463226 0
0.186738 -1.95543 0
-0.0296494 -0.933392 0
0.316962 -3.92966 0
0.533954 -0.845449 0
0.0202715 -0.142661 0
-0.792628 -4.0057 0
-0.554712 -0.702715 0
2.35904 -2.41742 0
1.57693 -1.98366 0
-0.933528 -3.94018 0
-0.982046 -0.902037 0
0.127947 -0.285101 0
-0.144797 -4.31624 0
-0.569149 -0.865972 0
-0.0745406 -0.243582 0
-0.20708 -0.994713 0
0.0433679 -3.54234 0
