# vtk DataFile Version 2.0
Unstructured Grid by M++
ASCII
DATASET UNSTRUCTURED_GRID
POINTS 81 float
  1.000000   0.625000 0
  0.750000   0.375000 0
  1.000000   0.000000 0
  0.875000   0.875000 0
  0.750000   0.125000 0
  1.000000   1.000000 0
  0.875000   0.250000 0
  0.625000   0.875000 0
  1.000000   0.750000 0
  0.875000   0.000000 0
  1.000000   0.250000 0
  0.625000   0.375000 0
  0.875000   0.500000 0
  0.625000   0.625000 0
  1.000000   0.500000 0
  0.750000   0.500000 0
  0.750000   1.000000 0
  1.000000   0.125000 0
  0.625000   0.250000 0
  0.750000   0.750000 0
  0.625000   0.000000 0
  0.125000   0.375000 0
  0.000000   0.500000 0
  0.125000   0.625000 0
  0.625000   1.000000 0
  1.000000   0.875000 0
  0.875000   0.125000 0
  0.500000   0.250000 0
  0.625000   0.500000 0
  0.250000   0.625000 0
  0.000000   0.625000 0
  0.375000   0.500000 0
  0.375000   0.000000 0
  0.000000   0.125000 0
  0.125000   0.875000 0
  0.875000   1.000000 0
  0.750000   0.250000 0
  0.375000   0.375000 0
  0.250000   0.375000 0
  0.625000   0.750000 0
  0.125000   0.125000 0
  0.500000   0.000000 0
  0.250000   0.875000 0
  0.125000   0.500000 0
  0.500000   0.375000 0
  0.125000   0.000000 0
  0.250000   0.750000 0
  0.250000   0.500000 0
  0.000000   0.875000 0
  0.875000   0.625000 0
  0.500000   0.750000 0
  0.750000   0.625000 0
  0.250000   0.000000 0
  0.375000   0.750000 0
  0.750000   0.875000 0
  0.625000   0.125000 0
  0.250000   0.250000 0
  0.375000   1.000000 0
  0.375000   0.250000 0
  0.000000   0.375000 0
  0.500000   1.000000 0
  0.875000   0.750000 0
  0.750000   0.000000 0
  0.375000   0.125000 0
  0.500000   0.875000 0
  0.000000   0.000000 0
  0.125000   0.750000 0
  0.500000   0.625000 0
  0.125000   0.250000 0
  0.500000   0.125000 0
  0.250000   1.000000 0
  0.250000   0.125000 0
  0.000000   1.000000 0
  0.375000   0.875000 0
  0.000000   0.750000 0
  0.375000   0.625000 0
  0.000000   0.250000 0
  0.125000   1.000000 0
  1.000000   0.375000 0
  0.500000   0.500000 0
  0.875000   0.375000 0
CELLS 64 320
4 56 71 58 63
4 27 58 69 63
4 41 69 32 63
4 76 33 68 40
4 27 44 58 37
4 79 31 44 37
4 56 38 68 21
4 56 58 38 37
4 52 32 71 63
4 47 38 31 37
4 76 68 59 21
4 22 59 43 21
4 65 45 33 40
4 47 43 38 21
4 52 71 45 40
4 56 68 71 40
4 74 30 66 23
4 46 66 29 23
4 22 43 30 23
4 72 48 77 34
4 46 53 42 73
4 50 64 53 73
4 70 42 57 73
4 74 66 48 34
4 46 42 66 34
4 47 29 43 23
4 70 77 42 34
4 60 57 64 73
4 79 67 31 75
4 47 31 29 75
4 50 53 67 75
4 46 29 53 75
4 10 78 6 80
4 36 6 1 80
4 15 1 12 80
4 36 4 6 26
4 14 12 78 80
4 2 17 9 26
4 36 18 4 55
4 15 28 1 11
4 62 4 20 55
4 10 6 17 26
4 27 18 44 11
4 62 9 4 26
4 27 69 18 55
4 36 1 18 11
4 41 20 69 55
4 79 44 28 11
4 16 24 54 7
4 19 54 39 7
4 50 39 64 7
4 8 25 61 3
4 60 64 24 7
4 79 28 67 13
4 19 51 61 49
4 8 61 0 49
4 15 51 28 13
4 19 39 51 13
4 50 67 39 13
4 19 61 54 3
4 14 0 12 49
4 5 35 25 3
4 15 12 51 49
4 16 54 35 3
CELL_TYPES 64
8
8
8
8
8
8
8
8
8
8
8
8
8
8
8
8
8
8
8
8
8
8
8
8
8
8
8
8
8
8
8
8
8
8
8
8
8
8
8
8
8
8
8
8
8
8
8
8
8
8
8
8
8
8
8
8
8
8
8
8
8
8
8
8
CELL_DATA 64
VECTORS vector_value float
0.302686 -0.175144 0
0.278405 -0.169969 0
0.0952467 -0.363221 0
-0.0284328 -0.0631524 0
1.04663 -0.310893 0
2.79748 -1.06711 0
0.296613 -0.772323 0
0.749376 -0.366116 0
0.0116837 -0.0263639 0
1.50426 -0.979671 0
0.012375 -0.0783893 0
0.0202645 -0.0846978 0
-0.0472872 -0.191531 0
0.622225 -1.75222 0
-0.000852716 -0.104042 0
0.0311443 -0.347851 0
0.738536 -1.39094 0
0.495791 -1.78045 0
0.146251 -0.1953 0
-0.650681 -1.84797 0
-0.450259 -0.796928 0
-0.633082 -0.982412 0
-0.353506 -0.361067 0
0.205328 -2.48876 0
-0.11325 -0.27051 0
0.937971 -2.61853 0
-1.01333 -0.624602 0
-0.348582 -1.345 0
0.210202 -0.337289 0
1.03765 -1.90104 0
-0.433973 -0.797776 0
-0.608693 -1.27042 0
-0.363348 -0.783826 0
-1.05908 -0.865516 0
-0.571592 -1.03606 0
-0.141913 -0.453584 0
-0.430594 -1.27978 0
-0.0178635 -0.184722 0
0.188804 -1.03284 0
0.218205 -0.808925 0
1.01379 -3.72329 0
-0.0939698 -0.366177 0
1.06132 -2.92654 0
-0.110435 -0.409843 0
0.629501 -5.39129 0
-1.34593 -1.8964 0
0.160219 -2.99699 0
1.12159 -0.991534 0
0.160201 -0.906975 0
0.0523622 -0.256149 0
-0.529265 -0.636583 0
0.228545 -2.01241 0
-0.217203 -0.797781 0
0.118308 -0.263807 0
-0.118401 -0.558359 0
-0.0113863 -2.11359 0
-0.129013 -0.227135 0
-0.0332507 -0.0705224 0
-0.001421 -0.0179541 0
0.407112 -0.556254 0
-0.0509305 -2.07141 0
0.32893 -1.48068 0
-0.0333021 -0.385494 0
0.498851 -0.635924 0
