# vtk DataFile Version 2.0
Unstructured Grid by M++
ASCII
DATASET UNSTRUCTURED_GRID
POINTS 81 float
  1.000000   0.625000 0
  0.750000   0.375000 0
  1.000000   0.000000 0
  0.875000   0.875000 0
  0.750000   0.125000 0
  1.000000   1.000000 0
  0.875000   0.250000 0
  0.625000   0.875000 0
  1.000000   0.750000 0
  0.875000   0.000000 0
  1.000000   0.250000 0
  0.625000   0.375000 0
  0.875000   0.500000 0
  0.625000   0.625000 0
  1.000000   0.500000 0
  0.750000   0.500000 0
  0.750000   1.000000 0
  1.000000   0.125000 0
  0.625000   0.250000 0
  0.750000   0.750000 0
  0.625000   0.000000 0
  0.125000   0.375000 0
  0.000000   0.500000 0
  0.125000   0.625000 0
  0.625000   1.000000 0
  1.000000   0.875000 0
  0.875000   0.125000 0
  0.500000   0.250000 0
  0.625000   0.500000 0
  0.250000   0.625000 0
  0.000000   0.625000 0
  0.375000   0.500000 0
  0.375000   0.000000 0
  0.000000   0.125000 0
  0.125000   0.875000 0
  0.875000   1.000000 0
  0.750000   0.250000 0
  0.375000   0.375000 0
  0.250000   0.375000 0
  0.625000   0.750000 0
  0.125000   0.125000 0
  0.500000   0.000000 0
  0.250000   0.875000 0
  0.125000   0.500000 0
  0.500000   0.375000 0
  0.125000   0.000000 0
  0.250000   0.750000 0
  0.250000   0.500000 0
  0.000000   0.875000 0
  0.875000   0.625000 0
  0.500000   0.750000 0
  0.750000   0.625000 0
  0.250000   0.000000 0
  0.375000   0.750000 0
  0.750000   0.875000 0
  0.625000   0.125000 0
  0.250000   0.250000 0
  0.375000   1.000000 0
  0.375000   0.250000 0
  0.000000   0.375000 0
  0.500000   1.000000 0
  0.875000   0.750000 0
  0.750000   0.000000 0
  0.375000   0.125000 0
  0.500000   0.875000 0
  0.000000   0.000000 0
  0.125000   0.750000 0
  0.500000   0.625000 0
  0.125000   0.250000 0
  0.500000   0.125000 0
  0.250000   1.000000 0
  0.250000   0.125000 0
  0.000000   1.000000 0
  0.375000   0.875000 0
  0.000000   0.750000 0
  0.375000   0.625000 0
  0.000000   0.250000 0
  0.125000   1.000000 0
  1.000000   0.375000 0
  0.500000   0.500000 0
  0.875000   0.375000 0
CELLS 64 320
4 56 71 58 63
4 27 58 69 63
4 41 69 32 63
4 76 33 68 40
4 27 44 58 37
4 79 31 44 37
4 56 38 68 21
4 56 58 38 37
4 52 32 71 63
4 47 38 31 37
4 76 68 59 21
4 22 59 43 21
4 65 45 33 40
4 47 43 38 21
4 52 71 45 40
4 56 68 71 40
4 74 30 66 23
4 46 66 29 23
4 22 43 30 23
4 72 48 77 34
4 46 53 42 73
4 50 64 53 73
4 70 42 57 73
4 74 66 48 34
4 46 42 66 34
4 47 29 43 23
4 70 77 42 34
4 60 57 64 73
4 79 67 31 75
4 47 31 29 75
4 50 53 67 75
4 46 29 53 75
4 10 78 6 80
4 36 6 1 80
4 15 1 12 80
4 36 4 6 26
4 14 12 78 80
4 2 17 9 26
4 36 18 4 55
4 15 28 1 11
4 62 4 20 55
4 10 6 17 26
4 27 18 44 11
4 62 9 4 26
4 27 69 18 55
4 36 1 18 11
4 41 20 69 55
4 79 44 28 11
4 16 24 54 7
4 19 54 39 7
4 50 39 64 7
4 8 25 61 3
4 60 64 24 7
4 79 28 67 13
4 19 51 61 49
4 8 61 0 49
4 15 51 28 13
4 19 39 51 13
4 50 67 39 13
4 19 61 54 3
4 14 0 12 49
4 5 35 25 3
4 15 12 51 49
4 16 54 35 3
CELL_TYPES 64
8
8
8
8
8
8
8
8
8
8
8
8
8
8
8
8
8
8
8
8
8
8
8
8
8
8
8
8
8
8
8
8
8
8
8
8
8
8
8
8
8
8
8
8
8
8
8
8
8
8
8
8
8
8
8
8
8
8
8
8
8
8
8
8
CELL_DATA 64
VECTORS vector_value float
0.356189 -2.74491 0
-0.00166356 -0.746096 0
0.334029 -1.30259 0
0.0887983 -0.249865 0
-0.0949762 -1.34481 0
0.214971 -2.55746 0
0.329438 -1.32789 0
-0.0795439 -1.55054 0
0.478549 -2.7735 0
-0.63672 -1.46586 0
0.0926611 -0.425276 0
0.247917 -1.00161 0
0.0117787 -0.12201 0
-0.0877339 -0.228262 0
0.0919149 -0.229982 0
0.491516 -0.719558 0
-0.0293648 -0.357107 0
-0.0469239 -1.13397 0
-0.274426 -0.88253 0
0.288753 -0.479321 0
-0.025563 -1.02792 0
-0.180738 -1.08674 0
0.534607 -1.01341 0
0.0148407 -0.435338 0
0.0160423 -1.00421 0
-0.0701187 -0.230327 0
0.554183 -1.2635 0
0.47589 -1.2834 0
-0.440212 -3.92759 0
0.179413 -1.2335 0
-0.528422 -1.8972 0
0.0340828 -1.12655 0
-0.00466956 -0.277722 0
0.157886 -0.378781 0
0.0546463 -0.10076 0
0.339557 -1.0375 0
-0.00639138 -0.295231 0
-0.0426359 -0.18814 0
0.495173 -1.77645 0
0.481225 -0.589946 0
0.449776 -1.0826 0
-0.00903007 -0.277303 0
0.328629 -0.794798 0
0.389747 -2.01034 0
0.196853 -0.448316 0
0.842479 -1.90018 0
0.0770342 -0.290829 0
1.56819 -1.76088 0
-1.88129 -1.49022 0
-0.0559069 -0.418968 0
-0.508133 -3.66525 0
-0.0256763 -0.250348 0
-0.620957 -1.46435 0
-0.212497 -1.02245 0
0.00693151 -0.0303433 0
0.0277838 -0.295186 0
0.0248462 -0.379301 0
-0.0415619 -0.463648 0
-0.889785 -2.696 0
-0.0352334 -0.11122 0
-0.00112152 -0.300822 0
-0.351295 -0.596508 0
0.00469903 -0.0234701 0
-1.15997 -0.409279 0
