# vtk DataFile Version 2.0
Unstructured Grid by M++
ASCII
DATASET UNSTRUCTURED_GRID
POINTS 81 float
  1.000000   0.625000 0
  0.750000   0.375000 0
  1.000000   0.000000 0
  0.875000   0.875000 0
  0.750000   0.125000 0
  1.000000   1.000000 0
  0.875000   0.250000 0
  0.625000   0.875000 0
  1.000000   0.750000 0
  0.875000   0.000000 0
  1.000000   0.250000 0
  0.625000   0.375000 0
  0.875000   0.500000 0
  0.625000   0.625000 0
  1.000000   0.500000 0
  0.750000   0.500000 0
  0.750000   1.000000 0
  1.000000   0.125000 0
  0.625000   0.250000 0
  0.750000   0.750000 0
  0.625000   0.000000 0
  0.125000   0.375000 0
  0.000000   0.500000 0
  0.125000   0.625000 0
  0.625000   1.000000 0
  1.000000   0.875000 0
  0.875000   0.125000 0
  0.500000   0.250000 0
  0.625000   0.500000 0
  0.250000   0.625000 0
  0.000000   0.625000 0
  0.375000   0.500000 0
  0.375000   0.000000 0
  0.000000   0.125000 0
  0.125000   0.875000 0
  0.875000   1.000000 0
  0.750000   0.250000 0
  0.375000   0.375000 0
  0.250000   0.375000 0
  0.625000   0.750000 0
  0.125000   0.125000 0
  0.500000   0.000000 0
  0.250000   0.875000 0
  0.125000   0.500000 0
  0.500000   0.375000 0
  0.125000   0.000000 0
  0.250000   0.750000 0
  0.250000   0.500000 0
  0.000000   0.875000 0
  0.875000   0.625000 0
  0.500000   0.750000 0
  0.750000   0.625000 0
  0.250000   0.000000 0
  0.375000   0.750000 0
  0.750000   0.875000 0
  0.625000   0.125000 0
  0.250000   0.250000 0
  0.375000   1.000000 0
  0.375000   0.250000 0
  0.000000   0.375000 0
  0.500000   1.000000 0
  0.875000   0.750000 0
  0.750000   0.000000 0
  0.375000   0.125000 0
  0.500000   0.875000 0
  0.000000   0.000000 0
  0.125000   0.750000 0
  0.500000   0.625000 0
  0.125000   0.250000 0
  0.500000   0.125000 0
  0.250000   1.000000 0
  0.250000   0.125000 0
  0.000000   1.000000 0
  0.375000   0.875000 0
  0.000000   0.750000 0
  0.375000   0.625000 0
  0.000000   0.250000 0
  0.125000   1.000000 0
  1.000000   0.375000 0
  0.500000   0.500000 0
  0.875000   0.375000 0
CELLS 64 320
4 56 71 58 63
4 27 58 69 63
4 41 69 32 63
4 76 33 68 40
4 27 44 58 37
4 79 31 44 37
4 56 38 68 21
4 56 58 38 37
4 52 32 71 63
4 47 38 31 37
4 76 68 59 21
4 22 59 43 21
4 65 45 33 40
4 47 43 38 21
4 52 71 45 40
4 56 68 71 40
4 74 30 66 23
4 46 66 29 23
4 22 43 30 23
4 72 48 77 34
4 46 53 42 73
4 50 64 53 73
4 70 42 57 73
4 74 66 48 34
4 46 42 66 34
4 47 29 43 23
4 70 77 42 34
4 60 57 64 73
4 79 67 31 75
4 47 31 29 75
4 50 53 67 75
4 46 29 53 75
4 10 78 6 80
4 36 6 1 80
4 15 1 12 80
4 36 4 6 26
4 14 12 78 80
4 2 17 9 26
4 36 18 4 55
4 15 28 1 11
4 62 4 20 55
4 10 6 17 26
4 27 18 44 11
4 62 9 4 26
4 27 69 18 55
4 36 1 18 11
4 41 20 69 55
4 79 44 28 11
4 16 24 54 7
4 19 54 39 7
4 50 39 64 7
4 8 25 61 3
4 60 64 24 7
4 79 28 67 13
4 19 51 61 49
4 8 61 0 49
4 15 51 28 13
4 19 39 51 13
4 50 67 39 13
4 19 61 54 3
4 14 0 12 49
4 5 35 25 3
4 15 12 51 49
4 16 54 35 3
CELL_TYPES 64
8
8
8
8
8
8
8
8
8
8
8
8
8
8
8
8
8
8
8
8
8
8
8
8
8
8
8
8
8
8
8
8
8
8
8
8
8
8
8
8
8
8
8
8
8
8
8
8
8
8
8
8
8
8
8
8
8
8
8
8
8
8
8
8
CELL_DATA 64
VECTORS vector_value float
-0.602404 -0.911569 0
-1.05544 -1.78633 0
-0.111126 -0.609571 0
0.0623136 -0.301785 0
-0.497915 -1.49229 0
-0.0894972 -1.26266 0
-0.111902 -1.32705 0
-0.262205 -0.633906 0
-0.277302 -2.44267 0
-0.11804 -0.626124 0
-0.000166143 -0.349451 0
-0.00221007 -0.340532 0
0.0077721 -0.207114 0
-0.0484132 -1.13569 0
0.0737616 -1.53744 0
0.0199233 -1.76996 0
-0.0132959 -0.374295 0
-0.0289961 -0.725375 0
0.0173304 -0.346927 0
0.311214 -0.757727 0
0.175305 -0.200683 0
-0.179962 -1.33261 0
1.12279 -0.249425 0
0.0147807 -0.349189 0
0.116855 -0.779497 0
-0.145863 -1.0062 0
0.661093 -0.979784 0
1.4143 -1.21589 0
-0.049598 -1.78063 0
-0.444188 -0.565852 0
-0.441286 -2.18512 0
-0.106065 -0.252874 0
-0.00406829 -0.0215864 0
0.00956523 -0.368412 0
-0.00860859 -0.240564 0
-0.124939 -0.290675 0
-0.0225508 -0.0533826 0
0.00141108 -0.0340015 0
-0.49923 -1.16846 0
0.0839334 -2.78738 0
-0.12157 -0.755446 0
0.0054795 -0.0230126 0
-0.850472 -1.67241 0
-0.00614959 -0.0634027 0
-0.689434 -1.74821 0
-0.516174 -2.13489 0
-0.133044 -2.35036 0
0.108769 -1.55367 0
-1.98206 -0.680362 0
-0.125809 -0.208795 0
-0.628124 -4.8341 0
-0.0302579 -0.237207 0
-0.424947 -3.14296 0
0.506342 -2.02403 0
-0.0211668 -0.0769648 0
-0.0244985 -0.193283 0
1.00812 -1.95972 0
0.107657 -0.292083 0
0.616764 -3.90001 0
-0.0649001 -0.0579175 0
-0.0476343 -0.109226 0
-0.360645 -0.747322 0
-0.0326924 -0.207418 0
-1.18643 -0.226523 0
