# vtk DataFile Version 2.0
Unstructured Grid by M++
ASCII
DATASET UNSTRUCTURED_GRID
POINTS 81 float
  1.000000   0.625000 0
  0.750000   0.375000 0
  1.000000   0.000000 0
  0.875000   0.875000 0
  0.750000   0.125000 0
  1.000000   1.000000 0
  0.875000   0.250000 0
  0.625000   0.875000 0
  1.000000   0.750000 0
  0.875000   0.000000 0
  1.000000   0.250000 0
  0.625000   0.375000 0
  0.875000   0.500000 0
  0.625000   0.625000 0
  1.000000   0.500000 0
  0.750000   0.500000 0
  0.750000   1.000000 0
  1.000000   0.125000 0
  0.625000   0.250000 0
  0.750000   0.750000 0
  0.625000   0.000000 0
  0.125000   0.375000 0
  0.000000   0.500000 0
  0.125000   0.625000 0
  0.625000   1.000000 0
  1.000000   0.875000 0
  0.875000   0.125000 0
  0.500000   0.250000 0
  0.625000   0.500000 0
  0.250000   0.625000 0
  0.000000   0.625000 0
  0.375000   0.500000 0
  0.375000   0.000000 0
  0.000000   0.125000 0
  0.125000   0.875000 0
  0.875000   1.000000 0
  0.750000   0.250000 0
  0.375000   0.375000 0
  0.250000   0.375000 0
  0.625000   0.750000 0
  0.125000   0.125000 0
  0.500000   0.000000 0
  0.250000   0.875000 0
  0.125000   0.500000 0
  0.500000   0.375000 0
  0.125000   0.000000 0
  0.250000   0.750000 0
  0.250000   0.500000 0
  0.000000   0.875000 0
  0.875000   0.625000 0
  0.500000   0.750000 0
  0.750000   0.625000 0
  0.250000   0.000000 0
  0.375000   0.750000 0
  0.750000   0.875000 0
  0.625000   0.125000 0
  0.250000   0.250000 0
  0.375000   1.000000 0
  0.375000   0.250000 0
  0.000000   0.375000 0
  0.500000   1.000000 0
  0.875000   0.750000 0
  0.750000   0.000000 0
  0.375000   0.125000 0
  0.500000   0.875000 0
  0.000000   0.000000 0
  0.125000   0.750000 0
  0.500000   0.625000 0
  0.125000   0.250000 0
  0.500000   0.125000 0
  0.250000   1.000000 0
  0.250000   0.125000 0
  0.000000   1.000000 0
  0.375000   0.875000 0
  0.000000   0.750000 0
  0.375000   0.625000 0
  0.000000   0.250000 0
  0.125000   1.000000 0
  1.000000   0.375000 0
  0.500000   0.500000 0
  0.875000   0.375000 0
CELLS 64 320
4 56 71 58 63
4 27 58 69 63
4 41 69 32 63
4 76 33 68 40
4 27 44 58 37
4 79 31 44 37
4 56 38 68 21
4 56 58 38 37
4 52 32 71 63
4 47 38 31 37
4 76 68 59 21
4 22 59 43 21
4 65 45 33 40
4 47 43 38 21
4 52 71 45 40
4 56 68 71 40
4 74 30 66 23
4 46 66 29 23
4 22 43 30 23
4 72 48 77 34
4 46 53 42 73
4 50 64 53 73
4 70 42 57 73
4 74 66 48 34
4 46 42 66 34
4 47 29 43 23
4 70 77 42 34
4 60 57 64 73
4 79 67 31 75
4 47 31 29 75
4 50 53 67 75
4 46 29 53 75
4 10 78 6 80
4 36 6 1 80
4 15 1 12 80
4 36 4 6 26
4 14 12 78 80
4 2 17 9 26
4 36 18 4 55
4 15 28 1 11
4 62 4 20 55
4 10 6 17 26
4 27 18 44 11
4 62 9 4 26
4 27 69 18 55
4 36 1 18 11
4 41 20 69 55
4 79 44 28 11
4 16 24 54 7
4 19 54 39 7
4 50 39 64 7
4 8 25 61 3
4 60 64 24 7
4 79 28 67 13
4 19 51 61 49
4 8 61 0 49
4 15 51 28 13
4 19 39 51 13
4 50 67 39 13
4 19 61 54 3
4 14 0 12 49
4 5 35 25 3
4 15 12 51 49
4 16 54 35 3
CELL_TYPES 64
8
8
8
8
8
8
8
8
8
8
8
8
8
8
8
8
8
8
8
8
8
8
8
8
8
8
8
8
8
8
8
8
8
8
8
8
8
8
8
8
8
8
8
8
8
8
8
8
8
8
8
8
8
8
8
8
8
8
8
8
8
8
8
8
CELL_DATA 64
VECTORS vector_value float
0.0522986 -0.259727 0
0.260855 -0.502328 0
0.0489184 -0.430713 0
-0.0938903 -1.43249 0
0.143942 -0.578214 0
0.776545 -0.889627 0
-0.0934187 -1.22825 0
0.0714249 -0.597973 0
0.0459083 -0.249656 0
0.204982 -1.1675 0
-0.0650624 -1.21515 0
-0.376548 -0.73167 0
-0.0485983 -1.56468 0
-0.442966 -1.59359 0
-0.0223109 -0.905536 0
-0.0990376 -1.08849 0
0.0697121 -0.313992 0
0.290191 -2.2564 0
-0.0662217 -0.293943 0
-0.00226959 -1.01122 0
-0.375458 -1.69827 0
-0.0748007 -0.838752 0
-0.392153 -1.66957 0
0.292441 -0.88467 0
-0.191367 -1.37657 0
-0.0866111 -1.77001 0
0.124359 -0.661695 0
-0.821949 -1.28175 0
0.221934 -0.337915 0
0.385612 -2.08702 0
0.0174836 -0.332252 0
-0.080003 -1.6598 0
-0.186456 -0.56456 0
-1.09283 -2.33844 0
0.139114 -1.84471 0
-0.0387502 -1.12054 0
-0.270507 -1.31682 0
-0.0480588 -0.33688 0
-0.401993 -2.27412 0
0.204019 -0.286312 0
0.0613267 -1.49364 0
-0.0343104 -0.470047 0
0.527405 -0.617176 0
0.144102 -1.67319 0
0.0939592 -0.852256 0
-0.232663 -0.860238 0
-0.115047 -1.3457 0
0.150674 -0.169768 0
-0.332325 -1.27215 0
0.0470679 -1.00463 0
-0.0262126 -0.553206 0
-0.000809953 -1.24974 0
-0.512284 -0.4862 0
0.307774 -0.478657 0
0.410717 -0.70318 0
0.0548305 -1.28715 0
0.404517 -0.419508 0
0.517167 -0.741107 0
0.231125 -0.706122 0
0.0886017 -0.394161 0
0.0144799 -1.39366 0
0.131261 -1.22641 0
0.129176 -1.21928 0
-0.0826361 -0.391004 0
