# vtk DataFile Version 2.0
Unstructured Grid by M++
ASCII
DATASET UNSTRUCTURED_GRID
POINTS 289 float
  0.562500   1.000000 0
  0.562500   0.625000 0
  0.625000   1.000000 0
  0.562500   0.937500 0
  0.562500   0.562500 0
  0.625000   0.937500 0
  0.562500   0.875000 0
  0.625000   0.750000 0
  0.625000   0.625000 0
  0.562500   0.812500 0
  0.562500   0.750000 0
  0.562500   0.687500 0
  0.625000   0.875000 0
  0.625000   0.812500 0
  0.625000   0.687500 0
  0.687500   0.125000 0
  0.875000   0.062500 0
  0.625000   0.125000 0
  0.625000   0.187500 0
  0.625000   0.250000 0
  0.812500   0.187500 0
  1.000000   0.125000 0
  0.687500   0.187500 0
  0.750000   0.125000 0
  0.937500   0.062500 0
  0.937500   0.125000 0
  0.750000   0.187500 0
  0.812500   0.062500 0
  0.812500   0.125000 0
  0.875000   0.687500 0
  0.187500   0.250000 0
  0.437500   0.250000 0
  0.375000   0.187500 0
  0.812500   0.625000 0
  0.125000   0.187500 0
  0.937500   0.750000 0
  0.250000   0.312500 0
  0.500000   0.312500 0
  0.625000   0.062500 0
  0.437500   0.500000 0
  0.375000   0.125000 0
  0.437500   0.187500 0
  0.437500   0.437500 0
  0.437500   0.375000 0
  0.875000   0.875000 0
  0.187500   0.375000 0
  0.687500   0.562500 0
  0.687500   0.625000 0
  0.000000   0.125000 0
  0.937500   0.625000 0
  0.250000   0.125000 0
  0.375000   0.062500 0
  0.375000   0.000000 0
  0.812500   0.500000 0
  0.125000   0.000000 0
  0.937500   0.937500 0
  0.250000   0.437500 0
  0.687500   0.875000 0
  0.687500   0.937500 0
  0.000000   0.437500 0
  0.500000   0.500000 0
  0.500000   0.437500 0
  0.750000   0.937500 0
  0.750000   1.000000 0
  0.062500   0.500000 0
  1.000000   1.000000 0
  0.312500   0.500000 0
  0.875000   0.562500 0
  0.187500   0.062500 0
  0.437500   0.125000 0
  0.437500   0.062500 0
  0.500000   0.375000 0
  0.937500   0.812500 0
  0.937500   0.875000 0
  0.250000   0.375000 0
  0.687500   0.812500 0
  0.000000   0.375000 0
  0.750000   0.562500 0
  0.062500   0.125000 0
  1.000000   0.562500 0
  1.000000   0.625000 0
  0.312500   0.125000 0
  0.562500   0.125000 0
  0.437500   0.000000 0
  0.875000   0.437500 0
  0.875000   0.500000 0
  0.187500   0.000000 0
  0.937500   0.562500 0
  0.937500   0.500000 0
  0.250000   0.062500 0
  0.687500   0.500000 0
  0.000000   0.062500 0
  0.500000   0.062500 0
  1.000000   0.875000 0
  1.000000   0.937500 0
  0.312500   0.437500 0
  0.750000   0.875000 0
  0.062500   0.437500 0
  0.812500   0.937500 0
  0.125000   0.500000 0
  0.375000   0.500000 0
  0.625000   0.562500 0
  0.625000   0.500000 0
  0.437500   0.312500 0
  0.875000   0.812500 0
  0.875000   0.750000 0
  0.187500   0.312500 0
  0.812500   0.687500 0
  0.812500   0.750000 0
  0.125000   0.250000 0
  0.375000   0.250000 0
  1.000000   0.687500 0
  0.312500   0.187500 0
  0.750000   0.687500 0
  0.750000   0.625000 0
  0.062500   0.187500 0
  0.562500   0.250000 0
  0.562500   0.187500 0
  0.375000   1.000000 0
  0.500000   0.562500 0
  0.500000   0.250000 0
  0.750000   0.250000 0
  0.500000   0.125000 0
  0.500000   0.187500 0
  1.000000   0.187500 0
  0.625000   0.375000 0
  0.875000   0.375000 0
  1.000000   0.437500 0
  0.312500   0.000000 0
  0.562500   0.000000 0
  0.812500   0.000000 0
  0.250000   0.687500 0
  0.000000   0.687500 0
  0.500000   1.000000 0
  0.250000   1.000000 0
  0.000000   1.000000 0
  0.437500   0.687500 0
  0.437500   0.625000 0
  0.187500   0.625000 0
  0.687500   0.750000 0
  0.000000   0.312500 0
  0.000000   0.250000 0
  0.375000   0.375000 0
  0.375000   0.312500 0
  0.812500   0.812500 0
  0.125000   0.312500 0
  0.875000   0.625000 0
  0.187500   0.187500 0
  0.187500   0.125000 0
  0.937500   1.000000 0
  0.250000   0.562500 0
  0.250000   0.500000 0
  0.687500   1.000000 0
  0.000000   0.500000 0
  0.687500   0.687500 0
  0.000000   0.187500 0
  0.937500   0.687500 0
  0.250000   0.250000 0
  0.250000   0.187500 0
  0.187500   0.687500 0
  0.000000   0.750000 0
  0.250000   0.750000 0
  0.125000   0.625000 0
  0.750000   0.750000 0
  0.062500   0.250000 0
  0.875000   0.937500 0
  0.187500   0.500000 0
  0.187500   0.437500 0
  0.812500   0.562500 0
  0.125000   0.125000 0
  0.125000   0.062500 0
  0.375000   0.625000 0
  0.375000   0.687500 0
  1.000000   0.750000 0
  0.312500   0.250000 0
  0.312500   0.312500 0
  0.812500   0.312500 0
  0.562500   0.312500 0
  0.375000   0.750000 0
  0.500000   0.625000 0
  0.250000   0.625000 0
  0.312500   0.687500 0
  0.750000   0.812500 0
  0.062500   0.312500 0
  0.062500   0.375000 0
  1.000000   0.812500 0
  0.312500   0.375000 0
  0.562500   0.375000 0
  0.687500   0.437500 0
  0.000000   0.000000 0
  0.500000   0.000000 0
  0.937500   0.437500 0
  0.250000   0.000000 0
  0.375000   0.437500 0
  0.812500   0.875000 0
  0.125000   0.375000 0
  0.125000   0.437500 0
  0.625000   0.437500 0
  1.000000   0.500000 0
  0.312500   0.062500 0
  0.750000   0.500000 0
  0.062500   0.000000 0
  0.062500   0.062500 0
  0.562500   0.062500 0
  0.062500   0.750000 0
  0.312500   0.750000 0
  0.312500   0.625000 0
  0.312500   0.562500 0
  0.062500   0.562500 0
  0.187500   1.000000 0
  0.437500   0.562500 0
  0.875000   1.000000 0
  0.187500   0.562500 0
  0.500000   0.937500 0
  0.250000   0.937500 0
  0.312500   1.000000 0
  0.125000   0.750000 0
  0.125000   0.687500 0
  1.000000   0.000000 0
  0.000000   0.937500 0
  0.000000   0.875000 0
  0.875000   0.125000 0
  0.875000   0.187500 0
  0.062500   0.812500 0
  0.312500   0.812500 0
  0.000000   0.812500 0
  0.000000   0.625000 0
  0.000000   0.562500 0
  0.062500   1.000000 0
  0.062500   0.937500 0
  0.937500   0.187500 0
  0.937500   0.250000 0
  0.062500   0.687500 0
  0.062500   0.625000 0
  0.125000   1.000000 0
  1.000000   0.250000 0
  1.000000   0.312500 0
  0.062500   0.875000 0
  0.125000   0.812500 0
  0.375000   0.812500 0
  0.125000   0.875000 0
  0.375000   0.937500 0
  0.375000   0.875000 0
  0.187500   0.750000 0
  0.187500   0.812500 0
  0.437500   0.812500 0
  0.187500   0.875000 0
  0.437500   0.875000 0
  0.375000   0.562500 0
  0.812500   1.000000 0
  0.125000   0.562500 0
  0.437500   1.000000 0
  0.437500   0.937500 0
  0.187500   0.937500 0
  0.125000   0.937500 0
  0.500000   0.687500 0
  0.500000   0.750000 0
  0.500000   0.812500 0
  0.250000   0.812500 0
  0.250000   0.875000 0
  0.500000   0.875000 0
  0.437500   0.750000 0
  0.312500   0.875000 0
  0.312500   0.937500 0
  0.687500   0.250000 0
  0.687500   0.312500 0
  0.937500   0.312500 0
  0.875000   0.250000 0
  0.625000   0.000000 0
  0.875000   0.000000 0
  0.687500   0.375000 0
  0.937500   0.375000 0
  0.875000   0.312500 0
  0.625000   0.312500 0
  0.687500   0.000000 0
  0.937500   0.000000 0
  0.750000   0.312500 0
  0.750000   0.375000 0
  1.000000   0.375000 0
  0.812500   0.250000 0
  0.562500   0.437500 0
  0.562500   0.500000 0
  0.687500   0.062500 0
  0.750000   0.437500 0
  0.750000   0.000000 0
  0.750000   0.062500 0
  1.000000   0.062500 0
  0.812500   0.375000 0
  0.812500   0.437500 0
CELLS 256 1280
4 169 170 148 68
4 151 166 56 167
4 195 45 196 167
4 54 170 201 202
4 109 34 30 147
4 40 32 81 112
4 192 89 86 68
4 48 91 78 202
4 99 64 196 97
4 71 43 37 103
4 74 186 56 95
4 109 164 34 115
4 50 81 158 112
4 122 69 92 70
4 195 145 45 106
4 110 143 174 175
4 157 30 158 147
4 40 69 32 41
4 50 158 148 147
4 141 155 164 115
4 122 123 69 41
4 142 186 143 175
4 60 39 61 42
4 40 51 69 70
4 120 31 123 41
4 157 174 36 175
4 50 148 89 68
4 48 78 155 115
4 52 83 51 70
4 151 56 66 95
4 71 61 43 42
4 169 148 34 147
4 100 193 39 42
4 40 81 51 199
4 110 174 32 112
4 109 30 145 106
4 100 66 193 95
4 169 34 78 115
4 190 92 83 70
4 50 89 81 199
4 54 86 170 68
4 74 56 45 167
4 142 143 43 103
4 153 59 64 97
4 99 196 166 167
4 169 78 170 202
4 142 193 186 95
4 192 128 89 199
4 74 45 36 106
4 110 31 143 103
4 76 184 59 97
4 142 43 193 42
4 52 51 128 199
4 189 201 91 202
4 120 37 31 103
4 74 36 186 175
4 195 196 184 97
4 141 164 140 183
4 157 158 174 112
4 109 145 164 183
4 195 184 145 183
4 110 32 31 41
4 157 36 30 106
4 76 140 184 183
4 171 172 206 181
4 178 172 261 136
4 256 261 255 136
4 256 257 261 245
4 180 150 206 207
4 60 119 39 210
4 118 215 241 263
4 178 205 172 181
4 216 243 238 244
4 162 217 233 232
4 180 206 131 181
4 179 137 119 210
4 216 204 217 232
4 220 237 219 229
4 216 217 243 159
4 259 258 262 224
4 240 254 237 229
4 153 64 227 208
4 161 205 258 224
4 240 237 238 223
4 226 227 233 208
4 234 228 254 229
4 171 248 137 210
4 160 132 204 232
4 180 131 138 159
4 133 251 213 252
4 171 206 248 207
4 162 138 217 159
4 161 258 243 244
4 220 225 237 223
4 151 150 166 212
4 260 247 257 245
4 259 262 214 263
4 151 66 150 207
4 234 254 209 253
4 162 233 250 208
4 242 241 262 263
4 171 137 172 136
4 161 243 131 159
4 160 204 225 223
4 161 131 205 181
4 179 255 137 136
4 216 238 204 223
4 100 39 248 210
4 260 213 247 252
4 226 233 132 232
4 134 214 215 263
4 180 138 150 212
4 178 261 239 245
4 259 246 258 244
4 178 239 205 224
4 240 238 246 244
4 242 262 239 224
4 99 250 64 208
4 240 246 254 253
4 242 239 247 245
4 135 219 228 229
4 99 166 250 212
4 259 214 246 253
4 118 241 251 252
4 100 248 66 207
4 134 209 214 253
4 162 250 138 212
4 242 247 241 252
4 71 187 61 280
4 102 281 197 280
4 122 92 82 203
4 17 18 82 117
4 122 82 123 117
4 19 264 273 265
4 267 279 222 20
4 125 273 270 265
4 267 272 279 176
4 19 116 18 117
4 21 25 286 24
4 23 28 26 20
4 23 285 28 27
4 218 286 275 24
4 85 53 84 288
4 235 236 231 266
4 221 222 28 20
4 267 222 231 230
4 268 38 129 203
4 125 270 197 188
4 126 287 272 176
4 277 270 276 265
4 267 231 272 266
4 125 197 187 280
4 190 129 92 203
4 277 276 287 176
4 19 18 264 22
4 17 82 38 203
4 102 197 90 188
4 126 84 287 288
4 284 130 285 27
4 121 276 264 265
4 71 37 187 177
4 120 123 116 117
4 198 88 127 191
4 221 16 25 24
4 23 26 15 22
4 121 279 276 176
4 235 231 124 230
4 125 187 273 177
4 278 271 236 266
4 277 287 283 288
4 284 285 274 282
4 278 127 271 191
4 269 275 16 24
4 200 283 53 288
4 23 15 285 282
4 121 26 279 20
4 21 124 25 230
4 19 273 116 177
4 200 90 283 188
4 126 271 84 191
4 269 16 130 27
4 17 38 15 282
4 221 25 222 230
4 121 264 26 22
4 120 116 37 177
4 60 61 281 280
4 277 283 270 188
4 126 272 271 266
4 268 274 38 282
4 85 84 88 191
4 17 15 18 22
4 221 28 16 27
4 93 94 73 55
4 85 88 67 87
4 80 49 79 87
4 44 104 73 72
4 146 33 67 168
4 211 165 149 55
4 8 47 14 154
4 105 104 108 144
4 105 108 29 107
4 7 139 13 75
4 44 165 194 98
4 200 53 77 168
4 8 1 101 4
4 2 5 152 58
4 260 6 213 3
4 105 35 104 72
4 96 57 182 75
4 7 14 139 154
4 146 29 33 107
4 7 13 10 9
4 12 13 57 75
4 85 67 53 168
4 44 73 165 55
4 63 152 62 58
4 8 101 47 46
4 96 182 194 144
4 60 281 119 4
4 12 5 6 3
4 173 185 35 72
4 65 149 94 55
4 146 67 49 87
4 114 113 47 154
4 163 108 182 144
4 12 6 13 9
4 173 35 111 156
4 163 182 139 75
4 260 257 6 9
4 105 29 35 156
4 163 139 113 154
4 256 10 257 9
4 146 49 29 156
4 163 113 108 107
4 80 111 49 156
4 102 101 281 4
4 12 57 5 58
4 44 194 104 144
4 96 194 62 98
4 2 0 5 3
4 93 73 185 72
4 179 119 1 4
4 200 77 90 46
4 114 33 113 107
4 7 10 14 11
4 96 62 57 58
4 133 213 0 3
4 102 90 101 46
4 256 255 10 11
4 63 62 249 98
4 114 47 77 46
4 179 1 255 11
4 211 249 165 98
4 114 77 33 168
4 198 79 88 87
4 8 14 1 11
CELL_TYPES 256
8
8
8
8
8
8
8
8
8
8
8
8
8
8
8
8
8
8
8
8
8
8
8
8
8
8
8
8
8
8
8
8
8
8
8
8
8
8
8
8
8
8
8
8
8
8
8
8
8
8
8
8
8
8
8
8
8
8
8
8
8
8
8
8
8
8
8
8
8
8
8
8
8
8
8
8
8
8
8
8
8
8
8
8
8
8
8
8
8
8
8
8
8
8
8
8
8
8
8
8
8
8
8
8
8
8
8
8
8
8
8
8
8
8
8
8
8
8
8
8
8
8
8
8
8
8
8
8
8
8
8
8
8
8
8
8
8
8
8
8
8
8
8
8
8
8
8
8
8
8
8
8
8
8
8
8
8
8
8
8
8
8
8
8
8
8
8
8
8
8
8
8
8
8
8
8
8
8
8
8
8
8
8
8
8
8
8
8
8
8
8
8
8
8
8
8
8
8
8
8
8
8
8
8
8
8
8
8
8
8
8
8
8
8
8
8
8
8
8
8
8
8
8
8
8
8
8
8
8
8
8
8
8
8
8
8
8
8
8
8
8
8
8
8
8
8
8
8
8
8
8
8
8
8
8
8
CELL_DATA 256
VECTORS vector_value float
-0.0627705 -0.210885 0
0.255479 -0.247637 0
0.572691 -0.367271 0
-0.0409267 -0.126285 0
0.214119 -0.261062 0
-1.84546 -2.11208 0
-0.0609629 -1.66771 0
-0.018092 -0.168396 0
0.472919 -0.618161 0
-0.37843 -3.20568 0
0.355698 -0.303495 0
0.0987536 -0.136556 0
-1.06156 -3.85185 0
-0.104106 -0.536863 0
0.818079 -0.523849 0
-0.46201 -0.832067 0
0.281163 -0.832633 0
-1.04627 -1.27555 0
-0.115228 -0.910781 0
0.038245 -0.225438 0
-0.406809 -0.756436 0
-0.0183916 -0.674745 0
-0.237975 -1.34833 0
-0.154681 -0.611142 0
-0.759282 -1.11295 0
0.0222141 -1.10216 0
-0.266472 -1.39451 0
0.0210884 -0.156166 0
-0.0226926 -0.849312 0
0.337815 -0.290443 0
-0.421676 -2.17753 0
0.0547017 -0.22781 0
0.11166 -1.03917 0
-0.127989 -2.45515 0
-1.51917 -1.39881 0
0.446287 -0.396482 0
0.398296 -0.704823 0
0.0504985 -0.11609 0
-0.0183414 -0.310167 0
-0.187603 -4.02133 0
-0.0245744 -0.205647 0
0.451315 -0.265393 0
-0.122758 -1.32194 0
0.193592 -1.94912 0
0.235329 -0.185005 0
-0.0595896 -0.132701 0
0.394017 -0.560052 0
-0.0123073 -3.49304 0
0.527533 -0.412288 0
-1.15551 -1.8267 0
0.325789 -1.50282 0
0.355562 -1.5378 0
0.0588591 -2.59326 0
-0.0325311 -0.242965 0
-1.46235 -2.96057 0
0.304191 -0.527636 0
0.511106 -0.502509 0
0.0821771 -0.363659 0
-0.385077 -2.1859 0
0.286406 -0.264888 0
0.722733 -0.392669 0
-2.13467 -2.72567 0
0.518945 -0.7344 0
0.284926 -0.845827 0
0.0492096 -0.22707 0
0.0636939 -0.539981 0
0.0924449 -0.840271 0
0.179823 -0.932849 0
0.131779 -0.158493 0
-0.0844595 -1.17891 0
0.938514 -0.94182 0
-0.0361568 -0.364213 0
0.372021 -1.09496 0
-0.207602 -1.1037 0
0.0360966 -0.270803 0
-0.107638 -0.964778 0
-0.0149408 -0.898478 0
0.0419864 -1.30349 0
-0.0399487 -1.22606 0
0.130964 -0.305448 0
0.0940358 -1.64044 0
-0.311534 -1.95792 0
-0.0678558 -0.331602 0
0.35446 -1.66225 0
-0.18186 -1.25753 0
-0.595556 -1.66446 0
-0.00509415 -0.683784 0
-0.0186512 -0.996609 0
-0.116112 -0.474425 0
1.23194 -1.00421 0
0.0926167 -0.319951 0
-0.350135 -1.24982 0
0.0264951 -0.385166 0
0.0874292 -1.06428 0
0.340233 -0.331411 0
0.189159 -1.09783 0
0.195298 -0.239571 0
0.413771 -0.290723 0
-0.721455 -0.772104 0
-0.521272 -1.42797 0
0.380966 -0.574446 0
0.00417213 -0.548003 0
-0.122574 -0.522628 0
0.0017014 -0.92565 0
-0.166832 -0.378949 0
-0.0612945 -0.845027 0
0.197591 -1.13954 0
0.0199899 -0.631598 0
0.512627 -1.11884 0
-0.0290464 -1.00021 0
0.46223 -0.444756 0
0.245041 -0.493937 0
0.0126474 -0.728803 0
0.173955 -0.32746 0
-0.106897 -0.450793 0
0.207242 -0.536312 0
0.103816 -0.38276 0
-0.161544 -0.791993 0
0.12408 -0.561022 0
0.138821 -0.815771 0
-0.112124 -1.01304 0
0.234394 -0.31981 0
0.149033 -0.275814 0
1.14588 -0.872324 0
0.177303 -0.592172 0
-0.206754 -0.503821 0
-0.0562319 -0.610077 0
0.531888 -0.768827 0
-0.931643 -2.65183 0
-0.832321 -1.60415 0
0.0237205 -0.23129 0
0.208664 -0.399534 0
-0.0425296 -0.42592 0
0.525648 -0.738363 0
1.87035 -1.50323 0
0.213421 -1.39435 0
1.12288 -1.21431 0
0.833218 -0.767479 0
0.163698 -1.61336 0
0.942568 -0.532745 0
0.114884 -0.299415 0
0.210681 -2.10068 0
-0.0262581 -0.208858 0
0.18994 -0.495655 0
0.844291 -1.04487 0
1.06612 -1.34796 0
0.0252058 -0.239527 0
-0.325542 -2.20247 0
0.318366 -0.495701 0
1.04839 -1.11248 0
0.520808 -0.554852 0
-0.878183 -1.36314 0
0.0195832 -0.236985 0
0.754093 -0.743633 0
1.0719 -0.413542 0
0.0527775 -0.265291 0
-0.875913 -2.72563 0
0.0290225 -0.270533 0
0.0333578 -0.232876 0
0.620663 -0.432808 0
-0.754147 -2.85343 0
-0.0472748 -1.30745 0
-0.0121103 -0.309706 0
0.332002 -2.82629 0
0.618487 -0.189362 0
1.37638 -0.90705 0
0.181895 -0.881832 0
-0.44173 -0.889177 0
0.00230464 -0.263462 0
0.110731 -0.507011 0
0.0175621 -0.102147 0
-0.0129251 -0.276195 0
0.385652 -2.84734 0
-0.105139 -0.577912 0
0.0766034 -0.113854 0
1.34779 -0.514191 0
0.201302 -1.11326 0
0.3253 -0.826902 0
-0.459809 -1.5265 0
-0.0240002 -0.192205 0
0.150362 -0.588615 0
0.061715 -0.135205 0
0.80787 -2.65659 0
1.40559 -0.385286 0
0.000974561 -2.34913 0
-0.759161 -2.47408 0
0.0829393 -1.31974 0
0.105545 -0.343134 0
0.0287011 -0.163441 0
-0.0207644 -0.190484 0
0.441389 -0.230955 0
0.33214 -0.984312 0
-0.0562743 -0.346579 0
-0.0319182 -0.184944 0
-0.0113824 -0.332458 0
-0.0172998 -0.532465 0
-0.250933 -0.33538 0
-0.610365 -1.09963 0
-0.827082 -3.04003 0
0.0280969 -0.700548 0
-0.00320827 -0.45598 0
-0.00610072 -1.9565 0
-0.674176 -1.28898 0
-0.249987 -0.720421 0
-0.965346 -2.38928 0
1.20556 -1.31238 0
0.400859 -0.904228 0
0.139256 -0.418206 0
-0.326432 -2.89662 0
-0.30104 -1.94131 0
-0.186168 -0.482449 0
-0.0156041 -0.835157 0
0.0397899 -1.77965 0
-0.141843 -0.338196 0
-0.288165 -0.808314 0
0.434654 -1.48073 0
-0.744806 -2.01139 0
-0.437655 -1.75294 0
-0.601326 -1.69894 0
0.525984 -0.902437 0
0.0478163 -0.399133 0
-0.289823 -0.59712 0
-0.170291 -0.421668 0
-0.315876 -2.78259 0
-0.405584 -1.54774 0
0.180229 -0.68771 0
0.0539414 -0.569087 0
-0.266886 -3.17008 0
0.243327 -0.945029 0
0.0469322 -0.416354 0
-0.597598 -3.7771 0
0.119349 -0.983266 0
-0.152762 -0.3963 0
-0.0893343 -0.989799 0
-0.107552 -0.53025 0
-0.638681 -2.1723 0
0.48696 -1.42515 0
-0.219361 -0.898825 0
-0.579776 -1.51795 0
1.38937 -0.96113 0
0.0331311 -0.314655 0
-0.203511 -0.89143 0
-0.644384 -2.46461 0
-0.193577 -0.899879 0
0.0696909 -0.871177 0
0.126059 -2.3239 0
1.32641 -1.07135 0
-0.536444 -1.98566 0
0.117342 -1.21201 0
-0.0872758 -0.893028 0
-0.496456 -2.79025 0
-0.0155947 -1.12347 0
-0.426186 -1.3681 0
-0.372845 -0.911627 0
-0.00919108 -0.3404 0
-0.179518 -1.02598 0
