# vtk DataFile Version 2.0
Unstructured Grid by M++
ASCII
DATASET UNSTRUCTURED_GRID
POINTS 81 float
  1.000000   0.625000 0
  0.750000   0.375000 0
  1.000000   0.000000 0
  0.875000   0.875000 0
  0.750000   0.125000 0
  1.000000   1.000000 0
  0.875000   0.250000 0
  0.625000   0.875000 0
  1.000000   0.750000 0
  0.875000   0.000000 0
  1.000000   0.250000 0
  0.625000   0.375000 0
  0.875000   0.500000 0
  0.625000   0.625000 0
  1.000000   0.500000 0
  0.750000   0.500000 0
  0.750000   1.000000 0
  1.000000   0.125000 0
  0.625000   0.250000 0
  0.750000   0.750000 0
  0.625000   0.000000 0
  0.125000   0.375000 0
  0.000000   0.500000 0
  0.125000   0.625000 0
  0.625000   1.000000 0
  1.000000   0.875000 0
  0.875000   0.125000 0
  0.500000   0.250000 0
  0.625000   0.500000 0
  0.250000   0.625000 0
  0.000000   0.625000 0
  0.375000   0.500000 0
  0.375000   0.000000 0
  0.000000   0.125000 0
  0.125000   0.875000 0
  0.875000   1.000000 0
  0.750000   0.250000 0
  0.375000   0.375000 0
  0.250000   0.375000 0
  0.625000   0.750000 0
  0.125000   0.125000 0
  0.500000   0.000000 0
  0.250000   0.875000 0
  0.125000   0.500000 0
  0.500000   0.375000 0
  0.125000   0.000000 0
  0.250000   0.750000 0
  0.250000   0.500000 0
  0.000000   0.875000 0
  0.875000   0.625000 0
  0.500000   0.750000 0
  0.750000   0.625000 0
  0.250000   0.000000 0
  0.375000   0.750000 0
  0.750000   0.875000 0
  0.625000   0.125000 0
  0.250000   0.250000 0
  0.375000   1.000000 0
  0.375000   0.250000 0
  0.000000   0.375000 0
  0.500000   1.000000 0
  0.875000   0.750000 0
  0.750000   0.000000 0
  0.375000   0.125000 0
  0.500000   0.875000 0
  0.000000   0.000000 0
  0.125000   0.750000 0
  0.500000   0.625000 0
  0.125000   0.250000 0
  0.500000   0.125000 0
  0.250000   1.000000 0
  0.250000   0.125000 0
  0.000000   1.000000 0
  0.375000   0.875000 0
  0.000000   0.750000 0
  0.375000   0.625000 0
  0.000000   0.250000 0
  0.125000   1.000000 0
  1.000000   0.375000 0
  0.500000   0.500000 0
  0.875000   0.375000 0
CELLS 64 320
4 56 71 58 63
4 27 58 69 63
4 41 69 32 63
4 76 33 68 40
4 27 44 58 37
4 79 31 44 37
4 56 38 68 21
4 56 58 38 37
4 52 32 71 63
4 47 38 31 37
4 76 68 59 21
4 22 59 43 21
4 65 45 33 40
4 47 43 38 21
4 52 71 45 40
4 56 68 71 40
4 74 30 66 23
4 46 66 29 23
4 22 43 30 23
4 72 48 77 34
4 46 53 42 73
4 50 64 53 73
4 70 42 57 73
4 74 66 48 34
4 46 42 66 34
4 47 29 43 23
4 70 77 42 34
4 60 57 64 73
4 79 67 31 75
4 47 31 29 75
4 50 53 67 75
4 46 29 53 75
4 10 78 6 80
4 36 6 1 80
4 15 1 12 80
4 36 4 6 26
4 14 12 78 80
4 2 17 9 26
4 36 18 4 55
4 15 28 1 11
4 62 4 20 55
4 10 6 17 26
4 27 18 44 11
4 62 9 4 26
4 27 69 18 55
4 36 1 18 11
4 41 20 69 55
4 79 44 28 11
4 16 24 54 7
4 19 54 39 7
4 50 39 64 7
4 8 25 61 3
4 60 64 24 7
4 79 28 67 13
4 19 51 61 49
4 8 61 0 49
4 15 51 28 13
4 19 39 51 13
4 50 67 39 13
4 19 61 54 3
4 14 0 12 49
4 5 35 25 3
4 15 12 51 49
4 16 54 35 3
CELL_TYPES 64
8
8
8
8
8
8
8
8
8
8
8
8
8
8
8
8
8
8
8
8
8
8
8
8
8
8
8
8
8
8
8
8
8
8
8
8
8
8
8
8
8
8
8
8
8
8
8
8
8
8
8
8
8
8
8
8
8
8
8
8
8
8
8
8
CELL_DATA 64
VECTORS vector_value float
0.00491038 -0.030864 0
0.0362119 -0.100278 0
0.0085307 -0.0685816 0
0.0256083 -1.01503 0
0.0927673 -0.160142 0
0.179108 -0.218126 0
0.00702021 -0.014614 0
0.0549022 -0.0594102 0
-0.000206407 -0.0125604 0
0.0576906 -0.0685172 0
-0.0114134 -1.02872 0
-0.128677 -0.949326 0
0.0104448 -0.956959 0
-0.0641636 -0.15072 0
0.0213443 -0.0855242 0
0.0124151 -0.0185167 0
0.00491959 -0.606858 0
0.075547 -0.526476 0
-0.0584524 -0.708285 0
-0.144155 -1.29251 0
0.728034 -1.25587 0
0.612253 -1.70048 0
0.460547 -1.67712 0
0.324986 -1.02069 0
0.345112 -0.212368 0
-0.0918846 -0.436261 0
0.198445 -0.148544 0
-0.0812454 -1.25889 0
0.261151 -0.597451 0
0.0233723 -0.0649252 0
1.30331 -1.88033 0
0.121952 -0.208579 0
0.0366756 -0.112012 0
0.256769 -3.74347 0
0.0417383 -2.84016 0
0.290873 -3.57023 0
-0.0220758 -0.102183 0
0.256414 -0.689293 0
0.337819 -2.35192 0
0.587911 -2.79942 0
0.186461 -1.22661 0
0.0458331 -0.211384 0
0.0997421 -0.638275 0
0.595515 -4.12406 0
0.00931766 -0.701775 0
0.132407 -2.24336 0
-0.0172697 -0.836415 0
0.572387 -0.871543 0
0.345746 -1.75789 0
0.421715 -1.09519 0
0.174298 -0.165246 0
-0.0177873 -0.410663 0
0.131528 -0.125043 0
0.904704 -1.22858 0
0.285384 -2.71976 0
-0.0161344 -0.503929 0
0.370467 -1.6389 0
0.575204 -0.870724 0
1.08058 -0.683343 0
0.478399 -2.13949 0
-0.121238 -0.288309 0
-0.274305 -0.546335 0
-0.214568 -3.03729 0
-0.383536 -1.19367 0
