# vtk DataFile Version 2.0
Unstructured Grid by M++
ASCII
DATASET UNSTRUCTURED_GRID
POINTS 81 float
  1.000000   0.625000 0
  0.750000   0.375000 0
  1.000000   0.000000 0
  0.875000   0.875000 0
  0.750000   0.125000 0
  1.000000   1.000000 0
  0.875000   0.250000 0
  0.625000   0.875000 0
  1.000000   0.750000 0
  0.875000   0.000000 0
  1.000000   0.250000 0
  0.625000   0.375000 0
  0.875000   0.500000 0
  0.625000   0.625000 0
  1.000000   0.500000 0
  0.750000   0.500000 0
  0.750000   1.000000 0
  1.000000   0.125000 0
  0.625000   0.250000 0
  0.750000   0.750000 0
  0.625000   0.000000 0
  0.125000   0.375000 0
  0.000000   0.500000 0
  0.125000   0.625000 0
  0.625000   1.000000 0
  1.000000   0.875000 0
  0.875000   0.125000 0
  0.500000   0.250000 0
  0.625000   0.500000 0
  0.250000   0.625000 0
  0.000000   0.625000 0
  0.375000   0.500000 0
  0.375000   0.000000 0
  0.000000   0.125000 0
  0.125000   0.875000 0
  0.875000   1.000000 0
  0.750000   0.250000 0
  0.375000   0.375000 0
  0.250000   0.375000 0
  0.625000   0.750000 0
  0.125000   0.125000 0
  0.500000   0.000000 0
  0.250000   0.875000 0
  0.125000   0.500000 0
  0.500000   0.375000 0
  0.125000   0.000000 0
  0.250000   0.750000 0
  0.250000   0.500000 0
  0.000000   0.875000 0
  0.875000   0.625000 0
  0.500000   0.750000 0
  0.750000   0.625000 0
  0.250000   0.000000 0
  0.375000   0.750000 0
  0.750000   0.875000 0
  0.625000   0.125000 0
  0.250000   0.250000 0
  0.375000   1.000000 0
  0.375000   0.250000 0
  0.000000   0.375000 0
  0.500000   1.000000 0
  0.875000   0.750000 0
  0.750000   0.000000 0
  0.375000   0.125000 0
  0.500000   0.875000 0
  0.000000   0.000000 0
  0.125000   0.750000 0
  0.500000   0.625000 0
  0.125000   0.250000 0
  0.500000   0.125000 0
  0.250000   1.000000 0
  0.250000   0.125000 0
  0.000000   1.000000 0
  0.375000   0.875000 0
  0.000000   0.750000 0
  0.375000   0.625000 0
  0.000000   0.250000 0
  0.125000   1.000000 0
  1.000000   0.375000 0
  0.500000   0.500000 0
  0.875000   0.375000 0
CELLS 64 320
4 56 71 58 63
4 27 58 69 63
4 41 69 32 63
4 76 33 68 40
4 27 44 58 37
4 79 31 44 37
4 56 38 68 21
4 56 58 38 37
4 52 32 71 63
4 47 38 31 37
4 76 68 59 21
4 22 59 43 21
4 65 45 33 40
4 47 43 38 21
4 52 71 45 40
4 56 68 71 40
4 74 30 66 23
4 46 66 29 23
4 22 43 30 23
4 72 48 77 34
4 46 53 42 73
4 50 64 53 73
4 70 42 57 73
4 74 66 48 34
4 46 42 66 34
4 47 29 43 23
4 70 77 42 34
4 60 57 64 73
4 79 67 31 75
4 47 31 29 75
4 50 53 67 75
4 46 29 53 75
4 10 78 6 80
4 36 6 1 80
4 15 1 12 80
4 36 4 6 26
4 14 12 78 80
4 2 17 9 26
4 36 18 4 55
4 15 28 1 11
4 62 4 20 55
4 10 6 17 26
4 27 18 44 11
4 62 9 4 26
4 27 69 18 55
4 36 1 18 11
4 41 20 69 55
4 79 44 28 11
4 16 24 54 7
4 19 54 39 7
4 50 39 64 7
4 8 25 61 3
4 60 64 24 7
4 79 28 67 13
4 19 51 61 49
4 8 61 0 49
4 15 51 28 13
4 19 39 51 13
4 50 67 39 13
4 19 61 54 3
4 14 0 12 49
4 5 35 25 3
4 15 12 51 49
4 16 54 35 3
CELL_TYPES 64
8
8
8
8
8
8
8
8
8
8
8
8
8
8
8
8
8
8
8
8
8
8
8
8
8
8
8
8
8
8
8
8
8
8
8
8
8
8
8
8
8
8
8
8
8
8
8
8
8
8
8
8
8
8
8
8
8
8
8
8
8
8
8
8
CELL_DATA 64
VECTORS vector_value float
0.545293 -0.409671 0
0.606002 -1.47381 0
0.0590469 -0.975949 0
0.241648 -1.25907 0
0.023889 -0.915887 0
0.0714416 -0.810669 0
0.196232 -0.493096 0
0.165536 -0.507145 0
0.0732829 -0.572356 0
0.198623 -0.446078 0
0.0761956 -1.55185 0
0.0804021 -1.65627 0
0.0183767 -0.926837 0
0.20986 -0.560636 0
0.0767844 -0.353146 0
0.481625 -0.362386 0
-0.294515 -1.23501 0
-0.138962 -1.66779 0
-0.159662 -1.82514 0
0.0786023 -1.49675 0
-0.187055 -0.391769 0
-0.0418979 -0.106446 0
-0.70353 -0.715035 0
-0.00140285 -0.737307 0
0.140286 -2.45616 0
0.0874742 -0.667532 0
-0.643911 -1.14485 0
-0.101796 -0.318302 0
0.498307 -0.81481 0
0.424777 -0.343222 0
0.0545347 -0.217977 0
0.429126 -0.592426 0
0.294646 -1.39662 0
0.0888122 -2.80087 0
0.373311 -3.62703 0
-0.45767 -2.67775 0
0.172982 -0.577653 0
-0.0136983 -1.15511 0
-0.257578 -0.287321 0
0.0745919 -0.168887 0
-0.330702 -0.668962 0
-0.135984 -1.36293 0
-0.0216397 -0.0820778 0
-0.0726476 -2.24276 0
-0.0433013 -0.167066 0
-0.0601254 -0.252458 0
0.229874 -1.10488 0
0.108126 -0.152773 0
1.44522 -1.12973 0
0.1544 -0.439131 0
0.00230813 -0.0434428 0
-0.128692 -1.35743 0
0.781856 -0.615385 0
0.118302 -0.0961598 0
-0.147161 -3.1183 0
-0.140474 -0.924794 0
0.0789739 -0.05762 0
0.0724497 -0.207139 0
-0.0179417 -0.0365651 0
0.291622 -2.46832 0
-0.170857 -0.547687 0
0.19735 -1.31869 0
-0.1248 -3.64783 0
0.812914 -1.26127 0
