# vtk DataFile Version 2.0
Unstructured Grid by M++
ASCII
DATASET UNSTRUCTURED_GRID
POINTS 81 float
  1.000000   0.625000 0
  0.750000   0.375000 0
  1.000000   0.000000 0
  0.875000   0.875000 0
  0.750000   0.125000 0
  1.000000   1.000000 0
  0.875000   0.250000 0
  0.625000   0.875000 0
  1.000000   0.750000 0
  0.875000   0.000000 0
  1.000000   0.250000 0
  0.625000   0.375000 0
  0.875000   0.500000 0
  0.625000   0.625000 0
  1.000000   0.500000 0
  0.750000   0.500000 0
  0.750000   1.000000 0
  1.000000   0.125000 0
  0.625000   0.250000 0
  0.750000   0.750000 0
  0.625000   0.000000 0
  0.125000   0.375000 0
  0.000000   0.500000 0
  0.125000   0.625000 0
  0.625000   1.000000 0
  1.000000   0.875000 0
  0.875000   0.125000 0
  0.500000   0.250000 0
  0.625000   0.500000 0
  0.250000   0.625000 0
  0.000000   0.625000 0
  0.375000   0.500000 0
  0.375000   0.000000 0
  0.000000   0.125000 0
  0.125000   0.875000 0
  0.875000   1.000000 0
  0.750000   0.250000 0
  0.375000   0.375000 0
  0.250000   0.375000 0
  0.625000   0.750000 0
  0.125000   0.125000 0
  0.500000   0.000000 0
  0.250000   0.875000 0
  0.125000   0.500000 0
  0.500000   0.375000 0
  0.125000   0.000000 0
  0.250000   0.750000 0
  0.250000   0.500000 0
  0.000000   0.875000 0
  0.875000   0.625000 0
  0.500000   0.750000 0
  0.750000   0.625000 0
  0.250000   0.000000 0
  0.375000   0.750000 0
  0.750000   0.875000 0
  0.625000   0.125000 0
  0.250000   0.250000 0
  0.375000   1.000000 0
  0.375000   0.250000 0
  0.000000   0.375000 0
  0.500000   1.000000 0
  0.875000   0.750000 0
  0.750000   0.000000 0
  0.375000   0.125000 0
  0.500000   0.875000 0
  0.000000   0.000000 0
  0.125000   0.750000 0
  0.500000   0.625000 0
  0.125000   0.250000 0
  0.500000   0.125000 0
  0.250000   1.000000 0
  0.250000   0.125000 0
  0.000000   1.000000 0
  0.375000   0.875000 0
  0.000000   0.750000 0
  0.375000   0.625000 0
  0.000000   0.250000 0
  0.125000   1.000000 0
  1.000000   0.375000 0
  0.500000   0.500000 0
  0.875000   0.375000 0
CELLS 64 320
4 56 71 58 63
4 27 58 69 63
4 41 69 32 63
4 76 33 68 40
4 27 44 58 37
4 79 31 44 37
4 56 38 68 21
4 56 58 38 37
4 52 32 71 63
4 47 38 31 37
4 76 68 59 21
4 22 59 43 21
4 65 45 33 40
4 47 43 38 21
4 52 71 45 40
4 56 68 71 40
4 74 30 66 23
4 46 66 29 23
4 22 43 30 23
4 72 48 77 34
4 46 53 42 73
4 50 64 53 73
4 70 42 57 73
4 74 66 48 34
4 46 42 66 34
4 47 29 43 23
4 70 77 42 34
4 60 57 64 73
4 79 67 31 75
4 47 31 29 75
4 50 53 67 75
4 46 29 53 75
4 10 78 6 80
4 36 6 1 80
4 15 1 12 80
4 36 4 6 26
4 14 12 78 80
4 2 17 9 26
4 36 18 4 55
4 15 28 1 11
4 62 4 20 55
4 10 6 17 26
4 27 18 44 11
4 62 9 4 26
4 27 69 18 55
4 36 1 18 11
4 41 20 69 55
4 79 44 28 11
4 16 24 54 7
4 19 54 39 7
4 50 39 64 7
4 8 25 61 3
4 60 64 24 7
4 79 28 67 13
4 19 51 61 49
4 8 61 0 49
4 15 51 28 13
4 19 39 51 13
4 50 67 39 13
4 19 61 54 3
4 14 0 12 49
4 5 35 25 3
4 15 12 51 49
4 16 54 35 3
CELL_TYPES 64
8
8
8
8
8
8
8
8
8
8
8
8
8
8
8
8
8
8
8
8
8
8
8
8
8
8
8
8
8
8
8
8
8
8
8
8
8
8
8
8
8
8
8
8
8
8
8
8
8
8
8
8
8
8
8
8
8
8
8
8
8
8
8
8
CELL_DATA 64
VECTORS vector_value float
-0.0433441 -0.0712783 0
-0.00575858 -0.0592029 0
-0.026631 -0.081032 0
-0.0661862 -0.141826 0
0.179973 -0.21422 0
1.8912 -1.05791 0
-0.022076 -0.161729 0
0.00351762 -0.0526539 0
-0.0252671 -0.0376549 0
0.915358 -0.778476 0
-0.00423565 -0.0330471 0
0.00035772 -0.0243288 0
-0.0222018 -0.204075 0
0.0456318 -0.155841 0
-0.0490461 -0.0663651 0
-0.072179 -0.0775344 0
0.391549 -0.515632 0
0.487268 -1.21428 0
0.018934 -0.0429157 0
-0.011987 -1.07569 0
-0.176254 -1.4996 0
-0.210281 -0.579271 0
0.175683 -0.721284 0
0.0880319 -0.951218 0
0.141779 -0.750902 0
0.651718 -0.994142 0
0.0714726 -0.873741 0
0.0673939 -1.35124 0
1.38764 -2.04145 0
0.875318 -0.976051 0
-0.136593 -1.36047 0
0.48151 -1.43677 0
-0.0865067 -0.136457 0
-0.141951 -0.504612 0
-0.105268 -0.127955 0
0.413811 -0.999188 0
-0.17634 -0.551109 0
0.0719812 -0.314965 0
0.531102 -6.04137 0
-0.144826 -1.57662 0
0.209742 -4.91224 0
0.040972 -0.156031 0
2.67117 -2.36855 0
0.457861 -1.86283 0
0.00703943 -0.453573 0
2.45016 -4.52874 0
-0.0555572 -0.520839 0
1.52368 -3.72776 0
-0.0505479 -0.265428 0
-0.177721 -0.202598 0
-0.210442 -1.74847 0
-0.0213828 -0.913764 0
-0.163889 -1.30765 0
0.110696 -1.75239 0
-0.117071 -0.689516 0
-0.0230733 -0.88619 0
-0.384663 -0.978913 0
-0.264374 -1.13949 0
-0.0414993 -0.757655 0
-0.405576 -1.35418 0
-0.105234 -0.73411 0
-0.0309371 -1.02946 0
-0.456109 -0.480026 0
0.176992 -1.37549 0
