# vtk DataFile Version 2.0
Unstructured Grid by M++
ASCII
DATASET UNSTRUCTURED_GRID
POINTS 81 float
  1.000000   0.625000 0
  0.750000   0.375000 0
  1.000000   0.000000 0
  0.875000   0.875000 0
  0.750000   0.125000 0
  1.000000   1.000000 0
  0.875000   0.250000 0
  0.625000   0.875000 0
  1.000000   0.750000 0
  0.875000   0.000000 0
  1.000000   0.250000 0
  0.625000   0.375000 0
  0.875000   0.500000 0
  0.625000   0.625000 0
  1.000000   0.500000 0
  0.750000   0.500000 0
  0.750000   1.000000 0
  1.000000   0.125000 0
  0.625000   0.250000 0
  0.750000   0.750000 0
  0.625000   0.000000 0
  0.125000   0.375000 0
  0.000000   0.500000 0
  0.125000   0.625000 0
  0.625000   1.000000 0
  1.000000   0.875000 0
  0.875000   0.125000 0
  0.500000   0.250000 0
  0.625000   0.500000 0
  0.250000   0.625000 0
  0.000000   0.625000 0
  0.375000   0.500000 0
  0.375000   0.000000 0
  0.000000   0.125000 0
  0.125000   0.875000 0
  0.875000   1.000000 0
  0.750000   0.250000 0
  0.375000   0.375000 0
  0.250000   0.375000 0
  0.625000   0.750000 0
  0.125000   0.125000 0
  0.500000   0.000000 0
  0.250000   0.875000 0
  0.125000   0.500000 0
  0.500000   0.375000 0
  0.125000   0.000000 0
  0.250000   0.750000 0
  0.250000   0.500000 0
  0.000000   0.875000 0
  0.875000   0.625000 0
  0.500000   0.750000 0
  0.750000   0.625000 0
  0.250000   0.000000 0
  0.375000   0.750000 0
  0.750000   0.875000 0
  0.625000   0.125000 0
  0.250000   0.250000 0
  0.375000   1.000000 0
  0.375000   0.250000 0
  0.000000   0.375000 0
  0.500000   1.000000 0
  0.875000   0.750000 0
  0.750000   0.000000 0
  0.375000   0.125000 0
  0.500000   0.875000 0
  0.000000   0.000000 0
  0.125000   0.750000 0
  0.500000   0.625000 0
  0.125000   0.250000 0
  0.500000   0.125000 0
  0.250000   1.000000 0
  0.250000   0.125000 0
  0.000000   1.000000 0
  0.375000   0.875000 0
  0.000000   0.750000 0
  0.375000   0.625000 0
  0.000000   0.250000 0
  0.125000   1.000000 0
  1.000000   0.375000 0
  0.500000   0.500000 0
  0.875000   0.375000 0
CELLS 64 320
4 56 71 58 63
4 27 58 69 63
4 41 69 32 63
4 76 33 68 40
4 27 44 58 37
4 79 31 44 37
4 56 38 68 21
4 56 58 38 37
4 52 32 71 63
4 47 38 31 37
4 76 68 59 21
4 22 59 43 21
4 65 45 33 40
4 47 43 38 21
4 52 71 45 40
4 56 68 71 40
4 74 30 66 23
4 46 66 29 23
4 22 43 30 23
4 72 48 77 34
4 46 53 42 73
4 50 64 53 73
4 70 42 57 73
4 74 66 48 34
4 46 42 66 34
4 47 29 43 23
4 70 77 42 34
4 60 57 64 73
4 79 67 31 75
4 47 31 29 75
4 50 53 67 75
4 46 29 53 75
4 10 78 6 80
4 36 6 1 80
4 15 1 12 80
4 36 4 6 26
4 14 12 78 80
4 2 17 9 26
4 36 18 4 55
4 15 28 1 11
4 62 4 20 55
4 10 6 17 26
4 27 18 44 11
4 62 9 4 26
4 27 69 18 55
4 36 1 18 11
4 41 20 69 55
4 79 44 28 11
4 16 24 54 7
4 19 54 39 7
4 50 39 64 7
4 8 25 61 3
4 60 64 24 7
4 79 28 67 13
4 19 51 61 49
4 8 61 0 49
4 15 51 28 13
4 19 39 51 13
4 50 67 39 13
4 19 61 54 3
4 14 0 12 49
4 5 35 25 3
4 15 12 51 49
4 16 54 35 3
CELL_TYPES 64
8
8
8
8
8
8
8
8
8
8
8
8
8
8
8
8
8
8
8
8
8
8
8
8
8
8
8
8
8
8
8
8
8
8
8
8
8
8
8
8
8
8
8
8
8
8
8
8
8
8
8
8
8
8
8
8
8
8
8
8
8
8
8
8
CELL_DATA 64
VECTORS vector_value float
0.169374 -0.615141 0
1.91622 -5.02193 0
0.419879 -2.85417 0
0.00451443 -0.054853 0
2.15238 -3.3794 0
0.269558 -0.951292 0
1.05919 -0.640905 0
3.00432 -2.78429 0
-0.00947609 -0.595416 0
2.15908 -2.80349 0
0.250893 -0.289675 0
1.40208 -1.66071 0
0.00133474 -0.0501182 0
3.19181 -1.81554 0
0.00370786 -0.0266333 0
0.00660684 -0.0282151 0
-0.115199 -4.02241 0
-0.186381 -1.55895 0
0.281986 -3.75623 0
-0.423343 -1.51104 0
-1.295 -2.37615 0
0.0187871 -0.469593 0
-2.23105 -1.69401 0
-0.927101 -2.99781 0
-1.92317 -1.32763 0
0.357111 -1.37589 0
-1.0717 -0.905527 0
-3.41413 -1.66045 0
0.0590134 -0.758054 0
0.330367 -1.28351 0
0.0490122 -0.566284 0
-0.00365316 -0.99668 0
1.64737e-05 -0.176101 0
-0.002954 -0.369978 0
0.0831466 -0.382805 0
-0.000223728 -0.443757 0
0.00742493 -0.165027 0
-0.00451177 -0.135671 0
0.145858 -0.311755 0
0.0308066 -0.11377 0
0.164874 -0.781098 0
-0.0138833 -0.153892 0
0.175673 -0.180469 0
-0.0214126 -0.421009 0
1.13266 -1.37046 0
0.051223 -0.179181 0
1.04448 -3.13588 0
-0.00783833 -0.107362 0
-1.8228 -0.594523 0
-0.122553 -0.355615 0
-0.0293348 -0.0434658 0
0.00833168 -0.0965299 0
-2.67411 -0.296536 0
-0.0330021 -0.139304 0
0.00570129 -0.13557 0
0.0474978 -0.212895 0
0.0676809 -0.308983 0
-0.0403839 -0.343162 0
-0.0287307 -0.164053 0
0.000146069 -0.333212 0
-0.0282224 -0.164196 0
-0.44957 -0.3791 0
0.00343289 -0.213833 0
-1.22523 -0.958822 0
