# vtk DataFile Version 2.0
Unstructured Grid by M++
ASCII
DATASET UNSTRUCTURED_GRID
POINTS 289 float
  0.562500   1.000000 0
  0.562500   0.625000 0
  0.625000   1.000000 0
  0.562500   0.937500 0
  0.562500   0.562500 0
  0.625000   0.937500 0
  0.562500   0.875000 0
  0.625000   0.750000 0
  0.625000   0.625000 0
  0.562500   0.812500 0
  0.562500   0.750000 0
  0.562500   0.687500 0
  0.625000   0.875000 0
  0.625000   0.812500 0
  0.625000   0.687500 0
  0.687500   0.125000 0
  0.875000   0.062500 0
  0.625000   0.125000 0
  0.625000   0.187500 0
  0.625000   0.250000 0
  0.812500   0.187500 0
  1.000000   0.125000 0
  0.687500   0.187500 0
  0.750000   0.125000 0
  0.937500   0.062500 0
  0.937500   0.125000 0
  0.750000   0.187500 0
  0.812500   0.062500 0
  0.812500   0.125000 0
  0.875000   0.687500 0
  0.187500   0.250000 0
  0.437500   0.250000 0
  0.375000   0.187500 0
  0.812500   0.625000 0
  0.125000   0.187500 0
  0.937500   0.750000 0
  0.250000   0.312500 0
  0.500000   0.312500 0
  0.625000   0.062500 0
  0.437500   0.500000 0
  0.375000   0.125000 0
  0.437500   0.187500 0
  0.437500   0.437500 0
  0.437500   0.375000 0
  0.875000   0.875000 0
  0.187500   0.375000 0
  0.687500   0.562500 0
  0.687500   0.625000 0
  0.000000   0.125000 0
  0.937500   0.625000 0
  0.250000   0.125000 0
  0.375000   0.062500 0
  0.375000   0.000000 0
  0.812500   0.500000 0
  0.125000   0.000000 0
  0.937500   0.937500 0
  0.250000   0.437500 0
  0.687500   0.875000 0
  0.687500   0.937500 0
  0.000000   0.437500 0
  0.500000   0.500000 0
  0.500000   0.437500 0
  0.750000   0.937500 0
  0.750000   1.000000 0
  0.062500   0.500000 0
  1.000000   1.000000 0
  0.312500   0.500000 0
  0.875000   0.562500 0
  0.187500   0.062500 0
  0.437500   0.125000 0
  0.437500   0.062500 0
  0.500000   0.375000 0
  0.937500   0.812500 0
  0.937500   0.875000 0
  0.250000   0.375000 0
  0.687500   0.812500 0
  0.000000   0.375000 0
  0.750000   0.562500 0
  0.062500   0.125000 0
  1.000000   0.562500 0
  1.000000   0.625000 0
  0.312500   0.125000 0
  0.562500   0.125000 0
  0.437500   0.000000 0
  0.875000   0.437500 0
  0.875000   0.500000 0
  0.187500   0.000000 0
  0.937500   0.562500 0
  0.937500   0.500000 0
  0.250000   0.062500 0
  0.687500   0.500000 0
  0.000000   0.062500 0
  0.500000   0.062500 0
  1.000000   0.875000 0
  1.000000   0.937500 0
  0.312500   0.437500 0
  0.750000   0.875000 0
  0.062500   0.437500 0
  0.812500   0.937500 0
  0.125000   0.500000 0
  0.375000   0.500000 0
  0.625000   0.562500 0
  0.625000   0.500000 0
  0.437500   0.312500 0
  0.875000   0.812500 0
  0.875000   0.750000 0
  0.187500   0.312500 0
  0.812500   0.687500 0
  0.812500   0.750000 0
  0.125000   0.250000 0
  0.375000   0.250000 0
  1.000000   0.687500 0
  0.312500   0.187500 0
  0.750000   0.687500 0
  0.750000   0.625000 0
  0.062500   0.187500 0
  0.562500   0.250000 0
  0.562500   0.187500 0
  0.375000   1.000000 0
  0.500000   0.562500 0
  0.500000   0.250000 0
  0.750000   0.250000 0
  0.500000   0.125000 0
  0.500000   0.187500 0
  1.000000   0.187500 0
  0.625000   0.375000 0
  0.875000   0.375000 0
  1.000000   0.437500 0
  0.312500   0.000000 0
  0.562500   0.000000 0
  0.812500   0.000000 0
  0.250000   0.687500 0
  0.000000   0.687500 0
  0.500000   1.000000 0
  0.250000   1.000000 0
  0.000000   1.000000 0
  0.437500   0.687500 0
  0.437500   0.625000 0
  0.187500   0.625000 0
  0.687500   0.750000 0
  0.000000   0.312500 0
  0.000000   0.250000 0
  0.375000   0.375000 0
  0.375000   0.312500 0
  0.812500   0.812500 0
  0.125000   0.312500 0
  0.875000   0.625000 0
  0.187500   0.187500 0
  0.187500   0.125000 0
  0.937500   1.000000 0
  0.250000   0.562500 0
  0.250000   0.500000 0
  0.687500   1.000000 0
  0.000000   0.500000 0
  0.687500   0.687500 0
  0.000000   0.187500 0
  0.937500   0.687500 0
  0.250000   0.250000 0
  0.250000   0.187500 0
  0.187500   0.687500 0
  0.000000   0.750000 0
  0.250000   0.750000 0
  0.125000   0.625000 0
  0.750000   0.750000 0
  0.062500   0.250000 0
  0.875000   0.937500 0
  0.187500   0.500000 0
  0.187500   0.437500 0
  0.812500   0.562500 0
  0.125000   0.125000 0
  0.125000   0.062500 0
  0.375000   0.625000 0
  0.375000   0.687500 0
  1.000000   0.750000 0
  0.312500   0.250000 0
  0.312500   0.312500 0
  0.812500   0.312500 0
  0.562500   0.312500 0
  0.375000   0.750000 0
  0.500000   0.625000 0
  0.250000   0.625000 0
  0.312500   0.687500 0
  0.750000   0.812500 0
  0.062500   0.312500 0
  0.062500   0.375000 0
  1.000000   0.812500 0
  0.312500   0.375000 0
  0.562500   0.375000 0
  0.687500   0.437500 0
  0.000000   0.000000 0
  0.500000   0.000000 0
  0.937500   0.437500 0
  0.250000   0.000000 0
  0.375000   0.437500 0
  0.812500   0.875000 0
  0.125000   0.375000 0
  0.125000   0.437500 0
  0.625000   0.437500 0
  1.000000   0.500000 0
  0.312500   0.062500 0
  0.750000   0.500000 0
  0.062500   0.000000 0
  0.062500   0.062500 0
  0.562500   0.062500 0
  0.062500   0.750000 0
  0.312500   0.750000 0
  0.312500   0.625000 0
  0.312500   0.562500 0
  0.062500   0.562500 0
  0.187500   1.000000 0
  0.437500   0.562500 0
  0.875000   1.000000 0
  0.187500   0.562500 0
  0.500000   0.937500 0
  0.250000   0.937500 0
  0.312500   1.000000 0
  0.125000   0.750000 0
  0.125000   0.687500 0
  1.000000   0.000000 0
  0.000000   0.937500 0
  0.000000   0.875000 0
  0.875000   0.125000 0
  0.875000   0.187500 0
  0.062500   0.812500 0
  0.312500   0.812500 0
  0.000000   0.812500 0
  0.000000   0.625000 0
  0.000000   0.562500 0
  0.062500   1.000000 0
  0.062500   0.937500 0
  0.937500   0.187500 0
  0.937500   0.250000 0
  0.062500   0.687500 0
  0.062500   0.625000 0
  0.125000   1.000000 0
  1.000000   0.250000 0
  1.000000   0.312500 0
  0.062500   0.875000 0
  0.125000   0.812500 0
  0.375000   0.812500 0
  0.125000   0.875000 0
  0.375000   0.937500 0
  0.375000   0.875000 0
  0.187500   0.750000 0
  0.187500   0.812500 0
  0.437500   0.812500 0
  0.187500   0.875000 0
  0.437500   0.875000 0
  0.375000   0.562500 0
  0.812500   1.000000 0
  0.125000   0.562500 0
  0.437500   1.000000 0
  0.437500   0.937500 0
  0.187500   0.937500 0
  0.125000   0.937500 0
  0.500000   0.687500 0
  0.500000   0.750000 0
  0.500000   0.812500 0
  0.250000   0.812500 0
  0.250000   0.875000 0
  0.500000   0.875000 0
  0.437500   0.750000 0
  0.312500   0.875000 0
  0.312500   0.937500 0
  0.687500   0.250000 0
  0.687500   0.312500 0
  0.937500   0.312500 0
  0.875000   0.250000 0
  0.625000   0.000000 0
  0.875000   0.000000 0
  0.687500   0.375000 0
  0.937500   0.375000 0
  0.875000   0.312500 0
  0.625000   0.312500 0
  0.687500   0.000000 0
  0.937500   0.000000 0
  0.750000   0.312500 0
  0.750000   0.375000 0
  1.000000   0.375000 0
  0.812500   0.250000 0
  0.562500   0.437500 0
  0.562500   0.500000 0
  0.687500   0.062500 0
  0.750000   0.437500 0
  0.750000   0.000000 0
  0.750000   0.062500 0
  1.000000   0.062500 0
  0.812500   0.375000 0
  0.812500   0.437500 0
CELLS 256 1280
4 169 170 148 68
4 151 166 56 167
4 195 45 196 167
4 54 170 201 202
4 109 34 30 147
4 40 32 81 112
4 192 89 86 68
4 48 91 78 202
4 99 64 196 97
4 71 43 37 103
4 74 186 56 95
4 109 164 34 115
4 50 81 158 112
4 122 69 92 70
4 195 145 45 106
4 110 143 174 175
4 157 30 158 147
4 40 69 32 41
4 50 158 148 147
4 141 155 164 115
4 122 123 69 41
4 142 186 143 175
4 60 39 61 42
4 40 51 69 70
4 120 31 123 41
4 157 174 36 175
4 50 148 89 68
4 48 78 155 115
4 52 83 51 70
4 151 56 66 95
4 71 61 43 42
4 169 148 34 147
4 100 193 39 42
4 40 81 51 199
4 110 174 32 112
4 109 30 145 106
4 100 66 193 95
4 169 34 78 115
4 190 92 83 70
4 50 89 81 199
4 54 86 170 68
4 74 56 45 167
4 142 143 43 103
4 153 59 64 97
4 99 196 166 167
4 169 78 170 202
4 142 193 186 95
4 192 128 89 199
4 74 45 36 106
4 110 31 143 103
4 76 184 59 97
4 142 43 193 42
4 52 51 128 199
4 189 201 91 202
4 120 37 31 103
4 74 36 186 175
4 195 196 184 97
4 141 164 140 183
4 157 158 174 112
4 109 145 164 183
4 195 184 145 183
4 110 32 31 41
4 157 36 30 106
4 76 140 184 183
4 171 172 206 181
4 178 172 261 136
4 256 261 255 136
4 256 257 261 245
4 180 150 206 207
4 60 119 39 210
4 118 215 241 263
4 178 205 172 181
4 216 243 238 244
4 162 217 233 232
4 180 206 131 181
4 179 137 119 210
4 216 204 217 232
4 220 237 219 229
4 216 217 243 159
4 259 258 262 224
4 240 254 237 229
4 153 64 227 208
4 161 205 258 224
4 240 237 238 223
4 226 227 233 208
4 234 228 254 229
4 171 248 137 210
4 160 132 204 232
4 180 131 138 159
4 133 251 213 252
4 171 206 248 207
4 162 138 217 159
4 161 258 243 244
4 220 225 237 223
4 151 150 166 212
4 260 247 257 245
4 259 262 214 263
4 151 66 150 207
4 234 254 209 253
4 162 233 250 208
4 242 241 262 263
4 171 137 172 136
4 161 243 131 159
4 160 204 225 223
4 161 131 205 181
4 179 255 137 136
4 216 238 204 223
4 100 39 248 210
4 260 213 247 252
4 226 233 132 232
4 134 214 215 263
4 180 138 150 212
4 178 261 239 245
4 259 246 258 244
4 178 239 205 224
4 240 238 246 244
4 242 262 239 224
4 99 250 64 208
4 240 246 254 253
4 242 239 247 245
4 135 219 228 229
4 99 166 250 212
4 259 214 246 253
4 118 241 251 252
4 100 248 66 207
4 134 209 214 253
4 162 250 138 212
4 242 247 241 252
4 71 187 61 280
4 102 281 197 280
4 122 92 82 203
4 17 18 82 117
4 122 82 123 117
4 19 264 273 265
4 267 279 222 20
4 125 273 270 265
4 267 272 279 176
4 19 116 18 117
4 21 25 286 24
4 23 28 26 20
4 23 285 28 27
4 218 286 275 24
4 85 53 84 288
4 235 236 231 266
4 221 222 28 20
4 267 222 231 230
4 268 38 129 203
4 125 270 197 188
4 126 287 272 176
4 277 270 276 265
4 267 231 272 266
4 125 197 187 280
4 190 129 92 203
4 277 276 287 176
4 19 18 264 22
4 17 82 38 203
4 102 197 90 188
4 126 84 287 288
4 284 130 285 27
4 121 276 264 265
4 71 37 187 177
4 120 123 116 117
4 198 88 127 191
4 221 16 25 24
4 23 26 15 22
4 121 279 276 176
4 235 231 124 230
4 125 187 273 177
4 278 271 236 266
4 277 287 283 288
4 284 285 274 282
4 278 127 271 191
4 269 275 16 24
4 200 283 53 288
4 23 15 285 282
4 121 26 279 20
4 21 124 25 230
4 19 273 116 177
4 200 90 283 188
4 126 271 84 191
4 269 16 130 27
4 17 38 15 282
4 221 25 222 230
4 121 264 26 22
4 120 116 37 177
4 60 61 281 280
4 277 283 270 188
4 126 272 271 266
4 268 274 38 282
4 85 84 88 191
4 17 15 18 22
4 221 28 16 27
4 93 94 73 55
4 85 88 67 87
4 80 49 79 87
4 44 104 73 72
4 146 33 67 168
4 211 165 149 55
4 8 47 14 154
4 105 104 108 144
4 105 108 29 107
4 7 139 13 75
4 44 165 194 98
4 200 53 77 168
4 8 1 101 4
4 2 5 152 58
4 260 6 213 3
4 105 35 104 72
4 96 57 182 75
4 7 14 139 154
4 146 29 33 107
4 7 13 10 9
4 12 13 57 75
4 85 67 53 168
4 44 73 165 55
4 63 152 62 58
4 8 101 47 46
4 96 182 194 144
4 60 281 119 4
4 12 5 6 3
4 173 185 35 72
4 65 149 94 55
4 146 67 49 87
4 114 113 47 154
4 163 108 182 144
4 12 6 13 9
4 173 35 111 156
4 163 182 139 75
4 260 257 6 9
4 105 29 35 156
4 163 139 113 154
4 256 10 257 9
4 146 49 29 156
4 163 113 108 107
4 80 111 49 156
4 102 101 281 4
4 12 57 5 58
4 44 194 104 144
4 96 194 62 98
4 2 0 5 3
4 93 73 185 72
4 179 119 1 4
4 200 77 90 46
4 114 33 113 107
4 7 10 14 11
4 96 62 57 58
4 133 213 0 3
4 102 90 101 46
4 256 255 10 11
4 63 62 249 98
4 114 47 77 46
4 179 1 255 11
4 211 249 165 98
4 114 77 33 168
4 198 79 88 87
4 8 14 1 11
CELL_TYPES 256
8
8
8
8
8
8
8
8
8
8
8
8
8
8
8
8
8
8
8
8
8
8
8
8
8
8
8
8
8
8
8
8
8
8
8
8
8
8
8
8
8
8
8
8
8
8
8
8
8
8
8
8
8
8
8
8
8
8
8
8
8
8
8
8
8
8
8
8
8
8
8
8
8
8
8
8
8
8
8
8
8
8
8
8
8
8
8
8
8
8
8
8
8
8
8
8
8
8
8
8
8
8
8
8
8
8
8
8
8
8
8
8
8
8
8
8
8
8
8
8
8
8
8
8
8
8
8
8
8
8
8
8
8
8
8
8
8
8
8
8
8
8
8
8
8
8
8
8
8
8
8
8
8
8
8
8
8
8
8
8
8
8
8
8
8
8
8
8
8
8
8
8
8
8
8
8
8
8
8
8
8
8
8
8
8
8
8
8
8
8
8
8
8
8
8
8
8
8
8
8
8
8
8
8
8
8
8
8
8
8
8
8
8
8
8
8
8
8
8
8
8
8
8
8
8
8
8
8
8
8
8
8
8
8
8
8
8
8
8
8
8
8
8
8
8
8
8
8
8
8
8
8
8
8
8
8
CELL_DATA 256
VECTORS vector_value float
-0.265074 -1.17984 0
-0.091032 -0.454365 0
-0.0719308 -0.926451 0
-0.10632 -1.52438 0
0.153207 -1.37663 0
-0.629909 -1.67906 0
0.0210175 -0.965572 0
-0.242332 -2.02306 0
-0.932855 -2.11536 0
-1.83075 -4.07313 0
0.0282907 -0.0849836 0
0.0652294 -1.15487 0
-0.49965 -1.66122 0
-0.310462 -0.907662 0
0.220291 -0.867966 0
-1.0594 -0.694771 0
-0.0490505 -1.04998 0
-1.03546 -2.30621 0
-0.357278 -1.17028 0
0.0173159 -2.59623 0
-0.403691 -1.30629 0
-0.111581 -0.148887 0
-0.358929 -1.92086 0
-0.804957 -1.77804 0
-0.631223 -2.59994 0
-0.211538 -0.360579 0
-0.181006 -1.22589 0
0.197211 -2.0413 0
-0.265819 -1.24819 0
0.00991971 -0.0869315 0
-0.923493 -3.27876 0
-0.356674 -1.32839 0
-0.0325241 -0.440917 0
-0.580325 -2.75176 0
-1.15753 -1.7693 0
0.480637 -1.03827 0
0.0212002 -0.044064 0
0.0927969 -1.94179 0
-0.0552497 -0.545225 0
-0.0723239 -1.32814 0
0.00504009 -1.35596 0
0.0302793 -0.375553 0
-0.850233 -1.39422 0
-0.590873 -2.1514 0
-0.570149 -1.46802 0
-0.526534 -2.44612 0
0.0126908 -0.0619098 0
0.0132165 -1.5927 0
0.0871427 -0.368715 0
-2.21656 -2.6365 0
-0.0710937 -2.79257 0
-0.0794194 -0.544159 0
-0.328273 -3.51778 0
-0.264988 -2.89154 0
-1.31734 -3.44367 0
0.00898088 -0.145818 0
-0.177441 -2.06607 0
-0.0743107 -2.18642 0
-0.579744 -1.07141 0
0.226012 -2.15953 0
0.397902 -2.32349 0
-0.71217 -1.81836 0
0.175396 -0.710821 0
0.2406 -2.53207 0
-0.190434 -0.375131 0
0.353771 -0.559025 0
0.359022 -0.986623 0
0.361906 -0.729247 0
-0.538471 -0.834302 0
-0.155381 -1.58162 0
-0.775123 -1.37807 0
0.0911319 -0.615277 0
0.220689 -1.09817 0
-0.000244967 -0.852127 0
-0.597548 -1.73415 0
-0.241409 -1.19453 0
0.0533157 -0.641069 0
0.0920695 -0.818668 0
0.0226866 -0.796536 0
0.041524 -0.724594 0
0.328566 -1.30992 0
-0.394894 -1.00026 0
0.27387 -1.05892 0
-0.00177237 -0.951909 0
0.0218688 -0.552549 0
-0.139263 -1.08194 0
-0.0406203 -0.228058 0
0.0479583 -0.893527 0
-0.572042 -1.67045 0
-0.576433 -0.749565 0
-0.0758588 -0.166499 0
-0.246416 -0.917144 0
0.471482 -2.16354 0
-0.0808152 -0.777173 0
-0.810467 -1.06546 0
0.163238 -0.841812 0
-0.664753 -1.26309 0
-0.129624 -0.228439 0
-0.366043 -1.12399 0
-0.280176 -1.43567 0
-0.260776 -1.17416 0
0.0212855 -0.232366 0
0.259272 -1.95653 0
-0.00889627 -1.05053 0
0.283117 -1.4296 0
0.134825 -1.25804 0
0.0563748 -0.530519 0
-0.0187189 -0.313109 0
-0.0925861 -0.675449 0
0.0951498 -0.771944 0
-0.396868 -0.942436 0
-1.23063 -1.64889 0
0.356797 -0.84397 0
0.315354 -1.79126 0
0.182924 -0.630791 0
0.579056 -1.72405 0
0.205795 -0.976841 0
-1.22704 -2.10812 0
0.0683755 -1.57987 0
0.253719 -0.735195 0
0.0260965 -1.1397 0
-1.34357 -1.89353 0
-0.381577 -0.986332 0
-0.875763 -0.968475 0
0.0117083 -0.0563941 0
-0.438021 -0.886326 0
-1.12319 -1.72463 0
-0.069661 -0.694994 0
-1.0109 -3.49221 0
-0.54887 -1.32895 0
0.0290471 -0.464955 0
0.0422046 -0.287969 0
-0.0282366 -0.818468 0
0.059137 -0.250317 0
0.0411624 -0.0510771 0
0.0186247 -0.282447 0
0.0349222 -0.0504306 0
0.001923 -0.321423 0
-0.0405438 -0.611217 0
0.0421264 -0.111698 0
0.0563481 -0.162243 0
-0.00533972 -0.585849 0
-0.0705721 -0.0431061 0
0.0137519 -0.79282 0
0.0161673 -0.0561636 0
0.0205871 -0.135973 0
0.0828765 -0.377383 0
-0.0679848 -0.369816 0
-0.00714352 -0.0427234 0
0.0189393 -0.148332 0
0.025321 -0.105843 0
-0.367101 -0.906776 0
0.0278442 -0.350104 0
-0.0183401 -0.0546446 0
0.0215879 -0.148735 0
0.112899 -0.414805 0
-0.164031 -0.538451 0
-0.0330562 -0.0731559 0
-0.00470483 -0.177459 0
0.0770758 -0.19826 0
-1.23603 -2.30048 0
-0.013546 -0.807883 0
-0.0330055 -0.806092 0
-0.0912461 -0.326523 0
0.0500026 -0.16339 0
0.0454676 -0.0563007 0
0.00047338 -0.806049 0
-0.158307 -0.427253 0
0.00590252 -0.767755 0
-0.0224599 -0.0358385 0
0.0347921 -0.153059 0
-0.00208981 -0.759157 0
-0.0154075 -0.310558 0
-0.036714 -0.0229189 0
0.0341551 -0.102672 0
0.0557073 -0.0701251 0
-0.0629886 -0.775802 0
-0.00637926 -0.279942 0
-0.0384605 -0.117121 0
-0.010394 -0.136616 0
-0.0192507 -0.170315 0
0.0330441 -0.145196 0
-0.0332022 -0.197023 0
0.0596939 -0.222015 0
-0.292971 -1.03552 0
-0.799844 -4.30271 0
-0.0150474 -0.095981 0
0.00578274 -0.122072 0
0.103913 -0.233917 0
-0.0848434 -0.158741 0
0.0211673 -0.154954 0
-0.00613666 -0.131872 0
-0.0976231 -2.12779 0
-0.133283 -0.110737 0
-0.0692626 -1.07871 0
-0.35256 -1.22673 0
-0.0724792 -0.00160381 0
1.00719 -1.00896 0
-1.19145 -1.52927 0
-0.834348 -0.412647 0
-0.547833 -0.160429 0
-0.604454 -1.37307 0
-0.0318064 -0.510759 0
-0.0602256 -0.00782624 0
-0.705891 -2.07831 0
-0.228289 -1.10019 0
-0.112356 -0.704672 0
-0.341272 -0.575864 0
-0.252777 -0.676915 0
-1.22768 -1.98292 0
-0.396822 -0.0384265 0
-0.129777 -1.41613 0
-0.150698 -0.917808 0
-0.0797795 -0.00936835 0
-0.0107969 -0.987077 0
-0.0174974 -0.852026 0
-0.19625 -1.06721 0
-0.339271 -0.622103 0
-0.303016 -4.09901 0
-0.185638 -1.25419 0
-0.0619439 -1.7145 0
0.510157 -1.65613 0
-0.145017 -0.0592702 0
-0.754553 -0.417859 0
-1.0372 -0.433594 0
-0.028752 -1.11202 0
-0.124763 -1.45389 0
-1.1261 -0.823481 0
-0.0329328 -0.812689 0
-0.377667 -0.301891 0
-0.985818 -0.6333 0
0.291656 -1.14502 0
-0.224629 -0.114944 0
-0.785837 -0.220572 0
-0.0931068 -1.23766 0
-0.380158 -1.38104 0
-0.0721653 -0.62618 0
-0.319378 -0.375969 0
-0.0155319 -0.477926 0
-0.184542 -0.977861 0
-0.0506667 -1.73293 0
-0.824095 -3.69491 0
-0.0899102 -0.186148 0
-0.461483 -0.0502177 0
-0.644587 -1.87836 0
-0.028356 -0.808925 0
-0.271702 -0.785831 0
-0.32296 -1.01412 0
-0.0893311 -1.49045 0
0.327686 -0.582584 0
-0.139627 -0.226112 0
-0.645351 -2.32634 0
0.804709 -0.765926 0
-0.0909013 -0.00874656 0
-0.0969169 -0.944817 0
-1.56624 -2.47391 0
