# vtk DataFile Version 2.0
Unstructured Grid by M++
ASCII
DATASET UNSTRUCTURED_GRID
POINTS 81 float
  1.000000   0.625000 0
  0.750000   0.375000 0
  1.000000   0.000000 0
  0.875000   0.875000 0
  0.750000   0.125000 0
  1.000000   1.000000 0
  0.875000   0.250000 0
  0.625000   0.875000 0
  1.000000   0.750000 0
  0.875000   0.000000 0
  1.000000   0.250000 0
  0.625000   0.375000 0
  0.875000   0.500000 0
  0.625000   0.625000 0
  1.000000   0.500000 0
  0.750000   0.500000 0
  0.750000   1.000000 0
  1.000000   0.125000 0
  0.625000   0.250000 0
  0.750000   0.750000 0
  0.625000   0.000000 0
  0.125000   0.375000 0
  0.000000   0.500000 0
  0.125000   0.625000 0
  0.625000   1.000000 0
  1.000000   0.875000 0
  0.875000   0.125000 0
  0.500000   0.250000 0
  0.625000   0.500000 0
  0.250000   0.625000 0
  0.000000   0.625000 0
  0.375000   0.500000 0
  0.375000   0.000000 0
  0.000000   0.125000 0
  0.125000   0.875000 0
  0.875000   1.000000 0
  0.750000   0.250000 0
  0.375000   0.375000 0
  0.250000   0.375000 0
  0.625000   0.750000 0
  0.125000   0.125000 0
  0.500000   0.000000 0
  0.250000   0.875000 0
  0.125000   0.500000 0
  0.500000   0.375000 0
  0.125000   0.000000 0
  0.250000   0.750000 0
  0.250000   0.500000 0
  0.000000   0.875000 0
  0.875000   0.625000 0
  0.500000   0.750000 0
  0.750000   0.625000 0
  0.250000   0.000000 0
  0.375000   0.750000 0
  0.750000   0.875000 0
  0.625000   0.125000 0
  0.250000   0.250000 0
  0.375000   1.000000 0
  0.375000   0.250000 0
  0.000000   0.375000 0
  0.500000   1.000000 0
  0.875000   0.750000 0
  0.750000   0.000000 0
  0.375000   0.125000 0
  0.500000   0.875000 0
  0.000000   0.000000 0
  0.125000   0.750000 0
  0.500000   0.625000 0
  0.125000   0.250000 0
  0.500000   0.125000 0
  0.250000   1.000000 0
  0.250000   0.125000 0
  0.000000   1.000000 0
  0.375000   0.875000 0
  0.000000   0.750000 0
  0.375000   0.625000 0
  0.000000   0.250000 0
  0.125000   1.000000 0
  1.000000   0.375000 0
  0.500000   0.500000 0
  0.875000   0.375000 0
CELLS 64 320
4 56 71 58 63
4 27 58 69 63
4 41 69 32 63
4 76 33 68 40
4 27 44 58 37
4 79 31 44 37
4 56 38 68 21
4 56 58 38 37
4 52 32 71 63
4 47 38 31 37
4 76 68 59 21
4 22 59 43 21
4 65 45 33 40
4 47 43 38 21
4 52 71 45 40
4 56 68 71 40
4 74 30 66 23
4 46 66 29 23
4 22 43 30 23
4 72 48 77 34
4 46 53 42 73
4 50 64 53 73
4 70 42 57 73
4 74 66 48 34
4 46 42 66 34
4 47 29 43 23
4 70 77 42 34
4 60 57 64 73
4 79 67 31 75
4 47 31 29 75
4 50 53 67 75
4 46 29 53 75
4 10 78 6 80
4 36 6 1 80
4 15 1 12 80
4 36 4 6 26
4 14 12 78 80
4 2 17 9 26
4 36 18 4 55
4 15 28 1 11
4 62 4 20 55
4 10 6 17 26
4 27 18 44 11
4 62 9 4 26
4 27 69 18 55
4 36 1 18 11
4 41 20 69 55
4 79 44 28 11
4 16 24 54 7
4 19 54 39 7
4 50 39 64 7
4 8 25 61 3
4 60 64 24 7
4 79 28 67 13
4 19 51 61 49
4 8 61 0 49
4 15 51 28 13
4 19 39 51 13
4 50 67 39 13
4 19 61 54 3
4 14 0 12 49
4 5 35 25 3
4 15 12 51 49
4 16 54 35 3
CELL_TYPES 64
8
8
8
8
8
8
8
8
8
8
8
8
8
8
8
8
8
8
8
8
8
8
8
8
8
8
8
8
8
8
8
8
8
8
8
8
8
8
8
8
8
8
8
8
8
8
8
8
8
8
8
8
8
8
8
8
8
8
8
8
8
8
8
8
CELL_DATA 64
VECTORS vector_value float
-0.224534 -0.868848 0
0.447848 -1.72014 0
0.126998 -0.799646 0
-0.00894079 -0.142214 0
0.403185 -2.58987 0
1.50642 -2.03454 0
-0.0271928 -0.174331 0
-0.0114716 -0.718582 0
-0.0737794 -0.4874 0
1.08588 -2.3565 0
-0.0495181 -0.0996352 0
-0.0073393 -0.0162077 0
-0.00428134 -0.153977 0
-0.0674021 -0.175525 0
-0.217635 -0.544727 0
-0.0442387 -0.144545 0
0.369596 -0.418478 0
0.989214 -1.15703 0
0.0448934 -0.0395416 0
-0.16744 -1.21166 0
0.0943852 -1.16664 0
-0.0777237 -0.914978 0
-0.405215 -1.20182 0
0.245328 -1.41508 0
0.0442741 -0.830176 0
0.667335 -0.736653 0
-0.306967 -1.04444 0
-0.321119 -0.614445 0
0.329337 -1.2552 0
0.837535 -2.97576 0
-0.479711 -1.01924 0
0.242504 -2.18737 0
0.00565803 -0.0253258 0
-0.0286148 -0.171264 0
-0.170028 -0.477878 0
-0.0301966 -0.0946306 0
0.00367811 -0.00995531 0
0.000397119 -0.0339437 0
0.0235357 -2.63202 0
-0.248745 -1.69494 0
-0.133094 -2.1522 0
0.00247529 -0.0313996 0
0.582088 -2.30548 0
-0.00362437 -0.0564678 0
0.429112 -2.36621 0
0.0693055 -1.91551 0
0.0900313 -3.77164 0
0.282213 -1.23445 0
-0.133289 -0.380989 0
-0.319033 -0.751936 0
-0.171653 -1.18969 0
-0.338306 -1.01904 0
-0.299498 -1.34142 0
-0.0503743 -0.437183 0
-0.710718 -1.00168 0
-0.241587 -0.191387 0
-0.36216 -1.78796 0
-0.252193 -1.32567 0
-0.218485 -0.699148 0
-0.508528 -0.712465 0
-0.0138864 -0.0145646 0
0.0986088 -1.47015 0
-0.262403 -0.75313 0
0.275687 -0.735084 0
