# vtk DataFile Version 2.0
Unstructured Grid by M++
ASCII
DATASET UNSTRUCTURED_GRID
POINTS 81 float
  1.000000   0.625000 0
  0.750000   0.375000 0
  1.000000   0.000000 0
  0.875000   0.875000 0
  0.750000   0.125000 0
  1.000000   1.000000 0
  0.875000   0.250000 0
  0.625000   0.875000 0
  1.000000   0.750000 0
  0.875000   0.000000 0
  1.000000   0.250000 0
  0.625000   0.375000 0
  0.875000   0.500000 0
  0.625000   0.625000 0
  1.000000   0.500000 0
  0.750000   0.500000 0
  0.750000   1.000000 0
  1.000000   0.125000 0
  0.625000   0.250000 0
  0.750000   0.750000 0
  0.625000   0.000000 0
  0.125000   0.375000 0
  0.000000   0.500000 0
  0.125000   0.625000 0
  0.625000   1.000000 0
  1.000000   0.875000 0
  0.875000   0.125000 0
  0.500000   0.250000 0
  0.625000   0.500000 0
  0.250000   0.625000 0
  0.000000   0.625000 0
  0.375000   0.500000 0
  0.375000   0.000000 0
  0.000000   0.125000 0
  0.125000   0.875000 0
  0.875000   1.000000 0
  0.750000   0.250000 0
  0.375000   0.375000 0
  0.250000   0.375000 0
  0.625000   0.750000 0
  0.125000   0.125000 0
  0.500000   0.000000 0
  0.250000   0.875000 0
  0.125000   0.500000 0
  0.500000   0.375000 0
  0.125000   0.000000 0
  0.250000   0.750000 0
  0.250000   0.500000 0
  0.000000   0.875000 0
  0.875000   0.625000 0
  0.500000   0.750000 0
  0.750000   0.625000 0
  0.250000   0.000000 0
  0.375000   0.750000 0
  0.750000   0.875000 0
  0.625000   0.125000 0
  0.250000   0.250000 0
  0.375000   1.000000 0
  0.375000   0.250000 0
  0.000000   0.375000 0
  0.500000   1.000000 0
  0.875000   0.750000 0
  0.750000   0.000000 0
  0.375000   0.125000 0
  0.500000   0.875000 0
  0.000000   0.000000 0
  0.125000   0.750000 0
  0.500000   0.625000 0
  0.125000   0.250000 0
  0.500000   0.125000 0
  0.250000   1.000000 0
  0.250000   0.125000 0
  0.000000   1.000000 0
  0.375000   0.875000 0
  0.000000   0.750000 0
  0.375000   0.625000 0
  0.000000   0.250000 0
  0.125000   1.000000 0
  1.000000   0.375000 0
  0.500000   0.500000 0
  0.875000   0.375000 0
CELLS 64 320
4 56 71 58 63
4 27 58 69 63
4 41 69 32 63
4 76 33 68 40
4 27 44 58 37
4 79 31 44 37
4 56 38 68 21
4 56 58 38 37
4 52 32 71 63
4 47 38 31 37
4 76 68 59 21
4 22 59 43 21
4 65 45 33 40
4 47 43 38 21
4 52 71 45 40
4 56 68 71 40
4 74 30 66 23
4 46 66 29 23
4 22 43 30 23
4 72 48 77 34
4 46 53 42 73
4 50 64 53 73
4 70 42 57 73
4 74 66 48 34
4 46 42 66 34
4 47 29 43 23
4 70 77 42 34
4 60 57 64 73
4 79 67 31 75
4 47 31 29 75
4 50 53 67 75
4 46 29 53 75
4 10 78 6 80
4 36 6 1 80
4 15 1 12 80
4 36 4 6 26
4 14 12 78 80
4 2 17 9 26
4 36 18 4 55
4 15 28 1 11
4 62 4 20 55
4 10 6 17 26
4 27 18 44 11
4 62 9 4 26
4 27 69 18 55
4 36 1 18 11
4 41 20 69 55
4 79 44 28 11
4 16 24 54 7
4 19 54 39 7
4 50 39 64 7
4 8 25 61 3
4 60 64 24 7
4 79 28 67 13
4 19 51 61 49
4 8 61 0 49
4 15 51 28 13
4 19 39 51 13
4 50 67 39 13
4 19 61 54 3
4 14 0 12 49
4 5 35 25 3
4 15 12 51 49
4 16 54 35 3
CELL_TYPES 64
8
8
8
8
8
8
8
8
8
8
8
8
8
8
8
8
8
8
8
8
8
8
8
8
8
8
8
8
8
8
8
8
8
8
8
8
8
8
8
8
8
8
8
8
8
8
8
8
8
8
8
8
8
8
8
8
8
8
8
8
8
8
8
8
CELL_DATA 64
VECTORS vector_value float
0.139278 -0.489542 0
1.90381 -1.76963 0
0.0777947 -0.19592 0
-0.0146064 -0.274714 0
0.578224 -4.39619 0
-0.443619 -3.36174 0
0.0729457 -0.323039 0
0.0809387 -0.517197 0
0.000865355 -0.0315639 0
0.269526 -0.793534 0
0.0135699 -0.249319 0
0.0511252 -0.363308 0
-0.038924 -0.35341 0
0.0505959 -0.1863 0
-0.120275 -0.269261 0
-0.0228941 -0.159026 0
-0.0642339 -0.25377 0
0.415278 -1.50269 0
0.00103157 -0.475626 0
0.113423 -0.900333 0
-0.348501 -1.57571 0
-0.47239 -1.61485 0
0.00677274 -0.77957 0
0.255423 -0.39482 0
0.364062 -1.71441 0
0.214632 -0.371631 0
0.0175688 -1.18506 0
-0.427226 -1.49251 0
0.602892 -1.63219 0
0.521745 -1.24074 0
0.94128 -1.47525 0
1.19107 -1.68875 0
0.171318 -0.734733 0
0.0430284 -0.760317 0
0.674453 -1.12448 0
0.124192 -0.969928 0
0.127584 -0.239003 0
0.131944 -0.925526 0
0.323809 -0.225025 0
0.129273 -0.230654 0
0.297529 -0.488137 0
-0.0381375 -0.687857 0
0.0380411 -0.852359 0
0.208978 -0.993019 0
2.09905 -3.42428 0
0.026238 -0.166843 0
0.641551 -4.74316 0
-0.502658 -1.70098 0
-1.40213 -0.843603 0
-0.18291 -0.138732 0
-0.319256 -1.60386 0
-0.358782 -0.615263 0
-1.26226 -1.43639 0
0.395939 -2.77563 0
-0.186088 -0.592166 0
-0.0186309 -0.165794 0
0.581684 -1.02461 0
-0.0612882 -0.208992 0
0.294781 -2.11259 0
-0.574887 -0.342344 0
0.0103969 -0.172448 0
-0.0409394 -1.20319 0
0.029162 -0.307119 0
-0.361975 -0.159355 0
