# vtk DataFile Version 2.0
Unstructured Grid by M++
ASCII
DATASET UNSTRUCTURED_GRID
POINTS 81 float
  1.000000   0.625000 0
  0.750000   0.375000 0
  1.000000   0.000000 0
  0.875000   0.875000 0
  0.750000   0.125000 0
  1.000000   1.000000 0
  0.875000   0.250000 0
  0.625000   0.875000 0
  1.000000   0.750000 0
  0.875000   0.000000 0
  1.000000   0.250000 0
  0.625000   0.375000 0
  0.875000   0.500000 0
  0.625000   0.625000 0
  1.000000   0.500000 0
  0.750000   0.500000 0
  0.750000   1.000000 0
  1.000000   0.125000 0
  0.625000   0.250000 0
  0.750000   0.750000 0
  0.625000   0.000000 0
  0.125000   0.375000 0
  0.000000   0.500000 0
  0.125000   0.625000 0
  0.625000   1.000000 0
  1.000000   0.875000 0
  0.875000   0.125000 0
  0.500000   0.250000 0
  0.625000   0.500000 0
  0.250000   0.625000 0
  0.000000   0.625000 0
  0.375000   0.500000 0
  0.375000   0.000000 0
  0.000000   0.125000 0
  0.125000   0.875000 0
  0.875000   1.000000 0
  0.750000   0.250000 0
  0.375000   0.375000 0
  0.250000   0.375000 0
  0.625000   0.750000 0
  0.125000   0.125000 0
  0.500000   0.000000 0
  0.250000   0.875000 0
  0.125000   0.500000 0
  0.500000   0.375000 0
  0.125000   0.000000 0
  0.250000   0.750000 0
  0.250000   0.500000 0
  0.000000   0.875000 0
  0.875000   0.625000 0
  0.500000   0.750000 0
  0.750000   0.625000 0
  0.250000   0.000000 0
  0.375000   0.750000 0
  0.750000   0.875000 0
  0.625000   0.125000 0
  0.250000   0.250000 0
  0.375000   1.000000 0
  0.375000   0.250000 0
  0.000000   0.375000 0
  0.500000   1.000000 0
  0.875000   0.750000 0
  0.750000   0.000000 0
  0.375000   0.125000 0
  0.500000   0.875000 0
  0.000000   0.000000 0
  0.125000   0.750000 0
  0.500000   0.625000 0
  0.125000   0.250000 0
  0.500000   0.125000 0
  0.250000   1.000000 0
  0.250000   0.125000 0
  0.000000   1.000000 0
  0.375000   0.875000 0
  0.000000   0.750000 0
  0.375000   0.625000 0
  0.000000   0.250000 0
  0.125000   1.000000 0
  1.000000   0.375000 0
  0.500000   0.500000 0
  0.875000   0.375000 0
CELLS 64 320
4 56 71 58 63
4 27 58 69 63
4 41 69 32 63
4 76 33 68 40
4 27 44 58 37
4 79 31 44 37
4 56 38 68 21
4 56 58 38 37
4 52 32 71 63
4 47 38 31 37
4 76 68 59 21
4 22 59 43 21
4 65 45 33 40
4 47 43 38 21
4 52 71 45 40
4 56 68 71 40
4 74 30 66 23
4 46 66 29 23
4 22 43 30 23
4 72 48 77 34
4 46 53 42 73
4 50 64 53 73
4 70 42 57 73
4 74 66 48 34
4 46 42 66 34
4 47 29 43 23
4 70 77 42 34
4 60 57 64 73
4 79 67 31 75
4 47 31 29 75
4 50 53 67 75
4 46 29 53 75
4 10 78 6 80
4 36 6 1 80
4 15 1 12 80
4 36 4 6 26
4 14 12 78 80
4 2 17 9 26
4 36 18 4 55
4 15 28 1 11
4 62 4 20 55
4 10 6 17 26
4 27 18 44 11
4 62 9 4 26
4 27 69 18 55
4 36 1 18 11
4 41 20 69 55
4 79 44 28 11
4 16 24 54 7
4 19 54 39 7
4 50 39 64 7
4 8 25 61 3
4 60 64 24 7
4 79 28 67 13
4 19 51 61 49
4 8 61 0 49
4 15 51 28 13
4 19 39 51 13
4 50 67 39 13
4 19 61 54 3
4 14 0 12 49
4 5 35 25 3
4 15 12 51 49
4 16 54 35 3
CELL_TYPES 64
8
8
8
8
8
8
8
8
8
8
8
8
8
8
8
8
8
8
8
8
8
8
8
8
8
8
8
8
8
8
8
8
8
8
8
8
8
8
8
8
8
8
8
8
8
8
8
8
8
8
8
8
8
8
8
8
8
8
8
8
8
8
8
8
CELL_DATA 64
VECTORS vector_value float
0.0399969 -0.0521553 0
0.254127 -1.88506 0
0.23293 -1.27315 0
0.0639667 -0.440512 0
-0.307031 -1.83819 0
-0.152687 -0.467865 0
-0.056365 -0.404213 0
0.0282959 -0.148093 0
0.00980822 -0.0258555 0
0.18244 -0.449656 0
-0.0927015 -0.576129 0
-0.0361566 -0.312998 0
-0.0257683 -0.475019 0
-0.108536 -0.630263 0
-0.017708 -0.50858 0
0.0668531 -0.554049 0
0.436248 -1.12532 0
0.43504 -0.806715 0
0.0664205 -0.360124 0
0.219331 -0.603732 0
0.278307 -0.52814 0
0.263999 -0.215748 0
-0.0434892 -0.900658 0
-0.373145 -1.34781 0
-0.0556599 -0.888508 0
0.606244 -1.11666 0
-0.10213 -1.44953 0
0.532075 -1.41899 0
0.745155 -0.813677 0
0.568528 -0.154112 0
0.324224 -0.274773 0
0.441221 -0.416104 0
-0.0290695 -0.384257 0
-0.441859 -1.05276 0
0.246567 -1.36977 0
-0.147661 -0.307251 0
-0.0120291 -0.386554 0
-0.0387171 -0.182649 0
-1.00064 -2.00115 0
1.31269 -2.09179 0
-0.316309 -1.58751 0
-0.0440467 -0.308523 0
-0.031543 -0.412156 0
-0.146173 -0.189396 0
-1.13609 -2.4513 0
-0.704726 -3.1842 0
0.203231 -3.75784 0
0.226369 -2.29111 0
-0.170366 -1.46562 0
-0.938015 -1.98784 0
0.65631 -1.91898 0
-0.171134 -0.40144 0
-0.0880424 -0.531711 0
0.949534 -3.3595 0
0.030801 -0.340693 0
0.0123481 -0.358198 0
0.409497 -1.21845 0
0.0209487 -1.13482 0
-0.407426 -3.54338 0
-0.762514 -0.711528 0
0.0217602 -0.413744 0
-0.15424 -1.13738 0
0.168461 -0.563738 0
-0.194637 -0.492381 0
