# vtk DataFile Version 2.0
Unstructured Grid by M++
ASCII
DATASET UNSTRUCTURED_GRID
POINTS 81 float
  1.000000   0.625000 0
  0.750000   0.375000 0
  1.000000   0.000000 0
  0.875000   0.875000 0
  0.750000   0.125000 0
  1.000000   1.000000 0
  0.875000   0.250000 0
  0.625000   0.875000 0
  1.000000   0.750000 0
  0.875000   0.000000 0
  1.000000   0.250000 0
  0.625000   0.375000 0
  0.875000   0.500000 0
  0.625000   0.625000 0
  1.000000   0.500000 0
  0.750000   0.500000 0
  0.750000   1.000000 0
  1.000000   0.125000 0
  0.625000   0.250000 0
  0.750000   0.750000 0
  0.625000   0.000000 0
  0.125000   0.375000 0
  0.000000   0.500000 0
  0.125000   0.625000 0
  0.625000   1.000000 0
  1.000000   0.875000 0
  0.875000   0.125000 0
  0.500000   0.250000 0
  0.625000   0.500000 0
  0.250000   0.625000 0
  0.000000   0.625000 0
  0.375000   0.500000 0
  0.375000   0.000000 0
  0.000000   0.125000 0
  0.125000   0.875000 0
  0.875000   1.000000 0
  0.750000   0.250000 0
  0.375000   0.375000 0
  0.250000   0.375000 0
  0.625000   0.750000 0
  0.125000   0.125000 0
  0.500000   0.000000 0
  0.250000   0.875000 0
  0.125000   0.500000 0
  0.500000   0.375000 0
  0.125000   0.000000 0
  0.250000   0.750000 0
  0.250000   0.500000 0
  0.000000   0.875000 0
  0.875000   0.625000 0
  0.500000   0.750000 0
  0.750000   0.625000 0
  0.250000   0.000000 0
  0.375000   0.750000 0
  0.750000   0.875000 0
  0.625000   0.125000 0
  0.250000   0.250000 0
  0.375000   1.000000 0
  0.375000   0.250000 0
  0.000000   0.375000 0
  0.500000   1.000000 0
  0.875000   0.750000 0
  0.750000   0.000000 0
  0.375000   0.125000 0
  0.500000   0.875000 0
  0.000000   0.000000 0
  0.125000   0.750000 0
  0.500000   0.625000 0
  0.125000   0.250000 0
  0.500000   0.125000 0
  0.250000   1.000000 0
  0.250000   0.125000 0
  0.000000   1.000000 0
  0.375000   0.875000 0
  0.000000   0.750000 0
  0.375000   0.625000 0
  0.000000   0.250000 0
  0.125000   1.000000 0
  1.000000   0.375000 0
  0.500000   0.500000 0
  0.875000   0.375000 0
CELLS 64 320
4 56 71 58 63
4 27 58 69 63
4 41 69 32 63
4 76 33 68 40
4 27 44 58 37
4 79 31 44 37
4 56 38 68 21
4 56 58 38 37
4 52 32 71 63
4 47 38 31 37
4 76 68 59 21
4 22 59 43 21
4 65 45 33 40
4 47 43 38 21
4 52 71 45 40
4 56 68 71 40
4 74 30 66 23
4 46 66 29 23
4 22 43 30 23
4 72 48 77 34
4 46 53 42 73
4 50 64 53 73
4 70 42 57 73
4 74 66 48 34
4 46 42 66 34
4 47 29 43 23
4 70 77 42 34
4 60 57 64 73
4 79 67 31 75
4 47 31 29 75
4 50 53 67 75
4 46 29 53 75
4 10 78 6 80
4 36 6 1 80
4 15 1 12 80
4 36 4 6 26
4 14 12 78 80
4 2 17 9 26
4 36 18 4 55
4 15 28 1 11
4 62 4 20 55
4 10 6 17 26
4 27 18 44 11
4 62 9 4 26
4 27 69 18 55
4 36 1 18 11
4 41 20 69 55
4 79 44 28 11
4 16 24 54 7
4 19 54 39 7
4 50 39 64 7
4 8 25 61 3
4 60 64 24 7
4 79 28 67 13
4 19 51 61 49
4 8 61 0 49
4 15 51 28 13
4 19 39 51 13
4 50 67 39 13
4 19 61 54 3
4 14 0 12 49
4 5 35 25 3
4 15 12 51 49
4 16 54 35 3
CELL_TYPES 64
8
8
8
8
8
8
8
8
8
8
8
8
8
8
8
8
8
8
8
8
8
8
8
8
8
8
8
8
8
8
8
8
8
8
8
8
8
8
8
8
8
8
8
8
8
8
8
8
8
8
8
8
8
8
8
8
8
8
8
8
8
8
8
8
CELL_DATA 64
VECTORS vector_value float
0.365053 -1.0443 0
0.0198274 -0.504998 0
-0.0547933 -1.11214 0
0.0138111 -0.110293 0
0.342307 -0.300892 0
0.425273 -0.700818 0
0.780012 -0.604532 0
0.603288 -0.777338 0
0.119282 -1.16617 0
0.138506 -0.259998 0
0.397362 -0.615082 0
0.0598035 -1.17866 0
-0.032408 -0.179404 0
0.135721 -0.700295 0
0.0157885 -0.144286 0
0.354048 -0.562178 0
0.11747 -1.10454 0
0.304036 -1.03743 0
-0.0144637 -1.02044 0
-0.270868 -1.42033 0
0.181118 -0.724456 0
-0.182631 -0.779848 0
-0.361255 -0.751968 0
0.13419 -1.54738 0
0.162362 -0.857688 0
0.00859936 -0.997973 0
-0.509483 -1.01417 0
0.141282 -0.368637 0
0.40359 -1.05487 0
0.188168 -0.401182 0
0.350084 -1.17189 0
0.378944 -0.731834 0
-0.124895 -1.24229 0
-0.206372 -0.342775 0
-0.414079 -0.31507 0
1.00229 -1.37886 0
-0.184307 -1.58238 0
0.650495 -2.27981 0
1.53233 -2.20866 0
-0.294902 -1.05265 0
0.193966 -1.2496 0
0.0100203 -1.089 0
0.983949 -2.50424 0
0.855027 -1.66243 0
0.18295 -1.10171 0
0.510018 -1.61286 0
0.00318914 -0.206164 0
0.264855 -2.21013 0
0.888201 -0.987317 0
-0.346753 -1.02092 0
-0.194529 -0.219087 0
0.257819 -1.75592 0
0.545568 -0.834651 0
0.275346 -1.46264 0
-0.132028 -0.432639 0
0.0311736 -2.32278 0
-0.291571 -0.667173 0
-0.0919249 -0.496475 0
-0.265877 -0.702417 0
0.318945 -1.0947 0
-0.197844 -2.02156 0
0.305857 -1.17619 0
-0.397889 -0.374171 0
0.727635 -1.44675 0
