# vtk DataFile Version 2.0
Unstructured Grid by M++
ASCII
DATASET UNSTRUCTURED_GRID
POINTS 81 float
  1.000000   0.625000 0
  0.750000   0.375000 0
  1.000000   0.000000 0
  0.875000   0.875000 0
  0.750000   0.125000 0
  1.000000   1.000000 0
  0.875000   0.250000 0
  0.625000   0.875000 0
  1.000000   0.750000 0
  0.875000   0.000000 0
  1.000000   0.250000 0
  0.625000   0.375000 0
  0.875000   0.500000 0
  0.625000   0.625000 0
  1.000000   0.500000 0
  0.750000   0.500000 0
  0.750000   1.000000 0
  1.000000   0.125000 0
  0.625000   0.250000 0
  0.750000   0.750000 0
  0.625000   0.000000 0
  0.125000   0.375000 0
  0.000000   0.500000 0
  0.125000   0.625000 0
  0.625000   1.000000 0
  1.000000   0.875000 0
  0.875000   0.125000 0
  0.500000   0.250000 0
  0.625000   0.500000 0
  0.250000   0.625000 0
  0.000000   0.625000 0
  0.375000   0.500000 0
  0.375000   0.000000 0
  0.000000   0.125000 0
  0.125000   0.875000 0
  0.875000   1.000000 0
  0.750000   0.250000 0
  0.375000   0.375000 0
  0.250000   0.375000 0
  0.625000   0.750000 0
  0.125000   0.125000 0
  0.500000   0.000000 0
  0.250000   0.875000 0
  0.125000   0.500000 0
  0.500000   0.375000 0
  0.125000   0.000000 0
  0.250000   0.750000 0
  0.250000   0.500000 0
  0.000000   0.875000 0
  0.875000   0.625000 0
  0.500000   0.750000 0
  0.750000   0.625000 0
  0.250000   0.000000 0
  0.375000   0.750000 0
  0.750000   0.875000 0
  0.625000   0.125000 0
  0.250000   0.250000 0
  0.375000   1.000000 0
  0.375000   0.250000 0
  0.000000   0.375000 0
  0.500000   1.000000 0
  0.875000   0.750000 0
  0.750000   0.000000 0
  0.375000   0.125000 0
  0.500000   0.875000 0
  0.000000   0.000000 0
  0.125000   0.750000 0
  0.500000   0.625000 0
  0.125000   0.250000 0
  0.500000   0.125000 0
  0.250000   1.000000 0
  0.250000   0.125000 0
  0.000000   1.000000 0
  0.375000   0.875000 0
  0.000000   0.750000 0
  0.375000   0.625000 0
  0.000000   0.250000 0
  0.125000   1.000000 0
  1.000000   0.375000 0
  0.500000   0.500000 0
  0.875000   0.375000 0
CELLS 64 320
4 56 71 58 63
4 27 58 69 63
4 41 69 32 63
4 76 33 68 40
4 27 44 58 37
4 79 31 44 37
4 56 38 68 21
4 56 58 38 37
4 52 32 71 63
4 47 38 31 37
4 76 68 59 21
4 22 59 43 21
4 65 45 33 40
4 47 43 38 21
4 52 71 45 40
4 56 68 71 40
4 74 30 66 23
4 46 66 29 23
4 22 43 30 23
4 72 48 77 34
4 46 53 42 73
4 50 64 53 73
4 70 42 57 73
4 74 66 48 34
4 46 42 66 34
4 47 29 43 23
4 70 77 42 34
4 60 57 64 73
4 79 67 31 75
4 47 31 29 75
4 50 53 67 75
4 46 29 53 75
4 10 78 6 80
4 36 6 1 80
4 15 1 12 80
4 36 4 6 26
4 14 12 78 80
4 2 17 9 26
4 36 18 4 55
4 15 28 1 11
4 62 4 20 55
4 10 6 17 26
4 27 18 44 11
4 62 9 4 26
4 27 69 18 55
4 36 1 18 11
4 41 20 69 55
4 79 44 28 11
4 16 24 54 7
4 19 54 39 7
4 50 39 64 7
4 8 25 61 3
4 60 64 24 7
4 79 28 67 13
4 19 51 61 49
4 8 61 0 49
4 15 51 28 13
4 19 39 51 13
4 50 67 39 13
4 19 61 54 3
4 14 0 12 49
4 5 35 25 3
4 15 12 51 49
4 16 54 35 3
CELL_TYPES 64
8
8
8
8
8
8
8
8
8
8
8
8
8
8
8
8
8
8
8
8
8
8
8
8
8
8
8
8
8
8
8
8
8
8
8
8
8
8
8
8
8
8
8
8
8
8
8
8
8
8
8
8
8
8
8
8
8
8
8
8
8
8
8
8
CELL_DATA 64
VECTORS vector_value float
-1.97521 -2.71208 0
-0.116663 -0.461705 0
0.00306733 -0.602718 0
0.033051 -0.977232 0
-1.53967 -2.44762 0
1.23208 -2.5042 0
-0.126734 -1.79821 0
-0.609037 -1.12659 0
-0.121879 -0.538297 0
-0.0229257 -0.969851 0
0.0388247 -0.998149 0
-0.127959 -1.07892 0
0.0382112 -0.85671 0
-0.223161 -1.45534 0
-0.779459 -4.66514 0
-0.557808 -2.42639 0
0.544167 -1.57275 0
1.07386 -1.44136 0
-0.090334 -0.653858 0
0.0281304 -0.875957 0
-0.649618 -1.93328 0
-1.28494 -1.90151 0
-1.11477 -1.42002 0
-0.386078 -1.58122 0
-0.484304 -1.55475 0
-0.253807 -1.35803 0
-0.467774 -1.62841 0
-1.5076 -0.817658 0
0.438475 -1.17673 0
1.04159 -3.68839 0
-0.0857492 -1.53983 0
0.14053 -2.65643 0
0.0384978 -0.150801 0
0.310571 -0.374696 0
0.157271 -0.0822411 0
0.050954 -0.220834 0
0.0572126 -0.0786833 0
-2.63052e-05 -0.484487 0
-0.124798 -0.259088 0
0.469163 -0.354378 0
-0.0176007 -0.105659 0
0.140711 -0.438335 0
-0.116178 -0.682051 0
-0.00069289 -0.126847 0
-0.10371 -0.504332 0
0.205472 -0.421877 0
-0.0827805 -0.620139 0
0.589634 -1.4764 0
-1.90494 -0.886394 0
-0.438153 -0.72794 0
-0.276186 -0.237509 0
-0.0103243 -0.0214439 0
-2.45849 -1.33411 0
0.191736 -0.915392 0
2.59002e-05 -0.00714881 0
-6.37739e-05 -0.00641711 0
0.0057251 -0.168925 0
-0.0336357 -0.231933 0
-0.230765 -0.544129 0
-0.0573289 -0.0423459 0
0.0025776 -0.0102237 0
-0.486345 -0.661581 0
0.0191209 -0.0284506 0
-1.43213 -0.375875 0
