# vtk DataFile Version 2.0
Unstructured Grid by M++
ASCII
DATASET UNSTRUCTURED_GRID
POINTS 81 float
  1.000000   0.625000 0
  0.750000   0.375000 0
  1.000000   0.000000 0
  0.875000   0.875000 0
  0.750000   0.125000 0
  1.000000   1.000000 0
  0.875000   0.250000 0
  0.625000   0.875000 0
  1.000000   0.750000 0
  0.875000   0.000000 0
  1.000000   0.250000 0
  0.625000   0.375000 0
  0.875000   0.500000 0
  0.625000   0.625000 0
  1.000000   0.500000 0
  0.750000   0.500000 0
  0.750000   1.000000 0
  1.000000   0.125000 0
  0.625000   0.250000 0
  0.750000   0.750000 0
  0.625000   0.000000 0
  0.125000   0.375000 0
  0.000000   0.500000 0
  0.125000   0.625000 0
  0.625000   1.000000 0
  1.000000   0.875000 0
  0.875000   0.125000 0
  0.500000   0.250000 0
  0.625000   0.500000 0
  0.250000   0.625000 0
  0.000000   0.625000 0
  0.375000   0.500000 0
  0.375000   0.000000 0
  0.000000   0.125000 0
  0.125000   0.875000 0
  0.875000   1.000000 0
  0.750000   0.250000 0
  0.375000   0.375000 0
  0.250000   0.375000 0
  0.625000   0.750000 0
  0.125000   0.125000 0
  0.500000   0.000000 0
  0.250000   0.875000 0
  0.125000   0.500000 0
  0.500000   0.375000 0
  0.125000   0.000000 0
  0.250000   0.750000 0
  0.250000   0.500000 0
  0.000000   0.875000 0
  0.875000   0.625000 0
  0.500000   0.750000 0
  0.750000   0.625000 0
  0.250000   0.000000 0
  0.375000   0.750000 0
  0.750000   0.875000 0
  0.625000   0.125000 0
  0.250000   0.250000 0
  0.375000   1.000000 0
  0.375000   0.250000 0
  0.000000   0.375000 0
  0.500000   1.000000 0
  0.875000   0.750000 0
  0.750000   0.000000 0
  0.375000   0.125000 0
  0.500000   0.875000 0
  0.000000   0.000000 0
  0.125000   0.750000 0
  0.500000   0.625000 0
  0.125000   0.250000 0
  0.500000   0.125000 0
  0.250000   1.000000 0
  0.250000   0.125000 0
  0.000000   1.000000 0
  0.375000   0.875000 0
  0.000000   0.750000 0
  0.375000   0.625000 0
  0.000000   0.250000 0
  0.125000   1.000000 0
  1.000000   0.375000 0
  0.500000   0.500000 0
  0.875000   0.375000 0
CELLS 64 320
4 56 71 58 63
4 27 58 69 63
4 41 69 32 63
4 76 33 68 40
4 27 44 58 37
4 79 31 44 37
4 56 38 68 21
4 56 58 38 37
4 52 32 71 63
4 47 38 31 37
4 76 68 59 21
4 22 59 43 21
4 65 45 33 40
4 47 43 38 21
4 52 71 45 40
4 56 68 71 40
4 74 30 66 23
4 46 66 29 23
4 22 43 30 23
4 72 48 77 34
4 46 53 42 73
4 50 64 53 73
4 70 42 57 73
4 74 66 48 34
4 46 42 66 34
4 47 29 43 23
4 70 77 42 34
4 60 57 64 73
4 79 67 31 75
4 47 31 29 75
4 50 53 67 75
4 46 29 53 75
4 10 78 6 80
4 36 6 1 80
4 15 1 12 80
4 36 4 6 26
4 14 12 78 80
4 2 17 9 26
4 36 18 4 55
4 15 28 1 11
4 62 4 20 55
4 10 6 17 26
4 27 18 44 11
4 62 9 4 26
4 27 69 18 55
4 36 1 18 11
4 41 20 69 55
4 79 44 28 11
4 16 24 54 7
4 19 54 39 7
4 50 39 64 7
4 8 25 61 3
4 60 64 24 7
4 79 28 67 13
4 19 51 61 49
4 8 61 0 49
4 15 51 28 13
4 19 39 51 13
4 50 67 39 13
4 19 61 54 3
4 14 0 12 49
4 5 35 25 3
4 15 12 51 49
4 16 54 35 3
CELL_TYPES 64
8
8
8
8
8
8
8
8
8
8
8
8
8
8
8
8
8
8
8
8
8
8
8
8
8
8
8
8
8
8
8
8
8
8
8
8
8
8
8
8
8
8
8
8
8
8
8
8
8
8
8
8
8
8
8
8
8
8
8
8
8
8
8
8
CELL_DATA 64
VECTORS vector_value float
-0.612387 -0.642369 0
-0.0362648 -0.0449557 0
-0.00870508 -0.026129 0
0.275914 -1.10073 0
-0.432454 -0.424294 0
-4.50869 -1.69878 0
-1.34485 -2.22362 0
-2.99954 -3.05638 0
-0.0622569 -0.156524 0
-1.54486 -1.50509 0
-0.122844 -0.962422 0
0.135173 -0.839454 0
0.058826 -0.398948 0
0.097877 -0.535591 0
0.213232 -6.09881 0
-1.14851 -4.88198 0
0.0425027 -1.15531 0
0.103762 -0.277864 0
0.0484678 -1.17892 0
-0.0442863 -0.891492 0
0.0175026 -0.0665525 0
0.164099 -0.193818 0
1.01591 -0.83999 0
-0.083423 -1.28248 0
0.00613457 -0.162053 0
0.0189336 -0.118628 0
0.140607 -0.76637 0
1.7682 -0.246238 0
-0.176547 -0.247333 0
0.0621049 -0.142752 0
0.0615686 -0.0973399 0
0.0371266 -0.0255731 0
0.0279149 -0.0767234 0
-0.0689052 -0.519781 0
-0.129349 -0.669251 0
-0.0601547 -0.231119 0
0.00669487 -0.0360953 0
0.0100181 -0.193356 0
-0.26982 -0.192656 0
-0.811482 -0.729296 0
-0.0495639 -0.102065 0
0.03592 -0.139373 0
-0.0920497 -0.617551 0
-0.00317588 -0.046616 0
-0.0939095 -0.766819 0
-0.073508 -0.119231 0
-0.0839142 -0.977553 0
-2.37885 -1.98644 0
0.524954 -0.496183 0
-0.26072 -2.47676 0
0.521013 -1.77958 0
-0.447387 -1.40545 0
1.44888 -2.12299 0
-0.936599 -4.11302 0
-0.445919 -1.24573 0
-0.259702 -0.472457 0
-0.471691 -0.881462 0
-0.805425 -0.941538 0
-1.06774 -3.78418 0
-0.439837 -0.633295 0
-0.0240926 -0.0448698 0
0.248981 -1.2936 0
-0.474386 -1.27301 0
0.337862 -1.34314 0
