# vtk DataFile Version 2.0
Unstructured Grid by M++
ASCII
DATASET UNSTRUCTURED_GRID
POINTS 289 float
  0.562500   1.000000 0
  0.562500   0.625000 0
  0.625000   1.000000 0
  0.562500   0.937500 0
  0.562500   0.562500 0
  0.625000   0.937500 0
  0.562500   0.875000 0
  0.625000   0.750000 0
  0.625000   0.625000 0
  0.562500   0.812500 0
  0.562500   0.750000 0
  0.562500   0.687500 0
  0.625000   0.875000 0
  0.625000   0.812500 0
  0.625000   0.687500 0
  0.687500   0.125000 0
  0.875000   0.062500 0
  0.625000   0.125000 0
  0.625000   0.187500 0
  0.625000   0.250000 0
  0.812500   0.187500 0
  1.000000   0.125000 0
  0.687500   0.187500 0
  0.750000   0.125000 0
  0.937500   0.062500 0
  0.937500   0.125000 0
  0.750000   0.187500 0
  0.812500   0.062500 0
  0.812500   0.125000 0
  0.875000   0.687500 0
  0.187500   0.250000 0
  0.437500   0.250000 0
  0.375000   0.187500 0
  0.812500   0.625000 0
  0.125000   0.187500 0
  0.937500   0.750000 0
  0.250000   0.312500 0
  0.500000   0.312500 0
  0.625000   0.062500 0
  0.437500   0.500000 0
  0.375000   0.125000 0
  0.437500   0.187500 0
  0.437500   0.437500 0
  0.437500   0.375000 0
  0.875000   0.875000 0
  0.187500   0.375000 0
  0.687500   0.562500 0
  0.687500   0.625000 0
  0.000000   0.125000 0
  0.937500   0.625000 0
  0.250000   0.125000 0
  0.375000   0.062500 0
  0.375000   0.000000 0
  0.812500   0.500000 0
  0.125000   0.000000 0
  0.937500   0.937500 0
  0.250000   0.437500 0
  0.687500   0.875000 0
  0.687500   0.937500 0
  0.000000   0.437500 0
  0.500000   0.500000 0
  0.500000   0.437500 0
  0.750000   0.937500 0
  0.750000   1.000000 0
  0.062500   0.500000 0
  1.000000   1.000000 0
  0.312500   0.500000 0
  0.875000   0.562500 0
  0.187500   0.062500 0
  0.437500   0.125000 0
  0.437500   0.062500 0
  0.500000   0.375000 0
  0.937500   0.812500 0
  0.937500   0.875000 0
  0.250000   0.375000 0
  0.687500   0.812500 0
  0.000000   0.375000 0
  0.750000   0.562500 0
  0.062500   0.125000 0
  1.000000   0.562500 0
  1.000000   0.625000 0
  0.312500   0.125000 0
  0.562500   0.125000 0
  0.437500   0.000000 0
  0.875000   0.437500 0
  0.875000   0.500000 0
  0.187500   0.000000 0
  0.937500   0.562500 0
  0.937500   0.500000 0
  0.250000   0.062500 0
  0.687500   0.500000 0
  0.000000   0.062500 0
  0.500000   0.062500 0
  1.000000   0.875000 0
  1.000000   0.937500 0
  0.312500   0.437500 0
  0.750000   0.875000 0
  0.062500   0.437500 0
  0.812500   0.937500 0
  0.125000   0.500000 0
  0.375000   0.500000 0
  0.625000   0.562500 0
  0.625000   0.500000 0
  0.437500   0.312500 0
  0.875000   0.812500 0
  0.875000   0.750000 0
  0.187500   0.312500 0
  0.812500   0.687500 0
  0.812500   0.750000 0
  0.125000   0.250000 0
  0.375000   0.250000 0
  1.000000   0.687500 0
  0.312500   0.187500 0
  0.750000   0.687500 0
  0.750000   0.625000 0
  0.062500   0.187500 0
  0.562500   0.250000 0
  0.562500   0.187500 0
  0.375000   1.000000 0
  0.500000   0.562500 0
  0.500000   0.250000 0
  0.750000   0.250000 0
  0.500000   0.125000 0
  0.500000   0.187500 0
  1.000000   0.187500 0
  0.625000   0.375000 0
  0.875000   0.375000 0
  1.000000   0.437500 0
  0.312500   0.000000 0
  0.562500   0.000000 0
  0.812500   0.000000 0
  0.250000   0.687500 0
  0.000000   0.687500 0
  0.500000   1.000000 0
  0.250000   1.000000 0
  0.000000   1.000000 0
  0.437500   0.687500 0
  0.437500   0.625000 0
  0.187500   0.625000 0
  0.687500   0.750000 0
  0.000000   0.312500 0
  0.000000   0.250000 0
  0.375000   0.375000 0
  0.375000   0.312500 0
  0.812500   0.812500 0
  0.125000   0.312500 0
  0.875000   0.625000 0
  0.187500   0.187500 0
  0.187500   0.125000 0
  0.937500   1.000000 0
  0.250000   0.562500 0
  0.250000   0.500000 0
  0.687500   1.000000 0
  0.000000   0.500000 0
  0.687500   0.687500 0
  0.000000   0.187500 0
  0.937500   0.687500 0
  0.250000   0.250000 0
  0.250000   0.187500 0
  0.187500   0.687500 0
  0.000000   0.750000 0
  0.250000   0.750000 0
  0.125000   0.625000 0
  0.750000   0.750000 0
  0.062500   0.250000 0
  0.875000   0.937500 0
  0.187500   0.500000 0
  0.187500   0.437500 0
  0.812500   0.562500 0
  0.125000   0.125000 0
  0.125000   0.062500 0
  0.375000   0.625000 0
  0.375000   0.687500 0
  1.000000   0.750000 0
  0.312500   0.250000 0
  0.312500   0.312500 0
  0.812500   0.312500 0
  0.562500   0.312500 0
  0.375000   0.750000 0
  0.500000   0.625000 0
  0.250000   0.625000 0
  0.312500   0.687500 0
  0.750000   0.812500 0
  0.062500   0.312500 0
  0.062500   0.375000 0
  1.000000   0.812500 0
  0.312500   0.375000 0
  0.562500   0.375000 0
  0.687500   0.437500 0
  0.000000   0.000000 0
  0.500000   0.000000 0
  0.937500   0.437500 0
  0.250000   0.000000 0
  0.375000   0.437500 0
  0.812500   0.875000 0
  0.125000   0.375000 0
  0.125000   0.437500 0
  0.625000   0.437500 0
  1.000000   0.500000 0
  0.312500   0.062500 0
  0.750000   0.500000 0
  0.062500   0.000000 0
  0.062500   0.062500 0
  0.562500   0.062500 0
  0.062500   0.750000 0
  0.312500   0.750000 0
  0.312500   0.625000 0
  0.312500   0.562500 0
  0.062500   0.562500 0
  0.187500   1.000000 0
  0.437500   0.562500 0
  0.875000   1.000000 0
  0.187500   0.562500 0
  0.500000   0.937500 0
  0.250000   0.937500 0
  0.312500   1.000000 0
  0.125000   0.750000 0
  0.125000   0.687500 0
  1.000000   0.000000 0
  0.000000   0.937500 0
  0.000000   0.875000 0
  0.875000   0.125000 0
  0.875000   0.187500 0
  0.062500   0.812500 0
  0.312500   0.812500 0
  0.000000   0.812500 0
  0.000000   0.625000 0
  0.000000   0.562500 0
  0.062500   1.000000 0
  0.062500   0.937500 0
  0.937500   0.187500 0
  0.937500   0.250000 0
  0.062500   0.687500 0
  0.062500   0.625000 0
  0.125000   1.000000 0
  1.000000   0.250000 0
  1.000000   0.312500 0
  0.062500   0.875000 0
  0.125000   0.812500 0
  0.375000   0.812500 0
  0.125000   0.875000 0
  0.375000   0.937500 0
  0.375000   0.875000 0
  0.187500   0.750000 0
  0.187500   0.812500 0
  0.437500   0.812500 0
  0.187500   0.875000 0
  0.437500   0.875000 0
  0.375000   0.562500 0
  0.812500   1.000000 0
  0.125000   0.562500 0
  0.437500   1.000000 0
  0.437500   0.937500 0
  0.187500   0.937500 0
  0.125000   0.937500 0
  0.500000   0.687500 0
  0.500000   0.750000 0
  0.500000   0.812500 0
  0.250000   0.812500 0
  0.250000   0.875000 0
  0.500000   0.875000 0
  0.437500   0.750000 0
  0.312500   0.875000 0
  0.312500   0.937500 0
  0.687500   0.250000 0
  0.687500   0.312500 0
  0.937500   0.312500 0
  0.875000   0.250000 0
  0.625000   0.000000 0
  0.875000   0.000000 0
  0.687500   0.375000 0
  0.937500   0.375000 0
  0.875000   0.312500 0
  0.625000   0.312500 0
  0.687500   0.000000 0
  0.937500   0.000000 0
  0.750000   0.312500 0
  0.750000   0.375000 0
  1.000000   0.375000 0
  0.812500   0.250000 0
  0.562500   0.437500 0
  0.562500   0.500000 0
  0.687500   0.062500 0
  0.750000   0.437500 0
  0.750000   0.000000 0
  0.750000   0.062500 0
  1.000000   0.062500 0
  0.812500   0.375000 0
  0.812500   0.437500 0
CELLS 256 1280
4 169 170 148 68
4 151 166 56 167
4 195 45 196 167
4 54 170 201 202
4 109 34 30 147
4 40 32 81 112
4 192 89 86 68
4 48 91 78 202
4 99 64 196 97
4 71 43 37 103
4 74 186 56 95
4 109 164 34 115
4 50 81 158 112
4 122 69 92 70
4 195 145 45 106
4 110 143 174 175
4 157 30 158 147
4 40 69 32 41
4 50 158 148 147
4 141 155 164 115
4 122 123 69 41
4 142 186 143 175
4 60 39 61 42
4 40 51 69 70
4 120 31 123 41
4 157 174 36 175
4 50 148 89 68
4 48 78 155 115
4 52 83 51 70
4 151 56 66 95
4 71 61 43 42
4 169 148 34 147
4 100 193 39 42
4 40 81 51 199
4 110 174 32 112
4 109 30 145 106
4 100 66 193 95
4 169 34 78 115
4 190 92 83 70
4 50 89 81 199
4 54 86 170 68
4 74 56 45 167
4 142 143 43 103
4 153 59 64 97
4 99 196 166 167
4 169 78 170 202
4 142 193 186 95
4 192 128 89 199
4 74 45 36 106
4 110 31 143 103
4 76 184 59 97
4 142 43 193 42
4 52 51 128 199
4 189 201 91 202
4 120 37 31 103
4 74 36 186 175
4 195 196 184 97
4 141 164 140 183
4 157 158 174 112
4 109 145 164 183
4 195 184 145 183
4 110 32 31 41
4 157 36 30 106
4 76 140 184 183
4 171 172 206 181
4 178 172 261 136
4 256 261 255 136
4 256 257 261 245
4 180 150 206 207
4 60 119 39 210
4 118 215 241 263
4 178 205 172 181
4 216 243 238 244
4 162 217 233 232
4 180 206 131 181
4 179 137 119 210
4 216 204 217 232
4 220 237 219 229
4 216 217 243 159
4 259 258 262 224
4 240 254 237 229
4 153 64 227 208
4 161 205 258 224
4 240 237 238 223
4 226 227 233 208
4 234 228 254 229
4 171 248 137 210
4 160 132 204 232
4 180 131 138 159
4 133 251 213 252
4 171 206 248 207
4 162 138 217 159
4 161 258 243 244
4 220 225 237 223
4 151 150 166 212
4 260 247 257 245
4 259 262 214 263
4 151 66 150 207
4 234 254 209 253
4 162 233 250 208
4 242 241 262 263
4 171 137 172 136
4 161 243 131 159
4 160 204 225 223
4 161 131 205 181
4 179 255 137 136
4 216 238 204 223
4 100 39 248 210
4 260 213 247 252
4 226 233 132 232
4 134 214 215 263
4 180 138 150 212
4 178 261 239 245
4 259 246 258 244
4 178 239 205 224
4 240 238 246 244
4 242 262 239 224
4 99 250 64 208
4 240 246 254 253
4 242 239 247 245
4 135 219 228 229
4 99 166 250 212
4 259 214 246 253
4 118 241 251 252
4 100 248 66 207
4 134 209 214 253
4 162 250 138 212
4 242 247 241 252
4 71 187 61 280
4 102 281 197 280
4 122 92 82 203
4 17 18 82 117
4 122 82 123 117
4 19 264 273 265
4 267 279 222 20
4 125 273 270 265
4 267 272 279 176
4 19 116 18 117
4 21 25 286 24
4 23 28 26 20
4 23 285 28 27
4 218 286 275 24
4 85 53 84 288
4 235 236 231 266
4 221 222 28 20
4 267 222 231 230
4 268 38 129 203
4 125 270 197 188
4 126 287 272 176
4 277 270 276 265
4 267 231 272 266
4 125 197 187 280
4 190 129 92 203
4 277 276 287 176
4 19 18 264 22
4 17 82 38 203
4 102 197 90 188
4 126 84 287 288
4 284 130 285 27
4 121 276 264 265
4 71 37 187 177
4 120 123 116 117
4 198 88 127 191
4 221 16 25 24
4 23 26 15 22
4 121 279 276 176
4 235 231 124 230
4 125 187 273 177
4 278 271 236 266
4 277 287 283 288
4 284 285 274 282
4 278 127 271 191
4 269 275 16 24
4 200 283 53 288
4 23 15 285 282
4 121 26 279 20
4 21 124 25 230
4 19 273 116 177
4 200 90 283 188
4 126 271 84 191
4 269 16 130 27
4 17 38 15 282
4 221 25 222 230
4 121 264 26 22
4 120 116 37 177
4 60 61 281 280
4 277 283 270 188
4 126 272 271 266
4 268 274 38 282
4 85 84 88 191
4 17 15 18 22
4 221 28 16 27
4 93 94 73 55
4 85 88 67 87
4 80 49 79 87
4 44 104 73 72
4 146 33 67 168
4 211 165 149 55
4 8 47 14 154
4 105 104 108 144
4 105 108 29 107
4 7 139 13 75
4 44 165 194 98
4 200 53 77 168
4 8 1 101 4
4 2 5 152 58
4 260 6 213 3
4 105 35 104 72
4 96 57 182 75
4 7 14 139 154
4 146 29 33 107
4 7 13 10 9
4 12 13 57 75
4 85 67 53 168
4 44 73 165 55
4 63 152 62 58
4 8 101 47 46
4 96 182 194 144
4 60 281 119 4
4 12 5 6 3
4 173 185 35 72
4 65 149 94 55
4 146 67 49 87
4 114 113 47 154
4 163 108 182 144
4 12 6 13 9
4 173 35 111 156
4 163 182 139 75
4 260 257 6 9
4 105 29 35 156
4 163 139 113 154
4 256 10 257 9
4 146 49 29 156
4 163 113 108 107
4 80 111 49 156
4 102 101 281 4
4 12 57 5 58
4 44 194 104 144
4 96 194 62 98
4 2 0 5 3
4 93 73 185 72
4 179 119 1 4
4 200 77 90 46
4 114 33 113 107
4 7 10 14 11
4 96 62 57 58
4 133 213 0 3
4 102 90 101 46
4 256 255 10 11
4 63 62 249 98
4 114 47 77 46
4 179 1 255 11
4 211 249 165 98
4 114 77 33 168
4 198 79 88 87
4 8 14 1 11
CELL_TYPES 256
8
8
8
8
8
8
8
8
8
8
8
8
8
8
8
8
8
8
8
8
8
8
8
8
8
8
8
8
8
8
8
8
8
8
8
8
8
8
8
8
8
8
8
8
8
8
8
8
8
8
8
8
8
8
8
8
8
8
8
8
8
8
8
8
8
8
8
8
8
8
8
8
8
8
8
8
8
8
8
8
8
8
8
8
8
8
8
8
8
8
8
8
8
8
8
8
8
8
8
8
8
8
8
8
8
8
8
8
8
8
8
8
8
8
8
8
8
8
8
8
8
8
8
8
8
8
8
8
8
8
8
8
8
8
8
8
8
8
8
8
8
8
8
8
8
8
8
8
8
8
8
8
8
8
8
8
8
8
8
8
8
8
8
8
8
8
8
8
8
8
8
8
8
8
8
8
8
8
8
8
8
8
8
8
8
8
8
8
8
8
8
8
8
8
8
8
8
8
8
8
8
8
8
8
8
8
8
8
8
8
8
8
8
8
8
8
8
8
8
8
8
8
8
8
8
8
8
8
8
8
8
8
8
8
8
8
8
8
8
8
8
8
8
8
8
8
8
8
8
8
8
8
8
8
8
8
CELL_DATA 256
VECTORS vector_value float
-0.0776017 -0.716833 0
0.279926 -1.11718 0
-0.0502205 -0.272105 0
0.0196299 -0.428277 0
-0.000281166 -0.160023 0
-0.0136968 -0.0338797 0
-0.0282918 -0.539915 0
0.0278662 -0.569509 0
-0.405357 -0.307577 0
0.645564 -0.331938 0
0.525182 -0.923905 0
0.0587406 -0.280966 0
-0.215512 -0.329862 0
0.000926835 -0.0118977 0
0.028669 -0.126745 0
-0.0764372 -0.637585 0
-0.202747 -0.394144 0
0.00143628 -0.00795123 0
-0.371849 -0.609549 0
0.0527519 -0.805046 0
0.00480204 -0.0106532 0
0.556168 -0.876517 0
0.182325 -0.258978 0
0.00043335 -0.00410422 0
0.0560543 -0.0362097 0
-0.132807 -0.460298 0
-0.123536 -0.619647 0
0.0601594 -0.654585 0
-0.000125249 -0.00597948 0
0.517605 -0.826729 0
0.37561 -0.444153 0
-0.121137 -0.487645 0
0.335072 -0.573888 0
-0.00197833 -0.0211751 0
-0.120224 -0.203192 0
0.0262964 -0.150602 0
0.224706 -0.245841 0
0.107894 -0.340444 0
-0.00133115 -0.0123032 0
-0.0261804 -0.10328 0
-0.0187674 -0.833396 0
0.194394 -0.368569 0
0.634592 -0.397437 0
-0.128432 -0.364918 0
-0.397582 -0.584786 0
0.0268232 -0.426151 0
0.403031 -0.665256 0
-0.00221974 -0.093679 0
0.0367698 -0.131694 0
0.262447 -0.191258 0
-0.11581 -0.68559 0
0.181467 -0.320363 0
-0.000120438 -0.018493 0
0.00802567 -0.541938 0
0.506448 -0.186321 0
0.22033 -0.534325 0
-0.18927 -0.38247 0
-0.0160258 -0.84094 0
-0.380608 -0.606593 0
0.00390348 -0.264346 0
-0.035384 -0.425948 0
0.017379 -0.0354073 0
-0.0127547 -0.153883 0
-0.0416926 -0.734904 0
-0.0738762 -0.800963 0
-0.100833 -0.676766 0
0.105969 -0.452488 0
0.14441 -0.88002 0
-0.0612021 -0.891106 0
0.220841 -0.287017 0
1.69306 -1.06723 0
-0.442458 -0.867562 0
0.0720553 -0.19861 0
0.0113272 -0.0738998 0
-0.2884 -1.0447 0
0.277152 -0.289689 0
0.0570431 -0.12347 0
0.140126 -0.340104 0
0.111717 -0.252842 0
0.126392 -0.498728 0
0.41333 -0.489145 0
-0.0561821 -0.166102 0
-0.20144 -1.20502 0
0.146762 -0.326595 0
-0.0108482 -0.10294 0
0.661066 -0.711279 0
0.262578 -0.33901 0
0.00853871 -0.098405 0
-0.451507 -2.03997 0
0.51611 -1.45896 0
0.173805 -0.45233 0
0.00853619 -0.262212 0
0.0568248 -0.33241 0
0.0382386 -0.18202 0
-0.145862 -1.92873 0
0.886513 -1.7901 0
1.00572 -0.903865 0
0.30679 -0.795263 0
1.29178 -0.625693 0
-0.0314232 -0.0668779 0
1.07373 -1.36413 0
0.155722 -0.414122 0
-0.390984 -0.823126 0
0.0217271 -0.141183 0
-1.19695 -1.99961 0
0.245506 -0.388683 0
0.0790276 -0.218572 0
0.234415 -0.366161 0
0.865046 -2.22533 0
-0.00147503 -0.0971006 0
1.91257 -1.07727 0
-0.134359 -2.29348 0
-0.453659 -1.17696 0
0.311061 -0.524196 0
-0.862094 -1.42789 0
0.221236 -0.192198 0
0.172227 -1.45493 0
-0.176919 -0.145091 0
0.486055 -0.252314 0
0.301943 -1.54436 0
0.243401 -0.720016 0
-0.359124 -0.476515 0
0.575443 -0.545235 0
1.34711 -1.41175 0
0.34768 -0.336689 0
1.82919 -0.93547 0
-0.111671 -0.332554 0
0.861307 -1.49249 0
0.241157 -0.21379 0
0.190464 -0.12618 0
-0.00064987 -0.0446402 0
0.0988236 -0.255923 0
0.0292846 -0.0637528 0
0.627624 -0.334449 0
-2.76939 -5.73344 0
0.330605 -0.169636 0
-1.64883 -4.22056 0
0.203154 -0.286972 0
0.0524485 -0.505496 0
-1.70714 -5.37689 0
-1.16625 -6.46144 0
0.0467799 -0.662145 0
0.179535 -2.7712 0
-0.126805 -0.527175 0
-1.2642 -3.41391 0
-0.706617 -2.1128 0
-0.011905 -0.189719 0
0.177874 -0.151704 0
-0.548958 -4.30244 0
0.240216 -0.230108 0
-1.58073 -4.78969 0
0.167046 -0.123364 0
-0.0136233 -0.0705103 0
-0.11955 -1.13728 0
0.146086 -0.674655 0
0.00316697 -0.210228 0
0.241848 -0.234607 0
-0.477264 -3.90922 0
-0.289693 -7.26318 0
0.0443332 -0.719903 0
0.629129 -0.350748 0
0.142663 -0.152405 0
-0.505218 -2.14569 0
0.0213953 -0.430493 0
-0.415214 -1.97302 0
-0.831361 -1.87034 0
0.00811762 -0.396525 0
0.441793 -0.218909 0
-0.175536 -0.783649 0
0.249387 -0.689189 0
-0.129493 -2.90623 0
-0.30272 -1.14218 0
0.0142436 -0.219362 0
0.229316 -0.518973 0
-0.520532 -2.96881 0
-1.57197 -2.5926 0
0.0279189 -0.436831 0
0.881024 -0.35404 0
0.215462 -0.366291 0
-0.879493 -5.42531 0
-0.106835 -0.71841 0
-0.0889454 -1.13916 0
-0.244789 -0.964295 0
-0.33611 -1.52902 0
0.748093 -0.298607 0
0.193821 -0.175447 0
0.299782 -0.282834 0
-0.405855 -5.24772 0
-0.11539 -1.49646 0
-0.559477 -5.38171 0
-0.00532915 -1.04081 0
-0.856169 -1.76714 0
0.298258 -1.76394 0
0.256318 -4.31094 0
0.215929 -2.30303 0
0.687763 -1.69272 0
0.810657 -2.6437 0
0.438365 -0.960266 0
0.351618 -0.227031 0
0.784564 -1.87156 0
0.863335 -2.98552 0
0.541655 -0.323071 0
1.55384 -1.14684 0
0.473049 -0.705614 0
0.513486 -0.275579 0
0.606746 -1.01312 0
0.660921 -0.722306 0
0.319799 -1.8965 0
2.16928 -1.49365 0
0.270155 -0.282144 0
0.827492 -3.17029 0
0.639504 -0.272692 0
1.62541 -0.408742 0
0.429558 -2.45078 0
0.824565 -1.1169 0
0.652969 -0.639506 0
0.426789 -0.180938 0
1.01823 -1.32523 0
0.165701 -0.125488 0
1.08099 -0.564277 0
0.122476 -2.65586 0
0.217754 -1.24494 0
0.864448 -4.26049 0
0.37444 -0.507831 0
1.41656 -2.22542 0
1.46645 -0.280729 0
-0.211459 -3.12023 0
0.522215 -0.640373 0
1.50682 -0.647713 0
0.146155 -1.71014 0
0.405456 -0.537054 0
0.575702 -0.533853 0
0.0781061 -3.27405 0
0.759807 -1.44396 0
-0.106294 -2.16977 0
0.242154 -0.206647 0
1.53251 -0.800505 0
0.670676 -1.22895 0
1.57817 -1.42164 0
0.456987 -0.936328 0
0.265031 -2.40915 0
0.456498 -0.210472 0
0.360931 -0.444187 0
0.539027 -1.03065 0
0.223944 -0.244457 0
1.42808 -0.850976 0
0.221173 -0.9448 0
0.329078 -0.2397 0
0.247187 -0.38223 0
0.564969 -1.53416 0
0.482824 -0.532127 0
0.184619 -0.233304 0
0.274888 -0.719214 0
0.540672 -0.825674 0
0.0121888 -3.01508 0
0.261581 -0.26543 0
