# vtk DataFile Version 2.0
Unstructured Grid by M++
ASCII
DATASET UNSTRUCTURED_GRID
POINTS 81 float
  1.000000   0.625000 0
  0.750000   0.375000 0
  1.000000   0.000000 0
  0.875000   0.875000 0
  0.750000   0.125000 0
  1.000000   1.000000 0
  0.875000   0.250000 0
  0.625000   0.875000 0
  1.000000   0.750000 0
  0.875000   0.000000 0
  1.000000   0.250000 0
  0.625000   0.375000 0
  0.875000   0.500000 0
  0.625000   0.625000 0
  1.000000   0.500000 0
  0.750000   0.500000 0
  0.750000   1.000000 0
  1.000000   0.125000 0
  0.625000   0.250000 0
  0.750000   0.750000 0
  0.625000   0.000000 0
  0.125000   0.375000 0
  0.000000   0.500000 0
  0.125000   0.625000 0
  0.625000   1.000000 0
  1.000000   0.875000 0
  0.875000   0.125000 0
  0.500000   0.250000 0
  0.625000   0.500000 0
  0.250000   0.625000 0
  0.000000   0.625000 0
  0.375000   0.500000 0
  0.375000   0.000000 0
  0.000000   0.125000 0
  0.125000   0.875000 0
  0.875000   1.000000 0
  0.750000   0.250000 0
  0.375000   0.375000 0
  0.250000   0.375000 0
  0.625000   0.750000 0
  0.125000   0.125000 0
  0.500000   0.000000 0
  0.250000   0.875000 0
  0.125000   0.500000 0
  0.500000   0.375000 0
  0.125000   0.000000 0
  0.250000   0.750000 0
  0.250000   0.500000 0
  0.000000   0.875000 0
  0.875000   0.625000 0
  0.500000   0.750000 0
  0.750000   0.625000 0
  0.250000   0.000000 0
  0.375000   0.750000 0
  0.750000   0.875000 0
  0.625000   0.125000 0
  0.250000   0.250000 0
  0.375000   1.000000 0
  0.375000   0.250000 0
  0.000000   0.375000 0
  0.500000   1.000000 0
  0.875000   0.750000 0
  0.750000   0.000000 0
  0.375000   0.125000 0
  0.500000   0.875000 0
  0.000000   0.000000 0
  0.125000   0.750000 0
  0.500000   0.625000 0
  0.125000   0.250000 0
  0.500000   0.125000 0
  0.250000   1.000000 0
  0.250000   0.125000 0
  0.000000   1.000000 0
  0.375000   0.875000 0
  0.000000   0.750000 0
  0.375000   0.625000 0
  0.000000   0.250000 0
  0.125000   1.000000 0
  1.000000   0.375000 0
  0.500000   0.500000 0
  0.875000   0.375000 0
CELLS 64 320
4 56 71 58 63
4 27 58 69 63
4 41 69 32 63
4 76 33 68 40
4 27 44 58 37
4 79 31 44 37
4 56 38 68 21
4 56 58 38 37
4 52 32 71 63
4 47 38 31 37
4 76 68 59 21
4 22 59 43 21
4 65 45 33 40
4 47 43 38 21
4 52 71 45 40
4 56 68 71 40
4 74 30 66 23
4 46 66 29 23
4 22 43 30 23
4 72 48 77 34
4 46 53 42 73
4 50 64 53 73
4 70 42 57 73
4 74 66 48 34
4 46 42 66 34
4 47 29 43 23
4 70 77 42 34
4 60 57 64 73
4 79 67 31 75
4 47 31 29 75
4 50 53 67 75
4 46 29 53 75
4 10 78 6 80
4 36 6 1 80
4 15 1 12 80
4 36 4 6 26
4 14 12 78 80
4 2 17 9 26
4 36 18 4 55
4 15 28 1 11
4 62 4 20 55
4 10 6 17 26
4 27 18 44 11
4 62 9 4 26
4 27 69 18 55
4 36 1 18 11
4 41 20 69 55
4 79 44 28 11
4 16 24 54 7
4 19 54 39 7
4 50 39 64 7
4 8 25 61 3
4 60 64 24 7
4 79 28 67 13
4 19 51 61 49
4 8 61 0 49
4 15 51 28 13
4 19 39 51 13
4 50 67 39 13
4 19 61 54 3
4 14 0 12 49
4 5 35 25 3
4 15 12 51 49
4 16 54 35 3
CELL_TYPES 64
8
8
8
8
8
8
8
8
8
8
8
8
8
8
8
8
8
8
8
8
8
8
8
8
8
8
8
8
8
8
8
8
8
8
8
8
8
8
8
8
8
8
8
8
8
8
8
8
8
8
8
8
8
8
8
8
8
8
8
8
8
8
8
8
CELL_DATA 64
VECTORS vector_value float
0.228854 -0.860148 0
0.0559797 -0.517664 0
0.187004 -0.811128 0
-0.0213521 -0.572282 0
0.00306511 -0.0823189 0
-0.00912844 -0.412953 0
0.167807 -1.57956 0
0.137744 -0.789019 0
0.403734 -1.01382 0
-0.0704269 -0.490526 0
0.011178 -0.52796 0
0.308854 -0.969363 0
-0.0571689 -0.684049 0
0.399668 -1.25111 0
0.163821 -0.619414 0
0.0951634 -1.20101 0
0.0847343 -1.97972 0
0.237725 -0.33329 0
0.333558 -1.68483 0
-0.546396 -1.83267 0
-0.0875698 -0.491169 0
0.0130178 -0.539158 0
-0.684646 -0.807768 0
0.0350405 -2.11514 0
0.175496 -0.937242 0
0.233455 -0.474032 0
-0.939588 -0.693256 0
-0.301838 -0.807369 0
0.699107 -0.868154 0
0.0985344 -0.55013 0
0.161112 -0.338116 0
0.730691 -1.24271 0
0.0590192 -0.401128 0
0.00372607 -1.18902 0
0.0378046 -1.22568 0
-0.0137402 -0.837417 0
0.0519253 -0.284412 0
0.0911618 -0.710613 0
-0.0612863 -3.38215 0
0.0775588 -2.89405 0
-0.156011 -3.10843 0
0.0456863 -0.53892 0
-0.020044 -0.336292 0
0.092998 -0.654335 0
-0.0212539 -0.0904104 0
0.0124768 -3.0947 0
-0.151582 -0.39821 0
0.342403 -0.471903 0
0.97999 -0.673747 0
0.148034 -0.414012 0
0.0648696 -0.0639641 0
-0.0824589 -0.766865 0
0.342043 -0.308689 0
0.445477 -0.510006 0
-0.321412 -2.62009 0
-0.0503392 -0.240889 0
-0.210549 -1.5252 0
-0.397052 -1.06015 0
0.145307 -0.185041 0
-0.430487 -2.67245 0
0.0311748 -0.181463 0
-0.275669 -0.446472 0
-0.467801 -2.20619 0
0.652191 -2.43003 0
