# vtk DataFile Version 2.0
Unstructured Grid by M++
ASCII
DATASET UNSTRUCTURED_GRID
POINTS 81 float
  1.000000   0.625000 0
  0.750000   0.375000 0
  1.000000   0.000000 0
  0.875000   0.875000 0
  0.750000   0.125000 0
  1.000000   1.000000 0
  0.875000   0.250000 0
  0.625000   0.875000 0
  1.000000   0.750000 0
  0.875000   0.000000 0
  1.000000   0.250000 0
  0.625000   0.375000 0
  0.875000   0.500000 0
  0.625000   0.625000 0
  1.000000   0.500000 0
  0.750000   0.500000 0
  0.750000   1.000000 0
  1.000000   0.125000 0
  0.625000   0.250000 0
  0.750000   0.750000 0
  0.625000   0.000000 0
  0.125000   0.375000 0
  0.000000   0.500000 0
  0.125000   0.625000 0
  0.625000   1.000000 0
  1.000000   0.875000 0
  0.875000   0.125000 0
  0.500000   0.250000 0
  0.625000   0.500000 0
  0.250000   0.625000 0
  0.000000   0.625000 0
  0.375000   0.500000 0
  0.375000   0.000000 0
  0.000000   0.125000 0
  0.125000   0.875000 0
  0.875000   1.000000 0
  0.750000   0.250000 0
  0.375000   0.375000 0
  0.250000   0.375000 0
  0.625000   0.750000 0
  0.125000   0.125000 0
  0.500000   0.000000 0
  0.250000   0.875000 0
  0.125000   0.500000 0
  0.500000   0.375000 0
  0.125000   0.000000 0
  0.250000   0.750000 0
  0.250000   0.500000 0
  0.000000   0.875000 0
  0.875000   0.625000 0
  0.500000   0.750000 0
  0.750000   0.625000 0
  0.250000   0.000000 0
  0.375000   0.750000 0
  0.750000   0.875000 0
  0.625000   0.125000 0
  0.250000   0.250000 0
  0.375000   1.000000 0
  0.375000   0.250000 0
  0.000000   0.375000 0
  0.500000   1.000000 0
  0.875000   0.750000 0
  0.750000   0.000000 0
  0.375000   0.125000 0
  0.500000   0.875000 0
  0.000000   0.000000 0
  0.125000   0.750000 0
  0.500000   0.625000 0
  0.125000   0.250000 0
  0.500000   0.125000 0
  0.250000   1.000000 0
  0.250000   0.125000 0
  0.000000   1.000000 0
  0.375000   0.875000 0
  0.000000   0.750000 0
  0.375000   0.625000 0
  0.000000   0.250000 0
  0.125000   1.000000 0
  1.000000   0.375000 0
  0.500000   0.500000 0
  0.875000   0.375000 0
CELLS 64 320
4 56 71 58 63
4 27 58 69 63
4 41 69 32 63
4 76 33 68 40
4 27 44 58 37
4 79 31 44 37
4 56 38 68 21
4 56 58 38 37
4 52 32 71 63
4 47 38 31 37
4 76 68 59 21
4 22 59 43 21
4 65 45 33 40
4 47 43 38 21
4 52 71 45 40
4 56 68 71 40
4 74 30 66 23
4 46 66 29 23
4 22 43 30 23
4 72 48 77 34
4 46 53 42 73
4 50 64 53 73
4 70 42 57 73
4 74 66 48 34
4 46 42 66 34
4 47 29 43 23
4 70 77 42 34
4 60 57 64 73
4 79 67 31 75
4 47 31 29 75
4 50 53 67 75
4 46 29 53 75
4 10 78 6 80
4 36 6 1 80
4 15 1 12 80
4 36 4 6 26
4 14 12 78 80
4 2 17 9 26
4 36 18 4 55
4 15 28 1 11
4 62 4 20 55
4 10 6 17 26
4 27 18 44 11
4 62 9 4 26
4 27 69 18 55
4 36 1 18 11
4 41 20 69 55
4 79 44 28 11
4 16 24 54 7
4 19 54 39 7
4 50 39 64 7
4 8 25 61 3
4 60 64 24 7
4 79 28 67 13
4 19 51 61 49
4 8 61 0 49
4 15 51 28 13
4 19 39 51 13
4 50 67 39 13
4 19 61 54 3
4 14 0 12 49
4 5 35 25 3
4 15 12 51 49
4 16 54 35 3
CELL_TYPES 64
8
8
8
8
8
8
8
8
8
8
8
8
8
8
8
8
8
8
8
8
8
8
8
8
8
8
8
8
8
8
8
8
8
8
8
8
8
8
8
8
8
8
8
8
8
8
8
8
8
8
8
8
8
8
8
8
8
8
8
8
8
8
8
8
CELL_DATA 64
VECTORS vector_value float
0.0725397 -2.00913 0
-0.0350855 -0.126956 0
0.108611 -0.515645 0
-0.0428815 -0.255971 0
-0.0556563 -0.151605 0
-0.555403 -1.07499 0
-0.380081 -1.36241 0
-0.163597 -1.81832 0
0.509265 -2.38618 0
-1.16924 -1.90457 0
-0.0258861 -0.155851 0
-0.00730842 -0.132023 0
-0.0141482 -0.301799 0
-0.3179 -0.361617 0
0.209733 -0.452872 0
0.178539 -1.15566 0
0.00643618 -0.0986538 0
0.0581371 -0.0968816 0
-0.00810884 -0.118067 0
0.300389 -0.573306 0
0.747566 -1.33176 0
-0.415336 -3.44066 0
0.816711 -0.937928 0
0.13825 -0.242909 0
0.482841 -0.319604 0
-0.043364 -0.0596159 0
0.818814 -0.87511 0
0.255102 -1.44878 0
0.292889 -3.86088 0
-0.643465 -0.77377 0
0.524309 -4.86584 0
0.467341 -0.765413 0
-0.0374315 -0.350537 0
0.488381 -2.9572 0
0.12318 -1.26251 0
0.130568 -3.03571 0
-0.0722736 -0.762226 0
0.059086 -0.714321 0
-0.133518 -0.870813 0
1.08005 -1.19412 0
-0.083789 -0.394737 0
0.107964 -0.503281 0
0.0136493 -0.17181 0
0.0497465 -2.85019 0
-0.00828826 -0.0424877 0
0.537816 -1.03226 0
-0.326645 -0.384253 0
0.75731 -1.30794 0
-0.654566 -0.675092 0
0.0249542 -0.12015 0
-0.261923 -0.757463 0
-0.481464 -1.09995 0
-1.11149 -1.86531 0
1.5835 -0.979652 0
-0.241213 -1.52067 0
-0.0632465 -0.336829 0
0.435242 -0.289392 0
0.0417336 -0.0606483 0
-0.0491767 -0.255058 0
-0.216363 -0.68751 0
0.157453 -0.3517 0
0.196921 -1.44443 0
0.280513 -1.56692 0
0.0328972 -0.180036 0
