# vtk DataFile Version 2.0
Unstructured Grid by M++
ASCII
DATASET UNSTRUCTURED_GRID
POINTS 81 float
  1.000000   0.625000 0
  0.750000   0.375000 0
  1.000000   0.000000 0
  0.875000   0.875000 0
  0.750000   0.125000 0
  1.000000   1.000000 0
  0.875000   0.250000 0
  0.625000   0.875000 0
  1.000000   0.750000 0
  0.875000   0.000000 0
  1.000000   0.250000 0
  0.625000   0.375000 0
  0.875000   0.500000 0
  0.625000   0.625000 0
  1.000000   0.500000 0
  0.750000   0.500000 0
  0.750000   1.000000 0
  1.000000   0.125000 0
  0.625000   0.250000 0
  0.750000   0.750000 0
  0.625000   0.000000 0
  0.125000   0.375000 0
  0.000000   0.500000 0
  0.125000   0.625000 0
  0.625000   1.000000 0
  1.000000   0.875000 0
  0.875000   0.125000 0
  0.500000   0.250000 0
  0.625000   0.500000 0
  0.250000   0.625000 0
  0.000000   0.625000 0
  0.375000   0.500000 0
  0.375000   0.000000 0
  0.000000   0.125000 0
  0.125000   0.875000 0
  0.875000   1.000000 0
  0.750000   0.250000 0
  0.375000   0.375000 0
  0.250000   0.375000 0
  0.625000   0.750000 0
  0.125000   0.125000 0
  0.500000   0.000000 0
  0.250000   0.875000 0
  0.125000   0.500000 0
  0.500000   0.375000 0
  0.125000   0.000000 0
  0.250000   0.750000 0
  0.250000   0.500000 0
  0.000000   0.875000 0
  0.875000   0.625000 0
  0.500000   0.750000 0
  0.750000   0.625000 0
  0.250000   0.000000 0
  0.375000   0.750000 0
  0.750000   0.875000 0
  0.625000   0.125000 0
  0.250000   0.250000 0
  0.375000   1.000000 0
  0.375000   0.250000 0
  0.000000   0.375000 0
  0.500000   1.000000 0
  0.875000   0.750000 0
  0.750000   0.000000 0
  0.375000   0.125000 0
  0.500000   0.875000 0
  0.000000   0.000000 0
  0.125000   0.750000 0
  0.500000   0.625000 0
  0.125000   0.250000 0
  0.500000   0.125000 0
  0.250000   1.000000 0
  0.250000   0.125000 0
  0.000000   1.000000 0
  0.375000   0.875000 0
  0.000000   0.750000 0
  0.375000   0.625000 0
  0.000000   0.250000 0
  0.125000   1.000000 0
  1.000000   0.375000 0
  0.500000   0.500000 0
  0.875000   0.375000 0
CELLS 64 320
4 56 71 58 63
4 27 58 69 63
4 41 69 32 63
4 76 33 68 40
4 27 44 58 37
4 79 31 44 37
4 56 38 68 21
4 56 58 38 37
4 52 32 71 63
4 47 38 31 37
4 76 68 59 21
4 22 59 43 21
4 65 45 33 40
4 47 43 38 21
4 52 71 45 40
4 56 68 71 40
4 74 30 66 23
4 46 66 29 23
4 22 43 30 23
4 72 48 77 34
4 46 53 42 73
4 50 64 53 73
4 70 42 57 73
4 74 66 48 34
4 46 42 66 34
4 47 29 43 23
4 70 77 42 34
4 60 57 64 73
4 79 67 31 75
4 47 31 29 75
4 50 53 67 75
4 46 29 53 75
4 10 78 6 80
4 36 6 1 80
4 15 1 12 80
4 36 4 6 26
4 14 12 78 80
4 2 17 9 26
4 36 18 4 55
4 15 28 1 11
4 62 4 20 55
4 10 6 17 26
4 27 18 44 11
4 62 9 4 26
4 27 69 18 55
4 36 1 18 11
4 41 20 69 55
4 79 44 28 11
4 16 24 54 7
4 19 54 39 7
4 50 39 64 7
4 8 25 61 3
4 60 64 24 7
4 79 28 67 13
4 19 51 61 49
4 8 61 0 49
4 15 51 28 13
4 19 39 51 13
4 50 67 39 13
4 19 61 54 3
4 14 0 12 49
4 5 35 25 3
4 15 12 51 49
4 16 54 35 3
CELL_TYPES 64
8
8
8
8
8
8
8
8
8
8
8
8
8
8
8
8
8
8
8
8
8
8
8
8
8
8
8
8
8
8
8
8
8
8
8
8
8
8
8
8
8
8
8
8
8
8
8
8
8
8
8
8
8
8
8
8
8
8
8
8
8
8
8
8
CELL_DATA 64
VECTORS vector_value float
0.0210454 -0.0630119 0
-0.239736 -0.704755 0
-0.813734 -2.13438 0
0.184552 -0.90884 0
0.329541 -0.493781 0
0.280123 -0.922822 0
0.000870608 -0.0926565 0
0.181549 -0.326972 0
-0.0083853 -0.565944 0
0.10648 -0.409063 0
-0.112001 -1.0336 0
-0.0284741 -0.685575 0
0.0275615 -0.613602 0
-0.116436 -0.604726 0
0.179212 -0.286105 0
0.167448 -0.23865 0
0.120935 -1.03904 0
0.181042 -0.3587 0
0.0478578 -0.787103 0
-0.154041 -1.28357 0
0.367324 -0.502219 0
0.102207 -0.48811 0
-0.293477 -0.746897 0
0.111403 -1.18896 0
0.634871 -1.29884 0
0.12804 -0.38054 0
-0.401833 -1.07316 0
0.179801 -0.739976 0
0.253971 -1.13746 0
0.0560126 -0.583957 0
0.739364 -1.97959 0
0.885376 -0.74137 0
-0.00579375 -0.0225387 0
-0.919672 -2.36649 0
0.375666 -2.11873 0
-0.138639 -0.466391 0
-0.18854 -0.18004 0
-0.000215638 -0.00879287 0
-2.16316 -3.61809 0
2.49751 -2.74579 0
-0.00721458 -1.74395 0
-0.00609835 -0.019839 0
0.451001 -0.784293 0
0.0056354 -0.552049 0
-2.24084 -1.98042 0
-0.462006 -2.87967 0
-0.144573 -2.09517 0
0.177763 -0.333252 0
-0.11284 -1.40902 0
-1.29862 -1.86732 0
-0.374867 -1.66199 0
-0.0733146 -0.487928 0
0.276513 -0.83224 0
2.33206 -3.52385 0
0.00319369 -0.248744 0
-0.000918737 -0.403826 0
0.342643 -0.312461 0
0.135308 -0.739316 0
-0.648773 -2.48941 0
-0.359857 -0.504623 0
0.00173135 -0.50142 0
-0.22249 -0.75776 0
0.422995 -0.773207 0
-0.603565 -1.15738 0
