# vtk DataFile Version 2.0
Unstructured Grid by M++
ASCII
DATASET UNSTRUCTURED_GRID
POINTS 81 float
  1.000000   0.625000 0
  0.750000   0.375000 0
  1.000000   0.000000 0
  0.875000   0.875000 0
  0.750000   0.125000 0
  1.000000   1.000000 0
  0.875000   0.250000 0
  0.625000   0.875000 0
  1.000000   0.750000 0
  0.875000   0.000000 0
  1.000000   0.250000 0
  0.625000   0.375000 0
  0.875000   0.500000 0
  0.625000   0.625000 0
  1.000000   0.500000 0
  0.750000   0.500000 0
  0.750000   1.000000 0
  1.000000   0.125000 0
  0.625000   0.250000 0
  0.750000   0.750000 0
  0.625000   0.000000 0
  0.125000   0.375000 0
  0.000000   0.500000 0
  0.125000   0.625000 0
  0.625000   1.000000 0
  1.000000   0.875000 0
  0.875000   0.125000 0
  0.500000   0.250000 0
  0.625000   0.500000 0
  0.250000   0.625000 0
  0.000000   0.625000 0
  0.375000   0.500000 0
  0.375000   0.000000 0
  0.000000   0.125000 0
  0.125000   0.875000 0
  0.875000   1.000000 0
  0.750000   0.250000 0
  0.375000   0.375000 0
  0.250000   0.375000 0
  0.625000   0.750000 0
  0.125000   0.125000 0
  0.500000   0.000000 0
  0.250000   0.875000 0
  0.125000   0.500000 0
  0.500000   0.375000 0
  0.125000   0.000000 0
  0.250000   0.750000 0
  0.250000   0.500000 0
  0.000000   0.875000 0
  0.875000   0.625000 0
  0.500000   0.750000 0
  0.750000   0.625000 0
  0.250000   0.000000 0
  0.375000   0.750000 0
  0.750000   0.875000 0
  0.625000   0.125000 0
  0.250000   0.250000 0
  0.375000   1.000000 0
  0.375000   0.250000 0
  0.000000   0.375000 0
  0.500000   1.000000 0
  0.875000   0.750000 0
  0.750000   0.000000 0
  0.375000   0.125000 0
  0.500000   0.875000 0
  0.000000   0.000000 0
  0.125000   0.750000 0
  0.500000   0.625000 0
  0.125000   0.250000 0
  0.500000   0.125000 0
  0.250000   1.000000 0
  0.250000   0.125000 0
  0.000000   1.000000 0
  0.375000   0.875000 0
  0.000000   0.750000 0
  0.375000   0.625000 0
  0.000000   0.250000 0
  0.125000   1.000000 0
  1.000000   0.375000 0
  0.500000   0.500000 0
  0.875000   0.375000 0
CELLS 64 320
4 56 71 58 63
4 27 58 69 63
4 41 69 32 63
4 76 33 68 40
4 27 44 58 37
4 79 31 44 37
4 56 38 68 21
4 56 58 38 37
4 52 32 71 63
4 47 38 31 37
4 76 68 59 21
4 22 59 43 21
4 65 45 33 40
4 47 43 38 21
4 52 71 45 40
4 56 68 71 40
4 74 30 66 23
4 46 66 29 23
4 22 43 30 23
4 72 48 77 34
4 46 53 42 73
4 50 64 53 73
4 70 42 57 73
4 74 66 48 34
4 46 42 66 34
4 47 29 43 23
4 70 77 42 34
4 60 57 64 73
4 79 67 31 75
4 47 31 29 75
4 50 53 67 75
4 46 29 53 75
4 10 78 6 80
4 36 6 1 80
4 15 1 12 80
4 36 4 6 26
4 14 12 78 80
4 2 17 9 26
4 36 18 4 55
4 15 28 1 11
4 62 4 20 55
4 10 6 17 26
4 27 18 44 11
4 62 9 4 26
4 27 69 18 55
4 36 1 18 11
4 41 20 69 55
4 79 44 28 11
4 16 24 54 7
4 19 54 39 7
4 50 39 64 7
4 8 25 61 3
4 60 64 24 7
4 79 28 67 13
4 19 51 61 49
4 8 61 0 49
4 15 51 28 13
4 19 39 51 13
4 50 67 39 13
4 19 61 54 3
4 14 0 12 49
4 5 35 25 3
4 15 12 51 49
4 16 54 35 3
CELL_TYPES 64
8
8
8
8
8
8
8
8
8
8
8
8
8
8
8
8
8
8
8
8
8
8
8
8
8
8
8
8
8
8
8
8
8
8
8
8
8
8
8
8
8
8
8
8
8
8
8
8
8
8
8
8
8
8
8
8
8
8
8
8
8
8
8
8
CELL_DATA 64
VECTORS vector_value float
0.849768 -1.91059 0
0.834646 -0.766628 0
0.295545 -1.37557 0
-0.0177807 -0.145023 0
0.287031 -0.786529 0
-0.638792 -0.464441 0
0.414681 -1.7472 0
0.608882 -1.77022 0
0.0275072 -1.00644 0
-0.0258896 -1.26079 0
-0.0249967 -0.0896995 0
0.0671037 -0.100314 0
-0.000476933 -0.165523 0
0.288645 -2.16029 0
0.00326685 -0.7 0
0.133917 -0.925526 0
0.108395 -0.831235 0
0.017594 -1.44934 0
0.219712 -0.332322 0
0.0112458 -0.982702 0
-0.299309 -0.583082 0
-0.0768304 -0.0913356 0
0.209752 -0.52344 0
0.0539567 -0.892777 0
-0.0394243 -1.34297 0
0.189405 -2.13196 0
-0.023064 -1.07196 0
0.658908 -0.714993 0
-0.254722 -0.185615 0
-0.192937 -0.651082 0
-0.116277 -0.0686954 0
-0.0419335 -0.653584 0
-0.000209901 -0.0407158 0
-0.0157051 -0.26606 0
-0.153856 -0.502772 0
0.321898 -0.630485 0
-0.00781903 -0.0518324 0
0.0474036 -0.196286 0
0.152776 -1.41384 0
-0.560819 -2.19815 0
0.00366829 -1.07225 0
0.0373404 -0.067543 0
-0.119456 -1.45632 0
0.0472875 -0.708254 0
0.328138 -2.14037 0
-0.12563 -1.84325 0
0.0689381 -2.77568 0
-0.954889 -1.26141 0
0.0706957 -1.5053 0
0.264724 -2.88174 0
0.0691438 -0.905958 0
0.0162932 -0.912345 0
1.06825 -1.55702 0
-0.396186 -0.726734 0
-0.0990177 -1.00346 0
-0.243528 -0.564561 0
-0.908038 -2.50426 0
0.0438997 -2.63082 0
-0.187822 -0.798302 0
-0.00951546 -0.389792 0
-0.0972767 -0.144021 0
-0.14616 -0.700943 0
-0.641246 -1.324 0
-0.391552 -0.943637 0
