# vtk DataFile Version 2.0
Unstructured Grid by M++
ASCII
DATASET UNSTRUCTURED_GRID
POINTS 81 float
  1.000000   0.625000 0
  0.750000   0.375000 0
  1.000000   0.000000 0
  0.875000   0.875000 0
  0.750000   0.125000 0
  1.000000   1.000000 0
  0.875000   0.250000 0
  0.625000   0.875000 0
  1.000000   0.750000 0
  0.875000   0.000000 0
  1.000000   0.250000 0
  0.625000   0.375000 0
  0.875000   0.500000 0
  0.625000   0.625000 0
  1.000000   0.500000 0
  0.750000   0.500000 0
  0.750000   1.000000 0
  1.000000   0.125000 0
  0.625000   0.250000 0
  0.750000   0.750000 0
  0.625000   0.000000 0
  0.125000   0.375000 0
  0.000000   0.500000 0
  0.125000   0.625000 0
  0.625000   1.000000 0
  1.000000   0.875000 0
  0.875000   0.125000 0
  0.500000   0.250000 0
  0.625000   0.500000 0
  0.250000   0.625000 0
  0.000000   0.625000 0
  0.375000   0.500000 0
  0.375000   0.000000 0
  0.000000   0.125000 0
  0.125000   0.875000 0
  0.875000   1.000000 0
  0.750000   0.250000 0
  0.375000   0.375000 0
  0.250000   0.375000 0
  0.625000   0.750000 0
  0.125000   0.125000 0
  0.500000   0.000000 0
  0.250000   0.875000 0
  0.125000   0.500000 0
  0.500000   0.375000 0
  0.125000   0.000000 0
  0.250000   0.750000 0
  0.250000   0.500000 0
  0.000000   0.875000 0
  0.875000   0.625000 0
  0.500000   0.750000 0
  0.750000   0.625000 0
  0.250000   0.000000 0
  0.375000   0.750000 0
  0.750000   0.875000 0
  0.625000   0.125000 0
  0.250000   0.250000 0
  0.375000   1.000000 0
  0.375000   0.250000 0
  0.000000   0.375000 0
  0.500000   1.000000 0
  0.875000   0.750000 0
  0.750000   0.000000 0
  0.375000   0.125000 0
  0.500000   0.875000 0
  0.000000   0.000000 0
  0.125000   0.750000 0
  0.500000   0.625000 0
  0.125000   0.250000 0
  0.500000   0.125000 0
  0.250000   1.000000 0
  0.250000   0.125000 0
  0.000000   1.000000 0
  0.375000   0.875000 0
  0.000000   0.750000 0
  0.375000   0.625000 0
  0.000000   0.250000 0
  0.125000   1.000000 0
  1.000000   0.375000 0
  0.500000   0.500000 0
  0.875000   0.375000 0
CELLS 64 320
4 56 71 58 63
4 27 58 69 63
4 41 69 32 63
4 76 33 68 40
4 27 44 58 37
4 79 31 44 37
4 56 38 68 21
4 56 58 38 37
4 52 32 71 63
4 47 38 31 37
4 76 68 59 21
4 22 59 43 21
4 65 45 33 40
4 47 43 38 21
4 52 71 45 40
4 56 68 71 40
4 74 30 66 23
4 46 66 29 23
4 22 43 30 23
4 72 48 77 34
4 46 53 42 73
4 50 64 53 73
4 70 42 57 73
4 74 66 48 34
4 46 42 66 34
4 47 29 43 23
4 70 77 42 34
4 60 57 64 73
4 79 67 31 75
4 47 31 29 75
4 50 53 67 75
4 46 29 53 75
4 10 78 6 80
4 36 6 1 80
4 15 1 12 80
4 36 4 6 26
4 14 12 78 80
4 2 17 9 26
4 36 18 4 55
4 15 28 1 11
4 62 4 20 55
4 10 6 17 26
4 27 18 44 11
4 62 9 4 26
4 27 69 18 55
4 36 1 18 11
4 41 20 69 55
4 79 44 28 11
4 16 24 54 7
4 19 54 39 7
4 50 39 64 7
4 8 25 61 3
4 60 64 24 7
4 79 28 67 13
4 19 51 61 49
4 8 61 0 49
4 15 51 28 13
4 19 39 51 13
4 50 67 39 13
4 19 61 54 3
4 14 0 12 49
4 5 35 25 3
4 15 12 51 49
4 16 54 35 3
CELL_TYPES 64
8
8
8
8
8
8
8
8
8
8
8
8
8
8
8
8
8
8
8
8
8
8
8
8
8
8
8
8
8
8
8
8
8
8
8
8
8
8
8
8
8
8
8
8
8
8
8
8
8
8
8
8
8
8
8
8
8
8
8
8
8
8
8
8
CELL_DATA 64
VECTORS vector_value float
-1.53451 -1.34355 0
-0.49828 -0.510749 0
-0.479151 -0.849094 0
-0.6383 -2.69291 0
-0.815551 -1.85975 0
-0.956785 -2.66432 0
-0.118949 -0.144105 0
-0.644013 -1.45882 0
-0.383879 -0.901837 0
-0.392054 -0.973499 0
-0.322876 -1.94562 0
-0.113975 -1.32079 0
-0.055753 -3.43332 0
-0.469125 -0.478184 0
-0.336653 -1.29134 0
-1.75245 -1.05825 0
0.227172 -1.45112 0
0.0622546 -0.272984 0
-0.0567802 -0.963431 0
-0.163644 -0.930176 0
0.701501 -1.03201 0
0.819771 -2.29051 0
-0.103022 -1.16475 0
-0.101796 -1.56788 0
0.0852534 -0.216143 0
0.0840053 -0.729542 0
-0.189443 -1.38132 0
-0.677 -1.21523 0
-0.141279 -0.862534 0
-0.369059 -1.1803 0
0.117367 -2.29412 0
-0.0145263 -0.334341 0
-0.245346 -0.797114 0
-0.619236 -0.755586 0
0.0990881 -0.629453 0
-0.257857 -0.358681 0
0.170648 -1.08725 0
-0.00116567 -0.412428 0
-0.626533 -0.425221 0
-0.117169 -0.461916 0
-0.0228764 -0.294843 0
-0.0849799 -0.533676 0
-0.183895 -0.693772 0
-0.00695347 -0.20292 0
-0.825009 -1.07695 0
-0.447201 -0.34524 0
-0.0858615 -0.614212 0
-0.255117 -0.384588 0
0.149559 -0.259024 0
0.0324896 -0.110359 0
-0.0503237 -0.159162 0
-0.43309 -1.822 0
-0.620051 -0.566058 0
-0.827961 -1.6944 0
-0.797631 -1.46963 0
-0.158034 -0.774806 0
-0.485289 -0.934837 0
-0.224024 -0.608743 0
0.551206 -0.79426 0
-0.116778 -0.801922 0
0.0177639 -0.658124 0
0.440223 -1.65531 0
0.0118617 -0.976832 0
0.700234 -0.828132 0
