# vtk DataFile Version 2.0
Unstructured Grid by M++
ASCII
DATASET UNSTRUCTURED_GRID
POINTS 81 float
  1.000000   0.625000 0
  0.750000   0.375000 0
  1.000000   0.000000 0
  0.875000   0.875000 0
  0.750000   0.125000 0
  1.000000   1.000000 0
  0.875000   0.250000 0
  0.625000   0.875000 0
  1.000000   0.750000 0
  0.875000   0.000000 0
  1.000000   0.250000 0
  0.625000   0.375000 0
  0.875000   0.500000 0
  0.625000   0.625000 0
  1.000000   0.500000 0
  0.750000   0.500000 0
  0.750000   1.000000 0
  1.000000   0.125000 0
  0.625000   0.250000 0
  0.750000   0.750000 0
  0.625000   0.000000 0
  0.125000   0.375000 0
  0.000000   0.500000 0
  0.125000   0.625000 0
  0.625000   1.000000 0
  1.000000   0.875000 0
  0.875000   0.125000 0
  0.500000   0.250000 0
  0.625000   0.500000 0
  0.250000   0.625000 0
  0.000000   0.625000 0
  0.375000   0.500000 0
  0.375000   0.000000 0
  0.000000   0.125000 0
  0.125000   0.875000 0
  0.875000   1.000000 0
  0.750000   0.250000 0
  0.375000   0.375000 0
  0.250000   0.375000 0
  0.625000   0.750000 0
  0.125000   0.125000 0
  0.500000   0.000000 0
  0.250000   0.875000 0
  0.125000   0.500000 0
  0.500000   0.375000 0
  0.125000   0.000000 0
  0.250000   0.750000 0
  0.250000   0.500000 0
  0.000000   0.875000 0
  0.875000   0.625000 0
  0.500000   0.750000 0
  0.750000   0.625000 0
  0.250000   0.000000 0
  0.375000   0.750000 0
  0.750000   0.875000 0
  0.625000   0.125000 0
  0.250000   0.250000 0
  0.375000   1.000000 0
  0.375000   0.250000 0
  0.000000   0.375000 0
  0.500000   1.000000 0
  0.875000   0.750000 0
  0.750000   0.000000 0
  0.375000   0.125000 0
  0.500000   0.875000 0
  0.000000   0.000000 0
  0.125000   0.750000 0
  0.500000   0.625000 0
  0.125000   0.250000 0
  0.500000   0.125000 0
  0.250000   1.000000 0
  0.250000   0.125000 0
  0.000000   1.000000 0
  0.375000   0.875000 0
  0.000000   0.750000 0
  0.375000   0.625000 0
  0.000000   0.250000 0
  0.125000   1.000000 0
  1.000000   0.375000 0
  0.500000   0.500000 0
  0.875000   0.375000 0
CELLS 64 320
4 56 71 58 63
4 27 58 69 63
4 41 69 32 63
4 76 33 68 40
4 27 44 58 37
4 79 31 44 37
4 56 38 68 21
4 56 58 38 37
4 52 32 71 63
4 47 38 31 37
4 76 68 59 21
4 22 59 43 21
4 65 45 33 40
4 47 43 38 21
4 52 71 45 40
4 56 68 71 40
4 74 30 66 23
4 46 66 29 23
4 22 43 30 23
4 72 48 77 34
4 46 53 42 73
4 50 64 53 73
4 70 42 57 73
4 74 66 48 34
4 46 42 66 34
4 47 29 43 23
4 70 77 42 34
4 60 57 64 73
4 79 67 31 75
4 47 31 29 75
4 50 53 67 75
4 46 29 53 75
4 10 78 6 80
4 36 6 1 80
4 15 1 12 80
4 36 4 6 26
4 14 12 78 80
4 2 17 9 26
4 36 18 4 55
4 15 28 1 11
4 62 4 20 55
4 10 6 17 26
4 27 18 44 11
4 62 9 4 26
4 27 69 18 55
4 36 1 18 11
4 41 20 69 55
4 79 44 28 11
4 16 24 54 7
4 19 54 39 7
4 50 39 64 7
4 8 25 61 3
4 60 64 24 7
4 79 28 67 13
4 19 51 61 49
4 8 61 0 49
4 15 51 28 13
4 19 39 51 13
4 50 67 39 13
4 19 61 54 3
4 14 0 12 49
4 5 35 25 3
4 15 12 51 49
4 16 54 35 3
CELL_TYPES 64
8
8
8
8
8
8
8
8
8
8
8
8
8
8
8
8
8
8
8
8
8
8
8
8
8
8
8
8
8
8
8
8
8
8
8
8
8
8
8
8
8
8
8
8
8
8
8
8
8
8
8
8
8
8
8
8
8
8
8
8
8
8
8
8
CELL_DATA 64
VECTORS vector_value float
-0.24763 -1.18208 0
-1.41698 -1.53151 0
-0.0928414 -0.398055 0
0.508815 -2.97782 0
-0.232523 -0.445548 0
0.0306529 -0.313056 0
0.419242 -0.400567 0
0.0495132 -0.239903 0
-0.600817 -2.16565 0
-0.00875017 -0.189114 0
0.203018 -3.44626 0
-0.79144 -3.71047 0
0.41971 -1.48582 0
-0.0962575 -0.207482 0
0.658233 -2.13619 0
0.281059 -0.407721 0
0.225817 -0.650047 0
-0.322582 -1.80112 0
-0.677554 -1.72819 0
-0.1786 -1.4594 0
0.0216444 -0.687721 0
0.245941 -0.838294 0
0.217473 -0.616007 0
0.117278 -1.3129 0
0.0727704 -0.583968 0
-1.79305 -1.62581 0
-0.163625 -0.592609 0
0.247794 -1.77137 0
-0.091894 -0.559134 0
-0.769954 -0.695243 0
-1.19231 -1.01644 0
-0.966452 -0.656336 0
-0.0862125 -0.190104 0
-0.733468 -0.58819 0
-1.31537 -1.04505 0
-0.150666 -0.252156 0
-0.713287 -1.12922 0
0.00292714 -0.0816379 0
-0.283736 -0.788459 0
-0.291442 -1.0401 0
-0.0810685 -0.53516 0
-0.0232652 -0.0786447 0
-1.69488 -1.22502 0
-0.00846949 -0.103151 0
-0.345218 -0.781613 0
-1.80883 -1.46441 0
-0.124658 -1.09433 0
0.127115 -0.365516 0
0.346651 -0.477064 0
0.203314 -0.541766 0
0.54881 -1.30809 0
0.274562 -2.24721 0
-0.229696 -0.533997 0
0.0172004 -0.283563 0
-0.095911 -0.651748 0
0.000607697 -2.26419 0
-0.0496666 -0.364044 0
-0.0963643 -0.240082 0
-0.552337 -0.720038 0
0.39571 -0.480049 0
-0.275336 -2.18225 0
0.36131 -1.59255 0
-0.156858 -0.56176 0
0.696829 -0.956999 0
