# vtk DataFile Version 2.0
Unstructured Grid by M++
ASCII
DATASET UNSTRUCTURED_GRID
POINTS 81 float
  1.000000   0.625000 0
  0.750000   0.375000 0
  1.000000   0.000000 0
  0.875000   0.875000 0
  0.750000   0.125000 0
  1.000000   1.000000 0
  0.875000   0.250000 0
  0.625000   0.875000 0
  1.000000   0.750000 0
  0.875000   0.000000 0
  1.000000   0.250000 0
  0.625000   0.375000 0
  0.875000   0.500000 0
  0.625000   0.625000 0
  1.000000   0.500000 0
  0.750000   0.500000 0
  0.750000   1.000000 0
  1.000000   0.125000 0
  0.625000   0.250000 0
  0.750000   0.750000 0
  0.625000   0.000000 0
  0.125000   0.375000 0
  0.000000   0.500000 0
  0.125000   0.625000 0
  0.625000   1.000000 0
  1.000000   0.875000 0
  0.875000   0.125000 0
  0.500000   0.250000 0
  0.625000   0.500000 0
  0.250000   0.625000 0
  0.000000   0.625000 0
  0.375000   0.500000 0
  0.375000   0.000000 0
  0.000000   0.125000 0
  0.125000   0.875000 0
  0.875000   1.000000 0
  0.750000   0.250000 0
  0.375000   0.375000 0
  0.250000   0.375000 0
  0.625000   0.750000 0
  0.125000   0.125000 0
  0.500000   0.000000 0
  0.250000   0.875000 0
  0.125000   0.500000 0
  0.500000   0.375000 0
  0.125000   0.000000 0
  0.250000   0.750000 0
  0.250000   0.500000 0
  0.000000   0.875000 0
  0.875000   0.625000 0
  0.500000   0.750000 0
  0.750000   0.625000 0
  0.250000   0.000000 0
  0.375000   0.750000 0
  0.750000   0.875000 0
  0.625000   0.125000 0
  0.250000   0.250000 0
  0.375000   1.000000 0
  0.375000   0.250000 0
  0.000000   0.375000 0
  0.500000   1.000000 0
  0.875000   0.750000 0
  0.750000   0.000000 0
  0.375000   0.125000 0
  0.500000   0.875000 0
  0.000000   0.000000 0
  0.125000   0.750000 0
  0.500000   0.625000 0
  0.125000   0.250000 0
  0.500000   0.125000 0
  0.250000   1.000000 0
  0.250000   0.125000 0
  0.000000   1.000000 0
  0.375000   0.875000 0
  0.000000   0.750000 0
  0.375000   0.625000 0
  0.000000   0.250000 0
  0.125000   1.000000 0
  1.000000   0.375000 0
  0.500000   0.500000 0
  0.875000   0.375000 0
CELLS 64 320
4 56 71 58 63
4 27 58 69 63
4 41 69 32 63
4 76 33 68 40
4 27 44 58 37
4 79 31 44 37
4 56 38 68 21
4 56 58 38 37
4 52 32 71 63
4 47 38 31 37
4 76 68 59 21
4 22 59 43 21
4 65 45 33 40
4 47 43 38 21
4 52 71 45 40
4 56 68 71 40
4 74 30 66 23
4 46 66 29 23
4 22 43 30 23
4 72 48 77 34
4 46 53 42 73
4 50 64 53 73
4 70 42 57 73
4 74 66 48 34
4 46 42 66 34
4 47 29 43 23
4 70 77 42 34
4 60 57 64 73
4 79 67 31 75
4 47 31 29 75
4 50 53 67 75
4 46 29 53 75
4 10 78 6 80
4 36 6 1 80
4 15 1 12 80
4 36 4 6 26
4 14 12 78 80
4 2 17 9 26
4 36 18 4 55
4 15 28 1 11
4 62 4 20 55
4 10 6 17 26
4 27 18 44 11
4 62 9 4 26
4 27 69 18 55
4 36 1 18 11
4 41 20 69 55
4 79 44 28 11
4 16 24 54 7
4 19 54 39 7
4 50 39 64 7
4 8 25 61 3
4 60 64 24 7
4 79 28 67 13
4 19 51 61 49
4 8 61 0 49
4 15 51 28 13
4 19 39 51 13
4 50 67 39 13
4 19 61 54 3
4 14 0 12 49
4 5 35 25 3
4 15 12 51 49
4 16 54 35 3
CELL_TYPES 64
8
8
8
8
8
8
8
8
8
8
8
8
8
8
8
8
8
8
8
8
8
8
8
8
8
8
8
8
8
8
8
8
8
8
8
8
8
8
8
8
8
8
8
8
8
8
8
8
8
8
8
8
8
8
8
8
8
8
8
8
8
8
8
8
CELL_DATA 64
VECTORS vector_value float
0.324808 -0.0642112 0
-0.0749747 -0.641112 0
-0.212848 -1.52574 0
0.307648 -1.36004 0
0.0356375 -0.184608 0
0.0628474 -0.194149 0
0.0184716 -0.820478 0
0.043845 -0.0758842 0
0.108201 -0.122039 0
-0.0062819 -0.141535 0
0.0876633 -1.92666 0
-0.363277 -1.68162 0
0.0322026 -0.983575 0
-0.284846 -1.04657 0
0.0777193 -1.29354 0
0.558819 -1.18944 0
0.442064 -1.99405 0
0.0906113 -0.258039 0
0.0527848 -1.03218 0
-0.357354 -1.53946 0
0.00195017 -0.427962 0
0.154476 -0.360427 0
-0.141817 -0.674834 0
-0.188152 -1.94191 0
-0.100268 -0.508178 0
0.0825499 -1.52744 0
-0.560447 -0.727812 0
0.318611 -0.710655 0
0.0491091 -0.318719 0
-0.14124 -0.349716 0
-0.0303542 -0.248455 0
-0.00956169 -0.644252 0
-0.03602 -1.27173 0
-0.504175 -1.04285 0
-0.184323 -1.99884 0
-0.347945 -0.521036 0
0.174903 -1.07567 0
-0.0599547 -0.330105 0
-0.90892 -0.831648 0
-0.265673 -1.33648 0
-0.269207 -0.510218 0
-0.356508 -0.97627 0
-0.260643 -1.06565 0
-0.377522 -0.825927 0
-1.20334 -2.41624 0
-0.879852 -1.61214 0
-0.370288 -2.40886 0
0.128017 -0.525132 0
0.565756 -0.969496 0
-0.108011 -1.09774 0
0.207699 -1.16978 0
0.0371198 -0.376829 0
0.520125 -0.887576 0
0.118604 -0.686859 0
0.214382 -1.68481 0
0.0689471 -0.535698 0
0.218506 -0.880096 0
0.513672 -1.50157 0
0.168787 -1.13313 0
-0.206399 -2.11717 0
0.132311 -0.806001 0
-0.305737 -0.965535 0
0.522563 -2.39899 0
0.063567 -1.52463 0
