# vtk DataFile Version 2.0
Unstructured Grid by M++
ASCII
DATASET UNSTRUCTURED_GRID
POINTS 289 float
  0.562500   1.000000 0
  0.562500   0.625000 0
  0.625000   1.000000 0
  0.562500   0.937500 0
  0.562500   0.562500 0
  0.625000   0.937500 0
  0.562500   0.875000 0
  0.625000   0.750000 0
  0.625000   0.625000 0
  0.562500   0.812500 0
  0.562500   0.750000 0
  0.562500   0.687500 0
  0.625000   0.875000 0
  0.625000   0.812500 0
  0.625000   0.687500 0
  0.687500   0.125000 0
  0.875000   0.062500 0
  0.625000   0.125000 0
  0.625000   0.187500 0
  0.625000   0.250000 0
  0.812500   0.187500 0
  1.000000   0.125000 0
  0.687500   0.187500 0
  0.750000   0.125000 0
  0.937500   0.062500 0
  0.937500   0.125000 0
  0.750000   0.187500 0
  0.812500   0.062500 0
  0.812500   0.125000 0
  0.875000   0.687500 0
  0.187500   0.250000 0
  0.437500   0.250000 0
  0.375000   0.187500 0
  0.812500   0.625000 0
  0.125000   0.187500 0
  0.937500   0.750000 0
  0.250000   0.312500 0
  0.500000   0.312500 0
  0.625000   0.062500 0
  0.437500   0.500000 0
  0.375000   0.125000 0
  0.437500   0.187500 0
  0.437500   0.437500 0
  0.437500   0.375000 0
  0.875000   0.875000 0
  0.187500   0.375000 0
  0.687500   0.562500 0
  0.687500   0.625000 0
  0.000000   0.125000 0
  0.937500   0.625000 0
  0.250000   0.125000 0
  0.375000   0.062500 0
  0.375000   0.000000 0
  0.812500   0.500000 0
  0.125000   0.000000 0
  0.937500   0.937500 0
  0.250000   0.437500 0
  0.687500   0.875000 0
  0.687500   0.937500 0
  0.000000   0.437500 0
  0.500000   0.500000 0
  0.500000   0.437500 0
  0.750000   0.937500 0
  0.750000   1.000000 0
  0.062500   0.500000 0
  1.000000   1.000000 0
  0.312500   0.500000 0
  0.875000   0.562500 0
  0.187500   0.062500 0
  0.437500   0.125000 0
  0.437500   0.062500 0
  0.500000   0.375000 0
  0.937500   0.812500 0
  0.937500   0.875000 0
  0.250000   0.375000 0
  0.687500   0.812500 0
  0.000000   0.375000 0
  0.750000   0.562500 0
  0.062500   0.125000 0
  1.000000   0.562500 0
  1.000000   0.625000 0
  0.312500   0.125000 0
  0.562500   0.125000 0
  0.437500   0.000000 0
  0.875000   0.437500 0
  0.875000   0.500000 0
  0.187500   0.000000 0
  0.937500   0.562500 0
  0.937500   0.500000 0
  0.250000   0.062500 0
  0.687500   0.500000 0
  0.000000   0.062500 0
  0.500000   0.062500 0
  1.000000   0.875000 0
  1.000000   0.937500 0
  0.312500   0.437500 0
  0.750000   0.875000 0
  0.062500   0.437500 0
  0.812500   0.937500 0
  0.125000   0.500000 0
  0.375000   0.500000 0
  0.625000   0.562500 0
  0.625000   0.500000 0
  0.437500   0.312500 0
  0.875000   0.812500 0
  0.875000   0.750000 0
  0.187500   0.312500 0
  0.812500   0.687500 0
  0.812500   0.750000 0
  0.125000   0.250000 0
  0.375000   0.250000 0
  1.000000   0.687500 0
  0.312500   0.187500 0
  0.750000   0.687500 0
  0.750000   0.625000 0
  0.062500   0.187500 0
  0.562500   0.250000 0
  0.562500   0.187500 0
  0.375000   1.000000 0
  0.500000   0.562500 0
  0.500000   0.250000 0
  0.750000   0.250000 0
  0.500000   0.125000 0
  0.500000   0.187500 0
  1.000000   0.187500 0
  0.625000   0.375000 0
  0.875000   0.375000 0
  1.000000   0.437500 0
  0.312500   0.000000 0
  0.562500   0.000000 0
  0.812500   0.000000 0
  0.250000   0.687500 0
  0.000000   0.687500 0
  0.500000   1.000000 0
  0.250000   1.000000 0
  0.000000   1.000000 0
  0.437500   0.687500 0
  0.437500   0.625000 0
  0.187500   0.625000 0
  0.687500   0.750000 0
  0.000000   0.312500 0
  0.000000   0.250000 0
  0.375000   0.375000 0
  0.375000   0.312500 0
  0.812500   0.812500 0
  0.125000   0.312500 0
  0.875000   0.625000 0
  0.187500   0.187500 0
  0.187500   0.125000 0
  0.937500   1.000000 0
  0.250000   0.562500 0
  0.250000   0.500000 0
  0.687500   1.000000 0
  0.000000   0.500000 0
  0.687500   0.687500 0
  0.000000   0.187500 0
  0.937500   0.687500 0
  0.250000   0.250000 0
  0.250000   0.187500 0
  0.187500   0.687500 0
  0.000000   0.750000 0
  0.250000   0.750000 0
  0.125000   0.625000 0
  0.750000   0.750000 0
  0.062500   0.250000 0
  0.875000   0.937500 0
  0.187500   0.500000 0
  0.187500   0.437500 0
  0.812500   0.562500 0
  0.125000   0.125000 0
  0.125000   0.062500 0
  0.375000   0.625000 0
  0.375000   0.687500 0
  1.000000   0.750000 0
  0.312500   0.250000 0
  0.312500   0.312500 0
  0.812500   0.312500 0
  0.562500   0.312500 0
  0.375000   0.750000 0
  0.500000   0.625000 0
  0.250000   0.625000 0
  0.312500   0.687500 0
  0.750000   0.812500 0
  0.062500   0.312500 0
  0.062500   0.375000 0
  1.000000   0.812500 0
  0.312500   0.375000 0
  0.562500   0.375000 0
  0.687500   0.437500 0
  0.000000   0.000000 0
  0.500000   0.000000 0
  0.937500   0.437500 0
  0.250000   0.000000 0
  0.375000   0.437500 0
  0.812500   0.875000 0
  0.125000   0.375000 0
  0.125000   0.437500 0
  0.625000   0.437500 0
  1.000000   0.500000 0
  0.312500   0.062500 0
  0.750000   0.500000 0
  0.062500   0.000000 0
  0.062500   0.062500 0
  0.562500   0.062500 0
  0.062500   0.750000 0
  0.312500   0.750000 0
  0.312500   0.625000 0
  0.312500   0.562500 0
  0.062500   0.562500 0
  0.187500   1.000000 0
  0.437500   0.562500 0
  0.875000   1.000000 0
  0.187500   0.562500 0
  0.500000   0.937500 0
  0.250000   0.937500 0
  0.312500   1.000000 0
  0.125000   0.750000 0
  0.125000   0.687500 0
  1.000000   0.000000 0
  0.000000   0.937500 0
  0.000000   0.875000 0
  0.875000   0.125000 0
  0.875000   0.187500 0
  0.062500   0.812500 0
  0.312500   0.812500 0
  0.000000   0.812500 0
  0.000000   0.625000 0
  0.000000   0.562500 0
  0.062500   1.000000 0
  0.062500   0.937500 0
  0.937500   0.187500 0
  0.937500   0.250000 0
  0.062500   0.687500 0
  0.062500   0.625000 0
  0.125000   1.000000 0
  1.000000   0.250000 0
  1.000000   0.312500 0
  0.062500   0.875000 0
  0.125000   0.812500 0
  0.375000   0.812500 0
  0.125000   0.875000 0
  0.375000   0.937500 0
  0.375000   0.875000 0
  0.187500   0.750000 0
  0.187500   0.812500 0
  0.437500   0.812500 0
  0.187500   0.875000 0
  0.437500   0.875000 0
  0.375000   0.562500 0
  0.812500   1.000000 0
  0.125000   0.562500 0
  0.437500   1.000000 0
  0.437500   0.937500 0
  0.187500   0.937500 0
  0.125000   0.937500 0
  0.500000   0.687500 0
  0.500000   0.750000 0
  0.500000   0.812500 0
  0.250000   0.812500 0
  0.250000   0.875000 0
  0.500000   0.875000 0
  0.437500   0.750000 0
  0.312500   0.875000 0
  0.312500   0.937500 0
  0.687500   0.250000 0
  0.687500   0.312500 0
  0.937500   0.312500 0
  0.875000   0.250000 0
  0.625000   0.000000 0
  0.875000   0.000000 0
  0.687500   0.375000 0
  0.937500   0.375000 0
  0.875000   0.312500 0
  0.625000   0.312500 0
  0.687500   0.000000 0
  0.937500   0.000000 0
  0.750000   0.312500 0
  0.750000   0.375000 0
  1.000000   0.375000 0
  0.812500   0.250000 0
  0.562500   0.437500 0
  0.562500   0.500000 0
  0.687500   0.062500 0
  0.750000   0.437500 0
  0.750000   0.000000 0
  0.750000   0.062500 0
  1.000000   0.062500 0
  0.812500   0.375000 0
  0.812500   0.437500 0
CELLS 256 1280
4 169 170 148 68
4 151 166 56 167
4 195 45 196 167
4 54 170 201 202
4 109 34 30 147
4 40 32 81 112
4 192 89 86 68
4 48 91 78 202
4 99 64 196 97
4 71 43 37 103
4 74 186 56 95
4 109 164 34 115
4 50 81 158 112
4 122 69 92 70
4 195 145 45 106
4 110 143 174 175
4 157 30 158 147
4 40 69 32 41
4 50 158 148 147
4 141 155 164 115
4 122 123 69 41
4 142 186 143 175
4 60 39 61 42
4 40 51 69 70
4 120 31 123 41
4 157 174 36 175
4 50 148 89 68
4 48 78 155 115
4 52 83 51 70
4 151 56 66 95
4 71 61 43 42
4 169 148 34 147
4 100 193 39 42
4 40 81 51 199
4 110 174 32 112
4 109 30 145 106
4 100 66 193 95
4 169 34 78 115
4 190 92 83 70
4 50 89 81 199
4 54 86 170 68
4 74 56 45 167
4 142 143 43 103
4 153 59 64 97
4 99 196 166 167
4 169 78 170 202
4 142 193 186 95
4 192 128 89 199
4 74 45 36 106
4 110 31 143 103
4 76 184 59 97
4 142 43 193 42
4 52 51 128 199
4 189 201 91 202
4 120 37 31 103
4 74 36 186 175
4 195 196 184 97
4 141 164 140 183
4 157 158 174 112
4 109 145 164 183
4 195 184 145 183
4 110 32 31 41
4 157 36 30 106
4 76 140 184 183
4 171 172 206 181
4 178 172 261 136
4 256 261 255 136
4 256 257 261 245
4 180 150 206 207
4 60 119 39 210
4 118 215 241 263
4 178 205 172 181
4 216 243 238 244
4 162 217 233 232
4 180 206 131 181
4 179 137 119 210
4 216 204 217 232
4 220 237 219 229
4 216 217 243 159
4 259 258 262 224
4 240 254 237 229
4 153 64 227 208
4 161 205 258 224
4 240 237 238 223
4 226 227 233 208
4 234 228 254 229
4 171 248 137 210
4 160 132 204 232
4 180 131 138 159
4 133 251 213 252
4 171 206 248 207
4 162 138 217 159
4 161 258 243 244
4 220 225 237 223
4 151 150 166 212
4 260 247 257 245
4 259 262 214 263
4 151 66 150 207
4 234 254 209 253
4 162 233 250 208
4 242 241 262 263
4 171 137 172 136
4 161 243 131 159
4 160 204 225 223
4 161 131 205 181
4 179 255 137 136
4 216 238 204 223
4 100 39 248 210
4 260 213 247 252
4 226 233 132 232
4 134 214 215 263
4 180 138 150 212
4 178 261 239 245
4 259 246 258 244
4 178 239 205 224
4 240 238 246 244
4 242 262 239 224
4 99 250 64 208
4 240 246 254 253
4 242 239 247 245
4 135 219 228 229
4 99 166 250 212
4 259 214 246 253
4 118 241 251 252
4 100 248 66 207
4 134 209 214 253
4 162 250 138 212
4 242 247 241 252
4 71 187 61 280
4 102 281 197 280
4 122 92 82 203
4 17 18 82 117
4 122 82 123 117
4 19 264 273 265
4 267 279 222 20
4 125 273 270 265
4 267 272 279 176
4 19 116 18 117
4 21 25 286 24
4 23 28 26 20
4 23 285 28 27
4 218 286 275 24
4 85 53 84 288
4 235 236 231 266
4 221 222 28 20
4 267 222 231 230
4 268 38 129 203
4 125 270 197 188
4 126 287 272 176
4 277 270 276 265
4 267 231 272 266
4 125 197 187 280
4 190 129 92 203
4 277 276 287 176
4 19 18 264 22
4 17 82 38 203
4 102 197 90 188
4 126 84 287 288
4 284 130 285 27
4 121 276 264 265
4 71 37 187 177
4 120 123 116 117
4 198 88 127 191
4 221 16 25 24
4 23 26 15 22
4 121 279 276 176
4 235 231 124 230
4 125 187 273 177
4 278 271 236 266
4 277 287 283 288
4 284 285 274 282
4 278 127 271 191
4 269 275 16 24
4 200 283 53 288
4 23 15 285 282
4 121 26 279 20
4 21 124 25 230
4 19 273 116 177
4 200 90 283 188
4 126 271 84 191
4 269 16 130 27
4 17 38 15 282
4 221 25 222 230
4 121 264 26 22
4 120 116 37 177
4 60 61 281 280
4 277 283 270 188
4 126 272 271 266
4 268 274 38 282
4 85 84 88 191
4 17 15 18 22
4 221 28 16 27
4 93 94 73 55
4 85 88 67 87
4 80 49 79 87
4 44 104 73 72
4 146 33 67 168
4 211 165 149 55
4 8 47 14 154
4 105 104 108 144
4 105 108 29 107
4 7 139 13 75
4 44 165 194 98
4 200 53 77 168
4 8 1 101 4
4 2 5 152 58
4 260 6 213 3
4 105 35 104 72
4 96 57 182 75
4 7 14 139 154
4 146 29 33 107
4 7 13 10 9
4 12 13 57 75
4 85 67 53 168
4 44 73 165 55
4 63 152 62 58
4 8 101 47 46
4 96 182 194 144
4 60 281 119 4
4 12 5 6 3
4 173 185 35 72
4 65 149 94 55
4 146 67 49 87
4 114 113 47 154
4 163 108 182 144
4 12 6 13 9
4 173 35 111 156
4 163 182 139 75
4 260 257 6 9
4 105 29 35 156
4 163 139 113 154
4 256 10 257 9
4 146 49 29 156
4 163 113 108 107
4 80 111 49 156
4 102 101 281 4
4 12 57 5 58
4 44 194 104 144
4 96 194 62 98
4 2 0 5 3
4 93 73 185 72
4 179 119 1 4
4 200 77 90 46
4 114 33 113 107
4 7 10 14 11
4 96 62 57 58
4 133 213 0 3
4 102 90 101 46
4 256 255 10 11
4 63 62 249 98
4 114 47 77 46
4 179 1 255 11
4 211 249 165 98
4 114 77 33 168
4 198 79 88 87
4 8 14 1 11
CELL_TYPES 256
8
8
8
8
8
8
8
8
8
8
8
8
8
8
8
8
8
8
8
8
8
8
8
8
8
8
8
8
8
8
8
8
8
8
8
8
8
8
8
8
8
8
8
8
8
8
8
8
8
8
8
8
8
8
8
8
8
8
8
8
8
8
8
8
8
8
8
8
8
8
8
8
8
8
8
8
8
8
8
8
8
8
8
8
8
8
8
8
8
8
8
8
8
8
8
8
8
8
8
8
8
8
8
8
8
8
8
8
8
8
8
8
8
8
8
8
8
8
8
8
8
8
8
8
8
8
8
8
8
8
8
8
8
8
8
8
8
8
8
8
8
8
8
8
8
8
8
8
8
8
8
8
8
8
8
8
8
8
8
8
8
8
8
8
8
8
8
8
8
8
8
8
8
8
8
8
8
8
8
8
8
8
8
8
8
8
8
8
8
8
8
8
8
8
8
8
8
8
8
8
8
8
8
8
8
8
8
8
8
8
8
8
8
8
8
8
8
8
8
8
8
8
8
8
8
8
8
8
8
8
8
8
8
8
8
8
8
8
8
8
8
8
8
8
8
8
8
8
8
8
8
8
8
8
8
8
CELL_DATA 256
VECTORS vector_value float
0.00110222 -0.0310678 0
0.13324 -0.495942 0
0.834658 -0.622936 0
-0.0057629 -0.0183666 0
0.0421209 -0.0964192 0
0.12336 -0.504385 0
0.0104009 -0.0449167 0
-0.00252473 -0.0242092 0
0.57509 -0.700137 0
0.431676 -0.23099 0
0.415924 -0.380734 0
0.0123901 -0.0372443 0
0.0974745 -0.210012 0
0.0570493 -0.675808 0
0.769321 -0.503722 0
0.533801 -0.631122 0
0.0632585 -0.13195 0
0.12242 -0.688327 0
0.0423098 -0.103158 0
0.00229186 -0.0198035 0
0.115311 -0.721226 0
1.27976 -0.474584 0
0.128287 -0.1089 0
0.175062 -0.863229 0
0.221038 -0.688488 0
0.560464 -0.48758 0
0.0326445 -0.0926393 0
-0.0017489 -0.0183071 0
0.117865 -0.65258 0
0.112121 -0.269078 0
0.404457 -0.107372 0
0.0215845 -0.0732386 0
0.141259 -0.167879 0
0.146738 -0.45409 0
0.25739 -0.632657 0
0.161302 -0.121014 0
0.141885 -0.174878 0
-0.00256126 -0.0245964 0
0.124661 -1.0017 0
0.0512355 -0.10549 0
-0.00100088 -0.0230006 0
0.798566 -0.675154 0
0.800231 -0.232413 0
0.425822 -1.10366 0
0.276663 -0.468332 0
-0.00616141 -0.0246653 0
0.267842 -0.207937 0
0.0282209 -0.121841 0
1.03174 -0.417617 0
0.454924 -0.53548 0
0.159062 -0.345981 0
0.328917 -0.102396 0
0.0281826 -0.396885 0
-0.00567319 -0.0360375 0
0.252975 -0.544437 0
1.39558 -0.614088 0
0.766417 -0.779917 0
0.0255519 -0.044687 0
0.117937 -0.28975 0
0.116468 -0.11254 0
0.255918 -0.261924 0
0.285323 -0.64247 0
0.362144 -0.248182 0
0.0719447 -0.139469 0
0.133516 -0.221955 0
0.337232 -0.467183 0
0.514195 -0.610862 0
0.569693 -0.330988 0
0.101349 -0.247282 0
0.0957083 -0.119763 0
0.118214 -0.857359 0
0.173189 -0.261528 0
0.527203 -0.952302 0
-0.260708 -1.166 0
0.162915 -0.334503 0
0.310974 -0.283271 0
0.03806 -1.58526 0
-0.147583 -0.980621 0
0.261594 -0.652284 0
0.516106 -0.202385 0
-0.314231 -2.38578 0
0.144857 -1.66052 0
0.373133 -0.138079 0
0.43678 -2.1205 0
-0.295288 -1.56409 0
-0.373699 -1.95097 0
0.198221 -0.160733 0
-0.0964091 -0.682108 0
0.163715 -0.480911 0
0.920455 -0.794512 0
0.155579 -0.207352 0
0.132157 -0.505354 0
0.513903 -0.319795 0
0.0563111 -1.01079 0
0.0517282 -0.460847 0
0.59684 -0.158408 0
0.213335 -0.542517 0
0.120484 -0.362171 0
-0.948866 -0.894771 0
-0.128604 -0.529691 0
0.370017 -0.769325 0
0.156517 -0.179026 0
0.273893 -0.411797 0
0.120043 -0.850217 0
0.185445 -0.209002 0
0.431424 -0.543639 0
0.243214 -1.54577 0
0.0846249 -0.162494 0
0.551554 -0.250814 0
-0.108355 -0.930455 0
-0.130262 -0.774147 0
0.14751 -0.649645 0
0.671159 -0.91433 0
0.392682 -0.30456 0
0.359189 -0.282378 0
0.477591 -0.65625 0
0.897289 -0.567814 0
0.101208 -0.38596 0
-0.211714 -0.604922 0
0.911276 -0.797976 0
0.132734 -0.739744 0
0.0440102 -0.316902 0
-0.0618214 -0.316705 0
0.403238 -0.739292 0
0.0761361 -0.136992 0
-0.554048 -0.651928 0
0.0462033 -0.264462 0
0.364039 -0.572109 0
0.373872 -0.394051 0
0.060827 -0.583255 0
0.0548408 -0.845793 0
-0.0701112 -0.868993 0
0.11363 -0.854025 0
0.127961 -0.595731 0
1.18381 -4.18936 0
0.337837 -0.68024 0
0.719654 -4.9666 0
-0.0323454 -0.643045 0
0.233682 -4.27976 0
-0.206251 -1.22583 0
-0.373577 -1.26144 0
-0.0330413 -4.20612 0
0.477895 -2.45496 0
0.0774131 -2.18008 0
0.0789234 -2.02161 0
1.1045 -2.32294 0
-0.0449537 -1.53956 0
0.0697346 -0.685911 0
-0.209105 -3.55941 0
0.388047 -0.761407 0
0.278028 -1.51031 0
0.120861 -0.796439 0
0.028731 -0.71395 0
0.277653 -2.61514 0
-0.10671 -0.626023 0
-0.0752145 -1.20645 0
-0.0304508 -0.769919 0
-0.751566 -3.37318 0
-0.0693452 -0.972437 0
0.0856667 -0.77858 0
0.28075 -0.370143 0
0.0558096 -0.716496 0
0.216642 -2.55747 0
-0.00601957 -2.68387 0
-0.192968 -0.856936 0
0.420106 -1.98799 0
0.274448 -2.6487 0
0.348256 -0.96658 0
-0.123161 -2.35886 0
-0.0558217 -1.39713 0
-0.220343 -0.807199 0
-0.163312 -2.83299 0
-0.0835052 -2.48727 0
0.585588 -1.61182 0
-0.446522 -0.992577 0
-0.0743886 -1.35033 0
0.447852 -3.25552 0
-0.0211883 -0.916373 0
0.13621 -1.29288 0
-0.695051 -2.31367 0
-0.0749225 -1.92318 0
-0.242892 -0.743385 0
1.1517 -3.78535 0
-0.221343 -0.964323 0
0.00943501 -0.339307 0
0.104326 -0.223874 0
0.197261 -0.984197 0
-0.417909 -1.81341 0
-0.315473 -1.05495 0
0.205314 -3.01701 0
-0.253907 -0.788489 0
-0.236747 -1.71553 0
-0.0243453 -0.217533 0
0.785709 -2.92451 0
0.376832 -1.9988 0
-0.00911276 -0.390665 0
0.643486 -2.7397 0
-0.810751 -1.21733 0
0.179221 -0.923764 0
1.6606 -2.40965 0
1.23983 -3.118 0
0.368966 -0.796007 0
-0.253465 -0.787973 0
0.809377 -2.2982 0
0.390807 -0.498348 0
1.75165 -1.10358 0
0.713041 -0.11657 0
0.574532 -0.654774 0
2.04901 -3.57493 0
0.184138 -0.637352 0
0.532653 -2.34928 0
0.304614 -0.141803 0
1.10763 -1.30366 0
0.903932 -1.89295 0
-0.240449 -0.732448 0
0.546305 -2.53889 0
0.423112 -0.842156 0
1.43693 -3.07953 0
0.229977 -0.255758 0
1.25202 -0.578808 0
0.154098 -0.397007 0
-0.371882 -0.49651 0
0.485409 -1.8448 0
0.152662 -1.62987 0
2.15833 -4.30804 0
0.675109 -0.184839 0
0.194648 -0.768025 0
0.695343 -1.87262 0
0.547621 -0.0497649 0
0.832881 -1.49081 0
0.237527 -1.99665 0
0.360193 -0.0862381 0
0.780565 -2.4203 0
0.525356 -2.68517 0
0.21937 -1.16672 0
0.292651 -0.630247 0
1.52096 -1.47913 0
0.184653 -1.38832 0
0.289409 -1.57236 0
1.93438 -0.916993 0
0.00963058 -0.209613 0
0.422628 -0.32834 0
0.49493 -1.66681 0
0.352082 -2.48346 0
0.270454 -0.212822 0
1.13138 -4.09238 0
1.66311 -0.505023 0
0.24932 -0.586378 0
0.382776 -0.211151 0
-0.941792 -1.2927 0
0.422723 -1.7547 0
0.511739 -0.364119 0
-0.957142 -0.526244 0
0.457572 -2.08664 0
0.108677 -2.1395 0
0.307281 -0.300642 0
