# vtk DataFile Version 2.0
Unstructured Grid by M++
ASCII
DATASET UNSTRUCTURED_GRID
POINTS 81 float
  1.000000   0.625000 0
  0.750000   0.375000 0
  1.000000   0.000000 0
  0.875000   0.875000 0
  0.750000   0.125000 0
  1.000000   1.000000 0
  0.875000   0.250000 0
  0.625000   0.875000 0
  1.000000   0.750000 0
  0.875000   0.000000 0
  1.000000   0.250000 0
  0.625000   0.375000 0
  0.875000   0.500000 0
  0.625000   0.625000 0
  1.000000   0.500000 0
  0.750000   0.500000 0
  0.750000   1.000000 0
  1.000000   0.125000 0
  0.625000   0.250000 0
  0.750000   0.750000 0
  0.625000   0.000000 0
  0.125000   0.375000 0
  0.000000   0.500000 0
  0.125000   0.625000 0
  0.625000   1.000000 0
  1.000000   0.875000 0
  0.875000   0.125000 0
  0.500000   0.250000 0
  0.625000   0.500000 0
  0.250000   0.625000 0
  0.000000   0.625000 0
  0.375000   0.500000 0
  0.375000   0.000000 0
  0.000000   0.125000 0
  0.125000   0.875000 0
  0.875000   1.000000 0
  0.750000   0.250000 0
  0.375000   0.375000 0
  0.250000   0.375000 0
  0.625000   0.750000 0
  0.125000   0.125000 0
  0.500000   0.000000 0
  0.250000   0.875000 0
  0.125000   0.500000 0
  0.500000   0.375000 0
  0.125000   0.000000 0
  0.250000   0.750000 0
  0.250000   0.500000 0
  0.000000   0.875000 0
  0.875000   0.625000 0
  0.500000   0.750000 0
  0.750000   0.625000 0
  0.250000   0.000000 0
  0.375000   0.750000 0
  0.750000   0.875000 0
  0.625000   0.125000 0
  0.250000   0.250000 0
  0.375000   1.000000 0
  0.375000   0.250000 0
  0.000000   0.375000 0
  0.500000   1.000000 0
  0.875000   0.750000 0
  0.750000   0.000000 0
  0.375000   0.125000 0
  0.500000   0.875000 0
  0.000000   0.000000 0
  0.125000   0.750000 0
  0.500000   0.625000 0
  0.125000   0.250000 0
  0.500000   0.125000 0
  0.250000   1.000000 0
  0.250000   0.125000 0
  0.000000   1.000000 0
  0.375000   0.875000 0
  0.000000   0.750000 0
  0.375000   0.625000 0
  0.000000   0.250000 0
  0.125000   1.000000 0
  1.000000   0.375000 0
  0.500000   0.500000 0
  0.875000   0.375000 0
CELLS 64 320
4 56 71 58 63
4 27 58 69 63
4 41 69 32 63
4 76 33 68 40
4 27 44 58 37
4 79 31 44 37
4 56 38 68 21
4 56 58 38 37
4 52 32 71 63
4 47 38 31 37
4 76 68 59 21
4 22 59 43 21
4 65 45 33 40
4 47 43 38 21
4 52 71 45 40
4 56 68 71 40
4 74 30 66 23
4 46 66 29 23
4 22 43 30 23
4 72 48 77 34
4 46 53 42 73
4 50 64 53 73
4 70 42 57 73
4 74 66 48 34
4 46 42 66 34
4 47 29 43 23
4 70 77 42 34
4 60 57 64 73
4 79 67 31 75
4 47 31 29 75
4 50 53 67 75
4 46 29 53 75
4 10 78 6 80
4 36 6 1 80
4 15 1 12 80
4 36 4 6 26
4 14 12 78 80
4 2 17 9 26
4 36 18 4 55
4 15 28 1 11
4 62 4 20 55
4 10 6 17 26
4 27 18 44 11
4 62 9 4 26
4 27 69 18 55
4 36 1 18 11
4 41 20 69 55
4 79 44 28 11
4 16 24 54 7
4 19 54 39 7
4 50 39 64 7
4 8 25 61 3
4 60 64 24 7
4 79 28 67 13
4 19 51 61 49
4 8 61 0 49
4 15 51 28 13
4 19 39 51 13
4 50 67 39 13
4 19 61 54 3
4 14 0 12 49
4 5 35 25 3
4 15 12 51 49
4 16 54 35 3
CELL_TYPES 64
8
8
8
8
8
8
8
8
8
8
8
8
8
8
8
8
8
8
8
8
8
8
8
8
8
8
8
8
8
8
8
8
8
8
8
8
8
8
8
8
8
8
8
8
8
8
8
8
8
8
8
8
8
8
8
8
8
8
8
8
8
8
8
8
CELL_DATA 64
VECTORS vector_value float
0.133868 -0.708309 0
0.0385928 -0.179378 0
-0.0795884 -0.425563 0
0.139118 -0.609643 0
0.154863 -0.126323 0
0.063297 -0.186916 0
0.349031 -0.876302 0
0.230774 -0.473767 0
-0.019683 -0.609537 0
0.0112026 -0.343117 0
0.173402 -1.05653 0
-0.0996393 -0.867158 0
0.108214 -0.226509 0
-0.0436712 -1.32362 0
0.156263 -1.39287 0
0.148618 -0.962805 0
0.0480489 -0.890518 0
0.220726 -0.828022 0
0.0198443 -0.838724 0
-0.288835 -1.47129 0
-0.0394262 -0.347219 0
-0.157057 -0.579128 0
0.701936 -0.600558 0
0.304629 -1.48672 0
0.0653492 -0.122014 0
-0.227332 -1.25263 0
-0.0658857 -0.184219 0
1.27352 -0.909635 0
-0.0882595 -0.516198 0
-0.214473 -0.252791 0
-0.160338 -0.62718 0
-0.231631 -0.446198 0
-0.482129 -1.42204 0
-1.30159 -1.07114 0
-0.234308 -1.06301 0
-0.848274 -1.12293 0
-0.287535 -2.50881 0
-0.0233401 -0.230903 0
-0.277682 -1.30584 0
-0.0874075 -0.773435 0
-0.249217 -2.57599 0
-0.357205 -0.628834 0
-0.30058 -1.40175 0
-0.195313 -0.568909 0
-0.204852 -2.48226 0
-1.35226 -1.57214 0
0.0621024 -1.96971 0
0.0117259 -0.933931 0
0.986088 -0.3398 0
0.588262 -1.35492 0
-0.0037888 -0.929681 0
0.235892 -1.54868 0
1.47652 -1.7166 0
-0.0876229 -0.656138 0
0.340376 -1.87144 0
0.134946 -1.66036 0
-0.0816354 -0.830645 0
0.0201257 -1.16699 0
-0.0824993 -0.509291 0
0.271413 -1.63164 0
0.318052 -2.36057 0
0.0728796 -0.85443 0
0.21507 -1.2923 0
0.735431 -1.92346 0
