# vtk DataFile Version 2.0
Unstructured Grid by M++
ASCII
DATASET UNSTRUCTURED_GRID
POINTS 81 float
  1.000000   0.625000 0
  0.750000   0.375000 0
  1.000000   0.000000 0
  0.875000   0.875000 0
  0.750000   0.125000 0
  1.000000   1.000000 0
  0.875000   0.250000 0
  0.625000   0.875000 0
  1.000000   0.750000 0
  0.875000   0.000000 0
  1.000000   0.250000 0
  0.625000   0.375000 0
  0.875000   0.500000 0
  0.625000   0.625000 0
  1.000000   0.500000 0
  0.750000   0.500000 0
  0.750000   1.000000 0
  1.000000   0.125000 0
  0.625000   0.250000 0
  0.750000   0.750000 0
  0.625000   0.000000 0
  0.125000   0.375000 0
  0.000000   0.500000 0
  0.125000   0.625000 0
  0.625000   1.000000 0
  1.000000   0.875000 0
  0.875000   0.125000 0
  0.500000   0.250000 0
  0.625000   0.500000 0
  0.250000   0.625000 0
  0.000000   0.625000 0
  0.375000   0.500000 0
  0.375000   0.000000 0
  0.000000   0.125000 0
  0.125000   0.875000 0
  0.875000   1.000000 0
  0.750000   0.250000 0
  0.375000   0.375000 0
  0.250000   0.375000 0
  0.625000   0.750000 0
  0.125000   0.125000 0
  0.500000   0.000000 0
  0.250000   0.875000 0
  0.125000   0.500000 0
  0.500000   0.375000 0
  0.125000   0.000000 0
  0.250000   0.750000 0
  0.250000   0.500000 0
  0.000000   0.875000 0
  0.875000   0.625000 0
  0.500000   0.750000 0
  0.750000   0.625000 0
  0.250000   0.000000 0
  0.375000   0.750000 0
  0.750000   0.875000 0
  0.625000   0.125000 0
  0.250000   0.250000 0
  0.375000   1.000000 0
  0.375000   0.250000 0
  0.000000   0.375000 0
  0.500000   1.000000 0
  0.875000   0.750000 0
  0.750000   0.000000 0
  0.375000   0.125000 0
  0.500000   0.875000 0
  0.000000   0.000000 0
  0.125000   0.750000 0
  0.500000   0.625000 0
  0.125000   0.250000 0
  0.500000   0.125000 0
  0.250000   1.000000 0
  0.250000   0.125000 0
  0.000000   1.000000 0
  0.375000   0.875000 0
  0.000000   0.750000 0
  0.375000   0.625000 0
  0.000000   0.250000 0
  0.125000   1.000000 0
  1.000000   0.375000 0
  0.500000   0.500000 0
  0.875000   0.375000 0
CELLS 64 320
4 56 71 58 63
4 27 58 69 63
4 41 69 32 63
4 76 33 68 40
4 27 44 58 37
4 79 31 44 37
4 56 38 68 21
4 56 58 38 37
4 52 32 71 63
4 47 38 31 37
4 76 68 59 21
4 22 59 43 21
4 65 45 33 40
4 47 43 38 21
4 52 71 45 40
4 56 68 71 40
4 74 30 66 23
4 46 66 29 23
4 22 43 30 23
4 72 48 77 34
4 46 53 42 73
4 50 64 53 73
4 70 42 57 73
4 74 66 48 34
4 46 42 66 34
4 47 29 43 23
4 70 77 42 34
4 60 57 64 73
4 79 67 31 75
4 47 31 29 75
4 50 53 67 75
4 46 29 53 75
4 10 78 6 80
4 36 6 1 80
4 15 1 12 80
4 36 4 6 26
4 14 12 78 80
4 2 17 9 26
4 36 18 4 55
4 15 28 1 11
4 62 4 20 55
4 10 6 17 26
4 27 18 44 11
4 62 9 4 26
4 27 69 18 55
4 36 1 18 11
4 41 20 69 55
4 79 44 28 11
4 16 24 54 7
4 19 54 39 7
4 50 39 64 7
4 8 25 61 3
4 60 64 24 7
4 79 28 67 13
4 19 51 61 49
4 8 61 0 49
4 15 51 28 13
4 19 39 51 13
4 50 67 39 13
4 19 61 54 3
4 14 0 12 49
4 5 35 25 3
4 15 12 51 49
4 16 54 35 3
CELL_TYPES 64
8
8
8
8
8
8
8
8
8
8
8
8
8
8
8
8
8
8
8
8
8
8
8
8
8
8
8
8
8
8
8
8
8
8
8
8
8
8
8
8
8
8
8
8
8
8
8
8
8
8
8
8
8
8
8
8
8
8
8
8
8
8
8
8
CELL_DATA 64
VECTORS vector_value float
-0.229269 -0.902168 0
-0.481334 -0.812148 0
-0.108201 -0.481714 0
-0.0277065 -1.66563 0
0.0702459 -0.586285 0
0.00114311 -0.271172 0
0.0838942 -1.45221 0
0.0682218 -1.10638 0
-0.343829 -1.28573 0
-0.0541661 -1.3169 0
0.0655961 -1.71328 0
0.0564605 -2.01448 0
-0.166274 -2.00832 0
-0.0698512 -1.16953 0
-0.246611 -1.5931 0
-0.153077 -1.67082 0
-0.355478 -0.558491 0
-1.1368 -0.563196 0
-0.530105 -1.54476 0
0.378191 -0.405846 0
-0.108277 -1.9176 0
-0.120905 -2.85433 0
0.94098 -1.7517 0
0.0474411 -0.155235 0
0.0750503 -0.237043 0
-1.01213 -1.0247 0
1.11355 -0.650633 0
-0.287793 -1.91447 0
-0.184713 -0.748472 0
-0.700284 -1.53657 0
-0.534488 -2.55941 0
-1.37497 -1.66063 0
0.197446 -1.96857 0
0.0964231 -0.499374 0
0.394905 -1.11925 0
0.0118065 -0.105334 0
0.266987 -1.37575 0
-0.0216507 -2.16914 0
-0.0590634 -0.160005 0
0.0366073 -0.337807 0
0.00312624 -0.0312921 0
0.0365924 -2.22655 0
-0.149505 -0.507047 0
0.00796545 -0.242304 0
-0.302726 -0.457339 0
-0.118561 -0.166858 0
-0.00882797 -0.188395 0
-0.0141015 -0.395121 0
-1.08367 -1.0924 0
-0.280712 -0.874245 0
-0.624748 -1.38026 0
-0.0227995 -0.289116 0
-0.823943 -0.8643 0
0.329332 -0.720629 0
0.327558 -0.664503 0
0.0422828 -0.339609 0
0.698739 -0.342586 0
0.731144 -0.655115 0
0.629983 -0.999046 0
-0.0413604 -0.292162 0
0.414441 -0.864502 0
-0.332337 -0.559411 0
0.985246 -1.21778 0
-0.990922 -0.761237 0
