# vtk DataFile Version 2.0
Unstructured Grid by M++
ASCII
DATASET UNSTRUCTURED_GRID
POINTS 81 float
  1.000000   0.625000 0
  0.750000   0.375000 0
  1.000000   0.000000 0
  0.875000   0.875000 0
  0.750000   0.125000 0
  1.000000   1.000000 0
  0.875000   0.250000 0
  0.625000   0.875000 0
  1.000000   0.750000 0
  0.875000   0.000000 0
  1.000000   0.250000 0
  0.625000   0.375000 0
  0.875000   0.500000 0
  0.625000   0.625000 0
  1.000000   0.500000 0
  0.750000   0.500000 0
  0.750000   1.000000 0
  1.000000   0.125000 0
  0.625000   0.250000 0
  0.750000   0.750000 0
  0.625000   0.000000 0
  0.125000   0.375000 0
  0.000000   0.500000 0
  0.125000   0.625000 0
  0.625000   1.000000 0
  1.000000   0.875000 0
  0.875000   0.125000 0
  0.500000   0.250000 0
  0.625000   0.500000 0
  0.250000   0.625000 0
  0.000000   0.625000 0
  0.375000   0.500000 0
  0.375000   0.000000 0
  0.000000   0.125000 0
  0.125000   0.875000 0
  0.875000   1.000000 0
  0.750000   0.250000 0
  0.375000   0.375000 0
  0.250000   0.375000 0
  0.625000   0.750000 0
  0.125000   0.125000 0
  0.500000   0.000000 0
  0.250000   0.875000 0
  0.125000   0.500000 0
  0.500000   0.375000 0
  0.125000   0.000000 0
  0.250000   0.750000 0
  0.250000   0.500000 0
  0.000000   0.875000 0
  0.875000   0.625000 0
  0.500000   0.750000 0
  0.750000   0.625000 0
  0.250000   0.000000 0
  0.375000   0.750000 0
  0.750000   0.875000 0
  0.625000   0.125000 0
  0.250000   0.250000 0
  0.375000   1.000000 0
  0.375000   0.250000 0
  0.000000   0.375000 0
  0.500000   1.000000 0
  0.875000   0.750000 0
  0.750000   0.000000 0
  0.375000   0.125000 0
  0.500000   0.875000 0
  0.000000   0.000000 0
  0.125000   0.750000 0
  0.500000   0.625000 0
  0.125000   0.250000 0
  0.500000   0.125000 0
  0.250000   1.000000 0
  0.250000   0.125000 0
  0.000000   1.000000 0
  0.375000   0.875000 0
  0.000000   0.750000 0
  0.375000   0.625000 0
  0.000000   0.250000 0
  0.125000   1.000000 0
  1.000000   0.375000 0
  0.500000   0.500000 0
  0.875000   0.375000 0
CELLS 64 320
4 56 71 58 63
4 27 58 69 63
4 41 69 32 63
4 76 33 68 40
4 27 44 58 37
4 79 31 44 37
4 56 38 68 21
4 56 58 38 37
4 52 32 71 63
4 47 38 31 37
4 76 68 59 21
4 22 59 43 21
4 65 45 33 40
4 47 43 38 21
4 52 71 45 40
4 56 68 71 40
4 74 30 66 23
4 46 66 29 23
4 22 43 30 23
4 72 48 77 34
4 46 53 42 73
4 50 64 53 73
4 70 42 57 73
4 74 66 48 34
4 46 42 66 34
4 47 29 43 23
4 70 77 42 34
4 60 57 64 73
4 79 67 31 75
4 47 31 29 75
4 50 53 67 75
4 46 29 53 75
4 10 78 6 80
4 36 6 1 80
4 15 1 12 80
4 36 4 6 26
4 14 12 78 80
4 2 17 9 26
4 36 18 4 55
4 15 28 1 11
4 62 4 20 55
4 10 6 17 26
4 27 18 44 11
4 62 9 4 26
4 27 69 18 55
4 36 1 18 11
4 41 20 69 55
4 79 44 28 11
4 16 24 54 7
4 19 54 39 7
4 50 39 64 7
4 8 25 61 3
4 60 64 24 7
4 79 28 67 13
4 19 51 61 49
4 8 61 0 49
4 15 51 28 13
4 19 39 51 13
4 50 67 39 13
4 19 61 54 3
4 14 0 12 49
4 5 35 25 3
4 15 12 51 49
4 16 54 35 3
CELL_TYPES 64
8
8
8
8
8
8
8
8
8
8
8
8
8
8
8
8
8
8
8
8
8
8
8
8
8
8
8
8
8
8
8
8
8
8
8
8
8
8
8
8
8
8
8
8
8
8
8
8
8
8
8
8
8
8
8
8
8
8
8
8
8
8
8
8
CELL_DATA 64
VECTORS vector_value float
-0.207745 -0.666583 0
-1.36282 -2.91887 0
-0.416912 -1.20493 0
0.0949389 -0.258815 0
0.0180411 -2.44797 0
0.418155 -1.52819 0
-0.00438793 -0.726504 0
0.0202507 -0.738389 0
-1.12293 -3.10918 0
0.859431 -1.10374 0
-0.0132139 -0.363609 0
-0.0531121 -0.220874 0
0.0300965 -0.0961222 0
0.130271 -1.19126 0
0.159023 -1.01272 0
0.00609234 -1.03222 0
0.220504 -0.624883 0
0.174994 -2.14541 0
0.0728782 -0.230523 0
-0.385718 -1.55323 0
-0.623832 -2.14731 0
0.203937 -0.617762 0
-0.0980201 -1.31763 0
0.490581 -1.69489 0
-0.0406392 -0.1814 0
0.742595 -2.30032 0
-0.243926 -0.227319 0
-0.820904 -1.42569 0
0.15676 -0.148934 0
0.800582 -0.99532 0
0.413771 -0.358986 0
0.0216758 -1.01059 0
0.228974 -0.701524 0
-0.108223 -2.06239 0
0.317679 -2.46214 0
0.0329955 -0.98299 0
0.00659748 -0.51303 0
0.0090554 -1.5955 0
-0.629383 -0.537194 0
0.176572 -0.535683 0
-0.0240407 -0.301579 0
0.295514 -1.18971 0
-0.322788 -0.298192 0
0.000248404 -0.236417 0
-0.882023 -0.413624 0
-0.626166 -0.661423 0
-0.119305 -0.443556 0
-0.095044 -0.44507 0
-0.226257 -0.261291 0
0.0268649 -0.53254 0
0.216593 -0.834187 0
-0.450665 -1.61086 0
-0.604661 -1.02965 0
0.230413 -1.14123 0
-0.473981 -1.80422 0
-0.178365 -0.41135 0
0.444372 -0.934503 0
0.336735 -0.724175 0
0.412201 -0.920386 0
-0.0639987 -0.381057 0
0.0663191 -0.499289 0
0.321828 -1.43792 0
0.16782 -1.74988 0
0.341207 -0.747262 0
