# vtk DataFile Version 2.0
Unstructured Grid by M++
ASCII
DATASET UNSTRUCTURED_GRID
POINTS 81 float
  1.000000   0.625000 0
  0.750000   0.375000 0
  1.000000   0.000000 0
  0.875000   0.875000 0
  0.750000   0.125000 0
  1.000000   1.000000 0
  0.875000   0.250000 0
  0.625000   0.875000 0
  1.000000   0.750000 0
  0.875000   0.000000 0
  1.000000   0.250000 0
  0.625000   0.375000 0
  0.875000   0.500000 0
  0.625000   0.625000 0
  1.000000   0.500000 0
  0.750000   0.500000 0
  0.750000   1.000000 0
  1.000000   0.125000 0
  0.625000   0.250000 0
  0.750000   0.750000 0
  0.625000   0.000000 0
  0.125000   0.375000 0
  0.000000   0.500000 0
  0.125000   0.625000 0
  0.625000   1.000000 0
  1.000000   0.875000 0
  0.875000   0.125000 0
  0.500000   0.250000 0
  0.625000   0.500000 0
  0.250000   0.625000 0
  0.000000   0.625000 0
  0.375000   0.500000 0
  0.375000   0.000000 0
  0.000000   0.125000 0
  0.125000   0.875000 0
  0.875000   1.000000 0
  0.750000   0.250000 0
  0.375000   0.375000 0
  0.250000   0.375000 0
  0.625000   0.750000 0
  0.125000   0.125000 0
  0.500000   0.000000 0
  0.250000   0.875000 0
  0.125000   0.500000 0
  0.500000   0.375000 0
  0.125000   0.000000 0
  0.250000   0.750000 0
  0.250000   0.500000 0
  0.000000   0.875000 0
  0.875000   0.625000 0
  0.500000   0.750000 0
  0.750000   0.625000 0
  0.250000   0.000000 0
  0.375000   0.750000 0
  0.750000   0.875000 0
  0.625000   0.125000 0
  0.250000   0.250000 0
  0.375000   1.000000 0
  0.375000   0.250000 0
  0.000000   0.375000 0
  0.500000   1.000000 0
  0.875000   0.750000 0
  0.750000   0.000000 0
  0.375000   0.125000 0
  0.500000   0.875000 0
  0.000000   0.000000 0
  0.125000   0.750000 0
  0.500000   0.625000 0
  0.125000   0.250000 0
  0.500000   0.125000 0
  0.250000   1.000000 0
  0.250000   0.125000 0
  0.000000   1.000000 0
  0.375000   0.875000 0
  0.000000   0.750000 0
  0.375000   0.625000 0
  0.000000   0.250000 0
  0.125000   1.000000 0
  1.000000   0.375000 0
  0.500000   0.500000 0
  0.875000   0.375000 0
CELLS 64 320
4 56 71 58 63
4 27 58 69 63
4 41 69 32 63
4 76 33 68 40
4 27 44 58 37
4 79 31 44 37
4 56 38 68 21
4 56 58 38 37
4 52 32 71 63
4 47 38 31 37
4 76 68 59 21
4 22 59 43 21
4 65 45 33 40
4 47 43 38 21
4 52 71 45 40
4 56 68 71 40
4 74 30 66 23
4 46 66 29 23
4 22 43 30 23
4 72 48 77 34
4 46 53 42 73
4 50 64 53 73
4 70 42 57 73
4 74 66 48 34
4 46 42 66 34
4 47 29 43 23
4 70 77 42 34
4 60 57 64 73
4 79 67 31 75
4 47 31 29 75
4 50 53 67 75
4 46 29 53 75
4 10 78 6 80
4 36 6 1 80
4 15 1 12 80
4 36 4 6 26
4 14 12 78 80
4 2 17 9 26
4 36 18 4 55
4 15 28 1 11
4 62 4 20 55
4 10 6 17 26
4 27 18 44 11
4 62 9 4 26
4 27 69 18 55
4 36 1 18 11
4 41 20 69 55
4 79 44 28 11
4 16 24 54 7
4 19 54 39 7
4 50 39 64 7
4 8 25 61 3
4 60 64 24 7
4 79 28 67 13
4 19 51 61 49
4 8 61 0 49
4 15 51 28 13
4 19 39 51 13
4 50 67 39 13
4 19 61 54 3
4 14 0 12 49
4 5 35 25 3
4 15 12 51 49
4 16 54 35 3
CELL_TYPES 64
8
8
8
8
8
8
8
8
8
8
8
8
8
8
8
8
8
8
8
8
8
8
8
8
8
8
8
8
8
8
8
8
8
8
8
8
8
8
8
8
8
8
8
8
8
8
8
8
8
8
8
8
8
8
8
8
8
8
8
8
8
8
8
8
CELL_DATA 64
VECTORS vector_value float
0.430808 -0.873485 0
0.411788 -1.16601 0
-0.0562056 -1.28276 0
0.076295 -0.221769 0
0.24741 -0.316779 0
0.515902 -0.177858 0
0.516882 -0.502465 0
0.894489 -1.19024 0
0.101313 -1.09041 0
0.67385 -0.388865 0
0.26727 -0.667009 0
0.323304 -1.26178 0
0.0304956 -0.0751803 0
0.981987 -1.16553 0
0.153429 -0.271809 0
0.263102 -0.402763 0
-0.0443699 -1.52503 0
0.0320794 -2.22609 0
0.0453461 -1.55351 0
-0.207604 -1.43517 0
-0.269066 -0.379183 0
0.0319973 -0.0938744 0
-1.0584 -0.803498 0
-0.0232452 -1.38704 0
-0.290041 -2.17409 0
0.465227 -1.71306 0
-0.808178 -1.32489 0
-0.482697 -0.573465 0
0.683594 -0.112035 0
0.783274 -0.206114 0
0.0600648 -0.0534968 0
0.0684221 -0.139644 0
0.319336 -3.3907 0
0.424467 -0.804741 0
0.123649 -1.01958 0
0.243976 -0.629041 0
-0.120304 -2.9464 0
0.059219 -4.18583 0
-0.188438 -0.679264 0
0.543869 -0.629692 0
-0.03648 -0.44747 0
0.219421 -3.77726 0
0.0727057 -0.134368 0
0.00907889 -0.142207 0
-0.132929 -0.25041 0
0.34806 -0.993701 0
-0.118168 -0.504338 0
0.701537 -0.410296 0
0.864235 -1.02603 0
0.303918 -0.53668 0
0.0729142 -0.14875 0
0.890022 -2.4295 0
0.335793 -0.327635 0
0.538037 -0.453735 0
0.237358 -0.493484 0
0.174558 -3.11994 0
0.157127 -0.39328 0
0.0533979 -0.194772 0
0.038089 -0.247542 0
0.941125 -0.850879 0
0.00885224 -3.3378 0
0.0516792 -1.02293 0
0.031018 -0.230466 0
0.747771 -1.48638 0
