# vtk DataFile Version 2.0
Unstructured Grid by M++
ASCII
DATASET UNSTRUCTURED_GRID
POINTS 81 float
  1.000000   0.625000 0
  0.750000   0.375000 0
  1.000000   0.000000 0
  0.875000   0.875000 0
  0.750000   0.125000 0
  1.000000   1.000000 0
  0.875000   0.250000 0
  0.625000   0.875000 0
  1.000000   0.750000 0
  0.875000   0.000000 0
  1.000000   0.250000 0
  0.625000   0.375000 0
  0.875000   0.500000 0
  0.625000   0.625000 0
  1.000000   0.500000 0
  0.750000   0.500000 0
  0.750000   1.000000 0
  1.000000   0.125000 0
  0.625000   0.250000 0
  0.750000   0.750000 0
  0.625000   0.000000 0
  0.125000   0.375000 0
  0.000000   0.500000 0
  0.125000   0.625000 0
  0.625000   1.000000 0
  1.000000   0.875000 0
  0.875000   0.125000 0
  0.500000   0.250000 0
  0.625000   0.500000 0
  0.250000   0.625000 0
  0.000000   0.625000 0
  0.375000   0.500000 0
  0.375000   0.000000 0
  0.000000   0.125000 0
  0.125000   0.875000 0
  0.875000   1.000000 0
  0.750000   0.250000 0
  0.375000   0.375000 0
  0.250000   0.375000 0
  0.625000   0.750000 0
  0.125000   0.125000 0
  0.500000   0.000000 0
  0.250000   0.875000 0
  0.125000   0.500000 0
  0.500000   0.375000 0
  0.125000   0.000000 0
  0.250000   0.750000 0
  0.250000   0.500000 0
  0.000000   0.875000 0
  0.875000   0.625000 0
  0.500000   0.750000 0
  0.750000   0.625000 0
  0.250000   0.000000 0
  0.375000   0.750000 0
  0.750000   0.875000 0
  0.625000   0.125000 0
  0.250000   0.250000 0
  0.375000   1.000000 0
  0.375000   0.250000 0
  0.000000   0.375000 0
  0.500000   1.000000 0
  0.875000   0.750000 0
  0.750000   0.000000 0
  0.375000   0.125000 0
  0.500000   0.875000 0
  0.000000   0.000000 0
  0.125000   0.750000 0
  0.500000   0.625000 0
  0.125000   0.250000 0
  0.500000   0.125000 0
  0.250000   1.000000 0
  0.250000   0.125000 0
  0.000000   1.000000 0
  0.375000   0.875000 0
  0.000000   0.750000 0
  0.375000   0.625000 0
  0.000000   0.250000 0
  0.125000   1.000000 0
  1.000000   0.375000 0
  0.500000   0.500000 0
  0.875000   0.375000 0
CELLS 64 320
4 56 71 58 63
4 27 58 69 63
4 41 69 32 63
4 76 33 68 40
4 27 44 58 37
4 79 31 44 37
4 56 38 68 21
4 56 58 38 37
4 52 32 71 63
4 47 38 31 37
4 76 68 59 21
4 22 59 43 21
4 65 45 33 40
4 47 43 38 21
4 52 71 45 40
4 56 68 71 40
4 74 30 66 23
4 46 66 29 23
4 22 43 30 23
4 72 48 77 34
4 46 53 42 73
4 50 64 53 73
4 70 42 57 73
4 74 66 48 34
4 46 42 66 34
4 47 29 43 23
4 70 77 42 34
4 60 57 64 73
4 79 67 31 75
4 47 31 29 75
4 50 53 67 75
4 46 29 53 75
4 10 78 6 80
4 36 6 1 80
4 15 1 12 80
4 36 4 6 26
4 14 12 78 80
4 2 17 9 26
4 36 18 4 55
4 15 28 1 11
4 62 4 20 55
4 10 6 17 26
4 27 18 44 11
4 62 9 4 26
4 27 69 18 55
4 36 1 18 11
4 41 20 69 55
4 79 44 28 11
4 16 24 54 7
4 19 54 39 7
4 50 39 64 7
4 8 25 61 3
4 60 64 24 7
4 79 28 67 13
4 19 51 61 49
4 8 61 0 49
4 15 51 28 13
4 19 39 51 13
4 50 67 39 13
4 19 61 54 3
4 14 0 12 49
4 5 35 25 3
4 15 12 51 49
4 16 54 35 3
CELL_TYPES 64
8
8
8
8
8
8
8
8
8
8
8
8
8
8
8
8
8
8
8
8
8
8
8
8
8
8
8
8
8
8
8
8
8
8
8
8
8
8
8
8
8
8
8
8
8
8
8
8
8
8
8
8
8
8
8
8
8
8
8
8
8
8
8
8
CELL_DATA 64
VECTORS vector_value float
-0.422952 -3.10803 0
-0.163157 -0.565334 0
-0.0533699 -0.401671 0
0.313668 -1.6739 0
-0.468911 -0.95574 0
-0.335508 -1.08945 0
0.555332 -0.728364 0
-0.0190847 -2.76603 0
-0.273136 -2.55898 0
-0.207297 -1.62002 0
0.714307 -3.13344 0
0.167838 -3.56948 0
0.187289 -1.06815 0
0.262153 -0.946848 0
-0.147239 -3.66161 0
0.466425 -2.29538 0
-0.833943 -2.46641 0
-1.16312 -1.94212 0
-0.265673 -3.77703 0
0.0664321 -0.743826 0
-0.785076 -0.84963 0
-0.583282 -1.10502 0
-1.10096 -1.42208 0
-0.352777 -1.26501 0
-0.855792 -2.15345 0
-0.088111 -0.515323 0
-0.453143 -1.56044 0
-0.95401 -0.95296 0
-0.494092 -1.27139 0
-0.533968 -1.2654 0
-0.946139 -1.47632 0
-0.212296 -0.165332 0
-0.00785571 -0.0994009 0
-0.0139188 -0.04379 0
-0.252383 -0.0740852 0
0.0162483 -0.127205 0
-0.0981447 -0.212954 0
0.010893 -0.0801908 0
0.0301498 -0.043405 0
-0.252979 -0.13235 0
0.0139204 -0.0520344 0
-0.0155628 -0.0626282 0
-0.110357 -0.170105 0
0.0121804 -0.130602 0
-0.0197559 -0.124113 0
-0.0260403 -0.103129 0
-0.00183639 -0.0467633 0
-0.311209 -0.354809 0
-0.600206 -0.409837 0
-0.482432 -0.124978 0
-0.736377 -0.924572 0
-0.135512 -1.11809 0
-0.796087 -0.832487 0
-0.318593 -0.443598 0
-0.486452 -0.274139 0
-0.178718 -0.717241 0
-0.389772 -0.21107 0
-0.55351 -0.184906 0
-0.919882 -0.773536 0
-0.405497 -0.459246 0
-0.098394 -0.430375 0
0.065205 -1.08651 0
-0.176559 -0.0858134 0
-0.0460969 -0.99186 0
