# vtk DataFile Version 2.0
Unstructured Grid by M++
ASCII
DATASET UNSTRUCTURED_GRID
POINTS 81 float
  1.000000   0.625000 0
  0.750000   0.375000 0
  1.000000   0.000000 0
  0.875000   0.875000 0
  0.750000   0.125000 0
  1.000000   1.000000 0
  0.875000   0.250000 0
  0.625000   0.875000 0
  1.000000   0.750000 0
  0.875000   0.000000 0
  1.000000   0.250000 0
  0.625000   0.375000 0
  0.875000   0.500000 0
  0.625000   0.625000 0
  1.000000   0.500000 0
  0.750000   0.500000 0
  0.750000   1.000000 0
  1.000000   0.125000 0
  0.625000   0.250000 0
  0.750000   0.750000 0
  0.625000   0.000000 0
  0.125000   0.375000 0
  0.000000   0.500000 0
  0.125000   0.625000 0
  0.625000   1.000000 0
  1.000000   0.875000 0
  0.875000   0.125000 0
  0.500000   0.250000 0
  0.625000   0.500000 0
  0.250000   0.625000 0
  0.000000   0.625000 0
  0.375000   0.500000 0
  0.375000   0.000000 0
  0.000000   0.125000 0
  0.125000   0.875000 0
  0.875000   1.000000 0
  0.750000   0.250000 0
  0.375000   0.375000 0
  0.250000   0.375000 0
  0.625000   0.750000 0
  0.125000   0.125000 0
  0.500000   0.000000 0
  0.250000   0.875000 0
  0.125000   0.500000 0
  0.500000   0.375000 0
  0.125000   0.000000 0
  0.250000   0.750000 0
  0.250000   0.500000 0
  0.000000   0.875000 0
  0.875000   0.625000 0
  0.500000   0.750000 0
  0.750000   0.625000 0
  0.250000   0.000000 0
  0.375000   0.750000 0
  0.750000   0.875000 0
  0.625000   0.125000 0
  0.250000   0.250000 0
  0.375000   1.000000 0
  0.375000   0.250000 0
  0.000000   0.375000 0
  0.500000   1.000000 0
  0.875000   0.750000 0
  0.750000   0.000000 0
  0.375000   0.125000 0
  0.500000   0.875000 0
  0.000000   0.000000 0
  0.125000   0.750000 0
  0.500000   0.625000 0
  0.125000   0.250000 0
  0.500000   0.125000 0
  0.250000   1.000000 0
  0.250000   0.125000 0
  0.000000   1.000000 0
  0.375000   0.875000 0
  0.000000   0.750000 0
  0.375000   0.625000 0
  0.000000   0.250000 0
  0.125000   1.000000 0
  1.000000   0.375000 0
  0.500000   0.500000 0
  0.875000   0.375000 0
CELLS 64 320
4 56 71 58 63
4 27 58 69 63
4 41 69 32 63
4 76 33 68 40
4 27 44 58 37
4 79 31 44 37
4 56 38 68 21
4 56 58 38 37
4 52 32 71 63
4 47 38 31 37
4 76 68 59 21
4 22 59 43 21
4 65 45 33 40
4 47 43 38 21
4 52 71 45 40
4 56 68 71 40
4 74 30 66 23
4 46 66 29 23
4 22 43 30 23
4 72 48 77 34
4 46 53 42 73
4 50 64 53 73
4 70 42 57 73
4 74 66 48 34
4 46 42 66 34
4 47 29 43 23
4 70 77 42 34
4 60 57 64 73
4 79 67 31 75
4 47 31 29 75
4 50 53 67 75
4 46 29 53 75
4 10 78 6 80
4 36 6 1 80
4 15 1 12 80
4 36 4 6 26
4 14 12 78 80
4 2 17 9 26
4 36 18 4 55
4 15 28 1 11
4 62 4 20 55
4 10 6 17 26
4 27 18 44 11
4 62 9 4 26
4 27 69 18 55
4 36 1 18 11
4 41 20 69 55
4 79 44 28 11
4 16 24 54 7
4 19 54 39 7
4 50 39 64 7
4 8 25 61 3
4 60 64 24 7
4 79 28 67 13
4 19 51 61 49
4 8 61 0 49
4 15 51 28 13
4 19 39 51 13
4 50 67 39 13
4 19 61 54 3
4 14 0 12 49
4 5 35 25 3
4 15 12 51 49
4 16 54 35 3
CELL_TYPES 64
8
8
8
8
8
8
8
8
8
8
8
8
8
8
8
8
8
8
8
8
8
8
8
8
8
8
8
8
8
8
8
8
8
8
8
8
8
8
8
8
8
8
8
8
8
8
8
8
8
8
8
8
8
8
8
8
8
8
8
8
8
8
8
8
CELL_DATA 64
VECTORS vector_value float
0.0710961 -0.0934709 0
0.0162975 -0.162466 0
0.0139501 -0.293061 0
-0.180635 -0.581864 0
0.0371092 -0.0423502 0
0.0406919 -0.0376108 0
-0.0995561 -0.493518 0
0.0274722 -0.153183 0
0.0138215 -0.022082 0
0.00731354 -0.200555 0
-0.0910709 -0.268984 0
-0.0278977 -0.0990157 0
-0.00594196 -0.675569 0
-0.059066 -0.662073 0
-0.00606594 -0.0578355 0
-0.138845 -0.160971 0
0.0494761 -0.112511 0
0.24537 -0.852322 0
-0.00828937 -0.0520769 0
0.336009 -0.453141 0
1.09585 -1.33386 0
1.70067 -1.83009 0
0.105519 -1.59373 0
0.0895745 -0.226394 0
0.342473 -1.09126 0
-0.0280825 -0.64413 0
0.538275 -1.30515 0
-0.499708 -1.29151 0
0.145738 -0.104579 0
0.0383388 -0.339932 0
1.14556 -1.12127 0
0.398451 -0.448583 0
-0.0364237 -2.16574 0
0.0159436 -2.22077 0
0.96325 -2.21879 0
-0.649211 -2.34461 0
0.440024 -1.74094 0
-0.0400545 -1.38494 0
-0.646856 -2.40762 0
1.21338 -2.31436 0
-0.557752 -2.26996 0
-0.219279 -1.75956 0
0.0622857 -0.410944 0
-0.191919 -1.80989 0
-0.116953 -0.489439 0
0.0905223 -2.2445 0
-0.571981 -1.48666 0
0.491144 -0.726657 0
0.133007 -0.215982 0
-0.000557565 -0.286647 0
0.641189 -0.770935 0
-0.0122591 -1.82748 0
-0.537629 -0.629018 0
1.08776 -2.05116 0
-0.0976379 -0.658176 0
-0.122324 -1.6566 0
1.01481 -1.83936 0
0.490303 -1.07551 0
1.55698 -2.07503 0
-0.0720739 -0.633337 0
-0.210727 -1.14007 0
0.38684 -1.46252 0
0.145604 -1.8287 0
0.643944 -1.04895 0
