# vtk DataFile Version 2.0
Unstructured Grid by M++
ASCII
DATASET UNSTRUCTURED_GRID
POINTS 289 float
  0.562500   1.000000 0
  0.562500   0.625000 0
  0.625000   1.000000 0
  0.562500   0.937500 0
  0.562500   0.562500 0
  0.625000   0.937500 0
  0.562500   0.875000 0
  0.625000   0.750000 0
  0.625000   0.625000 0
  0.562500   0.812500 0
  0.562500   0.750000 0
  0.562500   0.687500 0
  0.625000   0.875000 0
  0.625000   0.812500 0
  0.625000   0.687500 0
  0.687500   0.125000 0
  0.875000   0.062500 0
  0.625000   0.125000 0
  0.625000   0.187500 0
  0.625000   0.250000 0
  0.812500   0.187500 0
  1.000000   0.125000 0
  0.687500   0.187500 0
  0.750000   0.125000 0
  0.937500   0.062500 0
  0.937500   0.125000 0
  0.750000   0.187500 0
  0.812500   0.062500 0
  0.812500   0.125000 0
  0.875000   0.687500 0
  0.187500   0.250000 0
  0.437500   0.250000 0
  0.375000   0.187500 0
  0.812500   0.625000 0
  0.125000   0.187500 0
  0.937500   0.750000 0
  0.250000   0.312500 0
  0.500000   0.312500 0
  0.625000   0.062500 0
  0.437500   0.500000 0
  0.375000   0.125000 0
  0.437500   0.187500 0
  0.437500   0.437500 0
  0.437500   0.375000 0
  0.875000   0.875000 0
  0.187500   0.375000 0
  0.687500   0.562500 0
  0.687500   0.625000 0
  0.000000   0.125000 0
  0.937500   0.625000 0
  0.250000   0.125000 0
  0.375000   0.062500 0
  0.375000   0.000000 0
  0.812500   0.500000 0
  0.125000   0.000000 0
  0.937500   0.937500 0
  0.250000   0.437500 0
  0.687500   0.875000 0
  0.687500   0.937500 0
  0.000000   0.437500 0
  0.500000   0.500000 0
  0.500000   0.437500 0
  0.750000   0.937500 0
  0.750000   1.000000 0
  0.062500   0.500000 0
  1.000000   1.000000 0
  0.312500   0.500000 0
  0.875000   0.562500 0
  0.187500   0.062500 0
  0.437500   0.125000 0
  0.437500   0.062500 0
  0.500000   0.375000 0
  0.937500   0.812500 0
  0.937500   0.875000 0
  0.250000   0.375000 0
  0.687500   0.812500 0
  0.000000   0.375000 0
  0.750000   0.562500 0
  0.062500   0.125000 0
  1.000000   0.562500 0
  1.000000   0.625000 0
  0.312500   0.125000 0
  0.562500   0.125000 0
  0.437500   0.000000 0
  0.875000   0.437500 0
  0.875000   0.500000 0
  0.187500   0.000000 0
  0.937500   0.562500 0
  0.937500   0.500000 0
  0.250000   0.062500 0
  0.687500   0.500000 0
  0.000000   0.062500 0
  0.500000   0.062500 0
  1.000000   0.875000 0
  1.000000   0.937500 0
  0.312500   0.437500 0
  0.750000   0.875000 0
  0.062500   0.437500 0
  0.812500   0.937500 0
  0.125000   0.500000 0
  0.375000   0.500000 0
  0.625000   0.562500 0
  0.625000   0.500000 0
  0.437500   0.312500 0
  0.875000   0.812500 0
  0.875000   0.750000 0
  0.187500   0.312500 0
  0.812500   0.687500 0
  0.812500   0.750000 0
  0.125000   0.250000 0
  0.375000   0.250000 0
  1.000000   0.687500 0
  0.312500   0.187500 0
  0.750000   0.687500 0
  0.750000   0.625000 0
  0.062500   0.187500 0
  0.562500   0.250000 0
  0.562500   0.187500 0
  0.375000   1.000000 0
  0.500000   0.562500 0
  0.500000   0.250000 0
  0.750000   0.250000 0
  0.500000   0.125000 0
  0.500000   0.187500 0
  1.000000   0.187500 0
  0.625000   0.375000 0
  0.875000   0.375000 0
  1.000000   0.437500 0
  0.312500   0.000000 0
  0.562500   0.000000 0
  0.812500   0.000000 0
  0.250000   0.687500 0
  0.000000   0.687500 0
  0.500000   1.000000 0
  0.250000   1.000000 0
  0.000000   1.000000 0
  0.437500   0.687500 0
  0.437500   0.625000 0
  0.187500   0.625000 0
  0.687500   0.750000 0
  0.000000   0.312500 0
  0.000000   0.250000 0
  0.375000   0.375000 0
  0.375000   0.312500 0
  0.812500   0.812500 0
  0.125000   0.312500 0
  0.875000   0.625000 0
  0.187500   0.187500 0
  0.187500   0.125000 0
  0.937500   1.000000 0
  0.250000   0.562500 0
  0.250000   0.500000 0
  0.687500   1.000000 0
  0.000000   0.500000 0
  0.687500   0.687500 0
  0.000000   0.187500 0
  0.937500   0.687500 0
  0.250000   0.250000 0
  0.250000   0.187500 0
  0.187500   0.687500 0
  0.000000   0.750000 0
  0.250000   0.750000 0
  0.125000   0.625000 0
  0.750000   0.750000 0
  0.062500   0.250000 0
  0.875000   0.937500 0
  0.187500   0.500000 0
  0.187500   0.437500 0
  0.812500   0.562500 0
  0.125000   0.125000 0
  0.125000   0.062500 0
  0.375000   0.625000 0
  0.375000   0.687500 0
  1.000000   0.750000 0
  0.312500   0.250000 0
  0.312500   0.312500 0
  0.812500   0.312500 0
  0.562500   0.312500 0
  0.375000   0.750000 0
  0.500000   0.625000 0
  0.250000   0.625000 0
  0.312500   0.687500 0
  0.750000   0.812500 0
  0.062500   0.312500 0
  0.062500   0.375000 0
  1.000000   0.812500 0
  0.312500   0.375000 0
  0.562500   0.375000 0
  0.687500   0.437500 0
  0.000000   0.000000 0
  0.500000   0.000000 0
  0.937500   0.437500 0
  0.250000   0.000000 0
  0.375000   0.437500 0
  0.812500   0.875000 0
  0.125000   0.375000 0
  0.125000   0.437500 0
  0.625000   0.437500 0
  1.000000   0.500000 0
  0.312500   0.062500 0
  0.750000   0.500000 0
  0.062500   0.000000 0
  0.062500   0.062500 0
  0.562500   0.062500 0
  0.062500   0.750000 0
  0.312500   0.750000 0
  0.312500   0.625000 0
  0.312500   0.562500 0
  0.062500   0.562500 0
  0.187500   1.000000 0
  0.437500   0.562500 0
  0.875000   1.000000 0
  0.187500   0.562500 0
  0.500000   0.937500 0
  0.250000   0.937500 0
  0.312500   1.000000 0
  0.125000   0.750000 0
  0.125000   0.687500 0
  1.000000   0.000000 0
  0.000000   0.937500 0
  0.000000   0.875000 0
  0.875000   0.125000 0
  0.875000   0.187500 0
  0.062500   0.812500 0
  0.312500   0.812500 0
  0.000000   0.812500 0
  0.000000   0.625000 0
  0.000000   0.562500 0
  0.062500   1.000000 0
  0.062500   0.937500 0
  0.937500   0.187500 0
  0.937500   0.250000 0
  0.062500   0.687500 0
  0.062500   0.625000 0
  0.125000   1.000000 0
  1.000000   0.250000 0
  1.000000   0.312500 0
  0.062500   0.875000 0
  0.125000   0.812500 0
  0.375000   0.812500 0
  0.125000   0.875000 0
  0.375000   0.937500 0
  0.375000   0.875000 0
  0.187500   0.750000 0
  0.187500   0.812500 0
  0.437500   0.812500 0
  0.187500   0.875000 0
  0.437500   0.875000 0
  0.375000   0.562500 0
  0.812500   1.000000 0
  0.125000   0.562500 0
  0.437500   1.000000 0
  0.437500   0.937500 0
  0.187500   0.937500 0
  0.125000   0.937500 0
  0.500000   0.687500 0
  0.500000   0.750000 0
  0.500000   0.812500 0
  0.250000   0.812500 0
  0.250000   0.875000 0
  0.500000   0.875000 0
  0.437500   0.750000 0
  0.312500   0.875000 0
  0.312500   0.937500 0
  0.687500   0.250000 0
  0.687500   0.312500 0
  0.937500   0.312500 0
  0.875000   0.250000 0
  0.625000   0.000000 0
  0.875000   0.000000 0
  0.687500   0.375000 0
  0.937500   0.375000 0
  0.875000   0.312500 0
  0.625000   0.312500 0
  0.687500   0.000000 0
  0.937500   0.000000 0
  0.750000   0.312500 0
  0.750000   0.375000 0
  1.000000   0.375000 0
  0.812500   0.250000 0
  0.562500   0.437500 0
  0.562500   0.500000 0
  0.687500   0.062500 0
  0.750000   0.437500 0
  0.750000   0.000000 0
  0.750000   0.062500 0
  1.000000   0.062500 0
  0.812500   0.375000 0
  0.812500   0.437500 0
CELLS 256 1280
4 169 170 148 68
4 151 166 56 167
4 195 45 196 167
4 54 170 201 202
4 109 34 30 147
4 40 32 81 112
4 192 89 86 68
4 48 91 78 202
4 99 64 196 97
4 71 43 37 103
4 74 186 56 95
4 109 164 34 115
4 50 81 158 112
4 122 69 92 70
4 195 145 45 106
4 110 143 174 175
4 157 30 158 147
4 40 69 32 41
4 50 158 148 147
4 141 155 164 115
4 122 123 69 41
4 142 186 143 175
4 60 39 61 42
4 40 51 69 70
4 120 31 123 41
4 157 174 36 175
4 50 148 89 68
4 48 78 155 115
4 52 83 51 70
4 151 56 66 95
4 71 61 43 42
4 169 148 34 147
4 100 193 39 42
4 40 81 51 199
4 110 174 32 112
4 109 30 145 106
4 100 66 193 95
4 169 34 78 115
4 190 92 83 70
4 50 89 81 199
4 54 86 170 68
4 74 56 45 167
4 142 143 43 103
4 153 59 64 97
4 99 196 166 167
4 169 78 170 202
4 142 193 186 95
4 192 128 89 199
4 74 45 36 106
4 110 31 143 103
4 76 184 59 97
4 142 43 193 42
4 52 51 128 199
4 189 201 91 202
4 120 37 31 103
4 74 36 186 175
4 195 196 184 97
4 141 164 140 183
4 157 158 174 112
4 109 145 164 183
4 195 184 145 183
4 110 32 31 41
4 157 36 30 106
4 76 140 184 183
4 171 172 206 181
4 178 172 261 136
4 256 261 255 136
4 256 257 261 245
4 180 150 206 207
4 60 119 39 210
4 118 215 241 263
4 178 205 172 181
4 216 243 238 244
4 162 217 233 232
4 180 206 131 181
4 179 137 119 210
4 216 204 217 232
4 220 237 219 229
4 216 217 243 159
4 259 258 262 224
4 240 254 237 229
4 153 64 227 208
4 161 205 258 224
4 240 237 238 223
4 226 227 233 208
4 234 228 254 229
4 171 248 137 210
4 160 132 204 232
4 180 131 138 159
4 133 251 213 252
4 171 206 248 207
4 162 138 217 159
4 161 258 243 244
4 220 225 237 223
4 151 150 166 212
4 260 247 257 245
4 259 262 214 263
4 151 66 150 207
4 234 254 209 253
4 162 233 250 208
4 242 241 262 263
4 171 137 172 136
4 161 243 131 159
4 160 204 225 223
4 161 131 205 181
4 179 255 137 136
4 216 238 204 223
4 100 39 248 210
4 260 213 247 252
4 226 233 132 232
4 134 214 215 263
4 180 138 150 212
4 178 261 239 245
4 259 246 258 244
4 178 239 205 224
4 240 238 246 244
4 242 262 239 224
4 99 250 64 208
4 240 246 254 253
4 242 239 247 245
4 135 219 228 229
4 99 166 250 212
4 259 214 246 253
4 118 241 251 252
4 100 248 66 207
4 134 209 214 253
4 162 250 138 212
4 242 247 241 252
4 71 187 61 280
4 102 281 197 280
4 122 92 82 203
4 17 18 82 117
4 122 82 123 117
4 19 264 273 265
4 267 279 222 20
4 125 273 270 265
4 267 272 279 176
4 19 116 18 117
4 21 25 286 24
4 23 28 26 20
4 23 285 28 27
4 218 286 275 24
4 85 53 84 288
4 235 236 231 266
4 221 222 28 20
4 267 222 231 230
4 268 38 129 203
4 125 270 197 188
4 126 287 272 176
4 277 270 276 265
4 267 231 272 266
4 125 197 187 280
4 190 129 92 203
4 277 276 287 176
4 19 18 264 22
4 17 82 38 203
4 102 197 90 188
4 126 84 287 288
4 284 130 285 27
4 121 276 264 265
4 71 37 187 177
4 120 123 116 117
4 198 88 127 191
4 221 16 25 24
4 23 26 15 22
4 121 279 276 176
4 235 231 124 230
4 125 187 273 177
4 278 271 236 266
4 277 287 283 288
4 284 285 274 282
4 278 127 271 191
4 269 275 16 24
4 200 283 53 288
4 23 15 285 282
4 121 26 279 20
4 21 124 25 230
4 19 273 116 177
4 200 90 283 188
4 126 271 84 191
4 269 16 130 27
4 17 38 15 282
4 221 25 222 230
4 121 264 26 22
4 120 116 37 177
4 60 61 281 280
4 277 283 270 188
4 126 272 271 266
4 268 274 38 282
4 85 84 88 191
4 17 15 18 22
4 221 28 16 27
4 93 94 73 55
4 85 88 67 87
4 80 49 79 87
4 44 104 73 72
4 146 33 67 168
4 211 165 149 55
4 8 47 14 154
4 105 104 108 144
4 105 108 29 107
4 7 139 13 75
4 44 165 194 98
4 200 53 77 168
4 8 1 101 4
4 2 5 152 58
4 260 6 213 3
4 105 35 104 72
4 96 57 182 75
4 7 14 139 154
4 146 29 33 107
4 7 13 10 9
4 12 13 57 75
4 85 67 53 168
4 44 73 165 55
4 63 152 62 58
4 8 101 47 46
4 96 182 194 144
4 60 281 119 4
4 12 5 6 3
4 173 185 35 72
4 65 149 94 55
4 146 67 49 87
4 114 113 47 154
4 163 108 182 144
4 12 6 13 9
4 173 35 111 156
4 163 182 139 75
4 260 257 6 9
4 105 29 35 156
4 163 139 113 154
4 256 10 257 9
4 146 49 29 156
4 163 113 108 107
4 80 111 49 156
4 102 101 281 4
4 12 57 5 58
4 44 194 104 144
4 96 194 62 98
4 2 0 5 3
4 93 73 185 72
4 179 119 1 4
4 200 77 90 46
4 114 33 113 107
4 7 10 14 11
4 96 62 57 58
4 133 213 0 3
4 102 90 101 46
4 256 255 10 11
4 63 62 249 98
4 114 47 77 46
4 179 1 255 11
4 211 249 165 98
4 114 77 33 168
4 198 79 88 87
4 8 14 1 11
CELL_TYPES 256
8
8
8
8
8
8
8
8
8
8
8
8
8
8
8
8
8
8
8
8
8
8
8
8
8
8
8
8
8
8
8
8
8
8
8
8
8
8
8
8
8
8
8
8
8
8
8
8
8
8
8
8
8
8
8
8
8
8
8
8
8
8
8
8
8
8
8
8
8
8
8
8
8
8
8
8
8
8
8
8
8
8
8
8
8
8
8
8
8
8
8
8
8
8
8
8
8
8
8
8
8
8
8
8
8
8
8
8
8
8
8
8
8
8
8
8
8
8
8
8
8
8
8
8
8
8
8
8
8
8
8
8
8
8
8
8
8
8
8
8
8
8
8
8
8
8
8
8
8
8
8
8
8
8
8
8
8
8
8
8
8
8
8
8
8
8
8
8
8
8
8
8
8
8
8
8
8
8
8
8
8
8
8
8
8
8
8
8
8
8
8
8
8
8
8
8
8
8
8
8
8
8
8
8
8
8
8
8
8
8
8
8
8
8
8
8
8
8
8
8
8
8
8
8
8
8
8
8
8
8
8
8
8
8
8
8
8
8
8
8
8
8
8
8
8
8
8
8
8
8
8
8
8
8
8
8
CELL_DATA 256
VECTORS vector_value float
-0.00167753 -1.28292 0
0.0795457 -0.313966 0
0.364641 -0.733628 0
0.0941105 -0.904836 0
-0.0498246 -1.68346 0
-0.295568 -1.60029 0
-0.885576 -4.8791 0
-0.14966 -1.27813 0
0.238648 -1.14505 0
-0.339899 -0.81923 0
-0.851775 -1.06401 0
0.0481351 -1.12997 0
-0.534883 -4.64339 0
0.107375 -0.521169 0
-0.0237287 -0.695787 0
-1.27853 -4.41453 0
-0.147812 -2.80438 0
0.143745 -0.977631 0
-0.060986 -2.59122 0
0.0325215 -0.998851 0
0.137737 -0.397184 0
-1.42089 -4.33405 0
-2.78775 -2.14703 0
0.0448145 -0.759367 0
0.083541 -0.335024 0
-1.63139 -2.88928 0
-0.374441 -3.67552 0
-0.0261473 -0.977182 0
-0.0675462 -0.698571 0
-0.0911928 -0.505913 0
-2.69313 -2.07906 0
0.00198739 -1.65309 0
-1.5664 -2.62597 0
-0.138468 -1.03621 0
-0.492633 -2.912 0
-0.184671 -1.20747 0
-0.558427 -1.67083 0
-0.0871303 -1.17497 0
-0.0529867 -0.541042 0
-0.602807 -4.29924 0
-0.0664031 -1.66231 0
0.0699456 -0.731601 0
-1.17414 -2.16985 0
-0.0178437 -1.90889 0
0.368679 -0.569118 0
-0.190295 -1.05562 0
-2.89085 -3.17882 0
-0.708082 -2.98389 0
-0.398547 -1.37268 0
-0.161768 -1.05225 0
0.161147 -1.93223 0
-3.83184 -3.33106 0
-0.0942415 -0.989153 0
0.0156581 -1.29802 0
0.0264003 -0.364096 0
-1.18268 -2.47795 0
0.311319 -0.632904 0
0.123764 -1.13249 0
-0.557211 -3.28563 0
0.24452 -1.11647 0
0.167519 -0.784014 0
0.12065 -0.969695 0
-0.926723 -2.00745 0
0.176357 -1.56186 0
-0.228293 -1.04981 0
-0.221797 -0.62935 0
-0.128396 -1.26964 0
0.126766 -1.54903 0
-0.181405 -0.727894 0
-1.01999 -1.16396 0
1.06775 -1.04768 0
-0.273391 -1.26607 0
-0.0976593 -0.662382 0
-0.149432 -1.2987 0
-0.269427 -0.582359 0
-0.496223 -1.13754 0
-0.189605 -0.716088 0
-0.0191892 -0.717108 0
-0.258284 -0.61257 0
0.0540789 -0.292408 0
-0.0669802 -1.79356 0
0.100464 -1.98923 0
-0.0709259 -0.297208 0
-0.33529 -1.39168 0
-0.16312 -2.13762 0
-0.0605614 -1.20443 0
-0.156525 -0.919731 0
-0.0174424 -1.94455 0
-0.138405 -0.226584 0
-0.294313 -1.22283 0
-0.0984969 -0.752293 0
-0.188664 -0.381917 0
-0.0658624 -0.346903 0
-0.236881 -0.989178 0
-0.0257293 -0.235638 0
0.651734 -2.27806 0
0.233348 -0.287793 0
0.052983 -0.572935 0
-0.318142 -1.12561 0
-0.183729 -1.01583 0
0.394361 -0.701051 0
-0.153779 -0.795718 0
-0.124564 -0.229814 0
-0.266716 -1.6956 0
-0.163743 -0.371252 0
-0.154591 -0.963862 0
-0.18806 -0.71969 0
-0.686339 -1.60001 0
0.638491 -2.10306 0
0.0307524 -1.7412 0
0.650886 -0.501085 0
-0.187518 -0.282021 0
-0.313111 -0.899122 0
0.0741245 -0.246471 0
-0.34034 -0.98619 0
0.101385 -0.797406 0
-0.0112667 -0.555373 0
0.112074 -1.3173 0
-0.0225417 -0.709974 0
0.0670042 -1.38989 0
0.109933 -0.920817 0
-0.014934 -0.390841 0
0.118034 -0.324486 0
0.575814 -1.82094 0
-0.0791527 -1.03016 0
0.0421971 -0.569057 0
-0.155246 -0.4294 0
0.803373 -1.87981 0
-0.654468 -0.671897 0
-0.622988 -0.669594 0
0.0206275 -0.561122 0
-0.062964 -0.231489 0
0.0135388 -0.402567 0
-0.0117121 -0.111038 0
-0.0898365 -0.190229 0
0.000485217 -0.0615011 0
-0.213338 -0.3589 0
-0.0408998 -0.249628 0
0.0069881 -0.307404 0
-0.108516 -0.20879 0
-0.0704589 -0.168319 0
0.000259587 -0.311028 0
-3.60635e-05 -0.147558 0
-0.0114071 -0.240028 0
-0.063165 -0.124354 0
-0.00531759 -0.178896 0
0.0222905 -0.345328 0
-0.0602683 -0.116933 0
-0.153206 -0.391649 0
-0.0100499 -0.066376 0
-0.0599619 -0.214149 0
-0.142669 -0.220941 0
-0.00533372 -0.470702 0
-0.0349095 -0.204318 0
-0.0803269 -0.238597 0
-0.0554138 -0.291918 0
-0.0882697 -0.205039 0
-0.0366071 -0.275467 0
-0.0255302 -0.120116 0
-0.106342 -0.112661 0
0.0127897 -0.20864 0
0.0158468 -0.215247 0
-0.0978392 -0.495184 0
0.00146064 -0.0415498 0
-0.119466 -0.373689 0
-0.261044 -0.355642 0
0.0187608 -0.220339 0
0.0240441 -0.212861 0
-0.0129669 -0.245525 0
0.0203049 -0.140808 0
-0.0818049 -0.336216 0
-0.0367154 -0.295219 0
-0.000373844 -0.0327526 0
0.0491749 -0.17535 0
-0.108364 -0.431799 0
-0.219487 -0.360359 0
0.0196548 -0.275211 0
0.0389212 -0.249591 0
-0.00447826 -0.152028 0
-0.119741 -0.48543 0
-0.00431321 -0.0144124 0
-0.0704917 -0.255582 0
0.0132009 -0.0811123 0
-0.2081 -0.227692 0
0.045745 -0.173973 0
-2.68703 -2.90619 0
0.0145898 -0.109997 0
-0.112745 -0.393719 0
-0.0798887 -0.412524 0
-0.0879118 -0.362296 0
-0.0859488 -0.287834 0
-0.0180902 -0.0341284 0
-0.258164 -0.961482 0
0.0460768 -0.320801 0
0.0391681 -0.419273 0
-0.574239 -0.660377 0
0.0900041 -0.154869 0
0.146611 -0.85582 0
-0.403075 -2.2232 0
-0.200104 -0.382153 0
-0.0502083 -0.295322 0
-0.149463 -1.18215 0
-0.372185 -0.405182 0
0.0269412 -0.121693 0
-1.64266 -2.59014 0
-0.301458 -1.24828 0
-0.086209 -1.04018 0
-0.0923311 -0.297273 0
-0.490411 -0.821424 0
-0.0535765 -2.16029 0
0.0674432 -0.281912 0
0.302962 -2.01137 0
-0.531099 -1.26073 0
0.0307587 -0.122111 0
-0.50147 -0.938043 0
-0.663768 -1.30558 0
-1.21804 -1.90572 0
-0.842221 -0.948316 0
-1.88468 -3.44707 0
-0.510029 -0.992885 0
-0.0454338 -0.3707 0
0.0828578 -1.251 0
0.120707 -0.345807 0
-0.315831 -1.33097 0
-0.456601 -0.698996 0
-0.356313 -1.57581 0
-0.0127825 -0.285287 0
-0.68988 -1.52657 0
0.401858 -1.73569 0
-0.0316781 -0.31127 0
-0.194993 -1.21184 0
0.497445 -2.37466 0
0.0850555 -0.268431 0
-0.133359 -0.581296 0
0.0470928 -0.351517 0
-1.80803 -1.96079 0
-0.706577 -1.41374 0
-0.93787 -0.564449 0
-0.387109 -0.868468 0
-0.187291 -0.717238 0
-0.120763 -0.492737 0
-0.955749 -2.19674 0
-0.0499763 -0.318802 0
-0.0813535 -0.347834 0
0.269328 -2.158 0
-0.44369 -0.863188 0
-0.413962 -0.825651 0
-0.652817 -0.868919 0
0.182594 -1.95737 0
-0.554134 -0.791933 0
-0.394652 -0.761152 0
-0.196172 -1.75748 0
-0.198979 -0.592053 0
-0.00770212 -0.22396 0
0.036847 -0.539747 0
-0.32486 -2.3985 0
