# vtk DataFile Version 2.0
Unstructured Grid by M++
ASCII
DATASET UNSTRUCTURED_GRID
POINTS 81 float
  1.000000   0.625000 0
  0.750000   0.375000 0
  1.000000   0.000000 0
  0.875000   0.875000 0
  0.750000   0.125000 0
  1.000000   1.000000 0
  0.875000   0.250000 0
  0.625000   0.875000 0
  1.000000   0.750000 0
  0.875000   0.000000 0
  1.000000   0.250000 0
  0.625000   0.375000 0
  0.875000   0.500000 0
  0.625000   0.625000 0
  1.000000   0.500000 0
  0.750000   0.500000 0
  0.750000   1.000000 0
  1.000000   0.125000 0
  0.625000   0.250000 0
  0.750000   0.750000 0
  0.625000   0.000000 0
  0.125000   0.375000 0
  0.000000   0.500000 0
  0.125000   0.625000 0
  0.625000   1.000000 0
  1.000000   0.875000 0
  0.875000   0.125000 0
  0.500000   0.250000 0
  0.625000   0.500000 0
  0.250000   0.625000 0
  0.000000   0.625000 0
  0.375000   0.500000 0
  0.375000   0.000000 0
  0.000000   0.125000 0
  0.125000   0.875000 0
  0.875000   1.000000 0
  0.750000   0.250000 0
  0.375000   0.375000 0
  0.250000   0.375000 0
  0.625000   0.750000 0
  0.125000   0.125000 0
  0.500000   0.000000 0
  0.250000   0.875000 0
  0.125000   0.500000 0
  0.500000   0.375000 0
  0.125000   0.000000 0
  0.250000   0.750000 0
  0.250000   0.500000 0
  0.000000   0.875000 0
  0.875000   0.625000 0
  0.500000   0.750000 0
  0.750000   0.625000 0
  0.250000   0.000000 0
  0.375000   0.750000 0
  0.750000   0.875000 0
  0.625000   0.125000 0
  0.250000   0.250000 0
  0.375000   1.000000 0
  0.375000   0.250000 0
  0.000000   0.375000 0
  0.500000   1.000000 0
  0.875000   0.750000 0
  0.750000   0.000000 0
  0.375000   0.125000 0
  0.500000   0.875000 0
  0.000000   0.000000 0
  0.125000   0.750000 0
  0.500000   0.625000 0
  0.125000   0.250000 0
  0.500000   0.125000 0
  0.250000   1.000000 0
  0.250000   0.125000 0
  0.000000   1.000000 0
  0.375000   0.875000 0
  0.000000   0.750000 0
  0.375000   0.625000 0
  0.000000   0.250000 0
  0.125000   1.000000 0
  1.000000   0.375000 0
  0.500000   0.500000 0
  0.875000   0.375000 0
CELLS 64 320
4 56 71 58 63
4 27 58 69 63
4 41 69 32 63
4 76 33 68 40
4 27 44 58 37
4 79 31 44 37
4 56 38 68 21
4 56 58 38 37
4 52 32 71 63
4 47 38 31 37
4 76 68 59 21
4 22 59 43 21
4 65 45 33 40
4 47 43 38 21
4 52 71 45 40
4 56 68 71 40
4 74 30 66 23
4 46 66 29 23
4 22 43 30 23
4 72 48 77 34
4 46 53 42 73
4 50 64 53 73
4 70 42 57 73
4 74 66 48 34
4 46 42 66 34
4 47 29 43 23
4 70 77 42 34
4 60 57 64 73
4 79 67 31 75
4 47 31 29 75
4 50 53 67 75
4 46 29 53 75
4 10 78 6 80
4 36 6 1 80
4 15 1 12 80
4 36 4 6 26
4 14 12 78 80
4 2 17 9 26
4 36 18 4 55
4 15 28 1 11
4 62 4 20 55
4 10 6 17 26
4 27 18 44 11
4 62 9 4 26
4 27 69 18 55
4 36 1 18 11
4 41 20 69 55
4 79 44 28 11
4 16 24 54 7
4 19 54 39 7
4 50 39 64 7
4 8 25 61 3
4 60 64 24 7
4 79 28 67 13
4 19 51 61 49
4 8 61 0 49
4 15 51 28 13
4 19 39 51 13
4 50 67 39 13
4 19 61 54 3
4 14 0 12 49
4 5 35 25 3
4 15 12 51 49
4 16 54 35 3
CELL_TYPES 64
8
8
8
8
8
8
8
8
8
8
8
8
8
8
8
8
8
8
8
8
8
8
8
8
8
8
8
8
8
8
8
8
8
8
8
8
8
8
8
8
8
8
8
8
8
8
8
8
8
8
8
8
8
8
8
8
8
8
8
8
8
8
8
8
CELL_DATA 64
VECTORS vector_value float
-0.25421 -0.426979 0
-0.390309 -0.896428 0
-0.0247883 -0.383383 0
-0.0525333 -0.154627 0
-0.0651003 -0.67969 0
0.522141 -1.21144 0
-0.0672414 -0.142598 0
-0.0520031 -0.27079 0
-0.192131 -0.663683 0
-0.0407691 -0.306124 0
-0.00719781 -0.0599355 0
-0.00494551 -0.0592571 0
-0.0197506 -0.211137 0
-0.0250382 -0.0512034 0
-0.128659 -0.234715 0
-0.0544294 -0.0813547 0
0.00456512 -0.0334479 0
0.106704 -0.137954 0
-0.00674135 -0.0397883 0
0.308731 -0.897589 0
1.21349 -1.56636 0
0.463241 -2.5403 0
0.202731 -0.980986 0
0.169013 -0.258847 0
0.777709 -0.511751 0
-0.0105553 -0.0459387 0
0.551572 -1.01893 0
-0.133535 -1.41649 0
1.2133 -3.21821 0
0.187692 -0.544224 0
0.609692 -2.71586 0
0.625484 -1.32209 0
0.215911 -2.31898 0
1.22126 -1.69243 0
0.34351 -0.462647 0
0.633799 -2.1812 0
0.150834 -2.06742 0
-0.0531529 -2.90834 0
0.436606 -0.469811 0
1.31446 -0.962059 0
0.0959968 -0.344325 0
0.197713 -3.1521 0
0.222267 -1.65487 0
-0.0344963 -2.76445 0
0.137584 -0.637495 0
1.49656 -1.18072 0
0.0451039 -0.489974 0
2.17582 -2.87985 0
-0.841086 -0.83304 0
-0.149954 -0.359648 0
-0.266719 -1.43978 0
-0.101426 -0.833694 0
-0.736415 -1.42125 0
0.476058 -1.58505 0
0.438138 -0.43205 0
0.230639 -1.08463 0
0.45487 -0.500035 0
0.55349 -0.414505 0
0.715918 -1.85947 0
-0.0766526 -0.489615 0
0.294594 -1.59516 0
0.0101979 -1.02486 0
0.58899 -0.471605 0
-0.329735 -0.406846 0
