# vtk DataFile Version 2.0
Unstructured Grid by M++
ASCII
DATASET UNSTRUCTURED_GRID
POINTS 81 float
  1.000000   0.625000 0
  0.750000   0.375000 0
  1.000000   0.000000 0
  0.875000   0.875000 0
  0.750000   0.125000 0
  1.000000   1.000000 0
  0.875000   0.250000 0
  0.625000   0.875000 0
  1.000000   0.750000 0
  0.875000   0.000000 0
  1.000000   0.250000 0
  0.625000   0.375000 0
  0.875000   0.500000 0
  0.625000   0.625000 0
  1.000000   0.500000 0
  0.750000   0.500000 0
  0.750000   1.000000 0
  1.000000   0.125000 0
  0.625000   0.250000 0
  0.750000   0.750000 0
  0.625000   0.000000 0
  0.125000   0.375000 0
  0.000000   0.500000 0
  0.125000   0.625000 0
  0.625000   1.000000 0
  1.000000   0.875000 0
  0.875000   0.125000 0
  0.500000   0.250000 0
  0.625000   0.500000 0
  0.250000   0.625000 0
  0.000000   0.625000 0
  0.375000   0.500000 0
  0.375000   0.000000 0
  0.000000   0.125000 0
  0.125000   0.875000 0
  0.875000   1.000000 0
  0.750000   0.250000 0
  0.375000   0.375000 0
  0.250000   0.375000 0
  0.625000   0.750000 0
  0.125000   0.125000 0
  0.500000   0.000000 0
  0.250000   0.875000 0
  0.125000   0.500000 0
  0.500000   0.375000 0
  0.125000   0.000000 0
  0.250000   0.750000 0
  0.250000   0.500000 0
  0.000000   0.875000 0
  0.875000   0.625000 0
  0.500000   0.750000 0
  0.750000   0.625000 0
  0.250000   0.000000 0
  0.375000   0.750000 0
  0.750000   0.875000 0
  0.625000   0.125000 0
  0.250000   0.250000 0
  0.375000   1.000000 0
  0.375000   0.250000 0
  0.000000   0.375000 0
  0.500000   1.000000 0
  0.875000   0.750000 0
  0.750000   0.000000 0
  0.375000   0.125000 0
  0.500000   0.875000 0
  0.000000   0.000000 0
  0.125000   0.750000 0
  0.500000   0.625000 0
  0.125000   0.250000 0
  0.500000   0.125000 0
  0.250000   1.000000 0
  0.250000   0.125000 0
  0.000000   1.000000 0
  0.375000   0.875000 0
  0.000000   0.750000 0
  0.375000   0.625000 0
  0.000000   0.250000 0
  0.125000   1.000000 0
  1.000000   0.375000 0
  0.500000   0.500000 0
  0.875000   0.375000 0
CELLS 64 320
4 56 71 58 63
4 27 58 69 63
4 41 69 32 63
4 76 33 68 40
4 27 44 58 37
4 79 31 44 37
4 56 38 68 21
4 56 58 38 37
4 52 32 71 63
4 47 38 31 37
4 76 68 59 21
4 22 59 43 21
4 65 45 33 40
4 47 43 38 21
4 52 71 45 40
4 56 68 71 40
4 74 30 66 23
4 46 66 29 23
4 22 43 30 23
4 72 48 77 34
4 46 53 42 73
4 50 64 53 73
4 70 42 57 73
4 74 66 48 34
4 46 42 66 34
4 47 29 43 23
4 70 77 42 34
4 60 57 64 73
4 79 67 31 75
4 47 31 29 75
4 50 53 67 75
4 46 29 53 75
4 10 78 6 80
4 36 6 1 80
4 15 1 12 80
4 36 4 6 26
4 14 12 78 80
4 2 17 9 26
4 36 18 4 55
4 15 28 1 11
4 62 4 20 55
4 10 6 17 26
4 27 18 44 11
4 62 9 4 26
4 27 69 18 55
4 36 1 18 11
4 41 20 69 55
4 79 44 28 11
4 16 24 54 7
4 19 54 39 7
4 50 39 64 7
4 8 25 61 3
4 60 64 24 7
4 79 28 67 13
4 19 51 61 49
4 8 61 0 49
4 15 51 28 13
4 19 39 51 13
4 50 67 39 13
4 19 61 54 3
4 14 0 12 49
4 5 35 25 3
4 15 12 51 49
4 16 54 35 3
CELL_TYPES 64
8
8
8
8
8
8
8
8
8
8
8
8
8
8
8
8
8
8
8
8
8
8
8
8
8
8
8
8
8
8
8
8
8
8
8
8
8
8
8
8
8
8
8
8
8
8
8
8
8
8
8
8
8
8
8
8
8
8
8
8
8
8
8
8
CELL_DATA 64
VECTORS vector_value float
-1.08802 -2.78029 0
-0.491756 -1.11117 0
-0.014161 -0.899878 0
-0.395577 -0.657199 0
-0.665828 -1.6262 0
-0.280683 -1.48331 0
-0.130215 -1.05928 0
-0.349622 -2.45669 0
-0.0432185 -2.28908 0
-0.0904998 -2.15523 0
-0.0261261 -0.281843 0
0.0156955 -0.299538 0
-0.162912 -1.39806 0
0.0934417 -1.01686 0
-0.118366 -1.38182 0
-1.06891 -1.3583 0
0.0907467 -0.804251 0
0.0938672 -1.27514 0
0.128786 -0.402153 0
0.135533 -0.832778 0
0.21434 -1.03149 0
-0.372439 -1.27675 0
-0.456822 -0.803151 0
-0.0123302 -0.72176 0
0.0828602 -1.63045 0
0.5192 -1.74308 0
-0.0805792 -1.68252 0
-0.187551 -0.465685 0
-0.518691 -1.86557 0
0.0209498 -0.419949 0
0.509843 -1.72039 0
0.361259 -0.811943 0
-0.146232 -0.387679 0
-0.280268 -0.80619 0
-0.00234532 -0.451319 0
0.118912 -1.18437 0
-0.176916 -0.882659 0
0.00626554 -0.227932 0
0.0976741 -0.63285 0
0.0495796 -0.710277 0
0.0113889 -0.41692 0
-7.99231e-05 -0.195441 0
-0.392883 -0.42844 0
0.0288208 -1.34899 0
-0.073406 -0.0803704 0
-0.0158304 -0.953676 0
-0.00303926 -0.037313 0
-0.0870862 -1.00081 0
-0.175984 -0.353225 0
-0.0403178 -0.581219 0
-0.0742178 -0.725282 0
-0.0407901 -0.152777 0
-0.466678 -1.69126 0
-0.252553 -1.66924 0
-0.119491 -1.32179 0
0.0135573 -0.136957 0
-0.0484103 -0.743736 0
-0.59082 -0.864786 0
-0.138145 -1.06475 0
-0.298142 -1.88028 0
0.349762 -0.70818 0
-0.390558 -0.627363 0
0.189395 -0.448093 0
-0.229651 -1.54402 0
