# vtk DataFile Version 2.0
Unstructured Grid by M++
ASCII
DATASET UNSTRUCTURED_GRID
POINTS 289 float
  0.562500   1.000000 0
  0.562500   0.625000 0
  0.625000   1.000000 0
  0.562500   0.937500 0
  0.562500   0.562500 0
  0.625000   0.937500 0
  0.562500   0.875000 0
  0.625000   0.750000 0
  0.625000   0.625000 0
  0.562500   0.812500 0
  0.562500   0.750000 0
  0.562500   0.687500 0
  0.625000   0.875000 0
  0.625000   0.812500 0
  0.625000   0.687500 0
  0.687500   0.125000 0
  0.875000   0.062500 0
  0.625000   0.125000 0
  0.625000   0.187500 0
  0.625000   0.250000 0
  0.812500   0.187500 0
  1.000000   0.125000 0
  0.687500   0.187500 0
  0.750000   0.125000 0
  0.937500   0.062500 0
  0.937500   0.125000 0
  0.750000   0.187500 0
  0.812500   0.062500 0
  0.812500   0.125000 0
  0.875000   0.687500 0
  0.187500   0.250000 0
  0.437500   0.250000 0
  0.375000   0.187500 0
  0.812500   0.625000 0
  0.125000   0.187500 0
  0.937500   0.750000 0
  0.250000   0.312500 0
  0.500000   0.312500 0
  0.625000   0.062500 0
  0.437500   0.500000 0
  0.375000   0.125000 0
  0.437500   0.187500 0
  0.437500   0.437500 0
  0.437500   0.375000 0
  0.875000   0.875000 0
  0.187500   0.375000 0
  0.687500   0.562500 0
  0.687500   0.625000 0
  0.000000   0.125000 0
  0.937500   0.625000 0
  0.250000   0.125000 0
  0.375000   0.062500 0
  0.375000   0.000000 0
  0.812500   0.500000 0
  0.125000   0.000000 0
  0.937500   0.937500 0
  0.250000   0.437500 0
  0.687500   0.875000 0
  0.687500   0.937500 0
  0.000000   0.437500 0
  0.500000   0.500000 0
  0.500000   0.437500 0
  0.750000   0.937500 0
  0.750000   1.000000 0
  0.062500   0.500000 0
  1.000000   1.000000 0
  0.312500   0.500000 0
  0.875000   0.562500 0
  0.187500   0.062500 0
  0.437500   0.125000 0
  0.437500   0.062500 0
  0.500000   0.375000 0
  0.937500   0.812500 0
  0.937500   0.875000 0
  0.250000   0.375000 0
  0.687500   0.812500 0
  0.000000   0.375000 0
  0.750000   0.562500 0
  0.062500   0.125000 0
  1.000000   0.562500 0
  1.000000   0.625000 0
  0.312500   0.125000 0
  0.562500   0.125000 0
  0.437500   0.000000 0
  0.875000   0.437500 0
  0.875000   0.500000 0
  0.187500   0.000000 0
  0.937500   0.562500 0
  0.937500   0.500000 0
  0.250000   0.062500 0
  0.687500   0.500000 0
  0.000000   0.062500 0
  0.500000   0.062500 0
  1.000000   0.875000 0
  1.000000   0.937500 0
  0.312500   0.437500 0
  0.750000   0.875000 0
  0.062500   0.437500 0
  0.812500   0.937500 0
  0.125000   0.500000 0
  0.375000   0.500000 0
  0.625000   0.562500 0
  0.625000   0.500000 0
  0.437500   0.312500 0
  0.875000   0.812500 0
  0.875000   0.750000 0
  0.187500   0.312500 0
  0.812500   0.687500 0
  0.812500   0.750000 0
  0.125000   0.250000 0
  0.375000   0.250000 0
  1.000000   0.687500 0
  0.312500   0.187500 0
  0.750000   0.687500 0
  0.750000   0.625000 0
  0.062500   0.187500 0
  0.562500   0.250000 0
  0.562500   0.187500 0
  0.375000   1.000000 0
  0.500000   0.562500 0
  0.500000   0.250000 0
  0.750000   0.250000 0
  0.500000   0.125000 0
  0.500000   0.187500 0
  1.000000   0.187500 0
  0.625000   0.375000 0
  0.875000   0.375000 0
  1.000000   0.437500 0
  0.312500   0.000000 0
  0.562500   0.000000 0
  0.812500   0.000000 0
  0.250000   0.687500 0
  0.000000   0.687500 0
  0.500000   1.000000 0
  0.250000   1.000000 0
  0.000000   1.000000 0
  0.437500   0.687500 0
  0.437500   0.625000 0
  0.187500   0.625000 0
  0.687500   0.750000 0
  0.000000   0.312500 0
  0.000000   0.250000 0
  0.375000   0.375000 0
  0.375000   0.312500 0
  0.812500   0.812500 0
  0.125000   0.312500 0
  0.875000   0.625000 0
  0.187500   0.187500 0
  0.187500   0.125000 0
  0.937500   1.000000 0
  0.250000   0.562500 0
  0.250000   0.500000 0
  0.687500   1.000000 0
  0.000000   0.500000 0
  0.687500   0.687500 0
  0.000000   0.187500 0
  0.937500   0.687500 0
  0.250000   0.250000 0
  0.250000   0.187500 0
  0.187500   0.687500 0
  0.000000   0.750000 0
  0.250000   0.750000 0
  0.125000   0.625000 0
  0.750000   0.750000 0
  0.062500   0.250000 0
  0.875000   0.937500 0
  0.187500   0.500000 0
  0.187500   0.437500 0
  0.812500   0.562500 0
  0.125000   0.125000 0
  0.125000   0.062500 0
  0.375000   0.625000 0
  0.375000   0.687500 0
  1.000000   0.750000 0
  0.312500   0.250000 0
  0.312500   0.312500 0
  0.812500   0.312500 0
  0.562500   0.312500 0
  0.375000   0.750000 0
  0.500000   0.625000 0
  0.250000   0.625000 0
  0.312500   0.687500 0
  0.750000   0.812500 0
  0.062500   0.312500 0
  0.062500   0.375000 0
  1.000000   0.812500 0
  0.312500   0.375000 0
  0.562500   0.375000 0
  0.687500   0.437500 0
  0.000000   0.000000 0
  0.500000   0.000000 0
  0.937500   0.437500 0
  0.250000   0.000000 0
  0.375000   0.437500 0
  0.812500   0.875000 0
  0.125000   0.375000 0
  0.125000   0.437500 0
  0.625000   0.437500 0
  1.000000   0.500000 0
  0.312500   0.062500 0
  0.750000   0.500000 0
  0.062500   0.000000 0
  0.062500   0.062500 0
  0.562500   0.062500 0
  0.062500   0.750000 0
  0.312500   0.750000 0
  0.312500   0.625000 0
  0.312500   0.562500 0
  0.062500   0.562500 0
  0.187500   1.000000 0
  0.437500   0.562500 0
  0.875000   1.000000 0
  0.187500   0.562500 0
  0.500000   0.937500 0
  0.250000   0.937500 0
  0.312500   1.000000 0
  0.125000   0.750000 0
  0.125000   0.687500 0
  1.000000   0.000000 0
  0.000000   0.937500 0
  0.000000   0.875000 0
  0.875000   0.125000 0
  0.875000   0.187500 0
  0.062500   0.812500 0
  0.312500   0.812500 0
  0.000000   0.812500 0
  0.000000   0.625000 0
  0.000000   0.562500 0
  0.062500   1.000000 0
  0.062500   0.937500 0
  0.937500   0.187500 0
  0.937500   0.250000 0
  0.062500   0.687500 0
  0.062500   0.625000 0
  0.125000   1.000000 0
  1.000000   0.250000 0
  1.000000   0.312500 0
  0.062500   0.875000 0
  0.125000   0.812500 0
  0.375000   0.812500 0
  0.125000   0.875000 0
  0.375000   0.937500 0
  0.375000   0.875000 0
  0.187500   0.750000 0
  0.187500   0.812500 0
  0.437500   0.812500 0
  0.187500   0.875000 0
  0.437500   0.875000 0
  0.375000   0.562500 0
  0.812500   1.000000 0
  0.125000   0.562500 0
  0.437500   1.000000 0
  0.437500   0.937500 0
  0.187500   0.937500 0
  0.125000   0.937500 0
  0.500000   0.687500 0
  0.500000   0.750000 0
  0.500000   0.812500 0
  0.250000   0.812500 0
  0.250000   0.875000 0
  0.500000   0.875000 0
  0.437500   0.750000 0
  0.312500   0.875000 0
  0.312500   0.937500 0
  0.687500   0.250000 0
  0.687500   0.312500 0
  0.937500   0.312500 0
  0.875000   0.250000 0
  0.625000   0.000000 0
  0.875000   0.000000 0
  0.687500   0.375000 0
  0.937500   0.375000 0
  0.875000   0.312500 0
  0.625000   0.312500 0
  0.687500   0.000000 0
  0.937500   0.000000 0
  0.750000   0.312500 0
  0.750000   0.375000 0
  1.000000   0.375000 0
  0.812500   0.250000 0
  0.562500   0.437500 0
  0.562500   0.500000 0
  0.687500   0.062500 0
  0.750000   0.437500 0
  0.750000   0.000000 0
  0.750000   0.062500 0
  1.000000   0.062500 0
  0.812500   0.375000 0
  0.812500   0.437500 0
CELLS 256 1280
4 169 170 148 68
4 151 166 56 167
4 195 45 196 167
4 54 170 201 202
4 109 34 30 147
4 40 32 81 112
4 192 89 86 68
4 48 91 78 202
4 99 64 196 97
4 71 43 37 103
4 74 186 56 95
4 109 164 34 115
4 50 81 158 112
4 122 69 92 70
4 195 145 45 106
4 110 143 174 175
4 157 30 158 147
4 40 69 32 41
4 50 158 148 147
4 141 155 164 115
4 122 123 69 41
4 142 186 143 175
4 60 39 61 42
4 40 51 69 70
4 120 31 123 41
4 157 174 36 175
4 50 148 89 68
4 48 78 155 115
4 52 83 51 70
4 151 56 66 95
4 71 61 43 42
4 169 148 34 147
4 100 193 39 42
4 40 81 51 199
4 110 174 32 112
4 109 30 145 106
4 100 66 193 95
4 169 34 78 115
4 190 92 83 70
4 50 89 81 199
4 54 86 170 68
4 74 56 45 167
4 142 143 43 103
4 153 59 64 97
4 99 196 166 167
4 169 78 170 202
4 142 193 186 95
4 192 128 89 199
4 74 45 36 106
4 110 31 143 103
4 76 184 59 97
4 142 43 193 42
4 52 51 128 199
4 189 201 91 202
4 120 37 31 103
4 74 36 186 175
4 195 196 184 97
4 141 164 140 183
4 157 158 174 112
4 109 145 164 183
4 195 184 145 183
4 110 32 31 41
4 157 36 30 106
4 76 140 184 183
4 171 172 206 181
4 178 172 261 136
4 256 261 255 136
4 256 257 261 245
4 180 150 206 207
4 60 119 39 210
4 118 215 241 263
4 178 205 172 181
4 216 243 238 244
4 162 217 233 232
4 180 206 131 181
4 179 137 119 210
4 216 204 217 232
4 220 237 219 229
4 216 217 243 159
4 259 258 262 224
4 240 254 237 229
4 153 64 227 208
4 161 205 258 224
4 240 237 238 223
4 226 227 233 208
4 234 228 254 229
4 171 248 137 210
4 160 132 204 232
4 180 131 138 159
4 133 251 213 252
4 171 206 248 207
4 162 138 217 159
4 161 258 243 244
4 220 225 237 223
4 151 150 166 212
4 260 247 257 245
4 259 262 214 263
4 151 66 150 207
4 234 254 209 253
4 162 233 250 208
4 242 241 262 263
4 171 137 172 136
4 161 243 131 159
4 160 204 225 223
4 161 131 205 181
4 179 255 137 136
4 216 238 204 223
4 100 39 248 210
4 260 213 247 252
4 226 233 132 232
4 134 214 215 263
4 180 138 150 212
4 178 261 239 245
4 259 246 258 244
4 178 239 205 224
4 240 238 246 244
4 242 262 239 224
4 99 250 64 208
4 240 246 254 253
4 242 239 247 245
4 135 219 228 229
4 99 166 250 212
4 259 214 246 253
4 118 241 251 252
4 100 248 66 207
4 134 209 214 253
4 162 250 138 212
4 242 247 241 252
4 71 187 61 280
4 102 281 197 280
4 122 92 82 203
4 17 18 82 117
4 122 82 123 117
4 19 264 273 265
4 267 279 222 20
4 125 273 270 265
4 267 272 279 176
4 19 116 18 117
4 21 25 286 24
4 23 28 26 20
4 23 285 28 27
4 218 286 275 24
4 85 53 84 288
4 235 236 231 266
4 221 222 28 20
4 267 222 231 230
4 268 38 129 203
4 125 270 197 188
4 126 287 272 176
4 277 270 276 265
4 267 231 272 266
4 125 197 187 280
4 190 129 92 203
4 277 276 287 176
4 19 18 264 22
4 17 82 38 203
4 102 197 90 188
4 126 84 287 288
4 284 130 285 27
4 121 276 264 265
4 71 37 187 177
4 120 123 116 117
4 198 88 127 191
4 221 16 25 24
4 23 26 15 22
4 121 279 276 176
4 235 231 124 230
4 125 187 273 177
4 278 271 236 266
4 277 287 283 288
4 284 285 274 282
4 278 127 271 191
4 269 275 16 24
4 200 283 53 288
4 23 15 285 282
4 121 26 279 20
4 21 124 25 230
4 19 273 116 177
4 200 90 283 188
4 126 271 84 191
4 269 16 130 27
4 17 38 15 282
4 221 25 222 230
4 121 264 26 22
4 120 116 37 177
4 60 61 281 280
4 277 283 270 188
4 126 272 271 266
4 268 274 38 282
4 85 84 88 191
4 17 15 18 22
4 221 28 16 27
4 93 94 73 55
4 85 88 67 87
4 80 49 79 87
4 44 104 73 72
4 146 33 67 168
4 211 165 149 55
4 8 47 14 154
4 105 104 108 144
4 105 108 29 107
4 7 139 13 75
4 44 165 194 98
4 200 53 77 168
4 8 1 101 4
4 2 5 152 58
4 260 6 213 3
4 105 35 104 72
4 96 57 182 75
4 7 14 139 154
4 146 29 33 107
4 7 13 10 9
4 12 13 57 75
4 85 67 53 168
4 44 73 165 55
4 63 152 62 58
4 8 101 47 46
4 96 182 194 144
4 60 281 119 4
4 12 5 6 3
4 173 185 35 72
4 65 149 94 55
4 146 67 49 87
4 114 113 47 154
4 163 108 182 144
4 12 6 13 9
4 173 35 111 156
4 163 182 139 75
4 260 257 6 9
4 105 29 35 156
4 163 139 113 154
4 256 10 257 9
4 146 49 29 156
4 163 113 108 107
4 80 111 49 156
4 102 101 281 4
4 12 57 5 58
4 44 194 104 144
4 96 194 62 98
4 2 0 5 3
4 93 73 185 72
4 179 119 1 4
4 200 77 90 46
4 114 33 113 107
4 7 10 14 11
4 96 62 57 58
4 133 213 0 3
4 102 90 101 46
4 256 255 10 11
4 63 62 249 98
4 114 47 77 46
4 179 1 255 11
4 211 249 165 98
4 114 77 33 168
4 198 79 88 87
4 8 14 1 11
CELL_TYPES 256
8
8
8
8
8
8
8
8
8
8
8
8
8
8
8
8
8
8
8
8
8
8
8
8
8
8
8
8
8
8
8
8
8
8
8
8
8
8
8
8
8
8
8
8
8
8
8
8
8
8
8
8
8
8
8
8
8
8
8
8
8
8
8
8
8
8
8
8
8
8
8
8
8
8
8
8
8
8
8
8
8
8
8
8
8
8
8
8
8
8
8
8
8
8
8
8
8
8
8
8
8
8
8
8
8
8
8
8
8
8
8
8
8
8
8
8
8
8
8
8
8
8
8
8
8
8
8
8
8
8
8
8
8
8
8
8
8
8
8
8
8
8
8
8
8
8
8
8
8
8
8
8
8
8
8
8
8
8
8
8
8
8
8
8
8
8
8
8
8
8
8
8
8
8
8
8
8
8
8
8
8
8
8
8
8
8
8
8
8
8
8
8
8
8
8
8
8
8
8
8
8
8
8
8
8
8
8
8
8
8
8
8
8
8
8
8
8
8
8
8
8
8
8
8
8
8
8
8
8
8
8
8
8
8
8
8
8
8
8
8
8
8
8
8
8
8
8
8
8
8
8
8
8
8
8
8
CELL_DATA 256
VECTORS vector_value float
-0.0113104 -0.393826 0
-0.55259 -1.47387 0
-0.262773 -0.880741 0
-0.0166752 -0.316624 0
0.0484385 -0.382615 0
0.0349226 -1.10111 0
-0.0278185 -0.368518 0
-0.0097609 -0.0813567 0
-0.363113 -0.440694 0
0.0484518 -0.247295 0
0.25479 -0.682326 0
0.0448969 -0.325932 0
0.137994 -0.741512 0
0.0368898 -0.209815 0
0.6031 -0.88635 0
0.53725 -0.885685 0
0.186833 -0.508319 0
-0.0860953 -0.915126 0
0.0304086 -0.322788 0
0.0120919 -0.0794172 0
0.055295 -0.273093 0
0.542731 -0.62636 0
0.0188147 -0.237754 0
0.0162223 -0.607712 0
0.144693 -0.430741 0
0.657837 -0.718073 0
-0.0255131 -0.36806 0
-0.000826833 -0.0586451 0
0.103617 -0.552616 0
-0.0591779 -0.981904 0
-0.0167136 -0.229467 0
0.0193198 -0.411857 0
0.0377606 -0.176122 0
0.0191398 -1.65248 0
0.177962 -1.02966 0
0.347549 -0.694676 0
0.0968274 -0.276142 0
0.00720365 -0.298216 0
0.0744641 -0.409581 0
0.0410605 -0.453601 0
-0.0327578 -0.393231 0
0.035273 -0.820724 0
0.258438 -0.609639 0
-0.107984 -0.563247 0
-0.380731 -0.36675 0
-0.0148899 -0.273324 0
0.209113 -0.384744 0
-0.0213023 -0.425469 0
0.682394 -0.646222 0
0.335702 -0.78321 0
0.0607171 -0.636829 0
0.0663792 -0.322854 0
0.0273458 -1.51357 0
0.00157419 -0.0808317 0
0.215539 -0.383976 0
0.647364 -0.60926 0
0.0855418 -0.568389 0
0.0975736 -0.235786 0
0.212929 -0.678619 0
0.154148 -0.259027 0
0.362413 -0.484124 0
0.120037 -0.850184 0
0.532425 -0.508182 0
0.107464 -0.431504 0
0.228586 -1.1731 0
0.5929 -0.925894 0
0.438314 -0.209602 0
0.418676 -0.233403 0
-0.413479 -1.76489 0
0.129894 -0.288892 0
-0.0326232 -0.946419 0
0.27952 -1.14846 0
0.337396 -0.398722 0
0.0190549 -0.113312 0
0.169293 -1.90176 0
0.465157 -0.365148 0
0.0677676 -0.198217 0
0.104025 -0.802695 0
0.224593 -0.205872 0
0.595359 -1.52233 0
0.223453 -0.661919 0
-0.00799778 -0.395023 0
0.366748 -1.29767 0
0.28484 -0.618779 0
0.00978541 -0.387924 0
0.268402 -0.866384 0
0.269037 -0.40756 0
0.0103579 -0.40426 0
0.0746173 -0.619736 0
0.578805 -0.682036 0
-0.204559 -0.891529 0
0.0472368 -0.127713 0
0.320004 -0.94733 0
0.0704604 -0.576736 0
-0.629956 -1.29109 0
0.26867 -0.196226 0
0.456207 -1.39619 0
-0.573951 -1.59492 0
0.530622 -0.682681 0
0.0104791 -0.126905 0
0.37321 -1.44593 0
0.370363 -0.699902 0
0.533634 -0.938356 0
0.0481069 -0.488124 0
0.312326 -1.75776 0
0.487668 -0.346626 0
0.17279 -0.337236 0
0.0564606 -0.186109 0
0.292145 -0.251771 0
7.9036e-05 -0.415044 0
0.340513 -1.23251 0
-0.236225 -0.909098 0
0.405211 -0.628957 0
0.555305 -0.977671 0
0.535948 -1.8934 0
0.408835 -0.476399 0
0.396519 -1.53684 0
-0.0482346 -0.16768 0
0.37191 -0.749118 0
0.332458 -0.664962 0
0.0641797 -1.00221 0
-0.348191 -0.354967 0
0.375673 -1.00113 0
0.0850445 -0.78187 0
-0.0587914 -0.343044 0
0.665955 -1.35171 0
-0.00276724 -0.110291 0
0.179187 -0.566136 0
-0.000417026 -0.15106 0
0.126914 -0.138578 0
0.0349656 -0.13127 0
0.190059 -0.173142 0
0.123304 -0.139537 0
0.0229553 -0.255715 0
-1.26829 -3.30537 0
-0.000808291 -0.240996 0
-0.331389 -3.29465 0
0.137581 -0.129648 0
-0.147691 -0.738153 0
-0.782003 -4.05471 0
0.253687 -4.67544 0
-0.0423095 -0.592963 0
1.09278 -3.03882 0
-0.223018 -1.76555 0
-0.883497 -2.82852 0
-0.764873 -2.35263 0
0.00746678 -0.0760912 0
-0.00962728 -0.127073 0
0.882407 -2.48105 0
-0.0797488 -1.11832 0
-0.523334 -2.7646 0
0.0245442 -0.0903247 0
-0.0103036 -0.105923 0
0.271532 -2.76337 0
0.0495126 -0.430443 0
0.063829 -0.118007 0
0.14881 -0.103141 0
1.42001 -2.35058 0
0.364497 -4.72639 0
-0.156407 -1.52464 0
0.0298626 -0.11505 0
0.203283 -0.178893 0
0.0743649 -0.249573 0
-0.269708 -1.55247 0
0.0733324 -1.79012 0
-0.117877 -1.69084 0
-0.0593229 -1.25693 0
0.0281257 -0.081736 0
0.337723 -1.73276 0
1.16266 -4.35027 0
0.181534 -1.36921 0
0.410241 -0.898553 0
-0.0688577 -1.59983 0
0.712539 -4.16305 0
0.321476 -1.7358 0
-0.60344 -2.52641 0
-0.159356 -1.25819 0
0.0769299 -0.111362 0
0.574005 -2.42113 0
1.17452 -2.18502 0
0.175977 -3.13703 0
0.151547 -0.457738 0
-0.272393 -1.15072 0
-0.0423215 -1.53418 0
0.106437 -0.124029 0
0.0578568 -0.193821 0
0.102937 -1.32104 0
0.793908 -2.92596 0
0.0402852 -0.33213 0
0.649388 -1.17541 0
0.181937 -0.48271 0
-0.0175922 -2.55095 0
-0.0654422 -0.164347 0
0.0540801 -0.81529 0
-0.0742808 -0.252998 0
0.183509 -0.407772 0
-1.10318 -4.08733 0
-0.926587 -0.736255 0
0.131526 -0.0889213 0
1.15159 -3.69677 0
0.882265 -4.63479 0
0.539601 -0.118609 0
0.127844 -2.5818 0
-0.74756 -4.47074 0
0.367758 -0.164719 0
1.0407 -1.15904 0
0.664028 -0.320692 0
0.554704 -1.06862 0
1.7979 -1.19111 0
0.253966 -0.0832055 0
-0.655671 -4.07479 0
0.527581 0.0473133 0
1.22204 -0.598169 0
-0.385256 -3.48568 0
-0.270194 -0.365845 0
0.960719 -0.836096 0
0.316356 -0.233135 0
1.44311 -3.31313 0
0.190154 -0.248473 0
0.987898 -0.517156 0
0.0873667 -0.26424 0
-0.364662 -0.512259 0
-0.601254 -1.53119 0
0.0693385 -0.548054 0
1.62294 -3.88322 0
0.517537 -0.142953 0
0.0889847 -0.575268 0
0.807019 -0.726293 0
0.253045 -0.104785 0
0.569086 -1.84875 0
0.243243 -0.565455 0
0.458179 -0.0647162 0
-0.400599 -2.26127 0
0.290398 -2.44029 0
-0.104636 -0.432394 0
0.187643 -0.141526 0
1.70644 -1.34062 0
0.871039 -3.539 0
1.02281 -2.65161 0
1.48036 -1.15238 0
0.0108286 -0.133141 0
0.451695 -0.198391 0
-0.105352 -1.83166 0
-0.398086 -2.96258 0
0.267896 -0.00343861 0
1.61052 -1.18305 0
1.06262 -0.565208 0
0.302958 -0.228091 0
0.454528 -0.0603804 0
0.443486 -2.09043 0
-0.0871254 -1.01527 0
0.305642 -0.107867 0
-0.668416 -1.40253 0
-0.684929 -3.55363 0
0.0206394 -0.156814 0
0.304711 -0.126935 0
