# vtk DataFile Version 2.0
Unstructured Grid by M++
ASCII
DATASET UNSTRUCTURED_GRID
POINTS 81 float
  1.000000   0.625000 0
  0.750000   0.375000 0
  1.000000   0.000000 0
  0.875000   0.875000 0
  0.750000   0.125000 0
  1.000000   1.000000 0
  0.875000   0.250000 0
  0.625000   0.875000 0
  1.000000   0.750000 0
  0.875000   0.000000 0
  1.000000   0.250000 0
  0.625000   0.375000 0
  0.875000   0.500000 0
  0.625000   0.625000 0
  1.000000   0.500000 0
  0.750000   0.500000 0
  0.750000   1.000000 0
  1.000000   0.125000 0
  0.625000   0.250000 0
  0.750000   0.750000 0
  0.625000   0.000000 0
  0.125000   0.375000 0
  0.000000   0.500000 0
  0.125000   0.625000 0
  0.625000   1.000000 0
  1.000000   0.875000 0
  0.875000   0.125000 0
  0.500000   0.250000 0
  0.625000   0.500000 0
  0.250000   0.625000 0
  0.000000   0.625000 0
  0.375000   0.500000 0
  0.375000   0.000000 0
  0.000000   0.125000 0
  0.125000   0.875000 0
  0.875000   1.000000 0
  0.750000   0.250000 0
  0.375000   0.375000 0
  0.250000   0.375000 0
  0.625000   0.750000 0
  0.125000   0.125000 0
  0.500000   0.000000 0
  0.250000   0.875000 0
  0.125000   0.500000 0
  0.500000   0.375000 0
  0.125000   0.000000 0
  0.250000   0.750000 0
  0.250000   0.500000 0
  0.000000   0.875000 0
  0.875000   0.625000 0
  0.500000   0.750000 0
  0.750000   0.625000 0
  0.250000   0.000000 0
  0.375000   0.750000 0
  0.750000   0.875000 0
  0.625000   0.125000 0
  0.250000   0.250000 0
  0.375000   1.000000 0
  0.375000   0.250000 0
  0.000000   0.375000 0
  0.500000   1.000000 0
  0.875000   0.750000 0
  0.750000   0.000000 0
  0.375000   0.125000 0
  0.500000   0.875000 0
  0.000000   0.000000 0
  0.125000   0.750000 0
  0.500000   0.625000 0
  0.125000   0.250000 0
  0.500000   0.125000 0
  0.250000   1.000000 0
  0.250000   0.125000 0
  0.000000   1.000000 0
  0.375000   0.875000 0
  0.000000   0.750000 0
  0.375000   0.625000 0
  0.000000   0.250000 0
  0.125000   1.000000 0
  1.000000   0.375000 0
  0.500000   0.500000 0
  0.875000   0.375000 0
CELLS 64 320
4 56 71 58 63
4 27 58 69 63
4 41 69 32 63
4 76 33 68 40
4 27 44 58 37
4 79 31 44 37
4 56 38 68 21
4 56 58 38 37
4 52 32 71 63
4 47 38 31 37
4 76 68 59 21
4 22 59 43 21
4 65 45 33 40
4 47 43 38 21
4 52 71 45 40
4 56 68 71 40
4 74 30 66 23
4 46 66 29 23
4 22 43 30 23
4 72 48 77 34
4 46 53 42 73
4 50 64 53 73
4 70 42 57 73
4 74 66 48 34
4 46 42 66 34
4 47 29 43 23
4 70 77 42 34
4 60 57 64 73
4 79 67 31 75
4 47 31 29 75
4 50 53 67 75
4 46 29 53 75
4 10 78 6 80
4 36 6 1 80
4 15 1 12 80
4 36 4 6 26
4 14 12 78 80
4 2 17 9 26
4 36 18 4 55
4 15 28 1 11
4 62 4 20 55
4 10 6 17 26
4 27 18 44 11
4 62 9 4 26
4 27 69 18 55
4 36 1 18 11
4 41 20 69 55
4 79 44 28 11
4 16 24 54 7
4 19 54 39 7
4 50 39 64 7
4 8 25 61 3
4 60 64 24 7
4 79 28 67 13
4 19 51 61 49
4 8 61 0 49
4 15 51 28 13
4 19 39 51 13
4 50 67 39 13
4 19 61 54 3
4 14 0 12 49
4 5 35 25 3
4 15 12 51 49
4 16 54 35 3
CELL_TYPES 64
8
8
8
8
8
8
8
8
8
8
8
8
8
8
8
8
8
8
8
8
8
8
8
8
8
8
8
8
8
8
8
8
8
8
8
8
8
8
8
8
8
8
8
8
8
8
8
8
8
8
8
8
8
8
8
8
8
8
8
8
8
8
8
8
CELL_DATA 64
VECTORS vector_value float
-0.155491 -0.942763 0
0.238306 -0.935967 0
0.0797363 -1.3213 0
-0.0869055 -1.30547 0
0.362977 -1.18432 0
0.21572 -0.907061 0
-0.205704 -0.485225 0
-0.186904 -2.17952 0
0.0242765 -0.34335 0
0.133895 -2.75597 0
-0.162071 -1.21543 0
-0.158567 -0.808304 0
-0.338913 -2.01017 0
-0.219903 -0.729527 0
-0.281688 -0.956002 0
-0.713774 -1.37352 0
0.37336 -0.613076 0
1.34225 -1.44924 0
-0.129792 -0.394823 0
-0.461457 -1.67903 0
-0.921728 -1.28901 0
-0.352981 -1.17929 0
0.0662428 -0.336494 0
0.402776 -1.92616 0
-0.17919 -0.630972 0
-0.217481 -0.998783 0
-0.559624 -0.558023 0
-0.665854 -1.66804 0
0.255023 -0.578458 0
0.221325 -3.38833 0
-0.58981 -0.685895 0
0.184583 -2.59698 0
-0.331325 -0.728201 0
-0.257788 -1.51713 0
-0.0927379 -0.492262 0
-0.0986283 -1.35668 0
-0.115049 -1.46113 0
0.0999799 -1.19809 0
-0.356829 -0.645988 0
-0.0425197 -0.582936 0
-0.179621 -1.06334 0
0.204161 -0.709203 0
0.128939 -0.228575 0
-0.00253928 -0.262329 0
0.184666 -0.730413 0
0.214578 -0.46159 0
-0.128228 -0.845418 0
0.132721 -0.262815 0
-0.0633479 -0.492324 0
0.115264 -0.208358 0
-0.16883 -0.347484 0
0.323591 -1.79723 0
-0.662883 -1.17451 0
-0.0213594 -0.0798218 0
-0.233591 -0.641383 0
-0.150982 -1.82984 0
-0.170902 -0.35098 0
-0.054468 -0.155302 0
-0.0399292 -0.0282912 0
0.446592 -0.621507 0
-0.0342383 -1.54438 0
0.119573 -1.187 0
-0.172289 -0.664424 0
0.239818 -0.904572 0
