# vtk DataFile Version 2.0
Unstructured Grid by M++
ASCII
DATASET UNSTRUCTURED_GRID
POINTS 81 float
  1.000000   0.625000 0
  0.750000   0.375000 0
  1.000000   0.000000 0
  0.875000   0.875000 0
  0.750000   0.125000 0
  1.000000   1.000000 0
  0.875000   0.250000 0
  0.625000   0.875000 0
  1.000000   0.750000 0
  0.875000   0.000000 0
  1.000000   0.250000 0
  0.625000   0.375000 0
  0.875000   0.500000 0
  0.625000   0.625000 0
  1.000000   0.500000 0
  0.750000   0.500000 0
  0.750000   1.000000 0
  1.000000   0.125000 0
  0.625000   0.250000 0
  0.750000   0.750000 0
  0.625000   0.000000 0
  0.125000   0.375000 0
  0.000000   0.500000 0
  0.125000   0.625000 0
  0.625000   1.000000 0
  1.000000   0.875000 0
  0.875000   0.125000 0
  0.500000   0.250000 0
  0.625000   0.500000 0
  0.250000   0.625000 0
  0.000000   0.625000 0
  0.375000   0.500000 0
  0.375000   0.000000 0
  0.000000   0.125000 0
  0.125000   0.875000 0
  0.875000   1.000000 0
  0.750000   0.250000 0
  0.375000   0.375000 0
  0.250000   0.375000 0
  0.625000   0.750000 0
  0.125000   0.125000 0
  0.500000   0.000000 0
  0.250000   0.875000 0
  0.125000   0.500000 0
  0.500000   0.375000 0
  0.125000   0.000000 0
  0.250000   0.750000 0
  0.250000   0.500000 0
  0.000000   0.875000 0
  0.875000   0.625000 0
  0.500000   0.750000 0
  0.750000   0.625000 0
  0.250000   0.000000 0
  0.375000   0.750000 0
  0.750000   0.875000 0
  0.625000   0.125000 0
  0.250000   0.250000 0
  0.375000   1.000000 0
  0.375000   0.250000 0
  0.000000   0.375000 0
  0.500000   1.000000 0
  0.875000   0.750000 0
  0.750000   0.000000 0
  0.375000   0.125000 0
  0.500000   0.875000 0
  0.000000   0.000000 0
  0.125000   0.750000 0
  0.500000   0.625000 0
  0.125000   0.250000 0
  0.500000   0.125000 0
  0.250000   1.000000 0
  0.250000   0.125000 0
  0.000000   1.000000 0
  0.375000   0.875000 0
  0.000000   0.750000 0
  0.375000   0.625000 0
  0.000000   0.250000 0
  0.125000   1.000000 0
  1.000000   0.375000 0
  0.500000   0.500000 0
  0.875000   0.375000 0
CELLS 64 320
4 56 71 58 63
4 27 58 69 63
4 41 69 32 63
4 76 33 68 40
4 27 44 58 37
4 79 31 44 37
4 56 38 68 21
4 56 58 38 37
4 52 32 71 63
4 47 38 31 37
4 76 68 59 21
4 22 59 43 21
4 65 45 33 40
4 47 43 38 21
4 52 71 45 40
4 56 68 71 40
4 74 30 66 23
4 46 66 29 23
4 22 43 30 23
4 72 48 77 34
4 46 53 42 73
4 50 64 53 73
4 70 42 57 73
4 74 66 48 34
4 46 42 66 34
4 47 29 43 23
4 70 77 42 34
4 60 57 64 73
4 79 67 31 75
4 47 31 29 75
4 50 53 67 75
4 46 29 53 75
4 10 78 6 80
4 36 6 1 80
4 15 1 12 80
4 36 4 6 26
4 14 12 78 80
4 2 17 9 26
4 36 18 4 55
4 15 28 1 11
4 62 4 20 55
4 10 6 17 26
4 27 18 44 11
4 62 9 4 26
4 27 69 18 55
4 36 1 18 11
4 41 20 69 55
4 79 44 28 11
4 16 24 54 7
4 19 54 39 7
4 50 39 64 7
4 8 25 61 3
4 60 64 24 7
4 79 28 67 13
4 19 51 61 49
4 8 61 0 49
4 15 51 28 13
4 19 39 51 13
4 50 67 39 13
4 19 61 54 3
4 14 0 12 49
4 5 35 25 3
4 15 12 51 49
4 16 54 35 3
CELL_TYPES 64
8
8
8
8
8
8
8
8
8
8
8
8
8
8
8
8
8
8
8
8
8
8
8
8
8
8
8
8
8
8
8
8
8
8
8
8
8
8
8
8
8
8
8
8
8
8
8
8
8
8
8
8
8
8
8
8
8
8
8
8
8
8
8
8
CELL_DATA 64
VECTORS vector_value float
-0.0984154 -0.636241 0
-0.00369396 -0.819695 0
-0.0279812 -0.591749 0
-0.0500128 -0.219466 0
0.313724 -1.32112 0
2.76477 -1.39273 0
-0.0263295 -0.331368 0
-0.000138125 -0.539021 0
-0.185689 -0.514104 0
2.36381 -1.14286 0
-0.00951909 -0.115167 0
0.353092 -0.453921 0
-0.0902735 -0.389303 0
1.40462 -0.885417 0
-0.238071 -0.379463 0
-0.0569054 -0.279799 0
-0.0282943 -0.970663 0
-0.0573759 -1.57999 0
0.0945704 -1.27774 0
0.0255597 -1.02773 0
-0.13119 -1.45571 0
-0.387249 -0.402566 0
-0.726858 -1.12938 0
-0.00481966 -0.942755 0
0.00753961 -1.61135 0
0.105825 -1.19339 0
-0.258015 -1.45815 0
-0.530269 -0.509674 0
-0.112805 -1.16552 0
0.209699 -1.59871 0
-0.0999021 -0.564928 0
0.0120185 -1.63356 0
-0.0771876 -0.521716 0
0.172358 -0.902318 0
-0.080317 -0.501508 0
0.266856 -1.77016 0
-0.0248552 -0.662098 0
-0.000112588 -0.461424 0
-0.126056 -3.16744 0
-0.275543 -0.56709 0
-0.150106 -1.89037 0
-0.0135997 -0.467711 0
1.34497 -1.67206 0
-0.0105648 -1.741 0
-0.0210289 -0.639483 0
1.94242 -2.59724 0
-0.608724 -2.03258 0
1.71612 -2.39437 0
-0.264552 -0.625917 0
-0.176126 -0.606366 0
-0.221383 -1.22197 0
-0.136683 -1.30365 0
-0.331579 -1.21516 0
-0.0956101 -0.346132 0
-0.207152 -0.710401 0
-0.103504 -0.930693 0
-0.313299 -0.887025 0
-0.0141403 -0.912575 0
-0.275129 -0.697188 0
-0.198976 -0.455628 0
-0.0951518 -0.832751 0
0.181788 -1.43788 0
-0.254135 -0.698738 0
0.142094 -0.596111 0
