# vtk DataFile Version 2.0
Unstructured Grid by M++
ASCII
DATASET UNSTRUCTURED_GRID
POINTS 81 float
  1.000000   0.625000 0
  0.750000   0.375000 0
  1.000000   0.000000 0
  0.875000   0.875000 0
  0.750000   0.125000 0
  1.000000   1.000000 0
  0.875000   0.250000 0
  0.625000   0.875000 0
  1.000000   0.750000 0
  0.875000   0.000000 0
  1.000000   0.250000 0
  0.625000   0.375000 0
  0.875000   0.500000 0
  0.625000   0.625000 0
  1.000000   0.500000 0
  0.750000   0.500000 0
  0.750000   1.000000 0
  1.000000   0.125000 0
  0.625000   0.250000 0
  0.750000   0.750000 0
  0.625000   0.000000 0
  0.125000   0.375000 0
  0.000000   0.500000 0
  0.125000   0.625000 0
  0.625000   1.000000 0
  1.000000   0.875000 0
  0.875000   0.125000 0
  0.500000   0.250000 0
  0.625000   0.500000 0
  0.250000   0.625000 0
  0.000000   0.625000 0
  0.375000   0.500000 0
  0.375000   0.000000 0
  0.000000   0.125000 0
  0.125000   0.875000 0
  0.875000   1.000000 0
  0.750000   0.250000 0
  0.375000   0.375000 0
  0.250000   0.375000 0
  0.625000   0.750000 0
  0.125000   0.125000 0
  0.500000   0.000000 0
  0.250000   0.875000 0
  0.125000   0.500000 0
  0.500000   0.375000 0
  0.125000   0.000000 0
  0.250000   0.750000 0
  0.250000   0.500000 0
  0.000000   0.875000 0
  0.875000   0.625000 0
  0.500000   0.750000 0
  0.750000   0.625000 0
  0.250000   0.000000 0
  0.375000   0.750000 0
  0.750000   0.875000 0
  0.625000   0.125000 0
  0.250000   0.250000 0
  0.375000   1.000000 0
  0.375000   0.250000 0
  0.000000   0.375000 0
  0.500000   1.000000 0
  0.875000   0.750000 0
  0.750000   0.000000 0
  0.375000   0.125000 0
  0.500000   0.875000 0
  0.000000   0.000000 0
  0.125000   0.750000 0
  0.500000   0.625000 0
  0.125000   0.250000 0
  0.500000   0.125000 0
  0.250000   1.000000 0
  0.250000   0.125000 0
  0.000000   1.000000 0
  0.375000   0.875000 0
  0.000000   0.750000 0
  0.375000   0.625000 0
  0.000000   0.250000 0
  0.125000   1.000000 0
  1.000000   0.375000 0
  0.500000   0.500000 0
  0.875000   0.375000 0
CELLS 64 320
4 56 71 58 63
4 27 58 69 63
4 41 69 32 63
4 76 33 68 40
4 27 44 58 37
4 79 31 44 37
4 56 38 68 21
4 56 58 38 37
4 52 32 71 63
4 47 38 31 37
4 76 68 59 21
4 22 59 43 21
4 65 45 33 40
4 47 43 38 21
4 52 71 45 40
4 56 68 71 40
4 74 30 66 23
4 46 66 29 23
4 22 43 30 23
4 72 48 77 34
4 46 53 42 73
4 50 64 53 73
4 70 42 57 73
4 74 66 48 34
4 46 42 66 34
4 47 29 43 23
4 70 77 42 34
4 60 57 64 73
4 79 67 31 75
4 47 31 29 75
4 50 53 67 75
4 46 29 53 75
4 10 78 6 80
4 36 6 1 80
4 15 1 12 80
4 36 4 6 26
4 14 12 78 80
4 2 17 9 26
4 36 18 4 55
4 15 28 1 11
4 62 4 20 55
4 10 6 17 26
4 27 18 44 11
4 62 9 4 26
4 27 69 18 55
4 36 1 18 11
4 41 20 69 55
4 79 44 28 11
4 16 24 54 7
4 19 54 39 7
4 50 39 64 7
4 8 25 61 3
4 60 64 24 7
4 79 28 67 13
4 19 51 61 49
4 8 61 0 49
4 15 51 28 13
4 19 39 51 13
4 50 67 39 13
4 19 61 54 3
4 14 0 12 49
4 5 35 25 3
4 15 12 51 49
4 16 54 35 3
CELL_TYPES 64
8
8
8
8
8
8
8
8
8
8
8
8
8
8
8
8
8
8
8
8
8
8
8
8
8
8
8
8
8
8
8
8
8
8
8
8
8
8
8
8
8
8
8
8
8
8
8
8
8
8
8
8
8
8
8
8
8
8
8
8
8
8
8
8
CELL_DATA 64
VECTORS vector_value float
-0.119346 -1.12984 0
0.274892 -0.523271 0
0.0918362 -0.2904 0
6.52084e-05 -0.102118 0
0.929855 -0.807802 0
0.0301807 -0.709571 0
0.0631431 -1.44168 0
0.710226 -1.83826 0
-0.0391763 -0.573517 0
0.464732 -1.10877 0
0.0357861 -0.156589 0
0.0868298 -0.274456 0
-0.00257588 -0.109585 0
0.789535 -2.55602 0
-0.127938 -2.06048 0
-0.13386 -1.65015 0
-0.0331085 -0.436763 0
-0.153044 -1.80621 0
0.0480821 -0.420194 0
0.310826 -1.07068 0
0.0640683 -1.14531 0
-0.137816 -0.406717 0
-0.175027 -0.984447 0
-0.00112669 -0.34944 0
0.164375 -1.61549 0
-0.365334 -2.64838 0
0.101976 -1.12422 0
0.189698 -0.332163 0
-0.228802 -0.737639 0
-0.464991 -0.675157 0
-0.523319 -0.926218 0
-0.403838 -0.937272 0
0.103301 -2.14615 0
0.0494504 -0.431776 0
0.310019 -1.11548 0
0.151849 -0.457792 0
0.32719 -1.58849 0
0.0379574 -2.34009 0
0.566596 -1.07509 0
0.043593 -0.143164 0
0.291306 -1.05896 0
0.0423688 -2.2476 0
0.672754 -0.733719 0
0.248583 -0.815024 0
0.523485 -0.814142 0
0.09162 -0.44403 0
0.246086 -0.751937 0
0.0790204 -0.504056 0
-0.129837 -1.17884 0
-0.328834 -1.59503 0
-0.441607 -1.64406 0
0.100551 -0.786217 0
0.336655 -1.36606 0
-0.0812699 -0.727553 0
0.235774 -0.548358 0
0.0615655 -0.98906 0
0.128106 -0.230709 0
0.570602 -1.21667 0
-0.204057 -1.13945 0
0.152328 -0.457737 0
0.148978 -1.1307 0
-0.145538 -0.659602 0
0.624567 -1.42967 0
-0.483533 -1.28399 0
