# vtk DataFile Version 2.0
Unstructured Grid by M++
ASCII
DATASET UNSTRUCTURED_GRID
POINTS 289 float
  0.562500   1.000000 0
  0.562500   0.625000 0
  0.625000   1.000000 0
  0.562500   0.937500 0
  0.562500   0.562500 0
  0.625000   0.937500 0
  0.562500   0.875000 0
  0.625000   0.750000 0
  0.625000   0.625000 0
  0.562500   0.812500 0
  0.562500   0.750000 0
  0.562500   0.687500 0
  0.625000   0.875000 0
  0.625000   0.812500 0
  0.625000   0.687500 0
  0.687500   0.125000 0
  0.875000   0.062500 0
  0.625000   0.125000 0
  0.625000   0.187500 0
  0.625000   0.250000 0
  0.812500   0.187500 0
  1.000000   0.125000 0
  0.687500   0.187500 0
  0.750000   0.125000 0
  0.937500   0.062500 0
  0.937500   0.125000 0
  0.750000   0.187500 0
  0.812500   0.062500 0
  0.812500   0.125000 0
  0.875000   0.687500 0
  0.187500   0.250000 0
  0.437500   0.250000 0
  0.375000   0.187500 0
  0.812500   0.625000 0
  0.125000   0.187500 0
  0.937500   0.750000 0
  0.250000   0.312500 0
  0.500000   0.312500 0
  0.625000   0.062500 0
  0.437500   0.500000 0
  0.375000   0.125000 0
  0.437500   0.187500 0
  0.437500   0.437500 0
  0.437500   0.375000 0
  0.875000   0.875000 0
  0.187500   0.375000 0
  0.687500   0.562500 0
  0.687500   0.625000 0
  0.000000   0.125000 0
  0.937500   0.625000 0
  0.250000   0.125000 0
  0.375000   0.062500 0
  0.375000   0.000000 0
  0.812500   0.500000 0
  0.125000   0.000000 0
  0.937500   0.937500 0
  0.250000   0.437500 0
  0.687500   0.875000 0
  0.687500   0.937500 0
  0.000000   0.437500 0
  0.500000   0.500000 0
  0.500000   0.437500 0
  0.750000   0.937500 0
  0.750000   1.000000 0
  0.062500   0.500000 0
  1.000000   1.000000 0
  0.312500   0.500000 0
  0.875000   0.562500 0
  0.187500   0.062500 0
  0.437500   0.125000 0
  0.437500   0.062500 0
  0.500000   0.375000 0
  0.937500   0.812500 0
  0.937500   0.875000 0
  0.250000   0.375000 0
  0.687500   0.812500 0
  0.000000   0.375000 0
  0.750000   0.562500 0
  0.062500   0.125000 0
  1.000000   0.562500 0
  1.000000   0.625000 0
  0.312500   0.125000 0
  0.562500   0.125000 0
  0.437500   0.000000 0
  0.875000   0.437500 0
  0.875000   0.500000 0
  0.187500   0.000000 0
  0.937500   0.562500 0
  0.937500   0.500000 0
  0.250000   0.062500 0
  0.687500   0.500000 0
  0.000000   0.062500 0
  0.500000   0.062500 0
  1.000000   0.875000 0
  1.000000   0.937500 0
  0.312500   0.437500 0
  0.750000   0.875000 0
  0.062500   0.437500 0
  0.812500   0.937500 0
  0.125000   0.500000 0
  0.375000   0.500000 0
  0.625000   0.562500 0
  0.625000   0.500000 0
  0.437500   0.312500 0
  0.875000   0.812500 0
  0.875000   0.750000 0
  0.187500   0.312500 0
  0.812500   0.687500 0
  0.812500   0.750000 0
  0.125000   0.250000 0
  0.375000   0.250000 0
  1.000000   0.687500 0
  0.312500   0.187500 0
  0.750000   0.687500 0
  0.750000   0.625000 0
  0.062500   0.187500 0
  0.562500   0.250000 0
  0.562500   0.187500 0
  0.375000   1.000000 0
  0.500000   0.562500 0
  0.500000   0.250000 0
  0.750000   0.250000 0
  0.500000   0.125000 0
  0.500000   0.187500 0
  1.000000   0.187500 0
  0.625000   0.375000 0
  0.875000   0.375000 0
  1.000000   0.437500 0
  0.312500   0.000000 0
  0.562500   0.000000 0
  0.812500   0.000000 0
  0.250000   0.687500 0
  0.000000   0.687500 0
  0.500000   1.000000 0
  0.250000   1.000000 0
  0.000000   1.000000 0
  0.437500   0.687500 0
  0.437500   0.625000 0
  0.187500   0.625000 0
  0.687500   0.750000 0
  0.000000   0.312500 0
  0.000000   0.250000 0
  0.375000   0.375000 0
  0.375000   0.312500 0
  0.812500   0.812500 0
  0.125000   0.312500 0
  0.875000   0.625000 0
  0.187500   0.187500 0
  0.187500   0.125000 0
  0.937500   1.000000 0
  0.250000   0.562500 0
  0.250000   0.500000 0
  0.687500   1.000000 0
  0.000000   0.500000 0
  0.687500   0.687500 0
  0.000000   0.187500 0
  0.937500   0.687500 0
  0.250000   0.250000 0
  0.250000   0.187500 0
  0.187500   0.687500 0
  0.000000   0.750000 0
  0.250000   0.750000 0
  0.125000   0.625000 0
  0.750000   0.750000 0
  0.062500   0.250000 0
  0.875000   0.937500 0
  0.187500   0.500000 0
  0.187500   0.437500 0
  0.812500   0.562500 0
  0.125000   0.125000 0
  0.125000   0.062500 0
  0.375000   0.625000 0
  0.375000   0.687500 0
  1.000000   0.750000 0
  0.312500   0.250000 0
  0.312500   0.312500 0
  0.812500   0.312500 0
  0.562500   0.312500 0
  0.375000   0.750000 0
  0.500000   0.625000 0
  0.250000   0.625000 0
  0.312500   0.687500 0
  0.750000   0.812500 0
  0.062500   0.312500 0
  0.062500   0.375000 0
  1.000000   0.812500 0
  0.312500   0.375000 0
  0.562500   0.375000 0
  0.687500   0.437500 0
  0.000000   0.000000 0
  0.500000   0.000000 0
  0.937500   0.437500 0
  0.250000   0.000000 0
  0.375000   0.437500 0
  0.812500   0.875000 0
  0.125000   0.375000 0
  0.125000   0.437500 0
  0.625000   0.437500 0
  1.000000   0.500000 0
  0.312500   0.062500 0
  0.750000   0.500000 0
  0.062500   0.000000 0
  0.062500   0.062500 0
  0.562500   0.062500 0
  0.062500   0.750000 0
  0.312500   0.750000 0
  0.312500   0.625000 0
  0.312500   0.562500 0
  0.062500   0.562500 0
  0.187500   1.000000 0
  0.437500   0.562500 0
  0.875000   1.000000 0
  0.187500   0.562500 0
  0.500000   0.937500 0
  0.250000   0.937500 0
  0.312500   1.000000 0
  0.125000   0.750000 0
  0.125000   0.687500 0
  1.000000   0.000000 0
  0.000000   0.937500 0
  0.000000   0.875000 0
  0.875000   0.125000 0
  0.875000   0.187500 0
  0.062500   0.812500 0
  0.312500   0.812500 0
  0.000000   0.812500 0
  0.000000   0.625000 0
  0.000000   0.562500 0
  0.062500   1.000000 0
  0.062500   0.937500 0
  0.937500   0.187500 0
  0.937500   0.250000 0
  0.062500   0.687500 0
  0.062500   0.625000 0
  0.125000   1.000000 0
  1.000000   0.250000 0
  1.000000   0.312500 0
  0.062500   0.875000 0
  0.125000   0.812500 0
  0.375000   0.812500 0
  0.125000   0.875000 0
  0.375000   0.937500 0
  0.375000   0.875000 0
  0.187500   0.750000 0
  0.187500   0.812500 0
  0.437500   0.812500 0
  0.187500   0.875000 0
  0.437500   0.875000 0
  0.375000   0.562500 0
  0.812500   1.000000 0
  0.125000   0.562500 0
  0.437500   1.000000 0
  0.437500   0.937500 0
  0.187500   0.937500 0
  0.125000   0.937500 0
  0.500000   0.687500 0
  0.500000   0.750000 0
  0.500000   0.812500 0
  0.250000   0.812500 0
  0.250000   0.875000 0
  0.500000   0.875000 0
  0.437500   0.750000 0
  0.312500   0.875000 0
  0.312500   0.937500 0
  0.687500   0.250000 0
  0.687500   0.312500 0
  0.937500   0.312500 0
  0.875000   0.250000 0
  0.625000   0.000000 0
  0.875000   0.000000 0
  0.687500   0.375000 0
  0.937500   0.375000 0
  0.875000   0.312500 0
  0.625000   0.312500 0
  0.687500   0.000000 0
  0.937500   0.000000 0
  0.750000   0.312500 0
  0.750000   0.375000 0
  1.000000   0.375000 0
  0.812500   0.250000 0
  0.562500   0.437500 0
  0.562500   0.500000 0
  0.687500   0.062500 0
  0.750000   0.437500 0
  0.750000   0.000000 0
  0.750000   0.062500 0
  1.000000   0.062500 0
  0.812500   0.375000 0
  0.812500   0.437500 0
CELLS 256 1280
4 169 170 148 68
4 151 166 56 167
4 195 45 196 167
4 54 170 201 202
4 109 34 30 147
4 40 32 81 112
4 192 89 86 68
4 48 91 78 202
4 99 64 196 97
4 71 43 37 103
4 74 186 56 95
4 109 164 34 115
4 50 81 158 112
4 122 69 92 70
4 195 145 45 106
4 110 143 174 175
4 157 30 158 147
4 40 69 32 41
4 50 158 148 147
4 141 155 164 115
4 122 123 69 41
4 142 186 143 175
4 60 39 61 42
4 40 51 69 70
4 120 31 123 41
4 157 174 36 175
4 50 148 89 68
4 48 78 155 115
4 52 83 51 70
4 151 56 66 95
4 71 61 43 42
4 169 148 34 147
4 100 193 39 42
4 40 81 51 199
4 110 174 32 112
4 109 30 145 106
4 100 66 193 95
4 169 34 78 115
4 190 92 83 70
4 50 89 81 199
4 54 86 170 68
4 74 56 45 167
4 142 143 43 103
4 153 59 64 97
4 99 196 166 167
4 169 78 170 202
4 142 193 186 95
4 192 128 89 199
4 74 45 36 106
4 110 31 143 103
4 76 184 59 97
4 142 43 193 42
4 52 51 128 199
4 189 201 91 202
4 120 37 31 103
4 74 36 186 175
4 195 196 184 97
4 141 164 140 183
4 157 158 174 112
4 109 145 164 183
4 195 184 145 183
4 110 32 31 41
4 157 36 30 106
4 76 140 184 183
4 171 172 206 181
4 178 172 261 136
4 256 261 255 136
4 256 257 261 245
4 180 150 206 207
4 60 119 39 210
4 118 215 241 263
4 178 205 172 181
4 216 243 238 244
4 162 217 233 232
4 180 206 131 181
4 179 137 119 210
4 216 204 217 232
4 220 237 219 229
4 216 217 243 159
4 259 258 262 224
4 240 254 237 229
4 153 64 227 208
4 161 205 258 224
4 240 237 238 223
4 226 227 233 208
4 234 228 254 229
4 171 248 137 210
4 160 132 204 232
4 180 131 138 159
4 133 251 213 252
4 171 206 248 207
4 162 138 217 159
4 161 258 243 244
4 220 225 237 223
4 151 150 166 212
4 260 247 257 245
4 259 262 214 263
4 151 66 150 207
4 234 254 209 253
4 162 233 250 208
4 242 241 262 263
4 171 137 172 136
4 161 243 131 159
4 160 204 225 223
4 161 131 205 181
4 179 255 137 136
4 216 238 204 223
4 100 39 248 210
4 260 213 247 252
4 226 233 132 232
4 134 214 215 263
4 180 138 150 212
4 178 261 239 245
4 259 246 258 244
4 178 239 205 224
4 240 238 246 244
4 242 262 239 224
4 99 250 64 208
4 240 246 254 253
4 242 239 247 245
4 135 219 228 229
4 99 166 250 212
4 259 214 246 253
4 118 241 251 252
4 100 248 66 207
4 134 209 214 253
4 162 250 138 212
4 242 247 241 252
4 71 187 61 280
4 102 281 197 280
4 122 92 82 203
4 17 18 82 117
4 122 82 123 117
4 19 264 273 265
4 267 279 222 20
4 125 273 270 265
4 267 272 279 176
4 19 116 18 117
4 21 25 286 24
4 23 28 26 20
4 23 285 28 27
4 218 286 275 24
4 85 53 84 288
4 235 236 231 266
4 221 222 28 20
4 267 222 231 230
4 268 38 129 203
4 125 270 197 188
4 126 287 272 176
4 277 270 276 265
4 267 231 272 266
4 125 197 187 280
4 190 129 92 203
4 277 276 287 176
4 19 18 264 22
4 17 82 38 203
4 102 197 90 188
4 126 84 287 288
4 284 130 285 27
4 121 276 264 265
4 71 37 187 177
4 120 123 116 117
4 198 88 127 191
4 221 16 25 24
4 23 26 15 22
4 121 279 276 176
4 235 231 124 230
4 125 187 273 177
4 278 271 236 266
4 277 287 283 288
4 284 285 274 282
4 278 127 271 191
4 269 275 16 24
4 200 283 53 288
4 23 15 285 282
4 121 26 279 20
4 21 124 25 230
4 19 273 116 177
4 200 90 283 188
4 126 271 84 191
4 269 16 130 27
4 17 38 15 282
4 221 25 222 230
4 121 264 26 22
4 120 116 37 177
4 60 61 281 280
4 277 283 270 188
4 126 272 271 266
4 268 274 38 282
4 85 84 88 191
4 17 15 18 22
4 221 28 16 27
4 93 94 73 55
4 85 88 67 87
4 80 49 79 87
4 44 104 73 72
4 146 33 67 168
4 211 165 149 55
4 8 47 14 154
4 105 104 108 144
4 105 108 29 107
4 7 139 13 75
4 44 165 194 98
4 200 53 77 168
4 8 1 101 4
4 2 5 152 58
4 260 6 213 3
4 105 35 104 72
4 96 57 182 75
4 7 14 139 154
4 146 29 33 107
4 7 13 10 9
4 12 13 57 75
4 85 67 53 168
4 44 73 165 55
4 63 152 62 58
4 8 101 47 46
4 96 182 194 144
4 60 281 119 4
4 12 5 6 3
4 173 185 35 72
4 65 149 94 55
4 146 67 49 87
4 114 113 47 154
4 163 108 182 144
4 12 6 13 9
4 173 35 111 156
4 163 182 139 75
4 260 257 6 9
4 105 29 35 156
4 163 139 113 154
4 256 10 257 9
4 146 49 29 156
4 163 113 108 107
4 80 111 49 156
4 102 101 281 4
4 12 57 5 58
4 44 194 104 144
4 96 194 62 98
4 2 0 5 3
4 93 73 185 72
4 179 119 1 4
4 200 77 90 46
4 114 33 113 107
4 7 10 14 11
4 96 62 57 58
4 133 213 0 3
4 102 90 101 46
4 256 255 10 11
4 63 62 249 98
4 114 47 77 46
4 179 1 255 11
4 211 249 165 98
4 114 77 33 168
4 198 79 88 87
4 8 14 1 11
CELL_TYPES 256
8
8
8
8
8
8
8
8
8
8
8
8
8
8
8
8
8
8
8
8
8
8
8
8
8
8
8
8
8
8
8
8
8
8
8
8
8
8
8
8
8
8
8
8
8
8
8
8
8
8
8
8
8
8
8
8
8
8
8
8
8
8
8
8
8
8
8
8
8
8
8
8
8
8
8
8
8
8
8
8
8
8
8
8
8
8
8
8
8
8
8
8
8
8
8
8
8
8
8
8
8
8
8
8
8
8
8
8
8
8
8
8
8
8
8
8
8
8
8
8
8
8
8
8
8
8
8
8
8
8
8
8
8
8
8
8
8
8
8
8
8
8
8
8
8
8
8
8
8
8
8
8
8
8
8
8
8
8
8
8
8
8
8
8
8
8
8
8
8
8
8
8
8
8
8
8
8
8
8
8
8
8
8
8
8
8
8
8
8
8
8
8
8
8
8
8
8
8
8
8
8
8
8
8
8
8
8
8
8
8
8
8
8
8
8
8
8
8
8
8
8
8
8
8
8
8
8
8
8
8
8
8
8
8
8
8
8
8
8
8
8
8
8
8
8
8
8
8
8
8
8
8
8
8
8
8
CELL_DATA 256
VECTORS vector_value float
0.0910874 -0.42558 0
0.023074 -0.385988 0
-0.063376 -0.300515 0
-0.036193 -0.193579 0
1.122 -0.781344 0
0.254335 -2.79117 0
0.0305025 -0.812514 0
0.00189936 -0.242902 0
-0.485771 -0.895439 0
-4.32172 -3.39157 0
0.113949 -0.179454 0
0.852931 -0.581943 0
0.708786 -3.38316 0
-0.174566 -1.55955 0
0.0690544 -0.24412 0
-1.54384 -2.0385 0
0.720514 -0.809364 0
-0.252376 -3.02961 0
0.737834 -1.08416 0
0.254669 -0.604178 0
-0.463571 -2.21064 0
-0.588189 -1.05856 0
-0.217475 -0.529603 0
0.175158 -4.16254 0
-0.587066 -2.55953 0
-0.40808 -1.0211 0
0.178002 -0.66185 0
0.0527679 -0.290382 0
0.251811 -5.24581 0
0.0897708 -0.158764 0
-1.96151 -1.35118 0
0.400201 -0.591955 0
-0.00605618 -0.195555 0
1.36088 -3.85801 0
-1.33615 -3.26062 0
0.46002 -0.595438 0
0.0620018 -0.151129 0
0.164868 -0.233208 0
0.021083 -1.33044 0
0.859619 -2.58068 0
0.0112502 -0.205609 0
0.0498325 -0.205086 0
-1.99815 -2.11993 0
-0.323431 -1.39116 0
-0.2326 -0.541597 0
0.00155385 -0.159596 0
-0.0654752 -0.382728 0
0.110288 -1.71248 0
0.0751336 -0.160471 0
-2.73658 -4.07487 0
-0.103089 -1.75365 0
-0.664334 -0.652724 0
0.337206 -3.7576 0
-0.0135138 -0.272146 0
-1.25392 -2.54356 0
0.00221118 -0.27237 0
-0.190864 -0.813447 0
0.347845 -1.31041 0
-0.45683 -2.27756 0
0.631285 -0.784687 0
0.199576 -0.84786 0
-0.663177 -2.38902 0
0.13085 -0.193385 0
0.106788 -1.7265 0
0.0270188 -0.275885 0
0.296378 -0.671511 0
1.84734 -2.67055 0
1.89665 -3.58187 0
-0.101856 -0.37538 0
0.134236 -0.394526 0
-0.377419 -0.940107 0
0.0222221 -0.40814 0
-0.0040524 -0.914121 0
-0.110953 -0.999102 0
-0.0813701 -0.562308 0
0.138957 -0.496547 0
-0.0559478 -0.825866 0
0.196965 -0.715958 0
-0.148987 -1.06027 0
1.03901 -0.928666 0
0.391142 -1.0591 0
-0.2702 -0.757428 0
0.117048 -0.416116 0
0.322635 -1.06455 0
-0.064299 -0.309448 0
0.109149 -1.28721 0
0.0955635 -0.218362 0
0.00548523 -0.211366 0
-0.23426 -0.589531 0
-0.882027 -1.14161 0
0.0369183 -0.190481 0
-0.221303 -1.08278 0
0.0489412 -1.08619 0
0.0584583 -0.351034 0
-0.106262 -0.563624 0
0.849151 -2.52897 0
0.608662 -0.747575 0
0.00191629 -0.171944 0
-0.123982 -1.0342 0
-0.245708 -1.11902 0
0.620567 -1.17494 0
0.184082 -0.365059 0
-0.0263766 -0.861129 0
0.0348635 -0.273941 0
0.0257034 -0.424809 0
0.504662 -0.802921 0
0.0565171 -0.776317 0
0.0473154 -0.142412 0
-0.891652 -1.35353 0
-0.0244611 -0.213798 0
-0.450528 -0.842919 0
-0.130815 -0.462669 0
1.10182 -1.94063 0
0.597157 -0.834865 0
0.287069 -0.602723 0
0.574284 -1.07119 0
1.35978 -0.863944 0
-0.479189 -1.05707 0
0.517566 -1.3797 0
1.83071 -2.87101 0
0.100927 -0.842324 0
-0.286852 -0.896113 0
0.719337 -1.19257 0
-0.530583 -1.20773 0
0.0241509 -0.133784 0
-0.38597 -1.35673 0
-0.230968 -1.18953 0
-0.166435 -2.14583 0
-4.64632 -3.6754 0
-1.49833 -5.70702 0
-0.0101614 -0.384897 0
-0.0474923 -0.110445 0
-0.0975125 -0.346298 0
-0.00289459 -0.0769762 0
0.0105651 -0.742855 0
-0.0996681 -0.208188 0
-0.28503 -0.835439 0
-0.0375364 -0.124618 0
0.239629 -0.574847 0
0.041896 -0.357263 0
0.0923113 -0.24064 0
0.115984 -0.872282 0
-0.0506911 -0.137478 0
-0.0272362 -0.150809 0
0.129379 -0.57127 0
0.0325289 -0.536378 0
-0.0135724 -0.0619475 0
-0.540394 -0.590677 0
-0.302515 -0.505541 0
0.00529701 -0.0486256 0
-0.193051 -0.613583 0
-3.52807 -4.1882 0
0.0467068 -0.518775 0
-0.0134243 -0.065341 0
-0.0042625 -0.0538718 0
-0.0218268 -0.0501273 0
-1.23547 -2.14754 0
-0.040442 -0.131851 0
0.0258516 -0.143193 0
0.0139507 -0.0513936 0
-2.83065 -2.97806 0
-0.318375 -0.662072 0
-0.0598739 -1.27615 0
0.320673 -0.548624 0
-0.0117343 -0.103132 0
-0.0997047 -0.234021 0
0.00833203 -0.149806 0
-0.806301 -1.13133 0
-0.255772 -0.487183 0
-0.0274605 -0.0627218 0
0.00159923 -0.0265032 0
-0.242919 -1.05231 0
0.274407 -0.596181 0
-0.0471616 -0.0539032 0
0.00642377 -0.0482284 0
-0.0593001 -0.398203 0
0.0194353 -0.179886 0
-0.106689 -0.284671 0
-0.198813 -0.239605 0
-0.234284 -0.573332 0
0.120449 -0.226748 0
-0.0185455 -0.0431144 0
0.170581 -0.681 0
-0.00662158 -0.0686266 0
-0.478396 -1.19115 0
-0.710641 -1.79718 0
-0.0574833 -0.0867244 0
-0.580368 -0.754353 0
-0.00666639 -0.0242004 0
-0.082408 -0.391881 0
-0.0180512 -0.0364197 0
0.257418 -0.458819 0
-0.0366567 -1.40254 0
-0.0118285 -0.392631 0
-0.00704423 -1.29379 0
-0.0810271 -1.13592 0
-0.0387031 -0.153963 0
0.273925 -0.676161 0
0.458828 -2.06154 0
-0.35942 -0.778883 0
-0.383185 -0.639762 0
0.139814 -0.229339 0
0.0971633 -0.838861 0
-0.0830104 -0.129555 0
0.652276 -3.55208 0
-1.21501 -0.70741 0
-1.24334 -1.37094 0
-0.117342 -0.963028 0
0.04898 -0.277976 0
0.649811 -0.855352 0
-0.133363 -0.345421 0
0.551253 -0.631381 0
-0.0135877 -0.127966 0
-0.0271196 -0.111717 0
0.0335888 -0.811707 0
-0.597999 -0.555804 0
-0.275313 -3.34853 0
0.0752927 -0.556149 0
0.118492 -1.16407 0
-0.625211 -0.590771 0
0.0718421 -1.22276 0
0.212797 -1.36916 0
-0.00700178 -0.440825 0
-0.498217 -1.34489 0
-0.192788 -0.759484 0
-0.0334943 -0.31828 0
0.0351244 -1.32865 0
0.00914899 -0.259763 0
0.0333937 -1.07785 0
-0.0529811 -0.492772 0
-0.172273 -0.63945 0
1.24388 -1.56346 0
-0.0293046 -0.338901 0
-0.574279 -0.99795 0
-0.0196393 -1.37561 0
-0.792928 -4.73452 0
-0.239159 -0.288527 0
0.0463217 -0.818897 0
-0.00989388 -0.544204 0
-1.54879 -1.19806 0
-0.102689 -1.17274 0
0.271682 -1.14267 0
-0.440618 -0.658413 0
-0.509964 -0.743499 0
1.7918 -1.47331 0
-0.115071 -0.383244 0
-1.09735 -1.03157 0
-1.20353 -3.36494 0
2.68013 -2.43911 0
-0.154447 -0.902549 0
-0.634646 -1.3972 0
1.75668 -2.49294 0
0.0610847 -0.906463 0
-0.192801 -0.309504 0
0.00415907 -1.32726 0
1.48274 -2.40582 0
