# vtk DataFile Version 2.0
Unstructured Grid by M++
ASCII
DATASET UNSTRUCTURED_GRID
POINTS 81 float
  1.000000   0.625000 0
  0.750000   0.375000 0
  1.000000   0.000000 0
  0.875000   0.875000 0
  0.750000   0.125000 0
  1.000000   1.000000 0
  0.875000   0.250000 0
  0.625000   0.875000 0
  1.000000   0.750000 0
  0.875000   0.000000 0
  1.000000   0.250000 0
  0.625000   0.375000 0
  0.875000   0.500000 0
  0.625000   0.625000 0
  1.000000   0.500000 0
  0.750000   0.500000 0
  0.750000   1.000000 0
  1.000000   0.125000 0
  0.625000   0.250000 0
  0.750000   0.750000 0
  0.625000   0.000000 0
  0.125000   0.375000 0
  0.000000   0.500000 0
  0.125000   0.625000 0
  0.625000   1.000000 0
  1.000000   0.875000 0
  0.875000   0.125000 0
  0.500000   0.250000 0
  0.625000   0.500000 0
  0.250000   0.625000 0
  0.000000   0.625000 0
  0.375000   0.500000 0
  0.375000   0.000000 0
  0.000000   0.125000 0
  0.125000   0.875000 0
  0.875000   1.000000 0
  0.750000   0.250000 0
  0.375000   0.375000 0
  0.250000   0.375000 0
  0.625000   0.750000 0
  0.125000   0.125000 0
  0.500000   0.000000 0
  0.250000   0.875000 0
  0.125000   0.500000 0
  0.500000   0.375000 0
  0.125000   0.000000 0
  0.250000   0.750000 0
  0.250000   0.500000 0
  0.000000   0.875000 0
  0.875000   0.625000 0
  0.500000   0.750000 0
  0.750000   0.625000 0
  0.250000   0.000000 0
  0.375000   0.750000 0
  0.750000   0.875000 0
  0.625000   0.125000 0
  0.250000   0.250000 0
  0.375000   1.000000 0
  0.375000   0.250000 0
  0.000000   0.375000 0
  0.500000   1.000000 0
  0.875000   0.750000 0
  0.750000   0.000000 0
  0.375000   0.125000 0
  0.500000   0.875000 0
  0.000000   0.000000 0
  0.125000   0.750000 0
  0.500000   0.625000 0
  0.125000   0.250000 0
  0.500000   0.125000 0
  0.250000   1.000000 0
  0.250000   0.125000 0
  0.000000   1.000000 0
  0.375000   0.875000 0
  0.000000   0.750000 0
  0.375000   0.625000 0
  0.000000   0.250000 0
  0.125000   1.000000 0
  1.000000   0.375000 0
  0.500000   0.500000 0
  0.875000   0.375000 0
CELLS 64 320
4 56 71 58 63
4 27 58 69 63
4 41 69 32 63
4 76 33 68 40
4 27 44 58 37
4 79 31 44 37
4 56 38 68 21
4 56 58 38 37
4 52 32 71 63
4 47 38 31 37
4 76 68 59 21
4 22 59 43 21
4 65 45 33 40
4 47 43 38 21
4 52 71 45 40
4 56 68 71 40
4 74 30 66 23
4 46 66 29 23
4 22 43 30 23
4 72 48 77 34
4 46 53 42 73
4 50 64 53 73
4 70 42 57 73
4 74 66 48 34
4 46 42 66 34
4 47 29 43 23
4 70 77 42 34
4 60 57 64 73
4 79 67 31 75
4 47 31 29 75
4 50 53 67 75
4 46 29 53 75
4 10 78 6 80
4 36 6 1 80
4 15 1 12 80
4 36 4 6 26
4 14 12 78 80
4 2 17 9 26
4 36 18 4 55
4 15 28 1 11
4 62 4 20 55
4 10 6 17 26
4 27 18 44 11
4 62 9 4 26
4 27 69 18 55
4 36 1 18 11
4 41 20 69 55
4 79 44 28 11
4 16 24 54 7
4 19 54 39 7
4 50 39 64 7
4 8 25 61 3
4 60 64 24 7
4 79 28 67 13
4 19 51 61 49
4 8 61 0 49
4 15 51 28 13
4 19 39 51 13
4 50 67 39 13
4 19 61 54 3
4 14 0 12 49
4 5 35 25 3
4 15 12 51 49
4 16 54 35 3
CELL_TYPES 64
8
8
8
8
8
8
8
8
8
8
8
8
8
8
8
8
8
8
8
8
8
8
8
8
8
8
8
8
8
8
8
8
8
8
8
8
8
8
8
8
8
8
8
8
8
8
8
8
8
8
8
8
8
8
8
8
8
8
8
8
8
8
8
8
CELL_DATA 64
VECTORS vector_value float
0.640923 -0.971086 0
0.262057 -0.440318 0
0.228856 -0.812388 0
0.0734507 -1.58564 0
0.0608788 -0.218746 0
-0.0808973 -0.140504 0
0.329771 -1.8571 0
0.284743 -0.717622 0
0.122468 -0.928742 0
-0.054188 -0.477345 0
0.152066 -2.07833 0
-0.126575 -1.90353 0
-0.00384009 -1.5955 0
-0.293631 -2.30814 0
0.0264847 -1.32863 0
0.467204 -1.83753 0
0.00276945 -1.99021 0
-0.0647274 -1.16358 0
0.0707603 -1.76932 0
-0.310626 -1.48084 0
-0.308141 -0.737642 0
-0.128847 -0.0940259 0
-0.627359 -1.0059 0
-0.156395 -1.77166 0
-0.389598 -1.16435 0
-0.203486 -1.68239 0
-0.627412 -1.02828 0
-0.131315 -0.168293 0
-0.634475 -0.0854264 0
-0.821645 -0.888966 0
-0.297173 -0.150251 0
-0.104883 -0.671293 0
0.559366 -2.45671 0
0.254325 -0.65193 0
1.04338 -1.72189 0
-0.302489 -0.713508 0
0.406334 -1.21098 0
-0.0453551 -1.73576 0
-0.00197179 -0.00828453 0
0.125755 -0.192744 0
-0.0529607 -0.138707 0
-0.403336 -2.39647 0
-0.00251308 -0.00981768 0
-0.181986 -1.26288 0
0.0326736 -0.0471615 0
0.00291691 -0.00974042 0
0.0951057 -0.197396 0
-0.0324018 -0.0448725 0
0.252179 -1.72129 0
-0.108457 -2.39066 0
0.00150425 -0.319125 0
-0.0851199 -0.365256 0
0.544919 -0.74166 0
-0.563215 -0.297768 0
-0.0168495 -0.843366 0
0.0125856 -0.294217 0
0.623045 -1.65298 0
-0.281337 -2.5806 0
-0.324174 -0.306485 0
-0.301882 -1.15728 0
0.173369 -0.492903 0
-0.257523 -0.609403 0
0.722876 -1.13025 0
-0.380501 -1.24433 0
