# vtk DataFile Version 2.0
Unstructured Grid by M++
ASCII
DATASET UNSTRUCTURED_GRID
POINTS 289 float
  0.562500   1.000000 0
  0.562500   0.625000 0
  0.625000   1.000000 0
  0.562500   0.937500 0
  0.562500   0.562500 0
  0.625000   0.937500 0
  0.562500   0.875000 0
  0.625000   0.750000 0
  0.625000   0.625000 0
  0.562500   0.812500 0
  0.562500   0.750000 0
  0.562500   0.687500 0
  0.625000   0.875000 0
  0.625000   0.812500 0
  0.625000   0.687500 0
  0.687500   0.125000 0
  0.875000   0.062500 0
  0.625000   0.125000 0
  0.625000   0.187500 0
  0.625000   0.250000 0
  0.812500   0.187500 0
  1.000000   0.125000 0
  0.687500   0.187500 0
  0.750000   0.125000 0
  0.937500   0.062500 0
  0.937500   0.125000 0
  0.750000   0.187500 0
  0.812500   0.062500 0
  0.812500   0.125000 0
  0.875000   0.687500 0
  0.187500   0.250000 0
  0.437500   0.250000 0
  0.375000   0.187500 0
  0.812500   0.625000 0
  0.125000   0.187500 0
  0.937500   0.750000 0
  0.250000   0.312500 0
  0.500000   0.312500 0
  0.625000   0.062500 0
  0.437500   0.500000 0
  0.375000   0.125000 0
  0.437500   0.187500 0
  0.437500   0.437500 0
  0.437500   0.375000 0
  0.875000   0.875000 0
  0.187500   0.375000 0
  0.687500   0.562500 0
  0.687500   0.625000 0
  0.000000   0.125000 0
  0.937500   0.625000 0
  0.250000   0.125000 0
  0.375000   0.062500 0
  0.375000   0.000000 0
  0.812500   0.500000 0
  0.125000   0.000000 0
  0.937500   0.937500 0
  0.250000   0.437500 0
  0.687500   0.875000 0
  0.687500   0.937500 0
  0.000000   0.437500 0
  0.500000   0.500000 0
  0.500000   0.437500 0
  0.750000   0.937500 0
  0.750000   1.000000 0
  0.062500   0.500000 0
  1.000000   1.000000 0
  0.312500   0.500000 0
  0.875000   0.562500 0
  0.187500   0.062500 0
  0.437500   0.125000 0
  0.437500   0.062500 0
  0.500000   0.375000 0
  0.937500   0.812500 0
  0.937500   0.875000 0
  0.250000   0.375000 0
  0.687500   0.812500 0
  0.000000   0.375000 0
  0.750000   0.562500 0
  0.062500   0.125000 0
  1.000000   0.562500 0
  1.000000   0.625000 0
  0.312500   0.125000 0
  0.562500   0.125000 0
  0.437500   0.000000 0
  0.875000   0.437500 0
  0.875000   0.500000 0
  0.187500   0.000000 0
  0.937500   0.562500 0
  0.937500   0.500000 0
  0.250000   0.062500 0
  0.687500   0.500000 0
  0.000000   0.062500 0
  0.500000   0.062500 0
  1.000000   0.875000 0
  1.000000   0.937500 0
  0.312500   0.437500 0
  0.750000   0.875000 0
  0.062500   0.437500 0
  0.812500   0.937500 0
  0.125000   0.500000 0
  0.375000   0.500000 0
  0.625000   0.562500 0
  0.625000   0.500000 0
  0.437500   0.312500 0
  0.875000   0.812500 0
  0.875000   0.750000 0
  0.187500   0.312500 0
  0.812500   0.687500 0
  0.812500   0.750000 0
  0.125000   0.250000 0
  0.375000   0.250000 0
  1.000000   0.687500 0
  0.312500   0.187500 0
  0.750000   0.687500 0
  0.750000   0.625000 0
  0.062500   0.187500 0
  0.562500   0.250000 0
  0.562500   0.187500 0
  0.375000   1.000000 0
  0.500000   0.562500 0
  0.500000   0.250000 0
  0.750000   0.250000 0
  0.500000   0.125000 0
  0.500000   0.187500 0
  1.000000   0.187500 0
  0.625000   0.375000 0
  0.875000   0.375000 0
  1.000000   0.437500 0
  0.312500   0.000000 0
  0.562500   0.000000 0
  0.812500   0.000000 0
  0.250000   0.687500 0
  0.000000   0.687500 0
  0.500000   1.000000 0
  0.250000   1.000000 0
  0.000000   1.000000 0
  0.437500   0.687500 0
  0.437500   0.625000 0
  0.187500   0.625000 0
  0.687500   0.750000 0
  0.000000   0.312500 0
  0.000000   0.250000 0
  0.375000   0.375000 0
  0.375000   0.312500 0
  0.812500   0.812500 0
  0.125000   0.312500 0
  0.875000   0.625000 0
  0.187500   0.187500 0
  0.187500   0.125000 0
  0.937500   1.000000 0
  0.250000   0.562500 0
  0.250000   0.500000 0
  0.687500   1.000000 0
  0.000000   0.500000 0
  0.687500   0.687500 0
  0.000000   0.187500 0
  0.937500   0.687500 0
  0.250000   0.250000 0
  0.250000   0.187500 0
  0.187500   0.687500 0
  0.000000   0.750000 0
  0.250000   0.750000 0
  0.125000   0.625000 0
  0.750000   0.750000 0
  0.062500   0.250000 0
  0.875000   0.937500 0
  0.187500   0.500000 0
  0.187500   0.437500 0
  0.812500   0.562500 0
  0.125000   0.125000 0
  0.125000   0.062500 0
  0.375000   0.625000 0
  0.375000   0.687500 0
  1.000000   0.750000 0
  0.312500   0.250000 0
  0.312500   0.312500 0
  0.812500   0.312500 0
  0.562500   0.312500 0
  0.375000   0.750000 0
  0.500000   0.625000 0
  0.250000   0.625000 0
  0.312500   0.687500 0
  0.750000   0.812500 0
  0.062500   0.312500 0
  0.062500   0.375000 0
  1.000000   0.812500 0
  0.312500   0.375000 0
  0.562500   0.375000 0
  0.687500   0.437500 0
  0.000000   0.000000 0
  0.500000   0.000000 0
  0.937500   0.437500 0
  0.250000   0.000000 0
  0.375000   0.437500 0
  0.812500   0.875000 0
  0.125000   0.375000 0
  0.125000   0.437500 0
  0.625000   0.437500 0
  1.000000   0.500000 0
  0.312500   0.062500 0
  0.750000   0.500000 0
  0.062500   0.000000 0
  0.062500   0.062500 0
  0.562500   0.062500 0
  0.062500   0.750000 0
  0.312500   0.750000 0
  0.312500   0.625000 0
  0.312500   0.562500 0
  0.062500   0.562500 0
  0.187500   1.000000 0
  0.437500   0.562500 0
  0.875000   1.000000 0
  0.187500   0.562500 0
  0.500000   0.937500 0
  0.250000   0.937500 0
  0.312500   1.000000 0
  0.125000   0.750000 0
  0.125000   0.687500 0
  1.000000   0.000000 0
  0.000000   0.937500 0
  0.000000   0.875000 0
  0.875000   0.125000 0
  0.875000   0.187500 0
  0.062500   0.812500 0
  0.312500   0.812500 0
  0.000000   0.812500 0
  0.000000   0.625000 0
  0.000000   0.562500 0
  0.062500   1.000000 0
  0.062500   0.937500 0
  0.937500   0.187500 0
  0.937500   0.250000 0
  0.062500   0.687500 0
  0.062500   0.625000 0
  0.125000   1.000000 0
  1.000000   0.250000 0
  1.000000   0.312500 0
  0.062500   0.875000 0
  0.125000   0.812500 0
  0.375000   0.812500 0
  0.125000   0.875000 0
  0.375000   0.937500 0
  0.375000   0.875000 0
  0.187500   0.750000 0
  0.187500   0.812500 0
  0.437500   0.812500 0
  0.187500   0.875000 0
  0.437500   0.875000 0
  0.375000   0.562500 0
  0.812500   1.000000 0
  0.125000   0.562500 0
  0.437500   1.000000 0
  0.437500   0.937500 0
  0.187500   0.937500 0
  0.125000   0.937500 0
  0.500000   0.687500 0
  0.500000   0.750000 0
  0.500000   0.812500 0
  0.250000   0.812500 0
  0.250000   0.875000 0
  0.500000   0.875000 0
  0.437500   0.750000 0
  0.312500   0.875000 0
  0.312500   0.937500 0
  0.687500   0.250000 0
  0.687500   0.312500 0
  0.937500   0.312500 0
  0.875000   0.250000 0
  0.625000   0.000000 0
  0.875000   0.000000 0
  0.687500   0.375000 0
  0.937500   0.375000 0
  0.875000   0.312500 0
  0.625000   0.312500 0
  0.687500   0.000000 0
  0.937500   0.000000 0
  0.750000   0.312500 0
  0.750000   0.375000 0
  1.000000   0.375000 0
  0.812500   0.250000 0
  0.562500   0.437500 0
  0.562500   0.500000 0
  0.687500   0.062500 0
  0.750000   0.437500 0
  0.750000   0.000000 0
  0.750000   0.062500 0
  1.000000   0.062500 0
  0.812500   0.375000 0
  0.812500   0.437500 0
CELLS 256 1280
4 169 170 148 68
4 151 166 56 167
4 195 45 196 167
4 54 170 201 202
4 109 34 30 147
4 40 32 81 112
4 192 89 86 68
4 48 91 78 202
4 99 64 196 97
4 71 43 37 103
4 74 186 56 95
4 109 164 34 115
4 50 81 158 112
4 122 69 92 70
4 195 145 45 106
4 110 143 174 175
4 157 30 158 147
4 40 69 32 41
4 50 158 148 147
4 141 155 164 115
4 122 123 69 41
4 142 186 143 175
4 60 39 61 42
4 40 51 69 70
4 120 31 123 41
4 157 174 36 175
4 50 148 89 68
4 48 78 155 115
4 52 83 51 70
4 151 56 66 95
4 71 61 43 42
4 169 148 34 147
4 100 193 39 42
4 40 81 51 199
4 110 174 32 112
4 109 30 145 106
4 100 66 193 95
4 169 34 78 115
4 190 92 83 70
4 50 89 81 199
4 54 86 170 68
4 74 56 45 167
4 142 143 43 103
4 153 59 64 97
4 99 196 166 167
4 169 78 170 202
4 142 193 186 95
4 192 128 89 199
4 74 45 36 106
4 110 31 143 103
4 76 184 59 97
4 142 43 193 42
4 52 51 128 199
4 189 201 91 202
4 120 37 31 103
4 74 36 186 175
4 195 196 184 97
4 141 164 140 183
4 157 158 174 112
4 109 145 164 183
4 195 184 145 183
4 110 32 31 41
4 157 36 30 106
4 76 140 184 183
4 171 172 206 181
4 178 172 261 136
4 256 261 255 136
4 256 257 261 245
4 180 150 206 207
4 60 119 39 210
4 118 215 241 263
4 178 205 172 181
4 216 243 238 244
4 162 217 233 232
4 180 206 131 181
4 179 137 119 210
4 216 204 217 232
4 220 237 219 229
4 216 217 243 159
4 259 258 262 224
4 240 254 237 229
4 153 64 227 208
4 161 205 258 224
4 240 237 238 223
4 226 227 233 208
4 234 228 254 229
4 171 248 137 210
4 160 132 204 232
4 180 131 138 159
4 133 251 213 252
4 171 206 248 207
4 162 138 217 159
4 161 258 243 244
4 220 225 237 223
4 151 150 166 212
4 260 247 257 245
4 259 262 214 263
4 151 66 150 207
4 234 254 209 253
4 162 233 250 208
4 242 241 262 263
4 171 137 172 136
4 161 243 131 159
4 160 204 225 223
4 161 131 205 181
4 179 255 137 136
4 216 238 204 223
4 100 39 248 210
4 260 213 247 252
4 226 233 132 232
4 134 214 215 263
4 180 138 150 212
4 178 261 239 245
4 259 246 258 244
4 178 239 205 224
4 240 238 246 244
4 242 262 239 224
4 99 250 64 208
4 240 246 254 253
4 242 239 247 245
4 135 219 228 229
4 99 166 250 212
4 259 214 246 253
4 118 241 251 252
4 100 248 66 207
4 134 209 214 253
4 162 250 138 212
4 242 247 241 252
4 71 187 61 280
4 102 281 197 280
4 122 92 82 203
4 17 18 82 117
4 122 82 123 117
4 19 264 273 265
4 267 279 222 20
4 125 273 270 265
4 267 272 279 176
4 19 116 18 117
4 21 25 286 24
4 23 28 26 20
4 23 285 28 27
4 218 286 275 24
4 85 53 84 288
4 235 236 231 266
4 221 222 28 20
4 267 222 231 230
4 268 38 129 203
4 125 270 197 188
4 126 287 272 176
4 277 270 276 265
4 267 231 272 266
4 125 197 187 280
4 190 129 92 203
4 277 276 287 176
4 19 18 264 22
4 17 82 38 203
4 102 197 90 188
4 126 84 287 288
4 284 130 285 27
4 121 276 264 265
4 71 37 187 177
4 120 123 116 117
4 198 88 127 191
4 221 16 25 24
4 23 26 15 22
4 121 279 276 176
4 235 231 124 230
4 125 187 273 177
4 278 271 236 266
4 277 287 283 288
4 284 285 274 282
4 278 127 271 191
4 269 275 16 24
4 200 283 53 288
4 23 15 285 282
4 121 26 279 20
4 21 124 25 230
4 19 273 116 177
4 200 90 283 188
4 126 271 84 191
4 269 16 130 27
4 17 38 15 282
4 221 25 222 230
4 121 264 26 22
4 120 116 37 177
4 60 61 281 280
4 277 283 270 188
4 126 272 271 266
4 268 274 38 282
4 85 84 88 191
4 17 15 18 22
4 221 28 16 27
4 93 94 73 55
4 85 88 67 87
4 80 49 79 87
4 44 104 73 72
4 146 33 67 168
4 211 165 149 55
4 8 47 14 154
4 105 104 108 144
4 105 108 29 107
4 7 139 13 75
4 44 165 194 98
4 200 53 77 168
4 8 1 101 4
4 2 5 152 58
4 260 6 213 3
4 105 35 104 72
4 96 57 182 75
4 7 14 139 154
4 146 29 33 107
4 7 13 10 9
4 12 13 57 75
4 85 67 53 168
4 44 73 165 55
4 63 152 62 58
4 8 101 47 46
4 96 182 194 144
4 60 281 119 4
4 12 5 6 3
4 173 185 35 72
4 65 149 94 55
4 146 67 49 87
4 114 113 47 154
4 163 108 182 144
4 12 6 13 9
4 173 35 111 156
4 163 182 139 75
4 260 257 6 9
4 105 29 35 156
4 163 139 113 154
4 256 10 257 9
4 146 49 29 156
4 163 113 108 107
4 80 111 49 156
4 102 101 281 4
4 12 57 5 58
4 44 194 104 144
4 96 194 62 98
4 2 0 5 3
4 93 73 185 72
4 179 119 1 4
4 200 77 90 46
4 114 33 113 107
4 7 10 14 11
4 96 62 57 58
4 133 213 0 3
4 102 90 101 46
4 256 255 10 11
4 63 62 249 98
4 114 47 77 46
4 179 1 255 11
4 211 249 165 98
4 114 77 33 168
4 198 79 88 87
4 8 14 1 11
CELL_TYPES 256
8
8
8
8
8
8
8
8
8
8
8
8
8
8
8
8
8
8
8
8
8
8
8
8
8
8
8
8
8
8
8
8
8
8
8
8
8
8
8
8
8
8
8
8
8
8
8
8
8
8
8
8
8
8
8
8
8
8
8
8
8
8
8
8
8
8
8
8
8
8
8
8
8
8
8
8
8
8
8
8
8
8
8
8
8
8
8
8
8
8
8
8
8
8
8
8
8
8
8
8
8
8
8
8
8
8
8
8
8
8
8
8
8
8
8
8
8
8
8
8
8
8
8
8
8
8
8
8
8
8
8
8
8
8
8
8
8
8
8
8
8
8
8
8
8
8
8
8
8
8
8
8
8
8
8
8
8
8
8
8
8
8
8
8
8
8
8
8
8
8
8
8
8
8
8
8
8
8
8
8
8
8
8
8
8
8
8
8
8
8
8
8
8
8
8
8
8
8
8
8
8
8
8
8
8
8
8
8
8
8
8
8
8
8
8
8
8
8
8
8
8
8
8
8
8
8
8
8
8
8
8
8
8
8
8
8
8
8
8
8
8
8
8
8
8
8
8
8
8
8
8
8
8
8
8
8
CELL_DATA 256
VECTORS vector_value float
0.136187 -0.63662 0
0.113473 -0.471552 0
-0.0334574 -0.279514 0
-0.020471 -0.268933 0
1.03471 -0.684321 0
0.269367 -2.02122 0
0.0612336 -0.697583 0
0.0164145 -0.123692 0
-0.348163 -0.824132 0
-0.250889 -0.457957 0
0.216157 -0.755295 0
0.847849 -0.859878 0
0.526621 -1.3919 0
-0.194856 -0.360197 0
0.0693575 -0.251066 0
-0.121807 -0.83825 0
0.892803 -0.825409 0
-0.30571 -1.2027 0
0.579148 -0.99172 0
0.234251 -0.524936 0
-0.221201 -0.622009 0
0.145654 -1.1043 0
-0.0659696 -0.412536 0
-0.296831 -1.33552 0
-0.284513 -0.896395 0
0.0537426 -1.00249 0
0.281902 -0.709079 0
0.0471316 -0.203835 0
-0.03261 -1.36344 0
0.2853 -0.947619 0
-0.138362 -0.358392 0
0.492104 -0.776711 0
-0.0861261 -0.402895 0
-0.0308336 -2.7532 0
0.0324278 -1.0134 0
0.942535 -0.437111 0
0.0173412 -0.768298 0
0.169976 -0.325014 0
-0.017933 -0.238839 0
0.34037 -1.47551 0
0.0185088 -0.46849 0
0.045393 -0.305645 0
0.0259202 -0.984978 0
-0.216689 -2.24293 0
-0.0976209 -0.362478 0
0.0577869 -0.231785 0
0.242814 -1.09773 0
-0.0421267 -1.80379 0
0.0576869 -0.260287 0
-0.0598972 -1.13756 0
-0.156341 -2.66883 0
-0.0359929 -0.544247 0
-0.0547259 -2.69747 0
-1.11271e-05 -0.118244 0
-0.177624 -0.659047 0
0.0867281 -0.559157 0
-0.140244 -0.495501 0
0.763228 -1.57165 0
0.617971 -1.56313 0
1.4319 -1.01578 0
0.189847 -0.617502 0
-0.19639 -1.00375 0
0.515324 -0.440719 0
0.229079 -2.56254 0
0.1745 -0.321642 0
0.0366489 -0.0945232 0
-0.0228842 -0.118421 0
0.0742277 -0.198074 0
0.193213 -0.675611 0
-0.119383 -0.459372 0
-0.124943 -1.49272 0
-0.0242226 -0.394911 0
-0.196347 -0.893469 0
-0.656067 -0.82356 0
0.105028 -0.67931 0
-0.0949898 -0.221846 0
-0.571582 -0.643325 0
0.136413 -0.780227 0
-1.02322 -1.28313 0
-0.313428 -1.61171 0
0.252556 -0.29319 0
-0.114917 -1.84873 0
-0.705231 -1.94776 0
0.191213 -0.3419 0
-0.190031 -1.48565 0
0.417117 -0.51222 0
0.0292404 -0.487776 0
-0.165797 -0.495006 0
-0.0480884 -1.31289 0
0.0149962 -0.982332 0
0.0848625 -0.254585 0
-0.532829 -1.47349 0
-0.418041 -1.25782 0
0.0928737 -0.518752 0
0.13043 -0.88449 0
0.759045 -0.571432 0
0.535658 -1.73728 0
0.128995 -0.66398 0
0.960447 -0.66392 0
-0.37831 -1.04913 0
0.710198 -1.86692 0
0.052878 -0.192942 0
-1.36232 -1.68122 0
0.0206799 -0.400744 0
-0.66148 -1.23977 0
-0.0619117 -0.213518 0
0.00377194 -0.396501 0
-0.0849798 -0.420824 0
0.761882 -0.712619 0
-0.298573 -1.02197 0
0.670313 -1.61965 0
0.0773285 -1.10777 0
-0.0257372 -0.152551 0
-0.177153 -1.11553 0
-0.308655 -0.786948 0
0.0371847 -0.557025 0
-0.258028 -1.52598 0
-0.203307 -0.962929 0
0.344566 -0.409003 0
0.256298 -0.33678 0
0.0431644 -1.01766 0
-0.114514 -0.584716 0
0.431972 -1.05623 0
-0.23911 -0.603199 0
0.0311492 -0.534759 0
1.12466 -1.12148 0
-0.155951 -0.842926 0
0.720727 -0.554269 0
-0.236364 -0.436262 0
-0.122264 -0.393716 0
-0.0458037 -0.0880457 0
-0.0649112 -0.0909681 0
-0.0809691 -0.132365 0
-0.11315 -0.140344 0
-0.0666257 -2.4017 0
-0.1099 -0.133214 0
0.331494 -2.07376 0
-0.091932 -0.0864755 0
0.128044 -2.00449 0
-0.380361 -0.899533 0
-0.371028 -1.31488 0
0.458902 -3.014 0
-0.0274274 -3.15402 0
-0.156593 -1.68883 0
-0.261224 -1.96128 0
0.0442143 -3.1396 0
0.00418889 -0.0464928 0
-0.134841 -0.172437 0
0.270297 -3.00602 0
-0.08911 -0.244645 0
0.181304 -3.32866 0
-0.246867 -0.397544 0
-0.00414532 -0.0615349 0
-0.0288031 -0.989467 0
-0.0928693 -0.185845 0
-0.0105229 -0.066464 0
-0.152146 -0.27231 0
0.189471 -3.27311 0
-0.146085 -1.33387 0
-0.135437 -0.215499 0
-0.254604 -0.356052 0
-0.220129 -0.214289 0
0.0332025 -2.00086 0
0.381135 -3.15531 0
-0.0641129 -0.318406 0
-0.0172994 -0.956553 0
0.11129 -1.82503 0
-0.167242 -0.332821 0
-0.1134 -2.18089 0
0.0539781 -1.17955 0
-0.125598 -0.613998 0
0.0665083 -2.23065 0
0.318395 -2.2695 0
0.199968 -1.25348 0
-0.138577 -0.428747 0
-0.0284277 -0.498168 0
0.0381567 -2.01715 0
-0.187398 -0.229308 0
0.00821827 -0.500383 0
0.161026 -1.54447 0
-0.0320873 -0.748049 0
-0.0344195 -0.160582 0
0.0729102 -2.9184 0
-0.108067 -0.277671 0
-0.247751 -0.264436 0
-0.0797275 -0.273979 0
-0.0579228 -0.260817 0
0.120134 -1.95911 0
-0.0243334 -0.255754 0
-0.0393763 -1.71881 0
-0.0383219 -0.126794 0
-0.121778 -1.15587 0
-0.0641394 -0.285356 0
-0.404701 -2.08878 0
0.192469 -2.19697 0
0.231035 -0.825391 0
-0.351568 -1.64903 0
-0.607041 -1.04231 0
0.0393231 -0.270071 0
1.59585 -2.16107 0
1.04504 -1.89176 0
1.19448 -0.716907 0
-0.163785 -1.52071 0
0.0977813 -1.1294 0
-0.0284407 -0.322638 0
-0.128325 -1.15727 0
0.72923 -1.16055 0
0.851436 -1.42491 0
1.77344 -1.61517 0
0.211426 -0.322127 0
0.9394 -2.06047 0
0.549216 -0.889292 0
1.73599 -0.898525 0
-0.30293 -2.39215 0
-0.235389 -0.803256 0
-0.322759 -1.18237 0
-0.0133454 -0.442752 0
1.22778 -1.53983 0
-0.101133 -0.185478 0
0.443811 -1.56873 0
0.202435 -0.613356 0
-0.301071 -0.564584 0
-0.234935 -2.97088 0
0.000699523 -0.578462 0
1.81185 -2.12642 0
1.56989 -1.37082 0
0.308883 -1.27001 0
1.73394 -1.39518 0
1.1979 -1.08089 0
1.0119 -2.42168 0
0.480763 -0.816483 0
0.208648 -0.638999 0
0.849771 -3.23598 0
1.06234 -2.24224 0
0.233513 -1.49722 0
-0.167087 -0.367783 0
0.404163 -0.944594 0
0.594171 -1.77931 0
0.0706703 -0.862093 0
0.120699 -1.21053 0
0.0525085 -0.310949 0
-0.151886 -0.371341 0
0.040655 -0.914084 0
0.242979 -1.4409 0
0.128751 -0.557326 0
0.299235 -1.44498 0
0.131815 -0.776124 0
-0.140482 -0.351453 0
0.00947736 -0.528053 0
-0.43325 -0.985863 0
-0.143876 -0.705931 0
-0.0428148 -0.38541 0
-0.486117 -1.06776 0
-0.187954 -1.21515 0
-0.107225 -2.21107 0
0.0292344 -0.492153 0
