# vtk DataFile Version 2.0
Unstructured Grid by M++
ASCII
DATASET UNSTRUCTURED_GRID
POINTS 81 float
  1.000000   0.625000 0
  0.750000   0.375000 0
  1.000000   0.000000 0
  0.875000   0.875000 0
  0.750000   0.125000 0
  1.000000   1.000000 0
  0.875000   0.250000 0
  0.625000   0.875000 0
  1.000000   0.750000 0
  0.875000   0.000000 0
  1.000000   0.250000 0
  0.625000   0.375000 0
  0.875000   0.500000 0
  0.625000   0.625000 0
  1.000000   0.500000 0
  0.750000   0.500000 0
  0.750000   1.000000 0
  1.000000   0.125000 0
  0.625000   0.250000 0
  0.750000   0.750000 0
  0.625000   0.000000 0
  0.125000   0.375000 0
  0.000000   0.500000 0
  0.125000   0.625000 0
  0.625000   1.000000 0
  1.000000   0.875000 0
  0.875000   0.125000 0
  0.500000   0.250000 0
  0.625000   0.500000 0
  0.250000   0.625000 0
  0.000000   0.625000 0
  0.375000   0.500000 0
  0.375000   0.000000 0
  0.000000   0.125000 0
  0.125000   0.875000 0
  0.875000   1.000000 0
  0.750000   0.250000 0
  0.375000   0.375000 0
  0.250000   0.375000 0
  0.625000   0.750000 0
  0.125000   0.125000 0
  0.500000   0.000000 0
  0.250000   0.875000 0
  0.125000   0.500000 0
  0.500000   0.375000 0
  0.125000   0.000000 0
  0.250000   0.750000 0
  0.250000   0.500000 0
  0.000000   0.875000 0
  0.875000   0.625000 0
  0.500000   0.750000 0
  0.750000   0.625000 0
  0.250000   0.000000 0
  0.375000   0.750000 0
  0.750000   0.875000 0
  0.625000   0.125000 0
  0.250000   0.250000 0
  0.375000   1.000000 0
  0.375000   0.250000 0
  0.000000   0.375000 0
  0.500000   1.000000 0
  0.875000   0.750000 0
  0.750000   0.000000 0
  0.375000   0.125000 0
  0.500000   0.875000 0
  0.000000   0.000000 0
  0.125000   0.750000 0
  0.500000   0.625000 0
  0.125000   0.250000 0
  0.500000   0.125000 0
  0.250000   1.000000 0
  0.250000   0.125000 0
  0.000000   1.000000 0
  0.375000   0.875000 0
  0.000000   0.750000 0
  0.375000   0.625000 0
  0.000000   0.250000 0
  0.125000   1.000000 0
  1.000000   0.375000 0
  0.500000   0.500000 0
  0.875000   0.375000 0
CELLS 64 320
4 56 71 58 63
4 27 58 69 63
4 41 69 32 63
4 76 33 68 40
4 27 44 58 37
4 79 31 44 37
4 56 38 68 21
4 56 58 38 37
4 52 32 71 63
4 47 38 31 37
4 76 68 59 21
4 22 59 43 21
4 65 45 33 40
4 47 43 38 21
4 52 71 45 40
4 56 68 71 40
4 74 30 66 23
4 46 66 29 23
4 22 43 30 23
4 72 48 77 34
4 46 53 42 73
4 50 64 53 73
4 70 42 57 73
4 74 66 48 34
4 46 42 66 34
4 47 29 43 23
4 70 77 42 34
4 60 57 64 73
4 79 67 31 75
4 47 31 29 75
4 50 53 67 75
4 46 29 53 75
4 10 78 6 80
4 36 6 1 80
4 15 1 12 80
4 36 4 6 26
4 14 12 78 80
4 2 17 9 26
4 36 18 4 55
4 15 28 1 11
4 62 4 20 55
4 10 6 17 26
4 27 18 44 11
4 62 9 4 26
4 27 69 18 55
4 36 1 18 11
4 41 20 69 55
4 79 44 28 11
4 16 24 54 7
4 19 54 39 7
4 50 39 64 7
4 8 25 61 3
4 60 64 24 7
4 79 28 67 13
4 19 51 61 49
4 8 61 0 49
4 15 51 28 13
4 19 39 51 13
4 50 67 39 13
4 19 61 54 3
4 14 0 12 49
4 5 35 25 3
4 15 12 51 49
4 16 54 35 3
CELL_TYPES 64
8
8
8
8
8
8
8
8
8
8
8
8
8
8
8
8
8
8
8
8
8
8
8
8
8
8
8
8
8
8
8
8
8
8
8
8
8
8
8
8
8
8
8
8
8
8
8
8
8
8
8
8
8
8
8
8
8
8
8
8
8
8
8
8
CELL_DATA 64
VECTORS vector_value float
0.189732 -0.266443 0
0.295011 -0.447498 0
0.0312284 -0.439488 0
0.0176491 -1.3324 0
0.311681 -0.447363 0
0.0673878 -0.333028 0
0.527887 -0.570196 0
0.429899 -0.230034 0
0.0224725 -0.180616 0
0.157997 -0.147265 0
0.347361 -1.90883 0
0.232246 -2.41681 0
0.0128315 -1.2963 0
0.363696 -0.427638 0
0.0100124 -0.773467 0
0.114938 -0.763644 0
-0.466968 -1.43705 0
-0.558856 -1.36026 0
-0.432483 -2.38451 0
0.110603 -0.892283 0
-0.10777 -0.27693 0
0.00248765 -0.0106378 0
-0.368909 -0.443593 0
0.0327465 -0.676932 0
-0.0795388 -2.14611 0
-0.295709 -0.557443 0
-0.263798 -1.67257 0
0.391165 -0.367773 0
-0.0210607 -0.146937 0
0.0606637 -0.152948 0
-0.0428253 -0.027698 0
-0.0404181 -0.321457 0
-0.065463 -0.611579 0
-0.402124 -1.67445 0
-0.0994686 -1.47193 0
0.334234 -1.18409 0
-0.198605 -1.2356 0
0.239446 -1.48311 0
0.253631 -1.94414 0
-0.0178613 -1.29911 0
0.192529 -1.62533 0
0.216715 -0.935892 0
0.161255 -0.72421 0
0.406564 -1.23576 0
0.254153 -1.12589 0
-0.219863 -1.83334 0
0.0558592 -0.96593 0
-0.000359554 -0.668626 0
0.624064 -1.38721 0
0.223363 -2.14418 0
0.220956 -0.503284 0
-0.153818 -1.01628 0
0.972864 -1.00346 0
-0.236752 -0.470509 0
-0.0138481 -1.40518 0
0.033453 -0.716232 0
0.090521 -2.03637 0
-0.0827628 -2.4127 0
-0.091504 -0.319424 0
-0.155561 -1.22564 0
0.169006 -0.926025 0
0.0407275 -1.08738 0
0.428258 -1.32526 0
0.170695 -1.14572 0
