# vtk DataFile Version 2.0
Unstructured Grid by M++
ASCII
DATASET UNSTRUCTURED_GRID
POINTS 81 float
  1.000000   0.625000 0
  0.750000   0.375000 0
  1.000000   0.000000 0
  0.875000   0.875000 0
  0.750000   0.125000 0
  1.000000   1.000000 0
  0.875000   0.250000 0
  0.625000   0.875000 0
  1.000000   0.750000 0
  0.875000   0.000000 0
  1.000000   0.250000 0
  0.625000   0.375000 0
  0.875000   0.500000 0
  0.625000   0.625000 0
  1.000000   0.500000 0
  0.750000   0.500000 0
  0.750000   1.000000 0
  1.000000   0.125000 0
  0.625000   0.250000 0
  0.750000   0.750000 0
  0.625000   0.000000 0
  0.125000   0.375000 0
  0.000000   0.500000 0
  0.125000   0.625000 0
  0.625000   1.000000 0
  1.000000   0.875000 0
  0.875000   0.125000 0
  0.500000   0.250000 0
  0.625000   0.500000 0
  0.250000   0.625000 0
  0.000000   0.625000 0
  0.375000   0.500000 0
  0.375000   0.000000 0
  0.000000   0.125000 0
  0.125000   0.875000 0
  0.875000   1.000000 0
  0.750000   0.250000 0
  0.375000   0.375000 0
  0.250000   0.375000 0
  0.625000   0.750000 0
  0.125000   0.125000 0
  0.500000   0.000000 0
  0.250000   0.875000 0
  0.125000   0.500000 0
  0.500000   0.375000 0
  0.125000   0.000000 0
  0.250000   0.750000 0
  0.250000   0.500000 0
  0.000000   0.875000 0
  0.875000   0.625000 0
  0.500000   0.750000 0
  0.750000   0.625000 0
  0.250000   0.000000 0
  0.375000   0.750000 0
  0.750000   0.875000 0
  0.625000   0.125000 0
  0.250000   0.250000 0
  0.375000   1.000000 0
  0.375000   0.250000 0
  0.000000   0.375000 0
  0.500000   1.000000 0
  0.875000   0.750000 0
  0.750000   0.000000 0
  0.375000   0.125000 0
  0.500000   0.875000 0
  0.000000   0.000000 0
  0.125000   0.750000 0
  0.500000   0.625000 0
  0.125000   0.250000 0
  0.500000   0.125000 0
  0.250000   1.000000 0
  0.250000   0.125000 0
  0.000000   1.000000 0
  0.375000   0.875000 0
  0.000000   0.750000 0
  0.375000   0.625000 0
  0.000000   0.250000 0
  0.125000   1.000000 0
  1.000000   0.375000 0
  0.500000   0.500000 0
  0.875000   0.375000 0
CELLS 64 320
4 56 71 58 63
4 27 58 69 63
4 41 69 32 63
4 76 33 68 40
4 27 44 58 37
4 79 31 44 37
4 56 38 68 21
4 56 58 38 37
4 52 32 71 63
4 47 38 31 37
4 76 68 59 21
4 22 59 43 21
4 65 45 33 40
4 47 43 38 21
4 52 71 45 40
4 56 68 71 40
4 74 30 66 23
4 46 66 29 23
4 22 43 30 23
4 72 48 77 34
4 46 53 42 73
4 50 64 53 73
4 70 42 57 73
4 74 66 48 34
4 46 42 66 34
4 47 29 43 23
4 70 77 42 34
4 60 57 64 73
4 79 67 31 75
4 47 31 29 75
4 50 53 67 75
4 46 29 53 75
4 10 78 6 80
4 36 6 1 80
4 15 1 12 80
4 36 4 6 26
4 14 12 78 80
4 2 17 9 26
4 36 18 4 55
4 15 28 1 11
4 62 4 20 55
4 10 6 17 26
4 27 18 44 11
4 62 9 4 26
4 27 69 18 55
4 36 1 18 11
4 41 20 69 55
4 79 44 28 11
4 16 24 54 7
4 19 54 39 7
4 50 39 64 7
4 8 25 61 3
4 60 64 24 7
4 79 28 67 13
4 19 51 61 49
4 8 61 0 49
4 15 51 28 13
4 19 39 51 13
4 50 67 39 13
4 19 61 54 3
4 14 0 12 49
4 5 35 25 3
4 15 12 51 49
4 16 54 35 3
CELL_TYPES 64
8
8
8
8
8
8
8
8
8
8
8
8
8
8
8
8
8
8
8
8
8
8
8
8
8
8
8
8
8
8
8
8
8
8
8
8
8
8
8
8
8
8
8
8
8
8
8
8
8
8
8
8
8
8
8
8
8
8
8
8
8
8
8
8
CELL_DATA 64
VECTORS vector_value float
-0.931782 -1.4763 0
-0.135583 -0.598941 0
0.0247145 -0.41074 0
-0.629369 -1.51583 0
-0.6224 -1.34725 0
-1.62749 -2.10742 0
-0.469758 -2.14481 0
-1.21977 -2.01946 0
-0.151234 -0.655251 0
-0.465308 -0.814998 0
-0.0844218 -0.592955 0
-0.00527829 -0.47842 0
-0.220496 -2.30631 0
-0.0240175 -1.86072 0
-0.434685 -2.70403 0
-1.34212 -2.59235 0
0.0951326 -1.00488 0
-0.345363 -1.22298 0
0.223699 -0.853835 0
-0.0529288 -0.920279 0
-0.391825 -1.21846 0
0.729205 -1.78593 0
0.539269 -1.65422 0
-0.016243 -1.26546 0
-0.0445652 -0.102299 0
0.233751 -1.64313 0
0.195978 -0.634783 0
-0.16185 -0.984825 0
-0.629789 -0.761599 0
-0.067183 -0.123285 0
0.056348 -0.536365 0
-0.175349 -0.373911 0
-0.0130308 -0.266089 0
0.0179545 -0.277728 0
-0.0144313 -0.132564 0
0.439838 -0.701859 0
-0.0364982 -0.333 0
0.271476 -0.770478 0
0.458322 -0.621185 0
0.148175 -0.296486 0
0.0371437 -0.216991 0
0.0281745 -0.270653 0
0.13156 -0.744163 0
0.238372 -0.570024 0
0.0705224 -0.22288 0
0.224023 -0.607547 0
0.0225866 -0.366169 0
-0.317281 -1.97639 0
-1.50839 -0.995893 0
-0.29989 -0.450947 0
-0.0389559 -2.56717 0
-0.0941483 -0.572227 0
-0.959076 -1.67306 0
-1.01649 -3.93407 0
-0.0283065 -0.00861253 0
-0.0374965 -0.498485 0
-0.0170416 -0.222658 0
-0.0871585 -0.242203 0
0.351479 -4.11256 0
-0.157732 -0.0375112 0
-0.0453858 -0.417311 0
-0.142606 -0.967191 0
-0.0762007 -0.0441159 0
-0.824276 -0.169752 0
