# vtk DataFile Version 2.0
Unstructured Grid by M++
ASCII
DATASET UNSTRUCTURED_GRID
POINTS 81 float
  1.000000   0.625000 0
  0.750000   0.375000 0
  1.000000   0.000000 0
  0.875000   0.875000 0
  0.750000   0.125000 0
  1.000000   1.000000 0
  0.875000   0.250000 0
  0.625000   0.875000 0
  1.000000   0.750000 0
  0.875000   0.000000 0
  1.000000   0.250000 0
  0.625000   0.375000 0
  0.875000   0.500000 0
  0.625000   0.625000 0
  1.000000   0.500000 0
  0.750000   0.500000 0
  0.750000   1.000000 0
  1.000000   0.125000 0
  0.625000   0.250000 0
  0.750000   0.750000 0
  0.625000   0.000000 0
  0.125000   0.375000 0
  0.000000   0.500000 0
  0.125000   0.625000 0
  0.625000   1.000000 0
  1.000000   0.875000 0
  0.875000   0.125000 0
  0.500000   0.250000 0
  0.625000   0.500000 0
  0.250000   0.625000 0
  0.000000   0.625000 0
  0.375000   0.500000 0
  0.375000   0.000000 0
  0.000000   0.125000 0
  0.125000   0.875000 0
  0.875000   1.000000 0
  0.750000   0.250000 0
  0.375000   0.375000 0
  0.250000   0.375000 0
  0.625000   0.750000 0
  0.125000   0.125000 0
  0.500000   0.000000 0
  0.250000   0.875000 0
  0.125000   0.500000 0
  0.500000   0.375000 0
  0.125000   0.000000 0
  0.250000   0.750000 0
  0.250000   0.500000 0
  0.000000   0.875000 0
  0.875000   0.625000 0
  0.500000   0.750000 0
  0.750000   0.625000 0
  0.250000   0.000000 0
  0.375000   0.750000 0
  0.750000   0.875000 0
  0.625000   0.125000 0
  0.250000   0.250000 0
  0.375000   1.000000 0
  0.375000   0.250000 0
  0.000000   0.375000 0
  0.500000   1.000000 0
  0.875000   0.750000 0
  0.750000   0.000000 0
  0.375000   0.125000 0
  0.500000   0.875000 0
  0.000000   0.000000 0
  0.125000   0.750000 0
  0.500000   0.625000 0
  0.125000   0.250000 0
  0.500000   0.125000 0
  0.250000   1.000000 0
  0.250000   0.125000 0
  0.000000   1.000000 0
  0.375000   0.875000 0
  0.000000   0.750000 0
  0.375000   0.625000 0
  0.000000   0.250000 0
  0.125000   1.000000 0
  1.000000   0.375000 0
  0.500000   0.500000 0
  0.875000   0.375000 0
CELLS 64 320
4 56 71 58 63
4 27 58 69 63
4 41 69 32 63
4 76 33 68 40
4 27 44 58 37
4 79 31 44 37
4 56 38 68 21
4 56 58 38 37
4 52 32 71 63
4 47 38 31 37
4 76 68 59 21
4 22 59 43 21
4 65 45 33 40
4 47 43 38 21
4 52 71 45 40
4 56 68 71 40
4 74 30 66 23
4 46 66 29 23
4 22 43 30 23
4 72 48 77 34
4 46 53 42 73
4 50 64 53 73
4 70 42 57 73
4 74 66 48 34
4 46 42 66 34
4 47 29 43 23
4 70 77 42 34
4 60 57 64 73
4 79 67 31 75
4 47 31 29 75
4 50 53 67 75
4 46 29 53 75
4 10 78 6 80
4 36 6 1 80
4 15 1 12 80
4 36 4 6 26
4 14 12 78 80
4 2 17 9 26
4 36 18 4 55
4 15 28 1 11
4 62 4 20 55
4 10 6 17 26
4 27 18 44 11
4 62 9 4 26
4 27 69 18 55
4 36 1 18 11
4 41 20 69 55
4 79 44 28 11
4 16 24 54 7
4 19 54 39 7
4 50 39 64 7
4 8 25 61 3
4 60 64 24 7
4 79 28 67 13
4 19 51 61 49
4 8 61 0 49
4 15 51 28 13
4 19 39 51 13
4 50 67 39 13
4 19 61 54 3
4 14 0 12 49
4 5 35 25 3
4 15 12 51 49
4 16 54 35 3
CELL_TYPES 64
8
8
8
8
8
8
8
8
8
8
8
8
8
8
8
8
8
8
8
8
8
8
8
8
8
8
8
8
8
8
8
8
8
8
8
8
8
8
8
8
8
8
8
8
8
8
8
8
8
8
8
8
8
8
8
8
8
8
8
8
8
8
8
8
CELL_DATA 64
VECTORS vector_value float
0.0053759 -0.0246279 0
0.0162285 -0.162405 0
0.0256752 -0.0989558 0
0.00168711 -3.79372 0
0.569644 -0.677465 0
0.164413 -0.775458 0
0.139866 -0.397903 0
0.0933912 -0.0734181 0
0.0178106 -0.0613619 0
0.192664 -0.209752 0
0.0552553 -4.1592 0
-0.415304 -3.50967 0
-0.0274896 -3.86092 0
-0.433518 -1.1897 0
-0.0171428 -0.651176 0
0.0502114 -0.75513 0
-0.607561 -2.93161 0
-0.285364 -0.493442 0
-0.0406225 -2.91873 0
-0.0204797 -0.904112 0
-0.514515 -2.10548 0
-0.428412 -1.1102 0
-1.1312 -2.11458 0
-0.380527 -1.26806 0
-1.39285 -1.5994 0
-0.608131 -1.65742 0
-0.142431 -0.983083 0
-1.74344 -1.04186 0
0.130515 -0.579817 0
-0.0382144 -0.61782 0
0.146718 -1.04514 0
-0.665117 -1.72891 0
-0.0224383 -0.170994 0
0.00905809 -0.303122 0
-0.101455 -0.117775 0
0.00509139 -0.416199 0
-0.0663447 -0.286728 0
-0.026827 -0.0443454 0
0.0897129 -0.701996 0
0.0763145 -1.03503 0
0.35047 -1.35062 0
-0.0299841 -0.132044 0
0.320208 -1.75287 0
-0.0533619 -0.498823 0
0.132819 -2.01387 0
0.117197 -0.465031 0
0.338506 -1.4338 0
0.15772 -0.875887 0
-0.895689 -0.400418 0
-1.10843 -0.84951 0
-0.768443 -0.563323 0
0.0194423 -0.332672 0
-1.38269 -0.63956 0
0.398635 -1.50076 0
0.00129086 -0.00732163 0
0.0509456 -0.451782 0
0.144285 -0.264019 0
0.0030272 -0.0578017 0
-0.0296487 -1.28399 0
0.0341896 -0.171364 0
-0.0696095 -0.429796 0
-0.337483 -0.430942 0
-0.0298014 -0.0316485 0
-1.08015 -1.48545 0
