# vtk DataFile Version 2.0
Unstructured Grid by M++
ASCII
DATASET UNSTRUCTURED_GRID
POINTS 81 float
  1.000000   0.625000 0
  0.750000   0.375000 0
  1.000000   0.000000 0
  0.875000   0.875000 0
  0.750000   0.125000 0
  1.000000   1.000000 0
  0.875000   0.250000 0
  0.625000   0.875000 0
  1.000000   0.750000 0
  0.875000   0.000000 0
  1.000000   0.250000 0
  0.625000   0.375000 0
  0.875000   0.500000 0
  0.625000   0.625000 0
  1.000000   0.500000 0
  0.750000   0.500000 0
  0.750000   1.000000 0
  1.000000   0.125000 0
  0.625000   0.250000 0
  0.750000   0.750000 0
  0.625000   0.000000 0
  0.125000   0.375000 0
  0.000000   0.500000 0
  0.125000   0.625000 0
  0.625000   1.000000 0
  1.000000   0.875000 0
  0.875000   0.125000 0
  0.500000   0.250000 0
  0.625000   0.500000 0
  0.250000   0.625000 0
  0.000000   0.625000 0
  0.375000   0.500000 0
  0.375000   0.000000 0
  0.000000   0.125000 0
  0.125000   0.875000 0
  0.875000   1.000000 0
  0.750000   0.250000 0
  0.375000   0.375000 0
  0.250000   0.375000 0
  0.625000   0.750000 0
  0.125000   0.125000 0
  0.500000   0.000000 0
  0.250000   0.875000 0
  0.125000   0.500000 0
  0.500000   0.375000 0
  0.125000   0.000000 0
  0.250000   0.750000 0
  0.250000   0.500000 0
  0.000000   0.875000 0
  0.875000   0.625000 0
  0.500000   0.750000 0
  0.750000   0.625000 0
  0.250000   0.000000 0
  0.375000   0.750000 0
  0.750000   0.875000 0
  0.625000   0.125000 0
  0.250000   0.250000 0
  0.375000   1.000000 0
  0.375000   0.250000 0
  0.000000   0.375000 0
  0.500000   1.000000 0
  0.875000   0.750000 0
  0.750000   0.000000 0
  0.375000   0.125000 0
  0.500000   0.875000 0
  0.000000   0.000000 0
  0.125000   0.750000 0
  0.500000   0.625000 0
  0.125000   0.250000 0
  0.500000   0.125000 0
  0.250000   1.000000 0
  0.250000   0.125000 0
  0.000000   1.000000 0
  0.375000   0.875000 0
  0.000000   0.750000 0
  0.375000   0.625000 0
  0.000000   0.250000 0
  0.125000   1.000000 0
  1.000000   0.375000 0
  0.500000   0.500000 0
  0.875000   0.375000 0
CELLS 64 320
4 56 71 58 63
4 27 58 69 63
4 41 69 32 63
4 76 33 68 40
4 27 44 58 37
4 79 31 44 37
4 56 38 68 21
4 56 58 38 37
4 52 32 71 63
4 47 38 31 37
4 76 68 59 21
4 22 59 43 21
4 65 45 33 40
4 47 43 38 21
4 52 71 45 40
4 56 68 71 40
4 74 30 66 23
4 46 66 29 23
4 22 43 30 23
4 72 48 77 34
4 46 53 42 73
4 50 64 53 73
4 70 42 57 73
4 74 66 48 34
4 46 42 66 34
4 47 29 43 23
4 70 77 42 34
4 60 57 64 73
4 79 67 31 75
4 47 31 29 75
4 50 53 67 75
4 46 29 53 75
4 10 78 6 80
4 36 6 1 80
4 15 1 12 80
4 36 4 6 26
4 14 12 78 80
4 2 17 9 26
4 36 18 4 55
4 15 28 1 11
4 62 4 20 55
4 10 6 17 26
4 27 18 44 11
4 62 9 4 26
4 27 69 18 55
4 36 1 18 11
4 41 20 69 55
4 79 44 28 11
4 16 24 54 7
4 19 54 39 7
4 50 39 64 7
4 8 25 61 3
4 60 64 24 7
4 79 28 67 13
4 19 51 61 49
4 8 61 0 49
4 15 51 28 13
4 19 39 51 13
4 50 67 39 13
4 19 61 54 3
4 14 0 12 49
4 5 35 25 3
4 15 12 51 49
4 16 54 35 3
CELL_TYPES 64
8
8
8
8
8
8
8
8
8
8
8
8
8
8
8
8
8
8
8
8
8
8
8
8
8
8
8
8
8
8
8
8
8
8
8
8
8
8
8
8
8
8
8
8
8
8
8
8
8
8
8
8
8
8
8
8
8
8
8
8
8
8
8
8
CELL_DATA 64
VECTORS vector_value float
-1.15579 -0.884391 0
-0.942316 -0.883335 0
-0.058042 -0.197301 0
-0.360418 -0.77431 0
-0.71245 -0.944663 0
-0.488193 -0.705161 0
-0.178712 -0.445017 0
-0.718304 -1.51493 0
-0.503725 -0.700787 0
-0.0187418 -1.01845 0
-0.0687687 -0.250898 0
0.0403478 -0.154975 0
-0.225823 -1.38029 0
0.20496 -0.476853 0
-0.640918 -1.75311 0
-1.16851 -1.30362 0
0.284018 -1.05976 0
0.148207 -0.143691 0
0.190346 -0.450789 0
-0.135177 -1.23135 0
0.546191 -0.213218 0
0.8311 -0.448034 0
0.642784 -0.231073 0
0.0476935 -1.25022 0
0.219452 -0.173525 0
0.473155 -0.616546 0
0.0787026 -0.791033 0
1.17775 -1.08348 0
-0.232628 -0.65598 0
0.0618369 -0.233839 0
-0.0177233 -0.291398 0
0.0780027 -0.113231 0
-0.246632 -0.732049 0
-0.351847 -1.09342 0
-0.170634 -1.22321 0
-0.212781 -1.12944 0
-0.0234837 -0.985065 0
0.0612989 -0.408884 0
-0.326519 -1.46775 0
-0.579164 -1.95233 0
-0.00265963 -1.25538 0
-0.0360051 -0.300189 0
-0.621299 -1.44638 0
0.0884288 -1.06784 0
-0.512472 -1.25696 0
-0.432194 -1.57265 0
-0.0429615 -1.23642 0
-0.842944 -1.48396 0
-0.296445 -1.90018 0
0.766832 -3.21049 0
1.49391 -1.89371 0
-0.0548115 -0.162161 0
0.7018 -1.48199 0
-0.260457 -1.02721 0
0.736599 -1.11568 0
0.193006 -0.358694 0
-0.168564 -2.75496 0
0.642681 -3.68627 0
-0.0724315 -1.23128 0
-0.0887334 -0.648637 0
0.18682 -0.811194 0
-0.365534 -0.398902 0
0.298248 -1.44949 0
-0.84174 -0.881995 0
