# vtk DataFile Version 2.0
Unstructured Grid by M++
ASCII
DATASET UNSTRUCTURED_GRID
POINTS 81 float
  1.000000   0.625000 0
  0.750000   0.375000 0
  1.000000   0.000000 0
  0.875000   0.875000 0
  0.750000   0.125000 0
  1.000000   1.000000 0
  0.875000   0.250000 0
  0.625000   0.875000 0
  1.000000   0.750000 0
  0.875000   0.000000 0
  1.000000   0.250000 0
  0.625000   0.375000 0
  0.875000   0.500000 0
  0.625000   0.625000 0
  1.000000   0.500000 0
  0.750000   0.500000 0
  0.750000   1.000000 0
  1.000000   0.125000 0
  0.625000   0.250000 0
  0.750000   0.750000 0
  0.625000   0.000000 0
  0.125000   0.375000 0
  0.000000   0.500000 0
  0.125000   0.625000 0
  0.625000   1.000000 0
  1.000000   0.875000 0
  0.875000   0.125000 0
  0.500000   0.250000 0
  0.625000   0.500000 0
  0.250000   0.625000 0
  0.000000   0.625000 0
  0.375000   0.500000 0
  0.375000   0.000000 0
  0.000000   0.125000 0
  0.125000   0.875000 0
  0.875000   1.000000 0
  0.750000   0.250000 0
  0.375000   0.375000 0
  0.250000   0.375000 0
  0.625000   0.750000 0
  0.125000   0.125000 0
  0.500000   0.000000 0
  0.250000   0.875000 0
  0.125000   0.500000 0
  0.500000   0.375000 0
  0.125000   0.000000 0
  0.250000   0.750000 0
  0.250000   0.500000 0
  0.000000   0.875000 0
  0.875000   0.625000 0
  0.500000   0.750000 0
  0.750000   0.625000 0
  0.250000   0.000000 0
  0.375000   0.750000 0
  0.750000   0.875000 0
  0.625000   0.125000 0
  0.250000   0.250000 0
  0.375000   1.000000 0
  0.375000   0.250000 0
  0.000000   0.375000 0
  0.500000   1.000000 0
  0.875000   0.750000 0
  0.750000   0.000000 0
  0.375000   0.125000 0
  0.500000   0.875000 0
  0.000000   0.000000 0
  0.125000   0.750000 0
  0.500000   0.625000 0
  0.125000   0.250000 0
  0.500000   0.125000 0
  0.250000   1.000000 0
  0.250000   0.125000 0
  0.000000   1.000000 0
  0.375000   0.875000 0
  0.000000   0.750000 0
  0.375000   0.625000 0
  0.000000   0.250000 0
  0.125000   1.000000 0
  1.000000   0.375000 0
  0.500000   0.500000 0
  0.875000   0.375000 0
CELLS 64 320
4 56 71 58 63
4 27 58 69 63
4 41 69 32 63
4 76 33 68 40
4 27 44 58 37
4 79 31 44 37
4 56 38 68 21
4 56 58 38 37
4 52 32 71 63
4 47 38 31 37
4 76 68 59 21
4 22 59 43 21
4 65 45 33 40
4 47 43 38 21
4 52 71 45 40
4 56 68 71 40
4 74 30 66 23
4 46 66 29 23
4 22 43 30 23
4 72 48 77 34
4 46 53 42 73
4 50 64 53 73
4 70 42 57 73
4 74 66 48 34
4 46 42 66 34
4 47 29 43 23
4 70 77 42 34
4 60 57 64 73
4 79 67 31 75
4 47 31 29 75
4 50 53 67 75
4 46 29 53 75
4 10 78 6 80
4 36 6 1 80
4 15 1 12 80
4 36 4 6 26
4 14 12 78 80
4 2 17 9 26
4 36 18 4 55
4 15 28 1 11
4 62 4 20 55
4 10 6 17 26
4 27 18 44 11
4 62 9 4 26
4 27 69 18 55
4 36 1 18 11
4 41 20 69 55
4 79 44 28 11
4 16 24 54 7
4 19 54 39 7
4 50 39 64 7
4 8 25 61 3
4 60 64 24 7
4 79 28 67 13
4 19 51 61 49
4 8 61 0 49
4 15 51 28 13
4 19 39 51 13
4 50 67 39 13
4 19 61 54 3
4 14 0 12 49
4 5 35 25 3
4 15 12 51 49
4 16 54 35 3
CELL_TYPES 64
8
8
8
8
8
8
8
8
8
8
8
8
8
8
8
8
8
8
8
8
8
8
8
8
8
8
8
8
8
8
8
8
8
8
8
8
8
8
8
8
8
8
8
8
8
8
8
8
8
8
8
8
8
8
8
8
8
8
8
8
8
8
8
8
CELL_DATA 64
VECTORS vector_value float
-0.0844969 -3.37493 0
0.42352 -0.376008 0
0.365796 -0.674561 0
-0.00658301 -0.241338 0
0.0151445 -0.327852 0
-0.476206 -1.18347 0
2.10974 -2.15455 0
0.369088 -2.19195 0
-0.0339224 -1.0571 0
-0.116573 -0.857141 0
0.81775 -1.00849 0
0.0567571 -2.65566 0
-0.0143809 -0.284885 0
-0.111586 -0.980493 0
-0.491191 -3.04043 0
-0.40834 -1.515 0
-0.0854554 -0.34326 0
-0.292747 -2.86254 0
-0.803331 -1.46498 0
0.405861 -0.713419 0
-0.439623 -1.27226 0
-0.076258 -1.14499 0
-0.555817 -0.710107 0
-0.0154573 -0.176103 0
-0.167016 -2.47576 0
-1.09706 -2.05241 0
0.0712334 -1.6059 0
-0.934218 -1.30522 0
-0.365355 -1.30689 0
-0.37569 -0.747515 0
-0.111149 -1.21998 0
-0.12248 -0.7141 0
-0.117881 -1.32548 0
-0.288796 -0.509179 0
-0.196266 -0.21534 0
-0.115558 -0.34525 0
-0.150541 -1.73415 0
-0.0551614 -1.03231 0
-0.181491 -0.580804 0
-0.11459 -0.222545 0
-0.0737378 -0.336737 0
-0.0753627 -1.23346 0
0.0271064 -0.131816 0
-0.0782318 -0.521829 0
0.0746712 -0.333211 0
-0.0668678 -0.350678 0
0.0838242 -1.05215 0
-0.0402344 -0.151203 0
-0.272113 -0.761082 0
-0.0447052 -0.116033 0
-0.0392773 -0.651715 0
0.475528 -1.64136 0
-0.88254 -1.07259 0
-0.0932015 -0.233241 0
0.0134715 -0.183643 0
0.0369965 -1.98118 0
-0.0248138 -0.0714677 0
-0.0114586 -0.0234909 0
-0.199424 -0.671804 0
0.373503 -0.521782 0
-0.0918007 -1.97196 0
-0.0148139 -0.880702 0
-0.112266 -0.151531 0
0.184333 -0.950975 0
