# vtk DataFile Version 2.0
Unstructured Grid by M++
ASCII
DATASET UNSTRUCTURED_GRID
POINTS 81 float
  1.000000   0.625000 0
  0.750000   0.375000 0
  1.000000   0.000000 0
  0.875000   0.875000 0
  0.750000   0.125000 0
  1.000000   1.000000 0
  0.875000   0.250000 0
  0.625000   0.875000 0
  1.000000   0.750000 0
  0.875000   0.000000 0
  1.000000   0.250000 0
  0.625000   0.375000 0
  0.875000   0.500000 0
  0.625000   0.625000 0
  1.000000   0.500000 0
  0.750000   0.500000 0
  0.750000   1.000000 0
  1.000000   0.125000 0
  0.625000   0.250000 0
  0.750000   0.750000 0
  0.625000   0.000000 0
  0.125000   0.375000 0
  0.000000   0.500000 0
  0.125000   0.625000 0
  0.625000   1.000000 0
  1.000000   0.875000 0
  0.875000   0.125000 0
  0.500000   0.250000 0
  0.625000   0.500000 0
  0.250000   0.625000 0
  0.000000   0.625000 0
  0.375000   0.500000 0
  0.375000   0.000000 0
  0.000000   0.125000 0
  0.125000   0.875000 0
  0.875000   1.000000 0
  0.750000   0.250000 0
  0.375000   0.375000 0
  0.250000   0.375000 0
  0.625000   0.750000 0
  0.125000   0.125000 0
  0.500000   0.000000 0
  0.250000   0.875000 0
  0.125000   0.500000 0
  0.500000   0.375000 0
  0.125000   0.000000 0
  0.250000   0.750000 0
  0.250000   0.500000 0
  0.000000   0.875000 0
  0.875000   0.625000 0
  0.500000   0.750000 0
  0.750000   0.625000 0
  0.250000   0.000000 0
  0.375000   0.750000 0
  0.750000   0.875000 0
  0.625000   0.125000 0
  0.250000   0.250000 0
  0.375000   1.000000 0
  0.375000   0.250000 0
  0.000000   0.375000 0
  0.500000   1.000000 0
  0.875000   0.750000 0
  0.750000   0.000000 0
  0.375000   0.125000 0
  0.500000   0.875000 0
  0.000000   0.000000 0
  0.125000   0.750000 0
  0.500000   0.625000 0
  0.125000   0.250000 0
  0.500000   0.125000 0
  0.250000   1.000000 0
  0.250000   0.125000 0
  0.000000   1.000000 0
  0.375000   0.875000 0
  0.000000   0.750000 0
  0.375000   0.625000 0
  0.000000   0.250000 0
  0.125000   1.000000 0
  1.000000   0.375000 0
  0.500000   0.500000 0
  0.875000   0.375000 0
CELLS 64 320
4 56 71 58 63
4 27 58 69 63
4 41 69 32 63
4 76 33 68 40
4 27 44 58 37
4 79 31 44 37
4 56 38 68 21
4 56 58 38 37
4 52 32 71 63
4 47 38 31 37
4 76 68 59 21
4 22 59 43 21
4 65 45 33 40
4 47 43 38 21
4 52 71 45 40
4 56 68 71 40
4 74 30 66 23
4 46 66 29 23
4 22 43 30 23
4 72 48 77 34
4 46 53 42 73
4 50 64 53 73
4 70 42 57 73
4 74 66 48 34
4 46 42 66 34
4 47 29 43 23
4 70 77 42 34
4 60 57 64 73
4 79 67 31 75
4 47 31 29 75
4 50 53 67 75
4 46 29 53 75
4 10 78 6 80
4 36 6 1 80
4 15 1 12 80
4 36 4 6 26
4 14 12 78 80
4 2 17 9 26
4 36 18 4 55
4 15 28 1 11
4 62 4 20 55
4 10 6 17 26
4 27 18 44 11
4 62 9 4 26
4 27 69 18 55
4 36 1 18 11
4 41 20 69 55
4 79 44 28 11
4 16 24 54 7
4 19 54 39 7
4 50 39 64 7
4 8 25 61 3
4 60 64 24 7
4 79 28 67 13
4 19 51 61 49
4 8 61 0 49
4 15 51 28 13
4 19 39 51 13
4 50 67 39 13
4 19 61 54 3
4 14 0 12 49
4 5 35 25 3
4 15 12 51 49
4 16 54 35 3
CELL_TYPES 64
8
8
8
8
8
8
8
8
8
8
8
8
8
8
8
8
8
8
8
8
8
8
8
8
8
8
8
8
8
8
8
8
8
8
8
8
8
8
8
8
8
8
8
8
8
8
8
8
8
8
8
8
8
8
8
8
8
8
8
8
8
8
8
8
CELL_DATA 64
VECTORS vector_value float
0.17826 -2.08696 0
0.197721 -2.20039 0
0.582812 -2.70446 0
-0.0249262 -1.64594 0
0.409233 -1.82192 0
-0.602871 -2.18689 0
0.0612436 -1.23036 0
0.548869 -2.31763 0
0.224401 -1.02296 0
-0.347729 -1.58245 0
-0.234243 -1.32758 0
-0.437872 -0.594229 0
-0.0475967 -1.74156 0
-0.472588 -2.3342 0
-0.179171 -0.637782 0
-0.0244998 -0.485779 0
-0.0511575 -0.0871868 0
-0.502387 -1.85531 0
-0.0642059 -0.212947 0
0.457384 -0.332819 0
0.120331 -0.765216 0
-0.0227363 -2.94112 0
0.548615 -0.643843 0
0.0239045 -0.0438866 0
0.0547676 -1.29775 0
-0.25021 -2.28927 0
0.722531 -1.59464 0
-0.0876318 -2.01002 0
-0.257043 -2.09581 0
-0.616142 -1.56275 0
-1.37688 -2.61703 0
-1.01003 -0.638031 0
-0.0623972 -0.686907 0
-0.167721 -0.436782 0
-0.0176553 -0.0627845 0
-0.200218 -0.321069 0
-0.138096 -0.981283 0
0.0188823 -0.580998 0
-0.126957 -0.466682 0
0.0795585 -0.1008 0
-0.0993606 -0.679059 0
-0.0368529 -0.547649 0
0.0330872 -0.05343 0
-0.0213838 -0.0571102 0
0.194175 -0.245527 0
0.028549 -0.125406 0
0.13035 -0.576065 0
0.02343 -0.157366 0
-0.495565 -1.01788 0
-0.671101 -1.00164 0
-0.574686 -0.858155 0
-0.1017 -0.920618 0
-0.511184 -0.482488 0
-0.289071 -0.730003 0
0.0160666 -0.279503 0
0.00103841 -0.734793 0
0.020486 -0.103188 0
-0.274532 -0.235763 0
-0.879176 -1.55239 0
-0.111388 -0.17162 0
0.132013 -0.960049 0
-0.019242 -1.02192 0
0.0645025 -0.0459824 0
-0.456214 -0.896389 0
