# vtk DataFile Version 2.0
Unstructured Grid by M++
ASCII
DATASET UNSTRUCTURED_GRID
POINTS 81 float
  1.000000   0.625000 0
  0.750000   0.375000 0
  1.000000   0.000000 0
  0.875000   0.875000 0
  0.750000   0.125000 0
  1.000000   1.000000 0
  0.875000   0.250000 0
  0.625000   0.875000 0
  1.000000   0.750000 0
  0.875000   0.000000 0
  1.000000   0.250000 0
  0.625000   0.375000 0
  0.875000   0.500000 0
  0.625000   0.625000 0
  1.000000   0.500000 0
  0.750000   0.500000 0
  0.750000   1.000000 0
  1.000000   0.125000 0
  0.625000   0.250000 0
  0.750000   0.750000 0
  0.625000   0.000000 0
  0.125000   0.375000 0
  0.000000   0.500000 0
  0.125000   0.625000 0
  0.625000   1.000000 0
  1.000000   0.875000 0
  0.875000   0.125000 0
  0.500000   0.250000 0
  0.625000   0.500000 0
  0.250000   0.625000 0
  0.000000   0.625000 0
  0.375000   0.500000 0
  0.375000   0.000000 0
  0.000000   0.125000 0
  0.125000   0.875000 0
  0.875000   1.000000 0
  0.750000   0.250000 0
  0.375000   0.375000 0
  0.250000   0.375000 0
  0.625000   0.750000 0
  0.125000   0.125000 0
  0.500000   0.000000 0
  0.250000   0.875000 0
  0.125000   0.500000 0
  0.500000   0.375000 0
  0.125000   0.000000 0
  0.250000   0.750000 0
  0.250000   0.500000 0
  0.000000   0.875000 0
  0.875000   0.625000 0
  0.500000   0.750000 0
  0.750000   0.625000 0
  0.250000   0.000000 0
  0.375000   0.750000 0
  0.750000   0.875000 0
  0.625000   0.125000 0
  0.250000   0.250000 0
  0.375000   1.000000 0
  0.375000   0.250000 0
  0.000000   0.375000 0
  0.500000   1.000000 0
  0.875000   0.750000 0
  0.750000   0.000000 0
  0.375000   0.125000 0
  0.500000   0.875000 0
  0.000000   0.000000 0
  0.125000   0.750000 0
  0.500000   0.625000 0
  0.125000   0.250000 0
  0.500000   0.125000 0
  0.250000   1.000000 0
  0.250000   0.125000 0
  0.000000   1.000000 0
  0.375000   0.875000 0
  0.000000   0.750000 0
  0.375000   0.625000 0
  0.000000   0.250000 0
  0.125000   1.000000 0
  1.000000   0.375000 0
  0.500000   0.500000 0
  0.875000   0.375000 0
CELLS 64 320
4 56 71 58 63
4 27 58 69 63
4 41 69 32 63
4 76 33 68 40
4 27 44 58 37
4 79 31 44 37
4 56 38 68 21
4 56 58 38 37
4 52 32 71 63
4 47 38 31 37
4 76 68 59 21
4 22 59 43 21
4 65 45 33 40
4 47 43 38 21
4 52 71 45 40
4 56 68 71 40
4 74 30 66 23
4 46 66 29 23
4 22 43 30 23
4 72 48 77 34
4 46 53 42 73
4 50 64 53 73
4 70 42 57 73
4 74 66 48 34
4 46 42 66 34
4 47 29 43 23
4 70 77 42 34
4 60 57 64 73
4 79 67 31 75
4 47 31 29 75
4 50 53 67 75
4 46 29 53 75
4 10 78 6 80
4 36 6 1 80
4 15 1 12 80
4 36 4 6 26
4 14 12 78 80
4 2 17 9 26
4 36 18 4 55
4 15 28 1 11
4 62 4 20 55
4 10 6 17 26
4 27 18 44 11
4 62 9 4 26
4 27 69 18 55
4 36 1 18 11
4 41 20 69 55
4 79 44 28 11
4 16 24 54 7
4 19 54 39 7
4 50 39 64 7
4 8 25 61 3
4 60 64 24 7
4 79 28 67 13
4 19 51 61 49
4 8 61 0 49
4 15 51 28 13
4 19 39 51 13
4 50 67 39 13
4 19 61 54 3
4 14 0 12 49
4 5 35 25 3
4 15 12 51 49
4 16 54 35 3
CELL_TYPES 64
8
8
8
8
8
8
8
8
8
8
8
8
8
8
8
8
8
8
8
8
8
8
8
8
8
8
8
8
8
8
8
8
8
8
8
8
8
8
8
8
8
8
8
8
8
8
8
8
8
8
8
8
8
8
8
8
8
8
8
8
8
8
8
8
CELL_DATA 64
VECTORS vector_value float
0.00931577 -0.162829 0
-0.34421 -0.476656 0
-0.140916 -0.196234 0
0.165665 -2.72935 0
-0.00235264 -0.0300746 0
0.00632542 -0.0269994 0
-0.184501 -0.555511 0
-0.00221934 -0.239691 0
-0.140062 -0.799467 0
-0.193105 -0.35899 0
-0.546735 -2.45286 0
-0.188144 -1.19187 0
0.138031 -2.09681 0
-1.00247 -1.70229 0
0.456373 -0.73386 0
-0.036112 -0.302376 0
-0.124673 -1.14019 0
0.0986924 -1.03279 0
0.0153566 -1.22082 0
0.0793946 -0.724237 0
0.259856 -0.339287 0
-0.157079 -1.10458 0
-0.316904 -0.467711 0
-0.0642952 -0.9067 0
0.00611164 -1.55921 0
-0.0394142 -0.717705 0
-0.186359 -1.84772 0
0.219221 -0.550942 0
0.0278443 -0.13566 0
-0.452237 -1.28412 0
0.139426 -1.69925 0
0.0816089 -0.518494 0
0.17971 -0.454024 0
0.953041 -1.36033 0
0.0964747 -0.26786 0
-0.690743 -1.4089 0
0.0376528 -0.135017 0
-0.0141363 -0.154498 0
-0.0869555 -1.5899 0
0.408142 -3.63679 0
-0.403873 -3.31933 0
-0.167071 -0.456049 0
-0.321127 -1.10823 0
-0.246571 -0.462016 0
-0.0130357 -0.873935 0
0.155004 -1.79927 0
0.0843209 -0.237779 0
-0.0333345 -0.680189 0
-0.734246 -1.22236 0
-0.124152 -0.533553 0
-0.626956 -2.2191 0
-0.183208 -0.75736 0
-0.0086072 -1.69573 0
0.685559 -0.90827 0
-0.670082 -1.02489 0
-0.162 -0.215523 0
0.276912 -3.36512 0
0.218037 -1.13954 0
0.801973 -1.22933 0
-0.0746592 -0.580215 0
6.07913e-05 -0.0654721 0
-0.116116 -0.799655 0
-0.0926917 -0.30283 0
-0.430358 -0.691634 0
