# vtk DataFile Version 2.0
Unstructured Grid by M++
ASCII
DATASET UNSTRUCTURED_GRID
POINTS 81 float
  1.000000   0.625000 0
  0.750000   0.375000 0
  1.000000   0.000000 0
  0.875000   0.875000 0
  0.750000   0.125000 0
  1.000000   1.000000 0
  0.875000   0.250000 0
  0.625000   0.875000 0
  1.000000   0.750000 0
  0.875000   0.000000 0
  1.000000   0.250000 0
  0.625000   0.375000 0
  0.875000   0.500000 0
  0.625000   0.625000 0
  1.000000   0.500000 0
  0.750000   0.500000 0
  0.750000   1.000000 0
  1.000000   0.125000 0
  0.625000   0.250000 0
  0.750000   0.750000 0
  0.625000   0.000000 0
  0.125000   0.375000 0
  0.000000   0.500000 0
  0.125000   0.625000 0
  0.625000   1.000000 0
  1.000000   0.875000 0
  0.875000   0.125000 0
  0.500000   0.250000 0
  0.625000   0.500000 0
  0.250000   0.625000 0
  0.000000   0.625000 0
  0.375000   0.500000 0
  0.375000   0.000000 0
  0.000000   0.125000 0
  0.125000   0.875000 0
  0.875000   1.000000 0
  0.750000   0.250000 0
  0.375000   0.375000 0
  0.250000   0.375000 0
  0.625000   0.750000 0
  0.125000   0.125000 0
  0.500000   0.000000 0
  0.250000   0.875000 0
  0.125000   0.500000 0
  0.500000   0.375000 0
  0.125000   0.000000 0
  0.250000   0.750000 0
  0.250000   0.500000 0
  0.000000   0.875000 0
  0.875000   0.625000 0
  0.500000   0.750000 0
  0.750000   0.625000 0
  0.250000   0.000000 0
  0.375000   0.750000 0
  0.750000   0.875000 0
  0.625000   0.125000 0
  0.250000   0.250000 0
  0.375000   1.000000 0
  0.375000   0.250000 0
  0.000000   0.375000 0
  0.500000   1.000000 0
  0.875000   0.750000 0
  0.750000   0.000000 0
  0.375000   0.125000 0
  0.500000   0.875000 0
  0.000000   0.000000 0
  0.125000   0.750000 0
  0.500000   0.625000 0
  0.125000   0.250000 0
  0.500000   0.125000 0
  0.250000   1.000000 0
  0.250000   0.125000 0
  0.000000   1.000000 0
  0.375000   0.875000 0
  0.000000   0.750000 0
  0.375000   0.625000 0
  0.000000   0.250000 0
  0.125000   1.000000 0
  1.000000   0.375000 0
  0.500000   0.500000 0
  0.875000   0.375000 0
CELLS 64 320
4 56 71 58 63
4 27 58 69 63
4 41 69 32 63
4 76 33 68 40
4 27 44 58 37
4 79 31 44 37
4 56 38 68 21
4 56 58 38 37
4 52 32 71 63
4 47 38 31 37
4 76 68 59 21
4 22 59 43 21
4 65 45 33 40
4 47 43 38 21
4 52 71 45 40
4 56 68 71 40
4 74 30 66 23
4 46 66 29 23
4 22 43 30 23
4 72 48 77 34
4 46 53 42 73
4 50 64 53 73
4 70 42 57 73
4 74 66 48 34
4 46 42 66 34
4 47 29 43 23
4 70 77 42 34
4 60 57 64 73
4 79 67 31 75
4 47 31 29 75
4 50 53 67 75
4 46 29 53 75
4 10 78 6 80
4 36 6 1 80
4 15 1 12 80
4 36 4 6 26
4 14 12 78 80
4 2 17 9 26
4 36 18 4 55
4 15 28 1 11
4 62 4 20 55
4 10 6 17 26
4 27 18 44 11
4 62 9 4 26
4 27 69 18 55
4 36 1 18 11
4 41 20 69 55
4 79 44 28 11
4 16 24 54 7
4 19 54 39 7
4 50 39 64 7
4 8 25 61 3
4 60 64 24 7
4 79 28 67 13
4 19 51 61 49
4 8 61 0 49
4 15 51 28 13
4 19 39 51 13
4 50 67 39 13
4 19 61 54 3
4 14 0 12 49
4 5 35 25 3
4 15 12 51 49
4 16 54 35 3
CELL_TYPES 64
8
8
8
8
8
8
8
8
8
8
8
8
8
8
8
8
8
8
8
8
8
8
8
8
8
8
8
8
8
8
8
8
8
8
8
8
8
8
8
8
8
8
8
8
8
8
8
8
8
8
8
8
8
8
8
8
8
8
8
8
8
8
8
8
CELL_DATA 64
VECTORS vector_value float
1.22003 -2.75651 0
0.602281 -3.51716 0
0.400486 -3.47694 0
0.0478512 -0.12349 0
-0.0419359 -2.75478 0
-0.139287 -1.37798 0
1.47435 -1.43589 0
0.997627 -1.40535 0
0.156524 -2.27478 0
0.700795 -0.776722 0
0.59043 -0.94612 0
0.0355535 -1.9058 0
0.00767545 -0.0617631 0
0.632239 -1.81473 0
0.0383859 -0.232053 0
0.573007 -0.581777 0
0.0623978 -1.15902 0
-0.445137 -2.93167 0
-0.119156 -1.26542 0
-0.118472 -1.0325 0
-1.10125 -1.28684 0
-0.642874 -0.724002 0
-0.588152 -0.948719 0
-0.035882 -1.49725 0
-0.377895 -1.29785 0
-0.137533 -3.11518 0
-0.428805 -1.14372 0
-0.751496 -1.34994 0
-0.0663329 -0.536942 0
0.074498 -0.383877 0
-0.10116 -0.398171 0
-0.365192 -0.653377 0
-0.064275 -0.162138 0
-0.203163 -0.343905 0
-0.344383 -0.135871 0
-0.0517388 -0.427427 0
-0.276262 -0.618867 0
-0.000648355 -0.0353736 0
-0.0172921 -0.183082 0
-0.261207 -0.352676 0
0.0172958 -0.516064 0
-0.0135832 -0.0411195 0
-0.565606 -0.673409 0
-0.0713323 -0.278807 0
0.037135 -0.36944 0
-0.21848 -0.278408 0
0.584228 -1.12422 0
-0.413506 -1.01736 0
-0.705463 -1.69929 0
-0.450614 -1.14679 0
-0.838483 -0.977623 0
0.124605 -0.329024 0
-0.358869 -0.313105 0
-0.269971 -1.36186 0
-0.00366504 -0.11205 0
0.19829 -0.873964 0
-0.137384 -0.390312 0
-0.151762 -0.639781 0
-0.185203 -1.23197 0
0.25069 -0.740626 0
-0.0910142 -0.857487 0
-0.359533 -0.395703 0
-0.0878967 -0.0889308 0
-0.825623 -1.11702 0
