# vtk DataFile Version 2.0
Unstructured Grid by M++
ASCII
DATASET UNSTRUCTURED_GRID
POINTS 81 float
  1.000000   0.625000 0
  0.750000   0.375000 0
  1.000000   0.000000 0
  0.875000   0.875000 0
  0.750000   0.125000 0
  1.000000   1.000000 0
  0.875000   0.250000 0
  0.625000   0.875000 0
  1.000000   0.750000 0
  0.875000   0.000000 0
  1.000000   0.250000 0
  0.625000   0.375000 0
  0.875000   0.500000 0
  0.625000   0.625000 0
  1.000000   0.500000 0
  0.750000   0.500000 0
  0.750000   1.000000 0
  1.000000   0.125000 0
  0.625000   0.250000 0
  0.750000   0.750000 0
  0.625000   0.000000 0
  0.125000   0.375000 0
  0.000000   0.500000 0
  0.125000   0.625000 0
  0.625000   1.000000 0
  1.000000   0.875000 0
  0.875000   0.125000 0
  0.500000   0.250000 0
  0.625000   0.500000 0
  0.250000   0.625000 0
  0.000000   0.625000 0
  0.375000   0.500000 0
  0.375000   0.000000 0
  0.000000   0.125000 0
  0.125000   0.875000 0
  0.875000   1.000000 0
  0.750000   0.250000 0
  0.375000   0.375000 0
  0.250000   0.375000 0
  0.625000   0.750000 0
  0.125000   0.125000 0
  0.500000   0.000000 0
  0.250000   0.875000 0
  0.125000   0.500000 0
  0.500000   0.375000 0
  0.125000   0.000000 0
  0.250000   0.750000 0
  0.250000   0.500000 0
  0.000000   0.875000 0
  0.875000   0.625000 0
  0.500000   0.750000 0
  0.750000   0.625000 0
  0.250000   0.000000 0
  0.375000   0.750000 0
  0.750000   0.875000 0
  0.625000   0.125000 0
  0.250000   0.250000 0
  0.375000   1.000000 0
  0.375000   0.250000 0
  0.000000   0.375000 0
  0.500000   1.000000 0
  0.875000   0.750000 0
  0.750000   0.000000 0
  0.375000   0.125000 0
  0.500000   0.875000 0
  0.000000   0.000000 0
  0.125000   0.750000 0
  0.500000   0.625000 0
  0.125000   0.250000 0
  0.500000   0.125000 0
  0.250000   1.000000 0
  0.250000   0.125000 0
  0.000000   1.000000 0
  0.375000   0.875000 0
  0.000000   0.750000 0
  0.375000   0.625000 0
  0.000000   0.250000 0
  0.125000   1.000000 0
  1.000000   0.375000 0
  0.500000   0.500000 0
  0.875000   0.375000 0
CELLS 64 320
4 56 71 58 63
4 27 58 69 63
4 41 69 32 63
4 76 33 68 40
4 27 44 58 37
4 79 31 44 37
4 56 38 68 21
4 56 58 38 37
4 52 32 71 63
4 47 38 31 37
4 76 68 59 21
4 22 59 43 21
4 65 45 33 40
4 47 43 38 21
4 52 71 45 40
4 56 68 71 40
4 74 30 66 23
4 46 66 29 23
4 22 43 30 23
4 72 48 77 34
4 46 53 42 73
4 50 64 53 73
4 70 42 57 73
4 74 66 48 34
4 46 42 66 34
4 47 29 43 23
4 70 77 42 34
4 60 57 64 73
4 79 67 31 75
4 47 31 29 75
4 50 53 67 75
4 46 29 53 75
4 10 78 6 80
4 36 6 1 80
4 15 1 12 80
4 36 4 6 26
4 14 12 78 80
4 2 17 9 26
4 36 18 4 55
4 15 28 1 11
4 62 4 20 55
4 10 6 17 26
4 27 18 44 11
4 62 9 4 26
4 27 69 18 55
4 36 1 18 11
4 41 20 69 55
4 79 44 28 11
4 16 24 54 7
4 19 54 39 7
4 50 39 64 7
4 8 25 61 3
4 60 64 24 7
4 79 28 67 13
4 19 51 61 49
4 8 61 0 49
4 15 51 28 13
4 19 39 51 13
4 50 67 39 13
4 19 61 54 3
4 14 0 12 49
4 5 35 25 3
4 15 12 51 49
4 16 54 35 3
CELL_TYPES 64
8
8
8
8
8
8
8
8
8
8
8
8
8
8
8
8
8
8
8
8
8
8
8
8
8
8
8
8
8
8
8
8
8
8
8
8
8
8
8
8
8
8
8
8
8
8
8
8
8
8
8
8
8
8
8
8
8
8
8
8
8
8
8
8
CELL_DATA 64
VECTORS vector_value float
0.472591 -0.562044 0
0.18148 -0.269521 0
0.405359 -0.603804 0
0.823734 -1.72415 0
-0.00399597 -0.0118376 0
-0.0135007 -0.0547478 0
0.534965 -1.60076 0
0.165991 -0.358113 0
1.4764 -2.31042 0
-0.00607166 -0.128092 0
1.16246 -4.57089 0
-0.224753 -4.70065 0
0.120108 -0.62721 0
-0.0635903 -1.66655 0
0.77026 -2.77693 0
2.33637 -3.9868 0
-0.812195 -1.74847 0
-2.11256 -2.97068 0
-0.754217 -3.32794 0
-0.184625 -1.39452 0
-0.934693 -0.75694 0
-0.247838 -0.346547 0
-0.354678 -0.788477 0
0.0759052 -1.18569 0
-0.391319 -1.88545 0
-1.06811 -2.7147 0
-0.393314 -0.835613 0
-0.374118 -1.05358 0
-0.444085 -0.129118 0
-0.499358 -0.195209 0
-1.95221 -0.466119 0
-2.13347 -0.249049 0
-0.0301772 -1.05194 0
-0.00910405 -0.206674 0
0.388814 -0.734659 0
-0.279451 -0.536071 0
0.240283 -0.575236 0
0.130797 -0.822175 0
-0.265899 -0.0822403 0
-0.02836 -0.0887437 0
-0.0869729 -0.090307 0
-0.109814 -0.595141 0
-0.0170825 -0.105327 0
0.00927673 -0.0904465 0
-0.0784475 -0.244042 0
-0.0270933 -0.0944574 0
0.0233832 -0.678702 0
-0.00823813 -0.0513299 0
-0.604249 -0.833804 0
-0.335239 -0.505546 0
-0.415683 -1.79589 0
-0.370372 -1.01362 0
-0.447895 -1.48671 0
-0.22218 -0.223926 0
-0.106733 -0.251108 0
-0.145381 -0.656284 0
0.166687 -0.417179 0
-0.375595 -0.714919 0
-0.987681 -0.94338 0
-0.661257 -0.510315 0
-0.0137219 -0.373484 0
0.231273 -1.41005 0
0.0217994 -0.618443 0
0.0055985 -0.197252 0
