# vtk DataFile Version 2.0
Unstructured Grid by M++
ASCII
DATASET UNSTRUCTURED_GRID
POINTS 81 float
  1.000000   0.625000 0
  0.750000   0.375000 0
  1.000000   0.000000 0
  0.875000   0.875000 0
  0.750000   0.125000 0
  1.000000   1.000000 0
  0.875000   0.250000 0
  0.625000   0.875000 0
  1.000000   0.750000 0
  0.875000   0.000000 0
  1.000000   0.250000 0
  0.625000   0.375000 0
  0.875000   0.500000 0
  0.625000   0.625000 0
  1.000000   0.500000 0
  0.750000   0.500000 0
  0.750000   1.000000 0
  1.000000   0.125000 0
  0.625000   0.250000 0
  0.750000   0.750000 0
  0.625000   0.000000 0
  0.125000   0.375000 0
  0.000000   0.500000 0
  0.125000   0.625000 0
  0.625000   1.000000 0
  1.000000   0.875000 0
  0.875000   0.125000 0
  0.500000   0.250000 0
  0.625000   0.500000 0
  0.250000   0.625000 0
  0.000000   0.625000 0
  0.375000   0.500000 0
  0.375000   0.000000 0
  0.000000   0.125000 0
  0.125000   0.875000 0
  0.875000   1.000000 0
  0.750000   0.250000 0
  0.375000   0.375000 0
  0.250000   0.375000 0
  0.625000   0.750000 0
  0.125000   0.125000 0
  0.500000   0.000000 0
  0.250000   0.875000 0
  0.125000   0.500000 0
  0.500000   0.375000 0
  0.125000   0.000000 0
  0.250000   0.750000 0
  0.250000   0.500000 0
  0.000000   0.875000 0
  0.875000   0.625000 0
  0.500000   0.750000 0
  0.750000   0.625000 0
  0.250000   0.000000 0
  0.375000   0.750000 0
  0.750000   0.875000 0
  0.625000   0.125000 0
  0.250000   0.250000 0
  0.375000   1.000000 0
  0.375000   0.250000 0
  0.000000   0.375000 0
  0.500000   1.000000 0
  0.875000   0.750000 0
  0.750000   0.000000 0
  0.375000   0.125000 0
  0.500000   0.875000 0
  0.000000   0.000000 0
  0.125000   0.750000 0
  0.500000   0.625000 0
  0.125000   0.250000 0
  0.500000   0.125000 0
  0.250000   1.000000 0
  0.250000   0.125000 0
  0.000000   1.000000 0
  0.375000   0.875000 0
  0.000000   0.750000 0
  0.375000   0.625000 0
  0.000000   0.250000 0
  0.125000   1.000000 0
  1.000000   0.375000 0
  0.500000   0.500000 0
  0.875000   0.375000 0
CELLS 64 320
4 56 71 58 63
4 27 58 69 63
4 41 69 32 63
4 76 33 68 40
4 27 44 58 37
4 79 31 44 37
4 56 38 68 21
4 56 58 38 37
4 52 32 71 63
4 47 38 31 37
4 76 68 59 21
4 22 59 43 21
4 65 45 33 40
4 47 43 38 21
4 52 71 45 40
4 56 68 71 40
4 74 30 66 23
4 46 66 29 23
4 22 43 30 23
4 72 48 77 34
4 46 53 42 73
4 50 64 53 73
4 70 42 57 73
4 74 66 48 34
4 46 42 66 34
4 47 29 43 23
4 70 77 42 34
4 60 57 64 73
4 79 67 31 75
4 47 31 29 75
4 50 53 67 75
4 46 29 53 75
4 10 78 6 80
4 36 6 1 80
4 15 1 12 80
4 36 4 6 26
4 14 12 78 80
4 2 17 9 26
4 36 18 4 55
4 15 28 1 11
4 62 4 20 55
4 10 6 17 26
4 27 18 44 11
4 62 9 4 26
4 27 69 18 55
4 36 1 18 11
4 41 20 69 55
4 79 44 28 11
4 16 24 54 7
4 19 54 39 7
4 50 39 64 7
4 8 25 61 3
4 60 64 24 7
4 79 28 67 13
4 19 51 61 49
4 8 61 0 49
4 15 51 28 13
4 19 39 51 13
4 50 67 39 13
4 19 61 54 3
4 14 0 12 49
4 5 35 25 3
4 15 12 51 49
4 16 54 35 3
CELL_TYPES 64
8
8
8
8
8
8
8
8
8
8
8
8
8
8
8
8
8
8
8
8
8
8
8
8
8
8
8
8
8
8
8
8
8
8
8
8
8
8
8
8
8
8
8
8
8
8
8
8
8
8
8
8
8
8
8
8
8
8
8
8
8
8
8
8
CELL_DATA 64
VECTORS vector_value float
0.144233 -0.136922 0
0.264821 -0.17497 0
0.00941598 -0.0379921 0
0.0132457 -0.0642514 0
1.06755 -0.66816 0
1.02141 -0.883181 0
0.401775 -0.625894 0
0.698618 -0.274621 0
0.0360114 -0.205306 0
0.498329 -0.580851 0
0.0697387 -0.1308 0
0.130071 -0.419197 0
0.0012625 -0.0527767 0
0.223042 -0.77359 0
0.0158211 -0.231315 0
0.105911 -0.345007 0
-0.0469653 -0.513296 0
-0.249739 -0.579498 0
0.0336346 -0.664972 0
0.196727 -0.731145 0
0.146443 -1.04407 0
-0.0751258 -2.11618 0
0.890015 -1.21228 0
0.076108 -0.477722 0
0.176482 -0.414402 0
-0.000179384 -0.824765 0
0.66109 -0.587747 0
0.37736 -1.44805 0
0.231958 -0.53395 0
0.343439 -1.23479 0
0.0957897 -1.13368 0
-0.637833 -1.60931 0
0.222 -0.434126 0
1.15751 -3.30531 0
0.792613 -2.09137 0
0.432281 -3.55328 0
0.0112146 -0.288025 0
-0.0350655 -0.896629 0
0.928807 -1.98821 0
1.02232 -1.85962 0
0.178053 -1.6097 0
0.102245 -1.0742 0
0.918926 -0.512694 0
0.166965 -4.69262 0
0.896173 -0.663164 0
1.69543 -2.0484 0
0.0400559 -0.273668 0
1.217 -1.10417 0
-0.390265 -0.349788 0
-0.180122 -0.306628 0
0.0263222 -1.81691 0
-0.16286 -1.04325 0
-0.371833 -1.55754 0
0.67864 -1.3544 0
-0.224863 -0.655557 0
-0.167385 -0.70432 0
0.692284 -2.22746 0
-0.0227329 -1.03908 0
0.437169 -1.76526 0
-0.391919 -0.780843 0
-0.0978096 -0.31675 0
0.0701307 -1.23176 0
-0.231408 -0.842906 0
0.0695871 -0.88168 0
