# vtk DataFile Version 2.0
Unstructured Grid by M++
ASCII
DATASET UNSTRUCTURED_GRID
POINTS 81 float
  1.000000   0.625000 0
  0.750000   0.375000 0
  1.000000   0.000000 0
  0.875000   0.875000 0
  0.750000   0.125000 0
  1.000000   1.000000 0
  0.875000   0.250000 0
  0.625000   0.875000 0
  1.000000   0.750000 0
  0.875000   0.000000 0
  1.000000   0.250000 0
  0.625000   0.375000 0
  0.875000   0.500000 0
  0.625000   0.625000 0
  1.000000   0.500000 0
  0.750000   0.500000 0
  0.750000   1.000000 0
  1.000000   0.125000 0
  0.625000   0.250000 0
  0.750000   0.750000 0
  0.625000   0.000000 0
  0.125000   0.375000 0
  0.000000   0.500000 0
  0.125000   0.625000 0
  0.625000   1.000000 0
  1.000000   0.875000 0
  0.875000   0.125000 0
  0.500000   0.250000 0
  0.625000   0.500000 0
  0.250000   0.625000 0
  0.000000   0.625000 0
  0.375000   0.500000 0
  0.375000   0.000000 0
  0.000000   0.125000 0
  0.125000   0.875000 0
  0.875000   1.000000 0
  0.750000   0.250000 0
  0.375000   0.375000 0
  0.250000   0.375000 0
  0.625000   0.750000 0
  0.125000   0.125000 0
  0.500000   0.000000 0
  0.250000   0.875000 0
  0.125000   0.500000 0
  0.500000   0.375000 0
  0.125000   0.000000 0
  0.250000   0.750000 0
  0.250000   0.500000 0
  0.000000   0.875000 0
  0.875000   0.625000 0
  0.500000   0.750000 0
  0.750000   0.625000 0
  0.250000   0.000000 0
  0.375000   0.750000 0
  0.750000   0.875000 0
  0.625000   0.125000 0
  0.250000   0.250000 0
  0.375000   1.000000 0
  0.375000   0.250000 0
  0.000000   0.375000 0
  0.500000   1.000000 0
  0.875000   0.750000 0
  0.750000   0.000000 0
  0.375000   0.125000 0
  0.500000   0.875000 0
  0.000000   0.000000 0
  0.125000   0.750000 0
  0.500000   0.625000 0
  0.125000   0.250000 0
  0.500000   0.125000 0
  0.250000   1.000000 0
  0.250000   0.125000 0
  0.000000   1.000000 0
  0.375000   0.875000 0
  0.000000   0.750000 0
  0.375000   0.625000 0
  0.000000   0.250000 0
  0.125000   1.000000 0
  1.000000   0.375000 0
  0.500000   0.500000 0
  0.875000   0.375000 0
CELLS 64 320
4 56 71 58 63
4 27 58 69 63
4 41 69 32 63
4 76 33 68 40
4 27 44 58 37
4 79 31 44 37
4 56 38 68 21
4 56 58 38 37
4 52 32 71 63
4 47 38 31 37
4 76 68 59 21
4 22 59 43 21
4 65 45 33 40
4 47 43 38 21
4 52 71 45 40
4 56 68 71 40
4 74 30 66 23
4 46 66 29 23
4 22 43 30 23
4 72 48 77 34
4 46 53 42 73
4 50 64 53 73
4 70 42 57 73
4 74 66 48 34
4 46 42 66 34
4 47 29 43 23
4 70 77 42 34
4 60 57 64 73
4 79 67 31 75
4 47 31 29 75
4 50 53 67 75
4 46 29 53 75
4 10 78 6 80
4 36 6 1 80
4 15 1 12 80
4 36 4 6 26
4 14 12 78 80
4 2 17 9 26
4 36 18 4 55
4 15 28 1 11
4 62 4 20 55
4 10 6 17 26
4 27 18 44 11
4 62 9 4 26
4 27 69 18 55
4 36 1 18 11
4 41 20 69 55
4 79 44 28 11
4 16 24 54 7
4 19 54 39 7
4 50 39 64 7
4 8 25 61 3
4 60 64 24 7
4 79 28 67 13
4 19 51 61 49
4 8 61 0 49
4 15 51 28 13
4 19 39 51 13
4 50 67 39 13
4 19 61 54 3
4 14 0 12 49
4 5 35 25 3
4 15 12 51 49
4 16 54 35 3
CELL_TYPES 64
8
8
8
8
8
8
8
8
8
8
8
8
8
8
8
8
8
8
8
8
8
8
8
8
8
8
8
8
8
8
8
8
8
8
8
8
8
8
8
8
8
8
8
8
8
8
8
8
8
8
8
8
8
8
8
8
8
8
8
8
8
8
8
8
CELL_DATA 64
VECTORS vector_value float
-0.187835 -0.246772 0
-0.0238477 -0.0293606 0
-0.0268199 -0.103654 0
-0.478168 -1.50205 0
-0.134097 -0.0533494 0
-0.163872 -0.145226 0
-0.368452 -2.69874 0
-0.268612 -0.53706 0
-0.00220344 -0.156951 0
-0.415516 -1.00033 0
-0.0788425 -0.948373 0
0.0669644 -0.830428 0
-0.0980001 -2.11157 0
-0.0791122 -2.15664 0
-0.0681592 -2.01888 0
-0.683543 -2.54855 0
0.0754595 -1.47964 0
0.0890178 -1.59348 0
0.219696 -1.30698 0
-0.224509 -1.01576 0
-0.473262 -0.734698 0
0.0521909 -0.79809 0
-0.230864 -1.00207 0
-0.0547195 -1.6694 0
-0.222939 -0.782049 0
0.185361 -1.36688 0
-0.484544 -1.08588 0
-0.150083 -1.31801 0
-0.205291 -0.294607 0
-0.110751 -1.08722 0
-0.191877 -0.502965 0
-0.0202484 -0.306105 0
0.00092191 -0.489624 0
0.0918207 -0.757845 0
-0.917693 -1.72969 0
0.709174 -1.99311 0
-0.0283747 -0.509402 0
0.0735895 -0.695727 0
0.212156 -0.977657 0
-0.984023 -1.57581 0
0.0212653 -0.315187 0
0.0403603 -0.513377 0
-0.222691 -0.274774 0
0.147984 -2.21426 0
-0.0219994 -0.189123 0
0.343973 -2.24023 0
-0.17272 -0.383776 0
-0.0694945 -0.0524762 0
-0.0816785 -0.550473 0
0.842034 -0.546332 0
0.753049 -1.01132 0
0.194991 -1.51805 0
-0.369934 -0.919143 0
-0.0276049 -0.0910345 0
0.347612 -0.774548 0
0.342795 -2.33382 0
-0.00969805 -0.552408 0
0.227091 -0.565152 0
0.0196658 -0.444289 0
0.674951 -0.940057 0
-0.925253 -1.87196 0
0.161099 -1.19201 0
-0.978651 -1.42892 0
0.25232 -0.916662 0
