# vtk DataFile Version 2.0
Unstructured Grid by M++
ASCII
DATASET UNSTRUCTURED_GRID
POINTS 289 float
  0.562500   1.000000 0
  0.562500   0.625000 0
  0.625000   1.000000 0
  0.562500   0.937500 0
  0.562500   0.562500 0
  0.625000   0.937500 0
  0.562500   0.875000 0
  0.625000   0.750000 0
  0.625000   0.625000 0
  0.562500   0.812500 0
  0.562500   0.750000 0
  0.562500   0.687500 0
  0.625000   0.875000 0
  0.625000   0.812500 0
  0.625000   0.687500 0
  0.687500   0.125000 0
  0.875000   0.062500 0
  0.625000   0.125000 0
  0.625000   0.187500 0
  0.625000   0.250000 0
  0.812500   0.187500 0
  1.000000   0.125000 0
  0.687500   0.187500 0
  0.750000   0.125000 0
  0.937500   0.062500 0
  0.937500   0.125000 0
  0.750000   0.187500 0
  0.812500   0.062500 0
  0.812500   0.125000 0
  0.875000   0.687500 0
  0.187500   0.250000 0
  0.437500   0.250000 0
  0.375000   0.187500 0
  0.812500   0.625000 0
  0.125000   0.187500 0
  0.937500   0.750000 0
  0.250000   0.312500 0
  0.500000   0.312500 0
  0.625000   0.062500 0
  0.437500   0.500000 0
  0.375000   0.125000 0
  0.437500   0.187500 0
  0.437500   0.437500 0
  0.437500   0.375000 0
  0.875000   0.875000 0
  0.187500   0.375000 0
  0.687500   0.562500 0
  0.687500   0.625000 0
  0.000000   0.125000 0
  0.937500   0.625000 0
  0.250000   0.125000 0
  0.375000   0.062500 0
  0.375000   0.000000 0
  0.812500   0.500000 0
  0.125000   0.000000 0
  0.937500   0.937500 0
  0.250000   0.437500 0
  0.687500   0.875000 0
  0.687500   0.937500 0
  0.000000   0.437500 0
  0.500000   0.500000 0
  0.500000   0.437500 0
  0.750000   0.937500 0
  0.750000   1.000000 0
  0.062500   0.500000 0
  1.000000   1.000000 0
  0.312500   0.500000 0
  0.875000   0.562500 0
  0.187500   0.062500 0
  0.437500   0.125000 0
  0.437500   0.062500 0
  0.500000   0.375000 0
  0.937500   0.812500 0
  0.937500   0.875000 0
  0.250000   0.375000 0
  0.687500   0.812500 0
  0.000000   0.375000 0
  0.750000   0.562500 0
  0.062500   0.125000 0
  1.000000   0.562500 0
  1.000000   0.625000 0
  0.312500   0.125000 0
  0.562500   0.125000 0
  0.437500   0.000000 0
  0.875000   0.437500 0
  0.875000   0.500000 0
  0.187500   0.000000 0
  0.937500   0.562500 0
  0.937500   0.500000 0
  0.250000   0.062500 0
  0.687500   0.500000 0
  0.000000   0.062500 0
  0.500000   0.062500 0
  1.000000   0.875000 0
  1.000000   0.937500 0
  0.312500   0.437500 0
  0.750000   0.875000 0
  0.062500   0.437500 0
  0.812500   0.937500 0
  0.125000   0.500000 0
  0.375000   0.500000 0
  0.625000   0.562500 0
  0.625000   0.500000 0
  0.437500   0.312500 0
  0.875000   0.812500 0
  0.875000   0.750000 0
  0.187500   0.312500 0
  0.812500   0.687500 0
  0.812500   0.750000 0
  0.125000   0.250000 0
  0.375000   0.250000 0
  1.000000   0.687500 0
  0.312500   0.187500 0
  0.750000   0.687500 0
  0.750000   0.625000 0
  0.062500   0.187500 0
  0.562500   0.250000 0
  0.562500   0.187500 0
  0.375000   1.000000 0
  0.500000   0.562500 0
  0.500000   0.250000 0
  0.750000   0.250000 0
  0.500000   0.125000 0
  0.500000   0.187500 0
  1.000000   0.187500 0
  0.625000   0.375000 0
  0.875000   0.375000 0
  1.000000   0.437500 0
  0.312500   0.000000 0
  0.562500   0.000000 0
  0.812500   0.000000 0
  0.250000   0.687500 0
  0.000000   0.687500 0
  0.500000   1.000000 0
  0.250000   1.000000 0
  0.000000   1.000000 0
  0.437500   0.687500 0
  0.437500   0.625000 0
  0.187500   0.625000 0
  0.687500   0.750000 0
  0.000000   0.312500 0
  0.000000   0.250000 0
  0.375000   0.375000 0
  0.375000   0.312500 0
  0.812500   0.812500 0
  0.125000   0.312500 0
  0.875000   0.625000 0
  0.187500   0.187500 0
  0.187500   0.125000 0
  0.937500   1.000000 0
  0.250000   0.562500 0
  0.250000   0.500000 0
  0.687500   1.000000 0
  0.000000   0.500000 0
  0.687500   0.687500 0
  0.000000   0.187500 0
  0.937500   0.687500 0
  0.250000   0.250000 0
  0.250000   0.187500 0
  0.187500   0.687500 0
  0.000000   0.750000 0
  0.250000   0.750000 0
  0.125000   0.625000 0
  0.750000   0.750000 0
  0.062500   0.250000 0
  0.875000   0.937500 0
  0.187500   0.500000 0
  0.187500   0.437500 0
  0.812500   0.562500 0
  0.125000   0.125000 0
  0.125000   0.062500 0
  0.375000   0.625000 0
  0.375000   0.687500 0
  1.000000   0.750000 0
  0.312500   0.250000 0
  0.312500   0.312500 0
  0.812500   0.312500 0
  0.562500   0.312500 0
  0.375000   0.750000 0
  0.500000   0.625000 0
  0.250000   0.625000 0
  0.312500   0.687500 0
  0.750000   0.812500 0
  0.062500   0.312500 0
  0.062500   0.375000 0
  1.000000   0.812500 0
  0.312500   0.375000 0
  0.562500   0.375000 0
  0.687500   0.437500 0
  0.000000   0.000000 0
  0.500000   0.000000 0
  0.937500   0.437500 0
  0.250000   0.000000 0
  0.375000   0.437500 0
  0.812500   0.875000 0
  0.125000   0.375000 0
  0.125000   0.437500 0
  0.625000   0.437500 0
  1.000000   0.500000 0
  0.312500   0.062500 0
  0.750000   0.500000 0
  0.062500   0.000000 0
  0.062500   0.062500 0
  0.562500   0.062500 0
  0.062500   0.750000 0
  0.312500   0.750000 0
  0.312500   0.625000 0
  0.312500   0.562500 0
  0.062500   0.562500 0
  0.187500   1.000000 0
  0.437500   0.562500 0
  0.875000   1.000000 0
  0.187500   0.562500 0
  0.500000   0.937500 0
  0.250000   0.937500 0
  0.312500   1.000000 0
  0.125000   0.750000 0
  0.125000   0.687500 0
  1.000000   0.000000 0
  0.000000   0.937500 0
  0.000000   0.875000 0
  0.875000   0.125000 0
  0.875000   0.187500 0
  0.062500   0.812500 0
  0.312500   0.812500 0
  0.000000   0.812500 0
  0.000000   0.625000 0
  0.000000   0.562500 0
  0.062500   1.000000 0
  0.062500   0.937500 0
  0.937500   0.187500 0
  0.937500   0.250000 0
  0.062500   0.687500 0
  0.062500   0.625000 0
  0.125000   1.000000 0
  1.000000   0.250000 0
  1.000000   0.312500 0
  0.062500   0.875000 0
  0.125000   0.812500 0
  0.375000   0.812500 0
  0.125000   0.875000 0
  0.375000   0.937500 0
  0.375000   0.875000 0
  0.187500   0.750000 0
  0.187500   0.812500 0
  0.437500   0.812500 0
  0.187500   0.875000 0
  0.437500   0.875000 0
  0.375000   0.562500 0
  0.812500   1.000000 0
  0.125000   0.562500 0
  0.437500   1.000000 0
  0.437500   0.937500 0
  0.187500   0.937500 0
  0.125000   0.937500 0
  0.500000   0.687500 0
  0.500000   0.750000 0
  0.500000   0.812500 0
  0.250000   0.812500 0
  0.250000   0.875000 0
  0.500000   0.875000 0
  0.437500   0.750000 0
  0.312500   0.875000 0
  0.312500   0.937500 0
  0.687500   0.250000 0
  0.687500   0.312500 0
  0.937500   0.312500 0
  0.875000   0.250000 0
  0.625000   0.000000 0
  0.875000   0.000000 0
  0.687500   0.375000 0
  0.937500   0.375000 0
  0.875000   0.312500 0
  0.625000   0.312500 0
  0.687500   0.000000 0
  0.937500   0.000000 0
  0.750000   0.312500 0
  0.750000   0.375000 0
  1.000000   0.375000 0
  0.812500   0.250000 0
  0.562500   0.437500 0
  0.562500   0.500000 0
  0.687500   0.062500 0
  0.750000   0.437500 0
  0.750000   0.000000 0
  0.750000   0.062500 0
  1.000000   0.062500 0
  0.812500   0.375000 0
  0.812500   0.437500 0
CELLS 256 1280
4 169 170 148 68
4 151 166 56 167
4 195 45 196 167
4 54 170 201 202
4 109 34 30 147
4 40 32 81 112
4 192 89 86 68
4 48 91 78 202
4 99 64 196 97
4 71 43 37 103
4 74 186 56 95
4 109 164 34 115
4 50 81 158 112
4 122 69 92 70
4 195 145 45 106
4 110 143 174 175
4 157 30 158 147
4 40 69 32 41
4 50 158 148 147
4 141 155 164 115
4 122 123 69 41
4 142 186 143 175
4 60 39 61 42
4 40 51 69 70
4 120 31 123 41
4 157 174 36 175
4 50 148 89 68
4 48 78 155 115
4 52 83 51 70
4 151 56 66 95
4 71 61 43 42
4 169 148 34 147
4 100 193 39 42
4 40 81 51 199
4 110 174 32 112
4 109 30 145 106
4 100 66 193 95
4 169 34 78 115
4 190 92 83 70
4 50 89 81 199
4 54 86 170 68
4 74 56 45 167
4 142 143 43 103
4 153 59 64 97
4 99 196 166 167
4 169 78 170 202
4 142 193 186 95
4 192 128 89 199
4 74 45 36 106
4 110 31 143 103
4 76 184 59 97
4 142 43 193 42
4 52 51 128 199
4 189 201 91 202
4 120 37 31 103
4 74 36 186 175
4 195 196 184 97
4 141 164 140 183
4 157 158 174 112
4 109 145 164 183
4 195 184 145 183
4 110 32 31 41
4 157 36 30 106
4 76 140 184 183
4 171 172 206 181
4 178 172 261 136
4 256 261 255 136
4 256 257 261 245
4 180 150 206 207
4 60 119 39 210
4 118 215 241 263
4 178 205 172 181
4 216 243 238 244
4 162 217 233 232
4 180 206 131 181
4 179 137 119 210
4 216 204 217 232
4 220 237 219 229
4 216 217 243 159
4 259 258 262 224
4 240 254 237 229
4 153 64 227 208
4 161 205 258 224
4 240 237 238 223
4 226 227 233 208
4 234 228 254 229
4 171 248 137 210
4 160 132 204 232
4 180 131 138 159
4 133 251 213 252
4 171 206 248 207
4 162 138 217 159
4 161 258 243 244
4 220 225 237 223
4 151 150 166 212
4 260 247 257 245
4 259 262 214 263
4 151 66 150 207
4 234 254 209 253
4 162 233 250 208
4 242 241 262 263
4 171 137 172 136
4 161 243 131 159
4 160 204 225 223
4 161 131 205 181
4 179 255 137 136
4 216 238 204 223
4 100 39 248 210
4 260 213 247 252
4 226 233 132 232
4 134 214 215 263
4 180 138 150 212
4 178 261 239 245
4 259 246 258 244
4 178 239 205 224
4 240 238 246 244
4 242 262 239 224
4 99 250 64 208
4 240 246 254 253
4 242 239 247 245
4 135 219 228 229
4 99 166 250 212
4 259 214 246 253
4 118 241 251 252
4 100 248 66 207
4 134 209 214 253
4 162 250 138 212
4 242 247 241 252
4 71 187 61 280
4 102 281 197 280
4 122 92 82 203
4 17 18 82 117
4 122 82 123 117
4 19 264 273 265
4 267 279 222 20
4 125 273 270 265
4 267 272 279 176
4 19 116 18 117
4 21 25 286 24
4 23 28 26 20
4 23 285 28 27
4 218 286 275 24
4 85 53 84 288
4 235 236 231 266
4 221 222 28 20
4 267 222 231 230
4 268 38 129 203
4 125 270 197 188
4 126 287 272 176
4 277 270 276 265
4 267 231 272 266
4 125 197 187 280
4 190 129 92 203
4 277 276 287 176
4 19 18 264 22
4 17 82 38 203
4 102 197 90 188
4 126 84 287 288
4 284 130 285 27
4 121 276 264 265
4 71 37 187 177
4 120 123 116 117
4 198 88 127 191
4 221 16 25 24
4 23 26 15 22
4 121 279 276 176
4 235 231 124 230
4 125 187 273 177
4 278 271 236 266
4 277 287 283 288
4 284 285 274 282
4 278 127 271 191
4 269 275 16 24
4 200 283 53 288
4 23 15 285 282
4 121 26 279 20
4 21 124 25 230
4 19 273 116 177
4 200 90 283 188
4 126 271 84 191
4 269 16 130 27
4 17 38 15 282
4 221 25 222 230
4 121 264 26 22
4 120 116 37 177
4 60 61 281 280
4 277 283 270 188
4 126 272 271 266
4 268 274 38 282
4 85 84 88 191
4 17 15 18 22
4 221 28 16 27
4 93 94 73 55
4 85 88 67 87
4 80 49 79 87
4 44 104 73 72
4 146 33 67 168
4 211 165 149 55
4 8 47 14 154
4 105 104 108 144
4 105 108 29 107
4 7 139 13 75
4 44 165 194 98
4 200 53 77 168
4 8 1 101 4
4 2 5 152 58
4 260 6 213 3
4 105 35 104 72
4 96 57 182 75
4 7 14 139 154
4 146 29 33 107
4 7 13 10 9
4 12 13 57 75
4 85 67 53 168
4 44 73 165 55
4 63 152 62 58
4 8 101 47 46
4 96 182 194 144
4 60 281 119 4
4 12 5 6 3
4 173 185 35 72
4 65 149 94 55
4 146 67 49 87
4 114 113 47 154
4 163 108 182 144
4 12 6 13 9
4 173 35 111 156
4 163 182 139 75
4 260 257 6 9
4 105 29 35 156
4 163 139 113 154
4 256 10 257 9
4 146 49 29 156
4 163 113 108 107
4 80 111 49 156
4 102 101 281 4
4 12 57 5 58
4 44 194 104 144
4 96 194 62 98
4 2 0 5 3
4 93 73 185 72
4 179 119 1 4
4 200 77 90 46
4 114 33 113 107
4 7 10 14 11
4 96 62 57 58
4 133 213 0 3
4 102 90 101 46
4 256 255 10 11
4 63 62 249 98
4 114 47 77 46
4 179 1 255 11
4 211 249 165 98
4 114 77 33 168
4 198 79 88 87
4 8 14 1 11
CELL_TYPES 256
8
8
8
8
8
8
8
8
8
8
8
8
8
8
8
8
8
8
8
8
8
8
8
8
8
8
8
8
8
8
8
8
8
8
8
8
8
8
8
8
8
8
8
8
8
8
8
8
8
8
8
8
8
8
8
8
8
8
8
8
8
8
8
8
8
8
8
8
8
8
8
8
8
8
8
8
8
8
8
8
8
8
8
8
8
8
8
8
8
8
8
8
8
8
8
8
8
8
8
8
8
8
8
8
8
8
8
8
8
8
8
8
8
8
8
8
8
8
8
8
8
8
8
8
8
8
8
8
8
8
8
8
8
8
8
8
8
8
8
8
8
8
8
8
8
8
8
8
8
8
8
8
8
8
8
8
8
8
8
8
8
8
8
8
8
8
8
8
8
8
8
8
8
8
8
8
8
8
8
8
8
8
8
8
8
8
8
8
8
8
8
8
8
8
8
8
8
8
8
8
8
8
8
8
8
8
8
8
8
8
8
8
8
8
8
8
8
8
8
8
8
8
8
8
8
8
8
8
8
8
8
8
8
8
8
8
8
8
8
8
8
8
8
8
8
8
8
8
8
8
8
8
8
8
8
8
CELL_DATA 256
VECTORS vector_value float
0.0442475 -0.166154 0
0.171918 -0.825701 0
0.0470045 -0.63507 0
0.00167841 -0.0311991 0
0.159737 -0.152928 0
1.10892 -1.16239 0
0.0189506 -0.40568 0
-0.00333129 -0.0948554 0
-0.00561416 -0.35151 0
-0.0396077 -1.05558 0
0.115314 -1.07516 0
0.101265 -0.262102 0
0.35152 -0.790742 0
0.670395 -0.475094 0
0.0546048 -0.490022 0
0.129279 -0.915423 0
0.419336 -0.530815 0
1.55844 -0.553276 0
0.0798431 -0.272368 0
0.0175956 -0.0965477 0
1.62393 -0.823785 0
-0.208591 -0.940794 0
-0.0367255 -1.25479 0
0.377588 -0.41227 0
0.747308 -1.09298 0
0.326329 -1.83398 0
0.0274801 -0.356734 0
-0.00125074 -0.0907615 0
0.0219847 -0.153441 0
0.100782 -0.984434 0
-0.0535963 -1.24226 0
0.112823 -0.191014 0
-0.0657064 -0.833174 0
0.0302446 -0.573495 0
0.978609 -1.35501 0
0.241142 -0.397286 0
-0.0573005 -0.341579 0
0.045697 -0.123587 0
0.0920219 -0.299822 0
-0.0206154 -0.462303 0
0.0152297 -0.131453 0
0.161133 -0.844985 0
-0.163278 -0.420827 0
-0.000474235 -0.120502 0
0.0813233 -0.897748 0
0.0113211 -0.0614014 0
-0.117673 -0.732939 0
-0.0374389 -0.59982 0
0.204125 -0.704442 0
0.0622693 -0.584015 0
-0.00467955 -0.126047 0
-0.207495 -0.611889 0
-0.0151133 -0.39 0
-0.00124311 -0.101753 0
0.019163 -0.817762 0
0.0686135 -1.45172 0
-0.0277733 -0.394302 0
0.0435247 -0.173046 0
0.848849 -1.43738 0
0.0986121 -0.290344 0
-0.0405586 -0.338271 0
0.627117 -0.40585 0
0.312234 -0.531057 0
-0.0404721 -0.20877 0
-0.605005 -0.886508 0
-0.783457 -1.68992 0
-0.54794 -1.48971 0
-0.811518 -1.84936 0
-0.317803 -0.579155 0
0.0413266 -0.857399 0
1.45095 -0.969322 0
-0.126139 -0.267108 0
0.056557 -0.154104 0
0.594978 -0.885157 0
-0.149119 -0.346327 0
0.257837 -0.864297 0
0.410184 -0.730309 0
-0.0821581 -1.45714 0
0.202471 -0.372225 0
0.102078 -0.195519 0
-0.00428524 -0.577137 0
0.00249036 -0.125731 0
-0.00327204 -0.101797 0
0.0819191 -0.455997 0
0.0141042 -0.13102 0
-0.211415 -0.870981 0
0.101626 -1.11246 0
0.319618 -0.853319 0
0.054548 -0.272467 0
0.950639 -1.47982 0
-0.0783791 -0.769035 0
0.363318 -0.721448 0
0.0140331 -0.190617 0
0.0488865 -1.46525 0
0.146786 -0.995372 0
0.168666 -1.50946 0
0.963967 -0.477931 0
0.0107464 -0.531801 0
0.235992 -0.680222 0
0.105717 -0.478826 0
1.47088 -0.586494 0
-0.331493 -1.28423 0
0.0392047 -0.240979 0
0.153909 -1.29735 0
-0.0261778 -0.133937 0
0.0413079 -1.49063 0
0.187619 -0.5477 0
0.10285 -1.07629 0
2.42887 -1.83289 0
0.141388 -0.271798 0
1.18999 -0.820897 0
-0.010016 -0.573715 0
-0.206838 -0.702025 0
0.0669603 -0.123027 0
0.00205893 -0.222613 0
0.0759646 -0.141049 0
0.156783 -0.232981 0
0.033582 -0.397782 0
0.237899 -0.247365 0
0.190156 -0.475743 0
-0.158991 -1.20886 0
0.0845622 -0.966844 0
0.501453 -0.240551 0
1.58117 -1.05128 0
-0.0869561 -0.448978 0
0.827924 -0.625518 0
0.290984 -1.08592 0
1.9021 -0.660771 0
-0.0185857 -1.02897 0
0.0469393 -0.81533 0
1.19074 -2.253 0
0.527312 -4.70463 0
1.42774 -1.9257 0
-1.37648 -1.86412 0
-0.734791 -1.08634 0
-0.925461 -1.40542 0
-0.244956 -1.13928 0
-0.564411 -3.43532 0
0.0077997 -0.0927606 0
-0.728718 -0.836893 0
-0.514364 -0.556138 0
0.0105639 -0.117845 0
-0.803569 -2.05204 0
-0.167308 -0.319546 0
-0.373924 -0.646015 0
-0.286868 -0.54981 0
0.260715 -7.00445 0
-0.0241025 -0.546043 0
-0.257434 -1.1696 0
-1.4456 -1.78953 0
-0.334481 -0.852517 0
0.00255621 -0.731887 0
0.302883 -1.52599 0
-1.03801 -2.86805 0
-0.96307 -1.38361 0
0.577953 -5.48858 0
0.197136 -0.58332 0
-0.785507 -1.76021 0
-0.103629 -0.255035 0
-1.05772 -1.66871 0
-0.0444539 -1.2091 0
0.470357 -1.34186 0
-0.0184802 -1.10708 0
-0.00685261 -0.140801 0
-1.50828 -1.3637 0
-0.409347 -1.67953 0
-0.0244555 -0.0964235 0
-0.193449 -0.659936 0
-0.123639 -0.60327 0
-1.01782 -3.18007 0
-0.199555 -1.07435 0
-0.145551 -0.918167 0
0.00797266 -0.109598 0
-0.338123 -2.57973 0
-0.678612 -0.950324 0
-1.11438 -1.56834 0
0.00109549 -0.0783197 0
-0.624725 -1.46583 0
0.332282 -0.958165 0
-0.286049 -0.607491 0
-0.0256827 -0.128685 0
-0.39461 -3.6615 0
-0.0749564 -0.255078 0
-0.823964 -1.20467 0
0.016644 -1.46757 0
-0.0782527 -1.09232 0
-0.619539 -1.5645 0
-0.203512 -0.684668 0
-0.154025 -3.67089 0
-0.468827 -1.20258 0
-0.919509 -2.18174 0
-0.135103 -0.254592 0
0.112886 -0.615819 0
-0.155717 -1.88795 0
-0.0153274 -1.1344 0
0.187389 -0.419512 0
0.508826 -1.83277 0
-0.610923 -0.995326 0
0.353155 -1.26971 0
0.471928 -0.879796 0
0.696328 -1.39797 0
0.444781 -1.2539 0
-0.186531 -0.770204 0
0.341561 -1.34389 0
0.599592 -2.16157 0
-0.687723 -1.49173 0
1.52914 -2.09846 0
0.228703 -0.719755 0
0.721584 -1.00115 0
0.610546 -1.45125 0
0.410133 -1.22403 0
0.420478 -2.47289 0
0.70151 -1.46863 0
-0.24966 -2.13238 0
-0.037123 -0.446814 0
-1.25359 -1.0708 0
0.651316 -0.877842 0
0.360382 -0.66906 0
-0.121787 -1.09802 0
0.0782521 -2.38429 0
0.0526306 -0.772544 0
-0.27926 -0.523631 0
0.0608413 -1.70266 0
0.665317 -0.791967 0
0.914408 -1.13982 0
0.250546 -3.33546 0
0.0802203 -0.954616 0
0.63193 -1.04279 0
0.152596 -2.86626 0
0.331485 -0.992485 0
0.54615 -0.842989 0
-0.218983 -2.65294 0
0.322892 -1.57164 0
0.456629 -0.7847 0
0.0445197 -1.06165 0
0.293045 -1.541 0
-0.468132 -2.044 0
0.344174 -0.948128 0
-0.0884214 -0.799521 0
0.14059 -1.59828 0
0.0367362 -0.692778 0
0.499359 -1.14246 0
0.855549 -0.731926 0
0.658939 -0.967444 0
0.429573 -2.25401 0
-0.194958 -0.760618 0
0.524194 -0.868616 0
0.949952 -0.871064 0
-0.12893 -1.54447 0
-1.11836 -0.983408 0
0.644083 -0.599452 0
0.171657 -0.938637 0
-0.846727 -0.761308 0
0.705625 -0.954409 0
-0.0117481 -0.993577 0
0.157102 -2.01636 0
