# vtk DataFile Version 2.0
Unstructured Grid by M++
ASCII
DATASET UNSTRUCTURED_GRID
POINTS 81 float
  1.000000   0.625000 0
  0.750000   0.375000 0
  1.000000   0.000000 0
  0.875000   0.875000 0
  0.750000   0.125000 0
  1.000000   1.000000 0
  0.875000   0.250000 0
  0.625000   0.875000 0
  1.000000   0.750000 0
  0.875000   0.000000 0
  1.000000   0.250000 0
  0.625000   0.375000 0
  0.875000   0.500000 0
  0.625000   0.625000 0
  1.000000   0.500000 0
  0.750000   0.500000 0
  0.750000   1.000000 0
  1.000000   0.125000 0
  0.625000   0.250000 0
  0.750000   0.750000 0
  0.625000   0.000000 0
  0.125000   0.375000 0
  0.000000   0.500000 0
  0.125000   0.625000 0
  0.625000   1.000000 0
  1.000000   0.875000 0
  0.875000   0.125000 0
  0.500000   0.250000 0
  0.625000   0.500000 0
  0.250000   0.625000 0
  0.000000   0.625000 0
  0.375000   0.500000 0
  0.375000   0.000000 0
  0.000000   0.125000 0
  0.125000   0.875000 0
  0.875000   1.000000 0
  0.750000   0.250000 0
  0.375000   0.375000 0
  0.250000   0.375000 0
  0.625000   0.750000 0
  0.125000   0.125000 0
  0.500000   0.000000 0
  0.250000   0.875000 0
  0.125000   0.500000 0
  0.500000   0.375000 0
  0.125000   0.000000 0
  0.250000   0.750000 0
  0.250000   0.500000 0
  0.000000   0.875000 0
  0.875000   0.625000 0
  0.500000   0.750000 0
  0.750000   0.625000 0
  0.250000   0.000000 0
  0.375000   0.750000 0
  0.750000   0.875000 0
  0.625000   0.125000 0
  0.250000   0.250000 0
  0.375000   1.000000 0
  0.375000   0.250000 0
  0.000000   0.375000 0
  0.500000   1.000000 0
  0.875000   0.750000 0
  0.750000   0.000000 0
  0.375000   0.125000 0
  0.500000   0.875000 0
  0.000000   0.000000 0
  0.125000   0.750000 0
  0.500000   0.625000 0
  0.125000   0.250000 0
  0.500000   0.125000 0
  0.250000   1.000000 0
  0.250000   0.125000 0
  0.000000   1.000000 0
  0.375000   0.875000 0
  0.000000   0.750000 0
  0.375000   0.625000 0
  0.000000   0.250000 0
  0.125000   1.000000 0
  1.000000   0.375000 0
  0.500000   0.500000 0
  0.875000   0.375000 0
CELLS 64 320
4 56 71 58 63
4 27 58 69 63
4 41 69 32 63
4 76 33 68 40
4 27 44 58 37
4 79 31 44 37
4 56 38 68 21
4 56 58 38 37
4 52 32 71 63
4 47 38 31 37
4 76 68 59 21
4 22 59 43 21
4 65 45 33 40
4 47 43 38 21
4 52 71 45 40
4 56 68 71 40
4 74 30 66 23
4 46 66 29 23
4 22 43 30 23
4 72 48 77 34
4 46 53 42 73
4 50 64 53 73
4 70 42 57 73
4 74 66 48 34
4 46 42 66 34
4 47 29 43 23
4 70 77 42 34
4 60 57 64 73
4 79 67 31 75
4 47 31 29 75
4 50 53 67 75
4 46 29 53 75
4 10 78 6 80
4 36 6 1 80
4 15 1 12 80
4 36 4 6 26
4 14 12 78 80
4 2 17 9 26
4 36 18 4 55
4 15 28 1 11
4 62 4 20 55
4 10 6 17 26
4 27 18 44 11
4 62 9 4 26
4 27 69 18 55
4 36 1 18 11
4 41 20 69 55
4 79 44 28 11
4 16 24 54 7
4 19 54 39 7
4 50 39 64 7
4 8 25 61 3
4 60 64 24 7
4 79 28 67 13
4 19 51 61 49
4 8 61 0 49
4 15 51 28 13
4 19 39 51 13
4 50 67 39 13
4 19 61 54 3
4 14 0 12 49
4 5 35 25 3
4 15 12 51 49
4 16 54 35 3
CELL_TYPES 64
8
8
8
8
8
8
8
8
8
8
8
8
8
8
8
8
8
8
8
8
8
8
8
8
8
8
8
8
8
8
8
8
8
8
8
8
8
8
8
8
8
8
8
8
8
8
8
8
8
8
8
8
8
8
8
8
8
8
8
8
8
8
8
8
CELL_DATA 64
VECTORS vector_value float
0.512105 -0.661598 0
0.911544 -1.55346 0
0.0657112 -1.50813 0
0.035903 -1.90714 0
0.060487 -0.440893 0
0.0264278 -0.351935 0
0.44087 -0.611156 0
0.635984 -1.42577 0
0.127934 -0.641326 0
0.160958 -1.32781 0
0.183061 -2.29781 0
-0.148995 -2.24122 0
0.0416418 -1.797 0
-0.00567392 -0.892484 0
0.116312 -0.368189 0
0.163108 -0.475169 0
-0.50265 -1.77052 0
-0.570601 -2.03111 0
-0.0453878 -1.91701 0
0.288171 -0.488175 0
-0.427902 -0.948079 0
-0.16514 -0.38073 0
-0.964394 -1.35871 0
-0.243306 -0.785704 0
-0.610431 -2.42227 0
0.119945 -1.53827 0
-0.115243 -1.79809 0
-0.753412 -0.768426 0
-0.118463 -0.175688 0
0.209904 -1.04475 0
-0.0767871 -0.171718 0
-0.219122 -0.571703 0
-0.109635 -2.41001 0
-0.112695 -0.453791 0
-0.0259274 -0.586351 0
-0.413099 -0.631221 0
0.00259486 -2.36088 0
-0.0399288 -1.78461 0
-0.34994 -0.138059 0
-0.0498266 -0.038588 0
-0.134151 -0.190639 0
-0.155506 -1.95503 0
0.00589374 -0.292275 0
-0.0946102 -0.525621 0
-0.0011788 -0.678321 0
-0.078459 -0.0682904 0
0.0186063 -1.18448 0
-0.0961651 -0.20073 0
0.767034 -0.64791 0
-0.00737196 -0.258904 0
-0.0194448 -0.0325137 0
0.140257 -1.90448 0
-0.043244 -0.198997 0
-0.154393 -0.186949 0
0.101822 -0.3951 0
0.358354 -2.74462 0
-0.169044 -0.0808516 0
-0.0950539 -0.158785 0
-0.113865 -0.156446 0
0.414423 -1.26732 0
-0.213928 -2.60169 0
0.403439 -1.39395 0
-0.265084 -0.454787 0
0.926818 -1.34574 0
