# vtk DataFile Version 2.0
Unstructured Grid by M++
ASCII
DATASET UNSTRUCTURED_GRID
POINTS 81 float
  1.000000   0.625000 0
  0.750000   0.375000 0
  1.000000   0.000000 0
  0.875000   0.875000 0
  0.750000   0.125000 0
  1.000000   1.000000 0
  0.875000   0.250000 0
  0.625000   0.875000 0
  1.000000   0.750000 0
  0.875000   0.000000 0
  1.000000   0.250000 0
  0.625000   0.375000 0
  0.875000   0.500000 0
  0.625000   0.625000 0
  1.000000   0.500000 0
  0.750000   0.500000 0
  0.750000   1.000000 0
  1.000000   0.125000 0
  0.625000   0.250000 0
  0.750000   0.750000 0
  0.625000   0.000000 0
  0.125000   0.375000 0
  0.000000   0.500000 0
  0.125000   0.625000 0
  0.625000   1.000000 0
  1.000000   0.875000 0
  0.875000   0.125000 0
  0.500000   0.250000 0
  0.625000   0.500000 0
  0.250000   0.625000 0
  0.000000   0.625000 0
  0.375000   0.500000 0
  0.375000   0.000000 0
  0.000000   0.125000 0
  0.125000   0.875000 0
  0.875000   1.000000 0
  0.750000   0.250000 0
  0.375000   0.375000 0
  0.250000   0.375000 0
  0.625000   0.750000 0
  0.125000   0.125000 0
  0.500000   0.000000 0
  0.250000   0.875000 0
  0.125000   0.500000 0
  0.500000   0.375000 0
  0.125000   0.000000 0
  0.250000   0.750000 0
  0.250000   0.500000 0
  0.000000   0.875000 0
  0.875000   0.625000 0
  0.500000   0.750000 0
  0.750000   0.625000 0
  0.250000   0.000000 0
  0.375000   0.750000 0
  0.750000   0.875000 0
  0.625000   0.125000 0
  0.250000   0.250000 0
  0.375000   1.000000 0
  0.375000   0.250000 0
  0.000000   0.375000 0
  0.500000   1.000000 0
  0.875000   0.750000 0
  0.750000   0.000000 0
  0.375000   0.125000 0
  0.500000   0.875000 0
  0.000000   0.000000 0
  0.125000   0.750000 0
  0.500000   0.625000 0
  0.125000   0.250000 0
  0.500000   0.125000 0
  0.250000   1.000000 0
  0.250000   0.125000 0
  0.000000   1.000000 0
  0.375000   0.875000 0
  0.000000   0.750000 0
  0.375000   0.625000 0
  0.000000   0.250000 0
  0.125000   1.000000 0
  1.000000   0.375000 0
  0.500000   0.500000 0
  0.875000   0.375000 0
CELLS 64 320
4 56 71 58 63
4 27 58 69 63
4 41 69 32 63
4 76 33 68 40
4 27 44 58 37
4 79 31 44 37
4 56 38 68 21
4 56 58 38 37
4 52 32 71 63
4 47 38 31 37
4 76 68 59 21
4 22 59 43 21
4 65 45 33 40
4 47 43 38 21
4 52 71 45 40
4 56 68 71 40
4 74 30 66 23
4 46 66 29 23
4 22 43 30 23
4 72 48 77 34
4 46 53 42 73
4 50 64 53 73
4 70 42 57 73
4 74 66 48 34
4 46 42 66 34
4 47 29 43 23
4 70 77 42 34
4 60 57 64 73
4 79 67 31 75
4 47 31 29 75
4 50 53 67 75
4 46 29 53 75
4 10 78 6 80
4 36 6 1 80
4 15 1 12 80
4 36 4 6 26
4 14 12 78 80
4 2 17 9 26
4 36 18 4 55
4 15 28 1 11
4 62 4 20 55
4 10 6 17 26
4 27 18 44 11
4 62 9 4 26
4 27 69 18 55
4 36 1 18 11
4 41 20 69 55
4 79 44 28 11
4 16 24 54 7
4 19 54 39 7
4 50 39 64 7
4 8 25 61 3
4 60 64 24 7
4 79 28 67 13
4 19 51 61 49
4 8 61 0 49
4 15 51 28 13
4 19 39 51 13
4 50 67 39 13
4 19 61 54 3
4 14 0 12 49
4 5 35 25 3
4 15 12 51 49
4 16 54 35 3
CELL_TYPES 64
8
8
8
8
8
8
8
8
8
8
8
8
8
8
8
8
8
8
8
8
8
8
8
8
8
8
8
8
8
8
8
8
8
8
8
8
8
8
8
8
8
8
8
8
8
8
8
8
8
8
8
8
8
8
8
8
8
8
8
8
8
8
8
8
CELL_DATA 64
VECTORS vector_value float
0.615502 -0.363183 0
1.08809 -2.24719 0
0.596356 -1.51813 0
0.0316445 -0.805857 0
0.888733 -1.74095 0
0.0654843 -0.702859 0
0.485772 -1.96903 0
1.47663 -0.945298 0
0.135473 -0.225088 0
0.420635 -1.25259 0
-0.0731939 -0.614291 0
0.116017 -0.622253 0
0.00541433 -0.658168 0
0.384262 -2.55113 0
0.0256351 -0.596839 0
0.350348 -0.862762 0
-0.345416 -1.23715 0
-0.158467 -2.65399 0
0.235396 -1.16271 0
0.208851 -0.746492 0
-0.731409 -0.998906 0
-0.170477 -0.503607 0
-0.941756 -1.23932 0
-0.00689488 -0.483964 0
-0.790568 -2.92842 0
0.308026 -2.42823 0
-0.0573235 -1.47471 0
-1.05173 -0.85831 0
-0.0303507 -0.391489 0
0.225161 -0.983071 0
-0.0258709 -0.236872 0
-0.0452136 -0.72957 0
-0.0814804 -1.19711 0
-0.0614618 -0.331222 0
-0.0956812 -0.245643 0
-0.345442 -0.581533 0
-0.0555328 -1.3171 0
-0.0622147 -0.573597 0
0.00866489 -0.768778 0
-0.145012 -0.56351 0
-0.119486 -1.03314 0
-0.205182 -0.821773 0
0.0387062 -0.754115 0
-0.155276 -0.570823 0
0.685628 -1.54892 0
-0.0250954 -0.447974 0
0.555695 -2.82421 0
-0.179983 -0.744919 0
-0.260074 -1.0551 0
-0.0797898 -0.523323 0
-0.0559872 -0.590555 0
0.0237885 -0.223239 0
-0.681053 -0.935901 0
-0.117384 -0.787043 0
0.181154 -1.04808 0
0.355286 -0.854482 0
-0.147488 -0.537931 0
-0.0906426 -0.412729 0
-0.0633397 -0.827123 0
0.253244 -1.74799 0
0.17447 -1.35443 0
-0.372706 -0.484541 0
0.0215674 -0.355096 0
-0.464975 -1.20563 0
