# vtk DataFile Version 2.0
Unstructured Grid by M++
ASCII
DATASET UNSTRUCTURED_GRID
POINTS 81 float
  1.000000   0.625000 0
  0.750000   0.375000 0
  1.000000   0.000000 0
  0.875000   0.875000 0
  0.750000   0.125000 0
  1.000000   1.000000 0
  0.875000   0.250000 0
  0.625000   0.875000 0
  1.000000   0.750000 0
  0.875000   0.000000 0
  1.000000   0.250000 0
  0.625000   0.375000 0
  0.875000   0.500000 0
  0.625000   0.625000 0
  1.000000   0.500000 0
  0.750000   0.500000 0
  0.750000   1.000000 0
  1.000000   0.125000 0
  0.625000   0.250000 0
  0.750000   0.750000 0
  0.625000   0.000000 0
  0.125000   0.375000 0
  0.000000   0.500000 0
  0.125000   0.625000 0
  0.625000   1.000000 0
  1.000000   0.875000 0
  0.875000   0.125000 0
  0.500000   0.250000 0
  0.625000   0.500000 0
  0.250000   0.625000 0
  0.000000   0.625000 0
  0.375000   0.500000 0
  0.375000   0.000000 0
  0.000000   0.125000 0
  0.125000   0.875000 0
  0.875000   1.000000 0
  0.750000   0.250000 0
  0.375000   0.375000 0
  0.250000   0.375000 0
  0.625000   0.750000 0
  0.125000   0.125000 0
  0.500000   0.000000 0
  0.250000   0.875000 0
  0.125000   0.500000 0
  0.500000   0.375000 0
  0.125000   0.000000 0
  0.250000   0.750000 0
  0.250000   0.500000 0
  0.000000   0.875000 0
  0.875000   0.625000 0
  0.500000   0.750000 0
  0.750000   0.625000 0
  0.250000   0.000000 0
  0.375000   0.750000 0
  0.750000   0.875000 0
  0.625000   0.125000 0
  0.250000   0.250000 0
  0.375000   1.000000 0
  0.375000   0.250000 0
  0.000000   0.375000 0
  0.500000   1.000000 0
  0.875000   0.750000 0
  0.750000   0.000000 0
  0.375000   0.125000 0
  0.500000   0.875000 0
  0.000000   0.000000 0
  0.125000   0.750000 0
  0.500000   0.625000 0
  0.125000   0.250000 0
  0.500000   0.125000 0
  0.250000   1.000000 0
  0.250000   0.125000 0
  0.000000   1.000000 0
  0.375000   0.875000 0
  0.000000   0.750000 0
  0.375000   0.625000 0
  0.000000   0.250000 0
  0.125000   1.000000 0
  1.000000   0.375000 0
  0.500000   0.500000 0
  0.875000   0.375000 0
CELLS 64 320
4 56 71 58 63
4 27 58 69 63
4 41 69 32 63
4 76 33 68 40
4 27 44 58 37
4 79 31 44 37
4 56 38 68 21
4 56 58 38 37
4 52 32 71 63
4 47 38 31 37
4 76 68 59 21
4 22 59 43 21
4 65 45 33 40
4 47 43 38 21
4 52 71 45 40
4 56 68 71 40
4 74 30 66 23
4 46 66 29 23
4 22 43 30 23
4 72 48 77 34
4 46 53 42 73
4 50 64 53 73
4 70 42 57 73
4 74 66 48 34
4 46 42 66 34
4 47 29 43 23
4 70 77 42 34
4 60 57 64 73
4 79 67 31 75
4 47 31 29 75
4 50 53 67 75
4 46 29 53 75
4 10 78 6 80
4 36 6 1 80
4 15 1 12 80
4 36 4 6 26
4 14 12 78 80
4 2 17 9 26
4 36 18 4 55
4 15 28 1 11
4 62 4 20 55
4 10 6 17 26
4 27 18 44 11
4 62 9 4 26
4 27 69 18 55
4 36 1 18 11
4 41 20 69 55
4 79 44 28 11
4 16 24 54 7
4 19 54 39 7
4 50 39 64 7
4 8 25 61 3
4 60 64 24 7
4 79 28 67 13
4 19 51 61 49
4 8 61 0 49
4 15 51 28 13
4 19 39 51 13
4 50 67 39 13
4 19 61 54 3
4 14 0 12 49
4 5 35 25 3
4 15 12 51 49
4 16 54 35 3
CELL_TYPES 64
8
8
8
8
8
8
8
8
8
8
8
8
8
8
8
8
8
8
8
8
8
8
8
8
8
8
8
8
8
8
8
8
8
8
8
8
8
8
8
8
8
8
8
8
8
8
8
8
8
8
8
8
8
8
8
8
8
8
8
8
8
8
8
8
CELL_DATA 64
VECTORS vector_value float
0.0930313 -0.916755 0
0.0273735 -0.735953 0
0.162495 -1.15478 0
-0.793301 -3.14037 0
-0.238221 -0.557377 0
-0.774303 -1.24046 0
-1.91043 -2.08829 0
-1.20459 -1.80132 0
0.3865 -1.119 0
-1.28298 -2.49372 0
-0.57437 -1.55832 0
-0.14507 -0.776764 0
-0.0502292 -3.70341 0
-0.551045 -1.09699 0
0.00765459 -0.203566 0
-0.388067 -1.33608 0
-0.019399 -0.219269 0
-0.171271 -0.323901 0
-0.166613 -0.482635 0
0.341393 -0.461716 0
0.107618 -1.92784 0
-0.556697 -2.93404 0
0.779598 -1.73414 0
0.0475112 -0.252523 0
0.123672 -0.299054 0
-0.422903 -0.619983 0
1.00846 -0.771504 0
-0.364205 -1.68133 0
-0.273182 -3.019 0
-0.498549 -1.72781 0
-0.0595456 -2.77908 0
-0.282686 -2.72927 0
0.2186 -1.32746 0
0.0895007 -0.200311 0
0.434236 -0.577852 0
-0.0564264 -0.144413 0
0.222747 -0.808838 0
-0.0387394 -1.13159 0
0.0583649 -0.251482 0
0.130662 -0.15273 0
-0.00216378 -0.293116 0
-0.0991621 -1.34856 0
-0.0145045 -0.395243 0
-0.0927334 -0.347851 0
0.00235144 -0.126385 0
0.0190594 -0.0716862 0
-0.00883325 -0.046686 0
-0.111923 -0.852645 0
-0.85192 -0.858938 0
-0.281148 -0.464134 0
-0.904165 -0.915088 0
-0.0556308 -0.511104 0
-0.780755 -0.669745 0
0.14175 -0.568919 0
-0.0840671 -0.675264 0
-0.0255142 -0.37531 0
0.103106 -0.494159 0
-0.0503192 -0.548118 0
-0.0294907 -0.349785 0
-0.113346 -0.696216 0
0.0692972 -0.407133 0
-0.232258 -0.641629 0
0.211936 -0.680362 0
-0.599038 -1.181 0
