# vtk DataFile Version 2.0
Unstructured Grid by M++
ASCII
DATASET UNSTRUCTURED_GRID
POINTS 81 float
  1.000000   0.625000 0
  0.750000   0.375000 0
  1.000000   0.000000 0
  0.875000   0.875000 0
  0.750000   0.125000 0
  1.000000   1.000000 0
  0.875000   0.250000 0
  0.625000   0.875000 0
  1.000000   0.750000 0
  0.875000   0.000000 0
  1.000000   0.250000 0
  0.625000   0.375000 0
  0.875000   0.500000 0
  0.625000   0.625000 0
  1.000000   0.500000 0
  0.750000   0.500000 0
  0.750000   1.000000 0
  1.000000   0.125000 0
  0.625000   0.250000 0
  0.750000   0.750000 0
  0.625000   0.000000 0
  0.125000   0.375000 0
  0.000000   0.500000 0
  0.125000   0.625000 0
  0.625000   1.000000 0
  1.000000   0.875000 0
  0.875000   0.125000 0
  0.500000   0.250000 0
  0.625000   0.500000 0
  0.250000   0.625000 0
  0.000000   0.625000 0
  0.375000   0.500000 0
  0.375000   0.000000 0
  0.000000   0.125000 0
  0.125000   0.875000 0
  0.875000   1.000000 0
  0.750000   0.250000 0
  0.375000   0.375000 0
  0.250000   0.375000 0
  0.625000   0.750000 0
  0.125000   0.125000 0
  0.500000   0.000000 0
  0.250000   0.875000 0
  0.125000   0.500000 0
  0.500000   0.375000 0
  0.125000   0.000000 0
  0.250000   0.750000 0
  0.250000   0.500000 0
  0.000000   0.875000 0
  0.875000   0.625000 0
  0.500000   0.750000 0
  0.750000   0.625000 0
  0.250000   0.000000 0
  0.375000   0.750000 0
  0.750000   0.875000 0
  0.625000   0.125000 0
  0.250000   0.250000 0
  0.375000   1.000000 0
  0.375000   0.250000 0
  0.000000   0.375000 0
  0.500000   1.000000 0
  0.875000   0.750000 0
  0.750000   0.000000 0
  0.375000   0.125000 0
  0.500000   0.875000 0
  0.000000   0.000000 0
  0.125000   0.750000 0
  0.500000   0.625000 0
  0.125000   0.250000 0
  0.500000   0.125000 0
  0.250000   1.000000 0
  0.250000   0.125000 0
  0.000000   1.000000 0
  0.375000   0.875000 0
  0.000000   0.750000 0
  0.375000   0.625000 0
  0.000000   0.250000 0
  0.125000   1.000000 0
  1.000000   0.375000 0
  0.500000   0.500000 0
  0.875000   0.375000 0
CELLS 64 320
4 56 71 58 63
4 27 58 69 63
4 41 69 32 63
4 76 33 68 40
4 27 44 58 37
4 79 31 44 37
4 56 38 68 21
4 56 58 38 37
4 52 32 71 63
4 47 38 31 37
4 76 68 59 21
4 22 59 43 21
4 65 45 33 40
4 47 43 38 21
4 52 71 45 40
4 56 68 71 40
4 74 30 66 23
4 46 66 29 23
4 22 43 30 23
4 72 48 77 34
4 46 53 42 73
4 50 64 53 73
4 70 42 57 73
4 74 66 48 34
4 46 42 66 34
4 47 29 43 23
4 70 77 42 34
4 60 57 64 73
4 79 67 31 75
4 47 31 29 75
4 50 53 67 75
4 46 29 53 75
4 10 78 6 80
4 36 6 1 80
4 15 1 12 80
4 36 4 6 26
4 14 12 78 80
4 2 17 9 26
4 36 18 4 55
4 15 28 1 11
4 62 4 20 55
4 10 6 17 26
4 27 18 44 11
4 62 9 4 26
4 27 69 18 55
4 36 1 18 11
4 41 20 69 55
4 79 44 28 11
4 16 24 54 7
4 19 54 39 7
4 50 39 64 7
4 8 25 61 3
4 60 64 24 7
4 79 28 67 13
4 19 51 61 49
4 8 61 0 49
4 15 51 28 13
4 19 39 51 13
4 50 67 39 13
4 19 61 54 3
4 14 0 12 49
4 5 35 25 3
4 15 12 51 49
4 16 54 35 3
CELL_TYPES 64
8
8
8
8
8
8
8
8
8
8
8
8
8
8
8
8
8
8
8
8
8
8
8
8
8
8
8
8
8
8
8
8
8
8
8
8
8
8
8
8
8
8
8
8
8
8
8
8
8
8
8
8
8
8
8
8
8
8
8
8
8
8
8
8
CELL_DATA 64
VECTORS vector_value float
0.0952141 -1.2377 0
0.483078 -4.13902 0
0.416306 -3.50863 0
-0.00486147 -0.106149 0
-0.197047 -4.48522 0
-1.03211 -4.24599 0
-0.0142898 -0.0208404 0
-0.201465 -1.04378 0
0.0325131 -0.584309 0
0.190788 -0.726315 0
-0.00971909 -0.0863047 0
0.0161627 -0.0830244 0
-0.0167037 -0.13786 0
0.107937 -0.0849113 0
-0.142639 -0.200128 0
-0.00887397 -0.0140232 0
0.00358349 -0.497165 0
0.0522573 -0.403557 0
0.176732 -0.254145 0
0.265315 -0.676515 0
0.741391 -1.53794 0
0.628605 -1.3651 0
0.324084 -1.68217 0
-0.0022231 -0.452216 0
0.117599 -0.670162 0
0.473451 -0.355696 0
0.652861 -1.09597 0
-0.275747 -0.685034 0
-0.147467 -2.26846 0
0.351985 -0.402445 0
1.01715 -1.73147 0
0.340765 -0.53329 0
0.0514489 -0.693892 0
0.290095 -0.910014 0
-0.279469 -0.851302 0
0.296621 -0.852221 0
-0.0299189 -0.617805 0
-0.160309 -0.466004 0
0.0568547 -0.228467 0
-0.174582 -0.518153 0
0.070644 -0.764506 0
-0.0134104 -1.22334 0
0.195673 -0.289436 0
-0.594213 -1.41052 0
0.0606553 -0.199085 0
0.373783 -0.470517 0
0.786348 -0.928046 0
-0.622459 -0.872498 0
0.573058 -0.932062 0
-0.0391684 -0.518795 0
-0.00344336 -0.628542 0
0.359391 -2.1653 0
0.168429 -0.437221 0
-1.12733 -2.26778 0
-0.286415 -0.54493 0
-0.186682 -2.16635 0
-0.813036 -0.455509 0
-0.277007 -0.269312 0
0.278235 -1.85393 0
0.245914 -0.66194 0
-0.588385 -1.49603 0
0.274149 -1.33308 0
-0.876473 -0.49993 0
0.776167 -1.15795 0
