# vtk DataFile Version 2.0
Unstructured Grid by M++
ASCII
DATASET UNSTRUCTURED_GRID
POINTS 81 float
  1.000000   0.625000 0
  0.750000   0.375000 0
  1.000000   0.000000 0
  0.875000   0.875000 0
  0.750000   0.125000 0
  1.000000   1.000000 0
  0.875000   0.250000 0
  0.625000   0.875000 0
  1.000000   0.750000 0
  0.875000   0.000000 0
  1.000000   0.250000 0
  0.625000   0.375000 0
  0.875000   0.500000 0
  0.625000   0.625000 0
  1.000000   0.500000 0
  0.750000   0.500000 0
  0.750000   1.000000 0
  1.000000   0.125000 0
  0.625000   0.250000 0
  0.750000   0.750000 0
  0.625000   0.000000 0
  0.125000   0.375000 0
  0.000000   0.500000 0
  0.125000   0.625000 0
  0.625000   1.000000 0
  1.000000   0.875000 0
  0.875000   0.125000 0
  0.500000   0.250000 0
  0.625000   0.500000 0
  0.250000   0.625000 0
  0.000000   0.625000 0
  0.375000   0.500000 0
  0.375000   0.000000 0
  0.000000   0.125000 0
  0.125000   0.875000 0
  0.875000   1.000000 0
  0.750000   0.250000 0
  0.375000   0.375000 0
  0.250000   0.375000 0
  0.625000   0.750000 0
  0.125000   0.125000 0
  0.500000   0.000000 0
  0.250000   0.875000 0
  0.125000   0.500000 0
  0.500000   0.375000 0
  0.125000   0.000000 0
  0.250000   0.750000 0
  0.250000   0.500000 0
  0.000000   0.875000 0
  0.875000   0.625000 0
  0.500000   0.750000 0
  0.750000   0.625000 0
  0.250000   0.000000 0
  0.375000   0.750000 0
  0.750000   0.875000 0
  0.625000   0.125000 0
  0.250000   0.250000 0
  0.375000   1.000000 0
  0.375000   0.250000 0
  0.000000   0.375000 0
  0.500000   1.000000 0
  0.875000   0.750000 0
  0.750000   0.000000 0
  0.375000   0.125000 0
  0.500000   0.875000 0
  0.000000   0.000000 0
  0.125000   0.750000 0
  0.500000   0.625000 0
  0.125000   0.250000 0
  0.500000   0.125000 0
  0.250000   1.000000 0
  0.250000   0.125000 0
  0.000000   1.000000 0
  0.375000   0.875000 0
  0.000000   0.750000 0
  0.375000   0.625000 0
  0.000000   0.250000 0
  0.125000   1.000000 0
  1.000000   0.375000 0
  0.500000   0.500000 0
  0.875000   0.375000 0
CELLS 64 320
4 56 71 58 63
4 27 58 69 63
4 41 69 32 63
4 76 33 68 40
4 27 44 58 37
4 79 31 44 37
4 56 38 68 21
4 56 58 38 37
4 52 32 71 63
4 47 38 31 37
4 76 68 59 21
4 22 59 43 21
4 65 45 33 40
4 47 43 38 21
4 52 71 45 40
4 56 68 71 40
4 74 30 66 23
4 46 66 29 23
4 22 43 30 23
4 72 48 77 34
4 46 53 42 73
4 50 64 53 73
4 70 42 57 73
4 74 66 48 34
4 46 42 66 34
4 47 29 43 23
4 70 77 42 34
4 60 57 64 73
4 79 67 31 75
4 47 31 29 75
4 50 53 67 75
4 46 29 53 75
4 10 78 6 80
4 36 6 1 80
4 15 1 12 80
4 36 4 6 26
4 14 12 78 80
4 2 17 9 26
4 36 18 4 55
4 15 28 1 11
4 62 4 20 55
4 10 6 17 26
4 27 18 44 11
4 62 9 4 26
4 27 69 18 55
4 36 1 18 11
4 41 20 69 55
4 79 44 28 11
4 16 24 54 7
4 19 54 39 7
4 50 39 64 7
4 8 25 61 3
4 60 64 24 7
4 79 28 67 13
4 19 51 61 49
4 8 61 0 49
4 15 51 28 13
4 19 39 51 13
4 50 67 39 13
4 19 61 54 3
4 14 0 12 49
4 5 35 25 3
4 15 12 51 49
4 16 54 35 3
CELL_TYPES 64
8
8
8
8
8
8
8
8
8
8
8
8
8
8
8
8
8
8
8
8
8
8
8
8
8
8
8
8
8
8
8
8
8
8
8
8
8
8
8
8
8
8
8
8
8
8
8
8
8
8
8
8
8
8
8
8
8
8
8
8
8
8
8
8
CELL_DATA 64
VECTORS vector_value float
-0.196942 -0.359079 0
-0.15684 -0.128452 0
-0.0103332 -0.0891728 0
-0.0287507 -0.9257 0
-0.268124 -0.0740626 0
-0.186766 -0.0757287 0
-0.219194 -0.347845 0
-0.294104 -0.407906 0
-0.012127 -0.29805 0
-0.0737928 -0.289984 0
-0.109805 -0.82238 0
-0.0130949 -0.656372 0
-0.0016613 -0.952562 0
-0.0439486 -0.375755 0
-0.0126753 -0.607489 0
-0.157965 -0.497051 0
-0.0457064 -0.552501 0
-0.149003 -0.288362 0
-0.0240989 -0.633922 0
0.189964 -0.767513 0
0.29242 -0.678521 0
0.962886 -1.02281 0
1.21662 -1.01169 0
0.0565949 -0.522562 0
0.112102 -0.194059 0
-0.0646389 -0.343858 0
0.776904 -0.45461 0
1.09425 -1.65439 0
-0.0269016 -0.0489389 0
-0.0654483 -0.256628 0
0.187418 -0.300171 0
-0.0777221 -0.312135 0
0.456744 -0.851664 0
0.609522 -1.19356 0
0.449349 -1.44216 0
1.38368 -1.86999 0
0.0634683 -0.141283 0
0.764559 -3.20083 0
0.422103 -1.73127 0
-0.32272 -4.0184 0
0.14878 -1.26051 0
0.382709 -1.65437 0
-0.179354 -1.12378 0
0.483648 -0.896411 0
-0.00537705 -0.834097 0
0.652638 -3.17881 0
0.0178634 -0.694973 0
-0.533642 -1.00031 0
0.274258 -1.54505 0
0.447372 -2.14554 0
1.34899 -1.51571 0
0.103212 -1.27373 0
0.516913 -0.664959 0
-0.0555003 -0.40282 0
0.224165 -1.90614 0
-0.361492 -0.854789 0
-0.746604 -3.11926 0
1.37647 -2.77702 0
1.09833 -1.00888 0
0.15328 -0.647062 0
-0.181148 -0.252503 0
-0.000207752 -0.962063 0
-1.05408 -2.94207 0
-0.0199141 -0.939725 0
