# vtk DataFile Version 2.0
Unstructured Grid by M++
ASCII
DATASET UNSTRUCTURED_GRID
POINTS 289 float
  0.562500   1.000000 0
  0.562500   0.625000 0
  0.625000   1.000000 0
  0.562500   0.937500 0
  0.562500   0.562500 0
  0.625000   0.937500 0
  0.562500   0.875000 0
  0.625000   0.750000 0
  0.625000   0.625000 0
  0.562500   0.812500 0
  0.562500   0.750000 0
  0.562500   0.687500 0
  0.625000   0.875000 0
  0.625000   0.812500 0
  0.625000   0.687500 0
  0.687500   0.125000 0
  0.875000   0.062500 0
  0.625000   0.125000 0
  0.625000   0.187500 0
  0.625000   0.250000 0
  0.812500   0.187500 0
  1.000000   0.125000 0
  0.687500   0.187500 0
  0.750000   0.125000 0
  0.937500   0.062500 0
  0.937500   0.125000 0
  0.750000   0.187500 0
  0.812500   0.062500 0
  0.812500   0.125000 0
  0.875000   0.687500 0
  0.187500   0.250000 0
  0.437500   0.250000 0
  0.375000   0.187500 0
  0.812500   0.625000 0
  0.125000   0.187500 0
  0.937500   0.750000 0
  0.250000   0.312500 0
  0.500000   0.312500 0
  0.625000   0.062500 0
  0.437500   0.500000 0
  0.375000   0.125000 0
  0.437500   0.187500 0
  0.437500   0.437500 0
  0.437500   0.375000 0
  0.875000   0.875000 0
  0.187500   0.375000 0
  0.687500   0.562500 0
  0.687500   0.625000 0
  0.000000   0.125000 0
  0.937500   0.625000 0
  0.250000   0.125000 0
  0.375000   0.062500 0
  0.375000   0.000000 0
  0.812500   0.500000 0
  0.125000   0.000000 0
  0.937500   0.937500 0
  0.250000   0.437500 0
  0.687500   0.875000 0
  0.687500   0.937500 0
  0.000000   0.437500 0
  0.500000   0.500000 0
  0.500000   0.437500 0
  0.750000   0.937500 0
  0.750000   1.000000 0
  0.062500   0.500000 0
  1.000000   1.000000 0
  0.312500   0.500000 0
  0.875000   0.562500 0
  0.187500   0.062500 0
  0.437500   0.125000 0
  0.437500   0.062500 0
  0.500000   0.375000 0
  0.937500   0.812500 0
  0.937500   0.875000 0
  0.250000   0.375000 0
  0.687500   0.812500 0
  0.000000   0.375000 0
  0.750000   0.562500 0
  0.062500   0.125000 0
  1.000000   0.562500 0
  1.000000   0.625000 0
  0.312500   0.125000 0
  0.562500   0.125000 0
  0.437500   0.000000 0
  0.875000   0.437500 0
  0.875000   0.500000 0
  0.187500   0.000000 0
  0.937500   0.562500 0
  0.937500   0.500000 0
  0.250000   0.062500 0
  0.687500   0.500000 0
  0.000000   0.062500 0
  0.500000   0.062500 0
  1.000000   0.875000 0
  1.000000   0.937500 0
  0.312500   0.437500 0
  0.750000   0.875000 0
  0.062500   0.437500 0
  0.812500   0.937500 0
  0.125000   0.500000 0
  0.375000   0.500000 0
  0.625000   0.562500 0
  0.625000   0.500000 0
  0.437500   0.312500 0
  0.875000   0.812500 0
  0.875000   0.750000 0
  0.187500   0.312500 0
  0.812500   0.687500 0
  0.812500   0.750000 0
  0.125000   0.250000 0
  0.375000   0.250000 0
  1.000000   0.687500 0
  0.312500   0.187500 0
  0.750000   0.687500 0
  0.750000   0.625000 0
  0.062500   0.187500 0
  0.562500   0.250000 0
  0.562500   0.187500 0
  0.375000   1.000000 0
  0.500000   0.562500 0
  0.500000   0.250000 0
  0.750000   0.250000 0
  0.500000   0.125000 0
  0.500000   0.187500 0
  1.000000   0.187500 0
  0.625000   0.375000 0
  0.875000   0.375000 0
  1.000000   0.437500 0
  0.312500   0.000000 0
  0.562500   0.000000 0
  0.812500   0.000000 0
  0.250000   0.687500 0
  0.000000   0.687500 0
  0.500000   1.000000 0
  0.250000   1.000000 0
  0.000000   1.000000 0
  0.437500   0.687500 0
  0.437500   0.625000 0
  0.187500   0.625000 0
  0.687500   0.750000 0
  0.000000   0.312500 0
  0.000000   0.250000 0
  0.375000   0.375000 0
  0.375000   0.312500 0
  0.812500   0.812500 0
  0.125000   0.312500 0
  0.875000   0.625000 0
  0.187500   0.187500 0
  0.187500   0.125000 0
  0.937500   1.000000 0
  0.250000   0.562500 0
  0.250000   0.500000 0
  0.687500   1.000000 0
  0.000000   0.500000 0
  0.687500   0.687500 0
  0.000000   0.187500 0
  0.937500   0.687500 0
  0.250000   0.250000 0
  0.250000   0.187500 0
  0.187500   0.687500 0
  0.000000   0.750000 0
  0.250000   0.750000 0
  0.125000   0.625000 0
  0.750000   0.750000 0
  0.062500   0.250000 0
  0.875000   0.937500 0
  0.187500   0.500000 0
  0.187500   0.437500 0
  0.812500   0.562500 0
  0.125000   0.125000 0
  0.125000   0.062500 0
  0.375000   0.625000 0
  0.375000   0.687500 0
  1.000000   0.750000 0
  0.312500   0.250000 0
  0.312500   0.312500 0
  0.812500   0.312500 0
  0.562500   0.312500 0
  0.375000   0.750000 0
  0.500000   0.625000 0
  0.250000   0.625000 0
  0.312500   0.687500 0
  0.750000   0.812500 0
  0.062500   0.312500 0
  0.062500   0.375000 0
  1.000000   0.812500 0
  0.312500   0.375000 0
  0.562500   0.375000 0
  0.687500   0.437500 0
  0.000000   0.000000 0
  0.500000   0.000000 0
  0.937500   0.437500 0
  0.250000   0.000000 0
  0.375000   0.437500 0
  0.812500   0.875000 0
  0.125000   0.375000 0
  0.125000   0.437500 0
  0.625000   0.437500 0
  1.000000   0.500000 0
  0.312500   0.062500 0
  0.750000   0.500000 0
  0.062500   0.000000 0
  0.062500   0.062500 0
  0.562500   0.062500 0
  0.062500   0.750000 0
  0.312500   0.750000 0
  0.312500   0.625000 0
  0.312500   0.562500 0
  0.062500   0.562500 0
  0.187500   1.000000 0
  0.437500   0.562500 0
  0.875000   1.000000 0
  0.187500   0.562500 0
  0.500000   0.937500 0
  0.250000   0.937500 0
  0.312500   1.000000 0
  0.125000   0.750000 0
  0.125000   0.687500 0
  1.000000   0.000000 0
  0.000000   0.937500 0
  0.000000   0.875000 0
  0.875000   0.125000 0
  0.875000   0.187500 0
  0.062500   0.812500 0
  0.312500   0.812500 0
  0.000000   0.812500 0
  0.000000   0.625000 0
  0.000000   0.562500 0
  0.062500   1.000000 0
  0.062500   0.937500 0
  0.937500   0.187500 0
  0.937500   0.250000 0
  0.062500   0.687500 0
  0.062500   0.625000 0
  0.125000   1.000000 0
  1.000000   0.250000 0
  1.000000   0.312500 0
  0.062500   0.875000 0
  0.125000   0.812500 0
  0.375000   0.812500 0
  0.125000   0.875000 0
  0.375000   0.937500 0
  0.375000   0.875000 0
  0.187500   0.750000 0
  0.187500   0.812500 0
  0.437500   0.812500 0
  0.187500   0.875000 0
  0.437500   0.875000 0
  0.375000   0.562500 0
  0.812500   1.000000 0
  0.125000   0.562500 0
  0.437500   1.000000 0
  0.437500   0.937500 0
  0.187500   0.937500 0
  0.125000   0.937500 0
  0.500000   0.687500 0
  0.500000   0.750000 0
  0.500000   0.812500 0
  0.250000   0.812500 0
  0.250000   0.875000 0
  0.500000   0.875000 0
  0.437500   0.750000 0
  0.312500   0.875000 0
  0.312500   0.937500 0
  0.687500   0.250000 0
  0.687500   0.312500 0
  0.937500   0.312500 0
  0.875000   0.250000 0
  0.625000   0.000000 0
  0.875000   0.000000 0
  0.687500   0.375000 0
  0.937500   0.375000 0
  0.875000   0.312500 0
  0.625000   0.312500 0
  0.687500   0.000000 0
  0.937500   0.000000 0
  0.750000   0.312500 0
  0.750000   0.375000 0
  1.000000   0.375000 0
  0.812500   0.250000 0
  0.562500   0.437500 0
  0.562500   0.500000 0
  0.687500   0.062500 0
  0.750000   0.437500 0
  0.750000   0.000000 0
  0.750000   0.062500 0
  1.000000   0.062500 0
  0.812500   0.375000 0
  0.812500   0.437500 0
CELLS 256 1280
4 169 170 148 68
4 151 166 56 167
4 195 45 196 167
4 54 170 201 202
4 109 34 30 147
4 40 32 81 112
4 192 89 86 68
4 48 91 78 202
4 99 64 196 97
4 71 43 37 103
4 74 186 56 95
4 109 164 34 115
4 50 81 158 112
4 122 69 92 70
4 195 145 45 106
4 110 143 174 175
4 157 30 158 147
4 40 69 32 41
4 50 158 148 147
4 141 155 164 115
4 122 123 69 41
4 142 186 143 175
4 60 39 61 42
4 40 51 69 70
4 120 31 123 41
4 157 174 36 175
4 50 148 89 68
4 48 78 155 115
4 52 83 51 70
4 151 56 66 95
4 71 61 43 42
4 169 148 34 147
4 100 193 39 42
4 40 81 51 199
4 110 174 32 112
4 109 30 145 106
4 100 66 193 95
4 169 34 78 115
4 190 92 83 70
4 50 89 81 199
4 54 86 170 68
4 74 56 45 167
4 142 143 43 103
4 153 59 64 97
4 99 196 166 167
4 169 78 170 202
4 142 193 186 95
4 192 128 89 199
4 74 45 36 106
4 110 31 143 103
4 76 184 59 97
4 142 43 193 42
4 52 51 128 199
4 189 201 91 202
4 120 37 31 103
4 74 36 186 175
4 195 196 184 97
4 141 164 140 183
4 157 158 174 112
4 109 145 164 183
4 195 184 145 183
4 110 32 31 41
4 157 36 30 106
4 76 140 184 183
4 171 172 206 181
4 178 172 261 136
4 256 261 255 136
4 256 257 261 245
4 180 150 206 207
4 60 119 39 210
4 118 215 241 263
4 178 205 172 181
4 216 243 238 244
4 162 217 233 232
4 180 206 131 181
4 179 137 119 210
4 216 204 217 232
4 220 237 219 229
4 216 217 243 159
4 259 258 262 224
4 240 254 237 229
4 153 64 227 208
4 161 205 258 224
4 240 237 238 223
4 226 227 233 208
4 234 228 254 229
4 171 248 137 210
4 160 132 204 232
4 180 131 138 159
4 133 251 213 252
4 171 206 248 207
4 162 138 217 159
4 161 258 243 244
4 220 225 237 223
4 151 150 166 212
4 260 247 257 245
4 259 262 214 263
4 151 66 150 207
4 234 254 209 253
4 162 233 250 208
4 242 241 262 263
4 171 137 172 136
4 161 243 131 159
4 160 204 225 223
4 161 131 205 181
4 179 255 137 136
4 216 238 204 223
4 100 39 248 210
4 260 213 247 252
4 226 233 132 232
4 134 214 215 263
4 180 138 150 212
4 178 261 239 245
4 259 246 258 244
4 178 239 205 224
4 240 238 246 244
4 242 262 239 224
4 99 250 64 208
4 240 246 254 253
4 242 239 247 245
4 135 219 228 229
4 99 166 250 212
4 259 214 246 253
4 118 241 251 252
4 100 248 66 207
4 134 209 214 253
4 162 250 138 212
4 242 247 241 252
4 71 187 61 280
4 102 281 197 280
4 122 92 82 203
4 17 18 82 117
4 122 82 123 117
4 19 264 273 265
4 267 279 222 20
4 125 273 270 265
4 267 272 279 176
4 19 116 18 117
4 21 25 286 24
4 23 28 26 20
4 23 285 28 27
4 218 286 275 24
4 85 53 84 288
4 235 236 231 266
4 221 222 28 20
4 267 222 231 230
4 268 38 129 203
4 125 270 197 188
4 126 287 272 176
4 277 270 276 265
4 267 231 272 266
4 125 197 187 280
4 190 129 92 203
4 277 276 287 176
4 19 18 264 22
4 17 82 38 203
4 102 197 90 188
4 126 84 287 288
4 284 130 285 27
4 121 276 264 265
4 71 37 187 177
4 120 123 116 117
4 198 88 127 191
4 221 16 25 24
4 23 26 15 22
4 121 279 276 176
4 235 231 124 230
4 125 187 273 177
4 278 271 236 266
4 277 287 283 288
4 284 285 274 282
4 278 127 271 191
4 269 275 16 24
4 200 283 53 288
4 23 15 285 282
4 121 26 279 20
4 21 124 25 230
4 19 273 116 177
4 200 90 283 188
4 126 271 84 191
4 269 16 130 27
4 17 38 15 282
4 221 25 222 230
4 121 264 26 22
4 120 116 37 177
4 60 61 281 280
4 277 283 270 188
4 126 272 271 266
4 268 274 38 282
4 85 84 88 191
4 17 15 18 22
4 221 28 16 27
4 93 94 73 55
4 85 88 67 87
4 80 49 79 87
4 44 104 73 72
4 146 33 67 168
4 211 165 149 55
4 8 47 14 154
4 105 104 108 144
4 105 108 29 107
4 7 139 13 75
4 44 165 194 98
4 200 53 77 168
4 8 1 101 4
4 2 5 152 58
4 260 6 213 3
4 105 35 104 72
4 96 57 182 75
4 7 14 139 154
4 146 29 33 107
4 7 13 10 9
4 12 13 57 75
4 85 67 53 168
4 44 73 165 55
4 63 152 62 58
4 8 101 47 46
4 96 182 194 144
4 60 281 119 4
4 12 5 6 3
4 173 185 35 72
4 65 149 94 55
4 146 67 49 87
4 114 113 47 154
4 163 108 182 144
4 12 6 13 9
4 173 35 111 156
4 163 182 139 75
4 260 257 6 9
4 105 29 35 156
4 163 139 113 154
4 256 10 257 9
4 146 49 29 156
4 163 113 108 107
4 80 111 49 156
4 102 101 281 4
4 12 57 5 58
4 44 194 104 144
4 96 194 62 98
4 2 0 5 3
4 93 73 185 72
4 179 119 1 4
4 200 77 90 46
4 114 33 113 107
4 7 10 14 11
4 96 62 57 58
4 133 213 0 3
4 102 90 101 46
4 256 255 10 11
4 63 62 249 98
4 114 47 77 46
4 179 1 255 11
4 211 249 165 98
4 114 77 33 168
4 198 79 88 87
4 8 14 1 11
CELL_TYPES 256
8
8
8
8
8
8
8
8
8
8
8
8
8
8
8
8
8
8
8
8
8
8
8
8
8
8
8
8
8
8
8
8
8
8
8
8
8
8
8
8
8
8
8
8
8
8
8
8
8
8
8
8
8
8
8
8
8
8
8
8
8
8
8
8
8
8
8
8
8
8
8
8
8
8
8
8
8
8
8
8
8
8
8
8
8
8
8
8
8
8
8
8
8
8
8
8
8
8
8
8
8
8
8
8
8
8
8
8
8
8
8
8
8
8
8
8
8
8
8
8
8
8
8
8
8
8
8
8
8
8
8
8
8
8
8
8
8
8
8
8
8
8
8
8
8
8
8
8
8
8
8
8
8
8
8
8
8
8
8
8
8
8
8
8
8
8
8
8
8
8
8
8
8
8
8
8
8
8
8
8
8
8
8
8
8
8
8
8
8
8
8
8
8
8
8
8
8
8
8
8
8
8
8
8
8
8
8
8
8
8
8
8
8
8
8
8
8
8
8
8
8
8
8
8
8
8
8
8
8
8
8
8
8
8
8
8
8
8
8
8
8
8
8
8
8
8
8
8
8
8
8
8
8
8
8
8
CELL_DATA 256
VECTORS vector_value float
1.82884 -1.23562 0
-0.091875 -0.116032 0
-0.075752 -0.137748 0
0.56381 -1.51743 0
0.513853 -0.676071 0
-0.726609 -1.21349 0
0.79036 -2.12026 0
0.829118 -2.50917 0
-0.184542 -0.668494 0
0.0651069 -1.8392 0
-0.103007 -0.208541 0
0.805548 -2.13672 0
-0.163429 -1.34052 0
-0.315763 -0.265026 0
-0.0353059 -0.161948 0
-0.099549 -0.581483 0
0.144686 -0.308159 0
-0.619139 -0.882275 0
0.819588 -0.964969 0
0.359769 -5.14299 0
-0.469586 -0.56844 0
-0.102815 -0.472325 0
0.485061 -0.957814 0
-0.657554 -0.733509 0
-0.335664 -0.734367 0
-0.0404301 -0.254711 0
1.26488 -1.63159 0
0.748806 -4.30468 0
-0.203972 -0.431628 0
0.010165 -0.283034 0
0.993473 -1.87839 0
1.31654 -0.993571 0
1.47511 -1.77609 0
-0.528853 -1.48499 0
-0.564978 -1.01938 0
0.0794836 -0.312095 0
0.884981 -1.58395 0
1.29211 -1.77353 0
-0.103757 -0.166806 0
0.309372 -2.53096 0
0.801551 -1.30313 0
-0.0903954 -0.114202 0
-0.183929 -0.848907 0
-0.248823 -7.03249 0
-0.151229 -0.213088 0
1.93757 -1.87215 0
-0.0309742 -0.538118 0
0.254211 -3.60033 0
-0.0572832 -0.127275 0
-0.301559 -1.02734 0
0.0181777 -7.09719 0
0.614148 -1.57594 0
-0.259297 -1.8163 0
0.18638 -1.44498 0
-0.363838 -1.38027 0
-0.054692 -0.215484 0
-0.0421592 -0.778506 0
0.509065 -6.21022 0
-0.136073 -0.501251 0
0.632584 -1.63389 0
0.146857 -0.959804 0
-0.760321 -1.15515 0
-0.0244642 -0.113991 0
0.211131 -6.97622 0
-0.0189127 -1.8006 0
-0.443424 -0.938998 0
-0.166491 -0.234193 0
-0.303168 -0.521608 0
0.329779 -1.50648 0
-0.0135168 -0.457582 0
-1.147 -0.636316 0
-0.403188 -1.23131 0
-0.0993916 -2.56634 0
-1.37866 -2.88369 0
0.125796 -1.30232 0
-0.04882 -0.233084 0
-0.592077 -2.56326 0
-0.213209 -0.941246 0
-0.684471 -2.35666 0
-0.707417 -0.497623 0
-0.445929 -2.84818 0
-0.563252 -5.9322 0
-0.746978 -0.952735 0
-0.552652 -2.67195 0
-0.826092 -4.7597 0
-0.677632 -2.18291 0
0.0870265 -0.84596 0
-0.16497 -2.18197 0
-0.019408 -0.922822 0
-1.39005 -1.41435 0
0.136269 -1.6613 0
-0.666838 -1.39513 0
-0.217065 -1.0534 0
-0.325238 -1.4696 0
-0.0522188 -0.288856 0
-1.14069 -1.21948 0
-1.01091 -0.23823 0
0.422681 -0.641965 0
-1.98655 -1.50337 0
-1.07304 -2.21146 0
-1.30645 -0.524961 0
-0.0961106 -0.635834 0
-0.241004 -1.34685 0
-0.145975 -2.18482 0
-0.250318 -1.34326 0
-0.0658004 -0.181395 0
-0.18265 -2.26421 0
0.282323 -0.941507 0
-1.66124 -1.5515 0
-0.675378 -3.17464 0
-1.88234 -0.486015 0
0.0076316 -0.467275 0
-0.649991 -1.23539 0
-0.414705 -0.658761 0
-1.21895 -1.3065 0
-0.371589 -2.7958 0
-0.934355 -0.648346 0
-0.85887 -1.53731 0
-0.826199 -2.29127 0
-1.75652 -1.81392 0
0.109063 -0.692159 0
-0.239726 -0.292894 0
-1.24153 -0.732918 0
-0.916587 -0.915985 0
0.883193 -2.44826 0
-2.27114 -0.913481 0
-0.383592 -0.692641 0
-1.42174 -1.22768 0
0.316915 -0.580091 0
-0.0369178 -0.134967 0
-0.155077 -0.173941 0
-0.0296183 -0.387313 0
-0.157306 -0.294401 0
0.0685723 -0.0972734 0
0.00703616 -0.0934514 0
0.0554054 -0.0855172 0
0.0246481 -0.0555306 0
0.0328127 -0.348178 0
0.00914498 -1.99831 0
0.035156 -0.0842307 0
0.0174673 -0.173255 0
0.0852719 -2.16967 0
0.112534 -0.232445 0
-0.0234385 -2.4025 0
-0.0381634 -0.181984 0
-0.126304 -0.556384 0
-0.00794696 -0.191119 0
0.0131892 -0.0516656 0
0.0535915 -0.0683025 0
0.025074 -0.037249 0
0.000294544 -0.393873 0
0.0424923 -0.153758 0
-0.0505219 -0.101827 0
0.0314372 -0.0506583 0
0.12645 -0.301771 0
-0.0428351 -0.285041 0
-0.0164591 -0.0698296 0
0.0929131 -0.127111 0
0.0102782 -0.203497 0
0.0451078 -0.0726145 0
0.446046 -1.16316 0
-0.129997 -0.673608 0
0.0440643 -1.99885 0
0.00692548 -0.661759 0
0.0524639 -0.081336 0
0.030474 -0.0385076 0
-0.107806 -2.23854 0
0.161436 -0.244929 0
0.0607247 -2.35091 0
0.0375396 -0.0684956 0
0.0217065 -0.104544 0
0.108307 -2.18791 0
0.0866357 -0.517569 0
0.0585463 -0.0966786 0
0.0672556 -0.0939135 0
0.0358319 -0.0437809 0
-0.057615 -2.03966 0
0.235281 -0.58746 0
0.0208481 -0.0758254 0
0.186725 -0.45885 0
0.0145629 -0.195798 0
0.0393493 -0.1291 0
-0.104479 -0.688133 0
0.0563334 -0.0701991 0
0.0023088 -0.838244 0
0.0025234 -0.28486 0
0.0176688 -0.0434859 0
0.0945058 -0.398114 0
0.0230835 -0.115122 0
0.10285 -0.475549 0
0.0163031 -0.201481 0
-0.0269876 -0.221665 0
-0.00626088 -0.428861 0
0.0848605 -0.47424 0
0.100132 -1.75875 0
-0.0135401 -0.540618 0
0.0886856 -0.252379 0
-0.794659 -0.876919 0
-0.247226 -0.24963 0
0.233812 -0.752559 0
0.733263 -0.699785 0
0.0595829 -0.264702 0
-0.197546 -0.875048 0
0.0531728 -0.140538 0
-0.300169 -0.269232 0
-1.94874 -0.854265 0
-1.51726 -1.28136 0
0.130307 -0.550382 0
0.0937473 -0.695377 0
-0.0730793 -0.1668 0
0.216605 -0.369198 0
-0.0344278 -0.0886852 0
0.0559442 -0.393297 0
0.0718628 -0.237556 0
-0.0753736 -0.432439 0
-1.44411 -0.747845 0
-0.216149 -0.217058 0
-0.0244443 -1.00443 0
-0.211071 -0.253222 0
-0.64511 -0.74106 0
0.0557371 -0.378742 0
-0.289659 -0.512824 0
0.162387 -0.53592 0
-0.209739 -0.42257 0
0.339197 -1.11504 0
-0.0382776 -0.190432 0
0.416667 -0.770227 0
0.215724 -0.578317 0
-0.279527 -0.421338 0
0.923761 -0.696789 0
-0.0496624 -0.495106 0
-0.0926565 -0.186572 0
0.277996 -0.563307 0
0.223937 -0.760235 0
0.188818 -1.47922 0
-0.145452 -0.206286 0
-0.14924 -0.401815 0
-0.0452213 -0.633068 0
-0.24065 -0.762468 0
-2.12331 -1.098 0
-0.0353167 -0.345973 0
-0.148695 -0.151824 0
-0.00051079 -0.13511 0
0.0311475 -0.403113 0
-0.0727655 -0.0768645 0
-0.219504 -0.720975 0
-1.83582 -1.28206 0
-0.054504 -0.100526 0
-0.0942972 -0.137686 0
-1.19423 -0.852377 0
-0.0499833 -0.24454 0
-0.0557506 -0.0986062 0
-1.05403 -1.03111 0
0.0416361 -0.1924 0
0.0502757 -1.91194 0
-0.0947558 -0.117935 0
