# vtk DataFile Version 2.0
Unstructured Grid by M++
ASCII
DATASET UNSTRUCTURED_GRID
POINTS 81 float
  1.000000   0.625000 0
  0.750000   0.375000 0
  1.000000   0.000000 0
  0.875000   0.875000 0
  0.750000   0.125000 0
  1.000000   1.000000 0
  0.875000   0.250000 0
  0.625000   0.875000 0
  1.000000   0.750000 0
  0.875000   0.000000 0
  1.000000   0.250000 0
  0.625000   0.375000 0
  0.875000   0.500000 0
  0.625000   0.625000 0
  1.000000   0.500000 0
  0.750000   0.500000 0
  0.750000   1.000000 0
  1.000000   0.125000 0
  0.625000   0.250000 0
  0.750000   0.750000 0
  0.625000   0.000000 0
  0.125000   0.375000 0
  0.000000   0.500000 0
  0.125000   0.625000 0
  0.625000   1.000000 0
  1.000000   0.875000 0
  0.875000   0.125000 0
  0.500000   0.250000 0
  0.625000   0.500000 0
  0.250000   0.625000 0
  0.000000   0.625000 0
  0.375000   0.500000 0
  0.375000   0.000000 0
  0.000000   0.125000 0
  0.125000   0.875000 0
  0.875000   1.000000 0
  0.750000   0.250000 0
  0.375000   0.375000 0
  0.250000   0.375000 0
  0.625000   0.750000 0
  0.125000   0.125000 0
  0.500000   0.000000 0
  0.250000   0.875000 0
  0.125000   0.500000 0
  0.500000   0.375000 0
  0.125000   0.000000 0
  0.250000   0.750000 0
  0.250000   0.500000 0
  0.000000   0.875000 0
  0.875000   0.625000 0
  0.500000   0.750000 0
  0.750000   0.625000 0
  0.250000   0.000000 0
  0.375000   0.750000 0
  0.750000   0.875000 0
  0.625000   0.125000 0
  0.250000   0.250000 0
  0.375000   1.000000 0
  0.375000   0.250000 0
  0.000000   0.375000 0
  0.500000   1.000000 0
  0.875000   0.750000 0
  0.750000   0.000000 0
  0.375000   0.125000 0
  0.500000   0.875000 0
  0.000000   0.000000 0
  0.125000   0.750000 0
  0.500000   0.625000 0
  0.125000   0.250000 0
  0.500000   0.125000 0
  0.250000   1.000000 0
  0.250000   0.125000 0
  0.000000   1.000000 0
  0.375000   0.875000 0
  0.000000   0.750000 0
  0.375000   0.625000 0
  0.000000   0.250000 0
  0.125000   1.000000 0
  1.000000   0.375000 0
  0.500000   0.500000 0
  0.875000   0.375000 0
CELLS 64 320
4 56 71 58 63
4 27 58 69 63
4 41 69 32 63
4 76 33 68 40
4 27 44 58 37
4 79 31 44 37
4 56 38 68 21
4 56 58 38 37
4 52 32 71 63
4 47 38 31 37
4 76 68 59 21
4 22 59 43 21
4 65 45 33 40
4 47 43 38 21
4 52 71 45 40
4 56 68 71 40
4 74 30 66 23
4 46 66 29 23
4 22 43 30 23
4 72 48 77 34
4 46 53 42 73
4 50 64 53 73
4 70 42 57 73
4 74 66 48 34
4 46 42 66 34
4 47 29 43 23
4 70 77 42 34
4 60 57 64 73
4 79 67 31 75
4 47 31 29 75
4 50 53 67 75
4 46 29 53 75
4 10 78 6 80
4 36 6 1 80
4 15 1 12 80
4 36 4 6 26
4 14 12 78 80
4 2 17 9 26
4 36 18 4 55
4 15 28 1 11
4 62 4 20 55
4 10 6 17 26
4 27 18 44 11
4 62 9 4 26
4 27 69 18 55
4 36 1 18 11
4 41 20 69 55
4 79 44 28 11
4 16 24 54 7
4 19 54 39 7
4 50 39 64 7
4 8 25 61 3
4 60 64 24 7
4 79 28 67 13
4 19 51 61 49
4 8 61 0 49
4 15 51 28 13
4 19 39 51 13
4 50 67 39 13
4 19 61 54 3
4 14 0 12 49
4 5 35 25 3
4 15 12 51 49
4 16 54 35 3
CELL_TYPES 64
8
8
8
8
8
8
8
8
8
8
8
8
8
8
8
8
8
8
8
8
8
8
8
8
8
8
8
8
8
8
8
8
8
8
8
8
8
8
8
8
8
8
8
8
8
8
8
8
8
8
8
8
8
8
8
8
8
8
8
8
8
8
8
8
CELL_DATA 64
VECTORS vector_value float
-0.515892 -3.133 0
-2.183 -3.56332 0
-0.388464 -1.89175 0
0.00217491 -0.0326683 0
-0.272599 -2.0543 0
-0.578526 -1.20247 0
0.20773 -0.356602 0
0.105761 -2.21387 0
-0.895405 -5.17496 0
0.358601 -1.01428 0
0.0355676 -0.094665 0
0.0339195 -0.160868 0
-0.011954 -0.0521922 0
0.475481 -1.33315 0
-0.0831408 -0.168941 0
0.0387549 -0.0753102 0
0.0715234 -0.339864 0
-0.0340032 -0.234635 0
0.0228225 -0.184611 0
0.289233 -0.542626 0
1.05751 -3.47056 0
-0.374759 -0.942268 0
-0.203382 -1.70072 0
0.0286242 -0.374791 0
0.329928 -0.414985 0
-0.286989 -0.90768 0
0.70172 -1.2769 0
-0.882454 -0.983454 0
-0.430293 -0.859833 0
-0.532288 -1.05321 0
2.20338 -2.89785 0
0.167248 -1.43692 0
-0.0322638 -0.108629 0
-0.0247529 -0.0561988 0
0.00411353 -0.015217 0
0.0147055 -0.0986601 0
0.0122311 -0.129412 0
0.034675 -0.118608 0
-0.160632 -0.533779 0
-0.454083 -1.55762 0
-0.0223023 -0.206811 0
0.00187802 -0.0555608 0
-0.939636 -2.39994 0
0.0329172 -0.0776481 0
-0.694627 -0.507698 0
-0.064123 -0.715801 0
-0.107167 -0.309088 0
-0.86714 -2.58699 0
-0.27061 -0.337659 0
-0.0790543 -0.573197 0
-0.0822555 -0.339373 0
-0.0765453 -0.0831398 0
-0.801754 -1.04766 0
0.262818 -3.17582 0
-0.638856 -0.631851 0
-0.00381741 -0.0491588 0
-0.272817 -1.63399 0
-0.880433 -1.71719 0
0.269512 -0.69253 0
-0.37553 -1.80168 0
0.0236829 -0.0606441 0
-0.394757 -0.37214 0
-0.0239227 -0.124217 0
-0.325756 -1.73884 0
