# vtk DataFile Version 2.0
Unstructured Grid by M++
ASCII
DATASET UNSTRUCTURED_GRID
POINTS 81 float
  1.000000   0.625000 0
  0.750000   0.375000 0
  1.000000   0.000000 0
  0.875000   0.875000 0
  0.750000   0.125000 0
  1.000000   1.000000 0
  0.875000   0.250000 0
  0.625000   0.875000 0
  1.000000   0.750000 0
  0.875000   0.000000 0
  1.000000   0.250000 0
  0.625000   0.375000 0
  0.875000   0.500000 0
  0.625000   0.625000 0
  1.000000   0.500000 0
  0.750000   0.500000 0
  0.750000   1.000000 0
  1.000000   0.125000 0
  0.625000   0.250000 0
  0.750000   0.750000 0
  0.625000   0.000000 0
  0.125000   0.375000 0
  0.000000   0.500000 0
  0.125000   0.625000 0
  0.625000   1.000000 0
  1.000000   0.875000 0
  0.875000   0.125000 0
  0.500000   0.250000 0
  0.625000   0.500000 0
  0.250000   0.625000 0
  0.000000   0.625000 0
  0.375000   0.500000 0
  0.375000   0.000000 0
  0.000000   0.125000 0
  0.125000   0.875000 0
  0.875000   1.000000 0
  0.750000   0.250000 0
  0.375000   0.375000 0
  0.250000   0.375000 0
  0.625000   0.750000 0
  0.125000   0.125000 0
  0.500000   0.000000 0
  0.250000   0.875000 0
  0.125000   0.500000 0
  0.500000   0.375000 0
  0.125000   0.000000 0
  0.250000   0.750000 0
  0.250000   0.500000 0
  0.000000   0.875000 0
  0.875000   0.625000 0
  0.500000   0.750000 0
  0.750000   0.625000 0
  0.250000   0.000000 0
  0.375000   0.750000 0
  0.750000   0.875000 0
  0.625000   0.125000 0
  0.250000   0.250000 0
  0.375000   1.000000 0
  0.375000   0.250000 0
  0.000000   0.375000 0
  0.500000   1.000000 0
  0.875000   0.750000 0
  0.750000   0.000000 0
  0.375000   0.125000 0
  0.500000   0.875000 0
  0.000000   0.000000 0
  0.125000   0.750000 0
  0.500000   0.625000 0
  0.125000   0.250000 0
  0.500000   0.125000 0
  0.250000   1.000000 0
  0.250000   0.125000 0
  0.000000   1.000000 0
  0.375000   0.875000 0
  0.000000   0.750000 0
  0.375000   0.625000 0
  0.000000   0.250000 0
  0.125000   1.000000 0
  1.000000   0.375000 0
  0.500000   0.500000 0
  0.875000   0.375000 0
CELLS 64 320
4 56 71 58 63
4 27 58 69 63
4 41 69 32 63
4 76 33 68 40
4 27 44 58 37
4 79 31 44 37
4 56 38 68 21
4 56 58 38 37
4 52 32 71 63
4 47 38 31 37
4 76 68 59 21
4 22 59 43 21
4 65 45 33 40
4 47 43 38 21
4 52 71 45 40
4 56 68 71 40
4 74 30 66 23
4 46 66 29 23
4 22 43 30 23
4 72 48 77 34
4 46 53 42 73
4 50 64 53 73
4 70 42 57 73
4 74 66 48 34
4 46 42 66 34
4 47 29 43 23
4 70 77 42 34
4 60 57 64 73
4 79 67 31 75
4 47 31 29 75
4 50 53 67 75
4 46 29 53 75
4 10 78 6 80
4 36 6 1 80
4 15 1 12 80
4 36 4 6 26
4 14 12 78 80
4 2 17 9 26
4 36 18 4 55
4 15 28 1 11
4 62 4 20 55
4 10 6 17 26
4 27 18 44 11
4 62 9 4 26
4 27 69 18 55
4 36 1 18 11
4 41 20 69 55
4 79 44 28 11
4 16 24 54 7
4 19 54 39 7
4 50 39 64 7
4 8 25 61 3
4 60 64 24 7
4 79 28 67 13
4 19 51 61 49
4 8 61 0 49
4 15 51 28 13
4 19 39 51 13
4 50 67 39 13
4 19 61 54 3
4 14 0 12 49
4 5 35 25 3
4 15 12 51 49
4 16 54 35 3
CELL_TYPES 64
8
8
8
8
8
8
8
8
8
8
8
8
8
8
8
8
8
8
8
8
8
8
8
8
8
8
8
8
8
8
8
8
8
8
8
8
8
8
8
8
8
8
8
8
8
8
8
8
8
8
8
8
8
8
8
8
8
8
8
8
8
8
8
8
CELL_DATA 64
VECTORS vector_value float
-0.129151 -0.384475 0
0.0090256 -0.0771344 0
0.00343661 -0.045498 0
-0.0734615 -0.0853836 0
-0.113472 -0.196368 0
-0.0231371 -0.351338 0
-0.0890377 -0.215244 0
-0.208843 -0.550632 0
-0.00708248 -0.270507 0
-0.110718 -0.467252 0
0.00497735 -0.0192837 0
0.00557564 -0.0337163 0
-0.0345159 -0.225539 0
0.0339853 -0.106825 0
-0.0213483 -0.378539 0
-0.226015 -0.403961 0
0.138365 -0.259998 0
0.299894 -0.0681208 0
0.0480782 -0.111747 0
0.0648462 -1.09485 0
1.47711 -0.752968 0
1.39949 -1.70862 0
0.425981 -0.849135 0
0.227613 -0.661194 0
0.707416 -0.229462 0
0.0329344 -0.0415231 0
0.343805 -0.702442 0
0.276349 -1.34006 0
-0.0442583 -0.729748 0
-0.0325457 -0.169233 0
1.0958 -1.33483 0
0.344737 -0.171743 0
-0.944495 -0.988838 0
-2.8003 -4.34936 0
0.23605 -1.80867 0
-1.89126 -3.09977 0
-1.12065 -4.24677 0
-0.00134758 -0.0202523 0
-1.61233 -3.51966 0
0.277815 -0.782546 0
-0.600818 -5.76219 0
-0.0756897 -0.0787883 0
0.00823424 -0.102245 0
-0.0661607 -0.644385 0
-0.151584 -0.350833 0
-0.82803 -1.57803 0
-0.0606468 -0.653085 0
0.0299627 -0.202879 0
1.25776 -1.01508 0
0.563101 -0.461026 0
0.806493 -0.434457 0
0.829498 -1.49355 0
0.457104 -0.356627 0
0.454734 -0.685726 0
0.958045 -1.34773 0
0.567851 -3.01165 0
0.681335 -0.984327 0
1.20677 -0.814529 0
1.69897 -0.991398 0
1.24711 -2.25872 0
0.380275 -4.06666 0
-0.12554 -0.632472 0
0.487935 -1.21103 0
0.660003 -2.00933 0
