# vtk DataFile Version 2.0
Unstructured Grid by M++
ASCII
DATASET UNSTRUCTURED_GRID
POINTS 81 float
  1.000000   0.625000 0
  0.750000   0.375000 0
  1.000000   0.000000 0
  0.875000   0.875000 0
  0.750000   0.125000 0
  1.000000   1.000000 0
  0.875000   0.250000 0
  0.625000   0.875000 0
  1.000000   0.750000 0
  0.875000   0.000000 0
  1.000000   0.250000 0
  0.625000   0.375000 0
  0.875000   0.500000 0
  0.625000   0.625000 0
  1.000000   0.500000 0
  0.750000   0.500000 0
  0.750000   1.000000 0
  1.000000   0.125000 0
  0.625000   0.250000 0
  0.750000   0.750000 0
  0.625000   0.000000 0
  0.125000   0.375000 0
  0.000000   0.500000 0
  0.125000   0.625000 0
  0.625000   1.000000 0
  1.000000   0.875000 0
  0.875000   0.125000 0
  0.500000   0.250000 0
  0.625000   0.500000 0
  0.250000   0.625000 0
  0.000000   0.625000 0
  0.375000   0.500000 0
  0.375000   0.000000 0
  0.000000   0.125000 0
  0.125000   0.875000 0
  0.875000   1.000000 0
  0.750000   0.250000 0
  0.375000   0.375000 0
  0.250000   0.375000 0
  0.625000   0.750000 0
  0.125000   0.125000 0
  0.500000   0.000000 0
  0.250000   0.875000 0
  0.125000   0.500000 0
  0.500000   0.375000 0
  0.125000   0.000000 0
  0.250000   0.750000 0
  0.250000   0.500000 0
  0.000000   0.875000 0
  0.875000   0.625000 0
  0.500000   0.750000 0
  0.750000   0.625000 0
  0.250000   0.000000 0
  0.375000   0.750000 0
  0.750000   0.875000 0
  0.625000   0.125000 0
  0.250000   0.250000 0
  0.375000   1.000000 0
  0.375000   0.250000 0
  0.000000   0.375000 0
  0.500000   1.000000 0
  0.875000   0.750000 0
  0.750000   0.000000 0
  0.375000   0.125000 0
  0.500000   0.875000 0
  0.000000   0.000000 0
  0.125000   0.750000 0
  0.500000   0.625000 0
  0.125000   0.250000 0
  0.500000   0.125000 0
  0.250000   1.000000 0
  0.250000   0.125000 0
  0.000000   1.000000 0
  0.375000   0.875000 0
  0.000000   0.750000 0
  0.375000   0.625000 0
  0.000000   0.250000 0
  0.125000   1.000000 0
  1.000000   0.375000 0
  0.500000   0.500000 0
  0.875000   0.375000 0
CELLS 64 320
4 56 71 58 63
4 27 58 69 63
4 41 69 32 63
4 76 33 68 40
4 27 44 58 37
4 79 31 44 37
4 56 38 68 21
4 56 58 38 37
4 52 32 71 63
4 47 38 31 37
4 76 68 59 21
4 22 59 43 21
4 65 45 33 40
4 47 43 38 21
4 52 71 45 40
4 56 68 71 40
4 74 30 66 23
4 46 66 29 23
4 22 43 30 23
4 72 48 77 34
4 46 53 42 73
4 50 64 53 73
4 70 42 57 73
4 74 66 48 34
4 46 42 66 34
4 47 29 43 23
4 70 77 42 34
4 60 57 64 73
4 79 67 31 75
4 47 31 29 75
4 50 53 67 75
4 46 29 53 75
4 10 78 6 80
4 36 6 1 80
4 15 1 12 80
4 36 4 6 26
4 14 12 78 80
4 2 17 9 26
4 36 18 4 55
4 15 28 1 11
4 62 4 20 55
4 10 6 17 26
4 27 18 44 11
4 62 9 4 26
4 27 69 18 55
4 36 1 18 11
4 41 20 69 55
4 79 44 28 11
4 16 24 54 7
4 19 54 39 7
4 50 39 64 7
4 8 25 61 3
4 60 64 24 7
4 79 28 67 13
4 19 51 61 49
4 8 61 0 49
4 15 51 28 13
4 19 39 51 13
4 50 67 39 13
4 19 61 54 3
4 14 0 12 49
4 5 35 25 3
4 15 12 51 49
4 16 54 35 3
CELL_TYPES 64
8
8
8
8
8
8
8
8
8
8
8
8
8
8
8
8
8
8
8
8
8
8
8
8
8
8
8
8
8
8
8
8
8
8
8
8
8
8
8
8
8
8
8
8
8
8
8
8
8
8
8
8
8
8
8
8
8
8
8
8
8
8
8
8
CELL_DATA 64
VECTORS vector_value float
0.489932 -1.08954 0
0.650483 -4.96738 0
0.591703 -4.2165 0
0.0105653 -0.0541034 0
-0.532403 -4.21008 0
-1.34394 -2.70785 0
0.0995752 -0.17872 0
-0.0106002 -1.45787 0
0.106829 -0.580855 0
-0.242872 -0.888766 0
0.0405125 -0.127465 0
0.0337303 -0.165307 0
0.00471636 -0.0387638 0
0.0970872 -0.255186 0
0.0117872 -0.072012 0
0.0659192 -0.0945706 0
0.0271388 -0.368287 0
0.0246883 -0.128731 0
0.0504734 -0.27296 0
0.328061 -0.460899 0
0.291694 -0.675785 0
0.462183 -1.84136 0
1.51547 -1.41306 0
-0.0137937 -0.345703 0
0.0279931 -0.217995 0
0.0662806 -0.201282 0
1.03386 -0.822238 0
1.02636 -0.818377 0
-0.179085 -1.87911 0
-0.058208 -0.429183 0
0.123431 -2.24806 0
0.0243566 -0.339712 0
0.0010638 -0.0239833 0
0.000375202 -0.022188 0
-0.0150578 -0.0353057 0
0.00989145 -0.053157 0
-0.000312613 -0.0199455 0
0.00850169 -0.034952 0
0.0164496 -0.0802748 0
-0.30781 -0.3789 0
0.0182896 -0.160015 0
-0.00156682 -0.0189846 0
-0.18702 -1.87269 0
-0.00229747 -0.0168619 0
0.0330132 -1.64199 0
-0.00693076 -0.107003 0
0.688788 -2.88004 0
-1.69222 -3.54874 0
0.0950715 -1.90551 0
-0.413792 -2.34727 0
-0.231496 -1.22827 0
-0.119976 -0.362608 0
0.781312 -0.932474 0
-0.923975 -3.56153 0
-0.506562 -0.971962 0
-0.0519822 -0.168358 0
-1.19558 -1.40718 0
-0.57083 -1.82807 0
-0.201758 -1.94682 0
-0.178964 -0.981002 0
-0.0412629 -0.0761239 0
-0.275572 -0.620923 0
-0.198751 -0.172631 0
-0.565635 -1.02652 0
