# vtk DataFile Version 2.0
Unstructured Grid by M++
ASCII
DATASET UNSTRUCTURED_GRID
POINTS 81 float
  1.000000   0.625000 0
  0.750000   0.375000 0
  1.000000   0.000000 0
  0.875000   0.875000 0
  0.750000   0.125000 0
  1.000000   1.000000 0
  0.875000   0.250000 0
  0.625000   0.875000 0
  1.000000   0.750000 0
  0.875000   0.000000 0
  1.000000   0.250000 0
  0.625000   0.375000 0
  0.875000   0.500000 0
  0.625000   0.625000 0
  1.000000   0.500000 0
  0.750000   0.500000 0
  0.750000   1.000000 0
  1.000000   0.125000 0
  0.625000   0.250000 0
  0.750000   0.750000 0
  0.625000   0.000000 0
  0.125000   0.375000 0
  0.000000   0.500000 0
  0.125000   0.625000 0
  0.625000   1.000000 0
  1.000000   0.875000 0
  0.875000   0.125000 0
  0.500000   0.250000 0
  0.625000   0.500000 0
  0.250000   0.625000 0
  0.000000   0.625000 0
  0.375000   0.500000 0
  0.375000   0.000000 0
  0.000000   0.125000 0
  0.125000   0.875000 0
  0.875000   1.000000 0
  0.750000   0.250000 0
  0.375000   0.375000 0
  0.250000   0.375000 0
  0.625000   0.750000 0
  0.125000   0.125000 0
  0.500000   0.000000 0
  0.250000   0.875000 0
  0.125000   0.500000 0
  0.500000   0.375000 0
  0.125000   0.000000 0
  0.250000   0.750000 0
  0.250000   0.500000 0
  0.000000   0.875000 0
  0.875000   0.625000 0
  0.500000   0.750000 0
  0.750000   0.625000 0
  0.250000   0.000000 0
  0.375000   0.750000 0
  0.750000   0.875000 0
  0.625000   0.125000 0
  0.250000   0.250000 0
  0.375000   1.000000 0
  0.375000   0.250000 0
  0.000000   0.375000 0
  0.500000   1.000000 0
  0.875000   0.750000 0
  0.750000   0.000000 0
  0.375000   0.125000 0
  0.500000   0.875000 0
  0.000000   0.000000 0
  0.125000   0.750000 0
  0.500000   0.625000 0
  0.125000   0.250000 0
  0.500000   0.125000 0
  0.250000   1.000000 0
  0.250000   0.125000 0
  0.000000   1.000000 0
  0.375000   0.875000 0
  0.000000   0.750000 0
  0.375000   0.625000 0
  0.000000   0.250000 0
  0.125000   1.000000 0
  1.000000   0.375000 0
  0.500000   0.500000 0
  0.875000   0.375000 0
CELLS 64 320
4 56 71 58 63
4 27 58 69 63
4 41 69 32 63
4 76 33 68 40
4 27 44 58 37
4 79 31 44 37
4 56 38 68 21
4 56 58 38 37
4 52 32 71 63
4 47 38 31 37
4 76 68 59 21
4 22 59 43 21
4 65 45 33 40
4 47 43 38 21
4 52 71 45 40
4 56 68 71 40
4 74 30 66 23
4 46 66 29 23
4 22 43 30 23
4 72 48 77 34
4 46 53 42 73
4 50 64 53 73
4 70 42 57 73
4 74 66 48 34
4 46 42 66 34
4 47 29 43 23
4 70 77 42 34
4 60 57 64 73
4 79 67 31 75
4 47 31 29 75
4 50 53 67 75
4 46 29 53 75
4 10 78 6 80
4 36 6 1 80
4 15 1 12 80
4 36 4 6 26
4 14 12 78 80
4 2 17 9 26
4 36 18 4 55
4 15 28 1 11
4 62 4 20 55
4 10 6 17 26
4 27 18 44 11
4 62 9 4 26
4 27 69 18 55
4 36 1 18 11
4 41 20 69 55
4 79 44 28 11
4 16 24 54 7
4 19 54 39 7
4 50 39 64 7
4 8 25 61 3
4 60 64 24 7
4 79 28 67 13
4 19 51 61 49
4 8 61 0 49
4 15 51 28 13
4 19 39 51 13
4 50 67 39 13
4 19 61 54 3
4 14 0 12 49
4 5 35 25 3
4 15 12 51 49
4 16 54 35 3
CELL_TYPES 64
8
8
8
8
8
8
8
8
8
8
8
8
8
8
8
8
8
8
8
8
8
8
8
8
8
8
8
8
8
8
8
8
8
8
8
8
8
8
8
8
8
8
8
8
8
8
8
8
8
8
8
8
8
8
8
8
8
8
8
8
8
8
8
8
CELL_DATA 64
VECTORS vector_value float
-0.056732 -0.390729 0
-0.148283 -1.32423 0
-0.0254469 -1.09383 0
0.0251873 -0.119138 0
0.208884 -1.32859 0
0.418204 -1.35194 0
0.0159214 -0.0903845 0
0.056268 -0.250165 0
-0.0745441 -0.555764 0
0.310622 -0.511968 0
0.0142202 -0.183073 0
0.0243545 -0.222874 0
-0.00610233 -0.121438 0
0.105778 -0.180461 0
-0.0154797 -0.109616 0
0.0571547 -0.104246 0
-0.0792574 -0.216523 0
-0.126352 -0.727583 0
0.00628648 -0.300805 0
0.457743 -0.356595 0
0.269327 -1.61098 0
0.483005 -1.75398 0
0.854856 -1.59125 0
-0.0041685 -0.0795573 0
-0.0769712 -0.607602 0
0.246409 -0.437241 0
1.11471 -1.18021 0
0.0793796 -0.939233 0
0.725178 -1.47761 0
0.535586 -0.822669 0
0.421103 -2.01924 0
0.0832568 -0.781752 0
-0.0609355 -0.699413 0
-0.0885617 -2.8172 0
-0.727656 -2.48552 0
-0.273406 -2.35745 0
-0.32382 -1.24625 0
0.0773402 -1.2917 0
-0.242032 -0.954562 0
0.437507 -1.36133 0
-0.656363 -2.06544 0
0.18385 -1.03155 0
0.13256 -0.686401 0
-0.236683 -0.89783 0
-0.637869 -1.71809 0
-0.497327 -1.94477 0
0.0890432 -1.86439 0
0.578991 -0.639665 0
1.26622 -0.703268 0
0.0489597 -0.0453816 0
0.0817179 -0.141605 0
0.499023 -3.31932 0
0.346188 -0.498163 0
0.795608 -0.833363 0
-0.0048422 -0.340868 0
-0.13409 -3.48833 0
0.207359 -0.234672 0
0.048529 -0.0228997 0
0.315757 -0.402807 0
0.313876 -0.441574 0
-0.835318 -2.81325 0
0.75269 -1.96061 0
-0.58424 -1.08039 0
1.80268 -0.770678 0
