# vtk DataFile Version 2.0
Unstructured Grid by M++
ASCII
DATASET UNSTRUCTURED_GRID
POINTS 81 float
  1.000000   0.625000 0
  0.750000   0.375000 0
  1.000000   0.000000 0
  0.875000   0.875000 0
  0.750000   0.125000 0
  1.000000   1.000000 0
  0.875000   0.250000 0
  0.625000   0.875000 0
  1.000000   0.750000 0
  0.875000   0.000000 0
  1.000000   0.250000 0
  0.625000   0.375000 0
  0.875000   0.500000 0
  0.625000   0.625000 0
  1.000000   0.500000 0
  0.750000   0.500000 0
  0.750000   1.000000 0
  1.000000   0.125000 0
  0.625000   0.250000 0
  0.750000   0.750000 0
  0.625000   0.000000 0
  0.125000   0.375000 0
  0.000000   0.500000 0
  0.125000   0.625000 0
  0.625000   1.000000 0
  1.000000   0.875000 0
  0.875000   0.125000 0
  0.500000   0.250000 0
  0.625000   0.500000 0
  0.250000   0.625000 0
  0.000000   0.625000 0
  0.375000   0.500000 0
  0.375000   0.000000 0
  0.000000   0.125000 0
  0.125000   0.875000 0
  0.875000   1.000000 0
  0.750000   0.250000 0
  0.375000   0.375000 0
  0.250000   0.375000 0
  0.625000   0.750000 0
  0.125000   0.125000 0
  0.500000   0.000000 0
  0.250000   0.875000 0
  0.125000   0.500000 0
  0.500000   0.375000 0
  0.125000   0.000000 0
  0.250000   0.750000 0
  0.250000   0.500000 0
  0.000000   0.875000 0
  0.875000   0.625000 0
  0.500000   0.750000 0
  0.750000   0.625000 0
  0.250000   0.000000 0
  0.375000   0.750000 0
  0.750000   0.875000 0
  0.625000   0.125000 0
  0.250000   0.250000 0
  0.375000   1.000000 0
  0.375000   0.250000 0
  0.000000   0.375000 0
  0.500000   1.000000 0
  0.875000   0.750000 0
  0.750000   0.000000 0
  0.375000   0.125000 0
  0.500000   0.875000 0
  0.000000   0.000000 0
  0.125000   0.750000 0
  0.500000   0.625000 0
  0.125000   0.250000 0
  0.500000   0.125000 0
  0.250000   1.000000 0
  0.250000   0.125000 0
  0.000000   1.000000 0
  0.375000   0.875000 0
  0.000000   0.750000 0
  0.375000   0.625000 0
  0.000000   0.250000 0
  0.125000   1.000000 0
  1.000000   0.375000 0
  0.500000   0.500000 0
  0.875000   0.375000 0
CELLS 64 320
4 56 71 58 63
4 27 58 69 63
4 41 69 32 63
4 76 33 68 40
4 27 44 58 37
4 79 31 44 37
4 56 38 68 21
4 56 58 38 37
4 52 32 71 63
4 47 38 31 37
4 76 68 59 21
4 22 59 43 21
4 65 45 33 40
4 47 43 38 21
4 52 71 45 40
4 56 68 71 40
4 74 30 66 23
4 46 66 29 23
4 22 43 30 23
4 72 48 77 34
4 46 53 42 73
4 50 64 53 73
4 70 42 57 73
4 74 66 48 34
4 46 42 66 34
4 47 29 43 23
4 70 77 42 34
4 60 57 64 73
4 79 67 31 75
4 47 31 29 75
4 50 53 67 75
4 46 29 53 75
4 10 78 6 80
4 36 6 1 80
4 15 1 12 80
4 36 4 6 26
4 14 12 78 80
4 2 17 9 26
4 36 18 4 55
4 15 28 1 11
4 62 4 20 55
4 10 6 17 26
4 27 18 44 11
4 62 9 4 26
4 27 69 18 55
4 36 1 18 11
4 41 20 69 55
4 79 44 28 11
4 16 24 54 7
4 19 54 39 7
4 50 39 64 7
4 8 25 61 3
4 60 64 24 7
4 79 28 67 13
4 19 51 61 49
4 8 61 0 49
4 15 51 28 13
4 19 39 51 13
4 50 67 39 13
4 19 61 54 3
4 14 0 12 49
4 5 35 25 3
4 15 12 51 49
4 16 54 35 3
CELL_TYPES 64
8
8
8
8
8
8
8
8
8
8
8
8
8
8
8
8
8
8
8
8
8
8
8
8
8
8
8
8
8
8
8
8
8
8
8
8
8
8
8
8
8
8
8
8
8
8
8
8
8
8
8
8
8
8
8
8
8
8
8
8
8
8
8
8
CELL_DATA 64
VECTORS vector_value float
-0.387816 -0.00428064 0
-0.59852 -0.0251054 0
-0.0683264 -0.0848317 0
-0.355715 -2.23034 0
-0.292706 -0.0187409 0
-0.190026 -0.201955 0
-0.982258 -2.38045 0
-0.9414 -0.316095 0
-0.030956 -0.0581667 0
-0.656381 -0.771638 0
-0.345423 -1.33411 0
-0.11909 -1.11242 0
-0.570528 -3.51573 0
-0.592833 -1.79319 0
-0.351044 -1.21993 0
-0.724948 -2.24641 0
-0.0254969 -0.699035 0
-0.0844046 -1.21358 0
-0.0678709 -0.895933 0
-0.0180767 -1.07418 0
-0.0209208 -0.196629 0
0.152542 -0.917724 0
0.518625 -0.726897 0
0.149246 -0.940177 0
0.073363 -0.933901 0
-0.1083 -1.20372 0
0.086216 -0.69909 0
0.776325 -1.28794 0
-0.693408 -0.84192 0
-0.485702 -0.691549 0
-0.433519 -0.859791 0
-0.265359 -0.361556 0
-0.0527693 -0.141009 0
-1.15696 -1.37239 0
-0.473868 -2.44174 0
0.1215 -0.379443 0
-0.175174 -0.629776 0
0.107019 -0.323443 0
-0.265876 -2.27244 0
-0.14137 -0.979556 0
-0.00772605 -1.59585 0
0.0139836 -0.120924 0
-0.326533 -0.0942161 0
0.142085 -0.44265 0
-0.944841 -0.72105 0
-1.639 -2.34299 0
-0.0619634 -0.759393 0
-0.0280092 -0.0697316 0
0.902863 -1.04782 0
0.114182 -0.791524 0
0.349539 -0.98987 0
0.00400469 -0.595133 0
0.652392 -0.576371 0
-0.0994261 -0.458992 0
0.0336296 -2.36501 0
-0.0831708 -0.705866 0
0.00221548 -0.530389 0
0.0974456 -0.877271 0
-0.309847 -0.917892 0
0.0837926 -2.63504 0
0.00822103 -0.509085 0
-0.142557 -0.865627 0
0.0175061 -2.86841 0
0.300766 -1.72207 0
