# vtk DataFile Version 2.0
Unstructured Grid by M++
ASCII
DATASET UNSTRUCTURED_GRID
POINTS 81 float
  1.000000   0.625000 0
  0.750000   0.375000 0
  1.000000   0.000000 0
  0.875000   0.875000 0
  0.750000   0.125000 0
  1.000000   1.000000 0
  0.875000   0.250000 0
  0.625000   0.875000 0
  1.000000   0.750000 0
  0.875000   0.000000 0
  1.000000   0.250000 0
  0.625000   0.375000 0
  0.875000   0.500000 0
  0.625000   0.625000 0
  1.000000   0.500000 0
  0.750000   0.500000 0
  0.750000   1.000000 0
  1.000000   0.125000 0
  0.625000   0.250000 0
  0.750000   0.750000 0
  0.625000   0.000000 0
  0.125000   0.375000 0
  0.000000   0.500000 0
  0.125000   0.625000 0
  0.625000   1.000000 0
  1.000000   0.875000 0
  0.875000   0.125000 0
  0.500000   0.250000 0
  0.625000   0.500000 0
  0.250000   0.625000 0
  0.000000   0.625000 0
  0.375000   0.500000 0
  0.375000   0.000000 0
  0.000000   0.125000 0
  0.125000   0.875000 0
  0.875000   1.000000 0
  0.750000   0.250000 0
  0.375000   0.375000 0
  0.250000   0.375000 0
  0.625000   0.750000 0
  0.125000   0.125000 0
  0.500000   0.000000 0
  0.250000   0.875000 0
  0.125000   0.500000 0
  0.500000   0.375000 0
  0.125000   0.000000 0
  0.250000   0.750000 0
  0.250000   0.500000 0
  0.000000   0.875000 0
  0.875000   0.625000 0
  0.500000   0.750000 0
  0.750000   0.625000 0
  0.250000   0.000000 0
  0.375000   0.750000 0
  0.750000   0.875000 0
  0.625000   0.125000 0
  0.250000   0.250000 0
  0.375000   1.000000 0
  0.375000   0.250000 0
  0.000000   0.375000 0
  0.500000   1.000000 0
  0.875000   0.750000 0
  0.750000   0.000000 0
  0.375000   0.125000 0
  0.500000   0.875000 0
  0.000000   0.000000 0
  0.125000   0.750000 0
  0.500000   0.625000 0
  0.125000   0.250000 0
  0.500000   0.125000 0
  0.250000   1.000000 0
  0.250000   0.125000 0
  0.000000   1.000000 0
  0.375000   0.875000 0
  0.000000   0.750000 0
  0.375000   0.625000 0
  0.000000   0.250000 0
  0.125000   1.000000 0
  1.000000   0.375000 0
  0.500000   0.500000 0
  0.875000   0.375000 0
CELLS 64 320
4 56 71 58 63
4 27 58 69 63
4 41 69 32 63
4 76 33 68 40
4 27 44 58 37
4 79 31 44 37
4 56 38 68 21
4 56 58 38 37
4 52 32 71 63
4 47 38 31 37
4 76 68 59 21
4 22 59 43 21
4 65 45 33 40
4 47 43 38 21
4 52 71 45 40
4 56 68 71 40
4 74 30 66 23
4 46 66 29 23
4 22 43 30 23
4 72 48 77 34
4 46 53 42 73
4 50 64 53 73
4 70 42 57 73
4 74 66 48 34
4 46 42 66 34
4 47 29 43 23
4 70 77 42 34
4 60 57 64 73
4 79 67 31 75
4 47 31 29 75
4 50 53 67 75
4 46 29 53 75
4 10 78 6 80
4 36 6 1 80
4 15 1 12 80
4 36 4 6 26
4 14 12 78 80
4 2 17 9 26
4 36 18 4 55
4 15 28 1 11
4 62 4 20 55
4 10 6 17 26
4 27 18 44 11
4 62 9 4 26
4 27 69 18 55
4 36 1 18 11
4 41 20 69 55
4 79 44 28 11
4 16 24 54 7
4 19 54 39 7
4 50 39 64 7
4 8 25 61 3
4 60 64 24 7
4 79 28 67 13
4 19 51 61 49
4 8 61 0 49
4 15 51 28 13
4 19 39 51 13
4 50 67 39 13
4 19 61 54 3
4 14 0 12 49
4 5 35 25 3
4 15 12 51 49
4 16 54 35 3
CELL_TYPES 64
8
8
8
8
8
8
8
8
8
8
8
8
8
8
8
8
8
8
8
8
8
8
8
8
8
8
8
8
8
8
8
8
8
8
8
8
8
8
8
8
8
8
8
8
8
8
8
8
8
8
8
8
8
8
8
8
8
8
8
8
8
8
8
8
CELL_DATA 64
VECTORS vector_value float
-0.450426 -3.7477 0
0.235456 -0.953555 0
0.0252497 -0.393996 0
-0.0698955 -0.290508 0
-0.244236 -0.876231 0
-1.65307 -1.58968 0
0.431756 -1.43791 0
0.101074 -3.82512 0
-0.088963 -2.96672 0
0.0906164 -1.84045 0
-0.00376507 -0.0714072 0
0.65866 -0.991839 0
0.0119474 -0.22623 0
1.70559 -1.50858 0
-0.187989 -2.12979 0
-0.307157 -1.21298 0
-0.6086 -1.83976 0
-0.300521 -1.04478 0
0.316922 -2.53831 0
0.335936 -0.410707 0
-0.340606 -1.82828 0
0.177585 -0.423071 0
-0.596986 -1.95885 0
-0.252328 -0.525977 0
-0.973114 -1.76373 0
-0.492854 -0.840815 0
0.301828 -1.38464 0
-0.833337 -0.743858 0
0.227851 -0.489812 0
-0.0201657 -0.2484 0
0.0489704 -0.159495 0
-0.0487499 -1.16019 0
0.0228379 -0.139263 0
0.245226 -1.40845 0
-0.357092 -1.01437 0
0.073813 -1.39041 0
-0.111251 -0.192628 0
0.189987 -0.654653 0
0.0018724 -0.0620785 0
-0.368753 -0.748829 0
-0.0685699 -0.296931 0
0.0723902 -0.289278 0
-0.0238377 -0.0109565 0
0.0725913 -0.848771 0
0.0106101 -0.0534924 0
0.0673992 -0.230665 0
0.308274 -0.482909 0
-0.355134 -0.11362 0
0.844679 -0.560184 0
0.00644129 -0.0555326 0
0.017518 -0.0689816 0
0.141242 -2.41043 0
-0.0778391 -0.131758 0
-1.4589 -1.20472 0
-0.809319 -1.1158 0
-0.662285 -1.86799 0
-1.05637 -0.844346 0
-0.286236 -0.389271 0
0.172492 -0.422721 0
-0.0544006 -0.924001 0
-0.218387 -0.660748 0
0.424458 -1.57227 0
-0.76426 -1.17285 0
1.18458 -1.23774 0
