# vtk DataFile Version 2.0
Unstructured Grid by M++
ASCII
DATASET UNSTRUCTURED_GRID
POINTS 81 float
  1.000000   0.625000 0
  0.750000   0.375000 0
  1.000000   0.000000 0
  0.875000   0.875000 0
  0.750000   0.125000 0
  1.000000   1.000000 0
  0.875000   0.250000 0
  0.625000   0.875000 0
  1.000000   0.750000 0
  0.875000   0.000000 0
  1.000000   0.250000 0
  0.625000   0.375000 0
  0.875000   0.500000 0
  0.625000   0.625000 0
  1.000000   0.500000 0
  0.750000   0.500000 0
  0.750000   1.000000 0
  1.000000   0.125000 0
  0.625000   0.250000 0
  0.750000   0.750000 0
  0.625000   0.000000 0
  0.125000   0.375000 0
  0.000000   0.500000 0
  0.125000   0.625000 0
  0.625000   1.000000 0
  1.000000   0.875000 0
  0.875000   0.125000 0
  0.500000   0.250000 0
  0.625000   0.500000 0
  0.250000   0.625000 0
  0.000000   0.625000 0
  0.375000   0.500000 0
  0.375000   0.000000 0
  0.000000   0.125000 0
  0.125000   0.875000 0
  0.875000   1.000000 0
  0.750000   0.250000 0
  0.375000   0.375000 0
  0.250000   0.375000 0
  0.625000   0.750000 0
  0.125000   0.125000 0
  0.500000   0.000000 0
  0.250000   0.875000 0
  0.125000   0.500000 0
  0.500000   0.375000 0
  0.125000   0.000000 0
  0.250000   0.750000 0
  0.250000   0.500000 0
  0.000000   0.875000 0
  0.875000   0.625000 0
  0.500000   0.750000 0
  0.750000   0.625000 0
  0.250000   0.000000 0
  0.375000   0.750000 0
  0.750000   0.875000 0
  0.625000   0.125000 0
  0.250000   0.250000 0
  0.375000   1.000000 0
  0.375000   0.250000 0
  0.000000   0.375000 0
  0.500000   1.000000 0
  0.875000   0.750000 0
  0.750000   0.000000 0
  0.375000   0.125000 0
  0.500000   0.875000 0
  0.000000   0.000000 0
  0.125000   0.750000 0
  0.500000   0.625000 0
  0.125000   0.250000 0
  0.500000   0.125000 0
  0.250000   1.000000 0
  0.250000   0.125000 0
  0.000000   1.000000 0
  0.375000   0.875000 0
  0.000000   0.750000 0
  0.375000   0.625000 0
  0.000000   0.250000 0
  0.125000   1.000000 0
  1.000000   0.375000 0
  0.500000   0.500000 0
  0.875000   0.375000 0
CELLS 64 320
4 56 71 58 63
4 27 58 69 63
4 41 69 32 63
4 76 33 68 40
4 27 44 58 37
4 79 31 44 37
4 56 38 68 21
4 56 58 38 37
4 52 32 71 63
4 47 38 31 37
4 76 68 59 21
4 22 59 43 21
4 65 45 33 40
4 47 43 38 21
4 52 71 45 40
4 56 68 71 40
4 74 30 66 23
4 46 66 29 23
4 22 43 30 23
4 72 48 77 34
4 46 53 42 73
4 50 64 53 73
4 70 42 57 73
4 74 66 48 34
4 46 42 66 34
4 47 29 43 23
4 70 77 42 34
4 60 57 64 73
4 79 67 31 75
4 47 31 29 75
4 50 53 67 75
4 46 29 53 75
4 10 78 6 80
4 36 6 1 80
4 15 1 12 80
4 36 4 6 26
4 14 12 78 80
4 2 17 9 26
4 36 18 4 55
4 15 28 1 11
4 62 4 20 55
4 10 6 17 26
4 27 18 44 11
4 62 9 4 26
4 27 69 18 55
4 36 1 18 11
4 41 20 69 55
4 79 44 28 11
4 16 24 54 7
4 19 54 39 7
4 50 39 64 7
4 8 25 61 3
4 60 64 24 7
4 79 28 67 13
4 19 51 61 49
4 8 61 0 49
4 15 51 28 13
4 19 39 51 13
4 50 67 39 13
4 19 61 54 3
4 14 0 12 49
4 5 35 25 3
4 15 12 51 49
4 16 54 35 3
CELL_TYPES 64
8
8
8
8
8
8
8
8
8
8
8
8
8
8
8
8
8
8
8
8
8
8
8
8
8
8
8
8
8
8
8
8
8
8
8
8
8
8
8
8
8
8
8
8
8
8
8
8
8
8
8
8
8
8
8
8
8
8
8
8
8
8
8
8
CELL_DATA 64
VECTORS vector_value float
-0.397987 -1.81502 0
-0.310444 -1.03048 0
-0.305435 -0.606906 0
0.0370353 -0.134792 0
-0.609134 -1.85726 0
-0.157741 -1.85498 0
0.141895 -1.5951 0
-0.14905 -0.521672 0
0.0448334 -2.97419 0
-0.203689 -0.530342 0
0.263436 -0.654379 0
-0.12772 -0.619285 0
0.0151657 -0.0898758 0
-0.2833 -1.4471 0
0.233412 -1.39157 0
0.33168 -1.90025 0
0.137914 -0.657678 0
0.320918 -0.557815 0
0.0434881 -0.41004 0
-0.0958498 -1.31689 0
0.287197 -0.336751 0
-0.177655 -1.92823 0
0.246121 -0.310127 0
0.184122 -0.970768 0
0.51541 -0.889707 0
-0.284066 -1.08991 0
-0.222706 -0.844876 0
0.455017 -1.28327 0
-0.163959 -1.50771 0
-0.456111 -0.998535 0
-0.040636 -2.15265 0
0.167623 -1.02098 0
-0.118152 -0.176321 0
-0.343671 -1.68359 0
-0.187978 -0.943531 0
-0.624636 -1.40365 0
-0.362373 -0.847034 0
-0.000400682 -0.0232111 0
-0.648843 -1.42835 0
0.204292 -0.785258 0
-0.217937 -2.00276 0
-0.027764 -0.0479225 0
-0.0901247 -0.4698 0
-0.0200766 -0.462949 0
-0.141787 -0.23953 0
0.0514923 -1.04188 0
-0.22112 -0.44855 0
0.0740363 -0.972469 0
-0.423946 -0.585237 0
-0.170012 -0.381294 0
-0.344375 -1.74655 0
-0.0318854 -1.25454 0
-0.229515 -1.76879 0
0.102241 -1.82611 0
-0.0127839 -0.180396 0
0.0894544 -1.38704 0
0.222838 -0.632968 0
-0.0666691 -0.611926 0
0.0269822 -1.43151 0
-0.0996906 -0.492161 0
-0.195593 -1.38398 0
0.158253 -1.29648 0
-0.0423541 -0.15075 0
0.082529 -0.59433 0
