# vtk DataFile Version 2.0
Unstructured Grid by M++
ASCII
DATASET UNSTRUCTURED_GRID
POINTS 289 float
  0.562500   1.000000 0
  0.562500   0.625000 0
  0.625000   1.000000 0
  0.562500   0.937500 0
  0.562500   0.562500 0
  0.625000   0.937500 0
  0.562500   0.875000 0
  0.625000   0.750000 0
  0.625000   0.625000 0
  0.562500   0.812500 0
  0.562500   0.750000 0
  0.562500   0.687500 0
  0.625000   0.875000 0
  0.625000   0.812500 0
  0.625000   0.687500 0
  0.687500   0.125000 0
  0.875000   0.062500 0
  0.625000   0.125000 0
  0.625000   0.187500 0
  0.625000   0.250000 0
  0.812500   0.187500 0
  1.000000   0.125000 0
  0.687500   0.187500 0
  0.750000   0.125000 0
  0.937500   0.062500 0
  0.937500   0.125000 0
  0.750000   0.187500 0
  0.812500   0.062500 0
  0.812500   0.125000 0
  0.875000   0.687500 0
  0.187500   0.250000 0
  0.437500   0.250000 0
  0.375000   0.187500 0
  0.812500   0.625000 0
  0.125000   0.187500 0
  0.937500   0.750000 0
  0.250000   0.312500 0
  0.500000   0.312500 0
  0.625000   0.062500 0
  0.437500   0.500000 0
  0.375000   0.125000 0
  0.437500   0.187500 0
  0.437500   0.437500 0
  0.437500   0.375000 0
  0.875000   0.875000 0
  0.187500   0.375000 0
  0.687500   0.562500 0
  0.687500   0.625000 0
  0.000000   0.125000 0
  0.937500   0.625000 0
  0.250000   0.125000 0
  0.375000   0.062500 0
  0.375000   0.000000 0
  0.812500   0.500000 0
  0.125000   0.000000 0
  0.937500   0.937500 0
  0.250000   0.437500 0
  0.687500   0.875000 0
  0.687500   0.937500 0
  0.000000   0.437500 0
  0.500000   0.500000 0
  0.500000   0.437500 0
  0.750000   0.937500 0
  0.750000   1.000000 0
  0.062500   0.500000 0
  1.000000   1.000000 0
  0.312500   0.500000 0
  0.875000   0.562500 0
  0.187500   0.062500 0
  0.437500   0.125000 0
  0.437500   0.062500 0
  0.500000   0.375000 0
  0.937500   0.812500 0
  0.937500   0.875000 0
  0.250000   0.375000 0
  0.687500   0.812500 0
  0.000000   0.375000 0
  0.750000   0.562500 0
  0.062500   0.125000 0
  1.000000   0.562500 0
  1.000000   0.625000 0
  0.312500   0.125000 0
  0.562500   0.125000 0
  0.437500   0.000000 0
  0.875000   0.437500 0
  0.875000   0.500000 0
  0.187500   0.000000 0
  0.937500   0.562500 0
  0.937500   0.500000 0
  0.250000   0.062500 0
  0.687500   0.500000 0
  0.000000   0.062500 0
  0.500000   0.062500 0
  1.000000   0.875000 0
  1.000000   0.937500 0
  0.312500   0.437500 0
  0.750000   0.875000 0
  0.062500   0.437500 0
  0.812500   0.937500 0
  0.125000   0.500000 0
  0.375000   0.500000 0
  0.625000   0.562500 0
  0.625000   0.500000 0
  0.437500   0.312500 0
  0.875000   0.812500 0
  0.875000   0.750000 0
  0.187500   0.312500 0
  0.812500   0.687500 0
  0.812500   0.750000 0
  0.125000   0.250000 0
  0.375000   0.250000 0
  1.000000   0.687500 0
  0.312500   0.187500 0
  0.750000   0.687500 0
  0.750000   0.625000 0
  0.062500   0.187500 0
  0.562500   0.250000 0
  0.562500   0.187500 0
  0.375000   1.000000 0
  0.500000   0.562500 0
  0.500000   0.250000 0
  0.750000   0.250000 0
  0.500000   0.125000 0
  0.500000   0.187500 0
  1.000000   0.187500 0
  0.625000   0.375000 0
  0.875000   0.375000 0
  1.000000   0.437500 0
  0.312500   0.000000 0
  0.562500   0.000000 0
  0.812500   0.000000 0
  0.250000   0.687500 0
  0.000000   0.687500 0
  0.500000   1.000000 0
  0.250000   1.000000 0
  0.000000   1.000000 0
  0.437500   0.687500 0
  0.437500   0.625000 0
  0.187500   0.625000 0
  0.687500   0.750000 0
  0.000000   0.312500 0
  0.000000   0.250000 0
  0.375000   0.375000 0
  0.375000   0.312500 0
  0.812500   0.812500 0
  0.125000   0.312500 0
  0.875000   0.625000 0
  0.187500   0.187500 0
  0.187500   0.125000 0
  0.937500   1.000000 0
  0.250000   0.562500 0
  0.250000   0.500000 0
  0.687500   1.000000 0
  0.000000   0.500000 0
  0.687500   0.687500 0
  0.000000   0.187500 0
  0.937500   0.687500 0
  0.250000   0.250000 0
  0.250000   0.187500 0
  0.187500   0.687500 0
  0.000000   0.750000 0
  0.250000   0.750000 0
  0.125000   0.625000 0
  0.750000   0.750000 0
  0.062500   0.250000 0
  0.875000   0.937500 0
  0.187500   0.500000 0
  0.187500   0.437500 0
  0.812500   0.562500 0
  0.125000   0.125000 0
  0.125000   0.062500 0
  0.375000   0.625000 0
  0.375000   0.687500 0
  1.000000   0.750000 0
  0.312500   0.250000 0
  0.312500   0.312500 0
  0.812500   0.312500 0
  0.562500   0.312500 0
  0.375000   0.750000 0
  0.500000   0.625000 0
  0.250000   0.625000 0
  0.312500   0.687500 0
  0.750000   0.812500 0
  0.062500   0.312500 0
  0.062500   0.375000 0
  1.000000   0.812500 0
  0.312500   0.375000 0
  0.562500   0.375000 0
  0.687500   0.437500 0
  0.000000   0.000000 0
  0.500000   0.000000 0
  0.937500   0.437500 0
  0.250000   0.000000 0
  0.375000   0.437500 0
  0.812500   0.875000 0
  0.125000   0.375000 0
  0.125000   0.437500 0
  0.625000   0.437500 0
  1.000000   0.500000 0
  0.312500   0.062500 0
  0.750000   0.500000 0
  0.062500   0.000000 0
  0.062500   0.062500 0
  0.562500   0.062500 0
  0.062500   0.750000 0
  0.312500   0.750000 0
  0.312500   0.625000 0
  0.312500   0.562500 0
  0.062500   0.562500 0
  0.187500   1.000000 0
  0.437500   0.562500 0
  0.875000   1.000000 0
  0.187500   0.562500 0
  0.500000   0.937500 0
  0.250000   0.937500 0
  0.312500   1.000000 0
  0.125000   0.750000 0
  0.125000   0.687500 0
  1.000000   0.000000 0
  0.000000   0.937500 0
  0.000000   0.875000 0
  0.875000   0.125000 0
  0.875000   0.187500 0
  0.062500   0.812500 0
  0.312500   0.812500 0
  0.000000   0.812500 0
  0.000000   0.625000 0
  0.000000   0.562500 0
  0.062500   1.000000 0
  0.062500   0.937500 0
  0.937500   0.187500 0
  0.937500   0.250000 0
  0.062500   0.687500 0
  0.062500   0.625000 0
  0.125000   1.000000 0
  1.000000   0.250000 0
  1.000000   0.312500 0
  0.062500   0.875000 0
  0.125000   0.812500 0
  0.375000   0.812500 0
  0.125000   0.875000 0
  0.375000   0.937500 0
  0.375000   0.875000 0
  0.187500   0.750000 0
  0.187500   0.812500 0
  0.437500   0.812500 0
  0.187500   0.875000 0
  0.437500   0.875000 0
  0.375000   0.562500 0
  0.812500   1.000000 0
  0.125000   0.562500 0
  0.437500   1.000000 0
  0.437500   0.937500 0
  0.187500   0.937500 0
  0.125000   0.937500 0
  0.500000   0.687500 0
  0.500000   0.750000 0
  0.500000   0.812500 0
  0.250000   0.812500 0
  0.250000   0.875000 0
  0.500000   0.875000 0
  0.437500   0.750000 0
  0.312500   0.875000 0
  0.312500   0.937500 0
  0.687500   0.250000 0
  0.687500   0.312500 0
  0.937500   0.312500 0
  0.875000   0.250000 0
  0.625000   0.000000 0
  0.875000   0.000000 0
  0.687500   0.375000 0
  0.937500   0.375000 0
  0.875000   0.312500 0
  0.625000   0.312500 0
  0.687500   0.000000 0
  0.937500   0.000000 0
  0.750000   0.312500 0
  0.750000   0.375000 0
  1.000000   0.375000 0
  0.812500   0.250000 0
  0.562500   0.437500 0
  0.562500   0.500000 0
  0.687500   0.062500 0
  0.750000   0.437500 0
  0.750000   0.000000 0
  0.750000   0.062500 0
  1.000000   0.062500 0
  0.812500   0.375000 0
  0.812500   0.437500 0
CELLS 256 1280
4 169 170 148 68
4 151 166 56 167
4 195 45 196 167
4 54 170 201 202
4 109 34 30 147
4 40 32 81 112
4 192 89 86 68
4 48 91 78 202
4 99 64 196 97
4 71 43 37 103
4 74 186 56 95
4 109 164 34 115
4 50 81 158 112
4 122 69 92 70
4 195 145 45 106
4 110 143 174 175
4 157 30 158 147
4 40 69 32 41
4 50 158 148 147
4 141 155 164 115
4 122 123 69 41
4 142 186 143 175
4 60 39 61 42
4 40 51 69 70
4 120 31 123 41
4 157 174 36 175
4 50 148 89 68
4 48 78 155 115
4 52 83 51 70
4 151 56 66 95
4 71 61 43 42
4 169 148 34 147
4 100 193 39 42
4 40 81 51 199
4 110 174 32 112
4 109 30 145 106
4 100 66 193 95
4 169 34 78 115
4 190 92 83 70
4 50 89 81 199
4 54 86 170 68
4 74 56 45 167
4 142 143 43 103
4 153 59 64 97
4 99 196 166 167
4 169 78 170 202
4 142 193 186 95
4 192 128 89 199
4 74 45 36 106
4 110 31 143 103
4 76 184 59 97
4 142 43 193 42
4 52 51 128 199
4 189 201 91 202
4 120 37 31 103
4 74 36 186 175
4 195 196 184 97
4 141 164 140 183
4 157 158 174 112
4 109 145 164 183
4 195 184 145 183
4 110 32 31 41
4 157 36 30 106
4 76 140 184 183
4 171 172 206 181
4 178 172 261 136
4 256 261 255 136
4 256 257 261 245
4 180 150 206 207
4 60 119 39 210
4 118 215 241 263
4 178 205 172 181
4 216 243 238 244
4 162 217 233 232
4 180 206 131 181
4 179 137 119 210
4 216 204 217 232
4 220 237 219 229
4 216 217 243 159
4 259 258 262 224
4 240 254 237 229
4 153 64 227 208
4 161 205 258 224
4 240 237 238 223
4 226 227 233 208
4 234 228 254 229
4 171 248 137 210
4 160 132 204 232
4 180 131 138 159
4 133 251 213 252
4 171 206 248 207
4 162 138 217 159
4 161 258 243 244
4 220 225 237 223
4 151 150 166 212
4 260 247 257 245
4 259 262 214 263
4 151 66 150 207
4 234 254 209 253
4 162 233 250 208
4 242 241 262 263
4 171 137 172 136
4 161 243 131 159
4 160 204 225 223
4 161 131 205 181
4 179 255 137 136
4 216 238 204 223
4 100 39 248 210
4 260 213 247 252
4 226 233 132 232
4 134 214 215 263
4 180 138 150 212
4 178 261 239 245
4 259 246 258 244
4 178 239 205 224
4 240 238 246 244
4 242 262 239 224
4 99 250 64 208
4 240 246 254 253
4 242 239 247 245
4 135 219 228 229
4 99 166 250 212
4 259 214 246 253
4 118 241 251 252
4 100 248 66 207
4 134 209 214 253
4 162 250 138 212
4 242 247 241 252
4 71 187 61 280
4 102 281 197 280
4 122 92 82 203
4 17 18 82 117
4 122 82 123 117
4 19 264 273 265
4 267 279 222 20
4 125 273 270 265
4 267 272 279 176
4 19 116 18 117
4 21 25 286 24
4 23 28 26 20
4 23 285 28 27
4 218 286 275 24
4 85 53 84 288
4 235 236 231 266
4 221 222 28 20
4 267 222 231 230
4 268 38 129 203
4 125 270 197 188
4 126 287 272 176
4 277 270 276 265
4 267 231 272 266
4 125 197 187 280
4 190 129 92 203
4 277 276 287 176
4 19 18 264 22
4 17 82 38 203
4 102 197 90 188
4 126 84 287 288
4 284 130 285 27
4 121 276 264 265
4 71 37 187 177
4 120 123 116 117
4 198 88 127 191
4 221 16 25 24
4 23 26 15 22
4 121 279 276 176
4 235 231 124 230
4 125 187 273 177
4 278 271 236 266
4 277 287 283 288
4 284 285 274 282
4 278 127 271 191
4 269 275 16 24
4 200 283 53 288
4 23 15 285 282
4 121 26 279 20
4 21 124 25 230
4 19 273 116 177
4 200 90 283 188
4 126 271 84 191
4 269 16 130 27
4 17 38 15 282
4 221 25 222 230
4 121 264 26 22
4 120 116 37 177
4 60 61 281 280
4 277 283 270 188
4 126 272 271 266
4 268 274 38 282
4 85 84 88 191
4 17 15 18 22
4 221 28 16 27
4 93 94 73 55
4 85 88 67 87
4 80 49 79 87
4 44 104 73 72
4 146 33 67 168
4 211 165 149 55
4 8 47 14 154
4 105 104 108 144
4 105 108 29 107
4 7 139 13 75
4 44 165 194 98
4 200 53 77 168
4 8 1 101 4
4 2 5 152 58
4 260 6 213 3
4 105 35 104 72
4 96 57 182 75
4 7 14 139 154
4 146 29 33 107
4 7 13 10 9
4 12 13 57 75
4 85 67 53 168
4 44 73 165 55
4 63 152 62 58
4 8 101 47 46
4 96 182 194 144
4 60 281 119 4
4 12 5 6 3
4 173 185 35 72
4 65 149 94 55
4 146 67 49 87
4 114 113 47 154
4 163 108 182 144
4 12 6 13 9
4 173 35 111 156
4 163 182 139 75
4 260 257 6 9
4 105 29 35 156
4 163 139 113 154
4 256 10 257 9
4 146 49 29 156
4 163 113 108 107
4 80 111 49 156
4 102 101 281 4
4 12 57 5 58
4 44 194 104 144
4 96 194 62 98
4 2 0 5 3
4 93 73 185 72
4 179 119 1 4
4 200 77 90 46
4 114 33 113 107
4 7 10 14 11
4 96 62 57 58
4 133 213 0 3
4 102 90 101 46
4 256 255 10 11
4 63 62 249 98
4 114 47 77 46
4 179 1 255 11
4 211 249 165 98
4 114 77 33 168
4 198 79 88 87
4 8 14 1 11
CELL_TYPES 256
8
8
8
8
8
8
8
8
8
8
8
8
8
8
8
8
8
8
8
8
8
8
8
8
8
8
8
8
8
8
8
8
8
8
8
8
8
8
8
8
8
8
8
8
8
8
8
8
8
8
8
8
8
8
8
8
8
8
8
8
8
8
8
8
8
8
8
8
8
8
8
8
8
8
8
8
8
8
8
8
8
8
8
8
8
8
8
8
8
8
8
8
8
8
8
8
8
8
8
8
8
8
8
8
8
8
8
8
8
8
8
8
8
8
8
8
8
8
8
8
8
8
8
8
8
8
8
8
8
8
8
8
8
8
8
8
8
8
8
8
8
8
8
8
8
8
8
8
8
8
8
8
8
8
8
8
8
8
8
8
8
8
8
8
8
8
8
8
8
8
8
8
8
8
8
8
8
8
8
8
8
8
8
8
8
8
8
8
8
8
8
8
8
8
8
8
8
8
8
8
8
8
8
8
8
8
8
8
8
8
8
8
8
8
8
8
8
8
8
8
8
8
8
8
8
8
8
8
8
8
8
8
8
8
8
8
8
8
8
8
8
8
8
8
8
8
8
8
8
8
8
8
8
8
8
8
CELL_DATA 256
VECTORS vector_value float
0.178613 -0.464433 0
-2.15222 -2.22631 0
-0.832659 -2.46341 0
0.0474784 -0.318932 0
0.511858 -0.957565 0
0.191702 -2.20094 0
0.0745645 -0.839007 0
0.032041 -1.2202 0
-0.167666 -0.458682 0
0.121714 -0.324213 0
-0.469907 -0.691647 0
0.253874 -1.0219 0
0.565219 -2.87534 0
-0.0404346 -0.307473 0
-0.663584 -2.7539 0
-0.135023 -1.84482 0
0.977526 -1.80053 0
0.0554065 -0.383119 0
0.746174 -1.58846 0
0.0487301 -1.34765 0
0.0365728 -0.210989 0
-0.421186 -1.50904 0
-1.38064 -1.33897 0
0.0949643 -0.439762 0
0.123539 -0.16383 0
0.3865 -1.60866 0
0.41985 -1.03577 0
0.0160666 -1.24591 0
0.228667 -0.901767 0
-2.4219 -1.16384 0
-0.583507 -0.757388 0
0.446243 -0.700425 0
-1.28165 -1.1923 0
0.683108 -2.89822 0
0.146303 -2.00139 0
0.741077 -2.16613 0
-1.93829 -1.28488 0
0.151179 -0.69551 0
-0.0760234 -0.515272 0
1.02757 -3.12941 0
0.0935712 -0.589261 0
-0.813617 -2.27915 0
-0.331113 -1.27225 0
-0.00619524 -0.16113 0
-1.1749 -1.75937 0
0.151621 -0.47476 0
-0.716394 -1.06986 0
0.266888 -2.37902 0
0.0454211 -1.71151 0
0.00221558 -0.595234 0
-0.180693 -0.398995 0
-1.13738 -1.59966 0
0.474783 -3.46355 0
0.0109597 -1.15178 0
0.15353 -0.222919 0
0.017218 -0.66019 0
-0.6581 -1.12779 0
-0.179716 -1.30298 0
0.574315 -2.26005 0
-0.140794 -1.23851 0
-0.591901 -1.37133 0
0.0882742 -0.415797 0
0.811837 -1.18718 0
-0.23053 -0.788913 0
0.0232456 -0.406785 0
0.599424 -0.696483 0
0.423815 -0.696053 0
0.521524 -0.566034 0
-0.124294 -0.711892 0
-0.998113 -1.40533 0
0.489378 -1.17598 0
0.424169 -0.538068 0
0.0430603 -0.804479 0
0.0911137 -0.655544 0
0.0235918 -0.788371 0
-1.65367 -2.06462 0
0.0541121 -0.525568 0
0.103675 -0.489106 0
-0.0215254 -0.73643 0
0.091325 -1.4329 0
0.254629 -0.497685 0
0.00146789 -0.17664 0
0.482713 -1.43895 0
0.0556447 -0.463546 0
-0.00762113 -0.166346 0
0.554644 -0.520754 0
-0.953901 -0.952158 0
0.0737245 -0.319218 0
-0.0583666 -0.929542 0
0.431767 -1.10026 0
-0.433299 -0.814264 0
-0.0292456 -0.969352 0
0.158242 -1.11822 0
0.0195186 -0.411338 0
-0.315818 -1.71598 0
0.306189 -0.689334 0
0.0868063 -1.40927 0
-0.753694 -0.970048 0
0.809061 -1.10482 0
0.0658692 -0.555285 0
0.0199014 -0.873773 0
-0.108708 -0.736924 0
-0.0413995 -1.13797 0
0.0228927 -0.425919 0
0.133367 -0.924513 0
-0.472296 -1.11637 0
0.0275022 -0.413113 0
-1.46368 -1.5512 0
0.672405 -1.27295 0
0.0310374 -0.161827 0
0.570273 -0.973255 0
-0.00313087 -1.05368 0
0.592686 -0.566102 0
0.217653 -1.42637 0
0.681773 -0.687313 0
0.17908 -0.85894 0
0.116423 -0.793397 0
0.0474561 -0.351382 0
0.249451 -1.0436 0
0.129858 -0.447603 0
0.170577 -0.862551 0
0.107081 -0.966359 0
0.230466 -1.10254 0
0.584569 -1.03488 0
-1.03724 -1.17951 0
0.735763 -1.12632 0
0.11307 -1.00628 0
0.246043 -0.718354 0
0.125826 -0.930674 0
0.236061 -1.4038 0
-0.137985 -0.416182 0
-0.0401109 -0.367074 0
-0.0378198 -0.342921 0
0.407246 -0.932014 0
0.653053 -1.25553 0
0.711789 -1.50834 0
0.25685 -0.61897 0
0.369881 -0.551395 0
0.0403187 -0.392206 0
0.164088 -1.27967 0
0.277986 -1.82394 0
0.00985901 -0.438682 0
0.0355411 -0.131256 0
0.0141113 -0.0980213 0
-0.0125049 -1.17509 0
0.24311 -0.416169 0
-0.073336 -0.366497 0
0.507797 -1.11137 0
0.163834 -0.368088 0
0.601521 -1.02782 0
0.0512211 -0.194775 0
0.69368 -1.16394 0
-0.0900111 -0.351263 0
0.52362 -1.31139 0
0.490672 -0.863289 0
-0.139987 -0.304106 0
0.326536 -0.885436 0
0.0622566 -0.218978 0
0.0927373 -1.95711 0
0.7351 -1.21483 0
0.210217 -0.540606 0
0.193602 -0.335223 0
0.0016985 -0.0833833 0
0.0488524 -0.464235 0
0.328365 -1.34124 0
0.682035 -1.70019 0
0.0342911 -0.119725 0
0.285632 -0.623166 0
-0.000352511 -0.0710759 0
0.210829 -0.772772 0
0.0312771 -0.711515 0
-0.00257913 -0.0796409 0
0.0232851 -0.472944 0
0.153083 -0.510591 0
0.239284 -1.04928 0
0.474164 -1.15944 0
0.0841455 -0.230751 0
0.273286 -0.632555 0
0.307497 -1.29804 0
0.00864377 -0.0903342 0
0.0608744 -1.1823 0
-0.0830331 -0.557221 0
0.146366 -0.591734 0
0.417862 -1.33051 0
0.226335 -0.442215 0
-0.532797 -2.03631 0
0.398645 -1.24439 0
0.0380859 -0.158158 0
-0.0173282 -0.361096 0
0.00589185 -0.0657053 0
0.132966 -0.77081 0
0.0886545 -1.0228 0
-0.0436273 -1.00358 0
0.0156057 -0.0720794 0
-0.00471919 -0.0669502 0
-0.0963075 -0.774702 0
-0.0289901 -0.119551 0
-0.0457522 -0.804082 0
-1.05499 -2.27012 0
-0.599305 -0.723217 0
-1.03759 -0.569037 0
-0.785295 -1.84693 0
-0.116355 -0.962022 0
0.02801 -0.559302 0
-0.806282 -2.94372 0
0.396827 -1.24543 0
0.518664 -0.755304 0
-0.505669 -0.608417 0
-0.360443 -1.36093 0
-1.5532 -2.32269 0
-0.119197 -0.220731 0
-0.113389 -2.44855 0
-0.152427 -1.31254 0
0.0298252 -0.0803512 0
-0.108979 -0.709125 0
0.214681 -1.02218 0
-0.144801 -2.05557 0
-0.279554 -1.54043 0
-1.08439 -2.64225 0
0.329378 -1.45519 0
-0.195153 -0.661976 0
0.0364297 -1.09699 0
-0.00790883 -0.0611542 0
-0.82699 -0.82284 0
-0.774135 -1.3587 0
0.255765 -1.78394 0
-0.168647 -0.267657 0
-0.948385 -1.00966 0
0.598641 -1.15977 0
-0.605098 -0.314403 0
-1.56551 -0.919271 0
0.393109 -1.32243 0
-0.0323123 -0.0469122 0
-1.33494 -0.895091 0
-0.0264547 -0.100191 0
-0.556082 -2.00873 0
0.0474707 -0.872576 0
-0.15168 -0.590872 0
-0.0971543 -1.33086 0
0.380746 -0.725712 0
-0.066325 -0.953391 0
-1.14608 -2.42236 0
0.288691 -0.76566 0
-0.378769 -0.537019 0
-0.935109 -3.30512 0
-0.00506362 -1.50406 0
0.399666 -0.967546 0
0.209978 -1.49006 0
-0.0681975 -1.83243 0
-0.133751 -1.4847 0
0.0554773 -0.562789 0
-1.418 -2.62539 0
-0.272346 -0.754542 0
-0.0203152 -0.443376 0
0.00798784 -0.0651043 0
-1.36546 -3.61208 0
