# vtk DataFile Version 2.0
Unstructured Grid by M++
ASCII
DATASET UNSTRUCTURED_GRID
POINTS 1089 float
  0.718750   0.687500 0
  0.750000   0.687500 0
  0.718750   0.656250 0
  0.750000   0.718750 0
  0.625000   0.562500 0
  0.625000   0.593750 0
  0.656250   0.593750 0
  0.750000   0.750000 0
  0.687500   0.656250 0
  0.687500   0.625000 0
  0.656250   0.625000 0
  0.906250   0.593750 0
  1.000000   0.968750 0
  0.750000   0.968750 0
  0.718750   0.968750 0
  0.718750   1.000000 0
  0.750000   1.000000 0
  0.906250   0.906250 0
  0.843750   0.531250 0
  0.656250   0.937500 0
  0.656250   0.906250 0
  0.562500   0.812500 0
  0.562500   0.843750 0
  0.593750   0.875000 0
  0.593750   0.843750 0
  0.812500   0.718750 0
  0.625000   0.625000 0
  0.968750   0.875000 0
  0.531250   0.875000 0
  0.625000   0.937500 0
  0.562500   0.562500 0
  0.906250   0.812500 0
  0.531250   0.781250 0
  0.562500   0.593750 0
  0.906250   0.843750 0
  0.625000   0.656250 0
  0.968750   0.906250 0
  0.687500   0.968750 0
  0.812500   0.812500 0
  0.687500   1.000000 0
  0.687500   0.687500 0
  0.937500   0.843750 0
  0.593750   0.593750 0
  1.000000   0.625000 0
  0.968750   0.593750 0
  0.906250   0.875000 0
  0.968750   0.625000 0
  0.625000   0.875000 0
  0.875000   0.875000 0
  0.625000   0.906250 0
  0.875000   0.843750 0
  0.531250   0.812500 0
  0.968750   0.562500 0
  0.593750   0.625000 0
  0.937500   0.875000 0
  0.656250   0.687500 0
  1.000000   0.937500 0
  0.875000   0.562500 0
  0.687500   0.937500 0
  0.937500   0.625000 0
  0.812500   0.781250 0
  0.937500   0.562500 0
  0.875000   0.781250 0
  0.531250   0.531250 0
  0.718750   0.937500 0
  0.968750   0.937500 0
  0.906250   0.562500 0
  0.843750   0.781250 0
  0.593750   0.562500 0
  1.000000   0.906250 0
  0.656250   0.656250 0
  0.937500   0.906250 0
  0.875000   0.531250 0
  0.812500   0.750000 0
  0.656250   0.968750 0
  0.937500   0.531250 0
  0.843750   0.812500 0
  0.906250   0.531250 0
  0.843750   0.750000 0
  0.937500   0.593750 0
  0.875000   0.812500 0
  0.531250   0.562500 0
  1.000000   0.593750 0
  0.562500   0.906250 0
  0.562500   0.531250 0
  0.593750   0.906250 0
  0.593750   0.937500 0
  0.562500   0.875000 0
  0.781250   0.750000 0
  0.781250   0.781250 0
  0.593750   0.531250 0
  1.000000   0.687500 0
  0.531250   0.843750 0
  0.718750   0.718750 0
  0.781250   0.718750 0
  0.781250   0.687500 0
  1.000000   0.656250 0
  0.968750   0.656250 0
  0.843750   0.843750 0
  0.781250   1.000000 0
  0.656250   0.312500 0
  0.531250   0.250000 0
  0.875000   0.500000 0
  0.531250   0.218750 0
  0.875000   0.468750 0
  0.531250   0.156250 0
  0.593750   0.812500 0
  0.093750   0.562500 0
  0.656250   0.562500 0
  0.156250   0.312500 0
  0.031250   0.812500 0
  0.125000   1.000000 0
  0.312500   0.250000 0
  0.250000   0.500000 0
  0.375000   0.000000 0
  0.187500   0.750000 0
  0.812500   0.906250 0
  0.312500   0.656250 0
  0.250000   0.906250 0
  0.875000   0.656250 0
  0.375000   0.406250 0
  0.750000   0.843750 0
  0.250000   0.593750 0
  0.187500   0.843750 0
  0.812500   0.593750 0
  0.312500   0.343750 0
  0.625000   0.968750 0
  0.125000   0.718750 0
  0.687500   0.718750 0
  0.187500   0.468750 0
  0.062500   0.968750 0
  0.125000   0.656250 0
  0.187500   0.406250 0
  0.250000   0.156250 0
  0.062500   0.906250 0
  0.468750   0.906250 0
  0.656250   0.156250 0
  0.468750   0.812500 0
  0.593750   0.312500 0
  0.656250   0.062500 0
  0.625000   0.812500 0
  0.125000   0.562500 0
  0.687500   0.562500 0
  0.187500   0.312500 0
  0.062500   0.812500 0
  0.562500   0.937500 0
  0.062500   0.687500 0
  0.625000   0.687500 0
  0.125000   0.437500 0
  0.000000   0.937500 0
  0.062500   0.625000 0
  0.187500   0.125000 0
  0.125000   0.375000 0
  0.000000   0.875000 0
  0.406250   0.875000 0
  0.468750   0.625000 0
  0.593750   0.125000 0
  0.812500   0.937500 0
  0.312500   0.687500 0
  0.250000   0.937500 0
  0.875000   0.687500 0
  0.375000   0.437500 0
  0.750000   0.875000 0
  0.250000   0.625000 0
  0.187500   0.875000 0
  0.812500   0.625000 0
  0.312500   0.375000 0
  0.468750   0.781250 0
  0.593750   0.281250 0
  0.656250   0.031250 0
  0.625000   0.781250 0
  0.125000   0.531250 0
  0.062500   0.781250 0
  0.687500   0.531250 0
  0.187500   0.281250 0
  0.500000   0.812500 0
  0.687500   0.062500 0
  0.625000   0.312500 0
  0.656250   0.812500 0
  0.156250   0.562500 0
  0.718750   0.562500 0
  0.218750   0.312500 0
  0.093750   0.812500 0
  0.437500   0.968750 0
  0.625000   0.218750 0
  0.500000   0.781250 0
  0.687500   0.031250 0
  0.625000   0.281250 0
  0.656250   0.781250 0
  0.156250   0.531250 0
  0.718750   0.531250 0
  0.218750   0.281250 0
  0.093750   0.781250 0
  0.062500   0.562500 0
  0.125000   0.312500 0
  0.187500   0.062500 0
  0.000000   0.812500 0
  0.406250   0.812500 0
  0.968750   0.812500 0
  0.468750   0.562500 0
  0.593750   0.062500 0
  0.218750   0.687500 0
  0.156250   0.937500 0
  0.281250   0.437500 0
  0.062500   0.843750 0
  0.687500   0.593750 0
  0.187500   0.343750 0
  0.625000   0.843750 0
  0.125000   0.593750 0
  0.312500   0.843750 0
  0.437500   0.343750 0
  0.500000   0.093750 0
  0.375000   0.593750 0
  0.312500   0.906250 0
  0.937500   0.656250 0
  0.437500   0.406250 0
  0.875000   0.906250 0
  0.375000   0.656250 0
  0.062500   0.875000 0
  0.187500   0.375000 0
  0.250000   0.125000 0
  0.125000   0.625000 0
  0.093750   0.656250 0
  0.031250   0.906250 0
  0.218750   0.156250 0
  0.156250   0.406250 0
  0.593750   0.968750 0
  0.093750   0.718750 0
  0.031250   0.968750 0
  0.656250   0.718750 0
  0.156250   0.468750 0
  0.437500   0.906250 0
  0.625000   0.156250 0
  0.718750   0.812500 0
  0.218750   0.562500 0
  0.781250   0.562500 0
  0.281250   0.312500 0
  0.156250   0.812500 0
  0.062500   0.656250 0
  0.000000   0.906250 0
  0.187500   0.156250 0
  0.125000   0.406250 0
  0.562500   0.968750 0
  0.062500   0.718750 0
  0.000000   0.968750 0
  0.625000   0.718750 0
  0.125000   0.468750 0
  0.406250   0.968750 0
  0.968750   0.968750 0
  0.468750   0.718750 0
  0.531250   0.468750 0
  0.593750   0.218750 0
  0.406250   0.906250 0
  0.468750   0.656250 0
  0.593750   0.156250 0
  0.687500   0.781250 0
  0.187500   0.531250 0
  0.750000   0.531250 0
  0.250000   0.281250 0
  0.125000   0.781250 0
  0.781250   0.906250 0
  0.281250   0.656250 0
  0.218750   0.906250 0
  0.843750   0.656250 0
  0.343750   0.406250 0
  0.750000   0.906250 0
  0.250000   0.656250 0
  0.187500   0.906250 0
  0.812500   0.656250 0
  0.312500   0.406250 0
  0.875000   0.406250 0
  0.375000   0.156250 0
  0.812500   0.968750 0
  0.312500   0.718750 0
  0.250000   0.968750 0
  0.875000   0.718750 0
  0.375000   0.468750 0
  0.781250   0.937500 0
  0.281250   0.687500 0
  0.218750   0.937500 0
  0.843750   0.687500 0
  0.343750   0.437500 0
  0.718750   0.875000 0
  0.218750   0.625000 0
  0.156250   0.875000 0
  0.781250   0.625000 0
  0.281250   0.375000 0
  0.750000   0.937500 0
  0.250000   0.687500 0
  0.187500   0.937500 0
  0.875000   0.437500 0
  0.375000   0.187500 0
  0.812500   0.687500 0
  0.312500   0.437500 0
  0.687500   0.875000 0
  0.187500   0.625000 0
  0.750000   0.625000 0
  0.250000   0.375000 0
  0.125000   0.875000 0
  0.812500   1.000000 0
  0.312500   0.750000 0
  0.250000   1.000000 0
  0.875000   0.750000 0
  0.375000   0.500000 0
  0.562500   1.000000 0
  0.062500   0.750000 0
  0.000000   1.000000 0
  0.625000   0.750000 0
  0.125000   0.500000 0
  0.406250   1.000000 0
  0.968750   1.000000 0
  0.468750   0.750000 0
  0.656250   0.000000 0
  0.531250   0.500000 0
  0.593750   0.250000 0
  0.406250   0.937500 0
  0.468750   0.687500 0
  0.593750   0.187500 0
  0.687500   0.812500 0
  0.187500   0.562500 0
  0.750000   0.562500 0
  0.250000   0.312500 0
  0.125000   0.812500 0
  0.437500   0.843750 0
  0.625000   0.093750 0
  0.093750   0.593750 0
  0.156250   0.343750 0
  0.218750   0.093750 0
  0.031250   0.843750 0
  0.281250   0.937500 0
  0.843750   0.937500 0
  0.343750   0.687500 0
  0.906250   0.687500 0
  0.406250   0.437500 0
  0.156250   0.968750 0
  0.218750   0.718750 0
  0.281250   0.468750 0
  0.343750   0.218750 0
  0.156250   1.000000 0
  0.406250   0.000000 0
  0.281250   0.500000 0
  0.343750   0.250000 0
  0.218750   0.750000 0
  0.187500   0.968750 0
  0.250000   0.718750 0
  0.375000   0.218750 0
  0.312500   0.468750 0
  0.187500   1.000000 0
  0.312500   0.500000 0
  0.375000   0.250000 0
  0.437500   0.000000 0
  0.250000   0.750000 0
  0.031250   0.781250 0
  0.656250   0.531250 0
  0.156250   0.281250 0
  0.593750   0.781250 0
  0.093750   0.531250 0
  0.000000   0.781250 0
  0.625000   0.531250 0
  0.125000   0.281250 0
  0.562500   0.781250 0
  0.062500   0.531250 0
  0.781250   0.968750 0
  0.281250   0.718750 0
  0.218750   0.968750 0
  0.843750   0.718750 0
  0.343750   0.468750 0
  0.281250   0.968750 0
  0.843750   0.968750 0
  0.343750   0.718750 0
  0.906250   0.718750 0
  0.406250   0.468750 0
  0.281250   1.000000 0
  0.906250   0.750000 0
  0.406250   0.500000 0
  0.843750   1.000000 0
  0.343750   0.750000 0
  0.531250   0.000000 0
  0.718750   0.843750 0
  0.218750   0.593750 0
  0.156250   0.843750 0
  0.781250   0.593750 0
  0.281250   0.343750 0
  0.687500   0.843750 0
  0.187500   0.593750 0
  0.750000   0.593750 0
  0.250000   0.343750 0
  0.125000   0.843750 0
  0.218750   0.875000 0
  0.843750   0.625000 0
  0.343750   0.375000 0
  0.781250   0.875000 0
  0.281250   0.625000 0
  0.156250   0.906250 0
  0.781250   0.656250 0
  0.281250   0.406250 0
  0.718750   0.906250 0
  0.218750   0.656250 0
  0.031250   1.000000 0
  0.656250   0.750000 0
  0.156250   0.500000 0
  0.593750   1.000000 0
  0.093750   0.750000 0
  0.218750   1.000000 0
  0.343750   0.500000 0
  0.468750   0.000000 0
  0.406250   0.250000 0
  0.281250   0.750000 0
  0.593750   0.406250 0
  0.093750   0.156250 0
  0.531250   0.656250 0
  0.031250   0.406250 0
[...]
CELL_DATA 1024
SCALARS scalar_value float 1
LOOKUP_TABLE default
275.779
239.08
189.773
34.1082
18.6204
52.0334
58.5911
12.7756
20.3015
72.1935
36.1937
4.6334
2.73225
7.41489
10.2131
7.99583
3.75573
2.31508
20.0309
7.65104
10.4886
5.4785
30.8275
7.3982
254.983
202.378
202.759
203.052
54.8869
0.159344
7.76192
9.86832
8.07825
6.63739
7.30942
6.76578
8.86552
6.20846
5.73798
2.80167
91.0619
48.4448
13.2784
33.0864
41.6711
9.3912
3.03484
58.2976
6.39728
5.03787
25.8957
229.35
16.491
6.65225
32.0859
11.7803
8.58068
17.6883
89.8633
65.33
107.991
165.901
208.205
182.19
136.3
126.429
23.0464
77.9619
72.1922
8.89817
1.12949
6.50432
14.5681
106.832
62.9142
103.38
0.426299
0.11684
79.5289
27.6242
25.0742
4.1632
246.416
72.785
227.852
131.888
192.972
39.8085
1.67461
1.89053
4.84645
5.2653
90.6299
117.824
305.608
170.506
17.7307
40.099
353.014
73.3576
18.8458
0.0887631
83.6932
65.3872
44.4175
57.8618
0.480449
1.12085
1.83356
31.0609
84.2064
46.6041
0.922775
39.6313
17.6055
0.212223
71.8987
62.2747
116.363
7.33517
13.7352
5.05172
1.65051
49.1702
6.94227
1.25373
7.57031
195.625
85.5772
38.9614
45.9612
1.73093
199.766
3.72869
9.92427
16.1564
26.6363
67.5984
129.444
81.1089
0.456003
22.3831
4.74447
59.1524
309.491
66.7206
110.528
31.1971
6.8678
21.6033
2.7601
0.415526
9.27288
261.955
13.6803
5.97892
0.786639
50.9707
231.641
3.98082
2.70966
8.63725
107.703
146.078
0.384164
55.8289
3.88403
53.3068
225.611
126.747
2.20804
187.264
229.007
186.247
208.055
187.794
259.354
201.577
10.4604
9.64184
6.23403
5.83001
0.213865
5.99294
5.15424
1.13959
5.27295
3.85621
1.33212
5.17567
38.0631
8.04682
16.6656
146.737
83.0171
6.22583
28.3127
20.1405
8.1591
182.984
2.84342
26.9218
24.7378
64.4668
10.5117
3.69398
50.2688
20.0049
5.8539
1.69912
41.1771
32.7333
9.26395
2.55374
42.8267
6.05685
57.1793
41.4063
10.4573
26.2518
18.3625
24.303
0.103383
0.527184
45.6481
124.888
0.0937756
0.223182
63.7576
159.814
0.28736
0.0557261
43.0494
167.808
0.154832
0.273215
58.7561
139.705
9.44261
0.226609
85.713
0.295525
73.2862
1.00905
30.2879
0.201691
0.379389
99.574
0.494243
66.8845
83.0154
182.492
8.55514
7.46464
10.6932
12.8445
0.263604
0.526449
2.51004
4.16345
3.2891
1.95941
54.712
33.4947
61.5698
7.16062
4.5547
3.16804
6.37577
1.39579
4.15626
17.691
10.9845
9.20864
15.902
9.19724
6.88595
3.42573
4.4886
7.8541
5.6064
6.13593
12.6957
18.0591
0.941876
2.45002
4.90914
1.83489
2.34277
2.63843
9.93958
2.17472
16.6657
1.78442
39.416
4.73315
42.4958
4.17327
7.48505
6.92359
9.40361
5.03324
3.18607
7.96431
3.01961
3.40581
12.7661
4.26356
9.2087
8.85074
7.52134
12.4105
7.94517
22.1103
5.20479
1.55515
6.86886
24.0269
16.0005
43.8686
7.91106
19.6448
6.81325
15.2226
7.87222
5.0941
21.0492
8.88954
202.705
41.2138
7.58806
1.3347
123.352
28.8805
5.89178
2.7274
0.269277
1.08919
1.20558
2.84383
7.50202
0.236927
0.510052
2.87457
2.07214
8.09785
5.71918
2.82735
2.99261
1.7916
2.12564
7.87647
3.33546
2.05136
1.57518
9.56706
90.2455
13.7147
5.59013
1.10967
4.79221
1.61396
2.24997
2.48987
3.01429
8.06144
0.519384
4.97011
5.96532
3.75663
10.6177
15.9642
0.534004
3.57405
13.8835
122.415
17.058
2.16115
2.98432
16.1512
55.4314
20.5209
23.3456
0.588406
0.154102
1.11703
6.50868
6.61351
5.32521
3.57749
23.1189
10.7429
8.13611
5.15897
2.89891
5.04749
12.197
0.223237
0.178086
3.70561
1.99711
4.09541
8.6186
0.671547
0.436611
4.8683
0.61436
3.13414
2.84594
7.02093
3.44205
1.08765
1.85566
2.18798
1.85268
0.604235
1.71868
1.71258
0.551117
1.71714
2.80521
1.69979
45.3262
0.236139
0.971434
49.6291
6.97466
7.17397
31.2631
9.18419
16.9926
6.6563
13.3912
6.12993
0.698178
6.29695
20.7552
2.38629
4.31206
0.23092
1.44965
2.42085
0.30046
1.74781
1.44059
6.84388
1.8425
0.138219
17.132
4.66267
7.7944
0.159442
7.34433
10.7115
0.244593
6.04971
0.85804
5.65878
0.190595
8.38038
6.95825
8.42573
10.3072
9.13807
9.33643
3.4118
4.69285
9.91156
9.32874
0.276605
10.9516
1.8459
0.655383
4.82809
10.86
4.09225
5.97855
3.09577
1.2951
1.58592
0.421716
0.387223
33.7208
1.4665
30.3374
4.02505
3.03061
23.8264
1.3844
37.3977
39.6965
28.7986
26.7522
0.145976
22.7017
0.365381
0.206978
34.2391
0.465586
0.118299
27.0241
0.163289
0.171461
15.1592
7.64806
22.1358
0.836019
0.441889
1.85268
2.10278
1.97061
2.29813
61.061
0.196831
0.61824
5.11928
5.72581
0.0638688
0.0714461
0.110045
1.29996
2.06479
0.719454
8.69806
1.13633
1.89651
0.422874
0.253327
0.116909
0.27762
115.203
1.64225
2.43991
23.206
23.2185
35.2281
30.2948
0.125177
0.0918899
0.153712
0.270705
0.388524
0.319637
8.89604
8.9488
0.194548
2.02256
0.468736
0.0881634
3.08551
0.612048
0.0822971
0.20699
0.0688272
0.204807
0.0477908
0.141408
113.067
64.3753
24.777
20.1116
58.4068
70.1666
0.197238
26.9444
33.3481
0.16346
13.3083
34.4296
136.87
70.1233
31.9193
1.04462
16.3313
105.727
34.4559
52.1516
1.24438
5.70766
0.226221
98.3009
41.8747
2.9144
1.68537
43.4399
1.74357
4.30501
2.6606
2.55572
68.5856
6.1663
3.90393
3.24016
0.475185
31.2821
6.0596
37.3605
2.38679
0.290227
11.6623
11.9247
78.6972
38.3951
2.14691
9.50518
0.0917181
96.6862
7.46675
5.55066
3.25469
6.97861
0.615149
10.5272
7.70138
9.36557
27.6673
0.408857
0.460923
62.3012
0.637685
0.0574389
94.0955
2.19805
6.79837
28.6672
92.3028
3.87411
0.121371
0.229637
8.06375
0.720955
2.55873
14.1947
18.9363
36.7121
6.53996
7.73366
0.402019
0.0890199
0.0923594
0.0747246
32.0736
21.9483
1.19561
48.686
92.3696
1.52976
1.07369
15.2436
0.4595
0.39251
29.0676
24.0313
16.0776
25.8146
14.0535
10.4383
14.5263
14.8981
13.1836
8.27398
13.1242
1.76478
0.878142
0.798063
0.060702
0.0877884
47.2329
1.85032
60.7787
2.26383
37.3137
8.99906
28.4125
6.66533
0.105766
0.0725059
0.114482
0.141601
0.180258
0.182874
0.0729353
0.0860238
0.0896629
0.0706033
8.068
5.77739
1.5165
1.04968
9.47227
5.46494
0.850803
1.26962
1.1904
30.1233
0.670062
0.723855
5.14401
9.3416
21.2889
0.526111
0.913863
3.13922
0.0964826
0.127407
20.4161
0.164296
15.3061
0.152545
0.183386
29.0185
0.11705
0.11819
29.8923
98.9122
90.0748
83.1303
96.7706
2.12162
77.0156
0.703155
59.0783
0.336076
0.902035
99.6113
0.663162
2.585
1.39855
0.589561
6.84429
27.1543
17.2449
110.501
61.9142
13.9453
44.9026
99.5061
9.19445
22.1655
41.0018
3.29342
30.7416
0.497627
0.233732
0.765065
0.604169
0.413592
0.228763
4.18511
4.38512
0.453213
77.9286
0.171025
59.0123
0.173264
0.187944
47.4632
0.42621
59.8515
38.6672
51.0317
58.9161
63.321
0.371466
0.265313
0.62235
0.658532
0.882276
5.46411
23.634
8.00642
3.69847
14.5769
87.5879
39.0859
1.19577
34.1529
100.813
62.8732
0.182908
33.1824
33.3645
42.4496
44.8476
0.286608
0.296108
0.62385
0.428626
202.325
25.3723
1.47424
41.5823
0.937898
32.0924
3.67082
19.3594
12.3405
2.41648
28.2346
1.52555
41.7731
76.7895
35.9588
5.55196
142.363
14.6953
1.05251
32.9724
8.15625
204.345
48.7379
0.627622
19.3978
7.90148
42.2738
86.1133
38.4046
83.3621
24.8192
5.55627
41.1716
5.04866
0.681826
14.2071
19.3666
3.75239
0.72154
16.5406
23.1101
15.7689
2.18455
16.3291
3.56538
71.4439
90.6396
8.28012
36.9268
5.5964
8.86297
20.8821
102.474
133.386
4.31404
20.8547
50.7194
8.03636
4.10849
188.523
72.1183
7.23916
47.6811
181.69
56.9724
7.78957
37.9068
191.452
0.733062
18.691
12.7584
15.7049
32.3058
10.8386
4.22548
1.12607
11.1332
4.80826
5.82413
6.22811
4.17872
0.368919
6.89994
0.853691
18.8069
8.26338
11.0669
56.9581
8.58585
6.19541
4.32358
0.392314
2.48566
46.2902
18.0433
2.48668
8.52613
0.440297
23.5559
11.6355
1.66998
38.1574
80.1784
16.3943
28.6716
0.55211
31.7428
31.0847
7.17624
112.663
44.5202
11.2992
2.51609
32.9057
7.08123
2.03083
18.1962
1.18983
162.975
31.9624
21.0008
5.06327
28.5558
0.516554
2.81154
11.2714
45.6782
59.6216
59.9036
53.9945
2.85624
16.5021
9.39049
1.79454
1.58072
62.5908
34.336
1.27279
55.3975
1.37521
27.6009
2.01344
19.1918
0.928845
0.296423
0.16286
0.462059
22.1822
203.051
29.8708
107.331
19.9679
121.68
174.601
47.9707
0.244632
0.313093
3.0961
62.3858
0.288798
0.206786
3.02652
58.2141
29.7001
14.9775
9.48429
5.16355
20.1592
7.80448
1.48288
6.42561
16.3833
0.405482
4.07882
16.7331
132.456
59.847
1.97985
6.10237
117.795
130.625
4.83149
28.0795
12.1133
132.043
42.4993
4.34405
8.65754
13.4349
59.3658
11.6992
55.9595
81.6497
5.90154
33.2036
73.4431
76.1157
25.4859
3.92097
53.6983
0.388349
10.0149
13.0968
11.2869
7.17555
8.78538
10.2034
25.9394
25.935
6.34052
50.6757
91.8792
32.2034
76.3039
37.2508
104.57
57.1758
91.9077
6.32876
0.250824
4.38043
0.317371
12.018
21.5914
25.7358
17.6509
0.212569
2.98852
5.64401
42.0274
1.47029
46.2567
3.66962
9.60126
13.0716
1.15944
