# vtk DataFile Version 2.0
Unstructured Grid by M++
ASCII
DATASET UNSTRUCTURED_GRID
POINTS 289 float
  0.562500   1.000000 0
  0.562500   0.625000 0
  0.625000   1.000000 0
  0.562500   0.937500 0
  0.562500   0.562500 0
  0.625000   0.937500 0
  0.562500   0.875000 0
  0.625000   0.750000 0
  0.625000   0.625000 0
  0.562500   0.812500 0
  0.562500   0.750000 0
  0.562500   0.687500 0
  0.625000   0.875000 0
  0.625000   0.812500 0
  0.625000   0.687500 0
  0.687500   0.125000 0
  0.875000   0.062500 0
  0.625000   0.125000 0
  0.625000   0.187500 0
  0.625000   0.250000 0
  0.812500   0.187500 0
  1.000000   0.125000 0
  0.687500   0.187500 0
  0.750000   0.125000 0
  0.937500   0.062500 0
  0.937500   0.125000 0
  0.750000   0.187500 0
  0.812500   0.062500 0
  0.812500   0.125000 0
  0.875000   0.687500 0
  0.187500   0.250000 0
  0.437500   0.250000 0
  0.375000   0.187500 0
  0.812500   0.625000 0
  0.125000   0.187500 0
  0.937500   0.750000 0
  0.250000   0.312500 0
  0.500000   0.312500 0
  0.625000   0.062500 0
  0.437500   0.500000 0
  0.375000   0.125000 0
  0.437500   0.187500 0
  0.437500   0.437500 0
  0.437500   0.375000 0
  0.875000   0.875000 0
  0.187500   0.375000 0
  0.687500   0.562500 0
  0.687500   0.625000 0
  0.000000   0.125000 0
  0.937500   0.625000 0
  0.250000   0.125000 0
  0.375000   0.062500 0
  0.375000   0.000000 0
  0.812500   0.500000 0
  0.125000   0.000000 0
  0.937500   0.937500 0
  0.250000   0.437500 0
  0.687500   0.875000 0
  0.687500   0.937500 0
  0.000000   0.437500 0
  0.500000   0.500000 0
  0.500000   0.437500 0
  0.750000   0.937500 0
  0.750000   1.000000 0
  0.062500   0.500000 0
  1.000000   1.000000 0
  0.312500   0.500000 0
  0.875000   0.562500 0
  0.187500   0.062500 0
  0.437500   0.125000 0
  0.437500   0.062500 0
  0.500000   0.375000 0
  0.937500   0.812500 0
  0.937500   0.875000 0
  0.250000   0.375000 0
  0.687500   0.812500 0
  0.000000   0.375000 0
  0.750000   0.562500 0
  0.062500   0.125000 0
  1.000000   0.562500 0
  1.000000   0.625000 0
  0.312500   0.125000 0
  0.562500   0.125000 0
  0.437500   0.000000 0
  0.875000   0.437500 0
  0.875000   0.500000 0
  0.187500   0.000000 0
  0.937500   0.562500 0
  0.937500   0.500000 0
  0.250000   0.062500 0
  0.687500   0.500000 0
  0.000000   0.062500 0
  0.500000   0.062500 0
  1.000000   0.875000 0
  1.000000   0.937500 0
  0.312500   0.437500 0
  0.750000   0.875000 0
  0.062500   0.437500 0
  0.812500   0.937500 0
  0.125000   0.500000 0
  0.375000   0.500000 0
  0.625000   0.562500 0
  0.625000   0.500000 0
  0.437500   0.312500 0
  0.875000   0.812500 0
  0.875000   0.750000 0
  0.187500   0.312500 0
  0.812500   0.687500 0
  0.812500   0.750000 0
  0.125000   0.250000 0
  0.375000   0.250000 0
  1.000000   0.687500 0
  0.312500   0.187500 0
  0.750000   0.687500 0
  0.750000   0.625000 0
  0.062500   0.187500 0
  0.562500   0.250000 0
  0.562500   0.187500 0
  0.375000   1.000000 0
  0.500000   0.562500 0
  0.500000   0.250000 0
  0.750000   0.250000 0
  0.500000   0.125000 0
  0.500000   0.187500 0
  1.000000   0.187500 0
  0.625000   0.375000 0
  0.875000   0.375000 0
  1.000000   0.437500 0
  0.312500   0.000000 0
  0.562500   0.000000 0
  0.812500   0.000000 0
  0.250000   0.687500 0
  0.000000   0.687500 0
  0.500000   1.000000 0
  0.250000   1.000000 0
  0.000000   1.000000 0
  0.437500   0.687500 0
  0.437500   0.625000 0
  0.187500   0.625000 0
  0.687500   0.750000 0
  0.000000   0.312500 0
  0.000000   0.250000 0
  0.375000   0.375000 0
  0.375000   0.312500 0
  0.812500   0.812500 0
  0.125000   0.312500 0
  0.875000   0.625000 0
  0.187500   0.187500 0
  0.187500   0.125000 0
  0.937500   1.000000 0
  0.250000   0.562500 0
  0.250000   0.500000 0
  0.687500   1.000000 0
  0.000000   0.500000 0
  0.687500   0.687500 0
  0.000000   0.187500 0
  0.937500   0.687500 0
  0.250000   0.250000 0
  0.250000   0.187500 0
  0.187500   0.687500 0
  0.000000   0.750000 0
  0.250000   0.750000 0
  0.125000   0.625000 0
  0.750000   0.750000 0
  0.062500   0.250000 0
  0.875000   0.937500 0
  0.187500   0.500000 0
  0.187500   0.437500 0
  0.812500   0.562500 0
  0.125000   0.125000 0
  0.125000   0.062500 0
  0.375000   0.625000 0
  0.375000   0.687500 0
  1.000000   0.750000 0
  0.312500   0.250000 0
  0.312500   0.312500 0
  0.812500   0.312500 0
  0.562500   0.312500 0
  0.375000   0.750000 0
  0.500000   0.625000 0
  0.250000   0.625000 0
  0.312500   0.687500 0
  0.750000   0.812500 0
  0.062500   0.312500 0
  0.062500   0.375000 0
  1.000000   0.812500 0
  0.312500   0.375000 0
  0.562500   0.375000 0
  0.687500   0.437500 0
  0.000000   0.000000 0
  0.500000   0.000000 0
  0.937500   0.437500 0
  0.250000   0.000000 0
  0.375000   0.437500 0
  0.812500   0.875000 0
  0.125000   0.375000 0
  0.125000   0.437500 0
  0.625000   0.437500 0
  1.000000   0.500000 0
  0.312500   0.062500 0
  0.750000   0.500000 0
  0.062500   0.000000 0
  0.062500   0.062500 0
  0.562500   0.062500 0
  0.062500   0.750000 0
  0.312500   0.750000 0
  0.312500   0.625000 0
  0.312500   0.562500 0
  0.062500   0.562500 0
  0.187500   1.000000 0
  0.437500   0.562500 0
  0.875000   1.000000 0
  0.187500   0.562500 0
  0.500000   0.937500 0
  0.250000   0.937500 0
  0.312500   1.000000 0
  0.125000   0.750000 0
  0.125000   0.687500 0
  1.000000   0.000000 0
  0.000000   0.937500 0
  0.000000   0.875000 0
  0.875000   0.125000 0
  0.875000   0.187500 0
  0.062500   0.812500 0
  0.312500   0.812500 0
  0.000000   0.812500 0
  0.000000   0.625000 0
  0.000000   0.562500 0
  0.062500   1.000000 0
  0.062500   0.937500 0
  0.937500   0.187500 0
  0.937500   0.250000 0
  0.062500   0.687500 0
  0.062500   0.625000 0
  0.125000   1.000000 0
  1.000000   0.250000 0
  1.000000   0.312500 0
  0.062500   0.875000 0
  0.125000   0.812500 0
  0.375000   0.812500 0
  0.125000   0.875000 0
  0.375000   0.937500 0
  0.375000   0.875000 0
  0.187500   0.750000 0
  0.187500   0.812500 0
  0.437500   0.812500 0
  0.187500   0.875000 0
  0.437500   0.875000 0
  0.375000   0.562500 0
  0.812500   1.000000 0
  0.125000   0.562500 0
  0.437500   1.000000 0
  0.437500   0.937500 0
  0.187500   0.937500 0
  0.125000   0.937500 0
  0.500000   0.687500 0
  0.500000   0.750000 0
  0.500000   0.812500 0
  0.250000   0.812500 0
  0.250000   0.875000 0
  0.500000   0.875000 0
  0.437500   0.750000 0
  0.312500   0.875000 0
  0.312500   0.937500 0
  0.687500   0.250000 0
  0.687500   0.312500 0
  0.937500   0.312500 0
  0.875000   0.250000 0
  0.625000   0.000000 0
  0.875000   0.000000 0
  0.687500   0.375000 0
  0.937500   0.375000 0
  0.875000   0.312500 0
  0.625000   0.312500 0
  0.687500   0.000000 0
  0.937500   0.000000 0
  0.750000   0.312500 0
  0.750000   0.375000 0
  1.000000   0.375000 0
  0.812500   0.250000 0
  0.562500   0.437500 0
  0.562500   0.500000 0
  0.687500   0.062500 0
  0.750000   0.437500 0
  0.750000   0.000000 0
  0.750000   0.062500 0
  1.000000   0.062500 0
  0.812500   0.375000 0
  0.812500   0.437500 0
CELLS 256 1280
4 169 170 148 68
4 151 166 56 167
4 195 45 196 167
4 54 170 201 202
4 109 34 30 147
4 40 32 81 112
4 192 89 86 68
4 48 91 78 202
4 99 64 196 97
4 71 43 37 103
4 74 186 56 95
4 109 164 34 115
4 50 81 158 112
4 122 69 92 70
4 195 145 45 106
4 110 143 174 175
4 157 30 158 147
4 40 69 32 41
4 50 158 148 147
4 141 155 164 115
4 122 123 69 41
4 142 186 143 175
4 60 39 61 42
4 40 51 69 70
4 120 31 123 41
4 157 174 36 175
4 50 148 89 68
4 48 78 155 115
4 52 83 51 70
4 151 56 66 95
4 71 61 43 42
4 169 148 34 147
4 100 193 39 42
4 40 81 51 199
4 110 174 32 112
4 109 30 145 106
4 100 66 193 95
4 169 34 78 115
4 190 92 83 70
4 50 89 81 199
4 54 86 170 68
4 74 56 45 167
4 142 143 43 103
4 153 59 64 97
4 99 196 166 167
4 169 78 170 202
4 142 193 186 95
4 192 128 89 199
4 74 45 36 106
4 110 31 143 103
4 76 184 59 97
4 142 43 193 42
4 52 51 128 199
4 189 201 91 202
4 120 37 31 103
4 74 36 186 175
4 195 196 184 97
4 141 164 140 183
4 157 158 174 112
4 109 145 164 183
4 195 184 145 183
4 110 32 31 41
4 157 36 30 106
4 76 140 184 183
4 171 172 206 181
4 178 172 261 136
4 256 261 255 136
4 256 257 261 245
4 180 150 206 207
4 60 119 39 210
4 118 215 241 263
4 178 205 172 181
4 216 243 238 244
4 162 217 233 232
4 180 206 131 181
4 179 137 119 210
4 216 204 217 232
4 220 237 219 229
4 216 217 243 159
4 259 258 262 224
4 240 254 237 229
4 153 64 227 208
4 161 205 258 224
4 240 237 238 223
4 226 227 233 208
4 234 228 254 229
4 171 248 137 210
4 160 132 204 232
4 180 131 138 159
4 133 251 213 252
4 171 206 248 207
4 162 138 217 159
4 161 258 243 244
4 220 225 237 223
4 151 150 166 212
4 260 247 257 245
4 259 262 214 263
4 151 66 150 207
4 234 254 209 253
4 162 233 250 208
4 242 241 262 263
4 171 137 172 136
4 161 243 131 159
4 160 204 225 223
4 161 131 205 181
4 179 255 137 136
4 216 238 204 223
4 100 39 248 210
4 260 213 247 252
4 226 233 132 232
4 134 214 215 263
4 180 138 150 212
4 178 261 239 245
4 259 246 258 244
4 178 239 205 224
4 240 238 246 244
4 242 262 239 224
4 99 250 64 208
4 240 246 254 253
4 242 239 247 245
4 135 219 228 229
4 99 166 250 212
4 259 214 246 253
4 118 241 251 252
4 100 248 66 207
4 134 209 214 253
4 162 250 138 212
4 242 247 241 252
4 71 187 61 280
4 102 281 197 280
4 122 92 82 203
4 17 18 82 117
4 122 82 123 117
4 19 264 273 265
4 267 279 222 20
4 125 273 270 265
4 267 272 279 176
4 19 116 18 117
4 21 25 286 24
4 23 28 26 20
4 23 285 28 27
4 218 286 275 24
4 85 53 84 288
4 235 236 231 266
4 221 222 28 20
4 267 222 231 230
4 268 38 129 203
4 125 270 197 188
4 126 287 272 176
4 277 270 276 265
4 267 231 272 266
4 125 197 187 280
4 190 129 92 203
4 277 276 287 176
4 19 18 264 22
4 17 82 38 203
4 102 197 90 188
4 126 84 287 288
4 284 130 285 27
4 121 276 264 265
4 71 37 187 177
4 120 123 116 117
4 198 88 127 191
4 221 16 25 24
4 23 26 15 22
4 121 279 276 176
4 235 231 124 230
4 125 187 273 177
4 278 271 236 266
4 277 287 283 288
4 284 285 274 282
4 278 127 271 191
4 269 275 16 24
4 200 283 53 288
4 23 15 285 282
4 121 26 279 20
4 21 124 25 230
4 19 273 116 177
4 200 90 283 188
4 126 271 84 191
4 269 16 130 27
4 17 38 15 282
4 221 25 222 230
4 121 264 26 22
4 120 116 37 177
4 60 61 281 280
4 277 283 270 188
4 126 272 271 266
4 268 274 38 282
4 85 84 88 191
4 17 15 18 22
4 221 28 16 27
4 93 94 73 55
4 85 88 67 87
4 80 49 79 87
4 44 104 73 72
4 146 33 67 168
4 211 165 149 55
4 8 47 14 154
4 105 104 108 144
4 105 108 29 107
4 7 139 13 75
4 44 165 194 98
4 200 53 77 168
4 8 1 101 4
4 2 5 152 58
4 260 6 213 3
4 105 35 104 72
4 96 57 182 75
4 7 14 139 154
4 146 29 33 107
4 7 13 10 9
4 12 13 57 75
4 85 67 53 168
4 44 73 165 55
4 63 152 62 58
4 8 101 47 46
4 96 182 194 144
4 60 281 119 4
4 12 5 6 3
4 173 185 35 72
4 65 149 94 55
4 146 67 49 87
4 114 113 47 154
4 163 108 182 144
4 12 6 13 9
4 173 35 111 156
4 163 182 139 75
4 260 257 6 9
4 105 29 35 156
4 163 139 113 154
4 256 10 257 9
4 146 49 29 156
4 163 113 108 107
4 80 111 49 156
4 102 101 281 4
4 12 57 5 58
4 44 194 104 144
4 96 194 62 98
4 2 0 5 3
4 93 73 185 72
4 179 119 1 4
4 200 77 90 46
4 114 33 113 107
4 7 10 14 11
4 96 62 57 58
4 133 213 0 3
4 102 90 101 46
4 256 255 10 11
4 63 62 249 98
4 114 47 77 46
4 179 1 255 11
4 211 249 165 98
4 114 77 33 168
4 198 79 88 87
4 8 14 1 11
CELL_TYPES 256
8
8
8
8
8
8
8
8
8
8
8
8
8
8
8
8
8
8
8
8
8
8
8
8
8
8
8
8
8
8
8
8
8
8
8
8
8
8
8
8
8
8
8
8
8
8
8
8
8
8
8
8
8
8
8
8
8
8
8
8
8
8
8
8
8
8
8
8
8
8
8
8
8
8
8
8
8
8
8
8
8
8
8
8
8
8
8
8
8
8
8
8
8
8
8
8
8
8
8
8
8
8
8
8
8
8
8
8
8
8
8
8
8
8
8
8
8
8
8
8
8
8
8
8
8
8
8
8
8
8
8
8
8
8
8
8
8
8
8
8
8
8
8
8
8
8
8
8
8
8
8
8
8
8
8
8
8
8
8
8
8
8
8
8
8
8
8
8
8
8
8
8
8
8
8
8
8
8
8
8
8
8
8
8
8
8
8
8
8
8
8
8
8
8
8
8
8
8
8
8
8
8
8
8
8
8
8
8
8
8
8
8
8
8
8
8
8
8
8
8
8
8
8
8
8
8
8
8
8
8
8
8
8
8
8
8
8
8
8
8
8
8
8
8
8
8
8
8
8
8
8
8
8
8
8
8
CELL_DATA 256
SCALARS scalar_value float 1
LOOKUP_TABLE default
5.06278
93.5602
141.946
3.731
21.6201
4.73728
2.38747
60.9016
37.3673
10.0913
32.7228
35.5867
3.04197
72.684
103.851
17.4537
29.9613
5.93563
6.17771
159.067
26.9691
9.69849
13.7228
10.2574
20.3852
16.4136
2.62245
212.943
42.6927
36.4914
15.9389
6.65022
13.4586
4.67769
12.2967
115.566
10.8797
13.729
99.9203
2.08137
2.28413
77.6386
12.09
7.70984
108.37
8.6918
12.9535
5.96208
141.063
10.9242
17.3219
14.5576
13.1821
13.3009
18.9482
22.5558
45.3986
70.6643
14.5829
105.991
54.098
11.6775
64.6996
18.8022
13.9499
2.28262
2.28636
10.4507
151.182
8.99988
8.74428
5.02643
6.11005
8.51669
132.619
2.15411
7.59758
0.690728
40.6031
7.67793
0.741685
6.16701
13.1339
1.11808
6.56527
0.719505
5.36688
3.27112
457.494
100.989
15.9195
50.6909
32.8086
2.19676
200.312
65.502
4.23467
54.1546
0.310257
14.9515
9.2486
3.77016
141.478
5.01833
39.6291
2.8569
4.92451
9.59699
147.845
2.03507
3.83547
434.14
4.21006
14.7175
6.44331
1.95808
7.2875
30.3007
0.554093
32.6126
0.945505
99.8286
2.83668
26.212
8.13773
0.472035
117.561
56.906
17.7904
8.60686
91.6484
83.6559
38.5465
84.4146
15.2766
72.6219
19.315
38.0996
1.3264
55.9977
19.5923
0.876689
128.892
1.38986
13.9921
3.91338
54.2238
32.9722
57.6629
251.274
6.8259
21.6332
81.1997
141.56
47.4786
65.9221
7.39919
86.8692
4.19877
121.618
12.4385
23.852
31.0383
3.19653
70.6996
84.3236
0.76692
16.7449
3.11268
55.4293
5.67191
4.9865
2.16984
49.618
13.7381
78.3911
1.39694
15.5808
24.6268
29.5574
4.52832
37.9894
5.4484
111.084
19.602
8.81821
82.7804
29.9086
22.515
112.757
56.9091
6.30697
1.98609
348.65
112.907
0.575488
80.3817
8.44448
6.21646
0.461971
1.42241
7.97621
2.92672
133.483
4.81719
49.7362
480.882
0.33278
4.50288
4.05737
7.31072
19.9877
16.957
248.259
3.56566
8.86331
8.7719
1.45525
4.77894
268.41
1.17118
4.05293
75.8795
15.5838
0.890686
93.555
1.01607
2.23216
112.514
0.439776
3.66688
11.9976
3.84055
2.09338
6.85034
6.21452
48.3659
0.641255
3.70088
232.191
0.832873
1.70554
36.7178
11.924
6.94431
11.9909
269.676
8.94442
3.19786
7.81533
27.7079
2.085
5.92132
41.7446
258.394
6.41998
