# vtk DataFile Version 2.0
Unstructured Grid by M++
ASCII
DATASET UNSTRUCTURED_GRID
POINTS 1089 float
  0.718750   0.687500 0
  0.750000   0.687500 0
  0.718750   0.656250 0
  0.750000   0.718750 0
  0.625000   0.562500 0
  0.625000   0.593750 0
  0.656250   0.593750 0
  0.750000   0.750000 0
  0.687500   0.656250 0
  0.687500   0.625000 0
  0.656250   0.625000 0
  0.906250   0.593750 0
  1.000000   0.968750 0
  0.750000   0.968750 0
  0.718750   0.968750 0
  0.718750   1.000000 0
  0.750000   1.000000 0
  0.906250   0.906250 0
  0.843750   0.531250 0
  0.656250   0.937500 0
  0.656250   0.906250 0
  0.562500   0.812500 0
  0.562500   0.843750 0
  0.593750   0.875000 0
  0.593750   0.843750 0
  0.812500   0.718750 0
  0.625000   0.625000 0
  0.968750   0.875000 0
  0.531250   0.875000 0
  0.625000   0.937500 0
  0.562500   0.562500 0
  0.906250   0.812500 0
  0.531250   0.781250 0
  0.562500   0.593750 0
  0.906250   0.843750 0
  0.625000   0.656250 0
  0.968750   0.906250 0
  0.687500   0.968750 0
  0.812500   0.812500 0
  0.687500   1.000000 0
  0.687500   0.687500 0
  0.937500   0.843750 0
  0.593750   0.593750 0
  1.000000   0.625000 0
  0.968750   0.593750 0
  0.906250   0.875000 0
  0.968750   0.625000 0
  0.625000   0.875000 0
  0.875000   0.875000 0
  0.625000   0.906250 0
  0.875000   0.843750 0
  0.531250   0.812500 0
  0.968750   0.562500 0
  0.593750   0.625000 0
  0.937500   0.875000 0
  0.656250   0.687500 0
  1.000000   0.937500 0
  0.875000   0.562500 0
  0.687500   0.937500 0
  0.937500   0.625000 0
  0.812500   0.781250 0
  0.937500   0.562500 0
  0.875000   0.781250 0
  0.531250   0.531250 0
  0.718750   0.937500 0
  0.968750   0.937500 0
  0.906250   0.562500 0
  0.843750   0.781250 0
  0.593750   0.562500 0
  1.000000   0.906250 0
  0.656250   0.656250 0
  0.937500   0.906250 0
  0.875000   0.531250 0
  0.812500   0.750000 0
  0.656250   0.968750 0
  0.937500   0.531250 0
  0.843750   0.812500 0
  0.906250   0.531250 0
  0.843750   0.750000 0
  0.937500   0.593750 0
  0.875000   0.812500 0
  0.531250   0.562500 0
  1.000000   0.593750 0
  0.562500   0.906250 0
  0.562500   0.531250 0
  0.593750   0.906250 0
  0.593750   0.937500 0
  0.562500   0.875000 0
  0.781250   0.750000 0
  0.781250   0.781250 0
  0.593750   0.531250 0
  1.000000   0.687500 0
  0.531250   0.843750 0
  0.718750   0.718750 0
  0.781250   0.718750 0
  0.781250   0.687500 0
  1.000000   0.656250 0
  0.968750   0.656250 0
  0.843750   0.843750 0
  0.781250   1.000000 0
  0.656250   0.312500 0
  0.531250   0.250000 0
  0.875000   0.500000 0
  0.531250   0.218750 0
  0.875000   0.468750 0
  0.531250   0.156250 0
  0.593750   0.812500 0
  0.093750   0.562500 0
  0.656250   0.562500 0
  0.156250   0.312500 0
  0.031250   0.812500 0
  0.125000   1.000000 0
  0.312500   0.250000 0
  0.250000   0.500000 0
  0.375000   0.000000 0
  0.187500   0.750000 0
  0.812500   0.906250 0
  0.312500   0.656250 0
  0.250000   0.906250 0
  0.875000   0.656250 0
  0.375000   0.406250 0
  0.750000   0.843750 0
  0.250000   0.593750 0
  0.187500   0.843750 0
  0.812500   0.593750 0
  0.312500   0.343750 0
  0.625000   0.968750 0
  0.125000   0.718750 0
  0.687500   0.718750 0
  0.187500   0.468750 0
  0.062500   0.968750 0
  0.125000   0.656250 0
  0.187500   0.406250 0
  0.250000   0.156250 0
  0.062500   0.906250 0
  0.468750   0.906250 0
  0.656250   0.156250 0
  0.468750   0.812500 0
  0.593750   0.312500 0
  0.656250   0.062500 0
  0.625000   0.812500 0
  0.125000   0.562500 0
  0.687500   0.562500 0
  0.187500   0.312500 0
  0.062500   0.812500 0
  0.562500   0.937500 0
  0.062500   0.687500 0
  0.625000   0.687500 0
  0.125000   0.437500 0
  0.000000   0.937500 0
  0.062500   0.625000 0
  0.187500   0.125000 0
  0.125000   0.375000 0
  0.000000   0.875000 0
  0.406250   0.875000 0
  0.468750   0.625000 0
  0.593750   0.125000 0
  0.812500   0.937500 0
  0.312500   0.687500 0
  0.250000   0.937500 0
  0.875000   0.687500 0
  0.375000   0.437500 0
  0.750000   0.875000 0
  0.250000   0.625000 0
  0.187500   0.875000 0
  0.812500   0.625000 0
  0.312500   0.375000 0
  0.468750   0.781250 0
  0.593750   0.281250 0
  0.656250   0.031250 0
  0.625000   0.781250 0
  0.125000   0.531250 0
  0.062500   0.781250 0
  0.687500   0.531250 0
  0.187500   0.281250 0
  0.500000   0.812500 0
  0.687500   0.062500 0
  0.625000   0.312500 0
  0.656250   0.812500 0
  0.156250   0.562500 0
  0.718750   0.562500 0
  0.218750   0.312500 0
  0.093750   0.812500 0
  0.437500   0.968750 0
  0.625000   0.218750 0
  0.500000   0.781250 0
  0.687500   0.031250 0
  0.625000   0.281250 0
  0.656250   0.781250 0
  0.156250   0.531250 0
  0.718750   0.531250 0
  0.218750   0.281250 0
  0.093750   0.781250 0
  0.062500   0.562500 0
  0.125000   0.312500 0
  0.187500   0.062500 0
  0.000000   0.812500 0
  0.406250   0.812500 0
  0.968750   0.812500 0
  0.468750   0.562500 0
  0.593750   0.062500 0
  0.218750   0.687500 0
  0.156250   0.937500 0
  0.281250   0.437500 0
  0.062500   0.843750 0
  0.687500   0.593750 0
  0.187500   0.343750 0
  0.625000   0.843750 0
  0.125000   0.593750 0
  0.312500   0.843750 0
  0.437500   0.343750 0
  0.500000   0.093750 0
  0.375000   0.593750 0
  0.312500   0.906250 0
  0.937500   0.656250 0
  0.437500   0.406250 0
  0.875000   0.906250 0
  0.375000   0.656250 0
  0.062500   0.875000 0
  0.187500   0.375000 0
  0.250000   0.125000 0
  0.125000   0.625000 0
  0.093750   0.656250 0
  0.031250   0.906250 0
  0.218750   0.156250 0
  0.156250   0.406250 0
  0.593750   0.968750 0
  0.093750   0.718750 0
  0.031250   0.968750 0
  0.656250   0.718750 0
  0.156250   0.468750 0
  0.437500   0.906250 0
  0.625000   0.156250 0
  0.718750   0.812500 0
  0.218750   0.562500 0
  0.781250   0.562500 0
  0.281250   0.312500 0
  0.156250   0.812500 0
  0.062500   0.656250 0
  0.000000   0.906250 0
  0.187500   0.156250 0
  0.125000   0.406250 0
  0.562500   0.968750 0
  0.062500   0.718750 0
  0.000000   0.968750 0
  0.625000   0.718750 0
  0.125000   0.468750 0
  0.406250   0.968750 0
  0.968750   0.968750 0
  0.468750   0.718750 0
  0.531250   0.468750 0
  0.593750   0.218750 0
  0.406250   0.906250 0
  0.468750   0.656250 0
  0.593750   0.156250 0
  0.687500   0.781250 0
  0.187500   0.531250 0
  0.750000   0.531250 0
  0.250000   0.281250 0
  0.125000   0.781250 0
  0.781250   0.906250 0
  0.281250   0.656250 0
  0.218750   0.906250 0
  0.843750   0.656250 0
  0.343750   0.406250 0
  0.750000   0.906250 0
  0.250000   0.656250 0
  0.187500   0.906250 0
  0.812500   0.656250 0
  0.312500   0.406250 0
  0.875000   0.406250 0
  0.375000   0.156250 0
  0.812500   0.968750 0
  0.312500   0.718750 0
  0.250000   0.968750 0
  0.875000   0.718750 0
  0.375000   0.468750 0
  0.781250   0.937500 0
  0.281250   0.687500 0
  0.218750   0.937500 0
  0.843750   0.687500 0
  0.343750   0.437500 0
  0.718750   0.875000 0
  0.218750   0.625000 0
  0.156250   0.875000 0
  0.781250   0.625000 0
  0.281250   0.375000 0
  0.750000   0.937500 0
  0.250000   0.687500 0
  0.187500   0.937500 0
  0.875000   0.437500 0
  0.375000   0.187500 0
  0.812500   0.687500 0
  0.312500   0.437500 0
  0.687500   0.875000 0
  0.187500   0.625000 0
  0.750000   0.625000 0
  0.250000   0.375000 0
  0.125000   0.875000 0
  0.812500   1.000000 0
  0.312500   0.750000 0
  0.250000   1.000000 0
  0.875000   0.750000 0
  0.375000   0.500000 0
  0.562500   1.000000 0
  0.062500   0.750000 0
  0.000000   1.000000 0
  0.625000   0.750000 0
  0.125000   0.500000 0
  0.406250   1.000000 0
  0.968750   1.000000 0
  0.468750   0.750000 0
  0.656250   0.000000 0
  0.531250   0.500000 0
  0.593750   0.250000 0
  0.406250   0.937500 0
  0.468750   0.687500 0
  0.593750   0.187500 0
  0.687500   0.812500 0
  0.187500   0.562500 0
  0.750000   0.562500 0
  0.250000   0.312500 0
  0.125000   0.812500 0
  0.437500   0.843750 0
  0.625000   0.093750 0
  0.093750   0.593750 0
  0.156250   0.343750 0
  0.218750   0.093750 0
  0.031250   0.843750 0
  0.281250   0.937500 0
  0.843750   0.937500 0
  0.343750   0.687500 0
  0.906250   0.687500 0
  0.406250   0.437500 0
  0.156250   0.968750 0
  0.218750   0.718750 0
  0.281250   0.468750 0
  0.343750   0.218750 0
  0.156250   1.000000 0
  0.406250   0.000000 0
  0.281250   0.500000 0
  0.343750   0.250000 0
  0.218750   0.750000 0
  0.187500   0.968750 0
  0.250000   0.718750 0
  0.375000   0.218750 0
  0.312500   0.468750 0
  0.187500   1.000000 0
  0.312500   0.500000 0
  0.375000   0.250000 0
  0.437500   0.000000 0
  0.250000   0.750000 0
  0.031250   0.781250 0
  0.656250   0.531250 0
  0.156250   0.281250 0
  0.593750   0.781250 0
  0.093750   0.531250 0
  0.000000   0.781250 0
  0.625000   0.531250 0
  0.125000   0.281250 0
  0.562500   0.781250 0
  0.062500   0.531250 0
  0.781250   0.968750 0
  0.281250   0.718750 0
  0.218750   0.968750 0
  0.843750   0.718750 0
  0.343750   0.468750 0
  0.281250   0.968750 0
  0.843750   0.968750 0
  0.343750   0.718750 0
  0.906250   0.718750 0
  0.406250   0.468750 0
  0.281250   1.000000 0
  0.906250   0.750000 0
  0.406250   0.500000 0
  0.843750   1.000000 0
  0.343750   0.750000 0
  0.531250   0.000000 0
  0.718750   0.843750 0
  0.218750   0.593750 0
  0.156250   0.843750 0
  0.781250   0.593750 0
  0.281250   0.343750 0
  0.687500   0.843750 0
  0.187500   0.593750 0
  0.750000   0.593750 0
  0.250000   0.343750 0
  0.125000   0.843750 0
  0.218750   0.875000 0
  0.843750   0.625000 0
  0.343750   0.375000 0
  0.781250   0.875000 0
  0.281250   0.625000 0
  0.156250   0.906250 0
  0.781250   0.656250 0
  0.281250   0.406250 0
  0.718750   0.906250 0
  0.218750   0.656250 0
  0.031250   1.000000 0
  0.656250   0.750000 0
  0.156250   0.500000 0
  0.593750   1.000000 0
  0.093750   0.750000 0
  0.218750   1.000000 0
  0.343750   0.500000 0
  0.468750   0.000000 0
  0.406250   0.250000 0
  0.281250   0.750000 0
  0.593750   0.406250 0
  0.093750   0.156250 0
  0.531250   0.656250 0
  0.031250   0.406250 0
[...]
CELL_DATA 1024
SCALARS scalar_value float 1
LOOKUP_TABLE default
10.1113
20.5731
10.2688
1.55907
0.98915
1.01568
8.65775
3.46598
4.81348
11.18
6.32264
1.28462
1.01125
3.22558
1.90628
0.854341
1.27156
0.524598
5.59434
2.57538
4.9705
1.54403
6.77555
2.45114
6.85431
5.8559
9.07118
10.0566
2.02297
10.2213
6.3096
4.19149
3.42905
5.73076
0.413348
0.678406
2.35527
2.2846
0.803385
0.9974
4.6337
2.17455
1.49269
2.67876
1.49095
0.358133
1.38423
1.54915
0.346937
1.35271
1.23545
4.49635
0.880336
1.13008
1.14006
0.889365
1.49075
1.04096
5.00433
2.18567
13.4745
27.5547
5.27194
5.57285
17.536
2.2248
2.19645
12.1136
2.01961
0.217571
0.78098
0.6971
9.30851
1.71495
5.69721
2.9215
1.6869
12.855
2.32938
3.77567
1.31904
12.6283
3.67929
2.38989
3.63859
4.73572
5.23769
1.53764
25.0014
1.16905
1.12199
20.5049
2.45056
3.52228
6.50713
1.56953
2.29796
1.6482
3.82568
1.45177
1.15612
32.0809
8.38185
1.75853
9.22989
4.08752
1.59941
0.919948
0.553139
5.21414
1.78671
4.64234
0.60526
1.78441
2.32174
11.4264
2.9181
2.34365
4.4637
26.816
0.908361
0.441873
0.425349
1.28222
1.52505
9.70131
13.2107
15.4066
2.17682
6.23029
8.74285
1.07749
7.98971
87.6597
1.80057
5.19311
1.73546
2.59376
3.80818
3.41867
6.441
4.67398
0.625409
2.20208
24.0417
1.47285
4.53351
4.31048
61.637
1.68375
4.45787
27.7242
10.9519
14.2843
4.11583
1.36049
0.334635
1.69103
5.6373
53.3972
1.16254
1.66498
3.34308
3.17912
2.46034
3.35604
0.288093
1.60981
12.1958
4.46592
0.730293
1.92483
3.90747
3.79039
6.48626
4.58085
5.248
6.52069
9.3638
2.13126
3.48206
1.9313
51.2105
1.66767
2.89944
93.2153
1.79587
2.21306
58.4184
2.80465
1.8892
1.06507
15.243
8.32728
2.034
0.282979
2.41445
1.34775
13.536
8.27448
1.12134
13.7956
6.45789
1.74403
2.94308
0.742559
1.2487
2.94251
0.887216
0.531407
2.44089
8.57368
1.99983
1.33219
2.74768
1.75871
1.52795
4.17951
0.939457
2.12255
1.80957
2.83443
29.0568
5.80151
2.02472
6.76959
16.334
3.99241
2.43986
10.2762
11.0652
30.1726
1.82798
21.3594
20.7372
4.23875
2.79251
17.1033
4.3463
48.2513
3.03098
3.35311
5.02155
2.30278
7.02568
16.0036
1.20197
2.89158
0.463278
2.90287
2.66301
3.48009
33.4886
14.6271
8.57
16.1621
0.374908
0.297565
0.482919
0.436007
0.621194
0.634033
1.8644
1.50843
1.25708
0.474867
0.504081
0.370015
0.437105
0.446377
0.75356
0.534605
0.450347
0.75663
0.912885
0.268628
0.641862
0.558558
0.597586
0.789809
0.362068
0.276027
0.150887
0.265001
0.930308
0.900203
3.27898
2.49526
2.39803
1.27817
2.62717
0.803339
2.3698
1.02292
0.834094
3.93522
0.69909
4.01026
3.45766
4.5364
1.28447
0.429557
3.74369
3.45504
1.06658
3.25024
1.05413
7.11038
0.116552
0.537748
2.21423
3.63607
10.9494
0.447373
0.067749
0.740341
3.73002
2.76887
0.527122
1.8893
4.32478
1.08082
6.86156
1.53886
0.110727
0.802216
1.58268
7.73402
2.62508
3.98225
3.05486
1.87991
2.68087
1.62032
1.73135
5.55833
0.347344
0.530612
0.234436
0.0374489
0.15284
0.236164
0.510985
0.197671
0.0606625
0.431792
0.418309
0.500741
0.0531557
0.218691
0.0931851
1.36131
0.44493
2.03187
0.770091
1.32427
1.22421
4.0363
3.35052
1.96475
0.37167
0.442367
0.482919
0.0852687
0.113041
0.945475
0.155276
0.0480009
0.401667
0.607472
0.61465
0.537536
0.135027
0.0447069
2.0028
3.15149
5.50716
2.13484
0.508536
0.85392
1.33842
0.115021
0.246168
0.445903
0.160608
1.40914
0.188731
0.361637
0.361942
0.491072
1.62304
12.0611
1.35346
0.366232
0.0524172
0.88802
0.0811726
0.219591
0.186541
2.38185
5.4749
2.06243
0.108703
0.589747
0.309588
3.43341
2.34555
1.6502
3.12728
0.187101
1.0984
1.27094
0.773321
0.150883
1.14852
0.621242
0.197884
1.61821
1.26616
0.604111
3.45854
0.467613
0.328157
0.175132
0.422379
0.27802
0.855058
2.56172
2.87759
2.86167
0.354106
1.92966
3.33401
0.0554342
0.207857
1.91845
2.1263
0.539264
2.39431
0.371314
0.675771
3.85181
0.24427
0.183704
2.36359
0.389764
0.805063
0.135658
0.0337432
0.527953
0.364012
0.110641
0.0450725
0.458143
0.114059
0.0381824
0.7239
0.385933
0.126399
0.0297403
0.539216
0.533455
0.420598
0.545353
0.462942
0.616466
0.454721
0.391861
0.0639355
0.217254
0.242611
1.21086
1.06418
0.162922
0.408039
0.417762
2.59601
1.57118
1.0569
0.517759
0.990357
0.668888
0.291526
0.33792
0.303804
0.808137
1.58741
0.199521
0.859414
1.15536
1.76143
2.2852
1.37724
0.135136
0.0626284
0.233143
0.15586
0.164601
0.295295
0.155536
0.176453
0.210251
0.0838618
0.06223
0.103501
0.187605
0.347018
0.421473
0.492913
0.597097
0.638312
0.374481
0.910413
0.276634
0.422138
1.69682
1.71054
1.34391
2.1338
0.965916
3.40523
6.18495
8.65327
1.04539
4.65133
3.51646
1.08351
0.469172
0.804762
1.14026
0.427112
0.626677
0.920972
1.01415
0.773873
0.79476
1.02077
2.34088
4.30259
13.5634
7.64473
11.0852
9.29197
0.292623
0.69159
7.46673
1.03544
10.5801
4.67942
0.71162
8.18665
6.59047
4.95776
5.2748
4.78602
2.33988
0.315654
0.273145
0.405268
1.23388
2.00226
0.630299
0.588079
10.7146
0.830263
1.49802
16.8566
1.36015
1.46629
0.289737
0.609665
4.78531
10.7631
1.37627
0.576904
0.890241
1.5683
11.859
0.627635
14.4168
0.261199
0.779041
0.601566
0.854787
3.07906
13.9507
1.01526
0.574256
1.33361
2.43504
2.5811
13.0948
0.928911
6.02636
0.685314
0.420168
0.490283
0.356407
13.6163
0.801425
2.54046
0.619609
0.970023
2.01095
1.42594
1.90909
1.01119
1.51432
8.47496
0.737571
1.84922
4.15219
0.811753
0.354026
1.40971
1.13405
0.708305
2.383
0.843458
0.702806
1.79649
0.933922
0.595185
2.24644
1.23221
1.05479
0.841343
0.449665
0.52415
0.712577
0.864121
0.449536
1.87371
0.756279
1.21114
1.13445
0.957237
7.09283
2.57461
0.900276
1.53805
1.25589
1.16608
0.703449
1.71233
0.922708
2.42136
8.5186
1.16292
5.35869
1.30004
0.830679
0.910559
0.53311
1.13233
0.457909
1.35429
0.585961
1.09157
0.656974
1.13178
0.382934
11.0412
0.7471
12.7742
1.20712
0.603747
1.56523
0.710337
0.896203
0.402186
0.890826
0.463721
1.6607
0.944635
11.3047
7.47289
15.4201
1.30895
0.569162
0.946234
0.874884
0.91826
0.96581
1.02773
0.944466
1.03938
1.84098
2.14562
0.849957
1.11923
0.672315
0.873099
2.33282
0.641503
0.787421
1.11116
2.47125
1.00409
0.834278
0.911593
2.74671
2.11193
1.6209
0.645819
2.72206
3.88926
1.60204
2.60592
0.94345
2.28573
0.96385
0.472404
3.89194
0.385113
0.849266
1.16366
0.596315
0.980314
1.15535
1.02945
1.09772
0.456502
0.510251
0.688456
1.34153
1.3284
1.09156
1.0907
1.72428
0.788279
0.620542
0.605369
0.407798
1.69355
0.825644
0.620153
3.2466
0.676821
0.765002
1.21481
1.27793
0.433808
0.338494
0.450684
0.612617
0.279623
0.54967
0.69498
0.506827
0.446227
2.95538
0.316302
2.4065
1.34359
0.521843
1.88848
0.522668
1.56717
1.30989
2.43814
1.89559
1.35478
3.78838
1.39406
0.476737
1.0538
2.70542
0.986673
31.9101
17.1403
35.8998
34.7332
6.71239
5.65606
62.7545
12.1994
8.2382
9.46283
26.3072
0.722826
0.424537
0.283023
0.620071
30.736
34.8384
37.3888
19.6928
3.08796
4.41928
1.09631
7.12697
1.18437
7.89594
2.76021
4.96239
5.10626
0.619461
5.86319
0.717614
6.45558
0.713385
0.994153
3.95272
4.47666
10.5181
1.29995
7.53309
1.4101
5.59178
5.94633
1.52339
10.2865
1.40971
2.299
1.68175
1.62231
0.772378
0.594976
0.439031
32.2057
2.13478
2.70798
41.6779
20.4912
3.53106
4.11575
41.3959
27.974
4.74636
1.03906
5.11215
0.90404
3.96997
3.46452
1.346
0.150721
0.907228
0.896587
12.8935
5.96302
6.07656
0.850098
1.79172
0.180057
1.49958
1.74563
5.13836
5.80196
1.54841
0.0595608
7.1254
3.68393
0.78673
0.0655795
5.67411
1.5055
4.75532
0.694761
14.2201
22.4437
1.8804
14.2575
1.45888
8.05928
0.945862
1.27096
2.82961
19.4701
1.93924
12.697
1.36875
8.26527
1.2445
1.657
3.59543
7.88792
27.8049
9.29026
2.70393
0.654771
6.38365
1.08325
57.4898
11.0834
2.96216
16.0128
2.83339
1.03664
6.5956
1.82092
2.90287
8.64201
14.7077
8.26254
23.8513
1.3838
5.83289
0.0908391
8.08849
0.574128
6.29798
3.66134
3.16821
28.006
23.6366
5.92134
0.243494
3.87301
1.71209
11.1949
2.19966
26.0189
13.3702
29.5424
7.9511
7.9175
12.2711
12.53
22.5885
6.59076
1.35673
0.801339
7.65612
0.393663
1.4919
6.13619
7.50729
33.424
1.98743
2.02273
5.83626
18.5075
22.4552
12.7275
2.48368
5.68819
0.0326347
5.29219
0.0600732
3.48768
5.97163
0.0510338
20.1791
11.1584
93.4107
13.5196
14.6895
5.54409
100.339
7.27751
3.7135
4.51296
1.23188
43.6441
10.2586
18.3958
20.3396
5.71205
21.6692
47.0119
7.71915
6.73327
13.1014
4.65952
0.450351
0.129076
9.99657
5.72757
0.528393
3.15753
0.225655
7.86228
3.13625
0.201274
0.0683093
0.314067
0.346082
0.252075
0.122344
4.70314
0.348103
0.236777
2.384
0.249365
0.391989
76.6801
10.6799
8.10647
70.788
6.62187
37.8728
5.90465
45.1775
16.2188
9.46626
0.13846
0.316999
20.9668
17.8818
25.0875
14.3877
35.1707
15.3632
26.561
12.4815
5.99222
5.95516
49.5991
8.48429
1.6519
1.38723
0.796617
0.953415
3.35603
35.2477
13.0504
3.78425
1.44045
2.63338
1.42142
13.1272
3.09426
1.28865
