# vtk DataFile Version 2.0
Unstructured Grid by M++
ASCII
DATASET UNSTRUCTURED_GRID
POINTS 81 float
  1.000000   0.625000 0
  0.750000   0.375000 0
  1.000000   0.000000 0
  0.875000   0.875000 0
  0.750000   0.125000 0
  1.000000   1.000000 0
  0.875000   0.250000 0
  0.625000   0.875000 0
  1.000000   0.750000 0
  0.875000   0.000000 0
  1.000000   0.250000 0
  0.625000   0.375000 0
  0.875000   0.500000 0
  0.625000   0.625000 0
  1.000000   0.500000 0
  0.750000   0.500000 0
  0.750000   1.000000 0
  1.000000   0.125000 0
  0.625000   0.250000 0
  0.750000   0.750000 0
  0.625000   0.000000 0
  0.125000   0.375000 0
  0.000000   0.500000 0
  0.125000   0.625000 0
  0.625000   1.000000 0
  1.000000   0.875000 0
  0.875000   0.125000 0
  0.500000   0.250000 0
  0.625000   0.500000 0
  0.250000   0.625000 0
  0.000000   0.625000 0
  0.375000   0.500000 0
  0.375000   0.000000 0
  0.000000   0.125000 0
  0.125000   0.875000 0
  0.875000   1.000000 0
  0.750000   0.250000 0
  0.375000   0.375000 0
  0.250000   0.375000 0
  0.625000   0.750000 0
  0.125000   0.125000 0
  0.500000   0.000000 0
  0.250000   0.875000 0
  0.125000   0.500000 0
  0.500000   0.375000 0
  0.125000   0.000000 0
  0.250000   0.750000 0
  0.250000   0.500000 0
  0.000000   0.875000 0
  0.875000   0.625000 0
  0.500000   0.750000 0
  0.750000   0.625000 0
  0.250000   0.000000 0
  0.375000   0.750000 0
  0.750000   0.875000 0
  0.625000   0.125000 0
  0.250000   0.250000 0
  0.375000   1.000000 0
  0.375000   0.250000 0
  0.000000   0.375000 0
  0.500000   1.000000 0
  0.875000   0.750000 0
  0.750000   0.000000 0
  0.375000   0.125000 0
  0.500000   0.875000 0
  0.000000   0.000000 0
  0.125000   0.750000 0
  0.500000   0.625000 0
  0.125000   0.250000 0
  0.500000   0.125000 0
  0.250000   1.000000 0
  0.250000   0.125000 0
  0.000000   1.000000 0
  0.375000   0.875000 0
  0.000000   0.750000 0
  0.375000   0.625000 0
  0.000000   0.250000 0
  0.125000   1.000000 0
  1.000000   0.375000 0
  0.500000   0.500000 0
  0.875000   0.375000 0
CELLS 64 320
4 56 71 58 63
4 27 58 69 63
4 41 69 32 63
4 76 33 68 40
4 27 44 58 37
4 79 31 44 37
4 56 38 68 21
4 56 58 38 37
4 52 32 71 63
4 47 38 31 37
4 76 68 59 21
4 22 59 43 21
4 65 45 33 40
4 47 43 38 21
4 52 71 45 40
4 56 68 71 40
4 74 30 66 23
4 46 66 29 23
4 22 43 30 23
4 72 48 77 34
4 46 53 42 73
4 50 64 53 73
4 70 42 57 73
4 74 66 48 34
4 46 42 66 34
4 47 29 43 23
4 70 77 42 34
4 60 57 64 73
4 79 67 31 75
4 47 31 29 75
4 50 53 67 75
4 46 29 53 75
4 10 78 6 80
4 36 6 1 80
4 15 1 12 80
4 36 4 6 26
4 14 12 78 80
4 2 17 9 26
4 36 18 4 55
4 15 28 1 11
4 62 4 20 55
4 10 6 17 26
4 27 18 44 11
4 62 9 4 26
4 27 69 18 55
4 36 1 18 11
4 41 20 69 55
4 79 44 28 11
4 16 24 54 7
4 19 54 39 7
4 50 39 64 7
4 8 25 61 3
4 60 64 24 7
4 79 28 67 13
4 19 51 61 49
4 8 61 0 49
4 15 51 28 13
4 19 39 51 13
4 50 67 39 13
4 19 61 54 3
4 14 0 12 49
4 5 35 25 3
4 15 12 51 49
4 16 54 35 3
CELL_TYPES 64
8
8
8
8
8
8
8
8
8
8
8
8
8
8
8
8
8
8
8
8
8
8
8
8
8
8
8
8
8
8
8
8
8
8
8
8
8
8
8
8
8
8
8
8
8
8
8
8
8
8
8
8
8
8
8
8
8
8
8
8
8
8
8
8
CELL_DATA 64
SCALARS scalar_value float 1
LOOKUP_TABLE default
57.2029
14.701
97.2305
27.8917
4.40499
0.904161
0.846009
4.8722
3.70281
0.198538
3.68125
1.99367
11.5155
0.11797
19.2455
113.557
1.47536
0.935602
6.36409
0.544567
6.56636
2.60371
105.931
0.66783
2.29862
0.630039
5.35428
10.3343
0.361689
0.557572
0.175653
0.241285
231.399
1.93
9.89486
0.328586
363.346
1.86077
0.39435
0.213112
1.1134
19.5176
2.3164
1.04543
1.13899
0.401605
11.4078
0.279648
12.6447
4.05642
4.50315
66.9469
7.86615
0.0816518
1.95199
40.5253
0.122257
0.426507
0.164364
4.58804
16.4914
10.072
4.23906
8.19882
