# vtk DataFile Version 2.0
Unstructured Grid by M++
ASCII
DATASET UNSTRUCTURED_GRID
POINTS 81 float
  1.000000   0.625000 0
  0.750000   0.375000 0
  1.000000   0.000000 0
  0.875000   0.875000 0
  0.750000   0.125000 0
  1.000000   1.000000 0
  0.875000   0.250000 0
  0.625000   0.875000 0
  1.000000   0.750000 0
  0.875000   0.000000 0
  1.000000   0.250000 0
  0.625000   0.375000 0
  0.875000   0.500000 0
  0.625000   0.625000 0
  1.000000   0.500000 0
  0.750000   0.500000 0
  0.750000   1.000000 0
  1.000000   0.125000 0
  0.625000   0.250000 0
  0.750000   0.750000 0
  0.625000   0.000000 0
  0.125000   0.375000 0
  0.000000   0.500000 0
  0.125000   0.625000 0
  0.625000   1.000000 0
  1.000000   0.875000 0
  0.875000   0.125000 0
  0.500000   0.250000 0
  0.625000   0.500000 0
  0.250000   0.625000 0
  0.000000   0.625000 0
  0.375000   0.500000 0
  0.375000   0.000000 0
  0.000000   0.125000 0
  0.125000   0.875000 0
  0.875000   1.000000 0
  0.750000   0.250000 0
  0.375000   0.375000 0
  0.250000   0.375000 0
  0.625000   0.750000 0
  0.125000   0.125000 0
  0.500000   0.000000 0
  0.250000   0.875000 0
  0.125000   0.500000 0
  0.500000   0.375000 0
  0.125000   0.000000 0
  0.250000   0.750000 0
  0.250000   0.500000 0
  0.000000   0.875000 0
  0.875000   0.625000 0
  0.500000   0.750000 0
  0.750000   0.625000 0
  0.250000   0.000000 0
  0.375000   0.750000 0
  0.750000   0.875000 0
  0.625000   0.125000 0
  0.250000   0.250000 0
  0.375000   1.000000 0
  0.375000   0.250000 0
  0.000000   0.375000 0
  0.500000   1.000000 0
  0.875000   0.750000 0
  0.750000   0.000000 0
  0.375000   0.125000 0
  0.500000   0.875000 0
  0.000000   0.000000 0
  0.125000   0.750000 0
  0.500000   0.625000 0
  0.125000   0.250000 0
  0.500000   0.125000 0
  0.250000   1.000000 0
  0.250000   0.125000 0
  0.000000   1.000000 0
  0.375000   0.875000 0
  0.000000   0.750000 0
  0.375000   0.625000 0
  0.000000   0.250000 0
  0.125000   1.000000 0
  1.000000   0.375000 0
  0.500000   0.500000 0
  0.875000   0.375000 0
CELLS 64 320
4 56 71 58 63
4 27 58 69 63
4 41 69 32 63
4 76 33 68 40
4 27 44 58 37
4 79 31 44 37
4 56 38 68 21
4 56 58 38 37
4 52 32 71 63
4 47 38 31 37
4 76 68 59 21
4 22 59 43 21
4 65 45 33 40
4 47 43 38 21
4 52 71 45 40
4 56 68 71 40
4 74 30 66 23
4 46 66 29 23
4 22 43 30 23
4 72 48 77 34
4 46 53 42 73
4 50 64 53 73
4 70 42 57 73
4 74 66 48 34
4 46 42 66 34
4 47 29 43 23
4 70 77 42 34
4 60 57 64 73
4 79 67 31 75
4 47 31 29 75
4 50 53 67 75
4 46 29 53 75
4 10 78 6 80
4 36 6 1 80
4 15 1 12 80
4 36 4 6 26
4 14 12 78 80
4 2 17 9 26
4 36 18 4 55
4 15 28 1 11
4 62 4 20 55
4 10 6 17 26
4 27 18 44 11
4 62 9 4 26
4 27 69 18 55
4 36 1 18 11
4 41 20 69 55
4 79 44 28 11
4 16 24 54 7
4 19 54 39 7
4 50 39 64 7
4 8 25 61 3
4 60 64 24 7
4 79 28 67 13
4 19 51 61 49
4 8 61 0 49
4 15 51 28 13
4 19 39 51 13
4 50 67 39 13
4 19 61 54 3
4 14 0 12 49
4 5 35 25 3
4 15 12 51 49
4 16 54 35 3
CELL_TYPES 64
8
8
8
8
8
8
8
8
8
8
8
8
8
8
8
8
8
8
8
8
8
8
8
8
8
8
8
8
8
8
8
8
8
8
8
8
8
8
8
8
8
8
8
8
8
8
8
8
8
8
8
8
8
8
8
8
8
8
8
8
8
8
8
8
POINT_DATA 81
SCALARS scalar_value float 1
LOOKUP_TABLE default
-0.124872
-0.0294697
0
-0.138113
-0.00394452
-0.144934
-0.00281377
-0.14145
-0.13166
0
-0.00256363
-0.0427995
-0.0527376
-0.0818702
-0.0416992
-0.060273
-0.144953
-0.00148217
-0.018203
-0.130178
0
-0.056624
-0.0721561
-0.178585
-0.155636
-0.135843
-0.00167596
-0.0455521
-0.066191
-0.168538
-0.121614
-0.0612799
0
-0.0282404
-0.26133
-0.143725
-0.00763222
-0.0572608
-0.0566942
-0.132084
-0.0412535
0
-0.26289
-0.0610026
-0.0552748
0
-0.238661
-0.0595523
-0.270871
-0.121058
-0.135876
-0.110098
0
-0.16607
-0.139985
-0.00624387
-0.055655
-0.290759
-0.0547619
-0.0577903
-0.28137
-0.129975
0
-0.0439413
-0.184723
0
-0.242622
-0.0752871
-0.0559684
-0.0170441
-0.281391
-0.0479901
-0.382138
-0.256656
-0.246333
-0.0839569
-0.0544519
-0.291566
-0.00499181
-0.0650601
-0.00729126
