# vtk DataFile Version 2.0
Unstructured Grid by M++
ASCII
DATASET UNSTRUCTURED_GRID
POINTS 1089 float
  0.718750   0.687500 0
  0.750000   0.687500 0
  0.718750   0.656250 0
  0.750000   0.718750 0
  0.625000   0.562500 0
  0.625000   0.593750 0
  0.656250   0.593750 0
  0.750000   0.750000 0
  0.687500   0.656250 0
  0.687500   0.625000 0
  0.656250   0.625000 0
  0.906250   0.593750 0
  1.000000   0.968750 0
  0.750000   0.968750 0
  0.718750   0.968750 0
  0.718750   1.000000 0
  0.750000   1.000000 0
  0.906250   0.906250 0
  0.843750   0.531250 0
  0.656250   0.937500 0
  0.656250   0.906250 0
  0.562500   0.812500 0
  0.562500   0.843750 0
  0.593750   0.875000 0
  0.593750   0.843750 0
  0.812500   0.718750 0
  0.625000   0.625000 0
  0.968750   0.875000 0
  0.531250   0.875000 0
  0.625000   0.937500 0
  0.562500   0.562500 0
  0.906250   0.812500 0
  0.531250   0.781250 0
  0.562500   0.593750 0
  0.906250   0.843750 0
  0.625000   0.656250 0
  0.968750   0.906250 0
  0.687500   0.968750 0
  0.812500   0.812500 0
  0.687500   1.000000 0
  0.687500   0.687500 0
  0.937500   0.843750 0
  0.593750   0.593750 0
  1.000000   0.625000 0
  0.968750   0.593750 0
  0.906250   0.875000 0
  0.968750   0.625000 0
  0.625000   0.875000 0
  0.875000   0.875000 0
  0.625000   0.906250 0
  0.875000   0.843750 0
  0.531250   0.812500 0
  0.968750   0.562500 0
  0.593750   0.625000 0
  0.937500   0.875000 0
  0.656250   0.687500 0
  1.000000   0.937500 0
  0.875000   0.562500 0
  0.687500   0.937500 0
  0.937500   0.625000 0
  0.812500   0.781250 0
  0.937500   0.562500 0
  0.875000   0.781250 0
  0.531250   0.531250 0
  0.718750   0.937500 0
  0.968750   0.937500 0
  0.906250   0.562500 0
  0.843750   0.781250 0
  0.593750   0.562500 0
  1.000000   0.906250 0
  0.656250   0.656250 0
  0.937500   0.906250 0
  0.875000   0.531250 0
  0.812500   0.750000 0
  0.656250   0.968750 0
  0.937500   0.531250 0
  0.843750   0.812500 0
  0.906250   0.531250 0
  0.843750   0.750000 0
  0.937500   0.593750 0
  0.875000   0.812500 0
  0.531250   0.562500 0
  1.000000   0.593750 0
  0.562500   0.906250 0
  0.562500   0.531250 0
  0.593750   0.906250 0
  0.593750   0.937500 0
  0.562500   0.875000 0
  0.781250   0.750000 0
  0.781250   0.781250 0
  0.593750   0.531250 0
  1.000000   0.687500 0
  0.531250   0.843750 0
  0.718750   0.718750 0
  0.781250   0.718750 0
  0.781250   0.687500 0
  1.000000   0.656250 0
  0.968750   0.656250 0
  0.843750   0.843750 0
  0.781250   1.000000 0
  0.656250   0.312500 0
  0.531250   0.250000 0
  0.875000   0.500000 0
  0.531250   0.218750 0
  0.875000   0.468750 0
  0.531250   0.156250 0
  0.593750   0.812500 0
  0.093750   0.562500 0
  0.656250   0.562500 0
  0.156250   0.312500 0
  0.031250   0.812500 0
  0.125000   1.000000 0
  0.312500   0.250000 0
  0.250000   0.500000 0
  0.375000   0.000000 0
  0.187500   0.750000 0
  0.812500   0.906250 0
  0.312500   0.656250 0
  0.250000   0.906250 0
  0.875000   0.656250 0
  0.375000   0.406250 0
  0.750000   0.843750 0
  0.250000   0.593750 0
  0.187500   0.843750 0
  0.812500   0.593750 0
  0.312500   0.343750 0
  0.625000   0.968750 0
  0.125000   0.718750 0
  0.687500   0.718750 0
  0.187500   0.468750 0
  0.062500   0.968750 0
  0.125000   0.656250 0
  0.187500   0.406250 0
  0.250000   0.156250 0
  0.062500   0.906250 0
  0.468750   0.906250 0
  0.656250   0.156250 0
  0.468750   0.812500 0
  0.593750   0.312500 0
  0.656250   0.062500 0
  0.625000   0.812500 0
  0.125000   0.562500 0
  0.687500   0.562500 0
  0.187500   0.312500 0
  0.062500   0.812500 0
  0.562500   0.937500 0
  0.062500   0.687500 0
  0.625000   0.687500 0
  0.125000   0.437500 0
  0.000000   0.937500 0
  0.062500   0.625000 0
  0.187500   0.125000 0
  0.125000   0.375000 0
  0.000000   0.875000 0
  0.406250   0.875000 0
  0.468750   0.625000 0
  0.593750   0.125000 0
  0.812500   0.937500 0
  0.312500   0.687500 0
  0.250000   0.937500 0
  0.875000   0.687500 0
  0.375000   0.437500 0
  0.750000   0.875000 0
  0.250000   0.625000 0
  0.187500   0.875000 0
  0.812500   0.625000 0
  0.312500   0.375000 0
  0.468750   0.781250 0
  0.593750   0.281250 0
  0.656250   0.031250 0
  0.625000   0.781250 0
  0.125000   0.531250 0
  0.062500   0.781250 0
  0.687500   0.531250 0
  0.187500   0.281250 0
  0.500000   0.812500 0
  0.687500   0.062500 0
  0.625000   0.312500 0
  0.656250   0.812500 0
  0.156250   0.562500 0
  0.718750   0.562500 0
  0.218750   0.312500 0
  0.093750   0.812500 0
  0.437500   0.968750 0
  0.625000   0.218750 0
  0.500000   0.781250 0
  0.687500   0.031250 0
  0.625000   0.281250 0
  0.656250   0.781250 0
  0.156250   0.531250 0
  0.718750   0.531250 0
  0.218750   0.281250 0
  0.093750   0.781250 0
  0.062500   0.562500 0
  0.125000   0.312500 0
  0.187500   0.062500 0
  0.000000   0.812500 0
  0.406250   0.812500 0
  0.968750   0.812500 0
  0.468750   0.562500 0
  0.593750   0.062500 0
  0.218750   0.687500 0
  0.156250   0.937500 0
  0.281250   0.437500 0
  0.062500   0.843750 0
  0.687500   0.593750 0
  0.187500   0.343750 0
  0.625000   0.843750 0
  0.125000   0.593750 0
  0.312500   0.843750 0
  0.437500   0.343750 0
  0.500000   0.093750 0
  0.375000   0.593750 0
  0.312500   0.906250 0
  0.937500   0.656250 0
  0.437500   0.406250 0
  0.875000   0.906250 0
  0.375000   0.656250 0
  0.062500   0.875000 0
  0.187500   0.375000 0
  0.250000   0.125000 0
  0.125000   0.625000 0
  0.093750   0.656250 0
  0.031250   0.906250 0
  0.218750   0.156250 0
  0.156250   0.406250 0
  0.593750   0.968750 0
  0.093750   0.718750 0
  0.031250   0.968750 0
  0.656250   0.718750 0
  0.156250   0.468750 0
  0.437500   0.906250 0
  0.625000   0.156250 0
  0.718750   0.812500 0
  0.218750   0.562500 0
  0.781250   0.562500 0
  0.281250   0.312500 0
  0.156250   0.812500 0
  0.062500   0.656250 0
  0.000000   0.906250 0
  0.187500   0.156250 0
  0.125000   0.406250 0
  0.562500   0.968750 0
  0.062500   0.718750 0
  0.000000   0.968750 0
  0.625000   0.718750 0
  0.125000   0.468750 0
  0.406250   0.968750 0
  0.968750   0.968750 0
  0.468750   0.718750 0
  0.531250   0.468750 0
  0.593750   0.218750 0
  0.406250   0.906250 0
  0.468750   0.656250 0
  0.593750   0.156250 0
  0.687500   0.781250 0
  0.187500   0.531250 0
  0.750000   0.531250 0
  0.250000   0.281250 0
  0.125000   0.781250 0
  0.781250   0.906250 0
  0.281250   0.656250 0
  0.218750   0.906250 0
  0.843750   0.656250 0
  0.343750   0.406250 0
  0.750000   0.906250 0
  0.250000   0.656250 0
  0.187500   0.906250 0
  0.812500   0.656250 0
  0.312500   0.406250 0
  0.875000   0.406250 0
  0.375000   0.156250 0
  0.812500   0.968750 0
  0.312500   0.718750 0
  0.250000   0.968750 0
  0.875000   0.718750 0
  0.375000   0.468750 0
  0.781250   0.937500 0
  0.281250   0.687500 0
  0.218750   0.937500 0
  0.843750   0.687500 0
  0.343750   0.437500 0
  0.718750   0.875000 0
  0.218750   0.625000 0
  0.156250   0.875000 0
  0.781250   0.625000 0
  0.281250   0.375000 0
  0.750000   0.937500 0
  0.250000   0.687500 0
  0.187500   0.937500 0
  0.875000   0.437500 0
  0.375000   0.187500 0
  0.812500   0.687500 0
  0.312500   0.437500 0
  0.687500   0.875000 0
  0.187500   0.625000 0
  0.750000   0.625000 0
  0.250000   0.375000 0
  0.125000   0.875000 0
  0.812500   1.000000 0
  0.312500   0.750000 0
  0.250000   1.000000 0
  0.875000   0.750000 0
  0.375000   0.500000 0
  0.562500   1.000000 0
  0.062500   0.750000 0
  0.000000   1.000000 0
  0.625000   0.750000 0
  0.125000   0.500000 0
  0.406250   1.000000 0
  0.968750   1.000000 0
  0.468750   0.750000 0
  0.656250   0.000000 0
  0.531250   0.500000 0
  0.593750   0.250000 0
  0.406250   0.937500 0
  0.468750   0.687500 0
  0.593750   0.187500 0
  0.687500   0.812500 0
  0.187500   0.562500 0
  0.750000   0.562500 0
  0.250000   0.312500 0
  0.125000   0.812500 0
  0.437500   0.843750 0
  0.625000   0.093750 0
  0.093750   0.593750 0
  0.156250   0.343750 0
  0.218750   0.093750 0
  0.031250   0.843750 0
  0.281250   0.937500 0
  0.843750   0.937500 0
  0.343750   0.687500 0
  0.906250   0.687500 0
  0.406250   0.437500 0
  0.156250   0.968750 0
  0.218750   0.718750 0
  0.281250   0.468750 0
  0.343750   0.218750 0
  0.156250   1.000000 0
  0.406250   0.000000 0
  0.281250   0.500000 0
  0.343750   0.250000 0
  0.218750   0.750000 0
  0.187500   0.968750 0
  0.250000   0.718750 0
  0.375000   0.218750 0
  0.312500   0.468750 0
  0.187500   1.000000 0
  0.312500   0.500000 0
  0.375000   0.250000 0
  0.437500   0.000000 0
  0.250000   0.750000 0
  0.031250   0.781250 0
  0.656250   0.531250 0
  0.156250   0.281250 0
  0.593750   0.781250 0
  0.093750   0.531250 0
  0.000000   0.781250 0
  0.625000   0.531250 0
  0.125000   0.281250 0
  0.562500   0.781250 0
  0.062500   0.531250 0
  0.781250   0.968750 0
  0.281250   0.718750 0
  0.218750   0.968750 0
  0.843750   0.718750 0
  0.343750   0.468750 0
  0.281250   0.968750 0
  0.843750   0.968750 0
  0.343750   0.718750 0
  0.906250   0.718750 0
  0.406250   0.468750 0
  0.281250   1.000000 0
  0.906250   0.750000 0
  0.406250   0.500000 0
  0.843750   1.000000 0
  0.343750   0.750000 0
  0.531250   0.000000 0
  0.718750   0.843750 0
  0.218750   0.593750 0
  0.156250   0.843750 0
  0.781250   0.593750 0
  0.281250   0.343750 0
  0.687500   0.843750 0
  0.187500   0.593750 0
  0.750000   0.593750 0
  0.250000   0.343750 0
  0.125000   0.843750 0
  0.218750   0.875000 0
  0.843750   0.625000 0
  0.343750   0.375000 0
  0.781250   0.875000 0
  0.281250   0.625000 0
  0.156250   0.906250 0
  0.781250   0.656250 0
  0.281250   0.406250 0
  0.718750   0.906250 0
  0.218750   0.656250 0
  0.031250   1.000000 0
  0.656250   0.750000 0
  0.156250   0.500000 0
  0.593750   1.000000 0
  0.093750   0.750000 0
  0.218750   1.000000 0
  0.343750   0.500000 0
  0.468750   0.000000 0
  0.406250   0.250000 0
  0.281250   0.750000 0
  0.593750   0.406250 0
  0.093750   0.156250 0
  0.531250   0.656250 0
  0.031250   0.406250 0
[...]
POINT_DATA 1089
SCALARS scalar_value float 1
LOOKUP_TABLE default
-0.517013
-0.610923
-0.366335
-0.780166
-0.134253
-0.160064
-0.165131
-0.899892
-0.317179
-0.23198
-0.213662
-0.488694
-1.34978
-1.32389
-1.29326
-1.30749
-1.33057
-1.34812
-0.408789
-1.22865
-1.20319
-0.894681
-0.972175
-1.06777
-1.01747
-0.815021
-0.216125
-1.34746
-0.965935
-1.19248
-0.141603
-1.30882
-0.79778
-0.168383
-1.33611
-0.308742
-1.34877
-1.26433
-1.23884
-1.27873
-0.442619
-1.33877
-0.162297
-0.552759
-0.48996
-1.34547
-0.548011
-1.13317
-1.34236
-1.16463
-1.32942
-0.865357
-0.464871
-0.218621
-1.34677
-0.424619
-1.34931
-0.452903
-1.2499
-0.538087
-1.10632
-0.465871
-1.2133
-0.133683
-1.27356
-1.34927
-0.463092
-1.16221
-0.136176
-1.34881
-0.314182
-1.34857
-0.434475
-0.954743
-1.24426
-0.451837
-1.26361
-0.447061
-1.00533
-0.490082
-1.28528
-0.149371
-0.489277
-1.04804
-0.126986
-1.11314
-1.14354
-1.01118
-0.912849
-1.06935
-0.123695
-0.951244
-0.92959
-0.735155
-0.795954
-0.655559
-0.72175
-0.685217
-1.31586
-1.34272
-0.0606015
-0.0319383
-0.422126
-0.0265227
-0.414186
-0.0197052
-0.935992
-0.594961
-0.137801
-0.0478185
-0.732486
-0.798473
-0.020309
-0.320145
0
-0.725184
-1.33718
-0.666986
-0.797696
-0.585606
-0.0544797
-1.23155
-0.617368
-0.737875
-0.433578
-0.0330088
-1.21889
-0.720889
-0.637559
-0.285926
-0.773572
-0.709552
-0.142247
-0.0189193
-0.753233
-0.892537
-0.0301849
-0.844099
-0.0540696
-0.0118532
-0.976948
-0.57173
-0.152683
-0.039435
-0.732447
-1.08938
-0.715442
-0.434266
-0.242882
-0.764105
-0.696286
-0.017683
-0.139179
-0.747482
-0.856517
-0.36509
-0.0170999
-1.34279
-0.692463
-0.816251
-0.703102
-0.0906017
-1.26733
-0.661027
-0.747428
-0.494241
-0.0446285
-0.802914
-0.0477227
-0.00634881
-0.878861
-0.483787
-0.727996
-0.138586
-0.026999
-0.850782
-0.0142223
-0.0579297
-1.03431
-0.552671
-0.18491
-0.0331233
-0.732566
-0.905456
-0.0388816
-0.807539
-0.00874429
-0.0519288
-0.93804
-0.474893
-0.168151
-0.0246261
-0.728099
-0.607791
-0.0612571
-0.0132148
-0.732906
-0.821758
-1.31817
-0.212671
-0.00923131
-0.711694
-0.767306
-0.132916
-0.738885
-0.179057
-0.0614794
-1.07517
-0.63784
-0.786537
-0.0369048
-0.014879
-0.527261
-0.828583
-0.637696
-0.059768
-1.34691
-0.640547
-0.745231
-0.0905431
-0.0185264
-0.691111
-0.709665
-0.754525
-0.0188671
-0.166355
-1.1743
-0.720697
-0.776276
-0.574324
-0.291268
-0.878031
-0.0267946
-1.11532
-0.552658
-0.352148
-0.0282535
-0.732415
-0.708417
-0.755581
-0.018664
-0.187301
-1.12565
-0.720545
-0.778491
-0.569362
-0.300861
-0.890455
-1.34975
-0.678186
-0.102919
-0.0345455
-0.867118
-0.474245
-0.0223912
-0.98526
-0.463929
-0.244476
-0.023694
-0.728383
-1.32073
-0.680445
-0.770054
-0.575065
-0.0571188
-1.2901
-0.689024
-0.759313
-0.558992
-0.0684106
-0.358746
-0.0188763
-1.3453
-0.708077
-0.834178
-0.888464
-0.161674
-1.33421
-0.699419
-0.794876
-0.689921
-0.0966201
-1.22631
-0.663028
-0.743829
-0.463591
-0.0526327
-1.31041
-0.70495
-0.776902
-0.395322
-0.0192466
-0.680769
-0.114595
-1.2025
-0.669284
-0.378896
-0.0608089
-0.74319
-1.34633
-0.725857
-0.851102
-1.06674
-0.237938
-1.17603
-0.724691
-0.793033
-0.713951
-0.368989
-0.898908
-1.35018
-0.746138
0
-0.119241
-0.041332
-0.879269
-0.591255
-0.0282297
-1.07884
-0.550333
-0.268366
-0.0298799
-0.732402
-0.855693
-0.0143718
-0.660075
-0.0768996
-0.0169058
-0.739317
-0.828971
-1.34655
-0.682201
-0.757648
-0.0929914
-0.784083
-0.720724
-0.213308
-0.0195731
-0.814613
0
-0.308438
-0.0202717
-0.72551
-0.801916
-0.717992
-0.019662
-0.194131
-0.82817
-0.304008
-0.0206056
0
-0.725732
-0.727693
-0.126723
-0.0328016
-0.830015
-0.493373
-0.727167
-0.123631
-0.0418245
-0.796416
-0.516894
-1.34051
-0.712595
-0.818851
-0.837167
-0.183148
-0.848299
-1.34793
-0.70522
-0.973195
-0.14026
-0.858919
-1.12514
-0.203804
-1.34849
-0.730919
0
-1.19212
-0.611107
-0.73732
-0.39541
-0.0365873
-1.16253
-0.611398
-0.300887
-0.0412808
-0.737857
-0.753619
-0.514807
-0.0409001
-1.29935
-0.654898
-0.754387
-0.5318
-0.0805569
-1.25062
-0.694396
-0.789223
-0.765086
-0.36853
-1.22633
-0.725133
-0.838669
-0.278892
0
-0.0212381
-0.725527
-0.0777957
-0.0164144
-0.342322
-0.250412
-0.00971664
-0.0218523
-0.413657
-0.729355
-0.463911
-0.0309686
-1.26631
-0.616656
-0.740679
-0.428609
-0.0251878
-1.20514
-0.534959
-0.733368
-0.0197073
-0.324482
-0.0228058
-1.01811
-0.449807
-0.72842
-0.0195759
-0.268568
-0.772606
-0.721501
-0.878876
-0.341043
-0.785867
-1.2601
-0.725072
-0.0192732
-0.184185
-0.762657
-0.716686
-1.05478
-0.127172
-1.34885
-0.703766
-0.85962
-0.0613192
-0.617951
-0.844181
-1.10058
-0.113738
-1.34934
-0.705452
-0.86907
-0.59798
-0.329347
-0.917196
-0.0839188
-0.858375
-1.34882
-0.66116
-0.0228013
-0.444071
-0.283717
-0.0484691
-0.831238
-0.551496
-0.0166376
-0.841663
-0.090488
-1.34823
-0.673045
-0.844809
-0.466796
-0.303168
-0.0440252
-0.0172847
-0.593183
-0.809427
-1.11112
-0.104745
-1.34964
-0.700273
-0.880855
-0.0295323
-0.569449
-0.856518
-0.0208991
-0.5848
-0.310152
-1.0618
-0.720058
-0.482909
-0.031252
-1.29207
-0.599853
-0.749221
-0.0221056
-0.00965998
-0.403663
-0.730708
-0.525905
-0.0396009
-1.32286
-0.639372
-0.767552
-0.025052
-0.013884
-0.522032
-0.736792
-0.0565011
-0.0119298
-0.601443
-0.056713
-0.813697
-1.34362
-0.653737
-0.0159916
-0.0331591
-0.763661
-0.574158
-0.0731608
0
-0.0475018
-0.082845
0
-0.0182943
-0.11506
-0.746238
-0.697094
-0.0192618
-0.225443
-0.716228
-0.0518329
0
-0.438076
-0.0541397
-1.1741
-0.173041
-0.865946
-1.34924
-0.737953
0
-0.047246
0
-0.716828
-0.433038
-0.82679
-0.357693
-0.784471
-1.24642
-0.725162
-0.0192812
-0.207552
-0.763609
-0.716726
-0.37466
-0.0220907
-1.04382
-0.434543
-0.728607
-0.0195352
-0.236192
-0.774807
-0.721586
-0.396701
-0.0264882
-0.732616
-1.15645
-0.544599
-1.34039
-0.28078
-0.845948
-0.0092
-0.0488246
-0.0132121
-0.0979066
-0.0161553
-0.739379
-0.667929
-0.531133
-0.0408338
-0.787443
-1.33642
-0.618913
-0.0131095
-0.0265567
-0.745163
-0.496735
-0.0849379
-0.0262908
-0.0637648
-0.0162539
-0.64076
-0.370568
-0.104212
-0.0356533
-0.696665
-0.383178
-1.11866
-0.724304
-0.615894
-0.355676
-1.2685
-0.14446
-0.791597
-0.042451
-0.00489881
-1.26823
-0.17078
-0.781525
-0.00482053
-1.34762
-0.206937
-0.29355
-0.867048
-0.0197941
-0.0130441
-0.0624239
-1.31608
-0.291459
-0.464322
-0.00497593
-0.0399926
-0.80358
-0.00936162
-0.0779644
-0.0127615
-0.611931
-1.35013
-0.735252
-0.91883
0
-0.0446908
-0.115529
-0.891532
-0.032332
-0.365542
-0.00782563
-0.0454659
-0.828916
-0.0129112
-0.116121
-0.0152288
-0.664851
-0.31344
-0.215979
-0.991603
-0.706469
-0.333571
-0.00804762
-0.0256167
-0.743145
-0.0971971
-0.00571592
-0.178776
-0.159545
-0.383745
-0.254579
-0.0753198
-0.0159372
-0.466701
-0.0901956
-0.752275
-1.22933
-0.700628
-0.0118742
-0.0307339
-0.762744
-0.445442
-0.140441
-0.0139325
-0.661768
-0.328208
-0.238376
-0.387256
-0.00898926
-0.0229794
-0.734665
-0.105297
-0.00417776
-1.34084
-0.207804
-0.163788
-0.0541892
-0.0113351
-0.282319
-0.0737416
-0.744008
-1.17207
-0.680631
-0.221218
-0.049931
-1.12741
-0.621474
-0.738453
-0.524671
-0.317439
-0.0885828
-0.0229847
-0.157805
-0.0192238
-0.763067
-0.715697
-1.26453
-0.23253
-0.451077
-0.00286349
-0.0334163
-0.767763
-0.00541195
-0.0547755
-0.00696549
-0.530221
-0.451974
-0.0295192
-1.24718
-0.271485
-0.757374
-0.00702151
-0.00678628
-0.0743813
-0.531536
-0.122745
-0.010192
-0.245374
-0.206443
-0.114159
-0.0189382
-0.752268
-0.706796
-0.100755
-0.0117077
-0.614108
-0.223393
-0.192473
-0.0375584
-0.00323503
-0.704576
-0.409278
-0.0114945
-0.0530262
-0.464292
-0.844742
-0.0165468
-0.0168264
-0.164192
-0.691802
-0.441457
-0.262792
-1.02376
-0.715253
-0.0353988
-0.788788
-0.367223
-0.0102865
-1.34912
-0.635275
-0.870555
-1.19091
-0.14051
-1.34987
-0.742325
-0.875346
0
0
-0.0437866
-0.00592399
-0.0416322
-0.811439
-0.455464
-0.0137855
-0.444651
-0.0278218
0
-0.0297438
-0.0823564
-0.0248122
-1.1934
-0.126381
-1.35023
-0.744849
-0.88842
-0.0363968
0
-0.0689296
-0.0162233
-0.833012
-1.31924
-0.128623
-0.163964
-0.00805424
-0.0486291
-0.00997594
-0.764342
-0.714907
-0.952529
-0.0198393
-0.0896634
-0.038702
-0.885791
-0.0216043
-0.064659
-0.688566
-0.909462
-0.0271975
-0.015575
-0.0720049
-0.724146
-1.03322
-0.0306203
-0.114968
0
-0.048689
0
-0.957286
0
-0.0390423
-0.114567
-0.930917
-0.0284269
-0.104612
-0.0422209
-0.719811
-0.983478
-0.0238365
-0.104057
-0.0442674
-0.911285
-0.0211499
-0.0901675
-0.0356089
-0.704791
-0.928945
-0.0336505
-0.0174412
-0.0789089
-0.879924
-0.024238
-0.0141551
-0.0688249
-0.867357
-0.0179717
-0.0126963
-0.0601532
-0.0865621
-0.0395804
-0.0459553
-0.0213255
-0.103967
-0.0121335
-0.0152693
-0.061176
0
-0.0212432
-0.152009
0
-0.0504747
-0.00482361
-0.00976497
-0.0543097
-0.104448
-0.0441736
-0.0199653
-0.128131
-0.0472395
-0.0199354
-0.42828
-0.115924
-0.0499639
-0.018809
-0.389857
-0.0512285
-0.0187508
-0.406263
-0.0468944
-0.0204573
-0.108083
-0.0230559
-0.0670911
-0.0204692
-0.289426
0
0
-0.0566346
-0.236756
-0.0491806
-0.172217
-0.0476526
-0.0206752
-0.207404
0
0
-0.0516061
-0.00462132
-0.0102281
-0.0571122
-0.00498873
-0.0103905
-0.069695
-0.0187953
-0.414233
-0.0149796
-0.00897463
-0.0537127
-0.133288
-0.0436738
-0.328103
-0.378331
-0.0734841
-0.019438
-0.426535
-0.0413845
-0.0195257
-0.0894976
-0.0299949
-0.073707
-0.0367642
-0.0181765
-0.0797692
-0.0126519
-0.014788
-0.0985749
-0.0122111
-0.0151021
-0.0705298
-0.0296643
-0.0185275
-0.237279
-0.0206483
-0.0175836
-0.144623
-0.0188526
-0.0176934
-0.0925978
-0.020602
-0.435712
-0.117301
-0.0225321
-0.441573
0
-0.179467
0
-0.160167
-0.018326
-0.280033
-0.0175292
-0.0146315
-0.245307
-0.0287858
-0.0166434
-0.325794
-0.0435989
-0.0193177
-0.0917383
-0.0344457
-0.01837
-0.3186
-0.0275111
-0.0170543
-0.303868
-0.0376799
-0.0181037
-0.353985
-0.0388712
-0.0814866
-0.0244041
-0.017382
-0.244654
-0.0248451
-0.44392
-0.0749478
-0.0318988
-0.0383624
-0.017861
-0.373282
-0.0156471
-0.0149194
-0.166593
-0.0199089
-0.430784
-0.358454
0
-0.0744632
-0.0314356
-0.0774533
-0.0123125
-0.0138293
-0.0597294
-0.0218717
-0.438473
-0.0296339
-0.08555
-0.0118606
-0.014665
-0.0592377
-0.0610041
-0.0137444
-0.0381606
-0.106617
-0.0182548
-0.0173162
-0.0695342
-0.0677814
-0.0222369
-0.0075074
-0.0538809
-0.0068588
-0.0176277
-0.378461
-0.0437464
-0.264649
-0.0269747
-0.0185663
-0.141306
-0.00748138
-0.223251
-0.0186751
-0.413005
-0.0557726
-0.324553
-0.0351058
-0.0189492
-0.212738
-0.00770508
-0.187362
-0.182234
-0.0425819
-0.0185687
-0.102549
-0.027061
-0.435493
-0.175718
-0.0193052
-0.417421
-0.0710857
-0.00687529
-0.00975394
-0.109395
0
-0.398112
-0.12036
-0.139128
-0.0358008
-0.0176175
-0.0764533
-0.0178947
0
-0.050306
0
-0.0223921
-0.12338
-0.0192042
-0.350768
-0.0494558
-0.261988
-0.29491
-0.0250569
-0.116554
0
0
-0.049863
-0.0390813
-0.0189312
-0.299372
-0.0760725
-0.385455
-0.0209904
-0.431587
-0.0453403
-0.102628
-0.255777
-0.0590296
-0.294074
-0.00549002
-0.00941458
-0.0532954
-0.0204769
-0.0680163
-0.00618355
-0.00830175
-0.0534066
-0.0237753
-0.438904
-0.328641
