# vtk DataFile Version 2.0
Unstructured Grid by M++
ASCII
DATASET UNSTRUCTURED_GRID
POINTS 1089 float
  0.718750   0.687500 0
  0.750000   0.687500 0
  0.718750   0.656250 0
  0.750000   0.718750 0
  0.625000   0.562500 0
  0.625000   0.593750 0
  0.656250   0.593750 0
  0.750000   0.750000 0
  0.687500   0.656250 0
  0.687500   0.625000 0
  0.656250   0.625000 0
  0.906250   0.593750 0
  1.000000   0.968750 0
  0.750000   0.968750 0
  0.718750   0.968750 0
  0.718750   1.000000 0
  0.750000   1.000000 0
  0.906250   0.906250 0
  0.843750   0.531250 0
  0.656250   0.937500 0
  0.656250   0.906250 0
  0.562500   0.812500 0
  0.562500   0.843750 0
  0.593750   0.875000 0
  0.593750   0.843750 0
  0.812500   0.718750 0
  0.625000   0.625000 0
  0.968750   0.875000 0
  0.531250   0.875000 0
  0.625000   0.937500 0
  0.562500   0.562500 0
  0.906250   0.812500 0
  0.531250   0.781250 0
  0.562500   0.593750 0
  0.906250   0.843750 0
  0.625000   0.656250 0
  0.968750   0.906250 0
  0.687500   0.968750 0
  0.812500   0.812500 0
  0.687500   1.000000 0
  0.687500   0.687500 0
  0.937500   0.843750 0
  0.593750   0.593750 0
  1.000000   0.625000 0
  0.968750   0.593750 0
  0.906250   0.875000 0
  0.968750   0.625000 0
  0.625000   0.875000 0
  0.875000   0.875000 0
  0.625000   0.906250 0
  0.875000   0.843750 0
  0.531250   0.812500 0
  0.968750   0.562500 0
  0.593750   0.625000 0
  0.937500   0.875000 0
  0.656250   0.687500 0
  1.000000   0.937500 0
  0.875000   0.562500 0
  0.687500   0.937500 0
  0.937500   0.625000 0
  0.812500   0.781250 0
  0.937500   0.562500 0
  0.875000   0.781250 0
  0.531250   0.531250 0
  0.718750   0.937500 0
  0.968750   0.937500 0
  0.906250   0.562500 0
  0.843750   0.781250 0
  0.593750   0.562500 0
  1.000000   0.906250 0
  0.656250   0.656250 0
  0.937500   0.906250 0
  0.875000   0.531250 0
  0.812500   0.750000 0
  0.656250   0.968750 0
  0.937500   0.531250 0
  0.843750   0.812500 0
  0.906250   0.531250 0
  0.843750   0.750000 0
  0.937500   0.593750 0
  0.875000   0.812500 0
  0.531250   0.562500 0
  1.000000   0.593750 0
  0.562500   0.906250 0
  0.562500   0.531250 0
  0.593750   0.906250 0
  0.593750   0.937500 0
  0.562500   0.875000 0
  0.781250   0.750000 0
  0.781250   0.781250 0
  0.593750   0.531250 0
  1.000000   0.687500 0
  0.531250   0.843750 0
  0.718750   0.718750 0
  0.781250   0.718750 0
  0.781250   0.687500 0
  1.000000   0.656250 0
  0.968750   0.656250 0
  0.843750   0.843750 0
  0.781250   1.000000 0
  0.656250   0.312500 0
  0.531250   0.250000 0
  0.875000   0.500000 0
  0.531250   0.218750 0
  0.875000   0.468750 0
  0.531250   0.156250 0
  0.593750   0.812500 0
  0.093750   0.562500 0
  0.656250   0.562500 0
  0.156250   0.312500 0
  0.031250   0.812500 0
  0.125000   1.000000 0
  0.312500   0.250000 0
  0.250000   0.500000 0
  0.375000   0.000000 0
  0.187500   0.750000 0
  0.812500   0.906250 0
  0.312500   0.656250 0
  0.250000   0.906250 0
  0.875000   0.656250 0
  0.375000   0.406250 0
  0.750000   0.843750 0
  0.250000   0.593750 0
  0.187500   0.843750 0
  0.812500   0.593750 0
  0.312500   0.343750 0
  0.625000   0.968750 0
  0.125000   0.718750 0
  0.687500   0.718750 0
  0.187500   0.468750 0
  0.062500   0.968750 0
  0.125000   0.656250 0
  0.187500   0.406250 0
  0.250000   0.156250 0
  0.062500   0.906250 0
  0.468750   0.906250 0
  0.656250   0.156250 0
  0.468750   0.812500 0
  0.593750   0.312500 0
  0.656250   0.062500 0
  0.625000   0.812500 0
  0.125000   0.562500 0
  0.687500   0.562500 0
  0.187500   0.312500 0
  0.062500   0.812500 0
  0.562500   0.937500 0
  0.062500   0.687500 0
  0.625000   0.687500 0
  0.125000   0.437500 0
  0.000000   0.937500 0
  0.062500   0.625000 0
  0.187500   0.125000 0
  0.125000   0.375000 0
  0.000000   0.875000 0
  0.406250   0.875000 0
  0.468750   0.625000 0
  0.593750   0.125000 0
  0.812500   0.937500 0
  0.312500   0.687500 0
  0.250000   0.937500 0
  0.875000   0.687500 0
  0.375000   0.437500 0
  0.750000   0.875000 0
  0.250000   0.625000 0
  0.187500   0.875000 0
  0.812500   0.625000 0
  0.312500   0.375000 0
  0.468750   0.781250 0
  0.593750   0.281250 0
  0.656250   0.031250 0
  0.625000   0.781250 0
  0.125000   0.531250 0
  0.062500   0.781250 0
  0.687500   0.531250 0
  0.187500   0.281250 0
  0.500000   0.812500 0
  0.687500   0.062500 0
  0.625000   0.312500 0
  0.656250   0.812500 0
  0.156250   0.562500 0
  0.718750   0.562500 0
  0.218750   0.312500 0
  0.093750   0.812500 0
  0.437500   0.968750 0
  0.625000   0.218750 0
  0.500000   0.781250 0
  0.687500   0.031250 0
  0.625000   0.281250 0
  0.656250   0.781250 0
  0.156250   0.531250 0
  0.718750   0.531250 0
  0.218750   0.281250 0
  0.093750   0.781250 0
  0.062500   0.562500 0
  0.125000   0.312500 0
  0.187500   0.062500 0
  0.000000   0.812500 0
  0.406250   0.812500 0
  0.968750   0.812500 0
  0.468750   0.562500 0
  0.593750   0.062500 0
  0.218750   0.687500 0
  0.156250   0.937500 0
  0.281250   0.437500 0
  0.062500   0.843750 0
  0.687500   0.593750 0
  0.187500   0.343750 0
  0.625000   0.843750 0
  0.125000   0.593750 0
  0.312500   0.843750 0
  0.437500   0.343750 0
  0.500000   0.093750 0
  0.375000   0.593750 0
  0.312500   0.906250 0
  0.937500   0.656250 0
  0.437500   0.406250 0
  0.875000   0.906250 0
  0.375000   0.656250 0
  0.062500   0.875000 0
  0.187500   0.375000 0
  0.250000   0.125000 0
  0.125000   0.625000 0
  0.093750   0.656250 0
  0.031250   0.906250 0
  0.218750   0.156250 0
  0.156250   0.406250 0
  0.593750   0.968750 0
  0.093750   0.718750 0
  0.031250   0.968750 0
  0.656250   0.718750 0
  0.156250   0.468750 0
  0.437500   0.906250 0
  0.625000   0.156250 0
  0.718750   0.812500 0
  0.218750   0.562500 0
  0.781250   0.562500 0
  0.281250   0.312500 0
  0.156250   0.812500 0
  0.062500   0.656250 0
  0.000000   0.906250 0
  0.187500   0.156250 0
  0.125000   0.406250 0
  0.562500   0.968750 0
  0.062500   0.718750 0
  0.000000   0.968750 0
  0.625000   0.718750 0
  0.125000   0.468750 0
  0.406250   0.968750 0
  0.968750   0.968750 0
  0.468750   0.718750 0
  0.531250   0.468750 0
  0.593750   0.218750 0
  0.406250   0.906250 0
  0.468750   0.656250 0
  0.593750   0.156250 0
  0.687500   0.781250 0
  0.187500   0.531250 0
  0.750000   0.531250 0
  0.250000   0.281250 0
  0.125000   0.781250 0
  0.781250   0.906250 0
  0.281250   0.656250 0
  0.218750   0.906250 0
  0.843750   0.656250 0
  0.343750   0.406250 0
  0.750000   0.906250 0
  0.250000   0.656250 0
  0.187500   0.906250 0
  0.812500   0.656250 0
  0.312500   0.406250 0
  0.875000   0.406250 0
  0.375000   0.156250 0
  0.812500   0.968750 0
  0.312500   0.718750 0
  0.250000   0.968750 0
  0.875000   0.718750 0
  0.375000   0.468750 0
  0.781250   0.937500 0
  0.281250   0.687500 0
  0.218750   0.937500 0
  0.843750   0.687500 0
  0.343750   0.437500 0
  0.718750   0.875000 0
  0.218750   0.625000 0
  0.156250   0.875000 0
  0.781250   0.625000 0
  0.281250   0.375000 0
  0.750000   0.937500 0
  0.250000   0.687500 0
  0.187500   0.937500 0
  0.875000   0.437500 0
  0.375000   0.187500 0
  0.812500   0.687500 0
  0.312500   0.437500 0
  0.687500   0.875000 0
  0.187500   0.625000 0
  0.750000   0.625000 0
  0.250000   0.375000 0
  0.125000   0.875000 0
  0.812500   1.000000 0
  0.312500   0.750000 0
  0.250000   1.000000 0
  0.875000   0.750000 0
  0.375000   0.500000 0
  0.562500   1.000000 0
  0.062500   0.750000 0
  0.000000   1.000000 0
  0.625000   0.750000 0
  0.125000   0.500000 0
  0.406250   1.000000 0
  0.968750   1.000000 0
  0.468750   0.750000 0
  0.656250   0.000000 0
  0.531250   0.500000 0
  0.593750   0.250000 0
  0.406250   0.937500 0
  0.468750   0.687500 0
  0.593750   0.187500 0
  0.687500   0.812500 0
  0.187500   0.562500 0
  0.750000   0.562500 0
  0.250000   0.312500 0
  0.125000   0.812500 0
  0.437500   0.843750 0
  0.625000   0.093750 0
  0.093750   0.593750 0
  0.156250   0.343750 0
  0.218750   0.093750 0
  0.031250   0.843750 0
  0.281250   0.937500 0
  0.843750   0.937500 0
  0.343750   0.687500 0
  0.906250   0.687500 0
  0.406250   0.437500 0
  0.156250   0.968750 0
  0.218750   0.718750 0
  0.281250   0.468750 0
  0.343750   0.218750 0
  0.156250   1.000000 0
  0.406250   0.000000 0
  0.281250   0.500000 0
  0.343750   0.250000 0
  0.218750   0.750000 0
  0.187500   0.968750 0
  0.250000   0.718750 0
  0.375000   0.218750 0
  0.312500   0.468750 0
  0.187500   1.000000 0
  0.312500   0.500000 0
  0.375000   0.250000 0
  0.437500   0.000000 0
  0.250000   0.750000 0
  0.031250   0.781250 0
  0.656250   0.531250 0
  0.156250   0.281250 0
  0.593750   0.781250 0
  0.093750   0.531250 0
  0.000000   0.781250 0
  0.625000   0.531250 0
  0.125000   0.281250 0
  0.562500   0.781250 0
  0.062500   0.531250 0
  0.781250   0.968750 0
  0.281250   0.718750 0
  0.218750   0.968750 0
  0.843750   0.718750 0
  0.343750   0.468750 0
  0.281250   0.968750 0
  0.843750   0.968750 0
  0.343750   0.718750 0
  0.906250   0.718750 0
  0.406250   0.468750 0
  0.281250   1.000000 0
  0.906250   0.750000 0
  0.406250   0.500000 0
  0.843750   1.000000 0
  0.343750   0.750000 0
  0.531250   0.000000 0
  0.718750   0.843750 0
  0.218750   0.593750 0
  0.156250   0.843750 0
  0.781250   0.593750 0
  0.281250   0.343750 0
  0.687500   0.843750 0
  0.187500   0.593750 0
  0.750000   0.593750 0
  0.250000   0.343750 0
  0.125000   0.843750 0
  0.218750   0.875000 0
  0.843750   0.625000 0
  0.343750   0.375000 0
  0.781250   0.875000 0
  0.281250   0.625000 0
  0.156250   0.906250 0
  0.781250   0.656250 0
  0.281250   0.406250 0
  0.718750   0.906250 0
  0.218750   0.656250 0
  0.031250   1.000000 0
  0.656250   0.750000 0
  0.156250   0.500000 0
  0.593750   1.000000 0
  0.093750   0.750000 0
  0.218750   1.000000 0
  0.343750   0.500000 0
  0.468750   0.000000 0
  0.406250   0.250000 0
  0.281250   0.750000 0
  0.593750   0.406250 0
  0.093750   0.156250 0
  0.531250   0.656250 0
  0.031250   0.406250 0
[...]
POINT_DATA 1089
SCALARS scalar_value float 1
LOOKUP_TABLE default
-0.237516
-0.239115
-0.232977
-0.240498
-0.221588
-0.222517
-0.222988
-0.241803
-0.229325
-0.226174
-0.224425
-0.24049
-0.280575
-0.266297
-0.263051
-0.265569
-0.268914
-0.272211
-0.23264
-0.25595
-0.251759
-0.239729
-0.242321
-0.245797
-0.242391
-0.243943
-0.223807
-0.267304
-0.248361
-0.255606
-0.221642
-0.256733
-0.235615
-0.222654
-0.262161
-0.22568
-0.273239
-0.260356
-0.25349
-0.262825
-0.234867
-0.261019
-0.222442
-0.243074
-0.241343
-0.267827
-0.242995
-0.245587
-0.26775
-0.251362
-0.262784
-0.239261
-0.239232
-0.223601
-0.267617
-0.230947
-0.277993
-0.236624
-0.257102
-0.242745
-0.249363
-0.239218
-0.252319
-0.220881
-0.259261
-0.277431
-0.238384
-0.251805
-0.221561
-0.273296
-0.226928
-0.273009
-0.234599
-0.245849
-0.258835
-0.236108
-0.256383
-0.235876
-0.24833
-0.241135
-0.257092
-0.221814
-0.241423
-0.251404
-0.220894
-0.250681
-0.255872
-0.246536
-0.243459
-0.245571
-0.220909
-0.246172
-0.242755
-0.2394
-0.242013
-0.240826
-0.244552
-0.244497
-0.262102
-0.273554
-0.21622
-0.203398
-0.232354
-0.177993
-0.229411
-0.125964
-0.24041
-0.238567
-0.221863
-0.203792
-0.455905
-0.652553
-0.202422
-0.21575
0
-0.331068
-0.267429
-0.225969
-0.333788
-0.243426
-0.214073
-0.248223
-0.221773
-0.372854
-0.234022
-0.211659
-0.258655
-0.319989
-0.238138
-0.215653
-0.663845
-0.276312
-0.21113
-0.153838
-0.56497
-0.267
-0.143586
-0.242615
-0.21643
-0.0378775
-0.241058
-0.235167
-0.22292
-0.205227
-0.436643
-0.257357
-0.298314
-0.228479
-0.214809
-0.619131
-0.275323
-0.125996
-0.208824
-0.547425
-0.274417
-0.223522
-0.108857
-0.270282
-0.233469
-0.345141
-0.245333
-0.214487
-0.252037
-0.228144
-0.387109
-0.236813
-0.212506
-0.235455
-0.214131
-0.0162791
-0.239434
-0.22732
-0.39192
-0.221692
-0.200571
-0.23986
-0.040906
-0.216496
-0.241988
-0.231324
-0.224779
-0.206601
-0.414619
-0.280376
-0.194364
-0.235065
-0.0203707
-0.213912
-0.240585
-0.224634
-0.223586
-0.20279
-0.377474
-0.242998
-0.202935
-0.0376066
-0.462258
-0.255676
-0.254513
-0.221878
-0.0347596
-0.272411
-0.513808
-0.213614
-0.487853
-0.224047
-0.207865
-0.242659
-0.246549
-0.28831
-0.214077
-0.0712673
-0.221128
-0.297732
-0.244309
-0.214962
-0.271135
-0.223862
-0.530789
-0.209565
-0.113062
-0.262299
-0.281718
-0.579593
-0.154068
-0.211229
-0.259558
-0.321943
-0.670034
-0.23604
-0.21684
-0.273367
-0.140205
-0.24367
-0.220371
-0.230343
-0.208762
-0.376813
-0.286147
-0.58279
-0.153672
-0.21153
-0.26172
-0.322437
-0.668616
-0.233256
-0.217695
-0.284925
-0.280541
-0.226123
-0.21919
-0.192367
-0.279078
-0.224074
-0.138036
-0.241592
-0.220548
-0.226494
-0.204285
-0.364762
-0.263
-0.231231
-0.365121
-0.242214
-0.213668
-0.257828
-0.237417
-0.409775
-0.240657
-0.213265
-0.222301
-0.153237
-0.273114
-0.244081
-0.360662
-0.246955
-0.215162
-0.267206
-0.241958
-0.386289
-0.244319
-0.214116
-0.24882
-0.235959
-0.423573
-0.234205
-0.21172
-0.263001
-0.256122
-0.460529
-0.226519
-0.178088
-0.242803
-0.213863
-0.247057
-0.249673
-0.231722
-0.210957
-0.463512
-0.276536
-0.263194
-0.377555
-0.249065
-0.216554
-0.264032
-0.3531
-0.735743
-0.237067
-0.22178
-0.287999
-0.283917
-0.229599
0
-0.220057
-0.207868
-0.282423
-0.224806
-0.167676
-0.242846
-0.224814
-0.227342
-0.207673
-0.395093
-0.258156
-0.0698788
-0.251388
-0.206956
-0.0718912
-0.504869
-0.318141
-0.27231
-0.227472
-0.245799
-0.214863
-0.566008
-0.297738
-0.214483
-0.194789
-0.610465
0
-0.215418
-0.20385
-0.31638
-0.50531
-0.277523
-0.194787
-0.214674
-0.545868
-0.215528
-0.20455
0
-0.296647
-0.402259
-0.220952
-0.198931
-0.238018
-0.229041
-0.404715
-0.220874
-0.197915
-0.23664
-0.231315
-0.270124
-0.257035
-0.421503
-0.245849
-0.214857
-0.325549
-0.275352
-0.233765
-0.247353
-0.215712
-0.332751
-0.249013
-0.217372
-0.278288
-0.249067
0
-0.245281
-0.226183
-0.398874
-0.231629
-0.210726
-0.244048
-0.234459
-0.228603
-0.209823
-0.425706
-0.354658
-0.2391
-0.213107
-0.257405
-0.223814
-0.462204
-0.237894
-0.212617
-0.254272
-0.251559
-0.732083
-0.238715
-0.219894
-0.26164
-0.347377
-0.459464
-0.215952
0
-0.205389
-0.27651
-0.218555
-0.149841
-0.224286
-0.211631
-0.0171514
-0.207836
-0.216492
-0.329566
-0.236063
-0.212244
-0.253004
-0.220049
-0.346422
-0.23408
-0.210941
-0.248973
-0.218001
-0.337516
-0.187225
-0.229012
-0.205828
-0.242328
-0.218353
-0.35648
-0.190364
-0.214682
-0.644384
-0.316386
-0.24066
-0.216681
-0.679604
-0.261221
-0.341393
-0.176439
-0.212927
-0.589368
-0.293023
-0.247426
-0.216605
-0.277051
-0.229263
-0.307884
-0.215695
-0.223804
-0.289417
-0.247505
-0.217505
-0.278268
-0.227284
-0.296905
-0.228499
-0.219868
-0.24612
-0.216306
-0.293339
-0.275298
-0.225043
-0.154116
-0.22595
-0.214992
-0.215134
-0.285789
-0.223009
-0.101254
-0.246024
-0.215544
-0.274081
-0.22543
-0.302374
-0.225324
-0.215398
-0.214548
-0.0965523
-0.222684
-0.293481
-0.247576
-0.218684
-0.279856
-0.226331
-0.289913
-0.185925
-0.223917
-0.283721
-0.131516
-0.230576
-0.218644
-0.26498
-0.323937
-0.238657
-0.212837
-0.258675
-0.219912
-0.322721
-0.209155
-0.0191339
-0.216753
-0.311112
-0.241283
-0.213657
-0.26358
-0.221991
-0.327294
-0.211705
-0.0392307
-0.218302
-0.318471
-0.21715
-0.119582
-0.243915
-0.21446
-0.31119
-0.26977
-0.224151
-0.0695107
-0.213581
-0.303303
-0.220334
-0.192639
0
-0.183497
-0.192384
0
-0.11686
-0.209105
-0.543262
-0.26841
-0.17318
-0.213771
-0.296912
-0.183914
0
-0.226406
-0.191947
-0.249076
-0.218156
-0.31217
-0.280067
-0.238869
0
-0.206794
0
-0.231261
-0.226087
-0.239933
-0.218134
-0.719481
-0.260799
-0.344718
-0.174581
-0.213116
-0.60906
-0.296662
-0.231234
-0.20683
-0.24345
-0.216915
-0.34506
-0.193022
-0.214381
-0.619931
-0.312286
-0.232437
-0.209897
-0.358849
-0.245419
-0.21864
-0.260489
-0.222796
-0.267159
-0.0858329
-0.216483
-0.0716436
-0.206067
-0.0742792
-0.509052
-0.259622
-0.242305
-0.214138
-0.306664
-0.266711
-0.222161
-0.042958
-0.212536
-0.29685
-0.219082
-0.218315
-0.169025
-0.21673
-0.144529
-0.226427
-0.219664
-0.219452
-0.183461
-0.234933
-0.223337
-0.267093
-0.359052
-0.227343
-0.219929
-0.251144
-0.220831
-0.238416
-0.213973
-0.0135104
-0.251132
-0.220525
-0.243801
-0.0114879
-0.266904
-0.208996
-0.223627
-0.266697
-0.11365
-0.124292
-0.217773
-0.255832
-0.221457
-0.239042
-0.0606767
-0.214798
-0.265473
-0.0367302
-0.202548
-0.0364088
-0.246984
-0.28402
-0.230486
-0.283048
0
-0.208258
-0.220254
-0.277756
-0.169376
-0.222576
-0.0858458
-0.215525
-0.274952
-0.073625
-0.205863
-0.0806883
-0.26561
-0.22488
-0.21167
-0.254475
-0.28953
-0.218563
-0.0186087
-0.211108
-0.2743
-0.198704
-0.0192987
-0.222858
-0.206255
-0.224176
-0.211996
-0.218239
-0.152103
-0.235541
-0.21198
-0.507362
-0.252281
-0.265219
-0.0444575
-0.213299
-0.282737
-0.219834
-0.206047
-0.0871393
-0.267785
-0.224496
-0.21157
-0.217572
-0.0201163
-0.210132
-0.287153
-0.199234
-0.0248437
-0.260573
-0.222897
-0.206052
-0.217241
-0.0883108
-0.229155
-0.210221
-0.507105
-0.24633
-0.257507
-0.226175
-0.208879
-0.243326
-0.242083
-0.454848
-0.224965
-0.216032
-0.21876
-0.168624
-0.213184
-0.179464
-0.556647
-0.282706
-0.25139
-0.21991
-0.235882
-0.0328239
-0.212469
-0.252725
-0.011954
-0.197819
-0.0135576
-0.23365
-0.235948
-0.211943
-0.252099
-0.219315
-0.262352
-0.0151926
-0.0146313
-0.198471
-0.234814
-0.202769
-0.0485662
-0.223627
-0.20891
-0.211453
-0.153198
-0.540233
-0.270768
-0.20275
-0.0396815
-0.250149
-0.223582
-0.208734
-0.213138
-0.0321005
-0.232653
-0.224707
-0.117641
-0.216124
-0.22328
-0.280528
-0.10502
-0.126235
-0.208629
-0.279082
-0.227065
-0.21529
-0.260887
-0.300594
-0.213864
-0.274322
-0.220586
-0.0401738
-0.276287
-0.224847
-0.286913
-0.249174
-0.219022
-0.281794
-0.232778
-0.29973
0
0
-0.215613
-0.0603594
-0.214562
-0.281445
-0.222059
-0.0749589
-0.233232
-0.203632
0
-0.170946
-0.217428
-0.161814
-0.249188
-0.219706
-0.283247
-0.23034
-0.292445
-0.205869
0
-0.217736
-0.150214
-0.24757
-0.253955
-0.202615
-0.221935
-0.0568128
-0.216204
-0.0357848
-0.616802
-0.30158
-0.266049
-0.169544
-0.219191
-0.16685
-0.2449
-0.0702818
-0.217611
-0.28025
-0.252685
-0.105169
-0.125097
-0.218269
-0.362413
-0.271064
-0.192677
-0.220348
0
-0.203894
0
-0.276587
0
-0.19234
-0.220338
-0.273767
-0.1836
-0.21962
-0.190602
-0.324044
-0.268983
-0.183785
-0.219752
-0.185218
-0.271284
-0.169819
-0.219043
-0.170273
-0.291244
-0.259622
-0.141821
-0.151501
-0.218756
-0.258858
-0.111402
-0.125717
-0.218099
-0.249301
-0.0707244
-0.0889887
-0.217542
-0.219219
-0.0938276
-0.176778
-0.183585
-0.219834
-0.04604
-0.0362608
-0.20482
0
-0.195889
-0.2225
0
-0.156897
-0.0212516
-0.0155696
-0.184315
-0.220196
-0.112695
-0.186229
-0.221184
-0.133512
-0.193088
-0.229854
-0.120607
-0.0748274
-0.147027
-0.221536
-0.0753149
-0.132379
-0.221037
-0.155933
-0.185665
-0.220052
-0.0664728
-0.217464
-0.199708
-0.22761
0
0
-0.128913
-0.226004
-0.107478
-0.223661
-0.115707
-0.197961
-0.225502
0
0
-0.137183
-0.0204334
-0.0144626
-0.165604
-0.0193905
-0.0135284
-0.158987
-0.122342
-0.220427
-0.0421608
-0.0241916
-0.213046
-0.221795
-0.096117
-0.207538
-0.21385
-0.092024
-0.165096
-0.226436
-0.151864
-0.170295
-0.219306
-0.0989133
-0.218368
-0.124695
-0.153438
-0.218898
-0.0406495
-0.0316775
-0.192277
-0.0440064
-0.0327883
-0.196184
-0.0659182
-0.112289
-0.218668
-0.0559409
-0.0602127
-0.211749
-0.0584555
-0.0654898
-0.211371
-0.189764
-0.23024
-0.120297
-0.206065
-0.233299
0
-0.16306
0
-0.156413
-0.0350322
-0.196973
-0.0358412
-0.0325612
-0.196053
-0.0475484
-0.0666864
-0.207518
-0.131461
-0.170575
-0.219475
-0.0642376
-0.111621
-0.218164
-0.0486765
-0.0611896
-0.208556
-0.0616838
-0.100979
-0.21634
-0.108821
-0.219005
-0.0519707
-0.0554725
-0.210467
-0.205194
-0.233239
-0.218354
-0.0875079
-0.0606457
-0.0938769
-0.214545
-0.0378694
-0.0307848
-0.194275
-0.154025
-0.226142
-0.229937
0
-0.133637
-0.0790161
-0.218171
-0.0458624
-0.039532
-0.214418
-0.186487
-0.230277
-0.0733631
-0.21811
-0.0464151
-0.0400744
-0.211443
-0.215545
-0.0432455
-0.0825826
-0.220101
-0.0614992
-0.0719871
-0.215613
-0.217161
-0.0664125
-0.0149431
-0.211525
-0.0253356
-0.0943193
-0.213997
-0.0858678
-0.225731
-0.0670625
-0.112143
-0.21934
-0.0176095
-0.183585
-0.121841
-0.220625
-0.106468
-0.227926
-0.0743546
-0.151511
-0.222957
-0.0179687
-0.176301
-0.224093
-0.0894019
-0.113153
-0.21853
-0.0695919
-0.233236
-0.161618
-0.17354
-0.226659
-0.0901664
-0.0186683
-0.0153401
-0.16735
0
-0.231242
-0.146589
-0.221629
-0.0773604
-0.0689014
-0.213413
-0.0601893
0
-0.182194
0
-0.193478
-0.22082
-0.180528
-0.226546
-0.0851952
-0.187126
-0.200409
-0.192791
-0.220406
0
0
-0.197786
-0.0735432
-0.152268
-0.223407
-0.111351
-0.229175
-0.150316
-0.22611
-0.0739658
-0.117539
-0.186424
-0.0865199
-0.199225
-0.0220754
-0.0169975
-0.200799
-0.0637514
-0.216809
-0.0234672
-0.0182382
-0.208932
-0.178817
-0.230255
-0.207442
