# vtk DataFile Version 2.0
Unstructured Grid by M++
ASCII
DATASET UNSTRUCTURED_GRID
POINTS 1089 float
  0.718750   0.687500 0
  0.750000   0.687500 0
  0.718750   0.656250 0
  0.750000   0.718750 0
  0.625000   0.562500 0
  0.625000   0.593750 0
  0.656250   0.593750 0
  0.750000   0.750000 0
  0.687500   0.656250 0
  0.687500   0.625000 0
  0.656250   0.625000 0
  0.906250   0.593750 0
  1.000000   0.968750 0
  0.750000   0.968750 0
  0.718750   0.968750 0
  0.718750   1.000000 0
  0.750000   1.000000 0
  0.906250   0.906250 0
  0.843750   0.531250 0
  0.656250   0.937500 0
  0.656250   0.906250 0
  0.562500   0.812500 0
  0.562500   0.843750 0
  0.593750   0.875000 0
  0.593750   0.843750 0
  0.812500   0.718750 0
  0.625000   0.625000 0
  0.968750   0.875000 0
  0.531250   0.875000 0
  0.625000   0.937500 0
  0.562500   0.562500 0
  0.906250   0.812500 0
  0.531250   0.781250 0
  0.562500   0.593750 0
  0.906250   0.843750 0
  0.625000   0.656250 0
  0.968750   0.906250 0
  0.687500   0.968750 0
  0.812500   0.812500 0
  0.687500   1.000000 0
  0.687500   0.687500 0
  0.937500   0.843750 0
  0.593750   0.593750 0
  1.000000   0.625000 0
  0.968750   0.593750 0
  0.906250   0.875000 0
  0.968750   0.625000 0
  0.625000   0.875000 0
  0.875000   0.875000 0
  0.625000   0.906250 0
  0.875000   0.843750 0
  0.531250   0.812500 0
  0.968750   0.562500 0
  0.593750   0.625000 0
  0.937500   0.875000 0
  0.656250   0.687500 0
  1.000000   0.937500 0
  0.875000   0.562500 0
  0.687500   0.937500 0
  0.937500   0.625000 0
  0.812500   0.781250 0
  0.937500   0.562500 0
  0.875000   0.781250 0
  0.531250   0.531250 0
  0.718750   0.937500 0
  0.968750   0.937500 0
  0.906250   0.562500 0
  0.843750   0.781250 0
  0.593750   0.562500 0
  1.000000   0.906250 0
  0.656250   0.656250 0
  0.937500   0.906250 0
  0.875000   0.531250 0
  0.812500   0.750000 0
  0.656250   0.968750 0
  0.937500   0.531250 0
  0.843750   0.812500 0
  0.906250   0.531250 0
  0.843750   0.750000 0
  0.937500   0.593750 0
  0.875000   0.812500 0
  0.531250   0.562500 0
  1.000000   0.593750 0
  0.562500   0.906250 0
  0.562500   0.531250 0
  0.593750   0.906250 0
  0.593750   0.937500 0
  0.562500   0.875000 0
  0.781250   0.750000 0
  0.781250   0.781250 0
  0.593750   0.531250 0
  1.000000   0.687500 0
  0.531250   0.843750 0
  0.718750   0.718750 0
  0.781250   0.718750 0
  0.781250   0.687500 0
  1.000000   0.656250 0
  0.968750   0.656250 0
  0.843750   0.843750 0
  0.781250   1.000000 0
  0.656250   0.312500 0
  0.531250   0.250000 0
  0.875000   0.500000 0
  0.531250   0.218750 0
  0.875000   0.468750 0
  0.531250   0.156250 0
  0.593750   0.812500 0
  0.093750   0.562500 0
  0.656250   0.562500 0
  0.156250   0.312500 0
  0.031250   0.812500 0
  0.125000   1.000000 0
  0.312500   0.250000 0
  0.250000   0.500000 0
  0.375000   0.000000 0
  0.187500   0.750000 0
  0.812500   0.906250 0
  0.312500   0.656250 0
  0.250000   0.906250 0
  0.875000   0.656250 0
  0.375000   0.406250 0
  0.750000   0.843750 0
  0.250000   0.593750 0
  0.187500   0.843750 0
  0.812500   0.593750 0
  0.312500   0.343750 0
  0.625000   0.968750 0
  0.125000   0.718750 0
  0.687500   0.718750 0
  0.187500   0.468750 0
  0.062500   0.968750 0
  0.125000   0.656250 0
  0.187500   0.406250 0
  0.250000   0.156250 0
  0.062500   0.906250 0
  0.468750   0.906250 0
  0.656250   0.156250 0
  0.468750   0.812500 0
  0.593750   0.312500 0
  0.656250   0.062500 0
  0.625000   0.812500 0
  0.125000   0.562500 0
  0.687500   0.562500 0
  0.187500   0.312500 0
  0.062500   0.812500 0
  0.562500   0.937500 0
  0.062500   0.687500 0
  0.625000   0.687500 0
  0.125000   0.437500 0
  0.000000   0.937500 0
  0.062500   0.625000 0
  0.187500   0.125000 0
  0.125000   0.375000 0
  0.000000   0.875000 0
  0.406250   0.875000 0
  0.468750   0.625000 0
  0.593750   0.125000 0
  0.812500   0.937500 0
  0.312500   0.687500 0
  0.250000   0.937500 0
  0.875000   0.687500 0
  0.375000   0.437500 0
  0.750000   0.875000 0
  0.250000   0.625000 0
  0.187500   0.875000 0
  0.812500   0.625000 0
  0.312500   0.375000 0
  0.468750   0.781250 0
  0.593750   0.281250 0
  0.656250   0.031250 0
  0.625000   0.781250 0
  0.125000   0.531250 0
  0.062500   0.781250 0
  0.687500   0.531250 0
  0.187500   0.281250 0
  0.500000   0.812500 0
  0.687500   0.062500 0
  0.625000   0.312500 0
  0.656250   0.812500 0
  0.156250   0.562500 0
  0.718750   0.562500 0
  0.218750   0.312500 0
  0.093750   0.812500 0
  0.437500   0.968750 0
  0.625000   0.218750 0
  0.500000   0.781250 0
  0.687500   0.031250 0
  0.625000   0.281250 0
  0.656250   0.781250 0
  0.156250   0.531250 0
  0.718750   0.531250 0
  0.218750   0.281250 0
  0.093750   0.781250 0
  0.062500   0.562500 0
  0.125000   0.312500 0
  0.187500   0.062500 0
  0.000000   0.812500 0
  0.406250   0.812500 0
  0.968750   0.812500 0
  0.468750   0.562500 0
  0.593750   0.062500 0
  0.218750   0.687500 0
  0.156250   0.937500 0
  0.281250   0.437500 0
  0.062500   0.843750 0
  0.687500   0.593750 0
  0.187500   0.343750 0
  0.625000   0.843750 0
  0.125000   0.593750 0
  0.312500   0.843750 0
  0.437500   0.343750 0
  0.500000   0.093750 0
  0.375000   0.593750 0
  0.312500   0.906250 0
  0.937500   0.656250 0
  0.437500   0.406250 0
  0.875000   0.906250 0
  0.375000   0.656250 0
  0.062500   0.875000 0
  0.187500   0.375000 0
  0.250000   0.125000 0
  0.125000   0.625000 0
  0.093750   0.656250 0
  0.031250   0.906250 0
  0.218750   0.156250 0
  0.156250   0.406250 0
  0.593750   0.968750 0
  0.093750   0.718750 0
  0.031250   0.968750 0
  0.656250   0.718750 0
  0.156250   0.468750 0
  0.437500   0.906250 0
  0.625000   0.156250 0
  0.718750   0.812500 0
  0.218750   0.562500 0
  0.781250   0.562500 0
  0.281250   0.312500 0
  0.156250   0.812500 0
  0.062500   0.656250 0
  0.000000   0.906250 0
  0.187500   0.156250 0
  0.125000   0.406250 0
  0.562500   0.968750 0
  0.062500   0.718750 0
  0.000000   0.968750 0
  0.625000   0.718750 0
  0.125000   0.468750 0
  0.406250   0.968750 0
  0.968750   0.968750 0
  0.468750   0.718750 0
  0.531250   0.468750 0
  0.593750   0.218750 0
  0.406250   0.906250 0
  0.468750   0.656250 0
  0.593750   0.156250 0
  0.687500   0.781250 0
  0.187500   0.531250 0
  0.750000   0.531250 0
  0.250000   0.281250 0
  0.125000   0.781250 0
  0.781250   0.906250 0
  0.281250   0.656250 0
  0.218750   0.906250 0
  0.843750   0.656250 0
  0.343750   0.406250 0
  0.750000   0.906250 0
  0.250000   0.656250 0
  0.187500   0.906250 0
  0.812500   0.656250 0
  0.312500   0.406250 0
  0.875000   0.406250 0
  0.375000   0.156250 0
  0.812500   0.968750 0
  0.312500   0.718750 0
  0.250000   0.968750 0
  0.875000   0.718750 0
  0.375000   0.468750 0
  0.781250   0.937500 0
  0.281250   0.687500 0
  0.218750   0.937500 0
  0.843750   0.687500 0
  0.343750   0.437500 0
  0.718750   0.875000 0
  0.218750   0.625000 0
  0.156250   0.875000 0
  0.781250   0.625000 0
  0.281250   0.375000 0
  0.750000   0.937500 0
  0.250000   0.687500 0
  0.187500   0.937500 0
  0.875000   0.437500 0
  0.375000   0.187500 0
  0.812500   0.687500 0
  0.312500   0.437500 0
  0.687500   0.875000 0
  0.187500   0.625000 0
  0.750000   0.625000 0
  0.250000   0.375000 0
  0.125000   0.875000 0
  0.812500   1.000000 0
  0.312500   0.750000 0
  0.250000   1.000000 0
  0.875000   0.750000 0
  0.375000   0.500000 0
  0.562500   1.000000 0
  0.062500   0.750000 0
  0.000000   1.000000 0
  0.625000   0.750000 0
  0.125000   0.500000 0
  0.406250   1.000000 0
  0.968750   1.000000 0
  0.468750   0.750000 0
  0.656250   0.000000 0
  0.531250   0.500000 0
  0.593750   0.250000 0
  0.406250   0.937500 0
  0.468750   0.687500 0
  0.593750   0.187500 0
  0.687500   0.812500 0
  0.187500   0.562500 0
  0.750000   0.562500 0
  0.250000   0.312500 0
  0.125000   0.812500 0
  0.437500   0.843750 0
  0.625000   0.093750 0
  0.093750   0.593750 0
  0.156250   0.343750 0
  0.218750   0.093750 0
  0.031250   0.843750 0
  0.281250   0.937500 0
  0.843750   0.937500 0
  0.343750   0.687500 0
  0.906250   0.687500 0
  0.406250   0.437500 0
  0.156250   0.968750 0
  0.218750   0.718750 0
  0.281250   0.468750 0
  0.343750   0.218750 0
  0.156250   1.000000 0
  0.406250   0.000000 0
  0.281250   0.500000 0
  0.343750   0.250000 0
  0.218750   0.750000 0
  0.187500   0.968750 0
  0.250000   0.718750 0
  0.375000   0.218750 0
  0.312500   0.468750 0
  0.187500   1.000000 0
  0.312500   0.500000 0
  0.375000   0.250000 0
  0.437500   0.000000 0
  0.250000   0.750000 0
  0.031250   0.781250 0
  0.656250   0.531250 0
  0.156250   0.281250 0
  0.593750   0.781250 0
  0.093750   0.531250 0
  0.000000   0.781250 0
  0.625000   0.531250 0
  0.125000   0.281250 0
  0.562500   0.781250 0
  0.062500   0.531250 0
  0.781250   0.968750 0
  0.281250   0.718750 0
  0.218750   0.968750 0
  0.843750   0.718750 0
  0.343750   0.468750 0
  0.281250   0.968750 0
  0.843750   0.968750 0
  0.343750   0.718750 0
  0.906250   0.718750 0
  0.406250   0.468750 0
  0.281250   1.000000 0
  0.906250   0.750000 0
  0.406250   0.500000 0
  0.843750   1.000000 0
  0.343750   0.750000 0
  0.531250   0.000000 0
  0.718750   0.843750 0
  0.218750   0.593750 0
  0.156250   0.843750 0
  0.781250   0.593750 0
  0.281250   0.343750 0
  0.687500   0.843750 0
  0.187500   0.593750 0
  0.750000   0.593750 0
  0.250000   0.343750 0
  0.125000   0.843750 0
  0.218750   0.875000 0
  0.843750   0.625000 0
  0.343750   0.375000 0
  0.781250   0.875000 0
  0.281250   0.625000 0
  0.156250   0.906250 0
  0.781250   0.656250 0
  0.281250   0.406250 0
  0.718750   0.906250 0
  0.218750   0.656250 0
  0.031250   1.000000 0
  0.656250   0.750000 0
  0.156250   0.500000 0
  0.593750   1.000000 0
  0.093750   0.750000 0
  0.218750   1.000000 0
  0.343750   0.500000 0
  0.468750   0.000000 0
  0.406250   0.250000 0
  0.281250   0.750000 0
  0.593750   0.406250 0
  0.093750   0.156250 0
  0.531250   0.656250 0
  0.031250   0.406250 0
[...]
POINT_DATA 1089
SCALARS scalar_value float 1
LOOKUP_TABLE default
-0.285716
-0.285599
-0.284946
-0.28687
-0.28352
-0.283781
-0.284078
-0.288693
-0.284945
-0.284528
-0.284412
-0.285142
-0.337266
-0.302456
-0.301235
-0.301996
-0.303969
-0.312045
-0.284496
-0.299498
-0.298966
-0.294129
-0.295683
-0.297577
-0.296434
-0.286171
-0.284162
-0.302684
-0.296008
-0.299255
-0.282136
-0.295157
-0.290375
-0.282248
-0.298082
-0.284851
-0.309861
-0.300615
-0.295075
-0.301231
-0.285624
-0.298788
-0.283233
-0.285601
-0.285344
-0.303075
-0.285533
-0.298015
-0.301754
-0.298676
-0.297517
-0.292714
-0.285095
-0.283634
-0.302913
-0.285622
-0.321265
-0.284806
-0.299958
-0.28541
-0.291051
-0.285036
-0.291475
-0.279565
-0.300567
-0.321924
-0.28495
-0.291215
-0.283048
-0.309414
-0.284933
-0.311268
-0.284605
-0.287762
-0.3001
-0.284748
-0.294532
-0.284692
-0.287975
-0.285249
-0.294595
-0.280313
-0.28538
-0.2978
-0.281827
-0.298312
-0.299019
-0.296885
-0.288087
-0.291416
-0.282883
-0.286453
-0.294603
-0.287193
-0.286359
-0.285472
-0.285896
-0.28581
-0.297445
-0.313799
-0.231071
-0.132112
-0.284205
-0.0961302
-0.283499
-0.0412364
-0.294863
-0.200575
-0.283884
-0.189133
-0.2547
-0.319322
-0.181268
-0.197691
0
-0.25407
-0.303725
-0.251695
-0.280191
-0.285375
-0.198768
-0.298105
-0.212641
-0.260195
-0.284691
-0.19311
-0.299819
-0.24624
-0.287433
-0.193409
-0.289962
-0.22659
-0.191689
-0.170672
-0.266734
-0.295846
-0.0437725
-0.288689
-0.210762
-0.0138957
-0.295503
-0.199799
-0.284126
-0.189316
-0.255118
-0.298641
-0.240455
-0.285663
-0.191785
-0.279694
-0.220454
-0.159065
-0.190412
-0.259969
-0.289254
-0.275804
-0.0281526
-0.308846
-0.256854
-0.301578
-0.285774
-0.202141
-0.299514
-0.227004
-0.263579
-0.284826
-0.194083
-0.286357
-0.181093
-0.00581261
-0.293381
-0.196164
-0.253578
-0.283986
-0.187941
-0.290633
-0.0157737
-0.218642
-0.295972
-0.200312
-0.284318
-0.189498
-0.255631
-0.305209
-0.0952974
-0.288618
-0.00617888
-0.190561
-0.293604
-0.196286
-0.284202
-0.187661
-0.254036
-0.202858
-0.188951
-0.111765
-0.254435
-0.28371
-0.296286
-0.269299
-0.0144659
-0.24523
-0.278414
-0.195258
-0.256547
-0.284271
-0.190237
-0.296963
-0.207792
-0.276951
-0.19788
-0.0327416
-0.243692
-0.292526
-0.285654
-0.212445
-0.310953
-0.259499
-0.259523
-0.190878
-0.165059
-0.216434
-0.229229
-0.26759
-0.170396
-0.19131
-0.299706
-0.245875
-0.289241
-0.287496
-0.192961
-0.294688
-0.0396451
-0.295676
-0.202525
-0.284485
-0.190481
-0.25719
-0.230942
-0.268961
-0.168817
-0.191043
-0.299761
-0.245744
-0.289503
-0.287478
-0.192773
-0.311358
-0.337741
-0.280789
-0.271725
-0.0889973
-0.293805
-0.27775
-0.038195
-0.293226
-0.197053
-0.284334
-0.187289
-0.254698
-0.301512
-0.247428
-0.272894
-0.285235
-0.196422
-0.300437
-0.240526
-0.269121
-0.285057
-0.195083
-0.281443
-0.123448
-0.317716
-0.262729
-0.344774
-0.286407
-0.208164
-0.303565
-0.253634
-0.290785
-0.285604
-0.198607
-0.299018
-0.219251
-0.261143
-0.284749
-0.193276
-0.301419
-0.249649
-0.283164
-0.282549
-0.138047
-0.285484
-0.196878
-0.298614
-0.215871
-0.284665
-0.192405
-0.260032
-0.340675
-0.267448
-0.427144
-0.288084
-0.216797
-0.301106
-0.250978
-0.298739
-0.290343
-0.194037
-0.324923
-0.363907
-0.283669
0
-0.277447
-0.140535
-0.300228
-0.278829
-0.057354
-0.295938
-0.201112
-0.284416
-0.189894
-0.256292
-0.288378
-0.0198159
-0.208688
-0.19001
-0.151067
-0.256469
-0.309531
-0.316804
-0.259857
-0.285913
-0.210525
-0.302
-0.252682
-0.197217
-0.170514
-0.341715
0
-0.199581
-0.178956
-0.25558
-0.310697
-0.255524
-0.15746
-0.199875
-0.37537
-0.202306
-0.173452
0
-0.258685
-0.253124
-0.283732
-0.187977
-0.292809
-0.196299
-0.252898
-0.283394
-0.187885
-0.291942
-0.197006
-0.306312
-0.258918
-0.323733
-0.286254
-0.202338
-0.352362
-0.337446
-0.266153
-0.286662
-0.220471
-0.415437
-0.288347
-0.229107
-0.383854
-0.271622
0
-0.297995
-0.208813
-0.258711
-0.284592
-0.192334
-0.297634
-0.207228
-0.284496
-0.191464
-0.257565
-0.266735
-0.284959
-0.195067
-0.300112
-0.23571
-0.266246
-0.284946
-0.194016
-0.299853
-0.232033
-0.299526
-0.290389
-0.19429
-0.300636
-0.251286
-0.405372
-0.207078
0
-0.163028
-0.262675
-0.266027
-0.155605
-0.281826
-0.190739
-0.023659
-0.186222
-0.202304
-0.258454
-0.284798
-0.193845
-0.298071
-0.221083
-0.262603
-0.284664
-0.191168
-0.29556
-0.208938
-0.260653
-0.1777
-0.284387
-0.187108
-0.292861
-0.198399
-0.255516
-0.177359
-0.194342
-0.292347
-0.247856
-0.289803
-0.19594
-0.306979
-0.300726
-0.253078
-0.173101
-0.193123
-0.277005
-0.238396
-0.286922
-0.236387
-0.348189
-0.270973
-0.347653
-0.225032
-0.267393
-0.292684
-0.287169
-0.251896
-0.345283
-0.275025
-0.332416
-0.286647
-0.192762
-0.28635
-0.238488
-0.307408
-0.324848
-0.271183
-0.0593906
-0.2851
-0.191753
-0.2127
-0.285989
-0.262647
-0.0334741
-0.286065
-0.223003
-0.323807
-0.26476
-0.311861
-0.283322
-0.191654
-0.204256
-0.0388237
-0.253023
-0.282162
-0.28731
-0.264337
-0.341121
-0.27869
-0.320361
-0.090289
-0.27414
-0.293097
-0.0379943
-0.287108
-0.192736
-0.299962
-0.245462
-0.284964
-0.194819
-0.297851
-0.229881
-0.266103
-0.185537
-0.0175285
-0.206319
-0.261818
-0.285161
-0.196739
-0.300635
-0.2428
-0.271256
-0.191651
-0.0336128
-0.217585
-0.263738
-0.230464
-0.103104
-0.285522
-0.204059
-0.288322
-0.307659
-0.255032
-0.0381843
-0.196278
-0.271747
-0.235885
-0.183889
0
-0.179955
-0.183586
0
-0.1633
-0.190547
-0.260142
-0.218268
-0.173428
-0.192021
-0.240266
-0.179249
0
-0.19504
-0.184716
-0.288933
-0.244643
-0.396335
-0.403001
-0.275396
0
-0.154241
0
-0.287831
-0.194701
-0.290347
-0.19488
-0.301805
-0.300513
-0.252053
-0.173235
-0.192343
-0.277351
-0.239117
-0.284427
-0.186962
-0.292185
-0.200305
-0.256666
-0.175954
-0.19557
-0.296401
-0.250318
-0.284568
-0.190851
-0.258458
-0.295733
-0.204691
-0.29899
-0.272734
-0.285973
-0.0700967
-0.212467
-0.0207439
-0.189824
-0.14111
-0.256617
-0.209737
-0.285317
-0.199814
-0.276826
-0.300978
-0.247319
-0.0267608
-0.191846
-0.269005
-0.226019
-0.262652
-0.169203
-0.238508
-0.140328
-0.282994
-0.193029
-0.277062
-0.181144
-0.289826
-0.193982
-0.301721
-0.250552
-0.285402
-0.192882
-0.293565
-0.274431
-0.284131
-0.173945
-0.00602449
-0.293267
-0.264563
-0.281181
-0.00689397
-0.302744
-0.189803
-0.279032
-0.290812
-0.0278635
-0.114443
-0.239656
-0.295827
-0.258223
-0.28514
-0.0412993
-0.190932
-0.280942
-0.0171543
-0.188816
-0.0928485
-0.204511
-0.35904
-0.285982
-0.312679
0
-0.146209
-0.280877
-0.29906
-0.0614548
-0.26537
-0.0674765
-0.205708
-0.283801
-0.0237452
-0.18961
-0.125883
-0.212879
-0.28439
-0.190925
-0.29713
-0.230357
-0.223389
-0.0117794
-0.179656
-0.271218
-0.18635
-0.0203775
-0.280746
-0.189013
-0.279659
-0.190684
-0.258725
-0.149473
-0.28491
-0.193164
-0.264943
-0.299355
-0.226262
-0.0223118
-0.191926
-0.273633
-0.233109
-0.189323
-0.112913
-0.214412
-0.283465
-0.190825
-0.213981
-0.0138147
-0.184164
-0.266458
-0.186117
-0.0155264
-0.298984
-0.278008
-0.188802
-0.219669
-0.0798851
-0.284581
-0.191525
-0.259258
-0.298279
-0.215303
-0.284406
-0.190705
-0.297283
-0.206824
-0.256844
-0.280764
-0.191524
-0.270115
-0.17232
-0.194098
-0.169168
-0.277373
-0.2408
-0.29247
-0.251494
-0.284738
-0.0157904
-0.167228
-0.278133
-0.00928253
-0.187709
-0.0475455
-0.198157
-0.284751
-0.17126
-0.291725
-0.237602
-0.275077
-0.010776
-0.0328184
-0.187096
-0.198893
-0.188135
-0.0537296
-0.281062
-0.189873
-0.192342
-0.168852
-0.265754
-0.22518
-0.188609
-0.0748026
-0.205916
-0.282611
-0.190055
-0.168959
-0.0149264
-0.288973
-0.194197
-0.0991738
-0.222898
-0.270346
-0.287649
-0.0307251
-0.149033
-0.190299
-0.220811
-0.285608
-0.191695
-0.298413
-0.239931
-0.191604
-0.27778
-0.246705
-0.0193334
-0.323575
-0.276525
-0.302874
-0.289615
-0.258536
-0.388929
-0.278652
-0.366418
0
0
-0.195082
-0.0388494
-0.200205
-0.281236
-0.255466
-0.0273471
-0.284317
-0.135782
0
-0.167755
-0.253804
-0.0569722
-0.289837
-0.270789
-0.376004
-0.281608
-0.339685
-0.134183
0
-0.249388
-0.143657
-0.286485
-0.296482
-0.187825
-0.27612
-0.0399813
-0.202436
-0.0131265
-0.2788
-0.239442
-0.298334
-0.174128
-0.278049
-0.0786036
-0.292561
-0.0240554
-0.241133
-0.220646
-0.294826
-0.0337564
-0.140138
-0.260216
-0.250201
-0.302982
-0.186213
-0.283188
0
-0.161186
0
-0.305895
0
-0.185851
-0.282262
-0.30205
-0.182556
-0.280268
-0.107046
-0.245243
-0.300523
-0.183039
-0.281959
-0.121144
-0.298425
-0.174132
-0.274932
-0.0690277
-0.229762
-0.296489
-0.0508673
-0.160956
-0.270924
-0.29298
-0.0295867
-0.128517
-0.249208
-0.290596
-0.0212094
-0.094723
-0.230652
-0.279333
-0.0772541
-0.132401
-0.182219
-0.282833
-0.0313776
-0.135716
-0.26084
0
-0.184245
-0.283994
0
-0.206118
-0.0133886
-0.0900354
-0.244085
-0.281716
-0.112879
-0.178124
-0.283333
-0.159567
-0.138376
-0.283516
-0.19204
-0.123608
-0.0941607
-0.281157
-0.122256
-0.072452
-0.280855
-0.145422
-0.180162
-0.283133
-0.0275088
-0.253113
-0.182491
-0.284203
0
0
-0.232019
-0.283734
-0.192762
-0.283615
-0.179117
-0.183124
-0.284145
0
0
-0.222427
-0.0172261
-0.0731097
-0.253026
-0.0221845
-0.0497569
-0.257343
-0.0483877
-0.280856
-0.017214
-0.00762661
-0.197284
-0.282559
-0.126445
-0.274264
-0.27833
-0.153138
-0.0886183
-0.282299
-0.0903466
-0.173872
-0.280321
-0.0391922
-0.267511
-0.0589884
-0.165464
-0.275225
-0.0506437
-0.0956387
-0.2688
-0.0417436
-0.121723
-0.265556
-0.102395
-0.138213
-0.279092
-0.0801674
-0.121316
-0.275531
-0.0684761
-0.145461
-0.274347
-0.120955
-0.283504
-0.188742
-0.150208
-0.284283
0
-0.217875
0
-0.228157
-0.0621401
-0.267196
-0.0617038
-0.0432939
-0.268629
-0.087017
-0.045386
-0.274471
-0.101254
-0.173679
-0.281085
-0.104694
-0.10906
-0.279229
-0.0873272
-0.0586225
-0.275573
-0.10319
-0.078251
-0.279268
-0.0689794
-0.278228
-0.0873663
-0.0877218
-0.276288
-0.141318
-0.284323
-0.272589
-0.0462183
-0.102913
-0.0591286
-0.279083
-0.0577006
-0.0628342
-0.26978
-0.0757468
-0.282219
-0.284229
0
-0.236717
-0.0522721
-0.27513
-0.0207281
-0.127641
-0.248234
-0.106905
-0.283514
-0.0607803
-0.276752
-0.0239849
-0.137534
-0.25556
-0.241676
-0.0185994
-0.0897243
-0.280471
-0.0405768
-0.154949
-0.268999
-0.26031
-0.0312271
-0.0629453
-0.208117
-0.00886298
-0.0465155
-0.27867
-0.160512
-0.282849
-0.089653
-0.158002
-0.278626
-0.0278947
-0.253323
-0.0589027
-0.280779
-0.205504
-0.283733
-0.118391
-0.163413
-0.281505
-0.0272412
-0.256523
-0.282905
-0.146678
-0.164333
-0.277918
-0.0731908
-0.284217
-0.221359
-0.112058
-0.282404
-0.155931
-0.0249311
-0.0335806
-0.25801
0
-0.284239
-0.23407
-0.281199
-0.104051
-0.155045
-0.272397
-0.0531425
0
-0.190334
0
-0.185512
-0.283774
-0.158231
-0.282663
-0.165027
-0.244039
-0.264454
-0.186122
-0.283526
0
0
-0.175354
-0.127115
-0.148521
-0.281581
-0.205258
-0.283609
-0.0665149
-0.282155
-0.128409
-0.198717
-0.248375
-0.162572
-0.26515
-0.0107697
-0.0891036
-0.230354
-0.0346611
-0.2653
-0.00954099
-0.0789585
-0.218558
-0.0997531
-0.283557
-0.274265
