# vtk DataFile Version 2.0
Unstructured Grid by M++
ASCII
DATASET UNSTRUCTURED_GRID
POINTS 1089 float
  0.718750   0.687500 0
  0.750000   0.687500 0
  0.718750   0.656250 0
  0.750000   0.718750 0
  0.625000   0.562500 0
  0.625000   0.593750 0
  0.656250   0.593750 0
  0.750000   0.750000 0
  0.687500   0.656250 0
  0.687500   0.625000 0
  0.656250   0.625000 0
  0.906250   0.593750 0
  1.000000   0.968750 0
  0.750000   0.968750 0
  0.718750   0.968750 0
  0.718750   1.000000 0
  0.750000   1.000000 0
  0.906250   0.906250 0
  0.843750   0.531250 0
  0.656250   0.937500 0
  0.656250   0.906250 0
  0.562500   0.812500 0
  0.562500   0.843750 0
  0.593750   0.875000 0
  0.593750   0.843750 0
  0.812500   0.718750 0
  0.625000   0.625000 0
  0.968750   0.875000 0
  0.531250   0.875000 0
  0.625000   0.937500 0
  0.562500   0.562500 0
  0.906250   0.812500 0
  0.531250   0.781250 0
  0.562500   0.593750 0
  0.906250   0.843750 0
  0.625000   0.656250 0
  0.968750   0.906250 0
  0.687500   0.968750 0
  0.812500   0.812500 0
  0.687500   1.000000 0
  0.687500   0.687500 0
  0.937500   0.843750 0
  0.593750   0.593750 0
  1.000000   0.625000 0
  0.968750   0.593750 0
  0.906250   0.875000 0
  0.968750   0.625000 0
  0.625000   0.875000 0
  0.875000   0.875000 0
  0.625000   0.906250 0
  0.875000   0.843750 0
  0.531250   0.812500 0
  0.968750   0.562500 0
  0.593750   0.625000 0
  0.937500   0.875000 0
  0.656250   0.687500 0
  1.000000   0.937500 0
  0.875000   0.562500 0
  0.687500   0.937500 0
  0.937500   0.625000 0
  0.812500   0.781250 0
  0.937500   0.562500 0
  0.875000   0.781250 0
  0.531250   0.531250 0
  0.718750   0.937500 0
  0.968750   0.937500 0
  0.906250   0.562500 0
  0.843750   0.781250 0
  0.593750   0.562500 0
  1.000000   0.906250 0
  0.656250   0.656250 0
  0.937500   0.906250 0
  0.875000   0.531250 0
  0.812500   0.750000 0
  0.656250   0.968750 0
  0.937500   0.531250 0
  0.843750   0.812500 0
  0.906250   0.531250 0
  0.843750   0.750000 0
  0.937500   0.593750 0
  0.875000   0.812500 0
  0.531250   0.562500 0
  1.000000   0.593750 0
  0.562500   0.906250 0
  0.562500   0.531250 0
  0.593750   0.906250 0
  0.593750   0.937500 0
  0.562500   0.875000 0
  0.781250   0.750000 0
  0.781250   0.781250 0
  0.593750   0.531250 0
  1.000000   0.687500 0
  0.531250   0.843750 0
  0.718750   0.718750 0
  0.781250   0.718750 0
  0.781250   0.687500 0
  1.000000   0.656250 0
  0.968750   0.656250 0
  0.843750   0.843750 0
  0.781250   1.000000 0
  0.656250   0.312500 0
  0.531250   0.250000 0
  0.875000   0.500000 0
  0.531250   0.218750 0
  0.875000   0.468750 0
  0.531250   0.156250 0
  0.593750   0.812500 0
  0.093750   0.562500 0
  0.656250   0.562500 0
  0.156250   0.312500 0
  0.031250   0.812500 0
  0.125000   1.000000 0
  0.312500   0.250000 0
  0.250000   0.500000 0
  0.375000   0.000000 0
  0.187500   0.750000 0
  0.812500   0.906250 0
  0.312500   0.656250 0
  0.250000   0.906250 0
  0.875000   0.656250 0
  0.375000   0.406250 0
  0.750000   0.843750 0
  0.250000   0.593750 0
  0.187500   0.843750 0
  0.812500   0.593750 0
  0.312500   0.343750 0
  0.625000   0.968750 0
  0.125000   0.718750 0
  0.687500   0.718750 0
  0.187500   0.468750 0
  0.062500   0.968750 0
  0.125000   0.656250 0
  0.187500   0.406250 0
  0.250000   0.156250 0
  0.062500   0.906250 0
  0.468750   0.906250 0
  0.656250   0.156250 0
  0.468750   0.812500 0
  0.593750   0.312500 0
  0.656250   0.062500 0
  0.625000   0.812500 0
  0.125000   0.562500 0
  0.687500   0.562500 0
  0.187500   0.312500 0
  0.062500   0.812500 0
  0.562500   0.937500 0
  0.062500   0.687500 0
  0.625000   0.687500 0
  0.125000   0.437500 0
  0.000000   0.937500 0
  0.062500   0.625000 0
  0.187500   0.125000 0
  0.125000   0.375000 0
  0.000000   0.875000 0
  0.406250   0.875000 0
  0.468750   0.625000 0
  0.593750   0.125000 0
  0.812500   0.937500 0
  0.312500   0.687500 0
  0.250000   0.937500 0
  0.875000   0.687500 0
  0.375000   0.437500 0
  0.750000   0.875000 0
  0.250000   0.625000 0
  0.187500   0.875000 0
  0.812500   0.625000 0
  0.312500   0.375000 0
  0.468750   0.781250 0
  0.593750   0.281250 0
  0.656250   0.031250 0
  0.625000   0.781250 0
  0.125000   0.531250 0
  0.062500   0.781250 0
  0.687500   0.531250 0
  0.187500   0.281250 0
  0.500000   0.812500 0
  0.687500   0.062500 0
  0.625000   0.312500 0
  0.656250   0.812500 0
  0.156250   0.562500 0
  0.718750   0.562500 0
  0.218750   0.312500 0
  0.093750   0.812500 0
  0.437500   0.968750 0
  0.625000   0.218750 0
  0.500000   0.781250 0
  0.687500   0.031250 0
  0.625000   0.281250 0
  0.656250   0.781250 0
  0.156250   0.531250 0
  0.718750   0.531250 0
  0.218750   0.281250 0
  0.093750   0.781250 0
  0.062500   0.562500 0
  0.125000   0.312500 0
  0.187500   0.062500 0
  0.000000   0.812500 0
  0.406250   0.812500 0
  0.968750   0.812500 0
  0.468750   0.562500 0
  0.593750   0.062500 0
  0.218750   0.687500 0
  0.156250   0.937500 0
  0.281250   0.437500 0
  0.062500   0.843750 0
  0.687500   0.593750 0
  0.187500   0.343750 0
  0.625000   0.843750 0
  0.125000   0.593750 0
  0.312500   0.843750 0
  0.437500   0.343750 0
  0.500000   0.093750 0
  0.375000   0.593750 0
  0.312500   0.906250 0
  0.937500   0.656250 0
  0.437500   0.406250 0
  0.875000   0.906250 0
  0.375000   0.656250 0
  0.062500   0.875000 0
  0.187500   0.375000 0
  0.250000   0.125000 0
  0.125000   0.625000 0
  0.093750   0.656250 0
  0.031250   0.906250 0
  0.218750   0.156250 0
  0.156250   0.406250 0
  0.593750   0.968750 0
  0.093750   0.718750 0
  0.031250   0.968750 0
  0.656250   0.718750 0
  0.156250   0.468750 0
  0.437500   0.906250 0
  0.625000   0.156250 0
  0.718750   0.812500 0
  0.218750   0.562500 0
  0.781250   0.562500 0
  0.281250   0.312500 0
  0.156250   0.812500 0
  0.062500   0.656250 0
  0.000000   0.906250 0
  0.187500   0.156250 0
  0.125000   0.406250 0
  0.562500   0.968750 0
  0.062500   0.718750 0
  0.000000   0.968750 0
  0.625000   0.718750 0
  0.125000   0.468750 0
  0.406250   0.968750 0
  0.968750   0.968750 0
  0.468750   0.718750 0
  0.531250   0.468750 0
  0.593750   0.218750 0
  0.406250   0.906250 0
  0.468750   0.656250 0
  0.593750   0.156250 0
  0.687500   0.781250 0
  0.187500   0.531250 0
  0.750000   0.531250 0
  0.250000   0.281250 0
  0.125000   0.781250 0
  0.781250   0.906250 0
  0.281250   0.656250 0
  0.218750   0.906250 0
  0.843750   0.656250 0
  0.343750   0.406250 0
  0.750000   0.906250 0
  0.250000   0.656250 0
  0.187500   0.906250 0
  0.812500   0.656250 0
  0.312500   0.406250 0
  0.875000   0.406250 0
  0.375000   0.156250 0
  0.812500   0.968750 0
  0.312500   0.718750 0
  0.250000   0.968750 0
  0.875000   0.718750 0
  0.375000   0.468750 0
  0.781250   0.937500 0
  0.281250   0.687500 0
  0.218750   0.937500 0
  0.843750   0.687500 0
  0.343750   0.437500 0
  0.718750   0.875000 0
  0.218750   0.625000 0
  0.156250   0.875000 0
  0.781250   0.625000 0
  0.281250   0.375000 0
  0.750000   0.937500 0
  0.250000   0.687500 0
  0.187500   0.937500 0
  0.875000   0.437500 0
  0.375000   0.187500 0
  0.812500   0.687500 0
  0.312500   0.437500 0
  0.687500   0.875000 0
  0.187500   0.625000 0
  0.750000   0.625000 0
  0.250000   0.375000 0
  0.125000   0.875000 0
  0.812500   1.000000 0
  0.312500   0.750000 0
  0.250000   1.000000 0
  0.875000   0.750000 0
  0.375000   0.500000 0
  0.562500   1.000000 0
  0.062500   0.750000 0
  0.000000   1.000000 0
  0.625000   0.750000 0
  0.125000   0.500000 0
  0.406250   1.000000 0
  0.968750   1.000000 0
  0.468750   0.750000 0
  0.656250   0.000000 0
  0.531250   0.500000 0
  0.593750   0.250000 0
  0.406250   0.937500 0
  0.468750   0.687500 0
  0.593750   0.187500 0
  0.687500   0.812500 0
  0.187500   0.562500 0
  0.750000   0.562500 0
  0.250000   0.312500 0
  0.125000   0.812500 0
  0.437500   0.843750 0
  0.625000   0.093750 0
  0.093750   0.593750 0
  0.156250   0.343750 0
  0.218750   0.093750 0
  0.031250   0.843750 0
  0.281250   0.937500 0
  0.843750   0.937500 0
  0.343750   0.687500 0
  0.906250   0.687500 0
  0.406250   0.437500 0
  0.156250   0.968750 0
  0.218750   0.718750 0
  0.281250   0.468750 0
  0.343750   0.218750 0
  0.156250   1.000000 0
  0.406250   0.000000 0
  0.281250   0.500000 0
  0.343750   0.250000 0
  0.218750   0.750000 0
  0.187500   0.968750 0
  0.250000   0.718750 0
  0.375000   0.218750 0
  0.312500   0.468750 0
  0.187500   1.000000 0
  0.312500   0.500000 0
  0.375000   0.250000 0
  0.437500   0.000000 0
  0.250000   0.750000 0
  0.031250   0.781250 0
  0.656250   0.531250 0
  0.156250   0.281250 0
  0.593750   0.781250 0
  0.093750   0.531250 0
  0.000000   0.781250 0
  0.625000   0.531250 0
  0.125000   0.281250 0
  0.562500   0.781250 0
  0.062500   0.531250 0
  0.781250   0.968750 0
  0.281250   0.718750 0
  0.218750   0.968750 0
  0.843750   0.718750 0
  0.343750   0.468750 0
  0.281250   0.968750 0
  0.843750   0.968750 0
  0.343750   0.718750 0
  0.906250   0.718750 0
  0.406250   0.468750 0
  0.281250   1.000000 0
  0.906250   0.750000 0
  0.406250   0.500000 0
  0.843750   1.000000 0
  0.343750   0.750000 0
  0.531250   0.000000 0
  0.718750   0.843750 0
  0.218750   0.593750 0
  0.156250   0.843750 0
  0.781250   0.593750 0
  0.281250   0.343750 0
  0.687500   0.843750 0
  0.187500   0.593750 0
  0.750000   0.593750 0
  0.250000   0.343750 0
  0.125000   0.843750 0
  0.218750   0.875000 0
  0.843750   0.625000 0
  0.343750   0.375000 0
  0.781250   0.875000 0
  0.281250   0.625000 0
  0.156250   0.906250 0
  0.781250   0.656250 0
  0.281250   0.406250 0
  0.718750   0.906250 0
  0.218750   0.656250 0
  0.031250   1.000000 0
  0.656250   0.750000 0
  0.156250   0.500000 0
  0.593750   1.000000 0
  0.093750   0.750000 0
  0.218750   1.000000 0
  0.343750   0.500000 0
  0.468750   0.000000 0
  0.406250   0.250000 0
  0.281250   0.750000 0
  0.593750   0.406250 0
  0.093750   0.156250 0
  0.531250   0.656250 0
  0.031250   0.406250 0
[...]
POINT_DATA 1089
SCALARS scalar_value float 1
LOOKUP_TABLE default
-0.837768
-0.865647
-0.724895
-0.953562
-0.287674
-0.348649
-0.401514
-1.05353
-0.664762
-0.556041
-0.495013
-0.413515
-1.15275
-1.33242
-1.36914
-1.38642
-1.3507
-1.14913
-0.185821
-1.42543
-1.38261
-1.27114
-1.44643
-1.45361
-1.35687
-0.986213
-0.40837
-1.1408
-1.91649
-1.48762
-0.200708
-1.12157
-1.04674
-0.230838
-1.13171
-0.485144
-1.14639
-1.4082
-1.13252
-1.42472
-0.79438
-1.13188
-0.282783
-0.523301
-0.27736
-1.14143
-0.54567
-1.38561
-1.14342
-1.44489
-1.13437
-1.32437
-0.156891
-0.326333
-1.14058
-0.715928
-1.15071
-0.254728
-1.37997
-0.5934
-1.10698
-0.185565
-1.1023
-0.158397
-1.337
-1.15084
-0.216509
-1.10057
-0.24282
-1.1461
-0.586039
-1.14733
-0.161703
-1.05422
-1.45031
-0.127426
-1.12588
-0.142325
-1.05663
-0.356116
-1.12224
-0.178563
-0.249004
-1.71091
-0.173743
-1.54414
-1.5803
-1.61475
-1.05675
-1.11548
-0.200341
-0.961734
-1.63457
-0.936966
-0.96871
-0.889212
-0.762199
-0.781144
-1.14034
-1.31275
-0.0569779
-0.0421282
-0.118296
-0.0416257
-0.100765
-0.0405368
-1.26515
-0.158168
-0.334718
-0.0931784
-0.697196
-0.922515
-0.0467262
-0.131234
0
-0.498228
-1.17905
-0.16416
-1.65008
-0.83064
-0.0773236
-1.19267
-0.155542
-0.735646
-0.479104
-0.0693161
-1.51564
-0.508736
-0.911799
-0.131949
-0.795836
-0.356486
-0.116586
-0.0347258
-0.767321
-3.31961
-0.0504496
-1.50824
-0.0492153
-0.0445896
-1.25311
-0.155617
-0.36453
-0.0852178
-0.694383
-1.76905
-0.504866
-0.592059
-0.134118
-0.776052
-0.305989
-0.0273448
-0.119635
-0.740977
-3.31085
-0.168201
-0.0444863
-1.20632
-0.184408
-2.43612
-0.941318
-0.0877963
-1.20958
-0.174484
-0.811114
-0.652076
-0.0773864
-1.01886
-0.0475484
-0.0330712
-1.15041
-0.146229
-0.672133
-0.24795
-0.0758252
-1.42716
-0.0470854
-0.0532654
-1.22671
-0.151528
-0.367473
-0.0787254
-0.69343
-4.97919
-0.0483531
-1.03148
-0.0355079
-0.0508765
-1.16436
-0.144211
-0.249222
-0.0695773
-0.659658
-0.161189
-0.100938
-0.0121619
-0.698316
-1.49509
-1.12453
-0.152595
-0.0400579
-0.319495
-0.881748
-0.106624
-0.718024
-0.439097
-0.0949048
-1.32149
-0.184476
-1.42528
-0.0522137
-0.0366999
-0.147299
-3.21552
-0.819871
-0.0706062
-1.15284
-0.156206
-0.745131
-0.105196
-0.0311069
-0.262156
-0.378082
-0.762623
-0.034909
-0.121412
-1.61213
-0.549532
-0.789094
-0.872912
-0.135262
-3.83388
-0.0472473
-1.1798
-0.145733
-0.35067
-0.0669828
-0.680279
-0.400013
-0.760516
-0.0333827
-0.128115
-1.88572
-0.590534
-0.788231
-0.785288
-0.138408
-5.39665
-1.15309
-0.268476
-0.112014
-0.0458951
-4.32978
-0.182101
-0.0449915
-1.1529
-0.141918
-0.254342
-0.06404
-0.640866
-1.20878
-0.178799
-1.15196
-0.820876
-0.0812994
-1.23576
-0.210934
-0.916666
-0.811362
-0.0866008
-0.08433
-0.0354266
-1.2432
-0.22459
-3.10948
-1.00637
-0.106148
-1.24698
-0.218583
-1.50986
-0.933087
-0.0918609
-1.23145
-0.196695
-0.765269
-0.653805
-0.083068
-1.28944
-0.278808
-1.07855
-0.0897918
-0.036774
-0.910204
-0.0993439
-1.27364
-0.216985
-0.638308
-0.0893536
-0.753867
-1.2763
-0.300216
-3.70273
-1.06514
-0.125425
-2.07766
-0.64306
-0.795555
-0.988516
-0.142455
-5.62325
-1.15507
-0.554253
0
-0.135633
-0.0465882
-4.98419
-0.206936
-0.045337
-1.20547
-0.14831
-0.357102
-0.0717428
-0.690688
-2.23932
-0.0460511
-0.198956
-0.102903
-0.0240579
-0.716173
-3.28208
-1.17634
-0.17082
-0.941702
-0.0848511
-0.98668
-0.381852
-0.119152
-0.0385976
-1.09425
0
-0.128254
-0.0425243
-0.463806
-1.30316
-0.344926
-0.0381542
-0.114972
-1.56861
-0.126897
-0.0407198
0
-0.423052
-0.680613
-0.246191
-0.0829406
-1.12076
-0.148003
-0.68359
-0.232142
-0.0890152
-1.09436
-0.148976
-1.2917
-0.28069
-2.0923
-0.99561
-0.110362
-4.29343
-1.19884
-0.201472
-1.02661
-0.103888
-5.11298
-1.07503
-0.124353
-1.22336
-0.271215
0
-1.21044
-0.160127
-0.724393
-0.503479
-0.0743508
-1.23461
-0.165688
-0.498478
-0.0797076
-0.72137
-0.925116
-0.645571
-0.0724845
-1.18739
-0.161258
-0.816666
-0.785408
-0.0932539
-1.27094
-0.250488
-0.798955
-1.03027
-0.140028
-1.67033
-0.618154
-2.54695
-0.125981
0
-0.039871
-0.367487
-0.0735428
-0.0233755
-0.241286
-0.135714
-0.0206246
-0.0519334
-0.135024
-0.553424
-0.448569
-0.0647693
-1.17257
-0.150329
-0.767013
-0.301757
-0.0585267
-1.14279
-0.141529
-0.644544
-0.0458222
-0.241265
-0.0596312
-1.13558
-0.139168
-0.612403
-0.0427817
-0.12804
-0.82026
-0.456072
-1.0451
-0.134253
-0.856508
-1.46816
-0.535722
-0.0375253
-0.121147
-0.793047
-0.390331
-1.04626
-0.102882
-1.1727
-0.194155
-5.19841
-0.0692326
-0.158872
-4.16738
-1.058
-0.105315
-1.16143
-0.207737
-5.56663
-0.580217
-0.141872
-0.959349
-0.0843172
-5.01759
-1.15498
-0.172538
-0.0411244
-0.386785
-0.139132
-0.0564608
-3.02747
-0.152961
-0.0396883
-0.947364
-0.0830438
-1.16035
-0.167229
-4.22895
-0.299947
-0.139999
-0.0606014
-0.0376543
-0.151133
-2.29764
-1.06035
-0.108944
-1.1553
-0.231612
-5.57889
-0.0434796
-0.167641
-4.56301
-0.0428748
-0.686751
-0.140815
-2.62186
-0.608979
-0.438259
-0.0606794
-1.15374
-0.146935
-0.855387
-0.0476452
-0.0232931
-0.134316
-0.514334
-0.63767
-0.0678478
-1.16596
-0.153036
-1.18333
-0.0545903
-0.0315513
-0.141286
-0.661254
-0.054917
-0.0179251
-0.835444
-0.0729654
-2.46466
-1.16108
-0.15787
-0.0354213
-0.0566866
-1.07837
-0.146376
-0.0700228
0
-0.0506008
-0.0687472
0
-0.0299573
-0.112189
-0.742995
-0.290132
-0.0394977
-0.129231
-0.462689
-0.0500641
0
-0.145739
-0.0729939
-1.08287
-0.124178
-5.70067
-1.1912
-0.279033
0
-0.0534221
0
-0.74269
-0.145388
-1.04156
-0.137202
-0.817627
-1.53893
-0.585407
-0.0385141
-0.125312
-0.781167
-0.431646
-0.207779
-0.0560565
-1.12285
-0.13697
-0.578088
-0.0399474
-0.124492
-0.868609
-0.41536
-0.335676
-0.0621959
-0.656124
-1.15944
-0.143358
-1.13383
-0.159397
-2.41787
-0.0152479
-0.0481184
-0.0434742
-0.110802
-0.0202957
-0.715731
-0.209733
-0.620804
-0.0639455
-1.67236
-1.15099
-0.150779
-0.0326159
-0.0506201
-0.694292
-0.141641
-0.091994
-0.0335444
-0.0686614
-0.0231947
-0.355637
-0.14257
-0.116145
-0.0523973
-0.933606
-0.14389
-3.06803
-0.653073
-0.481236
-0.142366
-1.11526
-0.146922
-0.87465
-0.0446548
-0.031111
-1.11221
-0.142413
-0.666209
-0.0277923
-1.14138
-0.128559
-0.192355
-3.00296
-0.0467708
-0.0182624
-0.0575941
-1.12229
-0.148117
-0.148064
-0.0122905
-0.0437397
-1.23131
-0.0376654
-0.105189
-0.00948453
-0.163308
-1.15429
-0.671852
-5.29899
0
-0.0493054
-0.142897
-4.52619
-0.0476859
-0.152569
-0.0154354
-0.0479429
-2.32262
-0.0405625
-0.116109
-0.0167546
-0.2105
-0.385185
-0.133685
-2.06942
-0.449456
-0.136233
-0.0259847
-0.042014
-0.449984
-0.0850047
-0.00546984
-0.200563
-0.115434
-0.205711
-0.135782
-0.0701512
-0.0223557
-0.760335
-0.101109
-0.786877
-1.3247
-0.287545
-0.0341822
-0.0468428
-0.741861
-0.142637
-0.115981
-0.0143134
-0.207821
-0.295777
-0.135253
-0.135128
-0.025181
-0.0442161
-0.475313
-0.0836247
-0.0061722
-1.13415
-0.177091
-0.11597
-0.049409
-0.0147125
-0.603232
-0.0979531
-0.747456
-1.33048
-0.235945
-0.470938
-0.0878975
-1.27151
-0.173497
-0.719522
-0.239164
-0.140327
-0.0955061
-0.0321827
-0.115738
-0.0369985
-0.818907
-0.355452
-1.1063
-0.140189
-0.11368
-0.00665423
-0.0417337
-0.516495
-0.0264787
-0.0915233
-0.00497854
-0.149557
-0.117011
-0.0414198
-1.1037
-0.137752
-0.439407
-0.0270952
-0.00463827
-0.0882842
-0.150034
-0.101136
-0.00975469
-0.220217
-0.128919
-0.110189
-0.0345945
-0.774955
-0.328274
-0.103909
-0.00898066
-0.164385
-0.258104
-0.128192
-0.0429358
-0.00647133
-0.84973
-0.144651
-0.0178034
-0.054266
-0.15754
-3.42682
-0.0419077
-0.0242483
-0.125619
-0.316285
-0.479416
-0.137574
-2.23611
-0.548991
-0.044716
-0.923892
-0.145162
-0.0359942
-1.15186
-0.185999
-5.1743
-1.09196
-0.127503
-1.17206
-0.326073
-5.90375
0
0
-0.0442985
-0.0119696
-0.04906
-1.89268
-0.149304
-0.0384461
-0.0993906
-0.0407646
0
-0.0339181
-0.0883531
-0.043342
-1.09693
-0.130506
-1.15996
-0.407001
-5.79403
-0.0437515
0
-0.0692049
-0.0228346
-1.56397
-1.12592
-0.0994159
-0.161859
-0.0109796
-0.0461633
-0.0420123
-0.777163
-0.556303
-3.08296
-0.0377468
-0.0995239
-0.0552079
-1.83724
-0.051889
-0.0569081
-0.323836
-2.26662
-0.05384
-0.0205298
-0.0646486
-0.653921
-4.07195
-0.0717767
-0.167421
0
-0.0568648
0
-4.75001
0
-0.0735993
-0.153546
-4.4317
-0.0522509
-0.123064
-0.0521283
-0.611963
-3.66924
-0.0521934
-0.127224
-0.0559226
-3.93746
-0.0330764
-0.0982454
-0.0509913
-0.470993
-2.66315
-0.0546874
-0.0264419
-0.0803435
-2.66234
-0.0499742
-0.0188139
-0.0604883
-2.00395
-0.0488084
-0.0141952
-0.0526594
-0.0836127
-0.0613078
-0.0589934
-0.0531656
-0.128576
-0.0532285
-0.0212718
-0.0704479
0
-0.0599517
-0.179005
0
-0.0647127
-0.0324149
-0.0109786
-0.0670846
-0.0976838
-0.0619619
-0.0495451
-0.124134
-0.0630594
-0.0381902
-0.0973124
-0.0727193
-0.0690566
-0.0358237
-0.0842264
-0.0694187
-0.0365045
-0.0842032
-0.0609531
-0.0524691
-0.128263
-0.0546334
-0.061074
-0.0510297
-0.149432
0
0
-0.0693379
-0.114765
-0.0675743
-0.119414
-0.0655717
-0.0552088
-0.166382
0
0
-0.0671799
-0.0338604
-0.0128045
-0.069118
-0.0349693
-0.0150474
-0.071544
-0.0385146
-0.0840659
-0.0497542
-0.0385449
-0.0547495
-0.0955976
-0.0643144
-0.0789554
-0.0818635
-0.0713187
-0.0375124
-0.08698
-0.0582371
-0.0407568
-0.101779
-0.0568514
-0.0696488
-0.0575443
-0.030804
-0.0840359
-0.0511308
-0.0262133
-0.0742197
-0.0517808
-0.024302
-0.0724717
-0.0660618
-0.03331
-0.0795231
-0.0617396
-0.0313277
-0.0765403
-0.0621754
-0.0300474
-0.0752084
-0.038551
-0.093204
-0.0730316
-0.0398297
-0.105302
0
-0.0742052
0
-0.0734426
-0.0500929
-0.0762333
-0.0509585
-0.0300926
-0.0758045
-0.0618592
-0.0340426
-0.078688
-0.0601825
-0.0409439
-0.101132
-0.0663152
-0.0342185
-0.0802422
-0.0614665
-0.0331526
-0.0783792
-0.0662837
-0.0348694
-0.0808032
-0.0595192
-0.083833
-0.0613464
-0.0323716
-0.0777306
-0.0401411
-0.100427
-0.0739127
-0.0587852
-0.066371
-0.0355973
-0.0814849
-0.0513595
-0.0283734
-0.0752081
-0.038259
-0.0864329
-0.141043
0
-0.0710282
-0.0606404
-0.075649
-0.052706
-0.0159947
-0.0648352
-0.0391039
-0.0907813
-0.0623001
-0.0763486
-0.0530669
-0.018886
-0.0680691
-0.0617152
-0.0518154
-0.0631462
-0.0847228
-0.0603373
-0.0269911
-0.0718952
-0.0664565
-0.0569184
-0.00607598
-0.0584555
-0.0412381
-0.0365585
-0.0818384
-0.0676023
-0.0942439
-0.0650842
-0.0326719
-0.0787348
-0.0311868
-0.0747782
-0.0373572
-0.0841343
-0.0688643
-0.109306
-0.0664359
-0.0347085
-0.0844088
-0.0322414
-0.0740505
-0.0952142
-0.0663559
-0.0320668
-0.077611
-0.0638527
-0.111479
-0.0739712
-0.0369818
-0.0882731
-0.070884
-0.0336295
-0.0179756
-0.073154
0
-0.127384
-0.072472
-0.085032
-0.0649839
-0.028358
-0.0734837
-0.0615837
0
-0.0620697
0
-0.0657017
-0.174033
-0.0367956
-0.0917799
-0.0688418
-0.0752997
-0.0769323
-0.0698137
-0.167925
0
0
-0.0596638
-0.0675058
-0.0350513
-0.0842956
-0.0702763
-0.105356
-0.0392587
-0.0862091
-0.0682815
-0.0717489
-0.0751908
-0.07001
-0.0766555
-0.0375186
-0.0102501
-0.0644769
-0.0587531
-0.0699008
-0.0415008
-0.00816632
-0.0613622
-0.0399606
-0.0902984
-0.0788818
