# vtk DataFile Version 2.0
Unstructured Grid by M++
ASCII
DATASET UNSTRUCTURED_GRID
POINTS 1089 float
  0.718750   0.687500 0
  0.750000   0.687500 0
  0.718750   0.656250 0
  0.750000   0.718750 0
  0.625000   0.562500 0
  0.625000   0.593750 0
  0.656250   0.593750 0
  0.750000   0.750000 0
  0.687500   0.656250 0
  0.687500   0.625000 0
  0.656250   0.625000 0
  0.906250   0.593750 0
  1.000000   0.968750 0
  0.750000   0.968750 0
  0.718750   0.968750 0
  0.718750   1.000000 0
  0.750000   1.000000 0
  0.906250   0.906250 0
  0.843750   0.531250 0
  0.656250   0.937500 0
  0.656250   0.906250 0
  0.562500   0.812500 0
  0.562500   0.843750 0
  0.593750   0.875000 0
  0.593750   0.843750 0
  0.812500   0.718750 0
  0.625000   0.625000 0
  0.968750   0.875000 0
  0.531250   0.875000 0
  0.625000   0.937500 0
  0.562500   0.562500 0
  0.906250   0.812500 0
  0.531250   0.781250 0
  0.562500   0.593750 0
  0.906250   0.843750 0
  0.625000   0.656250 0
  0.968750   0.906250 0
  0.687500   0.968750 0
  0.812500   0.812500 0
  0.687500   1.000000 0
  0.687500   0.687500 0
  0.937500   0.843750 0
  0.593750   0.593750 0
  1.000000   0.625000 0
  0.968750   0.593750 0
  0.906250   0.875000 0
  0.968750   0.625000 0
  0.625000   0.875000 0
  0.875000   0.875000 0
  0.625000   0.906250 0
  0.875000   0.843750 0
  0.531250   0.812500 0
  0.968750   0.562500 0
  0.593750   0.625000 0
  0.937500   0.875000 0
  0.656250   0.687500 0
  1.000000   0.937500 0
  0.875000   0.562500 0
  0.687500   0.937500 0
  0.937500   0.625000 0
  0.812500   0.781250 0
  0.937500   0.562500 0
  0.875000   0.781250 0
  0.531250   0.531250 0
  0.718750   0.937500 0
  0.968750   0.937500 0
  0.906250   0.562500 0
  0.843750   0.781250 0
  0.593750   0.562500 0
  1.000000   0.906250 0
  0.656250   0.656250 0
  0.937500   0.906250 0
  0.875000   0.531250 0
  0.812500   0.750000 0
  0.656250   0.968750 0
  0.937500   0.531250 0
  0.843750   0.812500 0
  0.906250   0.531250 0
  0.843750   0.750000 0
  0.937500   0.593750 0
  0.875000   0.812500 0
  0.531250   0.562500 0
  1.000000   0.593750 0
  0.562500   0.906250 0
  0.562500   0.531250 0
  0.593750   0.906250 0
  0.593750   0.937500 0
  0.562500   0.875000 0
  0.781250   0.750000 0
  0.781250   0.781250 0
  0.593750   0.531250 0
  1.000000   0.687500 0
  0.531250   0.843750 0
  0.718750   0.718750 0
  0.781250   0.718750 0
  0.781250   0.687500 0
  1.000000   0.656250 0
  0.968750   0.656250 0
  0.843750   0.843750 0
  0.781250   1.000000 0
  0.656250   0.312500 0
  0.531250   0.250000 0
  0.875000   0.500000 0
  0.531250   0.218750 0
  0.875000   0.468750 0
  0.531250   0.156250 0
  0.593750   0.812500 0
  0.093750   0.562500 0
  0.656250   0.562500 0
  0.156250   0.312500 0
  0.031250   0.812500 0
  0.125000   1.000000 0
  0.312500   0.250000 0
  0.250000   0.500000 0
  0.375000   0.000000 0
  0.187500   0.750000 0
  0.812500   0.906250 0
  0.312500   0.656250 0
  0.250000   0.906250 0
  0.875000   0.656250 0
  0.375000   0.406250 0
  0.750000   0.843750 0
  0.250000   0.593750 0
  0.187500   0.843750 0
  0.812500   0.593750 0
  0.312500   0.343750 0
  0.625000   0.968750 0
  0.125000   0.718750 0
  0.687500   0.718750 0
  0.187500   0.468750 0
  0.062500   0.968750 0
  0.125000   0.656250 0
  0.187500   0.406250 0
  0.250000   0.156250 0
  0.062500   0.906250 0
  0.468750   0.906250 0
  0.656250   0.156250 0
  0.468750   0.812500 0
  0.593750   0.312500 0
  0.656250   0.062500 0
  0.625000   0.812500 0
  0.125000   0.562500 0
  0.687500   0.562500 0
  0.187500   0.312500 0
  0.062500   0.812500 0
  0.562500   0.937500 0
  0.062500   0.687500 0
  0.625000   0.687500 0
  0.125000   0.437500 0
  0.000000   0.937500 0
  0.062500   0.625000 0
  0.187500   0.125000 0
  0.125000   0.375000 0
  0.000000   0.875000 0
  0.406250   0.875000 0
  0.468750   0.625000 0
  0.593750   0.125000 0
  0.812500   0.937500 0
  0.312500   0.687500 0
  0.250000   0.937500 0
  0.875000   0.687500 0
  0.375000   0.437500 0
  0.750000   0.875000 0
  0.250000   0.625000 0
  0.187500   0.875000 0
  0.812500   0.625000 0
  0.312500   0.375000 0
  0.468750   0.781250 0
  0.593750   0.281250 0
  0.656250   0.031250 0
  0.625000   0.781250 0
  0.125000   0.531250 0
  0.062500   0.781250 0
  0.687500   0.531250 0
  0.187500   0.281250 0
  0.500000   0.812500 0
  0.687500   0.062500 0
  0.625000   0.312500 0
  0.656250   0.812500 0
  0.156250   0.562500 0
  0.718750   0.562500 0
  0.218750   0.312500 0
  0.093750   0.812500 0
  0.437500   0.968750 0
  0.625000   0.218750 0
  0.500000   0.781250 0
  0.687500   0.031250 0
  0.625000   0.281250 0
  0.656250   0.781250 0
  0.156250   0.531250 0
  0.718750   0.531250 0
  0.218750   0.281250 0
  0.093750   0.781250 0
  0.062500   0.562500 0
  0.125000   0.312500 0
  0.187500   0.062500 0
  0.000000   0.812500 0
  0.406250   0.812500 0
  0.968750   0.812500 0
  0.468750   0.562500 0
  0.593750   0.062500 0
  0.218750   0.687500 0
  0.156250   0.937500 0
  0.281250   0.437500 0
  0.062500   0.843750 0
  0.687500   0.593750 0
  0.187500   0.343750 0
  0.625000   0.843750 0
  0.125000   0.593750 0
  0.312500   0.843750 0
  0.437500   0.343750 0
  0.500000   0.093750 0
  0.375000   0.593750 0
  0.312500   0.906250 0
  0.937500   0.656250 0
  0.437500   0.406250 0
  0.875000   0.906250 0
  0.375000   0.656250 0
  0.062500   0.875000 0
  0.187500   0.375000 0
  0.250000   0.125000 0
  0.125000   0.625000 0
  0.093750   0.656250 0
  0.031250   0.906250 0
  0.218750   0.156250 0
  0.156250   0.406250 0
  0.593750   0.968750 0
  0.093750   0.718750 0
  0.031250   0.968750 0
  0.656250   0.718750 0
  0.156250   0.468750 0
  0.437500   0.906250 0
  0.625000   0.156250 0
  0.718750   0.812500 0
  0.218750   0.562500 0
  0.781250   0.562500 0
  0.281250   0.312500 0
  0.156250   0.812500 0
  0.062500   0.656250 0
  0.000000   0.906250 0
  0.187500   0.156250 0
  0.125000   0.406250 0
  0.562500   0.968750 0
  0.062500   0.718750 0
  0.000000   0.968750 0
  0.625000   0.718750 0
  0.125000   0.468750 0
  0.406250   0.968750 0
  0.968750   0.968750 0
  0.468750   0.718750 0
  0.531250   0.468750 0
  0.593750   0.218750 0
  0.406250   0.906250 0
  0.468750   0.656250 0
  0.593750   0.156250 0
  0.687500   0.781250 0
  0.187500   0.531250 0
  0.750000   0.531250 0
  0.250000   0.281250 0
  0.125000   0.781250 0
  0.781250   0.906250 0
  0.281250   0.656250 0
  0.218750   0.906250 0
  0.843750   0.656250 0
  0.343750   0.406250 0
  0.750000   0.906250 0
  0.250000   0.656250 0
  0.187500   0.906250 0
  0.812500   0.656250 0
  0.312500   0.406250 0
  0.875000   0.406250 0
  0.375000   0.156250 0
  0.812500   0.968750 0
  0.312500   0.718750 0
  0.250000   0.968750 0
  0.875000   0.718750 0
  0.375000   0.468750 0
  0.781250   0.937500 0
  0.281250   0.687500 0
  0.218750   0.937500 0
  0.843750   0.687500 0
  0.343750   0.437500 0
  0.718750   0.875000 0
  0.218750   0.625000 0
  0.156250   0.875000 0
  0.781250   0.625000 0
  0.281250   0.375000 0
  0.750000   0.937500 0
  0.250000   0.687500 0
  0.187500   0.937500 0
  0.875000   0.437500 0
  0.375000   0.187500 0
  0.812500   0.687500 0
  0.312500   0.437500 0
  0.687500   0.875000 0
  0.187500   0.625000 0
  0.750000   0.625000 0
  0.250000   0.375000 0
  0.125000   0.875000 0
  0.812500   1.000000 0
  0.312500   0.750000 0
  0.250000   1.000000 0
  0.875000   0.750000 0
  0.375000   0.500000 0
  0.562500   1.000000 0
  0.062500   0.750000 0
  0.000000   1.000000 0
  0.625000   0.750000 0
  0.125000   0.500000 0
  0.406250   1.000000 0
  0.968750   1.000000 0
  0.468750   0.750000 0
  0.656250   0.000000 0
  0.531250   0.500000 0
  0.593750   0.250000 0
  0.406250   0.937500 0
  0.468750   0.687500 0
  0.593750   0.187500 0
  0.687500   0.812500 0
  0.187500   0.562500 0
  0.750000   0.562500 0
  0.250000   0.312500 0
  0.125000   0.812500 0
  0.437500   0.843750 0
  0.625000   0.093750 0
  0.093750   0.593750 0
  0.156250   0.343750 0
  0.218750   0.093750 0
  0.031250   0.843750 0
  0.281250   0.937500 0
  0.843750   0.937500 0
  0.343750   0.687500 0
  0.906250   0.687500 0
  0.406250   0.437500 0
  0.156250   0.968750 0
  0.218750   0.718750 0
  0.281250   0.468750 0
  0.343750   0.218750 0
  0.156250   1.000000 0
  0.406250   0.000000 0
  0.281250   0.500000 0
  0.343750   0.250000 0
  0.218750   0.750000 0
  0.187500   0.968750 0
  0.250000   0.718750 0
  0.375000   0.218750 0
  0.312500   0.468750 0
  0.187500   1.000000 0
  0.312500   0.500000 0
  0.375000   0.250000 0
  0.437500   0.000000 0
  0.250000   0.750000 0
  0.031250   0.781250 0
  0.656250   0.531250 0
  0.156250   0.281250 0
  0.593750   0.781250 0
  0.093750   0.531250 0
  0.000000   0.781250 0
  0.625000   0.531250 0
  0.125000   0.281250 0
  0.562500   0.781250 0
  0.062500   0.531250 0
  0.781250   0.968750 0
  0.281250   0.718750 0
  0.218750   0.968750 0
  0.843750   0.718750 0
  0.343750   0.468750 0
  0.281250   0.968750 0
  0.843750   0.968750 0
  0.343750   0.718750 0
  0.906250   0.718750 0
  0.406250   0.468750 0
  0.281250   1.000000 0
  0.906250   0.750000 0
  0.406250   0.500000 0
  0.843750   1.000000 0
  0.343750   0.750000 0
  0.531250   0.000000 0
  0.718750   0.843750 0
  0.218750   0.593750 0
  0.156250   0.843750 0
  0.781250   0.593750 0
  0.281250   0.343750 0
  0.687500   0.843750 0
  0.187500   0.593750 0
  0.750000   0.593750 0
  0.250000   0.343750 0
  0.125000   0.843750 0
  0.218750   0.875000 0
  0.843750   0.625000 0
  0.343750   0.375000 0
  0.781250   0.875000 0
  0.281250   0.625000 0
  0.156250   0.906250 0
  0.781250   0.656250 0
  0.281250   0.406250 0
  0.718750   0.906250 0
  0.218750   0.656250 0
  0.031250   1.000000 0
  0.656250   0.750000 0
  0.156250   0.500000 0
  0.593750   1.000000 0
  0.093750   0.750000 0
  0.218750   1.000000 0
  0.343750   0.500000 0
  0.468750   0.000000 0
  0.406250   0.250000 0
  0.281250   0.750000 0
  0.593750   0.406250 0
  0.093750   0.156250 0
  0.531250   0.656250 0
  0.031250   0.406250 0
[...]
POINT_DATA 1089
SCALARS scalar_value float 1
LOOKUP_TABLE default
-0.451546
-0.447642
-0.443505
-0.453859
-0.393811
-0.412104
-0.415471
-0.45952
-0.44518
-0.434372
-0.433557
-0.405939
-0.546035
-0.522771
-0.522193
-0.546502
-0.529719
-0.516521
-0.363363
-0.491451
-0.47989
-0.467272
-0.468687
-0.471152
-0.469649
-0.440589
-0.430826
-0.488768
-0.468291
-0.484949
-0.385133
-0.456871
-0.46368
-0.402482
-0.481626
-0.445033
-0.506487
-0.519989
-0.471862
-0.569869
-0.454033
-0.475208
-0.407949
-0.411136
-0.407703
-0.500059
-0.411086
-0.472273
-0.50371
-0.476221
-0.485902
-0.465287
-0.400835
-0.427192
-0.49291
-0.45498
-0.523804
-0.392468
-0.499559
-0.411103
-0.45959
-0.398958
-0.444262
-0.358455
-0.507777
-0.52626
-0.396114
-0.452345
-0.391275
-0.504082
-0.445613
-0.512877
-0.368271
-0.44882
-0.51252
-0.379735
-0.469331
-0.374514
-0.439309
-0.406958
-0.463591
-0.375246
-0.408015
-0.472903
-0.367345
-0.474281
-0.479803
-0.470195
-0.455284
-0.463045
-0.373458
-0.413836
-0.466686
-0.458039
-0.448342
-0.441775
-0.412657
-0.412812
-0.487375
-0.526327
-0.180419
-0.0286357
-0.339958
-0.0212785
-0.315472
-0.0132866
-0.468343
-0.385114
-0.394458
-0.0860109
-0.41189
-0.424848
-0.0556396
-0.329064
0
-0.411879
-0.512661
-0.408146
-0.424228
-0.417873
-0.184575
-0.481743
-0.398281
-0.416452
-0.409889
-0.0999601
-0.503024
-0.409941
-0.460345
-0.274782
-0.421375
-0.40676
-0.158941
-0.0539937
-0.414717
-0.463467
-0.0142546
-0.457569
-0.118448
-0.00672131
-0.468944
-0.388703
-0.394265
-0.0806638
-0.412133
-0.476961
-0.408254
-0.454736
-0.221808
-0.416502
-0.40349
-0.0554313
-0.137654
-0.413179
-0.447613
-0.402132
-0.0104989
-0.519994
-0.411488
-0.426319
-0.42066
-0.242162
-0.492163
-0.404761
-0.418201
-0.422366
-0.133871
-0.45553
-0.0795471
-0.00388489
-0.467282
-0.364904
-0.411451
-0.373877
-0.0758268
-0.462307
-0.00565507
-0.14669
-0.469495
-0.392194
-0.393877
-0.0786011
-0.412582
-0.464017
-0.0351919
-0.460577
-0.00275373
-0.106723
-0.46719
-0.369056
-0.37197
-0.0736586
-0.411708
-0.380911
-0.0972318
-0.038666
-0.411801
-0.441506
-0.450563
-0.357677
-0.00731218
-0.409617
-0.420447
-0.242362
-0.412905
-0.416414
-0.0936869
-0.470416
-0.399563
-0.4271
-0.0886205
-0.00901993
-0.374681
-0.433889
-0.413424
-0.202236
-0.516242
-0.409668
-0.413648
-0.120593
-0.0495362
-0.404462
-0.406542
-0.414214
-0.0572412
-0.165631
-0.492571
-0.409786
-0.421913
-0.461069
-0.268444
-0.457738
-0.0136863
-0.471447
-0.38828
-0.393452
-0.0785221
-0.414061
-0.406473
-0.414063
-0.0597534
-0.174426
-0.484583
-0.409603
-0.421918
-0.461457
-0.269226
-0.456427
-0.542653
-0.449756
-0.314901
-0.0266883
-0.450541
-0.425591
-0.0133726
-0.466982
-0.367484
-0.370101
-0.0722342
-0.412178
-0.508896
-0.408135
-0.421676
-0.422337
-0.181608
-0.503456
-0.408151
-0.420086
-0.429435
-0.179999
-0.248099
-0.0216503
-0.524252
-0.413726
-0.427854
-0.4238
-0.282223
-0.517908
-0.410466
-0.423931
-0.42598
-0.242134
-0.485353
-0.405496
-0.416468
-0.428675
-0.128849
-0.514486
-0.409899
-0.422128
-0.28762
-0.0257718
-0.434307
-0.243592
-0.478852
-0.405532
-0.431782
-0.11999
-0.415244
-0.52625
-0.416269
-0.429047
-0.430895
-0.312698
-0.501066
-0.410574
-0.434209
-0.465212
-0.322668
-0.459765
-0.557003
-0.453346
0
-0.339364
-0.0465175
-0.453424
-0.441793
-0.017804
-0.470214
-0.392393
-0.393921
-0.0781341
-0.41328
-0.452544
-0.00876424
-0.397563
-0.102739
-0.0456414
-0.412571
-0.430589
-0.521535
-0.413613
-0.416958
-0.246794
-0.422692
-0.410833
-0.293265
-0.0406512
-0.42452
0
-0.326935
-0.0475774
-0.412593
-0.424103
-0.411343
-0.0317217
-0.289694
-0.425242
-0.322979
-0.0394794
0
-0.413267
-0.411291
-0.375606
-0.0791499
-0.466913
-0.360199
-0.41118
-0.375895
-0.0850826
-0.465635
-0.35261
-0.523387
-0.41232
-0.425627
-0.430723
-0.285183
-0.431688
-0.525536
-0.416749
-0.419313
-0.284886
-0.432976
-0.423748
-0.311911
-0.527705
-0.420533
0
-0.477533
-0.400729
-0.415096
-0.414342
-0.096697
-0.473709
-0.401632
-0.416045
-0.0926583
-0.414182
-0.41979
-0.417074
-0.132575
-0.49726
-0.403324
-0.418251
-0.43614
-0.176383
-0.495188
-0.40808
-0.434091
-0.464807
-0.322416
-0.523137
-0.410806
-0.426625
-0.31757
0
-0.0329629
-0.414384
-0.258738
-0.068068
-0.439501
-0.186649
-0.00450728
-0.0586435
-0.353559
-0.414452
-0.406716
-0.0997982
-0.484985
-0.3929
-0.418131
-0.390518
-0.0743509
-0.472982
-0.374936
-0.416438
-0.0626984
-0.366583
-0.0698691
-0.466668
-0.362231
-0.412903
-0.0582365
-0.284428
-0.4208
-0.41012
-0.462371
-0.330595
-0.427344
-0.56739
-0.411439
-0.0535069
-0.222006
-0.417945
-0.408702
-0.416728
-0.289318
-0.528642
-0.422364
-0.437966
-0.217667
-0.41381
-0.439054
-0.415843
-0.296196
-0.532304
-0.430812
-0.444366
-0.459916
-0.263606
-0.414149
-0.265698
-0.441684
-0.525647
-0.424932
-0.0168633
-0.453495
-0.216792
-0.148606
-0.436079
-0.395318
-0.0106215
-0.415011
-0.255889
-0.523394
-0.417902
-0.436244
-0.452655
-0.216597
-0.139364
-0.0108959
-0.393965
-0.430555
-0.415582
-0.304988
-0.537221
-0.4404
-0.449691
-0.0229157
-0.418638
-0.444057
-0.0131856
-0.461131
-0.26981
-0.479907
-0.409441
-0.405457
-0.0973252
-0.486997
-0.385122
-0.419999
-0.0514485
-0.00395362
-0.350436
-0.415422
-0.413258
-0.130377
-0.500884
-0.40044
-0.421974
-0.07044
-0.00724671
-0.369701
-0.418008
-0.168078
-0.0696675
-0.414839
-0.190748
-0.428791
-0.514866
-0.408244
-0.00937759
-0.0934073
-0.422755
-0.378924
-0.0944985
0
-0.0852276
-0.0954035
0
-0.0529385
-0.127911
-0.413297
-0.403847
-0.0611283
-0.219516
-0.408273
-0.0865831
0
-0.307195
-0.090218
-0.420233
-0.316573
-0.440312
-0.531666
-0.427172
0
-0.102411
0
-0.461605
-0.308029
-0.463952
-0.327157
-0.431541
-0.547275
-0.41111
-0.0583982
-0.215061
-0.41683
-0.408342
-0.363613
-0.0644487
-0.465394
-0.357456
-0.413562
-0.0499348
-0.292616
-0.421366
-0.410416
-0.391353
-0.0777037
-0.415032
-0.472807
-0.381408
-0.471816
-0.376686
-0.444574
-0.065517
-0.109341
-0.00878357
-0.113293
-0.04899
-0.412469
-0.396005
-0.411591
-0.132833
-0.425943
-0.503061
-0.396457
-0.00696723
-0.0628288
-0.420438
-0.365231
-0.285189
-0.0772474
-0.228999
-0.0733765
-0.455924
-0.2547
-0.325556
-0.0806245
-0.464961
-0.317268
-0.488753
-0.410438
-0.458541
-0.256472
-0.426388
-0.350247
-0.448383
-0.0556983
-0.00467533
-0.426711
-0.343648
-0.438819
-0.0048137
-0.48774
-0.162637
-0.410576
-0.455224
-0.0105877
-0.0675896
-0.186665
-0.451968
-0.354429
-0.401828
-0.0578829
-0.0530164
-0.43494
-0.00711691
-0.108277
-0.0418462
-0.375947
-0.571819
-0.458809
-0.467555
0
-0.071914
-0.348835
-0.460533
-0.0190906
-0.373751
-0.0664329
-0.0904319
-0.437921
-0.00875893
-0.125983
-0.0517111
-0.394111
-0.443899
-0.179709
-0.470887
-0.406447
-0.341845
-0.00399522
-0.038323
-0.420581
-0.104529
-0.0264532
-0.393039
-0.136829
-0.433339
-0.186988
-0.241828
-0.0705259
-0.440295
-0.169361
-0.416813
-0.486747
-0.407754
-0.00683307
-0.0553293
-0.424562
-0.360335
-0.133361
-0.0552381
-0.393214
-0.442633
-0.184361
-0.347314
-0.00381679
-0.0431853
-0.417229
-0.105433
-0.0292222
-0.471187
-0.383109
-0.137957
-0.134536
-0.0626118
-0.433496
-0.116804
-0.414236
-0.474506
-0.404962
-0.416291
-0.0912058
-0.47155
-0.401112
-0.413395
-0.449211
-0.216825
-0.291467
-0.0737649
-0.233678
-0.0448523
-0.419071
-0.409252
-0.428535
-0.337804
-0.384885
-0.0367789
-0.0371954
-0.431713
-0.00458853
-0.0937338
-0.0249423
-0.346581
-0.383204
-0.0363471
-0.434598
-0.336239
-0.425648
-0.00426845
-0.0259742
-0.100912
-0.345171
-0.116733
-0.0486249
-0.418129
-0.161291
-0.161709
-0.0490729
-0.415635
-0.407234
-0.114538
-0.0443881
-0.37442
-0.423443
-0.156534
-0.0419512
-0.0338917
-0.463581
-0.311159
-0.0703267
-0.156088
-0.397678
-0.44127
-0.0105294
-0.0579886
-0.149742
-0.403051
-0.453796
-0.219941
-0.47436
-0.408255
-0.0506532
-0.429593
-0.355158
-0.0068644
-0.52761
-0.432522
-0.446914
-0.418889
-0.322336
-0.536019
-0.435256
-0.447223
0
0
-0.0660378
-0.0559278
-0.0840965
-0.432659
-0.372084
-0.00884907
-0.35092
-0.0270339
0
-0.0783619
-0.277093
-0.0170395
-0.41853
-0.329483
-0.544191
-0.445538
-0.45246
-0.0338991
0
-0.232866
-0.072583
-0.450348
-0.450509
-0.117292
-0.364809
-0.0521613
-0.0900362
-0.00729155
-0.416441
-0.408261
-0.470683
-0.0682727
-0.304211
-0.0313751
-0.463959
-0.00800212
-0.192598
-0.402652
-0.465495
-0.0107769
-0.0614691
-0.235625
-0.41037
-0.480721
-0.0778683
-0.355158
0
-0.122744
0
-0.474333
0
-0.0840761
-0.354334
-0.470299
-0.0759696
-0.330811
-0.054394
-0.409357
-0.475307
-0.0722098
-0.330077
-0.0707942
-0.466486
-0.0709238
-0.29818
-0.0239834
-0.406449
-0.467791
-0.0162478
-0.065379
-0.274939
-0.461197
-0.0106924
-0.0645092
-0.209928
-0.459558
-0.00847655
-0.0590068
-0.162758
-0.290839
-0.0192806
-0.0823068
-0.0687453
-0.327488
-0.00431808
-0.0247603
-0.204927
0
-0.0697781
-0.346486
0
-0.132234
-0.00151616
-0.0125914
-0.170697
-0.308318
-0.0342097
-0.0648779
-0.324842
-0.0805719
-0.0264779
-0.317262
-0.0532869
-0.0330193
-0.0182718
-0.237843
-0.0332438
-0.0164392
-0.228166
-0.0853167
-0.06657
-0.325925
-0.00743551
-0.221306
-0.0635355
-0.336798
0
0
-0.0996387
-0.316335
-0.0645106
-0.322403
-0.0722686
-0.0677187
-0.342839
0
0
-0.119249
-0.00166622
-0.00891229
-0.158423
-0.00209424
-0.00615468
-0.141073
-0.013885
-0.210676
-0.00446026
-0.00180864
-0.139511
-0.304282
-0.0337737
-0.144361
-0.173069
-0.0418909
-0.0193111
-0.279211
-0.0365182
-0.065267
-0.307777
-0.0111961
-0.256094
-0.018228
-0.0623409
-0.28447
-0.005793
-0.012605
-0.174339
-0.00483878
-0.0182538
-0.191353
-0.0203772
-0.0243558
-0.229275
-0.0129799
-0.0191486
-0.20278
-0.0109629
-0.0276041
-0.217581
-0.0233201
-0.3177
-0.0532454
-0.0293429
-0.347631
0
-0.0676798
0
-0.0698454
-0.00820888
-0.127191
-0.00776375
-0.00788509
-0.139646
-0.0150942
-0.0102063
-0.15528
-0.0369262
-0.0631627
-0.309235
-0.0217234
-0.0179744
-0.213688
-0.0146653
-0.0115234
-0.171165
-0.0228738
-0.0149706
-0.197412
-0.0189579
-0.289341
-0.0137968
-0.0137181
-0.186885
-0.0273576
-0.349686
-0.265452
-0.0117852
-0.0231421
-0.0131526
-0.185468
-0.0068141
-0.00941715
-0.157995
-0.0180309
-0.276083
-0.333068
0
-0.0853007
-0.0124292
-0.26911
-0.00379306
-0.0344703
-0.214129
-0.0214073
-0.316924
-0.0134347
-0.266181
-0.00411648
-0.0302845
-0.212214
-0.204325
-0.0038367
-0.020325
-0.287417
-0.00815907
-0.0415719
-0.242424
-0.237983
-0.00716635
-0.0228777
-0.164436
-0.00150582
-0.0116716
-0.17637
-0.0395304
-0.291518
-0.0186752
-0.0336942
-0.241175
-0.0033617
-0.0991012
-0.014994
-0.217558
-0.0583779
-0.311251
-0.0267959
-0.039868
-0.267487
-0.00322755
-0.10909
-0.296914
-0.0371735
-0.0435585
-0.255344
-0.015687
-0.344745
-0.0681453
-0.021643
-0.283367
-0.0419571
-0.00274984
-0.00504603
-0.123872
0
-0.335434
-0.0747867
-0.27853
-0.0230466
-0.0359841
-0.232405
-0.00910301
0
-0.139453
0
-0.0713796
-0.349359
-0.0340213
-0.289718
-0.0411762
-0.0920243
-0.118885
-0.0737334
-0.352984
0
0
-0.137856
-0.0299595
-0.0286649
-0.25776
-0.0540158
-0.313222
-0.0173074
-0.273625
-0.0319703
-0.0533244
-0.0937287
-0.0419313
-0.121271
-0.00144025
-0.0159476
-0.176197
-0.00757236
-0.244498
-0.00146712
-0.0200748
-0.175451
-0.0208562
-0.316473
-0.146692
