# vtk DataFile Version 2.0
Unstructured Grid by M++
ASCII
DATASET UNSTRUCTURED_GRID
POINTS 81 float
  1.000000   0.625000 0
  0.625000   0.875000 0
  1.000000   0.750000 0
  0.875000   0.000000 0
  0.875000   0.875000 0
  0.750000   0.125000 0
  0.875000   0.500000 0
  0.625000   0.375000 0
  1.000000   0.250000 0
  1.000000   0.000000 0
  0.750000   0.375000 0
  1.000000   0.375000 0
  0.750000   1.000000 0
  0.625000   0.250000 0
  1.000000   0.125000 0
  0.750000   0.500000 0
  0.625000   0.625000 0
  1.000000   0.500000 0
  1.000000   1.000000 0
  0.875000   0.250000 0
  0.750000   0.750000 0
  0.625000   0.000000 0
  0.125000   0.625000 0
  0.250000   0.375000 0
  0.875000   1.000000 0
  0.750000   0.250000 0
  0.375000   0.375000 0
  0.500000   0.375000 0
  0.125000   0.500000 0
  0.375000   0.500000 0
  0.000000   0.625000 0
  0.125000   0.375000 0
  0.250000   0.750000 0
  0.125000   0.000000 0
  0.875000   0.375000 0
  0.500000   0.500000 0
  0.625000   0.750000 0
  0.500000   0.000000 0
  0.125000   0.125000 0
  0.250000   0.875000 0
  0.000000   0.500000 0
  0.125000   0.875000 0
  0.375000   0.000000 0
  0.000000   0.125000 0
  0.625000   1.000000 0
  1.000000   0.875000 0
  0.875000   0.125000 0
  0.500000   0.250000 0
  0.625000   0.500000 0
  0.250000   0.625000 0
  0.250000   0.500000 0
  0.000000   0.875000 0
  0.875000   0.625000 0
  0.500000   0.750000 0
  0.750000   0.625000 0
  0.250000   0.000000 0
  0.375000   0.750000 0
  0.375000   0.250000 0
  0.000000   0.375000 0
  0.500000   1.000000 0
  0.125000   0.250000 0
  0.500000   0.125000 0
  0.250000   1.000000 0
  0.125000   0.750000 0
  0.000000   0.000000 0
  0.500000   0.625000 0
  0.875000   0.750000 0
  0.750000   0.000000 0
  0.375000   0.125000 0
  0.500000   0.875000 0
  0.750000   0.875000 0
  0.625000   0.125000 0
  0.250000   0.250000 0
  0.375000   1.000000 0
  0.250000   0.125000 0
  0.000000   1.000000 0
  0.375000   0.875000 0
  0.000000   0.750000 0
  0.375000   0.625000 0
  0.000000   0.250000 0
  0.125000   1.000000 0
CELLS 64 320
4 79 43 60 38
4 72 60 74 38
4 72 74 57 68
4 55 74 33 38
4 50 28 23 31
4 72 23 60 31
4 35 29 27 26
4 79 60 58 31
4 55 42 74 68
4 50 23 29 26
4 64 33 43 38
4 40 58 28 31
4 47 27 57 26
4 72 57 23 26
4 37 61 42 68
4 47 57 61 68
4 77 30 63 22
4 32 63 49 22
4 32 49 56 78
4 32 56 39 76
4 62 39 73 76
4 77 63 51 41
4 53 69 56 76
4 40 28 30 22
4 75 51 80 41
4 32 39 63 41
4 50 49 28 22
4 62 80 39 41
4 59 73 69 76
4 35 65 29 78
4 50 29 49 78
4 53 56 65 78
4 25 13 5 71
4 67 3 5 46
4 25 5 19 46
4 25 19 10 34
4 15 10 6 34
4 47 13 27 7
4 8 19 14 46
4 8 11 19 34
4 37 21 61 71
4 35 27 48 7
4 47 61 13 71
4 25 10 13 7
4 67 5 21 71
4 15 48 10 7
4 17 6 11 34
4 9 14 3 46
4 53 65 36 16
4 20 36 54 16
4 15 54 48 16
4 20 54 66 52
4 2 45 66 4
4 35 48 65 16
4 59 69 44 1
4 20 66 70 4
4 15 6 54 52
4 12 70 24 4
4 20 70 36 1
4 53 36 69 1
4 2 66 0 52
4 12 44 70 1
4 18 24 45 4
4 17 0 6 52
CELL_TYPES 64
8
8
8
8
8
8
8
8
8
8
8
8
8
8
8
8
8
8
8
8
8
8
8
8
8
8
8
8
8
8
8
8
8
8
8
8
8
8
8
8
8
8
8
8
8
8
8
8
8
8
8
8
8
8
8
8
8
8
8
8
8
8
8
8
CELL_DATA 64
SCALARS scalar_value float 1
LOOKUP_TABLE default
0.186669
2.28587
1.92063
0.764067
0.211834
0.00314822
0.212744
1.75806
0.560453
1.77979
0.118256
1.66215
0.234387
1.93265
3.45077
0.783077
0.273414
3.32152
0.0318499
1.12436
1.02344
0.283906
2.37978
2.34986
1.03753
1.74256
0.316238
1.23119
0.60848
2.13146
0.90946
1.55457
0.295287
3.02267
1.20559
1.77738
0.000426294
2.10807
0.573338
0.461674
1.1786
1.38907
2.97522
0.34103
0.33557
1.50347
1.62227
0.217952
0.316779
2.32679
1.50095
0.821708
0.440907
0.0325869
2.49624
3.05138
0.324809
1.50567
1.2189
0.893672
0.781354
0.492932
0.648261
1.40701
