# vtk DataFile Version 2.0
Unstructured Grid by M++
ASCII
DATASET UNSTRUCTURED_GRID
POINTS 81 float
  1.000000   0.625000 0
  0.875000   0.875000 0
  0.750000   0.125000 0
  0.750000   0.375000 0
  1.000000   0.000000 0
  0.625000   0.875000 0
  1.000000   0.750000 0
  0.875000   0.000000 0
  0.625000   0.375000 0
  1.000000   0.250000 0
  1.000000   0.375000 0
  0.625000   0.625000 0
  1.000000   0.500000 0
  0.750000   1.000000 0
  0.625000   0.250000 0
  1.000000   0.125000 0
  0.750000   0.500000 0
  0.875000   0.500000 0
  1.000000   1.000000 0
  0.875000   0.250000 0
  0.625000   1.000000 0
  1.000000   0.875000 0
  0.875000   0.125000 0
  0.500000   0.250000 0
  0.625000   0.500000 0
  0.250000   0.625000 0
  0.875000   0.375000 0
  0.500000   0.500000 0
  0.125000   0.375000 0
  0.250000   0.375000 0
  0.375000   0.500000 0
  0.000000   0.625000 0
  0.125000   0.500000 0
  0.500000   0.375000 0
  0.625000   0.750000 0
  0.250000   0.875000 0
  0.500000   0.000000 0
  0.125000   0.125000 0
  0.250000   0.500000 0
  0.000000   0.875000 0
  0.375000   0.000000 0
  0.125000   0.875000 0
  0.000000   0.125000 0
  0.000000   0.500000 0
  0.250000   0.750000 0
  0.125000   0.000000 0
  0.125000   0.625000 0
  0.750000   0.750000 0
  0.625000   0.000000 0
  0.750000   0.625000 0
  0.250000   0.000000 0
  0.375000   0.750000 0
  0.750000   0.875000 0
  0.625000   0.125000 0
  0.250000   0.250000 0
  0.375000   1.000000 0
  0.000000   0.375000 0
  0.375000   0.250000 0
  0.500000   1.000000 0
  0.875000   0.750000 0
  0.750000   0.000000 0
  0.375000   0.125000 0
  0.500000   0.875000 0
  0.000000   0.250000 0
  0.125000   1.000000 0
  0.000000   0.750000 0
  0.375000   0.625000 0
  0.875000   0.625000 0
  0.500000   0.750000 0
  0.000000   1.000000 0
  0.250000   0.125000 0
  0.375000   0.875000 0
  0.000000   0.000000 0
  0.125000   0.750000 0
  0.500000   0.625000 0
  0.500000   0.125000 0
  0.125000   0.250000 0
  0.250000   1.000000 0
  0.875000   1.000000 0
  0.375000   0.375000 0
  0.750000   0.250000 0
CELLS 64 320
4 63 42 76 37
4 54 76 70 37
4 23 33 57 79
4 36 75 40 61
4 54 57 29 79
4 50 70 45 37
4 38 32 29 28
4 54 29 76 28
4 27 30 33 79
4 72 45 42 37
4 43 56 32 28
4 63 76 56 28
4 23 57 75 61
4 54 70 57 61
4 38 29 30 79
4 50 40 70 61
4 44 35 73 41
4 65 73 39 41
4 68 62 51 71
4 69 39 64 41
4 43 32 31 46
4 44 25 51 66
4 65 31 73 46
4 38 30 25 66
4 68 51 74 66
4 77 64 35 41
4 38 25 32 46
4 44 73 25 46
4 27 74 30 66
4 58 55 62 71
4 77 35 55 71
4 44 51 35 71
4 23 14 33 8
4 9 10 19 26
4 27 33 24 8
4 36 48 75 53
4 80 2 19 22
4 60 7 2 22
4 9 19 15 22
4 16 3 17 26
4 16 24 3 8
4 60 2 48 53
4 80 14 2 53
4 80 3 14 8
4 23 75 14 53
4 80 19 3 26
4 4 15 7 22
4 12 17 10 26
4 13 20 52 5
4 47 52 34 5
4 68 34 62 5
4 6 21 59 1
4 58 62 20 5
4 27 24 74 11
4 47 49 59 67
4 6 59 0 67
4 16 49 24 11
4 47 34 49 11
4 68 74 34 11
4 47 59 52 1
4 12 0 17 67
4 18 78 21 1
4 16 17 49 67
4 13 52 78 1
CELL_TYPES 64
8
8
8
8
8
8
8
8
8
8
8
8
8
8
8
8
8
8
8
8
8
8
8
8
8
8
8
8
8
8
8
8
8
8
8
8
8
8
8
8
8
8
8
8
8
8
8
8
8
8
8
8
8
8
8
8
8
8
8
8
8
8
8
8
POINT_DATA 81
SCALARS scalar_value float 1
LOOKUP_TABLE default
-5.30733e-05
-0.000115489
7.65277e-07
-3.86625e-05
0
-6.81455e-05
-6.20417e-05
0
-3.84125e-05
-3.58179e-05
-3.52143e-05
-6.83082e-05
-5.76941e-05
-0.000137121
-3.18925e-05
-2.8796e-05
-4.26682e-05
-3.77266e-05
-0.000128929
-3.55306e-05
-0.000101755
-0.000117204
-2.36066e-05
-6.80298e-06
-3.88631e-05
-4.2579e-05
-3.95435e-05
-3.98306e-05
-1.92928e-05
-1.385e-05
-4.06131e-05
-4.40524e-05
-4.41593e-05
-3.70931e-05
-6.86837e-05
-7.32726e-05
0
-1.47167e-05
-4.03884e-05
-7.32716e-05
0
-8.10166e-05
-1.5211e-05
-2.42956e-05
-4.89774e-05
0
-4.22797e-05
-7.15611e-05
0
-6.52452e-05
0
-6.85114e-05
-6.4568e-05
-2.53683e-07
-1.57557e-05
-7.38907e-05
-2.65694e-05
-8.7366e-06
-7.17528e-05
-5.96909e-05
0
-8.32368e-06
-7.41764e-05
-1.77461e-05
-7.72586e-05
-4.34169e-05
-4.09581e-05
-5.97848e-05
-6.90746e-05
-0.000138627
-1.11996e-05
-7.30878e-05
0
-4.31631e-05
-4.45224e-05
-6.80403e-06
-1.793e-05
-7.80539e-05
-0.000121605
-3.57113e-05
-3.84158e-05
