# vtk DataFile Version 2.0
Unstructured Grid by M++
ASCII
DATASET UNSTRUCTURED_GRID
POINTS 4072 float
  0.562500   0.968750 0
  0.906250   0.500000 0
  0.750000   0.781250 0
  0.953125   0.531250 0
  0.984375   0.875000 0
  0.828125   0.828125 0
  0.828125   0.859375 0
  0.562500   0.765625 0
  0.937500   0.687500 0
  0.968750   0.578125 0
  0.968750   0.781250 0
  0.734375   0.843750 0
  0.968750   0.718750 0
  0.734375   0.796875 0
  0.984375   0.718750 0
  0.984375   0.703125 0
  1.000000   0.750000 0
  0.984375   0.734375 0
  1.000000   0.718750 0
  0.953125   0.859375 0
  0.953125   0.843750 0
  0.937500   0.843750 0
  0.921875   0.640625 0
  0.937500   0.625000 0
  0.671875   0.906250 0
  0.687500   0.890625 0
  1.000000   0.687500 0
  0.828125   0.796875 0
  0.828125   0.750000 0
  0.515625   0.750000 0
  0.828125   0.937500 0
  0.968750   0.625000 0
  0.984375   0.593750 0
  0.984375   0.796875 0
  0.750000   0.859375 0
  0.859375   0.937500 0
  0.828125   0.953125 0
  0.859375   0.781250 0
  0.593750   0.515625 0
  0.984375   0.750000 0
  0.734375   0.828125 0
  1.000000   0.734375 0
  0.750000   0.812500 0
  0.953125   0.562500 0
  0.968750   0.750000 0
  0.734375   0.812500 0
  0.968750   0.546875 0
  0.843750   0.906250 0
  0.875000   0.875000 0
  0.578125   0.640625 0
  0.750000   0.968750 0
  0.984375   0.906250 0
  0.625000   0.515625 0
  0.937500   0.593750 0
  0.781250   0.578125 0
  0.640625   0.968750 0
  0.937500   0.531250 0
  0.937500   0.515625 0
  0.953125   0.500000 0
  0.703125   0.796875 0
  0.859375   0.718750 0
  0.703125   0.765625 0
  0.921875   0.703125 0
  0.687500   0.765625 0
  0.921875   0.500000 0
  0.718750   0.781250 0
  0.734375   0.765625 0
  0.968750   0.687500 0
  0.968750   0.890625 0
  0.734375   0.953125 0
  0.859375   0.828125 0
  0.890625   0.484375 0
  0.843750   0.843750 0
  0.828125   0.765625 0
  0.968750   0.906250 0
  0.796875   0.578125 0
  0.765625   0.828125 0
  0.609375   0.968750 0
  0.734375   0.656250 0
  0.671875   0.875000 0
  0.531250   0.906250 0
  0.546875   0.921875 0
  0.765625   0.656250 0
  0.531250   0.937500 0
  0.531250   0.734375 0
  0.765625   0.671875 0
  0.843750   0.734375 0
  0.843750   0.937500 0
  0.609375   1.000000 0
  0.593750   0.796875 0
  0.828125   0.734375 0
  0.578125   0.812500 0
  0.671875   0.562500 0
  0.781250   0.562500 0
  0.656250   1.000000 0
  0.765625   0.796875 0
  0.656250   0.593750 0
  0.796875   0.562500 0
  0.625000   0.828125 0
  0.625000   0.625000 0
  0.859375   0.562500 0
  0.796875   1.000000 0
  0.890625   0.781250 0
  0.875000   0.781250 0
  0.625000   0.859375 0
  0.843750   0.781250 0
  0.859375   0.765625 0
  0.843750   0.765625 0
  0.859375   0.750000 0
  0.843750   0.750000 0
  0.765625   1.000000 0
  0.781250   0.984375 0
  0.875000   0.625000 0
  0.875000   0.812500 0
  0.640625   0.875000 0
  0.562500   0.906250 0
  0.796875   0.843750 0
  0.796875   0.828125 0
  0.656250   0.906250 0
  0.890625   0.640625 0
  0.875000   0.843750 0
  0.859375   0.843750 0
  0.625000   0.906250 0
  0.812500   0.875000 0
  0.859375   0.515625 0
  0.812500   0.843750 0
  0.796875   0.875000 0
  0.796875   0.859375 0
  0.593750   0.968750 0
  0.859375   0.875000 0
  0.625000   0.937500 0
  0.843750   0.875000 0
  0.593750   0.953125 0
  0.859375   0.859375 0
  0.828125   0.671875 0
  0.890625   0.765625 0
  0.656250   0.828125 0
  0.656250   0.625000 0
  0.890625   0.562500 0
  0.640625   0.843750 0
  0.640625   0.640625 0
  0.875000   0.578125 0
  0.890625   0.750000 0
  0.875000   0.765625 0
  0.562500   0.625000 0
  0.968750   0.500000 0
  0.734375   0.562500 0
  0.937500   0.578125 0
  0.703125   0.640625 0
  0.656250   0.984375 0
  0.640625   1.000000 0
  0.953125   0.578125 0
  0.671875   0.984375 0
  0.906250   0.921875 0
  0.921875   0.687500 0
  0.671875   0.765625 0
  0.687500   0.750000 0
  0.906250   0.484375 0
  0.984375   0.921875 0
  0.734375   1.000000 0
  1.000000   0.906250 0
  0.750000   0.984375 0
  0.828125   0.843750 0
  0.593750   0.906250 0
  0.828125   0.640625 0
  0.843750   0.828125 0
  0.609375   0.890625 0
  0.609375   0.687500 0
  0.843750   0.625000 0
  0.734375   0.875000 0
  0.968750   0.812500 0
  0.859375   0.812500 0
  0.625000   0.875000 0
  0.859375   0.609375 0
  0.843750   0.812500 0
  0.859375   0.796875 0
  0.828125   0.812500 0
  0.593750   0.875000 0
  0.828125   0.609375 0
  0.781250   0.843750 0
  0.515625   0.921875 0
  1.000000   0.781250 0
  0.765625   0.843750 0
  1.000000   0.578125 0
  0.765625   0.968750 0
  0.890625   0.703125 0
  0.656250   0.765625 0
  0.890625   0.500000 0
  0.875000   0.703125 0
  0.937500   0.937500 0
  0.984375   0.578125 0
  0.578125   0.531250 0
  0.875000   0.609375 0
  0.640625   0.671875 0
  0.796875   0.625000 0
  0.859375   0.593750 0
  0.625000   0.656250 0
  0.609375   0.671875 0
  0.593750   0.687500 0
  1.000000   0.562500 0
  0.765625   0.625000 0
  0.656250   0.578125 0
  0.625000   0.546875 0
  0.671875   0.812500 0
  0.906250   0.750000 0
  0.796875   0.546875 0
  0.828125   0.718750 0
  0.578125   0.781250 0
  0.875000   0.656250 0
  0.640625   0.718750 0
  0.734375   0.984375 0
  0.968750   0.921875 0
  0.609375   0.531250 0
  0.953125   0.921875 0
  0.968750   0.937500 0
  0.593750   0.546875 0
  0.765625   0.609375 0
  0.531250   0.671875 0
  0.781250   0.593750 0
  0.546875   0.656250 0
  0.656250   0.656250 0
  0.890625   0.593750 0
  0.656250   0.859375 0
  0.921875   0.671875 0
  0.968750   0.734375 0
  0.718750   0.812500 0
  0.812500   0.984375 0
  0.562500   0.796875 0
  0.750000   0.640625 0
  0.765625   0.687500 0
  0.531250   0.953125 0
  0.687500   0.656250 0
  0.921875   0.593750 0
  1.000000   0.593750 0
  0.750000   0.671875 0
  0.671875   0.750000 0
  0.906250   0.687500 0
  1.000000   0.656250 0
  0.812500   0.562500 0
  0.687500   0.796875 0
  0.921875   0.734375 0
  0.828125   0.546875 0
  1.000000   0.625000 0
  0.953125   0.968750 0
  0.750000   0.906250 0
  0.515625   0.968750 0
  0.812500   0.531250 0
  1.000000   0.796875 0
  0.515625   0.937500 0
  0.750000   0.875000 0
  0.812500   0.703125 0
  0.796875   0.703125 0
  0.812500   0.593750 0
  0.937500   0.562500 0
  0.656250   0.968750 0
  0.890625   0.906250 0
  0.703125   0.625000 0
  0.953125   0.546875 0
  0.671875   0.953125 0
  0.906250   0.890625 0
  0.984375   0.781250 0
  0.796875   0.687500 0
  0.562500   0.953125 0
  0.968750   0.875000 0
  0.718750   0.953125 0
  0.562500   0.937500 0
  0.781250   0.781250 0
  0.953125   0.875000 0
  0.718750   0.937500 0
  0.953125   0.671875 0
  0.796875   0.656250 0
  0.828125   1.000000 0
  0.953125   0.890625 0
  0.703125   0.968750 0
  0.828125   0.625000 0
  0.781250   0.968750 0
  0.781250   0.671875 0
  0.781250   0.875000 0
  0.546875   0.937500 0
  0.906250   0.640625 0
  0.671875   0.703125 0
  0.640625   0.609375 0
  0.875000   0.546875 0
  0.906250   0.625000 0
  0.656250   0.703125 0
  0.656250   0.718750 0
  0.968750   0.531250 0
  0.734375   0.593750 0
  0.984375   0.531250 0
  0.781250   0.546875 0
  0.718750   0.609375 0
  0.906250   0.703125 0
  0.968750   0.593750 0
  0.687500   1.000000 0
  0.921875   0.937500 0
  0.906250   0.765625 0
  0.906250   0.562500 0
  0.718750   0.750000 0
  0.718750   0.546875 0
  0.953125   0.484375 0
  0.796875   0.593750 0
  0.515625   1.000000 0
  0.750000   0.937500 0
  0.906250   0.593750 0
  0.546875   1.000000 0
  0.781250   0.937500 0
  0.828125   0.593750 0
  0.984375   0.609375 0
  0.937500   0.953125 0
  0.796875   0.515625 0
  0.968750   0.609375 0
  0.734375   0.671875 0
  0.906250   0.781250 0
  0.671875   0.843750 0
  0.515625   0.890625 0
  0.687500   0.625000 0
  0.921875   0.562500 0
  0.843750   0.531250 0
  1.000000   0.765625 0
  0.750000   0.843750 0
  0.812500   0.671875 0
  0.687500   0.921875 0
  0.765625   0.515625 0
  0.953125   0.609375 0
  0.921875   0.625000 0
  0.687500   0.687500 0
  0.812500   0.656250 0
  0.812500   0.859375 0
  0.578125   0.921875 0
  0.796875   0.765625 0
  0.890625   0.687500 0
  0.578125   0.750000 0
  0.812500   0.687500 0
  0.578125   0.953125 0
  0.796875   0.796875 0
  0.984375   0.890625 0
  0.734375   0.968750 0
  0.718750   0.640625 0
  0.968750   0.562500 0
  0.687500   0.968750 0
  0.921875   0.906250 0
  0.765625   0.953125 0
  0.812500   0.609375 0
  0.812500   0.734375 0
  0.875000   0.562500 0
  0.968750   0.656250 0
  0.796875   0.734375 0
  0.812500   0.828125 0
  0.578125   0.890625 0
  0.781250   0.687500 0
  0.984375   0.671875 0
  0.578125   0.828125 0
  0.812500   0.765625 0
  0.875000   0.593750 0
  1.000000   0.875000 0
  0.765625   0.937500 0
  0.843750   0.656250 0
  0.843750   0.859375 0
  0.609375   0.921875 0
  0.828125   0.687500 0
  0.937500   0.656250 0
  0.937500   0.859375 0
  0.703125   0.921875 0
  0.984375   0.640625 0
  0.890625   0.468750 0
  0.656250   0.734375 0
  0.890625   0.671875 0
  0.890625   0.875000 0
  0.656250   0.937500 0
  0.578125   0.859375 0
  0.812500   0.796875 0
  0.843750   0.890625 0
  0.609375   0.953125 0
  0.937500   0.875000 0
  0.687500   0.953125 0
  0.843750   0.953125 0
  0.828125   0.703125 0
  0.593750   0.765625 0
  0.937500   0.546875 0
  0.781250   0.531250 0
  0.781250   0.734375 0
  0.546875   0.796875 0
  0.796875   0.718750 0
  0.562500   0.984375 0
  0.984375   0.812500 0
  0.562500   0.812500 0
  0.796875   0.750000 0
  0.562500   0.875000 0
  0.796875   0.812500 0
  0.640625   0.750000 0
  0.875000   0.687500 0
  0.703125   0.671875 0
  0.937500   0.609375 0
  0.562500   0.843750 0
  0.796875   0.781250 0
  0.781250   0.750000 0
  0.781250   0.609375 0
  0.812500   0.953125 0
  0.812500   0.718750 0
  0.953125   0.593750 0
  0.718750   0.656250 0
  0.671875   1.000000 0
  0.796875   0.953125 0
  0.843750   0.609375 0
  0.812500   0.812500 0
  0.812500   0.781250 0
  0.750000   0.953125 0
  0.750000   0.750000 0
  0.984375   0.687500 0
  0.781250   1.000000 0
  0.765625   0.546875 0
  0.765625   0.750000 0
[...]
POINT_DATA 4072
SCALARS scalar_value float 1
LOOKUP_TABLE default
6.10528e-06
0.000430338
0.00245772
9.2843e-06
-5.58438e-06
0.00054205
0.000317667
-0.00906174
0.000168427
1.07022e-05
8.20999e-06
-0.000544357
7.55826e-05
0.00844214
-3.18509e-05
5.21221e-05
6.60954e-05
5.46008e-05
5.54907e-05
4.73575e-06
9.60012e-06
-4.1239e-08
8.96973e-05
-3.0539e-06
0.000232528
-0.00064692
1.32009e-05
-1.5128e-05
-3.89496e-05
0.00322721
4.83537e-05
4.64198e-07
1.37525e-05
-1.0431e-05
0.00187672
-2.94382e-05
4.88533e-06
0.000364232
2.09176
-1.4478e-05
0.00354239
-6.81104e-05
0.00529822
1.27458e-05
5.08292e-05
-0.0069698
-9.85472e-06
0.000229055
0.000291961
0.656738
-2.58113e-05
-8.4225e-06
2.35757
7.67617e-06
-0.00397846
0.000170973
-3.66726e-05
-3.83225e-05
-5.24043e-06
0.0122528
0.000222904
0.00987295
0.000327316
-0.0135422
0.000168481
0.00978911
0.00277511
4.54899e-05
-8.86729e-06
3.28643e-05
0.000241959
-7.24738e-05
0.000788351
-0.000575467
-1.2244e-06
0.00173903
0.00552497
0.000214509
0.0247583
0.000205653
-3.07765e-05
0.00400331
-0.00198035
-0.0020233
0.0110066
-0.000786215
8.41615e-05
4.51315e-05
0
-0.00198434
-0.000683997
0.0193717
2.24826
-7.02353e-06
0
0.0051283
0.965632
9.83551e-05
0.00217502
0.577102
-4.75131e-05
0
-3.64455e-05
-0.000250579
-0.0018693
-4.35384e-05
0.000127939
5.81224e-05
0.000556893
-0.00047534
0
-7.91794e-05
0.000333077
0.000207021
-0.000252665
-0.00192899
-0.00165593
0.00294985
-0.000295637
0.000256618
0.000474637
-0.00028911
-0.00111203
0.000659942
-2.4197e-05
0.00176831
-0.00171829
0.00122555
-0.000139368
-3.0337e-05
-0.000538311
0.000375602
-0.00160238
0.000190767
0.00168188
-0.000357177
0.00529123
0.391039
1.99615e-05
0.00189004
0.169213
4.81461e-06
-0.000129144
0.000137659
0.393181
5.89158e-06
0.208552
3.18564e-05
0.171168
-0.000512133
0
-2.93201e-05
0.000627237
-8.12289e-05
-0.000279712
0.0282868
0.00902588
-7.00783e-05
2.5645e-06
0
-2.58832e-06
7.09065e-05
-0.00133866
-0.00128209
0.00294352
-0.000369163
0.000533376
0.508242
0.00140954
0.00104602
3.50668e-06
-0.000262741
-0.000432574
0.000379193
0.000639389
0.000417422
-0.00122844
-0.00112252
0.00155514
0.00118308
0.000607172
3.02113e-05
-0.00127127
5.94386e-06
-0.000113896
0.00030294
-0.0354955
7.8399e-05
-0.000463363
4.05721e-05
1.26898e-06
2.12676
-0.000152854
0.065031
-0.00651358
-0.000109685
0.301046
0.382788
1.12192
-2.82483e-06
-0.0127516
1.06774
2.14198
-0.000726654
3.60517e-05
0.00081382
0.00011829
0.0634202
0.000953765
0.0138295
4.55572e-05
-2.36146e-05
1.08129
2.38223e-05
9.58403e-06
1.93692
0.0123133
0.0744726
0.00683713
0.185073
0.171822
8.69819e-07
-0.000190411
0.000268345
-8.91604e-05
0.00765462
-6.46794e-05
-0.0314209
0.00015042
0.00123752
-0.00344222
0.140259
2.58618e-05
-1.11264e-05
0.00288112
-0.0056366
0.000481528
-7.76522e-06
0.000123319
-0.0129275
0.000154172
0.000158106
-9.24581e-06
-1.89192e-05
-0.000480974
-0.00200933
5.40052e-05
-8.20215e-06
0.000196943
-0.00137982
0.000722924
-0.000633055
0.00173329
-3.15912e-05
-7.25659e-05
-0.000126632
0.252849
6.87757e-06
0.000360276
-3.65972e-05
1.21761e-05
0.000230136
-0.00270489
-3.77459e-06
8.16256e-05
4.54267e-06
0.000612778
2.21421e-06
-0.000215233
6.2007e-05
-0.00334083
0
7.87086e-06
-5.77403e-05
-0.00268679
-3.25574e-05
-0.000168306
-0.000232464
0.000224253
-0.000153826
0.0314209
0.372818
4.24867e-05
7.40942e-05
0.0520143
0.0169473
-2.21004e-06
0.0817164
6.40537e-06
-0.000576402
0.197063
-0.000388619
-1.46135e-06
0
-5.9183e-05
0.000167061
-4.69869e-05
0.000317429
0.758903
-3.56453e-05
-0.00345322
0
5.7618e-05
1.04461e-05
0
-0.000212893
-0.000778402
6.88249e-06
-3.22285e-05
0.00143724
1.23314e-05
0.0129602
-1.58962e-05
0.00409516
-0.0081455
0.331031
-0.000106705
5.63281e-05
-5.11168e-05
0.00132115
-0.00142392
-0.000403149
-0.0126555
-1.9778e-05
8.35558e-06
0.0532291
0.0034758
-0.000263992
0.00124541
-7.03808e-05
-0.000826892
0.170818
0.000664678
0.00215359
0.00170152
-8.21389e-07
0.000147879
0.0995614
-9.84563e-06
-0.000298503
-5.68286e-05
6.06817e-05
-0.00313584
0.000854156
9.63103e-05
7.3327e-06
-0.000404263
-0.00132598
0.000610881
-0.000573969
2.33107e-05
-0.0015949
0.000604856
-4.93256e-06
-5.30246e-06
-0.000119207
0.00196735
-0.000463079
0.000884103
-0.000941093
5.71394e-05
-2.00151e-05
0.000290161
1.00206e-05
0.000168324
0.0277303
0.000535065
-6.69627e-05
-0.000435565
0.00364299
-0.000458387
-0.000311504
0.00121757
-5.66611e-06
-5.10295e-05
-7.99905e-06
-0.000220251
-0.108734
-3.32688e-05
-5.93843e-05
0.000692076
-0.0196024
0.000610576
-0.00250396
9.86574e-06
0.0280783
0.000478664
-0.00447928
-0.00181884
-0.0498994
0.000899898
0.0703781
4.27685e-06
0.00694835
-0.000219084
-0.00053407
-0.0100199
-0.000165192
-0.000118761
-8.61841e-06
0.0618338
0
-2.2661e-06
-0.000743693
0.0016016
0.0005568
-0.000130453
-0.00216442
-1.2115e-05
0
-0.00898185
0.00161491
0.0169813
0.000312665
0.000454841
-0.0219711
0.000109067
-0.00460032
0.00206096
4.44732e-06
-0.0167773
0.00261563
-0.00203533
-7.35497e-05
-1.69321e-05
-7.41511e-06
0.0224573
-0.000137467
0
7.90542e-05
9.51966e-06
-0.00937589
-5.08069e-05
0.00398953
0.0202091
1.23655e-05
0.00442477
0.0395324
0.000491055
-0.00270065
-1.9685e-05
0.0256709
0.000492528
0.0121141
0.000300285
-0.0230396
-3.56913e-05
-0.00076068
8.93937e-05
0
-0.00129903
0.00732513
0.330904
-3.38429e-05
-2.9509e-05
0
-0.0102175
0.000128442
5.15285e-05
-0.000666174
0.36328
-0.00017794
-0.00748035
6.42716e-05
-0.000666306
0.354132
-1.14586e-05
-5.83457e-05
0.000138901
3.15787e-05
4.9709e-06
0
-0.000661058
-1.54709e-05
-7.35596e-07
2.7225e-05
-2.32926e-05
0
0
-1.17652e-05
-0.00416016
-8.12704e-06
4.89604e-06
1.29728
-2.42977e-07
3.66033e-05
0
1.43147
0.000331657
-2.1078e-06
0
0
-0.00288416
-7.00013e-05
0.0436674
0.00010701
-0.000470969
-0.0179899
-0.000412203
0.0337075
0.00130845
0.397824
0.00153041
0.275189
-0.00135736
8.35443e-06
-2.68225e-05
0
-0.000332948
1.23772
0
1.14596
-1.03578e-05
0.000104177
0.917379
9.80345e-06
-7.32616e-05
1.00357
-1.93265e-06
0.751107
-3.02429e-05
5.80164e-06
1.82632
-3.25871e-05
0.000224375
-6.28977e-06
1.53737
1.90393e-05
-4.44189e-05
0.0030734
4.62861e-06
-3.74339e-05
2.05755
9.22457e-06
-1.75538e-05
0.65346
0.808002
4.70228e-06
-0.000497545
-0.0548282
0.000689192
-3.95412e-05
-0.000187565
0.000665085
-0.000385711
0.00139198
0.0068067
9.66787e-05
0
2.27143e-06
-0.000195409
-0.0211258
0.000242988
0.000795071
-0.0003546
-0.0204285
0.00777982
-0.000169892
0.000120007
3.54303e-05
0.674214
-0.000238912
1.84338
0.00596795
0.236043
-0.000602825
0.264092
1.77311
0.30074
0.0031857
0
0
0.000125076
0.000503489
5.84402e-05
-0.000231469
1.4416e-05
1.8743e-05
-0.00493486
1.86805e-05
6.37973e-06
5.12734e-05
-1.91069e-05
-5.24616e-07
-1.83217e-05
-3.54928e-05
3.15195e-05
-5.84912e-05
-0.00179996
-0.000114725
-7.53781e-06
-1.84015e-06
-0.000248033
-1.16277e-06
1.64683e-05
-6.85147e-06
-2.08334e-06
1.872e-05
0
0
-5.46973e-05
-9.69909e-06
-2.09467e-06
-2.06631e-05
0
-1.37363e-05
-0.000707979
-0.000358977
0.000111341
-0.000174002
0.000148419
3.66783e-06
-4.75932e-07
2.51954e-05
1.11096e-05
0.00212492
-5.9544e-05
-0.00203018
5.12486e-05
4.06712e-05
-8.59715e-06
-0.000262531
-0.000117076
3.05915e-05
8.20741e-05
-4.00136e-06
-8.52815e-06
-3.36239e-06
3.15085e-05
-7.63673e-05
-0.000515774
-1.77616e-05
7.92386e-05
0.000151483
-0.000100311
-0.000875355
0.0561952
-0.000199463
-1.1732e-05
-4.12962e-06
-1.2869e-05
4.27229e-07
-0.00221371
0.00249585
2.86778e-06
1.85358e-05
0.000761544
-2.5754e-05
6.53561e-05
-0.0106316
-0.00298993
-4.67258e-05
-0.00691863
4.31207e-05
-0.00248095
-0.00182412
-0.000104479
-3.67398e-05
9.36964e-05
-0.0139651
0.000170667
0
-4.13897e-05
9.72894e-05
-0.00269737
-4.87341e-05
0.00184518
8.08568e-06
0.000110032
-2.47938e-05
-3.02109e-05
0
8.1801e-05
0.486246
-3.66345e-05
0.00478173
-2.32971e-06
-3.36811e-05
0.000981548
0.0143287
-0.00081626
-0.0210309
4.38367e-05
0.00854265
-0.00356042
0.00176812
-2.64165e-05
6.25975e-05
-1.94035e-05
0.000676391
-0.00015568
-0.000124924
0.0132914
1.33905
0
-0.00538678
-0.0393496
-0.0130396
-0.000896505
-0.000462673
0.000167488
0.00842264
0
0.140362
0.0124867
-0.0108992
0.000562611
-0.0149559
-0.00106658
0.00118422
0.0962402
-0.000316127
6.55815e-07
0.1056
0.000170411
0.000933383
-3.82889e-05
0.194783
0.248024
-4.47254e-06
0.00104731
-0.00186754
0.0398136
-3.86347e-06
-3.01751e-05
2.32727
0.028994
0.030535
-0.000870208
-0.0108047
0.00214861
-0.00159919
0.00836429
1.42412e-05
0.00943625
0.00289865
0.550976
0.0368804
-0.000256898
0.000133021
4.73271e-05
1.26512e-05
-1.07084e-05
-0.000164242
0.0184247
0.000982906
0.137897
-8.71352e-07
-0.00272603
-5.09554e-05
-0.00310458
0.0198238
8.01043e-05
-0.008642
-0.000544729
-0.0468731
-7.21974e-06
0.000637075
0.00835305
-0.000611108
-0.0065123
0.00923365
-1.45334e-06
0.10142
-0.00165974
0.0747911
1.13197e-06
1.09092e-05
2.03982e-05
0.00237158
0.287422
-0.015306
-4.3491e-05
0.0448873
-1.26274e-05
1.99393
1.12848
-3.71642e-05
7.13162e-07
0.0104645
0.385286
0.000348071
-7.36865e-05
-0.00236433
5.29661e-05
0.00101185
-0.00168304
-0.00275578
1.60384
-0.0186421
-1.00326e-05
0.065941
0.0458341
0.00740768
-0.00336557
-0.00457429
-0.000815471
-0.00438646
-0.0384459
-0.00374616
-0.00610741
0.00133107
-4.15718e-05
0.00132465
1.3271
0.82687
6.21813e-05
0.00502926
0.55877
9.49431e-05
0.381918
9.67817e-06
0.000868873
0.00022437
0.632135
0.277349
-0.00108553
-9.98544e-05
-0.0144688
0
-0.000241817
0.0385351
-0.00167986
0.016161
-3.65012e-05
-5.34874e-05
7.4278e-06
0.00637942
5.64004e-05
0.000333334
0.876257
0.529948
0.102242
0.113424
-0.00980713
0.112801
-0.000400438
-0.00138769
0.585085
0.408648
0.15419
0.0478642
0.0375717
0.0443124
0.383799
0.10386
0.000213726
1.8194
0.565109
0.000469511
-0.00332352
0.00254881
1.03909
0.48312
-0.000939348
-0.000970477
0.00151477
0.00146272
-0.00277447
1.29161
0.316454
0.000766523
-0.000379368
-3.32499e-05
-0.00136231
0.0177549
0
-0.0142948
-0.000122532
-0.00213436
1.09185
4.00544e-05
-0.00551998
0.00627604
-0.000113799
0.0099745
0.0017071
-0.00146312
-0.00414815
0.00859952
8.3727e-06
0.393528
0.104554
-0.0084972
-0.000592398
-0.00480242
-0.000426305
1.39141e-05
-0.00756744
-0.0084494
0.0805929
-0.00248751
0.000922898
-0.000548249
0.0734394
-0.000310849
0.000146915
-0.00368637
0.00342916
-0.00373325
-0.0108781
0.0896639
0.00697764
0.0889306
0.00617368
-2.26353e-06
-0.000316404
0.314523
0.129081
0.00502392
1.72194
0.630973
-1.42665e-05
-6.64681e-06
-0.00129961
0.000358775
-0.00138089
0.297572
0.0148499
-0.000449261
-0.000151859
5.61733e-05
-0.0111326
-0.000107983
0.000363572
-0.00745429
-0.0194742
-0.00158762
0.0752999
0.00664795
1.92346e-05
-0.00480723
0.0141822
0.000895247
0.000615898
-0.00646891
7.28089e-05
-0.00487462
-0.00105769
-0.0203589
0.0010812
1.83599
-0.0451998
0.00060712
0.00114327
3.75362e-06
-0.0198296
1.22205
-9.47096e-05
0.122677
-6.99597e-06
1.75044
4.76882e-05
0.145952
0.000214639
0
-0.00192772
1.66325
0.2665
-0.000489557
1.60822
-1.07731e-06
1.70797
1.58881
1.74705
-0.000209743
0.467868
-0.0103429
2.25729
-0.000453153
1.38264e-06
-0.00118703
-2.83232e-07
0.815371
1.1076
0.0326666
0.349408
0.0964274
-2.70387e-05
-0.0205502
0.356682
0.0239072
3.2532e-06
-0.000165009
1.00525
-0.000446067
0.299728
0.627137
0.653956
-6.0809e-05
0.000154884
0.000574115
0.461195
0.48622
3.3914e-05
-4.8308e-05
-0.00863884
2.42642e-06
1.44931
-0.000258329
0.474348
0.450841
-0.000791114
0.0289271
-9.72159e-05
1.88365
0.856428
1.82488
0.540486
-0.00119546
0.000313253
9.60142e-06
1.76426
-0.000278584
0.0316581
4.91355e-09
-2.14694e-07
0.0153245
2.24819
0.000889676
0.00029141
0.151333
-5.71009e-06
0.00491147
1.10408
2.15665
0.00322208
0.00123923
-0.0427618
0.000993622
0.145367
0
-3.33535e-06
1.25762e-05
0.000371838
5.36023e-06
0.00849443
0.0219834
7.05316e-05
0.0196153
0
2.1439
1.54706e-06
-1.284e-05
-1.1276e-05
0.0457398
0.931005
-9.63313e-06
-1.66151e-05
-1.34587e-05
0.000985921
1.82516
-0.000721241
1.83587
3.22168e-05
0.00119725
0.920189
0.000772059
-2.05374e-05
-0.00128022
1.94104
1.91204
-0.00474104
7.37723e-06
1.32839e-06
-0.00112242
0.145931
-3.17353e-06
-0.0180477
1.92988
1.89973
-1.6591e-05
0.199336
2.27006e-05
-0.000285166
0.00016323
-0.00119346
2.08055
1.76006
-0.000247812
-0.0422114
-2.85685e-07
0.394916
1.02654e-06
-4.09679e-07
0.937576
0.00337247
0.081642
3.60419e-06
1.19304e-06
-1.0104e-05
0.925111
-0.00188753
-0.00119104
0.504609
0.00321498
0.000138815
0.000103228
0.843793
-4.36096e-07
0.0011734
0.000198342
-3.22889e-05
0.0322695
1.31509
-0.000173049
0.000729718
-5.16424e-06
0.76513
-0.000365571
1.75844e-06
-0.0121295
2.01427
-3.98745e-07
-3.04825e-07
-0.00244529
1.60061e-07
8.10034e-05
0.00306772
0.163375
-4.51958e-05
-0.00466795
1.27819
1.58491
0.457907
0.051944
0.000610285
1.80171
0.189141
0.000131253
-8.6347e-05
-7.19799e-05
-4.7704e-06
0.0031332
2.31495e-06
-0.000365109
0.205475
6.92808e-06
-0.000282933
-2.56631e-06
-0.00372479
0.452607
-1.84311e-06
0.00198237
-1.17123e-05
0.377024
1.69724
-2.01928e-05
0.00233483
-0.000163669
-0.0474496
-6.1714e-06
-8.77708e-05
-0.000482612
0.0749348
-2.56619e-06
2.34413e-05
5.28076e-06
1.90292
1.23693
-9.82061e-05
1.88054
0.522038
-2.57027e-05
-0.000123661
0.169115
0.543681
-0.000245676
1.36936e-06
0.0152198
0.000802425
0.198694
-1.23499e-06
-0.00911074
2.19725
-5.59891e-06
-4.14932e-06
0.168286
-8.86537e-06
0.166735
0
0.0374179
-0.00247995
-0.0115488
3.91032e-07
0.000296323
2.55107e-06
1.53074
-6.63971e-05
0.00067323
2.33829e-07
1.86125
0.278023
4.16491e-05
0.000311117
0.331163
-5.94968e-05
-0.00104799
6.13264e-06
-0.00995371
3.10746e-06
1.9938
1.21479
-0.000529555
-0.000564524
-1.17589e-05
0.0267115
8.98399e-06
0.0140712
1.1107
-0.0061147
0.713515
3.79045e-07
-0.00872932
1.32434
1.70904
0.0053969
0.801529
-2.60594e-06
0.0165017
0.246551
1.3011
1.24578
-0.0220915
4.55499e-05
-1.9595e-05
-0.111525
0.000459695
0.11595
-0.00148634
1.13125
-0.0373315
-0.00136112
-0.00172526
0.183243
-0.0013231
1.35053
1.02208
0.000310486
1.25965
-0.000186053
7.98166e-05
0.172907
-8.20287e-06
1.35537
2.96115e-05
0.196257
1.22281
1.51071
0.00239338
-1.0804e-05
-4.28873e-05
-0.0885939
-5.09427e-05
1.07228
0.216366
-0.00125522
-0.0014529
-0.00025266
0.000261039
-9.97157e-06
1.38453
1.42273
0.000917966
8.90692e-05
0.000109903
1.55386
2.23701
1.00318e-05
0.021315
-2.92629e-06
0.740447
0.611147
0.298093
0.00221154
2.30463
-0.0202354
-1.36269e-05
-6.09219e-06
-2.859e-06
-2.80136e-06
-0.00052668
1.43538
-3.40264e-05
0.0103583
2.10535
6.21726e-05
-6.49988e-05
0.000135162
0.227192
0.0063037
2.16279
-0.034534
-4.97651e-06
-3.0912e-05
9.53909e-06
-2.65609e-05
-0.014127
0.000411843
0.242533
8.31567e-05
0.480856
0.00390967
1.95295
1.92517
-0.014184
9.7745e-07
0.151066
0.000289863
-0.000473531
-2.77477e-05
0.225398
8.12344e-05
0.586138
4.84243e-05
0.000114317
0.0700196
0.354248
1.81533e-05
-0.000214926
0.0852394
-6.05145e-06
0.780332
-2.4017e-05
0.0018272
1.97185
-0.0196457
-4.08963e-06
0.000828992
3.07207e-05
1.59086
0.674735
-4.77358e-07
2.32811
-0.0125639
0.000332471
0.757833
0.000712907
-0.000818458
2.01917
0.000299146
0.000786626
-4.69002e-06
-0.0410665
0.00156907
0.00111843
-0.000107402
-0.0829082
-0.000933038
0.379306
-0.00232558
1.70186
-0.004388
-2.45388e-07
1.07879
0.00229192
3.69164e-06
2.37188e-06
0.00219165
2.0404
1.32268e-05
1.15629
6.23643e-05
1.48791
0.0109334
-0.00749937
0
0.000491783
-0.000103397
-0.00144932
-0.00227085
0.00750035
-0.00352119
0.925045
0.00491333
0.000627062
0.225395
2.28287
-3.46267e-05
0.000136144
0.00840994
-0.000328118
0.488882
0.000909997
2.02916
0.00498416
-7.86299e-05
3.32916e-06
0.00397881
4.06315e-05
0.00186887
1.20752
0.000363616
2.70408e-06
-0.00478575
-0.0501857
1.44279
0.000175098
-0.000335772
0.00126087
-0.000104483
7.96295e-06
-9.24991e-06
-0.0572198
6.75447e-05
0
3.18523e-05
4.80162e-05
2.08435
0.822675
-2.7809e-06
4.19282e-05
2.01959
0.0224147
-2.98974e-05
2.22084
1.68202
0.00262301
0.526135
-0.00376897
1.03507e-05
1.61899
-7.1561e-05
0.0133642
0.000373166
1.46226
1.96761
8.53344e-05
0.220953
0.00168392
1.95047
2.07157
-0.000929486
0.0741898
-1.01429e-07
0.88108
0.232116
-0.0162591
2.09186
-6.37128e-09
1.68162
7.54644e-05
0.000802029
-9.67848e-05
0.000733557
2.12646
0.000573698
1.24192
0.450398
4.42516e-07
-0.00169491
-0.00256473
1.80096
0.000426336
-3.5856e-07
1.39775
-0.000115235
-1.48268e-07
1.46918
2.02418
-0.000104688
-0.0104099
2.2393
1.67217e-06
0.125741
0.00237455
9.23471e-07
-2.60995e-06
-1.00023e-06
-0.000191677
1.9506
-0.000205827
4.29257e-07
2.12343
1.86182
2.30571
-0.0183009
-1.31918e-06
0.00104204
1.35257
0.00064083
0.000842938
4.87391e-05
0.0958774
1.83005e-05
0.0548464
2.03577
-0.000379142
4.45761e-07
1.09412
3.4737e-07
0.00470453
0.0965208
4.043e-06
-3.70477e-05
1.66449
0.535522
0.0892628
0.00489222
-0.0521573
3.00392e-05
-0.00092341
2.02699
0.0264478
0.181264
-3.83999e-05
-1.16313e-05
0.00471883
-0.0135223
-0.000694759
0.0033259
1.06741
0.0665415
-0.00470625
0.000482422
0.0579734
0.000285552
0.00256057
1.77775
1.6822
1.88171e-06
0.000100542
-0.043332
0.000476035
0.28668
-8.98231e-05
-0.0609856
-2.80444e-05
-0.00456641
0.000159199
0.671053
-2.63044e-05
1.08508
-0.00172208
1.13919e-05
-0.0565382
-1.35671e-05
0.235949
1.16544
-0.000278025
4.71722e-07
2.30542
0.103462
-1.44047e-06
0.0155194
-0.000122632
-5.73997e-07
0.00119524
-0.00111174
8.7625e-05
1.1231
-0.0975858
3.42821e-07
0.000290175
-3.3732e-05
-1.60997e-06
1.529
-1.41414e-05
0.548908
1.49985
0.000568244
3.73817e-05
0.00502648
-8.73091e-06
0.225601
1.91312
1.8182e-05
0.00206068
-2.47672e-05
0.0066795
0.000132558
-1.45613e-05
-1.42793e-05
-0.0206967
2.4297e-05
2.22437
0.00642685
1.11323
-4.04598e-05
1.24695e-05
-0.00108801
0.0951004
-2.9049e-06
0.000300029
-0.000683325
0.32771
0.0011763
2.00814
1.25097
4.08027e-06
-8.2389e-05
2.74477e-05
2.16543
-7.44083e-05
1.95085
-0.000593903
0.000506746
0.467757
-4.17866e-05
0.147055
2.19406
7.28059e-05
1.21108
-0.0132557
-0.00061113
0.358765
0.0754842
-5.94347e-06
0.00191163
-0.000137248
0.442008
0.00170679
1.06867
-0.00489465
-8.1649e-05
0.000394359
2.0647e-07
-9.86957e-05
-0.0398626
-1.14163e-05
-2.08664e-05
8.2602e-06
3.79311e-06
-0.025841
0.000632393
0.0382271
-8.23521e-06
1.88637
-0.00130089
0.003687
0.115022
0
0.173861
-0.00260154
1.89221
1.87412
0.846399
-0.000533188
2.10884
1.07645
-0.000735261
0.0947897
-8.42046e-06
-4.62504e-05
-2.81433e-05
-0.000457855
0.267077
0.0137744
-0.00212232
0.0231362
1.92465
0.0183085
-0.00128951
0.000412596
0.306605
0.00129725
1.38982
2.60368e-05
1.79293
5.47603e-05
5.84716e-07
-3.50196e-05
0.00162049
-0.0065335
1.44717
0.384242
0.205175
1.69267
2.55057e-05
-7.28678e-06
0.782564
0.12137
-0.00895834
2.15571
-6.29192e-05
0.872377
1.84627
0.000280594
-0.010187
-3.52568e-07
3.15897e-05
1.20597
2.1597
-0.0386692
-0.000340413
1.01473
0.000352534
4.18519e-07
0.829624
1.7907
-0.0101745
-0.00219897
0.268202
-2.36006e-06
-0.000142446
1.08417e-06
-0.0102101
-2.29851e-05
-2.90951e-06
0.00675165
-0.000490958
0.635514
-0.0548461
-1.31101e-05
0.896346
1.70194
0.000356876
0.000743465
1.05874
0.00453256
1.35121
0.0107174
0.023052
0.468665
2.03763
-0.00320983
1.7752
0.000411738
-4.58764e-06
-7.98834e-05
0.257712
2.18715
-0.000939342
-0.196507
-0.000516106
6.84991e-06
1.95321
6.24667e-05
-0.00547178
-3.69706e-07
-0.00258344
0.832126
1.71307
0.461292
8.39293e-05
0.0127389
8.93107e-06
-0.00288379
2.556e-06
1.04625e-05
2.15248e-05
1.14907e-05
1.5305e-05
-0.00638348
0.149621
0.158936
0.133327
-1.77514e-05
6.76958e-05
0.0529067
-3.35963e-06
1.00401
-9.70606e-06
0.909493
0.000499539
1.71192
2.67625e-06
-1.85967e-05
0.000652115
2.22459
1.4691
0.00350876
0.0424699
-5.12435e-06
0.326349
2.01293e-05
1.33913
5.72798e-06
0.103277
0.00075656
1.90931
0.561452
-0.000537501
4.12898e-06
-0.00115557
1.99829e-06
-0.0208524
0.124721
0.6824
6.04663e-07
1.72716
1.35719e-06
1.22681
2.13668
-0.00053286
-0.00322503
3.07091e-05
0.019666
-1.14128e-06
0.0115227
-0.000795558
-0.0247915
1.86797
-0.031352
0.84675
0.133419
3.39845e-05
0.0354312
-9.6343e-07
1.44574
-9.75063e-06
1.63278
1.48735
2.06848
0.000173746
0.240938
-0.0029883
-6.22485e-05
-0.000193268
0.282373
-1.45054e-05
1.0943
-0.0716118
4.9702e-06
-0.0114412
0.613089
-8.48075e-06
0.000275916
0.00103391
1.41593
-2.90137e-05