# vtk DataFile Version 2.0
Unstructured Grid by M++
ASCII
DATASET UNSTRUCTURED_GRID
POINTS 4072 float
  0.812500   0.625000 0
  0.953125   0.609375 0
  0.968750   0.609375 0
  0.875000   0.687500 0
  0.812500   0.937500 0
  0.859375   0.687500 0
  0.796875   0.937500 0
  0.968750   1.000000 0
  0.984375   0.984375 0
  0.968750   0.984375 0
  0.843750   0.656250 0
  0.875000   0.656250 0
  0.812500   0.906250 0
  0.859375   0.640625 0
  0.781250   0.984375 0
  0.843750   0.734375 0
  0.781250   0.968750 0
  0.843750   0.718750 0
  0.765625   0.968750 0
  0.828125   0.718750 0
  0.921875   0.593750 0
  0.859375   0.843750 0
  0.765625   1.000000 0
  0.828125   0.750000 0
  0.875000   0.796875 0
  0.890625   0.781250 0
  0.875000   0.781250 0
  0.921875   0.609375 0
  0.859375   0.859375 0
  0.984375   0.968750 0
  1.000000   0.968750 0
  1.000000   0.953125 0
  0.859375   0.734375 0
  0.796875   0.984375 0
  0.875000   0.734375 0
  0.812500   0.984375 0
  0.906250   0.953125 0
  0.968750   0.703125 0
  0.796875   0.750000 0
  0.812500   0.812500 0
  0.828125   0.796875 0
  0.781250   0.843750 0
  0.843750   0.593750 0
  0.953125   0.937500 0
  0.890625   0.625000 0
  0.828125   0.875000 0
  0.906250   0.625000 0
  0.843750   0.875000 0
  0.890625   0.609375 0
  0.828125   0.859375 0
  0.906250   0.609375 0
  0.843750   0.859375 0
  0.906250   0.593750 0
  0.843750   0.843750 0
  0.843750   0.765625 0
  0.859375   0.750000 0
  0.796875   1.000000 0
  0.937500   0.609375 0
  0.875000   0.859375 0
  0.765625   0.515625 0
  0.843750   0.640625 0
  0.843750   0.578125 0
  0.781250   0.828125 0
  0.843750   0.515625 0
  0.781250   0.765625 0
  1.000000   0.687500 0
  0.937500   0.937500 0
  0.828125   0.593750 0
  0.765625   0.843750 0
  0.828125   0.531250 0
  0.765625   0.781250 0
  0.765625   0.984375 0
  0.828125   0.734375 0
  0.812500   0.734375 0
  0.765625   0.765625 0
  0.781250   0.750000 0
  1.000000   0.656250 0
  0.937500   0.906250 0
  0.765625   0.750000 0
  0.968750   0.578125 0
  0.953125   0.593750 0
  0.953125   0.578125 0
  0.937500   0.593750 0
  0.875000   0.843750 0
  0.812500   0.796875 0
  0.875000   0.546875 0
  0.984375   0.953125 0
  0.984375   0.937500 0
  0.765625   0.562500 0
  0.937500   0.656250 0
  0.875000   0.906250 0
  0.765625   0.531250 0
  0.937500   0.625000 0
  0.875000   0.875000 0
  0.937500   0.859375 0
  1.000000   0.609375 0
  0.828125   0.687500 0
  0.765625   0.937500 0
  1.000000   0.781250 0
  0.812500   0.671875 0
  0.984375   0.765625 0
  0.828125   0.656250 0
  1.000000   0.750000 0
  0.937500   1.000000 0
  0.781250   0.515625 0
  0.953125   0.671875 0
  0.890625   0.921875 0
  0.781250   0.578125 0
  0.953125   0.984375 0
  0.984375   0.640625 0
  0.921875   0.890625 0
  0.968750   0.625000 0
  0.906250   0.875000 0
  0.812500   0.765625 0
  0.984375   0.859375 0
  1.000000   0.843750 0
  0.968750   0.859375 0
  0.843750   0.703125 0
  0.781250   0.953125 0
  0.843750   0.750000 0
  0.781250   1.000000 0
  0.843750   0.687500 0
  0.781250   0.937500 0
  0.828125   0.765625 0
  1.000000   0.859375 0
  0.828125   0.703125 0
  0.765625   0.953125 0
  0.968750   0.968750 0
  0.968750   0.953125 0
  0.796875   0.781250 0
  0.859375   0.531250 0
  0.968750   0.937500 0
  0.953125   0.968750 0
  0.781250   0.796875 0
  0.843750   0.546875 0
  0.953125   0.953125 0
  0.781250   0.812500 0
  0.953125   0.906250 0
  0.859375   0.781250 0
  0.859375   0.703125 0
  0.796875   0.953125 0
  0.859375   0.765625 0
  1.000000   0.734375 0
  0.937500   0.984375 0
  0.828125   0.578125 0
  0.765625   0.828125 0
  1.000000   0.796875 0
  0.828125   0.640625 0
  0.984375   0.734375 0
  0.921875   0.984375 0
  0.812500   0.640625 0
  0.890625   0.953125 0
  0.953125   0.703125 0
  0.796875   0.687500 0
  0.968750   0.781250 0
  0.968750   0.750000 0
  0.906250   1.000000 0
  0.953125   0.765625 0
  0.812500   0.718750 0
  0.843750   0.984375 0
  0.906250   0.734375 0
  0.921875   0.625000 0
  0.859375   0.875000 0
  0.921875   0.687500 0
  0.859375   0.937500 0
  0.968750   0.796875 0
  0.796875   0.703125 0
  0.937500   0.671875 0
  0.984375   0.796875 0
  0.812500   0.703125 0
  0.765625   0.687500 0
  0.937500   0.843750 0
  1.000000   0.593750 0
  0.937500   0.781250 0
  1.000000   0.531250 0
  0.812500   0.781250 0
  0.984375   0.875000 0
  0.843750   1.000000 0
  0.906250   0.750000 0
  0.968750   0.500000 0
  0.968750   0.718750 0
  0.906250   0.968750 0
  0.796875   0.625000 0
  0.859375   1.000000 0
  0.921875   0.750000 0
  0.968750   0.765625 0
  0.796875   0.609375 0
  0.859375   0.984375 0
  0.921875   0.734375 0
  1.000000   0.625000 0
  0.937500   0.875000 0
  1.000000   0.562500 0
  0.937500   0.812500 0
  0.875000   0.984375 0
  0.937500   0.734375 0
  0.906250   0.703125 0
  0.843750   0.953125 0
  0.906250   0.687500 0
  0.843750   0.937500 0
  0.937500   0.765625 0
  0.890625   0.718750 0
  0.828125   0.968750 0
  0.890625   0.703125 0
  0.828125   0.953125 0
  0.921875   0.781250 0
  0.906250   0.796875 0
  0.921875   0.718750 0
  0.859375   0.968750 0
  0.921875   0.703125 0
  0.859375   0.953125 0
  0.765625   0.546875 0
  0.937500   0.640625 0
  0.875000   0.890625 0
  0.937500   0.703125 0
  0.875000   0.953125 0
  0.765625   0.593750 0
  0.937500   0.687500 0
  0.875000   0.937500 0
  0.890625   0.937500 0
  0.953125   0.687500 0
  0.906250   0.718750 0
  0.843750   0.968750 0
  0.937500   0.796875 0
  0.828125   0.921875 0
  0.890625   0.671875 0
  0.984375   0.750000 0
  0.921875   1.000000 0
  0.812500   0.593750 0
  0.875000   0.968750 0
  0.937500   0.718750 0
  0.890625   1.000000 0
  0.953125   0.750000 0
  0.968750   0.671875 0
  0.906250   0.921875 0
  0.968750   0.734375 0
  0.906250   0.984375 0
  0.796875   0.578125 0
  0.984375   0.671875 0
  0.921875   0.921875 0
  0.812500   0.515625 0
  0.812500   0.578125 0
  0.765625   0.578125 0
  0.843750   0.906250 0
  0.906250   0.656250 0
  0.890625   0.750000 0
  0.828125   1.000000 0
  0.781250   0.593750 0
  0.984375   0.546875 0
  0.921875   0.796875 0
  0.921875   0.812500 0
  0.859375   0.656250 0
  0.859375   0.593750 0
  0.796875   0.843750 0
  0.859375   0.578125 0
  0.796875   0.828125 0
  0.921875   0.953125 0
  0.984375   0.703125 0
  0.984375   0.625000 0
  0.921875   0.875000 0
  0.875000   0.640625 0
  0.812500   0.890625 0
  0.875000   0.578125 0
  0.812500   0.828125 0
  0.765625   0.859375 0
  0.828125   0.609375 0
  0.937500   0.953125 0
  1.000000   0.703125 0
  0.921875   0.906250 0
  0.984375   0.656250 0
  0.921875   0.968750 0
  0.984375   0.718750 0
  1.000000   0.765625 0
  0.890625   0.984375 0
  0.953125   0.734375 0
  0.953125   0.656250 0
  0.890625   0.906250 0
  0.953125   0.718750 0
  0.890625   0.968750 0
  0.781250   0.562500 0
  0.796875   0.796875 0
  0.968750   0.640625 0
  0.906250   0.890625 0
  0.953125   0.796875 0
  0.953125   0.859375 0
  0.781250   0.703125 0
  0.984375   0.781250 0
  0.875000   1.000000 0
  0.937500   0.750000 0
  0.906250   0.937500 0
  0.968750   0.687500 0
  0.843750   0.625000 0
  0.781250   0.875000 0
  0.765625   0.796875 0
  0.937500   0.890625 0
  1.000000   0.640625 0
  0.781250   0.781250 0
  0.906250   0.906250 0
  0.968750   0.656250 0
  0.796875   0.765625 0
  1.000000   0.718750 0
  0.937500   0.968750 0
  0.828125   0.562500 0
  0.765625   0.812500 0
  0.828125   0.625000 0
  0.484375   0.750000 0
  0.421875   1.000000 0
  0.000000   0.218750 0
  0.453125   0.640625 0
  0.281250   0.546875 0
  0.312500   0.640625 0
  0.406250   0.984375 0
  0.468750   0.734375 0
  0.328125   0.656250 0
  0.390625   0.828125 0
  0.453125   0.578125 0
  0.437500   0.875000 0
  0.015625   0.093750 0
  0.312500   0.531250 0
  0.406250   0.937500 0
  0.343750   0.562500 0
  0.281250   0.812500 0
  0.453125   0.984375 0
  0.359375   0.625000 0
  0.296875   0.875000 0
  0.468750   0.796875 0
  0.046875   0.015625 0
  0.437500   0.656250 0
  0.312500   0.578125 0
  0.421875   0.921875 0
  0.000000   0.140625 0
  0.484375   0.671875 0
  0.265625   0.734375 0
  0.468750   0.984375 0
  0.046875   0.203125 0
  0.406250   0.625000 0
  0.390625   0.609375 0
  0.375000   0.625000 0
  0.265625   0.562500 0
  0.484375   0.812500 0
  0.062500   0.031250 0
  0.484375   0.984375 0
  0.062500   0.203125 0
  0.312500   0.890625 0
  0.375000   0.640625 0
  0.375000   0.671875 0
  0.390625   0.687500 0
  0.484375   0.843750 0
  0.390625   0.500000 0
  0.328125   0.687500 0
  0.328125   0.765625 0
  0.390625   0.515625 0
  0.437500   0.796875 0
  0.484375   0.531250 0
  0.468750   0.968750 0
  0.046875   0.187500 0
  0.453125   0.843750 0
  0.453125   0.812500 0
  0.281250   0.718750 0
  0.468750   0.859375 0
  0.265625   0.984375 0
  0.375000   0.765625 0
  0.296875   0.562500 0
  0.484375   0.781250 0
  0.062500   0.000000 0
  0.453125   1.000000 0
  0.031250   0.218750 0
  0.453125   0.546875 0
  0.312500   0.703125 0
  0.328125   0.718750 0
  0.296875   0.656250 0
  0.281250   0.640625 0
  0.265625   0.656250 0
  0.281250   0.671875 0
  0.484375   0.890625 0
  0.062500   0.109375 0
  0.296875   0.687500 0
  0.296875   0.625000 0
  0.265625   0.703125 0
  0.265625   0.687500 0
  0.265625   0.625000 0
  0.953125   0.046875 0
  0.484375   0.875000 0
  0.484375   0.921875 0
  0.062500   0.140625 0
  0.453125   0.921875 0
  0.031250   0.140625 0
  0.968750   0.234375 0
  0.171875   0.671875 0
  0.500000   0.796875 0
  0.078125   0.015625 0
  0.218750   0.718750 0
  0.062500   0.828125 0
  0.734375   0.250000 0
  0.906250   0.140625 0
  0.109375   0.578125 0
  0.781250   0.015625 0
  0.718750   0.187500 0
  0.031250   0.828125 0
  0.718750   0.234375 0
  0.890625   0.125000 0
  0.093750   0.562500 0
  0.734375   0.359375 0
  0.859375   0.546875 0
  0.062500   0.984375 0
  0.750000   0.406250 0
  0.718750   0.343750 0
  0.250000   0.750000 0
  0.234375   0.734375 0
  0.046875   0.578125 0
  0.734375   0.000000 0
  0.828125   0.125000 0
  0.031250   0.562500 0
[...]
POINT_DATA 4072
SCALARS scalar_value float 1
LOOKUP_TABLE default
-0.00626762
-0.00838088
0.00674361
0.00340801
-0.00604514
0.00518489
-0.0423146
0
0.0028587
-0.00375747
-0.00604655
0.00412189
-0.0183851
0.0032301
-0.0039807
-0.0110848
-0.00557273
-0.00142685
-0.00442948
0.0102551
0.00203153
-0.00855242
0
0.015751
-0.0176279
-0.0114385
-0.00436751
-0.0074252
-0.00118345
-0.00297316
-0.0032024
-0.00804206
0.000336415
-0.0208436
-0.00357982
0.0060927
-0.00532871
0.00529
-0.00540757
0.00761268
0.0210769
-0.00096591
-0.00903201
0.00150612
-0.00550271
0.00622994
0.00320001
0.00761603
-0.0150015
0.0121258
-0.000544264
-0.00560791
0.00496609
0.00452727
-0.0109125
0.00357919
0
-0.00156849
-0.0098932
-0.000966717
-0.0105059
0.000880015
-0.0121644
-0.00439962
-0.00319536
-0.00771426
0.00152302
-0.00500287
0.0150233
4.29981e-05
-0.00424619
-0.00646367
0.00557358
-0.00962409
0.00797723
0.0118631
-0.00121285
-0.00680013
0.000872221
0.00435079
-0.0053633
-0.0102556
0.00447253
0.0165645
-0.0183148
-0.00210908
0.00336611
0.000687331
0.00802758
-0.000570572
-0.00807728
0.0102974
-8.33721e-05
0.0142023
-0.00812184
0.00192036
0.00512997
0.00193455
-0.00417029
-0.0104504
0.00417072
0.00579921
0.00145606
0
0.00189535
3.70877e-05
0.0121232
0.00483659
0.00503584
0.0119288
0.000842474
0.00962565
-0.0170694
-0.0166589
0.00379923
-0.0027868
-0.000485002
-0.0103964
0.000437189
-0.004426
0
-0.00496
0.0128707
0.0110251
-0.00841975
0.00737863
-0.00359331
0.00129179
-0.00309244
-0.0121912
-0.000380877
0.000940311
-0.000897658
-0.0108545
-0.00227527
0.00433535
0.0121528
0.00330709
0.00367609
-0.00304638
-0.0205111
0.00319856
-0.00817979
-0.00368002
-0.00280062
0.00424882
-0.00372907
0.000512128
0.0114357
-0.000758814
-0.0025874
0.00594837
0.00110803
0.00530714
0.00475545
0.00278328
0
0.00289805
-0.0100069
0.012281
0.00622845
0.0031034
-0.000871237
-0.00191345
-0.00785796
-0.00152972
-0.00149829
-0.00135511
0.00465844
-0.00998203
0.00028317
-0.000265305
-0.00564609
-0.00531274
0.00677276
0.00534722
0.00360146
0
0.00265883
0.00415468
0.00812356
-0.00647303
0.00490902
0
-0.0039765
0.00390152
0.00546323
0.0024923
0.000898009
0.000738248
-0.0014891
0.0005365
-0.00272172
-0.00846503
-0.00319176
-0.000200974
0.00724472
0.00708839
0.00911283
-0.00365472
-0.00899344
-0.000666091
-0.01252
0.00553043
-0.000690009
-0.000936998
-0.00611218
-0.0101097
0.000195499
0.0103244
6.60846e-05
-0.00165398
-0.00175724
-0.00035706
-0.00457685
0.00554699
-0.00240753
-0.0102672
0.00627831
-0.00402692
0.00566126
0.00356077
-0.00212962
-0.00160911
-0.0127232
0.00682469
0
-0.000948681
0.00130653
-0.00213313
0
-0.00161892
0.0122693
-0.0105392
0.00638674
-0.00901596
0.00416507
0.00578624
0.00547386
0.000634968
-0.00283201
0.00181044
0.0119994
0.0039237
-0.00981718
0
0.00941903
0.0122046
0.00367775
-0.00297567
0.000789999
0.008053
-0.00927214
-0.000275209
-0.00579887
0.00245663
0.0111535
0.00743308
-0.0387949
-0.00472634
-0.0171106
-0.0107352
-0.0118514
-0.0178367
0.0032457
-0.00846245
0.00120656
-0.000323679
0.0130542
0.00118511
0.00357014
-0.00679255
0.0112688
0.000120238
-0.00132652
-0.00336874
-0.00097304
0.00354746
0.00743887
-0.00201329
0.0143884
-0.00473992
-0.00159233
-0.000527085
0.00866638
0.00865357
0
-0.000648848
-0.00409733
0.00899023
-0.00366458
-0.0325336
0.0151202
0.000986839
-0.00329322
0.0125106
-0.00552236
0.00456559
0.000239097
-0.00161979
0.00194336
-0.000674078
-0.00262628
2.74599e-05
0.00666062
0
-0.00351238
0.0027558
0.0191759
0.0128646
-0.00838385
-0.0121835
-0.00352426
-0.00822776
0.00798411
-0.0261188
-0.000867491
-0.026837
-0.00675849
0.00561832
0.00343259
0.0278743
0.0116932
0.00962609
-0.00221931
-0.00308191
-0.00326293
-0.00370551
0.00116217
-0.00265617
0.017725
-0.00746644
0.00127311
-0.00119475
-0.00237865
-0.0130473
-0.0106492
0.0204998
0.0140397
0.00285522
0.00749554
-0.00172481
0.00541398
0.000677708
-0.00380302
-0.000693048
0.00759215
-0.0881595
2.43347e-05
0.0132838
0.0265221
-0.000360174
0.00769485
0.00643899
0.00103761
0.00790702
-0.00454543
-0.00736209
0.00557831
-0.0241824
0.002925
-0.0766051
0.00950284
0.00266622
0
-0.00716185
-0.00414798
-0.00959559
0.00884214
0.0166428
-0.0136231
-0.0123274
0.0199785
0.00799545
0.00179431
0.00653806
-0.0124429
-0.0119804
-0.00196362
0.0302572
0.0039839
0.00410953
0.00941841
0.0011178
0.00764538
-0.00603149
-0.00159074
0.00265287
0.00749947
0.00223712
-0.0137813
0.00382941
0.00701152
0.00241962
0.0140743
-0.00548948
0.0012153
0.0142458
-0.0152656
-0.00270657
-0.00651123
-0.00365832
0.00168763
0.00355582
-0.00158104
-0.00785249
0.00459518
-0.00587219
0.00200073
0.0239099
-0.00256878
0.000599587
-0.00765105
-0.0168999
0.124943
0.015003
0.00393237
0.000721979
0.00602564
-0.005441
0.00698772
0.00803914
-0.000968286
-0.00108279
0.00647975
0.00436148
0.0007847
0.00249513
-0.00881469
0.00244703
-0.00769789
-0.00752481
-0.00327866
-0.00941405
-0.00602819
0.00226839
0.0112869
-0.00168311
0.00248622
0.00784253
0.00699013
-0.000504003
-0.0241143
-0.00233618
0.00646633
0.0046132
0.00855983
-0.00551006
-0.0297241
-0.00859863
0.000651079
0.00150069
0.00672305
0.0256928
0.00188871
0.0154792
-0.00665183
0.0139573
0.0205777
-0.00568159
0.0130158
-0.00300503
-0.000642218
0.00845214
0
-0.0365421
0.00928938
0.00563037
-0.00865215
0.0180917
-0.00140832
-0.0128955
-0.00206967
-0.001486
-0.00488911
-0.00717164
0.00679679
-0.0175079
-0.00167908
-0.00303879
-0.00120943
0
0.00474933
-0.00125343
-0.026101
-0.010822
-0.00410163
-0.00968831
-0.0115223
-0.00482336
0.009022
0.0124238
-0.00544441
0.0113162
0.00326061
-0.00416825
-0.00129478
-0.00679781
0.00032798
0.000545628
-0.00158071
0.00316952
-0.0122684
-0.00987918
0.00345277
-0.00335879
0.00199906
-0.0010325
-0.00813914
0.0020777
-0.0201985
-0.00497163
0.00253261
-0.00110236
-0.00485121
-0.0168813
-0.0220232
0.00483195
8.52268e-06
0.00494237
-0.0228741
0.0107633
-0.000414035
0.00271158
0.00601449
-0.00799813
0.00439835
-0.00181635
-0.0152628
-0.000112108
0.00354813
-0.002543
0.00879974
-0.0113796
-0.000241343
-0.000926381
0.0001421
0.00148427
-0.000630134
-0.00276383
-0.00169384
0.00251221
-0.00289959
0.0157762
0.00806097
0.00462809
0.00410921
-0.0116533
-0.00168978
-0.00618378
0.0147351
0.00988755
0.00309585
0.00681032
0.00920385
-0.00778402
0.00539759
-0.0134005
0.00869153
0.00295655
0.00346082
0.00345947
0.00514183
-0.00399001
0.00143708
0.000627062
0.004467
-0.00321997
0.00468336
0.00360017
-0.00910258
0.00325241
0.00267177
0.00245041
0.00610614
0.00670946
0.00170817
-0.0024821
-0.0107142
0.00602439
4.64371e-05
9.6481e-05
-0.00404214
0.0113694
-0.000842476
-0.00223647
0.00119293
6.54768e-05
0.00234427
0.00823839
-0.0117299
0.0146229
-0.00869858
-0.00786629
0.01049
-0.00462499
0.00354391
-0.00208361
-0.00262106
0.00566418
0.0129678
0.000560737
-0.00332037
-0.00790254
0.00366657
0.00917368
0.0116481
-0.00283958
0.00806405
-0.000466077
0.00494096
0.00469182
0.0152667
-0.000898279
-0.00366013
0.00157598
0.0114264
0.0076353
0.00274972
0.000966919
0.00342856
-0.00217084
-0.00148238
-0.000303202
0.00331698
0.00632905
0.00176602
-0.00244729
-0.00264492
-0.00132275
0.0353322
0.00906227
0.00913078
-0.00328556
0.0090523
0.0112478
0.0260371
0
-0.00072383
0.0186491
-0.00742702
-0.0026433
-0.0220129
0.107914
0.00363337
0.00306136
0.00505751
0.0248563
0.00449201
0.000186906
0.00631819
0.00886651
0.00266054
0.0392058
0.0142686
0.0143652
-0.00683499
-0.0127036
0.00944364
0.00684628
-0.00662263
0.0124427
0.00384999
-0.00109648
-0.00628296
0
0.0062356
0.0888987
0.00627599
0.00702242
0.0051732
-0.000191807
-0.0526718
-0.000313777
-1.4235e-05
0.00218737
-0.0061035
-0.00623404
0.00158155
0.00504618
-0.00744673
-0.0288689
0.00454429
0.00289415
-0.000287107
0.0179394
-0.000364494
0.0132016
0.00118521
-0.00365608
0.00668412
-0.00166318
-0.00732476
0
0
0.0109096
0.0323929
0.01007
0.0185769
-0.0218174
-0.0134194
0.0163839
0.0190334
-0.000313267
-0.00764594
0.019797
0.00512415
0.00163572
0.00493218
-0.00155995
0.0766147
-0.0067656
0.00182437
0.0253454
0.0716137
0.0224613
0.00462975
0.00535516
-0.00994895
0.072508
0.0331506
0.129949
-0.0118687
-0.0217588
-0.00412993
0.137946
-0.00195619
0.00364864
0.0180324
0.00159587
-0.0338933
-0.00377283
0.0107563
0.00444612
0.0212503
0.0101258
-0.0265998
0.152654
-0.000986373
-0.0353307
0.0103693
0.00621282
0.00375154
0.0388398
0.00304221
-0.0177489
-0.00901204
0.00645577
0.00890687
0.0217837
0.0096298
0.0307588
-0.00627085
0.00956374
0.0454421
-0.0131778
0.00986651
0.0225377
0.011673
-0.004859
-0.0162115
0.0116382
-0.00711326
0.0133134
-0.0133515
0.00420409
0.0342675
0.00564943
0.0275043
0.00454655
-0.00810577
0.00587111
0.0319573
0.000381995
-0.00988368
0.0137388
9.97775e-05
0.00337592
-0.00823891
0.0826382
-8.22995e-05
0.0707904
0.0305589
0.0575018
-3.66388e-05
0.00197879
-0.00618559
0.00256033
0.035345
0.0101248
-0.0439878
-0.0294901
-0.000570014
-0.0181198
0.0530764
-0.00918151
0.00479987
-0.00600069
0.0320868
0.0955148
0.00028486
0.0603628
-0.00265272
-0.010386
-0.00323863
0.0249353
0.156101
0.0558375
0.00278065
0.00199227
-0.0508317
0.0142996
0.0335148
0.063699
0.089502
-0.000100227
0.00580752
0.0496194
-0.0195421
-0.00228282
0.00698552
0.0837214
0.0121006
-0.00136997
0.0238009
0.00142093
0.0189957
0.0284614
0.0368308
0.163111
0.0375134
-0.00748975
0.00275396
0.0355763
0.053282
-0.0144815
-0.0157672
0.032233
0.0222602
0.0583304
0.00259663
0.00237526
0.00528685
0.038068
0.0252111
0.0475873
0.00944722
-0.0136836
-0.01398
0.036695
-0.00994766
-0.00554383
0.00549587
-0.00428674
-0.00304197
-0.0551001
0.0082484
0.000463322
0
-0.0147995
0.0344047
0.00337128
0.0082637
0.0459365
0.00389712
-0.00152129
0.0158652
0.0155293
0.0552203
-0.000818054
0.00845166
0.0389178
-0.0192659
-0.033985
0.111991
0.0210452
0.0126542
-0.0105611
-0.00874608
0.110755
-0.0247508
0.0090604
0.00285394
0.00252734
0.00314416
0.0343612
-0.00031353
-0.0019184
-0.00666165
0.122494
0.00195445
0.000683787
-0.0102442
0.0083812
-0.0376724
0.00869313
0.00556752
-0.0102711
0.00978484
-0.00355224
0.0250041
-0.0249843
0.00322258
0.00040781
-0.00124437
0.0185163
-0.000235618
0.00185254
0.0452532
-0.00801841
-0.00160179
0.0193058
0.00394283
0.024628
0.0158917
-0.00395209
-0.00267711
-0.000761085
0.0208525
-0.0146633
-0.00776843
0.00645832
-0.0107652
0.0444127
0.00398885
0.117288
-0.020405
0.00163674
0.0187852
0
0.0037684
0.0071631
0.00288555
0.0141607
0.00626145
-0.0193599
-0.0087403
0.00847643
-0.0122201
-0.0401908
0.0169496
0.00422928
0.00129648
0.00104237
0.00785084
-0.00750461
0.0491471
-0.000932392
0.00129572
0.00671531
0.0190156
0.00212669
0.0366403
-0.00865265
-0.00555199
0.13861
-0.00840649
0.00897058
0.00410174
-3.60749e-05
-0.000664932
-0.0419539
0.00918367
0.0619257
0.00772736
0.00791366
0.0258401
-0.00364533
0.00739918
0.00547729
-0.0109036
0.00596326
0.024665
0.00158475
-0.00125907
0.0179162
0.00749997
0.00690753
0.00288407
0.00228349
0.0530771
0.0041979
0.0988678
-0.0146072
0.00533151
0.0554152
0.0524989
0.0117278
0.0639479
0.0777206
0.00610935
-0.00766841
-0.0162424
-0.0149454
0.00992598
-0.0169752
0
-0.00477877
-0.00105779
0.0109914
-0.0160621
-0.0123863
0.0788249
0.0178945
-0.00768814
-0.012702
-0.000832798
-0.00235055
0.00384694
0.0970401
0.104785
-0.0281027
0.00446758
0.0867019
-0.0191693
0.106651
-0.00105191
0.0126071
0.0275455
0.0104009
0.00145807
-0.0117745
-0.0131749
0.100755
-0.000925633
-0.00905448
0.00302112
0.0024841
0.00564037
-0.00276435
-0.00321773
0.00982991
-0.00426871
0.000467976
0.00495764
-0.00107378
-0.0029974
0.0045171
0.0103182
-0.00901181
-0.00141259
0.00747983
0.000285163
-0.0157182
0.00499428
-0.0158562
0.00241712
-0.00683286
0.000802505
0.00211649
-0.000808047
0.00309025
0.000165848
-1.16743e-05
-0.00236254
0.00388095
-0.0016304
0.0102806
0.00330765
0.00419491
0.00493998
-0.00284027
-0.00133284
-0.00182432
-0.00193179
0.00149959
-0.00259854
-0.00333624
0.0263385
-0.00793251
-0.00971832
0.00721417
-0.00648366
0.00310885
-0.00612318
0.010341
0.00171633
0.00168511
0.00395192
0.000572009
-0.0019873
-0.00125393
0.00411204
0.0032897
0.00134504
-0.0116916
-0.0396218
-0.00152225
-0.000212744
0.0027791
0.00394617
-0.0208797
-0.01277
-0.00344721
0.0161945
0.00359194
-0.00683813
0.00230516
0.0184804
-0.00538557
-0.0220885
-0.00272113
-0.0226253
-0.00155694
-0.0110335
-0.0025508
0.00237087
-0.00433697
-0.0057941
-0.00730008
0.0034377
0.00111635
0.011778
-0.00201178
-0.00828414
-0.00287329
0.0324312
0.0147372
0.000103832
0.000832168
0.00460738
0.00419903
0.00466574
0.00469348
-0.000590084
0.00453431
-0.00253678
-0.000357534
-0.0142398
0.00527804
-0.0148171
-0.00437135
-0.00132541
-7.67175e-05
0.0147343
-0.0214305
0.00799553
0.00192845
-0.00304424
-0.00382631
-0.00355114
0.00135936
0.00438956
-0.00529762
0.00816786
0.00290724
-0.00230128
-0.0017219
0.00567846
0.0039472
0.00208962
0.0103144
-0.0109048
0.000114632
-0.00186672
0.00902272
0.00533291
0.00120484
-0.00406418
0.00649795
-0.00382762
0.0106162
-0.00131712
-0.00389164
-0.00444675
0.00290675
-0.000966475
-0.0136303
-0.00560265
-0.00396235
0.0139637
0.000425193
-0.00478921
-0.00648239
-0.00367969
0.00408351
-0.00283369
0.00681425
0.00115578
0.00823586
-0.0124526
-0.00359331
-0.00212722
0.0053884
-0.00328106
-0.00693334
-0.00630094
-0.0161505
-0.000777873
-0.0078047
0.00454283
-0.00497728
0.00735737
-0.00705691
-0.00729793
0.00282186
0.00367308
0.00172486
0.00471396
0.00391447
0.0138825
0.00628355
-0.00994684
-0.00409223
0.0052195
0.00920778
0.000248331
-0.0052876
0.0783468
0.00502107
0.00585527
-0.000347658
0.000875849
0.00316717
-0.0118362
0.00110906
0.0021907
-0.0018117
0.00336485
-0.00953765
0.00797336
0.0028967
-0.00238351
0.015004
0.00709099
-0.000612884
-0.0115343
0.00444856
0.00982905
-0.0131655
0.00482424
-0.0111
-0.0182272
0.00449319
0.00577577
-0.00531134
-0.00219668
0.0069322
0.0174709
-0.00416167
0.00597474
0.0190355
-0.00196104
0.00467353
0.00579825
-0.00270425
0.00158318
-0.000201486
-0.00749296
0
-0.00638615
-0.00342731
0.009148
0.0153535
-0.00340911
0.00552613
-0.0544083
0.0164625
-0.00393602
-0.00554998
0.0476652
-0.0214271
-0.022059
-0.00243162
0.00498714
0.00973507
-0.0101213
-0.0201717
0.00321058
0.0574244
0.0130687
-0.0214318
0.00142232
-0.00690502
-0.00605749
-0.00472981
0.00268825
-0.00915655
0.00441851
-0.00325734
-0.00360075
0.00458581
-0.00241999
-0.00377071
0.00188264
0.00346786
-0.00356857
-0.00494247
-0.0042129
0.00124078
-0.00681438
-0.00404119
0.000493823
0.00438823
0.00515618
-0.0091379
0.00813972
0.00480753
-0.00183578
-0.00166682
0.00147899
0.0207302
0.01233
-0.00369674
-0.00462463
-0.000374377
0.0078542
0.00877765
0.0101011
-0.00467047
0.00341236
-0.00556848
0.0168223
0.00116377
-0.00248513
0.00122007
-0.00639294
0.00449194
0.0131875
-0.00304455
-0.00313233
0.00160072
-0.000425805
-0.00520235
-0.00708726
-0.0147341
-0.000280652
-0.00837176
0.00258344
-0.0104125
0.00418824
0.00468675
0.00328085
0.00171846
-0.000920157
0.00281144
-0.00516817
-0.00239804
0.0111149
0.0036582
-0.00535046
0.00652504
0.00232857
0.00337681
-0.0090759
-0.00404886
-0.000698788
-0.00474908
0.00133935
-0.00421514
-0.00375842
0.0612503
-0.00170021
0.147319
-0.0130245
0.00357771
-0.00202455
0.00147574
0.016114
-0.00443427
0.0160958
-0.00535386
0.000559329
0.0685313
-0.000148684
0
-0.0222422
0.00219329
-0.0153484
-0.0145692
0.0207272
-0.000319502
0.0052761
0.006795
-0.000209453
-0.00172976
0.00161866
0
-0.00111725
-0.00597997
-0.00410469
0.00532584
0.00985496
-0.00993858
0.00494137
-0.00623397
-0.109525
-0.00539441
-0.00341721
0.00301606
-0.000977586
-0.00780918
-0.0075501
0.00470312
0.0192554
0
0.00155266
0.00303543
-0.00963036
0.000921975
-0.000173122
0.05447
0.00932193
-0.00398895
-0.0107335
-0.00627883
0.00457588
0.0123214
-0.00997823
0.0154085
0.00181579
-0.00534422
-0.00399031
0.0158802
-0.000759342
0.000367983
-0.00973788
-0.00718
-0.00230425
-0.00258393
-0.0032579
-0.00353571
0.00290827
-0.00326924
0.0146937
-0.00275374
0.00519854
-0.00196034
0.0183669
-0.00103004
-0.0231136
-6.03575e-05
-0.00813705
-0.00779428
-0.000262219
-0.0121365
0.00519896
0.00826763
0.00018385
-0.00230246
0.000991046
-0.00273055
0
0.0114429
0.00260846
0.015358
-0.00169672
0.00710289
0.00100753
-0.00319882
-0.0035113
0.00768834
-0.0134835
0
0.00870059
0.00877388
0
0.0248201
0.00316737
-0.000792789
0.00528832
0.00112293
0
-0.0028594
-0.0032109
0.0289217
0.00571815
0.00683364
-0.0122988
-0.00288607
-0.0013092
0.00211199
0
-0.00941828
-0.00829058
0.00512372
0.000804941
0.0235172
-0.00280872
-0.00482999
0.00901898
0.00925853
-0.0125433
0.00705198
0.0029234
-0.000887671
-0.00246413
0.00430496
-0.0118738
0.00552167
-0.00666115
0.0107915
0.00439607
-0.00225184
-0.00290931
-0.0148409
0.00234845
-0.0047603
0.0109567
-0.0436622
-0.00735046
0.00114148
-0.000731578
-0.000951867
0.0142686
-0.00480179
-0.0010689
0.00116296
0.0243836
-0.000234047
-0.00855785
0.00655867
-0.00571467
0.00169303
0.00785556
0.000950129
-0.0126545
-0.00882545
0.000907205
-0.0495565
0.0190138
0.00279043
0.00721895
-0.00281754
0.00249262
-0.00928289
-0.0055264
0.00153217
0.00938362
-0.00438556
0.00180281
-0.0137624
0.00328483
-0.00196097
-0.0563807
-0.000852091
-0.00233056
0.0100689
0.000411048
0.0042421
0.00391879
-0.00439113
0.0354037
-0.0294623
0.000431006
0.000560714
0.00168832
-0.00342252
-0.00978861
0.0024257
0.0556984
-0.000648437
-0.010855
-0.00460254
-0.00727548
-0.00274732
-0.00670867
0.0240725
0.00128028
-0.0073287
0.00537149
0.0141068
-0.00983548
0.005821
-0.0101283
0.000961748
-0.00334585
0.00185557
-0.00827752
-0.000807054
0.00171544
0.00351389
0.000456275
-0.00939145
-0.018519
0.00629627
-0.0132749
-0.00298093
0.020422
0.000909285
-0.000316905
-0.000154038
0
0.00409481
-0.0227636
0.0150064
-0.00770058
-0.00341918
0.00736596
-0.00558621
0.00726628
-0.0114825
0.0060378
-0.00269508
0.00306014
-0.0162224
0.00350089
-0.00187057
0.00502154
0.00271769
-0.000135163
-0.00563978
0.0019379
-0.00119276
-0.000123944
0.00338508
-0.0038011
-0.00348036
-0.00306924
-0.00504287
0.00157367
-0.0104465
-0.00344047
-0.0152735
0.00362317
0.000452836
-5.01381e-05
-0.00187335
0.00532377
-0.00686978
0.00971917
0.0104354
-0.0222898
-0.0223393
-0.000491466
-0.00109716
-0.00254495
0.00294863
0.00334045
0.00907649
0.0125021
0
0.0165115
0.00399599
0.00495417
-0.00700651
-0.0151049
0.0308396
0.00666221
0.0176428
0.00330226
-0.0100899
-0.00899602
-0.00100523
-0.00336576
0.0636018
0.00908695
0.00253241
0.00368722
0.00898138
0.0122573
-0.00706176
0.00806423
0.0134372
-0.00343905
-0.00249955
-0.00439464
0.0112056
0.00166531
0.00152392
-0.00396146
-0.00846489
-0.00409805
0.000784375
-0.00757948
-0.000808954
0.016602
-0.0420726
0.00211522
-0.00673682
-0.000473336
-0.00633083
0.0112312
0.00422441
-0.0482654
0.0042928
0.0125706
-0.0302016
0.0184281
0
0.00139768
-0.00145573
0.00744635
-0.00619593
0.0151448
-0.00193512
-0.013692
0.0215442
0.0116526
0.000668991
0.0474079
0.00226319
0.00721198
0.00191283
-0.0033828
0.00269403
0.0467649
0.00541655
-0.0023902
-0.00274646
0.00369464
-0.00766362
0.0473457
0.0432873
0.0118318
-0.00544693
0.0214902
-0.00102048
0.00145077
0.00127598
-0.0123404
0.000182507
-0.00103438
0.000385369
-0.0134111
-0.00445408
0.0342178
-0.0065925
-0.0214988
0.00115461
0.00982785
-0.00277119
0.0258328
-0.00798171
-0.0614331
5.25506e-05
-0.00451697
0
0.00078128
-0.00239676
-0.00318075
-0.00269716
-0.0432987
-0.0118789
-0.00167614
-0.00342954
0.0685926
0.0105293
0.000220589
-0.00678709
0.0348253
0.009748
-0.0181077
-0.00147294
0.00650873
0.00481159
-0.00836071
0.0198442
0.0043435
-0.0137318
0.0298473
0.0168691
0.00364057
0.0376131
0.0211277
-0.0145542
0.00390794
-0.00422946
0.0142457
0.000433238
0.00466411
-0.0157291
0.00171354
-0.0151605
0.00461362
0.0119589
0
-0.00634789
0.00699515
0.00116211
-0.00434631
-0.00776751
0.00899158
0.0124595
-0.00284816
-0.00655407
0.00450651
0.00379457
-0.00413044
0.0331568
0.00905267
0
0.0045691
-0.0333843
-0.00767194
-0.00454261
0.0243775
0.000749163
-0.006211
-0.00528167
0.000700181
-0.0289533
0.00917036
-0.00212226
0.000695604
0.000692015
0.002289
0.000201584
-9.41236e-05
0.0142539
0.00421639
-0.00407439
-0.00834989
0.00876522
0.00110173
0.0452069
0.00328604
-0.0162046
-0.0013993
-0.0074252
-0.0280778
0.00590533
0.00332502
-0.00071997
0.0195622