# vtk DataFile Version 2.0
Unstructured Grid by M++
ASCII
DATASET UNSTRUCTURED_GRID
POINTS 4072 float
  0.812500   0.625000 0
  0.953125   0.609375 0
  0.968750   0.609375 0
  0.875000   0.687500 0
  0.812500   0.937500 0
  0.859375   0.687500 0
  0.796875   0.937500 0
  0.968750   1.000000 0
  0.984375   0.984375 0
  0.968750   0.984375 0
  0.843750   0.656250 0
  0.875000   0.656250 0
  0.812500   0.906250 0
  0.859375   0.640625 0
  0.781250   0.984375 0
  0.843750   0.734375 0
  0.781250   0.968750 0
  0.843750   0.718750 0
  0.765625   0.968750 0
  0.828125   0.718750 0
  0.921875   0.593750 0
  0.859375   0.843750 0
  0.765625   1.000000 0
  0.828125   0.750000 0
  0.875000   0.796875 0
  0.890625   0.781250 0
  0.875000   0.781250 0
  0.921875   0.609375 0
  0.859375   0.859375 0
  0.984375   0.968750 0
  1.000000   0.968750 0
  1.000000   0.953125 0
  0.859375   0.734375 0
  0.796875   0.984375 0
  0.875000   0.734375 0
  0.812500   0.984375 0
  0.906250   0.953125 0
  0.968750   0.703125 0
  0.796875   0.750000 0
  0.812500   0.812500 0
  0.828125   0.796875 0
  0.781250   0.843750 0
  0.843750   0.593750 0
  0.953125   0.937500 0
  0.890625   0.625000 0
  0.828125   0.875000 0
  0.906250   0.625000 0
  0.843750   0.875000 0
  0.890625   0.609375 0
  0.828125   0.859375 0
  0.906250   0.609375 0
  0.843750   0.859375 0
  0.906250   0.593750 0
  0.843750   0.843750 0
  0.843750   0.765625 0
  0.859375   0.750000 0
  0.796875   1.000000 0
  0.937500   0.609375 0
  0.875000   0.859375 0
  0.765625   0.515625 0
  0.843750   0.640625 0
  0.843750   0.578125 0
  0.781250   0.828125 0
  0.843750   0.515625 0
  0.781250   0.765625 0
  1.000000   0.687500 0
  0.937500   0.937500 0
  0.828125   0.593750 0
  0.765625   0.843750 0
  0.828125   0.531250 0
  0.765625   0.781250 0
  0.765625   0.984375 0
  0.828125   0.734375 0
  0.812500   0.734375 0
  0.765625   0.765625 0
  0.781250   0.750000 0
  1.000000   0.656250 0
  0.937500   0.906250 0
  0.765625   0.750000 0
  0.968750   0.578125 0
  0.953125   0.593750 0
  0.953125   0.578125 0
  0.937500   0.593750 0
  0.875000   0.843750 0
  0.812500   0.796875 0
  0.875000   0.546875 0
  0.984375   0.953125 0
  0.984375   0.937500 0
  0.765625   0.562500 0
  0.937500   0.656250 0
  0.875000   0.906250 0
  0.765625   0.531250 0
  0.937500   0.625000 0
  0.875000   0.875000 0
  0.937500   0.859375 0
  1.000000   0.609375 0
  0.828125   0.687500 0
  0.765625   0.937500 0
  1.000000   0.781250 0
  0.812500   0.671875 0
  0.984375   0.765625 0
  0.828125   0.656250 0
  1.000000   0.750000 0
  0.937500   1.000000 0
  0.781250   0.515625 0
  0.953125   0.671875 0
  0.890625   0.921875 0
  0.781250   0.578125 0
  0.953125   0.984375 0
  0.984375   0.640625 0
  0.921875   0.890625 0
  0.968750   0.625000 0
  0.906250   0.875000 0
  0.812500   0.765625 0
  0.984375   0.859375 0
  1.000000   0.843750 0
  0.968750   0.859375 0
  0.843750   0.703125 0
  0.781250   0.953125 0
  0.843750   0.750000 0
  0.781250   1.000000 0
  0.843750   0.687500 0
  0.781250   0.937500 0
  0.828125   0.765625 0
  1.000000   0.859375 0
  0.828125   0.703125 0
  0.765625   0.953125 0
  0.968750   0.968750 0
  0.968750   0.953125 0
  0.796875   0.781250 0
  0.859375   0.531250 0
  0.968750   0.937500 0
  0.953125   0.968750 0
  0.781250   0.796875 0
  0.843750   0.546875 0
  0.953125   0.953125 0
  0.781250   0.812500 0
  0.953125   0.906250 0
  0.859375   0.781250 0
  0.859375   0.703125 0
  0.796875   0.953125 0
  0.859375   0.765625 0
  1.000000   0.734375 0
  0.937500   0.984375 0
  0.828125   0.578125 0
  0.765625   0.828125 0
  1.000000   0.796875 0
  0.828125   0.640625 0
  0.984375   0.734375 0
  0.921875   0.984375 0
  0.812500   0.640625 0
  0.890625   0.953125 0
  0.953125   0.703125 0
  0.796875   0.687500 0
  0.968750   0.781250 0
  0.968750   0.750000 0
  0.906250   1.000000 0
  0.953125   0.765625 0
  0.812500   0.718750 0
  0.843750   0.984375 0
  0.906250   0.734375 0
  0.921875   0.625000 0
  0.859375   0.875000 0
  0.921875   0.687500 0
  0.859375   0.937500 0
  0.968750   0.796875 0
  0.796875   0.703125 0
  0.937500   0.671875 0
  0.984375   0.796875 0
  0.812500   0.703125 0
  0.765625   0.687500 0
  0.937500   0.843750 0
  1.000000   0.593750 0
  0.937500   0.781250 0
  1.000000   0.531250 0
  0.812500   0.781250 0
  0.984375   0.875000 0
  0.843750   1.000000 0
  0.906250   0.750000 0
  0.968750   0.500000 0
  0.968750   0.718750 0
  0.906250   0.968750 0
  0.796875   0.625000 0
  0.859375   1.000000 0
  0.921875   0.750000 0
  0.968750   0.765625 0
  0.796875   0.609375 0
  0.859375   0.984375 0
  0.921875   0.734375 0
  1.000000   0.625000 0
  0.937500   0.875000 0
  1.000000   0.562500 0
  0.937500   0.812500 0
  0.875000   0.984375 0
  0.937500   0.734375 0
  0.906250   0.703125 0
  0.843750   0.953125 0
  0.906250   0.687500 0
  0.843750   0.937500 0
  0.937500   0.765625 0
  0.890625   0.718750 0
  0.828125   0.968750 0
  0.890625   0.703125 0
  0.828125   0.953125 0
  0.921875   0.781250 0
  0.906250   0.796875 0
  0.921875   0.718750 0
  0.859375   0.968750 0
  0.921875   0.703125 0
  0.859375   0.953125 0
  0.765625   0.546875 0
  0.937500   0.640625 0
  0.875000   0.890625 0
  0.937500   0.703125 0
  0.875000   0.953125 0
  0.765625   0.593750 0
  0.937500   0.687500 0
  0.875000   0.937500 0
  0.890625   0.937500 0
  0.953125   0.687500 0
  0.906250   0.718750 0
  0.843750   0.968750 0
  0.937500   0.796875 0
  0.828125   0.921875 0
  0.890625   0.671875 0
  0.984375   0.750000 0
  0.921875   1.000000 0
  0.812500   0.593750 0
  0.875000   0.968750 0
  0.937500   0.718750 0
  0.890625   1.000000 0
  0.953125   0.750000 0
  0.968750   0.671875 0
  0.906250   0.921875 0
  0.968750   0.734375 0
  0.906250   0.984375 0
  0.796875   0.578125 0
  0.984375   0.671875 0
  0.921875   0.921875 0
  0.812500   0.515625 0
  0.812500   0.578125 0
  0.765625   0.578125 0
  0.843750   0.906250 0
  0.906250   0.656250 0
  0.890625   0.750000 0
  0.828125   1.000000 0
  0.781250   0.593750 0
  0.984375   0.546875 0
  0.921875   0.796875 0
  0.921875   0.812500 0
  0.859375   0.656250 0
  0.859375   0.593750 0
  0.796875   0.843750 0
  0.859375   0.578125 0
  0.796875   0.828125 0
  0.921875   0.953125 0
  0.984375   0.703125 0
  0.984375   0.625000 0
  0.921875   0.875000 0
  0.875000   0.640625 0
  0.812500   0.890625 0
  0.875000   0.578125 0
  0.812500   0.828125 0
  0.765625   0.859375 0
  0.828125   0.609375 0
  0.937500   0.953125 0
  1.000000   0.703125 0
  0.921875   0.906250 0
  0.984375   0.656250 0
  0.921875   0.968750 0
  0.984375   0.718750 0
  1.000000   0.765625 0
  0.890625   0.984375 0
  0.953125   0.734375 0
  0.953125   0.656250 0
  0.890625   0.906250 0
  0.953125   0.718750 0
  0.890625   0.968750 0
  0.781250   0.562500 0
  0.796875   0.796875 0
  0.968750   0.640625 0
  0.906250   0.890625 0
  0.953125   0.796875 0
  0.953125   0.859375 0
  0.781250   0.703125 0
  0.984375   0.781250 0
  0.875000   1.000000 0
  0.937500   0.750000 0
  0.906250   0.937500 0
  0.968750   0.687500 0
  0.843750   0.625000 0
  0.781250   0.875000 0
  0.765625   0.796875 0
  0.937500   0.890625 0
  1.000000   0.640625 0
  0.781250   0.781250 0
  0.906250   0.906250 0
  0.968750   0.656250 0
  0.796875   0.765625 0
  1.000000   0.718750 0
  0.937500   0.968750 0
  0.828125   0.562500 0
  0.765625   0.812500 0
  0.828125   0.625000 0
  0.484375   0.750000 0
  0.421875   1.000000 0
  0.000000   0.218750 0
  0.453125   0.640625 0
  0.281250   0.546875 0
  0.312500   0.640625 0
  0.406250   0.984375 0
  0.468750   0.734375 0
  0.328125   0.656250 0
  0.390625   0.828125 0
  0.453125   0.578125 0
  0.437500   0.875000 0
  0.015625   0.093750 0
  0.312500   0.531250 0
  0.406250   0.937500 0
  0.343750   0.562500 0
  0.281250   0.812500 0
  0.453125   0.984375 0
  0.359375   0.625000 0
  0.296875   0.875000 0
  0.468750   0.796875 0
  0.046875   0.015625 0
  0.437500   0.656250 0
  0.312500   0.578125 0
  0.421875   0.921875 0
  0.000000   0.140625 0
  0.484375   0.671875 0
  0.265625   0.734375 0
  0.468750   0.984375 0
  0.046875   0.203125 0
  0.406250   0.625000 0
  0.390625   0.609375 0
  0.375000   0.625000 0
  0.265625   0.562500 0
  0.484375   0.812500 0
  0.062500   0.031250 0
  0.484375   0.984375 0
  0.062500   0.203125 0
  0.312500   0.890625 0
  0.375000   0.640625 0
  0.375000   0.671875 0
  0.390625   0.687500 0
  0.484375   0.843750 0
  0.390625   0.500000 0
  0.328125   0.687500 0
  0.328125   0.765625 0
  0.390625   0.515625 0
  0.437500   0.796875 0
  0.484375   0.531250 0
  0.468750   0.968750 0
  0.046875   0.187500 0
  0.453125   0.843750 0
  0.453125   0.812500 0
  0.281250   0.718750 0
  0.468750   0.859375 0
  0.265625   0.984375 0
  0.375000   0.765625 0
  0.296875   0.562500 0
  0.484375   0.781250 0
  0.062500   0.000000 0
  0.453125   1.000000 0
  0.031250   0.218750 0
  0.453125   0.546875 0
  0.312500   0.703125 0
  0.328125   0.718750 0
  0.296875   0.656250 0
  0.281250   0.640625 0
  0.265625   0.656250 0
  0.281250   0.671875 0
  0.484375   0.890625 0
  0.062500   0.109375 0
  0.296875   0.687500 0
  0.296875   0.625000 0
  0.265625   0.703125 0
  0.265625   0.687500 0
  0.265625   0.625000 0
  0.953125   0.046875 0
  0.484375   0.875000 0
  0.484375   0.921875 0
  0.062500   0.140625 0
  0.453125   0.921875 0
  0.031250   0.140625 0
  0.968750   0.234375 0
  0.171875   0.671875 0
  0.500000   0.796875 0
  0.078125   0.015625 0
  0.218750   0.718750 0
  0.062500   0.828125 0
  0.734375   0.250000 0
  0.906250   0.140625 0
  0.109375   0.578125 0
  0.781250   0.015625 0
  0.718750   0.187500 0
  0.031250   0.828125 0
  0.718750   0.234375 0
  0.890625   0.125000 0
  0.093750   0.562500 0
  0.734375   0.359375 0
  0.859375   0.546875 0
  0.062500   0.984375 0
  0.750000   0.406250 0
  0.718750   0.343750 0
  0.250000   0.750000 0
  0.234375   0.734375 0
  0.046875   0.578125 0
  0.734375   0.000000 0
  0.828125   0.125000 0
  0.031250   0.562500 0
[...]
POINT_DATA 4072
SCALARS scalar_value float 1
LOOKUP_TABLE default
0.00673354
0.00284164
0.00204098
0.013069
-0.0173566
-0.005963
0.00730001
0
0.00111381
-0.0299379
0.00638994
0.0065111
-0.0334628
0.00711343
0.0251258
0.00223171
0.0177978
-0.00887943
-0.00645686
0.000380593
0.0132943
-0.000415563
0
0.00557286
0.0252057
0.026244
-0.0200866
0.0069014
0.0120966
-0.0024859
-0.00403159
-0.0226547
0.00104198
-0.0275686
0.00257686
-0.00203438
0.00588951
-0.00301611
0.0185305
-0.00127867
-0.019106
0.0110582
-0.00298476
-0.0150647
-0.00189297
-0.0123646
-0.00442893
0.00579843
-0.00566285
0.0138906
0.000394197
-0.00540682
-0.00647135
-0.000558672
0.011009
0.0167744
0
-0.00436333
-0.00379341
-0.0062302
-0.0124126
-9.65785e-05
-0.0208137
-0.00203565
0.0219863
-0.000515844
0.0102997
0.0015816
-0.0145486
0.00198679
0.00801571
-0.0291692
-0.0149944
0.0122721
-0.0210683
-0.0137826
-0.000305358
0.00982985
0.0214949
0.0029367
0.004935
-0.00115518
-0.00934388
4.2836e-05
0.0121311
-0.00402975
-0.0102539
-0.00109825
-0.00462517
-0.010817
-0.00355197
-0.00635073
-0.011055
0.0161628
-0.00363972
0.00774182
-0.00999833
-0.0102525
0.00889934
-0.0117295
0.00284725
-0.0128479
0.0090436
0
-0.00171211
0.00899062
0.0274447
-0.000361465
-0.0155267
0.00233964
0.00520249
-0.00414509
-0.0553363
0.0175557
-0.00654368
-0.0159497
-0.00252524
-0.0103911
-0.000460688
-0.0156259
0
0.0034722
0.0253939
-0.0212572
0.00643162
-0.00353985
-0.00533813
0.00375889
-0.0298932
0.0187264
6.06657e-07
-0.0104097
-0.0139219
0.00176009
-0.000408061
0.0036365
0.0110105
-0.00614132
0.018781
0.0132264
0.0015951
-0.00715925
0.00154649
0.00123733
9.76194e-05
0.0122262
-0.00178501
0.00645478
0.00752878
0.0049316
-0.0152922
0.0077198
0.015809
0.0064785
-0.00535062
-0.00474629
0
0.0183804
-0.00513306
-0.0140263
-0.00751609
0.0118785
-0.00325011
0.00687628
0.0113678
-0.00266071
-0.0026289
-0.00709297
-0.00878934
0.00351619
-0.00204884
0.00631585
0.00243354
-0.014686
0.00281384
-0.0151038
-0.0162649
0
-0.00721803
0.00213912
-0.00681968
-0.00378948
-0.00959777
0
0.00757029
-0.00987076
0.0111596
0.0271212
0.0201761
0.000147596
0.0104762
0.00382702
-0.00810827
-0.0296205
-0.0119014
-0.0114701
-0.00668558
0.00373494
-0.0106645
-0.00329725
-0.00876502
-0.00980194
0.00855076
0.0190267
0.0185105
0.0100159
0.00213604
-0.000172623
0.0185853
0.0157848
-0.0106709
-0.00556269
-0.0115901
-0.0110707
-0.00569214
-0.0164231
-0.00773074
-0.0193358
0.013161
0.0093199
0.0053968
0.00287507
0.00442996
-0.0123505
0.00237531
-0.00365075
0
-0.00440384
-0.0108531
-0.00304597
0
0.00453552
0.000664113
-0.00812433
-0.0092106
0.013908
0.00145174
0.00382562
0.0107957
-0.00514355
-0.000196088
-0.00607851
0.00520734
-0.00264516
0.00791466
0
0.0051107
-0.000150501
0.00520259
0.024681
-0.00363782
0.00778516
-0.0197776
5.84489e-05
0.0135005
0.0168664
0.00529411
0.00333268
0.0413647
0.00145331
-0.00873221
-0.00356557
-0.00735642
-0.0155897
-7.0594e-05
0.00304853
0.0086896
-0.0019975
0.00347745
-0.00478911
0.000347389
-0.00584525
0.0236325
0.0218071
0.0107799
-0.00256671
0.0047073
0.0229028
-0.00194539
-0.00626728
0.00108889
0.0028877
0.00619371
0.0095021
0.00772179
-0.00229397
0
-0.00554181
0.0194814
-0.00894007
0.000450368
-0.0361954
0.00470114
-0.00632035
0.0095845
-0.0122706
0.0171206
-0.00707244
-0.0150621
0.00211299
0.00520671
0.00151604
-0.0197586
-0.00374998
0.00427619
0
-0.000175404
0.0131869
0.0171406
0.0212777
-0.0111057
0.0221851
0.0356571
0.0537564
0.115065
-0.0167776
0.000333102
0.104177
-0.00245541
0.185051
0.00118027
0.0144468
0.0392763
0.0198096
0.0137595
-0.000112183
0.0761612
0.111936
0.0135215
-0.000204342
0.0130221
-0.0316025
0.0121692
0.000413888
0.34164
0.0311221
0.0956837
0.0132444
0.0113237
0.000145837
0.0211465
-0.00103884
-0.009123
0.0719487
0.0450596
0.00266699
0.0134191
0.0219059
0.0287266
0.0158514
0.274197
0.0063831
0.194731
0.00712012
0.000418145
-0.0161005
-0.0061333
0.00440497
0.0330194
0.0420587
0.0331935
0.025742
0.00469354
0.000108139
0
-0.000474512
0.195292
-0.00478899
0.0165257
0.0266508
-0.001398
-0.0231893
-0.000461471
0.00507003
0.000144511
0.0248413
0.0733051
-0.0242313
-0.0325954
-0.0179333
-0.000192034
-2.03201e-05
0.00451634
-0.000597404
0.00446778
-0.000339537
0.000822599
-0.00152729
-0.00354501
4.8676e-05
0.00728309
0.0102627
-0.0158988
-2.27012e-05
0.00353959
5.60097e-06
0.0229313
0.0022418
0.0308711
8.73958e-05
-0.00252873
-0.00601696
0.00220314
0.0114734
0.000471482
0.0617658
0.0166096
0.00769571
0.0024998
-0.00765629
0.000374174
0.000976651
0.00447113
0.00640182
-0.00503124
0.000738499
2.42032e-05
0.0081371
0.000106003
0.203827
0.0284045
-0.00445365
-8.03054e-05
0.00100516
0.188381
0.00665227
0.00444186
0.0217033
0.00329014
-0.00645397
0.0728215
5.4142e-06
7.79753e-05
-0.00197927
3.36351e-05
0.00326261
0.0112888
0.00148371
4.11066e-05
-8.96015e-05
-0.0123893
0.00239185
0.0203404
0.00372142
-0.00170105
-1.792e-05
-0.00819244
0.000519836
-0.000338248
0.000217709
0.000461508
-0.00029448
-0.0167647
0.0082385
-0.00565283
0.000449067
-0.0136795
-0.000473745
0.00344165
0.170942
-0.00120853
-0.00776872
0.00168497
0.147797
0
0.00629479
-0.0207142
-0.000430913
0.0158236
-0.00770537
0.000764808
0.0212047
-0.00240841
-0.00713174
0.000334026
0.000111069
-0.000609041
0.00988934
0.012358
-0.000492625
-0.000426998
0
-0.000747397
6.59657e-05
-0.000738758
0.000738912
0.00305072
0.00111736
0.00207637
0.294544
-0.00879371
-0.000423675
0.0435212
-0.00646954
-0.000848702
-0.00271244
-0.00336128
0.00105537
0.0270006
0.000675499
-0.000193522
-0.000229234
0.000311282
0.0005623
0.00854602
0.00045481
6.12536e-05
0.00185753
8.5871e-05
-0.000276083
-0.00708964
-0.00163285
-0.00094832
-0.000516263
0.000597779
-0.0067147
-0.00494397
0.00208841
0.003648
0.000640042
0.00990671
0.243459
2.43724e-05
-0.00194381
0.000114857
0.00770529
0.00577216
0.00056831
-0.00349122
2.73472e-05
4.57991e-05
0.000510463
0.00526565
-0.000547449
0.0229537
-0.0176173
-0.00049647
0.024348
0.010978
8.88679e-05
0.00155364
-0.0143178
0.209972
-0.00530387
0.0591096
-0.000227719
-0.00456922
-7.2859e-05
0.00259859
0.000722947
0.188666
0.00524141
-3.98604e-05
0.000237824
-0.0133557
-0.00619418
-0.000639386
-0.00253936
0.00362829
-1.54583e-05
0.00859887
-0.000994133
0.00382163
0.00179792
-0.00297771
0.00262793
-0.00457969
0.0201086
0.00733136
2.53756e-05
-0.0091989
0.00476103
0.000830587
-0.000347771
0.00901657
-0.000745568
0.0967151
0.000568548
0.00335615
0.056273
0.00825126
1.53481e-05
-0.00606619
0.000637391
0.00367146
4.66599e-05
0.00394691
-6.24983e-05
-0.00358375
0.036654
0.00169383
-0.00784035
-0.00104873
0.0160785
-0.000558164
0.00784945
-0.0101919
-5.23884e-06
0.00574488
0.0741202
-0.00314034
0.00328004
0.00072175
0.00078724
0.00343787
-0.0117733
-0.00981168
-0.00115597
0.0195068
-0.00364737
0.00031479
-0.0111655
-0.0465381
-0.000102217
8.03849e-05
-0.000425898
0.0113117
-0.000448525
0.00597353
-0.000109291
-0.000329786
0.000647995
8.57116e-05
0.000844712
0.00575768
-0.00112873
0.000103276
5.02813e-05
0.00144452
0.00179191
0.00865594
0.0260759
-0.00780355
0.0463339
-0.00441052
0.000187278
0.013902
0
-0.00112349
0.0173256
0.00116398
0.00283497
-0.00148742
-0.00582296
-0.00550404
-0.00437867
0.00212844
0.00802651
-0.00442637
0.000496584
0.00210465
-0.00533036
-0.00194777
0.00853974
-0.000812283
0.0134816
0.00823237
-0.00154442
0.0168985
-0.00312161
0.00379869
-0.00728955
-0.00319524
0.0011879
-0.00195285
0
-0.00854767
-0.00665445
0.0260711
0.000129846
-0.00115778
1.11358e-05
-0.0167488
0.000977378
-0.000308262
-0.00145212
0.00810086
0.0130773
-0.000123581
-0.000578357
0.00391373
-0.0344604
-0.000363346
-0.0334047
4.2401e-05
0.00225954
4.5684e-06
-0.00485467
0.0105931
0.00308175
0.0101986
-0.00140093
-0.0196377
0
0
-0.0251811
0.00547341
0.00503455
-0.00850687
0.000751707
-7.31957e-05
-0.00836205
0.0133303
-0.000429891
-0.000949919
0.0103225
-0.00187212
5.61126e-05
-0.000407557
8.20286e-06
0.00115597
0.000756903
-0.00173167
0.00678562
0.00203089
0.00792706
-0.0073572
-0.000600052
-0.00208792
0.00272137
-0.0697751
-0.00251389
0.00372446
0.105688
0.147838
-0.0145625
0.0140169
-0.0144299
0.173633
0.042533
0.12045
0.0697103
0.0369645
-0.00930668
0.115984
0.247462
0.155089
-0.0143741
0.0942931
0.018881
0.0418939
-0.027469
0.0144582
-0.0607191
0.0127699
-0.0562982
-0.0648799
0.0114769
0.278942
-0.0639324
-0.0292872
-0.00145132
0.00125679
0.0107905
0.0193596
0.0617413
0.00386562
0.0108206
0.117075
0.0368726
0.0388224
-0.00151245
-0.0125446
0.0439743
-0.0168835
0.011936
-0.0884281
0.023093
-0.0377461
0.0462013
-0.0132033
0.0151068
0.0221058
-0.00934785
0.0291748
0.0101936
-0.0648917
0.121787
-0.0103289
-0.00145267
0.140842
-5.8594e-05
0.174461
0.00324818
-0.023979
5.63841e-05
0.125086
0.00284569
0.0118778
0.146725
0.0665049
0.283394
0.00996874
0.234246
-0.00356431
0.00570978
0.00109877
-0.000302349
0.256475
-0.000685075
0.0812599
-0.00165706
0.00765146
0.00987035
-0.000119327
0.0729834
-0.00183986
-0.0577361
0.0612583
0.0196345
0.0185633
0.220166
0.233495
-0.00241641
0.00291828
0.26647
-0.0221871
0.010278
0.0101909
-0.000170832
0.271275
-0.0286897
0.0210977
0.3125
0.0367238
0.00777241
0.211488
0.251826
0.0354557
-0.0017295
-0.0234095
0.00470124
0.000126268
-0.059414
0.00421203
-0.0434159
0.122607
0.0121102
0.137325
0.00380472
-0.0100347
4.22681e-05
0.118942
0.0101022
0.110921
0.00797822
0.0938251
0.155361
0.00746784
0.0227845
0.000700525
0.245435
0.0323282
-0.0040687
-0.00175432
0.0303274
0.190555
0.0778013
0
0.0114314
0.0170825
-0.00460047
0.198571
-0.000882898
0.00658619
0.000602533
0.00320308
0.112471
-0.00552657
0.0138117
-0.00491816
0.00748706
0.284919
0.152649
0.000404262
0.0711024
0.307337
0.170746
0.0627385
-0.0191602
0.253254
0.186179
0.271452
0.278782
0.27073
0.14416
-0.00121208
0.0111529
0.000768257
-0.00200033
-0.0207539
0.294417
0.139906
0.00341686
0.184598
-0.0117959
0.0028961
0.00309667
0.00334885
0.174555
0.0301109
0.0714026
-0.00884854
0.00495987
-0.00187676
0.0314624
0.29654
-0.0197239
0.0121197
0.25093
0.307347
0.259675
-0.00640367
0.00862333
0.00250187
0.312328
0.27577
0.000385182
-0.0100799
0.00125652
0.164777
0.060772
0.218695
0.0951965
0.101051
-0.0158877
-0.00950893
0.0179876
0.199996
0
-0.000650468
0.0206904
0.0268512
-0.00545379
-0.0174601
0.0741158
0.158351
0.0113177
-0.0312799
0.0325262
-0.00831433
0.00834497
0.0676405
0.0271935
0.215508
0.130796
-0.00512502
0.00579521
0.00450381
-0.00992356
0.00948595
-0.0108321
0.0181431
0.298437
0.0877181
-0.000759314
0.299189
0.0895711
0.0055855
-0.0130828
0.000337023
0.183589
-0.0053639
-0.00270147
0.250039
0.0382833
0.0264261
0.265954
0.292293
0.226696
0.283319
0.249304
0.161313
0.00986746
-0.00345071
0.112895
-0.00198768
0.0559931
0.00919277
0.242617
0.0291614
0.0130865
-0.034893
0.303317
0.176174
0.000100932
0.127772
0.284086
0.00410764
-0.0014453
-0.0133115
-0.000331412
0.0848735
0.106437
0.000706037
-0.0129891
0
0.295006
0.0135193
0.00146497
0.105734
0.0327419
-0.118359
-0.00566926
-0.0150207
0.0176827
-0.000145084
0.264795
-0.023731
-0.0277555
-0.0291927
-0.00947325
0.276372
0.013798
0.210293
-0.02334
0.249845
0.225082
0.0378266
0.00535884
-0.00376929
0.00467784
0.0016917
0.00566076
-0.000677189
0.00574062
0.000203552
-0.000569796
0.0034436
0.000432997
-0.000200146
0.149707
-0.000350238
0.0190463
0.0339555
-0.000241831
-0.000509363
-0.00280169
0.00320301
-0.0143433
0.000544158
0.00482333
0.00207361
0.0539227
0.00077953
0.00581492
0.000388797
0.0124027
-0.000659286
-0.00369789
8.24956e-05
7.24793e-05
-8.24942e-05
0.000292669
-0.000238197
-0.00210576
-0.000665091
0.0119939
-2.59692e-05
0.00434948
-0.000951197
0.00291888
0.0186055
-0.00655459
0.000213877
-0.0106193
-0.0268724
0.010164
0.226499
-5.23437e-05
-0.00267418
-0.011139
-0.00454873
0.00435163
-0.00013275
4.80465e-05
-0.00850929
-0.00415364
-0.000942697
0.000779383
0.01172
-0.000438091
-0.00106103
0.00794018
-0.0158517
0.00648381
0.00107798
-0.00115894
0.159027
8.36742e-05
0.0161724
0.00841875
-0.00346863
-0.00118171
-0.000580718
7.76211e-05
-0.00841188
0.000586608
-0.0179065
-0.000278545
-0.00875994
0.000124218
-0.00117004
0.000282348
-0.0285072
0.000207246
0.00790067
0.00304445
0.00220485
-1.46779e-05
0.010193
0.00951994
0.259451
-0.000162775
0.00829508
0.00351378
0.0097222
-0.0110902
-0.00934816
-0.00679566
-0.00121022
0.0205595
-0.00815518
-0.00113162
-0.0138325
-0.00121134
0.000828557
-0.00726479
-0.0224925
-0.00172858
0.0826875
-0.00172007
0.0162542
0.00200306
-0.00339826
-0.00677216
0.00232155
0.00118637
-0.0143913
-0.00011742
-0.0223498
0.0987339
-0.00120261
-0.0131052
0.0192591
-0.00770823
3.94161e-05
0.00105729
-0.000132375
-0.0150486
0.0143794
0.00277736
0.010361
-5.84633e-05
0.000151228
-0.00498095
-0.00438515
0.16811
-3.00773e-06
-0.0267088
0.00146327
0.222306
-8.8731e-05
0.00149817
2.02572e-07
0.0090864
0.00170025
-1.68605e-05
-0.00123374
0.000709846
0.00317239
-8.21157e-05
0.000664686
-0.00124946
0.00316463
0.000755127
0.00662727
-0.000685033
0.00176811
0.0289841
-0.000312511
-0.000797363
0.0125184
-0.000476279
-0.000582881
-0.0175129
-0.000117355
0.000731928
0.00912494
-0.00123861
0.0046161
-0.0004321
-0.0200584
-1.01554e-05
-0.00236435
0.00996011
-0.00550023
-0.00738469
-0.00123867
-0.00890018
-0.003221
0.0123679
0.00190652
-0.001376
-0.00117406
-0.00197653
-0.0116028
-0.00262147
-0.00542607
0.000596615
-0.0301051
0.00310261
0.00013567
0.00329883
0.00197725
0.000279965
0.000993222
0.00879001
2.73311e-05
-0.00884119
-0.00823408
-1.59551e-05
0.00580824
0.00944786
0.00195238
-0.00801006
-0.00378421
0.00125308
-0.00604609
-0.000579312
0.00175369
-0.00344645
0.00444639
0.00119072
0.000652393
-0.00373312
-0.000513206
0.0104421
-0.00848473
-0.000893341
0.000191396
0.00678189
-0.000599881
0.00702099
0.000872707
-0.000493254
0.00446084
-0.00231386
-0.00285049
0
0.011111
-0.000732778
0.000933576
0.00218645
-0.000366082
0.0176791
0.142171
0.00202783
-0.001209
-0.00541255
-0.155095
-0.00452027
0.00950995
-0.00292864
0.00288161
0.000366717
0.00488438
-0.00221206
0.000465927
0.0163343
-0.00519339
0.0353779
0.00135432
-0.00545848
-0.00373533
0.00745445
0.00109459
-0.0114311
0.000325603
-0.00273794
0.00956562
-0.00412349
0.0172505
-0.00236044
0.00896506
0.00400663
-0.000749844
-0.000261885
-0.000135755
-0.00378251
0.000786916
-0.00208255
-0.00629501
0.00113133
-0.0034138
-0.00235309
0.018577
0.000765278
-0.0281368
0.00448796
-0.00161271
-0.00294649
-0.00547241
-0.000860789
-0.00991086
0.000319877
0.00621897
0.00118319
0.0052364
-0.000189731
0.0136745
0.0022444
0.0131063
0.00125141
-0.0185975
-0.00431615
-0.00199051
0.00377829
0.00947787
-0.000757421
0.00423287
0.00232354
0.00271969
-0.0010027
-0.00980048
-0.00551719
0.000307
-0.00992472
-0.0032441
-0.00296314
0.0121887
0.000987722
-0.0038493
0.000134657
-0.0072472
0.0018296
-0.000767934
0.00254321
0.00108236
-0.0137282
-0.000154174
0.0209884
0.00486756
-0.000101062
-0.0282802
0.000792312
0.000383401
0.00496833
0.00282222
-0.000962837
0.0105549
-0.00945783
0.0731619
0.000112022
0.0539163
-9.81277e-05
-0.0111559
0.000388436
0.10513
-0.000347236
-0.00284932
-0.000950987
0.00207195
-0.0183136
0.0731328
0
0.00771665
0.000291293
-0.00290611
0.0020829
-0.00234889
1.66811e-05
0.00138441
-0.00542799
-4.12927e-05
0.000269264
0.00278619
0
-0.00107815
-0.000133442
0.0069627
-0.00321485
0.00147934
0.00136024
0.000670608
-0.00265111
0.0292154
-0.000869111
-0.00602404
-0.000140477
0.00225617
-0.00280742
0.000131101
0.000866724
-0.00325639
0
-7.50551e-05
-0.000392895
0.0115543
-0.000667894
0.00028968
-0.00227338
0.0156524
-0.000322871
-0.00306155
-0.00138857
0.00110593
-0.0160115
0.00118037
-0.00263341
8.18717e-05
0.0247539
0.000619325
-0.0049992
-0.00155001
-0.00319979
-0.00351496
0.232773
-7.10056e-05
-0.0025469
-0.000121055
-1.32695e-05
-0.00600169
2.97967e-05
0.00492176
-0.00764094
-0.00443284
0.0017249
0.00162336
0.0196699
0.0108493
0.000276735
0.00864633
0.00381138
0.00201734
0.000493752
0.000542542
0.0585365
0.000688211
-0.00246096
0.025111
0.000105941
0
0.00307199
0.000816351
0.00147573
0.0131837
0.00688612
-0.0098173
-0.000863407
-0.00630919
-0.00708891
-0.00288504
0
0.0204807
-0.00123368
0
-0.000731111
-1.79252e-05
0.00600002
-0.0176328
0.000665882
0
0.010414
0.232143
-0.000136317
0.0214344
-0.016528
0.0049475
-9.93631e-05
0.00437212
-0.0015956
0
0.00845409
0.00323538
0.0112031
-0.00130331
0.000736153
-0.007865
0.00585501
-0.00156523
0.00559304
-0.00380619
0.00485076
0.00102618
0.00529158
0.00416994
0.000683591
-0.013819
-0.015906
-0.00014107
0.00158256
0.000135514
3.87292e-05
0.00102309
0.00415706
-0.0121
0.00249001
0.00147029
0.00766807
-0.000146755
0.0206631
-6.45411e-06
0.000587784
-0.00504711
-0.00101259
0.00317231
0.00262994
-0.0022032
0.073109
0.00240473
-0.00621344
0.0861361
0.000199948
0.00160168
-0.000163247
0.0103986
0.00800576
-0.00199709
0.150882
0.0115277
0.000875432
0.00459403
0.00620414
0.00219441
-0.0029978
-0.000243839
0.000853213
0.0836864
-0.000324308
-0.000232522
0.0486906
-8.72289e-05
-0.00146221
1.85082e-05
-0.00295885
-0.00315669
-0.00561902
0.0708445
-0.00594546
-0.000579264
0.000497726
-0.0615756
-0.00619699
0.189322
7.89473e-05
-0.00387763
-0.00151715
-0.00724335
-0.0168166
0.00766441
-0.00220104
0.000806498
-0.000157652
-0.0115495
0.00224839
-0.000818659
-0.00546145
-3.94144e-05
-0.0155179
-0.0157449
-0.005589
0.000118048
-0.000330519
-0.0144237
0.00569005
0.0447755
0.0011726
0.00575197
-0.000625421
0.00097609
0.000251632
2.05369e-05
-0.00592655
0.0387294
-0.000655056
-0.00389165
-0.000427024
0.227567
-0.00020038
0.0166064
0.000663303
0
-0.000744569
-0.00842358
0.250608
0.0002738
0.0120581
0.000111276
0.0433008
0.00011009
0.00362039
-0.00179097
-0.000320968
0.00826182
0.0406838
-5.26664e-05
-0.000566079
-0.000665011
0.000407607
0.0114874
0.00146196
0.0029319
1.21455e-05
0.00324541
-3.46499e-05
0.00327125
-0.000109045
-0.00856271
-0.000193809
-0.000461943
0.00644597
-0.000285676
0.0189023
0.00314003
-0.00492002
5.99787e-06
-0.00197002
-0.00155962
0.00697654
0.00679545
-0.00805495
-0.0198013
-0.00227234
0.000220375
-0.0228413
-0.000996119
0.000255357
-0.00192727
-0.0088792
-0.00432048
0
-0.0117156
0.00808265
0.000436016
-0.00226417
0.00823965
0.025733
0.00771306
0.00664861
-6.75117e-05
-0.024544
0.00463067
0.00016156
0.0051478
-0.0168033
-0.0134575
0.0671285
0.020176
0.00520557
-0.0077236
-0.0136263
0.0128998
-0.00726628
0.00298615
0.00578786
-0.000353824
0.0111826
0.00222353
-0.000107399
0.00667966
0.0147023
-0.000334983
0.0505657
0.00115502
-0.000689509
-0.00605871
0.0204366
0.00590781
-0.00870437
0.000899912
-0.000357879
-0.00524048
-2.23319e-05
0.017501
0.00534412
0.0139956
0.00302938
-0.000445154
0
-0.00123071
0.0049486
-0.00123552
-0.000336616
-0.006166
0.000238989
-5.44913e-05
0.0033446
-0.00799517
0.00527274
0.00705617
0.000117531
0.0839663
-0.0109957
0.00240376
-0.000145522
0.00703284
-0.00488102
0.00179625
-3.40364e-05
-0.000893015
0.000413597
-0.0142334
-0.0236558
-0.00568486
-0.00168007
-0.0048039
0.00378553
0.00122229
5.84965e-05
0.0015506
0.000421737
0.0154619
0.00622038
0.108583
-0.000335328
-0.0270797
0.00383954
-0.0159824
0.000297047
0.0499605
-0.0656092
0.0293317
-0.0072829
0.0096545
-0.0126667
0.00354524
0
-0.00376017
4.11235e-05
0.000708805
-0.00543515
0.0013515
0.0477671
0.00333728
0.00625948
-0.122617
0.00364054
-0.00219379
0.00688605
-0.00765137
0.0226559
0.260307
-0.000678304
-0.00737604
-0.000784599
0.0061641
-0.0195307
0.0620168
-0.0165796
-0.0289686
0.0383927
0.0117913
-0.0864981
0.0335988
-0.00244819
0.00144205
0.0179025
0.0165639
0.000208604
0.0293942
0.01752
0.00174097
-0.0135972
0.0164852
-0.00292059
0
-0.000376439
0.00867508
-1.86735e-05
0.00130957
-0.0019266
-0.00692642
-0.00136916
-0.000261316
-0.00553229
0.00661641
0.00084632
0.00362672
0.004522
-0.0078047
0
0.000565312
0.00545174
-0.00141368
0.000637891
0.00807278
-5.83208e-05
0.0039181
-0.00125775
-0.000108529
0.0233461
4.42061e-05
-0.00121649
0.0152186
0.00493975
-0.00100156
0.001742
-0.0108654
0.0559456
-0.000232135
-0.000421012
0.000887784
-0.00300974
-0.00055757
-0.0122749
0.00201556
0.000880635
3.73962e-05
0.00355241
-0.00128305
0.00421472
-0.000192067
-0.00699822
-0.00528949
-0.00183703
0.0167323
0.00246273
-0.00519851
-0.00210532