# vtk DataFile Version 2.0
Unstructured Grid by M++
ASCII
DATASET UNSTRUCTURED_GRID
POINTS 81 float
  1.000000   0.625000 0
  0.750000   0.375000 0
  1.000000   0.000000 0
  0.875000   0.875000 0
  0.750000   0.125000 0
  1.000000   1.000000 0
  0.875000   0.250000 0
  0.625000   0.875000 0
  1.000000   0.750000 0
  0.875000   0.000000 0
  1.000000   0.250000 0
  0.625000   0.375000 0
  0.875000   0.500000 0
  0.625000   0.625000 0
  1.000000   0.500000 0
  0.750000   0.500000 0
  0.750000   1.000000 0
  1.000000   0.125000 0
  0.625000   0.250000 0
  0.750000   0.750000 0
  0.625000   0.000000 0
  0.125000   0.375000 0
  0.000000   0.500000 0
  0.125000   0.625000 0
  0.625000   1.000000 0
  1.000000   0.875000 0
  0.875000   0.125000 0
  0.500000   0.250000 0
  0.625000   0.500000 0
  0.250000   0.625000 0
  0.000000   0.625000 0
  0.375000   0.500000 0
  0.375000   0.000000 0
  0.000000   0.125000 0
  0.125000   0.875000 0
  0.875000   1.000000 0
  0.750000   0.250000 0
  0.375000   0.375000 0
  0.250000   0.375000 0
  0.625000   0.750000 0
  0.125000   0.125000 0
  0.500000   0.000000 0
  0.250000   0.875000 0
  0.125000   0.500000 0
  0.500000   0.375000 0
  0.125000   0.000000 0
  0.250000   0.750000 0
  0.250000   0.500000 0
  0.000000   0.875000 0
  0.875000   0.625000 0
  0.500000   0.750000 0
  0.750000   0.625000 0
  0.250000   0.000000 0
  0.375000   0.750000 0
  0.750000   0.875000 0
  0.625000   0.125000 0
  0.250000   0.250000 0
  0.375000   1.000000 0
  0.375000   0.250000 0
  0.000000   0.375000 0
  0.500000   1.000000 0
  0.875000   0.750000 0
  0.750000   0.000000 0
  0.375000   0.125000 0
  0.500000   0.875000 0
  0.000000   0.000000 0
  0.125000   0.750000 0
  0.500000   0.625000 0
  0.125000   0.250000 0
  0.500000   0.125000 0
  0.250000   1.000000 0
  0.250000   0.125000 0
  0.000000   1.000000 0
  0.375000   0.875000 0
  0.000000   0.750000 0
  0.375000   0.625000 0
  0.000000   0.250000 0
  0.125000   1.000000 0
  1.000000   0.375000 0
  0.500000   0.500000 0
  0.875000   0.375000 0
CELLS 64 320
4 56 71 58 63
4 27 58 69 63
4 41 69 32 63
4 76 33 68 40
4 27 44 58 37
4 79 31 44 37
4 56 38 68 21
4 56 58 38 37
4 52 32 71 63
4 47 38 31 37
4 76 68 59 21
4 22 59 43 21
4 65 45 33 40
4 47 43 38 21
4 52 71 45 40
4 56 68 71 40
4 74 30 66 23
4 46 66 29 23
4 22 43 30 23
4 72 48 77 34
4 46 53 42 73
4 50 64 53 73
4 70 42 57 73
4 74 66 48 34
4 46 42 66 34
4 47 29 43 23
4 70 77 42 34
4 60 57 64 73
4 79 67 31 75
4 47 31 29 75
4 50 53 67 75
4 46 29 53 75
4 10 78 6 80
4 36 6 1 80
4 15 1 12 80
4 36 4 6 26
4 14 12 78 80
4 2 17 9 26
4 36 18 4 55
4 15 28 1 11
4 62 4 20 55
4 10 6 17 26
4 27 18 44 11
4 62 9 4 26
4 27 69 18 55
4 36 1 18 11
4 41 20 69 55
4 79 44 28 11
4 16 24 54 7
4 19 54 39 7
4 50 39 64 7
4 8 25 61 3
4 60 64 24 7
4 79 28 67 13
4 19 51 61 49
4 8 61 0 49
4 15 51 28 13
4 19 39 51 13
4 50 67 39 13
4 19 61 54 3
4 14 0 12 49
4 5 35 25 3
4 15 12 51 49
4 16 54 35 3
CELL_TYPES 64
8
8
8
8
8
8
8
8
8
8
8
8
8
8
8
8
8
8
8
8
8
8
8
8
8
8
8
8
8
8
8
8
8
8
8
8
8
8
8
8
8
8
8
8
8
8
8
8
8
8
8
8
8
8
8
8
8
8
8
8
8
8
8
8
CELL_DATA 64
VECTORS vector_value float
0.201365 -1.77935 0
0.250115 -0.816482 0
0.453353 -0.933231 0
0.0926374 -0.692885 0
-0.165367 -0.364811 0
-0.234199 -0.673497 0
0.701391 -1.73954 0
0.0870749 -1.49409 0
-0.0186359 -0.341726 0
-0.0424153 -0.672444 0
0.320763 -1.07864 0
0.0733348 -1.7263 0
0.0396586 -0.567066 0
-0.00241359 -1.45703 0
-0.311721 -2.52153 0
0.103814 -1.61918 0
-0.312199 -0.724188 0
-0.815933 -1.40464 0
-0.277364 -1.39452 0
0.284171 -0.801186 0
-0.087732 -1.04889 0
-0.778617 -1.7149 0
0.135075 -0.315884 0
0.00207358 -0.382254 0
0.150648 -1.34705 0
-0.431521 -1.5773 0
0.225953 -1.44626 0
0.247649 -1.27351 0
-0.0297444 -0.446564 0
-0.145006 -0.900113 0
-0.0645647 -0.93558 0
-0.892287 -1.51822 0
-0.0753137 -0.914272 0
-0.0875091 -1.19773 0
0.0289055 -1.15088 0
-0.489384 -1.18881 0
-0.0386464 -0.915146 0
-0.0451839 -0.375038 0
-0.248178 -0.872843 0
-0.100671 -0.878983 0
-0.498011 -1.10999 0
-0.162734 -0.584536 0
-0.15829 -0.705756 0
-0.233563 -0.743681 0
-0.057343 -0.445915 0
-0.0605002 -0.505156 0
0.0831974 -1.40774 0
-0.219915 -0.525718 0
-0.448045 -0.807734 0
0.169502 -0.596536 0
-0.0366296 -1.12894 0
-0.0682565 -1.09545 0
-0.437764 -1.63188 0
0.0344528 -0.579879 0
0.046776 -0.968662 0
0.0299676 -0.996686 0
0.114908 -1.44304 0
0.161708 -0.793326 0
0.238738 -0.658701 0
-0.047935 -0.685994 0
-0.0469376 -1.32494 0
0.087093 -1.33601 0
-0.00145886 -0.333639 0
-0.0078794 -0.387545 0
