# vtk DataFile Version 2.0
Unstructured Grid by M++
ASCII
DATASET UNSTRUCTURED_GRID
POINTS 81 float
  1.000000   0.625000 0
  0.750000   0.375000 0
  1.000000   0.000000 0
  0.875000   0.875000 0
  0.750000   0.125000 0
  1.000000   1.000000 0
  0.875000   0.250000 0
  0.625000   0.875000 0
  1.000000   0.750000 0
  0.875000   0.000000 0
  1.000000   0.250000 0
  0.625000   0.375000 0
  0.875000   0.500000 0
  0.625000   0.625000 0
  1.000000   0.500000 0
  0.750000   0.500000 0
  0.750000   1.000000 0
  1.000000   0.125000 0
  0.625000   0.250000 0
  0.750000   0.750000 0
  0.625000   0.000000 0
  0.125000   0.375000 0
  0.000000   0.500000 0
  0.125000   0.625000 0
  0.625000   1.000000 0
  1.000000   0.875000 0
  0.875000   0.125000 0
  0.500000   0.250000 0
  0.625000   0.500000 0
  0.250000   0.625000 0
  0.000000   0.625000 0
  0.375000   0.500000 0
  0.375000   0.000000 0
  0.000000   0.125000 0
  0.125000   0.875000 0
  0.875000   1.000000 0
  0.750000   0.250000 0
  0.375000   0.375000 0
  0.250000   0.375000 0
  0.625000   0.750000 0
  0.125000   0.125000 0
  0.500000   0.000000 0
  0.250000   0.875000 0
  0.125000   0.500000 0
  0.500000   0.375000 0
  0.125000   0.000000 0
  0.250000   0.750000 0
  0.250000   0.500000 0
  0.000000   0.875000 0
  0.875000   0.625000 0
  0.500000   0.750000 0
  0.750000   0.625000 0
  0.250000   0.000000 0
  0.375000   0.750000 0
  0.750000   0.875000 0
  0.625000   0.125000 0
  0.250000   0.250000 0
  0.375000   1.000000 0
  0.375000   0.250000 0
  0.000000   0.375000 0
  0.500000   1.000000 0
  0.875000   0.750000 0
  0.750000   0.000000 0
  0.375000   0.125000 0
  0.500000   0.875000 0
  0.000000   0.000000 0
  0.125000   0.750000 0
  0.500000   0.625000 0
  0.125000   0.250000 0
  0.500000   0.125000 0
  0.250000   1.000000 0
  0.250000   0.125000 0
  0.000000   1.000000 0
  0.375000   0.875000 0
  0.000000   0.750000 0
  0.375000   0.625000 0
  0.000000   0.250000 0
  0.125000   1.000000 0
  1.000000   0.375000 0
  0.500000   0.500000 0
  0.875000   0.375000 0
CELLS 64 320
4 56 71 58 63
4 27 58 69 63
4 41 69 32 63
4 76 33 68 40
4 27 44 58 37
4 79 31 44 37
4 56 38 68 21
4 56 58 38 37
4 52 32 71 63
4 47 38 31 37
4 76 68 59 21
4 22 59 43 21
4 65 45 33 40
4 47 43 38 21
4 52 71 45 40
4 56 68 71 40
4 74 30 66 23
4 46 66 29 23
4 22 43 30 23
4 72 48 77 34
4 46 53 42 73
4 50 64 53 73
4 70 42 57 73
4 74 66 48 34
4 46 42 66 34
4 47 29 43 23
4 70 77 42 34
4 60 57 64 73
4 79 67 31 75
4 47 31 29 75
4 50 53 67 75
4 46 29 53 75
4 10 78 6 80
4 36 6 1 80
4 15 1 12 80
4 36 4 6 26
4 14 12 78 80
4 2 17 9 26
4 36 18 4 55
4 15 28 1 11
4 62 4 20 55
4 10 6 17 26
4 27 18 44 11
4 62 9 4 26
4 27 69 18 55
4 36 1 18 11
4 41 20 69 55
4 79 44 28 11
4 16 24 54 7
4 19 54 39 7
4 50 39 64 7
4 8 25 61 3
4 60 64 24 7
4 79 28 67 13
4 19 51 61 49
4 8 61 0 49
4 15 51 28 13
4 19 39 51 13
4 50 67 39 13
4 19 61 54 3
4 14 0 12 49
4 5 35 25 3
4 15 12 51 49
4 16 54 35 3
CELL_TYPES 64
8
8
8
8
8
8
8
8
8
8
8
8
8
8
8
8
8
8
8
8
8
8
8
8
8
8
8
8
8
8
8
8
8
8
8
8
8
8
8
8
8
8
8
8
8
8
8
8
8
8
8
8
8
8
8
8
8
8
8
8
8
8
8
8
CELL_DATA 64
VECTORS vector_value float
1.21291 -1.90883 0
0.468694 -0.946142 0
0.16291 -1.71315 0
0.0422259 -0.357355 0
0.0921419 -0.438589 0
-0.106528 -0.200463 0
1.05322 -2.62774 0
0.556976 -1.10032 0
0.268931 -2.13956 0
-0.154223 -1.01714 0
0.381456 -0.555543 0
0.615536 -1.76271 0
0.00283152 -0.313544 0
1.06189 -1.61807 0
0.0454846 -0.509932 0
0.702854 -1.42621 0
-0.311886 -2.08038 0
-0.667518 -1.59876 0
0.105991 -3.32799 0
-0.218414 -1.26255 0
-0.384689 -0.434783 0
-0.137246 -0.68403 0
-0.911218 -0.921654 0
-0.27404 -2.04379 0
-0.51516 -1.35794 0
0.019698 -0.274681 0
-0.761399 -1.28462 0
-0.554895 -0.832868 0
-0.216626 -0.745586 0
0.014536 -0.256132 0
-0.000915853 -0.494397 0
0.0483358 -0.263634 0
0.0775187 -1.02242 0
0.0386313 -0.96398 0
-0.0491004 -1.55398 0
-0.0346206 -1.61394 0
-0.00952347 -0.744147 0
-0.0337958 -0.517018 0
-0.0217608 -0.138894 0
0.047385 -0.836605 0
-0.0238745 -0.248949 0
-0.198524 -0.806656 0
-0.0777769 -0.132205 0
-0.101092 -1.81483 0
-0.235831 -0.801966 0
-0.190056 -1.15921 0
0.0172114 -0.743006 0
0.00754312 -0.266887 0
-0.376422 -1.29704 0
-0.150776 -1.2512 0
-0.225927 -0.874163 0
0.072107 -1.19487 0
-0.307222 -0.799475 0
0.115147 -0.409193 0
0.164296 -0.322524 0
0.0125451 -1.30276 0
0.503183 -0.995299 0
0.16467 -0.758071 0
0.162027 -1.17948 0
0.067166 -0.159231 0
-0.214579 -1.12828 0
0.0471285 -1.03117 0
0.0548434 -0.862841 0
-0.232537 -0.570632 0
