# vtk DataFile Version 2.0
Unstructured Grid by M++
ASCII
DATASET UNSTRUCTURED_GRID
POINTS 4225 float
  0.921875   0.593750 0
  0.921875   0.609375 0
  0.656250   0.609375 0
  0.671875   0.609375 0
  0.656250   0.546875 0
  0.671875   0.546875 0
  0.656250   0.562500 0
  0.656250   0.578125 0
  0.656250   0.593750 0
  0.671875   0.593750 0
  0.671875   0.562500 0
  0.671875   0.578125 0
  0.671875   0.625000 0
  0.671875   0.640625 0
  0.906250   0.578125 0
  0.890625   0.578125 0
  0.546875   0.515625 0
  1.000000   0.890625 0
  0.515625   0.640625 0
  0.515625   0.625000 0
  1.000000   0.875000 0
  0.515625   0.656250 0
  0.515625   0.687500 0
  0.515625   0.671875 0
  1.000000   0.921875 0
  0.546875   0.531250 0
  0.546875   0.546875 0
  0.546875   0.562500 0
  0.796875   0.531250 0
  0.953125   0.890625 0
  0.953125   0.875000 0
  0.953125   0.843750 0
  0.953125   0.828125 0
  0.953125   0.812500 0
  0.531250   0.562500 0
  0.531250   0.546875 0
  0.515625   0.562500 0
  0.515625   0.546875 0
  1.000000   0.812500 0
  0.781250   0.546875 0
  0.765625   0.546875 0
  0.859375   0.921875 0
  0.921875   0.671875 0
  0.609375   0.906250 0
  0.671875   0.656250 0
  0.609375   0.921875 0
  0.671875   0.671875 0
  0.671875   0.984375 0
  0.671875   1.000000 0
  0.906250   0.984375 0
  0.906250   1.000000 0
  0.921875   0.984375 0
  0.921875   1.000000 0
  0.859375   0.609375 0
  1.000000   0.781250 0
  0.515625   0.531250 0
  0.531250   0.531250 0
  0.531250   0.515625 0
  0.515625   0.515625 0
  1.000000   0.750000 0
  0.765625   0.531250 0
  0.781250   0.531250 0
  0.781250   0.515625 0
  0.765625   0.515625 0
  0.859375   0.875000 0
  0.921875   0.625000 0
  0.859375   0.890625 0
  0.921875   0.640625 0
  0.671875   0.968750 0
  0.671875   0.953125 0
  0.921875   0.968750 0
  0.921875   0.953125 0
  0.859375   0.593750 0
  0.859375   0.578125 0
  0.875000   0.578125 0
  0.828125   0.890625 0
  0.890625   0.640625 0
  0.593750   0.890625 0
  0.656250   0.640625 0
  0.593750   0.875000 0
  0.656250   0.625000 0
  0.578125   0.890625 0
  0.640625   0.640625 0
  0.578125   0.875000 0
  0.640625   0.625000 0
  0.968750   0.890625 0
  0.984375   0.890625 0
  0.968750   0.812500 0
  0.968750   0.828125 0
  0.984375   0.812500 0
  0.984375   0.828125 0
  1.000000   0.828125 0
  0.656250   0.953125 0
  0.640625   0.953125 0
  0.890625   0.968750 0
  0.906250   0.968750 0
  0.906250   0.953125 0
  0.890625   0.953125 0
  0.531250   0.703125 0
  0.531250   0.718750 0
  0.546875   0.718750 0
  0.546875   0.703125 0
  0.593750   0.578125 0
  0.562500   0.578125 0
  0.578125   0.578125 0
  0.843750   0.578125 0
  0.828125   0.578125 0
  0.828125   0.812500 0
  0.890625   0.562500 0
  0.828125   0.796875 0
  0.953125   0.906250 0
  0.953125   0.921875 0
  0.531250   0.859375 0
  0.593750   0.609375 0
  0.531250   0.843750 0
  0.593750   0.593750 0
  0.515625   0.843750 0
  0.578125   0.593750 0
  0.515625   0.859375 0
  0.578125   0.609375 0
  0.937500   0.859375 0
  1.000000   0.609375 0
  0.921875   0.859375 0
  0.984375   0.609375 0
  0.937500   0.796875 0
  0.921875   0.796875 0
  0.984375   0.546875 0
  0.562500   0.812500 0
  0.843750   0.796875 0
  0.843750   0.812500 0
  0.859375   0.796875 0
  0.859375   0.812500 0
  1.000000   0.906250 0
  0.984375   0.906250 0
  0.968750   0.906250 0
  0.968750   0.921875 0
  0.984375   0.921875 0
  0.593750   0.921875 0
  0.656250   0.671875 0
  0.593750   0.906250 0
  0.656250   0.656250 0
  0.578125   0.906250 0
  0.640625   0.656250 0
  0.578125   0.921875 0
  0.640625   0.671875 0
  1.000000   0.843750 0
  0.984375   0.843750 0
  0.968750   0.843750 0
  0.968750   0.859375 0
  0.968750   0.875000 0
  1.000000   0.859375 0
  0.984375   0.859375 0
  0.984375   0.875000 0
  0.656250   1.000000 0
  0.656250   0.984375 0
  0.656250   0.968750 0
  0.640625   0.968750 0
  0.640625   1.000000 0
  0.640625   0.984375 0
  0.843750   0.921875 0
  0.906250   0.671875 0
  0.843750   0.906250 0
  0.906250   0.656250 0
  0.828125   0.906250 0
  0.890625   0.656250 0
  0.828125   0.921875 0
  0.890625   0.671875 0
  0.781250   0.859375 0
  0.843750   0.609375 0
  0.781250   0.843750 0
  0.843750   0.593750 0
  0.765625   0.843750 0
  0.828125   0.593750 0
  0.765625   0.859375 0
  0.828125   0.609375 0
  0.968750   0.609375 0
  0.906250   0.859375 0
  0.953125   0.609375 0
  0.890625   0.859375 0
  0.937500   0.609375 0
  0.875000   0.859375 0
  0.562500   0.593750 0
  0.546875   0.593750 0
  0.531250   0.593750 0
  0.531250   0.609375 0
  0.562500   0.609375 0
  0.546875   0.609375 0
  0.609375   0.625000 0
  0.546875   0.875000 0
  0.609375   0.640625 0
  0.546875   0.890625 0
  0.625000   0.640625 0
  0.562500   0.890625 0
  0.625000   0.625000 0
  0.562500   0.875000 0
  0.921875   0.843750 0
  0.984375   0.593750 0
  0.937500   0.843750 0
  1.000000   0.593750 0
  0.921875   0.812500 0
  0.921875   0.828125 0
  0.984375   0.578125 0
  0.937500   0.828125 0
  1.000000   0.578125 0
  0.937500   0.812500 0
  1.000000   0.562500 0
  0.578125   0.828125 0
  0.921875   0.781250 0
  0.937500   0.781250 0
  1.000000   0.531250 0
  0.921875   0.765625 0
  0.984375   0.515625 0
  0.937500   0.765625 0
  0.625000   0.656250 0
  0.562500   0.906250 0
  0.609375   0.656250 0
  0.546875   0.906250 0
  0.625000   0.671875 0
  0.562500   0.921875 0
  0.609375   0.671875 0
  0.546875   0.921875 0
  0.859375   0.781250 0
  0.859375   0.765625 0
  0.828125   0.671875 0
  0.765625   0.921875 0
  0.828125   0.734375 0
  0.765625   0.984375 0
  0.875000   0.843750 0
  0.937500   0.593750 0
  0.890625   0.843750 0
  0.953125   0.593750 0
  0.906250   0.843750 0
  0.968750   0.593750 0
  0.906250   0.828125 0
  0.968750   0.578125 0
  0.937500   0.578125 0
  0.953125   0.578125 0
  0.906250   0.765625 0
  0.875000   0.765625 0
  0.953125   0.515625 0
  0.531250   0.781250 0
  0.671875   0.890625 0
  0.531250   0.921875 0
  0.953125   0.656250 0
  0.828125   0.781250 0
  0.843750   0.781250 0
  0.703125   0.984375 0
  0.687500   0.984375 0
  0.843750   0.875000 0
  0.906250   0.625000 0
  0.671875   0.781250 0
  0.734375   0.531250 0
  0.906250   0.609375 0
  0.671875   0.765625 0
  0.734375   0.515625 0
  0.906250   0.593750 0
  0.890625   0.593750 0
  0.875000   0.593750 0
  0.828125   0.875000 0
  0.890625   0.625000 0
  0.656250   0.781250 0
  0.718750   0.531250 0
  0.890625   0.609375 0
  0.656250   0.765625 0
  0.718750   0.515625 0
  0.875000   0.609375 0
  0.640625   0.765625 0
  0.703125   0.515625 0
  0.812500   0.921875 0
  0.875000   0.671875 0
  0.812500   0.875000 0
  0.875000   0.625000 0
  0.640625   0.781250 0
  0.703125   0.531250 0
  0.812500   0.515625 0
  0.750000   0.828125 0
  0.812500   0.578125 0
  0.687500   1.000000 0
  0.937500   0.656250 0
  0.875000   0.906250 0
  0.531250   0.656250 0
  0.890625   0.906250 0
  0.906250   0.906250 0
  0.562500   0.656250 0
  0.906250   0.890625 0
  0.562500   0.640625 0
  0.968750   0.625000 0
  0.906250   0.875000 0
  0.562500   0.625000 0
  0.937500   0.640625 0
  0.875000   0.890625 0
  0.890625   0.890625 0
  0.546875   0.640625 0
  0.953125   0.625000 0
  0.890625   0.875000 0
  0.546875   0.625000 0
  0.546875   0.687500 0
  0.890625   0.937500 0
  0.937500   0.625000 0
  0.875000   0.875000 0
  0.531250   0.625000 0
  0.531250   0.640625 0
  0.546875   0.656250 0
  0.937500   0.968750 0
  0.687500   0.968750 0
  0.953125   0.968750 0
  0.703125   0.968750 0
  0.968750   0.968750 0
  0.718750   0.968750 0
  0.718750   0.906250 0
  0.968750   0.953125 0
  0.718750   0.953125 0
  0.968750   0.937500 0
  0.859375   0.906250 0
  0.921875   0.656250 0
  0.718750   0.937500 0
  0.828125   0.531250 0
  0.937500   0.953125 0
  0.687500   0.953125 0
  0.953125   0.953125 0
  0.703125   0.953125 0
  0.703125   0.890625 0
  0.843750   0.515625 0
  0.953125   0.937500 0
  0.953125   1.000000 0
  0.703125   0.937500 0
  0.937500   0.937500 0
  0.687500   0.937500 0
  0.703125   0.906250 0
  0.718750   0.890625 0
  0.687500   0.890625 0
  0.687500   0.765625 0
  0.750000   0.515625 0
  0.687500   0.781250 0
  0.750000   0.531250 0
  0.859375   0.937500 0
  0.921875   0.687500 0
  0.687500   0.796875 0
  0.750000   0.546875 0
  0.578125   0.750000 0
  0.515625   1.000000 0
  0.843750   0.765625 0
  0.578125   0.734375 0
  0.515625   0.984375 0
  0.562500   0.734375 0
  0.828125   0.750000 0
  0.765625   1.000000 0
  0.562500   0.750000 0
  0.562500   0.718750 0
  0.578125   0.515625 0
  0.921875   0.703125 0
  0.921875   0.718750 0
  0.593750   0.515625 0
  0.687500   0.875000 0
  0.750000   0.625000 0
  0.578125   0.531250 0
  0.921875   0.750000 0
  0.703125   0.875000 0
  0.765625   0.625000 0
  0.593750   0.531250 0
  0.875000   0.968750 0
  0.937500   0.718750 0
  0.703125   0.828125 0
  0.765625   0.578125 0
  0.937500   0.734375 0
  0.703125   0.812500 0
  0.765625   0.562500 0
  0.890625   0.687500 0
  0.828125   0.937500 0
  0.656250   0.796875 0
  0.718750   0.546875 0
  0.890625   0.718750 0
  0.828125   0.968750 0
  0.906250   0.796875 0
  0.718750   0.828125 0
  0.781250   0.578125 0
  0.890625   0.703125 0
  0.828125   0.953125 0
  0.656250   0.859375 0
  0.906250   0.781250 0
  0.968750   0.531250 0
  0.546875   0.796875 0
  0.671875   0.796875 0
  0.734375   0.546875 0
  0.843750   0.953125 0
  0.906250   0.703125 0
  0.671875   0.875000 0
  0.718750   0.812500 0
  0.781250   0.562500 0
  0.875000   0.812500 0
  0.531250   0.890625 0
  0.593750   0.640625 0
  0.937500   0.890625 0
  0.875000   0.781250 0
  0.609375   0.703125 0
  0.546875   0.953125 0
  0.890625   0.796875 0
  0.625000   0.718750 0
  0.562500   0.968750 0
  0.906250   0.812500 0
  0.734375   0.859375 0
  0.796875   0.609375 0
  0.718750   0.875000 0
  0.781250   0.625000 0
  0.750000   0.859375 0
  0.812500   0.609375 0
  0.812500   0.546875 0
  0.750000   0.812500 0
  0.734375   0.843750 0
  0.796875   0.593750 0
  0.750000   0.843750 0
  0.812500   0.593750 0
[...]
CELL_DATA 4096
VECTORS vector_value float
-0.197598 -2.01694 0
-0.15124 -1.95877 0
-0.316667 -2.28749 0
-0.410501 -2.67197 0
-0.0374068 -1.17631 0
-0.0870251 -1.43948 0
-0.101415 -1.46154 0
-0.0580015 -1.2562 0
-0.00104214 -1.39305 0
-0.0255097 -1.40948 0
0.0044177 -1.12463 0
0.00883373 -1.09819 0
-0.178438 -2.17283 0
-0.108195 -1.81391 0
-0.0331524 -1.69074 0
-0.0430469 -2.24551 0
-0.0243862 -1.06729 0
-0.149716 -1.02929 0
-0.203811 -1.19941 0
-0.0902146 -1.13117 0
-0.054248 -0.800833 0
-0.106053 -0.955663 0
0.0242628 -0.86188 0
0.0642664 -0.78551 0
-0.349555 -0.945653 0
-0.242346 -0.979525 0
-0.204133 -0.812087 0
-0.315244 -0.905068 0
0.0678512 -0.634579 0
0.0499468 -0.611264 0
0.0167351 -0.80259 0
0.0322804 -0.851061 0
-0.372049 -1.25942 0
-0.275446 -1.11745 0
-0.440461 -1.10742 0
-0.521322 -1.2902 0
0.000320253 -0.78543 0
0.0215964 -0.575126 0
0.0272166 -0.530823 0
0.00961686 -0.792517 0
-0.0845378 -0.41476 0
-0.0354858 -0.378339 0
-0.0833605 -0.504043 0
-0.142849 -0.5503 0
-0.89816 -1.51387 0
-1.08702 -1.82254 0
-1.22204 -1.99398 0
-1.09076 -1.67901 0
0.0642383 -0.285679 0
0.0881915 -0.296785 0
0.0780352 -0.307999 0
0.0501107 -0.339401 0
-0.567386 -1.03372 0
-0.692518 -1.10369 0
-0.60497 -1.13173 0
-0.526566 -1.04781 0
0.0128157 -0.355021 0
0.0295326 -0.420048 0
0.0364089 -0.391858 0
0.0378748 -0.363773 0
-0.948529 -1.3864 0
-1.0387 -1.4514 0
-0.925718 -1.62609 0
-0.803222 -1.47325 0
-0.476691 -1.37411 0
-0.44087 -1.52423 0
-0.340651 -1.02059 0
-0.314999 -0.881859 0
-0.836173 -1.75 0
-0.9838 -1.73719 0
-1.15834 -1.9748 0
-0.974744 -1.89237 0
0.763243 -0.801211 0
0.874811 -0.865217 0
0.874143 -0.888173 0
0.850451 -0.897433 0
-1.29477 -1.53281 0
-1.17212 -1.49499 0
-1.02408 -1.33922 0
-1.18194 -1.41376 0
0.0607454 -0.341124 0
0.0308124 -0.316768 0
0.0218026 -0.333175 0
0.0435023 -0.345504 0
-0.0517051 -0.410973 0
-0.0606227 -0.468833 0
-0.00840412 -0.416528 0
-0.0107688 -0.384863 0
0.76864 -0.871204 0
0.797585 -0.788847 0
0.772757 -0.775163 0
0.763058 -0.851509 0
-1.10779 -1.55986 0
-1.19326 -1.58496 0
-1.20726 -1.58752 0
-1.02818 -1.52101 0
-0.0192221 -0.457084 0
-0.0762218 -0.550854 0
-0.0326184 -0.567658 0
-0.0146831 -0.515568 0
0.00962825 -0.32059 0
-0.00509816 -0.332127 0
-0.040843 -0.372459 0
-0.00295068 -0.345498 0
0.887305 -0.874061 0
0.895442 -0.851392 0
0.864216 -0.89423 0
0.837497 -0.926152 0
-1.06977 -1.74435 0
-1.10604 -1.52857 0
-1.09541 -1.68713 0
-1.0141 -1.75514 0
0.0470282 -0.475434 0
0.0433039 -0.464441 0
0.0187515 -0.358253 0
0.0289489 -0.386202 0
0.0127415 -0.50523 0
0.0360018 -0.495647 0
0.0201595 -0.474513 0
0.00643029 -0.488056 0
0.887364 -0.854297 0
0.89586 -0.867847 0
0.878591 -0.876155 0
0.802797 -0.747004 0
-0.176429 -0.992197 0
-0.144471 -0.867913 0
-0.200759 -1.07319 0
-0.359948 -1.19111 0
-0.0313828 -0.423757 0
0.0213702 -0.350423 0
0.0550562 -0.314475 0
0.0181666 -0.359856 0
-0.229155 -0.683177 0
-0.152248 -0.631261 0
-0.127476 -0.489685 0
-0.230982 -0.64711 0
-1.14797 -1.88123 0
-1.20076 -1.88306 0
-1.3006 -1.67824 0
-1.23631 -1.76606 0
0.561095 -1.19476 0
0.524576 -1.19974 0
0.439804 -0.951659 0
0.549029 -1.04948 0
-0.0329267 -0.95561 0
-0.0950236 -0.868075 0
-0.0690878 -0.892767 0
0.0467037 -1.13316 0
0.294253 -0.922682 0
0.346478 -1.09007 0
0.252028 -1.02108 0
0.236438 -0.923277 0
0.54425 -1.04959 0
0.489735 -1.01014 0
0.523928 -1.07824 0
0.610672 -1.09206 0
-0.294034 -1.23193 0
-0.330335 -1.09735 0
-0.273858 -1.07351 0
-0.259595 -1.33695 0
0.328823 -0.451841 0
0.261745 -0.401501 0
0.232738 -0.421329 0
0.267879 -0.451512 0
-0.37433 -1.10991 0
-0.347728 -1.11312 0
-0.330932 -1.16717 0
-0.381845 -1.16162 0
0.198303 -0.404613 0
0.218286 -0.368423 0
0.188534 -0.343383 0
0.175702 -0.391579 0
0.380789 -1.38554 0
0.498469 -1.40536 0
0.436852 -1.25201 0
0.281405 -1.2335 0
0.415222 -0.996908 0
0.457639 -0.937558 0
0.51439 -0.897903 0
0.486428 -0.939265 0
-0.256101 -0.862347 0
-0.307217 -0.949454 0
-0.356073 -1.02427 0
-0.304085 -0.879079 0
0.11746 -0.542185 0
0.177572 -0.606198 0
0.193161 -0.456947 0
0.163488 -0.460259 0
0.349917 -1.29202 0
0.442226 -1.44148 0
0.449027 -1.4344 0
0.470784 -1.44291 0
0.396323 -1.09561 0
0.393222 -0.949214 0
0.347862 -1.06625 0
0.271063 -1.09172 0
-0.24802 -0.810162 0
-0.283889 -0.881158 0
-0.223122 -0.802796 0
-0.208443 -0.775112 0
0.216257 -0.461117 0
0.573814 -0.980751 0
-1.03889 -3.6967 0
-0.200581 -0.845329 0
0.267927 -0.614186 0
-1.01991 -1.71546 0
-1.05414 -3.4337 0
-0.460357 -2.50125 0
0.241742 -2.07965 0
-0.841579 -2.96746 0
0.540319 -1.88718 0
-0.0184341 -0.992515 0
0.0889013 -0.724927 0
0.217718 -1.46739 0
0.063514 -0.823817 0
-0.0771519 -0.819645 0
0.0693412 -1.40694 0
-0.107863 -0.831656 0
0.0267367 -1.17132 0
-0.0660167 -0.909887 0
-0.140945 -1.27611 0
-0.045111 -0.827101 0
-0.117495 -1.39073 0
0.110762 -1.87968 0
-0.543694 -2.65642 0
-0.156638 -2.0195 0
0.744552 -1.58484 0
0.668691 -1.51055 0
-0.0945943 -2.20374 0
0.473401 -0.545864 0
0.620176 -1.68254 0
0.625761 -1.78395 0
-0.894514 -2.9184 0
0.259004 -0.542032 0
-0.479747 -2.23014 0
0.217888 -0.566349 0
-0.717465 -2.53529 0
0.225474 -0.546861 0
-1.10962 -2.91204 0
0.46146 -1.024 0
-1.05115 -3.45972 0
0.569328 -1.13468 0
-1.01703 -2.89228 0
0.557539 -0.78877 0
-1.13213 -3.15429 0
0.722463 -0.799945 0
0.304211 -1.90738 0
-0.693692 -1.24728 0
0.34663 -1.77336 0
-0.774566 -1.27245 0
0.194535 -1.74098 0
-0.540905 -1.04794 0
-0.807766 -1.21639 0
0.127318 -1.65031 0
-0.51724 -1.07628 0
0.210864 -1.72824 0
-0.533289 -1.06922 0
-0.706523 -1.34045 0
0.318734 -1.82891 0
-0.53358 -0.988192 0
-0.539173 -1.49285 0
0.570456 -0.989219 0
-0.779097 -2.15682 0
0.578488 -0.972268 0
-0.900437 -2.45133 0
0.754339 -0.982992 0
-0.322726 -2.47323 0
0.137892 -1.56423 0
-0.0523319 -1.73152 0
0.579378 -1.31605 0
0.688742 -1.13878 0
-0.63249 -1.65461 0
0.710682 -0.948351 0
-0.799935 -2.49182 0
0.186841 -0.490547 0
-0.569742 -2.69702 0
0.171246 -0.467529 0
-0.840161 -2.65703 0
0.117721 -0.401956 0
-0.569515 -1.81836 0
0.00225012 -1.11452 0
-0.60044 -1.91993 0
-0.0264591 -1.14254 0
-0.835262 -2.94041 0
0.252841 -0.50614 0
-0.414909 -2.07485 0
-0.0110208 -0.982679 0
-0.34126 -1.71164 0
-0.00390215 -0.994649 0
-0.0480555 -0.713666 0
0.168519 -0.695108 0
-0.927542 -1.47235 0
-1.37266 -3.12817 0
0.469084 -0.954096 0
-1.15069 -3.10594 0
0.591681 -1.02035 0
-1.29945 -3.0828 0
0.446665 -0.814226 0
0.0306816 -2.39857 0
-0.345056 -1.52419 0
0.249995 -0.669633 0
-0.14895 -2.54014 0
0.26349 -0.64365 0
-1.30367 -3.29139 0
0.512819 -1.03319 0
0.0567673 -2.44891 0
0.266742 -0.712629 0
-0.0821296 -1.52101 0
-0.0325904 -0.657654 0
0.329173 -2.18483 0
0.23769 -0.716442 0
-0.669085 -2.32085 0
0.235347 -0.551571 0
-0.224893 -1.03003 0
0.375335 -1.19517 0
0.0683861 -1.20945 0
0.320046 -1.18566 0
-0.113602 -0.828951 0
0.223195 -1.12775 0
-0.078186 -0.866795 0
0.288422 -1.3411 0
-0.0912393 -1.0174 0
0.477113 -1.32708 0
-0.0026989 -1.21772 0
0.128784 -0.638304 0
-0.541092 -2.31047 0
0.181504 -0.48386 0
0.138949 -1.28895 0
-0.0127002 -0.916344 0
-0.183996 -1.7698 0
0.147643 -0.613069 0
-0.394137 -1.66275 0
0.512016 -1.07014 0
0.218128 -1.16281 0
0.240507 -1.196 0
0.00319934 -0.497829 0
-0.461426 -1.89356 0
0.1253 -0.567296 0
0.0225829 -0.500474 0
0.00905019 -0.476776 0
-0.624639 -1.86661 0
0.465914 -0.940092 0
-0.33349 -2.18665 0
0.203011 -0.542936 0
0.00140246 -0.492725 0
-0.0847451 -2.17277 0
0.637398 -1.43327 0
-0.667011 -2.84548 0
0.357365 -1.69933 0
0.639551 -1.68268 0
0.0873913 -0.369943 0
0.45899 -1.48315 0
0.0514608 -0.416754 0
0.429724 -1.62097 0
-0.876738 -1.16949 0
0.454709 -1.45742 0
-0.904828 -1.22417 0
0.42827 -1.49009 0
-0.868822 -1.28094 0
0.124313 -1.58074 0
-0.483358 -1.10626 0
0.0623515 -1.4683 0
-0.510391 -1.18659 0
0.349472 -1.26626 0
-0.913646 -1.25162 0
0.0202631 -1.10363 0
-0.43465 -1.03303 0
0.0247485 -1.51377 0
0.0694416 -1.78893 0
0.0554776 -1.74876 0
0.0186429 -1.4911 0
0.552727 -0.872788 0
-0.848787 -3.23191 0
0.633265 -0.873812 0
-1.03426 -3.1138 0
0.589937 -0.91207 0
-0.920081 -2.71728 0
0.552305 -0.93133 0
-0.632817 -2.33439 0
-0.265919 -2.02403 0
0.426361 -1.39089 0
0.135069 -1.89701 0
-0.446245 -2.15211 0
0.30976 -1.43946 0
0.612405 -0.86534 0
-1.23015 -3.30328 0
0.738748 -0.843399 0
-1.26135 -3.39077 0
-0.455425 -2.28407 0
-0.0145672 -1.02937 0
-0.375379 -1.23 0
0.404471 -1.05037 0
0.0938042 -0.774795 0
0.326214 -1.40725 0
-0.708509 -2.2574 0
-0.00764181 -1.12801 0
-0.274274 -1.40352 0
0.0158082 -1.02852 0
0.210305 -0.797529 0
0.224952 -1.40325 0
-0.633494 -2.07747 0
-0.0305788 -1.13146 0
-0.351408 -1.55859 0
0.131209 -1.29699 0
-0.404705 -1.64466 0
0.0309169 -1.15596 0
-0.490928 -2.41762 0
0.000226772 -1.06199 0
-0.271717 -1.53498 0
-0.0171877 -1.00706 0
0.73765 -0.769906 0
-1.20167 -3.59656 0
0.65098 -0.811065 0
-1.20929 -3.79742 0
0.67322 -0.83651 0
-1.00203 -3.7927 0
0.73907 -0.83967 0
-0.902666 -3.5067 0
0.646311 -0.875645 0
-1.13017 -3.98853 0
0.635992 -0.832083 0
-1.09572 -3.93741 0
0.576217 -0.824754 0
-0.906385 -3.8334 0
-1.0943 -3.60804 0
0.515179 -0.986683 0
0.281552 -1.61053 0
0.00867733 -1.53006 0
-0.961422 -2.46088 0
0.393732 -0.939508 0
-0.76187 -1.58092 0
-0.970496 -2.35802 0
0.430665 -0.979618 0
0.272323 -1.99972 0
-0.580662 -1.56867 0
-1.11599 -2.8273 0
0.514365 -1.12827 0
-0.608042 -1.48373 0
0.161552 -1.50687 0
0.2705 -1.46075 0
-0.120452 -0.667775 0
0.164323 -0.780654 0
-1.12384 -1.54548 0
0.148168 -1.82307 0
-0.363402 -1.44447 0
-0.364561 -1.547 0
-0.0584659 -0.861988 0
0.229162 -0.522191 0
-0.879626 -1.61877 0
-0.236278 -1.55228 0
-0.191067 -1.49538 0
0.30215 -1.49171 0
0.274659 -1.38559 0
0.246706 -1.47167 0
-0.272974 -1.36302 0
0.26444 -1.38357 0
-0.353359 -1.51734 0
0.227569 -1.37553 0
-0.23771 -1.289 0
0.108173 -1.22615 0
-0.15574 -1.18983 0
0.203946 -1.374 0
0.329837 -1.70647 0
0.852793 -1.12587 0
-0.0776228 -1.01213 0
-0.153309 -1.61291 0
-0.423851 -1.0267 0
-0.782887 -1.49576 0
-0.0870763 -1.55425 0
-0.379784 -0.956986 0
0.317747 -1.20988 0
-0.201875 -0.774791 0
0.716252 -1.08557 0
-0.429939 -1.17031 0
0.29165 -1.8205 0
0.348448 -1.69639 0
0.64984 -0.96144 0
-1.0406 -3.68355 0
0.0275642 -1.28204 0
0.108409 -1.01895 0
0.35193 -0.772828 0
0.223158 -1.04816 0
0.294946 -0.574848 0
-0.680799 -2.824 0
0.618159 -1.22207 0
-0.252213 -0.783472 0
0.0142965 -0.391504 0
0.0743439 -1.16671 0
0.0144553 -1.31267 0
0.270413 -1.61961 0
0.129396 -0.589343 0
-1.20674 -3.49306 0
0.534703 -1.11826 0
-0.805175 -1.39362 0
-0.140496 -0.603305 0
0.825135 -0.912933 0
-0.843912 -2.59077 0
0.157785 -1.67907 0
-0.617532 -1.35016 0
-0.17869 -0.684156 0
-0.122964 -1.4239 0
-0.244832 -0.827311 0
-0.11609 -1.09691 0
0.665796 -1.59042 0
0.274585 -1.35646 0
-0.111434 -0.570341 0
0.167126 -1.70801 0
0.12713 -0.398238 0
0.108206 -1.54852 0
-0.868601 -1.51809 0
-0.0901673 -0.494683 0
0.81722 -0.976417 0
-0.698772 -1.95824 0
0.068909 -1.60393 0
-0.0797036 -1.48208 0
-0.143209 -0.692391 0
-0.351204 -1.38141 0
-0.193297 -0.725218 0
0.270697 -1.4086 0
-0.0351614 -0.632118 0
0.0602687 -0.449796 0
0.799605 -1.29802 0
0.0891217 -1.36648 0
0.860087 -1.45352 0
0.405835 -0.629644 0
-0.25359 -1.03358 0
0.238245 -1.40845 0
0.294028 -0.60562 0
-1.08282 -3.15684 0
0.00876652 -1.39499 0
0.432602 -1.10596 0
-0.127506 -1.07063 0
0.836315 -1.13784 0
0.08518 -1.05252 0
0.301698 -1.95111 0
0.0864146 -1.48651 0
-0.372805 -1.52934 0
-0.0420334 -0.559739 0
0.289411 -0.580603 0
-0.421878 -2.81766 0
0.0431525 -1.65815 0
0.736044 -1.32601 0
0.035465 -1.19997 0
-0.106768 -1.63293 0
0.071758 -0.69437 0
0.288455 -0.656891 0
-0.608365 -2.85749 0
0.0249339 -1.55624 0
0.00513272 -1.30382 0
0.0141456 -1.4024 0
0.729449 -1.06845 0
0.577015 -0.996692 0
-0.62125 -1.52348 0
-0.118626 -0.52958 0
0.210746 -0.520835 0
-0.40843 -2.67571 0
0.139786 -1.58053 0
0.0703605 -0.387071 0
0.0662717 -0.356344 0
0.719922 -1.52005 0
0.365479 -0.952238 0
0.418029 -0.580481 0
-0.129685 -1.71443 0
0.46471 -1.33377 0
-0.157183 -0.642136 0
0.258571 -0.594353 0
-0.892091 -2.54254 0
0.638672 -1.43556 0
-0.512817 -2.79531 0
0.284095 -1.60811 0
0.0406484 -0.483872 0
0.186467 -0.74356 0
0.729368 -0.843789 0
-0.392163 -2.2628 0
0.779886 -1.48723 0
0.250642 -1.41738 0
-0.413163 -1.64875 0
0.0517702 -0.593412 0
0.214577 -1.22241 0
-0.0507936 -1.66327 0
0.24127 -1.33251 0
-0.128896 -0.694386 0
0.220413 -1.69937 0
0.182447 -0.560234 0
0.237633 -1.81927 0
0.0449338 -0.863715 0
0.79237 -0.797486 0
-0.407275 -2.61337 0
-0.0226157 -1.67151 0
-0.476423 -1.08254 0
0.031356 -1.6252 0
-0.434842 -1.02988 0
0.771369 -0.912922 0
-0.591313 -2.11898 0
0.234609 -1.7333 0
0.186399 -0.420099 0
0.682775 -0.914208 0
0.186735 -1.29674 0
-0.047543 -0.48286 0
0.254624 -0.564545 0
-0.976875 -2.93933 0
0.741921 -1.01802 0
0.348522 -1.82967 0
0.851417 -0.885237 0
-0.689202 -2.69395 0
0.0234766 -1.03785 0
0.738084 -0.731136 0
-0.142049 -2.80055 0
0.0962738 -1.70031 0
0.156344 -0.338941 0
0.756609 -1.03161 0
0.00679235 -1.44974 0
0.576988 -0.753908 0
-0.334115 -1.64777 0
0.312015 -0.798866 0
0.698773 -1.25538 0
0.441716 -0.882024 0
-0.882251 -2.87431 0
0.0652414 -1.61839 0
0.574204 -0.692175 0
-0.108685 -2.17039 0
0.19929 -0.912116 0
0.220436 -1.35391 0
0.155214 -1.57491 0
-0.946625 -1.73453 0
-0.0436238 -0.466859 0
0.110072 -1.72809 0
0.120133 -0.293747 0
-0.00420011 -1.71791 0
0.335605 -1.59919 0
-0.662845 -1.62473 0
-0.0574037 -0.469034 0
0.244793 -0.579782 0
-0.263246 -2.4578 0
0.368879 -1.32626 0
0.027284 -1.70411 0
0.111765 -1.73262 0
0.119526 -0.301803 0
-0.831762 -3.23421 0
0.473094 -0.905458 0
-0.917625 -1.71971 0
-0.0646703 -0.420354 0
0.0227894 -0.418343 0
-0.617206 -3.01043 0
-0.737893 -1.684 0
0.00862739 -0.515556 0
0.0393765 -0.490163 0
-0.900768 -3.65027 0
0.553201 -0.869473 0
0.0216583 -0.440129 0
0.0205813 -0.916215 0
0.445924 -1.88666 0
0.0278135 -0.755028 0
0.188889 -2.03305 0
0.0587087 -0.760601 0
0.342251 -1.79046 0
0.0367243 -0.93766 0
0.501325 -1.72736 0
-0.0454233 -0.987154 0
0.447942 -1.37092 0
0.0940245 -1.09921 0
-0.480947 -1.05783 0
0.0117821 -0.97394 0
0.512136 -1.5626 0
0.0466556 -0.792439 0
0.352684 -1.68599 0
0.080968 -1.29416 0
-0.00632439 -1.62215 0
0.362203 -0.787195 0
-0.340224 -2.62059 0
-0.0129534 -0.846826 0
0.324482 -1.55572 0
-0.524247 -1.23347 0
0.00300989 -0.816754 0
-0.0769742 -1.65329 0
0.0139267 -0.810241 0
0.151177 -1.57743 0
0.077171 -0.797662 0
0.168675 -1.75521 0
0.0407204 -0.879441 0
-0.0974595 -1.9503 0
0.386622 -0.917838 0
0.257003 -0.570973 0
-0.867874 -3.11423 0
0.00942836 -0.991232 0
-0.287409 -2.73861 0
0.312605 -0.668883 0
-1.25886 -3.17845 0
0.0376198 -0.978432 0
-0.170031 -2.25405 0
0.0648785 -0.777169 0
0.149474 -2.0783 0
0.19997 -0.877638 0
0.355822 -1.86264 0
0.148734 -1.4755 0
0.356628 -0.724809 0
-1.04605 -3.04712 0
0.0204014 -0.805815 0
-0.0547011 -2.19662 0
0.00552954 -1.43124 0
0.110846 -0.352385 0
0.207616 -1.76887 0
0.167976 -0.305332 0
-0.0102052 -1.42498 0
0.0707199 -0.353692 0
-0.0562868 -1.5561 0
0.0740686 -0.357272 0
-0.00697762 -1.49421 0
0.0894977 -0.338406 0
0.00210612 -1.41776 0
0.0981527 -0.357611 0
0.0674788 -0.513464 0
-0.78388 -1.90165 0
-0.580414 -1.30132 0
-0.849426 -2.1673 0
0.291879 -0.717803 0
-0.679969 -1.35796 0
-0.721376 -1.95575 0
0.365522 -0.847434 0
-0.551506 -1.28955 0
0.40201 -1.11278 0
0.355422 -0.826962 0
-1.08234 -2.72646 0
0.301755 -0.51214 0
-0.0914993 -1.12734 0
0.2419 -0.623604 0
-0.825781 -2.2877 0
0.516549 -0.789702 0
0.254349 -0.573973 0
-1.03527 -2.91206 0
0.506958 -1.10495 0
-0.30649 -0.926327 0
0.280577 -1.48143 0
0.0641055 -0.593042 0
0.01494 -1.44128 0
0.145686 -0.378836 0
0.108279 -1.8016 0
0.0620057 -1.52335 0
0.118882 -0.337829 0
0.0148447 -0.452366 0
-0.952709 -1.93992 0
0.30937 -1.89931 0
0.581186 -0.578912 0
0.0681243 -0.395316 0
-0.869552 -2.18113 0
0.163385 -1.68048 0
0.15715 -0.294632 0
0.117092 -0.42468 0
-0.786573 -2.40285 0
0.168944 -1.96626 0
0.31426 -0.375077 0
0.195216 -1.87302 0
0.472348 -0.480402 0
-0.49864 -1.51486 0
0.259788 -0.695222 0
-0.211418 -1.21065 0
0.172766 -0.632476 0
-0.293291 -1.46968 0
0.181219 -0.596784 0
-0.604955 -1.86888 0
0.212332 -0.618402 0
-0.168809 -1.14815 0
-0.451196 -1.12807 0
-0.175239 -1.40133 0
-0.459135 -1.15609 0
-0.0451012 -1.38784 0
-0.48493 -1.13593 0
-0.048324 -1.13599 0
-0.499257 -1.14682 0
0.161159 -1.36009 0
0.179928 -1.13374 0
-0.625651 -1.1045 0
0.192406 -1.55188 0
-0.594962 -1.09064 0
0.133494 -1.52347 0
0.302207 -1.58836 0
-0.763182 -1.08538 0
0.247642 -1.159 0
-0.877741 -1.2266 0
0.112797 -0.424438 0
0.080117 -0.490576 0
0.0763781 -0.480947 0
0.0970174 -0.393556 0
-0.202217 -1.47547 0
-0.225166 -1.44713 0
-0.143569 -1.56174 0
-0.134145 -1.66856 0
0.0282666 -0.54919 0
0.0127494 -0.508219 0
0.0348871 -0.537311 0
0.0515782 -0.533368 0
-0.646083 -1.86133 0
0.413686 -0.914091 0
-0.789486 -2.01982 0
0.50393 -1.07971 0
-0.656756 -1.99383 0
0.634368 -1.2305 0
-0.388075 -1.45202 0
0.474033 -0.969712 0
0.157614 -0.701096 0
0.0412045 -1.64323 0
0.217232 -0.55586 0
-0.174041 -1.97853 0
0.168292 -0.555157 0
-0.0507403 -1.63517 0
0.131563 -0.825674 0
0.184789 -1.50301 0
-0.651911 -3.02423 0
-0.899393 -3.42439 0
-0.609886 -3.22849 0
-0.511693 -2.91768 0
0.39493 -1.47335 0
0.355168 -1.39879 0
0.292609 -1.46473 0
0.307965 -1.38541 0
0.491654 -1.50674 0
0.855184 -1.05603 0
0.438523 -1.49065 0
0.875969 -0.859688 0
0.300009 -1.48218 0
0.640925 -0.846014 0
0.382443 -1.42785 0
0.619368 -1.07121 0
0.0462355 -1.1363 0
0.0406503 -1.03277 0
0.137749 -0.826158 0
0.140113 -0.911727 0
-0.929611 -1.82477 0
-0.894398 -1.89644 0
-1.05027 -1.97807 0
-1.10327 -1.90747 0
-0.621606 -2.23229 0
0.246011 -0.585407 0
-0.677196 -2.12719 0
0.205226 -0.588593 0
-0.420775 -1.76534 0
0.195169 -0.584364 0
-0.434472 -2.06103 0
0.223519 -0.564828 0
-0.148362 -3.38074 0
-0.134004 -3.34437 0
-0.422397 -3.28653 0
-0.448737 -3.49793 0
0.0712887 -1.62522 0
0.0746383 -1.50709 0
0.150622 -1.52506 0
0.124144 -1.61843 0
-0.429255 -1.80844 0
-0.125331 -0.596783 0
-0.391882 -1.7693 0
-0.429517 -1.79165 0
-0.457644 -1.87583 0
-0.103267 -1.68527 0
-0.0991218 -1.69048 0
-0.107963 -1.71491 0
-0.171321 -1.74537 0
0.716424 -0.669481 0
0.320777 -1.79741 0
0.575861 -0.574995 0
0.234645 -1.77682 0
0.640455 -0.763573 0
0.260458 -1.50665 0
0.817518 -0.821829 0
0.343328 -1.60715 0
-0.666694 -1.50128 0
0.18773 -1.66751 0
-0.588359 -1.43654 0
0.274863 -1.83367 0
-0.462563 -1.63734 0
0.213168 -1.48708 0
-0.564112 -1.83395 0
0.104146 -1.45729 0
-1.00206 -1.87597 0
0.025978 -1.38247 0
-1.00916 -1.91595 0
0.0757832 -1.53486 0
-0.813954 -1.93506 0
0.00307969 -1.20902 0
-0.987628 -2.22303 0
-0.0121939 -1.21536 0
0.026345 -0.614564 0
0.0498587 -0.516727 0
0.0526973 -0.531464 0
0.02279 -0.6554 0
-0.536942 -2.82531 0
0.743837 -1.06904 0
-0.344646 -2.2058 0
0.756739 -1.29704 0
-0.534696 -2.35464 0
0.728243 -1.32362 0
-0.77369 -3.18152 0
0.714202 -1.10722 0
0.232082 -1.67592 0
0.248786 -0.411236 0
0.191181 -1.61521 0
0.306661 -0.616491 0
0.216804 -1.58748 0
0.449243 -0.686093 0
0.215724 -1.69662 0
0.3611 -0.488113 0
-0.0876211 -1.17242 0
0.536638 -1.2011 0
-0.19513 -1.19458 0
0.643215 -1.20607 0
-0.35339 -1.82158 0
0.664691 -1.2082 0
-0.156011 -1.64414 0
0.699722 -1.39927 0
-0.0398318 -2.69144 0
-0.240766 -2.782 0
-0.367871 -3.20059 0
-0.10028 -3.02786 0
0.0652019 -1.33629 0
0.192267 -1.36132 0
0.169011 -1.41394 0
0.0707985 -1.44436 0
-1.18423 -2.08298 0
-1.25566 -2.06081 0
-1.21141 -1.97413 0
-1.17161 -1.91466 0
0.454695 -1.16254 0
-0.267274 -1.46026 0
0.376459 -1.19597 0
-0.083645 -1.21039 0
0.35237 -1.4038 0
0.0148137 -0.870256 0
0.367369 -1.34189 0
-0.102528 -0.94126 0
0.184307 -1.18947 0
0.361264 -1.16036 0
0.245867 -1.28493 0
0.493277 -1.13316 0
0.180005 -1.40749 0
0.511523 -0.860523 0
0.169217 -1.46364 0
0.355153 -0.833236 0
0.0313872 -0.930743 0
0.0722871 -0.623363 0
0.0969363 -0.703669 0
0.0223866 -0.971291 0
-0.949004 -3.30776 0
-0.726592 -3.40002 0
-0.724227 -3.40313 0
-1.00589 -3.43858 0
0.317945 -1.87901 0
0.312006 -2.00111 0
0.316878 -1.89697 0
0.238082 -1.90919 0
0.188998 -1.78039 0
0.12311 -1.68394 0
0.21906 -1.58413 0
0.321366 -1.75694 0
-0.469875 -1.30366 0
0.366401 -1.83505 0
-0.416604 -1.42821 0
0.311423 -1.61396 0
-0.438931 -1.48783 0
0.271383 -1.52241 0
-0.528117 -1.37439 0
0.300129 -1.80789 0