# vtk DataFile Version 2.0
Unstructured Grid by M++
ASCII
DATASET UNSTRUCTURED_GRID
POINTS 81 float
  1.000000   0.625000 0
  0.750000   0.375000 0
  1.000000   0.000000 0
  0.875000   0.875000 0
  0.750000   0.125000 0
  1.000000   1.000000 0
  0.875000   0.250000 0
  0.625000   0.875000 0
  1.000000   0.750000 0
  0.875000   0.000000 0
  1.000000   0.250000 0
  0.625000   0.375000 0
  0.875000   0.500000 0
  0.625000   0.625000 0
  1.000000   0.500000 0
  0.750000   0.500000 0
  0.750000   1.000000 0
  1.000000   0.125000 0
  0.625000   0.250000 0
  0.750000   0.750000 0
  0.625000   0.000000 0
  0.125000   0.375000 0
  0.000000   0.500000 0
  0.125000   0.625000 0
  0.625000   1.000000 0
  1.000000   0.875000 0
  0.875000   0.125000 0
  0.500000   0.250000 0
  0.625000   0.500000 0
  0.250000   0.625000 0
  0.000000   0.625000 0
  0.375000   0.500000 0
  0.375000   0.000000 0
  0.000000   0.125000 0
  0.125000   0.875000 0
  0.875000   1.000000 0
  0.750000   0.250000 0
  0.375000   0.375000 0
  0.250000   0.375000 0
  0.625000   0.750000 0
  0.125000   0.125000 0
  0.500000   0.000000 0
  0.250000   0.875000 0
  0.125000   0.500000 0
  0.500000   0.375000 0
  0.125000   0.000000 0
  0.250000   0.750000 0
  0.250000   0.500000 0
  0.000000   0.875000 0
  0.875000   0.625000 0
  0.500000   0.750000 0
  0.750000   0.625000 0
  0.250000   0.000000 0
  0.375000   0.750000 0
  0.750000   0.875000 0
  0.625000   0.125000 0
  0.250000   0.250000 0
  0.375000   1.000000 0
  0.375000   0.250000 0
  0.000000   0.375000 0
  0.500000   1.000000 0
  0.875000   0.750000 0
  0.750000   0.000000 0
  0.375000   0.125000 0
  0.500000   0.875000 0
  0.000000   0.000000 0
  0.125000   0.750000 0
  0.500000   0.625000 0
  0.125000   0.250000 0
  0.500000   0.125000 0
  0.250000   1.000000 0
  0.250000   0.125000 0
  0.000000   1.000000 0
  0.375000   0.875000 0
  0.000000   0.750000 0
  0.375000   0.625000 0
  0.000000   0.250000 0
  0.125000   1.000000 0
  1.000000   0.375000 0
  0.500000   0.500000 0
  0.875000   0.375000 0
CELLS 64 320
4 56 71 58 63
4 27 58 69 63
4 41 69 32 63
4 76 33 68 40
4 27 44 58 37
4 79 31 44 37
4 56 38 68 21
4 56 58 38 37
4 52 32 71 63
4 47 38 31 37
4 76 68 59 21
4 22 59 43 21
4 65 45 33 40
4 47 43 38 21
4 52 71 45 40
4 56 68 71 40
4 74 30 66 23
4 46 66 29 23
4 22 43 30 23
4 72 48 77 34
4 46 53 42 73
4 50 64 53 73
4 70 42 57 73
4 74 66 48 34
4 46 42 66 34
4 47 29 43 23
4 70 77 42 34
4 60 57 64 73
4 79 67 31 75
4 47 31 29 75
4 50 53 67 75
4 46 29 53 75
4 10 78 6 80
4 36 6 1 80
4 15 1 12 80
4 36 4 6 26
4 14 12 78 80
4 2 17 9 26
4 36 18 4 55
4 15 28 1 11
4 62 4 20 55
4 10 6 17 26
4 27 18 44 11
4 62 9 4 26
4 27 69 18 55
4 36 1 18 11
4 41 20 69 55
4 79 44 28 11
4 16 24 54 7
4 19 54 39 7
4 50 39 64 7
4 8 25 61 3
4 60 64 24 7
4 79 28 67 13
4 19 51 61 49
4 8 61 0 49
4 15 51 28 13
4 19 39 51 13
4 50 67 39 13
4 19 61 54 3
4 14 0 12 49
4 5 35 25 3
4 15 12 51 49
4 16 54 35 3
CELL_TYPES 64
8
8
8
8
8
8
8
8
8
8
8
8
8
8
8
8
8
8
8
8
8
8
8
8
8
8
8
8
8
8
8
8
8
8
8
8
8
8
8
8
8
8
8
8
8
8
8
8
8
8
8
8
8
8
8
8
8
8
8
8
8
8
8
8
CELL_DATA 64
VECTORS vector_value float
0.352313 -1.36112 0
0.0967772 -0.234045 0
0.202587 -0.330901 0
0.220512 -0.953728 0
-0.190183 -0.194215 0
-0.161292 -0.468887 0
0.600258 -0.707669 0
0.0033632 -1.12994 0
0.076219 -1.43337 0
0.00734825 -0.267842 0
0.595005 -2.08085 0
0.0197778 -2.57128 0
0.00762442 -0.819172 0
0.0772311 -0.643908 0
0.0287837 -1.39308 0
0.667581 -1.64488 0
-0.436431 -2.00078 0
-0.301728 -0.84409 0
-0.158054 -2.26156 0
0.130604 -0.733087 0
-0.30558 -0.912706 0
-0.173612 -0.350064 0
-0.667427 -0.859983 0
-0.287354 -1.02632 0
-0.534756 -1.96486 0
-0.306096 -0.884806 0
-0.24219 -1.7778 0
-0.464572 -0.789793 0
0.315692 -0.347105 0
0.0600036 -0.537854 0
0.0972922 -0.570519 0
0.0575235 -1.08493 0
0.767456 -1.59356 0
0.410558 -0.797868 0
0.822189 -1.53064 0
-0.0195772 -0.374037 0
0.0153019 -0.313116 0
-0.101791 -1.6878 0
-0.0358471 -0.577441 0
0.562601 -1.79244 0
-0.121352 -0.608375 0
-0.0711379 -2.11023 0
-0.215727 -0.54033 0
-0.269375 -0.659913 0
-0.0580731 -0.744514 0
-0.093357 -0.955576 0
0.0717738 -1.06738 0
-0.0871367 -0.41189 0
0.563132 -1.04884 0
-0.110342 -0.425175 0
-0.178611 -0.461403 0
0.275128 -0.830734 0
0.0910644 -0.443532 0
0.417325 -0.751493 0
-0.50043 -1.32694 0
-0.100345 -1.13098 0
-0.456864 -1.75826 0
-0.176293 -0.777624 0
-0.0388701 -0.264132 0
0.271943 -2.02874 0
-0.222427 -0.731993 0
-0.235248 -0.569749 0
-0.350146 -0.726928 0
0.107703 -1.77722 0
