# vtk DataFile Version 2.0
Unstructured Grid by M++
ASCII
DATASET UNSTRUCTURED_GRID
POINTS 1089 float
  0.718750   0.687500 0
  0.750000   0.687500 0
  0.718750   0.656250 0
  0.750000   0.718750 0
  0.625000   0.562500 0
  0.625000   0.593750 0
  0.656250   0.593750 0
  0.750000   0.750000 0
  0.687500   0.656250 0
  0.687500   0.625000 0
  0.656250   0.625000 0
  0.906250   0.593750 0
  1.000000   0.968750 0
  0.750000   0.968750 0
  0.718750   0.968750 0
  0.718750   1.000000 0
  0.750000   1.000000 0
  0.906250   0.906250 0
  0.843750   0.531250 0
  0.656250   0.937500 0
  0.656250   0.906250 0
  0.562500   0.812500 0
  0.562500   0.843750 0
  0.593750   0.875000 0
  0.593750   0.843750 0
  0.812500   0.718750 0
  0.625000   0.625000 0
  0.968750   0.875000 0
  0.531250   0.875000 0
  0.625000   0.937500 0
  0.562500   0.562500 0
  0.906250   0.812500 0
  0.531250   0.781250 0
  0.562500   0.593750 0
  0.906250   0.843750 0
  0.625000   0.656250 0
  0.968750   0.906250 0
  0.687500   0.968750 0
  0.812500   0.812500 0
  0.687500   1.000000 0
  0.687500   0.687500 0
  0.937500   0.843750 0
  0.593750   0.593750 0
  1.000000   0.625000 0
  0.968750   0.593750 0
  0.906250   0.875000 0
  0.968750   0.625000 0
  0.625000   0.875000 0
  0.875000   0.875000 0
  0.625000   0.906250 0
  0.875000   0.843750 0
  0.531250   0.812500 0
  0.968750   0.562500 0
  0.593750   0.625000 0
  0.937500   0.875000 0
  0.656250   0.687500 0
  1.000000   0.937500 0
  0.875000   0.562500 0
  0.687500   0.937500 0
  0.937500   0.625000 0
  0.812500   0.781250 0
  0.937500   0.562500 0
  0.875000   0.781250 0
  0.531250   0.531250 0
  0.718750   0.937500 0
  0.968750   0.937500 0
  0.906250   0.562500 0
  0.843750   0.781250 0
  0.593750   0.562500 0
  1.000000   0.906250 0
  0.656250   0.656250 0
  0.937500   0.906250 0
  0.875000   0.531250 0
  0.812500   0.750000 0
  0.656250   0.968750 0
  0.937500   0.531250 0
  0.843750   0.812500 0
  0.906250   0.531250 0
  0.843750   0.750000 0
  0.937500   0.593750 0
  0.875000   0.812500 0
  0.531250   0.562500 0
  1.000000   0.593750 0
  0.562500   0.906250 0
  0.562500   0.531250 0
  0.593750   0.906250 0
  0.593750   0.937500 0
  0.562500   0.875000 0
  0.781250   0.750000 0
  0.781250   0.781250 0
  0.593750   0.531250 0
  1.000000   0.687500 0
  0.531250   0.843750 0
  0.718750   0.718750 0
  0.781250   0.718750 0
  0.781250   0.687500 0
  1.000000   0.656250 0
  0.968750   0.656250 0
  0.843750   0.843750 0
  0.781250   1.000000 0
  0.656250   0.312500 0
  0.531250   0.250000 0
  0.875000   0.500000 0
  0.531250   0.218750 0
  0.875000   0.468750 0
  0.531250   0.156250 0
  0.593750   0.812500 0
  0.093750   0.562500 0
  0.656250   0.562500 0
  0.156250   0.312500 0
  0.031250   0.812500 0
  0.125000   1.000000 0
  0.312500   0.250000 0
  0.250000   0.500000 0
  0.375000   0.000000 0
  0.187500   0.750000 0
  0.812500   0.906250 0
  0.312500   0.656250 0
  0.250000   0.906250 0
  0.875000   0.656250 0
  0.375000   0.406250 0
  0.750000   0.843750 0
  0.250000   0.593750 0
  0.187500   0.843750 0
  0.812500   0.593750 0
  0.312500   0.343750 0
  0.625000   0.968750 0
  0.125000   0.718750 0
  0.687500   0.718750 0
  0.187500   0.468750 0
  0.062500   0.968750 0
  0.125000   0.656250 0
  0.187500   0.406250 0
  0.250000   0.156250 0
  0.062500   0.906250 0
  0.468750   0.906250 0
  0.656250   0.156250 0
  0.468750   0.812500 0
  0.593750   0.312500 0
  0.656250   0.062500 0
  0.625000   0.812500 0
  0.125000   0.562500 0
  0.687500   0.562500 0
  0.187500   0.312500 0
  0.062500   0.812500 0
  0.562500   0.937500 0
  0.062500   0.687500 0
  0.625000   0.687500 0
  0.125000   0.437500 0
  0.000000   0.937500 0
  0.062500   0.625000 0
  0.187500   0.125000 0
  0.125000   0.375000 0
  0.000000   0.875000 0
  0.406250   0.875000 0
  0.468750   0.625000 0
  0.593750   0.125000 0
  0.812500   0.937500 0
  0.312500   0.687500 0
  0.250000   0.937500 0
  0.875000   0.687500 0
  0.375000   0.437500 0
  0.750000   0.875000 0
  0.250000   0.625000 0
  0.187500   0.875000 0
  0.812500   0.625000 0
  0.312500   0.375000 0
  0.468750   0.781250 0
  0.593750   0.281250 0
  0.656250   0.031250 0
  0.625000   0.781250 0
  0.125000   0.531250 0
  0.062500   0.781250 0
  0.687500   0.531250 0
  0.187500   0.281250 0
  0.500000   0.812500 0
  0.687500   0.062500 0
  0.625000   0.312500 0
  0.656250   0.812500 0
  0.156250   0.562500 0
  0.718750   0.562500 0
  0.218750   0.312500 0
  0.093750   0.812500 0
  0.437500   0.968750 0
  0.625000   0.218750 0
  0.500000   0.781250 0
  0.687500   0.031250 0
  0.625000   0.281250 0
  0.656250   0.781250 0
  0.156250   0.531250 0
  0.718750   0.531250 0
  0.218750   0.281250 0
  0.093750   0.781250 0
  0.062500   0.562500 0
  0.125000   0.312500 0
  0.187500   0.062500 0
  0.000000   0.812500 0
  0.406250   0.812500 0
  0.968750   0.812500 0
  0.468750   0.562500 0
  0.593750   0.062500 0
  0.218750   0.687500 0
  0.156250   0.937500 0
  0.281250   0.437500 0
  0.062500   0.843750 0
  0.687500   0.593750 0
  0.187500   0.343750 0
  0.625000   0.843750 0
  0.125000   0.593750 0
  0.312500   0.843750 0
  0.437500   0.343750 0
  0.500000   0.093750 0
  0.375000   0.593750 0
  0.312500   0.906250 0
  0.937500   0.656250 0
  0.437500   0.406250 0
  0.875000   0.906250 0
  0.375000   0.656250 0
  0.062500   0.875000 0
  0.187500   0.375000 0
  0.250000   0.125000 0
  0.125000   0.625000 0
  0.093750   0.656250 0
  0.031250   0.906250 0
  0.218750   0.156250 0
  0.156250   0.406250 0
  0.593750   0.968750 0
  0.093750   0.718750 0
  0.031250   0.968750 0
  0.656250   0.718750 0
  0.156250   0.468750 0
  0.437500   0.906250 0
  0.625000   0.156250 0
  0.718750   0.812500 0
  0.218750   0.562500 0
  0.781250   0.562500 0
  0.281250   0.312500 0
  0.156250   0.812500 0
  0.062500   0.656250 0
  0.000000   0.906250 0
  0.187500   0.156250 0
  0.125000   0.406250 0
  0.562500   0.968750 0
  0.062500   0.718750 0
  0.000000   0.968750 0
  0.625000   0.718750 0
  0.125000   0.468750 0
  0.406250   0.968750 0
  0.968750   0.968750 0
  0.468750   0.718750 0
  0.531250   0.468750 0
  0.593750   0.218750 0
  0.406250   0.906250 0
  0.468750   0.656250 0
  0.593750   0.156250 0
  0.687500   0.781250 0
  0.187500   0.531250 0
  0.750000   0.531250 0
  0.250000   0.281250 0
  0.125000   0.781250 0
  0.781250   0.906250 0
  0.281250   0.656250 0
  0.218750   0.906250 0
  0.843750   0.656250 0
  0.343750   0.406250 0
  0.750000   0.906250 0
  0.250000   0.656250 0
  0.187500   0.906250 0
  0.812500   0.656250 0
  0.312500   0.406250 0
  0.875000   0.406250 0
  0.375000   0.156250 0
  0.812500   0.968750 0
  0.312500   0.718750 0
  0.250000   0.968750 0
  0.875000   0.718750 0
  0.375000   0.468750 0
  0.781250   0.937500 0
  0.281250   0.687500 0
  0.218750   0.937500 0
  0.843750   0.687500 0
  0.343750   0.437500 0
  0.718750   0.875000 0
  0.218750   0.625000 0
  0.156250   0.875000 0
  0.781250   0.625000 0
  0.281250   0.375000 0
  0.750000   0.937500 0
  0.250000   0.687500 0
  0.187500   0.937500 0
  0.875000   0.437500 0
  0.375000   0.187500 0
  0.812500   0.687500 0
  0.312500   0.437500 0
  0.687500   0.875000 0
  0.187500   0.625000 0
  0.750000   0.625000 0
  0.250000   0.375000 0
  0.125000   0.875000 0
  0.812500   1.000000 0
  0.312500   0.750000 0
  0.250000   1.000000 0
  0.875000   0.750000 0
  0.375000   0.500000 0
  0.562500   1.000000 0
  0.062500   0.750000 0
  0.000000   1.000000 0
  0.625000   0.750000 0
  0.125000   0.500000 0
  0.406250   1.000000 0
  0.968750   1.000000 0
  0.468750   0.750000 0
  0.656250   0.000000 0
  0.531250   0.500000 0
  0.593750   0.250000 0
  0.406250   0.937500 0
  0.468750   0.687500 0
  0.593750   0.187500 0
  0.687500   0.812500 0
  0.187500   0.562500 0
  0.750000   0.562500 0
  0.250000   0.312500 0
  0.125000   0.812500 0
  0.437500   0.843750 0
  0.625000   0.093750 0
  0.093750   0.593750 0
  0.156250   0.343750 0
  0.218750   0.093750 0
  0.031250   0.843750 0
  0.281250   0.937500 0
  0.843750   0.937500 0
  0.343750   0.687500 0
  0.906250   0.687500 0
  0.406250   0.437500 0
  0.156250   0.968750 0
  0.218750   0.718750 0
  0.281250   0.468750 0
  0.343750   0.218750 0
  0.156250   1.000000 0
  0.406250   0.000000 0
  0.281250   0.500000 0
  0.343750   0.250000 0
  0.218750   0.750000 0
  0.187500   0.968750 0
  0.250000   0.718750 0
  0.375000   0.218750 0
  0.312500   0.468750 0
  0.187500   1.000000 0
  0.312500   0.500000 0
  0.375000   0.250000 0
  0.437500   0.000000 0
  0.250000   0.750000 0
  0.031250   0.781250 0
  0.656250   0.531250 0
  0.156250   0.281250 0
  0.593750   0.781250 0
  0.093750   0.531250 0
  0.000000   0.781250 0
  0.625000   0.531250 0
  0.125000   0.281250 0
  0.562500   0.781250 0
  0.062500   0.531250 0
  0.781250   0.968750 0
  0.281250   0.718750 0
  0.218750   0.968750 0
  0.843750   0.718750 0
  0.343750   0.468750 0
  0.281250   0.968750 0
  0.843750   0.968750 0
  0.343750   0.718750 0
  0.906250   0.718750 0
  0.406250   0.468750 0
  0.281250   1.000000 0
  0.906250   0.750000 0
  0.406250   0.500000 0
  0.843750   1.000000 0
  0.343750   0.750000 0
  0.531250   0.000000 0
  0.718750   0.843750 0
  0.218750   0.593750 0
  0.156250   0.843750 0
  0.781250   0.593750 0
  0.281250   0.343750 0
  0.687500   0.843750 0
  0.187500   0.593750 0
  0.750000   0.593750 0
  0.250000   0.343750 0
  0.125000   0.843750 0
  0.218750   0.875000 0
  0.843750   0.625000 0
  0.343750   0.375000 0
  0.781250   0.875000 0
  0.281250   0.625000 0
  0.156250   0.906250 0
  0.781250   0.656250 0
  0.281250   0.406250 0
  0.718750   0.906250 0
  0.218750   0.656250 0
  0.031250   1.000000 0
  0.656250   0.750000 0
  0.156250   0.500000 0
  0.593750   1.000000 0
  0.093750   0.750000 0
  0.218750   1.000000 0
  0.343750   0.500000 0
  0.468750   0.000000 0
  0.406250   0.250000 0
  0.281250   0.750000 0
  0.593750   0.406250 0
  0.093750   0.156250 0
  0.531250   0.656250 0
  0.031250   0.406250 0
[...]
CELL_DATA 1024
VECTORS vector_value float
0.0342514 -0.51041 0
-0.0485861 -0.510972 0
-0.030341 -0.382636 0
-0.0851309 -2.28692 0
0.0898453 -1.78478 0
-0.148411 -1.71909 0
-0.113356 -1.10033 0
0.0615123 -1.09719 0
-0.0458757 -1.05481 0
-0.0524091 -1.00476 0
0.0252865 -1.0206 0
-0.0575524 -0.887965 0
0.035407 -1.05624 0
-0.13427 -0.998074 0
0.0276959 -0.998681 0
0.0703701 -1.04186 0
-0.0580613 -1.05785 0
0.0356037 -0.959175 0
-0.132905 -0.963599 0
0.0313474 -1.08203 0
-0.0978768 -0.892326 0
0.172201 -1.18721 0
-0.0487576 -1.24443 0
0.198854 -1.18011 0
0.147288 -0.470886 0
0.0934687 -0.483853 0
0.0591763 -0.462899 0
0.138573 -0.523571 0
-0.402903 -1.8783 0
-0.0089592 -0.932866 0
-0.0206621 -0.447644 0
-0.0876209 -0.476075 0
-0.00241995 -0.562451 0
0.00242021 -0.487162 0
0.0215349 -0.807908 0
0.0934945 -1.01919 0
-0.0917077 -0.932218 0
-0.0405644 -0.927783 0
-0.0188711 -0.812417 0
0.318242 -2.02003 0
0.273397 -0.655094 0
0.350662 -0.628041 0
0.117394 -1.07105 0
0.372404 -0.513523 0
0.274945 -0.523907 0
0.0356405 -1.06328 0
0.390417 -1.8783 0
0.237268 -0.4521 0
0.140968 -1.17963 0
0.265346 -1.49879 0
0.353714 -0.511355 0
0.146122 -0.583576 0
0.107448 -1.37865 0
0.309445 -2.07681 0
0.0774695 -1.42327 0
0.264793 -2.24501 0
0.241463 -1.7578 0
0.398968 -0.51492 0
0.286596 -0.535409 0
-0.119818 -0.881994 0
0.00136656 -0.686085 0
-0.0324276 -0.625727 0
0.0472788 -0.615113 0
-0.0743047 -0.848402 0
-0.0327091 -0.885426 0
0.0915219 -0.562101 0
0.0297032 -0.732727 0
-0.00861942 -0.85092 0
0.286126 -0.561395 0
0.0843911 -0.96459 0
0.658131 -1.85445 0
0.337469 -1.66832 0
-0.247601 -1.20433 0
-0.33636 -0.79149 0
0.173281 -1.73777 0
0.0746057 -2.09125 0
0.0576282 -1.1043 0
0.00307194 -0.897115 0
-0.331117 -1.62621 0
-0.16259 -0.50885 0
0.0933787 -0.727036 0
0.071613 -0.756638 0
-0.0589554 -0.403164 0
-0.184021 -0.658704 0
0.00394262 -0.712719 0
-0.196258 -0.898445 0
0.12454 -0.578398 0
0.0446566 -0.610593 0
0.00030872 -1.00491 0
0.467354 -1.71696 0
0.38099 -1.48024 0
-0.129969 -0.897049 0
-0.248934 -0.740839 0
-0.354768 -1.02547 0
-0.000815844 -0.416237 0
0.0307944 -0.60631 0
-0.0106341 -0.79766 0
-0.102979 -1.09848 0
0.0482919 -0.465979 0
-0.0648837 -0.708789 0
-0.0157044 -2.48092 0
0.0154704 -0.828793 0
0.156221 -0.624819 0
-0.271956 -0.915376 0
-0.131394 -1.8041 0
-0.0449104 -2.32196 0
0.0900201 -1.00657 0
0.502126 -1.94425 0
0.482266 -1.7361 0
-0.159797 -1.01248 0
-0.305367 -0.737424 0
0.156122 -1.49479 0
0.0143416 -0.9693 0
0.150506 -1.30153 0
0.0410498 -1.08948 0
-0.0212283 -0.898363 0
-0.35173 -1.56133 0
-0.380396 -0.733448 0
0.32255 -0.478381 0
-0.243741 -1.20033 0
0.366814 -1.84692 0
0.302817 -1.24726 0
0.00938098 -0.912013 0
0.378552 -1.30108 0
0.104684 -0.748516 0
0.147977 -0.807957 0
-0.483867 -2.21091 0
0.0507343 -0.564641 0
-0.32478 -0.955627 0
-0.00573533 -1.53892 0
-0.0381783 -2.10647 0
0.0332591 -1.18116 0
0.213751 -0.497613 0
-0.0692691 -1.17385 0
0.121225 -1.55898 0
-0.423408 -1.85171 0
0.176238 -1.75257 0
0.0769726 -0.743929 0
0.0201968 -1.16147 0
-0.210997 -1.30568 0
-0.021597 -0.829707 0
-0.305726 -1.0278 0
0.240197 -1.23764 0
0.254711 -0.671959 0
-0.0708467 -0.525663 0
-0.147823 -1.46715 0
0.108742 -0.689327 0
-0.26673 -0.679824 0
-0.10178 -1.24099 0
0.160204 -1.60281 0
0.133844 -0.844777 0
0.0955949 -0.808149 0
-0.432778 -2.27613 0
-0.0374524 -0.452047 0
0.10603 -1.21961 0
0.275783 -1.22111 0
-0.00476488 -0.917017 0
0.262023 -1.2317 0
0.223327 -0.490544 0
-0.177658 -1.08647 0
0.399219 -1.48526 0
0.349909 -1.46105 0
0.205377 -1.24199 0
-0.0857527 -1.18278 0
-0.00642141 -0.806535 0
-0.33579 -0.940609 0
0.238892 -1.27598 0
0.30704 -0.699054 0
0.00259996 -0.47858 0
0.302371 -0.562432 0
0.456621 -2.05592 0
-0.113887 -0.556088 0
-0.0233645 -0.315048 0
-0.240974 -0.543329 0
-0.030298 -0.460623 0
-0.142583 -0.490722 0
0.0519111 -0.499466 0
0.00196414 -0.355036 0
-0.0445242 -0.88405 0
0.20774 -0.972292 0
0.0447306 -0.643549 0
0.00509296 -1.90454 0
-0.0493791 -0.983236 0
0.324275 -1.23941 0
0.106297 -1.01587 0
-0.0589348 -1.069 0
0.302336 -1.46464 0
0.293551 -1.14555 0
-0.0806082 -1.0955 0
0.131718 -0.749753 0
0.00900573 -1.37722 0
0.0484885 -0.890832 0
-0.35353 -1.71652 0
0.155772 -0.518553 0
0.261558 -0.455145 0
0.18831 -1.05484 0
-0.0749811 -1.71911 0
0.13553 -0.789497 0
-0.50985 -2.07371 0
0.210114 -0.685614 0
0.11631 -0.813528 0
-0.288712 -1.85847 0
-0.219635 -1.55282 0
0.113558 -0.664154 0
0.107922 -0.692229 0
0.0438993 -1.02579 0
0.250021 -1.20115 0
0.224248 -1.0027 0
0.364608 -1.06492 0
0.00995764 -0.95512 0
0.209588 -1.47055 0
0.126835 -0.931021 0
0.286947 -0.993894 0
-0.000941196 -1.21644 0
0.0921339 -1.37829 0
0.0363954 -1.08743 0
0.165842 -1.41703 0
0.248816 -0.618407 0
0.392381 -0.757863 0
-0.0446704 -0.996353 0
0.339438 -0.701079 0
-0.285419 -2.38355 0
0.0704934 -0.733837 0
0.118631 -0.784005 0
-0.248297 -0.731332 0
0.00682107 -0.808149 0
0.0222986 -0.878957 0
-0.032534 -0.990486 0
-0.309137 -1.91302 0
0.0387366 -0.741579 0
0.0374501 -0.923511 0
0.0452227 -0.769864 0
-0.188467 -2.70254 0
-0.0288463 -0.75787 0
0.0571275 -0.792435 0
0.0621584 -1.00793 0
-0.135641 -2.74221 0
-0.0121079 -0.791995 0
-0.244338 -1.97679 0
-0.00896385 -0.889078 0
-0.0799444 -1.95587 0
0.010785 -1.00148 0
0.194049 -2.06762 0
0.130807 -0.789711 0
-0.364919 -2.21926 0
0.092899 -0.695322 0
0.0224776 -0.810105 0
0.322053 -1.37833 0
0.0365084 -0.912057 0
0.27468 -1.31356 0
0.335219 -0.695598 0
0.246082 -0.605494 0
-0.0722523 -0.889746 0
-0.0356409 -0.556988 0
-0.13343 -0.595605 0
-0.213177 -1.00158 0
0.201548 -1.27714 0
0.190823 -1.05798 0
-0.853459 -1.18576 0
-0.866233 -1.73584 0
-0.638246 -1.32515 0
-1.1044 -1.18509 0
0.493384 -0.846166 0
0.28248 -0.950858 0
0.389865 -1.08485 0
-0.40866 -1.73755 0
-0.61284 -1.72677 0
-0.647725 -1.2251 0
-0.380595 -1.20359 0
0.222007 -0.867329 0
0.386497 -0.825596 0
-0.209747 -1.54502 0
-0.493813 -1.69952 0
-0.270122 -1.94183 0
-0.0429932 -1.81985 0
0.0345886 -0.138476 0
-0.00488321 -2.33607 0
-0.0559912 -2.73575 0
0.213657 -2.00338 0
0.243159 -1.82516 0
0.0965611 -0.198261 0
0.0623799 -0.139341 0
0.0280333 -0.23522 0
0.0623615 -0.837987 0
0.0202075 -0.624445 0
0.131176 -0.220424 0
-0.00171311 -1.13332 0
0.67849 -0.633565 0
-0.447127 -1.03451 0
0.152291 -0.248058 0
0.312447 -1.29448 0
0.187695 -0.285395 0
0.393036 -1.21548 0
0.152087 -0.262422 0
-0.0466141 -1.06981 0
0.573323 -0.411618 0
0.037763 -1.20726 0
0.67247 -0.468839 0
0.255941 -0.944866 0
0.0478304 -0.589043 0
0.329684 -1.65949 0
0.0868702 -0.2165 0
0.140368 -0.65116 0
0.159011 -0.852258 0
0.118914 -0.251304 0
0.027032 -0.525732 0
0.134947 -1.44867 0
0.119281 -0.637142 0
0.0422572 -0.175589 0
0.0118272 -1.10784 0
0.19497 -1.06443 0
0.495164 -0.47738 0
0.0614153 -0.735472 0
-0.0193596 -1.1689 0
-0.0150599 -0.159605 0
-0.270029 -1.26957 0
0.680484 -0.503084 0
0.424784 -0.532436 0
-0.00728749 -1.28388 0
0.423604 -0.557665 0
0.515259 -0.504235 0
0.244749 -1.64775 0
0.0977689 -0.748776 0
0.347543 -0.417451 0
0.0447364 -0.167489 0
-0.0327122 -1.09859 0
0.349941 -0.460164 0
0.485686 -0.425608 0
0.085655 -0.885095 0
0.00761943 -0.729769 0
0.148345 -1.32488 0
0.411178 -0.702286 0
0.185814 -0.971179 0
0.000181022 -1.04419 0
-0.0093161 -1.32172 0
0.52371 -0.574968 0
-0.102149 -2.96608 0
-0.29415 -2.81683 0
-0.0183745 -1.54966 0
-0.0896522 -0.319325 0
0.0525444 -0.241116 0
0.0962112 -2.61136 0
-0.282767 -2.93789 0
0.19608 -1.38823 0
-0.0928546 -0.441902 0
0.0693383 -0.362938 0
0.122696 -0.25953 0
-0.0836073 -1.35164 0
-0.00013413 -0.201904 0
0.295929 -1.32859 0
-0.198588 -0.590411 0
0.248769 -1.48018 0
0.137337 -0.235849 0
0.0541557 -0.554064 0
0.240149 -0.480065 0
0.203891 -1.49077 0
0.0620774 -0.977546 0
0.0539796 -0.980372 0
0.436897 -0.51728 0
0.0388553 -0.463623 0
-0.384202 -0.723529 0
0.319063 -1.03834 0
-0.398305 -0.937311 0
-0.267272 -0.773479 0
-0.0305265 -0.333474 0
0.191654 -0.354603 0
0.140943 -1.13905 0
-0.214964 -0.727755 0
-0.248384 -1.11586 0
0.0701736 -0.294567 0
-0.185204 -0.514549 0
-0.113178 -0.950276 0
0.066275 -1.32695 0
-0.172743 -0.502944 0
0.331417 -1.48685 0
0.0393872 -0.773805 0
-0.0183989 -0.752871 0
0.292733 -0.52034 0
-0.86249 -0.752376 0
0.0259084 -1.17611 0
0.106027 -1.15132 0
0.156716 -0.356705 0
0.44083 -0.745571 0
-0.0900412 -0.953955 0
-0.274186 -1.44791 0
0.00714629 -0.388544 0
-0.0349569 -0.128398 0
-0.212456 -0.397947 0
-0.0817909 -0.196075 0
-0.42292 -0.424149 0
0.261291 -1.46055 0
0.00216333 -0.782423 0
0.418683 -0.534305 0
0.0742872 -1.30248 0
-0.00157338 -0.268025 0
0.121137 -0.269174 0
0.0531536 -0.269628 0
-0.281998 -1.27081 0
-0.264317 -1.37316 0
-0.316667 -1.20079 0
0.626757 -0.578005 0
0.284114 -0.309905 0
-0.0118133 -0.126312 0
-0.258597 -1.29054 0
-0.160013 -0.901229 0
-0.168087 -1.16949 0
0.475023 -0.962532 0
0.35414 -0.346734 0
0.712451 -0.480002 0
0.0178159 -0.126385 0
-0.1515 -0.958042 0
-0.0521135 -0.535662 0
0.499461 -0.627834 0
-0.307223 -0.80164 0
-0.416964 -0.923947 0
0.489415 -1.44483 0
-0.246118 -0.708008 0
-0.341117 -0.898789 0
0.509185 -1.2431 0
-0.286142 -0.754744 0
-0.317556 -1.02778 0
-0.0490233 -2.3503 0
0.88909 -1.01108 0
-0.267232 -2.47353 0
-0.142688 -2.75054 0
0.49857 -0.95396 0
0.0876578 -0.435318 0
0.449044 -0.8339 0
0.365379 -0.844809 0
0.589212 -0.621809 0
-0.261896 -1.25523 0
0.41611 -0.491705 0
0.49332 -0.749669 0
-0.0509872 -0.21945 0
-0.321519 -1.62801 0
0.220407 -0.591786 0
0.418136 -0.934229 0
-0.054323 -0.449682 0
0.00625077 -0.818227 0
0.200269 -1.55336 0
-0.180339 -0.676926 0
-0.181127 -0.968418 0
0.169443 -1.96859 0
-0.136831 -0.558849 0
-0.19773 -0.823401 0
-0.239811 -0.885897 0
0.0569626 -0.579459 0
-0.138681 -1.60287 0
0.0327802 -0.848674 0
-0.0344482 -0.711187 0
-0.338941 -1.16817 0
-0.41771 -1.62885 0
0.0154793 -0.44714 0
-0.281542 -1.78221 0
-0.237781 -1.44894 0
-0.0977301 -0.46827 0
-0.156781 -1.70667 0
-0.307897 -2.08883 0
-0.0332884 -1.25008 0
-0.0807457 -0.75667 0
-0.0467779 -0.390879 0
-0.270203 -0.657852 0
0.0224801 -0.214271 0
-0.153452 -0.337956 0
-0.0763661 -0.263577 0
-0.35017 -0.465531 0
-0.575107 -0.861693 0
-0.588495 -1.36548 0
-0.00429343 -0.21946 0
-0.377353 -1.46137 0
-0.0112827 -0.115325 0
-0.0815308 -0.652112 0
-0.0362418 -0.432849 0
-0.0879249 -0.198708 0
-0.0258783 -0.147408 0
-0.208308 -0.283888 0
0.213078 -1.06831 0
-0.0377955 -0.600664 0
0.139657 -0.472353 0
-0.240418 -2.07487 0
0.0563631 -1.45041 0
0.334439 -1.44147 0
0.468742 -0.713094 0
-0.00676014 -1.36445 0
0.742327 -0.847959 0
0.119225 -1.42754 0
0.120784 -0.836171 0
0.317094 -0.527046 0
0.0496533 -0.956619 0
0.283708 -1.18389 0
0.227458 -1.26006 0
0.319082 -1.30486 0
0.259915 -1.14808 0
-0.157554 -2.05532 0
0.15423 -0.821185 0
-0.284416 -2.74381 0
-0.182985 -2.35922 0
0.424843 -0.945715 0
-0.270057 -1.55994 0
-0.27047 -1.55388 0
0.294855 -0.576221 0
-0.400072 -1.62865 0
-0.30487 -1.63282 0
0.10863 -0.480771 0
1.78588e-05 -0.14697 0
0.0633854 -0.433434 0
-0.0480259 -0.75416 0
-0.192439 -1.10153 0
-1.2063 -0.977583 0
-0.834652 -0.973373 0
-0.685104 -0.726468 0
-1.14821 -0.953467 0
0.0402772 -0.659739 0
0.219325 -0.463522 0
0.118984 -0.444433 0
0.0341591 -0.548498 0
0.0068636 -0.628142 0
0.244409 -0.255145 0
0.18397 -0.276668 0
0.178919 -0.241187 0
-0.324361 -2.4895 0
-0.098066 -1.6718 0
0.0960329 -1.5413 0
0.148614 -0.758501 0
0.0803231 -1.33908 0
0.0156958 -1.51662 0
0.2089 -0.319696 0
0.215582 -0.258509 0
0.23176 -0.274088 0
0.176196 -0.237216 0
0.00264351 -0.916029 0
0.0763829 -0.455152 0
0.0690581 -0.545731 0
0.0295942 -0.556386 0
0.0828949 -0.536778 0
0.000198423 -0.82299 0
-0.0043172 -0.926898 0
0.106105 -0.269724 0
0.0736757 -0.259528 0
0.0213453 -0.331457 0
0.0548233 -0.265991 0
-0.0527214 -1.49982 0
-0.146428 -1.91351 0
0.013042 -0.265912 0
0.0667497 -0.303269 0
0.17096 -1.0588 0
0.183653 -0.464055 0
0.0981746 -1.05252 0
0.2403 -0.527801 0
0.190379 -0.421346 0
0.00285724 -1.35499 0
0.15761 -0.573348 0
0.14166 -0.849677 0
0.173042 -0.327972 0
0.140328 -0.909914 0
0.246623 -0.348415 0
0.275521 -0.406794 0
0.0622453 -0.764836 0
0.135054 -0.7192 0
0.0974667 -0.479424 0
0.11707 -0.456146 0
0.0674436 -0.632535 0
0.126063 -0.607143 0
0.0906193 -1.1255 0
0.101992 -0.521978 0
0.106462 -0.464828 0
-0.19791 -0.677767 0
0.0321955 -1.60396 0
0.143366 -1.50165 0
0.145661 -0.97077 0
0.213064 -1.02529 0
-0.042294 -1.46139 0
-0.224737 -1.8336 0
0.0653635 -1.85416 0
0.163123 -1.06764 0
0.289285 -1.02228 0
-0.147979 -1.66236 0
-0.387418 -2.32113 0
0.00908621 -0.274525 0
-0.0790578 -1.24555 0
0.110812 -0.707872 0
0.165677 -0.76734 0
0.152094 -0.370174 0
0.1366 -0.371751 0
-0.13132 -1.60258 0
-0.466653 -2.13376 0
-0.0118104 -0.370486 0
0.115156 -0.32949 0
0.165934 -0.393275 0
-0.356951 -1.76324 0
-0.217689 -2.24721 0
-0.555505 -2.1088 0
0.00118322 -0.388458 0
-0.231621 -2.17787 0
0.0485143 -0.927551 0
0.443064 -1.37337 0
0.0805671 -0.836812 0
0.594748 -1.44487 0
-0.331879 -1.37848 0
0.11307 -0.510887 0
0.125291 -0.477615 0
0.0901857 -0.578769 0
0.123773 -0.588885 0
0.130496 -0.432503 0
0.101241 -0.503077 0
0.128745 -0.479002 0
-0.379409 -1.74749 0
0.0479552 -1.90624 0
-0.491219 -2.32628 0
0.0255986 -0.316809 0
0.129237 -0.438067 0
-0.268698 -2.21134 0
0.138489 -0.587452 0
0.417403 -1.76593 0
0.0756675 -0.56081 0
0.0968065 -1.00662 0
0.375082 -0.899049 0
0.247136 -0.894746 0
0.0221028 -1.09909 0
0.553398 -1.13329 0
0.19951 -0.332518 0
-0.254265 -1.65595 0
0.057029 -0.335592 0
0.114459 -0.457391 0
0.103522 -0.588559 0
-0.142494 -2.44716 0
0.0606899 -0.33865 0
0.270857 -0.219347 0
0.161868 -0.200241 0
0.137831 -0.505461 0
0.525718 -1.7753 0
0.540309 -1.78029 0
0.101419 -0.467617 0
0.214394 -1.59269 0
0.148512 -1.14618 0
0.149139 -0.462697 0
0.180614 -0.942598 0
0.20862 -1.0847 0
0.20278 -0.568641 0
0.181585 -0.317017 0
0.163154 -0.371579 0
0.263663 -1.51874 0
0.0931667 -0.687802 0
0.183819 -0.923983 0
-0.0109471 -1.71698 0
-0.202442 -2.0433 0
-0.158568 -2.46486 0
-0.376086 -2.41308 0
0.132677 -0.958125 0
0.197064 -1.03918 0
0.367801 -0.907814 0
0.198176 -0.921133 0
0.205953 -1.66194 0
0.0285611 -0.442164 0
0.0904505 -1.03349 0
0.413058 -1.52133 0
0.12017 -0.490729 0
0.0700852 -0.46475 0
0.121883 -0.651725 0
0.390143 -1.48027 0
0.101347 -0.404569 0
0.0456959 -0.296351 0
-0.197099 -1.82557 0
0.176896 -0.409068 0
-0.0150394 -1.75734 0
0.152356 -0.327689 0
0.242941 -0.317677 0
-0.0342145 -1.4198 0
0.390645 -1.35824 0
-0.013454 -1.21561 0
0.478747 -1.10755 0
0.0160252 -1.23866 0
0.356206 -1.36093 0
0.0146627 -1.43625 0
0.177373 -1.44074 0
0.00546287 -0.60689 0
0.0472255 -0.359277 0
-0.0583155 -0.413031 0
0.168783 -0.220612 0
0.22502 -0.199522 0
0.142505 -0.206934 0
0.214532 -0.245871 0
0.153851 -0.222571 0
0.159557 -0.21522 0
0.176764 -0.238896 0
0.115878 -0.529643 0
0.201199 -0.519541 0
0.188139 -1.58714 0
0.137326 -0.353886 0
0.137433 -0.52938 0
0.139944 -0.487221 0
0.719765 -1.86874 0
0.439175 -1.79609 0
0.14859 -0.390474 0
0.105463 -0.718149 0
0.606871 -1.26561 0
0.340928 -1.13688 0
0.10497 -0.456167 0
0.196959 -0.725344 0
0.11564 -0.716687 0
0.523592 -1.30771 0
0.181937 -1.29443 0
0.0821673 -0.378586 0
0.165641 -0.517169 0
0.305886 -0.64175 0
0.113933 -1.80946 0
0.185182 -0.893154 0
0.198123 -1.13665 0
0.262015 -0.94153 0
0.34667 -0.932317 0
0.0700989 -1.10645 0
0.203535 -0.539651 0
0.3052 -0.610106 0
0.0135118 -1.98306 0
-0.0262817 -0.830173 0
-0.128244 -1.10185 0
-0.294512 -1.18434 0
-0.185541 -1.09527 0
0.120955 -0.353562 0
-0.0252987 -2.553 0
0.149829 -0.338531 0
0.068114 -2.55124 0
0.187783 -0.301005 0
0.124218 -0.330795 0
-0.0457044 -1.74553 0
0.134388 -0.285657 0
0.116523 -0.371827 0
0.150163 -0.403009 0
0.133732 -0.24976 0
0.0143459 -0.995237 0
0.0476092 -1.71978 0
0.12436 -2.24172 0
0.164205 -1.62252 0
0.216266 -1.57171 0
-0.0191516 -1.60826 0
0.311847 -1.61043 0
0.144669 -1.59753 0
0.0102947 -0.919511 0
0.136216 -1.91921 0
0.0595404 -2.35512 0
0.114725 -1.04852 0
-0.00255017 -1.6902 0
0.165783 -0.260586 0
0.290769 -0.330615 0
0.270335 -0.408536 0
0.128173 -0.269111 0
0.25038 -0.290364 0
0.151589 -0.26444 0
0.02954 -0.347248 0
0.000687707 -0.254417 0
0.185464 -0.772439 0
-0.0398432 -1.74034 0
0.250327 -0.640953 0
-0.0697619 -1.88581 0
0.28046 -0.888795 0
0.311573 -0.974836 0
-0.0355467 -1.3064 0
0.330501 -1.03502 0
-0.0632648 -1.47182 0
-0.0512502 -1.33062 0
-0.141634 -1.55382 0
-0.28207 -1.32481 0
-0.132097 -1.2559 0
0.075618 -0.251444 0
0.10471 -0.23779 0
0.202088 -0.295241 0
0.104919 -0.261455 0
0.124564 -0.308884 0
0.320187 -1.03814 0
0.243088 -0.579115 0
0.194323 -0.543695 0
0.124624 -0.397278 0
0.191513 -0.484504 0
-0.276751 -0.590234 0
-0.0269284 -0.748357 0
0.0773037 -0.39636 0
-0.439996 -0.714284 0
-0.317359 -0.465411 0
-0.475441 -0.563239 0
-0.122411 -0.538004 0
0.266823 -1.44042 0
0.281071 -2.04398 0
0.473896 -1.26499 0
0.788873 -1.13932 0
-0.0210833 -0.385457 0
-0.00901878 -0.438927 0
0.0424877 -0.337493 0
0.0260458 -0.288502 0
-0.321418 -0.701348 0
-0.694478 -0.689496 0
-0.359998 -2.41042 0
0.0520211 -1.23164 0
-0.6172 -1.50041 0
-0.275381 -0.687654 0
0.191003 -0.437459 0
0.308388 -0.823945 0
-1.38263 -0.805393 0
-0.114266 -2.26103 0
0.0749295 -1.21687 0
-0.562033 -1.34851 0
-0.322508 -0.935613 0
0.192173 -1.55944 0
-0.409717 -1.24612 0
0.233418 -0.462082 0
-0.461949 -0.629698 0
-1.11821 -0.837958 0
-0.631587 -1.85725 0
-0.145935 -0.958245 0
0.321616 -0.638698 0
-0.349043 -0.608251 0
-0.594746 -0.654416 0
-0.654679 -1.90859 0
-0.163446 -0.869317 0
0.219661 -0.534708 0
-0.400377 -0.829387 0
-0.110215 -1.19777 0
0.00888459 -1.52179 0
-0.0683686 -1.29026 0
0.265518 -1.83364 0
0.107378 -2.49005 0
0.165078 -0.599125 0
-0.124847 -1.50094 0
-0.380868 -1.80792 0
-0.0682184 -0.623024 0
0.272786 -0.616909 0
-0.16774 -1.24258 0
-0.309844 -2.11463 0
0.0248972 -0.624085 0
0.3505 -0.801752 0
0.0719314 -0.98158 0
-0.371821 -2.1999 0
-0.0281874 -0.928955 0
-0.139665 -2.19085 0
-0.450315 -0.670523 0
-0.317993 -0.782814 0
0.269431 -0.738525 0
0.430594 -1.32234 0
0.31007 -1.17518 0
0.273442 -0.972536 0
-0.824538 -0.807913 0
-0.386145 -0.422657 0
-0.382456 -0.62921 0
0.308644 -0.942024 0
0.0983028 -1.71538 0
0.311543 -2.20076 0
0.138775 -1.53982 0
0.110172 -1.02618 0
-0.411047 -0.493716 0
-0.280849 -0.613054 0
0.0449843 -1.56368 0
0.236276 -2.4148 0
-0.383257 -0.460793 0
-0.211844 -0.911024 0
0.0609658 -2.04458 0
0.223915 -1.31015 0
-0.388991 -0.46983 0
-0.487623 -1.49166 0
-0.23409 -0.611975 0
0.143812 -1.92826 0
0.382918 -0.757648 0
0.132858 -0.613858 0
-1.4236 -1.27052 0
-0.0332452 -1.05946 0
-0.323759 -1.85544 0
0.0382455 -1.15682 0
0.451986 -0.934739 0
0.135864 -1.28396 0
0.0840535 -0.839661 0
-0.112095 -0.583126 0
-0.543943 -1.98313 0
-0.171486 -0.729651 0
-0.613676 -2.50778 0
-0.0168446 -0.950987 0
0.442927 -0.816524 0
0.195483 -0.860341 0
-0.23311 -0.523494 0
0.288531 -0.541393 0
-0.0862031 -0.61561 0
-0.193341 -0.674906 0
-0.429532 -1.84221 0
-0.440874 -1.32027 0
-0.155612 -0.915863 0
-0.861385 -1.44792 0
-0.0364968 -1.00076 0
-0.0332484 -1.14817 0
-0.190293 -1.49492 0
0.193886 -0.686346 0
0.43352 -0.780451 0
-0.362177 -1.94613 0
-0.130285 -1.13669 0
-0.222803 -0.940124 0
-0.726553 -0.83785 0
0.14845 -0.752193 0
0.0763429 -0.31258 0
-0.0899336 -0.436333 0
0.0961016 -0.552293 0
0.140555 -1.79944 0
-0.420372 -0.594182 0
0.182135 -2.80232 0
0.384375 -0.686109 0
-0.180583 -2.12746 0
0.289504 -1.14274 0
-1.62139 -1.00567 0
-0.0556706 -1.13757 0
0.0835368 -0.733988 0
0.0952071 -0.3638 0
-0.379895 -0.546319 0
-0.0189395 -2.59673 0
-0.189857 -0.441265 0
0.0136099 -1.71518 0
-0.00247843 -0.525366 0
-0.49385 -2.20651 0
-0.107489 -0.728752 0
-0.080126 -0.866369 0
0.205512 -0.671057 0
0.0580512 -0.495934 0
-0.0820208 -0.505148 0
0.172509 -0.628792 0
0.166679 -0.455342 0
-0.0580868 -0.571533 0
-0.156953 -0.633962 0
-0.228873 -1.93151 0
-0.49965 -1.20917 0
-0.37285 -0.726741 0
-0.405038 -1.95931 0
-0.536587 -1.21008 0
-0.407793 -0.720417 0
0.137178 -0.362973 0
0.067101 -0.602571 0
-0.0287329 -2.20595 0
0.418966 -0.859991 0
-0.00177404 -0.997502 0
-0.0546494 -0.839202 0
-0.106125 -0.683988 0
-0.00612646 -0.825877 0
0.245211 -0.752344 0
-0.375199 -0.480149 0
0.0123802 -1.25735 0
-0.323264 -0.512487 0
-0.0432048 -1.40216 0
-0.361164 -0.545049 0
-0.394647 -0.494948 0
0.132837 -2.28205 0