# vtk DataFile Version 2.0
Unstructured Grid by M++
ASCII
DATASET UNSTRUCTURED_GRID
POINTS 289 float
  0.562500   1.000000 0
  0.562500   0.625000 0
  0.625000   1.000000 0
  0.562500   0.937500 0
  0.562500   0.562500 0
  0.625000   0.937500 0
  0.562500   0.875000 0
  0.625000   0.750000 0
  0.625000   0.625000 0
  0.562500   0.812500 0
  0.562500   0.750000 0
  0.562500   0.687500 0
  0.625000   0.875000 0
  0.625000   0.812500 0
  0.625000   0.687500 0
  0.687500   0.125000 0
  0.875000   0.062500 0
  0.625000   0.125000 0
  0.625000   0.187500 0
  0.625000   0.250000 0
  0.812500   0.187500 0
  1.000000   0.125000 0
  0.687500   0.187500 0
  0.750000   0.125000 0
  0.937500   0.062500 0
  0.937500   0.125000 0
  0.750000   0.187500 0
  0.812500   0.062500 0
  0.812500   0.125000 0
  0.875000   0.687500 0
  0.187500   0.250000 0
  0.437500   0.250000 0
  0.375000   0.187500 0
  0.812500   0.625000 0
  0.125000   0.187500 0
  0.937500   0.750000 0
  0.250000   0.312500 0
  0.500000   0.312500 0
  0.625000   0.062500 0
  0.437500   0.500000 0
  0.375000   0.125000 0
  0.437500   0.187500 0
  0.437500   0.437500 0
  0.437500   0.375000 0
  0.875000   0.875000 0
  0.187500   0.375000 0
  0.687500   0.562500 0
  0.687500   0.625000 0
  0.000000   0.125000 0
  0.937500   0.625000 0
  0.250000   0.125000 0
  0.375000   0.062500 0
  0.375000   0.000000 0
  0.812500   0.500000 0
  0.125000   0.000000 0
  0.937500   0.937500 0
  0.250000   0.437500 0
  0.687500   0.875000 0
  0.687500   0.937500 0
  0.000000   0.437500 0
  0.500000   0.500000 0
  0.500000   0.437500 0
  0.750000   0.937500 0
  0.750000   1.000000 0
  0.062500   0.500000 0
  1.000000   1.000000 0
  0.312500   0.500000 0
  0.875000   0.562500 0
  0.187500   0.062500 0
  0.437500   0.125000 0
  0.437500   0.062500 0
  0.500000   0.375000 0
  0.937500   0.812500 0
  0.937500   0.875000 0
  0.250000   0.375000 0
  0.687500   0.812500 0
  0.000000   0.375000 0
  0.750000   0.562500 0
  0.062500   0.125000 0
  1.000000   0.562500 0
  1.000000   0.625000 0
  0.312500   0.125000 0
  0.562500   0.125000 0
  0.437500   0.000000 0
  0.875000   0.437500 0
  0.875000   0.500000 0
  0.187500   0.000000 0
  0.937500   0.562500 0
  0.937500   0.500000 0
  0.250000   0.062500 0
  0.687500   0.500000 0
  0.000000   0.062500 0
  0.500000   0.062500 0
  1.000000   0.875000 0
  1.000000   0.937500 0
  0.312500   0.437500 0
  0.750000   0.875000 0
  0.062500   0.437500 0
  0.812500   0.937500 0
  0.125000   0.500000 0
  0.375000   0.500000 0
  0.625000   0.562500 0
  0.625000   0.500000 0
  0.437500   0.312500 0
  0.875000   0.812500 0
  0.875000   0.750000 0
  0.187500   0.312500 0
  0.812500   0.687500 0
  0.812500   0.750000 0
  0.125000   0.250000 0
  0.375000   0.250000 0
  1.000000   0.687500 0
  0.312500   0.187500 0
  0.750000   0.687500 0
  0.750000   0.625000 0
  0.062500   0.187500 0
  0.562500   0.250000 0
  0.562500   0.187500 0
  0.375000   1.000000 0
  0.500000   0.562500 0
  0.500000   0.250000 0
  0.750000   0.250000 0
  0.500000   0.125000 0
  0.500000   0.187500 0
  1.000000   0.187500 0
  0.625000   0.375000 0
  0.875000   0.375000 0
  1.000000   0.437500 0
  0.312500   0.000000 0
  0.562500   0.000000 0
  0.812500   0.000000 0
  0.250000   0.687500 0
  0.000000   0.687500 0
  0.500000   1.000000 0
  0.250000   1.000000 0
  0.000000   1.000000 0
  0.437500   0.687500 0
  0.437500   0.625000 0
  0.187500   0.625000 0
  0.687500   0.750000 0
  0.000000   0.312500 0
  0.000000   0.250000 0
  0.375000   0.375000 0
  0.375000   0.312500 0
  0.812500   0.812500 0
  0.125000   0.312500 0
  0.875000   0.625000 0
  0.187500   0.187500 0
  0.187500   0.125000 0
  0.937500   1.000000 0
  0.250000   0.562500 0
  0.250000   0.500000 0
  0.687500   1.000000 0
  0.000000   0.500000 0
  0.687500   0.687500 0
  0.000000   0.187500 0
  0.937500   0.687500 0
  0.250000   0.250000 0
  0.250000   0.187500 0
  0.187500   0.687500 0
  0.000000   0.750000 0
  0.250000   0.750000 0
  0.125000   0.625000 0
  0.750000   0.750000 0
  0.062500   0.250000 0
  0.875000   0.937500 0
  0.187500   0.500000 0
  0.187500   0.437500 0
  0.812500   0.562500 0
  0.125000   0.125000 0
  0.125000   0.062500 0
  0.375000   0.625000 0
  0.375000   0.687500 0
  1.000000   0.750000 0
  0.312500   0.250000 0
  0.312500   0.312500 0
  0.812500   0.312500 0
  0.562500   0.312500 0
  0.375000   0.750000 0
  0.500000   0.625000 0
  0.250000   0.625000 0
  0.312500   0.687500 0
  0.750000   0.812500 0
  0.062500   0.312500 0
  0.062500   0.375000 0
  1.000000   0.812500 0
  0.312500   0.375000 0
  0.562500   0.375000 0
  0.687500   0.437500 0
  0.000000   0.000000 0
  0.500000   0.000000 0
  0.937500   0.437500 0
  0.250000   0.000000 0
  0.375000   0.437500 0
  0.812500   0.875000 0
  0.125000   0.375000 0
  0.125000   0.437500 0
  0.625000   0.437500 0
  1.000000   0.500000 0
  0.312500   0.062500 0
  0.750000   0.500000 0
  0.062500   0.000000 0
  0.062500   0.062500 0
  0.562500   0.062500 0
  0.062500   0.750000 0
  0.312500   0.750000 0
  0.312500   0.625000 0
  0.312500   0.562500 0
  0.062500   0.562500 0
  0.187500   1.000000 0
  0.437500   0.562500 0
  0.875000   1.000000 0
  0.187500   0.562500 0
  0.500000   0.937500 0
  0.250000   0.937500 0
  0.312500   1.000000 0
  0.125000   0.750000 0
  0.125000   0.687500 0
  1.000000   0.000000 0
  0.000000   0.937500 0
  0.000000   0.875000 0
  0.875000   0.125000 0
  0.875000   0.187500 0
  0.062500   0.812500 0
  0.312500   0.812500 0
  0.000000   0.812500 0
  0.000000   0.625000 0
  0.000000   0.562500 0
  0.062500   1.000000 0
  0.062500   0.937500 0
  0.937500   0.187500 0
  0.937500   0.250000 0
  0.062500   0.687500 0
  0.062500   0.625000 0
  0.125000   1.000000 0
  1.000000   0.250000 0
  1.000000   0.312500 0
  0.062500   0.875000 0
  0.125000   0.812500 0
  0.375000   0.812500 0
  0.125000   0.875000 0
  0.375000   0.937500 0
  0.375000   0.875000 0
  0.187500   0.750000 0
  0.187500   0.812500 0
  0.437500   0.812500 0
  0.187500   0.875000 0
  0.437500   0.875000 0
  0.375000   0.562500 0
  0.812500   1.000000 0
  0.125000   0.562500 0
  0.437500   1.000000 0
  0.437500   0.937500 0
  0.187500   0.937500 0
  0.125000   0.937500 0
  0.500000   0.687500 0
  0.500000   0.750000 0
  0.500000   0.812500 0
  0.250000   0.812500 0
  0.250000   0.875000 0
  0.500000   0.875000 0
  0.437500   0.750000 0
  0.312500   0.875000 0
  0.312500   0.937500 0
  0.687500   0.250000 0
  0.687500   0.312500 0
  0.937500   0.312500 0
  0.875000   0.250000 0
  0.625000   0.000000 0
  0.875000   0.000000 0
  0.687500   0.375000 0
  0.937500   0.375000 0
  0.875000   0.312500 0
  0.625000   0.312500 0
  0.687500   0.000000 0
  0.937500   0.000000 0
  0.750000   0.312500 0
  0.750000   0.375000 0
  1.000000   0.375000 0
  0.812500   0.250000 0
  0.562500   0.437500 0
  0.562500   0.500000 0
  0.687500   0.062500 0
  0.750000   0.437500 0
  0.750000   0.000000 0
  0.750000   0.062500 0
  1.000000   0.062500 0
  0.812500   0.375000 0
  0.812500   0.437500 0
CELLS 256 1280
4 169 170 148 68
4 151 166 56 167
4 195 45 196 167
4 54 170 201 202
4 109 34 30 147
4 40 32 81 112
4 192 89 86 68
4 48 91 78 202
4 99 64 196 97
4 71 43 37 103
4 74 186 56 95
4 109 164 34 115
4 50 81 158 112
4 122 69 92 70
4 195 145 45 106
4 110 143 174 175
4 157 30 158 147
4 40 69 32 41
4 50 158 148 147
4 141 155 164 115
4 122 123 69 41
4 142 186 143 175
4 60 39 61 42
4 40 51 69 70
4 120 31 123 41
4 157 174 36 175
4 50 148 89 68
4 48 78 155 115
4 52 83 51 70
4 151 56 66 95
4 71 61 43 42
4 169 148 34 147
4 100 193 39 42
4 40 81 51 199
4 110 174 32 112
4 109 30 145 106
4 100 66 193 95
4 169 34 78 115
4 190 92 83 70
4 50 89 81 199
4 54 86 170 68
4 74 56 45 167
4 142 143 43 103
4 153 59 64 97
4 99 196 166 167
4 169 78 170 202
4 142 193 186 95
4 192 128 89 199
4 74 45 36 106
4 110 31 143 103
4 76 184 59 97
4 142 43 193 42
4 52 51 128 199
4 189 201 91 202
4 120 37 31 103
4 74 36 186 175
4 195 196 184 97
4 141 164 140 183
4 157 158 174 112
4 109 145 164 183
4 195 184 145 183
4 110 32 31 41
4 157 36 30 106
4 76 140 184 183
4 171 172 206 181
4 178 172 261 136
4 256 261 255 136
4 256 257 261 245
4 180 150 206 207
4 60 119 39 210
4 118 215 241 263
4 178 205 172 181
4 216 243 238 244
4 162 217 233 232
4 180 206 131 181
4 179 137 119 210
4 216 204 217 232
4 220 237 219 229
4 216 217 243 159
4 259 258 262 224
4 240 254 237 229
4 153 64 227 208
4 161 205 258 224
4 240 237 238 223
4 226 227 233 208
4 234 228 254 229
4 171 248 137 210
4 160 132 204 232
4 180 131 138 159
4 133 251 213 252
4 171 206 248 207
4 162 138 217 159
4 161 258 243 244
4 220 225 237 223
4 151 150 166 212
4 260 247 257 245
4 259 262 214 263
4 151 66 150 207
4 234 254 209 253
4 162 233 250 208
4 242 241 262 263
4 171 137 172 136
4 161 243 131 159
4 160 204 225 223
4 161 131 205 181
4 179 255 137 136
4 216 238 204 223
4 100 39 248 210
4 260 213 247 252
4 226 233 132 232
4 134 214 215 263
4 180 138 150 212
4 178 261 239 245
4 259 246 258 244
4 178 239 205 224
4 240 238 246 244
4 242 262 239 224
4 99 250 64 208
4 240 246 254 253
4 242 239 247 245
4 135 219 228 229
4 99 166 250 212
4 259 214 246 253
4 118 241 251 252
4 100 248 66 207
4 134 209 214 253
4 162 250 138 212
4 242 247 241 252
4 71 187 61 280
4 102 281 197 280
4 122 92 82 203
4 17 18 82 117
4 122 82 123 117
4 19 264 273 265
4 267 279 222 20
4 125 273 270 265
4 267 272 279 176
4 19 116 18 117
4 21 25 286 24
4 23 28 26 20
4 23 285 28 27
4 218 286 275 24
4 85 53 84 288
4 235 236 231 266
4 221 222 28 20
4 267 222 231 230
4 268 38 129 203
4 125 270 197 188
4 126 287 272 176
4 277 270 276 265
4 267 231 272 266
4 125 197 187 280
4 190 129 92 203
4 277 276 287 176
4 19 18 264 22
4 17 82 38 203
4 102 197 90 188
4 126 84 287 288
4 284 130 285 27
4 121 276 264 265
4 71 37 187 177
4 120 123 116 117
4 198 88 127 191
4 221 16 25 24
4 23 26 15 22
4 121 279 276 176
4 235 231 124 230
4 125 187 273 177
4 278 271 236 266
4 277 287 283 288
4 284 285 274 282
4 278 127 271 191
4 269 275 16 24
4 200 283 53 288
4 23 15 285 282
4 121 26 279 20
4 21 124 25 230
4 19 273 116 177
4 200 90 283 188
4 126 271 84 191
4 269 16 130 27
4 17 38 15 282
4 221 25 222 230
4 121 264 26 22
4 120 116 37 177
4 60 61 281 280
4 277 283 270 188
4 126 272 271 266
4 268 274 38 282
4 85 84 88 191
4 17 15 18 22
4 221 28 16 27
4 93 94 73 55
4 85 88 67 87
4 80 49 79 87
4 44 104 73 72
4 146 33 67 168
4 211 165 149 55
4 8 47 14 154
4 105 104 108 144
4 105 108 29 107
4 7 139 13 75
4 44 165 194 98
4 200 53 77 168
4 8 1 101 4
4 2 5 152 58
4 260 6 213 3
4 105 35 104 72
4 96 57 182 75
4 7 14 139 154
4 146 29 33 107
4 7 13 10 9
4 12 13 57 75
4 85 67 53 168
4 44 73 165 55
4 63 152 62 58
4 8 101 47 46
4 96 182 194 144
4 60 281 119 4
4 12 5 6 3
4 173 185 35 72
4 65 149 94 55
4 146 67 49 87
4 114 113 47 154
4 163 108 182 144
4 12 6 13 9
4 173 35 111 156
4 163 182 139 75
4 260 257 6 9
4 105 29 35 156
4 163 139 113 154
4 256 10 257 9
4 146 49 29 156
4 163 113 108 107
4 80 111 49 156
4 102 101 281 4
4 12 57 5 58
4 44 194 104 144
4 96 194 62 98
4 2 0 5 3
4 93 73 185 72
4 179 119 1 4
4 200 77 90 46
4 114 33 113 107
4 7 10 14 11
4 96 62 57 58
4 133 213 0 3
4 102 90 101 46
4 256 255 10 11
4 63 62 249 98
4 114 47 77 46
4 179 1 255 11
4 211 249 165 98
4 114 77 33 168
4 198 79 88 87
4 8 14 1 11
CELL_TYPES 256
8
8
8
8
8
8
8
8
8
8
8
8
8
8
8
8
8
8
8
8
8
8
8
8
8
8
8
8
8
8
8
8
8
8
8
8
8
8
8
8
8
8
8
8
8
8
8
8
8
8
8
8
8
8
8
8
8
8
8
8
8
8
8
8
8
8
8
8
8
8
8
8
8
8
8
8
8
8
8
8
8
8
8
8
8
8
8
8
8
8
8
8
8
8
8
8
8
8
8
8
8
8
8
8
8
8
8
8
8
8
8
8
8
8
8
8
8
8
8
8
8
8
8
8
8
8
8
8
8
8
8
8
8
8
8
8
8
8
8
8
8
8
8
8
8
8
8
8
8
8
8
8
8
8
8
8
8
8
8
8
8
8
8
8
8
8
8
8
8
8
8
8
8
8
8
8
8
8
8
8
8
8
8
8
8
8
8
8
8
8
8
8
8
8
8
8
8
8
8
8
8
8
8
8
8
8
8
8
8
8
8
8
8
8
8
8
8
8
8
8
8
8
8
8
8
8
8
8
8
8
8
8
8
8
8
8
8
8
8
8
8
8
8
8
8
8
8
8
8
8
8
8
8
8
8
8
CELL_DATA 256
VECTORS vector_value float
-0.312509 -0.971888 0
-0.192533 -0.603579 0
-0.192373 -0.950896 0
-0.304357 -0.965016 0
0.0353353 -1.6982 0
0.0587923 -0.238904 0
0.0387742 -0.539494 0
-0.248037 -0.915884 0
-0.16289 -0.939913 0
0.1649 -0.751659 0
-0.244178 -0.470193 0
-0.086697 -0.784836 0
0.243904 -0.6113 0
-0.32155 -0.947934 0
0.12768 -1.24963 0
-0.134575 -0.203345 0
0.161624 -1.41193 0
-0.119436 -0.23047 0
0.141582 -1.26158 0
-0.0349361 -0.299907 0
-0.386583 -0.809245 0
-0.350918 -0.376975 0
-0.0634167 -1.07126 0
-0.179778 -0.496325 0
-0.0649234 -0.51104 0
-0.229239 -0.356591 0
0.0998391 -0.789796 0
-0.10712 -0.473065 0
-0.0835916 -0.684777 0
-0.0472605 -0.447565 0
-0.0770469 -0.960034 0
-0.230308 -1.3573 0
0.0282807 -0.607706 0
0.100557 -0.502161 0
-0.0281174 -0.127038 0
0.347537 -1.73404 0
0.02569 -0.507494 0
-0.312492 -0.862839 0
-0.142293 -0.995193 0
0.261567 -0.735968 0
-0.099956 -0.527553 0
-0.162952 -0.406047 0
-0.0848147 -0.528122 0
-0.0828577 -0.787258 0
-0.240815 -0.889833 0
-0.483204 -0.927446 0
-0.258928 -0.493748 0
0.113061 -0.755474 0
-0.311532 -0.67368 0
-0.00829176 -0.213025 0
0.0401993 -0.802667 0
-0.226588 -0.707241 0
0.0502379 -0.738685 0
-0.168717 -1.35672 0
0.136084 -0.568223 0
-0.451596 -0.4089 0
-0.0534042 -1.1584 0
0.046008 -0.328472 0
0.0341488 -0.457733 0
0.246838 -0.944709 0
0.411604 -1.26127 0
-0.0201219 -0.123247 0
-0.058632 -1.15807 0
0.173746 -0.568581 0
0.497532 -1.29125 0
0.411026 -1.11971 0
0.0761629 -1.01677 0
0.0192133 -0.870476 0
-0.21384 -0.922595 0
0.309588 -0.974884 0
0.34023 -0.773077 0
0.347812 -1.17947 0
0.0421204 -0.401946 0
-0.236404 -0.382874 0
0.0557633 -1.51822 0
0.724422 -1.35141 0
-0.0550197 -0.183577 0
0.0571734 -0.321678 0
-0.209158 -0.467727 0
0.359628 -2.14287 0
0.157955 -0.298279 0
-0.0906099 -0.553618 0
0.125447 -2.38195 0
0.0763674 -0.204437 0
-0.0623206 -0.385612 0
0.944723 -0.702182 0
0.510605 -0.70063 0
-0.00877534 -0.222395 0
-0.502481 -1.02259 0
0.0766976 -1.03787 0
0.220593 -1.07908 0
-0.465523 -0.63725 0
0.10262 -1.33402 0
0.0208186 -0.255004 0
-0.335912 -0.787864 0
0.146393 -1.07159 0
0.364959 -1.52775 0
-0.115673 -0.67219 0
1.21275 -1.31578 0
-0.305693 -0.723587 0
0.0318547 -0.896036 0
0.617758 -0.858513 0
-0.232043 -1.23832 0
0.00781064 -0.226703 0
0.118699 -2.26395 0
0.728328 -1.66309 0
0.0204697 -0.147579 0
0.181307 -0.606037 0
0.084988 -1.15262 0
-0.0521714 -0.302619 0
0.37693 -1.10147 0
-0.319894 -0.702582 0
0.0380972 -0.800767 0
0.494129 -1.50717 0
0.104756 -1.42659 0
0.202666 -0.481625 0
-0.0840612 -1.19571 0
-0.247753 -0.921912 0
0.458711 -0.918887 0
-0.0831287 -0.944982 0
0.303307 -0.584012 0
-0.29737 -0.794521 0
0.683147 -1.59334 0
0.290418 -1.28537 0
0.0733141 -0.574594 0
0.781689 -1.17273 0
-0.480961 -0.862184 0
-0.0110092 -1.26572 0
0.181273 -2.40335 0
0.262734 -3.01393 0
-0.276683 -1.37458 0
0.199316 -2.51304 0
-0.285916 -1.54392 0
0.0780937 -2.43644 0
0.120113 -0.429565 0
0.0900889 -1.70042 0
0.121751 -0.611621 0
0.205541 -2.58085 0
-0.0320028 -0.95219 0
0.202666 -0.334725 0
0.230256 -0.371467 0
-0.00771951 -0.898487 0
0.172091 -0.637167 0
0.0644469 -0.603637 0
0.193515 -0.389807 0
0.170966 -0.592205 0
-0.057947 -1.59177 0
0.200287 -1.43513 0
-0.00701077 -0.722537 0
-0.105518 -1.01013 0
0.168679 -0.583475 0
0.269041 -2.78069 0
-0.105764 -1.24445 0
-0.0162617 -0.622953 0
0.229363 -2.79 0
-0.0167711 -1.68684 0
0.175907 -1.35463 0
-0.0237564 -0.653467 0
0.0755952 -0.591631 0
-0.134317 -0.760472 0
0.263034 -2.06135 0
-0.0159607 -2.1311 0
-0.0653138 -0.395095 0
-0.0390304 -0.733827 0
0.308317 -1.09696 0
-0.0422044 -0.573763 0
0.101018 -0.83082 0
0.351691 -2.98035 0
0.0671048 -0.483579 0
0.0781532 -0.545828 0
0.0870449 -0.997899 0
0.0326934 -0.344742 0
-0.0129215 -0.76417 0
0.161068 -0.418273 0
0.265556 -1.10084 0
0.0491154 -0.409904 0
0.0475561 -0.973393 0
0.264012 -2.77397 0
0.189868 -0.993487 0
0.00881216 -0.831985 0
-0.00458783 -0.646217 0
0.239849 -2.90558 0
0.151339 -0.670542 0
0.0528384 -0.821634 0
0.200059 -2.15014 0
0.133002 -2.59778 0
0.139877 -1.05557 0
0.0701172 -0.599852 0
0.00620542 -2.70246 0
-0.00560926 -0.735033 0
0.380471 -2.63292 0
0.092577 -0.587271 0
0.0222193 -1.12516 0
-0.0252486 -0.456493 0
-0.0421007 -0.657428 0
-0.099279 -0.320985 0
-0.0249962 -0.445995 0
-0.173474 -0.802258 0
0.361683 -1.44013 0
-0.0607174 -0.222835 0
-0.0706849 -0.250071 0
-0.350069 -1.54641 0
-0.268601 -0.473817 0
0.184694 -0.504176 0
0.270381 -1.54026 0
-0.88899 -1.04272 0
0.0489749 -1.22719 0
-0.0975345 -0.418511 0
-0.807434 -0.855199 0
0.0692849 -1.23651 0
-0.0893239 -0.291808 0
-0.443347 -2.41301 0
-0.786865 -1.62872 0
0.11828 -0.502877 0
-0.0785636 -0.357626 0
-0.844768 -0.838726 0
0.377357 -1.75968 0
-0.355711 -0.445506 0
0.673683 -3.24059 0
-0.183304 -1.92605 0
-0.0622947 -0.88432 0
0.0220066 -0.981462 0
-0.0711263 -0.305057 0
0.128339 -0.634969 0
-0.0763062 -0.308723 0
-0.38357 -2.18137 0
-0.0344246 -0.780666 0
-0.118015 -0.566977 0
0.00673035 -1.43053 0
-0.0855343 -0.451781 0
0.050922 -0.559014 0
-0.165888 -2.04919 0
-0.103174 -0.377063 0
-0.00776373 -0.34239 0
-0.0316255 -0.734731 0
0.38709 -2.1515 0
-0.446033 -1.11641 0
-0.142718 -0.297985 0
-0.625113 -0.880457 0
-0.534972 -1.26872 0
-0.0683265 -1.03631 0
0.600014 -3.10059 0
0.159883 -1.03176 0
0.00214525 -0.500231 0
-0.0086463 -2.50289 0
-0.633051 -0.918969 0
-0.104194 -1.25662 0
0.0140343 -1.68425 0
-0.0913453 -2.18476 0
-0.7824 -0.986497 0
0.174422 -0.954665 0
0.236211 -2.1915 0
-0.64093 -0.850496 0
0.0393561 -0.508646 0
-0.0652801 -0.542739 0
0.305839 -2.15316 0
