# vtk DataFile Version 2.0
Unstructured Grid by M++
ASCII
DATASET UNSTRUCTURED_GRID
POINTS 4225 float
  0.921875   0.593750 0
  0.921875   0.609375 0
  0.656250   0.609375 0
  0.671875   0.609375 0
  0.656250   0.546875 0
  0.671875   0.546875 0
  0.656250   0.562500 0
  0.656250   0.578125 0
  0.656250   0.593750 0
  0.671875   0.593750 0
  0.671875   0.562500 0
  0.671875   0.578125 0
  0.671875   0.625000 0
  0.671875   0.640625 0
  0.906250   0.578125 0
  0.890625   0.578125 0
  0.546875   0.515625 0
  1.000000   0.890625 0
  0.515625   0.640625 0
  0.515625   0.625000 0
  1.000000   0.875000 0
  0.515625   0.656250 0
  0.515625   0.687500 0
  0.515625   0.671875 0
  1.000000   0.921875 0
  0.546875   0.531250 0
  0.546875   0.546875 0
  0.546875   0.562500 0
  0.796875   0.531250 0
  0.953125   0.890625 0
  0.953125   0.875000 0
  0.953125   0.843750 0
  0.953125   0.828125 0
  0.953125   0.812500 0
  0.531250   0.562500 0
  0.531250   0.546875 0
  0.515625   0.562500 0
  0.515625   0.546875 0
  1.000000   0.812500 0
  0.781250   0.546875 0
  0.765625   0.546875 0
  0.859375   0.921875 0
  0.921875   0.671875 0
  0.609375   0.906250 0
  0.671875   0.656250 0
  0.609375   0.921875 0
  0.671875   0.671875 0
  0.671875   0.984375 0
  0.671875   1.000000 0
  0.906250   0.984375 0
  0.906250   1.000000 0
  0.921875   0.984375 0
  0.921875   1.000000 0
  0.859375   0.609375 0
  1.000000   0.781250 0
  0.515625   0.531250 0
  0.531250   0.531250 0
  0.531250   0.515625 0
  0.515625   0.515625 0
  1.000000   0.750000 0
  0.765625   0.531250 0
  0.781250   0.531250 0
  0.781250   0.515625 0
  0.765625   0.515625 0
  0.859375   0.875000 0
  0.921875   0.625000 0
  0.859375   0.890625 0
  0.921875   0.640625 0
  0.671875   0.968750 0
  0.671875   0.953125 0
  0.921875   0.968750 0
  0.921875   0.953125 0
  0.859375   0.593750 0
  0.859375   0.578125 0
  0.875000   0.578125 0
  0.828125   0.890625 0
  0.890625   0.640625 0
  0.593750   0.890625 0
  0.656250   0.640625 0
  0.593750   0.875000 0
  0.656250   0.625000 0
  0.578125   0.890625 0
  0.640625   0.640625 0
  0.578125   0.875000 0
  0.640625   0.625000 0
  0.968750   0.890625 0
  0.984375   0.890625 0
  0.968750   0.812500 0
  0.968750   0.828125 0
  0.984375   0.812500 0
  0.984375   0.828125 0
  1.000000   0.828125 0
  0.656250   0.953125 0
  0.640625   0.953125 0
  0.890625   0.968750 0
  0.906250   0.968750 0
  0.906250   0.953125 0
  0.890625   0.953125 0
  0.531250   0.703125 0
  0.531250   0.718750 0
  0.546875   0.718750 0
  0.546875   0.703125 0
  0.593750   0.578125 0
  0.562500   0.578125 0
  0.578125   0.578125 0
  0.843750   0.578125 0
  0.828125   0.578125 0
  0.828125   0.812500 0
  0.890625   0.562500 0
  0.828125   0.796875 0
  0.953125   0.906250 0
  0.953125   0.921875 0
  0.531250   0.859375 0
  0.593750   0.609375 0
  0.531250   0.843750 0
  0.593750   0.593750 0
  0.515625   0.843750 0
  0.578125   0.593750 0
  0.515625   0.859375 0
  0.578125   0.609375 0
  0.937500   0.859375 0
  1.000000   0.609375 0
  0.921875   0.859375 0
  0.984375   0.609375 0
  0.937500   0.796875 0
  0.921875   0.796875 0
  0.984375   0.546875 0
  0.562500   0.812500 0
  0.843750   0.796875 0
  0.843750   0.812500 0
  0.859375   0.796875 0
  0.859375   0.812500 0
  1.000000   0.906250 0
  0.984375   0.906250 0
  0.968750   0.906250 0
  0.968750   0.921875 0
  0.984375   0.921875 0
  0.593750   0.921875 0
  0.656250   0.671875 0
  0.593750   0.906250 0
  0.656250   0.656250 0
  0.578125   0.906250 0
  0.640625   0.656250 0
  0.578125   0.921875 0
  0.640625   0.671875 0
  1.000000   0.843750 0
  0.984375   0.843750 0
  0.968750   0.843750 0
  0.968750   0.859375 0
  0.968750   0.875000 0
  1.000000   0.859375 0
  0.984375   0.859375 0
  0.984375   0.875000 0
  0.656250   1.000000 0
  0.656250   0.984375 0
  0.656250   0.968750 0
  0.640625   0.968750 0
  0.640625   1.000000 0
  0.640625   0.984375 0
  0.843750   0.921875 0
  0.906250   0.671875 0
  0.843750   0.906250 0
  0.906250   0.656250 0
  0.828125   0.906250 0
  0.890625   0.656250 0
  0.828125   0.921875 0
  0.890625   0.671875 0
  0.781250   0.859375 0
  0.843750   0.609375 0
  0.781250   0.843750 0
  0.843750   0.593750 0
  0.765625   0.843750 0
  0.828125   0.593750 0
  0.765625   0.859375 0
  0.828125   0.609375 0
  0.968750   0.609375 0
  0.906250   0.859375 0
  0.953125   0.609375 0
  0.890625   0.859375 0
  0.937500   0.609375 0
  0.875000   0.859375 0
  0.562500   0.593750 0
  0.546875   0.593750 0
  0.531250   0.593750 0
  0.531250   0.609375 0
  0.562500   0.609375 0
  0.546875   0.609375 0
  0.609375   0.625000 0
  0.546875   0.875000 0
  0.609375   0.640625 0
  0.546875   0.890625 0
  0.625000   0.640625 0
  0.562500   0.890625 0
  0.625000   0.625000 0
  0.562500   0.875000 0
  0.921875   0.843750 0
  0.984375   0.593750 0
  0.937500   0.843750 0
  1.000000   0.593750 0
  0.921875   0.812500 0
  0.921875   0.828125 0
  0.984375   0.578125 0
  0.937500   0.828125 0
  1.000000   0.578125 0
  0.937500   0.812500 0
  1.000000   0.562500 0
  0.578125   0.828125 0
  0.921875   0.781250 0
  0.937500   0.781250 0
  1.000000   0.531250 0
  0.921875   0.765625 0
  0.984375   0.515625 0
  0.937500   0.765625 0
  0.625000   0.656250 0
  0.562500   0.906250 0
  0.609375   0.656250 0
  0.546875   0.906250 0
  0.625000   0.671875 0
  0.562500   0.921875 0
  0.609375   0.671875 0
  0.546875   0.921875 0
  0.859375   0.781250 0
  0.859375   0.765625 0
  0.828125   0.671875 0
  0.765625   0.921875 0
  0.828125   0.734375 0
  0.765625   0.984375 0
  0.875000   0.843750 0
  0.937500   0.593750 0
  0.890625   0.843750 0
  0.953125   0.593750 0
  0.906250   0.843750 0
  0.968750   0.593750 0
  0.906250   0.828125 0
  0.968750   0.578125 0
  0.937500   0.578125 0
  0.953125   0.578125 0
  0.906250   0.765625 0
  0.875000   0.765625 0
  0.953125   0.515625 0
  0.531250   0.781250 0
  0.671875   0.890625 0
  0.531250   0.921875 0
  0.953125   0.656250 0
  0.828125   0.781250 0
  0.843750   0.781250 0
  0.703125   0.984375 0
  0.687500   0.984375 0
  0.843750   0.875000 0
  0.906250   0.625000 0
  0.671875   0.781250 0
  0.734375   0.531250 0
  0.906250   0.609375 0
  0.671875   0.765625 0
  0.734375   0.515625 0
  0.906250   0.593750 0
  0.890625   0.593750 0
  0.875000   0.593750 0
  0.828125   0.875000 0
  0.890625   0.625000 0
  0.656250   0.781250 0
  0.718750   0.531250 0
  0.890625   0.609375 0
  0.656250   0.765625 0
  0.718750   0.515625 0
  0.875000   0.609375 0
  0.640625   0.765625 0
  0.703125   0.515625 0
  0.812500   0.921875 0
  0.875000   0.671875 0
  0.812500   0.875000 0
  0.875000   0.625000 0
  0.640625   0.781250 0
  0.703125   0.531250 0
  0.812500   0.515625 0
  0.750000   0.828125 0
  0.812500   0.578125 0
  0.687500   1.000000 0
  0.937500   0.656250 0
  0.875000   0.906250 0
  0.531250   0.656250 0
  0.890625   0.906250 0
  0.906250   0.906250 0
  0.562500   0.656250 0
  0.906250   0.890625 0
  0.562500   0.640625 0
  0.968750   0.625000 0
  0.906250   0.875000 0
  0.562500   0.625000 0
  0.937500   0.640625 0
  0.875000   0.890625 0
  0.890625   0.890625 0
  0.546875   0.640625 0
  0.953125   0.625000 0
  0.890625   0.875000 0
  0.546875   0.625000 0
  0.546875   0.687500 0
  0.890625   0.937500 0
  0.937500   0.625000 0
  0.875000   0.875000 0
  0.531250   0.625000 0
  0.531250   0.640625 0
  0.546875   0.656250 0
  0.937500   0.968750 0
  0.687500   0.968750 0
  0.953125   0.968750 0
  0.703125   0.968750 0
  0.968750   0.968750 0
  0.718750   0.968750 0
  0.718750   0.906250 0
  0.968750   0.953125 0
  0.718750   0.953125 0
  0.968750   0.937500 0
  0.859375   0.906250 0
  0.921875   0.656250 0
  0.718750   0.937500 0
  0.828125   0.531250 0
  0.937500   0.953125 0
  0.687500   0.953125 0
  0.953125   0.953125 0
  0.703125   0.953125 0
  0.703125   0.890625 0
  0.843750   0.515625 0
  0.953125   0.937500 0
  0.953125   1.000000 0
  0.703125   0.937500 0
  0.937500   0.937500 0
  0.687500   0.937500 0
  0.703125   0.906250 0
  0.718750   0.890625 0
  0.687500   0.890625 0
  0.687500   0.765625 0
  0.750000   0.515625 0
  0.687500   0.781250 0
  0.750000   0.531250 0
  0.859375   0.937500 0
  0.921875   0.687500 0
  0.687500   0.796875 0
  0.750000   0.546875 0
  0.578125   0.750000 0
  0.515625   1.000000 0
  0.843750   0.765625 0
  0.578125   0.734375 0
  0.515625   0.984375 0
  0.562500   0.734375 0
  0.828125   0.750000 0
  0.765625   1.000000 0
  0.562500   0.750000 0
  0.562500   0.718750 0
  0.578125   0.515625 0
  0.921875   0.703125 0
  0.921875   0.718750 0
  0.593750   0.515625 0
  0.687500   0.875000 0
  0.750000   0.625000 0
  0.578125   0.531250 0
  0.921875   0.750000 0
  0.703125   0.875000 0
  0.765625   0.625000 0
  0.593750   0.531250 0
  0.875000   0.968750 0
  0.937500   0.718750 0
  0.703125   0.828125 0
  0.765625   0.578125 0
  0.937500   0.734375 0
  0.703125   0.812500 0
  0.765625   0.562500 0
  0.890625   0.687500 0
  0.828125   0.937500 0
  0.656250   0.796875 0
  0.718750   0.546875 0
  0.890625   0.718750 0
  0.828125   0.968750 0
  0.906250   0.796875 0
  0.718750   0.828125 0
  0.781250   0.578125 0
  0.890625   0.703125 0
  0.828125   0.953125 0
  0.656250   0.859375 0
  0.906250   0.781250 0
  0.968750   0.531250 0
  0.546875   0.796875 0
  0.671875   0.796875 0
  0.734375   0.546875 0
  0.843750   0.953125 0
  0.906250   0.703125 0
  0.671875   0.875000 0
  0.718750   0.812500 0
  0.781250   0.562500 0
  0.875000   0.812500 0
  0.531250   0.890625 0
  0.593750   0.640625 0
  0.937500   0.890625 0
  0.875000   0.781250 0
  0.609375   0.703125 0
  0.546875   0.953125 0
  0.890625   0.796875 0
  0.625000   0.718750 0
  0.562500   0.968750 0
  0.906250   0.812500 0
  0.734375   0.859375 0
  0.796875   0.609375 0
  0.718750   0.875000 0
  0.781250   0.625000 0
  0.750000   0.859375 0
  0.812500   0.609375 0
  0.812500   0.546875 0
  0.750000   0.812500 0
  0.734375   0.843750 0
  0.796875   0.593750 0
  0.750000   0.843750 0
  0.812500   0.593750 0
[...]
CELL_DATA 4096
VECTORS vector_value float
-0.0272097 -0.332403 0
-0.0104393 -0.329137 0
-0.0152409 -0.441353 0
-0.0437857 -0.463011 0
-0.0399351 -0.348433 0
-0.0241851 -0.341067 0
-0.0243825 -0.317184 0
-0.0362065 -0.353794 0
-0.0118971 -0.381886 0
-0.0164162 -0.356012 0
-0.0438255 -0.391975 0
-0.0192035 -0.398182 0
0.0218392 -0.432547 0
0.00847562 -0.347221 0
0.00865227 -0.386083 0
0.0179838 -0.428395 0
0.511696 -1.38348 0
0.656719 -1.31056 0
0.578039 -1.11849 0
0.524389 -1.3419 0
0.752417 -1.68248 0
0.739375 -1.58336 0
0.533735 -1.4442 0
0.62222 -1.68114 0
0.768592 -1.06578 0
0.807367 -1.30906 0
0.791191 -1.29244 0
0.809621 -1.07768 0
-0.090212 -0.858238 0
-0.0708148 -0.881249 0
-0.0216299 -0.877179 0
-0.0456477 -0.806695 0
0.692693 -1.17643 0
0.842411 -1.32088 0
0.816569 -1.13533 0
0.808639 -1.14753 0
0.00328907 -0.889436 0
-0.0466472 -0.986406 0
-0.0196625 -1.05977 0
-0.00573402 -0.872921 0
0.146888 -0.929716 0
0.144906 -0.95943 0
0.106718 -0.83237 0
0.140281 -0.900955 0
0.682563 -1.20488 0
0.625541 -1.38386 0
0.665091 -1.4065 0
0.710765 -1.28884 0
-0.105526 -0.88699 0
-0.148444 -0.87108 0
-0.125489 -0.823234 0
-0.0813964 -0.766859 0
0.863706 -1.05483 0
0.688281 -0.933145 0
0.661837 -0.952276 0
0.770326 -0.962518 0
0.0300442 -1.09446 0
0.0136316 -0.980681 0
0.0106731 -1.04672 0
0.025746 -1.06994 0
0.537942 -0.878663 0
0.475782 -0.815595 0
0.490851 -0.854122 0
0.519026 -0.812863 0
0.104243 -0.870211 0
0.106886 -0.908622 0
0.149732 -0.985514 0
0.138822 -0.958881 0
0.709125 -1.32048 0
0.6548 -1.32289 0
0.673465 -1.39787 0
0.676254 -1.29707 0
-0.244414 -1.34074 0
-0.145595 -1.3537 0
-0.134792 -1.37918 0
-0.246232 -1.34241 0
0.499866 -1.04648 0
0.502458 -0.927637 0
0.506106 -0.87597 0
0.585346 -1.13251 0
0.000862187 -1.12889 0
0.117082 -1.12796 0
0.0771449 -1.12098 0
0.028909 -1.17537 0
0.131276 -1.09217 0
0.05206 -0.968168 0
-0.0137782 -0.921579 0
0.0690383 -0.943451 0
-0.0232475 -1.09305 0
-0.093154 -1.17548 0
-0.184282 -1.29083 0
-0.0938202 -1.17602 0
0.33071 -0.916613 0
0.400707 -0.920403 0
0.39532 -1.02774 0
0.319874 -1.08539 0
-0.026445 -0.931454 0
0.00171973 -0.84606 0
-0.00612746 -0.841515 0
-0.00636721 -0.926049 0
0.101934 -1.03816 0
0.144406 -1.11994 0
0.144194 -1.11737 0
0.120636 -0.983431 0
0.0101036 -1.23959 0
-0.0104366 -1.13402 0
-0.0128985 -1.05718 0
0.000900381 -1.01948 0
0.428095 -0.864118 0
0.40954 -0.826638 0
0.370076 -0.874679 0
0.343862 -0.82521 0
-0.00237784 -0.927207 0
0.0235269 -1.02728 0
0.048234 -1.02735 0
0.0715978 -1.02414 0
0.000595363 -0.933275 0
0.00113411 -0.871317 0
-0.0215198 -0.949289 0
-0.0121667 -0.937183 0
-0.0723911 -1.38501 0
-0.0193851 -1.31416 0
0.031514 -1.24265 0
-0.0229237 -1.307 0
0.0690884 -0.43987 0
0.0475091 -0.426847 0
0.0271496 -0.338584 0
0.0446808 -0.36608 0
0.032155 -0.805648 0
0.0807488 -0.89908 0
-0.0233848 -0.829788 0
-0.0315296 -0.789839 0
0.169415 -0.914612 0
0.145252 -0.930255 0
0.167823 -0.957785 0
0.15515 -0.89346 0
0.653769 -1.43364 0
0.590392 -1.38358 0
0.538351 -1.29573 0
0.641601 -1.30722 0
-0.200263 -1.13491 0
-0.111082 -1.09013 0
-0.129935 -1.22844 0
-0.248132 -1.22095 0
0.12234 -0.579805 0
0.0888147 -0.502733 0
0.102019 -0.542479 0
0.140763 -0.621397 0
-0.00108642 -1.17727 0
-0.0398841 -1.12709 0
0.0632646 -1.14478 0
0.11349 -1.31093 0
-0.724412 -1.52031 0
-0.572144 -1.31145 0
-0.354007 -1.19603 0
-0.491597 -1.39127 0
0.540755 -0.848701 0
0.616951 -0.900872 0
0.449925 -0.835846 0
0.399144 -0.81327 0
-0.190511 -0.971005 0
-0.238472 -0.987754 0
-0.193591 -1.03593 0
-0.165753 -0.954298 0
0.750395 -0.885748 0
0.680131 -0.89033 0
0.694602 -0.97157 0
0.761938 -0.924459 0
-0.240352 -1.07119 0
-0.256858 -1.00389 0
-0.253728 -0.980797 0
-0.232156 -1.12311 0
-0.0915881 -0.728167 0
-0.101134 -0.938473 0
-0.182004 -0.953246 0
-0.157144 -0.73619 0
-0.427512 -0.96458 0
-0.59699 -1.26846 0
-0.658148 -1.37382 0
-0.563665 -1.14079 0
0.648874 -0.996088 0
0.67318 -0.86392 0
0.721574 -0.86181 0
0.724783 -1.00107 0
-0.125586 -0.910935 0
-0.101657 -0.868656 0
-0.174328 -0.915981 0
-0.181661 -0.982599 0
0.0242608 -0.88739 0
-0.0376538 -0.917472 0
-0.0317919 -0.730937 0
-0.00556857 -0.765322 0
-0.271652 -0.943154 0
-0.415731 -1.07418 0
-0.299242 -0.879565 0
-0.217852 -0.810999 0
0.481582 -0.880414 0
0.622489 -0.846844 0
0.638978 -1.07581 0
0.470377 -1.0162 0
-0.131004 -0.80416 0
-0.711486 -1.59814 0
0.020782 -0.563837 0
0.130645 -0.898565 0
-0.116158 -0.695047 0
0.564172 -1.26746 0
0.0556852 -0.58726 0
0.115658 -0.648659 0
0.0399371 -0.527764 0
0.0890435 -0.590176 0
0.0539095 -0.553045 0
0.124607 -0.569028 0
0.342375 -1.24249 0
0.159638 -0.679735 0
0.412103 -1.20103 0
0.015323 -0.410919 0
0.258441 -0.843432 0
0.0551753 -0.44114 0
0.317693 -1.00912 0
0.0956952 -0.576437 0
0.386481 -0.947098 0
0.0482406 -0.526622 0
0.365673 -0.918244 0
0.0568196 -0.613355 0
0.0798621 -0.511819 0
0.110722 -0.626957 0
0.0484961 -0.594867 0
-0.000609814 -0.609632 0
0.0541659 -0.521323 0
-0.191362 -0.971031 0
0.0171907 -0.511049 0
0.0483213 -0.51803 0
0.13367 -0.4787 0
-0.157417 -2.02847 0
0.124427 -0.590188 0
0.00544333 -1.69085 0
0.102407 -0.485115 0
-0.125149 -1.96764 0
0.0368105 -0.414438 0
-0.497375 -1.29427 0
0.014002 -0.489195 0
-0.58317 -1.35374 0
-0.064126 -0.740574 0
-0.525356 -1.3048 0
-0.0353718 -0.733292 0
-0.38667 -1.28841 0
0.032286 -1.3578 0
0.531953 -0.856691 0
0.0972764 -1.30623 0
0.502519 -0.831956 0
0.0298862 -1.29716 0
0.713419 -0.954511 0
0.628838 -0.904521 0
-0.0196917 -1.46752 0
0.707453 -0.951471 0
-0.045778 -1.43476 0
0.781369 -0.986996 0
0.510428 -0.829627 0
-0.0634588 -1.37135 0
0.873419 -1.05387 0
-0.0541691 -0.814909 0
-0.401184 -1.09521 0
-0.0741195 -0.773611 0
-0.482891 -1.26925 0
-0.00295094 -0.820119 0
-0.369844 -1.32542 0
0.0651718 -0.776037 0
0.107668 -0.933285 0
0.092568 -0.968735 0
0.0839963 -0.897571 0
0.0458383 -0.941074 0
0.0398681 -0.845046 0
-0.348535 -1.15421 0
0.232076 -0.673984 0
-0.0325643 -2.17224 0
0.198063 -0.626377 0
0.0238542 -1.92774 0
0.295523 -0.741835 0
0.037526 -2.31724 0
0.408207 -0.947188 0
0.042584 -1.07573 0
0.359192 -0.906412 0
0.0243136 -0.998763 0
0.176899 -0.549115 0
-0.0996058 -2.02373 0
0.33399 -0.908895 0
-0.0291159 -0.667529 0
0.365128 -0.907398 0
0.0107839 -0.690007 0
0.0162207 -0.766383 0
-0.0626142 -0.663245 0
0.353113 -1.13538 0
0.0557165 -0.426105 0
-0.637526 -1.57483 0
0.0658425 -0.463319 0
-0.595582 -1.57544 0
0.0626915 -0.419385 0
-0.595536 -1.76704 0
0.0614467 -0.429556 0
0.246659 -0.973902 0
0.0616886 -1.69246 0
0.0766878 -0.413989 0
-0.0473675 -1.70663 0
0.0588265 -0.471829 0
-0.808245 -1.63707 0
0.0675866 -0.480609 0
-0.00872603 -1.42599 0
0.282221 -0.97399 0
0.657919 -1.74454 0
0.05 -0.482821 0
0.109483 -1.30621 0
0.180563 -0.644528 0
-0.0153998 -1.9459 0
-0.101358 -0.717335 0
-0.386455 -0.922724 0
0.071378 -0.889948 0
-0.196386 -0.711354 0
0.0118395 -0.381588 0
0.171175 -0.829116 0
-0.00854113 -0.349962 0
0.149799 -0.767665 0
-0.0240388 -0.349931 0
0.065148 -0.623877 0
0.130344 -0.617918 0
0.302382 -1.30006 0
0.220312 -0.706056 0
0.215823 -2.00298 0
0.160693 -0.664753 0
0.420141 -1.08842 0
0.16446 -0.709883 0
0.413679 -1.87932 0
-0.109664 -0.820854 0
-0.468148 -1.08153 0
0.094822 -0.940464 0
-0.155201 -0.620986 0
0.0151584 -1.00961 0
0.278112 -0.773521 0
0.349572 -1.94568 0
0.0262033 -0.982539 0
0.00959314 -0.958904 0
-0.126039 -0.787082 0
-0.462947 -1.18903 0
0.149575 -0.697142 0
0.184127 -1.79075 0
0.0010407 -1.00113 0
0.107828 -0.771286 0
0.0560907 -0.654109 0
0.0482252 -0.659791 0
0.0475837 -0.592698 0
0.0518378 -0.557127 0
-0.0833518 -1.09735 0
0.0748593 -0.665328 0
-0.0200599 -1.05175 0
0.0249398 -1.40215 0
0.698019 -1.10195 0
0.0342793 -1.3357 0
0.697831 -1.21951 0
0.104907 -1.40781 0
0.595891 -0.994427 0
-0.00896901 -1.36304 0
0.680816 -0.946426 0
-0.0618913 -1.36803 0
0.71364 -0.921381 0
0.00712087 -1.21463 0
0.745432 -1.26355 0
-0.116794 -1.3448 0
0.635004 -0.850589 0
0.00293148 -0.197259 0
0.00700517 -0.200539 0
-0.000645316 -0.198805 0
0.00147168 -0.194451 0
-0.606573 -1.45568 0
0.00592018 -0.771097 0
-0.556661 -1.45945 0
-0.0131266 -0.727326 0
-0.526097 -1.25944 0
-0.0696311 -0.793228 0
-0.548781 -1.22004 0
-0.0658143 -0.893302 0
0.0534398 -0.958913 0
0.151698 -0.939983 0
0.146888 -0.792739 0
-0.0164146 -0.952525 0
0.153197 -0.937818 0
-0.50401 -1.44748 0
-0.0476962 -0.704123 0
-0.378122 -1.42031 0
-0.0500273 -0.724962 0
0.274985 -0.853281 0
-0.0389665 -0.667436 0
-0.117333 -0.780079 0
-0.372409 -0.991877 0
0.0172933 -0.831454 0
-0.116316 -0.64931 0
0.324347 -0.838245 0
-0.00053811 -0.846634 0
0.438335 -1.03774 0
0.121113 -0.709105 0
0.0441897 -0.9094 0
-0.107751 -0.608431 0
0.328137 -0.885707 0
0.00681605 -0.891467 0
0.450481 -1.03589 0
0.109067 -1.04854 0
0.494571 -1.04612 0
0.0668898 -1.06522 0
0.231432 -0.751323 0
-0.0146727 -0.647376 0
0.420686 -0.942582 0
0.0720001 -0.714784 0
-0.299334 -1.381 0
-0.0585062 -0.652052 0
-0.433785 -1.46523 0
-0.0433252 -0.674249 0
-0.386192 -1.26036 0
-0.0386653 -0.609641 0
-0.230265 -1.23819 0
-0.0582626 -0.623765 0
-0.456744 -1.27526 0
-0.00966934 -0.618655 0
-0.550547 -1.58085 0
-0.00215396 -0.670044 0
-0.644557 -1.54014 0
0.0304894 -0.652306 0
0.0329987 -0.568967 0
-0.763074 -1.61548 0
0.242688 -1.04123 0
0.229342 -1.01391 0
0.0464827 -0.397176 0
-0.322555 -1.22038 0
0.348025 -1.04098 0
0.0284989 -0.378249 0
-0.293523 -1.07726 0
-0.000787644 -0.205137 0
0.255613 -1.00726 0
0.015209 -0.406244 0
-0.418516 -1.09518 0
0.26416 -1.00923 0
0.257028 -0.985639 0
0.185149 -0.727086 0
0.077792 -0.867476 0
-0.0969147 -0.632622 0
0.446238 -1.25354 0
0.00755203 -0.199711 0
0.240678 -0.997567 0
0.203517 -1.10024 0
0.0424349 -0.896457 0
-0.115295 -0.729459 0
0.451113 -1.11555 0
0.130823 -1.12077 0
0.205613 -1.07858 0
0.196732 -0.908712 0
0.136182 -0.907613 0
0.157004 -0.67992 0
0.580478 -1.10692 0
0.110056 -0.928435 0
0.463908 -1.0776 0
0.105741 -0.940687 0
0.40467 -1.0651 0
0.140412 -0.766642 0
0.480964 -1.16793 0
0.141235 -0.727328 0
0.0890132 -1.14635 0
0.00806668 -0.948632 0
0.388117 -1.05062 0
0.0620636 -1.25567 0
0.790529 -0.910147 0
0.285292 -1.06402 0
0.167983 -1.14111 0
0.818564 -0.977842 0
-0.309725 -0.783438 0
-0.0608866 -0.762108 0
-0.331013 -0.910586 0
0.0562828 -0.830146 0
0.111471 -1.17085 0
0.174335 -1.07962 0
-0.583293 -1.47021 0
0.0109069 -0.605283 0
-0.0196994 -0.639648 0
-0.0205757 -0.678584 0
-0.142342 -0.682522 0
-0.151493 -0.592661 0
-0.0664664 -1.94008 0
0.111858 -0.484863 0
-0.279339 -0.661918 0
0.0941113 -0.923312 0
-0.0763589 -0.734458 0
-0.0898314 -0.581341 0
-0.0376161 -0.51503 0
-0.0902005 -0.553298 0
-0.0442257 -0.788083 0
0.035778 -0.481397 0
-0.678275 -1.49463 0
0.239146 -1.02892 0
0.474804 -1.25233 0
-0.247412 -1.32982 0
0.0489599 -0.890129 0
0.205108 -1.10822 0
0.248952 -1.04893 0
0.557893 -1.14511 0
0.240504 -0.969703 0
0.673088 -1.08573 0
0.35756 -0.984109 0
-0.0165851 -0.550519 0
-0.259264 -0.625133 0
-0.00714284 -0.775558 0
-0.0651163 -0.431711 0
-0.108472 -0.750829 0
0.267063 -1.04691 0
0.255202 -1.01086 0
0.393842 -1.36044 0
-0.278721 -1.15065 0
0.0720634 -0.84652 0
0.00572374 -0.206367 0
0.267067 -1.04258 0
0.671041 -1.29444 0
0.239406 -1.00044 0
0.659655 -1.15359 0
-0.199155 -0.62762 0
-0.0783577 -0.679032 0
-0.100076 -1.07068 0
-0.0596612 -0.674203 0
-0.0894758 -0.489566 0
0.0168329 -0.651532 0
-0.155544 -0.86425 0
0.129666 -1.01942 0
-0.198535 -0.457366 0
-0.38802 -1.69952 0
0.0618062 -0.412998 0
-0.0312983 -0.386928 0
0.0655958 -0.74523 0
-0.00365954 -0.35202 0
-0.0190165 -0.9115 0
-0.0644306 -0.648024 0
0.109445 -1.32465 0
-0.0980492 -0.427959 0
0.295601 -0.967304 0
0.601696 -1.78184 0
-0.0524283 -1.63367 0
0.0815537 -0.441565 0
-0.113265 -0.419444 0
-0.0276271 -0.712987 0
0.000662689 -0.672026 0
0.237612 -0.899045 0
0.560425 -1.80229 0
-0.190916 -1.70985 0
0.0645855 -0.429171 0
-0.110473 -0.346975 0
-0.0319823 -0.594878 0
-0.0212935 -0.331661 0
-0.0167771 -0.860081 0
-0.235176 -0.74281 0
0.219964 -0.951386 0
0.519318 -1.31535 0
0.125596 -1.8631 0
0.122996 -0.550241 0
-0.113637 -0.47061 0
-0.0904302 -0.721505 0
-0.00785721 -1.08575 0
-0.0528652 -0.640273 0
0.0474998 -0.817961 0
-0.188349 -0.969632 0
0.0388857 -1.0136 0
-0.268005 -0.634085 0
0.0426185 -0.854828 0
-0.257959 -1.57294 0
0.0652321 -0.403559 0
-0.013828 -0.598371 0
0.0399243 -0.837098 0
0.0969772 -0.709629 0
-0.0150401 -0.880879 0
0.201261 -1.16956 0
-0.175885 -1.05394 0
0.0426744 -0.920778 0
-0.0543673 -0.656958 0
0.17253 -0.667324 0
0.318022 -0.968591 0
0.490947 -2.00964 0
-0.142354 -0.526213 0
-0.0721805 -0.293376 0
-0.276811 -0.700874 0
-0.0808638 -0.721183 0
-0.0659019 -0.530192 0
-0.0419861 -0.863116 0
0.0036937 -0.186396 0
0.300921 -1.10855 0
-0.117183 -1.18746 0
0.0196601 -0.897461 0
0.0241133 -1.42603 0
0.784274 -0.962704 0
0.123935 -1.20411 0
0.776957 -0.958001 0
-0.22076 -1.10432 0
0.0619317 -0.892684 0
-0.0465835 -0.405969 0
-0.135284 -0.835695 0
-0.231565 -0.948727 0
-0.193878 -0.539683 0
-0.0505562 -0.735414 0
-0.214447 -1.87607 0
0.103202 -0.448469 0
-0.273211 -0.900172 0
0.000532268 -1.25647 0
-0.156236 -1.2481 0
0.0415335 -0.872257 0
0.32546 -1.04521 0
-0.112393 -1.13596 0
0.0109273 -0.886816 0
-0.0153015 -0.214491 0
-0.209498 -0.98193 0
-0.0538672 -0.830242 0
-0.0167559 -0.296481 0
-0.199689 -0.983534 0
0.0916465 -0.976611 0
0.0421808 -1.05228 0
-0.0519788 -0.703524 0
-0.334863 -1.52073 0
0.0586392 -0.481935 0
-0.0764333 -0.356896 0
-0.161847 -0.988834 0
0.0192202 -0.964315 0
0.226613 -1.07214 0
-0.158289 -0.477805 0
0.187447 -0.771255 0
0.297922 -0.836902 0
0.370537 -2.27587 0
-0.0388286 -0.256304 0
-0.152945 -0.849549 0
-0.0571074 -0.280617 0
0.223319 -0.91984 0
0.247153 -0.93392 0
0.507291 -1.81338 0
0.10944 -1.71473 0
0.0815967 -0.453435 0
-0.222521 -0.529374 0
-0.0800902 -0.363158 0
-0.0487831 -0.354793 0
-0.154234 -0.882827 0
0.0227627 -0.647141 0
-0.72236 -1.45065 0
0.260313 -0.846891 0
0.355466 -1.77931 0
0.0231049 -0.925363 0
0.0160335 -0.835559 0
0.313952 -0.906772 0
0.432809 -2.14999 0
0.00075392 -0.871822 0
0.0322282 -0.651212 0
-0.717837 -1.4969 0
-0.0052073 -0.920664 0
-0.01704 -0.311964 0
0.0377373 -0.48878 0
-0.0140967 -0.310773 0
0.0536833 -0.451232 0
-0.0351234 -0.315556 0
0.0665561 -0.491617 0
-0.0501858 -0.320695 0
0.0335358 -0.490038 0
-0.0339785 -0.331045 0
0.0411642 -0.593837 0
-0.0175238 -1.38607 0
0.621195 -0.940522 0
-0.0502624 -0.332448 0
0.0324266 -0.529209 0
-0.0420383 -0.339298 0
0.0937171 -0.550111 0
-0.100544 -0.535597 0
-0.0556227 -0.297191 0
-0.156999 -1.4353 0
0.0540987 -0.432999 0
-0.0280464 -0.344917 0
0.122165 -0.650379 0
0.327288 -1.32859 0
-0.00310406 -0.510372 0
0.326167 -0.835236 0
-0.0155778 -0.379967 0
0.232458 -0.73009 0
-0.0321377 -0.367408 0
0.176492 -0.624045 0
-0.0328013 -0.516591 0
0.265844 -0.74066 0
-0.186859 -0.678084 0
-0.236599 -1.72455 0
0.0759673 -0.425888 0
-0.0222767 -0.510047 0
0.140601 -0.603195 0
-0.452851 -1.56619 0
0.0585461 -0.391625 0
-0.0458016 -0.514765 0
0.197902 -0.670834 0
-0.0370828 -0.376163 0
0.125426 -0.540705 0
-0.127826 -0.616243 0
0.0299521 -1.30017 0
-0.146237 -0.418964 0
-0.400239 -1.76975 0
0.0478199 -0.398685 0
-0.0195446 -0.398387 0
0.0898848 -0.485792 0
-0.00984743 -0.21096 0
-0.14868 -1.07616 0
-0.0361393 -0.357751 0
-0.158346 -0.867485 0
-0.0160539 -0.263478 0
-0.0455582 -1.14287 0
-0.0449641 -0.262516 0
-0.0973634 -1.04009 0
-0.0369181 -0.238988 0
-0.120297 -1.04455 0
-0.0130795 -0.231609 0
-0.0814767 -1.04402 0
0.313599 -2.04871 0
0.341775 -0.818997 0
0.415012 -1.30372 0
0.0593003 -0.373287 0
-0.16082 -1.22049 0
0.401851 -1.18576 0
0.0443271 -0.360042 0
-0.142585 -1.02436 0
0.282811 -1.12239 0
-0.21572 -0.622302 0
-0.393198 -1.36767 0
0.0540819 -0.391379 0
-0.17709 -0.946426 0
0.0443635 -1.01931 0
-0.214777 -1.37971 0
0.0595594 -0.398705 0
-0.181303 -0.826188 0
-0.271059 -1.76773 0
0.0815644 -0.405283 0
-0.314132 -0.8519 0
-0.0186436 -0.824393 0
-0.13936 -0.560391 0
-0.0598762 -0.71387 0
-0.00411252 -0.192888 0
-0.230383 -1.15814 0
0.00419024 -0.218866 0
-0.0245569 -0.223443 0
-0.129361 -0.97816 0
0.282734 -2.16403 0
0.358951 -0.7994 0
-0.00263912 -0.271087 0
-0.140118 -1.05186 0
0.1524 -2.38869 0
0.372652 -0.838851 0
-0.0271106 -0.243056 0
-0.174935 -0.858144 0
0.163111 -2.20769 0
0.290227 -0.766607 0
-0.00262153 -0.206246 0
-0.235278 -0.959187 0
-0.0127266 -0.280955 0
-0.182136 -0.950209 0
0.0548426 -0.382901 0
-0.00134038 -1.22466 0
0.0854433 -0.489405 0
0.16766 -1.3258 0
0.0982528 -0.523157 0
0.177518 -1.60437 0
0.0806771 -0.398529 0
0.00240306 -1.2943 0
-0.0632062 -1.29429 0
0.814852 -0.886645 0
-0.0339677 -1.17311 0
0.755355 -0.819478 0
-0.0849684 -1.23036 0
0.723662 -0.836051 0
-0.147889 -1.31442 0
0.711455 -0.850649 0
-0.144351 -0.480229 0
0.00182677 -1.37915 0
0.617673 -1.03229 0
-0.0181412 -1.37123 0
0.777347 -1.08464 0
-0.151486 -0.440374 0
-0.0376138 -1.4103 0
0.781623 -1.1832 0
0.00296757 -1.25763 0
0.719703 -1.19494 0
-0.191965 -1.02933 0
-0.124563 -0.985366 0
-0.125813 -1.03459 0
-0.175512 -1.13328 0
0.365078 -0.869544 0
0.518819 -0.912932 0
0.475986 -0.953896 0
0.278536 -0.870173 0
-0.0225854 -1.01836 0
0.00456492 -1.0574 0
0.00272053 -0.935453 0
-0.0370009 -0.967947 0
0.0296896 -0.360468 0
-0.136172 -0.880178 0
0.0119709 -0.344253 0
-0.260765 -0.942483 0
-0.0025669 -0.328384 0
-0.161273 -0.82517 0
0.0137652 -0.342675 0
-0.0600095 -0.775305 0
0.371501 -1.58059 0
0.144061 -0.700635 0
0.156776 -1.5595 0
0.134593 -0.684703 0
0.223368 -1.41309 0
0.130829 -0.674913 0
0.385365 -1.38466 0
0.152274 -0.682419 0
-0.0484258 -0.616452 0
-0.0346895 -0.667218 0
-0.0100097 -0.707507 0
-0.0306688 -0.629452 0
0.0813311 -1.47903 0
0.0882293 -1.37098 0
0.0703168 -1.32955 0
0.0653905 -1.46975 0
-0.0161084 -0.626879 0
0.0369324 -1.00173 0
-0.0339952 -0.512153 0
0.0352841 -1.21616 0
-0.063279 -0.49203 0
0.0755559 -1.19689 0
-0.0523547 -0.615077 0
0.100005 -1.05014 0
0.0151772 -0.641205 0
-0.000405095 -0.619569 0
-0.0222817 -0.790033 0
0.00248296 -0.736692 0
0.489473 -1.30371 0
0.461866 -1.41722 0
0.493758 -1.43269 0
0.468047 -1.25567 0
0.0824213 -0.454871 0
-0.0472465 -1.77163 0
0.0786368 -0.419781 0
0.00125756 -1.53981 0
0.100245 -0.522667 0
0.14169 -1.66314 0
0.116175 -0.557931 0
0.0625158 -1.68703 0
0.0038362 -0.798082 0
-0.00671579 -0.790177 0
0.0202752 -0.786919 0
0.024676 -0.766715 0
0.00465244 -1.48497 0
0.0122238 -1.33959 0
0.0570546 -1.39877 0
0.0225584 -1.46448 0
0.461502 -1.25595 0
0.627961 -1.28667 0
0.630711 -1.24459 0
0.795832 -1.39552 0
0.649208 -1.46036 0
0.235066 -0.880759 0
0.213553 -0.767266 0
0.354274 -0.868843 0
0.267119 -0.843817 0
-0.0528926 -1.17778 0
-0.0169987 -0.346332 0
-0.117394 -1.14708 0
-0.0312407 -0.375804 0
-0.0204066 -1.15386 0
-0.0560634 -0.458794 0
0.00541725 -1.29697 0
-0.0394379 -0.440899 0
0.498105 -0.900042 0
0.105828 -1.51669 0
0.477744 -0.908697 0
0.0217774 -1.52112 0
0.461957 -0.964347 0
0.0431033 -1.3343 0
0.485713 -0.950157 0
0.0696863 -1.36435 0
0.328098 -0.744408 0
0.0310087 -1.50071 0
0.39417 -0.767683 0
0.0779964 -1.41476 0
0.353997 -0.840315 0
0.092181 -1.18366 0
0.343194 -0.832466 0
0.0272596 -1.09839 0
-0.0146045 -0.979562 0
-0.0365369 -0.959039 0
-0.0126734 -0.956742 0
-0.0199247 -0.955038 0
-0.0493932 -0.470331 0
-0.147549 -0.880603 0
-0.0274426 -0.361557 0
-0.080662 -0.678537 0
-0.0237515 -0.385214 0
-0.151732 -0.786494 0
-0.0389317 -0.498472 0
-0.303813 -1.03639 0
-0.049243 -0.400828 0
-0.13837 -0.87976 0
-0.06047 -0.509336 0
-0.0394973 -1.02227 0
-0.0611038 -0.483098 0
-0.03728 -1.09883 0
-0.0421298 -0.402351 0
-0.140349 -1.00994 0
-0.0215901 -0.330491 0
0.00531651 -0.670808 0
-0.0027475 -0.327562 0
-0.00952504 -0.706046 0
-0.00918981 -0.31472 0
-0.0582564 -0.732566 0
-0.0140025 -0.3176 0
-0.0429182 -0.699355 0
0.0110801 -0.570129 0
0.00323982 -0.590353 0
-0.0073903 -0.756008 0
0.000519273 -0.738774 0
0.0113218 -1.61589 0
0.037357 -1.51888 0
0.0850572 -1.35862 0
0.0307412 -1.34592 0
0.678874 -1.3324 0
0.621223 -1.29144 0
0.624814 -1.42879 0
0.666241 -1.41637 0
-0.428715 -1.01033 0
-0.0312739 -0.805737 0
-0.296 -0.865525 0
0.025957 -0.83484 0
-0.190347 -0.704235 0
-0.0135996 -0.803468 0
-0.288441 -0.7696 0
-0.0587755 -0.756324 0
-0.133678 -0.605106 0
0.118768 -0.993538 0
-0.0919773 -0.594306 0