# vtk DataFile Version 2.0
Unstructured Grid by M++
ASCII
DATASET UNSTRUCTURED_GRID
POINTS 4225 float
  0.921875   0.593750 0
  0.921875   0.609375 0
  0.656250   0.609375 0
  0.671875   0.609375 0
  0.656250   0.546875 0
  0.671875   0.546875 0
  0.656250   0.562500 0
  0.656250   0.578125 0
  0.656250   0.593750 0
  0.671875   0.593750 0
  0.671875   0.562500 0
  0.671875   0.578125 0
  0.671875   0.625000 0
  0.671875   0.640625 0
  0.906250   0.578125 0
  0.890625   0.578125 0
  0.546875   0.515625 0
  1.000000   0.890625 0
  0.515625   0.640625 0
  0.515625   0.625000 0
  1.000000   0.875000 0
  0.515625   0.656250 0
  0.515625   0.687500 0
  0.515625   0.671875 0
  1.000000   0.921875 0
  0.546875   0.531250 0
  0.546875   0.546875 0
  0.546875   0.562500 0
  0.796875   0.531250 0
  0.953125   0.890625 0
  0.953125   0.875000 0
  0.953125   0.843750 0
  0.953125   0.828125 0
  0.953125   0.812500 0
  0.531250   0.562500 0
  0.531250   0.546875 0
  0.515625   0.562500 0
  0.515625   0.546875 0
  1.000000   0.812500 0
  0.781250   0.546875 0
  0.765625   0.546875 0
  0.859375   0.921875 0
  0.921875   0.671875 0
  0.609375   0.906250 0
  0.671875   0.656250 0
  0.609375   0.921875 0
  0.671875   0.671875 0
  0.671875   0.984375 0
  0.671875   1.000000 0
  0.906250   0.984375 0
  0.906250   1.000000 0
  0.921875   0.984375 0
  0.921875   1.000000 0
  0.859375   0.609375 0
  1.000000   0.781250 0
  0.515625   0.531250 0
  0.531250   0.531250 0
  0.531250   0.515625 0
  0.515625   0.515625 0
  1.000000   0.750000 0
  0.765625   0.531250 0
  0.781250   0.531250 0
  0.781250   0.515625 0
  0.765625   0.515625 0
  0.859375   0.875000 0
  0.921875   0.625000 0
  0.859375   0.890625 0
  0.921875   0.640625 0
  0.671875   0.968750 0
  0.671875   0.953125 0
  0.921875   0.968750 0
  0.921875   0.953125 0
  0.859375   0.593750 0
  0.859375   0.578125 0
  0.875000   0.578125 0
  0.828125   0.890625 0
  0.890625   0.640625 0
  0.593750   0.890625 0
  0.656250   0.640625 0
  0.593750   0.875000 0
  0.656250   0.625000 0
  0.578125   0.890625 0
  0.640625   0.640625 0
  0.578125   0.875000 0
  0.640625   0.625000 0
  0.968750   0.890625 0
  0.984375   0.890625 0
  0.968750   0.812500 0
  0.968750   0.828125 0
  0.984375   0.812500 0
  0.984375   0.828125 0
  1.000000   0.828125 0
  0.656250   0.953125 0
  0.640625   0.953125 0
  0.890625   0.968750 0
  0.906250   0.968750 0
  0.906250   0.953125 0
  0.890625   0.953125 0
  0.531250   0.703125 0
  0.531250   0.718750 0
  0.546875   0.718750 0
  0.546875   0.703125 0
  0.593750   0.578125 0
  0.562500   0.578125 0
  0.578125   0.578125 0
  0.843750   0.578125 0
  0.828125   0.578125 0
  0.828125   0.812500 0
  0.890625   0.562500 0
  0.828125   0.796875 0
  0.953125   0.906250 0
  0.953125   0.921875 0
  0.531250   0.859375 0
  0.593750   0.609375 0
  0.531250   0.843750 0
  0.593750   0.593750 0
  0.515625   0.843750 0
  0.578125   0.593750 0
  0.515625   0.859375 0
  0.578125   0.609375 0
  0.937500   0.859375 0
  1.000000   0.609375 0
  0.921875   0.859375 0
  0.984375   0.609375 0
  0.937500   0.796875 0
  0.921875   0.796875 0
  0.984375   0.546875 0
  0.562500   0.812500 0
  0.843750   0.796875 0
  0.843750   0.812500 0
  0.859375   0.796875 0
  0.859375   0.812500 0
  1.000000   0.906250 0
  0.984375   0.906250 0
  0.968750   0.906250 0
  0.968750   0.921875 0
  0.984375   0.921875 0
  0.593750   0.921875 0
  0.656250   0.671875 0
  0.593750   0.906250 0
  0.656250   0.656250 0
  0.578125   0.906250 0
  0.640625   0.656250 0
  0.578125   0.921875 0
  0.640625   0.671875 0
  1.000000   0.843750 0
  0.984375   0.843750 0
  0.968750   0.843750 0
  0.968750   0.859375 0
  0.968750   0.875000 0
  1.000000   0.859375 0
  0.984375   0.859375 0
  0.984375   0.875000 0
  0.656250   1.000000 0
  0.656250   0.984375 0
  0.656250   0.968750 0
  0.640625   0.968750 0
  0.640625   1.000000 0
  0.640625   0.984375 0
  0.843750   0.921875 0
  0.906250   0.671875 0
  0.843750   0.906250 0
  0.906250   0.656250 0
  0.828125   0.906250 0
  0.890625   0.656250 0
  0.828125   0.921875 0
  0.890625   0.671875 0
  0.781250   0.859375 0
  0.843750   0.609375 0
  0.781250   0.843750 0
  0.843750   0.593750 0
  0.765625   0.843750 0
  0.828125   0.593750 0
  0.765625   0.859375 0
  0.828125   0.609375 0
  0.968750   0.609375 0
  0.906250   0.859375 0
  0.953125   0.609375 0
  0.890625   0.859375 0
  0.937500   0.609375 0
  0.875000   0.859375 0
  0.562500   0.593750 0
  0.546875   0.593750 0
  0.531250   0.593750 0
  0.531250   0.609375 0
  0.562500   0.609375 0
  0.546875   0.609375 0
  0.609375   0.625000 0
  0.546875   0.875000 0
  0.609375   0.640625 0
  0.546875   0.890625 0
  0.625000   0.640625 0
  0.562500   0.890625 0
  0.625000   0.625000 0
  0.562500   0.875000 0
  0.921875   0.843750 0
  0.984375   0.593750 0
  0.937500   0.843750 0
  1.000000   0.593750 0
  0.921875   0.812500 0
  0.921875   0.828125 0
  0.984375   0.578125 0
  0.937500   0.828125 0
  1.000000   0.578125 0
  0.937500   0.812500 0
  1.000000   0.562500 0
  0.578125   0.828125 0
  0.921875   0.781250 0
  0.937500   0.781250 0
  1.000000   0.531250 0
  0.921875   0.765625 0
  0.984375   0.515625 0
  0.937500   0.765625 0
  0.625000   0.656250 0
  0.562500   0.906250 0
  0.609375   0.656250 0
  0.546875   0.906250 0
  0.625000   0.671875 0
  0.562500   0.921875 0
  0.609375   0.671875 0
  0.546875   0.921875 0
  0.859375   0.781250 0
  0.859375   0.765625 0
  0.828125   0.671875 0
  0.765625   0.921875 0
  0.828125   0.734375 0
  0.765625   0.984375 0
  0.875000   0.843750 0
  0.937500   0.593750 0
  0.890625   0.843750 0
  0.953125   0.593750 0
  0.906250   0.843750 0
  0.968750   0.593750 0
  0.906250   0.828125 0
  0.968750   0.578125 0
  0.937500   0.578125 0
  0.953125   0.578125 0
  0.906250   0.765625 0
  0.875000   0.765625 0
  0.953125   0.515625 0
  0.531250   0.781250 0
  0.671875   0.890625 0
  0.531250   0.921875 0
  0.953125   0.656250 0
  0.828125   0.781250 0
  0.843750   0.781250 0
  0.703125   0.984375 0
  0.687500   0.984375 0
  0.843750   0.875000 0
  0.906250   0.625000 0
  0.671875   0.781250 0
  0.734375   0.531250 0
  0.906250   0.609375 0
  0.671875   0.765625 0
  0.734375   0.515625 0
  0.906250   0.593750 0
  0.890625   0.593750 0
  0.875000   0.593750 0
  0.828125   0.875000 0
  0.890625   0.625000 0
  0.656250   0.781250 0
  0.718750   0.531250 0
  0.890625   0.609375 0
  0.656250   0.765625 0
  0.718750   0.515625 0
  0.875000   0.609375 0
  0.640625   0.765625 0
  0.703125   0.515625 0
  0.812500   0.921875 0
  0.875000   0.671875 0
  0.812500   0.875000 0
  0.875000   0.625000 0
  0.640625   0.781250 0
  0.703125   0.531250 0
  0.812500   0.515625 0
  0.750000   0.828125 0
  0.812500   0.578125 0
  0.687500   1.000000 0
  0.937500   0.656250 0
  0.875000   0.906250 0
  0.531250   0.656250 0
  0.890625   0.906250 0
  0.906250   0.906250 0
  0.562500   0.656250 0
  0.906250   0.890625 0
  0.562500   0.640625 0
  0.968750   0.625000 0
  0.906250   0.875000 0
  0.562500   0.625000 0
  0.937500   0.640625 0
  0.875000   0.890625 0
  0.890625   0.890625 0
  0.546875   0.640625 0
  0.953125   0.625000 0
  0.890625   0.875000 0
  0.546875   0.625000 0
  0.546875   0.687500 0
  0.890625   0.937500 0
  0.937500   0.625000 0
  0.875000   0.875000 0
  0.531250   0.625000 0
  0.531250   0.640625 0
  0.546875   0.656250 0
  0.937500   0.968750 0
  0.687500   0.968750 0
  0.953125   0.968750 0
  0.703125   0.968750 0
  0.968750   0.968750 0
  0.718750   0.968750 0
  0.718750   0.906250 0
  0.968750   0.953125 0
  0.718750   0.953125 0
  0.968750   0.937500 0
  0.859375   0.906250 0
  0.921875   0.656250 0
  0.718750   0.937500 0
  0.828125   0.531250 0
  0.937500   0.953125 0
  0.687500   0.953125 0
  0.953125   0.953125 0
  0.703125   0.953125 0
  0.703125   0.890625 0
  0.843750   0.515625 0
  0.953125   0.937500 0
  0.953125   1.000000 0
  0.703125   0.937500 0
  0.937500   0.937500 0
  0.687500   0.937500 0
  0.703125   0.906250 0
  0.718750   0.890625 0
  0.687500   0.890625 0
  0.687500   0.765625 0
  0.750000   0.515625 0
  0.687500   0.781250 0
  0.750000   0.531250 0
  0.859375   0.937500 0
  0.921875   0.687500 0
  0.687500   0.796875 0
  0.750000   0.546875 0
  0.578125   0.750000 0
  0.515625   1.000000 0
  0.843750   0.765625 0
  0.578125   0.734375 0
  0.515625   0.984375 0
  0.562500   0.734375 0
  0.828125   0.750000 0
  0.765625   1.000000 0
  0.562500   0.750000 0
  0.562500   0.718750 0
  0.578125   0.515625 0
  0.921875   0.703125 0
  0.921875   0.718750 0
  0.593750   0.515625 0
  0.687500   0.875000 0
  0.750000   0.625000 0
  0.578125   0.531250 0
  0.921875   0.750000 0
  0.703125   0.875000 0
  0.765625   0.625000 0
  0.593750   0.531250 0
  0.875000   0.968750 0
  0.937500   0.718750 0
  0.703125   0.828125 0
  0.765625   0.578125 0
  0.937500   0.734375 0
  0.703125   0.812500 0
  0.765625   0.562500 0
  0.890625   0.687500 0
  0.828125   0.937500 0
  0.656250   0.796875 0
  0.718750   0.546875 0
  0.890625   0.718750 0
  0.828125   0.968750 0
  0.906250   0.796875 0
  0.718750   0.828125 0
  0.781250   0.578125 0
  0.890625   0.703125 0
  0.828125   0.953125 0
  0.656250   0.859375 0
  0.906250   0.781250 0
  0.968750   0.531250 0
  0.546875   0.796875 0
  0.671875   0.796875 0
  0.734375   0.546875 0
  0.843750   0.953125 0
  0.906250   0.703125 0
  0.671875   0.875000 0
  0.718750   0.812500 0
  0.781250   0.562500 0
  0.875000   0.812500 0
  0.531250   0.890625 0
  0.593750   0.640625 0
  0.937500   0.890625 0
  0.875000   0.781250 0
  0.609375   0.703125 0
  0.546875   0.953125 0
  0.890625   0.796875 0
  0.625000   0.718750 0
  0.562500   0.968750 0
  0.906250   0.812500 0
  0.734375   0.859375 0
  0.796875   0.609375 0
  0.718750   0.875000 0
  0.781250   0.625000 0
  0.750000   0.859375 0
  0.812500   0.609375 0
  0.812500   0.546875 0
  0.750000   0.812500 0
  0.734375   0.843750 0
  0.796875   0.593750 0
  0.750000   0.843750 0
  0.812500   0.593750 0
[...]
CELL_DATA 4096
VECTORS vector_value float
-0.0902361 -0.5473 0
-0.0752229 -0.565505 0
-0.0520897 -0.603503 0
-0.0676647 -0.553687 0
-0.0312824 -0.445813 0
-0.0696371 -0.482284 0
-0.0802349 -0.509155 0
-0.0268386 -0.520957 0
-0.00317783 -0.473024 0
-0.0258597 -0.471106 0
-0.0268816 -0.418494 0
-0.0134896 -0.448104 0
-0.0297475 -0.613933 0
-0.0350896 -0.571834 0
-0.0105159 -0.542337 0
-0.00943264 -0.650384 0
-0.15703 -0.477197 0
-0.13169 -0.558941 0
-0.158084 -0.531939 0
-0.170604 -0.462242 0
-0.0729892 -0.612673 0
-0.099647 -0.570259 0
-0.13767 -0.533927 0
-0.0990795 -0.561497 0
-0.0366232 -0.749281 0
-0.0710767 -0.654904 0
-0.0235079 -0.688586 0
0.0551937 -0.823174 0
-0.0190314 -0.62929 0
-0.0356048 -0.587003 0
-0.0246045 -0.580822 0
-0.014126 -0.532337 0
-0.149205 -0.616108 0
-0.10996 -0.615511 0
-0.100865 -0.750173 0
-0.134661 -0.734129 0
-0.0195911 -0.629478 0
-0.0248997 -0.574298 0
-0.001197 -0.537439 0
-0.00823886 -0.651479 0
-0.030193 -0.488492 0
-0.00410471 -0.50235 0
-0.0333271 -0.576639 0
-0.0391606 -0.645576 0
0.0536325 -1.2822 0
0.179023 -1.32763 0
0.0310359 -1.26146 0
-0.0158918 -1.21874 0
0.00400776 -0.439632 0
0.0177501 -0.42907 0
0.0271619 -0.507057 0
-0.00478971 -0.481592 0
-0.0865714 -1.17008 0
-0.0986714 -1.11564 0
-0.136198 -0.963098 0
-0.120258 -0.947844 0
-0.0162133 -0.469094 0
-0.0274752 -0.472417 0
-0.0137702 -0.51478 0
-0.00724379 -0.450369 0
-0.124806 -0.868977 0
-0.115532 -0.782851 0
-0.174005 -0.781091 0
-0.18682 -0.808152 0
-0.0811096 -0.821336 0
-0.0754087 -0.818436 0
-0.0679172 -0.725508 0
-0.0566096 -0.721031 0
0.100628 -1.18646 0
0.0719762 -1.21964 0
0.0687164 -1.28144 0
0.132802 -1.23164 0
0.508248 -0.668895 0
0.470776 -0.659351 0
0.490716 -0.746181 0
0.506238 -0.713631 0
-0.05709 -1.13449 0
-0.0833679 -0.930285 0
-0.0500116 -0.95089 0
-0.0305873 -1.15009 0
0.00708871 -0.466546 0
0.00495075 -0.447924 0
-0.010874 -0.429123 0
-0.00554831 -0.448502 0
-0.0560901 -0.384066 0
-0.0472774 -0.385603 0
-0.0431351 -0.408902 0
-0.056353 -0.398236 0
0.551262 -0.774647 0
0.494777 -0.661469 0
0.529923 -0.703928 0
0.520202 -0.77623 0
-0.0641078 -0.918414 0
-0.0736533 -0.90615 0
-0.0528491 -1.0964 0
-0.0449235 -1.05719 0
-0.0310732 -0.383511 0
-0.0308617 -0.419801 0
-0.0114622 -0.422348 0
-0.0159472 -0.367216 0
-0.0337617 -0.434025 0
-0.0122655 -0.416037 0
-0.0385458 -0.400795 0
-0.054722 -0.39775 0
0.412225 -0.677772 0
0.407846 -0.642976 0
0.419496 -0.710571 0
0.407305 -0.687848 0
-0.133098 -0.696438 0
-0.0918231 -0.765344 0
-0.0681257 -0.727214 0
-0.0814882 -0.664328 0
-0.0503873 -0.504929 0
-0.0376287 -0.479644 0
-0.0433443 -0.444718 0
-0.0605435 -0.456371 0
-0.0202785 -0.508437 0
-0.0413042 -0.513897 0
-0.0415267 -0.453047 0
-0.0196903 -0.457921 0
0.424253 -0.752093 0
0.439948 -0.679624 0
0.398977 -0.661215 0
0.338395 -0.662817 0
0.121849 -0.743763 0
0.0975065 -0.689103 0
0.0607583 -0.682436 0
0.0966578 -0.691008 0
-0.023371 -0.551819 0
0.00355755 -0.470497 0
0.00949603 -0.449354 0
-0.0165707 -0.52159 0
-0.0513761 -0.64193 0
-0.0515006 -0.482027 0
-0.0505234 -0.500312 0
-0.045773 -0.610347 0
0.0124406 -1.15424 0
0.035884 -1.13183 0
-0.00759387 -1.17719 0
-0.030639 -1.23268 0
0.110067 -0.40267 0
0.109853 -0.426203 0
0.0937682 -0.341856 0
0.106372 -0.371355 0
0.293387 -0.828361 0
0.191333 -0.775634 0
0.191526 -0.890104 0
0.270552 -0.892141 0
0.0666169 -0.315097 0
0.104881 -0.404994 0
0.0953271 -0.337899 0
0.0641111 -0.291164 0
0.117759 -0.412132 0
0.138571 -0.424839 0
0.120608 -0.41518 0
0.102887 -0.385027 0
0.864902 -2.95157 0
0.743988 -2.39896 0
0.828316 -2.46915 0
0.822856 -2.94404 0
0.201934 -0.44794 0
0.164254 -0.450635 0
0.171699 -0.498426 0
0.164252 -0.532663 0
0.54869 -2.12206 0
0.667291 -2.25875 0
0.7952 -2.7361 0
0.661669 -2.65968 0
0.147433 -0.470945 0
0.15213 -0.496585 0
0.116496 -0.466596 0
0.115953 -0.502276 0
0.123328 -0.638975 0
0.12831 -0.52411 0
0.108223 -0.555554 0
0.0838243 -0.582629 0
0.169893 -0.531881 0
0.168287 -0.449543 0
0.201852 -0.471498 0
0.234179 -0.555956 0
0.414281 -1.47504 0
0.550752 -2.02915 0
0.425825 -1.8506 0
0.281482 -1.35749 0
0.0285975 -0.609187 0
0.0713808 -0.692165 0
0.13641 -0.625246 0
0.0897515 -0.566955 0
0.135346 -0.479737 0
0.130436 -0.47643 0
0.154671 -0.662584 0
0.152742 -0.620144 0
0.108381 -0.512445 0
0.138476 -0.486086 0
0.107811 -0.5411 0
0.0843833 -0.574875 0
0.804249 -1.98775 0
0.692671 -2.07358 0
0.545654 -1.63542 0
0.766692 -1.93885 0
0.150295 -0.644427 0
0.154435 -0.464548 0
-0.0323147 -0.571488 0
-0.0323481 -0.624182 0
0.122449 -0.719362 0
0.0572501 -1.11146 0
0.112904 -0.723065 0
0.111498 -0.856436 0
0.410819 -1.05276 0
0.208425 -0.816092 0
0.373147 -0.921243 0
0.2648 -0.9347 0
-0.176936 -0.458935 0
0.456249 -1.13285 0
-0.185357 -0.44679 0
0.155004 -0.585584 0
-0.068889 -0.499507 0
0.153943 -0.631404 0
-0.107674 -0.505351 0
0.259943 -0.737356 0
-0.123941 -0.454622 0
0.196995 -0.640029 0
-0.102382 -0.493594 0
0.272811 -0.933052 0
0.251398 -0.924306 0
0.187669 -0.910173 0
0.409782 -1.08412 0
0.401145 -0.987559 0
0.34082 -1.02794 0
0.224056 -0.475005 0
0.311603 -0.85692 0
0.36483 -0.874424 0
0.379319 -0.956854 0
0.0258028 -0.244648 0
0.423842 -0.967124 0
-0.0138494 -0.301548 0
0.440167 -0.961164 0
-0.00642671 -0.23291 0
0.163974 -0.709352 0
0.0722745 -0.356016 0
0.0216353 -0.57306 0
0.125836 -0.40541 0
-0.065231 -0.712638 0
0.449458 -0.693437 0
-0.03388 -0.739464 0
0.527232 -0.705217 0
0.410641 -1.02294 0
-0.1717 -0.877609 0
0.328356 -1.32748 0
-0.124006 -0.968078 0
0.403445 -0.981836 0
-0.0690725 -0.988894 0
-0.110244 -1.10074 0
0.342015 -0.954958 0
0.0143695 -1.34627 0
0.404426 -1.06708 0
-0.0644077 -1.25991 0
-0.20232 -0.853086 0
0.465923 -1.01391 0
-0.117821 -0.961378 0
-0.100833 -0.84494 0
0.448999 -0.807047 0
-0.0831697 -0.837061 0
0.458079 -0.741842 0
-0.0685915 -0.769472 0
0.533918 -0.759852 0
-0.0652558 -0.785782 0
-0.0119296 -0.753301 0
-0.12169 -0.731012 0
0.319251 -0.80782 0
0.375724 -0.816968 0
-0.0980125 -0.854499 0
0.47067 -0.722739 0
0.167133 -0.851416 0
0.0795641 -0.297539 0
0.127202 -0.768946 0
0.152843 -0.254619 0
0.0492728 -0.80867 0
0.154686 -0.306374 0
-0.131695 -0.538645 0
0.266899 -0.755047 0
-0.11422 -0.585913 0
0.189106 -0.701518 0
0.234829 -0.851577 0
0.0756705 -0.245923 0
-0.0699242 -0.557563 0
0.171985 -0.616604 0
-0.098749 -0.522256 0
0.220425 -0.640061 0
-0.0113401 -0.47916 0
0.10401 -0.719862 0
0.0125599 -0.996151 0
0.271344 -0.763254 0
0.0552487 -0.300278 0
0.303373 -0.808857 0
0.0799067 -0.329401 0
0.342812 -0.774913 0
0.0536577 -0.268997 0
0.358915 -0.929523 0
0.049978 -0.897707 0
0.0715766 -0.217302 0
0.352756 -0.858391 0
0.0448895 -0.203455 0
0.204139 -0.716387 0
0.0921373 -0.364432 0
0.330941 -0.811837 0
0.0512003 -0.25275 0
0.130536 -0.750447 0
-0.0244896 -0.660961 0
0.332834 -0.790166 0
0.0561947 -0.255623 0
0.307928 -0.907673 0
0.0291694 -0.296915 0
-0.0675098 -0.79489 0
0.329769 -0.847329 0
-0.104219 -0.649153 0
0.100801 -0.741394 0
0.0958257 -0.660208 0
-0.0919979 -0.560236 0
0.110858 -0.60961 0
-0.05742 -0.585583 0
0.0540227 -0.57927 0
-0.0226396 -0.624802 0
0.408541 -1.04505 0
-0.170854 -0.438271 0
0.235693 -0.883553 0
0.0326379 -0.32857 0
0.386936 -1.06657 0
-0.181524 -0.435106 0
0.282422 -0.926059 0
-0.0389268 -0.435808 0
-0.107277 -0.879453 0
0.367714 -0.759222 0
-0.0170424 -0.628539 0
0.0640695 -0.743056 0
-0.0136021 -0.814088 0
0.165011 -0.853376 0
0.0329828 -0.423322 0
-0.033544 -0.617969 0
-0.0175694 -0.635605 0
-0.0944769 -0.853889 0
0.405185 -0.738367 0
0.368023 -0.96411 0
-0.0300085 -0.336438 0
-0.00602589 -0.835149 0
0.0243265 -0.849381 0
0.389734 -0.939708 0
0.0182392 -0.745436 0
0.367143 -1.00281 0
0.429096 -1.11745 0
0.0143909 -0.479027 0
0.319651 -0.932566 0
0.00447224 -0.494985 0
0.287615 -1.52196 0
-0.0634517 -1.0311 0
0.235538 -1.70757 0
-0.0197154 -1.10558 0
0.31485 -1.6858 0
-0.041239 -1.04388 0
0.290159 -1.12339 0
0.0782142 -1.3608 0
0.273854 -1.05424 0
0.211026 -1.61278 0
0.206394 -1.6316 0
-0.0311753 -1.15294 0
0.246492 -1.33635 0
0.589887 -1.99455 0
-0.0291199 -0.955027 0
-0.0836858 -1.07882 0
-0.0949902 -1.13036 0
-0.0373605 -1.02097 0
0.276348 -0.515116 0
-0.11931 -0.578629 0
0.351548 -0.574069 0
-0.101381 -0.532107 0
0.401823 -0.684106 0
-0.0937496 -0.720909 0
0.34337 -0.632064 0
-0.133726 -0.676415 0
-0.154111 -0.687186 0
0.243008 -0.794867 0
0.149798 -0.936462 0
-0.147958 -0.671739 0
0.109614 -0.736651 0
0.432271 -0.629037 0
-0.0908947 -0.593338 0
0.500027 -0.659741 0
-0.0328128 -0.589865 0
-0.0465739 -0.605158 0
0.113317 -0.634028 0
-0.0967726 -0.841847 0
0.393253 -0.841871 0
-0.0430064 -0.654534 0
0.112265 -0.930078 0
-0.0673714 -0.694829 0
0.0415382 -0.681247 0
-0.162154 -0.466828 0
0.355029 -0.799528 0
0.00619062 -0.57366 0
0.0501879 -0.939483 0
-0.112059 -0.643658 0
0.114164 -0.692477 0
-0.177403 -0.575204 0
0.363859 -0.783707 0
-0.133952 -0.499363 0
0.340539 -0.809255 0
0.0144147 -0.706646 0
0.0333566 -0.620732 0
-0.144006 -0.529359 0
0.270895 -0.69796 0
0.466746 -0.700566 0
-0.0577634 -0.589438 0
0.377732 -0.651913 0
-0.0992968 -0.550943 0
0.301718 -0.601562 0
-0.091228 -0.521959 0
0.397246 -0.684417 0
-0.0745607 -0.504408 0
0.238447 -0.54571 0
-0.0856133 -0.538564 0
0.293868 -0.581048 0
-0.098008 -0.586801 0
0.222467 -0.535975 0
-0.0749255 -0.616778 0
0.0157727 -0.629606 0
0.133523 -0.441773 0
0.367588 -0.813832 0
0.282623 -0.925051 0
0.189813 -0.735472 0
0.0188411 -0.296167 0
0.0749173 -1.06082 0
0.0808448 -0.772193 0
0.0272927 -0.35584 0
-0.071486 -1.15962 0
0.084429 -1.05373 0
0.0581626 -0.633837 0
0.0866386 -0.408164 0
0.0446978 -0.861628 0
0.275713 -0.833055 0
0.403387 -1.05317 0
-0.0397004 -0.478939 0
0.0784184 -0.755076 0
0.012807 -1.10394 0
-0.0651161 -1.02477 0
0.0665603 -0.887283 0
0.103001 -0.963317 0
-0.0112941 -0.621456 0
0.112121 -0.691975 0
0.0710647 -1.11999 0
0.175673 -0.9135 0
0.155686 -0.859265 0
0.47062 -0.872482 0
0.533977 -0.899562 0
0.476689 -0.957833 0
-0.173792 -0.53398 0
0.418636 -0.843435 0
-0.171663 -0.552632 0
0.394041 -0.809914 0
-0.153487 -0.446096 0
0.338082 -0.822301 0
-0.174934 -0.456326 0
0.374868 -0.919032 0
0.522576 -0.847941 0
0.415992 -0.820488 0
-0.178333 -0.422856 0
0.252922 -0.879689 0
0.351245 -1.64804 0
0.027996 -0.936697 0
0.265993 -0.893181 0
0.190241 -1.24349 0
0.33238 -0.928279 0
-0.0748825 -0.735964 0
0.398675 -0.817617 0
-0.0833795 -0.770683 0
0.423397 -0.934442 0
0.419303 -0.797108 0
0.17127 -0.470944 0
-0.0518791 -0.517279 0
0.0183291 -0.810401 0
0.101563 -0.765161 0
0.182213 -0.832973 0
0.197011 -0.838978 0
0.0648939 -0.19943 0
0.353876 -0.856497 0
0.293781 -0.898621 0
-0.0571608 -0.686613 0
-0.0127129 -0.626727 0
0.0559578 -0.83696 0
0.0364107 -0.855463 0
0.0925358 -1.13377 0
0.0146048 -0.620774 0
0.0895354 -0.643472 0
0.109144 -0.380138 0
-0.0331198 -1.02508 0
0.531624 -1.50472 0
0.503655 -0.719135 0
-0.0377444 -0.739976 0
0.362844 -0.921809 0
0.0037892 -0.957661 0
0.355347 -1.3186 0
0.169019 -0.93454 0
0.155702 -0.970238 0
-0.146027 -0.427667 0
0.180369 -0.764146 0
0.291015 -1.03573 0
-0.0519104 -0.645175 0
0.0296655 -1.27449 0
0.0445767 -0.57055 0
0.257454 -0.801111 0
-0.062343 -0.897687 0
0.353796 -1.04262 0
0.456022 -0.66718 0
-0.0738262 -0.827237 0
-0.0151616 -0.903597 0
0.1508 -0.883901 0
0.0335331 -0.762944 0
0.0584649 -0.911421 0
0.250874 -1.12808 0
0.216814 -1.06413 0
-0.0258834 -0.713469 0
-0.00100575 -0.484839 0
0.30431 -0.756892 0
0.140079 -0.998153 0
0.433063 -0.959553 0
0.194004 -0.682838 0
-0.0465964 -0.78025 0
0.263825 -0.962479 0
0.0299477 -0.200921 0
0.379284 -0.793253 0
0.0428274 -1.04663 0
-0.0434204 -0.559459 0
0.0514287 -0.627433 0
0.46626 -0.852734 0
0.0484292 -0.753518 0
0.291631 -0.924887 0
0.119778 -1.06715 0
0.0410072 -0.760912 0
0.0456245 -0.668286 0
0.0483187 -0.193429 0
0.417942 -0.925746 0
0.111403 -1.07839 0
0.472072 -0.959383 0
0.0391457 -0.736324 0
0.197145 -0.865927 0
-0.0352905 -0.541696 0
0.0436873 -0.22439 0
0.337374 -0.776157 0
0.144351 -1.11986 0
0.00724488 -0.810522 0
0.0462708 -1.12935 0
0.550588 -0.847472 0
0.266151 -0.773378 0
-0.0273071 -0.899869 0
0.225101 -0.942875 0
0.133844 -0.219593 0
0.214866 -0.730127 0
0.0927467 -1.1661 0
0.0248233 -0.598879 0
0.00180494 -0.469414 0
0.302144 -0.840964 0
-0.0552173 -0.488202 0
0.213548 -0.471863 0
-0.0109385 -0.761074 0
0.326651 -0.991544 0
-0.0701055 -0.673245 0
0.000393515 -0.236109 0
0.395796 -0.844106 0
0.106592 -0.726834 0
-0.102165 -0.700999 0
0.257035 -0.934836 0
-0.0518417 -0.49606 0
-0.13084 -0.469938 0
0.312434 -0.520408 0
-0.0250834 -0.760695 0
0.191283 -0.680614 0
0.478432 -1.0322 0
0.0791084 -0.754933 0
0.0233672 -0.563486 0
0.196525 -0.887542 0
0.0426414 -1.10134 0
0.287087 -1.04403 0
-0.0461183 -0.726825 0
0.0262103 -1.18273 0
0.0528957 -0.588511 0
-0.0373828 -0.945894 0
-0.170952 -0.480225 0
0.3469 -0.566913 0
-0.014133 -0.654852 0
0.282045 -0.894159 0
0.183262 -1.49741 0
0.337163 -0.954017 0
0.0386747 -1.08393 0
0.375577 -0.58155 0
-0.049217 -0.787558 0
-0.0178969 -1.30384 0
0.0783993 -0.56396 0
0.294476 -0.626048 0
0.227243 -1.03883 0
-0.0372696 -0.616021 0
0.0235081 -0.181709 0
0.417537 -0.938288 0
0.366527 -0.716869 0
0.480561 -0.914119 0
0.466098 -0.659759 0
-0.00821204 -0.701126 0
-0.135907 -0.49643 0
0.28635 -0.550228 0
-0.0109569 -0.676834 0
-0.0968306 -1.15344 0
0.0822564 -0.458059 0
0.422547 -0.753812 0
0.0233044 -1.22172 0
0.263694 -0.55122 0
-0.0481542 -0.788761 0
-0.0775552 -0.441869 0
0.457694 -0.887664 0
0.0788468 -0.300626 0
0.32746 -0.863302 0
0.11474 -1.13577 0
0.254232 -0.49022 0
-0.00368195 -0.757194 0
-0.109415 -0.531378 0
0.183869 -0.932668 0
0.336302 -0.935133 0
-0.0389017 -0.661968 0
0.216233 -0.545729 0
-0.0917082 -1.18694 0
0.0534347 -0.428257 0
-0.052351 -1.21562 0
0.356311 -0.812516 0
-0.0239756 -0.771429 0
0.134887 -0.769582 0
0.0999036 -0.214538 0
0.319138 -0.8862 0
0.2514 -0.892181 0
0.00935661 -1.13915 0
-0.0555644 -1.23341 0
0.0564043 -0.521913 0
-0.0416069 -0.681366 0
0.165394 -0.46394 0
-0.0549809 -0.749873 0
0.272514 -0.850735 0
-0.0518114 -0.465167 0
-0.118382 -0.633209 0
-0.000181582 -0.675563 0
0.0929967 -0.53956 0
-0.048299 -0.505496 0
-0.0756633 -0.644731 0
0.17213 -0.487568 0
-0.0504557 -0.458965 0
-0.00865562 -0.406063 0
0.362025 -0.809884 0
0.00882453 -0.425121 0
0.305507 -0.874751 0
0.0235148 -0.451721 0
0.165536 -0.758103 0
-0.0131405 -0.451596 0
0.247924 -0.767789 0
0.0364611 -0.521072 0
0.0416062 -0.677852 0
0.219437 -1.34612 0
0.326544 -1.50022 0
0.0106777 -0.475116 0
0.132363 -0.737104 0
0.0508705 -0.49404 0
0.0655332 -0.645287 0
0.11609 -0.911055 0
0.0821573 -1.15633 0
0.0646687 -0.264649 0
0.369089 -0.902424 0
0.0919032 -0.546925 0
0.00135165 -0.589037 0
0.08553 -1.45911 0
0.183138 -0.60313 0
-0.0817551 -0.543518 0
0.142139 -0.550177 0
-0.0384994 -0.543217 0
0.103203 -0.50877 0
-0.00271689 -0.599822 0
0.152914 -0.560272 0
-0.0397026 -0.557302 0
0.229028 -0.861338 0
0.0301705 -0.191168 0
0.385756 -0.850554 0
0.0268032 -0.495506 0
0.0943485 -0.637118 0
0.0267803 -0.226109 0
0.354386 -0.785956 0
0.0920757 -0.510287 0
0.00659225 -0.58776 0
0.0575071 -0.45396 0
0.0643507 -0.665177 0
0.115226 -0.767456 0
0.417229 -1.33291 0
0.18477 -1.00992 0
0.0490763 -0.241533 0
0.363765 -0.790165 0
0.0195265 -0.434753 0
0.191123 -0.776951 0
-0.0322397 -1.19194 0
0.0455682 -0.470627 0
-0.0642685 -1.32594 0
0.0919669 -0.501096 0
0.00223911 -1.22329 0
0.00788946 -0.438525 0
0.0105377 -1.26913 0
0.0073799 -0.485924 0
-0.0430534 -1.19147 0
0.0292048 -0.473398 0
-0.00791983 -1.23247 0
0.0277284 -0.444823 0
0.0936614 -0.404574 0
0.0589389 -0.78433 0
0.0547513 -1.41083 0
0.201559 -0.81918 0
-0.0322324 -0.296977 0
0.0958871 -1.15932 0
0.116231 -0.774782 0
-0.0462492 -0.375031 0
0.0905962 -1.1788 0
0.218606 -0.832563 0
0.0186797 -0.256158 0
0.302525 -0.769025 0
0.162613 -0.605565 0
-0.0145943 -0.79771 0
-0.011461 -0.258348 0
0.309414 -0.797414 0
0.235024 -0.708511 0
0.00838409 -0.208149 0
0.434663 -0.947527 0
0.38788 -0.876132 0
-0.0900018 -0.758525 0
0.157201 -1.0702 0
-0.0167916 -0.682096 0
-0.0444914 -1.11321 0
0.0712839 -0.495566 0
-0.00471502 -0.895133 0
-0.0714195 -1.16894 0
0.0539336 -0.457865 0
0.188788 -0.443177 0
-0.0280569 -0.71229 0
-0.064284 -1.50979 0
0.239356 -0.523966 0
0.156409 -0.352368 0
-0.00799731 -0.780096 0
-0.0931593 -1.17914 0
0.0922933 -0.443182 0
0.091585 -0.35602 0
0.122869 -0.822964 0
-0.108143 -1.18211 0
0.165063 -0.446088 0
-0.0980632 -1.45225 0
0.186048 -0.512288 0
0.167737 -0.687063 0
-0.0961747 -0.393984 0
0.221384 -0.804779 0
-0.141399 -0.415585 0
0.308832 -0.799646 0
-0.126276 -0.363122 0
0.253262 -0.795679 0
-0.0871635 -0.366064 0
0.352638 -1.32852 0
0.62752 -2.51215 0
0.315261 -1.14179 0
0.505881 -2.10241 0
0.273065 -1.00988 0
0.392459 -1.89629 0
0.315838 -1.37068 0
0.654566 -2.30691 0
0.182552 -1.09241 0
0.163533 -1.42582 0
0.152546 -1.31514 0
0.318364 -1.2836 0
0.0188291 -1.19329 0
0.183938 -0.988206 0
0.291278 -1.42424 0
-0.0457361 -1.08081 0
0.178902 -1.61551 0
0.0341357 -1.21697 0
0.043426 -0.519719 0
0.00932859 -0.55501 0
-0.0054088 -0.533036 0
0.0229049 -0.492767 0
0.733213 -2.78295 0
0.837571 -2.81672 0
0.800938 -2.5848 0
0.693466 -2.60386 0
-0.0117426 -0.750378 0
-0.0166781 -0.780719 0
-0.0379508 -0.608954 0
-0.0393003 -0.596183 0
0.0687561 -0.692583 0
-0.0244328 -0.427858 0
0.0113078 -0.728503 0
0.0393937 -0.434644 0
-0.0109926 -0.657163 0
0.0595458 -0.4888 0
0.0260246 -0.659617 0
0.00332219 -0.490195 0
-0.0942676 -0.420474 0
0.444616 -1.04141 0
-0.0829856 -0.357496 0
0.499458 -1.01527 0
-0.117159 -0.386107 0
0.484424 -1.04715 0
-0.149057 -0.43894 0
0.433381 -1.07611 0
-0.0325984 -0.555381 0
-0.0115526 -0.590366 0
0.0141256 -0.569792 0
-0.0101532 -0.603491 0
0.232346 -1.7268 0
0.21423 -1.67113 0
0.150972 -1.60498 0
0.151139 -1.76421 0
0.122152 -0.921293 0
0.368459 -0.67626 0
0.0234687 -1.12883 0
0.382006 -0.684541 0
0.0449219 -1.06485 0
0.299956 -0.648447 0
0.105047 -0.796573 0
0.328958 -0.708993 0
0.0434647 -0.664328 0
0.0326598 -0.574809 0
0.0789185 -0.644256 0
0.113679 -0.681178 0
1.07421 -1.69629 0
0.973595 -1.92648 0
0.739246 -1.77554 0
0.873497 -1.5874 0
0.481227 -0.955191 0
-0.0292971 -0.251372 0
0.356983 -0.868839 0
-0.0554014 -0.309545 0
0.469851 -0.949538 0
-0.0922761 -0.341715 0
0.508439 -0.978051 0
-0.0609189 -0.326104 0
-0.0103256 -0.66187 0
0.000799337 -0.601982 0
0.0109354 -0.61975 0
-0.00614858 -0.686261 0
0.0120157 -1.21121 0
0.0208846 -1.21309 0
0.0512399 -1.2991 0
0.0590999 -1.15481 0
0.940897 -1.6906 0
0.117005 -0.863991 0
0.89511 -2.21109 0
1.00815 -2.25901 0
1.0237 -1.5602 0
0.766612 -2.19466 0
0.680132 -2.2328 0
0.848825 -2.29407 0
0.854942 -2.08883 0
0.276295 -0.576812 0
-0.0390067 -1.51852 0
0.194911 -0.540175 0
-0.0528292 -1.49038 0
0.231295 -0.543517 0
0.00643061 -1.30899 0
0.349253 -0.621306 0
-0.0258095 -1.32297 0
-0.200948 -0.717174 0
0.324117 -0.94145 0
-0.185624 -0.703571 0
0.370666 -0.869019 0
-0.151051 -0.539818 0
0.376259 -0.863978 0
-0.163548 -0.616906 0
0.340266 -0.842239 0
-0.107068 -0.742342 0
0.0259123 -1.05913 0
-0.176651 -0.767911 0
0.119659 -1.0514 0
-0.164937 -0.739194 0
0.123548 -0.813663 0
-0.114978 -0.764499 0
0.0372062 -0.839461 0
-0.0110845 -0.732517 0
-0.0326993 -0.554363 0
-0.0215346 -0.549762 0
-0.00730459 -0.707825 0
-0.0947879 -0.549945 0
0.319158 -0.654016 0
-0.0944114 -0.532365 0
0.23598 -0.655818 0
-0.0833389 -0.57086 0
0.141922 -0.527855 0
-0.0928284 -0.515555 0
0.232409 -0.599029 0
-0.0273681 -1.37658 0
0.11035 -0.547844 0
0.00772501 -1.21084 0
0.085016 -0.540917 0
0.0107137 -1.22656 0
0.138027 -0.507047 0
-0.0382379 -1.41381 0
0.146079 -0.545244 0
-0.000650309 -0.586981 0
0.0535436 -0.626408 0
0.00874481 -0.625052 0
0.0232923 -0.547577 0
-0.0338199 -0.636246 0
0.0795748 -0.541587 0
-0.0602226 -0.565413 0
0.136225 -0.596233 0
0.00492639 -0.660833 0
-0.00438581 -0.643729 0
0.0175385 -0.597317 0
0.00659799 -0.593653 0
0.0673807 -1.86354 0
0.134807 -1.90852 0
0.115107 -1.46353 0
0.0478229 -1.44532 0
0.277177 -1.37163 0
0.579533 -1.50223 0
0.396759 -1.59204 0
0.132128 -1.32857 0
0.263672 -0.75951 0
-0.113446 -0.790295 0
0.18384 -0.765281 0
-0.138893 -0.730498 0
0.1856 -0.949786 0
-0.0716067 -0.707302 0
0.246803 -0.918095 0
-0.0577648 -0.774658 0
0.0761495 -0.771731 0