# vtk DataFile Version 2.0
Unstructured Grid by M++
ASCII
DATASET UNSTRUCTURED_GRID
POINTS 81 float
  1.000000   0.625000 0
  0.750000   0.375000 0
  1.000000   0.000000 0
  0.875000   0.875000 0
  0.750000   0.125000 0
  1.000000   1.000000 0
  0.875000   0.250000 0
  0.625000   0.875000 0
  1.000000   0.750000 0
  0.875000   0.000000 0
  1.000000   0.250000 0
  0.625000   0.375000 0
  0.875000   0.500000 0
  0.625000   0.625000 0
  1.000000   0.500000 0
  0.750000   0.500000 0
  0.750000   1.000000 0
  1.000000   0.125000 0
  0.625000   0.250000 0
  0.750000   0.750000 0
  0.625000   0.000000 0
  0.125000   0.375000 0
  0.000000   0.500000 0
  0.125000   0.625000 0
  0.625000   1.000000 0
  1.000000   0.875000 0
  0.875000   0.125000 0
  0.500000   0.250000 0
  0.625000   0.500000 0
  0.250000   0.625000 0
  0.000000   0.625000 0
  0.375000   0.500000 0
  0.375000   0.000000 0
  0.000000   0.125000 0
  0.125000   0.875000 0
  0.875000   1.000000 0
  0.750000   0.250000 0
  0.375000   0.375000 0
  0.250000   0.375000 0
  0.625000   0.750000 0
  0.125000   0.125000 0
  0.500000   0.000000 0
  0.250000   0.875000 0
  0.125000   0.500000 0
  0.500000   0.375000 0
  0.125000   0.000000 0
  0.250000   0.750000 0
  0.250000   0.500000 0
  0.000000   0.875000 0
  0.875000   0.625000 0
  0.500000   0.750000 0
  0.750000   0.625000 0
  0.250000   0.000000 0
  0.375000   0.750000 0
  0.750000   0.875000 0
  0.625000   0.125000 0
  0.250000   0.250000 0
  0.375000   1.000000 0
  0.375000   0.250000 0
  0.000000   0.375000 0
  0.500000   1.000000 0
  0.875000   0.750000 0
  0.750000   0.000000 0
  0.375000   0.125000 0
  0.500000   0.875000 0
  0.000000   0.000000 0
  0.125000   0.750000 0
  0.500000   0.625000 0
  0.125000   0.250000 0
  0.500000   0.125000 0
  0.250000   1.000000 0
  0.250000   0.125000 0
  0.000000   1.000000 0
  0.375000   0.875000 0
  0.000000   0.750000 0
  0.375000   0.625000 0
  0.000000   0.250000 0
  0.125000   1.000000 0
  1.000000   0.375000 0
  0.500000   0.500000 0
  0.875000   0.375000 0
CELLS 64 320
4 56 71 58 63
4 27 58 69 63
4 41 69 32 63
4 76 33 68 40
4 27 44 58 37
4 79 31 44 37
4 56 38 68 21
4 56 58 38 37
4 52 32 71 63
4 47 38 31 37
4 76 68 59 21
4 22 59 43 21
4 65 45 33 40
4 47 43 38 21
4 52 71 45 40
4 56 68 71 40
4 74 30 66 23
4 46 66 29 23
4 22 43 30 23
4 72 48 77 34
4 46 53 42 73
4 50 64 53 73
4 70 42 57 73
4 74 66 48 34
4 46 42 66 34
4 47 29 43 23
4 70 77 42 34
4 60 57 64 73
4 79 67 31 75
4 47 31 29 75
4 50 53 67 75
4 46 29 53 75
4 10 78 6 80
4 36 6 1 80
4 15 1 12 80
4 36 4 6 26
4 14 12 78 80
4 2 17 9 26
4 36 18 4 55
4 15 28 1 11
4 62 4 20 55
4 10 6 17 26
4 27 18 44 11
4 62 9 4 26
4 27 69 18 55
4 36 1 18 11
4 41 20 69 55
4 79 44 28 11
4 16 24 54 7
4 19 54 39 7
4 50 39 64 7
4 8 25 61 3
4 60 64 24 7
4 79 28 67 13
4 19 51 61 49
4 8 61 0 49
4 15 51 28 13
4 19 39 51 13
4 50 67 39 13
4 19 61 54 3
4 14 0 12 49
4 5 35 25 3
4 15 12 51 49
4 16 54 35 3
CELL_TYPES 64
8
8
8
8
8
8
8
8
8
8
8
8
8
8
8
8
8
8
8
8
8
8
8
8
8
8
8
8
8
8
8
8
8
8
8
8
8
8
8
8
8
8
8
8
8
8
8
8
8
8
8
8
8
8
8
8
8
8
8
8
8
8
8
8
CELL_DATA 64
VECTORS vector_value float
-0.143603 -0.724845 0
0.18417 -1.66382 0
0.092281 -1.11361 0
0.000947606 -0.513157 0
-0.25333 -1.71208 0
-0.123155 -0.898308 0
0.129209 -0.645456 0
0.132241 -0.643816 0
-0.0651341 -0.460726 0
0.230536 -0.395156 0
0.045972 -0.57916 0
0.0773785 -0.737326 0
-0.0538934 -0.625954 0
0.227025 -0.818761 0
-0.165962 -0.871191 0
-0.0582103 -0.684802 0
-0.0631517 -1.19242 0
-0.0496535 -0.365971 0
0.160439 -0.895574 0
0.219446 -0.559985 0
0.191037 -0.702539 0
0.782746 -1.32114 0
0.426235 -1.11659 0
-0.209097 -0.779019 0
-0.196842 -0.783933 0
0.161376 -0.907725 0
0.363848 -1.26177 0
0.215075 -0.983727 0
0.0219498 -0.367431 0
0.0938792 -0.419513 0
0.080967 -0.432149 0
-0.103556 -0.683422 0
0.0275319 -2.0204 0
0.11322 -0.706755 0
0.195172 -1.19061 0
-0.329854 -1.46202 0
0.116252 -1.44691 0
0.0551226 -1.58019 0
-0.0826502 -0.924864 0
-0.419678 -1.3435 0
-0.20677 -1.26872 0
-0.0779936 -1.42026 0
-0.0906346 -0.64736 0
-0.0344901 -0.828757 0
0.0839605 -0.606222 0
0.0585419 -1.04497 0
0.157334 -1.25085 0
-0.750511 -1.16943 0
-0.118984 -0.43651 0
0.717314 -1.28095 0
1.00254 -0.899592 0
-0.175586 -0.977415 0
0.0621166 -1.4866 0
-0.0999994 -0.795423 0
0.566249 -1.94029 0
0.0578291 -0.826618 0
-0.322312 -1.33134 0
0.883384 -1.81276 0
0.464513 -0.746381 0
-0.20897 -1.2554 0
0.177637 -1.15075 0
0.118488 -1.39028 0
-0.116208 -2.13224 0
0.3037 -0.764535 0
