# vtk DataFile Version 2.0
Unstructured Grid by M++
ASCII
DATASET UNSTRUCTURED_GRID
POINTS 289 float
  0.562500   1.000000 0
  0.562500   0.625000 0
  0.625000   1.000000 0
  0.562500   0.937500 0
  0.562500   0.562500 0
  0.625000   0.937500 0
  0.562500   0.875000 0
  0.625000   0.750000 0
  0.625000   0.625000 0
  0.562500   0.812500 0
  0.562500   0.750000 0
  0.562500   0.687500 0
  0.625000   0.875000 0
  0.625000   0.812500 0
  0.625000   0.687500 0
  0.687500   0.125000 0
  0.875000   0.062500 0
  0.625000   0.125000 0
  0.625000   0.187500 0
  0.625000   0.250000 0
  0.812500   0.187500 0
  1.000000   0.125000 0
  0.687500   0.187500 0
  0.750000   0.125000 0
  0.937500   0.062500 0
  0.937500   0.125000 0
  0.750000   0.187500 0
  0.812500   0.062500 0
  0.812500   0.125000 0
  0.875000   0.687500 0
  0.187500   0.250000 0
  0.437500   0.250000 0
  0.375000   0.187500 0
  0.812500   0.625000 0
  0.125000   0.187500 0
  0.937500   0.750000 0
  0.250000   0.312500 0
  0.500000   0.312500 0
  0.625000   0.062500 0
  0.437500   0.500000 0
  0.375000   0.125000 0
  0.437500   0.187500 0
  0.437500   0.437500 0
  0.437500   0.375000 0
  0.875000   0.875000 0
  0.187500   0.375000 0
  0.687500   0.562500 0
  0.687500   0.625000 0
  0.000000   0.125000 0
  0.937500   0.625000 0
  0.250000   0.125000 0
  0.375000   0.062500 0
  0.375000   0.000000 0
  0.812500   0.500000 0
  0.125000   0.000000 0
  0.937500   0.937500 0
  0.250000   0.437500 0
  0.687500   0.875000 0
  0.687500   0.937500 0
  0.000000   0.437500 0
  0.500000   0.500000 0
  0.500000   0.437500 0
  0.750000   0.937500 0
  0.750000   1.000000 0
  0.062500   0.500000 0
  1.000000   1.000000 0
  0.312500   0.500000 0
  0.875000   0.562500 0
  0.187500   0.062500 0
  0.437500   0.125000 0
  0.437500   0.062500 0
  0.500000   0.375000 0
  0.937500   0.812500 0
  0.937500   0.875000 0
  0.250000   0.375000 0
  0.687500   0.812500 0
  0.000000   0.375000 0
  0.750000   0.562500 0
  0.062500   0.125000 0
  1.000000   0.562500 0
  1.000000   0.625000 0
  0.312500   0.125000 0
  0.562500   0.125000 0
  0.437500   0.000000 0
  0.875000   0.437500 0
  0.875000   0.500000 0
  0.187500   0.000000 0
  0.937500   0.562500 0
  0.937500   0.500000 0
  0.250000   0.062500 0
  0.687500   0.500000 0
  0.000000   0.062500 0
  0.500000   0.062500 0
  1.000000   0.875000 0
  1.000000   0.937500 0
  0.312500   0.437500 0
  0.750000   0.875000 0
  0.062500   0.437500 0
  0.812500   0.937500 0
  0.125000   0.500000 0
  0.375000   0.500000 0
  0.625000   0.562500 0
  0.625000   0.500000 0
  0.437500   0.312500 0
  0.875000   0.812500 0
  0.875000   0.750000 0
  0.187500   0.312500 0
  0.812500   0.687500 0
  0.812500   0.750000 0
  0.125000   0.250000 0
  0.375000   0.250000 0
  1.000000   0.687500 0
  0.312500   0.187500 0
  0.750000   0.687500 0
  0.750000   0.625000 0
  0.062500   0.187500 0
  0.562500   0.250000 0
  0.562500   0.187500 0
  0.375000   1.000000 0
  0.500000   0.562500 0
  0.500000   0.250000 0
  0.750000   0.250000 0
  0.500000   0.125000 0
  0.500000   0.187500 0
  1.000000   0.187500 0
  0.625000   0.375000 0
  0.875000   0.375000 0
  1.000000   0.437500 0
  0.312500   0.000000 0
  0.562500   0.000000 0
  0.812500   0.000000 0
  0.250000   0.687500 0
  0.000000   0.687500 0
  0.500000   1.000000 0
  0.250000   1.000000 0
  0.000000   1.000000 0
  0.437500   0.687500 0
  0.437500   0.625000 0
  0.187500   0.625000 0
  0.687500   0.750000 0
  0.000000   0.312500 0
  0.000000   0.250000 0
  0.375000   0.375000 0
  0.375000   0.312500 0
  0.812500   0.812500 0
  0.125000   0.312500 0
  0.875000   0.625000 0
  0.187500   0.187500 0
  0.187500   0.125000 0
  0.937500   1.000000 0
  0.250000   0.562500 0
  0.250000   0.500000 0
  0.687500   1.000000 0
  0.000000   0.500000 0
  0.687500   0.687500 0
  0.000000   0.187500 0
  0.937500   0.687500 0
  0.250000   0.250000 0
  0.250000   0.187500 0
  0.187500   0.687500 0
  0.000000   0.750000 0
  0.250000   0.750000 0
  0.125000   0.625000 0
  0.750000   0.750000 0
  0.062500   0.250000 0
  0.875000   0.937500 0
  0.187500   0.500000 0
  0.187500   0.437500 0
  0.812500   0.562500 0
  0.125000   0.125000 0
  0.125000   0.062500 0
  0.375000   0.625000 0
  0.375000   0.687500 0
  1.000000   0.750000 0
  0.312500   0.250000 0
  0.312500   0.312500 0
  0.812500   0.312500 0
  0.562500   0.312500 0
  0.375000   0.750000 0
  0.500000   0.625000 0
  0.250000   0.625000 0
  0.312500   0.687500 0
  0.750000   0.812500 0
  0.062500   0.312500 0
  0.062500   0.375000 0
  1.000000   0.812500 0
  0.312500   0.375000 0
  0.562500   0.375000 0
  0.687500   0.437500 0
  0.000000   0.000000 0
  0.500000   0.000000 0
  0.937500   0.437500 0
  0.250000   0.000000 0
  0.375000   0.437500 0
  0.812500   0.875000 0
  0.125000   0.375000 0
  0.125000   0.437500 0
  0.625000   0.437500 0
  1.000000   0.500000 0
  0.312500   0.062500 0
  0.750000   0.500000 0
  0.062500   0.000000 0
  0.062500   0.062500 0
  0.562500   0.062500 0
  0.062500   0.750000 0
  0.312500   0.750000 0
  0.312500   0.625000 0
  0.312500   0.562500 0
  0.062500   0.562500 0
  0.187500   1.000000 0
  0.437500   0.562500 0
  0.875000   1.000000 0
  0.187500   0.562500 0
  0.500000   0.937500 0
  0.250000   0.937500 0
  0.312500   1.000000 0
  0.125000   0.750000 0
  0.125000   0.687500 0
  1.000000   0.000000 0
  0.000000   0.937500 0
  0.000000   0.875000 0
  0.875000   0.125000 0
  0.875000   0.187500 0
  0.062500   0.812500 0
  0.312500   0.812500 0
  0.000000   0.812500 0
  0.000000   0.625000 0
  0.000000   0.562500 0
  0.062500   1.000000 0
  0.062500   0.937500 0
  0.937500   0.187500 0
  0.937500   0.250000 0
  0.062500   0.687500 0
  0.062500   0.625000 0
  0.125000   1.000000 0
  1.000000   0.250000 0
  1.000000   0.312500 0
  0.062500   0.875000 0
  0.125000   0.812500 0
  0.375000   0.812500 0
  0.125000   0.875000 0
  0.375000   0.937500 0
  0.375000   0.875000 0
  0.187500   0.750000 0
  0.187500   0.812500 0
  0.437500   0.812500 0
  0.187500   0.875000 0
  0.437500   0.875000 0
  0.375000   0.562500 0
  0.812500   1.000000 0
  0.125000   0.562500 0
  0.437500   1.000000 0
  0.437500   0.937500 0
  0.187500   0.937500 0
  0.125000   0.937500 0
  0.500000   0.687500 0
  0.500000   0.750000 0
  0.500000   0.812500 0
  0.250000   0.812500 0
  0.250000   0.875000 0
  0.500000   0.875000 0
  0.437500   0.750000 0
  0.312500   0.875000 0
  0.312500   0.937500 0
  0.687500   0.250000 0
  0.687500   0.312500 0
  0.937500   0.312500 0
  0.875000   0.250000 0
  0.625000   0.000000 0
  0.875000   0.000000 0
  0.687500   0.375000 0
  0.937500   0.375000 0
  0.875000   0.312500 0
  0.625000   0.312500 0
  0.687500   0.000000 0
  0.937500   0.000000 0
  0.750000   0.312500 0
  0.750000   0.375000 0
  1.000000   0.375000 0
  0.812500   0.250000 0
  0.562500   0.437500 0
  0.562500   0.500000 0
  0.687500   0.062500 0
  0.750000   0.437500 0
  0.750000   0.000000 0
  0.750000   0.062500 0
  1.000000   0.062500 0
  0.812500   0.375000 0
  0.812500   0.437500 0
CELLS 256 1280
4 169 170 148 68
4 151 166 56 167
4 195 45 196 167
4 54 170 201 202
4 109 34 30 147
4 40 32 81 112
4 192 89 86 68
4 48 91 78 202
4 99 64 196 97
4 71 43 37 103
4 74 186 56 95
4 109 164 34 115
4 50 81 158 112
4 122 69 92 70
4 195 145 45 106
4 110 143 174 175
4 157 30 158 147
4 40 69 32 41
4 50 158 148 147
4 141 155 164 115
4 122 123 69 41
4 142 186 143 175
4 60 39 61 42
4 40 51 69 70
4 120 31 123 41
4 157 174 36 175
4 50 148 89 68
4 48 78 155 115
4 52 83 51 70
4 151 56 66 95
4 71 61 43 42
4 169 148 34 147
4 100 193 39 42
4 40 81 51 199
4 110 174 32 112
4 109 30 145 106
4 100 66 193 95
4 169 34 78 115
4 190 92 83 70
4 50 89 81 199
4 54 86 170 68
4 74 56 45 167
4 142 143 43 103
4 153 59 64 97
4 99 196 166 167
4 169 78 170 202
4 142 193 186 95
4 192 128 89 199
4 74 45 36 106
4 110 31 143 103
4 76 184 59 97
4 142 43 193 42
4 52 51 128 199
4 189 201 91 202
4 120 37 31 103
4 74 36 186 175
4 195 196 184 97
4 141 164 140 183
4 157 158 174 112
4 109 145 164 183
4 195 184 145 183
4 110 32 31 41
4 157 36 30 106
4 76 140 184 183
4 171 172 206 181
4 178 172 261 136
4 256 261 255 136
4 256 257 261 245
4 180 150 206 207
4 60 119 39 210
4 118 215 241 263
4 178 205 172 181
4 216 243 238 244
4 162 217 233 232
4 180 206 131 181
4 179 137 119 210
4 216 204 217 232
4 220 237 219 229
4 216 217 243 159
4 259 258 262 224
4 240 254 237 229
4 153 64 227 208
4 161 205 258 224
4 240 237 238 223
4 226 227 233 208
4 234 228 254 229
4 171 248 137 210
4 160 132 204 232
4 180 131 138 159
4 133 251 213 252
4 171 206 248 207
4 162 138 217 159
4 161 258 243 244
4 220 225 237 223
4 151 150 166 212
4 260 247 257 245
4 259 262 214 263
4 151 66 150 207
4 234 254 209 253
4 162 233 250 208
4 242 241 262 263
4 171 137 172 136
4 161 243 131 159
4 160 204 225 223
4 161 131 205 181
4 179 255 137 136
4 216 238 204 223
4 100 39 248 210
4 260 213 247 252
4 226 233 132 232
4 134 214 215 263
4 180 138 150 212
4 178 261 239 245
4 259 246 258 244
4 178 239 205 224
4 240 238 246 244
4 242 262 239 224
4 99 250 64 208
4 240 246 254 253
4 242 239 247 245
4 135 219 228 229
4 99 166 250 212
4 259 214 246 253
4 118 241 251 252
4 100 248 66 207
4 134 209 214 253
4 162 250 138 212
4 242 247 241 252
4 71 187 61 280
4 102 281 197 280
4 122 92 82 203
4 17 18 82 117
4 122 82 123 117
4 19 264 273 265
4 267 279 222 20
4 125 273 270 265
4 267 272 279 176
4 19 116 18 117
4 21 25 286 24
4 23 28 26 20
4 23 285 28 27
4 218 286 275 24
4 85 53 84 288
4 235 236 231 266
4 221 222 28 20
4 267 222 231 230
4 268 38 129 203
4 125 270 197 188
4 126 287 272 176
4 277 270 276 265
4 267 231 272 266
4 125 197 187 280
4 190 129 92 203
4 277 276 287 176
4 19 18 264 22
4 17 82 38 203
4 102 197 90 188
4 126 84 287 288
4 284 130 285 27
4 121 276 264 265
4 71 37 187 177
4 120 123 116 117
4 198 88 127 191
4 221 16 25 24
4 23 26 15 22
4 121 279 276 176
4 235 231 124 230
4 125 187 273 177
4 278 271 236 266
4 277 287 283 288
4 284 285 274 282
4 278 127 271 191
4 269 275 16 24
4 200 283 53 288
4 23 15 285 282
4 121 26 279 20
4 21 124 25 230
4 19 273 116 177
4 200 90 283 188
4 126 271 84 191
4 269 16 130 27
4 17 38 15 282
4 221 25 222 230
4 121 264 26 22
4 120 116 37 177
4 60 61 281 280
4 277 283 270 188
4 126 272 271 266
4 268 274 38 282
4 85 84 88 191
4 17 15 18 22
4 221 28 16 27
4 93 94 73 55
4 85 88 67 87
4 80 49 79 87
4 44 104 73 72
4 146 33 67 168
4 211 165 149 55
4 8 47 14 154
4 105 104 108 144
4 105 108 29 107
4 7 139 13 75
4 44 165 194 98
4 200 53 77 168
4 8 1 101 4
4 2 5 152 58
4 260 6 213 3
4 105 35 104 72
4 96 57 182 75
4 7 14 139 154
4 146 29 33 107
4 7 13 10 9
4 12 13 57 75
4 85 67 53 168
4 44 73 165 55
4 63 152 62 58
4 8 101 47 46
4 96 182 194 144
4 60 281 119 4
4 12 5 6 3
4 173 185 35 72
4 65 149 94 55
4 146 67 49 87
4 114 113 47 154
4 163 108 182 144
4 12 6 13 9
4 173 35 111 156
4 163 182 139 75
4 260 257 6 9
4 105 29 35 156
4 163 139 113 154
4 256 10 257 9
4 146 49 29 156
4 163 113 108 107
4 80 111 49 156
4 102 101 281 4
4 12 57 5 58
4 44 194 104 144
4 96 194 62 98
4 2 0 5 3
4 93 73 185 72
4 179 119 1 4
4 200 77 90 46
4 114 33 113 107
4 7 10 14 11
4 96 62 57 58
4 133 213 0 3
4 102 90 101 46
4 256 255 10 11
4 63 62 249 98
4 114 47 77 46
4 179 1 255 11
4 211 249 165 98
4 114 77 33 168
4 198 79 88 87
4 8 14 1 11
CELL_TYPES 256
8
8
8
8
8
8
8
8
8
8
8
8
8
8
8
8
8
8
8
8
8
8
8
8
8
8
8
8
8
8
8
8
8
8
8
8
8
8
8
8
8
8
8
8
8
8
8
8
8
8
8
8
8
8
8
8
8
8
8
8
8
8
8
8
8
8
8
8
8
8
8
8
8
8
8
8
8
8
8
8
8
8
8
8
8
8
8
8
8
8
8
8
8
8
8
8
8
8
8
8
8
8
8
8
8
8
8
8
8
8
8
8
8
8
8
8
8
8
8
8
8
8
8
8
8
8
8
8
8
8
8
8
8
8
8
8
8
8
8
8
8
8
8
8
8
8
8
8
8
8
8
8
8
8
8
8
8
8
8
8
8
8
8
8
8
8
8
8
8
8
8
8
8
8
8
8
8
8
8
8
8
8
8
8
8
8
8
8
8
8
8
8
8
8
8
8
8
8
8
8
8
8
8
8
8
8
8
8
8
8
8
8
8
8
8
8
8
8
8
8
8
8
8
8
8
8
8
8
8
8
8
8
8
8
8
8
8
8
8
8
8
8
8
8
8
8
8
8
8
8
8
8
8
8
8
8
CELL_DATA 256
VECTORS vector_value float
0.0311016 -0.491924 0
-0.173375 -0.723911 0
-0.255569 -1.04432 0
-0.19288 -0.761745 0
0.20684 -1.07123 0
0.378005 -0.576176 0
0.0330634 -0.190525 0
-0.254811 -2.27801 0
-0.271963 -1.65339 0
0.147081 -0.7263 0
0.0803344 -0.426312 0
0.162028 -1.80944 0
0.40785 -0.241321 0
-0.227643 -2.24564 0
-0.0380325 -1.03866 0
0.161747 -0.531974 0
0.175744 -0.241971 0
0.259259 -0.718553 0
0.428437 -0.335275 0
0.0619524 -1.80211 0
0.00186092 -1.28944 0
0.197516 -0.573661 0
0.412182 -0.647758 0
0.427378 -0.976003 0
0.0677634 -0.759866 0
0.10277 -0.223533 0
0.309684 -0.35415 0
-0.0948619 -1.78061 0
0.117023 -0.824921 0
0.101426 -0.638791 0
0.243948 -0.71016 0
0.286288 -0.88284 0
0.390997 -0.495993 0
0.308313 -0.410332 0
0.138049 -0.406591 0
0.100636 -1.12214 0
0.378706 -1.05582 0
-0.0895659 -1.62987 0
-0.0117742 -3.06145 0
0.305227 -0.265071 0
-0.0200703 -0.281237 0
-0.102801 -0.43165 0
0.229636 -0.811352 0
-0.0912529 -1.69155 0
-0.316861 -1.05539 0
-0.313592 -1.15265 0
0.262596 -0.737332 0
0.0900408 -0.292448 0
0.0131846 -0.29465 0
0.144981 -0.792518 0
-0.0415939 -1.89466 0
0.343562 -0.652545 0
0.089998 -0.410782 0
-0.209226 -2.81228 0
0.142229 -0.788393 0
0.119283 -0.275449 0
-0.182304 -1.7894 0
0.0259724 -2.03771 0
0.116167 -0.215147 0
0.0806808 -1.69972 0
-0.055165 -1.96584 0
0.190272 -0.966655 0
0.0763933 -0.175417 0
-0.041568 -1.84056 0
-0.203833 -1.07165 0
-0.508994 -0.756528 0
-0.329117 -0.535404 0
-0.386454 -0.710751 0
0.0987462 -1.04097 0
0.374533 -0.407917 0
-0.0543187 -0.895828 0
-0.568698 -1.04473 0
0.0180693 -1.33728 0
0.0706526 -1.25605 0
-0.167633 -1.10774 0
0.0736812 -0.309986 0
-0.0614488 -1.28668 0
-0.0453715 -1.36674 0
-0.0439865 -1.36357 0
-0.113383 -0.504297 0
-0.116479 -1.34594 0
-0.0922173 -1.50296 0
-0.324304 -0.770399 0
0.0331658 -1.25257 0
-0.0490381 -1.28367 0
-0.460542 -1.10986 0
0.100276 -0.729636 0
-0.0797455 -1.42013 0
-0.0906976 -1.00419 0
0.40454 -0.880252 0
0.129708 -1.09269 0
-0.0364942 -1.58929 0
-0.0736115 -0.849876 0
0.0370832 -1.45884 0
-0.0327444 -1.07757 0
-0.317014 -0.900095 0
-0.152606 -0.672144 0
0.239236 -0.932862 0
-0.584766 -0.941156 0
-0.146348 -1.40395 0
-0.0255687 -0.691359 0
-0.186902 -0.636626 0
-0.172038 -1.06464 0
0.0391415 -1.25382 0
-0.283835 -0.836838 0
-0.126184 -0.46339 0
0.0468127 -1.44565 0
0.451197 -0.6665 0
-0.0762553 -0.923644 0
0.0628317 -1.39936 0
-0.29632 -0.854528 0
0.0958673 -1.09653 0
-0.495049 -0.950094 0
-0.116013 -0.674453 0
-0.347625 -0.690942 0
-0.0479704 -1.35837 0
-0.222491 -0.781354 0
-0.228348 -1.44821 0
-0.256038 -1.094 0
-0.280351 -0.801642 0
-0.168305 -1.25155 0
-0.237762 -1.13957 0
-0.289246 -0.728229 0
0.196092 -0.734873 0
0.349274 -1.09102 0
-0.526858 -0.946871 0
-0.0233709 -1.52455 0
-0.021348 -0.732983 0
0.295243 -0.601332 0
0.175667 -1.11384 0
-0.668787 -1.55681 0
-1.12303 -1.82501 0
-0.79115 -1.41048 0
-0.23284 -2.16843 0
-0.0991323 -0.387337 0
0.176122 -2.23521 0
-0.308253 -0.52514 0
-0.507088 -1.48891 0
-0.0302803 -0.98454 0
-0.0202943 -0.613915 0
0.0363369 -0.365926 0
-0.037584 -0.883197 0
-0.12736 -0.347729 0
-0.061134 -1.34934 0
0.0294329 -0.406846 0
-0.0904043 -0.412875 0
-0.155607 -1.41601 0
0.217817 -1.80523 0
-0.488421 -0.567931 0
-0.0580435 -1.34808 0
-0.177545 -0.464584 0
0.519008 -1.2133 0
-0.244568 -1.57956 0
-0.354466 -0.699463 0
-0.677864 -1.96842 0
-0.553141 -1.6902 0
-0.293785 -1.16972 0
-0.333222 -0.471657 0
0.0578694 -0.470841 0
-0.226012 -1.60465 0
0.107865 -0.516992 0
-0.10046 -0.832154 0
-0.0695558 -2.12056 0
-0.0316445 -0.627145 0
-0.336645 -1.14809 0
-0.323974 -0.826948 0
-0.0745151 -1.26484 0
0.132021 -0.916306 0
-0.149334 -1.58849 0
-0.202354 -0.474577 0
0.00414491 -0.611973 0
-0.140105 -1.88921 0
-0.018078 -0.779722 0
-0.213065 -0.509985 0
-0.093682 -0.879442 0
-0.217832 -0.822209 0
-0.0795874 -1.04283 0
-0.126115 -1.09446 0
-0.304204 -1.13867 0
-0.358535 -0.79105 0
0.0240959 -0.573999 0
-0.31603 -1.11674 0
-0.114068 -0.622031 0
-0.410641 -1.55025 0
0.0758044 -0.595035 0
0.360356 -0.765386 0
-0.166262 -1.06727 0
-0.381391 -0.601053 0
-0.0818856 -1.04931 0
-0.146629 -0.871498 0
-0.788928 -1.47671 0
0.0423046 -0.605409 0
0.105669 -1.27503 0
0.037963 -0.865149 0
0.11346 -1.92877 0
0.461835 -1.63867 0
-0.339381 -1.38264 0
0.123171 -1.00046 0
-0.109312 -0.329762 0
0.469771 -1.79806 0
-0.295229 -2.17823 0
0.0784868 -0.37355 0
0.467693 -0.997487 0
-0.423557 -0.577213 0
-0.128849 -0.483796 0
0.544589 -0.83951 0
0.0518893 -0.876103 0
0.116616 -2.25103 0
0.577041 -0.702442 0
0.000796783 -0.202534 0
-0.549969 -2.07074 0
-0.128963 -0.550398 0
0.230884 -0.573774 0
-0.179173 -0.630632 0
0.244642 -1.01876 0
0.489606 -1.44363 0
-0.327255 -0.481516 0
1.07633 -1.07698 0
0.152108 -0.670349 0
0.27465 -0.959842 0
-0.0122493 -1.36121 0
0.0531086 -1.04966 0
0.171016 -0.969566 0
-0.325116 -0.387115 0
0.393482 -0.696471 0
-0.0119421 -0.826175 0
0.0870588 -1.35114 0
0.240972 -0.366371 0
-0.184825 -0.651949 0
-0.0821703 -2.07276 0
0.00614009 -0.283865 0
-0.260793 -0.594093 0
0.0152678 -1.29783 0
-0.0282705 -0.711927 0
0.17112 -1.71288 0
-0.149979 -0.693472 0
0.340091 -0.785986 0
1.08376 -1.44976 0
0.799457 -1.33528 0
0.397837 -0.891415 0
0.0212497 -1.34862 0
0.0322553 -0.364764 0
-0.808388 -1.44987 0
-0.722381 -1.03755 0
-0.0388866 -0.395003 0
0.605254 -1.19647 0
0.439064 -1.24172 0
-0.430147 -0.68109 0
-0.209589 -0.496028 0
0.116603 -1.09094 0
-0.679729 -0.826729 0
-0.0203409 -0.329325 0
0.0570182 -0.827748 0
-0.991899 -1.08024 0
0.0380135 -2.16562 0
-0.0244738 -0.306513 0
