# vtk DataFile Version 2.0
Unstructured Grid by M++
ASCII
DATASET UNSTRUCTURED_GRID
POINTS 1089 float
  0.718750   0.687500 0
  0.750000   0.687500 0
  0.718750   0.656250 0
  0.750000   0.718750 0
  0.625000   0.562500 0
  0.625000   0.593750 0
  0.656250   0.593750 0
  0.750000   0.750000 0
  0.687500   0.656250 0
  0.687500   0.625000 0
  0.656250   0.625000 0
  0.906250   0.593750 0
  1.000000   0.968750 0
  0.750000   0.968750 0
  0.718750   0.968750 0
  0.718750   1.000000 0
  0.750000   1.000000 0
  0.906250   0.906250 0
  0.843750   0.531250 0
  0.656250   0.937500 0
  0.656250   0.906250 0
  0.562500   0.812500 0
  0.562500   0.843750 0
  0.593750   0.875000 0
  0.593750   0.843750 0
  0.812500   0.718750 0
  0.625000   0.625000 0
  0.968750   0.875000 0
  0.531250   0.875000 0
  0.625000   0.937500 0
  0.562500   0.562500 0
  0.906250   0.812500 0
  0.531250   0.781250 0
  0.562500   0.593750 0
  0.906250   0.843750 0
  0.625000   0.656250 0
  0.968750   0.906250 0
  0.687500   0.968750 0
  0.812500   0.812500 0
  0.687500   1.000000 0
  0.687500   0.687500 0
  0.937500   0.843750 0
  0.593750   0.593750 0
  1.000000   0.625000 0
  0.968750   0.593750 0
  0.906250   0.875000 0
  0.968750   0.625000 0
  0.625000   0.875000 0
  0.875000   0.875000 0
  0.625000   0.906250 0
  0.875000   0.843750 0
  0.531250   0.812500 0
  0.968750   0.562500 0
  0.593750   0.625000 0
  0.937500   0.875000 0
  0.656250   0.687500 0
  1.000000   0.937500 0
  0.875000   0.562500 0
  0.687500   0.937500 0
  0.937500   0.625000 0
  0.812500   0.781250 0
  0.937500   0.562500 0
  0.875000   0.781250 0
  0.531250   0.531250 0
  0.718750   0.937500 0
  0.968750   0.937500 0
  0.906250   0.562500 0
  0.843750   0.781250 0
  0.593750   0.562500 0
  1.000000   0.906250 0
  0.656250   0.656250 0
  0.937500   0.906250 0
  0.875000   0.531250 0
  0.812500   0.750000 0
  0.656250   0.968750 0
  0.937500   0.531250 0
  0.843750   0.812500 0
  0.906250   0.531250 0
  0.843750   0.750000 0
  0.937500   0.593750 0
  0.875000   0.812500 0
  0.531250   0.562500 0
  1.000000   0.593750 0
  0.562500   0.906250 0
  0.562500   0.531250 0
  0.593750   0.906250 0
  0.593750   0.937500 0
  0.562500   0.875000 0
  0.781250   0.750000 0
  0.781250   0.781250 0
  0.593750   0.531250 0
  1.000000   0.687500 0
  0.531250   0.843750 0
  0.718750   0.718750 0
  0.781250   0.718750 0
  0.781250   0.687500 0
  1.000000   0.656250 0
  0.968750   0.656250 0
  0.843750   0.843750 0
  0.781250   1.000000 0
  0.656250   0.312500 0
  0.531250   0.250000 0
  0.875000   0.500000 0
  0.531250   0.218750 0
  0.875000   0.468750 0
  0.531250   0.156250 0
  0.593750   0.812500 0
  0.093750   0.562500 0
  0.656250   0.562500 0
  0.156250   0.312500 0
  0.031250   0.812500 0
  0.125000   1.000000 0
  0.312500   0.250000 0
  0.250000   0.500000 0
  0.375000   0.000000 0
  0.187500   0.750000 0
  0.812500   0.906250 0
  0.312500   0.656250 0
  0.250000   0.906250 0
  0.875000   0.656250 0
  0.375000   0.406250 0
  0.750000   0.843750 0
  0.250000   0.593750 0
  0.187500   0.843750 0
  0.812500   0.593750 0
  0.312500   0.343750 0
  0.625000   0.968750 0
  0.125000   0.718750 0
  0.687500   0.718750 0
  0.187500   0.468750 0
  0.062500   0.968750 0
  0.125000   0.656250 0
  0.187500   0.406250 0
  0.250000   0.156250 0
  0.062500   0.906250 0
  0.468750   0.906250 0
  0.656250   0.156250 0
  0.468750   0.812500 0
  0.593750   0.312500 0
  0.656250   0.062500 0
  0.625000   0.812500 0
  0.125000   0.562500 0
  0.687500   0.562500 0
  0.187500   0.312500 0
  0.062500   0.812500 0
  0.562500   0.937500 0
  0.062500   0.687500 0
  0.625000   0.687500 0
  0.125000   0.437500 0
  0.000000   0.937500 0
  0.062500   0.625000 0
  0.187500   0.125000 0
  0.125000   0.375000 0
  0.000000   0.875000 0
  0.406250   0.875000 0
  0.468750   0.625000 0
  0.593750   0.125000 0
  0.812500   0.937500 0
  0.312500   0.687500 0
  0.250000   0.937500 0
  0.875000   0.687500 0
  0.375000   0.437500 0
  0.750000   0.875000 0
  0.250000   0.625000 0
  0.187500   0.875000 0
  0.812500   0.625000 0
  0.312500   0.375000 0
  0.468750   0.781250 0
  0.593750   0.281250 0
  0.656250   0.031250 0
  0.625000   0.781250 0
  0.125000   0.531250 0
  0.062500   0.781250 0
  0.687500   0.531250 0
  0.187500   0.281250 0
  0.500000   0.812500 0
  0.687500   0.062500 0
  0.625000   0.312500 0
  0.656250   0.812500 0
  0.156250   0.562500 0
  0.718750   0.562500 0
  0.218750   0.312500 0
  0.093750   0.812500 0
  0.437500   0.968750 0
  0.625000   0.218750 0
  0.500000   0.781250 0
  0.687500   0.031250 0
  0.625000   0.281250 0
  0.656250   0.781250 0
  0.156250   0.531250 0
  0.718750   0.531250 0
  0.218750   0.281250 0
  0.093750   0.781250 0
  0.062500   0.562500 0
  0.125000   0.312500 0
  0.187500   0.062500 0
  0.000000   0.812500 0
  0.406250   0.812500 0
  0.968750   0.812500 0
  0.468750   0.562500 0
  0.593750   0.062500 0
  0.218750   0.687500 0
  0.156250   0.937500 0
  0.281250   0.437500 0
  0.062500   0.843750 0
  0.687500   0.593750 0
  0.187500   0.343750 0
  0.625000   0.843750 0
  0.125000   0.593750 0
  0.312500   0.843750 0
  0.437500   0.343750 0
  0.500000   0.093750 0
  0.375000   0.593750 0
  0.312500   0.906250 0
  0.937500   0.656250 0
  0.437500   0.406250 0
  0.875000   0.906250 0
  0.375000   0.656250 0
  0.062500   0.875000 0
  0.187500   0.375000 0
  0.250000   0.125000 0
  0.125000   0.625000 0
  0.093750   0.656250 0
  0.031250   0.906250 0
  0.218750   0.156250 0
  0.156250   0.406250 0
  0.593750   0.968750 0
  0.093750   0.718750 0
  0.031250   0.968750 0
  0.656250   0.718750 0
  0.156250   0.468750 0
  0.437500   0.906250 0
  0.625000   0.156250 0
  0.718750   0.812500 0
  0.218750   0.562500 0
  0.781250   0.562500 0
  0.281250   0.312500 0
  0.156250   0.812500 0
  0.062500   0.656250 0
  0.000000   0.906250 0
  0.187500   0.156250 0
  0.125000   0.406250 0
  0.562500   0.968750 0
  0.062500   0.718750 0
  0.000000   0.968750 0
  0.625000   0.718750 0
  0.125000   0.468750 0
  0.406250   0.968750 0
  0.968750   0.968750 0
  0.468750   0.718750 0
  0.531250   0.468750 0
  0.593750   0.218750 0
  0.406250   0.906250 0
  0.468750   0.656250 0
  0.593750   0.156250 0
  0.687500   0.781250 0
  0.187500   0.531250 0
  0.750000   0.531250 0
  0.250000   0.281250 0
  0.125000   0.781250 0
  0.781250   0.906250 0
  0.281250   0.656250 0
  0.218750   0.906250 0
  0.843750   0.656250 0
  0.343750   0.406250 0
  0.750000   0.906250 0
  0.250000   0.656250 0
  0.187500   0.906250 0
  0.812500   0.656250 0
  0.312500   0.406250 0
  0.875000   0.406250 0
  0.375000   0.156250 0
  0.812500   0.968750 0
  0.312500   0.718750 0
  0.250000   0.968750 0
  0.875000   0.718750 0
  0.375000   0.468750 0
  0.781250   0.937500 0
  0.281250   0.687500 0
  0.218750   0.937500 0
  0.843750   0.687500 0
  0.343750   0.437500 0
  0.718750   0.875000 0
  0.218750   0.625000 0
  0.156250   0.875000 0
  0.781250   0.625000 0
  0.281250   0.375000 0
  0.750000   0.937500 0
  0.250000   0.687500 0
  0.187500   0.937500 0
  0.875000   0.437500 0
  0.375000   0.187500 0
  0.812500   0.687500 0
  0.312500   0.437500 0
  0.687500   0.875000 0
  0.187500   0.625000 0
  0.750000   0.625000 0
  0.250000   0.375000 0
  0.125000   0.875000 0
  0.812500   1.000000 0
  0.312500   0.750000 0
  0.250000   1.000000 0
  0.875000   0.750000 0
  0.375000   0.500000 0
  0.562500   1.000000 0
  0.062500   0.750000 0
  0.000000   1.000000 0
  0.625000   0.750000 0
  0.125000   0.500000 0
  0.406250   1.000000 0
  0.968750   1.000000 0
  0.468750   0.750000 0
  0.656250   0.000000 0
  0.531250   0.500000 0
  0.593750   0.250000 0
  0.406250   0.937500 0
  0.468750   0.687500 0
  0.593750   0.187500 0
  0.687500   0.812500 0
  0.187500   0.562500 0
  0.750000   0.562500 0
  0.250000   0.312500 0
  0.125000   0.812500 0
  0.437500   0.843750 0
  0.625000   0.093750 0
  0.093750   0.593750 0
  0.156250   0.343750 0
  0.218750   0.093750 0
  0.031250   0.843750 0
  0.281250   0.937500 0
  0.843750   0.937500 0
  0.343750   0.687500 0
  0.906250   0.687500 0
  0.406250   0.437500 0
  0.156250   0.968750 0
  0.218750   0.718750 0
  0.281250   0.468750 0
  0.343750   0.218750 0
  0.156250   1.000000 0
  0.406250   0.000000 0
  0.281250   0.500000 0
  0.343750   0.250000 0
  0.218750   0.750000 0
  0.187500   0.968750 0
  0.250000   0.718750 0
  0.375000   0.218750 0
  0.312500   0.468750 0
  0.187500   1.000000 0
  0.312500   0.500000 0
  0.375000   0.250000 0
  0.437500   0.000000 0
  0.250000   0.750000 0
  0.031250   0.781250 0
  0.656250   0.531250 0
  0.156250   0.281250 0
  0.593750   0.781250 0
  0.093750   0.531250 0
  0.000000   0.781250 0
  0.625000   0.531250 0
  0.125000   0.281250 0
  0.562500   0.781250 0
  0.062500   0.531250 0
  0.781250   0.968750 0
  0.281250   0.718750 0
  0.218750   0.968750 0
  0.843750   0.718750 0
  0.343750   0.468750 0
  0.281250   0.968750 0
  0.843750   0.968750 0
  0.343750   0.718750 0
  0.906250   0.718750 0
  0.406250   0.468750 0
  0.281250   1.000000 0
  0.906250   0.750000 0
  0.406250   0.500000 0
  0.843750   1.000000 0
  0.343750   0.750000 0
  0.531250   0.000000 0
  0.718750   0.843750 0
  0.218750   0.593750 0
  0.156250   0.843750 0
  0.781250   0.593750 0
  0.281250   0.343750 0
  0.687500   0.843750 0
  0.187500   0.593750 0
  0.750000   0.593750 0
  0.250000   0.343750 0
  0.125000   0.843750 0
  0.218750   0.875000 0
  0.843750   0.625000 0
  0.343750   0.375000 0
  0.781250   0.875000 0
  0.281250   0.625000 0
  0.156250   0.906250 0
  0.781250   0.656250 0
  0.281250   0.406250 0
  0.718750   0.906250 0
  0.218750   0.656250 0
  0.031250   1.000000 0
  0.656250   0.750000 0
  0.156250   0.500000 0
  0.593750   1.000000 0
  0.093750   0.750000 0
  0.218750   1.000000 0
  0.343750   0.500000 0
  0.468750   0.000000 0
  0.406250   0.250000 0
  0.281250   0.750000 0
  0.593750   0.406250 0
  0.093750   0.156250 0
  0.531250   0.656250 0
  0.031250   0.406250 0
[...]
CELL_DATA 1024
VECTORS vector_value float
-0.127468 -0.919474 0
0.0389887 -0.905392 0
0.0067471 -1.2893 0
-0.733635 -2.4047 0
-0.58526 -2.27653 0
-0.928 -2.47649 0
-0.130581 -0.607069 0
0.0302246 -0.856835 0
0.00487239 -0.698867 0
-0.0723905 -0.718986 0
-0.0456835 -0.717536 0
0.00311758 -0.88517 0
0.032557 -0.927003 0
-0.055399 -0.695759 0
0.0575652 -0.732005 0
0.0816504 -0.720602 0
-0.0178472 -0.94118 0
0.046516 -0.836773 0
-0.0918047 -0.684465 0
-0.151858 -0.458826 0
-0.173863 -0.519237 0
-0.143596 -0.388428 0
-0.264762 -0.654905 0
-0.196671 -0.49807 0
0.521657 -1.98387 0
0.285228 -1.95011 0
0.153499 -1.61173 0
0.393997 -1.81077 0
-1.06854 -3.01474 0
-0.0254031 -0.999197 0
-0.00773194 -1.52523 0
-0.0381486 -1.44893 0
-0.145915 -1.46199 0
-0.0681317 -1.61473 0
-0.0914011 -0.793616 0
-0.157003 -0.532324 0
-0.0372829 -0.700749 0
-0.081547 -0.510317 0
-0.0246994 -0.930226 0
-0.410848 -1.17992 0
0.687222 -1.78398 0
0.691735 -1.92464 0
-0.262337 -1.82406 0
0.489952 -2.35742 0
0.664885 -1.97711 0
-0.0697292 -0.418408 0
-0.236531 -1.62777 0
0.631699 -1.49685 0
-0.178831 -0.499411 0
-0.259285 -1.73778 0
0.563046 -2.11117 0
0.447143 -2.03033 0
-0.359131 -1.9627 0
-0.430429 -1.73272 0
-0.727611 -2.01745 0
-0.555883 -1.84302 0
-0.48028 -2.00582 0
0.530867 -2.38185 0
0.234466 -1.6985 0
-1.11976 -1.70676 0
-0.124359 -0.874697 0
-0.0503825 -0.791637 0
0.337537 -1.9824 0
-0.58809 -2.10434 0
-0.131733 -0.679647 0
-0.899407 -1.12727 0
-0.99947 -1.16668 0
-0.207867 -0.737685 0
0.663338 -1.88218 0
-0.099092 -0.59037 0
0.00738065 -0.732757 0
0.0541265 -0.916296 0
-1.0245 -1.4753 0
-1.11712 -2.47533 0
0.0529618 -1.72944 0
-0.0757858 -2.15865 0
-0.0408113 -0.820018 0
0.0123181 -0.536001 0
-1.1943 -2.37783 0
-0.174731 -1.50607 0
-0.777352 -0.919803 0
-0.994407 -1.58571 0
-0.811111 -1.83838 0
-0.936943 -2.05562 0
-0.0089511 -2.0463 0
-1.07459 -2.09588 0
-0.407818 -0.868024 0
-0.933204 -1.19734 0
-0.952694 -1.75824 0
-0.121684 -1.42144 0
0.0622964 -0.977811 0
-1.08416 -1.47938 0
-1.15738 -2.3449 0
-1.36464 -2.02538 0
-0.150979 -1.30107 0
-1.01052 -1.67313 0
-0.188843 -1.26089 0
-0.649085 -1.61616 0
-0.624196 -1.56821 0
-0.914377 -1.76318 0
-0.841427 -1.9747 0
-0.247441 -2.94873 0
-0.161594 -0.950495 0
-1.10776 -1.97852 0
0.0136018 -1.70651 0
-0.382484 -1.95614 0
-0.127192 -1.20591 0
-0.0917166 -0.74397 0
0.0440499 -0.789964 0
-1.14156 -1.54893 0
-1.12988 -2.52481 0
0.100906 -1.65675 0
0.0232468 -0.758488 0
-0.269028 -1.91362 0
-0.0741599 -0.882256 0
0.0166318 -0.57754 0
-1.07982 -2.3568 0
-0.805962 -2.49646 0
0.637383 -1.80245 0
-0.513526 -1.33181 0
0.0571645 -0.971808 0
-0.0947607 -0.534486 0
0.0570928 -0.720871 0
0.130067 -0.984482 0
-0.525963 -1.18102 0
-0.620348 -1.86312 0
-0.493239 -2.12087 0
0.163569 -1.39192 0
-1.16489 -1.80065 0
-0.0201855 -1.73301 0
-0.140705 -1.82277 0
-0.0501577 -1.13807 0
0.498995 -2.11094 0
-0.151835 -1.44585 0
0.0826013 -1.09277 0
-0.0785762 -1.90706 0
-0.261624 -1.66431 0
-0.235444 -0.734693 0
0.252984 -2.2346 0
-0.600487 -2.36886 0
-0.00396636 -0.595658 0
-0.760446 -1.85427 0
-0.192365 -0.420385 0
0.495916 -1.47427 0
0.0173494 -0.952241 0
-1.17571 -2.37212 0
-0.370322 -0.672008 0
-0.418909 -2.14641 0
-0.116737 -1.18261 0
0.0337964 -1.01423 0
-0.536596 -1.49633 0
-0.786512 -2.16894 0
-0.664452 -1.91203 0
0.0475571 -1.16201 0
-0.217008 -0.561198 0
-0.14865 -0.43693 0
0.037948 -0.621002 0
0.300481 -1.31806 0
0.500708 -1.86271 0
-0.618535 -1.43119 0
-0.00128961 -1.0987 0
0.116859 -0.961355 0
0.22924 -1.88456 0
-0.0839638 -2.34889 0
-0.00888092 -0.568645 0
-1.01437 -2.2019 0
-0.182901 -0.471169 0
0.400733 -1.27597 0
-0.0133403 -0.965498 0
0.783222 -2.09121 0
-0.251295 -0.964169 0
-1.13363 -1.97098 0
-0.322209 -1.67624 0
-1.32855 -2.2968 0
-0.494381 -1.87826 0
-0.972478 -2.05871 0
-0.0064875 -1.84016 0
-0.0347293 -1.47784 0
-1.18961 -1.35794 0
-0.228321 -1.97802 0
-0.0599487 -1.57095 0
-0.605943 -1.3886 0
-0.304601 -2.20466 0
-0.057691 -1.42359 0
0.0310403 -1.08391 0
-0.185689 -1.64113 0
-0.231732 -1.79489 0
0.0755538 -1.35605 0
-0.720664 -1.85233 0
-0.134937 -1.72042 0
-0.188765 -1.70531 0
-0.198181 -1.18123 0
-0.0724285 -1.60831 0
0.0658526 -1.26503 0
0.609449 -1.64155 0
-0.216554 -0.553458 0
-0.129166 -1.74651 0
-0.506635 -0.964745 0
-0.203956 -1.99666 0
0.31845 -1.52363 0
-0.271722 -1.50369 0
-0.322621 -1.78347 0
-0.0394855 -1.48142 0
-0.661493 -0.695472 0
-0.845055 -1.23052 0
0.0930364 -0.781561 0
-0.0830415 -1.21978 0
-0.22897 -0.809024 0
0.0541403 -0.930427 0
0.0879614 -0.787442 0
0.0278575 -1.43834 0
-0.253779 -0.830763 0
-0.127773 -0.835285 0
0.0338195 -0.958126 0
-0.214336 -1.5187 0
0.0495487 -0.88511 0
-0.225837 -1.31081 0
-0.134896 -1.14859 0
0.346392 -1.81698 0
-0.300686 -1.25364 0
0.0677605 -1.39968 0
-0.825538 -2.14964 0
-0.480941 -2.44009 0
-0.332493 -1.8852 0
-0.525403 -1.69973 0
-0.0970086 -0.685233 0
-0.0258092 -1.1597 0
-0.024743 -0.930966 0
-0.746513 -2.75675 0
-0.115205 -0.566941 0
-0.205467 -1.59017 0
-0.0760874 -1.98478 0
-0.986269 -2.76844 0
-0.0364022 -0.636816 0
-0.197517 -1.93956 0
-0.158254 -1.33019 0
-0.648544 -2.45686 0
-0.0966136 -0.64444 0
-0.635147 -1.64214 0
-0.733768 -2.29615 0
-0.259176 -2.49526 0
-0.0465312 -0.913127 0
0.0108075 -1.797 0
-0.270806 -1.76056 0
-0.690102 -2.14095 0
-0.526734 -2.16234 0
0.000916492 -0.562856 0
0.185112 -1.66475 0
0.0140287 -0.573202 0
0.247177 -1.43826 0
0.441957 -1.63331 0
0.376224 -1.84586 0
-0.0602399 -1.45513 0
-0.0101244 -1.69914 0
-0.114577 -1.8114 0
-0.316509 -1.59785 0
0.959279 -2.31109 0
1.13324 -2.30102 0
-0.506944 -1.20344 0
-0.323324 -1.49592 0
-0.311472 -1.23921 0
-0.549209 -1.03347 0
0.187761 -0.969548 0
-0.0404729 -0.804265 0
0.0271448 -0.842397 0
-0.0645789 -1.95714 0
-0.259876 -1.61632 0
-0.442938 -1.41984 0
-0.259673 -1.50445 0
1.01127 -2.35794 0
0.67443 -2.21043 0
0.281443 -1.45843 0
0.0586658 -1.93856 0
0.0698123 -2.00938 0
0.0364123 -1.45906 0
-0.141511 -0.635155 0
-0.00862269 -2.00246 0
-0.120435 -1.73257 0
-0.243089 -1.19385 0
-0.179845 -1.31418 0
-0.0243376 -0.69424 0
-0.0708425 -0.651903 0
-0.323136 -0.595241 0
-0.330409 -0.869472 0
0.200209 -0.997939 0
-0.098048 -0.860943 0
-0.0995898 -0.98775 0
0.0876996 -0.948201 0
-0.172809 -1.2598 0
-0.105507 -0.741716 0
-0.230929 -1.23363 0
-0.139967 -0.945879 0
-0.111501 -0.753559 0
-0.184798 -0.986467 0
0.434359 -1.18848 0
-0.102928 -0.848691 0
0.269405 -1.05082 0
0.0669699 -1.1461 0
-0.298632 -0.882826 0
-0.0553357 -0.835228 0
-0.311191 -0.891965 0
-0.0492258 -0.970499 0
-0.0975126 -0.901903 0
-0.258753 -1.05718 0
-0.119858 -1.05102 0
0.0390468 -0.869727 0
-0.0756616 -1.04926 0
-0.176146 -0.872722 0
-0.0814294 -0.599591 0
-0.0412727 -0.299687 0
-0.124701 -0.822651 0
0.331768 -1.52264 0
-0.07205 -0.685341 0
0.326456 -1.1795 0
-0.202444 -0.552079 0
-0.0178471 -0.334112 0
-0.0455844 -0.933927 0
0.121172 -1.3172 0
0.252048 -1.12608 0
0.372827 -1.30307 0
0.023125 -1.07082 0
-0.316237 -1.60357 0
-0.15555 -0.782116 0
0.769988 -2.08192 0
-0.118554 -0.553111 0
-0.0270421 -0.224987 0
0.609252 -2.02279 0
0.213385 -1.31644 0
0.16005 -0.812377 0
0.00737513 -0.566865 0
-0.379034 -1.66049 0
0.903759 -1.98095 0
0.47194 -0.808527 0
0.0386089 -0.524828 0
-0.44859 -1.47289 0
0.446425 -1.43608 0
-0.601412 -1.88164 0
-0.426053 -1.79182 0
-0.0690887 -0.575871 0
-0.344425 -0.972586 0
-0.0496629 -0.700348 0
-0.477917 -1.94544 0
-0.765205 -1.89481 0
-0.137098 -0.533715 0
-0.275596 -1.08385 0
-0.102316 -0.755484 0
-0.0148568 -0.734857 0
-0.0774634 -0.361456 0
-0.19472 -0.624785 0
-0.012522 -0.696011 0
-0.491824 -1.62777 0
-0.281102 -0.795487 0
-0.0287357 -0.986827 0
0.0354019 -0.881946 0
-0.191178 -1.04908 0
-0.329268 -1.37769 0
0.160668 -0.63806 0
-0.0509865 -0.549135 0
0.724896 -1.85174 0
0.0853739 -0.698095 0
-0.576261 -0.873888 0
0.288705 -1.23134 0
0.17642 -1.47324 0
-0.551535 -1.67248 0
-0.161802 -0.815601 0
-0.155878 -0.746936 0
0.628275 -1.75884 0
-0.84279 -1.69438 0
-0.0621794 -1.00569 0
-0.12574 -1.24565 0
-0.193365 -1.38373 0
0.150184 -1.14174 0
0.141636 -1.02026 0
-0.559605 -1.27265 0
-0.282108 -1.78945 0
0.0490695 -0.610106 0
0.002765 -0.568904 0
1.00451 -2.32205 0
-0.745612 -0.853929 0
0.135227 -0.908329 0
0.579819 -1.09583 0
-0.221927 -0.547678 0
-0.0414967 -0.7988 0
0.088927 -1.16744 0
0.390132 -1.31122 0
0.0919622 -0.545427 0
-0.281962 -0.534269 0
-0.425409 -0.678376 0
-0.328205 -0.602315 0
-0.56266 -0.823807 0
-0.190462 -1.8381 0
-0.0251768 -0.562405 0
0.786959 -2.30391 0
-0.116161 -0.41384 0
-0.166626 -0.727967 0
-0.0689742 -0.68247 0
-0.235964 -0.548224 0
0.296489 -1.44789 0
0.359605 -1.07486 0
-0.408219 -1.30283 0
0.270344 -1.20119 0
-0.0982493 -0.686211 0
-0.246674 -0.515073 0
0.0819504 -0.422305 0
0.218796 -0.705954 0
-0.261378 -1.6331 0
0.600984 -1.36123 0
-0.0494827 -1.01772 0
-0.000471165 -1.0606 0
-0.161795 -0.49497 0
-0.0113822 -0.187691 0
0.0408578 -0.237664 0
-0.0450151 -0.914227 0
-0.106917 -1.56416 0
0.106642 -1.29685 0
-0.150235 -1.34107 0
-0.218483 -1.66856 0
0.0129157 -1.2249 0
0.149426 -1.15197 0
-0.0177852 -1.44588 0
-0.0503699 -1.30695 0
-0.270843 -1.06546 0
0.365749 -0.98755 0
-0.278201 -2.36481 0
-0.552954 -1.41068 0
0.0803438 -0.749889 0
-0.162395 -0.782569 0
-0.124702 -0.707511 0
0.0301866 -0.760004 0
-0.11254 -0.771969 0
0.299611 -1.40559 0
-0.1692 -0.751177 0
-0.0742165 -0.821141 0
-0.336198 -0.738736 0
0.0651252 -0.697923 0
-0.149353 -0.718181 0
-0.0879771 -0.687881 0
-0.15364 -1.00607 0
-0.105077 -0.850173 0
0.240901 -2.13202 0
-0.147622 -1.16007 0
-0.00763022 -1.07515 0
-0.151188 -1.92145 0
-0.269617 -1.21381 0
-0.0408637 -1.19418 0
-0.162424 -1.77986 0
-0.331147 -1.38951 0
0.902594 -2.83787 0
-0.671333 -1.02022 0
-0.321183 -1.66319 0
-0.115731 -1.65793 0
0.541729 -1.90814 0
-0.470496 -0.79372 0
0.0225438 -2.05908 0
0.401541 -1.49958 0
-0.557343 -1.03818 0
-0.609547 -1.98945 0
-0.112707 -2.20087 0
0.943094 -2.41992 0
-0.827172 -1.28584 0
-0.129083 -1.33254 0
-0.411168 -1.32947 0
-0.113785 -0.973868 0
-0.421924 -0.921451 0
-0.214262 -0.913418 0
-0.522973 -0.98748 0
-0.487699 -1.15683 0
-0.00360961 -1.36388 0
-0.280734 -0.560576 0
0.23827 -0.867288 0
-0.249574 -0.500179 0
0.01028 -0.186282 0
0.0740216 -0.360171 0
-0.375067 -0.569692 0
-0.251884 -0.604784 0
-0.463428 -0.713741 0
-0.0866162 -0.771659 0
-0.0975057 -0.892453 0
-0.267694 -1.11858 0
-0.481958 -2.23542 0
-0.507334 -1.74304 0
-0.323004 -1.38983 0
-0.0508043 -0.733506 0
-0.179717 -1.15931 0
0.188719 -0.908957 0
-0.183788 -0.929246 0
-0.0966133 -1.06839 0
-0.201982 -0.678241 0
-0.00628946 -1.10533 0
-0.126971 -0.988782 0
-0.192104 -1.33209 0
-0.232687 -1.4244 0
-0.130832 -0.754462 0
0.475714 -2.75832 0
-0.419917 -0.914293 0
-0.387452 -1.78996 0
-0.0364841 -2.50337 0
-0.151723 -0.788081 0
-0.0869234 -1.47802 0
0.266596 -2.10299 0
-0.151615 -0.562144 0
0.0747277 -1.52732 0
0.56871 -2.27184 0
-0.272036 -0.559808 0
-0.234271 -0.502291 0
-0.280114 -0.625972 0
0.246816 -0.822714 0
0.163577 -0.561779 0
-0.673114 -1.06025 0
-0.65806 -1.19921 0
-0.597798 -0.999293 0
-0.815595 -1.10765 0
0.200386 -0.501981 0
0.455565 -0.895862 0
0.353388 -0.773874 0
0.03029 -0.476176 0
-0.00174848 -0.47223 0
-0.315369 -0.604581 0
-0.401098 -0.776205 0
-0.273877 -0.520235 0
-0.499974 -1.56794 0
-0.387231 -1.01255 0
-0.24278 -1.00897 0
-0.0487719 -0.191958 0
-0.293327 -0.858211 0
-0.417688 -0.866921 0
0.399904 -0.585683 0
0.549016 -0.837803 0
0.352362 -0.634749 0
0.240357 -0.445775 0
0.0179933 -0.199911 0
0.273797 -0.641482 0
0.135908 -0.519706 0
0.0832927 -0.750483 0
0.207067 -0.703666 0
0.180251 -0.585509 0
0.0674306 -0.605925 0
-0.370815 -0.640193 0
-0.435248 -0.820698 0
-0.355323 -0.808249 0
-0.351669 -0.733146 0
-0.129993 -1.09994 0
-0.217894 -1.12941 0
0.0779825 -0.631483 0
0.406646 -0.730583 0
-0.274833 -1.35168 0
-0.0231743 -0.188887 0
-0.126462 -1.45441 0
-0.415754 -1.1555 0
-0.000932918 -0.184908 0
-0.109155 -1.2479 0
-0.395512 -1.08447 0
-0.248083 -1.47292 0
-0.420381 -0.879467 0
-0.179371 -1.51012 0
-0.442544 -0.887967 0
0.544065 -0.970397 0
0.0445185 -0.20335 0
0.0164927 -0.17767 0
0.312351 -0.51573 0
0.137305 -0.283358 0
0.170157 -0.416203 0
0.05924 -0.208132 0
-0.265656 -1.09062 0
0.31107 -0.69321 0
0.210872 -0.357515 0
-0.341419 -0.981443 0
-0.0165247 -0.346851 0
0.0146701 -0.181747 0
0.0134141 -0.160044 0
0.0199792 -0.168685 0
-0.00290463 -0.219904 0
-0.0707907 -1.17684 0
-0.0282032 -0.330081 0
0.011845 -0.154489 0
0.0199175 -0.224099 0
-0.00685287 -0.231419 0
-0.169031 -1.29233 0
0.192312 -0.508766 0
-0.329041 -0.998612 0
0.0310932 -0.191937 0
0.000499559 -0.167867 0
0.00773438 -0.166064 0
-0.0776649 -0.223806 0
-0.00555703 -0.244334 0
-0.304746 -1.74993 0
0.00995274 -0.402084 0
-0.00805733 -0.187449 0
-0.266674 -0.325649 0
-0.0166109 -0.243952 0
-0.333685 -1.50545 0
-0.257459 -1.99557 0
0.0814633 -0.467744 0
-0.413923 -1.21626 0
-0.00298243 -0.227954 0
-0.0395659 -0.36302 0
0.000113153 -0.251861 0
0.0094343 -0.375593 0
-0.38165 -1.1009 0
0.374334 -0.793076 0
0.367841 -0.605052 0
0.114059 -0.307383 0
0.0279301 -0.190194 0
0.403109 -0.603849 0
-0.0228212 -0.191618 0
-0.100922 -1.23781 0
-0.0179105 -0.254189 0
-0.369703 -1.2737 0
-0.288526 -1.85129 0
0.240775 -0.579764 0
0.505032 -0.722437 0
-0.512021 -1.33676 0
-0.0158429 -0.201414 0
-0.0104108 -0.602847 0
0.00510716 -0.203335 0
-0.0360734 -0.196617 0
0.158687 -0.529437 0
0.00363277 -0.887281 0
-0.00514606 -0.219473 0
0.152824 -0.484326 0
-0.296553 -0.782128 0
-0.0113076 -0.236722 0
0.390821 -0.691864 0
0.252521 -0.428182 0
0.00185298 -0.18178 0
-0.0156508 -0.268511 0
0.456643 -0.637938 0
-0.192299 -0.391915 0
-0.0255413 -0.201179 0
-0.00994233 -0.202839 0
-0.0158371 -0.676472 0
-0.00997572 -0.590029 0
0.0437011 -0.206668 0
-0.0530043 -0.357077 0
0.00372533 -0.23212 0
-0.0289314 -0.179005 0
-0.118715 -0.195175 0
-0.132598 -1.43838 0
-0.335139 -1.27899 0
0.27585 -0.805637 0
-0.0429777 -0.7085 0
0.0134144 -0.691135 0
-0.0304346 -0.187344 0
0.168163 -0.538263 0
-0.0108887 -0.193117 0
-0.00907766 -0.246961 0
-0.55155 -1.45566 0
-0.325385 -1.42716 0
-0.073899 -0.223719 0
-0.0533582 -1.22145 0
0.0977373 -0.688704 0
-0.0114367 -0.175819 0
-0.0184124 -0.480877 0
0.0877555 -0.935804 0
-0.011578 -0.222451 0
-0.0397089 -0.410485 0
0.458607 -0.739768 0
0.27375 -0.921709 0
-0.0241133 -0.182284 0
0.0114719 -0.656822 0
0.493794 -0.761028 0
0.268176 -0.651566 0
-0.34579 -1.3606 0
-0.0164216 -0.153799 0
-0.104793 -1.06607 0
0.185424 -0.764394 0
0.530288 -0.966612 0
-0.0116673 -0.201977 0
0.110458 -0.452935 0
0.00817421 -0.222562 0
0.0670251 -0.455306 0
0.000638772 -0.237184 0
-0.0330922 -0.395548 0
0.00476313 -0.203963 0
0.0239466 -0.420639 0
-0.360394 -0.968284 0
-0.437689 -0.915112 0
-0.336428 -0.862243 0
0.136963 -0.306076 0
-0.0938027 -0.256725 0
0.0441054 -0.211754 0
-0.19275 -0.500874 0
0.116766 -0.513788 0
-0.0405491 -0.45563 0
0.22101 -0.575346 0
0.0027387 -0.170868 0
-0.163271 -0.224261 0
-0.257466 -0.803632 0
0.113421 -0.328052 0
-0.00106769 -0.192965 0
-0.039637 -0.202384 0
0.00975752 -0.584619 0
-0.101237 -0.673604 0
0.242926 -0.451242 0
-0.00362465 -0.273613 0
0.0821129 -0.478417 0
-0.0422041 -0.696637 0
0.11162 -0.300284 0
-0.124321 -0.19406 0
-0.0191032 -0.269882 0
0.0687088 -0.569438 0
-0.149612 -0.7151 0
0.0309329 -0.215405 0
0.175075 -1.08074 0
0.535702 -1.13112 0
-0.027524 -0.294994 0
0.0504085 -1.41381 0
-0.0988526 -0.28439 0
0.264266 -1.10289 0
0.21596 -0.554632 0
-0.0407604 -0.205299 0
0.367997 -1.13994 0
0.382927 -0.901125 0
-0.0136701 -0.257886 0
0.0752973 -0.25547 0
0.0972509 -0.34718 0
0.0140738 -0.26276 0
0.0251062 -0.210965 0
0.539 -0.685126 0
-0.0075321 -0.306533 0
0.496993 -0.670974 0
0.00238961 -0.296703 0
0.515343 -0.869795 0
0.472093 -0.797872 0
-0.00357973 -0.178324 0
0.0417454 -0.227343 0
-0.0056848 -0.187377 0
-0.0250567 -0.173847 0
0.00264511 -0.162836 0
0.0141512 -0.435914 0
0.0118232 -0.211441 0
0.012829 -0.243432 0
0.00336052 -0.197289 0
0.0404345 -0.219387 0
-0.0119159 -0.314677 0
0.020872 -0.177193 0
0.0212319 -0.187479 0
-0.00345518 -0.428811 0
0.0075526 -0.232106 0
0.0181512 -0.294077 0
0.0779284 -0.46603 0
0.00472159 -0.188177 0
-0.0127109 -0.138707 0
-0.0691733 -0.235234 0
-0.00421605 -0.154121 0
-0.0393762 -0.218464 0
-0.0307842 -0.16378 0
-0.136488 -0.380276 0
0.345221 -0.598148 0
0.0388105 -0.395224 0
0.245893 -0.602519 0
-0.0115762 -0.231291 0
0.317211 -0.703549 0
-0.00459554 -0.232322 0
0.276953 -0.78292 0
0.233281 -0.531981 0
-0.0246275 -0.189258 0
0.189557 -0.493509 0
-0.0141271 -0.156659 0
0.0353711 -0.596576 0
-0.00161907 -0.340826 0
0.000187961 -0.32333 0
0.0910152 -0.481356 0
-0.332247 -0.568249 0
-0.265781 -0.525909 0
-0.00597425 -0.189547 0
-0.156635 -0.293404 0
-0.322488 -0.35427 0
-0.150652 -0.437006 0
-0.119471 -0.152026 0
-0.266711 -0.245296 0
-0.14709 -0.297733 0
-0.053351 -0.182605 0
-0.656579 -0.673602 0
-0.53008 -0.860827 0
-0.00470919 -0.385528 0
-0.753146 -0.814865 0
-0.831039 -0.67448 0
-0.937757 -0.70466 0
-0.2504 -0.91187 0
0.0888239 -1.14432 0
-0.112369 -1.52232 0
0.116093 -1.23581 0
0.326415 -1.06608 0
-0.221099 -0.805361 0
0.00585402 -0.840996 0
-0.0991484 -0.619042 0
-0.23747 -0.727898 0
-0.757737 -0.652753 0
-1.15337 -0.871409 0
-0.0558827 -1.66026 0
0.237376 -0.963993 0
-0.00480493 -1.67255 0
-0.101676 -0.289654 0
-0.403878 -0.348437 0
-0.349526 -0.250918 0
-1.20492 -0.936897 0
0.00410336 -1.50531 0
0.348539 -0.904076 0
0.224702 -1.66704 0
-0.157731 -0.365405 0
-0.734385 -1.42153 0
-1.07853 -1.60336 0
-0.420638 -0.270677 0
-0.950407 -0.779431 0
-1.14872 -1.02873 0
-0.0011025 -1.49998 0
-0.0456003 -0.364629 0
-0.519152 -0.369992 0
-0.645803 -0.61443 0
-1.03895 -0.904711 0
-0.116891 -1.95337 0
-0.0756803 -0.319532 0
-0.361519 -0.325369 0
-1.11754 -1.1048 0
-0.575549 -0.815136 0
-0.221804 -0.826287 0
-1.13291 -1.63384 0
-0.279985 -1.22558 0
-0.0141911 -1.68233 0
-0.0248676 -0.106228 0
-0.199111 -1.13537 0
-0.265154 -1.68002 0
0.0483106 -0.39248 0
-0.10302 -0.113339 0
-0.288846 -1.12207 0
-0.485314 -1.59023 0
0.0294401 -0.321697 0
-0.0768751 -0.0884657 0
0.116403 -1.49303 0
-0.255794 -1.43244 0
0.196114 -1.27035 0
-0.0564254 -1.22603 0
-1.06623 -0.776544 0
-0.568004 -0.61136 0
-0.262128 -0.250435 0
-0.235056 -1.28185 0
-0.114061 -0.329151 0
-0.362764 -0.718457 0
-1.01114 -0.864631 0
-0.777803 -0.584642 0
-0.483629 -0.508536 0
-0.16959 -0.227462 0
-0.0497733 -0.861769 0
-0.336385 -1.79978 0
-0.0453751 -0.381908 0
-0.0978554 -0.58477 0
-0.664121 -0.552618 0
-0.222973 -0.468534 0
-0.0521461 -1.02488 0
-0.587935 -1.85368 0
-0.48884 -0.424633 0
-0.214046 -0.554582 0
0.0399953 -1.06794 0
-0.515325 -1.33117 0
-0.574757 -0.513903 0
-0.249639 -1.50332 0
-0.0926046 -0.255404 0
-0.0289237 -1.10217 0
-0.189001 -0.129494 0
-0.0194911 -0.147852 0
-1.0136 -1.15509 0
-0.0705336 -1.68304 0
-0.211149 -1.49819 0
0.0804671 -1.77157 0
-0.337982 -0.381042 0
-0.0398317 -0.458317 0
-0.174961 -0.842903 0
-0.0550855 -0.39661 0
-0.160921 -2.03802 0
-0.0869209 -0.34354 0
-0.198715 -1.85994 0
0.0593126 -0.749083 0
-0.476777 -0.330138 0
-0.445864 -0.957876 0
-0.0831442 -0.178214 0
-0.304221 -0.166599 0
-0.00295706 -0.41319 0
-0.073209 -0.368142 0
-0.240725 -1.9789 0
0.115851 -1.50554 0
-0.177089 -0.51737 0
-1.03503 -1.44079 0
-0.0682133 -1.51767 0
-0.0284085 -1.7655 0
0.0164525 -1.50619 0
-0.140318 -0.180783 0
-0.407293 -0.270432 0
0.0511914 -1.31603 0
0.0415763 -0.542 0
-0.966065 -0.990517 0
-1.18144 -1.10222 0
-0.185867 -0.393405 0
-0.320929 -0.504313 0
-0.0255437 -0.131579 0
-0.00985594 -0.116322 0
-0.397175 -1.16143 0
-0.380739 -0.38121 0
-0.786137 -2.23454 0
-0.241206 -0.157235 0
-0.0342159 -1.36289 0
0.17843 -0.834278 0
-1.2015 -1.04025 0
-0.145111 -0.943637 0
-0.0407495 -0.350164 0
-0.231579 -0.383629 0
-0.514425 -0.471254 0
-0.527581 -1.87633 0
-0.0475977 -0.149466 0
-0.444227 -1.12177 0
-0.0141957 -0.116501 0
-0.144032 -1.61021 0
-0.117004 -0.774666 0
-0.0657159 -0.716729 0
-0.0267863 -0.0771261 0
-0.032007 -0.112711 0
-0.0454602 -0.13185 0
-0.0201883 -0.0824588 0
-0.305986 -0.305109 0
0.0054157 -0.191139 0
-0.0391657 -0.221807 0
-0.440196 -1.34635 0
0.23453 -1.46262 0
-0.366583 -0.565439 0
-0.859553 -1.87312 0
-0.122905 -1.30248 0
-0.199941 -0.311525 0
-0.384395 -0.360212 0
0.00326758 -0.164743 0
-0.445658 -1.22454 0