# vtk DataFile Version 2.0
Unstructured Grid by M++
ASCII
DATASET UNSTRUCTURED_GRID
POINTS 1089 float
  0.718750   0.687500 0
  0.750000   0.687500 0
  0.718750   0.656250 0
  0.750000   0.718750 0
  0.625000   0.562500 0
  0.625000   0.593750 0
  0.656250   0.593750 0
  0.750000   0.750000 0
  0.687500   0.656250 0
  0.687500   0.625000 0
  0.656250   0.625000 0
  0.906250   0.593750 0
  1.000000   0.968750 0
  0.750000   0.968750 0
  0.718750   0.968750 0
  0.718750   1.000000 0
  0.750000   1.000000 0
  0.906250   0.906250 0
  0.843750   0.531250 0
  0.656250   0.937500 0
  0.656250   0.906250 0
  0.562500   0.812500 0
  0.562500   0.843750 0
  0.593750   0.875000 0
  0.593750   0.843750 0
  0.812500   0.718750 0
  0.625000   0.625000 0
  0.968750   0.875000 0
  0.531250   0.875000 0
  0.625000   0.937500 0
  0.562500   0.562500 0
  0.906250   0.812500 0
  0.531250   0.781250 0
  0.562500   0.593750 0
  0.906250   0.843750 0
  0.625000   0.656250 0
  0.968750   0.906250 0
  0.687500   0.968750 0
  0.812500   0.812500 0
  0.687500   1.000000 0
  0.687500   0.687500 0
  0.937500   0.843750 0
  0.593750   0.593750 0
  1.000000   0.625000 0
  0.968750   0.593750 0
  0.906250   0.875000 0
  0.968750   0.625000 0
  0.625000   0.875000 0
  0.875000   0.875000 0
  0.625000   0.906250 0
  0.875000   0.843750 0
  0.531250   0.812500 0
  0.968750   0.562500 0
  0.593750   0.625000 0
  0.937500   0.875000 0
  0.656250   0.687500 0
  1.000000   0.937500 0
  0.875000   0.562500 0
  0.687500   0.937500 0
  0.937500   0.625000 0
  0.812500   0.781250 0
  0.937500   0.562500 0
  0.875000   0.781250 0
  0.531250   0.531250 0
  0.718750   0.937500 0
  0.968750   0.937500 0
  0.906250   0.562500 0
  0.843750   0.781250 0
  0.593750   0.562500 0
  1.000000   0.906250 0
  0.656250   0.656250 0
  0.937500   0.906250 0
  0.875000   0.531250 0
  0.812500   0.750000 0
  0.656250   0.968750 0
  0.937500   0.531250 0
  0.843750   0.812500 0
  0.906250   0.531250 0
  0.843750   0.750000 0
  0.937500   0.593750 0
  0.875000   0.812500 0
  0.531250   0.562500 0
  1.000000   0.593750 0
  0.562500   0.906250 0
  0.562500   0.531250 0
  0.593750   0.906250 0
  0.593750   0.937500 0
  0.562500   0.875000 0
  0.781250   0.750000 0
  0.781250   0.781250 0
  0.593750   0.531250 0
  1.000000   0.687500 0
  0.531250   0.843750 0
  0.718750   0.718750 0
  0.781250   0.718750 0
  0.781250   0.687500 0
  1.000000   0.656250 0
  0.968750   0.656250 0
  0.843750   0.843750 0
  0.781250   1.000000 0
  0.656250   0.312500 0
  0.531250   0.250000 0
  0.875000   0.500000 0
  0.531250   0.218750 0
  0.875000   0.468750 0
  0.531250   0.156250 0
  0.593750   0.812500 0
  0.093750   0.562500 0
  0.656250   0.562500 0
  0.156250   0.312500 0
  0.031250   0.812500 0
  0.125000   1.000000 0
  0.312500   0.250000 0
  0.250000   0.500000 0
  0.375000   0.000000 0
  0.187500   0.750000 0
  0.812500   0.906250 0
  0.312500   0.656250 0
  0.250000   0.906250 0
  0.875000   0.656250 0
  0.375000   0.406250 0
  0.750000   0.843750 0
  0.250000   0.593750 0
  0.187500   0.843750 0
  0.812500   0.593750 0
  0.312500   0.343750 0
  0.625000   0.968750 0
  0.125000   0.718750 0
  0.687500   0.718750 0
  0.187500   0.468750 0
  0.062500   0.968750 0
  0.125000   0.656250 0
  0.187500   0.406250 0
  0.250000   0.156250 0
  0.062500   0.906250 0
  0.468750   0.906250 0
  0.656250   0.156250 0
  0.468750   0.812500 0
  0.593750   0.312500 0
  0.656250   0.062500 0
  0.625000   0.812500 0
  0.125000   0.562500 0
  0.687500   0.562500 0
  0.187500   0.312500 0
  0.062500   0.812500 0
  0.562500   0.937500 0
  0.062500   0.687500 0
  0.625000   0.687500 0
  0.125000   0.437500 0
  0.000000   0.937500 0
  0.062500   0.625000 0
  0.187500   0.125000 0
  0.125000   0.375000 0
  0.000000   0.875000 0
  0.406250   0.875000 0
  0.468750   0.625000 0
  0.593750   0.125000 0
  0.812500   0.937500 0
  0.312500   0.687500 0
  0.250000   0.937500 0
  0.875000   0.687500 0
  0.375000   0.437500 0
  0.750000   0.875000 0
  0.250000   0.625000 0
  0.187500   0.875000 0
  0.812500   0.625000 0
  0.312500   0.375000 0
  0.468750   0.781250 0
  0.593750   0.281250 0
  0.656250   0.031250 0
  0.625000   0.781250 0
  0.125000   0.531250 0
  0.062500   0.781250 0
  0.687500   0.531250 0
  0.187500   0.281250 0
  0.500000   0.812500 0
  0.687500   0.062500 0
  0.625000   0.312500 0
  0.656250   0.812500 0
  0.156250   0.562500 0
  0.718750   0.562500 0
  0.218750   0.312500 0
  0.093750   0.812500 0
  0.437500   0.968750 0
  0.625000   0.218750 0
  0.500000   0.781250 0
  0.687500   0.031250 0
  0.625000   0.281250 0
  0.656250   0.781250 0
  0.156250   0.531250 0
  0.718750   0.531250 0
  0.218750   0.281250 0
  0.093750   0.781250 0
  0.062500   0.562500 0
  0.125000   0.312500 0
  0.187500   0.062500 0
  0.000000   0.812500 0
  0.406250   0.812500 0
  0.968750   0.812500 0
  0.468750   0.562500 0
  0.593750   0.062500 0
  0.218750   0.687500 0
  0.156250   0.937500 0
  0.281250   0.437500 0
  0.062500   0.843750 0
  0.687500   0.593750 0
  0.187500   0.343750 0
  0.625000   0.843750 0
  0.125000   0.593750 0
  0.312500   0.843750 0
  0.437500   0.343750 0
  0.500000   0.093750 0
  0.375000   0.593750 0
  0.312500   0.906250 0
  0.937500   0.656250 0
  0.437500   0.406250 0
  0.875000   0.906250 0
  0.375000   0.656250 0
  0.062500   0.875000 0
  0.187500   0.375000 0
  0.250000   0.125000 0
  0.125000   0.625000 0
  0.093750   0.656250 0
  0.031250   0.906250 0
  0.218750   0.156250 0
  0.156250   0.406250 0
  0.593750   0.968750 0
  0.093750   0.718750 0
  0.031250   0.968750 0
  0.656250   0.718750 0
  0.156250   0.468750 0
  0.437500   0.906250 0
  0.625000   0.156250 0
  0.718750   0.812500 0
  0.218750   0.562500 0
  0.781250   0.562500 0
  0.281250   0.312500 0
  0.156250   0.812500 0
  0.062500   0.656250 0
  0.000000   0.906250 0
  0.187500   0.156250 0
  0.125000   0.406250 0
  0.562500   0.968750 0
  0.062500   0.718750 0
  0.000000   0.968750 0
  0.625000   0.718750 0
  0.125000   0.468750 0
  0.406250   0.968750 0
  0.968750   0.968750 0
  0.468750   0.718750 0
  0.531250   0.468750 0
  0.593750   0.218750 0
  0.406250   0.906250 0
  0.468750   0.656250 0
  0.593750   0.156250 0
  0.687500   0.781250 0
  0.187500   0.531250 0
  0.750000   0.531250 0
  0.250000   0.281250 0
  0.125000   0.781250 0
  0.781250   0.906250 0
  0.281250   0.656250 0
  0.218750   0.906250 0
  0.843750   0.656250 0
  0.343750   0.406250 0
  0.750000   0.906250 0
  0.250000   0.656250 0
  0.187500   0.906250 0
  0.812500   0.656250 0
  0.312500   0.406250 0
  0.875000   0.406250 0
  0.375000   0.156250 0
  0.812500   0.968750 0
  0.312500   0.718750 0
  0.250000   0.968750 0
  0.875000   0.718750 0
  0.375000   0.468750 0
  0.781250   0.937500 0
  0.281250   0.687500 0
  0.218750   0.937500 0
  0.843750   0.687500 0
  0.343750   0.437500 0
  0.718750   0.875000 0
  0.218750   0.625000 0
  0.156250   0.875000 0
  0.781250   0.625000 0
  0.281250   0.375000 0
  0.750000   0.937500 0
  0.250000   0.687500 0
  0.187500   0.937500 0
  0.875000   0.437500 0
  0.375000   0.187500 0
  0.812500   0.687500 0
  0.312500   0.437500 0
  0.687500   0.875000 0
  0.187500   0.625000 0
  0.750000   0.625000 0
  0.250000   0.375000 0
  0.125000   0.875000 0
  0.812500   1.000000 0
  0.312500   0.750000 0
  0.250000   1.000000 0
  0.875000   0.750000 0
  0.375000   0.500000 0
  0.562500   1.000000 0
  0.062500   0.750000 0
  0.000000   1.000000 0
  0.625000   0.750000 0
  0.125000   0.500000 0
  0.406250   1.000000 0
  0.968750   1.000000 0
  0.468750   0.750000 0
  0.656250   0.000000 0
  0.531250   0.500000 0
  0.593750   0.250000 0
  0.406250   0.937500 0
  0.468750   0.687500 0
  0.593750   0.187500 0
  0.687500   0.812500 0
  0.187500   0.562500 0
  0.750000   0.562500 0
  0.250000   0.312500 0
  0.125000   0.812500 0
  0.437500   0.843750 0
  0.625000   0.093750 0
  0.093750   0.593750 0
  0.156250   0.343750 0
  0.218750   0.093750 0
  0.031250   0.843750 0
  0.281250   0.937500 0
  0.843750   0.937500 0
  0.343750   0.687500 0
  0.906250   0.687500 0
  0.406250   0.437500 0
  0.156250   0.968750 0
  0.218750   0.718750 0
  0.281250   0.468750 0
  0.343750   0.218750 0
  0.156250   1.000000 0
  0.406250   0.000000 0
  0.281250   0.500000 0
  0.343750   0.250000 0
  0.218750   0.750000 0
  0.187500   0.968750 0
  0.250000   0.718750 0
  0.375000   0.218750 0
  0.312500   0.468750 0
  0.187500   1.000000 0
  0.312500   0.500000 0
  0.375000   0.250000 0
  0.437500   0.000000 0
  0.250000   0.750000 0
  0.031250   0.781250 0
  0.656250   0.531250 0
  0.156250   0.281250 0
  0.593750   0.781250 0
  0.093750   0.531250 0
  0.000000   0.781250 0
  0.625000   0.531250 0
  0.125000   0.281250 0
  0.562500   0.781250 0
  0.062500   0.531250 0
  0.781250   0.968750 0
  0.281250   0.718750 0
  0.218750   0.968750 0
  0.843750   0.718750 0
  0.343750   0.468750 0
  0.281250   0.968750 0
  0.843750   0.968750 0
  0.343750   0.718750 0
  0.906250   0.718750 0
  0.406250   0.468750 0
  0.281250   1.000000 0
  0.906250   0.750000 0
  0.406250   0.500000 0
  0.843750   1.000000 0
  0.343750   0.750000 0
  0.531250   0.000000 0
  0.718750   0.843750 0
  0.218750   0.593750 0
  0.156250   0.843750 0
  0.781250   0.593750 0
  0.281250   0.343750 0
  0.687500   0.843750 0
  0.187500   0.593750 0
  0.750000   0.593750 0
  0.250000   0.343750 0
  0.125000   0.843750 0
  0.218750   0.875000 0
  0.843750   0.625000 0
  0.343750   0.375000 0
  0.781250   0.875000 0
  0.281250   0.625000 0
  0.156250   0.906250 0
  0.781250   0.656250 0
  0.281250   0.406250 0
  0.718750   0.906250 0
  0.218750   0.656250 0
  0.031250   1.000000 0
  0.656250   0.750000 0
  0.156250   0.500000 0
  0.593750   1.000000 0
  0.093750   0.750000 0
  0.218750   1.000000 0
  0.343750   0.500000 0
  0.468750   0.000000 0
  0.406250   0.250000 0
  0.281250   0.750000 0
  0.593750   0.406250 0
  0.093750   0.156250 0
  0.531250   0.656250 0
  0.031250   0.406250 0
[...]
CELL_DATA 1024
VECTORS vector_value float
0.707305 -1.4817 0
0.617141 -1.70456 0
0.609713 -1.14039 0
0.66044 -2.28665 0
1.10753 -2.69666 0
1.22788 -2.40526 0
-0.0157526 -1.30714 0
0.0427169 -1.29222 0
-0.0297469 -1.31011 0
0.0325962 -1.25438 0
0.206658 -0.949127 0
0.0531971 -0.875141 0
0.0159281 -0.666046 0
0.0154881 -0.8345 0
0.0178124 -1.14074 0
-0.0185476 -1.18287 0
0.0522484 -0.735086 0
-0.0138247 -0.68165 0
-0.0546878 -1.23719 0
0.00111235 -1.11122 0
-0.108956 -1.27621 0
0.0246817 -1.08915 0
-0.0199257 -1.45436 0
-0.0785937 -1.55983 0
0.416009 -1.25215 0
0.435192 -0.988413 0
0.425022 -0.939912 0
0.220598 -0.930304 0
0.953793 -2.36939 0
-0.0620171 -0.623531 0
0.0330298 -1.34227 0
0.198346 -1.35154 0
0.313494 -1.72124 0
0.0589443 -1.58259 0
-0.0595538 -0.781101 0
-0.0356503 -1.00823 0
0.0248222 -1.09573 0
0.000245666 -0.79254 0
-0.0277171 -0.916271 0
-0.059714 -0.970463 0
-0.123138 -1.73451 0
-0.133396 -1.92313 0
0.816775 -2.34896 0
-0.18421 -1.56808 0
0.083674 -1.90932 0
-0.0549516 -0.588629 0
0.919663 -2.26903 0
0.138791 -1.46231 0
-0.205071 -0.97609 0
1.05751 -3.00745 0
-0.0258056 -2.13292 0
0.449325 -1.53746 0
1.04993 -2.27183 0
0.682213 -1.87323 0
1.25203 -2.49174 0
0.139869 -1.29708 0
1.16722 -2.8707 0
-0.249554 -1.72702 0
-0.192826 -1.73094 0
0.645832 -0.674795 0
0.138873 -1.83727 0
0.241742 -1.8466 0
0.564568 -1.59957 0
0.953242 -1.57416 0
0.130614 -1.34969 0
0.901407 -1.01148 0
0.543619 -0.647963 0
0.12009 -1.49539 0
0.138409 -1.72062 0
-0.0468315 -0.680102 0
0.662144 -2.18369 0
0.525118 -2.6873 0
0.178099 -0.594119 0
0.903475 -1.07981 0
0.144781 -1.26085 0
0.13306 -1.6519 0
0.0892136 -0.655607 0
-0.0222395 -0.603189 0
1.15798 -2.25067 0
0.425605 -1.46687 0
0.740733 -0.886117 0
0.192863 -0.533946 0
1.08907 -0.989478 0
1.14494 -1.04268 0
0.61589 -1.47836 0
1.03685 -1.57345 0
1.07827 -1.48047 0
0.855588 -0.734827 0
0.118592 -0.450583 0
0.951762 -2.49099 0
0.769326 -2.96524 0
0.150172 -0.468901 0
0.829646 -0.915822 0
1.00179 -1.46844 0
0.861154 -1.28773 0
1.33807 -1.07962 0
0.551721 -1.85306 0
1.13569 -2.19515 0
1.10434 -1.14834 0
0.982354 -0.815588 0
-0.0443184 -1.11379 0
-0.00224302 -0.368368 0
-0.0247877 -1.82754 0
1.00677 -1.69018 0
0.010539 -1.06337 0
-0.0708727 -1.33564 0
0.122968 -0.564823 0
0.496988 -1.62402 0
0.64517 -2.47369 0
0.349395 -0.636419 0
1.28591 -1.17861 0
0.153135 -1.1299 0
0.0924856 -0.826049 0
0.0637611 -0.887928 0
0.3745 -0.846173 0
-0.0354012 -0.536265 0
1.02616 -2.34292 0
0.532673 -1.07248 0
0.272948 -1.53279 0
0.0823369 -0.594853 0
0.532861 -3.10119 0
-0.294163 -1.20989 0
0.017248 -0.695891 0
0.0117853 -1.18361 0
0.532491 -0.598016 0
0.110628 -0.460904 0
-0.140753 -0.737501 0
0.158344 -1.40521 0
1.29273 -1.76011 0
0.0411184 -0.916119 0
-0.0101643 -1.14502 0
0.239389 -0.622761 0
0.156683 -1.14982 0
0.0476736 -0.509173 0
0.395714 -3.00507 0
0.00062873 -0.738689 0
0.103467 -0.817803 0
0.498627 -0.846855 0
0.432337 -1.62782 0
0.751439 -2.14483 0
-0.0100367 -0.468032 0
0.230879 -0.631069 0
-0.107153 -0.974297 0
0.236903 -1.31617 0
0.281425 -1.76928 0
1.10632 -1.9909 0
0.712827 -1.10306 0
0.311678 -0.969088 0
0.0245252 -0.632762 0
0.255674 -3.60051 0
0.321317 -0.600415 0
0.0832098 -0.449229 0
-0.195205 -0.86456 0
0.412195 -1.3431 0
-0.0251158 -1.71651 0
-0.230971 -1.42349 0
0.0240675 -0.630369 0
0.203586 -1.21339 0
0.325254 -1.43971 0
0.10752 -0.470648 0
0.866654 -2.65714 0
0.787015 -2.90916 0
0.285266 -1.34502 0
0.561474 -1.84019 0
0.0304559 -0.502046 0
0.405025 -0.709247 0
-0.282506 -1.0391 0
0.110548 -1.19424 0
0.143882 -1.81994 0
0.13239 -1.33525 0
0.179701 -1.18955 0
1.42561 -1.10275 0
0.760008 -0.80866 0
1.26551 -1.14555 0
0.939487 -1.05107 0
0.931031 -0.932861 0
0.672057 -1.03537 0
0.733553 -0.97776 0
0.277905 -0.528266 0
0.618716 -2.42416 0
0.117362 -2.11301 0
-0.132477 -0.886593 0
0.00913112 -0.344466 0
0.682458 -2.65813 0
0.240088 -2.20667 0
0.0302063 -0.357062 0
0.925517 -3.00556 0
0.746659 -2.60131 0
0.100111 -0.432323 0
0.497891 -2.26229 0
0.0129358 -0.812456 0
0.512233 -0.822633 0
-0.0362012 -0.796078 0
-0.0828531 -1.79968 0
0.27954 -1.45652 0
-0.0942606 -1.11018 0
0.023244 -0.873586 0
0.567282 -0.686769 0
-0.0413457 -0.84978 0
-0.0142043 -1.43187 0
0.422177 -0.695867 0
-0.121433 -0.926757 0
-0.0120378 -0.924714 0
0.652382 -0.972463 0
0.385806 -0.612173 0
0.0961013 -1.08371 0
-0.0254263 -0.946319 0
-0.107396 -1.54719 0
-0.400669 -1.68849 0
0.11327 -0.960562 0
0.134344 -1.02863 0
0.0132449 -1.47264 0
-0.271502 -1.62752 0
0.3263 -0.882318 0
0.0576633 -0.823782 0
0.268769 -1.13658 0
-0.00721023 -0.84624 0
-0.0969908 -1.67697 0
-0.396013 -1.74476 0
0.708232 -1.96141 0
-0.199298 -1.75528 0
-0.130138 -1.02283 0
0.0103795 -0.395306 0
0.0704886 -0.451268 0
0.595926 -1.58615 0
0.385501 -1.05497 0
-0.0447528 -0.629797 0
-0.0123971 -0.654342 0
0.542897 -2.39571 0
0.576462 -1.44617 0
0.0160942 -0.593526 0
-0.0261344 -0.467801 0
0.20864 -1.59904 0
0.424422 -1.78297 0
-0.0277754 -0.525686 0
0.0541371 -0.574848 0
-0.0218815 -1.35236 0
0.199971 -1.06467 0
-0.179308 -0.853997 0
0.0397106 -0.364225 0
0.246678 -2.16161 0
0.0671646 -0.666853 0
0.147712 -1.46768 0
0.181109 -0.510236 0
-0.131266 -0.899993 0
0.0402292 -0.387457 0
0.037036 -0.603263 0
0.259338 -1.32756 0
0.000358517 -0.602139 0
0.228747 -1.23316 0
0.271617 -1.31049 0
0.320589 -1.34556 0
0.0153371 -0.548102 0
0.0259201 -0.857551 0
0.13844 -0.896102 0
0.0879207 -0.565043 0
-0.325236 -1.30709 0
-0.558011 -1.68041 0
-0.415114 -1.29374 0
-0.168998 -1.4031 0
-0.189872 -1.128 0
-0.393987 -1.09277 0
-0.0831437 -1.15546 0
-0.16975 -1.10629 0
-0.10402 -1.02301 0
0.0168035 -1.87673 0
-0.0571966 -1.7153 0
-0.266653 -1.46643 0
-0.0358149 -1.54814 0
-0.533322 -1.76754 0
-0.497099 -1.82724 0
0.205786 -1.39893 0
0.127963 -1.52532 0
0.0891868 -1.62066 0
0.152618 -1.41639 0
0.0645652 -0.563196 0
0.138999 -1.80594 0
0.282071 -1.75386 0
0.237015 -1.40995 0
0.177568 -1.37277 0
0.0974506 -0.762527 0
0.0832732 -0.641368 0
-0.138453 -0.759139 0
0.0414158 -0.793566 0
0.0183513 -0.4013 0
0.301697 -1.2479 0
-0.140886 -1.20954 0
-0.727218 -2.2169 0
-0.433529 -1.29384 0
-0.0205866 -1.61358 0
-0.0822371 -0.980817 0
0.153954 -1.42456 0
-0.176911 -1.00576 0
0.475006 -1.38224 0
0.350652 -1.01409 0
-1.03736 -1.79724 0
0.295228 -0.966696 0
-0.900141 -1.853 0
0.141486 -0.786652 0
0.0112761 -0.276471 0
0.15633 -1.05926 0
0.18152 -0.776454 0
0.056006 -0.469529 0
0.102612 -0.806556 0
0.538919 -1.30534 0
0.00362468 -0.263715 0
0.160196 -1.0531 0
0.0886709 -0.540377 0
-0.0667782 -1.04485 0
-0.0534159 -0.475549 0
0.181897 -0.740833 0
-0.426006 -1.77578 0
0.0289702 -0.313655 0
0.360669 -0.942655 0
-0.111702 -1.17751 0
-0.114403 -0.431431 0
-0.893978 -1.80561 0
-0.388521 -1.65432 0
0.270275 -1.00392 0
-0.163914 -1.58805 0
-0.606644 -1.79616 0
0.204312 -0.971051 0
0.118667 -0.5825 0
-0.0907057 -2.16011 0
0.0152784 -0.91476 0
-0.0467531 -0.374906 0
-0.180967 -1.80787 0
-0.686365 -1.78778 0
0.146934 -0.796803 0
0.040532 -0.523641 0
-0.0466791 -1.17767 0
-0.882296 -2.26119 0
0.323847 -0.991009 0
0.13083 -0.832008 0
-0.00947785 -1.49191 0
-0.871989 -2.25579 0
0.109142 -1.38101 0
0.314908 -1.69413 0
-0.297677 -0.885019 0
-0.305717 -1.54096 0
-0.353307 -1.34474 0
0.0401726 -1.03899 0
0.212182 -1.49663 0
-0.351492 -0.963573 0
-0.347988 -1.64547 0
-0.702926 -1.3874 0
-0.0206256 -0.998179 0
-0.185203 -0.606875 0
-0.107709 -1.42812 0
-0.411978 -1.27858 0
-0.29998 -1.08718 0
0.146518 -0.920253 0
0.28344 -0.935764 0
0.0218804 -0.413059 0
0.19306 -1.49155 0
0.141116 -1.17803 0
0.170492 -0.869062 0
0.124936 -0.677994 0
-0.420616 -1.98936 0
0.00255754 -0.259533 0
-0.227408 -0.865926 0
-0.431089 -1.49665 0
-0.843807 -0.997935 0
-0.296142 -0.859122 0
-0.496861 -1.71912 0
-0.915486 -1.74135 0
-0.439005 -1.47956 0
-0.171055 -0.836818 0
0.0469722 -1.15674 0
0.276922 -1.01951 0
0.0401471 -1.03852 0
0.249829 -1.0754 0
-0.323778 -1.17794 0
-0.30325 -1.22845 0
-0.0522529 -1.20298 0
0.063721 -0.627177 0
0.0324006 -0.472173 0
-0.537247 -2.52262 0
-0.461044 -0.954102 0
0.223877 -0.760247 0
0.347921 -1.01775 0
-0.12746 -1.19479 0
0.086795 -1.10112 0
0.0716849 -0.654075 0
0.00458988 -0.647858 0
0.00805667 -0.251536 0
-0.086577 -0.746901 0
-0.111272 -0.621523 0
-0.0317302 -0.551323 0
-0.244171 -0.704232 0
0.0238916 -1.00092 0
0.0418713 -0.387087 0
-0.254069 -2.1329 0
-0.200534 -0.779944 0
-0.249714 -1.6002 0
-0.485905 -1.49287 0
-0.205576 -1.05791 0
0.0453727 -0.593132 0
-0.0360167 -0.70757 0
-0.155486 -1.38927 0
-1.01534 -2.51133 0
-0.79579 -2.03477 0
-0.167508 -0.940595 0
-0.0564959 -0.369504 0
0.0199846 -0.338501 0
-0.063079 -1.09004 0
-0.710212 -1.78196 0
-0.433316 -1.40713 0
-1.15242 -1.95237 0
0.0347923 -0.906344 0
-0.0289859 -0.297037 0
-0.0062939 -0.245586 0
-0.15068 -1.84148 0
-0.510431 -0.921075 0
-0.92545 -1.2163 0
-0.0315559 -1.29868 0
-0.436271 -1.13442 0
-0.802664 -1.08921 0
-0.355549 -1.3444 0
-0.834039 -1.20954 0
-0.419481 -1.09114 0
0.151778 -1.27573 0
-0.261962 -1.07528 0
-0.0051783 -1.25768 0
0.0933608 -1.13052 0
-0.161253 -1.19819 0
-1.02742 -1.45828 0
-0.550111 -1.42758 0
-0.313227 -1.26886 0
-0.765917 -1.64762 0
0.307771 -1.30194 0
-0.979442 -1.83417 0
-0.43252 -1.31708 0
-0.350586 -1.29781 0
-0.256909 -0.787229 0
-0.936243 -1.46417 0
-0.304824 -1.32656 0
-0.729475 -1.74569 0
-0.808795 -1.4515 0
-0.190361 -1.1526 0
-0.754542 -1.51858 0
-0.557421 -1.47114 0
-0.040721 -1.06433 0
-0.456846 -1.51608 0
-0.880817 -1.59609 0
0.12407 -1.54842 0
0.560811 -1.55628 0
-0.208606 -1.20109 0
-0.263557 -1.16315 0
0.416107 -1.69727 0
0.0744578 -1.64537 0
-0.152925 -1.25673 0
-0.343796 -1.5039 0
0.0781754 -1.74853 0
-0.300368 -1.31328 0
-0.403617 -1.38369 0
0.434724 -1.91719 0
0.227355 -1.98065 0
-0.320249 -1.21302 0
-0.244037 -1.0379 0
0.143767 -1.08608 0
-0.109467 -0.97404 0
0.11743 -0.678335 0
-0.0941944 -0.693622 0
0.0121048 -0.657528 0
-0.224981 -0.799914 0
-0.318441 -0.945509 0
0.0981056 -1.40216 0
-0.312253 -1.11595 0
-0.0932592 -0.690113 0
-0.0375849 -0.851184 0
-0.0114829 -0.255053 0
0.00170307 -0.231871 0
-0.106388 -0.584956 0
0.0124983 -0.560682 0
-0.122207 -0.647356 0
-0.368794 -1.16986 0
-0.975241 -1.66099 0
0.47765 -1.56794 0
0.401988 -2.01682 0
0.313265 -1.55284 0
0.194893 -1.47837 0
-0.10026 -1.20847 0
0.090849 -0.967196 0
-0.0930923 -1.15335 0
0.0884592 -0.868487 0
0.100198 -0.823957 0
-0.0805471 -1.18639 0
0.0900363 -0.768117 0
-0.136835 -1.02552 0
-0.0899572 -0.924473 0
-0.108679 -0.909898 0
-0.102665 -0.996823 0
-0.135236 -1.1708 0
-0.307263 -1.23645 0
0.0285324 -1.0797 0
-0.0370122 -1.21051 0
-0.263687 -1.35816 0
0.0892451 -1.03894 0
-0.0457646 -1.07826 0
-0.143876 -1.20437 0
0.0446539 -1.06895 0
-0.0919859 -1.15227 0
-0.294464 -1.50921 0
-0.205936 -0.81485 0
-0.0564446 -0.757247 0
0.0300586 -0.363 0
-0.0165406 -0.303782 0
-0.522456 -1.04401 0
-0.462025 -0.978717 0
-0.420583 -0.982503 0
-0.508734 -0.927389 0
0.0650637 -0.548761 0
-0.192988 -0.991434 0
-0.182012 -0.846197 0
-0.01749 -0.376906 0
-0.00232203 -0.331139 0
0.0293507 -1.12255 0
0.0791961 -0.992018 0
-0.0071668 -0.790515 0
0.204212 -0.863434 0
-0.180471 -0.590847 0
-0.180601 -0.465781 0
-0.0297886 -0.299744 0
-0.155746 -0.409704 0
-0.179361 -0.640439 0
0.0436566 -1.53482 0
-0.0779201 -1.30793 0
-0.00253364 -1.44161 0
-0.03884 -1.48255 0
-0.131576 -0.249181 0
-0.133972 -0.598648 0
-0.0652645 -0.487234 0
0.0710968 -1.21468 0
0.18379 -1.09194 0
0.0955167 -0.663858 0
0.0418357 -0.661807 0
-0.0311359 -0.663997 0
0.0874556 -0.88885 0
0.0944515 -0.698131 0
0.0139084 -0.645956 0
0.0450581 -0.644423 0
0.163523 -0.816823 0
0.0396957 -0.919819 0
0.404875 -1.07096 0
0.148744 -0.763057 0
-0.207185 -0.481549 0
-0.032609 -0.541037 0
0.175428 -0.95626 0
-0.247611 -0.496123 0
0.0339441 -0.570713 0
0.254558 -0.837783 0
0.0801501 -0.6884 0
0.188417 -1.18547 0
0.0588049 -0.653371 0
0.0904469 -1.22931 0
-0.260195 -1.20388 0
-0.0921365 -0.213246 0
-0.063618 -0.146464 0
0.19399 -0.692168 0
0.033296 -0.313152 0
-0.010241 -0.386336 0
-0.0292798 -0.197788 0
0.265968 -0.874031 0
0.268028 -0.962831 0
0.0925117 -0.442035 0
0.327897 -0.776955 0
-0.157079 -0.493295 0
-0.0196513 -0.46661 0
-0.104544 -0.208078 0
-0.0553274 -0.225537 0
-0.0243763 -0.413558 0
-0.0498995 -0.607658 0
-0.0659764 -0.578813 0
-0.0723402 -0.212094 0
-0.0392562 -0.239622 0
-0.0482911 -0.492347 0
-0.00557041 -0.683805 0
0.138893 -0.649541 0
0.413516 -0.912061 0
-0.0770025 -0.183456 0
-0.0576083 -0.131466 0
-0.191421 -0.520864 0
-0.074687 -0.564021 0
-0.0367911 -0.390189 0
-0.143779 -0.761798 0
0.024412 -0.433766 0
-0.098786 -0.542931 0
-0.115338 -0.58201 0
-0.0851863 -0.347449 0
0.0689646 -0.797705 0
-0.0171214 -0.726213 0
0.0697987 -0.50894 0
0.340766 -0.85447 0
-0.11112 -0.193782 0
-0.137766 -1.21255 0
-0.125344 -0.227206 0
-0.181568 -0.889888 0
0.365044 -0.865133 0
0.403333 -1.12843 0
0.247656 -0.805742 0
-0.0313347 -0.28709 0
-0.0401985 -0.167147 0
0.158304 -1.38266 0
-0.126899 -0.304846 0
0.11504 -0.874821 0
-0.116416 -0.321111 0
0.199026 -0.954736 0
0.0171379 -0.837653 0
0.0730875 -0.634373 0
0.294785 -1.28863 0
0.380092 -0.988863 0
-0.138074 -0.229297 0
0.181902 -2.2782 0
-0.0627925 -0.261985 0
-0.0686041 -0.401748 0
-0.227116 -0.439389 0
-0.110166 -0.282874 0
-0.112568 -0.368345 0
-0.37983 -0.637892 0
0.131747 -1.37382 0
-0.113336 -0.287033 0
0.0648388 -0.85863 0
0.104243 -0.693926 0
-0.0535881 -0.151992 0
-0.0595066 -0.751237 0
0.304195 -1.03923 0
-0.0114095 -0.773696 0
-0.0627565 -0.965815 0
-0.191232 -0.313505 0
0.110534 -0.883059 0
0.253392 -1.86175 0
-0.0153873 -0.262028 0
-0.176684 -0.619328 0
-0.0520254 -0.263784 0
-0.170181 -0.382207 0
0.0125304 -0.421305 0
-0.0977668 -0.417158 0
0.136612 -0.956993 0
0.0624621 -1.38682 0
0.133018 -1.34085 0
0.0405863 -2.97105 0
-0.0745905 -0.166987 0
-0.266306 -0.621428 0
-0.00933232 -1.0945 0
-0.0650805 -0.61246 0
0.32729 -0.981883 0
0.0581926 -0.61682 0
-0.00291985 -0.409957 0
-0.100981 -0.310318 0
-0.160468 -0.367135 0
-0.0541448 -0.136295 0
-0.0517819 -1.41111 0
0.0741513 -1.13453 0
-0.0801302 -0.153283 0
-0.125126 -1.29956 0
0.439374 -1.02454 0
0.260153 -1.19621 0
-0.118972 -0.211994 0
0.106469 -2.75285 0
0.443919 -1.1146 0
0.210428 -0.996776 0
-0.162738 -0.622884 0
-0.254584 -0.82198 0
-0.0944007 -0.491519 0
0.103916 -1.40488 0
-0.0750889 -1.29643 0
-0.045734 -0.562806 0
-0.268729 -0.560978 0
-0.0903082 -0.338235 0
-0.279256 -0.604942 0
-0.0735208 -0.304893 0
-0.240358 -0.576099 0
-0.0273716 -0.513361 0
-0.23475 -0.549189 0
0.414109 -0.831583 0
0.289419 -1.00781 0
0.217212 -0.808574 0
-0.0484339 -1.28369 0
-0.0534295 -0.892274 0
-0.056764 -1.16503 0
0.0418062 -1.08977 0
0.0564979 -1.34974 0
0.0708479 -1.31621 0
0.0632177 -1.4411 0
-0.0916105 -0.392601 0
-0.0859978 -0.413778 0
-0.121239 -0.63083 0
-0.106709 -1.21695 0
-0.17762 -0.393038 0
-0.0564934 -0.379934 0
0.163802 -1.21574 0
-0.0361668 -0.676861 0
0.0158103 -1.22397 0
-0.141206 -0.255923 0
-0.173187 -0.66517 0
-0.0914985 -0.365465 0
-0.0154105 -0.709333 0
-0.0338581 -0.369247 0
-0.0887777 -0.275496 0
-0.109053 -0.497309 0
-0.120333 -0.393157 0
-0.0887048 -0.7337 0
0.115426 -0.863132 0
-0.124953 -0.723353 0
-0.045311 -1.15916 0
0.0325754 -0.504174 0
-0.025101 -0.674373 0
-0.0613868 -0.407805 0
-0.219642 -0.458446 0
-0.0254924 -0.806361 0
-0.0177348 -0.836393 0
-0.298904 -0.763225 0
-0.0216042 -1.0516 0
-0.103829 -0.273632 0
-0.0589957 -0.353471 0
-0.087302 -0.240189 0
-0.138555 -0.265785 0
0.144066 -1.21646 0
-0.0343839 -0.849515 0
0.0815111 -1.38758 0
-0.0325222 -0.887857 0
-0.0558635 -1.12767 0
-0.00508793 -1.04455 0
-0.106385 -0.341636 0
-0.147157 -1.21129 0
-0.170202 -0.760163 0
-0.230271 -0.748931 0
-0.212453 -1.14211 0
-0.108406 -0.443022 0
-0.000643567 -1.08398 0
-0.0185862 -1.03465 0
-0.103215 -0.451905 0
-0.0434422 -0.443251 0
-0.0638342 -0.51841 0
-0.0262745 -0.440112 0
-0.0714813 -0.426403 0
-0.0346047 -0.340864 0
-0.0115628 -1.07412 0
-0.0432161 -0.996483 0
-0.164251 -0.529542 0
-0.00143747 -1.07899 0
-0.196101 -0.978031 0
-0.0813239 -0.7736 0
-0.249809 -0.86062 0
-0.113899 -0.728578 0
-0.154961 -0.82566 0
-0.0733055 -0.635531 0
0.247644 -0.7735 0
0.0354833 -0.675343 0
-0.286444 -0.601163 0
-7.33282e-05 -1.11307 0
-0.366127 -0.76602 0
0.0232461 -1.08762 0
-0.144106 -0.446286 0
-0.365433 -0.579567 0
-0.00576519 -0.735335 0
-0.378771 -0.591553 0
-0.0493055 -0.63747 0
0.0379319 -0.455613 0
0.00371474 -0.380927 0
-0.0344877 -0.311359 0
0.037056 -0.405901 0
-0.0211958 -0.672035 0
-0.0545368 -0.623734 0
-0.152086 -0.737381 0
-0.0654417 -0.737485 0
-0.0727808 -0.633193 0
0.10209 -0.644928 0
-0.0584479 -0.390821 0
-0.0988028 -0.531632 0
-0.0105739 -0.367769 0
-0.0141708 -0.349216 0
-0.613533 -0.982238 0
-0.598767 -1.06783 0
0.0214158 -0.433278 0
-0.410584 -1.1467 0
-0.585284 -1.39884 0
-0.396173 -1.5845 0
0.271476 -0.689749 0
-0.203183 -0.975349 0
-0.11658 -0.827074 0
-0.212477 -0.896867 0
-0.294833 -0.958558 0
0.202234 -0.637132 0
0.137755 -0.491312 0
0.0509896 -0.439305 0
0.080901 -0.540317 0
-0.56905 -1.46162 0
0.104375 -1.33623 0
-1.28443 -1.16552 0
-0.217833 -0.611069 0
-0.337978 -1.38371 0
-0.140986 -0.844843 0
-0.129931 -0.576888 0
-0.0190963 -0.673917 0
0.407817 -1.06203 0
-1.23061 -1.25111 0
-0.542013 -0.872377 0
-1.18293 -1.70038 0
-0.191079 -1.02427 0
-0.490419 -1.23959 0
0.011627 -0.831185 0
-0.108443 -0.51455 0
-0.440563 -1.53279 0
0.257641 -1.0607 0
-0.870005 -1.31568 0
-0.0796096 -0.824092 0
-0.12272 -0.531895 0
-0.649562 -1.78512 0
-0.148023 -1.26467 0
-0.162321 -1.16185 0
0.00293531 -0.721143 0
-0.108004 -0.473633 0
-0.147215 -1.052 0
-0.604694 -1.378 0
-0.804224 -1.39979 0
-0.245578 -0.993797 0
-0.734496 -1.44781 0
-1.02344 -1.21258 0
0.100685 -0.644563 0
-0.920571 -0.907445 0
0.338043 -1.02454 0
0.052968 -0.881223 0
-0.0208186 -0.638695 0
-0.550296 -0.633278 0
0.339912 -0.996069 0
0.112853 -0.920146 0
-0.0229562 -0.529178 0
-0.0806302 -0.517213 0
-0.927452 -0.919296 0
-0.197036 -0.741625 0
-1.1395 -1.25854 0
-0.282948 -1.45997 0
-0.626815 -1.45858 0
-0.049436 -0.40072 0
-0.239707 -0.835839 0
0.0326353 -0.59425 0
0.164377 -0.739997 0
-0.0393065 -1.28609 0
-0.630606 -1.73656 0
-0.556868 -1.81335 0
0.00611907 -0.486182 0
-0.807494 -1.31961 0
-0.116876 -0.646652 0
0.0145149 -1.20338 0
0.0955579 -0.926439 0
-0.632147 -1.42 0
-0.445748 -1.49863 0
-0.730819 -1.0826 0
-0.126861 -0.542598 0
-0.48167 -1.26754 0
-0.698135 -1.37747 0
-0.95937 -1.49586 0
-0.200841 -0.737301 0
-0.655929 -1.69152 0
0.0602486 -1.12229 0
-0.079725 -0.6697 0
-0.847257 -1.57544 0
-0.117645 -0.566254 0
0.100474 -0.784495 0
0.406457 -0.796565 0
0.0320718 -0.474389 0
-0.354458 -0.55319 0
-0.0322822 -0.398268 0
0.0290795 -0.5608 0
0.0736735 -1.10003 0
0.0931545 -0.728663 0
0.00582081 -0.672934 0
0.167515 -1.09156 0
0.0103007 -0.638094 0
-0.596309 -0.912824 0
-0.0606132 -0.572634 0
-0.0582307 -0.480924 0
0.180212 -0.724751 0
-0.011293 -0.641517 0
-0.113887 -0.526484 0
0.0185498 -0.789294 0
0.00692026 -0.591629 0
0.31742 -1.0425 0
-1.29627 -1.49836 0
-0.454778 -1.15124 0
0.175092 -0.691963 0
-0.0197855 -0.483828 0
0.0218913 -0.380287 0
-0.0736246 -0.467856 0
0.0373959 -0.753705 0
-0.0906733 -0.529883 0
-1.45052 -1.58135 0
-0.351725 -0.874716 0
-0.491189 -1.31683 0
0.188262 -0.98626 0
0.107284 -0.913067 0
-0.0251446 -0.597023 0
0.118883 -0.563505 0
0.225441 -0.584191 0
0.353726 -1.08876 0
-0.282723 -0.769481 0
-0.0771512 -0.507363 0
-0.0836776 -0.563767 0
-1.11808 -1.54369 0
-0.699501 -0.970903 0
0.527296 -1.04893 0
-0.25295 -0.523232 0
0.146148 -1.0317 0
-0.0305828 -0.50304 0
-0.530537 -0.964704 0
0.00871785 -0.569031 0
0.0250424 -0.546196 0
0.292527 -1.16476 0
0.258244 -0.623465 0
-0.100165 -0.769179 0
-0.0168255 -0.607685 0
0.0571046 -0.628418 0
0.107645 -0.507202 0
0.251637 -0.57377 0
0.134973 -0.602893 0
0.204453 -0.550918 0
-0.0919599 -0.552133 0
0.149905 -0.650051 0
0.0528311 -0.570593 0
0.314475 -0.897169 0
-1.09645 -1.32778 0
-0.325794 -0.716963 0
0.0809334 -0.695038 0
-0.497664 -1.47306 0
-0.224376 -0.649595 0
-0.0874568 -0.572525 0
0.217002 -0.844519 0
0.358749 -0.925687 0
-0.0410418 -0.59704 0
-0.0420285 -0.459421 0
0.141314 -0.564645 0
0.2462 -0.648865 0
0.0350434 -0.444275 0
0.113257 -0.841968 0
-0.392427 -1.56081 0
-0.191556 -0.676777 0
-0.244102 -1.48123 0