# vtk DataFile Version 2.0
Unstructured Grid by M++
ASCII
DATASET UNSTRUCTURED_GRID
POINTS 289 float
  0.562500   1.000000 0
  0.562500   0.625000 0
  0.625000   1.000000 0
  0.562500   0.937500 0
  0.562500   0.562500 0
  0.625000   0.937500 0
  0.562500   0.875000 0
  0.625000   0.750000 0
  0.625000   0.625000 0
  0.562500   0.812500 0
  0.562500   0.750000 0
  0.562500   0.687500 0
  0.625000   0.875000 0
  0.625000   0.812500 0
  0.625000   0.687500 0
  0.687500   0.125000 0
  0.875000   0.062500 0
  0.625000   0.125000 0
  0.625000   0.187500 0
  0.625000   0.250000 0
  0.812500   0.187500 0
  1.000000   0.125000 0
  0.687500   0.187500 0
  0.750000   0.125000 0
  0.937500   0.062500 0
  0.937500   0.125000 0
  0.750000   0.187500 0
  0.812500   0.062500 0
  0.812500   0.125000 0
  0.875000   0.687500 0
  0.187500   0.250000 0
  0.437500   0.250000 0
  0.375000   0.187500 0
  0.812500   0.625000 0
  0.125000   0.187500 0
  0.937500   0.750000 0
  0.250000   0.312500 0
  0.500000   0.312500 0
  0.625000   0.062500 0
  0.437500   0.500000 0
  0.375000   0.125000 0
  0.437500   0.187500 0
  0.437500   0.437500 0
  0.437500   0.375000 0
  0.875000   0.875000 0
  0.187500   0.375000 0
  0.687500   0.562500 0
  0.687500   0.625000 0
  0.000000   0.125000 0
  0.937500   0.625000 0
  0.250000   0.125000 0
  0.375000   0.062500 0
  0.375000   0.000000 0
  0.812500   0.500000 0
  0.125000   0.000000 0
  0.937500   0.937500 0
  0.250000   0.437500 0
  0.687500   0.875000 0
  0.687500   0.937500 0
  0.000000   0.437500 0
  0.500000   0.500000 0
  0.500000   0.437500 0
  0.750000   0.937500 0
  0.750000   1.000000 0
  0.062500   0.500000 0
  1.000000   1.000000 0
  0.312500   0.500000 0
  0.875000   0.562500 0
  0.187500   0.062500 0
  0.437500   0.125000 0
  0.437500   0.062500 0
  0.500000   0.375000 0
  0.937500   0.812500 0
  0.937500   0.875000 0
  0.250000   0.375000 0
  0.687500   0.812500 0
  0.000000   0.375000 0
  0.750000   0.562500 0
  0.062500   0.125000 0
  1.000000   0.562500 0
  1.000000   0.625000 0
  0.312500   0.125000 0
  0.562500   0.125000 0
  0.437500   0.000000 0
  0.875000   0.437500 0
  0.875000   0.500000 0
  0.187500   0.000000 0
  0.937500   0.562500 0
  0.937500   0.500000 0
  0.250000   0.062500 0
  0.687500   0.500000 0
  0.000000   0.062500 0
  0.500000   0.062500 0
  1.000000   0.875000 0
  1.000000   0.937500 0
  0.312500   0.437500 0
  0.750000   0.875000 0
  0.062500   0.437500 0
  0.812500   0.937500 0
  0.125000   0.500000 0
  0.375000   0.500000 0
  0.625000   0.562500 0
  0.625000   0.500000 0
  0.437500   0.312500 0
  0.875000   0.812500 0
  0.875000   0.750000 0
  0.187500   0.312500 0
  0.812500   0.687500 0
  0.812500   0.750000 0
  0.125000   0.250000 0
  0.375000   0.250000 0
  1.000000   0.687500 0
  0.312500   0.187500 0
  0.750000   0.687500 0
  0.750000   0.625000 0
  0.062500   0.187500 0
  0.562500   0.250000 0
  0.562500   0.187500 0
  0.375000   1.000000 0
  0.500000   0.562500 0
  0.500000   0.250000 0
  0.750000   0.250000 0
  0.500000   0.125000 0
  0.500000   0.187500 0
  1.000000   0.187500 0
  0.625000   0.375000 0
  0.875000   0.375000 0
  1.000000   0.437500 0
  0.312500   0.000000 0
  0.562500   0.000000 0
  0.812500   0.000000 0
  0.250000   0.687500 0
  0.000000   0.687500 0
  0.500000   1.000000 0
  0.250000   1.000000 0
  0.000000   1.000000 0
  0.437500   0.687500 0
  0.437500   0.625000 0
  0.187500   0.625000 0
  0.687500   0.750000 0
  0.000000   0.312500 0
  0.000000   0.250000 0
  0.375000   0.375000 0
  0.375000   0.312500 0
  0.812500   0.812500 0
  0.125000   0.312500 0
  0.875000   0.625000 0
  0.187500   0.187500 0
  0.187500   0.125000 0
  0.937500   1.000000 0
  0.250000   0.562500 0
  0.250000   0.500000 0
  0.687500   1.000000 0
  0.000000   0.500000 0
  0.687500   0.687500 0
  0.000000   0.187500 0
  0.937500   0.687500 0
  0.250000   0.250000 0
  0.250000   0.187500 0
  0.187500   0.687500 0
  0.000000   0.750000 0
  0.250000   0.750000 0
  0.125000   0.625000 0
  0.750000   0.750000 0
  0.062500   0.250000 0
  0.875000   0.937500 0
  0.187500   0.500000 0
  0.187500   0.437500 0
  0.812500   0.562500 0
  0.125000   0.125000 0
  0.125000   0.062500 0
  0.375000   0.625000 0
  0.375000   0.687500 0
  1.000000   0.750000 0
  0.312500   0.250000 0
  0.312500   0.312500 0
  0.812500   0.312500 0
  0.562500   0.312500 0
  0.375000   0.750000 0
  0.500000   0.625000 0
  0.250000   0.625000 0
  0.312500   0.687500 0
  0.750000   0.812500 0
  0.062500   0.312500 0
  0.062500   0.375000 0
  1.000000   0.812500 0
  0.312500   0.375000 0
  0.562500   0.375000 0
  0.687500   0.437500 0
  0.000000   0.000000 0
  0.500000   0.000000 0
  0.937500   0.437500 0
  0.250000   0.000000 0
  0.375000   0.437500 0
  0.812500   0.875000 0
  0.125000   0.375000 0
  0.125000   0.437500 0
  0.625000   0.437500 0
  1.000000   0.500000 0
  0.312500   0.062500 0
  0.750000   0.500000 0
  0.062500   0.000000 0
  0.062500   0.062500 0
  0.562500   0.062500 0
  0.062500   0.750000 0
  0.312500   0.750000 0
  0.312500   0.625000 0
  0.312500   0.562500 0
  0.062500   0.562500 0
  0.187500   1.000000 0
  0.437500   0.562500 0
  0.875000   1.000000 0
  0.187500   0.562500 0
  0.500000   0.937500 0
  0.250000   0.937500 0
  0.312500   1.000000 0
  0.125000   0.750000 0
  0.125000   0.687500 0
  1.000000   0.000000 0
  0.000000   0.937500 0
  0.000000   0.875000 0
  0.875000   0.125000 0
  0.875000   0.187500 0
  0.062500   0.812500 0
  0.312500   0.812500 0
  0.000000   0.812500 0
  0.000000   0.625000 0
  0.000000   0.562500 0
  0.062500   1.000000 0
  0.062500   0.937500 0
  0.937500   0.187500 0
  0.937500   0.250000 0
  0.062500   0.687500 0
  0.062500   0.625000 0
  0.125000   1.000000 0
  1.000000   0.250000 0
  1.000000   0.312500 0
  0.062500   0.875000 0
  0.125000   0.812500 0
  0.375000   0.812500 0
  0.125000   0.875000 0
  0.375000   0.937500 0
  0.375000   0.875000 0
  0.187500   0.750000 0
  0.187500   0.812500 0
  0.437500   0.812500 0
  0.187500   0.875000 0
  0.437500   0.875000 0
  0.375000   0.562500 0
  0.812500   1.000000 0
  0.125000   0.562500 0
  0.437500   1.000000 0
  0.437500   0.937500 0
  0.187500   0.937500 0
  0.125000   0.937500 0
  0.500000   0.687500 0
  0.500000   0.750000 0
  0.500000   0.812500 0
  0.250000   0.812500 0
  0.250000   0.875000 0
  0.500000   0.875000 0
  0.437500   0.750000 0
  0.312500   0.875000 0
  0.312500   0.937500 0
  0.687500   0.250000 0
  0.687500   0.312500 0
  0.937500   0.312500 0
  0.875000   0.250000 0
  0.625000   0.000000 0
  0.875000   0.000000 0
  0.687500   0.375000 0
  0.937500   0.375000 0
  0.875000   0.312500 0
  0.625000   0.312500 0
  0.687500   0.000000 0
  0.937500   0.000000 0
  0.750000   0.312500 0
  0.750000   0.375000 0
  1.000000   0.375000 0
  0.812500   0.250000 0
  0.562500   0.437500 0
  0.562500   0.500000 0
  0.687500   0.062500 0
  0.750000   0.437500 0
  0.750000   0.000000 0
  0.750000   0.062500 0
  1.000000   0.062500 0
  0.812500   0.375000 0
  0.812500   0.437500 0
CELLS 256 1280
4 169 170 148 68
4 151 166 56 167
4 195 45 196 167
4 54 170 201 202
4 109 34 30 147
4 40 32 81 112
4 192 89 86 68
4 48 91 78 202
4 99 64 196 97
4 71 43 37 103
4 74 186 56 95
4 109 164 34 115
4 50 81 158 112
4 122 69 92 70
4 195 145 45 106
4 110 143 174 175
4 157 30 158 147
4 40 69 32 41
4 50 158 148 147
4 141 155 164 115
4 122 123 69 41
4 142 186 143 175
4 60 39 61 42
4 40 51 69 70
4 120 31 123 41
4 157 174 36 175
4 50 148 89 68
4 48 78 155 115
4 52 83 51 70
4 151 56 66 95
4 71 61 43 42
4 169 148 34 147
4 100 193 39 42
4 40 81 51 199
4 110 174 32 112
4 109 30 145 106
4 100 66 193 95
4 169 34 78 115
4 190 92 83 70
4 50 89 81 199
4 54 86 170 68
4 74 56 45 167
4 142 143 43 103
4 153 59 64 97
4 99 196 166 167
4 169 78 170 202
4 142 193 186 95
4 192 128 89 199
4 74 45 36 106
4 110 31 143 103
4 76 184 59 97
4 142 43 193 42
4 52 51 128 199
4 189 201 91 202
4 120 37 31 103
4 74 36 186 175
4 195 196 184 97
4 141 164 140 183
4 157 158 174 112
4 109 145 164 183
4 195 184 145 183
4 110 32 31 41
4 157 36 30 106
4 76 140 184 183
4 171 172 206 181
4 178 172 261 136
4 256 261 255 136
4 256 257 261 245
4 180 150 206 207
4 60 119 39 210
4 118 215 241 263
4 178 205 172 181
4 216 243 238 244
4 162 217 233 232
4 180 206 131 181
4 179 137 119 210
4 216 204 217 232
4 220 237 219 229
4 216 217 243 159
4 259 258 262 224
4 240 254 237 229
4 153 64 227 208
4 161 205 258 224
4 240 237 238 223
4 226 227 233 208
4 234 228 254 229
4 171 248 137 210
4 160 132 204 232
4 180 131 138 159
4 133 251 213 252
4 171 206 248 207
4 162 138 217 159
4 161 258 243 244
4 220 225 237 223
4 151 150 166 212
4 260 247 257 245
4 259 262 214 263
4 151 66 150 207
4 234 254 209 253
4 162 233 250 208
4 242 241 262 263
4 171 137 172 136
4 161 243 131 159
4 160 204 225 223
4 161 131 205 181
4 179 255 137 136
4 216 238 204 223
4 100 39 248 210
4 260 213 247 252
4 226 233 132 232
4 134 214 215 263
4 180 138 150 212
4 178 261 239 245
4 259 246 258 244
4 178 239 205 224
4 240 238 246 244
4 242 262 239 224
4 99 250 64 208
4 240 246 254 253
4 242 239 247 245
4 135 219 228 229
4 99 166 250 212
4 259 214 246 253
4 118 241 251 252
4 100 248 66 207
4 134 209 214 253
4 162 250 138 212
4 242 247 241 252
4 71 187 61 280
4 102 281 197 280
4 122 92 82 203
4 17 18 82 117
4 122 82 123 117
4 19 264 273 265
4 267 279 222 20
4 125 273 270 265
4 267 272 279 176
4 19 116 18 117
4 21 25 286 24
4 23 28 26 20
4 23 285 28 27
4 218 286 275 24
4 85 53 84 288
4 235 236 231 266
4 221 222 28 20
4 267 222 231 230
4 268 38 129 203
4 125 270 197 188
4 126 287 272 176
4 277 270 276 265
4 267 231 272 266
4 125 197 187 280
4 190 129 92 203
4 277 276 287 176
4 19 18 264 22
4 17 82 38 203
4 102 197 90 188
4 126 84 287 288
4 284 130 285 27
4 121 276 264 265
4 71 37 187 177
4 120 123 116 117
4 198 88 127 191
4 221 16 25 24
4 23 26 15 22
4 121 279 276 176
4 235 231 124 230
4 125 187 273 177
4 278 271 236 266
4 277 287 283 288
4 284 285 274 282
4 278 127 271 191
4 269 275 16 24
4 200 283 53 288
4 23 15 285 282
4 121 26 279 20
4 21 124 25 230
4 19 273 116 177
4 200 90 283 188
4 126 271 84 191
4 269 16 130 27
4 17 38 15 282
4 221 25 222 230
4 121 264 26 22
4 120 116 37 177
4 60 61 281 280
4 277 283 270 188
4 126 272 271 266
4 268 274 38 282
4 85 84 88 191
4 17 15 18 22
4 221 28 16 27
4 93 94 73 55
4 85 88 67 87
4 80 49 79 87
4 44 104 73 72
4 146 33 67 168
4 211 165 149 55
4 8 47 14 154
4 105 104 108 144
4 105 108 29 107
4 7 139 13 75
4 44 165 194 98
4 200 53 77 168
4 8 1 101 4
4 2 5 152 58
4 260 6 213 3
4 105 35 104 72
4 96 57 182 75
4 7 14 139 154
4 146 29 33 107
4 7 13 10 9
4 12 13 57 75
4 85 67 53 168
4 44 73 165 55
4 63 152 62 58
4 8 101 47 46
4 96 182 194 144
4 60 281 119 4
4 12 5 6 3
4 173 185 35 72
4 65 149 94 55
4 146 67 49 87
4 114 113 47 154
4 163 108 182 144
4 12 6 13 9
4 173 35 111 156
4 163 182 139 75
4 260 257 6 9
4 105 29 35 156
4 163 139 113 154
4 256 10 257 9
4 146 49 29 156
4 163 113 108 107
4 80 111 49 156
4 102 101 281 4
4 12 57 5 58
4 44 194 104 144
4 96 194 62 98
4 2 0 5 3
4 93 73 185 72
4 179 119 1 4
4 200 77 90 46
4 114 33 113 107
4 7 10 14 11
4 96 62 57 58
4 133 213 0 3
4 102 90 101 46
4 256 255 10 11
4 63 62 249 98
4 114 47 77 46
4 179 1 255 11
4 211 249 165 98
4 114 77 33 168
4 198 79 88 87
4 8 14 1 11
CELL_TYPES 256
8
8
8
8
8
8
8
8
8
8
8
8
8
8
8
8
8
8
8
8
8
8
8
8
8
8
8
8
8
8
8
8
8
8
8
8
8
8
8
8
8
8
8
8
8
8
8
8
8
8
8
8
8
8
8
8
8
8
8
8
8
8
8
8
8
8
8
8
8
8
8
8
8
8
8
8
8
8
8
8
8
8
8
8
8
8
8
8
8
8
8
8
8
8
8
8
8
8
8
8
8
8
8
8
8
8
8
8
8
8
8
8
8
8
8
8
8
8
8
8
8
8
8
8
8
8
8
8
8
8
8
8
8
8
8
8
8
8
8
8
8
8
8
8
8
8
8
8
8
8
8
8
8
8
8
8
8
8
8
8
8
8
8
8
8
8
8
8
8
8
8
8
8
8
8
8
8
8
8
8
8
8
8
8
8
8
8
8
8
8
8
8
8
8
8
8
8
8
8
8
8
8
8
8
8
8
8
8
8
8
8
8
8
8
8
8
8
8
8
8
8
8
8
8
8
8
8
8
8
8
8
8
8
8
8
8
8
8
8
8
8
8
8
8
8
8
8
8
8
8
8
8
8
8
8
8
CELL_DATA 256
VECTORS vector_value float
0.0390083 -1.61406 0
0.790551 -3.08402 0
1.03889 -2.66199 0
-0.119698 -1.00033 0
-0.000758642 -1.26195 0
0.0275229 -0.771821 0
-0.0930271 -1.39823 0
-0.00374765 -1.22225 0
0.775598 -1.57107 0
0.215323 -1.0034 0
1.55147 -1.62415 0
-0.218856 -1.57344 0
-0.039551 -1.00974 0
0.67102 -1.02586 0
-0.0259401 -2.10465 0
1.28484 -2.23832 0
0.127313 -1.1136 0
0.759853 -1.33737 0
-0.0223593 -1.05235 0
-0.164807 -1.08207 0
1.39688 -1.33678 0
1.99994 -2.51128 0
-0.41363 -1.0207 0
0.0679914 -0.46588 0
1.64201 -1.58195 0
0.469134 -1.07055 0
-0.135408 -1.04703 0
-0.0141744 -1.29127 0
-0.0248709 -0.467761 0
0.13735 -0.743386 0
-0.316759 -0.873121 0
0.0422734 -1.23889 0
-0.197607 -0.57244 0
-0.0684873 -0.557797 0
0.399032 -1.20203 0
-0.183518 -1.73163 0
-0.10153 -0.799613 0
0.0736902 -1.33151 0
0.0332124 -0.447928 0
-0.202254 -1.08031 0
-0.0115295 -1.51071 0
2.02323 -3.44438 0
0.752038 -1.56555 0
0.243372 -1.40488 0
1.19448 -3.29113 0
0.0404868 -1.15284 0
0.420494 -1.14517 0
-0.100709 -0.840888 0
0.666674 -1.99758 0
1.77371 -2.51954 0
0.113593 -0.96868 0
-0.19576 -1.14576 0
-0.0250584 -0.519122 0
-0.103973 -1.43485 0
1.18195 -1.55331 0
2.01495 -1.90034 0
0.378738 -1.04513 0
-0.055954 -0.778915 0
0.149254 -0.931978 0
-0.301491 -1.52965 0
-0.0253916 -1.09407 0
1.17254 -2.32111 0
0.215578 -1.22162 0
0.0550645 -0.830745 0
-0.175608 -0.479511 0
-0.214017 -0.20139 0
-0.387347 -0.343606 0
-0.433867 -0.270974 0
-0.300461 -0.927656 0
-0.375221 -0.843787 0
-0.690117 -0.984088 0
-0.360898 -0.650694 0
-1.07493 -3.39737 0
-0.694564 -3.13688 0
-0.225161 -1.00269 0
-0.292026 -0.662573 0
-0.962525 -2.33963 0
-0.00909666 -0.905529 0
-1.25512 -3.42617 0
-1.44483 -1.38722 0
-0.0360478 -1.26987 0
0.0935303 -1.83903 0
-1.25701 -1.38637 0
-0.0365358 -1.13392 0
0.00637006 -1.72819 0
-0.0241749 -1.10245 0
-0.257296 -0.526635 0
-0.144825 -1.14124 0
-0.243588 -1.31194 0
-0.237131 -0.855825 0
-0.18346 -0.48966 0
-0.500694 -2.49601 0
-1.47283 -1.80794 0
-0.0334006 -1.01046 0
0.145358 -2.10533 0
-1.34478 -0.493764 0
-0.885659 -1.17321 0
-0.0937402 -0.626393 0
-0.248162 -1.13124 0
0.239345 -3.62256 0
-1.08296 -1.11254 0
-0.261647 -0.342838 0
-0.654462 -1.5951 0
-0.0215976 -1.02332 0
-0.388112 -0.922741 0
-0.47556 -0.678444 0
-0.276617 -1.26213 0
-0.253479 -0.609234 0
-0.754398 -0.627477 0
-0.22849 -1.81554 0
-0.666019 -1.20065 0
-0.153207 -1.37057 0
-0.644902 -0.347189 0
-1.10137 -1.55418 0
-0.707639 -0.689068 0
-0.421861 -2.38036 0
-1.57418 -1.0738 0
0.733082 -2.43506 0
-0.396002 -1.64327 0
-1.36226 -0.389208 0
0.0333829 -0.963945 0
0.965223 -3.05955 0
-0.753067 -1.17358 0
-0.470126 -0.610113 0
-0.110628 -0.525358 0
-0.499888 -1.07013 0
0.146175 -2.2975 0
-1.08632 -0.549138 0
-0.128828 -0.266908 0
-0.185688 -0.287532 0
1.23563 -2.00531 0
1.30221 -2.0049 0
1.57101 -2.03388 0
-0.16589 -0.496397 0
0.00564671 -0.18631 0
-0.137997 -0.446879 0
-0.00807438 -0.298858 0
0.340327 -0.915627 0
-0.0515551 -0.36774 0
-0.00707999 -0.239147 0
0.0632043 -0.24882 0
-0.0285169 -0.270602 0
-0.14474 -0.415387 0
0.0231849 -0.41279 0
0.00518791 -0.151296 0
0.0315212 -0.246492 0
0.415469 -2.45965 0
-0.11536 -0.376701 0
-0.0662135 -0.400556 0
-0.107477 -0.622641 0
0.0375255 -0.193587 0
-0.0804485 -0.17845 0
0.188599 -1.47831 0
-0.0455376 -0.470708 0
-0.157824 -0.698403 0
1.10423 -2.23121 0
-0.100423 -0.359327 0
-0.0597789 -0.319571 0
0.0606674 -0.311456 0
-0.193095 -0.516817 0
-0.00986048 -0.24126 0
1.44742 -1.73344 0
-0.0404956 -0.447231 0
-0.0429464 -0.337848 0
-0.0200724 -0.340133 0
-0.14484 -0.460336 0
0.00522176 -0.428053 0
-0.0665485 -0.210925 0
0.00494506 -0.359657 0
-0.108449 -0.472701 0
0.173845 -0.708566 0
-0.0181071 -0.383576 0
-0.0401741 -0.428397 0
-0.236927 -0.60038 0
0.172406 -0.458062 0
-0.06979 -0.279892 0
-0.00614569 -0.437449 0
-0.0429936 -0.383909 0
-0.142614 -0.556144 0
-0.0608051 -0.316152 0
0.014056 -0.231923 0
0.673346 -2.00646 0
0.00165398 -0.254615 0
-0.216114 -0.443651 0
0.332765 -0.593774 0
-0.376978 -0.51987 0
-0.185103 -0.777565 0
-0.0150642 -0.23975 0
0.334329 -2.49127 0
-0.0846226 -0.326889 0
0.327017 -1.16885 0
0.0301476 -0.178517 0
-0.123721 -1.16708 0
-0.0319853 -0.298449 0
0.0226446 -0.505422 0
-0.235861 -0.754051 0
-0.0467747 -0.612875 0
0.113478 -0.838483 0
-0.326983 -0.649137 0
-0.323693 -0.939641 0
-0.363571 -0.700396 0
-0.476571 -0.661129 0
-0.189135 -0.965891 0
-0.138648 -0.602884 0
-0.296496 -0.442699 0
-0.72823 -0.83117 0
-0.527115 -1.43881 0
-0.231395 -0.720962 0
-0.321929 -0.720914 0
-0.639636 -0.702676 0
-0.147642 -0.588579 0
-0.400835 -0.854647 0
-0.161196 -0.474265 0
-0.0816279 -0.532476 0
-0.225267 -0.760921 0
-0.331631 -0.895335 0
-0.199 -0.546298 0
-0.387612 -0.931314 0
-0.398716 -0.703223 0
-0.450382 -1.24311 0
-0.0916631 -0.637025 0
0.112026 -1.20118 0
0.0106318 -0.331212 0
-0.245597 -0.501885 0
-0.38628 -0.701615 0
-0.249415 -0.90161 0
-0.0615737 -0.500413 0
-0.556509 -0.841209 0
-0.785857 -0.959416 0
-0.190231 -0.630619 0
-0.501234 -0.645777 0
-0.386608 -0.459416 0
-0.0583535 -0.496321 0
-0.464628 -0.793319 0
0.0128557 -0.444412 0
-0.266516 -0.3622 0
-0.202159 -0.471615 0
-0.274168 -0.957672 0
-0.118948 -0.964136 0
-0.723287 -0.947953 0
-0.107714 -0.877838 0
-0.392843 -0.773138 0
-0.153452 -0.498879 0
-0.186889 -0.810567 0
-0.745121 -0.790663 0
-0.0973867 -0.533816 0
-0.43981 -1.54705 0
-0.171123 -0.42092 0
-0.742477 -0.61556 0
-0.108778 -0.91215 0
-0.148401 -0.446911 0
-0.413867 -0.629941 0
-0.0323168 -0.908226 0
-0.122701 -0.716101 0
-0.020838 -0.537233 0
-0.413211 -0.615309 0
