# vtk DataFile Version 2.0
Unstructured Grid by M++
ASCII
DATASET UNSTRUCTURED_GRID
POINTS 1089 float
  0.718750   0.687500 0
  0.750000   0.687500 0
  0.718750   0.656250 0
  0.750000   0.718750 0
  0.625000   0.562500 0
  0.625000   0.593750 0
  0.656250   0.593750 0
  0.750000   0.750000 0
  0.687500   0.656250 0
  0.687500   0.625000 0
  0.656250   0.625000 0
  0.906250   0.593750 0
  1.000000   0.968750 0
  0.750000   0.968750 0
  0.718750   0.968750 0
  0.718750   1.000000 0
  0.750000   1.000000 0
  0.906250   0.906250 0
  0.843750   0.531250 0
  0.656250   0.937500 0
  0.656250   0.906250 0
  0.562500   0.812500 0
  0.562500   0.843750 0
  0.593750   0.875000 0
  0.593750   0.843750 0
  0.812500   0.718750 0
  0.625000   0.625000 0
  0.968750   0.875000 0
  0.531250   0.875000 0
  0.625000   0.937500 0
  0.562500   0.562500 0
  0.906250   0.812500 0
  0.531250   0.781250 0
  0.562500   0.593750 0
  0.906250   0.843750 0
  0.625000   0.656250 0
  0.968750   0.906250 0
  0.687500   0.968750 0
  0.812500   0.812500 0
  0.687500   1.000000 0
  0.687500   0.687500 0
  0.937500   0.843750 0
  0.593750   0.593750 0
  1.000000   0.625000 0
  0.968750   0.593750 0
  0.906250   0.875000 0
  0.968750   0.625000 0
  0.625000   0.875000 0
  0.875000   0.875000 0
  0.625000   0.906250 0
  0.875000   0.843750 0
  0.531250   0.812500 0
  0.968750   0.562500 0
  0.593750   0.625000 0
  0.937500   0.875000 0
  0.656250   0.687500 0
  1.000000   0.937500 0
  0.875000   0.562500 0
  0.687500   0.937500 0
  0.937500   0.625000 0
  0.812500   0.781250 0
  0.937500   0.562500 0
  0.875000   0.781250 0
  0.531250   0.531250 0
  0.718750   0.937500 0
  0.968750   0.937500 0
  0.906250   0.562500 0
  0.843750   0.781250 0
  0.593750   0.562500 0
  1.000000   0.906250 0
  0.656250   0.656250 0
  0.937500   0.906250 0
  0.875000   0.531250 0
  0.812500   0.750000 0
  0.656250   0.968750 0
  0.937500   0.531250 0
  0.843750   0.812500 0
  0.906250   0.531250 0
  0.843750   0.750000 0
  0.937500   0.593750 0
  0.875000   0.812500 0
  0.531250   0.562500 0
  1.000000   0.593750 0
  0.562500   0.906250 0
  0.562500   0.531250 0
  0.593750   0.906250 0
  0.593750   0.937500 0
  0.562500   0.875000 0
  0.781250   0.750000 0
  0.781250   0.781250 0
  0.593750   0.531250 0
  1.000000   0.687500 0
  0.531250   0.843750 0
  0.718750   0.718750 0
  0.781250   0.718750 0
  0.781250   0.687500 0
  1.000000   0.656250 0
  0.968750   0.656250 0
  0.843750   0.843750 0
  0.781250   1.000000 0
  0.656250   0.312500 0
  0.531250   0.250000 0
  0.875000   0.500000 0
  0.531250   0.218750 0
  0.875000   0.468750 0
  0.531250   0.156250 0
  0.593750   0.812500 0
  0.093750   0.562500 0
  0.656250   0.562500 0
  0.156250   0.312500 0
  0.031250   0.812500 0
  0.125000   1.000000 0
  0.312500   0.250000 0
  0.250000   0.500000 0
  0.375000   0.000000 0
  0.187500   0.750000 0
  0.812500   0.906250 0
  0.312500   0.656250 0
  0.250000   0.906250 0
  0.875000   0.656250 0
  0.375000   0.406250 0
  0.750000   0.843750 0
  0.250000   0.593750 0
  0.187500   0.843750 0
  0.812500   0.593750 0
  0.312500   0.343750 0
  0.625000   0.968750 0
  0.125000   0.718750 0
  0.687500   0.718750 0
  0.187500   0.468750 0
  0.062500   0.968750 0
  0.125000   0.656250 0
  0.187500   0.406250 0
  0.250000   0.156250 0
  0.062500   0.906250 0
  0.468750   0.906250 0
  0.656250   0.156250 0
  0.468750   0.812500 0
  0.593750   0.312500 0
  0.656250   0.062500 0
  0.625000   0.812500 0
  0.125000   0.562500 0
  0.687500   0.562500 0
  0.187500   0.312500 0
  0.062500   0.812500 0
  0.562500   0.937500 0
  0.062500   0.687500 0
  0.625000   0.687500 0
  0.125000   0.437500 0
  0.000000   0.937500 0
  0.062500   0.625000 0
  0.187500   0.125000 0
  0.125000   0.375000 0
  0.000000   0.875000 0
  0.406250   0.875000 0
  0.468750   0.625000 0
  0.593750   0.125000 0
  0.812500   0.937500 0
  0.312500   0.687500 0
  0.250000   0.937500 0
  0.875000   0.687500 0
  0.375000   0.437500 0
  0.750000   0.875000 0
  0.250000   0.625000 0
  0.187500   0.875000 0
  0.812500   0.625000 0
  0.312500   0.375000 0
  0.468750   0.781250 0
  0.593750   0.281250 0
  0.656250   0.031250 0
  0.625000   0.781250 0
  0.125000   0.531250 0
  0.062500   0.781250 0
  0.687500   0.531250 0
  0.187500   0.281250 0
  0.500000   0.812500 0
  0.687500   0.062500 0
  0.625000   0.312500 0
  0.656250   0.812500 0
  0.156250   0.562500 0
  0.718750   0.562500 0
  0.218750   0.312500 0
  0.093750   0.812500 0
  0.437500   0.968750 0
  0.625000   0.218750 0
  0.500000   0.781250 0
  0.687500   0.031250 0
  0.625000   0.281250 0
  0.656250   0.781250 0
  0.156250   0.531250 0
  0.718750   0.531250 0
  0.218750   0.281250 0
  0.093750   0.781250 0
  0.062500   0.562500 0
  0.125000   0.312500 0
  0.187500   0.062500 0
  0.000000   0.812500 0
  0.406250   0.812500 0
  0.968750   0.812500 0
  0.468750   0.562500 0
  0.593750   0.062500 0
  0.218750   0.687500 0
  0.156250   0.937500 0
  0.281250   0.437500 0
  0.062500   0.843750 0
  0.687500   0.593750 0
  0.187500   0.343750 0
  0.625000   0.843750 0
  0.125000   0.593750 0
  0.312500   0.843750 0
  0.437500   0.343750 0
  0.500000   0.093750 0
  0.375000   0.593750 0
  0.312500   0.906250 0
  0.937500   0.656250 0
  0.437500   0.406250 0
  0.875000   0.906250 0
  0.375000   0.656250 0
  0.062500   0.875000 0
  0.187500   0.375000 0
  0.250000   0.125000 0
  0.125000   0.625000 0
  0.093750   0.656250 0
  0.031250   0.906250 0
  0.218750   0.156250 0
  0.156250   0.406250 0
  0.593750   0.968750 0
  0.093750   0.718750 0
  0.031250   0.968750 0
  0.656250   0.718750 0
  0.156250   0.468750 0
  0.437500   0.906250 0
  0.625000   0.156250 0
  0.718750   0.812500 0
  0.218750   0.562500 0
  0.781250   0.562500 0
  0.281250   0.312500 0
  0.156250   0.812500 0
  0.062500   0.656250 0
  0.000000   0.906250 0
  0.187500   0.156250 0
  0.125000   0.406250 0
  0.562500   0.968750 0
  0.062500   0.718750 0
  0.000000   0.968750 0
  0.625000   0.718750 0
  0.125000   0.468750 0
  0.406250   0.968750 0
  0.968750   0.968750 0
  0.468750   0.718750 0
  0.531250   0.468750 0
  0.593750   0.218750 0
  0.406250   0.906250 0
  0.468750   0.656250 0
  0.593750   0.156250 0
  0.687500   0.781250 0
  0.187500   0.531250 0
  0.750000   0.531250 0
  0.250000   0.281250 0
  0.125000   0.781250 0
  0.781250   0.906250 0
  0.281250   0.656250 0
  0.218750   0.906250 0
  0.843750   0.656250 0
  0.343750   0.406250 0
  0.750000   0.906250 0
  0.250000   0.656250 0
  0.187500   0.906250 0
  0.812500   0.656250 0
  0.312500   0.406250 0
  0.875000   0.406250 0
  0.375000   0.156250 0
  0.812500   0.968750 0
  0.312500   0.718750 0
  0.250000   0.968750 0
  0.875000   0.718750 0
  0.375000   0.468750 0
  0.781250   0.937500 0
  0.281250   0.687500 0
  0.218750   0.937500 0
  0.843750   0.687500 0
  0.343750   0.437500 0
  0.718750   0.875000 0
  0.218750   0.625000 0
  0.156250   0.875000 0
  0.781250   0.625000 0
  0.281250   0.375000 0
  0.750000   0.937500 0
  0.250000   0.687500 0
  0.187500   0.937500 0
  0.875000   0.437500 0
  0.375000   0.187500 0
  0.812500   0.687500 0
  0.312500   0.437500 0
  0.687500   0.875000 0
  0.187500   0.625000 0
  0.750000   0.625000 0
  0.250000   0.375000 0
  0.125000   0.875000 0
  0.812500   1.000000 0
  0.312500   0.750000 0
  0.250000   1.000000 0
  0.875000   0.750000 0
  0.375000   0.500000 0
  0.562500   1.000000 0
  0.062500   0.750000 0
  0.000000   1.000000 0
  0.625000   0.750000 0
  0.125000   0.500000 0
  0.406250   1.000000 0
  0.968750   1.000000 0
  0.468750   0.750000 0
  0.656250   0.000000 0
  0.531250   0.500000 0
  0.593750   0.250000 0
  0.406250   0.937500 0
  0.468750   0.687500 0
  0.593750   0.187500 0
  0.687500   0.812500 0
  0.187500   0.562500 0
  0.750000   0.562500 0
  0.250000   0.312500 0
  0.125000   0.812500 0
  0.437500   0.843750 0
  0.625000   0.093750 0
  0.093750   0.593750 0
  0.156250   0.343750 0
  0.218750   0.093750 0
  0.031250   0.843750 0
  0.281250   0.937500 0
  0.843750   0.937500 0
  0.343750   0.687500 0
  0.906250   0.687500 0
  0.406250   0.437500 0
  0.156250   0.968750 0
  0.218750   0.718750 0
  0.281250   0.468750 0
  0.343750   0.218750 0
  0.156250   1.000000 0
  0.406250   0.000000 0
  0.281250   0.500000 0
  0.343750   0.250000 0
  0.218750   0.750000 0
  0.187500   0.968750 0
  0.250000   0.718750 0
  0.375000   0.218750 0
  0.312500   0.468750 0
  0.187500   1.000000 0
  0.312500   0.500000 0
  0.375000   0.250000 0
  0.437500   0.000000 0
  0.250000   0.750000 0
  0.031250   0.781250 0
  0.656250   0.531250 0
  0.156250   0.281250 0
  0.593750   0.781250 0
  0.093750   0.531250 0
  0.000000   0.781250 0
  0.625000   0.531250 0
  0.125000   0.281250 0
  0.562500   0.781250 0
  0.062500   0.531250 0
  0.781250   0.968750 0
  0.281250   0.718750 0
  0.218750   0.968750 0
  0.843750   0.718750 0
  0.343750   0.468750 0
  0.281250   0.968750 0
  0.843750   0.968750 0
  0.343750   0.718750 0
  0.906250   0.718750 0
  0.406250   0.468750 0
  0.281250   1.000000 0
  0.906250   0.750000 0
  0.406250   0.500000 0
  0.843750   1.000000 0
  0.343750   0.750000 0
  0.531250   0.000000 0
  0.718750   0.843750 0
  0.218750   0.593750 0
  0.156250   0.843750 0
  0.781250   0.593750 0
  0.281250   0.343750 0
  0.687500   0.843750 0
  0.187500   0.593750 0
  0.750000   0.593750 0
  0.250000   0.343750 0
  0.125000   0.843750 0
  0.218750   0.875000 0
  0.843750   0.625000 0
  0.343750   0.375000 0
  0.781250   0.875000 0
  0.281250   0.625000 0
  0.156250   0.906250 0
  0.781250   0.656250 0
  0.281250   0.406250 0
  0.718750   0.906250 0
  0.218750   0.656250 0
  0.031250   1.000000 0
  0.656250   0.750000 0
  0.156250   0.500000 0
  0.593750   1.000000 0
  0.093750   0.750000 0
  0.218750   1.000000 0
  0.343750   0.500000 0
  0.468750   0.000000 0
  0.406250   0.250000 0
  0.281250   0.750000 0
  0.593750   0.406250 0
  0.093750   0.156250 0
  0.531250   0.656250 0
  0.031250   0.406250 0
[...]
CELL_DATA 1024
VECTORS vector_value float
1.47435 -1.96158 0
1.33158 -2.15232 0
1.27504 -2.3634 0
0.580156 -0.931816 0
0.649846 -1.08898 0
0.913711 -1.30566 0
0.11992 -1.11414 0
0.134197 -0.672073 0
0.139157 -0.842874 0
0.2867 -1.00039 0
0.375868 -0.765785 0
0.00126199 -0.402926 0
0.00435735 -0.380548 0
-0.029084 -0.646101 0
0.0408795 -0.58043 0
0.00655013 -0.534931 0
0.00630434 -0.388492 0
-0.00711538 -0.374054 0
0.0409595 -0.907267 0
0.00530776 -1.04069 0
-0.0137443 -0.873892 0
-0.0591694 -1.13736 0
0.140824 -1.3568 0
-0.10472 -1.40669 0
0.864851 -1.98471 0
1.145 -1.93123 0
1.08528 -2.33724 0
0.855722 -2.61865 0
0.770347 -1.04153 0
0.00845468 -0.196657 0
0.128291 -0.830253 0
0.375443 -1.00282 0
0.547878 -1.23247 0
0.209777 -1.16061 0
-0.0166401 -0.381627 0
-0.0491696 -0.531125 0
0.0315168 -0.654465 0
-0.034667 -0.563682 0
-0.00448229 -0.395712 0
0.594424 -1.05104 0
0.35173 -3.12454 0
0.0664309 -3.46169 0
1.94988 -2.19597 0
-0.0333222 -2.81365 0
0.446671 -2.77761 0
-0.0406778 -0.23337 0
0.771978 -1.16608 0
0.361281 -1.29038 0
-0.150262 -0.385317 0
1.45443 -1.82682 0
0.259623 -3.75458 0
0.689631 -1.10831 0
1.63038 -1.8622 0
0.509899 -1.02738 0
1.40954 -1.70564 0
0.554127 -0.97385 0
1.01396 -1.38754 0
-0.0420278 -2.93715 0
0.0411369 -2.94614 0
0.485931 -0.888666 0
0.474435 -2.18045 0
0.838483 -2.16289 0
1.03477 -1.33003 0
1.13835 -1.86861 0
0.457918 -1.57528 0
0.598049 -0.965175 0
0.307208 -0.593586 0
0.381636 -2.08225 0
0.388711 -2.43831 0
-0.0421878 -0.323997 0
0.80654 -1.28732 0
1.01396 -1.97359 0
0.0635855 -0.659839 0
1.31835 -2.17049 0
0.284809 -0.622841 0
0.767745 -0.751126 0
0.0836769 -0.321248 0
-0.000167258 -0.236842 0
1.3014 -1.73497 0
0.800991 -1.30888 0
0.26567 -0.478117 0
0.121444 -0.383831 0
1.85917 -2.2725 0
0.999166 -1.84077 0
1.10363 -1.71479 0
1.43711 -2.29866 0
1.13812 -1.36713 0
0.390762 -0.742282 0
0.130758 -0.378602 0
1.12727 -1.33666 0
1.16591 -1.75651 0
0.0896693 -0.500485 0
0.859038 -1.52693 0
1.57876 -2.76373 0
1.67766 -2.32802 0
0.984169 -1.70371 0
1.31115 -1.63587 0
1.86994 -2.0127 0
1.69043 -2.18988 0
0.683196 -1.28004 0
0.678292 -0.965051 0
0.0192896 -0.203487 0
0.0287926 -2.3881 0
1.75482 -2.37654 0
0.126078 -0.500539 0
0.722175 -0.789117 0
0.141601 -0.352589 0
0.602566 -0.942645 0
1.18722 -1.76003 0
0.214656 -0.741844 0
1.29033 -2.5509 0
0.0850465 -0.439814 0
0.0948036 -0.392501 0
-0.159921 -0.410333 0
0.258413 -0.548046 0
-0.00122915 -0.235867 0
1.02341 -1.43981 0
0.874499 -1.60613 0
0.421545 -1.7453 0
0.0164838 -0.699148 0
0.647726 -2.13921 0
-0.502461 -1.42547 0
-0.00697205 -0.409073 0
-0.055881 -0.369204 0
0.204022 -0.367496 0
0.118313 -0.349002 0
0.129604 -0.667981 0
0.73414 -2.29788 0
1.456 -2.6413 0
-0.0100478 -0.437544 0
0.419627 -0.695849 0
0.129155 -0.353025 0
0.73298 -2.47956 0
0.00637316 -0.62564 0
0.302702 -2.35976 0
-0.118579 -0.56658 0
-0.143033 -0.491453 0
0.416486 -0.546204 0
0.958375 -1.0544 0
0.910019 -1.20857 0
0.00127761 -0.23247 0
0.142328 -0.90923 0
-0.240461 -1.06459 0
0.27571 -1.005 0
0.971219 -2.07181 0
1.51429 -1.88731 0
0.716114 -0.842272 0
0.391085 -1.09906 0
0.00143215 -0.662453 0
0.225453 -2.19827 0
0.17198 -0.36193 0
0.152257 -0.362553 0
0.461987 -0.752371 0
1.09742 -2.56014 0
0.078347 -1.51057 0
-0.268228 -1.34344 0
0.0170841 -0.392534 0
0.0610338 -0.481279 0
0.518024 -1.8741 0
0.0550813 -0.561686 0
1.51093 -1.57815 0
0.901337 -2.15726 0
0.569348 -0.879859 0
0.841634 -0.953639 0
0.0110832 -0.246296 0
0.415382 -1.12465 0
-0.29061 -0.819458 0
0.0978427 -0.675676 0
0.650491 -2.3198 0
0.468452 -2.12806 0
0.498182 -0.931017 0
1.38582 -2.1914 0
1.73565 -2.29107 0
1.50449 -2.62077 0
1.54751 -2.39588 0
1.84467 -2.71669 0
1.22882 -1.97978 0
1.31752 -2.28 0
0.130394 -0.456751 0
1.52269 -2.30529 0
0.265063 -2.02777 0
0.611368 -0.980727 0
0.0306531 -0.277053 0
1.43746 -2.20928 0
0.332094 -2.0886 0
0.0296238 -0.456412 0
1.6934 -2.01388 0
0.941871 -2.1711 0
0.107385 -0.434962 0
0.782934 -2.18351 0
-0.11162 -0.423398 0
0.182166 -0.384867 0
0.0280523 -0.532569 0
0.236089 -2.56157 0
0.470421 -1.52419 0
-0.119243 -0.485941 0
-0.130251 -0.474876 0
0.282597 -0.439728 0
-0.0478263 -0.625359 0
0.60223 -2.54713 0
0.169987 -0.319534 0
0.23047 -0.66423 0
-0.0588663 -0.442548 0
0.379664 -0.575438 0
0.200692 -0.408367 0
0.00725808 -0.487116 0
-0.109711 -0.329281 0
-0.0964096 -1.97144 0
-0.512347 -2.0991 0
0.0607288 -0.459273 0
-0.0201685 -0.334868 0
0.023017 -1.98111 0
-0.234451 -2.13737 0
0.111959 -0.387757 0
-0.0769208 -0.371856 0
0.094924 -0.487845 0
-0.13374 -0.297209 0
-0.0371405 -2.35261 0
-0.349019 -2.74615 0
1.91954 -1.93629 0
-0.0901527 -2.49911 0
0.684075 -0.923138 0
0.049314 -0.225585 0
0.140635 -0.293046 0
1.48512 -1.88019 0
0.677399 -0.862579 0
0.00148283 -0.186705 0
0.02162 -0.237895 0
0.679852 -0.861447 0
0.952954 -1.15018 0
0.0536923 -0.199327 0
0.00811957 -0.171166 0
0.72025 -0.959281 0
1.10124 -1.794 0
0.0283269 -0.191886 0
0.105001 -0.286984 0
0.771234 -0.840203 0
0.543165 -1.09708 0
0.608499 -0.905561 0
0.0865348 -0.297496 0
0.936641 -0.958157 0
0.039658 -0.265728 0
0.516011 -0.700882 0
0.147086 -0.262336 0
0.63482 -0.849806 0
0.108145 -0.283367 0
0.0248805 -0.285063 0
0.420813 -0.763442 0
0.030556 -0.348743 0
0.2425 -0.649824 0
0.328099 -1.11735 0
0.478566 -1.10677 0
0.0239723 -0.722946 0
0.0595241 -0.723267 0
0.188501 -0.830735 0
0.061524 -0.777967 0
0.101297 -2.21472 0
-0.400015 -2.96296 0
-0.0148798 -0.712729 0
-0.0241424 -0.82136 0
-0.254805 -0.876367 0
-0.0373678 -0.784479 0
-0.124376 -0.552665 0
-0.279415 -0.300137 0
-0.15668 -0.295681 0
0.205022 -1.01958 0
0.11654 -0.855507 0
0.0259193 -0.737936 0
0.020943 -0.916249 0
-0.651379 -3.19795 0
-0.792187 -3.19986 0
0.145582 -1.32356 0
0.215071 -1.29549 0
0.2333 -1.2521 0
0.0434529 -1.10343 0
0.0520485 -0.536588 0
0.00596906 -1.03201 0
-0.167849 -0.967343 0
-0.12222 -0.993662 0
-0.0796225 -0.969246 0
-0.0871276 -0.807905 0
0.0333906 -0.657335 0
0.299375 -1.07282 0
0.517211 -1.14876 0
0.105112 -0.74918 0
-0.268239 -0.646527 0
-0.656478 -0.376067 0
-1.23265 -2.05584 0
-0.823964 -0.822473 0
-0.907593 -0.962149 0
-0.389704 -0.279295 0
-0.502926 -0.802737 0
-0.452053 -0.30667 0
-0.16946 -0.660908 0
0.158528 -0.944025 0
-2.46292 -1.89313 0
0.0869972 -0.807412 0
-2.43856 -2.13098 0
-0.0448732 -0.944258 0
-0.0150129 -0.951419 0
-0.0932462 -0.910475 0
0.108779 -0.589347 0
0.00986479 -0.98578 0
-0.061344 -1.07492 0
-0.0229322 -0.612892 0
0.00513749 -0.938496 0
-0.0490948 -0.879942 0
-0.0191669 -1.00199 0
-0.239625 -0.771464 0
-0.0195281 -0.168801 0
-0.039501 -0.922 0
-0.450217 -2.18845 0
-0.00978694 -0.895504 0
0.0979871 -0.93281 0
0.0570863 -0.984491 0
0.0625403 -0.266519 0
-2.31216 -1.92797 0
-0.455439 -1.03116 0
0.020476 -0.950573 0
-0.0352406 -1.10342 0
-1.01866 -1.3126 0
-0.191712 -0.587742 0
0.00803937 -1.00445 0
0.398937 -3.70632 0
-0.0429316 -0.661298 0
-0.000638812 -0.143993 0
0.236902 -2.57326 0
-1.29564 -2.08585 0
0.00814989 -0.972255 0
0.0129634 -0.972539 0
-0.39961 -0.435665 0
-0.912409 -4.42031 0
-0.00480605 -1.0546 0
0.0447282 -0.920276 0
-0.318089 -0.752413 0
-1.28518 -3.82025 0
0.111346 -1.1696 0
-0.156777 -1.05251 0
-0.044594 -0.488459 0
-0.137961 -1.35547 0
-0.844837 -1.10587 0
0.277135 -1.27807 0
-0.0591649 -1.18388 0
-0.221058 -0.688818 0
-0.456401 -1.38851 0
-1.69615 -1.40728 0
-0.481084 -0.965952 0
0.00341874 -0.24158 0
-0.0671205 -0.977499 0
-0.486948 -1.02512 0
-0.509564 -1.2686 0
-0.0947415 -0.911555 0
-0.0200319 -0.571241 0
0.0749199 -0.862428 0
-0.299513 -0.881679 0
-0.241764 -0.661022 0
0.042533 -1.0096 0
0.0074155 -0.92855 0
-0.329682 -3.91713 0
0.0370478 -0.926351 0
0.597849 -1.01232 0
-0.828245 -1.9884 0
-1.19802 -1.00831 0
-0.539738 -1.25888 0
-1.08668 -1.16347 0
-2.28619 -1.87133 0
-0.449415 -1.75099 0
-0.145708 -1.25772 0
-0.274409 -1.08342 0
0.0731192 -0.686746 0
0.0318206 -0.723027 0
-0.0137383 -1.26725 0
-0.198197 -0.76519 0
-0.179144 -1.22378 0
-0.271849 -0.390693 0
-0.000532822 -0.996144 0
0.0165636 -0.945389 0
-0.568539 -4.53268 0
0.499163 -0.923147 0
0.0385069 -0.851566 0
0.0536677 -0.926507 0
0.386341 -1.47247 0
0.254541 -1.16254 0
0.224702 -0.806887 0
0.378222 -0.680304 0
0.102432 -0.773685 0
0.152783 -0.693429 0
0.28498 -0.942572 0
0.111491 -0.606169 0
0.166033 -0.743078 0
-0.234145 -0.402501 0
0.0136759 -0.908279 0
-0.0698581 -3.82037 0
-0.0707681 -0.251559 0
-0.414859 -1.09277 0
-1.31866 -1.3499 0
0.278098 -1.21315 0
0.281854 -0.723438 0
0.368475 -0.609514 0
-0.528661 -0.814806 0
-1.81716 -3.16079 0
-1.6837 -1.33524 0
0.124865 -0.95014 0
0.128924 -0.364677 0
0.303778 -0.618051 0
-0.554381 -0.43424 0
-0.687245 -3.70067 0
-1.20534 -1.38452 0
-1.95919 -1.83773 0
0.0480843 -0.697028 0
0.0175902 -0.166472 0
0.0820836 -0.343212 0
-0.534104 -1.19442 0
-1.15974 -1.25242 0
-0.999592 -0.791185 0
-0.0873602 -1.55546 0
-1.29006 -1.24842 0
-1.29378 -0.767216 0
-0.151376 -2.50444 0
-1.46342 -1.04803 0
-0.765455 -0.497089 0
-0.0567391 -1.10705 0
-0.103462 -1.02772 0
0.542713 -1.55046 0
0.0229801 -1.18719 0
0.00498888 -0.994099 0
-2.59521 -1.62094 0
-0.980618 -0.575132 0
-0.348666 -0.589784 0
-1.46804 -1.18118 0
0.0936411 -1.46453 0
-2.55777 -1.96849 0
-0.730632 -0.753494 0
0.0235219 -1.2326 0
0.0999667 -0.442967 0
-1.80646 -1.04972 0
-0.560587 -0.387202 0
-2.05872 -1.42209 0
-1.2993 -0.689114 0
0.40385 -2.01303 0
-1.85698 -1.34443 0
-0.970125 -0.564866 0
0.459924 -1.93291 0
-1.32475 -1.54624 0
-1.5779 -0.88781 0
0.0519599 -0.97663 0
-0.0511746 -0.752925 0
0.307292 -1.40099 0
0.307884 -1.50744 0
-0.0185848 -0.831204 0
0.035219 -1.00659 0
0.296495 -0.722394 0
0.214441 -1.42527 0
0.0808376 -1.22723 0
0.0985869 -0.674082 0
0.0502277 -1.27796 0
-0.0736598 -0.810269 0
-0.102244 -1.10881 0
0.0185561 -1.47024 0
0.179796 -1.4004 0
0.110244 -0.712574 0
-0.0435222 -0.759832 0
0.0945348 -0.563501 0
0.0320479 -0.630526 0
0.0555979 -0.538701 0
0.0520155 -0.729399 0
-0.00107449 -0.789564 0
0.0244175 -1.16931 0
0.154358 -1.25632 0
0.212058 -0.47851 0
0.11198 -0.709845 0
0.0349698 -0.214592 0
0.119104 -0.547948 0
0.220042 -0.782125 0
0.0943869 -0.566835 0
0.123182 -0.688222 0
-0.790487 -0.425512 0
-2.06748 -1.13454 0
-0.105136 -0.744732 0
-0.140665 -0.918787 0
0.00339806 -0.928238 0
-0.022093 -1.25668 0
0.180847 -1.39611 0
0.164114 -1.02363 0
0.00475952 -1.04089 0
0.0125369 -0.894203 0
0.0356006 -1.08707 0
0.358385 -1.39377 0
0.23513 -1.07782 0
-0.190544 -0.298208 0
-0.202865 -0.265171 0
-0.297517 -0.283717 0
-0.27222 -0.264507 0
0.472211 -1.382 0
0.317174 -1.48119 0
0.206589 -1.32782 0
0.562573 -1.36179 0
0.198244 -1.30155 0
0.364756 -1.25195 0
0.448454 -0.8611 0
0.358214 -1.41088 0
0.417886 -1.02145 0
0.447879 -0.765919 0
0.38082 -1.55638 0
0.212148 -1.07933 0
0.37747 -1.13812 0
0.230189 -0.702759 0
0.229127 -0.470748 0
0.14569 -0.962498 0
0.0364612 -0.84567 0
0.101293 -0.765897 0
0.296403 -0.874557 0
0.164608 -0.828644 0
-0.00737356 -0.68237 0
-0.0671126 -0.632546 0
-0.120831 -0.585155 0
-0.0282844 -0.480943 0
0.110235 -0.54565 0
0.131595 -0.60341 0
0.167684 -0.403019 0
-0.0203513 -0.957374 0
0.484459 -0.904667 0
0.387833 -0.90243 0
0.243092 -0.464327 0
0.365174 -1.07502 0
0.5217 -1.02652 0
0.153622 -0.473489 0
0.164901 -0.533732 0
0.261887 -0.567672 0
0.227932 -0.401497 0
-0.00897845 -0.923204 0
-0.16692 -0.665583 0
-0.20655 -0.652433 0
0.0582615 -0.492246 0
0.174149 -0.621008 0
0.200334 -0.871014 0
0.116836 -0.862217 0
0.264275 -0.499623 0
0.217468 -0.585434 0
0.298652 -0.607627 0
0.332107 -0.544341 0
-0.0134185 -1.03319 0
0.0219491 -1.23218 0
0.021903 -0.260247 0
0.0446392 -0.344177 0
0.118419 -1.34281 0
0.218727 -0.363668 0
0.133488 -0.923704 0
0.171615 -1.26714 0
0.314317 -0.387268 0
0.0460779 -0.903058 0
0.116691 -1.16756 0
0.124749 -1.27943 0
0.117673 -0.826763 0
0.143637 -1.16614 0
0.116203 -0.856393 0
0.0847885 -0.744623 0
-0.0137542 -0.736848 0
-0.0803592 -0.721181 0
0.161431 -0.672716 0
-0.0127159 -0.570209 0
0.0827665 -0.696531 0
-0.02164 -0.645029 0
0.13564 -1.48551 0
0.192573 -0.659723 0
0.0554384 -0.596719 0
0.24707 -1.23602 0
-0.244295 -2.22635 0
-0.0396676 -0.765411 0
-0.0318582 -0.949599 0
-0.125082 -0.898896 0
0.00203063 -0.436654 0
0.00661462 -0.777408 0
-0.0149104 -3.14355 0
-0.0811053 -0.937556 0
-0.0956128 -0.818755 0
-0.00515325 -0.433029 0
-0.110383 -0.794523 0
0.00664329 -0.287231 0
0.14003 -1.33296 0
-0.0303731 -0.706433 0
-0.107265 -0.741054 0
0.27915 -0.385681 0
0.294138 -0.384841 0
-0.00139 -0.691296 0
0.0504301 -0.730236 0
-0.00813248 -0.299332 0
0.27816 -0.36351 0
0.327726 -0.40833 0
0.0199351 -0.695562 0
-0.147072 -0.672568 0
-0.0993929 -0.649047 0
-0.0394572 -0.303134 0
0.149939 -1.4396 0
0.185786 -0.698573 0
0.49481 -2.14383 0
0.262062 -0.598576 0
0.434776 -2.25098 0
0.242011 -1.47921 0
0.127247 -0.397609 0
0.0778213 -0.581348 0
0.0224483 -0.645866 0
-0.0725877 -0.614917 0
0.00931019 -0.596577 0
0.017922 -0.444032 0
0.22484 -1.19562 0
0.0445043 -0.607964 0
-0.0792473 -0.712708 0
-0.128017 -0.615738 0
-0.121152 -0.417858 0
0.0141112 -0.547671 0
0.183736 -1.30252 0
0.218452 -0.446829 0
0.751207 -2.31344 0
-0.0484808 -0.550119 0
0.209083 -0.419979 0
0.173511 -1.51999 0
0.172682 -1.19717 0
0.240034 -0.525114 0
0.229563 -1.78991 0
0.200765 -0.937303 0
0.0456853 -0.592999 0
-0.164812 -0.497376 0
-0.00219115 -0.577861 0
-0.099607 -0.565234 0
0.0198319 -0.402396 0
-0.0793228 -0.427759 0
0.165077 -0.341208 0
0.265402 -0.313347 0
0.321347 -0.458733 0
0.574835 -1.42624 0
0.667955 -1.63946 0
-0.0499392 -0.579776 0
0.127102 -2.64039 0
0.00273129 -0.775468 0
0.127538 -0.345038 0
0.0677505 -0.283691 0
0.26244 -1.15117 0
0.184242 -1.19946 0
0.268462 -0.923354 0
0.253059 -0.909494 0
0.146577 -2.76071 0
-0.0580519 -0.533243 0
-0.098504 -1.15071 0
0.0385729 -0.609721 0
0.0120679 -0.445135 0
0.100979 -1.30795 0
-0.093744 -0.819223 0
0.141903 -0.328535 0
0.260402 -1.18436 0
0.105084 -1.13912 0
-0.0673756 -0.773104 0
0.0899055 -2.01718 0
0.0259302 -0.306625 0
0.035196 -0.753536 0
0.406463 -2.09898 0
0.132942 -0.51601 0
0.0913206 -0.318987 0
0.0898989 -0.515219 0
0.463952 -2.52205 0
0.0284094 -0.413696 0
0.0470507 -0.272595 0
0.349036 -0.84536 0
0.20267 -0.266698 0
0.241966 -0.809278 0
0.285037 -0.880037 0
0.200415 -0.83683 0
0.079376 -0.680399 0
0.131143 -1.518 0
0.143996 -0.615917 0
0.333484 -1.80165 0
0.0950458 -0.757862 0
0.340331 -1.99446 0
0.0215553 -0.685543 0
-0.0525429 -2.00678 0
0.167533 -1.28939 0
0.209922 -0.835079 0
0.24683 -0.884368 0
0.221929 -0.317907 0
0.180663 -0.294648 0
0.26391 -0.311325 0
0.181296 -0.529008 0
0.276336 -0.542799 0
0.264117 -0.517543 0
0.257854 -0.560721 0
0.298955 -0.497985 0
0.231973 -0.391938 0
0.481926 -1.16873 0
0.121366 -0.402918 0
0.279341 -0.467484 0
0.297365 -0.45499 0
0.549824 -1.39713 0
0.512077 -1.35588 0
0.0572834 -0.541562 0
0.286263 -0.515044 0
0.414348 -2.02027 0
0.305994 -1.61853 0
-0.0247273 -0.542619 0
0.135589 -0.328821 0
0.267816 -0.500228 0
0.464889 -1.78794 0
0.275569 -1.2742 0
0.0280657 -0.485737 0
0.240476 -1.12538 0
0.172077 -1.02867 0
0.00448067 -0.485628 0
0.166011 -1.05849 0
0.0171503 -0.251532 0
0.235093 -1.16398 0
0.0329612 -1.21905 0
0.0615427 -0.337629 0
0.214175 -0.962898 0
0.0207095 -0.997471 0
0.00476708 -0.490788 0
0.0161082 -0.816018 0
0.104813 -0.823742 0
0.0815303 -0.825163 0
0.0222948 -0.81933 0
-0.0795686 -0.530598 0
0.00417187 -0.367043 0
0.0341027 -0.573125 0
-0.00730337 -0.381244 0
0.0321735 -0.441655 0
-0.0870972 -0.490649 0
0.0168526 -0.576761 0
0.187803 -0.326851 0
0.112115 -0.402084 0
0.193187 -0.335299 0
0.242054 -0.260803 0
-0.194184 -1.05426 0
-0.0386744 -0.606621 0
-0.0301918 -0.443015 0
-0.0213316 -0.566213 0
-0.106354 -0.702541 0
-0.0788016 -2.08242 0
-0.115552 -0.791821 0
-0.0545793 -0.615443 0
-0.0497939 -1.07198 0
-0.0434579 -0.515512 0
-0.0110786 -0.392671 0
-0.262249 -1.17041 0
0.000186115 -0.64591 0
0.234566 -0.224629 0
0.234393 -0.301482 0
0.281949 -0.293223 0
0.270825 -0.347671 0
0.211397 -0.225048 0
0.229264 -0.358989 0
-0.0247056 -0.316382 0
0.00420603 -0.232149 0
-0.023374 -1.01419 0
0.018305 -0.525959 0
-0.0360693 -0.940614 0
0.0107598 -0.514607 0
0.180415 -1.13226 0
-0.0362558 -1.23098 0
0.0936282 -0.465087 0
0.0856204 -1.27579 0
0.115812 -0.636629 0
0.0927343 -0.974975 0
0.0197277 -0.956237 0
0.0831849 -0.878284 0
0.145951 -0.853609 0
0.337244 -0.405456 0
0.313415 -0.40228 0
0.268841 -0.318895 0
0.302155 -0.341017 0
0.32162 -0.328116 0
-0.0101456 -0.244921 0
-0.0325631 -0.166952 0
0.0365433 -0.189802 0
0.097197 -0.318994 0
-0.0241849 -0.268319 0
-0.142519 -0.965139 0
0.155855 -0.997431 0
0.138693 -0.49599 0
0.165224 -1.04226 0
-0.180039 -1.00304 0
-0.172722 -1.01892 0
0.282032 -0.953006 0
-0.148115 -0.828476 0
-0.135017 -0.976056 0
-0.0628045 -1.09181 0
-0.157735 -1.11598 0
0.294504 -0.628817 0
0.18376 -0.675636 0
0.204006 -0.511806 0
0.294687 -0.536594 0
-0.639055 -0.901887 0
-0.192875 -0.851483 0
-0.796081 -1.9237 0
-0.126233 -0.998697 0
-0.594167 -1.88512 0
-0.240568 -1.03104 0
0.168167 -0.313387 0
-0.0703838 -0.259557 0
-0.0906837 -0.953632 0
-0.602027 -1.77769 0
-0.122107 -1.02974 0
-1.00711 -2.11653 0
-0.252816 -1.02398 0
-0.78955 -1.45611 0
-0.228651 -1.04424 0
0.069111 -0.254083 0
-0.5042 -0.862607 0
0.0372184 -0.926372 0
-0.850107 -1.87597 0
-0.219905 -0.99869 0
0.0145474 -0.277454 0
-0.625827 -0.845794 0
-0.133375 -0.77649 0
-0.425806 -1.668 0
-0.209621 -0.954282 0
0.108571 -0.327862 0
-0.369246 -1.18532 0
-0.778676 -1.1791 0
-0.909714 -1.22953 0
-0.48912 -1.20183 0
-0.857383 -1.3959 0
-0.743129 -1.89887 0
-0.169717 -0.229908 0
-0.675455 -1.01329 0
0.135446 -1.74293 0
-0.115247 -0.458453 0
-0.0947534 -0.20613 0
-0.723501 -0.937678 0
0.199709 -1.53033 0
-0.114162 -0.376926 0
-0.107158 -0.176122 0
-0.0309938 -0.824845 0
-0.800447 -1.50658 0
-0.06823 -0.926919 0
-0.678842 -1.41376 0
-0.428153 -0.835241 0
-0.772301 -0.901641 0
0.0582435 -0.272873 0
-0.00709148 -1.21943 0
-0.0111477 -0.253347 0
0.0161039 -0.292756 0
0.146334 -0.888919 0
-0.480112 -0.971084 0
-0.783546 -0.813534 0
0.0114199 -0.204916 0
-0.7789 -1.12536 0
-0.0559651 -0.926363 0
-0.00603932 -0.478395 0
0.0205815 -0.474442 0
-0.392982 -0.901257 0
-0.711855 -0.694078 0
-0.661077 -1.16588 0
0.0883011 -1.0593 0
-0.474183 -0.831454 0
-0.847725 -0.894847 0
-0.633997 -1.26048 0
0.241283 -1.29583 0
-0.563913 -0.889927 0
-0.215621 -1.65642 0
-0.251971 -0.999487 0
-0.896119 -1.46516 0
-0.0393194 -0.167463 0
-0.124061 -0.336923 0
-0.165846 -1.02741 0
-0.00849981 -0.696574 0
-0.451649 -1.33122 0
-0.0383874 -0.779921 0
-0.011438 -0.175192 0
-0.00212397 -0.503359 0
0.0221708 -0.423026 0
-0.125242 -0.624308 0
-0.205852 -1.7043 0
-0.179007 -0.894889 0
-0.589717 -1.72878 0
-0.138602 -0.83973 0
-0.00496327 -0.24449 0
0.0348692 -0.323725 0
-0.538057 -0.699281 0
-0.00200686 -0.189048 0
-0.0854508 -0.490179 0
-0.14754 -0.746511 0
-0.0818243 -1.73475 0
-0.91535 -2.15675 0
-0.278545 -1.10631 0
-0.0954682 -0.933242 0
-0.0330743 -0.651784 0
-0.0147091 -0.69609 0
-0.38037 -1.43095 0
-0.0765033 -0.275411 0
-0.0333303 -0.246982 0
-0.769458 -1.90269 0
-0.216701 -1.04288 0
-0.60786 -1.21718 0
-0.158484 -1.06412 0
-0.0445451 -0.337376 0
0.264755 -0.37119 0
-0.410833 -0.700174 0
-0.222872 -0.310798 0
-0.0377326 -0.917534 0
-0.377203 -0.981939 0
-0.0815483 -0.977244 0
-0.0579887 -0.213379 0
-0.760923 -2.27336 0
-0.0684685 -1.1052 0
-0.143508 -0.939419 0
-0.548936 -1.15554 0
-0.0851849 -0.325605 0
0.193898 -0.357329 0
-0.371721 -1.05637 0
-0.0581506 -0.964098 0
-0.468456 -0.894195 0
-0.182941 -1.02709 0
-0.353173 -0.511418 0
-0.39608 -1.60079 0
-0.0729167 -0.505594 0
-0.107752 -0.719035 0
-0.225567 -0.227754 0
-0.522082 -0.519336 0
-0.570306 -0.631839 0
-0.390819 -0.359733 0
0.145466 -0.270059 0
-0.17871 -0.392765 0
-0.298047 -0.764866 0
-0.0358206 -1.4692 0
-1.01008 -1.4409 0
-0.327853 -1.17999 0
-0.0976984 -1.05721 0
-0.792306 -1.45666 0
-0.278355 -1.0783 0
0.248705 -0.343755 0
-0.159678 -0.360983 0
0.0575255 -1.29865 0
-0.0415791 -0.25253 0
-0.281285 -1.03823 0
0.0904501 -0.866256 0
0.17898 -0.91132 0
-0.0531685 -0.968959 0
-0.022762 -0.26712 0
-0.680878 -0.761745 0
0.281478 -1.28843 0
-0.532888 -0.569858 0
0.167199 -1.45222 0
-0.477313 -0.581434 0
-0.490297 -0.711415 0
0.116236 -1.35828 0
0.273598 -1.20802 0
0.0538963 -1.24653 0