# vtk DataFile Version 2.0
Unstructured Grid by M++
ASCII
DATASET UNSTRUCTURED_GRID
POINTS 4225 float
  0.921875   0.593750 0
  0.921875   0.609375 0
  0.656250   0.609375 0
  0.671875   0.609375 0
  0.656250   0.546875 0
  0.671875   0.546875 0
  0.656250   0.562500 0
  0.656250   0.578125 0
  0.656250   0.593750 0
  0.671875   0.593750 0
  0.671875   0.562500 0
  0.671875   0.578125 0
  0.671875   0.625000 0
  0.671875   0.640625 0
  0.906250   0.578125 0
  0.890625   0.578125 0
  0.546875   0.515625 0
  1.000000   0.890625 0
  0.515625   0.640625 0
  0.515625   0.625000 0
  1.000000   0.875000 0
  0.515625   0.656250 0
  0.515625   0.687500 0
  0.515625   0.671875 0
  1.000000   0.921875 0
  0.546875   0.531250 0
  0.546875   0.546875 0
  0.546875   0.562500 0
  0.796875   0.531250 0
  0.953125   0.890625 0
  0.953125   0.875000 0
  0.953125   0.843750 0
  0.953125   0.828125 0
  0.953125   0.812500 0
  0.531250   0.562500 0
  0.531250   0.546875 0
  0.515625   0.562500 0
  0.515625   0.546875 0
  1.000000   0.812500 0
  0.781250   0.546875 0
  0.765625   0.546875 0
  0.859375   0.921875 0
  0.921875   0.671875 0
  0.609375   0.906250 0
  0.671875   0.656250 0
  0.609375   0.921875 0
  0.671875   0.671875 0
  0.671875   0.984375 0
  0.671875   1.000000 0
  0.906250   0.984375 0
  0.906250   1.000000 0
  0.921875   0.984375 0
  0.921875   1.000000 0
  0.859375   0.609375 0
  1.000000   0.781250 0
  0.515625   0.531250 0
  0.531250   0.531250 0
  0.531250   0.515625 0
  0.515625   0.515625 0
  1.000000   0.750000 0
  0.765625   0.531250 0
  0.781250   0.531250 0
  0.781250   0.515625 0
  0.765625   0.515625 0
  0.859375   0.875000 0
  0.921875   0.625000 0
  0.859375   0.890625 0
  0.921875   0.640625 0
  0.671875   0.968750 0
  0.671875   0.953125 0
  0.921875   0.968750 0
  0.921875   0.953125 0
  0.859375   0.593750 0
  0.859375   0.578125 0
  0.875000   0.578125 0
  0.828125   0.890625 0
  0.890625   0.640625 0
  0.593750   0.890625 0
  0.656250   0.640625 0
  0.593750   0.875000 0
  0.656250   0.625000 0
  0.578125   0.890625 0
  0.640625   0.640625 0
  0.578125   0.875000 0
  0.640625   0.625000 0
  0.968750   0.890625 0
  0.984375   0.890625 0
  0.968750   0.812500 0
  0.968750   0.828125 0
  0.984375   0.812500 0
  0.984375   0.828125 0
  1.000000   0.828125 0
  0.656250   0.953125 0
  0.640625   0.953125 0
  0.890625   0.968750 0
  0.906250   0.968750 0
  0.906250   0.953125 0
  0.890625   0.953125 0
  0.531250   0.703125 0
  0.531250   0.718750 0
  0.546875   0.718750 0
  0.546875   0.703125 0
  0.593750   0.578125 0
  0.562500   0.578125 0
  0.578125   0.578125 0
  0.843750   0.578125 0
  0.828125   0.578125 0
  0.828125   0.812500 0
  0.890625   0.562500 0
  0.828125   0.796875 0
  0.953125   0.906250 0
  0.953125   0.921875 0
  0.531250   0.859375 0
  0.593750   0.609375 0
  0.531250   0.843750 0
  0.593750   0.593750 0
  0.515625   0.843750 0
  0.578125   0.593750 0
  0.515625   0.859375 0
  0.578125   0.609375 0
  0.937500   0.859375 0
  1.000000   0.609375 0
  0.921875   0.859375 0
  0.984375   0.609375 0
  0.937500   0.796875 0
  0.921875   0.796875 0
  0.984375   0.546875 0
  0.562500   0.812500 0
  0.843750   0.796875 0
  0.843750   0.812500 0
  0.859375   0.796875 0
  0.859375   0.812500 0
  1.000000   0.906250 0
  0.984375   0.906250 0
  0.968750   0.906250 0
  0.968750   0.921875 0
  0.984375   0.921875 0
  0.593750   0.921875 0
  0.656250   0.671875 0
  0.593750   0.906250 0
  0.656250   0.656250 0
  0.578125   0.906250 0
  0.640625   0.656250 0
  0.578125   0.921875 0
  0.640625   0.671875 0
  1.000000   0.843750 0
  0.984375   0.843750 0
  0.968750   0.843750 0
  0.968750   0.859375 0
  0.968750   0.875000 0
  1.000000   0.859375 0
  0.984375   0.859375 0
  0.984375   0.875000 0
  0.656250   1.000000 0
  0.656250   0.984375 0
  0.656250   0.968750 0
  0.640625   0.968750 0
  0.640625   1.000000 0
  0.640625   0.984375 0
  0.843750   0.921875 0
  0.906250   0.671875 0
  0.843750   0.906250 0
  0.906250   0.656250 0
  0.828125   0.906250 0
  0.890625   0.656250 0
  0.828125   0.921875 0
  0.890625   0.671875 0
  0.781250   0.859375 0
  0.843750   0.609375 0
  0.781250   0.843750 0
  0.843750   0.593750 0
  0.765625   0.843750 0
  0.828125   0.593750 0
  0.765625   0.859375 0
  0.828125   0.609375 0
  0.968750   0.609375 0
  0.906250   0.859375 0
  0.953125   0.609375 0
  0.890625   0.859375 0
  0.937500   0.609375 0
  0.875000   0.859375 0
  0.562500   0.593750 0
  0.546875   0.593750 0
  0.531250   0.593750 0
  0.531250   0.609375 0
  0.562500   0.609375 0
  0.546875   0.609375 0
  0.609375   0.625000 0
  0.546875   0.875000 0
  0.609375   0.640625 0
  0.546875   0.890625 0
  0.625000   0.640625 0
  0.562500   0.890625 0
  0.625000   0.625000 0
  0.562500   0.875000 0
  0.921875   0.843750 0
  0.984375   0.593750 0
  0.937500   0.843750 0
  1.000000   0.593750 0
  0.921875   0.812500 0
  0.921875   0.828125 0
  0.984375   0.578125 0
  0.937500   0.828125 0
  1.000000   0.578125 0
  0.937500   0.812500 0
  1.000000   0.562500 0
  0.578125   0.828125 0
  0.921875   0.781250 0
  0.937500   0.781250 0
  1.000000   0.531250 0
  0.921875   0.765625 0
  0.984375   0.515625 0
  0.937500   0.765625 0
  0.625000   0.656250 0
  0.562500   0.906250 0
  0.609375   0.656250 0
  0.546875   0.906250 0
  0.625000   0.671875 0
  0.562500   0.921875 0
  0.609375   0.671875 0
  0.546875   0.921875 0
  0.859375   0.781250 0
  0.859375   0.765625 0
  0.828125   0.671875 0
  0.765625   0.921875 0
  0.828125   0.734375 0
  0.765625   0.984375 0
  0.875000   0.843750 0
  0.937500   0.593750 0
  0.890625   0.843750 0
  0.953125   0.593750 0
  0.906250   0.843750 0
  0.968750   0.593750 0
  0.906250   0.828125 0
  0.968750   0.578125 0
  0.937500   0.578125 0
  0.953125   0.578125 0
  0.906250   0.765625 0
  0.875000   0.765625 0
  0.953125   0.515625 0
  0.531250   0.781250 0
  0.671875   0.890625 0
  0.531250   0.921875 0
  0.953125   0.656250 0
  0.828125   0.781250 0
  0.843750   0.781250 0
  0.703125   0.984375 0
  0.687500   0.984375 0
  0.843750   0.875000 0
  0.906250   0.625000 0
  0.671875   0.781250 0
  0.734375   0.531250 0
  0.906250   0.609375 0
  0.671875   0.765625 0
  0.734375   0.515625 0
  0.906250   0.593750 0
  0.890625   0.593750 0
  0.875000   0.593750 0
  0.828125   0.875000 0
  0.890625   0.625000 0
  0.656250   0.781250 0
  0.718750   0.531250 0
  0.890625   0.609375 0
  0.656250   0.765625 0
  0.718750   0.515625 0
  0.875000   0.609375 0
  0.640625   0.765625 0
  0.703125   0.515625 0
  0.812500   0.921875 0
  0.875000   0.671875 0
  0.812500   0.875000 0
  0.875000   0.625000 0
  0.640625   0.781250 0
  0.703125   0.531250 0
  0.812500   0.515625 0
  0.750000   0.828125 0
  0.812500   0.578125 0
  0.687500   1.000000 0
  0.937500   0.656250 0
  0.875000   0.906250 0
  0.531250   0.656250 0
  0.890625   0.906250 0
  0.906250   0.906250 0
  0.562500   0.656250 0
  0.906250   0.890625 0
  0.562500   0.640625 0
  0.968750   0.625000 0
  0.906250   0.875000 0
  0.562500   0.625000 0
  0.937500   0.640625 0
  0.875000   0.890625 0
  0.890625   0.890625 0
  0.546875   0.640625 0
  0.953125   0.625000 0
  0.890625   0.875000 0
  0.546875   0.625000 0
  0.546875   0.687500 0
  0.890625   0.937500 0
  0.937500   0.625000 0
  0.875000   0.875000 0
  0.531250   0.625000 0
  0.531250   0.640625 0
  0.546875   0.656250 0
  0.937500   0.968750 0
  0.687500   0.968750 0
  0.953125   0.968750 0
  0.703125   0.968750 0
  0.968750   0.968750 0
  0.718750   0.968750 0
  0.718750   0.906250 0
  0.968750   0.953125 0
  0.718750   0.953125 0
  0.968750   0.937500 0
  0.859375   0.906250 0
  0.921875   0.656250 0
  0.718750   0.937500 0
  0.828125   0.531250 0
  0.937500   0.953125 0
  0.687500   0.953125 0
  0.953125   0.953125 0
  0.703125   0.953125 0
  0.703125   0.890625 0
  0.843750   0.515625 0
  0.953125   0.937500 0
  0.953125   1.000000 0
  0.703125   0.937500 0
  0.937500   0.937500 0
  0.687500   0.937500 0
  0.703125   0.906250 0
  0.718750   0.890625 0
  0.687500   0.890625 0
  0.687500   0.765625 0
  0.750000   0.515625 0
  0.687500   0.781250 0
  0.750000   0.531250 0
  0.859375   0.937500 0
  0.921875   0.687500 0
  0.687500   0.796875 0
  0.750000   0.546875 0
  0.578125   0.750000 0
  0.515625   1.000000 0
  0.843750   0.765625 0
  0.578125   0.734375 0
  0.515625   0.984375 0
  0.562500   0.734375 0
  0.828125   0.750000 0
  0.765625   1.000000 0
  0.562500   0.750000 0
  0.562500   0.718750 0
  0.578125   0.515625 0
  0.921875   0.703125 0
  0.921875   0.718750 0
  0.593750   0.515625 0
  0.687500   0.875000 0
  0.750000   0.625000 0
  0.578125   0.531250 0
  0.921875   0.750000 0
  0.703125   0.875000 0
  0.765625   0.625000 0
  0.593750   0.531250 0
  0.875000   0.968750 0
  0.937500   0.718750 0
  0.703125   0.828125 0
  0.765625   0.578125 0
  0.937500   0.734375 0
  0.703125   0.812500 0
  0.765625   0.562500 0
  0.890625   0.687500 0
  0.828125   0.937500 0
  0.656250   0.796875 0
  0.718750   0.546875 0
  0.890625   0.718750 0
  0.828125   0.968750 0
  0.906250   0.796875 0
  0.718750   0.828125 0
  0.781250   0.578125 0
  0.890625   0.703125 0
  0.828125   0.953125 0
  0.656250   0.859375 0
  0.906250   0.781250 0
  0.968750   0.531250 0
  0.546875   0.796875 0
  0.671875   0.796875 0
  0.734375   0.546875 0
  0.843750   0.953125 0
  0.906250   0.703125 0
  0.671875   0.875000 0
  0.718750   0.812500 0
  0.781250   0.562500 0
  0.875000   0.812500 0
  0.531250   0.890625 0
  0.593750   0.640625 0
  0.937500   0.890625 0
  0.875000   0.781250 0
  0.609375   0.703125 0
  0.546875   0.953125 0
  0.890625   0.796875 0
  0.625000   0.718750 0
  0.562500   0.968750 0
  0.906250   0.812500 0
  0.734375   0.859375 0
  0.796875   0.609375 0
  0.718750   0.875000 0
  0.781250   0.625000 0
  0.750000   0.859375 0
  0.812500   0.609375 0
  0.812500   0.546875 0
  0.750000   0.812500 0
  0.734375   0.843750 0
  0.796875   0.593750 0
  0.750000   0.843750 0
  0.812500   0.593750 0
[...]
CELL_DATA 4096
VECTORS vector_value float
-0.0956462 -1.52381 0
-0.0655248 -1.42604 0
-0.0992381 -1.49205 0
-0.172609 -1.50209 0
-0.107002 -2.24072 0
-0.0885366 -1.92895 0
-0.00278197 -1.92833 0
-0.0363032 -2.13966 0
-0.0422278 -2.00154 0
-0.11595 -1.96294 0
-0.106883 -2.16005 0
-0.0537152 -2.155 0
-0.0198495 -1.35089 0
-0.0405612 -1.55549 0
-0.0130897 -1.62695 0
0.00932083 -1.35164 0
-0.552189 -1.63156 0
-0.371448 -1.73024 0
-0.491777 -1.59132 0
-0.607445 -1.47029 0
-0.073478 -2.11541 0
-0.258327 -1.9236 0
-0.447871 -1.89033 0
-0.203678 -1.92897 0
0.0822914 -1.61979 0
-0.0765044 -1.81188 0
0.0862508 -1.96834 0
0.209412 -1.76636 0
-0.240599 -1.51552 0
-0.223087 -1.63364 0
-0.090982 -1.5755 0
-0.0837166 -1.38454 0
-0.336651 -1.51971 0
-0.227699 -1.68062 0
-0.0593377 -1.43789 0
-0.156801 -1.23951 0
-0.0249688 -1.71204 0
-0.0760518 -1.6858 0
0.0484532 -1.73416 0
0.0162155 -1.68567 0
0.14284 -1.17755 0
0.0716509 -1.18394 0
0.0808267 -0.947536 0
0.100297 -0.975318 0
-0.318162 -1.25812 0
-0.351638 -1.1975 0
-0.617649 -1.30827 0
-0.558627 -1.23907 0
-0.270187 -1.26771 0
-0.3771 -1.2898 0
-0.354905 -1.02283 0
-0.234942 -0.957951 0
-0.106423 -1.02156 0
-0.258913 -1.02815 0
-0.273832 -1.00154 0
-0.169707 -1.05758 0
0.0470412 -1.81078 0
0.137114 -1.77055 0
0.128713 -1.70721 0
-0.000157385 -1.60075 0
-0.658675 -0.990926 0
-0.757977 -0.971282 0
-0.774594 -0.927896 0
-0.629486 -0.886562 0
-0.0102768 -1.05119 0
-0.0178783 -1.12887 0
0.044793 -1.004 0
0.0375782 -0.962075 0
-0.841104 -1.01304 0
-0.887618 -1.19876 0
-0.80632 -1.22987 0
-0.84352 -1.02387 0
-0.439525 -1.03981 0
-0.422146 -1.05102 0
-0.433368 -1.17629 0
-0.408091 -1.13252 0
-0.851405 -1.18518 0
-0.806682 -1.17315 0
-0.673981 -1.1094 0
-0.686983 -1.18279 0
-0.153276 -1.3793 0
-0.0578502 -1.35866 0
-0.0492483 -1.44946 0
-0.132408 -1.45366 0
0.259241 -1.34005 0
0.310674 -1.42886 0
0.2554 -1.48283 0
0.271228 -1.60989 0
-0.477424 -1.08056 0
-0.404526 -0.937895 0
-0.437147 -0.980333 0
-0.436696 -0.960253 0
-1.14735 -1.3148 0
-1.01385 -1.23106 0
-1.11237 -1.30818 0
-1.04213 -1.21147 0
0.157646 -1.44011 0
0.210118 -1.34371 0
0.0654244 -1.33771 0
0.0483747 -1.37892 0
0.0645138 -1.56709 0
0.0369583 -1.30281 0
0.164116 -1.31845 0
0.185767 -1.59439 0
-0.552127 -1.22095 0
-0.418486 -1.01213 0
-0.546647 -1.19108 0
-0.635238 -1.20178 0
-0.796002 -0.92848 0
-0.936018 -1.05483 0
-1.08019 -1.08651 0
-1.0439 -1.09613 0
0.0786365 -1.66247 0
0.110632 -1.7652 0
0.123559 -1.8797 0
0.155901 -1.8834 0
0.021383 -1.47219 0
0.0106585 -1.46379 0
0.0722294 -1.39919 0
0.0248921 -1.35982 0
-0.436082 -1.10458 0
-0.356699 -1.02167 0
-0.418321 -1.06662 0
-0.399882 -0.962377 0
0.00693534 -1.85039 0
-0.0441715 -1.95254 0
0.000975734 -1.88427 0
0.0160315 -1.9596 0
-0.00865894 -0.897354 0
-0.0177464 -1.26947 0
-0.155591 -1.24416 0
-0.141025 -0.926824 0
0.159899 -1.27533 0
0.246397 -1.21126 0
0.227653 -1.20956 0
0.136514 -1.08911 0
-0.77235 -1.4147 0
-0.962346 -1.42049 0
-0.972607 -1.35884 0
-0.690001 -1.25404 0
-0.150885 -0.934164 0
-0.165793 -0.903712 0
-0.175996 -0.930864 0
-0.172723 -0.946499 0
-0.302057 -1.88995 0
-0.161465 -1.93486 0
-0.114964 -1.76915 0
-0.253713 -1.75394 0
-0.164692 -0.954399 0
-0.174414 -0.885309 0
-0.225183 -0.914708 0
-0.23145 -0.962531 0
-0.256897 -1.01394 0
-0.275745 -0.884122 0
-0.206 -0.947061 0
-0.212554 -0.98315 0
0.211502 -0.71301 0
0.300526 -1.02608 0
0.241301 -0.940532 0
0.182885 -0.641643 0
-0.451418 -1.0092 0
-0.506159 -1.04542 0
-0.456252 -1.04525 0
-0.44374 -1.00879 0
0.452054 -1.20903 0
0.347037 -1.09753 0
0.246804 -0.830336 0
0.313435 -0.970173 0
-0.454624 -1.1137 0
-0.512395 -1.07413 0
-0.506767 -1.13192 0
-0.457467 -1.20431 0
-0.13583 -0.746935 0
-0.144886 -0.883415 0
-0.152607 -0.883541 0
-0.1354 -0.766202 0
-0.283933 -0.976417 0
-0.287899 -0.884161 0
-0.305369 -0.881614 0
-0.291906 -0.997429 0
0.452446 -1.64927 0
0.424446 -1.34595 0
0.466264 -1.35494 0
0.400258 -1.60815 0
-0.341103 -1.40362 0
-0.303997 -1.36938 0
-0.391562 -1.26963 0
-0.393118 -1.32353 0
-0.21146 -0.85345 0
-0.177606 -0.862404 0
-0.161224 -0.75311 0
-0.178349 -0.682261 0
-0.198629 -0.847988 0
-0.296898 -0.909454 0
-0.232848 -0.890666 0
-0.169574 -0.838052 0
0.310303 -1.21985 0
0.366326 -1.27438 0
0.41193 -1.62147 0
0.382423 -1.59583 0
-0.379134 -1.18613 0
-0.442216 -1.01551 0
-0.0848579 -1.44618 0
0.14642 -1.30359 0
-0.346982 -0.97652 0
-0.982465 -1.31506 0
-0.167694 -1.56309 0
-0.356792 -1.45777 0
-0.398978 -1.91431 0
-0.271133 -1.72191 0
-0.478115 -1.87083 0
-0.100896 -1.64529 0
-0.818801 -1.5473 0
-0.299445 -1.31068 0
-0.689062 -1.60182 0
-0.365777 -2.1206 0
-0.652488 -1.50236 0
-0.261575 -2.02897 0
-0.68097 -1.43829 0
-0.35641 -2.04688 0
-0.675139 -1.27299 0
-0.417261 -2.07453 0
-0.704634 -1.28448 0
-0.369405 -1.51213 0
-0.305123 -1.83113 0
-0.406785 -1.53173 0
-0.481831 -1.50876 0
-0.540528 -1.52555 0
-0.384149 -1.97899 0
-0.477682 -1.16619 0
-0.496286 -1.7909 0
-0.504261 -1.7891 0
-0.503728 -1.65162 0
-0.239798 -1.49326 0
-0.539458 -1.56786 0
-0.253648 -1.37152 0
-0.475695 -1.71634 0
-0.261527 -1.37989 0
-0.0285188 -1.91398 0
-0.285708 -1.19846 0
-0.076096 -1.75875 0
-0.439649 -1.03699 0
-0.145374 -1.13584 0
-0.531269 -1.071 0
-0.167726 -1.12951 0
-0.458523 -1.12332 0
-0.112728 -0.50666 0
-0.408303 -0.972769 0
-0.00763274 -0.305263 0
-0.48529 -0.965208 0
-0.490584 -0.864062 0
0.117963 -1.25926 0
-0.379161 -1.02467 0
-0.409291 -0.673811 0
0.217953 -1.20846 0
-0.325593 -0.556501 0
0.0630413 -1.15155 0
-0.533745 -0.927439 0
-0.426211 -0.79602 0
-0.0369511 -1.11578 0
-0.067676 -1.05649 0
-0.464752 -0.869251 0
-0.0942134 -0.998519 0
-0.517823 -1.07383 0
-0.135053 -1.11655 0
-0.444033 -1.0388 0
-0.293801 -1.185 0
-0.345403 -1.0693 0
-0.263009 -1.09897 0
-0.439215 -1.06853 0
-0.525631 -1.07874 0
-0.0631908 -1.03765 0
-0.48496 -0.926244 0
-0.70134 -1.34715 0
-0.10531 -1.55964 0
-0.628369 -1.34184 0
-0.231389 -1.53819 0
-0.75409 -1.20343 0
-0.122434 -1.72909 0
-0.738123 -1.12332 0
-0.201661 -1.09775 0
-0.743897 -1.03748 0
-0.0528419 -1.00097 0
-0.554121 -1.48456 0
-0.193129 -1.43415 0
-0.810965 -1.22371 0
-0.151478 -1.42314 0
-0.657689 -1.11184 0
-0.327924 -1.60199 0
0.0724893 -1.35777 0
-0.29151 -1.02499 0
-1.00346 -1.32422 0
0.0193102 -1.96383 0
-0.232329 -1.17566 0
-0.109539 -2.0801 0
-0.240822 -1.15001 0
-0.0246328 -1.8428 0
-0.20918 -1.07916 0
-0.626247 -2.2171 0
-0.640331 -1.02657 0
-0.229878 -0.967942 0
-0.446151 -2.16807 0
-0.259388 -1.07031 0
-0.0479401 -1.8435 0
-0.224308 -1.07384 0
-0.464676 -2.18538 0
-0.176032 -0.983399 0
-0.601308 -1.03768 0
0.0884621 -2.26993 0
-0.544761 -2.02345 0
-0.225389 -0.964317 0
-0.62247 -1.49362 0
-0.164371 -1.37207 0
-0.116715 -0.980874 0
-0.257658 -0.778058 0
-0.27507 -1.0308 0
-0.159625 -0.661623 0
-0.185251 -2.05139 0
-0.700035 -1.84751 0
-0.259631 -2.09254 0
-0.597106 -1.79958 0
-0.134133 -2.13455 0
-0.661551 -2.19668 0
-0.183791 -1.5462 0
-0.672075 -1.50164 0
-0.712457 -1.25608 0
-0.0791712 -1.74047 0
-0.288587 -1.61098 0
-0.744346 -1.51356 0
-0.575628 -1.10755 0
-0.10447 -1.79246 0
-0.111257 -1.01372 0
-0.337924 -0.909034 0
-0.333916 -1.05051 0
-0.127558 -0.620102 0
-0.0232448 -1.45945 0
-0.727164 -1.20618 0
0.0189154 -1.83395 0
-0.0211802 -1.52202 0
0.00539127 -1.45543 0
-0.102835 -1.00335 0
-0.456541 -0.990155 0
-0.586893 -1.35536 0
-0.184297 -1.60057 0
-0.00651948 -1.48767 0
-0.369605 -1.17372 0
-0.488068 -1.15639 0
-0.264959 -1.42999 0
-0.361364 -1.45878 0
-0.466745 -1.5092 0
-0.189782 -1.31316 0
-0.412031 -1.12366 0
0.0343282 -1.67443 0
-0.0288145 -0.227593 0
-0.328792 -1.03568 0
-0.0111402 -0.21495 0
-0.556397 -1.19335 0
-0.00902782 -0.22268 0
-0.512881 -1.05896 0
-0.228849 -0.433363 0
0.121468 -1.1715 0
-0.28976 -0.535214 0
0.270977 -1.20796 0
-0.0114811 -0.229083 0
-0.316907 -1.17222 0
-0.199022 -0.462742 0
0.250411 -1.22583 0
0.0109986 -0.382662 0
0.00853162 -0.377604 0
-0.00133959 -0.401156 0
-0.000676194 -0.36873 0
-0.454451 -0.965713 0
-0.136003 -1.18557 0
-0.580118 -1.05639 0
-0.134683 -1.22931 0
-0.532652 -1.05131 0
-0.107615 -1.06828 0
-0.383131 -0.994145 0
-0.111457 -1.08313 0
-0.240793 -1.14186 0
-0.350919 -1.06988 0
-0.387272 -1.13225 0
-0.143494 -1.03398 0
-0.329575 -1.0479 0
-0.544049 -1.06874 0
-0.160205 -1.22043 0
-0.452225 -1.01467 0
-0.149198 -1.22486 0
-0.737596 -1.2105 0
-0.0140691 -1.32758 0
-0.0883495 -1.01637 0
-0.390698 -0.842178 0
-0.302547 -1.01447 0
-0.10771 -0.572009 0
-0.774838 -1.11649 0
0.00723637 -0.973472 0
-0.642649 -1.22604 0
-0.401614 -1.62887 0
-0.357969 -1.07241 0
-0.0987644 -0.513956 0
-0.766504 -1.03037 0
0.0101186 -0.981328 0
-0.555916 -1.214 0
-0.404735 -1.23687 0
-0.586431 -1.11498 0
-0.360001 -1.21576 0
-0.700583 -1.23039 0
0.00909359 -1.33285 0
-0.6641 -1.14529 0
-0.392783 -1.63634 0
-0.462497 -0.992759 0
-0.165661 -1.32395 0
-0.510501 -0.978327 0
-0.160188 -1.30817 0
-0.493954 -0.9885 0
-0.203158 -1.41926 0
-0.457358 -0.956782 0
-0.205285 -1.48365 0
-0.561395 -0.993779 0
-0.164783 -1.34724 0
-0.57045 -1.00822 0
-0.159607 -1.31021 0
-0.555151 -1.04014 0
-0.148201 -1.25424 0
-0.105693 -1.51663 0
-0.285274 -1.00594 0
-0.604809 -1.08834 0
-0.671285 -1.0944 0
-0.0459981 -2.10746 0
-0.341117 -1.36185 0
-0.728745 -1.06779 0
-0.0291986 -2.08538 0
-0.424034 -1.35091 0
-0.0235936 -0.307805 0
-0.655052 -1.03869 0
-0.0608372 -1.90297 0
-0.451501 -1.23069 0
-0.692292 -1.11377 0
-0.647324 -1.09685 0
-0.475283 -1.21875 0
0.214432 -1.37582 0
-0.262855 -0.921296 0
-1.04283 -1.32235 0
0.00443249 -0.351996 0
-0.61763 -1.10008 0
-0.554588 -0.97472 0
0.0729632 -1.35227 0
-0.349429 -0.98364 0
-0.844609 -1.1236 0
-0.557617 -0.906651 0
-0.60699 -1.03967 0
-0.503123 -1.24657 0
-0.437461 -1.22184 0
-0.416655 -1.32142 0
-0.571654 -1.47453 0
-0.484918 -1.19207 0
-0.560638 -1.32918 0
-0.471076 -1.2263 0
-0.684525 -1.31735 0
-0.425336 -1.60733 0
-0.670199 -1.4038 0
-0.404167 -1.47642 0
-0.466953 -1.10731 0
-0.63436 -1.19649 0
-0.736228 -1.38371 0
-0.58674 -0.899103 0
0.379286 -1.27538 0
-0.781878 -1.19243 0
-0.62744 -0.947685 0
0.316654 -1.53191 0
-0.294025 -0.714053 0
-0.0616093 -0.890546 0
-0.416077 -0.934364 0
-0.00762599 -1.01919 0
-0.512909 -1.12605 0
-0.495512 -1.04029 0
-0.54288 -0.970137 0
-0.125775 -1.42524 0
-0.056139 -0.609255 0
-0.178424 -0.880559 0
-0.302168 -0.886306 0
-0.202608 -0.730743 0
-0.239517 -1.29707 0
-0.447221 -1.56708 0
-0.333095 -0.833673 0
0.0512486 -0.909639 0
-0.2009 -0.849465 0
-0.143955 -0.671855 0
-0.0262834 -0.409019 0
-0.0700833 -0.459391 0
-0.368727 -0.999681 0
-0.0586927 -1.75586 0
-0.277808 -1.03818 0
-0.855023 -1.17641 0
0.403117 -1.91261 0
-0.417377 -1.05409 0
-0.134029 -1.16514 0
-0.601859 -1.09698 0
-0.759679 -1.15227 0
0.443839 -1.95306 0
-0.621328 -1.06145 0
0.3223 -1.8459 0
-0.767861 -1.31299 0
-0.548505 -1.86684 0
-0.179079 -0.62806 0
-0.0359681 -0.799537 0
-0.0504187 -0.438068 0
-0.413728 -0.880201 0
-0.659911 -1.06155 0
-0.947669 -1.16143 0
0.445214 -2.35988 0
-0.39848 -0.850076 0
-0.0810772 -1.14211 0
0.0056088 -0.406922 0
-0.621631 -1.06135 0
0.190408 -2.07837 0
-0.634969 -1.08394 0
0.42121 -1.92422 0
-0.106251 -0.5473 0
-0.185355 -0.854261 0
-0.138125 -1.60179 0
-0.566434 -1.16482 0
-0.0561606 -0.481377 0
-0.529422 -1.20478 0
-0.361158 -0.967963 0
0.068266 -1.17071 0
-0.094626 -0.550539 0
-0.211387 -1.13196 0
-0.102463 -1.799 0
-0.00536634 -0.36178 0
-0.648078 -2.16118 0
-0.0807571 -1.95055 0
-0.598826 -1.16101 0
-0.163542 -0.761927 0
-0.0327091 -0.416952 0
-0.0197814 -0.449217 0
-0.666585 -1.09069 0
0.171359 -2.2233 0
-0.303599 -1.23566 0
-0.413267 -1.67773 0
-0.0308446 -0.477996 0
-0.609256 -1.33199 0
-0.0567515 -0.730857 0
-0.616559 -1.10447 0
-0.0175293 -2.07415 0
-0.25673 -1.19052 0
-0.279366 -2.18976 0
-0.0179812 -0.444227 0
-0.0531837 -0.500059 0
0.00523139 -0.362798 0
-0.547748 -1.11063 0
-0.351782 -0.89546 0
-0.790774 -1.0487 0
0.452771 -2.46491 0
-0.279301 -1.3327 0
-0.537654 -1.46917 0
-0.0579652 -0.447707 0
-0.310272 -0.868432 0
-0.0683057 -1.40342 0
-0.657933 -1.58785 0
-0.641433 -2.14959 0
-0.430504 -1.03689 0
-0.00340625 -1.20746 0
-0.277709 -0.729355 0
0.030579 -0.872214 0
-0.308074 -1.33824 0
-0.180241 -2.15124 0
-0.684794 -2.06508 0
-0.194019 -1.19708 0
-0.32392 -1.03542 0
0.0469305 -1.65124 0
-0.81396 -1.65827 0
-0.392951 -0.989522 0
-0.0429042 -1.30001 0
-0.665098 -1.5537 0
-0.432474 -1.30996 0
-0.661648 -1.02991 0
0.12171 -2.23454 0
-0.137799 -0.662232 0
-0.0129979 -0.43752 0
-0.167194 -0.606291 0
-0.105113 -0.878652 0
-0.070795 -0.448878 0
-0.395054 -1.02101 0
-0.0101832 -0.350767 0
-0.803276 -1.47252 0
-0.4822 -1.0507 0
-0.0570085 -1.13334 0
-0.499309 -0.781557 0
0.328283 -1.26421 0
-0.592447 -0.921387 0
0.236144 -1.39381 0
-0.411531 -0.941783 0
-0.0678283 -1.19514 0
-0.0503549 -0.41774 0
-0.456711 -0.95393 0
-0.37596 -1.0322 0
-0.093322 -0.53105 0
-0.107207 -0.796845 0
-0.226124 -1.24023 0
-0.359245 -1.60467 0
-0.41158 -1.04873 0
-0.499216 -1.11865 0
-0.417293 -0.985291 0
-0.0988399 -1.16654 0
-0.808696 -1.4878 0
-0.476475 -1.02482 0
-0.0144694 -1.17098 0
-0.00942151 -0.377819 0
-0.399542 -1.16073 0
-0.518579 -1.09805 0
0.00581757 -0.378617 0
-0.352463 -1.01695 0
-0.00951466 -1.09412 0
-0.65988 -1.96754 0
-0.631883 -1.3106 0
-0.213658 -1.06715 0
-0.253384 -2.11112 0
0.0036799 -0.437448 0
-0.474148 -1.11036 0
-0.0208475 -1.24772 0
-0.728469 -1.714 0
-0.0745996 -0.570056 0
-0.571678 -1.11304 0
-1.053 -1.13231 0
0.225871 -2.5377 0
-0.0160317 -0.424057 0
-0.406739 -1.2192 0
-0.00814909 -0.424117 0
-0.541247 -1.11791 0
-0.831701 -1.11858 0
0.318209 -2.34183 0
-0.258072 -1.23363 0
-0.585913 -1.79326 0
-0.170341 -0.632434 0
-0.0307961 -0.451335 0
-0.0311549 -0.407267 0
-0.442131 -1.05466 0
-0.150375 -1.31605 0
-0.276925 -0.862441 0
-1.07343 -1.16762 0
0.43591 -2.58977 0
0.158035 -1.70816 0
-0.140136 -1.15585 0
-0.888202 -1.08253 0
0.146385 -2.27291 0
-0.00122867 -1.51664 0
-0.128258 -1.33127 0
-0.3738 -0.922718 0
0.133443 -1.58793 0
-0.058908 -2.44179 0
-0.573671 -1.98948 0
-0.0838561 -2.5943 0
-0.640383 -2.14164 0
-0.197796 -2.51774 0
-0.577836 -2.05161 0
-0.120121 -2.41435 0
-0.490915 -1.89802 0
-0.13759 -2.28043 0
-0.530723 -1.99676 0
-0.148816 -0.387289 0
0.103397 -1.31388 0
-0.139361 -2.30806 0
-0.464594 -1.91282 0
-0.242665 -2.42898 0
-0.495217 -1.92074 0
-0.109412 -0.599197 0
0.00107895 -0.419414 0
-0.196884 -1.03649 0
-0.322267 -2.08104 0
-0.269085 -2.25068 0
-0.483443 -1.86317 0
-0.536329 -0.86763 0
-0.408276 -1.97507 0
-0.62825 -1.29297 0
-0.406727 -2.25234 0
-0.559527 -1.5928 0
-0.343787 -2.31692 0
-0.636921 -1.77234 0
-0.312061 -1.92565 0
-0.73843 -1.33341 0
-0.291119 -0.846162 0
-0.249101 -1.14652 0
-0.275298 -1.7121 0
0.0140805 -1.71332 0
-0.678621 -1.48699 0
-0.246925 -1.24484 0
-0.0526143 -1.87425 0
-0.0809248 -1.72487 0
-0.700847 -1.42258 0
-0.192756 -2.35847 0
-0.652691 -1.84623 0
-0.233428 -0.846853 0
-0.0527127 -0.306631 0
-0.0336849 -0.485086 0
-0.226086 -1.20539 0
-0.158262 -2.02368 0
-0.0413472 -2.15803 0
-0.668576 -1.82955 0
-0.00392065 -0.401697 0
-0.301913 -1.22985 0
-0.0375863 -0.403876 0
-0.484394 -1.04802 0
0.00467576 -0.38587 0
-0.182143 -1.36012 0
0.000971812 -0.399009 0
-0.257582 -1.33982 0
0.00179762 -0.383305 0
-0.31889 -1.25944 0
0.00467696 -0.398065 0
-0.247286 -1.28337 0
0.02476 -2.00146 0
-0.916405 -1.21608 0
-0.635507 -0.9135 0
-0.0545567 -2.01316 0
-0.415909 -1.56851 0
-0.690579 -1.00887 0
-0.0467675 -2.07231 0
-0.456337 -1.66039 0
-0.592286 -0.941314 0
-0.235583 -0.748686 0
-0.281306 -1.2621 0
-0.066537 -1.93795 0
-0.402133 -0.981897 0
0.0481228 -1.22606 0
-0.368084 -1.45988 0
-0.0820621 -2.17481 0
-0.363548 -0.955777 0
-0.269659 -1.32746 0
-0.296595 -1.84949 0
-0.398218 -0.854626 0
-0.0314483 -0.90932 0
-0.0890364 -0.503797 0
-0.254151 -0.870127 0
-0.00910117 -0.384893 0
-0.381784 -1.22602 0
-0.0037765 -0.404492 0
-0.00902953 -0.371315 0
-0.343465 -1.20855 0
0.032272 -2.06325 0
-0.970982 -1.08712 0
-0.0304015 -0.286265 0
-0.466978 -0.972631 0
-0.0508658 -1.72399 0
-0.874227 -1.08129 0
-0.0174308 -0.400401 0
-0.44623 -1.14344 0
-0.0195301 -1.75892 0
-0.816344 -1.16139 0
-0.0111605 -0.328518 0
-0.505216 -1.13524 0
-0.0378465 -0.306096 0
-0.510543 -0.987177 0
-0.0206574 -2.0317 0
-0.65026 -1.79751 0
-0.0110537 -1.76646 0
-0.756791 -1.51389 0
-0.0663142 -1.70069 0
-0.678815 -1.54334 0
-0.0241829 -2.12958 0
-0.545286 -1.51754 0
-0.400468 -0.673331 0
0.382955 -1.13381 0
-0.477638 -0.763732 0
0.402549 -1.21846 0
-0.383461 -0.674423 0
0.339406 -1.25342 0
-0.252457 -0.535128 0
0.299748 -1.11549 0
-0.0631156 -0.477878 0
-0.0771317 -0.307274 0
-0.0209517 -1.32097 0
-0.156996 -0.352237 0
-0.0671252 -1.17563 0
-0.0437058 -0.507726 0
-0.0734107 -0.281779 0
-0.226771 -1.11985 0
-0.0234632 -0.241317 0
-0.14224 -1.19132 0
-0.386231 -1.35156 0
-0.349703 -1.47911 0
-0.289948 -1.53745 0
-0.301962 -1.32109 0
0.141977 -0.541699 0
0.136042 -0.603926 0
0.0827071 -0.469673 0
0.0817501 -0.434542 0
-0.0124003 -1.41423 0
-0.00992244 -1.40687 0
-0.0360792 -1.53365 0
-0.00735763 -1.4836 0
-0.028706 -2.0751 0
-0.52814 -1.80959 0
-0.0806926 -2.0898 0
-0.452704 -1.30267 0
-0.0858108 -1.9342 0
-0.470463 -1.37905 0
-0.0276654 -2.05958 0
-0.533509 -1.84565 0
-0.326546 -1.77267 0
-0.499345 -1.18849 0
-0.378197 -1.49961 0
-0.442195 -1.37497 0
-0.587495 -1.53344 0
-0.30837 -1.38509 0
-0.521878 -1.56196 0
-0.405108 -1.29942 0
-0.188591 -1.49552 0
-0.162597 -1.38805 0
-0.151811 -1.45045 0
-0.13818 -1.4393 0
-0.00531964 -0.223192 0
0.0070842 -0.239806 0
0.00782796 -0.235871 0
-0.00265419 -0.246468 0
-0.1153 -0.534621 0
-0.615711 -1.2052 0
-0.0729165 -0.442638 0
-0.626191 -1.33739 0
-0.0928828 -0.452071 0
-0.538146 -1.2824 0
-0.120128 -0.579511 0
-0.45037 -1.11386 0
-0.0465675 -0.826929 0
-0.0578903 -0.920739 0
-0.160338 -1.18548 0
-0.176309 -1.04016 0
-0.253184 -0.664817 0
-0.140471 -0.772409 0
-0.282804 -0.915253 0
-0.417709 -0.792271 0
-0.350774 -1.82274 0
-0.361503 -1.43711 0
-0.116179 -2.04338 0
-0.433844 -1.40425 0
-0.227158 -1.5734 0
-0.521788 -1.46425 0
-0.435807 -1.55972 0
-0.370105 -1.34574 0
-0.0451044 -1.27637 0
-0.082878 -1.28508 0
-0.157035 -1.21678 0
-0.0983538 -1.21713 0
0.00452579 -0.39389 0
0.00964263 -0.29882 0
0.0226506 -0.29778 0
0.0171586 -0.410712 0
-0.0182849 -0.435761 0
0.287678 -2.31803 0
0.0485118 -0.578911 0
0.0247333 -0.613533 0
-0.0272249 -0.506729 0
0.0282385 -0.312443 0
0.0489076 -0.348071 0
0.0447686 -0.386251 0
0.0156592 -0.331312 0
-0.480661 -0.984804 0
-0.0296684 -0.317247 0
-0.556993 -1.02314 0
-0.0661248 -0.330062 0
-0.603944 -1.2295 0
-0.0841358 -0.424519 0
-0.536433 -1.1303 0
-0.0440762 -0.400577 0
-0.563643 -0.980779 0
-0.108082 -0.674073 0
-0.415914 -0.951053 0
-0.222654 -0.791818 0
-0.464611 -1.07631 0
-0.354977 -1.04157 0
-0.556869 -1.02847 0
-0.238611 -0.901404 0
-0.891824 -0.970286 0
-0.00482875 -0.518804 0
-0.805283 -0.960125 0
-0.0117446 -0.537876 0
-0.829741 -0.984946 0
-0.00832123 -0.712646 0
-0.81424 -0.987444 0
0.000100525 -0.746636 0
-0.0159752 -1.3566 0
0.0102169 -1.60177 0
0.069482 -1.6353 0
0.0298221 -1.36618 0
-0.193222 -1.51152 0
-0.4956 -0.987058 0
-0.0749587 -1.70163 0
-0.564302 -1.14266 0
-0.0548283 -1.89902 0
-0.484382 -1.10202 0
-0.182301 -1.61601 0
-0.46193 -0.926127 0
-0.0692591 -0.396735 0
-0.501623 -1.00709 0
-0.0878082 -0.422668 0
-0.443154 -1.09441 0
-0.100318 -0.421681 0
-0.504676 -1.164 0
-0.0846342 -0.357419 0
-0.560815 -1.05104 0
-0.00403806 -2.03607 0
-0.64502 -2.00195 0
-0.0259656 -1.98488 0
-0.610619 -1.96308 0
-0.0136299 -1.94981 0
-0.536208 -1.44004 0
0.0329735 -1.99662 0
-0.593596 -1.48939 0
-0.0140578 -1.39409 0
-0.0723875 -1.48414 0
-0.132751 -1.36385 0
-0.0681947 -1.26727 0
-0.000249499 -0.257215 0
-0.00394539 -0.257841 0
0.00746083 -0.249982 0
0.00479487 -0.267899 0
-0.747702 -0.954677 0
-0.635822 -0.93045 0
-0.481757 -1.07016 0
-0.727897 -1.22141 0
-0.252895 -0.832931 0
-0.162613 -1.05041 0
-0.207932 -0.762733 0
-0.232512 -0.969599 0
-0.131455 -0.593399 0
-0.229156 -1.04531 0
-0.174616 -0.677227 0
-0.171093 -1.0043 0
-0.114327 -0.619458 0
-0.329049 -1.04002 0
-0.12894 -0.616039 0
-0.388163 -1.09681 0
-0.108727 -0.469093 0
-0.435025 -1.1874 0
-0.104552 -0.486998 0
-0.373456 -1.12872 0
-0.085607 -1.22579 0
-0.24804 -1.36425 0
-0.186502 -1.21536 0
-0.0732376 -1.05943 0