# vtk DataFile Version 2.0
Unstructured Grid by M++
ASCII
DATASET UNSTRUCTURED_GRID
POINTS 1089 float
  0.718750   0.687500 0
  0.750000   0.687500 0
  0.718750   0.656250 0
  0.750000   0.718750 0
  0.625000   0.562500 0
  0.625000   0.593750 0
  0.656250   0.593750 0
  0.750000   0.750000 0
  0.687500   0.656250 0
  0.687500   0.625000 0
  0.656250   0.625000 0
  0.906250   0.593750 0
  1.000000   0.968750 0
  0.750000   0.968750 0
  0.718750   0.968750 0
  0.718750   1.000000 0
  0.750000   1.000000 0
  0.906250   0.906250 0
  0.843750   0.531250 0
  0.656250   0.937500 0
  0.656250   0.906250 0
  0.562500   0.812500 0
  0.562500   0.843750 0
  0.593750   0.875000 0
  0.593750   0.843750 0
  0.812500   0.718750 0
  0.625000   0.625000 0
  0.968750   0.875000 0
  0.531250   0.875000 0
  0.625000   0.937500 0
  0.562500   0.562500 0
  0.906250   0.812500 0
  0.531250   0.781250 0
  0.562500   0.593750 0
  0.906250   0.843750 0
  0.625000   0.656250 0
  0.968750   0.906250 0
  0.687500   0.968750 0
  0.812500   0.812500 0
  0.687500   1.000000 0
  0.687500   0.687500 0
  0.937500   0.843750 0
  0.593750   0.593750 0
  1.000000   0.625000 0
  0.968750   0.593750 0
  0.906250   0.875000 0
  0.968750   0.625000 0
  0.625000   0.875000 0
  0.875000   0.875000 0
  0.625000   0.906250 0
  0.875000   0.843750 0
  0.531250   0.812500 0
  0.968750   0.562500 0
  0.593750   0.625000 0
  0.937500   0.875000 0
  0.656250   0.687500 0
  1.000000   0.937500 0
  0.875000   0.562500 0
  0.687500   0.937500 0
  0.937500   0.625000 0
  0.812500   0.781250 0
  0.937500   0.562500 0
  0.875000   0.781250 0
  0.531250   0.531250 0
  0.718750   0.937500 0
  0.968750   0.937500 0
  0.906250   0.562500 0
  0.843750   0.781250 0
  0.593750   0.562500 0
  1.000000   0.906250 0
  0.656250   0.656250 0
  0.937500   0.906250 0
  0.875000   0.531250 0
  0.812500   0.750000 0
  0.656250   0.968750 0
  0.937500   0.531250 0
  0.843750   0.812500 0
  0.906250   0.531250 0
  0.843750   0.750000 0
  0.937500   0.593750 0
  0.875000   0.812500 0
  0.531250   0.562500 0
  1.000000   0.593750 0
  0.562500   0.906250 0
  0.562500   0.531250 0
  0.593750   0.906250 0
  0.593750   0.937500 0
  0.562500   0.875000 0
  0.781250   0.750000 0
  0.781250   0.781250 0
  0.593750   0.531250 0
  1.000000   0.687500 0
  0.531250   0.843750 0
  0.718750   0.718750 0
  0.781250   0.718750 0
  0.781250   0.687500 0
  1.000000   0.656250 0
  0.968750   0.656250 0
  0.843750   0.843750 0
  0.781250   1.000000 0
  0.656250   0.312500 0
  0.531250   0.250000 0
  0.875000   0.500000 0
  0.531250   0.218750 0
  0.875000   0.468750 0
  0.531250   0.156250 0
  0.593750   0.812500 0
  0.093750   0.562500 0
  0.656250   0.562500 0
  0.156250   0.312500 0
  0.031250   0.812500 0
  0.125000   1.000000 0
  0.312500   0.250000 0
  0.250000   0.500000 0
  0.375000   0.000000 0
  0.187500   0.750000 0
  0.812500   0.906250 0
  0.312500   0.656250 0
  0.250000   0.906250 0
  0.875000   0.656250 0
  0.375000   0.406250 0
  0.750000   0.843750 0
  0.250000   0.593750 0
  0.187500   0.843750 0
  0.812500   0.593750 0
  0.312500   0.343750 0
  0.625000   0.968750 0
  0.125000   0.718750 0
  0.687500   0.718750 0
  0.187500   0.468750 0
  0.062500   0.968750 0
  0.125000   0.656250 0
  0.187500   0.406250 0
  0.250000   0.156250 0
  0.062500   0.906250 0
  0.468750   0.906250 0
  0.656250   0.156250 0
  0.468750   0.812500 0
  0.593750   0.312500 0
  0.656250   0.062500 0
  0.625000   0.812500 0
  0.125000   0.562500 0
  0.687500   0.562500 0
  0.187500   0.312500 0
  0.062500   0.812500 0
  0.562500   0.937500 0
  0.062500   0.687500 0
  0.625000   0.687500 0
  0.125000   0.437500 0
  0.000000   0.937500 0
  0.062500   0.625000 0
  0.187500   0.125000 0
  0.125000   0.375000 0
  0.000000   0.875000 0
  0.406250   0.875000 0
  0.468750   0.625000 0
  0.593750   0.125000 0
  0.812500   0.937500 0
  0.312500   0.687500 0
  0.250000   0.937500 0
  0.875000   0.687500 0
  0.375000   0.437500 0
  0.750000   0.875000 0
  0.250000   0.625000 0
  0.187500   0.875000 0
  0.812500   0.625000 0
  0.312500   0.375000 0
  0.468750   0.781250 0
  0.593750   0.281250 0
  0.656250   0.031250 0
  0.625000   0.781250 0
  0.125000   0.531250 0
  0.062500   0.781250 0
  0.687500   0.531250 0
  0.187500   0.281250 0
  0.500000   0.812500 0
  0.687500   0.062500 0
  0.625000   0.312500 0
  0.656250   0.812500 0
  0.156250   0.562500 0
  0.718750   0.562500 0
  0.218750   0.312500 0
  0.093750   0.812500 0
  0.437500   0.968750 0
  0.625000   0.218750 0
  0.500000   0.781250 0
  0.687500   0.031250 0
  0.625000   0.281250 0
  0.656250   0.781250 0
  0.156250   0.531250 0
  0.718750   0.531250 0
  0.218750   0.281250 0
  0.093750   0.781250 0
  0.062500   0.562500 0
  0.125000   0.312500 0
  0.187500   0.062500 0
  0.000000   0.812500 0
  0.406250   0.812500 0
  0.968750   0.812500 0
  0.468750   0.562500 0
  0.593750   0.062500 0
  0.218750   0.687500 0
  0.156250   0.937500 0
  0.281250   0.437500 0
  0.062500   0.843750 0
  0.687500   0.593750 0
  0.187500   0.343750 0
  0.625000   0.843750 0
  0.125000   0.593750 0
  0.312500   0.843750 0
  0.437500   0.343750 0
  0.500000   0.093750 0
  0.375000   0.593750 0
  0.312500   0.906250 0
  0.937500   0.656250 0
  0.437500   0.406250 0
  0.875000   0.906250 0
  0.375000   0.656250 0
  0.062500   0.875000 0
  0.187500   0.375000 0
  0.250000   0.125000 0
  0.125000   0.625000 0
  0.093750   0.656250 0
  0.031250   0.906250 0
  0.218750   0.156250 0
  0.156250   0.406250 0
  0.593750   0.968750 0
  0.093750   0.718750 0
  0.031250   0.968750 0
  0.656250   0.718750 0
  0.156250   0.468750 0
  0.437500   0.906250 0
  0.625000   0.156250 0
  0.718750   0.812500 0
  0.218750   0.562500 0
  0.781250   0.562500 0
  0.281250   0.312500 0
  0.156250   0.812500 0
  0.062500   0.656250 0
  0.000000   0.906250 0
  0.187500   0.156250 0
  0.125000   0.406250 0
  0.562500   0.968750 0
  0.062500   0.718750 0
  0.000000   0.968750 0
  0.625000   0.718750 0
  0.125000   0.468750 0
  0.406250   0.968750 0
  0.968750   0.968750 0
  0.468750   0.718750 0
  0.531250   0.468750 0
  0.593750   0.218750 0
  0.406250   0.906250 0
  0.468750   0.656250 0
  0.593750   0.156250 0
  0.687500   0.781250 0
  0.187500   0.531250 0
  0.750000   0.531250 0
  0.250000   0.281250 0
  0.125000   0.781250 0
  0.781250   0.906250 0
  0.281250   0.656250 0
  0.218750   0.906250 0
  0.843750   0.656250 0
  0.343750   0.406250 0
  0.750000   0.906250 0
  0.250000   0.656250 0
  0.187500   0.906250 0
  0.812500   0.656250 0
  0.312500   0.406250 0
  0.875000   0.406250 0
  0.375000   0.156250 0
  0.812500   0.968750 0
  0.312500   0.718750 0
  0.250000   0.968750 0
  0.875000   0.718750 0
  0.375000   0.468750 0
  0.781250   0.937500 0
  0.281250   0.687500 0
  0.218750   0.937500 0
  0.843750   0.687500 0
  0.343750   0.437500 0
  0.718750   0.875000 0
  0.218750   0.625000 0
  0.156250   0.875000 0
  0.781250   0.625000 0
  0.281250   0.375000 0
  0.750000   0.937500 0
  0.250000   0.687500 0
  0.187500   0.937500 0
  0.875000   0.437500 0
  0.375000   0.187500 0
  0.812500   0.687500 0
  0.312500   0.437500 0
  0.687500   0.875000 0
  0.187500   0.625000 0
  0.750000   0.625000 0
  0.250000   0.375000 0
  0.125000   0.875000 0
  0.812500   1.000000 0
  0.312500   0.750000 0
  0.250000   1.000000 0
  0.875000   0.750000 0
  0.375000   0.500000 0
  0.562500   1.000000 0
  0.062500   0.750000 0
  0.000000   1.000000 0
  0.625000   0.750000 0
  0.125000   0.500000 0
  0.406250   1.000000 0
  0.968750   1.000000 0
  0.468750   0.750000 0
  0.656250   0.000000 0
  0.531250   0.500000 0
  0.593750   0.250000 0
  0.406250   0.937500 0
  0.468750   0.687500 0
  0.593750   0.187500 0
  0.687500   0.812500 0
  0.187500   0.562500 0
  0.750000   0.562500 0
  0.250000   0.312500 0
  0.125000   0.812500 0
  0.437500   0.843750 0
  0.625000   0.093750 0
  0.093750   0.593750 0
  0.156250   0.343750 0
  0.218750   0.093750 0
  0.031250   0.843750 0
  0.281250   0.937500 0
  0.843750   0.937500 0
  0.343750   0.687500 0
  0.906250   0.687500 0
  0.406250   0.437500 0
  0.156250   0.968750 0
  0.218750   0.718750 0
  0.281250   0.468750 0
  0.343750   0.218750 0
  0.156250   1.000000 0
  0.406250   0.000000 0
  0.281250   0.500000 0
  0.343750   0.250000 0
  0.218750   0.750000 0
  0.187500   0.968750 0
  0.250000   0.718750 0
  0.375000   0.218750 0
  0.312500   0.468750 0
  0.187500   1.000000 0
  0.312500   0.500000 0
  0.375000   0.250000 0
  0.437500   0.000000 0
  0.250000   0.750000 0
  0.031250   0.781250 0
  0.656250   0.531250 0
  0.156250   0.281250 0
  0.593750   0.781250 0
  0.093750   0.531250 0
  0.000000   0.781250 0
  0.625000   0.531250 0
  0.125000   0.281250 0
  0.562500   0.781250 0
  0.062500   0.531250 0
  0.781250   0.968750 0
  0.281250   0.718750 0
  0.218750   0.968750 0
  0.843750   0.718750 0
  0.343750   0.468750 0
  0.281250   0.968750 0
  0.843750   0.968750 0
  0.343750   0.718750 0
  0.906250   0.718750 0
  0.406250   0.468750 0
  0.281250   1.000000 0
  0.906250   0.750000 0
  0.406250   0.500000 0
  0.843750   1.000000 0
  0.343750   0.750000 0
  0.531250   0.000000 0
  0.718750   0.843750 0
  0.218750   0.593750 0
  0.156250   0.843750 0
  0.781250   0.593750 0
  0.281250   0.343750 0
  0.687500   0.843750 0
  0.187500   0.593750 0
  0.750000   0.593750 0
  0.250000   0.343750 0
  0.125000   0.843750 0
  0.218750   0.875000 0
  0.843750   0.625000 0
  0.343750   0.375000 0
  0.781250   0.875000 0
  0.281250   0.625000 0
  0.156250   0.906250 0
  0.781250   0.656250 0
  0.281250   0.406250 0
  0.718750   0.906250 0
  0.218750   0.656250 0
  0.031250   1.000000 0
  0.656250   0.750000 0
  0.156250   0.500000 0
  0.593750   1.000000 0
  0.093750   0.750000 0
  0.218750   1.000000 0
  0.343750   0.500000 0
  0.468750   0.000000 0
  0.406250   0.250000 0
  0.281250   0.750000 0
  0.593750   0.406250 0
  0.093750   0.156250 0
  0.531250   0.656250 0
  0.031250   0.406250 0
[...]
CELL_DATA 1024
VECTORS vector_value float
-0.885657 -1.41659 0
-0.806521 -1.34799 0
-0.743313 -1.74496 0
0.00435144 -1.0645 0
0.00801244 -1.12615 0
0.028512 -1.19064 0
-0.175483 -0.650778 0
-0.39536 -0.89223 0
-0.210213 -0.602971 0
-0.380673 -0.791963 0
-0.662537 -0.979151 0
-0.0276792 -0.776151 0
-0.00503484 -0.851609 0
-0.0577501 -0.689614 0
-0.0845844 -0.790875 0
-0.173486 -0.925672 0
-0.0197144 -0.847706 0
-0.0542764 -0.895476 0
-0.0900556 -0.537099 0
-0.041099 -0.619456 0
-0.0320048 -0.525836 0
0.00970666 -0.633046 0
-0.0426379 -0.534718 0
0.0773362 -0.642286 0
-0.371082 -1.87214 0
-0.34524 -1.69267 0
-0.530921 -1.93198 0
-0.293127 -1.91691 0
0.0807171 -1.18807 0
-0.0327709 -1.70288 0
-0.0509806 -0.941473 0
-0.0477631 -0.856111 0
-0.0671651 -1.10479 0
-0.0325727 -0.989889 0
0.00581383 -0.74282 0
0.00483079 -0.607862 0
-0.05031 -0.652793 0
-0.0440103 -0.62974 0
-0.00915323 -0.741678 0
-0.0778195 -0.403167 0
0.179558 -1.52875 0
0.061693 -1.32274 0
0.112662 -1.53406 0
0.270957 -1.33123 0
-0.130468 -1.07121 0
0.000644029 -0.776492 0
0.0402359 -0.703955 0
-0.312041 -0.952424 0
0.0436981 -0.685705 0
0.0497883 -1.00501 0
-0.00505772 -1.19337 0
-0.39423 -1.79583 0
0.099403 -1.44982 0
0.00171223 -0.696748 0
0.0306946 -1.326 0
-0.0732198 -0.632317 0
-0.00074242 -1.0309 0
0.11441 -1.05947 0
0.245263 -1.48388 0
-0.26456 -0.870147 0
-0.1899 -1.08408 0
-0.412506 -1.13237 0
-0.165445 -1.79998 0
-0.0507369 -1.2247 0
-0.316297 -0.895747 0
-0.565555 -1.40456 0
-0.282588 -1.06569 0
-0.112819 -0.752543 0
-0.0987353 -1.24934 0
0.0106546 -0.76643 0
0.0373503 -0.528646 0
0.0476916 -0.597957 0
-0.0569827 -0.915927 0
-0.181295 -0.761983 0
-0.639628 -1.04213 0
-0.265502 -1.01012 0
-0.146499 -1.62411 0
-0.0249868 -1.97747 0
0.0874949 -1.52219 0
-0.0348052 -0.81563 0
-0.441197 -0.987321 0
-0.00460775 -1.18917 0
-0.392768 -1.15432 0
-0.236039 -0.700744 0
-0.123403 -1.52639 0
0.021512 -1.31672 0
-0.892568 -1.50285 0
-0.373072 -1.22676 0
0.0753156 -1.26082 0
0.0659931 -0.669532 0
0.0912513 -0.721568 0
0.0555317 -1.29293 0
-0.2084 -0.599968 0
0.0316021 -1.15836 0
-0.831299 -1.4775 0
-0.416615 -0.988438 0
-0.0337575 -1.08357 0
0.0589856 -1.3658 0
-0.685448 -1.1122 0
-0.266965 -0.872317 0
-0.130109 -0.709492 0
-0.0276531 -1.38285 0
0.0577711 -1.05997 0
-0.108036 -0.928415 0
-0.558416 -0.903695 0
-0.28917 -0.852387 0
-0.217994 -1.57715 0
0.0132209 -0.441001 0
0.0537091 -0.584255 0
-0.18783 -0.804879 0
-0.133848 -0.794343 0
-0.7863 -1.22805 0
-0.214878 -1.6415 0
-0.396234 -1.12188 0
-0.746219 -1.13226 0
-0.0399236 -1.8955 0
0.0497078 -1.47563 0
-0.141933 -0.711833 0
-0.267147 -1.4087 0
0.0943136 -1.03851 0
0.0350335 -0.577067 0
0.135576 -0.840933 0
-0.105685 -1.10685 0
-0.568971 -1.03079 0
-0.440756 -1.31891 0
0.039813 -1.37974 0
-0.263715 -0.464828 0
-0.153422 -1.62396 0
-0.0344487 -1.03168 0
-0.657821 -0.893472 0
-0.360715 -0.904239 0
-0.362923 -1.41852 0
-0.0393093 -1.81823 0
0.00333473 -1.15286 0
0.0790154 -0.934085 0
-0.455096 -0.766076 0
-0.130336 -1.20777 0
-0.981657 -1.26261 0
-0.152197 -1.38809 0
0.00717549 -1.58795 0
-0.0705572 -1.80655 0
-0.113582 -0.568727 0
0.0704621 -0.690257 0
-0.460524 -1.2079 0
-0.433037 -1.21084 0
0.0604402 -1.53232 0
-0.995638 -1.26527 0
-0.0670158 -0.588968 0
0.0511399 -1.00574 0
0.022604 -0.734639 0
-0.209229 -1.41019 0
0.0208354 -1.337 0
-0.236513 -0.422235 0
-0.538053 -1.81305 0
0.018433 -0.528259 0
0.13037 -0.725322 0
-0.0772738 -1.27688 0
-0.519856 -0.997577 0
-0.312624 -1.56787 0
0.0672983 -1.27472 0
0.0787169 -0.671545 0
0.138424 -0.913601 0
-0.392848 -1.36613 0
-0.0082018 -1.55956 0
-0.0630148 -1.62463 0
-0.1974 -0.599375 0
0.0797304 -0.670792 0
-0.465301 -1.01842 0
-0.14883 -1.33937 0
-0.0176208 -1.38999 0
-0.0287162 -0.390667 0
-0.229944 -0.720073 0
-0.523962 -1.47711 0
-0.114964 -0.991157 0
-0.233585 -1.38034 0
-0.0779217 -1.03795 0
-0.332689 -1.50502 0
-0.498969 -1.70197 0
-0.137446 -1.18069 0
0.11686 -1.38895 0
0.0303702 -0.92939 0
-0.118065 -0.371328 0
-0.0135558 -1.20339 0
0.194031 -1.07236 0
0.0618201 -1.10438 0
-0.0172288 -1.20368 0
0.101324 -0.998297 0
0.213047 -1.14146 0
0.00671073 -1.16209 0
0.0721723 -1.01754 0
-0.489 -0.879345 0
-0.701233 -1.49434 0
-0.469985 -0.752819 0
0.0851225 -1.47792 0
-0.278939 -1.13918 0
0.03507 -0.602522 0
-0.400464 -1.04129 0
-0.778011 -1.30241 0
-0.336303 -0.532286 0
0.101929 -1.44299 0
-0.429384 -1.55924 0
-0.305227 -0.64665 0
-0.657008 -0.885367 0
-0.677177 -1.06499 0
-0.286132 -1.06707 0
-0.278377 -0.983159 0
-0.586424 -1.1772 0
0.184126 -0.799034 0
0.175355 -0.971246 0
-0.354987 -1.37964 0
-0.686352 -1.31701 0
0.0544072 -0.729558 0
0.234509 -0.948974 0
-0.503169 -1.26059 0
-0.624547 -1.03324 0
-0.563114 -1.27701 0
-0.582714 -1.17249 0
0.254958 -1.02829 0
0.198131 -1.24102 0
0.028999 -1.16778 0
0.31793 -1.08497 0
-0.171324 -0.698853 0
-0.0559873 -1.3783 0
-0.0444142 -1.47211 0
-0.061128 -0.808439 0
-0.752187 -1.12983 0
-0.013993 -1.59039 0
-0.0924522 -1.78496 0
0.0368469 -1.22706 0
-0.833237 -1.3054 0
-0.0529182 -1.39454 0
-0.0049414 -1.48397 0
-0.0568762 -0.802151 0
-0.686122 -1.20419 0
-0.00658375 -1.40707 0
-0.159452 -1.41993 0
-0.158814 -0.743418 0
-0.571476 -1.06226 0
-0.169573 -0.368458 0
-0.0429366 -1.25149 0
-0.133153 -1.15703 0
-0.182984 -1.84176 0
-0.36676 -0.943259 0
-0.198538 -1.53264 0
-0.251109 -0.642596 0
-0.0312324 -1.30899 0
-0.0505962 -1.55612 0
-0.755198 -1.38908 0
-0.0752695 -1.40644 0
-0.762934 -1.30795 0
-0.462846 -1.31186 0
-0.628784 -1.71272 0
0.066519 -0.673537 0
0.0235816 -0.629189 0
-0.0176329 -0.533382 0
0.0226428 -0.635263 0
-0.129834 -0.780043 0
-0.188295 -1.00648 0
0.580941 -1.15552 0
0.630483 -1.00735 0
0.533054 -1.02892 0
0.474332 -0.945131 0
-0.338676 -0.962335 0
-0.189087 -1.00534 0
-0.359456 -0.97911 0
0.499065 -0.984665 0
0.588064 -1.01522 0
0.565238 -1.25545 0
0.504946 -1.26766 0
-0.14182 -1.1475 0
-0.0177073 -1.19179 0
0.452894 -0.786357 0
0.511277 -0.762174 0
0.426233 -0.71955 0
0.336991 -0.637848 0
0.295879 -2.12228 0
0.240421 -0.697323 0
0.03214 -0.668545 0
0.029738 -0.571901 0
0.207252 -0.591501 0
0.22567 -2.13212 0
0.368233 -2.25833 0
-0.37547 -1.88818 0
-0.40321 -1.12374 0
-0.101014 -0.58845 0
-0.0721183 -1.48065 0
0.327166 -1.7868 0
-0.219986 -0.879513 0
0.293233 -1.2953 0
-0.145343 -1.36888 0
0.233737 -1.57293 0
-0.186222 -0.960463 0
0.0658563 -1.28473 0
-0.173289 -1.06247 0
0.309383 -0.930188 0
-0.220256 -1.29862 0
0.174412 -0.774154 0
-0.339619 -1.1558 0
0.221079 -0.550337 0
0.0296249 -0.483792 0
0.193255 -0.484453 0
0.287787 -1.73831 0
0.0707033 -0.564096 0
0.12686 -0.467555 0
-0.0885049 -1.17628 0
-0.00673664 -0.466593 0
0.27877 -0.529602 0
0.11912 -0.578454 0
0.461019 -2.45055 0
-0.0136564 -0.766697 0
0.209816 -0.559608 0
-0.257192 -0.835114 0
0.0568197 -0.578869 0
0.395774 -0.819272 0
0.0507081 -2.07301 0
0.0300923 -0.7658 0
-0.155435 -1.02979 0
-0.273117 -0.782892 0
0.295694 -0.566632 0
-0.295545 -0.779273 0
-0.162578 -0.808654 0
0.0356907 -1.53387 0
0.177532 -0.584983 0
-0.098806 -1.10953 0
0.378699 -2.57657 0
0.011559 -0.738233 0
-0.22336 -0.941053 0
-0.310087 -0.959833 0
0.0489724 -0.900227 0
0.0155189 -0.903533 0
0.338303 -1.59916 0
-0.301171 -0.862475 0
0.122965 -1.00345 0
0.0918023 -0.788909 0
0.22893 -1.52747 0
-0.404487 -1.04204 0
-0.198146 -0.630218 0
-0.167145 -0.648285 0
0.034185 -0.751961 0
0.37131 -1.64402 0
0.327402 -2.24521 0
-0.181468 -0.660993 0
-0.189233 -0.59483 0
0.0591551 -0.705468 0
0.491379 -1.57698 0
0.260971 -1.96928 0
0.0816772 -1.76526 0
0.0271636 -0.801022 0
0.361495 -2.03627 0
0.0577792 -0.894244 0
0.527656 -1.22237 0
0.10734 -0.624821 0
0.0145713 -1.52686 0
-0.0206974 -0.557316 0
-0.18938 -0.897984 0
0.220083 -1.6487 0
0.0350984 -0.856176 0
0.135329 -0.631471 0
-0.269536 -0.993715 0
-0.0408644 -0.506905 0
-0.063915 -1.29262 0
0.0169784 -0.914447 0
0.43917 -1.27909 0
0.495796 -1.00224 0
0.578028 -2.124 0
-0.0600144 -1.29979 0
-0.035201 -0.903395 0
0.289919 -0.747174 0
0.579409 -1.06188 0
0.0836293 -1.2896 0
0.403852 -1.5544 0
0.464334 -0.824289 0
0.0268818 -0.773317 0
0.419085 -1.29171 0
0.138918 -1.478 0
-0.0135569 -0.938194 0
0.0472161 -0.8821 0
-0.251364 -1.0323 0
0.265698 -1.13498 0
0.200889 -0.658984 0
0.215489 -0.988291 0
-0.68471 -1.65787 0
-0.64274 -1.14385 0
-0.115795 -0.598826 0
-0.198348 -0.63384 0
-0.0504056 -0.630458 0
-0.17451 -1.88839 0
-0.109498 -1.59762 0
0.0623158 -1.82228 0
0.122738 -1.35334 0
-0.190239 -1.32522 0
0.081009 -0.723411 0
-0.03565 -1.02992 0
0.00424421 -0.739965 0
0.509981 -2.12841 0
-0.0179613 -1.61173 0
-0.468144 -1.78966 0
-0.202561 -0.617805 0
-0.0821377 -0.660028 0
0.235281 -1.42806 0
-0.286276 -0.885316 0
-0.223107 -1.39527 0
-0.226912 -2.1101 0
0.0129936 -0.813792 0
-0.150087 -0.763821 0
0.287556 -1.42819 0
-0.228833 -0.85929 0
-0.178366 -0.949349 0
-0.266641 -1.10724 0
0.126527 -2.48458 0
0.014054 -0.798859 0
-0.0263746 -0.80191 0
-0.157066 -0.939116 0
0.470545 -1.1014 0
0.282664 -1.26029 0
-0.146123 -0.670178 0
0.567247 -1.22508 0
0.36125 -1.48174 0
-0.179314 -0.756115 0
0.506586 -1.27206 0
0.331516 -1.52884 0
-0.113697 -0.627901 0
-0.948511 -1.11162 0
-0.147573 -0.781888 0
-0.18633 -0.759229 0
-0.938473 -1.08971 0
0.230749 -1.64683 0
0.0232948 -1.27302 0
-0.253428 -1.00419 0
-0.0363852 -0.966492 0
0.462291 -0.784602 0
-0.0278823 -1.02302 0
-0.12456 -1.0274 0
0.108267 -1.68051 0
0.0250758 -0.731744 0
0.129116 -1.39932 0
-0.0699157 -1.11584 0
0.439209 -1.86193 0
0.32917 -1.68162 0
-0.109221 -0.748044 0
0.556018 -1.62767 0
0.375839 -1.67649 0
-0.114576 -0.698483 0
0.61984 -1.58015 0
0.413896 -1.53033 0
0.173703 -1.08464 0
-0.170701 -0.845157 0
-0.0779064 -0.674262 0
-0.206367 -0.673639 0
-0.0563533 -0.892032 0
0.416998 -1.31376 0
-0.0458627 -0.820686 0
-0.214541 -1.1434 0
0.298965 -0.847612 0
0.0283801 -0.839096 0
0.0909449 -1.2897 0
-0.186533 -0.747142 0
0.0505536 -0.787415 0
-0.0198304 -0.743656 0
0.0278296 -0.599066 0
0.418 -1.57506 0
0.455712 -1.53551 0
0.425172 -1.7249 0
0.263369 -1.41764 0
0.323874 -1.59908 0
0.204975 -1.15688 0
0.404086 -1.3538 0
0.538114 -0.910877 0
-0.200244 -1.75278 0
0.000884621 -0.705088 0
-0.0651455 -2.1978 0
0.00211247 -0.793724 0
-0.0421403 -0.696398 0
-0.150273 -1.57898 0
0.172895 -2.01781 0
0.0168146 -1.70963 0
0.192585 -1.45543 0
0.421435 -1.84796 0
-0.191611 -0.799664 0
-0.130711 -0.798995 0
-0.202286 -0.759138 0
-0.17247 -0.700874 0
-0.971743 -1.26465 0
-0.102418 -0.764058 0
-0.775683 -1.02164 0
-0.0311051 -0.684339 0
0.0436539 -0.535376 0
-0.694572 -1.3136 0
-0.0434059 -0.581338 0
-0.394569 -1.14267 0
-0.350385 -1.3064 0
-0.0049244 -1.42528 0
-0.110479 -1.16489 0
-0.112292 -0.679919 0
-0.400793 -0.779458 0
-0.170338 -0.758294 0
-0.136068 -0.81038 0
-0.583848 -0.937708 0
-0.147325 -0.851568 0
-0.177587 -0.72145 0
-0.718832 -1.19269 0
-0.182358 -0.852782 0
-0.120199 -0.749364 0
-0.472232 -1.11667 0
-0.386701 -2.03059 0
-0.389314 -1.47614 0
-0.130009 -0.602778 0
-0.0567541 -0.795768 0
0.464789 -1.03247 0
0.389265 -1.09943 0
0.296118 -1.11362 0
0.41146 -1.04082 0
-0.16547 -1.14278 0
0.0188294 -0.514595 0
0.00394094 -0.571179 0
0.0142124 -0.495569 0
0.00566621 -0.440776 0
0.26298 -0.859401 0
0.313667 -0.84554 0
0.363819 -0.711739 0
0.0633528 -1.10072 0
-0.138762 -0.337999 0
-0.0950689 -0.323634 0
0.445059 -0.901275 0
-0.100319 -0.308036 0
-0.116958 -0.300271 0
0.0987279 -0.683048 0
0.0833422 -0.595942 0
0.106483 -0.701878 0
0.091983 -0.605451 0
-0.143562 -1.07496 0
0.0229174 -0.540547 0
0.0234937 -0.535765 0
-0.135506 -1.03359 0
-0.247083 -0.932514 0
-0.210468 -1.01689 0
-0.0940208 -0.848191 0
0.393668 -0.871674 0
0.328381 -0.88385 0
0.22826 -0.824823 0
0.27837 -0.970064 0
0.076126 -0.929327 0
0.191041 -1.09349 0
-0.0461627 -1.0038 0
-0.0275012 -0.767372 0
0.232818 -1.06492 0
0.0965712 -0.597787 0
-0.0198051 -0.613393 0
0.253079 -0.950597 0
0.3018 -0.605975 0
-0.0122277 -0.727066 0
0.306174 -0.956525 0
0.125537 -0.943701 0
0.336235 -0.90092 0
0.0493955 -0.830459 0
0.223553 -0.851297 0
0.0490113 -0.643285 0
-0.193218 -1.28851 0
-0.255817 -0.881608 0
-0.135841 -0.939449 0
-0.0409054 -0.710981 0
-0.170752 -1.07794 0
-0.12161 -1.03295 0
0.264504 -1.10373 0
-0.163842 -0.892685 0
-0.107023 -0.780084 0
0.120054 -1.10605 0
-0.0708265 -0.593618 0
0.142282 -1.77646 0
-0.375147 -1.17815 0
-0.310524 -0.874206 0
-0.0247573 -1.58605 0
-0.126073 -0.47575 0
-0.0251375 -0.658101 0
-0.445396 -1.07478 0
-0.185438 -0.777321 0
-0.0670317 -1.67858 0
-0.106804 -0.578174 0
0.0279674 -0.643673 0
0.18599 -1.15413 0
-0.266787 -1.10828 0
-0.172037 -0.731475 0
0.536671 -0.622292 0
0.398324 -0.477783 0
-0.033171 -1.68502 0
-0.203624 -0.462861 0
0.0325127 -0.530108 0
0.482133 -0.581808 0
0.360331 -0.554035 0
-0.135177 -1.63684 0
-0.157644 -0.903439 0
-0.246257 -0.576835 0
0.0374095 -0.551141 0
0.147403 -1.13283 0
0.120867 -0.630429 0
-0.028708 -0.629088 0
0.42286 -0.811561 0
-0.0385788 -0.520532 0
0.0601955 -1.20877 0
-0.11714 -0.881092 0
0.00668464 -0.699715 0
-0.186154 -1.05652 0
-0.0812102 -0.922527 0
0.0787757 -0.728702 0
-0.0190123 -0.669523 0
0.0509616 -0.991546 0
-0.133945 -1.65683 0
0.0683272 -1.10879 0
-0.232214 -0.670855 0
0.0306017 -0.532618 0
0.0570556 -0.693467 0
0.0555018 -1.16105 0
0.0769344 -0.590883 0
0.0414852 -0.606469 0
0.0239716 -0.58906 0
0.410315 -1.37477 0
-0.156419 -0.629849 0
-0.182109 -0.578234 0
0.547251 -1.42974 0
-0.0690343 -0.542495 0
0.116714 -0.935088 0
-0.156371 -1.65832 0
0.0229202 -0.538529 0
0.0284705 -0.552638 0
-0.0320023 -0.720825 0
-0.0991917 -1.94218 0
0.0175925 -0.624844 0
0.305027 -0.635063 0
0.0164266 -0.495046 0
0.323253 -0.587304 0
-0.0700074 -0.402405 0
0.00644887 -0.591546 0
0.0341241 -0.599176 0
-0.0831216 -0.542345 0
0.00510234 -0.733666 0
0.00722522 -0.656681 0
0.184071 -0.910065 0
-0.0489622 -0.538713 0
0.190618 -0.992784 0
-0.0128365 -0.926391 0
-0.00331418 -1.07275 0
-0.0368401 -0.649762 0
-0.0246249 -0.617631 0
-0.0295094 -0.689578 0
0.246307 -2.28692 0
-0.0660219 -1.84981 0
0.100717 -1.11181 0
-0.0261189 -0.839697 0
0.311298 -1.11455 0
-0.103938 -0.507402 0
-0.203256 -0.626641 0
-0.0977725 -0.602125 0
-0.00636436 -0.691163 0
-0.0884682 -1.05752 0
-0.0209545 -0.572514 0
-0.0487216 -0.752972 0
-0.0520985 -0.776899 0
-0.165286 -1.00375 0
-0.0189724 -0.599487 0
-0.00244717 -0.649231 0
0.00858801 -0.727239 0
-0.0415706 -0.902752 0
-0.166482 -0.385838 0
0.0998227 -0.63642 0
-0.0966566 -0.390846 0
-0.0527618 -1.04397 0
0.0143261 -0.658148 0
0.667563 -2.12284 0
-0.0650231 -0.629557 0
0.593437 -1.20378 0
-0.0605611 -0.535098 0
0.342242 -0.999787 0
-0.104548 -0.561211 0
0.587246 -1.98227 0
-0.101406 -0.639134 0
0.247004 -1.01294 0
0.292203 -0.861943 0
0.207777 -0.93841 0
0.0695574 -0.54367 0
0.125234 -0.608346 0
0.028172 -0.520779 0
0.0587991 -0.772066 0
0.0143511 -0.707853 0
-0.0140095 -0.78129 0
0.0977136 -0.680501 0
0.42496 -0.590536 0
0.345605 -0.562892 0
-0.0791121 -0.282641 0
0.0441304 -0.577057 0
0.520531 -0.610583 0
0.445393 -0.625715 0
-0.0487012 -0.498858 0
-0.0671259 -0.318399 0
0.0494499 -0.622311 0
0.50278 -0.854563 0
-0.0953626 -0.525539 0
-0.147468 -0.41195 0
0.0379763 -0.600536 0
0.282886 -0.883324 0
0.452315 -0.853428 0
-0.153697 -0.493045 0
-0.106226 -0.315415 0
0.0206349 -0.636091 0
-0.0597202 -1.12927 0
-0.115064 -1.02069 0
0.0568717 -1.6031 0
-0.0218113 -0.785366 0
0.150847 -1.29923 0
-0.150306 -0.847575 0
-0.16332 -0.804834 0
0.131013 -1.39204 0
-0.158505 -1.08796 0
-0.0532442 -0.839668 0
0.0407599 -1.66298 0
-0.132548 -1.07568 0
-0.172161 -1.12134 0
-0.150441 -1.02403 0
-0.0959997 -1.14357 0
0.0540827 -0.678408 0
-0.145971 -2.24693 0
0.0902356 -0.631798 0
-0.153596 -2.53777 0
0.0702839 -0.644247 0
0.0199474 -0.507102 0
-0.206623 -1.44643 0
0.0204003 -0.573014 0
-0.0211237 -0.541582 0
-0.00355679 -0.59049 0
-0.00445707 -0.475592 0
-0.0256287 -0.50483 0
0.13535 -3.55 0
-0.171085 -3.34354 0
-0.322269 -1.37726 0
-0.376654 -1.57019 0
-0.0395452 -0.518829 0
-0.183428 -1.63437 0
-0.469987 -1.46432 0
-0.0136728 -0.495332 0
-0.0708049 -3.58067 0
-0.213053 -2.94315 0
-0.0357811 -0.554281 0
0.362913 -3.01334 0
0.053122 -0.507467 0
0.411685 -0.719604 0
0.281585 -0.652885 0
0.472948 -0.693736 0
0.216712 -0.574827 0
0.471797 -0.84469 0
0.0208819 -0.666058 0
0.0153812 -0.714603 0
-0.00323568 -0.722614 0
0.112129 -1.99646 0
-0.0181719 -0.773022 0
0.0859792 -1.791 0
-0.211099 -0.880218 0
-0.0801511 -0.692355 0
0.243208 -1.4901 0
-0.0352806 -0.654916 0
0.367814 -1.6922 0
-0.0195631 -0.96854 0
-0.00139188 -1.18168 0
-0.0891805 -1.12669 0
-0.0792478 -1.07882 0
0.341817 -0.850491 0
0.427527 -0.797906 0
0.520067 -0.68054 0
0.450143 -0.768882 0
0.35831 -0.715878 0
0.151662 -1.13058 0
0.0409187 -0.617563 0
0.117584 -0.666222 0
0.109459 -0.892386 0
0.0277491 -0.976937 0
0.152869 -0.766467 0
0.226221 -0.820844 0
0.110095 -1.06134 0
0.0536044 -0.916749 0
0.144301 -0.839627 0
0.0439851 -0.902344 0
0.037571 -1.0017 0
-0.965703 -0.934306 0
-0.573925 -0.789293 0
-0.756427 -0.870342 0
-1.0369 -0.996394 0
0.146886 -0.925712 0
0.0655177 -1.04518 0
0.163855 -0.997616 0
0.198769 -0.967217 0
0.0465671 -1.01072 0
0.0271605 -0.978105 0
0.124454 -0.486198 0
0.219725 -1.38535 0
0.196784 -0.663362 0
-0.166202 -0.788792 0
0.228041 -0.590382 0
0.123755 -0.788866 0
-0.0846881 -0.988436 0
0.0858043 -0.337428 0
0.815604 -1.17744 0
0.350592 -0.744714 0
-0.00698581 -0.671758 0
0.0810779 -0.481563 0
-0.0384889 -0.632946 0
0.167509 -0.580527 0
0.0293463 -1.07308 0
-0.0638354 -0.984627 0
0.314134 -0.552136 0
-0.0263527 -0.889727 0
0.191416 -0.604853 0
0.0854344 -1.04192 0
-0.00376627 -0.977999 0
0.168048 -0.649303 0
-0.244048 -0.935606 0
0.236546 -0.56929 0
0.0448842 -0.758317 0
0.133657 -0.768125 0
0.156747 -0.724859 0
0.0393786 -0.535613 0
0.111939 -0.445598 0
0.0938593 -0.32989 0
0.0216012 -0.826001 0
-0.0744425 -0.776968 0
-0.0882469 -1.06078 0
-0.0760589 -0.775994 0
0.074666 -0.741004 0
-0.214222 -0.992641 0
-0.016042 -1.14716 0
-0.0163109 -0.864206 0
0.041303 -0.630941 0
0.0480599 -1.81472 0
-0.0325371 -0.685381 0
0.338219 -1.42554 0
0.0263115 -0.610557 0
0.0827687 -1.07305 0
0.128332 -1.07436 0
0.217519 -0.714716 0
-0.44051 -0.726177 0
0.171546 -1.21129 0
0.130288 -1.11866 0
-0.0287611 -0.974812 0
0.0722347 -0.701494 0
0.0811694 -1.01725 0
0.229865 -1.00298 0
0.0671297 -0.656179 0
-0.346183 -0.620534 0
0.0597955 -1.45593 0
0.0474558 -1.19527 0
0.157322 -0.759378 0
0.0738769 -1.11617 0
-0.00318123 -0.693272 0
-0.228475 -0.567837 0
0.0453978 -0.864056 0
0.171929 -1.14043 0
0.0600896 -0.517173 0
-0.311763 -0.673586 0
0.0964256 -0.662011 0
0.111238 -0.657688 0
-0.294355 -0.83931 0
0.08422 -0.471903 0
0.0740271 -0.608416 0
0.0739285 -0.775197 0
-0.233219 -0.86909 0
-0.0331675 -1.48694 0
-0.112178 -0.909062 0
-0.0667572 -1.71526 0
0.219605 -0.903797 0
0.0717223 -1.3494 0
0.042518 -1.12827 0
-0.278292 -0.862529 0
0.0252033 -0.808953 0
-0.297519 -0.922423 0
0.116715 -0.683405 0
-0.0934337 -1.59322 0
0.244089 -0.771878 0
0.124998 -1.02142 0
-0.26762 -0.933948 0
0.113264 -0.597388 0
-0.191187 -0.907661 0
-0.312198 -0.902337 0
-0.0919781 -0.909369 0
0.369441 -0.701659 0
0.265852 -0.729182 0
-0.110462 -0.726463 0
-0.0664933 -1.40512 0
-0.0591114 -1.55943 0
-0.142725 -1.01172 0
0.0916369 -0.811356 0
0.153182 -0.648198 0
0.25438 -0.418333 0
0.304233 -0.90329 0
0.0597311 -0.82059 0
0.00173401 -0.935726 0
0.123292 -0.893185 0
0.234675 -0.948079 0
-0.202243 -0.972502 0
-0.0762989 -0.916307 0
0.173714 -1.17475 0
-0.00619532 -0.870569 0
-0.101442 -0.383172 0
0.11245 -0.743795 0
0.147854 -0.346534 0
0.925584 -0.985752 0
-0.111668 -0.983323 0
-0.286379 -1.14086 0
0.091398 -0.984891 0
0.177836 -0.960694 0
0.148423 -0.872115 0
-0.272764 -0.55765 0
-0.273964 -0.993723 0
0.121737 -1.14303 0
-0.127871 -0.96481 0
0.0211023 -0.959917 0
-0.205154 -1.13145 0
-0.189304 -1.5598 0
-0.0760289 -0.730858 0
-0.17807 -0.850058 0
-0.230944 -0.915971 0
-0.137224 -0.7778 0
0.161575 -0.640225 0
-0.102323 -0.926816 0
-0.274697 -0.916361 0
0.00458075 -0.808852 0
0.290919 -0.784964 0
0.0497162 -0.692865 0
-0.138174 -0.449441 0
0.214735 -0.82598 0
-0.0520372 -0.755128 0
0.229569 -0.642688 0
0.00987779 -0.875343 0
0.0919177 -0.946931 0
0.196985 -0.830702 0
-0.304134 -1.35877 0
-0.118638 -1.16331 0
-0.0459093 -1.13265 0
-0.272404 -1.38559 0