# vtk DataFile Version 2.0
Unstructured Grid by M++
ASCII
DATASET UNSTRUCTURED_GRID
POINTS 4225 float
  0.921875   0.593750 0
  0.921875   0.609375 0
  0.656250   0.609375 0
  0.671875   0.609375 0
  0.656250   0.546875 0
  0.671875   0.546875 0
  0.656250   0.562500 0
  0.656250   0.578125 0
  0.656250   0.593750 0
  0.671875   0.593750 0
  0.671875   0.562500 0
  0.671875   0.578125 0
  0.671875   0.625000 0
  0.671875   0.640625 0
  0.906250   0.578125 0
  0.890625   0.578125 0
  0.546875   0.515625 0
  1.000000   0.890625 0
  0.515625   0.640625 0
  0.515625   0.625000 0
  1.000000   0.875000 0
  0.515625   0.656250 0
  0.515625   0.687500 0
  0.515625   0.671875 0
  1.000000   0.921875 0
  0.546875   0.531250 0
  0.546875   0.546875 0
  0.546875   0.562500 0
  0.796875   0.531250 0
  0.953125   0.890625 0
  0.953125   0.875000 0
  0.953125   0.843750 0
  0.953125   0.828125 0
  0.953125   0.812500 0
  0.531250   0.562500 0
  0.531250   0.546875 0
  0.515625   0.562500 0
  0.515625   0.546875 0
  1.000000   0.812500 0
  0.781250   0.546875 0
  0.765625   0.546875 0
  0.859375   0.921875 0
  0.921875   0.671875 0
  0.609375   0.906250 0
  0.671875   0.656250 0
  0.609375   0.921875 0
  0.671875   0.671875 0
  0.671875   0.984375 0
  0.671875   1.000000 0
  0.906250   0.984375 0
  0.906250   1.000000 0
  0.921875   0.984375 0
  0.921875   1.000000 0
  0.859375   0.609375 0
  1.000000   0.781250 0
  0.515625   0.531250 0
  0.531250   0.531250 0
  0.531250   0.515625 0
  0.515625   0.515625 0
  1.000000   0.750000 0
  0.765625   0.531250 0
  0.781250   0.531250 0
  0.781250   0.515625 0
  0.765625   0.515625 0
  0.859375   0.875000 0
  0.921875   0.625000 0
  0.859375   0.890625 0
  0.921875   0.640625 0
  0.671875   0.968750 0
  0.671875   0.953125 0
  0.921875   0.968750 0
  0.921875   0.953125 0
  0.859375   0.593750 0
  0.859375   0.578125 0
  0.875000   0.578125 0
  0.828125   0.890625 0
  0.890625   0.640625 0
  0.593750   0.890625 0
  0.656250   0.640625 0
  0.593750   0.875000 0
  0.656250   0.625000 0
  0.578125   0.890625 0
  0.640625   0.640625 0
  0.578125   0.875000 0
  0.640625   0.625000 0
  0.968750   0.890625 0
  0.984375   0.890625 0
  0.968750   0.812500 0
  0.968750   0.828125 0
  0.984375   0.812500 0
  0.984375   0.828125 0
  1.000000   0.828125 0
  0.656250   0.953125 0
  0.640625   0.953125 0
  0.890625   0.968750 0
  0.906250   0.968750 0
  0.906250   0.953125 0
  0.890625   0.953125 0
  0.531250   0.703125 0
  0.531250   0.718750 0
  0.546875   0.718750 0
  0.546875   0.703125 0
  0.593750   0.578125 0
  0.562500   0.578125 0
  0.578125   0.578125 0
  0.843750   0.578125 0
  0.828125   0.578125 0
  0.828125   0.812500 0
  0.890625   0.562500 0
  0.828125   0.796875 0
  0.953125   0.906250 0
  0.953125   0.921875 0
  0.531250   0.859375 0
  0.593750   0.609375 0
  0.531250   0.843750 0
  0.593750   0.593750 0
  0.515625   0.843750 0
  0.578125   0.593750 0
  0.515625   0.859375 0
  0.578125   0.609375 0
  0.937500   0.859375 0
  1.000000   0.609375 0
  0.921875   0.859375 0
  0.984375   0.609375 0
  0.937500   0.796875 0
  0.921875   0.796875 0
  0.984375   0.546875 0
  0.562500   0.812500 0
  0.843750   0.796875 0
  0.843750   0.812500 0
  0.859375   0.796875 0
  0.859375   0.812500 0
  1.000000   0.906250 0
  0.984375   0.906250 0
  0.968750   0.906250 0
  0.968750   0.921875 0
  0.984375   0.921875 0
  0.593750   0.921875 0
  0.656250   0.671875 0
  0.593750   0.906250 0
  0.656250   0.656250 0
  0.578125   0.906250 0
  0.640625   0.656250 0
  0.578125   0.921875 0
  0.640625   0.671875 0
  1.000000   0.843750 0
  0.984375   0.843750 0
  0.968750   0.843750 0
  0.968750   0.859375 0
  0.968750   0.875000 0
  1.000000   0.859375 0
  0.984375   0.859375 0
  0.984375   0.875000 0
  0.656250   1.000000 0
  0.656250   0.984375 0
  0.656250   0.968750 0
  0.640625   0.968750 0
  0.640625   1.000000 0
  0.640625   0.984375 0
  0.843750   0.921875 0
  0.906250   0.671875 0
  0.843750   0.906250 0
  0.906250   0.656250 0
  0.828125   0.906250 0
  0.890625   0.656250 0
  0.828125   0.921875 0
  0.890625   0.671875 0
  0.781250   0.859375 0
  0.843750   0.609375 0
  0.781250   0.843750 0
  0.843750   0.593750 0
  0.765625   0.843750 0
  0.828125   0.593750 0
  0.765625   0.859375 0
  0.828125   0.609375 0
  0.968750   0.609375 0
  0.906250   0.859375 0
  0.953125   0.609375 0
  0.890625   0.859375 0
  0.937500   0.609375 0
  0.875000   0.859375 0
  0.562500   0.593750 0
  0.546875   0.593750 0
  0.531250   0.593750 0
  0.531250   0.609375 0
  0.562500   0.609375 0
  0.546875   0.609375 0
  0.609375   0.625000 0
  0.546875   0.875000 0
  0.609375   0.640625 0
  0.546875   0.890625 0
  0.625000   0.640625 0
  0.562500   0.890625 0
  0.625000   0.625000 0
  0.562500   0.875000 0
  0.921875   0.843750 0
  0.984375   0.593750 0
  0.937500   0.843750 0
  1.000000   0.593750 0
  0.921875   0.812500 0
  0.921875   0.828125 0
  0.984375   0.578125 0
  0.937500   0.828125 0
  1.000000   0.578125 0
  0.937500   0.812500 0
  1.000000   0.562500 0
  0.578125   0.828125 0
  0.921875   0.781250 0
  0.937500   0.781250 0
  1.000000   0.531250 0
  0.921875   0.765625 0
  0.984375   0.515625 0
  0.937500   0.765625 0
  0.625000   0.656250 0
  0.562500   0.906250 0
  0.609375   0.656250 0
  0.546875   0.906250 0
  0.625000   0.671875 0
  0.562500   0.921875 0
  0.609375   0.671875 0
  0.546875   0.921875 0
  0.859375   0.781250 0
  0.859375   0.765625 0
  0.828125   0.671875 0
  0.765625   0.921875 0
  0.828125   0.734375 0
  0.765625   0.984375 0
  0.875000   0.843750 0
  0.937500   0.593750 0
  0.890625   0.843750 0
  0.953125   0.593750 0
  0.906250   0.843750 0
  0.968750   0.593750 0
  0.906250   0.828125 0
  0.968750   0.578125 0
  0.937500   0.578125 0
  0.953125   0.578125 0
  0.906250   0.765625 0
  0.875000   0.765625 0
  0.953125   0.515625 0
  0.531250   0.781250 0
  0.671875   0.890625 0
  0.531250   0.921875 0
  0.953125   0.656250 0
  0.828125   0.781250 0
  0.843750   0.781250 0
  0.703125   0.984375 0
  0.687500   0.984375 0
  0.843750   0.875000 0
  0.906250   0.625000 0
  0.671875   0.781250 0
  0.734375   0.531250 0
  0.906250   0.609375 0
  0.671875   0.765625 0
  0.734375   0.515625 0
  0.906250   0.593750 0
  0.890625   0.593750 0
  0.875000   0.593750 0
  0.828125   0.875000 0
  0.890625   0.625000 0
  0.656250   0.781250 0
  0.718750   0.531250 0
  0.890625   0.609375 0
  0.656250   0.765625 0
  0.718750   0.515625 0
  0.875000   0.609375 0
  0.640625   0.765625 0
  0.703125   0.515625 0
  0.812500   0.921875 0
  0.875000   0.671875 0
  0.812500   0.875000 0
  0.875000   0.625000 0
  0.640625   0.781250 0
  0.703125   0.531250 0
  0.812500   0.515625 0
  0.750000   0.828125 0
  0.812500   0.578125 0
  0.687500   1.000000 0
  0.937500   0.656250 0
  0.875000   0.906250 0
  0.531250   0.656250 0
  0.890625   0.906250 0
  0.906250   0.906250 0
  0.562500   0.656250 0
  0.906250   0.890625 0
  0.562500   0.640625 0
  0.968750   0.625000 0
  0.906250   0.875000 0
  0.562500   0.625000 0
  0.937500   0.640625 0
  0.875000   0.890625 0
  0.890625   0.890625 0
  0.546875   0.640625 0
  0.953125   0.625000 0
  0.890625   0.875000 0
  0.546875   0.625000 0
  0.546875   0.687500 0
  0.890625   0.937500 0
  0.937500   0.625000 0
  0.875000   0.875000 0
  0.531250   0.625000 0
  0.531250   0.640625 0
  0.546875   0.656250 0
  0.937500   0.968750 0
  0.687500   0.968750 0
  0.953125   0.968750 0
  0.703125   0.968750 0
  0.968750   0.968750 0
  0.718750   0.968750 0
  0.718750   0.906250 0
  0.968750   0.953125 0
  0.718750   0.953125 0
  0.968750   0.937500 0
  0.859375   0.906250 0
  0.921875   0.656250 0
  0.718750   0.937500 0
  0.828125   0.531250 0
  0.937500   0.953125 0
  0.687500   0.953125 0
  0.953125   0.953125 0
  0.703125   0.953125 0
  0.703125   0.890625 0
  0.843750   0.515625 0
  0.953125   0.937500 0
  0.953125   1.000000 0
  0.703125   0.937500 0
  0.937500   0.937500 0
  0.687500   0.937500 0
  0.703125   0.906250 0
  0.718750   0.890625 0
  0.687500   0.890625 0
  0.687500   0.765625 0
  0.750000   0.515625 0
  0.687500   0.781250 0
  0.750000   0.531250 0
  0.859375   0.937500 0
  0.921875   0.687500 0
  0.687500   0.796875 0
  0.750000   0.546875 0
  0.578125   0.750000 0
  0.515625   1.000000 0
  0.843750   0.765625 0
  0.578125   0.734375 0
  0.515625   0.984375 0
  0.562500   0.734375 0
  0.828125   0.750000 0
  0.765625   1.000000 0
  0.562500   0.750000 0
  0.562500   0.718750 0
  0.578125   0.515625 0
  0.921875   0.703125 0
  0.921875   0.718750 0
  0.593750   0.515625 0
  0.687500   0.875000 0
  0.750000   0.625000 0
  0.578125   0.531250 0
  0.921875   0.750000 0
  0.703125   0.875000 0
  0.765625   0.625000 0
  0.593750   0.531250 0
  0.875000   0.968750 0
  0.937500   0.718750 0
  0.703125   0.828125 0
  0.765625   0.578125 0
  0.937500   0.734375 0
  0.703125   0.812500 0
  0.765625   0.562500 0
  0.890625   0.687500 0
  0.828125   0.937500 0
  0.656250   0.796875 0
  0.718750   0.546875 0
  0.890625   0.718750 0
  0.828125   0.968750 0
  0.906250   0.796875 0
  0.718750   0.828125 0
  0.781250   0.578125 0
  0.890625   0.703125 0
  0.828125   0.953125 0
  0.656250   0.859375 0
  0.906250   0.781250 0
  0.968750   0.531250 0
  0.546875   0.796875 0
  0.671875   0.796875 0
  0.734375   0.546875 0
  0.843750   0.953125 0
  0.906250   0.703125 0
  0.671875   0.875000 0
  0.718750   0.812500 0
  0.781250   0.562500 0
  0.875000   0.812500 0
  0.531250   0.890625 0
  0.593750   0.640625 0
  0.937500   0.890625 0
  0.875000   0.781250 0
  0.609375   0.703125 0
  0.546875   0.953125 0
  0.890625   0.796875 0
  0.625000   0.718750 0
  0.562500   0.968750 0
  0.906250   0.812500 0
  0.734375   0.859375 0
  0.796875   0.609375 0
  0.718750   0.875000 0
  0.781250   0.625000 0
  0.750000   0.859375 0
  0.812500   0.609375 0
  0.812500   0.546875 0
  0.750000   0.812500 0
  0.734375   0.843750 0
  0.796875   0.593750 0
  0.750000   0.843750 0
  0.812500   0.593750 0
[...]
CELL_DATA 4096
VECTORS vector_value float
0.248395 -0.863747 0
0.20879 -0.865118 0
0.171932 -0.843445 0
0.238127 -0.88709 0
0.251427 -0.808971 0
0.236532 -0.839191 0
0.307642 -0.904392 0
0.344228 -0.827096 0
0.0722759 -0.742511 0
0.206858 -0.804634 0
0.209781 -0.849223 0
0.0916037 -0.877896 0
0.0854661 -0.816214 0
0.145271 -0.800407 0
0.0443669 -0.754328 0
0.01431 -0.741494 0
-0.0542242 -0.362005 0
-0.0611602 -0.371347 0
-0.0466065 -0.374795 0
-0.0367145 -0.372258 0
-0.112748 -0.396191 0
-0.0730463 -0.381699 0
-0.0762205 -0.339191 0
-0.128587 -0.353957 0
-0.0873538 -0.317107 0
-0.0713393 -0.339039 0
-0.106691 -0.339344 0
-0.11081 -0.297034 0
0.0371604 -0.983891 0
0.0313527 -0.943332 0
0.0127958 -0.903906 0
0.011869 -0.916093 0
-0.04108 -0.344224 0
-0.0625703 -0.353366 0
-0.0707312 -0.330577 0
-0.0377693 -0.34833 0
0.023196 -0.860239 0
0.0502041 -0.956787 0
0.0603123 -0.921051 0
0.0185432 -0.818164 0
0.105818 -1.26504 0
0.16899 -1.34633 0
0.215091 -1.55261 0
0.146784 -1.50314 0
-0.192928 -0.515187 0
-0.286501 -0.596452 0
-0.348777 -0.691944 0
-0.267918 -0.614264 0
0.150087 -1.26803 0
0.0859022 -1.22757 0
0.0931856 -1.31213 0
0.107106 -1.29705 0
-0.0317272 -0.307871 0
-0.025156 -0.34012 0
0.0053924 -0.36632 0
-0.0117221 -0.340766 0
0.136032 -1.0012 0
0.0905631 -0.895638 0
0.125163 -0.905907 0
0.206897 -1.07793 0
-0.0548772 -0.484142 0
-0.0738215 -0.553405 0
-0.00335876 -0.488946 0
-0.00253734 -0.429727 0
0.163673 -1.54605 0
0.14726 -1.60527 0
0.103412 -1.48929 0
0.117801 -1.6752 0
-0.540222 -0.815892 0
-0.46569 -0.818905 0
-0.433009 -0.741835 0
-0.519164 -0.728505 0
0.264335 -1.53071 0
0.229028 -1.52991 0
0.295278 -1.56997 0
0.303427 -1.45387 0
-0.237663 -0.668113 0
-0.155477 -0.639553 0
-0.126099 -0.561897 0
-0.207603 -0.582851 0
0.288645 -1.23064 0
0.25205 -1.15592 0
0.188292 -1.04771 0
0.272523 -1.10378 0
0.104853 -1.2002 0
0.0389908 -1.22027 0
0.0385418 -0.927937 0
0.0886402 -1.01026 0
0.207894 -1.40001 0
0.207443 -1.40791 0
0.213442 -1.35948 0
0.212226 -1.4187 0
-0.152428 -0.753694 0
-0.163661 -0.715516 0
-0.235234 -0.739374 0
-0.233132 -0.864851 0
0.00698577 -0.957989 0
-0.00340563 -1.24311 0
-0.000746029 -1.15449 0
-0.00763566 -1.02916 0
0.166212 -1.03352 0
0.15586 -1.10162 0
0.120132 -1.19157 0
0.138644 -1.00132 0
0.182401 -1.42729 0
0.19799 -1.42638 0
0.193041 -1.35416 0
0.183783 -1.38879 0
-0.0131773 -0.549414 0
-0.0989358 -0.643188 0
-0.102779 -0.691288 0
-0.033665 -0.665288 0
0.0125131 -0.808398 0
0.0273504 -0.852393 0
0.104086 -0.925857 0
0.0810571 -0.805832 0
0.00328105 -0.77985 0
0.0232791 -0.792092 0
0.0262825 -0.739523 0
0.00996771 -0.729639 0
0.240596 -1.63884 0
0.216022 -1.57657 0
0.153815 -1.55667 0
0.199564 -1.66937 0
0.370313 -0.920774 0
0.426107 -0.990917 0
0.443245 -0.904041 0
0.432116 -0.891044 0
0.233023 -1.58582 0
0.283139 -1.33557 0
0.266915 -1.2758 0
0.169222 -1.43358 0
0.0174098 -1.45561 0
-0.00394775 -1.36107 0
0.0701541 -1.2877 0
0.0472154 -1.46445 0
-0.334672 -0.727369 0
-0.390273 -0.824101 0
-0.307144 -0.742239 0
-0.280433 -0.691744 0
0.268512 -1.22324 0
0.243228 -1.23026 0
0.293506 -1.22952 0
0.263446 -1.18497 0
0.303867 -1.29032 0
0.347525 -1.03433 0
0.296113 -0.987161 0
0.220573 -1.19497 0
0.24814 -1.26335 0
0.205935 -1.3165 0
0.176035 -1.39152 0
0.140327 -1.19495 0
0.202714 -1.24258 0
0.230823 -1.23367 0
0.241525 -1.20111 0
0.231303 -1.23309 0
-0.245472 -0.280502 0
-0.266038 -0.29658 0
-0.313793 -0.331094 0
-0.270297 -0.310353 0
0.185876 -1.3575 0
0.0835049 -1.37094 0
0.0493674 -1.11451 0
0.156925 -1.20499 0
-0.158264 -0.291221 0
-0.210251 -0.287663 0
-0.208064 -0.277567 0
-0.181506 -0.295711 0
-0.0278747 -1.13147 0
0.00217454 -1.30678 0
-0.0238122 -1.15921 0
-0.0534137 -1.20034 0
0.237633 -1.48496 0
0.23035 -1.4375 0
0.239594 -1.38594 0
0.260774 -1.56787 0
0.24953 -1.48398 0
0.302927 -1.51728 0
0.291783 -1.4514 0
0.200505 -1.36208 0
-0.219064 -0.328176 0
-0.212008 -0.315033 0
-0.154874 -0.31834 0
-0.149019 -0.321518 0
0.019649 -1.00521 0
0.0188168 -0.970468 0
0.0115989 -1.07945 0
-0.0172671 -1.10719 0
0.104612 -1.42891 0
0.166733 -1.37171 0
0.159788 -1.51465 0
0.0203293 -1.57493 0
0.264096 -1.37198 0
0.276267 -1.44792 0
0.273283 -1.56939 0
0.293936 -1.62458 0
-0.353095 -0.341052 0
-0.290918 -0.324967 0
-0.305145 -0.341918 0
-0.402967 -0.380562 0
0.0484718 -1.04894 0
0.243187 -1.27116 0
0.319891 -1.06226 0
0.0168429 -1.31497 0
0.255756 -1.18346 0
-0.373147 -0.880639 0
0.232459 -1.08293 0
0.175938 -1.20028 0
0.121137 -1.28738 0
0.194264 -1.09347 0
0.17198 -1.31408 0
0.24569 -0.947013 0
0.0600898 -0.620876 0
0.160247 -1.02637 0
-0.0312897 -0.400435 0
0.349182 -1.31123 0
0.219537 -0.947291 0
0.356168 -1.20302 0
0.170905 -0.797658 0
0.274897 -1.22948 0
0.119996 -0.64079 0
0.297548 -1.28334 0
0.130098 -0.641937 0
0.106288 -1.25383 0
0.195168 -1.19036 0
0.137963 -1.20926 0
0.220092 -1.34248 0
0.240308 -1.33409 0
0.142538 -1.25017 0
0.235308 -1.58964 0
0.272201 -1.30856 0
0.22024 -1.2877 0
0.220996 -0.657797 0
-0.152111 -0.835555 0
0.193686 -0.687863 0
-0.170971 -0.684143 0
0.215173 -0.671673 0
-0.100275 -0.899675 0
0.332207 -1.12744 0
0.185224 -1.37953 0
0.367097 -1.08477 0
0.217894 -1.34217 0
0.170032 -1.36053 0
0.28653 -1.38206 0
0.109348 -1.29276 0
0.348839 -1.48454 0
0.0574074 -1.12873 0
0.00533876 -0.372652 0
-0.00232581 -1.01219 0
-0.0346395 -0.434602 0
-0.0179653 -0.840435 0
-0.0756028 -0.320472 0
-0.026953 -0.396913 0
-0.0532225 -0.775084 0
-0.0648027 -0.330039 0
-0.0156401 -0.812788 0
-0.0415034 -0.303067 0
-0.000684126 -0.395719 0
0.0419373 -0.901301 0
-0.0439569 -0.319936 0
0.0551309 -1.55375 0
0.470645 -1.57427 0
0.109049 -1.38636 0
0.40328 -1.49152 0
0.0743184 -1.35063 0
0.375586 -1.54684 0
0.293122 -1.44403 0
0.207198 -1.55511 0
0.247282 -1.48039 0
0.127441 -1.45009 0
0.144074 -1.43001 0
0.0890497 -1.52739 0
0.387028 -1.49579 0
0.186594 -0.57592 0
-0.250187 -0.602177 0
0.192184 -0.65504 0
-0.202729 -0.689091 0
0.152244 -0.557313 0
-0.263755 -0.526173 0
0.0991466 -0.426092 0
0.22073 -1.37675 0
0.123412 -0.462152 0
0.17537 -1.46298 0
0.235649 -0.713239 0
-0.179278 -0.726693 0
0.156014 -0.539641 0
0.199783 -1.24589 0
0.125294 -0.483542 0
0.254304 -1.31579 0
0.0350696 -1.36403 0
0.133426 -1.07299 0
-0.315675 -0.869268 0
0.291163 -1.17895 0
0.204101 -1.33071 0
0.259806 -1.14822 0
0.212289 -1.34286 0
0.236326 -1.09805 0
0.216286 -1.37662 0
0.179577 -1.12731 0
-0.19232 -0.977604 0
0.0530079 -1.08616 0
0.239934 -1.12422 0
0.0856192 -1.12015 0
0.251518 -1.04967 0
0.201966 -1.36682 0
0.180395 -1.24528 0
0.181984 -1.16878 0
-0.0816214 -0.997972 0
-0.179451 -0.406052 0
0.176318 -1.31418 0
0.0927577 -1.08785 0
0.222892 -0.669301 0
-0.203521 -0.604687 0
0.121166 -1.67278 0
0.193696 -1.38082 0
0.225606 -1.6109 0
0.223552 -1.42303 0
0.439617 -0.987482 0
0.284119 -1.08189 0
0.398877 -1.03098 0
0.266076 -1.09622 0
0.403292 -0.895859 0
0.248395 -1.15821 0
0.200579 -0.897705 0
-0.00132458 -0.559869 0
0.150931 -0.73064 0
-0.251821 -0.457753 0
0.178204 -1.10263 0
-0.00157927 -0.448582 0
0.0922381 -0.892472 0
-0.221217 -0.418734 0
0.171415 -1.48327 0
0.185258 -1.36247 0
0.237523 -1.51288 0
0.274495 -1.46518 0
0.00800632 -0.719047 0
0.0536075 -0.799933 0
-0.270143 -0.406393 0
0.0211315 -0.708705 0
0.00719038 -0.731888 0
0.179195 -1.50001 0
0.256496 -1.34759 0
0.166644 -0.8051 0
-0.204821 -0.466968 0
0.00734062 -0.692944 0
0.19289 -1.42832 0
0.123878 -1.305 0
0.277255 -1.2579 0
0.0984689 -1.25387 0
0.141683 -1.29116 0
0.0891904 -1.11731 0
0.107619 -1.34598 0
0.143506 -1.02807 0
-0.00798909 -0.813837 0
-0.081666 -0.417913 0
-0.0118518 -0.624165 0
-0.17263 -0.499104 0
-0.00811777 -0.805804 0
-0.0908813 -0.479404 0
-0.0577342 -0.763719 0
-0.0457183 -0.322462 0
-0.0736755 -0.729859 0
-0.0557529 -0.311463 0
-0.0113006 -0.601526 0
-0.12943 -0.425198 0
-0.0732881 -0.627449 0
-0.0724011 -0.306141 0
0.0216966 -1.39318 0
0.0886844 -1.56129 0
-0.0134903 -1.49264 0
8.2409e-05 -1.38085 0
0.220928 -1.43666 0
0.221892 -1.21519 0
0.188151 -1.29707 0
0.241858 -1.22209 0
0.196373 -1.33584 0
0.21101 -1.35084 0
0.165215 -1.22563 0
0.195848 -1.40803 0
0.206305 -1.36406 0
0.148916 -1.45654 0
0.139493 -1.44141 0
0.178957 -1.36504 0
0.178536 -1.46727 0
0.217554 -1.29198 0
0.213639 -1.15375 0
0.261397 -1.40088 0
0.153765 -1.10765 0
0.157641 -0.567177 0
0.135605 -1.26238 0
0.115708 -1.58116 0
0.353834 -1.45552 0
0.250824 -1.74393 0
0.18097 -1.34151 0
0.142027 -0.526721 0
-0.00714092 -1.63435 0
0.0775926 -0.450365 0
0.306587 -1.32631 0
0.308737 -1.71982 0
0.219491 -1.39562 0
0.126825 -0.473755 0
0.0631618 -1.57512 0
0.0496803 -0.371753 0
0.275966 -1.3082 0
0.0805148 -0.376995 0
0.273047 -1.3641 0
0.185224 -0.585366 0
0.0331233 -1.34277 0
0.105434 -0.503968 0
0.272635 -1.26629 0
0.193256 -1.36163 0
0.191146 -0.991057 0
0.203348 -1.35565 0
0.258959 -1.01552 0
0.178431 -1.45718 0
0.315476 -0.993326 0
0.204108 -1.44067 0
0.253322 -0.919814 0
0.194372 -1.31095 0
0.386675 -1.07108 0
0.230413 -1.38523 0
0.30586 -1.06702 0
0.264518 -1.35696 0
0.307907 -1.23308 0
0.336661 -1.15714 0
0.191863 -1.28806 0
-0.0729497 -1.22537 0
-0.180338 -1.02446 0
0.352846 -0.974447 0
0.169242 -1.47594 0
-0.343495 -0.935807 0
0.418445 -1.00451 0
0.165977 -1.4957 0
0.300761 -1.98929 0
-0.251154 -0.929247 0
0.392256 -1.04616 0
0.169271 -1.39936 0
-0.248938 -0.990708 0
-0.0150921 -1.03305 0
0.120625 -1.09761 0
0.0198502 -1.39605 0
0.15433 -1.13889 0
-0.322077 -0.820677 0
0.174168 -1.64115 0
-0.198878 -0.969741 0
-0.183874 -0.969057 0
0.00509477 -1.4436 0
0.197082 -1.06696 0
-0.383983 -0.930957 0
-0.140565 -0.909613 0
-0.199915 -0.93983 0
0.0816127 -1.3032 0
0.0949243 -1.27404 0
0.106692 -1.15732 0
-0.0164095 -0.376338 0
0.123415 -1.26129 0
0.0180309 -0.371904 0
0.195621 -1.22698 0
0.0279345 -0.405035 0
0.249192 -1.28992 0
-0.00968913 -0.395306 0
0.139946 -1.21231 0
0.134369 -1.27489 0
0.162309 -1.40991 0
0.0320404 -0.510284 0
-0.095643 -0.807366 0
-0.122582 -0.308768 0
-0.320844 -0.972291 0
-0.168564 -0.891092 0
-0.120988 -0.336552 0
0.437178 -1.52764 0
0.0706249 -1.44136 0
0.391821 -1.45624 0
0.116551 -1.57667 0
0.0033512 -1.01958 0
0.0287604 -1.27227 0
0.278216 -1.3441 0
0.319543 -1.00534 0
0.0678623 -1.19588 0
0.0976836 -1.11368 0
0.288108 -1.26319 0
0.249604 -1.31565 0
-0.0868509 -0.898208 0
0.228304 -0.799566 0
0.400875 -1.3385 0
0.152381 -1.67863 0
0.0901946 -1.38807 0
0.12097 -1.10002 0
0.0333711 -1.3525 0
0.0855458 -1.65786 0
0.215674 -1.5302 0
0.303178 -1.01789 0
0.18918 -1.30964 0
-0.249892 -0.93566 0
-0.4583 -0.403592 0
0.353905 -1.63599 0
0.116299 -1.39955 0
-0.106094 -1.03341 0
-0.257011 -0.976513 0
-0.335274 -0.360201 0
-0.193999 -0.970146 0
-0.153317 -0.29963 0
0.0770628 -0.587754 0
0.236265 -1.22214 0
0.354109 -1.49538 0
0.122572 -1.44659 0
-0.0272596 -1.65223 0
0.136591 -1.43863 0
-0.105632 -1.12103 0
-0.178711 -0.817401 0
-0.443179 -0.372139 0
0.37251 -1.52118 0
0.152975 -1.57521 0
0.0753759 -1.48588 0
-0.143328 -1.01621 0
-0.16958 -0.344035 0
-0.212533 -0.957711 0
-0.23694 -0.323194 0
0.149055 -1.42319 0
0.0917553 -1.46809 0
0.0652054 -1.10584 0
0.195979 -1.38565 0
0.163163 -1.36809 0
0.184546 -1.32249 0
0.337553 -1.24198 0
0.0361631 -1.48931 0
0.255499 -1.51754 0
0.130136 -1.26822 0
0.226474 -0.96889 0
0.0456288 -1.56815 0
0.295288 -1.21979 0
0.469168 -0.947415 0
0.201682 -1.42757 0
0.121864 -1.07277 0
0.0252223 -1.19863 0
0.143587 -1.47386 0
-0.126702 -0.89833 0
-0.261081 -0.396461 0
0.00967445 -1.08438 0
0.239386 -0.923626 0
0.101235 -1.78156 0
0.206852 -1.38165 0
0.039514 -1.06232 0
0.00104699 -0.954305 0
-0.196535 -0.391315 0
0.168745 -1.27145 0
0.242614 -1.07521 0
0.120184 -1.6054 0
0.0371658 -1.30914 0
0.0176277 -1.6361 0
0.210325 -1.39903 0
0.38399 -1.40375 0
-0.212051 -0.899996 0
-0.368032 -0.371633 0
-0.112876 -0.775589 0
0.217727 -0.80891 0
-0.00454882 -1.56222 0
0.1132 -1.38351 0
0.202633 -1.152 0
0.226477 -1.4736 0
0.283976 -1.2523 0
0.299387 -1.43807 0
0.0241842 -1.51606 0
0.357785 -1.34224 0
0.183448 -1.6002 0
0.048494 -1.29225 0
0.226986 -0.803838 0
0.231737 -1.34555 0
0.272366 -1.44567 0
0.118153 -1.36388 0
0.036226 -0.796259 0
0.160581 -0.842515 0
0.351194 -1.55991 0
0.123584 -1.55728 0
0.20324 -1.41279 0
0.126087 -1.11079 0
-0.0512664 -0.867389 0
-0.275464 -0.43105 0
0.252659 -1.40373 0
-0.00438584 -1.70345 0
0.227441 -1.46293 0
0.0766808 -1.50941 0
0.146186 -1.75735 0
0.284099 -1.6071 0
0.241859 -1.61673 0
0.0991424 -0.683306 0
0.287729 -1.59408 0
0.0912327 -1.51478 0
-0.0619089 -0.734562 0
-0.09767 -0.333733 0
-0.085605 -0.848498 0
-0.0929811 -0.329656 0
0.320113 -1.53485 0
0.14666 -1.54867 0
0.0385092 -1.80046 0
0.199891 -1.58643 0
0.3622 -1.48517 0
0.285319 -1.55528 0
0.0791353 -1.36322 0
-0.0450866 -1.02133 0
0.224564 -0.823044 0
0.373236 -1.40687 0
0.116608 -1.08256 0
0.325778 -1.59506 0
0.125329 -1.45456 0
0.142581 -0.757841 0
0.303881 -1.74456 0
0.0401878 -1.61594 0
-0.112006 -1.58528 0
-0.00686457 -1.09888 0
0.199133 -1.37794 0
0.00666732 -1.64299 0
0.372722 -1.50893 0
0.083458 -1.55431 0
0.205774 -1.25292 0
0.198461 -1.35306 0
0.252064 -1.35805 0
0.225899 -1.13572 0
0.102261 -1.57503 0
0.345676 -1.5976 0
0.0490912 -1.50332 0
0.222947 -0.92484 0
0.237955 -1.47813 0
0.0585143 -1.05744 0
-0.0360949 -0.725159 0
-0.375001 -0.357318 0
-0.144451 -1.71955 0
0.0569631 -1.247 0
-0.111139 -1.81786 0
0.0367855 -1.15477 0
-0.133316 -0.85273 0
-0.373784 -0.395359 0
-0.0215677 -0.98319 0
0.197205 -0.929127 0
0.312972 -1.52298 0
-0.0816608 -1.7885 0
-0.123214 -1.88934 0
0.0785562 -1.32759 0
0.308148 -1.22568 0
0.236407 -1.25605 0
-0.0998389 -0.751339 0
-0.416497 -0.364627 0
0.0547203 -0.714963 0
0.226734 -1.34375 0
-0.0550388 -0.775802 0
-0.342498 -0.409966 0
0.0420721 -0.756449 0
0.279026 -1.22754 0
0.302786 -1.40777 0
0.0349495 -0.761784 0
0.0588474 -1.01293 0
0.178723 -1.25008 0
0.0403393 -1.11955 0
0.151747 -1.16439 0
0.140434 -1.16873 0
0.208108 -1.18889 0
0.151598 -0.916322 0
0.224315 -1.15646 0
0.353234 -0.880465 0
0.248985 -1.10267 0
-0.0691303 -0.599223 0
-0.0647891 -0.345849 0
0.246655 -0.890843 0
0.247333 -1.17241 0
0.228124 -1.18467 0
0.211739 -1.14415 0
0.141539 -1.27211 0
0.0552667 -1.7331 0
0.270271 -1.26953 0
0.192455 -1.16399 0
0.3168 -1.11012 0
0.241352 -1.1368 0
-0.163073 -0.804431 0
0.255633 -1.28818 0
0.17996 -0.761615 0
0.273297 -1.34183 0
0.215105 -0.969328 0
0.195981 -1.32712 0
0.179838 -1.01745 0
0.191112 -1.33472 0
0.163347 -0.746246 0
0.314645 -1.26767 0
0.0620881 -1.12633 0
0.253839 -0.961303 0
0.0570433 -1.28082 0
0.229805 -0.816343 0
0.148655 -1.34128 0
0.208677 -0.94302 0
0.142575 -1.28757 0
0.188518 -0.764841 0
0.145869 -1.37978 0
0.208631 -1.03885 0
0.22167 -1.23262 0
-0.00710086 -1.0082 0
0.206441 -1.57362 0
0.205131 -1.31271 0
0.217622 -1.04471 0
0.0555897 -1.3846 0
0.205369 -0.991018 0
-0.055805 -1.50652 0
0.0326984 -1.16313 0
-0.0533323 -1.96057 0
0.0990062 -1.36607 0
-0.007172 -1.66255 0
0.208915 -1.08039 0
-0.0431287 -1.71782 0
0.200609 -1.19416 0
-0.0922162 -1.65297 0
0.117562 -1.09874 0
-0.041907 -1.61012 0
0.133389 -1.18334 0
-0.302649 -0.392159 0
0.0173481 -0.676486 0
-0.295658 -0.866625 0
0.326981 -0.862945 0
0.149747 -1.45019 0
-0.335742 -0.959218 0
0.414464 -0.853046 0
0.173593 -1.44317 0
-0.235856 -0.924159 0
0.36257 -1.40343 0
0.176982 -1.49784 0
0.260002 -0.937042 0
0.242775 -1.19302 0
-0.0102732 -1.4017 0
0.0945724 -1.32501 0
0.232691 -0.814527 0
0.338237 -1.29287 0
0.00369656 -1.14114 0
0.242835 -0.84168 0
0.411656 -1.42444 0
0.08084 -1.47382 0
0.105327 -1.52452 0
0.139802 -1.50318 0
-0.0311062 -1.39443 0
-0.0372114 -1.22139 0
0.110106 -1.71364 0
-0.124479 -1.66658 0
0.0421379 -1.08685 0
-0.335992 -0.36579 0
0.0200149 -0.634225 0
0.308866 -2.07078 0
0.277404 -1.72391 0
-0.295501 -0.394267 0
0.0947495 -0.525993 0
-0.121964 -1.77189 0
0.0277986 -1.27797 0
-0.273468 -0.40997 0
0.109809 -0.652957 0
0.195635 -1.93585 0
0.15414 -1.47209 0
0.216474 -2.02126 0
0.253448 -1.69807 0
0.38101 -0.838406 0
0.14473 -1.2084 0
0.291631 -0.817386 0
0.108752 -0.809291 0
0.230373 -0.795589 0
0.0363278 -0.769815 0
0.267009 -0.729462 0
0.0859736 -1.16163 0
-0.019206 -0.699025 0
-0.141095 -0.299466 0
-0.0489262 -0.72887 0
-0.141877 -0.322683 0
-0.0578919 -0.755073 0
-0.0965907 -0.315645 0
-0.0386892 -0.620633 0
-0.0932765 -0.289786 0
0.130512 -1.46939 0
-0.0477249 -0.602046 0
-0.0627302 -0.336731 0
-0.0308137 -0.811835 0
-0.0494332 -0.344402 0
0.219947 -1.61674 0
-0.0183663 -0.828631 0
-0.0635785 -0.363942 0
-0.0165595 -0.588915 0
-0.110043 -0.388217 0
-0.0211263 -1.12636 0
0.0278123 -1.0649 0
0.0283118 -1.08644 0
0.0218927 -1.20512 0
-0.256978 -0.335554 0
-0.235533 -0.322967 0
-0.223301 -0.346949 0
-0.243595 -0.350389 0
0.00171782 -0.715091 0
-0.002101 -0.719792 0
0.0214144 -0.765185 0
0.0116547 -0.792306 0
0.44592 -0.842589 0
0.221901 -1.48726 0
0.457341 -1.02038 0
0.192244 -1.38553 0
0.42831 -0.943356 0
0.229664 -1.42005 0
0.470452 -0.882555 0
0.233923 -1.44184 0
-0.147068 -0.403773 0
0.125366 -0.980223 0
-0.138469 -0.50553 0
0.161544 -0.834706 0
-0.0697393 -0.538955 0
0.169705 -0.871806 0
-0.0787309 -0.399169 0
0.141147 -0.997671 0
0.19954 -0.843222 0
0.126048 -0.90693 0
0.0955093 -0.819811 0
0.136005 -0.80577 0
0.0107861 -0.646438 0
0.00619591 -0.780225 0
0.0264829 -0.791538 0
0.0251458 -0.625113 0
0.0509899 -1.43694 0
0.160673 -1.41252 0
0.0954279 -1.41342 0
0.154465 -1.36206 0
0.190512 -1.46276 0
0.187447 -1.38739 0
0.146209 -1.53453 0
0.153143 -1.42326 0
-0.00110499 -1.03656 0
0.0146824 -1.04703 0
0.0295084 -0.928164 0
0.0494813 -1.02558 0
-0.307367 -0.527617 0
-0.219633 -0.43164 0
-0.332594 -0.528107 0
-0.396055 -0.573486 0
0.237194 -0.743769 0
-0.0467024 -0.982315 0
0.226489 -0.710391 0
0.0129412 -1.08856 0
0.218227 -0.765607 0
-0.0437293 -0.741097 0
0.190635 -0.686755 0
-0.107078 -0.71742 0
0.00464238 -1.36342 0
0.0191743 -0.962622 0
0.0368974 -1.04361 0
0.0187195 -1.33459 0
0.0128622 -1.1185 0
0.0209977 -1.00744 0
0.0330791 -0.990911 0
0.00399193 -1.16646 0
-0.135103 -0.42161 0
-0.258165 -0.356946 0
-0.131472 -0.358504 0
-0.149291 -0.362604 0
-0.133352 -0.390713 0
-0.228215 -0.505478 0
-0.240571 -0.403 0
-0.211127 -0.397644 0
-0.181672 -0.470878 0
0.238421 -1.83404 0
0.242175 -1.96944 0
0.307219 -1.88092 0
0.264235 -2.05431 0
0.252187 -1.62116 0
0.25673 -1.78988 0
0.162247 -1.57208 0
0.134105 -1.75816 0
0.0226023 -0.341304 0
0.127358 -1.26744 0
0.0175751 -0.335466 0
0.127259 -1.13376 0
0.0349821 -0.351239 0
0.19249 -1.33606 0
0.0521245 -0.398335 0
0.240652 -1.40434 0
0.0457458 -0.547406 0
0.00422619 -1.43517 0
0.0677233 -0.496783 0
-0.0245548 -1.42322 0
0.106008 -0.452281 0
-0.00719892 -1.72081 0
0.0979684 -0.471121 0
-0.00600353 -1.68266 0
0.0118228 -0.730281 0
0.0116476 -0.795552 0
0.0120968 -0.751768 0
0.00991776 -0.757557 0
0.299668 -0.864098 0
0.198487 -1.30938 0
0.377233 -0.966227 0
0.178714 -1.43601 0
0.430083 -0.938216 0
0.193491 -1.37968 0
0.413556 -0.980911 0
0.159206 -1.31153 0
0.130349 -1.88754 0
0.225208 -1.56858 0
0.178497 -1.81836 0
0.325798 -1.76253 0
0.246293 -1.85878 0
0.354006 -1.79147 0
0.200965 -1.90053 0
0.294724 -1.75133 0
0.392528 -0.837071 0
0.230225 -1.34052 0
0.438925 -0.847186 0
0.2331 -1.32117 0
0.419091 -0.923255 0
0.21927 -1.5381 0
0.396604 -0.92249 0
0.203235 -1.43265 0
-0.00142131 -0.771063 0
0.046611 -0.762114 0
0.0615242 -0.832223 0
0.0229511 -0.898855 0
0.00778289 -0.634956 0
0.0203938 -0.622929 0
0.0304194 -0.810066 0
0.0132782 -0.817414 0
-0.446272 -0.650018 0
-0.409246 -0.594831 0
-0.376173 -0.610618 0
-0.379712 -0.635078 0
0.118058 -1.29486 0
0.155322 -1.57247 0
0.156903 -1.40077 0
0.170511 -1.63069 0
0.134582 -1.27874 0
0.156695 -1.72678 0
0.145992 -1.4186 0
0.102952 -1.72758 0
0.296959 -1.47668 0
0.213478 -1.49266 0
0.239478 -1.48586 0
0.170461 -1.49059 0
0.236911 -1.54649 0
0.237615 -1.41471 0
0.250566 -1.49251 0
0.30408 -1.60603 0
0.0149857 -0.953018 0
0.0372717 -0.989402 0
0.0329427 -1.00923 0
0.0255519 -0.978512 0
0.0965969 -1.21461 0
0.0649142 -1.24429 0
0.0554725 -1.14696 0
0.0951262 -1.12884 0
0.0946208 -0.974391 0
0.0936724 -1.00364 0
0.0222297 -0.972091 0
0.0275494 -0.865568 0
0.0137164 -1.18521 0
-0.0109672 -1.21273 0
0.0141324 -1.024 0
0.00633828 -1.06298 0
-0.00629423 -0.342045 0
0.135492 -1.1417 0
-0.0144925 -0.329681 0