# vtk DataFile Version 2.0
Unstructured Grid by M++
ASCII
DATASET UNSTRUCTURED_GRID
POINTS 4225 float
  0.921875   0.593750 0
  0.921875   0.609375 0
  0.656250   0.609375 0
  0.671875   0.609375 0
  0.656250   0.546875 0
  0.671875   0.546875 0
  0.656250   0.562500 0
  0.656250   0.578125 0
  0.656250   0.593750 0
  0.671875   0.593750 0
  0.671875   0.562500 0
  0.671875   0.578125 0
  0.671875   0.625000 0
  0.671875   0.640625 0
  0.906250   0.578125 0
  0.890625   0.578125 0
  0.546875   0.515625 0
  1.000000   0.890625 0
  0.515625   0.640625 0
  0.515625   0.625000 0
  1.000000   0.875000 0
  0.515625   0.656250 0
  0.515625   0.687500 0
  0.515625   0.671875 0
  1.000000   0.921875 0
  0.546875   0.531250 0
  0.546875   0.546875 0
  0.546875   0.562500 0
  0.796875   0.531250 0
  0.953125   0.890625 0
  0.953125   0.875000 0
  0.953125   0.843750 0
  0.953125   0.828125 0
  0.953125   0.812500 0
  0.531250   0.562500 0
  0.531250   0.546875 0
  0.515625   0.562500 0
  0.515625   0.546875 0
  1.000000   0.812500 0
  0.781250   0.546875 0
  0.765625   0.546875 0
  0.859375   0.921875 0
  0.921875   0.671875 0
  0.609375   0.906250 0
  0.671875   0.656250 0
  0.609375   0.921875 0
  0.671875   0.671875 0
  0.671875   0.984375 0
  0.671875   1.000000 0
  0.906250   0.984375 0
  0.906250   1.000000 0
  0.921875   0.984375 0
  0.921875   1.000000 0
  0.859375   0.609375 0
  1.000000   0.781250 0
  0.515625   0.531250 0
  0.531250   0.531250 0
  0.531250   0.515625 0
  0.515625   0.515625 0
  1.000000   0.750000 0
  0.765625   0.531250 0
  0.781250   0.531250 0
  0.781250   0.515625 0
  0.765625   0.515625 0
  0.859375   0.875000 0
  0.921875   0.625000 0
  0.859375   0.890625 0
  0.921875   0.640625 0
  0.671875   0.968750 0
  0.671875   0.953125 0
  0.921875   0.968750 0
  0.921875   0.953125 0
  0.859375   0.593750 0
  0.859375   0.578125 0
  0.875000   0.578125 0
  0.828125   0.890625 0
  0.890625   0.640625 0
  0.593750   0.890625 0
  0.656250   0.640625 0
  0.593750   0.875000 0
  0.656250   0.625000 0
  0.578125   0.890625 0
  0.640625   0.640625 0
  0.578125   0.875000 0
  0.640625   0.625000 0
  0.968750   0.890625 0
  0.984375   0.890625 0
  0.968750   0.812500 0
  0.968750   0.828125 0
  0.984375   0.812500 0
  0.984375   0.828125 0
  1.000000   0.828125 0
  0.656250   0.953125 0
  0.640625   0.953125 0
  0.890625   0.968750 0
  0.906250   0.968750 0
  0.906250   0.953125 0
  0.890625   0.953125 0
  0.531250   0.703125 0
  0.531250   0.718750 0
  0.546875   0.718750 0
  0.546875   0.703125 0
  0.593750   0.578125 0
  0.562500   0.578125 0
  0.578125   0.578125 0
  0.843750   0.578125 0
  0.828125   0.578125 0
  0.828125   0.812500 0
  0.890625   0.562500 0
  0.828125   0.796875 0
  0.953125   0.906250 0
  0.953125   0.921875 0
  0.531250   0.859375 0
  0.593750   0.609375 0
  0.531250   0.843750 0
  0.593750   0.593750 0
  0.515625   0.843750 0
  0.578125   0.593750 0
  0.515625   0.859375 0
  0.578125   0.609375 0
  0.937500   0.859375 0
  1.000000   0.609375 0
  0.921875   0.859375 0
  0.984375   0.609375 0
  0.937500   0.796875 0
  0.921875   0.796875 0
  0.984375   0.546875 0
  0.562500   0.812500 0
  0.843750   0.796875 0
  0.843750   0.812500 0
  0.859375   0.796875 0
  0.859375   0.812500 0
  1.000000   0.906250 0
  0.984375   0.906250 0
  0.968750   0.906250 0
  0.968750   0.921875 0
  0.984375   0.921875 0
  0.593750   0.921875 0
  0.656250   0.671875 0
  0.593750   0.906250 0
  0.656250   0.656250 0
  0.578125   0.906250 0
  0.640625   0.656250 0
  0.578125   0.921875 0
  0.640625   0.671875 0
  1.000000   0.843750 0
  0.984375   0.843750 0
  0.968750   0.843750 0
  0.968750   0.859375 0
  0.968750   0.875000 0
  1.000000   0.859375 0
  0.984375   0.859375 0
  0.984375   0.875000 0
  0.656250   1.000000 0
  0.656250   0.984375 0
  0.656250   0.968750 0
  0.640625   0.968750 0
  0.640625   1.000000 0
  0.640625   0.984375 0
  0.843750   0.921875 0
  0.906250   0.671875 0
  0.843750   0.906250 0
  0.906250   0.656250 0
  0.828125   0.906250 0
  0.890625   0.656250 0
  0.828125   0.921875 0
  0.890625   0.671875 0
  0.781250   0.859375 0
  0.843750   0.609375 0
  0.781250   0.843750 0
  0.843750   0.593750 0
  0.765625   0.843750 0
  0.828125   0.593750 0
  0.765625   0.859375 0
  0.828125   0.609375 0
  0.968750   0.609375 0
  0.906250   0.859375 0
  0.953125   0.609375 0
  0.890625   0.859375 0
  0.937500   0.609375 0
  0.875000   0.859375 0
  0.562500   0.593750 0
  0.546875   0.593750 0
  0.531250   0.593750 0
  0.531250   0.609375 0
  0.562500   0.609375 0
  0.546875   0.609375 0
  0.609375   0.625000 0
  0.546875   0.875000 0
  0.609375   0.640625 0
  0.546875   0.890625 0
  0.625000   0.640625 0
  0.562500   0.890625 0
  0.625000   0.625000 0
  0.562500   0.875000 0
  0.921875   0.843750 0
  0.984375   0.593750 0
  0.937500   0.843750 0
  1.000000   0.593750 0
  0.921875   0.812500 0
  0.921875   0.828125 0
  0.984375   0.578125 0
  0.937500   0.828125 0
  1.000000   0.578125 0
  0.937500   0.812500 0
  1.000000   0.562500 0
  0.578125   0.828125 0
  0.921875   0.781250 0
  0.937500   0.781250 0
  1.000000   0.531250 0
  0.921875   0.765625 0
  0.984375   0.515625 0
  0.937500   0.765625 0
  0.625000   0.656250 0
  0.562500   0.906250 0
  0.609375   0.656250 0
  0.546875   0.906250 0
  0.625000   0.671875 0
  0.562500   0.921875 0
  0.609375   0.671875 0
  0.546875   0.921875 0
  0.859375   0.781250 0
  0.859375   0.765625 0
  0.828125   0.671875 0
  0.765625   0.921875 0
  0.828125   0.734375 0
  0.765625   0.984375 0
  0.875000   0.843750 0
  0.937500   0.593750 0
  0.890625   0.843750 0
  0.953125   0.593750 0
  0.906250   0.843750 0
  0.968750   0.593750 0
  0.906250   0.828125 0
  0.968750   0.578125 0
  0.937500   0.578125 0
  0.953125   0.578125 0
  0.906250   0.765625 0
  0.875000   0.765625 0
  0.953125   0.515625 0
  0.531250   0.781250 0
  0.671875   0.890625 0
  0.531250   0.921875 0
  0.953125   0.656250 0
  0.828125   0.781250 0
  0.843750   0.781250 0
  0.703125   0.984375 0
  0.687500   0.984375 0
  0.843750   0.875000 0
  0.906250   0.625000 0
  0.671875   0.781250 0
  0.734375   0.531250 0
  0.906250   0.609375 0
  0.671875   0.765625 0
  0.734375   0.515625 0
  0.906250   0.593750 0
  0.890625   0.593750 0
  0.875000   0.593750 0
  0.828125   0.875000 0
  0.890625   0.625000 0
  0.656250   0.781250 0
  0.718750   0.531250 0
  0.890625   0.609375 0
  0.656250   0.765625 0
  0.718750   0.515625 0
  0.875000   0.609375 0
  0.640625   0.765625 0
  0.703125   0.515625 0
  0.812500   0.921875 0
  0.875000   0.671875 0
  0.812500   0.875000 0
  0.875000   0.625000 0
  0.640625   0.781250 0
  0.703125   0.531250 0
  0.812500   0.515625 0
  0.750000   0.828125 0
  0.812500   0.578125 0
  0.687500   1.000000 0
  0.937500   0.656250 0
  0.875000   0.906250 0
  0.531250   0.656250 0
  0.890625   0.906250 0
  0.906250   0.906250 0
  0.562500   0.656250 0
  0.906250   0.890625 0
  0.562500   0.640625 0
  0.968750   0.625000 0
  0.906250   0.875000 0
  0.562500   0.625000 0
  0.937500   0.640625 0
  0.875000   0.890625 0
  0.890625   0.890625 0
  0.546875   0.640625 0
  0.953125   0.625000 0
  0.890625   0.875000 0
  0.546875   0.625000 0
  0.546875   0.687500 0
  0.890625   0.937500 0
  0.937500   0.625000 0
  0.875000   0.875000 0
  0.531250   0.625000 0
  0.531250   0.640625 0
  0.546875   0.656250 0
  0.937500   0.968750 0
  0.687500   0.968750 0
  0.953125   0.968750 0
  0.703125   0.968750 0
  0.968750   0.968750 0
  0.718750   0.968750 0
  0.718750   0.906250 0
  0.968750   0.953125 0
  0.718750   0.953125 0
  0.968750   0.937500 0
  0.859375   0.906250 0
  0.921875   0.656250 0
  0.718750   0.937500 0
  0.828125   0.531250 0
  0.937500   0.953125 0
  0.687500   0.953125 0
  0.953125   0.953125 0
  0.703125   0.953125 0
  0.703125   0.890625 0
  0.843750   0.515625 0
  0.953125   0.937500 0
  0.953125   1.000000 0
  0.703125   0.937500 0
  0.937500   0.937500 0
  0.687500   0.937500 0
  0.703125   0.906250 0
  0.718750   0.890625 0
  0.687500   0.890625 0
  0.687500   0.765625 0
  0.750000   0.515625 0
  0.687500   0.781250 0
  0.750000   0.531250 0
  0.859375   0.937500 0
  0.921875   0.687500 0
  0.687500   0.796875 0
  0.750000   0.546875 0
  0.578125   0.750000 0
  0.515625   1.000000 0
  0.843750   0.765625 0
  0.578125   0.734375 0
  0.515625   0.984375 0
  0.562500   0.734375 0
  0.828125   0.750000 0
  0.765625   1.000000 0
  0.562500   0.750000 0
  0.562500   0.718750 0
  0.578125   0.515625 0
  0.921875   0.703125 0
  0.921875   0.718750 0
  0.593750   0.515625 0
  0.687500   0.875000 0
  0.750000   0.625000 0
  0.578125   0.531250 0
  0.921875   0.750000 0
  0.703125   0.875000 0
  0.765625   0.625000 0
  0.593750   0.531250 0
  0.875000   0.968750 0
  0.937500   0.718750 0
  0.703125   0.828125 0
  0.765625   0.578125 0
  0.937500   0.734375 0
  0.703125   0.812500 0
  0.765625   0.562500 0
  0.890625   0.687500 0
  0.828125   0.937500 0
  0.656250   0.796875 0
  0.718750   0.546875 0
  0.890625   0.718750 0
  0.828125   0.968750 0
  0.906250   0.796875 0
  0.718750   0.828125 0
  0.781250   0.578125 0
  0.890625   0.703125 0
  0.828125   0.953125 0
  0.656250   0.859375 0
  0.906250   0.781250 0
  0.968750   0.531250 0
  0.546875   0.796875 0
  0.671875   0.796875 0
  0.734375   0.546875 0
  0.843750   0.953125 0
  0.906250   0.703125 0
  0.671875   0.875000 0
  0.718750   0.812500 0
  0.781250   0.562500 0
  0.875000   0.812500 0
  0.531250   0.890625 0
  0.593750   0.640625 0
  0.937500   0.890625 0
  0.875000   0.781250 0
  0.609375   0.703125 0
  0.546875   0.953125 0
  0.890625   0.796875 0
  0.625000   0.718750 0
  0.562500   0.968750 0
  0.906250   0.812500 0
  0.734375   0.859375 0
  0.796875   0.609375 0
  0.718750   0.875000 0
  0.781250   0.625000 0
  0.750000   0.859375 0
  0.812500   0.609375 0
  0.812500   0.546875 0
  0.750000   0.812500 0
  0.734375   0.843750 0
  0.796875   0.593750 0
  0.750000   0.843750 0
  0.812500   0.593750 0
[...]
CELL_DATA 4096
VECTORS vector_value float
-0.103377 -0.564387 0
-0.0957671 -0.571642 0
-0.0484692 -0.549169 0
-0.0687893 -0.487902 0
-0.270329 -1.0343 0
-0.193738 -0.84062 0
-0.156905 -0.669592 0
-0.256282 -1.01801 0
-0.079147 -0.986558 0
-0.164618 -0.900455 0
-0.240345 -1.13987 0
-0.0996848 -1.15217 0
-0.0342083 -0.597422 0
-0.0983932 -0.664277 0
-0.041878 -0.702013 0
-0.0192367 -0.643285 0
0.32006 -1.70001 0
0.314609 -1.81376 0
0.509377 -1.77641 0
0.433958 -1.6755 0
-0.019906 -1.72551 0
0.118569 -1.86974 0
0.157497 -1.60459 0
0.0814388 -1.60412 0
0.208181 -2.13857 0
0.123964 -1.98434 0
-0.0578768 -2.10129 0
-0.028792 -2.12376 0
0.00953873 -0.696407 0
0.0507388 -0.64802 0
0.0103945 -0.740391 0
-0.00397939 -0.74275 0
0.5675 -1.94801 0
0.346223 -1.99089 0
0.405154 -1.94183 0
0.600141 -1.92773 0
0.0263073 -0.701711 0
0.0599664 -0.588703 0
0.0448784 -0.610999 0
0.0273233 -0.641344 0
0.0935958 -0.513643 0
0.133517 -0.498587 0
0.122454 -0.509387 0
0.0758039 -0.518804 0
0.723485 -2.3477 0
0.676535 -2.38203 0
0.533861 -2.39069 0
0.637964 -2.41264 0
0.145203 -0.525355 0
0.111075 -0.54026 0
0.112889 -0.488029 0
0.149695 -0.477958 0
0.785704 -1.906 0
0.855303 -1.87657 0
0.857129 -1.92522 0
0.804599 -1.95759 0
0.0548902 -0.603099 0
0.0300241 -0.623002 0
0.0339534 -0.627636 0
0.0766589 -0.661952 0
0.716112 -1.95394 0
0.54256 -1.81596 0
0.50151 -1.62606 0
0.614464 -1.62321 0
0.0521851 -0.53732 0
0.0461083 -0.48558 0
0.0257872 -0.501202 0
0.0264259 -0.50958 0
0.0840779 -2.58182 0
0.180327 -2.58967 0
0.310949 -2.45289 0
0.287949 -2.59028 0
-0.0908782 -0.503846 0
-0.0511772 -0.443325 0
-0.0924628 -0.530494 0
-0.121732 -0.534697 0
0.600697 -2.53654 0
0.620863 -2.02797 0
0.80948 -2.14328 0
0.709124 -2.27389 0
0.154937 -0.565252 0
0.155165 -0.601287 0
0.111346 -0.58867 0
0.147824 -0.68758 0
0.0476064 -0.494683 0
0.00623146 -0.476856 0
-0.00887368 -0.459013 0
0.0162724 -0.48953 0
0.0301071 -0.344631 0
-0.00868198 -0.350332 0
-0.0324256 -0.412636 0
0.0136072 -0.367069 0
0.377025 -2.09469 0
0.497768 -2.02967 0
0.477552 -2.58308 0
0.340698 -2.58422 0
-0.0121798 -0.463508 0
-0.0202127 -0.462187 0
-0.0151028 -0.491363 0
0.000574644 -0.47904 0
0.0776931 -0.551124 0
0.11377 -0.569067 0
0.0761234 -0.513015 0
0.0450046 -0.54003 0
0.021989 -0.297099 0
0.00757496 -0.309796 0
0.0353273 -0.313016 0
0.041639 -0.280502 0
0.481532 -1.64323 0
0.485234 -1.72356 0
0.451052 -1.72714 0
0.446645 -1.66044 0
0.00086222 -0.602844 0
0.0293394 -0.622724 0
0.0503285 -0.558032 0
0.0219098 -0.535245 0
-0.0134552 -0.567778 0
-0.0138858 -0.571577 0
-0.00821688 -0.538187 0
-0.00338117 -0.51289 0
-0.0414076 -0.475525 0
-0.0142058 -0.425335 0
-9.44445e-05 -0.398959 0
-0.0226867 -0.455524 0
-0.10589 -1.29271 0
-0.190925 -1.30767 0
-0.147428 -1.01662 0
-0.05548 -0.941894 0
0.152634 -0.489877 0
0.153018 -0.494746 0
0.157251 -0.513018 0
0.162819 -0.481531 0
0.0164398 -0.587689 0
0.0140564 -0.504969 0
0.0592539 -0.507952 0
0.0431303 -0.565804 0
0.426772 -2.57808 0
0.299823 -2.7645 0
0.435982 -2.58622 0
0.577333 -2.54926 0
0.110001 -0.639407 0
0.171158 -0.63913 0
0.180242 -0.765137 0
0.128807 -0.729334 0
-0.543427 -2.03292 0
-0.29866 -1.64392 0
-0.204296 -1.46667 0
-0.39222 -1.71732 0
0.208574 -0.738489 0
0.22455 -0.649869 0
0.273986 -0.653788 0
0.228707 -0.686106 0
0.0620766 -0.680983 0
0.0815809 -0.700345 0
0.0801071 -0.660673 0
0.077033 -0.685046 0
-0.579884 -1.84363 0
-0.630509 -1.99166 0
-0.807117 -2.13882 0
-0.771747 -1.75388 0
-0.0708191 -0.605643 0
-0.0315327 -0.578763 0
-0.0428583 -0.735123 0
-0.070284 -0.724613 0
-0.13288 -1.79301 0
-0.363373 -1.87518 0
-0.295985 -1.78174 0
-0.119954 -1.78691 0
0.00893365 -0.715231 0
0.0171292 -0.581382 0
0.0364224 -0.612233 0
0.0366821 -0.665724 0
0.165231 -0.508813 0
0.162097 -0.578361 0
0.122727 -0.580805 0
0.150265 -0.536976 0
0.0435266 -0.53265 0
0.0565394 -0.666187 0
-0.000647109 -0.668089 0
-0.00562806 -0.504092 0
-0.509455 -1.96364 0
-0.455997 -1.95765 0
-0.203057 -1.85134 0
-0.264505 -1.92952 0
0.0178381 -0.76959 0
-0.00180077 -0.736598 0
-0.0152895 -0.758568 0
0.0245616 -0.750711 0
0.263788 -0.591161 0
0.220602 -0.591041 0
0.20744 -0.505146 0
0.249277 -0.52976 0
0.123835 -0.627886 0
0.107555 -0.670719 0
0.103803 -0.549664 0
0.158341 -0.567292 0
-0.780947 -2.02587 0
-0.739137 -2.00781 0
-0.719434 -1.9822 0
-0.652148 -1.74107 0
-0.037566 -0.761742 0
0.083703 -0.669686 0
-0.0349214 -0.391152 0
0.00786194 -0.548041 0
-0.0625473 -0.721529 0
0.20385 -2.91983 0
-0.0277719 -0.390394 0
-0.0212255 -0.334146 0
0.0316281 -0.449185 0
-0.00309835 -0.406767 0
0.0268815 -0.416658 0
-0.119653 -1.32646 0
0.310424 -1.0194 0
-0.151279 -1.35218 0
0.337141 -1.46735 0
-0.528955 -2.00079 0
0.263389 -0.956887 0
-0.419805 -1.83167 0
0.337433 -0.929107 0
-0.601009 -2.26644 0
0.394741 -1.27988 0
-0.625632 -2.38335 0
0.333031 -1.11885 0
0.0130491 -0.368668 0
0.00604839 -0.417791 0
-0.0103604 -0.368398 0
0.0519584 -0.333324 0
0.0606016 -0.334191 0
0.0219842 -0.431773 0
-0.0364783 -0.531266 0
0.0551017 -0.402807 0
0.0457271 -0.412019 0
0.116905 -0.917888 0
0.173398 -0.723054 0
0.134978 -0.953002 0
0.179087 -0.7837 0
0.164896 -0.900243 0
0.167918 -0.688728 0
-0.00608157 -0.496111 0
0.17437 -0.629502 0
-0.0416547 -0.425723 0
0.132426 -0.573158 0
0.0298574 -0.428964 0
-0.128704 -0.596232 0
0.0468609 -0.459699 0
-0.15174 -0.596871 0
-0.911219 -2.44815 0
0.868746 -1.87576 0
-0.643914 -2.14503 0
0.9044 -2.01857 0
-0.517212 -2.59325 0
0.490149 -1.98619 0
0.867487 -1.97834 0
-0.34226 -2.67859 0
0.419683 -1.84245 0
-0.556496 -2.58891 0
0.622377 -1.92484 0
0.811133 -1.72597 0
-0.61326 -2.63861 0
0.598585 -1.90037 0
0.0827856 -0.464612 0
-0.0958036 -0.572387 0
0.0627325 -0.436334 0
-0.0999689 -0.544891 0
0.0662165 -0.446921 0
-0.154742 -0.57632 0
-0.0249856 -0.269603 0
-0.0244055 -0.27685 0
-0.0194378 -0.301049 0
0.0353089 -0.24185 0
0.0539684 -0.257518 0
0.0801337 -0.484553 0
-0.128629 -0.566495 0
0.0795854 -0.93008 0
0.183239 -0.800224 0
0.0774303 -0.87278 0
0.159878 -0.748508 0
0.0927625 -0.95793 0
0.16514 -0.813183 0
0.458339 -1.33651 0
-0.643131 -2.59341 0
0.383778 -1.234 0
-0.425358 -2.45807 0
0.0768605 -0.911602 0
0.162527 -0.722022 0
0.243457 -1.09407 0
-0.492375 -2.51362 0
0.355012 -1.23236 0
-0.581957 -2.38058 0
-0.01587 -0.487951 0
-0.054908 -0.758763 0
0.343729 -2.95079 0
0.0032092 -0.504656 0
0.187497 -0.765893 0
-0.00474547 -0.432916 0
0.123386 -0.769129 0
0.0104229 -0.580272 0
0.173446 -0.829224 0
0.0543515 -0.676127 0
0.178171 -2.06653 0
0.210111 -0.772097 0
0.0632292 -0.620881 0
0.161892 -0.764231 0
-0.0219549 -0.466365 0
0.0939993 -0.692526 0
0.0319748 -0.519358 0
0.175375 -0.757688 0
0.047143 -1.78996 0
-0.0524263 -1.67816 0
0.0223004 -0.546083 0
0.203945 -0.745157 0
0.110436 -0.90199 0
0.18283 -0.768883 0
0.0628912 -0.39991 0
-0.0269724 -0.556131 0
0.00540856 -0.308417 0
0.094832 -0.513207 0
-0.299725 -1.36112 0
0.330369 -0.804898 0
-0.405604 -1.43074 0
0.237825 -0.762448 0
-0.289524 -1.12273 0
0.225027 -0.565019 0
-0.0363883 -1.22716 0
0.318814 -1.07001 0
0.0969998 -1.11808 0
0.181556 -1.0287 0
-0.272692 -1.56727 0
0.348303 -1.42308 0
0.0832904 -1.19459 0
0.11441 -1.37954 0
0.0337042 -0.395683 0
-0.0304257 -0.51565 0
-0.00175456 -0.274766 0
0.162815 -0.510634 0
-0.010889 -0.573096 0
0.0918444 -1.15823 0
0.10804 -1.16294 0
-0.0203052 -0.629066 0
-0.0189649 -0.616998 0
0.0488206 -0.399296 0
-0.0607868 -0.536831 0
0.097709 -1.12163 0
0.179642 -1.00603 0
-0.0123001 -0.607747 0
-0.0345841 -0.279415 0
0.0585408 -0.288704 0
-0.0271387 -0.32593 0
0.0393257 -0.369721 0
0.0475696 -0.355232 0
0.113946 -0.79177 0
0.0412079 -0.2907 0
0.058174 -0.653562 0
-0.6699 -2.27756 0
0.761993 -1.98117 0
-0.508488 -2.55325 0
0.755608 -2.13953 0
-0.585405 -2.24044 0
0.871801 -2.11508 0
-0.42856 -2.55182 0
0.578946 -1.91169 0
-0.150196 -2.73907 0
0.316507 -1.78264 0
-0.592145 -2.62683 0
0.735982 -2.07958 0
-0.106409 -3.1417 0
0.302872 -2.08985 0
0.0300259 -0.521373 0
0.0832534 -0.628177 0
0.0520269 -0.574599 0
0.0144445 -0.481486 0
-0.0397309 -0.617499 0
-0.0266503 -0.325216 0
-0.0799335 -0.607746 0
-0.0359226 -0.380109 0
-0.0747701 -0.550866 0
0.0177883 -0.390453 0
-0.0459566 -0.554725 0
0.00399961 -0.338261 0
-0.00271215 -0.309061 0
0.0084773 -0.243489 0
-0.0205005 -0.273391 0
-0.000464879 -0.324301 0
-0.0131578 -0.2605 0
-0.12367 -0.576338 0
-0.00479568 -0.426946 0
-0.106898 -0.533194 0
0.034246 -0.442849 0
0.163179 -0.96228 0
-0.251149 -2.39179 0
0.0774948 -0.449016 0
-0.048706 -0.577855 0
0.0282808 -0.333174 0
0.104533 -0.501541 0
0.162668 -0.992517 0
0.0122394 -2.293 0
0.465508 -1.37634 0
-0.667013 -2.30506 0
0.0193522 -0.32531 0
0.150567 -0.513755 0
0.264967 -1.09547 0
-0.133418 -2.41299 0
0.566688 -1.53392 0
-0.720624 -2.46189 0
0.518775 -1.38006 0
-0.697535 -2.5485 0
0.109751 -0.917444 0
-0.0512398 -2.26141 0
0.447951 -1.35315 0
-0.639774 -2.29627 0
-0.0559615 -0.472543 0
0.016272 -0.387597 0
-0.0699475 -0.545704 0
-0.0270387 -0.365023 0
-0.0111719 -0.431412 0
-0.0288222 -0.341779 0
-0.00710968 -0.402271 0
-0.017028 -0.362444 0
0.00970676 -0.507117 0
-0.0475503 -0.370662 0
-0.0539104 -0.595443 0
-0.0641812 -0.357934 0
-0.00628634 -0.624008 0
-0.0512391 -0.352747 0
-0.0374757 -0.389762 0
0.0725836 -0.69081 0
-0.385516 -2.32646 0
-0.248439 -2.47374 0
0.0210815 -0.591112 0
0.256724 -0.743291 0
0.328237 -3.20928 0
-0.0105163 -0.578195 0
0.221606 -0.660043 0
0.176778 -0.859456 0
0.149899 -3.31595 0
-0.0262998 -0.466364 0
0.174414 -0.582044 0
0.173023 -2.79 0
-0.114051 -1.7063 0
-0.114022 -1.53276 0
-0.0208915 -0.511406 0
-0.0440673 -0.705358 0
0.374992 -2.82442 0
0.103752 -0.650326 0
0.118091 -3.06221 0
0.000575108 -3.19047 0
0.00501581 -0.500909 0
-0.0543672 -0.712571 0
0.253861 -3.02818 0
-0.0343757 -3.50523 0
0.0378375 -3.03177 0
-0.467449 -2.05494 0
-0.670205 -2.28786 0
-0.456586 -1.8366 0
0.564345 -1.68294 0
-0.782417 -2.17514 0
0.503618 -1.57407 0
-0.758843 -2.29887 0
0.447739 -1.4904 0
-0.686219 -2.34051 0
0.44702 -1.53851 0
-0.693221 -2.25479 0
-0.708351 -2.52861 0
0.0564665 -0.265953 0
0.386474 -1.37479 0
-0.0580062 -3.46376 0
0.032922 -1.76062 0
0.357967 -2.87822 0
-0.229713 -2.99885 0
-0.00427368 -1.94641 0
-0.0522909 -0.559981 0
0.110549 -0.504287 0
-0.127192 -0.572668 0
0.0777929 -0.562471 0
-0.656037 -2.75696 0
-0.634558 -2.42848 0
0.0551708 -0.604924 0
-0.0544935 -0.403535 0
-0.0278445 -0.631871 0
-0.0471057 -0.672589 0
-0.0781658 -0.683054 0
-0.11327 -0.710038 0
0.152161 -0.782404 0
0.102186 -0.933876 0
-0.132405 -0.590096 0
0.0684831 -0.520591 0
0.127891 -0.451185 0
-0.071157 -0.690406 0
-0.0319313 -0.51116 0
0.128112 -0.587863 0
0.0532685 -0.360705 0
-0.0243762 -0.423585 0
0.102912 -0.634308 0
0.26372 -2.53525 0
-0.440468 -1.51379 0
-0.147507 -0.590467 0
0.0617013 -0.479022 0
-0.484965 -2.66679 0
0.247476 -2.47208 0
-0.475374 -1.75611 0
-0.019879 -2.51627 0
-0.266943 -2.20485 0
0.37798 -1.32551 0
0.0934052 -0.417927 0
-0.059557 -0.604827 0
0.140909 -0.536335 0
0.119721 -0.669241 0
0.071193 -0.397888 0
-0.189864 -2.35786 0
0.281942 -2.21567 0
-0.253918 -1.50588 0
-0.149232 -0.599113 0
0.0748947 -0.469912 0
0.0469481 -0.61029 0
0.0397887 -2.20793 0
-0.17129 -2.00539 0
0.203993 -2.56883 0
-0.429106 -2.0638 0
0.00654429 -0.586868 0
0.0791688 -0.429629 0
0.0921099 -0.722514 0
0.0643794 -0.302501 0
-0.0659388 -0.595271 0
0.0603208 -0.288332 0
-0.0825557 -0.638077 0
0.0313512 -0.48976 0
-0.0606214 -0.636391 0
0.127421 -0.778857 0
0.0672155 -0.800806 0
-0.0155743 -0.435473 0
0.276913 -0.612727 0
-0.246363 -1.05886 0
0.0592098 -0.279981 0
-0.0466851 -0.714785 0
-0.796688 -2.32327 0
-0.0388961 -0.552153 0
0.144472 -1.93155 0
-0.104549 -1.59056 0
0.153008 -0.790589 0
0.102743 -0.821877 0
-0.00637264 -0.628866 0
0.0639969 -0.278856 0
-0.0231033 -0.68652 0
0.0273731 -1.2691 0
0.0103264 -1.43408 0
0.130965 -0.787599 0
0.0769983 -0.583055 0
-0.0278283 -0.665557 0
-0.0300845 -0.578205 0
-0.0191257 -0.397469 0
0.0518583 -0.295846 0
-0.121047 -0.600774 0
0.23112 -2.27584 0
-0.24934 -1.6671 0
0.172338 -0.768585 0
0.0898524 -0.920379 0
0.0615622 -0.660036 0
0.0895202 -0.403523 0
0.121989 -0.747264 0
0.0725539 -0.323053 0
0.347525 -0.686819 0
-0.089808 -0.623654 0
0.0205456 -0.438944 0
-0.0949517 -0.619717 0
0.118664 -0.52713 0
0.195721 -0.666388 0
0.123814 -0.816087 0
0.144905 -0.4396 0
-0.0172631 -0.279445 0
0.00801369 -0.287139 0
-0.0168169 -0.572944 0
0.290531 -0.719636 0
-0.116078 -0.577196 0
0.042994 -0.466248 0
0.107464 -0.366834 0
-0.316645 -1.74083 0
0.107221 -1.2684 0
-0.00801105 -1.45373 0
-0.0991805 -0.729929 0
0.00686372 -0.638452 0
-0.0360138 -0.596418 0
0.101516 -0.479104 0
0.134248 -0.556332 0
0.036337 -0.323764 0
0.101846 -0.69347 0
0.341461 -1.03281 0
-0.0899112 -0.532474 0
0.0387325 -0.520926 0
-0.162043 -3.15702 0
0.195809 -1.7399 0
-0.471261 -2.74154 0
0.223869 -1.90274 0
-0.140102 -0.58991 0
0.0657696 -0.470085 0
0.137107 -0.698586 0
0.0508741 -0.392616 0
-0.123652 -0.585697 0
-0.0460052 -0.614704 0
0.140102 -0.49583 0
0.139939 -0.732402 0
0.103412 -0.967004 0
-0.134461 -0.553911 0
-0.640752 -2.45727 0
-0.120959 -0.564442 0
0.0560895 -0.517174 0
0.332999 -0.931375 0
-0.0416063 -0.469265 0
0.00948808 -0.508308 0
0.0364413 -0.535047 0
0.0490999 -0.613052 0
0.0383834 -0.316767 0
-0.000194198 -0.368185 0
-0.110186 -0.636103 0
0.0428134 -0.473105 0
0.325443 -0.726368 0
0.0643939 -0.283447 0
0.156715 -0.80941 0
0.0315206 -0.444679 0
-0.0355011 -0.555049 0
-0.0679483 -0.5821 0
0.0198909 -0.506652 0
0.360849 -0.815223 0
-0.0591832 -0.720897 0
-0.0182273 -1.43549 0
0.313832 -1.48002 0
-0.00330169 -1.13803 0
0.0245798 -0.636991 0
0.0869495 -0.538841 0
0.00617284 -0.629557 0
-0.292989 -1.93626 0
0.207221 -1.89273 0
-0.126804 -1.53107 0
0.189275 -0.760667 0
0.0903851 -0.843448 0
-0.0805465 -0.629365 0
0.0261666 -0.618936 0
0.0655739 -0.702004 0
0.0741274 -0.464511 0
-0.0331144 -0.344804 0
0.0645171 -0.710312 0
0.378723 -1.80844 0
-0.08608 -1.413 0
-0.00776612 -0.526546 0
-0.0191412 -0.305967 0
0.184798 -1.29224 0
-0.000410592 -1.21864 0
-0.00821668 -0.580082 0
-0.0304806 -0.344747 0
0.0373749 -0.67374 0
-0.0126278 -0.525483 0
-0.116794 -1.50213 0
0.0384613 -0.53647 0
-0.118994 -1.79672 0
0.0445716 -0.721154 0
-0.322856 -1.81324 0
0.0723588 -0.71994 0
-0.278572 -1.44499 0
0.0601851 -0.535109 0
-0.37478 -1.31422 0
0.154198 -0.532256 0
-0.345265 -3.01418 0
0.536901 -2.01561 0
-0.342694 -1.44431 0
0.108675 -0.559477 0
-0.451878 -1.70776 0
0.123062 -0.746981 0
-0.0909419 -0.672509 0
-0.00719242 -0.555285 0
0.163369 -0.784323 0
0.055821 -0.514981 0
-0.515109 -1.5148 0
0.170664 -0.794645 0
0.0880713 -3.04354 0
-0.523164 -2.31925 0
0.252241 -1.02641 0
-0.582168 -2.08494 0
0.194867 -0.892865 0
-0.473215 -1.94406 0
0.141582 -0.866089 0
-0.470782 -2.35275 0
0.156976 -0.973988 0
-0.115443 -0.708601 0
0.118012 -0.800474 0
0.0850379 -0.791335 0
-0.123297 -2.15881 0
0.0761035 -0.898591 0
0.19857 -0.793579 0
0.076602 -0.743997 0
-0.395918 -2.32358 0
0.105904 -0.959597 0
-0.396916 -1.99239 0
0.0816023 -0.874738 0
-0.0809328 -0.736839 0
-0.783552 -2.29252 0
-0.0465982 -0.687864 0
0.142191 -0.832425 0
0.0561223 -0.595502 0
-0.147236 -2.11933 0
0.0617496 -0.862866 0
0.0109129 -0.442377 0
0.0532384 -0.67308 0
0.102965 -0.778474 0
0.0605954 -0.469017 0
0.0128039 -0.394097 0
0.153239 -0.688409 0
0.0199862 -0.532081 0
0.146636 -0.57302 0
0.0156944 -0.532994 0
0.101969 -0.549855 0
0.0128108 -0.413987 0
0.108916 -0.672732 0
0.111793 -1.14148 0
0.114367 -1.22466 0
-0.00169914 -2.95606 0
0.0712001 -0.782081 0
0.268679 -0.676865 0
0.139591 -3.09228 0
0.0135188 -0.711961 0
0.280503 -0.689649 0
0.141752 -3.2225 0
-0.118735 -0.684432 0
0.242478 -0.743472 0
0.0599963 -0.656304 0
-0.0773587 -0.689489 0
0.014746 -0.502582 0
0.262485 -0.697219 0
0.107861 -0.81939 0
-0.0940974 -0.633509 0
0.150344 -0.707281 0
0.121517 -0.89359 0
-0.0945385 -0.559858 0
0.109145 -0.54894 0
0.0777216 -0.568069 0
0.0614882 -0.38947 0
0.00902538 -0.459028 0
0.0426909 -0.684452 0
0.0259841 -0.687049 0
0.0237075 -0.502058 0
0.075882 -0.577747 0
0.0738603 -1.03484 0
0.177143 -1.2752 0
0.190982 -0.841556 0
-0.0175287 -0.485073 0
0.155087 -0.922855 0
0.125452 -1.10585 0
0.0625167 -0.627468 0
0.0596215 -0.520965 0
0.165645 -0.964243 0
0.0886109 -1.08843 0
0.147544 -0.790968 0
-0.0250381 -0.50201 0
0.187992 -0.856497 0
-0.014155 -0.473391 0
0.0331567 -0.912877 0
0.27626 -0.680221 0
-0.0181008 -1.22146 0
0.301393 -0.793103 0
0.0494034 -1.12895 0
0.286029 -0.792837 0
0.0953566 -0.899614 0
0.278009 -0.69472 0
0.152757 -2.91919 0
0.00127596 -1.80768 0
0.10406 -2.81385 0
0.0629127 -1.79689 0
0.0692034 -2.80427 0
0.193751 -1.77113 0
0.0186043 -2.92559 0
0.121067 -2.03941 0
0.00284857 -0.611324 0
-0.500015 -2.96154 0
0.718841 -2.0262 0
-0.606665 -2.56174 0
0.751636 -1.91924 0
-0.0433795 -0.624119 0
-0.711561 -2.36992 0
0.870354 -1.98329 0
-0.546563 -2.80072 0
0.847087 -2.09709 0
0.0498374 -0.736208 0
0.0417215 -0.740299 0
0.0783819 -0.717001 0
0.0649331 -0.77425 0
-0.788559 -1.70624 0
-0.520926 -1.58123 0
-0.512737 -1.53276 0
-0.681683 -1.5677 0
-0.000349979 -0.546156 0
-0.0071073 -0.560119 0
-0.0103404 -0.630477 0
-0.012857 -0.63681 0
-0.0315944 -0.681193 0
0.297324 -0.626414 0
-0.0323228 -0.593702 0
0.234482 -0.609779 0
-0.0463635 -0.585074 0
0.201461 -0.534473 0
-0.0817619 -0.710924 0
0.267256 -0.557126 0
0.144184 -1.41189 0
0.0659154 -1.19926 0
0.167596 -1.02683 0
0.0926219 -1.13805 0
0.2283 -1.03945 0
0.0446746 -1.15247 0
0.196675 -1.46985 0
-0.00903346 -1.27286 0
-0.0136289 -0.414648 0
0.027927 -0.421517 0
0.0177087 -0.457777 0
-0.00593191 -0.44634 0
-0.353331 -2.44046 0
-0.385564 -2.20119 0
-0.318965 -2.19497 0
-0.29923 -2.46748 0
0.259075 -0.465149 0
0.0424765 -0.27012 0
0.260917 -0.46868 0
0.0298802 -0.267607 0
0.217687 -0.481695 0
0.0267149 -0.267877 0
0.208168 -0.483424 0
0.0273615 -0.261505 0
-0.0206541 -0.730366 0
0.00212085 -0.761823 0
-0.0058049 -0.713091 0
-0.0521996 -0.712909 0
0.10664 -2.16509 0
0.258748 -1.82806 0
0.361947 -2.08589 0
0.190273 -2.20477 0
0.147272 -0.895747 0
0.201805 -0.710705 0
0.11 -0.892036 0
0.258713 -0.682572 0
0.0855544 -1.06071 0
0.264174 -0.827503 0
0.127798 -1.02595 0
0.180164 -0.767967 0
0.0102656 -0.496236 0
0.00698818 -0.466262 0
0.0136317 -0.465095 0
0.03062 -0.48287 0
-0.00181878 -2.49009 0
-0.121792 -2.28109 0
-0.227054 -2.21168 0
-0.0711697 -2.16938 0
-0.161461 -1.39139 0
-0.221131 -1.81337 0
-0.112834 -1.57246 0
-0.00580924 -1.60116 0
-0.104648 -1.52136 0
-0.626576 -1.47686 0
-0.652752 -1.64338 0
-0.554848 -1.69796 0
-0.491298 -1.41548 0
-0.0130435 -0.426712 0
0.217799 -0.831097 0
0.00279455 -0.426628 0
0.205247 -0.770767 0
0.0186604 -0.343766 0
0.223128 -0.569666 0
0.00848727 -0.380478 0
0.243649 -0.586282 0
0.703913 -1.51044 0
-0.92568 -2.55733 0
0.703551 -1.64701 0
-0.92485 -2.59557 0
0.60872 -1.57141 0
-0.837779 -2.51968 0
0.638151 -1.55941 0
-0.852921 -2.75725 0
0.316598 -1.36602 0
0.0190886 -2.38614 0
0.472203 -1.52052 0
-0.0254067 -2.62876 0
0.372224 -1.2236 0
-0.0741669 -2.48987 0
0.225867 -1.16019 0
-0.00501741 -2.64372 0
-0.000795954 -0.553739 0
-0.00615509 -0.596682 0
0.0116938 -0.615323 0
-0.000109596 -0.544805 0
-0.0555897 -0.429714 0
0.0297342 -0.341816 0
-0.104519 -0.543357 0
0.0800058 -0.355884 0
-0.0577451 -0.477089 0
0.113747 -0.414088 0
-0.0329133 -0.403395 0
0.0448132 -0.405704 0
0.155038 -0.687574 0
0.0185876 -0.389347 0
0.182196 -0.586877 0
0.0246711 -0.320351 0
0.221837 -0.586236 0
0.023149 -0.331533 0
0.204426 -0.74336 0
0.00677921 -0.408437 0
-0.185969 -0.925249 0
0.195123 -0.467921 0
-0.163976 -0.807971 0
0.229401 -0.492093 0
-0.0951695 -0.623807 0
0.190143 -0.510225 0
-0.128685 -0.621545 0
0.14375 -0.430419 0
0.00389573 -0.508687 0
0.00610007 -0.479681 0
0.0157534 -0.447271 0
0.00968925 -0.437988 0
-0.097903 -2.16123 0
-0.234918 -2.30155 0
-0.310295 -2.20831 0
-0.137166 -2.22804 0
0.415202 -2.38829 0
0.327712 -2.28558 0
0.51802 -2.4078 0
0.514227 -2.58134 0
0.000108151 -0.529531 0
0.0201659 -0.353857 0
0.0357948 -0.515013 0
0.0132299 -0.336275 0
0.064032 -0.558083 0
0.0349813 -0.354395 0
-0.0029483 -0.571025 0
0.0455078 -0.37712 0
0.177067 -0.497556 0
0.000130003 -0.257067 0
0.176344 -0.479945 0
0.0125318 -0.253987 0
0.198952 -0.512641 0