# vtk DataFile Version 2.0
Unstructured Grid by M++
ASCII
DATASET UNSTRUCTURED_GRID
POINTS 4225 float
  0.921875   0.593750 0
  0.921875   0.609375 0
  0.656250   0.609375 0
  0.671875   0.609375 0
  0.656250   0.546875 0
  0.671875   0.546875 0
  0.656250   0.562500 0
  0.656250   0.578125 0
  0.656250   0.593750 0
  0.671875   0.593750 0
  0.671875   0.562500 0
  0.671875   0.578125 0
  0.671875   0.625000 0
  0.671875   0.640625 0
  0.906250   0.578125 0
  0.890625   0.578125 0
  0.546875   0.515625 0
  1.000000   0.890625 0
  0.515625   0.640625 0
  0.515625   0.625000 0
  1.000000   0.875000 0
  0.515625   0.656250 0
  0.515625   0.687500 0
  0.515625   0.671875 0
  1.000000   0.921875 0
  0.546875   0.531250 0
  0.546875   0.546875 0
  0.546875   0.562500 0
  0.796875   0.531250 0
  0.953125   0.890625 0
  0.953125   0.875000 0
  0.953125   0.843750 0
  0.953125   0.828125 0
  0.953125   0.812500 0
  0.531250   0.562500 0
  0.531250   0.546875 0
  0.515625   0.562500 0
  0.515625   0.546875 0
  1.000000   0.812500 0
  0.781250   0.546875 0
  0.765625   0.546875 0
  0.859375   0.921875 0
  0.921875   0.671875 0
  0.609375   0.906250 0
  0.671875   0.656250 0
  0.609375   0.921875 0
  0.671875   0.671875 0
  0.671875   0.984375 0
  0.671875   1.000000 0
  0.906250   0.984375 0
  0.906250   1.000000 0
  0.921875   0.984375 0
  0.921875   1.000000 0
  0.859375   0.609375 0
  1.000000   0.781250 0
  0.515625   0.531250 0
  0.531250   0.531250 0
  0.531250   0.515625 0
  0.515625   0.515625 0
  1.000000   0.750000 0
  0.765625   0.531250 0
  0.781250   0.531250 0
  0.781250   0.515625 0
  0.765625   0.515625 0
  0.859375   0.875000 0
  0.921875   0.625000 0
  0.859375   0.890625 0
  0.921875   0.640625 0
  0.671875   0.968750 0
  0.671875   0.953125 0
  0.921875   0.968750 0
  0.921875   0.953125 0
  0.859375   0.593750 0
  0.859375   0.578125 0
  0.875000   0.578125 0
  0.828125   0.890625 0
  0.890625   0.640625 0
  0.593750   0.890625 0
  0.656250   0.640625 0
  0.593750   0.875000 0
  0.656250   0.625000 0
  0.578125   0.890625 0
  0.640625   0.640625 0
  0.578125   0.875000 0
  0.640625   0.625000 0
  0.968750   0.890625 0
  0.984375   0.890625 0
  0.968750   0.812500 0
  0.968750   0.828125 0
  0.984375   0.812500 0
  0.984375   0.828125 0
  1.000000   0.828125 0
  0.656250   0.953125 0
  0.640625   0.953125 0
  0.890625   0.968750 0
  0.906250   0.968750 0
  0.906250   0.953125 0
  0.890625   0.953125 0
  0.531250   0.703125 0
  0.531250   0.718750 0
  0.546875   0.718750 0
  0.546875   0.703125 0
  0.593750   0.578125 0
  0.562500   0.578125 0
  0.578125   0.578125 0
  0.843750   0.578125 0
  0.828125   0.578125 0
  0.828125   0.812500 0
  0.890625   0.562500 0
  0.828125   0.796875 0
  0.953125   0.906250 0
  0.953125   0.921875 0
  0.531250   0.859375 0
  0.593750   0.609375 0
  0.531250   0.843750 0
  0.593750   0.593750 0
  0.515625   0.843750 0
  0.578125   0.593750 0
  0.515625   0.859375 0
  0.578125   0.609375 0
  0.937500   0.859375 0
  1.000000   0.609375 0
  0.921875   0.859375 0
  0.984375   0.609375 0
  0.937500   0.796875 0
  0.921875   0.796875 0
  0.984375   0.546875 0
  0.562500   0.812500 0
  0.843750   0.796875 0
  0.843750   0.812500 0
  0.859375   0.796875 0
  0.859375   0.812500 0
  1.000000   0.906250 0
  0.984375   0.906250 0
  0.968750   0.906250 0
  0.968750   0.921875 0
  0.984375   0.921875 0
  0.593750   0.921875 0
  0.656250   0.671875 0
  0.593750   0.906250 0
  0.656250   0.656250 0
  0.578125   0.906250 0
  0.640625   0.656250 0
  0.578125   0.921875 0
  0.640625   0.671875 0
  1.000000   0.843750 0
  0.984375   0.843750 0
  0.968750   0.843750 0
  0.968750   0.859375 0
  0.968750   0.875000 0
  1.000000   0.859375 0
  0.984375   0.859375 0
  0.984375   0.875000 0
  0.656250   1.000000 0
  0.656250   0.984375 0
  0.656250   0.968750 0
  0.640625   0.968750 0
  0.640625   1.000000 0
  0.640625   0.984375 0
  0.843750   0.921875 0
  0.906250   0.671875 0
  0.843750   0.906250 0
  0.906250   0.656250 0
  0.828125   0.906250 0
  0.890625   0.656250 0
  0.828125   0.921875 0
  0.890625   0.671875 0
  0.781250   0.859375 0
  0.843750   0.609375 0
  0.781250   0.843750 0
  0.843750   0.593750 0
  0.765625   0.843750 0
  0.828125   0.593750 0
  0.765625   0.859375 0
  0.828125   0.609375 0
  0.968750   0.609375 0
  0.906250   0.859375 0
  0.953125   0.609375 0
  0.890625   0.859375 0
  0.937500   0.609375 0
  0.875000   0.859375 0
  0.562500   0.593750 0
  0.546875   0.593750 0
  0.531250   0.593750 0
  0.531250   0.609375 0
  0.562500   0.609375 0
  0.546875   0.609375 0
  0.609375   0.625000 0
  0.546875   0.875000 0
  0.609375   0.640625 0
  0.546875   0.890625 0
  0.625000   0.640625 0
  0.562500   0.890625 0
  0.625000   0.625000 0
  0.562500   0.875000 0
  0.921875   0.843750 0
  0.984375   0.593750 0
  0.937500   0.843750 0
  1.000000   0.593750 0
  0.921875   0.812500 0
  0.921875   0.828125 0
  0.984375   0.578125 0
  0.937500   0.828125 0
  1.000000   0.578125 0
  0.937500   0.812500 0
  1.000000   0.562500 0
  0.578125   0.828125 0
  0.921875   0.781250 0
  0.937500   0.781250 0
  1.000000   0.531250 0
  0.921875   0.765625 0
  0.984375   0.515625 0
  0.937500   0.765625 0
  0.625000   0.656250 0
  0.562500   0.906250 0
  0.609375   0.656250 0
  0.546875   0.906250 0
  0.625000   0.671875 0
  0.562500   0.921875 0
  0.609375   0.671875 0
  0.546875   0.921875 0
  0.859375   0.781250 0
  0.859375   0.765625 0
  0.828125   0.671875 0
  0.765625   0.921875 0
  0.828125   0.734375 0
  0.765625   0.984375 0
  0.875000   0.843750 0
  0.937500   0.593750 0
  0.890625   0.843750 0
  0.953125   0.593750 0
  0.906250   0.843750 0
  0.968750   0.593750 0
  0.906250   0.828125 0
  0.968750   0.578125 0
  0.937500   0.578125 0
  0.953125   0.578125 0
  0.906250   0.765625 0
  0.875000   0.765625 0
  0.953125   0.515625 0
  0.531250   0.781250 0
  0.671875   0.890625 0
  0.531250   0.921875 0
  0.953125   0.656250 0
  0.828125   0.781250 0
  0.843750   0.781250 0
  0.703125   0.984375 0
  0.687500   0.984375 0
  0.843750   0.875000 0
  0.906250   0.625000 0
  0.671875   0.781250 0
  0.734375   0.531250 0
  0.906250   0.609375 0
  0.671875   0.765625 0
  0.734375   0.515625 0
  0.906250   0.593750 0
  0.890625   0.593750 0
  0.875000   0.593750 0
  0.828125   0.875000 0
  0.890625   0.625000 0
  0.656250   0.781250 0
  0.718750   0.531250 0
  0.890625   0.609375 0
  0.656250   0.765625 0
  0.718750   0.515625 0
  0.875000   0.609375 0
  0.640625   0.765625 0
  0.703125   0.515625 0
  0.812500   0.921875 0
  0.875000   0.671875 0
  0.812500   0.875000 0
  0.875000   0.625000 0
  0.640625   0.781250 0
  0.703125   0.531250 0
  0.812500   0.515625 0
  0.750000   0.828125 0
  0.812500   0.578125 0
  0.687500   1.000000 0
  0.937500   0.656250 0
  0.875000   0.906250 0
  0.531250   0.656250 0
  0.890625   0.906250 0
  0.906250   0.906250 0
  0.562500   0.656250 0
  0.906250   0.890625 0
  0.562500   0.640625 0
  0.968750   0.625000 0
  0.906250   0.875000 0
  0.562500   0.625000 0
  0.937500   0.640625 0
  0.875000   0.890625 0
  0.890625   0.890625 0
  0.546875   0.640625 0
  0.953125   0.625000 0
  0.890625   0.875000 0
  0.546875   0.625000 0
  0.546875   0.687500 0
  0.890625   0.937500 0
  0.937500   0.625000 0
  0.875000   0.875000 0
  0.531250   0.625000 0
  0.531250   0.640625 0
  0.546875   0.656250 0
  0.937500   0.968750 0
  0.687500   0.968750 0
  0.953125   0.968750 0
  0.703125   0.968750 0
  0.968750   0.968750 0
  0.718750   0.968750 0
  0.718750   0.906250 0
  0.968750   0.953125 0
  0.718750   0.953125 0
  0.968750   0.937500 0
  0.859375   0.906250 0
  0.921875   0.656250 0
  0.718750   0.937500 0
  0.828125   0.531250 0
  0.937500   0.953125 0
  0.687500   0.953125 0
  0.953125   0.953125 0
  0.703125   0.953125 0
  0.703125   0.890625 0
  0.843750   0.515625 0
  0.953125   0.937500 0
  0.953125   1.000000 0
  0.703125   0.937500 0
  0.937500   0.937500 0
  0.687500   0.937500 0
  0.703125   0.906250 0
  0.718750   0.890625 0
  0.687500   0.890625 0
  0.687500   0.765625 0
  0.750000   0.515625 0
  0.687500   0.781250 0
  0.750000   0.531250 0
  0.859375   0.937500 0
  0.921875   0.687500 0
  0.687500   0.796875 0
  0.750000   0.546875 0
  0.578125   0.750000 0
  0.515625   1.000000 0
  0.843750   0.765625 0
  0.578125   0.734375 0
  0.515625   0.984375 0
  0.562500   0.734375 0
  0.828125   0.750000 0
  0.765625   1.000000 0
  0.562500   0.750000 0
  0.562500   0.718750 0
  0.578125   0.515625 0
  0.921875   0.703125 0
  0.921875   0.718750 0
  0.593750   0.515625 0
  0.687500   0.875000 0
  0.750000   0.625000 0
  0.578125   0.531250 0
  0.921875   0.750000 0
  0.703125   0.875000 0
  0.765625   0.625000 0
  0.593750   0.531250 0
  0.875000   0.968750 0
  0.937500   0.718750 0
  0.703125   0.828125 0
  0.765625   0.578125 0
  0.937500   0.734375 0
  0.703125   0.812500 0
  0.765625   0.562500 0
  0.890625   0.687500 0
  0.828125   0.937500 0
  0.656250   0.796875 0
  0.718750   0.546875 0
  0.890625   0.718750 0
  0.828125   0.968750 0
  0.906250   0.796875 0
  0.718750   0.828125 0
  0.781250   0.578125 0
  0.890625   0.703125 0
  0.828125   0.953125 0
  0.656250   0.859375 0
  0.906250   0.781250 0
  0.968750   0.531250 0
  0.546875   0.796875 0
  0.671875   0.796875 0
  0.734375   0.546875 0
  0.843750   0.953125 0
  0.906250   0.703125 0
  0.671875   0.875000 0
  0.718750   0.812500 0
  0.781250   0.562500 0
  0.875000   0.812500 0
  0.531250   0.890625 0
  0.593750   0.640625 0
  0.937500   0.890625 0
  0.875000   0.781250 0
  0.609375   0.703125 0
  0.546875   0.953125 0
  0.890625   0.796875 0
  0.625000   0.718750 0
  0.562500   0.968750 0
  0.906250   0.812500 0
  0.734375   0.859375 0
  0.796875   0.609375 0
  0.718750   0.875000 0
  0.781250   0.625000 0
  0.750000   0.859375 0
  0.812500   0.609375 0
  0.812500   0.546875 0
  0.750000   0.812500 0
  0.734375   0.843750 0
  0.796875   0.593750 0
  0.750000   0.843750 0
  0.812500   0.593750 0
[...]
CELL_DATA 4096
VECTORS vector_value float
0.150282 -0.720811 0
0.117151 -0.761302 0
0.137097 -0.877022 0
0.179165 -0.87842 0
0.0928074 -0.434967 0
0.115441 -0.581533 0
0.116447 -0.561496 0
0.0999019 -0.424685 0
0.0232069 -0.564846 0
0.0708126 -0.558127 0
0.0657245 -0.487253 0
0.0164452 -0.499978 0
0.112369 -0.966708 0
0.0766662 -0.740932 0
0.0514778 -0.812584 0
0.0513067 -0.922442 0
-0.0685657 -1.43338 0
-0.0164878 -1.46873 0
0.0108557 -1.40512 0
-0.0640293 -1.33912 0
-0.0354067 -1.43757 0
-0.057413 -1.42053 0
-0.0645715 -1.52404 0
-0.0361402 -1.50026 0
-0.0764658 -1.05501 0
-0.0729442 -1.24772 0
-0.0439193 -1.21538 0
-0.0494419 -1.09122 0
0.233076 -1.38174 0
0.200751 -1.29386 0
0.085259 -1.40993 0
0.0979619 -1.57497 0
0.0249325 -1.33072 0
-0.036393 -1.24608 0
-0.0698821 -1.08929 0
-0.0259477 -1.10768 0
0.0736866 -1.23739 0
0.176418 -1.24687 0
0.135182 -1.18141 0
0.0340483 -1.12767 0
0.222697 -1.18571 0
0.287066 -1.25372 0
0.332449 -1.36119 0
0.286427 -1.34487 0
0.0828417 -0.762198 0
0.0331771 -0.604469 0
0.0713332 -0.68704 0
0.117468 -0.761356 0
0.536972 -1.42844 0
0.560817 -1.51599 0
0.506092 -1.6231 0
0.592147 -1.73505 0
-0.0319343 -0.982736 0
0.0321 -0.965437 0
0.030159 -0.956992 0
-0.0128791 -0.923991 0
0.23702 -0.942613 0
0.184354 -0.872882 0
0.206754 -0.958958 0
0.286155 -0.996962 0
0.231334 -0.904859 0
0.266722 -0.90605 0
0.273517 -0.896865 0
0.211005 -0.915816 0
0.148373 -1.94893 0
0.0926177 -1.95074 0
0.0521526 -1.72023 0
0.182534 -1.72555 0
-0.168873 -0.967229 0
-0.0847342 -0.928339 0
-0.041317 -0.796282 0
-0.187993 -0.866009 0
0.397983 -0.881405 0
0.286349 -0.869282 0
0.314886 -0.908178 0
0.378806 -0.91646 0
0.234116 -0.939113 0
0.260618 -0.944776 0
0.224844 -0.933686 0
0.200392 -0.931358 0
0.380254 -1.1034 0
0.307604 -1.07561 0
0.260854 -1.01096 0
0.35696 -1.08271 0
0.150189 -1.03154 0
0.094239 -1.03404 0
0.0986375 -0.944345 0
0.12705 -0.97775 0
0.23192 -1.30798 0
0.281553 -1.15029 0
0.387839 -1.08187 0
0.240438 -1.20291 0
0.325242 -0.973274 0
0.2815 -0.961066 0
0.212533 -1.02422 0
0.256361 -1.18185 0
0.0855088 -0.952657 0
0.0380869 -1.07766 0
0.000220447 -1.19191 0
0.040827 -0.969246 0
0.220085 -1.04319 0
0.224718 -1.01184 0
0.197505 -0.979852 0
0.193019 -1.06369 0
0.0207744 -1.1994 0
0.0980518 -1.06087 0
0.0985891 -1.40573 0
-0.0248652 -1.31093 0
0.391005 -0.993393 0
0.30486 -0.905282 0
0.430009 -1.02893 0
0.455585 -1.00144 0
0.152319 -0.809655 0
0.195374 -0.833879 0
0.221304 -0.895075 0
0.164037 -0.879866 0
0.0378019 -0.7201 0
0.0879896 -0.773626 0
0.0974958 -0.905778 0
0.0512441 -0.927415 0
0.231963 -0.902349 0
0.173418 -1.01056 0
0.119121 -1.07013 0
0.193221 -0.957567 0
0.189202 -0.39928 0
0.201646 -0.462139 0
0.184556 -0.377644 0
0.232272 -0.415046 0
0.410822 -1.39371 0
0.350937 -1.32632 0
0.404777 -1.29888 0
0.554151 -1.67588 0
0.0635995 -1.29106 0
0.0805623 -1.12392 0
0.147233 -1.13233 0
0.170089 -1.26733 0
0.0621489 -0.747619 0
0.0350394 -0.853911 0
0.170954 -0.955125 0
0.141717 -0.819884 0
0.0258561 -0.563605 0
-0.00691486 -0.53853 0
-0.0228347 -0.461532 0
-0.0020108 -0.481161 0
0.144788 -0.498598 0
0.1626 -0.42183 0
0.176009 -0.416016 0
0.187369 -0.494659 0
-0.0414122 -0.478903 0
-0.0330223 -0.495838 0
-0.0234973 -0.466334 0
-0.0333707 -0.494505 0
0.0391733 -0.56413 0
0.0891536 -0.649127 0
0.0576805 -0.597607 0
0.0167028 -0.511689 0
-0.113677 -0.770212 0
-0.0839883 -0.735178 0
-0.0776227 -0.721049 0
-0.115033 -0.689765 0
0.481638 -1.29142 0
0.464207 -1.3605 0
0.470632 -1.44058 0
0.537227 -1.48081 0
-0.106961 -0.760637 0
-0.0964045 -0.729832 0
-0.0916225 -0.785097 0
-0.115388 -0.741414 0
0.477753 -1.38685 0
0.469968 -1.43307 0
0.467005 -1.47161 0
0.457672 -1.34335 0
0.0484775 -0.746697 0
0.0215388 -0.663184 0
0.0501863 -0.685628 0
0.0573424 -0.75948 0
0.130996 -0.710877 0
0.108871 -0.729846 0
0.136121 -0.732531 0
0.183202 -0.758582 0
-0.0771111 -0.908291 0
-0.0778723 -0.791523 0
-0.0901457 -0.797931 0
-0.0689534 -0.883938 0
0.324841 -1.29903 0
0.343825 -1.3833 0
0.438346 -1.38211 0
0.401979 -1.28217 0
0.00383953 -0.606741 0
-0.000462984 -0.64058 0
0.0431635 -0.700122 0
0.0344516 -0.641741 0
0.0832197 -0.701021 0
0.0933697 -0.684321 0
0.0940083 -0.706384 0
0.0664439 -0.73472 0
-0.0532618 -0.751432 0
-0.0713097 -0.744412 0
-0.0378903 -0.914012 0
0.0142448 -0.805956 0
0.459242 -1.36857 0
0.0582014 -0.643702 0
0.230821 -0.99959 0
-0.0121622 -1.30668 0
0.471598 -1.55462 0
0.0424304 -1.047 0
0.153245 -1.03345 0
0.0817073 -1.19107 0
0.0288855 -1.22115 0
0.115455 -1.09721 0
0.0259774 -1.25348 0
0.200378 -0.421273 0
-0.245261 -1.23875 0
0.302032 -0.614111 0
-0.145074 -1.49303 0
0.118106 -0.476901 0
-0.233394 -0.993621 0
0.164831 -0.477044 0
-0.227872 -1.06148 0
0.134083 -0.504715 0
-0.167942 -1.14245 0
0.116747 -0.534538 0
-0.124507 -1.03681 0
-0.0322046 -1.33687 0
0.0621132 -1.12162 0
0.0180305 -1.26436 0
-0.0405072 -1.43855 0
-0.0707356 -1.40404 0
0.0187697 -1.12655 0
0.368096 -1.12344 0
-0.0833287 -1.4369 0
-0.0162572 -1.42968 0
0.278727 -0.549775 0
-0.122042 -1.08988 0
0.315412 -0.544746 0
-0.114675 -1.17241 0
0.256265 -0.493289 0
-0.143626 -1.06736 0
0.215588 -0.648067 0
-0.0753242 -0.732474 0
0.244848 -0.845463 0
0.0329771 -0.749376 0
0.329272 -1.66121 0
0.3802 -0.938001 0
0.379385 -1.734 0
0.37801 -0.905639 0
0.265561 -1.77934 0
0.0992534 -0.968278 0
0.0751658 -2.09121 0
0.192411 -0.923357 0
0.494544 -1.7063 0
-0.0619352 -0.91014 0
0.111006 -0.936854 0
0.417113 -1.7888 0
-0.0689928 -0.894247 0
0.490674 -1.96109 0
-0.0716106 -0.950878 0
0.171909 -0.944593 0
0.537481 -1.71738 0
-0.0436755 -0.903036 0
0.419218 -2.1184 0
0.411771 -0.910603 0
0.373961 -1.91815 0
0.397546 -0.858623 0
0.408273 -1.93479 0
0.388267 -0.887266 0
0.185698 -1.44028 0
0.0902522 -1.68624 0
0.172447 -1.58558 0
-0.11063 -1.49447 0
-0.0961623 -1.45228 0
0.295663 -2.02491 0
0.372945 -0.895034 0
0.412751 -0.668645 0
0.0300987 -1.40213 0
0.292498 -0.761086 0
0.0374958 -1.15349 0
0.381675 -0.794272 0
0.0736947 -1.51657 0
0.107681 -1.06827 0
0.0568168 -0.795176 0
0.170189 -1.02581 0
0.0306555 -0.814744 0
0.339641 -0.689158 0
-0.068042 -1.11463 0
0.106006 -0.918078 0
0.0125412 -0.680656 0
0.0549208 -1.01003 0
0.0528255 -0.733617 0
-0.0241753 -1.12699 0
0.382199 -1.89834 0
0.15316 -1.06394 0
0.168822 -0.6323 0
-0.0862292 -0.684303 0
0.141199 -0.850663 0
-0.0256819 -0.511481 0
0.141289 -0.592251 0
-0.0853364 -0.648669 0
0.141056 -0.811679 0
0.481974 -1.38041 0
-0.0129824 -0.51109 0
0.135064 -0.749307 0
-0.0378473 -0.489598 0
0.17641 -0.847505 0
-0.0358995 -0.59395 0
0.0833825 -0.98234 0
-0.0332339 -0.453513 0
0.571749 -1.26382 0
0.0516038 -1.42571 0
0.0992959 -1.0429 0
-0.0315102 -0.455221 0
0.38283 -0.631749 0
-0.0547562 -1.22547 0
0.36908 -2.03581 0
0.293978 -0.892352 0
0.13002 -1.65115 0
0.109975 -0.777278 0
0.159736 -0.429966 0
-0.257458 -1.01451 0
0.114887 -0.424834 0
-0.272638 -1.01328 0
0.115907 -0.395516 0
-0.262675 -1.20577 0
0.247345 -0.446198 0
-0.170296 -1.21066 0
0.45681 -0.676454 0
0.0290667 -1.52252 0
0.232381 -0.542664 0
-0.156132 -1.37563 0
0.478632 -0.768334 0
0.0130602 -1.52244 0
0.287634 -1.7724 0
0.280948 -0.822165 0
0.050951 -1.70835 0
0.0529666 -0.738825 0
0.00230371 -0.651633 0
0.54719 -0.862646 0
0.0808431 -1.56937 0
0.0359115 -0.665243 0
0.00443971 -0.59491 0
0.317487 -1.84118 0
0.313355 -0.825411 0
0.391083 -0.582875 0
-0.0601645 -1.42177 0
-0.0075763 -0.673492 0
0.0876977 -1.40152 0
-0.0877921 -1.56571 0
0.159153 -1.23586 0
-0.0425356 -1.37181 0
-0.0460848 -1.49329 0
0.272947 -1.11278 0
-0.112729 -1.5304 0
0.229076 -1.0164 0
0.141305 -2.37386 0
0.120599 -0.909279 0
0.0125315 -2.37403 0
0.164345 -0.908408 0
0.0515353 -2.43414 0
0.19331 -0.891143 0
0.3631 -1.90934 0
-0.109252 -0.896601 0
0.316264 -1.87913 0
-0.129915 -0.855212 0
0.0518331 -2.38844 0
0.106206 -0.823033 0
0.219345 -1.59037 0
-0.158548 -0.846424 0
-0.0649178 -3.90118 0
-0.15661 -2.96643 0
-0.00437261 -3.04906 0
0.012142 -3.93355 0
0.178077 -0.782227 0
0.190629 -1.41982 0
0.240462 -0.886701 0
0.237747 -1.35156 0
0.287715 -0.896492 0
0.276213 -1.70568 0
0.262537 -0.857295 0
0.212435 -1.59818 0
0.204072 -1.57636 0
-0.0871675 -1.56811 0
-0.0393177 -1.4101 0
0.18084 -1.54685 0
-0.0228313 -1.6227 0
0.342716 -0.921723 0
0.279888 -1.45976 0
0.41038 -0.947288 0
0.294387 -1.54647 0
0.151853 -0.822095 0
0.00646113 -0.675721 0
0.371183 -2.01441 0
0.333361 -0.904493 0
0.201061 -1.6071 0
0.0918069 -0.903624 0
0.270694 -0.863184 0
-0.0120053 -0.865814 0
-0.0849616 -1.1212 0
0.129054 -0.670367 0
0.0895814 -1.36766 0
0.0386182 -0.997162 0
0.231594 -0.997004 0
-0.00716805 -0.799789 0
-0.0105276 -1.21404 0
0.137674 -0.851613 0
0.0367452 -1.11303 0
0.086337 -0.850508 0
0.217828 -0.811949 0
0.0101206 -0.678043 0
-0.0262047 -1.05386 0
0.0872622 -0.675113 0
0.351767 -0.965582 0
0.203749 -1.35809 0
0.266187 -0.852272 0
0.193735 -1.25395 0
0.160782 -0.788444 0
0.186122 -1.05462 0
0.190459 -0.956465 0
0.186519 -0.982372 0
0.126896 -0.730571 0
0.200697 -1.04606 0
0.174591 -0.765291 0
0.224745 -1.23378 0
0.127072 -0.753027 0
0.213366 -1.2176 0
0.21592 -1.05591 0
0.0549756 -0.666494 0
0.524168 -1.49088 0
0.499854 -1.48316 0
0.201909 -0.45807 0
-0.11669 -0.864356 0
0.137932 -1.20815 0
0.223805 -0.490127 0
-0.087076 -0.874749 0
-0.157759 -2.29505 0
0.184691 -1.35454 0
0.240463 -0.641868 0
-0.0356818 -0.789763 0
0.253093 -1.14788 0
0.565027 -1.18933 0
0.422163 -0.870773 0
-0.00698024 -1.15294 0
0.339965 -2.02148 0
0.132972 -1.00675 0
-0.17186 -2.92396 0
0.30942 -1.27352 0
0.183728 -1.43747 0
-0.0140844 -1.30522 0
0.513264 -1.40224 0
0.0732382 -1.11292 0
0.159298 -1.56625 0
0.305414 -1.45096 0
0.41848 -1.08087 0
0.318794 -1.03585 0
0.267696 -0.773097 0
-0.00480705 -1.28053 0
0.279743 -0.936321 0
-0.0234825 -1.23424 0
0.215352 -0.879497 0
-0.0903983 -1.22435 0
0.16316 -0.692704 0
-0.0769478 -1.32407 0
0.229649 -0.768741 0
0.399862 -1.28862 0
-0.0306368 -1.43057 0
-0.142289 -1.25417 0
0.252534 -1.62041 0
-0.106016 -0.826769 0
0.228931 -1.17671 0
0.371712 -1.66917 0
-0.0664981 -0.947369 0
0.354398 -1.05501 0
0.488166 -1.95 0
0.309827 -0.967988 0
0.226804 -1.86585 0
0.538778 -1.74184 0
0.513101 -1.43942 0
0.0860579 -0.665204 0
0.211836 -0.995006 0
0.0731141 -2.64894 0
0.23844 -1.99772 0
0.398178 -1.59943 0
0.228644 -2.17544 0
-0.0627968 -0.902649 0
0.23776 -0.59454 0
0.26515 -1.313 0
0.274522 -1.67145 0
0.52312 -1.49926 0
0.220089 -2.2637 0
0.102245 -2.94327 0
0.052017 -1.07646 0
0.339303 -1.40961 0
0.216715 -0.825571 0
-0.00972663 -0.644014 0
0.246536 -1.16133 0
0.101138 -0.856265 0
0.353704 -0.868699 0
0.297734 -1.81814 0
0.493301 -1.65043 0
0.334874 -1.2786 0
0.0398836 -0.940428 0
0.445708 -1.40469 0
-0.0509702 -1.08295 0
-0.170543 -1.20051 0
-0.173339 -1.4105 0
0.325543 -1.45231 0
0.531947 -1.67357 0
0.091646 -1.34735 0
0.449549 -1.54632 0
0.609247 -1.53818 0
0.354501 -1.15414 0
0.128421 -1.00646 0
0.301844 -0.819846 0
0.177734 -1.8588 0
-0.0770739 -3.71024 0
0.508496 -1.41579 0
-0.0068593 -1.19 0
0.407996 -1.31235 0
-0.0507409 -1.04258 0
0.260391 -1.09228 0
0.48024 -1.71206 0
0.238909 -1.10278 0
-0.0550808 -1.25879 0
0.144549 -2.31815 0
-0.0339062 -1.62914 0
0.491561 -1.37935 0
0.00136132 -1.71502 0
0.292977 -1.94083 0
-0.132995 -0.770963 0
0.172449 -0.58499 0
0.0616781 -3.29598 0
-0.250443 -1.1664 0
0.159219 -0.399349 0
0.0689211 -1.35033 0
0.209508 -2.09467 0
0.0785615 -1.72083 0
0.161111 -2.30547 0
0.550462 -1.2124 0
0.114554 -1.35524 0
-0.0436827 -0.659344 0
0.183834 -0.63187 0
0.306388 -1.87907 0
-0.0184094 -1.62685 0
0.102534 -2.46434 0
0.552556 -1.05266 0
0.0493438 -1.53041 0
-0.060235 -0.519769 0
0.141971 -0.704108 0
0.329194 -2.17782 0
0.0695842 -2.77019 0
0.0284356 -3.39032 0
0.122432 -1.29642 0
0.331788 -1.31715 0
0.435425 -1.28284 0
0.103493 -1.00304 0
0.0203361 -0.875458 0
0.225561 -0.66906 0
0.181402 -1.43313 0
0.448352 -1.47927 0
0.295783 -1.08852 0
-0.160654 -1.4257 0
-0.273424 -1.11675 0
0.474703 -1.22102 0
0.027375 -1.77869 0
0.315257 -1.39207 0
0.334224 -1.62334 0
-0.164646 -0.958559 0
0.212593 -0.44578 0
-0.234539 -1.4203 0
0.227802 -1.46756 0
-0.0872585 -1.45682 0
0.113259 -0.80311 0
-0.282278 -1.12184 0
0.33272 -0.928746 0
0.110592 -1.78038 0
-0.174688 -1.33992 0
0.362795 -0.80958 0
0.588306 -1.05596 0
0.12577 -1.57451 0
0.147761 -2.21374 0
0.290617 -2.19577 0
0.290687 -1.02285 0
0.441534 -1.70573 0
0.0020484 -1.06027 0
0.205513 -1.36873 0
-0.119151 -2.90016 0
-0.223215 -1.14274 0
0.262447 -0.822518 0
0.0792173 -1.75647 0
0.381342 -1.70958 0
-0.0690766 -0.850461 0
0.423803 -1.70766 0
-0.067204 -0.972515 0
0.308122 -0.840527 0
0.14398 -1.78726 0
-0.00454829 -1.29284 0
0.336313 -1.38209 0
0.37303 -1.01291 0
0.294346 -1.53352 0
0.578938 -1.61387 0
-0.143027 -0.93545 0
0.213474 -0.536126 0
0.302532 -0.954381 0
0.496632 -1.72302 0
0.292782 -0.818785 0
0.171324 -1.72671 0
-0.214157 -1.09618 0
0.28113 -0.923088 0
0.0152587 -1.84451 0
0.0424528 -3.06497 0
0.473257 -1.50797 0
0.0732295 -1.1386 0
0.0724245 -3.43608 0
0.404505 -1.07093 0
0.0624766 -1.82344 0
-0.282193 -1.10789 0
-0.041345 -1.42748 0
-0.0268701 -0.489102 0
0.0867085 -0.867049 0
0.187744 -2.48552 0
0.356757 -0.974633 0
0.0387698 -1.77576 0
-0.260782 -1.06882 0
0.20124 -2.26896 0
0.471974 -0.976191 0
0.495031 -1.04343 0
0.202623 -1.6489 0
0.120295 -2.31588 0
0.525314 -1.52677 0
0.239387 -2.24077 0
0.483937 -1.14025 0
0.531206 -1.1235 0
0.154518 -1.31534 0
0.0141202 -0.668476 0
0.172629 -0.655182 0
0.230371 -1.83492 0
0.23496 -1.81373 0
0.154764 -1.77286 0
0.490579 -1.48463 0
0.215466 -1.22794 0
0.0807861 -0.620395 0
0.449452 -1.04742 0
0.165554 -1.23249 0
0.108276 -0.892865 0
0.186578 -1.41143 0
0.577541 -1.03272 0
0.163159 -1.60593 0
0.0926437 -0.78619 0
0.21414 -1.28491 0
0.0917268 -0.700601 0
0.0978138 -0.909916 0
0.0162259 -0.445834 0
0.0724877 -1.06723 0
0.0073676 -0.448643 0
0.115552 -0.824457 0
0.0243425 -0.412044 0
0.0186859 -0.844263 0
0.040105 -0.450757 0
-0.0461185 -1.19407 0
0.0874746 -0.385534 0
-0.250524 -1.21547 0
0.236026 -1.76179 0
-0.121429 -0.840891 0
0.0600545 -0.418024 0
-0.173323 -1.23334 0
0.0510282 -0.42209 0
-0.123023 -0.901522 0
0.216005 -2.38006 0
0.248481 -2.80807 0
-0.0322154 -0.464296 0
0.0776955 -0.939831 0
0.0859195 -0.443739 0
-0.234965 -1.00003 0
-0.093122 -1.34954 0
0.0655591 -0.540912 0
-0.0444501 -0.866228 0
0.0797873 -0.464269 0
-0.157744 -0.914669 0
0.0489614 -0.487877 0
-0.0289727 -0.827108 0
0.0155492 -0.589309 0
0.0372832 -0.787646 0
0.290439 -1.67992 0
-0.108168 -0.6796 0
0.17852 -0.5963 0
0.00320955 -0.585463 0
0.179639 -0.726987 0
-0.128488 -0.7888 0
0.180987 -0.563311 0
0.00510984 -0.608169 0
0.114155 -0.783776 0
0.0102635 -0.513994 0
0.0656942 -0.715878 0
0.341853 -2.15698 0
0.255035 -2.02999 0
0.301822 -2.19963 0
-0.0699953 -0.565875 0
0.135999 -0.630824 0
-0.00443779 -0.515589 0
0.139078 -0.701424 0
0.00517047 -3.83456 0
0.37949 -1.27393 0
0.0214753 -1.71834 0
0.464782 -1.4487 0
0.110605 -3.68678 0
0.324827 -1.07311 0
0.241511 -2.83803 0
0.398188 -1.17516 0
0.141736 -2.95694 0
0.453843 -1.33152 0
0.0336707 -3.83494 0
0.321326 -1.14779 0
0.12722 -1.62462 0
0.577268 -0.943019 0
-0.119607 -1.2503 0
0.206407 -0.42392 0
-0.147006 -0.976876 0
0.00289691 -1.18122 0
0.206231 -0.408149 0
-0.150584 -1.04383 0
0.0352594 -1.33355 0
0.214959 -1.79439 0
-0.122111 -0.824841 0
0.174068 -0.47594 0
0.542261 -1.41773 0
0.00232492 -1.6611 0
-0.141802 -0.957776 0
0.214304 -0.438964 0
0.410968 -1.33265 0
-0.153776 -0.892285 0
0.203632 -0.482945 0
0.387137 -1.0424 0
0.376619 -1.93291 0
0.144467 -1.06567 0
0.403742 -1.62048 0
0.0278694 -3.87126 0
0.470099 -1.32781 0
-0.043777 -3.59084 0
0.0357956 -3.09867 0
0.484073 -1.49267 0
0.209793 -1.62903 0
0.469371 -0.973525 0
-0.148326 -1.83097 0
0.232651 -0.977179 0
0.144563 -1.54474 0
0.426584 -0.806172 0
0.0338975 -2.44579 0
0.47919 -1.57057 0
0.112803 -1.51466 0
0.518325 -0.780685 0
-0.179586 -2.30162 0
0.371473 -1.26025 0
-0.168314 -1.86911 0
0.231166 -1.14381 0
0.200278 -0.378258 0
-0.208413 -1.08604 0
0.199175 -0.39925 0
-0.235339 -1.09515 0
0.22235 -0.391991 0
-0.186701 -1.08773 0
0.212821 -0.373245 0
-0.176954 -1.06474 0
0.126285 -1.62371 0
-0.150609 -0.801719 0
0.175608 -1.56912 0
-0.118435 -0.748821 0
0.253392 -1.70258 0
-0.111183 -0.777197 0
0.186717 -1.61929 0
-0.152916 -0.847186 0
0.264842 -1.45471 0
0.205553 -1.95105 0
-0.041285 -0.84208 0
0.426335 -2.1109 0
-0.034405 -0.917054 0
0.30121 -1.85856 0
0.271657 -2.2043 0
0.0476357 -0.896709 0
0.0997862 -2.25055 0
0.059496 -0.86767 0
0.407247 -1.21558 0
0.303936 -1.17799 0
0.250867 -1.14026 0
0.28903 -1.11254 0
-0.145048 -0.701095 0
-0.139033 -0.697141 0
-0.135917 -0.697845 0
-0.143104 -0.727218 0
0.0387334 -0.762012 0
0.0273294 -0.690262 0
0.0718227 -0.711067 0
0.0919202 -0.734494 0
0.229131 -0.409182 0
-0.219494 -1.15098 0
0.246612 -0.523036 0
-0.104073 -0.968995 0
0.191017 -0.529757 0
-0.126935 -1.09919 0
0.194847 -0.431161 0
-0.236631 -1.24586 0
-0.0465756 -1.50519 0
0.383936 -0.69495 0
-0.0865978 -1.30972 0
0.342048 -0.520286 0
-0.106243 -1.29334 0
0.329752 -0.48192 0
-0.0778272 -1.47552 0
0.376629 -0.678768 0
0.194961 -0.931326 0
0.236692 -1.4461 0
0.245191 -1.39027 0
0.214274 -1.05227 0
-0.0705456 -2.48355 0
-0.0165363 -2.45636 0
-0.110486 -2.4172 0
-0.163222 -2.60665 0
0.0325176 -0.843171 0
-0.0361168 -1.34707 0
-0.037172 -1.11656 0
0.0435626 -1.2961 0
0.0334693 -1.05975 0
0.0765829 -1.34072 0
0.0585127 -0.80923 0
-0.0200788 -1.49056 0
0.071107 -2.26765 0
0.0556489 -2.17229 0
0.230826 -1.66094 0
0.238038 -1.93255 0
-0.0416623 -0.502451 0
-0.0351003 -0.537042 0
-0.0248404 -0.537497 0
-0.0597889 -0.530359 0
0.244589 -0.444144 0
-0.169053 -1.00203 0
0.239017 -0.402001 0
-0.163577 -1.04406 0
0.27819 -0.417732 0
-0.151622 -1.09025 0
0.296475 -0.479 0
-0.14595 -1.18693 0
0.0193755 -1.61457 0
0.0573345 -1.60451 0
0.170783 -1.64147 0
0.0916565 -1.72335 0
0.0159571 -1.95512 0
-0.0164734 -2.40046 0
-0.0601123 -2.26674 0
0.0477557 -1.95144 0
-0.0854424 -0.571748 0
0.0391708 -1.07627 0
-0.120784 -0.580439 0
-0.0879807 -0.554929 0
-0.0529945 -0.517965 0
-0.118686 -0.588886 0
-0.130107 -0.704684 0
-0.114541 -0.67032 0
-0.106577 -0.609701 0
0.162479 -1.03831 0
-0.127582 -1.44928 0
0.118559 -1.07467 0
-0.147611 -1.37886 0
0.102843 -1.17009 0
-0.0573499 -1.31002 0
0.10626 -1.15113 0
-0.110813 -1.40656 0
0.119048 -1.16808 0
0.106561 -1.29133 0
0.11187 -1.20403 0
0.175004 -1.28916 0
0.0701567 -1.22133 0
0.137851 -1.22204 0
0.0755699 -1.19352 0
0.119646 -1.20353 0
0.438775 -1.03418 0
0.00884235 -1.34473 0
0.406562 -1.07401 0
0.0625591 -1.36613 0
0.326304 -0.961753 0
0.00750507 -1.03994 0
0.367296 -0.87208 0
-0.0127829 -0.974966 0
0.0360163 -0.842119 0
0.10562 -0.779521 0
0.126118 -0.892843 0
0.0337356 -0.904878 0
0.196541 -0.839995 0
0.0438392 -1.05889 0
0.153747 -0.679421 0
-0.0709042 -1.12659 0
0.1676 -0.66473 0
-0.057409 -1.00023 0
0.188544 -0.789852 0
0.0432329 -0.946039 0
-0.0594128 -1.30129 0
0.209786 -1.22673 0
-0.0182559 -1.13747 0
0.0945703 -1.23854 0
-0.0364257 -1.1294 0
0.0869568 -1.11922 0
-0.100153 -1.38855 0
0.138604 -1.16375 0
0.113382 -0.410834 0
-0.203351 -1.36804 0
0.151657 -0.414691 0
-0.200809 -1.2674 0
0.146412 -0.51522 0
-0.138689 -1.26494 0
0.129162 -0.53551 0
-0.143927 -1.26477 0
0.0587847 -1.18473 0
0.156386 -1.10742 0
0.200115 -1.42999 0
0.0716867 -1.41612 0
-0.0941138 -2.63787 0
-0.228107 -2.63975 0
-0.172261 -2.49713 0
-0.0760631 -2.58955 0
-0.127907 -0.715167 0
-0.0936479 -0.586931 0
-0.0196189 -0.602673 0
-0.0144594 -0.670972 0
0.236502 -0.854569 0
0.223617 -1.72993 0
0.160062 -0.816361 0
0.207871 -1.63982 0
0.158557 -0.84306 0
0.27275 -1.6844 0
0.246844 -0.829948 0
0.351094 -1.8143 0
0.0369129 -0.768234 0
0.0492599 -1.72348 0
0.054396 -0.79263 0
0.003176 -1.58447 0
0.0236743 -1.04957 0
0.0726264 -1.43569 0
0.00892631 -0.982138 0
0.0546549 -1.35929 0
0.120449 -1.8092 0
0.256664 -1.41427 0
0.226614 -1.46898 0
0.0875198 -2.03056 0
0.353188 -1.84138 0
0.220161 -1.79363 0
0.255646 -1.71404 0
0.282702 -1.6135 0
0.451507 -1.69595 0
0.411482 -1.79912 0
0.344768 -1.92099 0
0.475519 -1.97424 0
0.0303561 -1.76886 0
0.0447483 -1.79949 0
-0.0512265 -2.1661 0
-0.00679273 -2.07062 0
0.00752081 -1.14491 0
0.420013 -1.63456 0
0.0270299 -1.37821 0
0.338903 -1.2168 0