# vtk DataFile Version 2.0
Unstructured Grid by M++
ASCII
DATASET UNSTRUCTURED_GRID
POINTS 1089 float
  0.718750   0.687500 0
  0.750000   0.687500 0
  0.718750   0.656250 0
  0.750000   0.718750 0
  0.625000   0.562500 0
  0.625000   0.593750 0
  0.656250   0.593750 0
  0.750000   0.750000 0
  0.687500   0.656250 0
  0.687500   0.625000 0
  0.656250   0.625000 0
  0.906250   0.593750 0
  1.000000   0.968750 0
  0.750000   0.968750 0
  0.718750   0.968750 0
  0.718750   1.000000 0
  0.750000   1.000000 0
  0.906250   0.906250 0
  0.843750   0.531250 0
  0.656250   0.937500 0
  0.656250   0.906250 0
  0.562500   0.812500 0
  0.562500   0.843750 0
  0.593750   0.875000 0
  0.593750   0.843750 0
  0.812500   0.718750 0
  0.625000   0.625000 0
  0.968750   0.875000 0
  0.531250   0.875000 0
  0.625000   0.937500 0
  0.562500   0.562500 0
  0.906250   0.812500 0
  0.531250   0.781250 0
  0.562500   0.593750 0
  0.906250   0.843750 0
  0.625000   0.656250 0
  0.968750   0.906250 0
  0.687500   0.968750 0
  0.812500   0.812500 0
  0.687500   1.000000 0
  0.687500   0.687500 0
  0.937500   0.843750 0
  0.593750   0.593750 0
  1.000000   0.625000 0
  0.968750   0.593750 0
  0.906250   0.875000 0
  0.968750   0.625000 0
  0.625000   0.875000 0
  0.875000   0.875000 0
  0.625000   0.906250 0
  0.875000   0.843750 0
  0.531250   0.812500 0
  0.968750   0.562500 0
  0.593750   0.625000 0
  0.937500   0.875000 0
  0.656250   0.687500 0
  1.000000   0.937500 0
  0.875000   0.562500 0
  0.687500   0.937500 0
  0.937500   0.625000 0
  0.812500   0.781250 0
  0.937500   0.562500 0
  0.875000   0.781250 0
  0.531250   0.531250 0
  0.718750   0.937500 0
  0.968750   0.937500 0
  0.906250   0.562500 0
  0.843750   0.781250 0
  0.593750   0.562500 0
  1.000000   0.906250 0
  0.656250   0.656250 0
  0.937500   0.906250 0
  0.875000   0.531250 0
  0.812500   0.750000 0
  0.656250   0.968750 0
  0.937500   0.531250 0
  0.843750   0.812500 0
  0.906250   0.531250 0
  0.843750   0.750000 0
  0.937500   0.593750 0
  0.875000   0.812500 0
  0.531250   0.562500 0
  1.000000   0.593750 0
  0.562500   0.906250 0
  0.562500   0.531250 0
  0.593750   0.906250 0
  0.593750   0.937500 0
  0.562500   0.875000 0
  0.781250   0.750000 0
  0.781250   0.781250 0
  0.593750   0.531250 0
  1.000000   0.687500 0
  0.531250   0.843750 0
  0.718750   0.718750 0
  0.781250   0.718750 0
  0.781250   0.687500 0
  1.000000   0.656250 0
  0.968750   0.656250 0
  0.843750   0.843750 0
  0.781250   1.000000 0
  0.656250   0.312500 0
  0.531250   0.250000 0
  0.875000   0.500000 0
  0.531250   0.218750 0
  0.875000   0.468750 0
  0.531250   0.156250 0
  0.593750   0.812500 0
  0.093750   0.562500 0
  0.656250   0.562500 0
  0.156250   0.312500 0
  0.031250   0.812500 0
  0.125000   1.000000 0
  0.312500   0.250000 0
  0.250000   0.500000 0
  0.375000   0.000000 0
  0.187500   0.750000 0
  0.812500   0.906250 0
  0.312500   0.656250 0
  0.250000   0.906250 0
  0.875000   0.656250 0
  0.375000   0.406250 0
  0.750000   0.843750 0
  0.250000   0.593750 0
  0.187500   0.843750 0
  0.812500   0.593750 0
  0.312500   0.343750 0
  0.625000   0.968750 0
  0.125000   0.718750 0
  0.687500   0.718750 0
  0.187500   0.468750 0
  0.062500   0.968750 0
  0.125000   0.656250 0
  0.187500   0.406250 0
  0.250000   0.156250 0
  0.062500   0.906250 0
  0.468750   0.906250 0
  0.656250   0.156250 0
  0.468750   0.812500 0
  0.593750   0.312500 0
  0.656250   0.062500 0
  0.625000   0.812500 0
  0.125000   0.562500 0
  0.687500   0.562500 0
  0.187500   0.312500 0
  0.062500   0.812500 0
  0.562500   0.937500 0
  0.062500   0.687500 0
  0.625000   0.687500 0
  0.125000   0.437500 0
  0.000000   0.937500 0
  0.062500   0.625000 0
  0.187500   0.125000 0
  0.125000   0.375000 0
  0.000000   0.875000 0
  0.406250   0.875000 0
  0.468750   0.625000 0
  0.593750   0.125000 0
  0.812500   0.937500 0
  0.312500   0.687500 0
  0.250000   0.937500 0
  0.875000   0.687500 0
  0.375000   0.437500 0
  0.750000   0.875000 0
  0.250000   0.625000 0
  0.187500   0.875000 0
  0.812500   0.625000 0
  0.312500   0.375000 0
  0.468750   0.781250 0
  0.593750   0.281250 0
  0.656250   0.031250 0
  0.625000   0.781250 0
  0.125000   0.531250 0
  0.062500   0.781250 0
  0.687500   0.531250 0
  0.187500   0.281250 0
  0.500000   0.812500 0
  0.687500   0.062500 0
  0.625000   0.312500 0
  0.656250   0.812500 0
  0.156250   0.562500 0
  0.718750   0.562500 0
  0.218750   0.312500 0
  0.093750   0.812500 0
  0.437500   0.968750 0
  0.625000   0.218750 0
  0.500000   0.781250 0
  0.687500   0.031250 0
  0.625000   0.281250 0
  0.656250   0.781250 0
  0.156250   0.531250 0
  0.718750   0.531250 0
  0.218750   0.281250 0
  0.093750   0.781250 0
  0.062500   0.562500 0
  0.125000   0.312500 0
  0.187500   0.062500 0
  0.000000   0.812500 0
  0.406250   0.812500 0
  0.968750   0.812500 0
  0.468750   0.562500 0
  0.593750   0.062500 0
  0.218750   0.687500 0
  0.156250   0.937500 0
  0.281250   0.437500 0
  0.062500   0.843750 0
  0.687500   0.593750 0
  0.187500   0.343750 0
  0.625000   0.843750 0
  0.125000   0.593750 0
  0.312500   0.843750 0
  0.437500   0.343750 0
  0.500000   0.093750 0
  0.375000   0.593750 0
  0.312500   0.906250 0
  0.937500   0.656250 0
  0.437500   0.406250 0
  0.875000   0.906250 0
  0.375000   0.656250 0
  0.062500   0.875000 0
  0.187500   0.375000 0
  0.250000   0.125000 0
  0.125000   0.625000 0
  0.093750   0.656250 0
  0.031250   0.906250 0
  0.218750   0.156250 0
  0.156250   0.406250 0
  0.593750   0.968750 0
  0.093750   0.718750 0
  0.031250   0.968750 0
  0.656250   0.718750 0
  0.156250   0.468750 0
  0.437500   0.906250 0
  0.625000   0.156250 0
  0.718750   0.812500 0
  0.218750   0.562500 0
  0.781250   0.562500 0
  0.281250   0.312500 0
  0.156250   0.812500 0
  0.062500   0.656250 0
  0.000000   0.906250 0
  0.187500   0.156250 0
  0.125000   0.406250 0
  0.562500   0.968750 0
  0.062500   0.718750 0
  0.000000   0.968750 0
  0.625000   0.718750 0
  0.125000   0.468750 0
  0.406250   0.968750 0
  0.968750   0.968750 0
  0.468750   0.718750 0
  0.531250   0.468750 0
  0.593750   0.218750 0
  0.406250   0.906250 0
  0.468750   0.656250 0
  0.593750   0.156250 0
  0.687500   0.781250 0
  0.187500   0.531250 0
  0.750000   0.531250 0
  0.250000   0.281250 0
  0.125000   0.781250 0
  0.781250   0.906250 0
  0.281250   0.656250 0
  0.218750   0.906250 0
  0.843750   0.656250 0
  0.343750   0.406250 0
  0.750000   0.906250 0
  0.250000   0.656250 0
  0.187500   0.906250 0
  0.812500   0.656250 0
  0.312500   0.406250 0
  0.875000   0.406250 0
  0.375000   0.156250 0
  0.812500   0.968750 0
  0.312500   0.718750 0
  0.250000   0.968750 0
  0.875000   0.718750 0
  0.375000   0.468750 0
  0.781250   0.937500 0
  0.281250   0.687500 0
  0.218750   0.937500 0
  0.843750   0.687500 0
  0.343750   0.437500 0
  0.718750   0.875000 0
  0.218750   0.625000 0
  0.156250   0.875000 0
  0.781250   0.625000 0
  0.281250   0.375000 0
  0.750000   0.937500 0
  0.250000   0.687500 0
  0.187500   0.937500 0
  0.875000   0.437500 0
  0.375000   0.187500 0
  0.812500   0.687500 0
  0.312500   0.437500 0
  0.687500   0.875000 0
  0.187500   0.625000 0
  0.750000   0.625000 0
  0.250000   0.375000 0
  0.125000   0.875000 0
  0.812500   1.000000 0
  0.312500   0.750000 0
  0.250000   1.000000 0
  0.875000   0.750000 0
  0.375000   0.500000 0
  0.562500   1.000000 0
  0.062500   0.750000 0
  0.000000   1.000000 0
  0.625000   0.750000 0
  0.125000   0.500000 0
  0.406250   1.000000 0
  0.968750   1.000000 0
  0.468750   0.750000 0
  0.656250   0.000000 0
  0.531250   0.500000 0
  0.593750   0.250000 0
  0.406250   0.937500 0
  0.468750   0.687500 0
  0.593750   0.187500 0
  0.687500   0.812500 0
  0.187500   0.562500 0
  0.750000   0.562500 0
  0.250000   0.312500 0
  0.125000   0.812500 0
  0.437500   0.843750 0
  0.625000   0.093750 0
  0.093750   0.593750 0
  0.156250   0.343750 0
  0.218750   0.093750 0
  0.031250   0.843750 0
  0.281250   0.937500 0
  0.843750   0.937500 0
  0.343750   0.687500 0
  0.906250   0.687500 0
  0.406250   0.437500 0
  0.156250   0.968750 0
  0.218750   0.718750 0
  0.281250   0.468750 0
  0.343750   0.218750 0
  0.156250   1.000000 0
  0.406250   0.000000 0
  0.281250   0.500000 0
  0.343750   0.250000 0
  0.218750   0.750000 0
  0.187500   0.968750 0
  0.250000   0.718750 0
  0.375000   0.218750 0
  0.312500   0.468750 0
  0.187500   1.000000 0
  0.312500   0.500000 0
  0.375000   0.250000 0
  0.437500   0.000000 0
  0.250000   0.750000 0
  0.031250   0.781250 0
  0.656250   0.531250 0
  0.156250   0.281250 0
  0.593750   0.781250 0
  0.093750   0.531250 0
  0.000000   0.781250 0
  0.625000   0.531250 0
  0.125000   0.281250 0
  0.562500   0.781250 0
  0.062500   0.531250 0
  0.781250   0.968750 0
  0.281250   0.718750 0
  0.218750   0.968750 0
  0.843750   0.718750 0
  0.343750   0.468750 0
  0.281250   0.968750 0
  0.843750   0.968750 0
  0.343750   0.718750 0
  0.906250   0.718750 0
  0.406250   0.468750 0
  0.281250   1.000000 0
  0.906250   0.750000 0
  0.406250   0.500000 0
  0.843750   1.000000 0
  0.343750   0.750000 0
  0.531250   0.000000 0
  0.718750   0.843750 0
  0.218750   0.593750 0
  0.156250   0.843750 0
  0.781250   0.593750 0
  0.281250   0.343750 0
  0.687500   0.843750 0
  0.187500   0.593750 0
  0.750000   0.593750 0
  0.250000   0.343750 0
  0.125000   0.843750 0
  0.218750   0.875000 0
  0.843750   0.625000 0
  0.343750   0.375000 0
  0.781250   0.875000 0
  0.281250   0.625000 0
  0.156250   0.906250 0
  0.781250   0.656250 0
  0.281250   0.406250 0
  0.718750   0.906250 0
  0.218750   0.656250 0
  0.031250   1.000000 0
  0.656250   0.750000 0
  0.156250   0.500000 0
  0.593750   1.000000 0
  0.093750   0.750000 0
  0.218750   1.000000 0
  0.343750   0.500000 0
  0.468750   0.000000 0
  0.406250   0.250000 0
  0.281250   0.750000 0
  0.593750   0.406250 0
  0.093750   0.156250 0
  0.531250   0.656250 0
  0.031250   0.406250 0
[...]
CELL_DATA 1024
VECTORS vector_value float
0.0691711 -0.907816 0
0.104907 -0.748137 0
0.00893027 -1.30669 0
0.370616 -0.822718 0
0.384621 -0.7732 0
0.299832 -1.02792 0
0.00651631 -0.411865 0
0.0107841 -0.472572 0
-0.0194294 -0.460822 0
0.0031553 -0.363053 0
0.0275322 -0.302566 0
0.00147919 -0.843402 0
-0.00858375 -0.894454 0
-0.00968884 -0.667577 0
-0.0138007 -0.65362 0
-0.0175318 -0.66703 0
-0.0154255 -0.848574 0
-0.017059 -0.892243 0
-0.0203123 -0.453057 0
0.0147127 -0.500168 0
-0.0136009 -0.453464 0
0.0125558 -0.597455 0
0.0446688 -0.494164 0
0.0853978 -0.653726 0
-0.0720712 -2.5493 0
-0.317255 -2.70773 0
-0.0557753 -2.29506 0
0.092721 -2.07063 0
0.262195 -1.18769 0
0.105653 -0.391847 0
0.0560381 -1.70747 0
0.230258 -1.63647 0
0.195186 -1.50501 0
0.0361363 -1.50057 0
-0.0548646 -0.752155 0
-0.0776689 -0.716297 0
-0.0256682 -0.686308 0
-0.0255246 -0.647949 0
-0.018975 -0.84351 0
0.46056 -0.674089 0
0.335747 -1.20744 0
0.450626 -1.32482 0
0.544148 -1.09566 0
0.30751 -0.848736 0
0.848047 -1.8979 0
-0.0568754 -0.475735 0
0.447501 -0.578963 0
1.00852 -2.19718 0
-0.132239 -0.774868 0
0.461493 -0.783708 0
0.839107 -1.48275 0
-0.240458 -2.86404 0
0.502935 -0.976131 0
0.435681 -0.623828 0
0.382798 -0.920496 0
0.433437 -0.726934 0
0.402125 -0.738021 0
0.600346 -1.08653 0
0.288239 -0.850764 0
-0.101002 -1.66798 0
0.171646 -0.586435 0
0.17199 -0.57934 0
-0.437851 -3.1304 0
-0.0453205 -2.40368 0
0.0876319 -0.445588 0
0.0362758 -0.867226 0
-0.109879 -1.1547 0
0.143918 -0.575069 0
0.588399 -2.00827 0
-0.0743437 -0.619699 0
0.408926 -0.616531 0
0.333717 -0.738375 0
-0.165899 -1.66531 0
0.123446 -2.10963 0
-0.155375 -2.00841 0
0.237676 -1.48992 0
0.124204 -0.578871 0
0.0158698 -0.349994 0
0.198093 -1.4523 0
0.450897 -1.57509 0
0.0486667 -0.440651 0
-0.0754629 -0.711374 0
-0.14666 -2.45693 0
-0.0621064 -2.47891 0
-0.254771 -2.63485 0
0.0910682 -2.13328 0
0.0791847 -0.88646 0
-0.0743344 -1.04586 0
-0.195963 -0.808221 0
0.430388 -0.557094 0
0.367714 -0.666943 0
-0.231773 -1.15571 0
-0.0812141 -2.58808 0
0.213757 -2.28737 0
-0.0395036 -1.34339 0
-0.0491866 -1.7628 0
0.508687 -1.5366 0
0.538985 -1.50025 0
-0.0106811 -1.60067 0
-0.133759 -1.78914 0
0.465948 -0.80121 0
0.0129998 -0.814513 0
0.152356 -0.645362 0
0.429568 -1.99248 0
0.0466525 -1.5773 0
0.434909 -1.15734 0
0.126517 -0.406538 0
0.501473 -0.613002 0
0.334133 -0.661472 0
-0.145038 -1.71618 0
0.130799 -2.59146 0
0.0214211 -1.98638 0
0.0947827 -0.573601 0
-0.244176 -1.40273 0
0.0505085 -0.309741 0
0.038586 -0.408124 0
0.14953 -1.55754 0
0.292757 -1.81489 0
0.299092 -2.29581 0
-0.041241 -1.47866 0
0.184143 -0.622776 0
-0.0102494 -0.918677 0
-0.0102983 -0.95373 0
0.486747 -2.06222 0
0.0874629 -0.321552 0
0.0356133 -0.425593 0
0.403971 -0.767846 0
0.177793 -1.08054 0
0.381295 -2.21579 0
-0.0766506 -1.70685 0
0.259308 -1.19874 0
0.0913012 -0.417455 0
0.258042 -1.87945 0
-0.091997 -0.979302 0
0.0433555 -0.78153 0
0.246417 -1.08407 0
-0.246057 -1.5206 0
0.0487449 -0.319956 0
-0.0909609 -2.38906 0
0.172987 -1.60594 0
0.062601 -0.530419 0
0.160161 -1.97376 0
-0.0604775 -0.741681 0
0.603461 -3.06777 0
0.184196 -0.731113 0
0.418017 -1.46655 0
0.0599481 -0.427545 0
0.41038 -1.66013 0
0.00577737 -1.19569 0
0.0548709 -0.591167 0
0.0848973 -0.34378 0
-0.0659971 -0.549142 0
0.605102 -0.90944 0
0.106591 -1.13334 0
0.096533 -0.610033 0
0.0593157 -0.727445 0
0.0254207 -0.927364 0
0.537185 -2.39271 0
0.153415 -2.4487 0
-0.235476 -1.12105 0
0.392936 -0.589725 0
0.189339 -0.791367 0
-0.282671 -2.88035 0
0.146854 -2.08405 0
0.0489834 -0.622073 0
0.0081692 -2.37777 0
-0.103608 -0.769581 0
0.864976 -2.77742 0
0.17447 -0.706852 0
0.389778 -1.87055 0
0.518288 -0.668762 0
-0.129853 -2.68217 0
-0.113483 -2.50916 0
0.0586166 -2.7677 0
-0.140915 -3.32471 0
-0.0646507 -3.31397 0
-0.31249 -3.15063 0
-0.0936818 -2.44106 0
-0.132034 -1.14654 0
0.508107 -1.22326 0
0.0601393 -1.09366 0
0.54241 -0.727577 0
-0.0896528 -0.830343 0
0.44467 -0.855037 0
0.0681794 -0.995995 0
-0.137162 -0.945964 0
0.450003 -0.818876 0
0.246008 -0.898826 0
-0.227974 -0.855705 0
0.244307 -1.20017 0
-0.117566 -1.42691 0
0.0752237 -0.329455 0
0.229007 -1.10564 0
0.204996 -0.734251 0
0.507881 -1.91032 0
-0.130034 -0.750159 0
0.0387679 -1.30465 0
0.0725156 -0.313321 0
0.357825 -0.910172 0
0.285586 -1.16612 0
0.0881654 -0.302209 0
0.438254 -1.10096 0
0.0443801 -1.3007 0
0.0673272 -0.41542 0
-0.0100954 -0.582551 0
0.00750076 -0.587164 0
0.325505 -1.42706 0
0.142864 -0.590295 0
0.1734 -0.87759 0
0.0518128 -0.570236 0
0.21741 -1.58311 0
0.126497 -0.549431 0
0.179438 -0.717559 0
0.0609403 -0.413083 0
-0.0509668 -1.6256 0
0.0452969 -0.442945 0
0.0804091 -1.26656 0
0.212887 -0.672084 0
0.356667 -0.845364 0
0.63761 -1.53754 0
0.263194 -0.727379 0
0.562478 -0.876174 0
0.0325652 -0.609571 0
0.109869 -0.345462 0
0.532705 -1.73946 0
0.0454934 -0.33497 0
0.0404255 -0.362253 0
0.151408 -0.448507 0
0.337026 -1.35772 0
0.0709594 -0.438399 0
0.161718 -0.453115 0
0.0623362 -0.472417 0
0.386867 -0.862536 0
0.123681 -0.524048 0
0.133059 -0.507765 0
0.160189 -0.427325 0
0.443109 -1.00654 0
0.0566131 -0.358533 0
0.591603 -0.790366 0
-0.126857 -0.72391 0
0.345826 -1.2892 0
0.140536 -0.540654 0
0.027718 -1.86148 0
0.119964 -0.319485 0
0.480222 -0.876388 0
0.0819366 -0.457846 0
0.0584713 -0.737604 0
-0.0721996 -2.76051 0
0.0506881 -0.85318 0
0.187048 -2.53142 0
0.19761 -2.727 0
0.0645745 -2.77327 0
0.094805 -1.43318 0
0.0996688 -1.77561 0
0.293104 -1.6943 0
0.195767 -1.52926 0
-0.130131 -1.1947 0
0.0116155 -1.39726 0
0.0274728 -1.48689 0
0.192483 -1.28258 0
0.272466 -1.02 0
0.0068485 -1.29448 0
0.551923 -2.31553 0
0.390772 -1.83464 0
0.470703 -1.9602 0
0.492363 -1.58648 0
0.330978 -1.57172 0
0.267179 -1.38609 0
0.419358 -1.40486 0
0.336016 -1.30232 0
0.58093 -1.12643 0
0.609779 -1.22127 0
0.518878 -1.34416 0
0.401438 -1.40747 0
0.250217 -1.11339 0
-0.0580429 -2.19168 0
0.227673 -1.17201 0
0.0640368 -0.939443 0
-0.0170212 -0.875361 0
0.0428148 -0.957262 0
-0.658778 -2.73282 0
-0.266725 -2.61213 0
-0.427873 -0.723271 0
-0.450978 -0.863345 0
-0.122314 -0.602992 0
-0.843782 -2.97485 0
-0.0630072 -0.55838 0
-0.396954 -2.01805 0
0.0291666 -0.745682 0
-0.581701 -2.51302 0
0.0121989 -0.57088 0
-0.730425 -2.29904 0
0.115004 -1.01932 0
-0.781496 -2.10203 0
0.534938 -1.09749 0
-0.307668 -2.65621 0
0.454365 -0.864773 0
-0.191961 -2.12165 0
-0.0189914 -0.536454 0
-0.0174003 -0.38616 0
-0.0264925 -0.769393 0
0.0654983 -2.26678 0
-0.0727368 -0.569691 0
-0.0855307 -0.627376 0
-0.238178 -1.8648 0
-0.0586434 -0.490576 0
0.141113 -0.768213 0
-0.0259703 -0.478565 0
-0.589545 -1.86576 0
-0.0134491 -0.407007 0
0.0918903 -0.579622 0
0.612786 -1.94136 0
0.00090288 -0.375135 0
0.616509 -1.12971 0
-0.582609 -0.890262 0
0.0967892 -0.723838 0
0.0405463 -2.15876 0
0.481254 -1.67333 0
0.442144 -0.933239 0
0.882933 -2.14224 0
0.315138 -1.93843 0
-0.425669 -1.56709 0
0.00254832 -0.448157 0
0.917459 -1.49887 0
-0.580056 -1.76608 0
0.0215126 -0.424361 0
1.03678 -1.98363 0
0.101171 -1.96292 0
0.19128 -0.741312 0
0.0382012 -0.445229 0
-0.0343656 -0.707232 0
-0.0450311 -1.45506 0
0.488834 -0.993187 0
0.139622 -0.553829 0
-0.122085 -0.912609 0
-0.0120306 -1.87309 0
-0.433396 -1.03016 0
-0.0891325 -0.968753 0
0.100469 -0.915666 0
-0.654372 -0.691589 0
-0.409635 -1.8524 0
-0.325401 -1.01647 0
-0.318758 -1.00302 0
-0.046219 -0.906941 0
-0.745665 -0.817791 0
-0.438595 -1.89635 0
-0.514077 -2.43038 0
0.0508958 -0.691167 0
-0.73578 -1.02304 0
0.0464599 -0.925202 0
-0.723514 -0.828786 0
-0.0792534 -0.700836 0
-0.446829 -2.84424 0
-0.11071 -0.567704 0
-0.594639 -1.54362 0
-0.303488 -1.24012 0
0.220145 -0.688675 0
0.0399293 -0.450905 0
0.58659 -1.77339 0
-0.0485114 -0.592961 0
-0.635116 -0.889475 0
0.264382 -1.22617 0
-0.240996 -0.806924 0
-0.67821 -0.77712 0
-0.464755 -1.14048 0
-0.499757 -2.26566 0
0.298449 -1.32797 0
-0.697217 -0.77271 0
0.349823 -0.977421 0
0.184416 -2.15959 0
0.352587 -1.79061 0
0.414771 -1.02479 0
0.249659 -1.16337 0
-0.687797 -0.883929 0
-0.0441051 -0.753262 0
0.0651718 -0.554728 0
0.0109194 -0.39626 0
0.437946 -1.50091 0
-0.720144 -1.00961 0
0.249619 -0.635998 0
0.596937 -0.982079 0
-0.4005 -0.684108 0
-0.225365 -0.878403 0
-0.188179 -0.65102 0
-0.174229 -1.16713 0
-0.0177585 -0.662011 0
-0.336319 -0.935552 0
-0.440092 -0.842591 0
-0.102125 -1.4134 0
-0.377294 -1.01748 0
-0.134745 -1.0568 0
0.00491404 -0.384249 0
0.834181 -1.39246 0
-0.0544143 -0.698344 0
-0.619451 -1.02649 0
-0.491508 -2.293 0
-0.557007 -0.755061 0
-0.179954 -0.795934 0
-0.0123347 -1.14078 0
-0.0382597 -0.835011 0
-0.266389 -1.9492 0
-0.51111 -2.48224 0
-0.515968 -0.781024 0
0.0840514 -0.836299 0
-0.000873014 -0.662617 0
-0.0177584 -0.709163 0
-0.28777 -1.43888 0
-0.519078 -2.28643 0
-0.409922 -2.12119 0
-0.398161 -1.46524 0
0.0291793 -0.486795 0
0.0306451 -0.592308 0
-0.452379 -1.73313 0
-0.451469 -0.779899 0
-0.0505294 -0.820187 0
-0.323767 -1.36177 0
-0.442886 -0.802698 0
-0.0863558 -0.922506 0
-0.275858 -1.32011 0
-0.190065 -0.852133 0
-0.0265005 -0.790727 0
-0.0621822 -0.777612 0
0.0733457 -1.01915 0
-0.394691 -0.915037 0
-0.232622 -0.912408 0
-0.212223 -0.979638 0
-0.247826 -1.5719 0
-0.0145801 -1.6742 0
0.47512 -2.45896 0
0.199538 -2.13073 0
0.568492 -1.12252 0
-0.166242 -1.99349 0
0.324092 -2.15624 0
-0.68239 -0.763529 0
0.200366 -1.088 0
-0.126053 -1.39294 0
0.220762 -1.87335 0
-0.268788 -1.04478 0
-0.180628 -1.04774 0
-0.22033 -0.982585 0
-0.17366 -0.79801 0
-0.139456 -0.666754 0
-0.276784 -0.96831 0
-0.458625 -0.84147 0
-0.125308 -0.73952 0
0.369847 -1.55357 0
-0.332549 -1.27043 0
0.00633694 -0.990277 0
-0.588236 -0.767187 0
0.0414936 -1.37418 0
0.5473 -1.66514 0
0.0786535 -1.19742 0
-0.608826 -0.860997 0
0.465777 -1.41014 0
0.243535 -1.19479 0
-0.670834 -0.868653 0
-0.344106 -1.04223 0
0.192863 -1.22231 0
0.15087 -1.15393 0
-0.686391 -0.749414 0
0.37938 -2.04892 0
0.284636 -1.68129 0
0.21638 -2.14926 0
0.10173 -1.87208 0
0.206274 -2.00622 0
0.0033673 -1.64937 0
0.214362 -1.43051 0
0.425494 -1.11463 0
-0.562513 -0.755188 0
0.114796 -1.11216 0
-0.359118 -1.20365 0
0.0253315 -0.531008 0
0.0196784 -0.648827 0
-0.385365 -0.768858 0
-0.0407292 -1.76016 0
-0.296714 -1.23475 0
-0.117822 -0.962315 0
-0.127473 -0.936637 0
-0.504122 -1.18997 0
-0.0770416 -1.06462 0
-0.460584 -1.1272 0
-0.359171 -1.17625 0
-0.245661 -0.77566 0
-0.139091 -0.692495 0
-0.0233026 -0.846387 0
-0.0730613 -0.698029 0
-0.0849199 -0.607059 0
-0.30924 -0.738971 0
-0.118132 -0.602183 0
0.362804 -1.31342 0
0.167465 -0.938507 0
0.118501 -0.732885 0
0.291046 -1.16042 0
-0.140177 -0.995608 0
-0.522214 -0.873814 0
-0.432247 -1.00272 0
-0.259044 -0.837533 0
-0.446591 -1.01502 0
-0.310362 -0.794068 0
-0.266896 -1.02092 0
-0.41482 -0.741768 0
-0.395353 -1.00003 0
-0.0363586 -1.05608 0
-0.587854 -0.805874 0
-0.479355 -0.720107 0
-0.363147 -0.693865 0
-0.0502065 -0.657333 0
0.00585858 -0.825556 0
-0.374835 -1.20238 0
-0.024601 -1.4394 0
-0.216632 -1.25414 0
-0.630539 -1.08876 0
0.00561907 -0.921599 0
0.109185 -1.04951 0
0.0364714 -1.04661 0
0.047789 -1.12264 0
-0.00930705 -1.09387 0
0.0739326 -0.740671 0
0.137567 -0.721082 0
0.156552 -0.828292 0
0.365613 -0.734332 0
0.650891 -0.751887 0
0.700522 -0.833256 0
0.0687574 -0.465776 0
0.560666 -0.7669 0
0.541662 -0.772127 0
0.50354 -1.27223 0
0.307034 -1.18565 0
0.526777 -1.32278 0
0.58412 -1.35947 0
0.0494017 -0.776001 0
-0.0299388 -1.0523 0
0.00723993 -0.980663 0
0.0207373 -1.01985 0
0.0729097 -1.15401 0
0.0443721 -1.14008 0
0.0379671 -1.23769 0
0.217027 -0.791869 0
0.225858 -0.762248 0
0.372128 -0.793157 0
0.281952 -0.730623 0
0.418056 -0.629772 0
0.45883 -0.669576 0
-0.037209 -0.867558 0
0.0759797 -0.900273 0
0.432169 -0.63643 0
-0.0730394 -0.463718 0
0.376823 -0.645986 0
0.288124 -0.663017 0
-0.0201556 -0.418003 0
0.352838 -0.645988 0
0.24268 -0.488345 0
0.346051 -0.606171 0
0.152073 -0.711915 0
0.396148 -0.598307 0
0.160586 -0.783395 0
0.234503 -1.02801 0
0.251282 -0.790435 0
0.0375709 -0.431033 0
0.204281 -0.973701 0
0.491797 -0.958032 0
0.177225 -0.957927 0
0.395566 -0.831913 0
0.381149 -0.528266 0
0.120437 -1.21181 0
0.380197 -1.00111 0
0.323126 -0.492353 0
0.147256 -1.37807 0
-0.0848203 -0.714686 0
0.0177574 -0.545376 0
-0.0741287 -0.442954 0
0.00873706 -0.580186 0
0.36583 -0.736273 0
0.0654576 -1.21609 0
-0.0343292 -0.476597 0
-0.119203 -0.460516 0
-0.00487914 -0.552039 0
0.428077 -0.760883 0
-0.00355999 -0.925877 0
0.23192 -0.434956 0
0.180379 -0.598348 0
-0.0638647 -0.37035 0
0.0417072 -0.434007 0
0.0856672 -0.449111 0
0.00364556 -0.792807 0
0.440291 -0.803198 0
0.019673 -0.850155 0
0.0744593 -0.467204 0
0.122238 -0.432986 0
-0.00689053 -0.837588 0
0.266421 -0.996423 0
0.404458 -0.732687 0
0.0213078 -0.910169 0
0.306644 -0.600437 0
-0.0784802 -0.477881 0
0.361181 -1.08289 0
0.000890013 -0.494232 0
0.361762 -1.01343 0
0.249407 -0.508673 0
0.140567 -0.923692 0
0.292269 -1.0209 0
0.368478 -0.940074 0
0.185985 -0.58228 0
0.34566 -1.30185 0
-0.117663 -0.556787 0
0.444097 -0.859603 0
-0.0352546 -0.75735 0
-0.0099292 -1.24241 0
0.396505 -0.808931 0
-0.00794345 -0.884972 0
0.193556 -1.18595 0
0.177887 -0.549383 0
-0.0888195 -0.405427 0
0.332874 -0.791276 0
0.0480595 -0.685292 0
0.0679862 -0.532961 0
0.413001 -0.903338 0
0.351114 -0.775268 0
0.0508761 -0.501442 0
0.3108 -0.982948 0
0.175525 -0.835591 0
-0.0645079 -0.882868 0
0.0321066 -0.917745 0
0.463454 -1.20688 0
-0.0415645 -0.473842 0
-0.0173797 -0.607008 0
0.0844435 -0.999849 0
0.0549708 -0.792216 0
0.0849855 -0.903859 0
-0.0183157 -0.4492 0
0.529112 -0.94588 0
0.356672 -0.93217 0
0.415197 -0.888502 0
0.211493 -1.14453 0
-0.120192 -0.476362 0
-0.128698 -0.523539 0
0.0525421 -0.596001 0
0.701714 -0.877727 0
0.327046 -0.880139 0
0.611125 -1.06601 0
0.37559 -1.11052 0
0.0716208 -0.778083 0
-0.180597 -0.475052 0
0.0348847 -0.993364 0
0.000678661 -1.26099 0
-0.0192231 -0.617646 0
0.144778 -0.735905 0
0.442479 -0.730143 0
0.0606463 -0.564685 0
0.646415 -0.865263 0
0.34019 -0.762245 0
-0.157639 -0.388389 0
0.0853382 -1.10239 0
-0.0223406 -0.861278 0
-0.161933 -0.453864 0
0.238702 -1.09191 0
0.254672 -1.01724 0
-0.0121994 -0.926886 0
-0.159502 -0.412556 0
0.245079 -0.815885 0
0.151885 -0.998455 0
-0.0307286 -0.843983 0
0.537938 -0.725569 0
-0.0651336 -0.581377 0
0.525023 -0.876841 0
0.628691 -1.11021 0
0.484283 -1.09062 0
-0.0042559 -0.789652 0
0.204671 -1.10067 0
-0.00127312 -0.491778 0
0.325671 -1.09529 0
-0.0738194 -0.523992 0
0.326961 -1.13655 0
-0.0491491 -0.75451 0
0.247164 -1.16685 0
0.231315 -0.419159 0
0.248667 -0.693638 0
0.328142 -0.594631 0
0.493974 -1.37488 0
0.0240766 -0.717338 0
0.230024 -1.11747 0
0.0874913 -0.914761 0
0.519593 -1.18288 0
0.195044 -0.901085 0
0.610394 -1.34326 0
0.0663211 -0.417475 0
0.0844201 -0.422876 0
0.446308 -0.887993 0
0.532772 -1.211 0
0.0518332 -0.45313 0
0.0842422 -0.433899 0
0.388673 -0.945645 0
0.53235 -0.897065 0
0.585711 -1.3114 0
0.0396088 -0.492971 0
0.384479 -1.04024 0
0.479193 -0.945843 0
0.535356 -1.24938 0
0.0404563 -0.412193 0
0.0582318 -0.492229 0
0.484291 -0.98852 0
0.334929 -0.747574 0
0.284602 -1.08998 0
0.557853 -0.78818 0
0.45224 -0.729127 0
0.0251007 -1.01601 0
0.518721 -0.57702 0
0.066714 -0.767571 0
0.669741 -0.718887 0
0.318453 -0.66087 0
0.072505 -0.762186 0
0.597556 -0.728214 0
0.282168 -0.797239 0
0.0361365 -1.08367 0
0.146502 -0.976022 0
-0.0208381 -0.984911 0
-0.0151802 -1.08232 0
0.0011848 -0.911372 0
0.124536 -0.938278 0
-0.0688257 -0.702184 0
0.212941 -1.00895 0
-0.0671411 -0.865866 0
0.123408 -1.11454 0
0.0885731 -1.06082 0
-0.104775 -0.821179 0
0.271778 -0.945985 0
0.0424974 -0.799482 0
-0.0680501 -0.584638 0
0.0348408 -0.812136 0
0.0781167 -1.23857 0
-0.0306534 -1.20134 0
-0.0438581 -1.00521 0
-0.0826653 -0.729855 0
-0.0866164 -0.699189 0
0.054213 -1.35785 0
-0.0981536 -0.665867 0
-0.0553318 -0.67955 0
0.0245302 -1.3815 0
-0.0491458 -1.12085 0
-0.0285851 -0.949951 0
0.112823 -1.32042 0
-0.014495 -1.24118 0
-0.0514667 -0.685625 0
0.0915235 -0.650722 0
-0.00275106 -0.619582 0
0.0828633 -0.504749 0
0.0140756 -0.636262 0
0.129661 -0.619843 0
0.0133375 -0.939314 0
0.0046673 -1.04709 0
0.0559776 -0.957459 0
0.0263596 -1.23747 0
0.165781 -0.890524 0
0.0378945 -1.16762 0
0.424292 -0.707988 0
0.272745 -0.71378 0
0.0792395 -0.768371 0
0.170179 -0.874755 0
0.0583797 -0.780864 0
-0.015676 -1.01472 0
-0.0258798 -0.969229 0
-0.0373026 -1.04527 0
-0.0516441 -0.897673 0
0.198117 -0.466777 0
0.155115 -0.540684 0
0.0583884 -0.550055 0
0.106771 -0.490115 0
0.153171 -0.455682 0
-0.0212916 -0.725312 0
0.0989653 -0.276472 0
0.12701 -0.319984 0
0.146205 -0.435084 0
0.124986 -0.434432 0
-0.612919 -0.850993 0
-0.734365 -0.94424 0
0.145068 -0.459998 0
-0.867621 -0.898339 0
-0.667503 -0.812911 0
-0.748162 -1.08132 0
0.48196 -0.665951 0
-0.219658 -1.31862 0
-0.17363 -1.28643 0
-0.221348 -1.19981 0
0.0201258 -1.03279 0
0.323541 -0.604369 0
0.280833 -0.588756 0
0.226791 -0.53599 0
0.236597 -0.630595 0
-0.94526 -1.19547 0
-0.673994 -1.16099 0
-0.460629 -1.3429 0
-0.0850417 -0.736926 0
-0.36418 -1.33369 0
-0.0489299 -0.643254 0
0.10805 -0.400441 0
-0.00348884 -0.33319 0
-0.746561 -1.14171 0
-0.462534 -1.36582 0
-0.400452 -0.967623 0
-0.371404 -1.1688 0
-0.118353 -0.799285 0
-0.587098 -1.60747 0
-0.654814 -1.40983 0
0.0901643 -0.330267 0
-0.771828 -1.15789 0
-0.838749 -0.993918 0
-0.480145 -1.07218 0
-0.0126963 -0.772768 0
0.0543811 -0.306839 0
-0.867453 -0.993039 0
-0.692162 -1.0644 0
-0.536519 -1.21361 0
0.0275843 -0.705283 0
0.0452107 -0.335168 0
-0.708813 -1.21072 0
-0.698497 -1.38003 0
-0.601227 -1.48549 0
-0.740491 -1.48237 0
-0.51242 -1.81239 0
-0.343113 -1.4345 0
0.0138112 -0.221108 0
-0.170336 -1.40877 0
0.0144929 -0.913549 0
0.107112 -0.578101 0
0.0241875 -0.216121 0
-0.162427 -1.26472 0
0.0957024 -0.709992 0
0.102788 -0.552148 0
0.0471337 -0.260586 0
-0.0221407 -0.669371 0
-0.341349 -1.47164 0
-0.152015 -0.773132 0
-0.376881 -1.7316 0
-0.702041 -1.09271 0
-0.743954 -1.21466 0
0.0380096 -0.43356 0
-0.289998 -0.96056 0
0.0394666 -0.701661 0
-0.0652895 -0.690981 0
-0.891334 -1.06879 0
-0.651039 -0.939549 0
-0.621399 -0.841771 0
0.0629361 -0.651616 0
-0.272835 -1.56421 0
-0.14347 -1.32738 0
0.0141159 -0.989855 0
-0.0369955 -1.03524 0
-0.56766 -0.774381 0
-0.412071 -0.643393 0
-0.284268 -1.67258 0
-0.286965 -1.15292 0
-0.459396 -0.632924 0
-0.567697 -1.11588 0
-0.308008 -1.73461 0
-0.403133 -0.793929 0
-0.703536 -0.788705 0
-0.315078 -1.61902 0
-0.027363 -0.583642 0
-0.23802 -1.75623 0
0.0820995 -0.268519 0
0.0189326 -0.287462 0
-0.386746 -0.913748 0
0.0231116 -0.651379 0
-0.369773 -1.30475 0
-0.0126568 -0.636007 0
0.00940173 -0.569061 0
-0.0100545 -0.966096 0
-0.0171429 -1.09442 0
-0.00791827 -0.547793 0
-0.393967 -1.26157 0
0.0208345 -0.661546 0
-0.509514 -1.29786 0
-0.00319104 -0.735404 0
0.0495063 -0.486925 0
-0.0539418 -0.710214 0
-0.0787073 -0.313111 0
0.0860643 -0.280229 0
0.0372346 -0.526244 0
0.0086148 -0.63789 0
-0.144964 -1.09689 0
-0.378256 -0.955764 0
-0.30544 -0.912251 0
-0.562468 -1.22918 0
0.0455599 -0.716108 0
0.00263163 -0.621195 0
-0.246012 -1.03486 0
0.00217551 -0.305964 0
0.0694662 -0.306303 0
-0.478009 -1.05605 0
-0.193723 -0.861702 0
-0.85581 -1.29838 0
-0.674738 -1.16727 0
-0.023774 -0.449607 0
0.189683 -0.446229 0
-0.0221706 -0.316433 0
-0.000631 -0.261071 0
-0.357419 -1.48133 0
-0.279449 -0.509787 0
-0.23333 -1.40135 0
0.0513641 -0.27786 0
-0.462191 -1.03831 0
-0.525064 -0.975113 0
-0.550416 -1.13289 0
-0.123668 -1.00921 0
0.0357611 -0.445202 0
0.167802 -0.420714 0
-0.432568 -0.721437 0
-0.155772 -1.25825 0
-0.0476209 -0.371631 0
-0.530454 -1.65269 0
-0.0153533 -0.282402 0
-0.487955 -1.15392 0
0.0701283 -0.790629 0
0.032032 -0.811023 0
0.0145202 -0.239896 0
-0.0424721 -0.232048 0
-0.0685062 -0.266431 0
-0.0130915 -0.208773 0
0.143036 -0.366076 0
0.056452 -0.386025 0
-0.0363671 -0.479044 0
-0.293428 -1.20074 0
-0.162544 -0.777019 0
-0.242146 -0.62527 0
-0.393251 -1.23938 0
-0.111651 -1.15845 0
-0.158969 -0.536753 0
0.158925 -0.413055 0
0.0333756 -0.282855 0
-0.115368 -0.866634 0
0.0186453 -0.416522 0
-0.0536042 -0.793577 0
0.12138 -0.61837 0
0.276987 -0.551167 0
0.00163915 -0.72044 0
-0.0514907 -0.493582 0
-0.392332 -0.510729 0
-0.569246 -0.776115 0
-0.2926 -0.395764 0