# vtk DataFile Version 2.0
Unstructured Grid by M++
ASCII
DATASET UNSTRUCTURED_GRID
POINTS 81 float
  1.000000   0.625000 0
  0.750000   0.375000 0
  1.000000   0.000000 0
  0.875000   0.875000 0
  0.750000   0.125000 0
  1.000000   1.000000 0
  0.875000   0.250000 0
  0.625000   0.875000 0
  1.000000   0.750000 0
  0.875000   0.000000 0
  1.000000   0.250000 0
  0.625000   0.375000 0
  0.875000   0.500000 0
  0.625000   0.625000 0
  1.000000   0.500000 0
  0.750000   0.500000 0
  0.750000   1.000000 0
  1.000000   0.125000 0
  0.625000   0.250000 0
  0.750000   0.750000 0
  0.625000   0.000000 0
  0.125000   0.375000 0
  0.000000   0.500000 0
  0.125000   0.625000 0
  0.625000   1.000000 0
  1.000000   0.875000 0
  0.875000   0.125000 0
  0.500000   0.250000 0
  0.625000   0.500000 0
  0.250000   0.625000 0
  0.000000   0.625000 0
  0.375000   0.500000 0
  0.375000   0.000000 0
  0.000000   0.125000 0
  0.125000   0.875000 0
  0.875000   1.000000 0
  0.750000   0.250000 0
  0.375000   0.375000 0
  0.250000   0.375000 0
  0.625000   0.750000 0
  0.125000   0.125000 0
  0.500000   0.000000 0
  0.250000   0.875000 0
  0.125000   0.500000 0
  0.500000   0.375000 0
  0.125000   0.000000 0
  0.250000   0.750000 0
  0.250000   0.500000 0
  0.000000   0.875000 0
  0.875000   0.625000 0
  0.500000   0.750000 0
  0.750000   0.625000 0
  0.250000   0.000000 0
  0.375000   0.750000 0
  0.750000   0.875000 0
  0.625000   0.125000 0
  0.250000   0.250000 0
  0.375000   1.000000 0
  0.375000   0.250000 0
  0.000000   0.375000 0
  0.500000   1.000000 0
  0.875000   0.750000 0
  0.750000   0.000000 0
  0.375000   0.125000 0
  0.500000   0.875000 0
  0.000000   0.000000 0
  0.125000   0.750000 0
  0.500000   0.625000 0
  0.125000   0.250000 0
  0.500000   0.125000 0
  0.250000   1.000000 0
  0.250000   0.125000 0
  0.000000   1.000000 0
  0.375000   0.875000 0
  0.000000   0.750000 0
  0.375000   0.625000 0
  0.000000   0.250000 0
  0.125000   1.000000 0
  1.000000   0.375000 0
  0.500000   0.500000 0
  0.875000   0.375000 0
CELLS 64 320
4 56 71 58 63
4 27 58 69 63
4 41 69 32 63
4 76 33 68 40
4 27 44 58 37
4 79 31 44 37
4 56 38 68 21
4 56 58 38 37
4 52 32 71 63
4 47 38 31 37
4 76 68 59 21
4 22 59 43 21
4 65 45 33 40
4 47 43 38 21
4 52 71 45 40
4 56 68 71 40
4 74 30 66 23
4 46 66 29 23
4 22 43 30 23
4 72 48 77 34
4 46 53 42 73
4 50 64 53 73
4 70 42 57 73
4 74 66 48 34
4 46 42 66 34
4 47 29 43 23
4 70 77 42 34
4 60 57 64 73
4 79 67 31 75
4 47 31 29 75
4 50 53 67 75
4 46 29 53 75
4 10 78 6 80
4 36 6 1 80
4 15 1 12 80
4 36 4 6 26
4 14 12 78 80
4 2 17 9 26
4 36 18 4 55
4 15 28 1 11
4 62 4 20 55
4 10 6 17 26
4 27 18 44 11
4 62 9 4 26
4 27 69 18 55
4 36 1 18 11
4 41 20 69 55
4 79 44 28 11
4 16 24 54 7
4 19 54 39 7
4 50 39 64 7
4 8 25 61 3
4 60 64 24 7
4 79 28 67 13
4 19 51 61 49
4 8 61 0 49
4 15 51 28 13
4 19 39 51 13
4 50 67 39 13
4 19 61 54 3
4 14 0 12 49
4 5 35 25 3
4 15 12 51 49
4 16 54 35 3
CELL_TYPES 64
8
8
8
8
8
8
8
8
8
8
8
8
8
8
8
8
8
8
8
8
8
8
8
8
8
8
8
8
8
8
8
8
8
8
8
8
8
8
8
8
8
8
8
8
8
8
8
8
8
8
8
8
8
8
8
8
8
8
8
8
8
8
8
8
CELL_DATA 64
VECTORS vector_value float
-0.163652 -0.57437 0
0.00799675 -1.39313 0
0.00843681 -1.05492 0
-0.63682 -0.989314 0
-0.0014864 -1.15382 0
-0.134714 -0.960958 0
-0.600965 -2.11607 0
-0.171341 -0.982957 0
-0.0304396 -0.584538 0
-0.473065 -2.14314 0
-0.00297122 -0.198468 0
0.0756869 -0.358625 0
-0.386023 -2.16658 0
-0.0563262 -0.883018 0
-0.106574 -0.587732 0
-0.87513 -1.64416 0
0.11065 -0.390091 0
0.567824 -2.0241 0
0.00470174 -0.418733 0
-0.0893172 -1.57034 0
-0.154234 -0.192913 0
-0.262979 -1.21864 0
0.0918713 -0.366022 0
0.276466 -0.935109 0
0.390428 -1.42542 0
0.15914 -1.05537 0
-0.456605 -0.66671 0
0.527785 -0.889736 0
-0.390507 -1.02802 0
0.315304 -1.55151 0
-0.119435 -0.764185 0
0.0339018 -0.462602 0
-0.338153 -1.07604 0
-0.607985 -0.923611 0
-0.0148336 -0.283006 0
-0.121707 -0.623267 0
-0.0404823 -1.64411 0
0.0159151 -0.754976 0
-0.124704 -1.70779 0
0.0159485 -0.606252 0
0.0306888 -1.7356 0
-0.0201733 -0.721074 0
0.0612172 -0.819488 0
0.03335 -0.61726 0
0.139369 -0.346886 0
0.0582881 -0.729542 0
0.0504569 -0.498395 0
-0.0292592 -1.12089 0
0.0567753 -0.771911 0
0.0433723 -1.6088 0
0.0134055 -0.870498 0
0.0243247 -0.337782 0
0.277356 -1.57114 0
-0.362937 -1.31179 0
0.386851 -1.05654 0
0.409419 -0.991495 0
-0.16559 -0.52935 0
-0.169629 -1.0758 0
-0.284167 -1.23519 0
0.137198 -1.41084 0
0.154053 -1.29503 0
-0.324763 -0.474485 0
0.122597 -0.810195 0
-0.366306 -1.68966 0
