# vtk DataFile Version 2.0
Unstructured Grid by M++
ASCII
DATASET UNSTRUCTURED_GRID
POINTS 1089 float
  0.718750   0.687500 0
  0.750000   0.687500 0
  0.718750   0.656250 0
  0.750000   0.718750 0
  0.625000   0.562500 0
  0.625000   0.593750 0
  0.656250   0.593750 0
  0.750000   0.750000 0
  0.687500   0.656250 0
  0.687500   0.625000 0
  0.656250   0.625000 0
  0.906250   0.593750 0
  1.000000   0.968750 0
  0.750000   0.968750 0
  0.718750   0.968750 0
  0.718750   1.000000 0
  0.750000   1.000000 0
  0.906250   0.906250 0
  0.843750   0.531250 0
  0.656250   0.937500 0
  0.656250   0.906250 0
  0.562500   0.812500 0
  0.562500   0.843750 0
  0.593750   0.875000 0
  0.593750   0.843750 0
  0.812500   0.718750 0
  0.625000   0.625000 0
  0.968750   0.875000 0
  0.531250   0.875000 0
  0.625000   0.937500 0
  0.562500   0.562500 0
  0.906250   0.812500 0
  0.531250   0.781250 0
  0.562500   0.593750 0
  0.906250   0.843750 0
  0.625000   0.656250 0
  0.968750   0.906250 0
  0.687500   0.968750 0
  0.812500   0.812500 0
  0.687500   1.000000 0
  0.687500   0.687500 0
  0.937500   0.843750 0
  0.593750   0.593750 0
  1.000000   0.625000 0
  0.968750   0.593750 0
  0.906250   0.875000 0
  0.968750   0.625000 0
  0.625000   0.875000 0
  0.875000   0.875000 0
  0.625000   0.906250 0
  0.875000   0.843750 0
  0.531250   0.812500 0
  0.968750   0.562500 0
  0.593750   0.625000 0
  0.937500   0.875000 0
  0.656250   0.687500 0
  1.000000   0.937500 0
  0.875000   0.562500 0
  0.687500   0.937500 0
  0.937500   0.625000 0
  0.812500   0.781250 0
  0.937500   0.562500 0
  0.875000   0.781250 0
  0.531250   0.531250 0
  0.718750   0.937500 0
  0.968750   0.937500 0
  0.906250   0.562500 0
  0.843750   0.781250 0
  0.593750   0.562500 0
  1.000000   0.906250 0
  0.656250   0.656250 0
  0.937500   0.906250 0
  0.875000   0.531250 0
  0.812500   0.750000 0
  0.656250   0.968750 0
  0.937500   0.531250 0
  0.843750   0.812500 0
  0.906250   0.531250 0
  0.843750   0.750000 0
  0.937500   0.593750 0
  0.875000   0.812500 0
  0.531250   0.562500 0
  1.000000   0.593750 0
  0.562500   0.906250 0
  0.562500   0.531250 0
  0.593750   0.906250 0
  0.593750   0.937500 0
  0.562500   0.875000 0
  0.781250   0.750000 0
  0.781250   0.781250 0
  0.593750   0.531250 0
  1.000000   0.687500 0
  0.531250   0.843750 0
  0.718750   0.718750 0
  0.781250   0.718750 0
  0.781250   0.687500 0
  1.000000   0.656250 0
  0.968750   0.656250 0
  0.843750   0.843750 0
  0.781250   1.000000 0
  0.656250   0.312500 0
  0.531250   0.250000 0
  0.875000   0.500000 0
  0.531250   0.218750 0
  0.875000   0.468750 0
  0.531250   0.156250 0
  0.593750   0.812500 0
  0.093750   0.562500 0
  0.656250   0.562500 0
  0.156250   0.312500 0
  0.031250   0.812500 0
  0.125000   1.000000 0
  0.312500   0.250000 0
  0.250000   0.500000 0
  0.375000   0.000000 0
  0.187500   0.750000 0
  0.812500   0.906250 0
  0.312500   0.656250 0
  0.250000   0.906250 0
  0.875000   0.656250 0
  0.375000   0.406250 0
  0.750000   0.843750 0
  0.250000   0.593750 0
  0.187500   0.843750 0
  0.812500   0.593750 0
  0.312500   0.343750 0
  0.625000   0.968750 0
  0.125000   0.718750 0
  0.687500   0.718750 0
  0.187500   0.468750 0
  0.062500   0.968750 0
  0.125000   0.656250 0
  0.187500   0.406250 0
  0.250000   0.156250 0
  0.062500   0.906250 0
  0.468750   0.906250 0
  0.656250   0.156250 0
  0.468750   0.812500 0
  0.593750   0.312500 0
  0.656250   0.062500 0
  0.625000   0.812500 0
  0.125000   0.562500 0
  0.687500   0.562500 0
  0.187500   0.312500 0
  0.062500   0.812500 0
  0.562500   0.937500 0
  0.062500   0.687500 0
  0.625000   0.687500 0
  0.125000   0.437500 0
  0.000000   0.937500 0
  0.062500   0.625000 0
  0.187500   0.125000 0
  0.125000   0.375000 0
  0.000000   0.875000 0
  0.406250   0.875000 0
  0.468750   0.625000 0
  0.593750   0.125000 0
  0.812500   0.937500 0
  0.312500   0.687500 0
  0.250000   0.937500 0
  0.875000   0.687500 0
  0.375000   0.437500 0
  0.750000   0.875000 0
  0.250000   0.625000 0
  0.187500   0.875000 0
  0.812500   0.625000 0
  0.312500   0.375000 0
  0.468750   0.781250 0
  0.593750   0.281250 0
  0.656250   0.031250 0
  0.625000   0.781250 0
  0.125000   0.531250 0
  0.062500   0.781250 0
  0.687500   0.531250 0
  0.187500   0.281250 0
  0.500000   0.812500 0
  0.687500   0.062500 0
  0.625000   0.312500 0
  0.656250   0.812500 0
  0.156250   0.562500 0
  0.718750   0.562500 0
  0.218750   0.312500 0
  0.093750   0.812500 0
  0.437500   0.968750 0
  0.625000   0.218750 0
  0.500000   0.781250 0
  0.687500   0.031250 0
  0.625000   0.281250 0
  0.656250   0.781250 0
  0.156250   0.531250 0
  0.718750   0.531250 0
  0.218750   0.281250 0
  0.093750   0.781250 0
  0.062500   0.562500 0
  0.125000   0.312500 0
  0.187500   0.062500 0
  0.000000   0.812500 0
  0.406250   0.812500 0
  0.968750   0.812500 0
  0.468750   0.562500 0
  0.593750   0.062500 0
  0.218750   0.687500 0
  0.156250   0.937500 0
  0.281250   0.437500 0
  0.062500   0.843750 0
  0.687500   0.593750 0
  0.187500   0.343750 0
  0.625000   0.843750 0
  0.125000   0.593750 0
  0.312500   0.843750 0
  0.437500   0.343750 0
  0.500000   0.093750 0
  0.375000   0.593750 0
  0.312500   0.906250 0
  0.937500   0.656250 0
  0.437500   0.406250 0
  0.875000   0.906250 0
  0.375000   0.656250 0
  0.062500   0.875000 0
  0.187500   0.375000 0
  0.250000   0.125000 0
  0.125000   0.625000 0
  0.093750   0.656250 0
  0.031250   0.906250 0
  0.218750   0.156250 0
  0.156250   0.406250 0
  0.593750   0.968750 0
  0.093750   0.718750 0
  0.031250   0.968750 0
  0.656250   0.718750 0
  0.156250   0.468750 0
  0.437500   0.906250 0
  0.625000   0.156250 0
  0.718750   0.812500 0
  0.218750   0.562500 0
  0.781250   0.562500 0
  0.281250   0.312500 0
  0.156250   0.812500 0
  0.062500   0.656250 0
  0.000000   0.906250 0
  0.187500   0.156250 0
  0.125000   0.406250 0
  0.562500   0.968750 0
  0.062500   0.718750 0
  0.000000   0.968750 0
  0.625000   0.718750 0
  0.125000   0.468750 0
  0.406250   0.968750 0
  0.968750   0.968750 0
  0.468750   0.718750 0
  0.531250   0.468750 0
  0.593750   0.218750 0
  0.406250   0.906250 0
  0.468750   0.656250 0
  0.593750   0.156250 0
  0.687500   0.781250 0
  0.187500   0.531250 0
  0.750000   0.531250 0
  0.250000   0.281250 0
  0.125000   0.781250 0
  0.781250   0.906250 0
  0.281250   0.656250 0
  0.218750   0.906250 0
  0.843750   0.656250 0
  0.343750   0.406250 0
  0.750000   0.906250 0
  0.250000   0.656250 0
  0.187500   0.906250 0
  0.812500   0.656250 0
  0.312500   0.406250 0
  0.875000   0.406250 0
  0.375000   0.156250 0
  0.812500   0.968750 0
  0.312500   0.718750 0
  0.250000   0.968750 0
  0.875000   0.718750 0
  0.375000   0.468750 0
  0.781250   0.937500 0
  0.281250   0.687500 0
  0.218750   0.937500 0
  0.843750   0.687500 0
  0.343750   0.437500 0
  0.718750   0.875000 0
  0.218750   0.625000 0
  0.156250   0.875000 0
  0.781250   0.625000 0
  0.281250   0.375000 0
  0.750000   0.937500 0
  0.250000   0.687500 0
  0.187500   0.937500 0
  0.875000   0.437500 0
  0.375000   0.187500 0
  0.812500   0.687500 0
  0.312500   0.437500 0
  0.687500   0.875000 0
  0.187500   0.625000 0
  0.750000   0.625000 0
  0.250000   0.375000 0
  0.125000   0.875000 0
  0.812500   1.000000 0
  0.312500   0.750000 0
  0.250000   1.000000 0
  0.875000   0.750000 0
  0.375000   0.500000 0
  0.562500   1.000000 0
  0.062500   0.750000 0
  0.000000   1.000000 0
  0.625000   0.750000 0
  0.125000   0.500000 0
  0.406250   1.000000 0
  0.968750   1.000000 0
  0.468750   0.750000 0
  0.656250   0.000000 0
  0.531250   0.500000 0
  0.593750   0.250000 0
  0.406250   0.937500 0
  0.468750   0.687500 0
  0.593750   0.187500 0
  0.687500   0.812500 0
  0.187500   0.562500 0
  0.750000   0.562500 0
  0.250000   0.312500 0
  0.125000   0.812500 0
  0.437500   0.843750 0
  0.625000   0.093750 0
  0.093750   0.593750 0
  0.156250   0.343750 0
  0.218750   0.093750 0
  0.031250   0.843750 0
  0.281250   0.937500 0
  0.843750   0.937500 0
  0.343750   0.687500 0
  0.906250   0.687500 0
  0.406250   0.437500 0
  0.156250   0.968750 0
  0.218750   0.718750 0
  0.281250   0.468750 0
  0.343750   0.218750 0
  0.156250   1.000000 0
  0.406250   0.000000 0
  0.281250   0.500000 0
  0.343750   0.250000 0
  0.218750   0.750000 0
  0.187500   0.968750 0
  0.250000   0.718750 0
  0.375000   0.218750 0
  0.312500   0.468750 0
  0.187500   1.000000 0
  0.312500   0.500000 0
  0.375000   0.250000 0
  0.437500   0.000000 0
  0.250000   0.750000 0
  0.031250   0.781250 0
  0.656250   0.531250 0
  0.156250   0.281250 0
  0.593750   0.781250 0
  0.093750   0.531250 0
  0.000000   0.781250 0
  0.625000   0.531250 0
  0.125000   0.281250 0
  0.562500   0.781250 0
  0.062500   0.531250 0
  0.781250   0.968750 0
  0.281250   0.718750 0
  0.218750   0.968750 0
  0.843750   0.718750 0
  0.343750   0.468750 0
  0.281250   0.968750 0
  0.843750   0.968750 0
  0.343750   0.718750 0
  0.906250   0.718750 0
  0.406250   0.468750 0
  0.281250   1.000000 0
  0.906250   0.750000 0
  0.406250   0.500000 0
  0.843750   1.000000 0
  0.343750   0.750000 0
  0.531250   0.000000 0
  0.718750   0.843750 0
  0.218750   0.593750 0
  0.156250   0.843750 0
  0.781250   0.593750 0
  0.281250   0.343750 0
  0.687500   0.843750 0
  0.187500   0.593750 0
  0.750000   0.593750 0
  0.250000   0.343750 0
  0.125000   0.843750 0
  0.218750   0.875000 0
  0.843750   0.625000 0
  0.343750   0.375000 0
  0.781250   0.875000 0
  0.281250   0.625000 0
  0.156250   0.906250 0
  0.781250   0.656250 0
  0.281250   0.406250 0
  0.718750   0.906250 0
  0.218750   0.656250 0
  0.031250   1.000000 0
  0.656250   0.750000 0
  0.156250   0.500000 0
  0.593750   1.000000 0
  0.093750   0.750000 0
  0.218750   1.000000 0
  0.343750   0.500000 0
  0.468750   0.000000 0
  0.406250   0.250000 0
  0.281250   0.750000 0
  0.593750   0.406250 0
  0.093750   0.156250 0
  0.531250   0.656250 0
  0.031250   0.406250 0
[...]
CELL_DATA 1024
VECTORS vector_value float
0.210584 -0.589158 0
0.36096 -0.803242 0
0.528811 -1.07057 0
0.0875625 -1.67657 0
-0.195162 -1.7994 0
0.0935575 -2.03486 0
0.0638441 -0.361433 0
-0.0419311 -0.367895 0
-0.0629106 -0.451411 0
0.0155097 -0.28022 0
-0.00349042 -0.228692 0
0.00189097 -0.605828 0
-0.0592769 -0.694666 0
0.000645764 -0.606279 0
-0.111103 -0.69325 0
-0.109733 -0.673727 0
-0.0197227 -0.591573 0
-0.0683386 -0.821393 0
-0.0383357 -0.550917 0
0.107894 -0.71439 0
0.0408269 -0.677648 0
0.138949 -0.821757 0
0.122675 -0.445276 0
0.241621 -0.628854 0
0.688987 -1.50109 0
0.683683 -1.44403 0
0.613738 -1.34935 0
0.639936 -1.40671 0
0.348634 -1.65177 0
0.0703707 -0.722854 0
-0.169301 -2.4942 0
-0.352322 -2.40498 0
-0.467268 -2.57113 0
-0.20572 -2.67306 0
0.0119675 -0.58768 0
0.0559348 -0.774674 0
-0.071892 -0.695327 0
0.0354383 -0.714768 0
-0.0082999 -0.58301 0
-0.190773 -1.34115 0
0.523478 -1.32071 0
0.552818 -1.61893 0
-0.643761 -2.64365 0
0.391959 -1.27855 0
0.207036 -1.19506 0
0.0116454 -0.661628 0
-0.533474 -1.72541 0
0.0975915 -1.32438 0
0.0177143 -0.851243 0
-0.704201 -2.12533 0
0.355276 -1.53537 0
0.71918 -1.60184 0
-0.652164 -2.78914 0
-0.361642 -1.71852 0
-0.164725 -2.37924 0
-0.0695816 -1.55852 0
-0.471863 -2.0764 0
0.379378 -1.42549 0
0.411962 -1.23795 0
0.00854205 -0.438578 0
0.444139 -0.871916 0
0.296718 -0.593111 0
0.715637 -1.55758 0
0.484586 -1.28259 0
0.152445 -0.392951 0
0.0399882 -0.32217 0
-0.033199 -0.223187 0
0.222069 -0.497718 0
0.504223 -1.29013 0
0.0236713 -0.640007 0
-0.409266 -1.17895 0
-0.241039 -1.04861 0
-0.108401 -0.477141 0
0.0558818 -1.23292 0
0.341999 -1.1217 0
0.744804 -1.43092 0
-0.031099 -0.697242 0
0.00964768 -0.756002 0
0.346192 -1.72231 0
-0.452243 -2.26517 0
-0.0240692 -0.202788 0
-0.0483251 -0.187503 0
0.387837 -1.1789 0
0.181937 -0.896789 0
0.712909 -1.57964 0
0.543015 -1.29515 0
0.0839678 -0.408713 0
0.00782283 -0.267161 0
-0.0410157 -0.183527 0
-0.558292 -1.56435 0
-0.299471 -1.3435 0
-0.0685925 -0.256209 0
0.030776 -0.857238 0
0.449804 -1.4375 0
0.374141 -0.970835 0
0.130433 -0.61623 0
-0.573673 -2.43918 0
-0.331437 -2.01177 0
0.251106 -0.823764 0
0.0847024 -0.537841 0
0.287217 -1.45254 0
0.0220382 -0.385424 0
0.41087 -1.05176 0
-0.0361045 -1.55104 0
0.195171 -0.940431 0
0.636606 -1.14201 0
-0.082216 -0.41761 0
-0.427546 -1.26385 0
-0.412433 -1.22742 0
-0.0757304 -0.422289 0
0.213021 -1.2144 0
0.175527 -0.956523 0
0.0115717 -0.585563 0
-0.0166575 -0.446423 0
-0.0121515 -0.238486 0
0.0320195 -0.798176 0
0.512206 -1.65484 0
-0.12635 -1.09096 0
0.583904 -1.51544 0
-0.0962258 -0.492457 0
-0.0998919 -1.10783 0
0.0166883 -0.746101 0
-0.0481011 -0.948468 0
0.0404191 -1.02537 0
-0.0552342 -0.199967 0
-0.0461534 -0.167857 0
0.1085 -0.539 0
0.576611 -1.04191 0
0.152308 -1.40799 0
0.06972 -0.801158 0
0.401852 -1.01733 0
-0.0572943 -0.389154 0
0.675981 -1.45111 0
-0.028358 -0.319015 0
-0.0385873 -1.11237 0
-0.0137965 -0.422468 0
-0.0044594 -0.521818 0
-0.0166196 -0.250045 0
0.781995 -1.57416 0
0.538419 -1.60147 0
0.0545592 -0.899569 0
-0.140657 -0.921138 0
0.107368 -0.854349 0
0.257252 -1.18432 0
0.539819 -1.06398 0
0.0768224 -1.85247 0
0.00788266 -0.274438 0
-0.254396 -1.24443 0
-0.0397354 -0.515032 0
-0.0159232 -1.15079 0
-0.0611168 -0.156196 0
-0.0242544 -0.189851 0
0.173401 -0.686166 0
0.612717 -1.06308 0
0.1721 -0.503409 0
0.151996 -0.70688 0
-0.01017 -1.0135 0
0.149402 -1.14488 0
0.690147 -1.52105 0
-0.0741981 -0.298479 0
-0.452876 -1.33498 0
-0.141525 -1.27941 0
0.683531 -1.52807 0
0.701441 -1.46097 0
0.00180159 -0.980921 0
-0.113219 -0.933759 0
-0.0227154 -0.890746 0
0.0657357 -1.18584 0
0.574771 -1.15548 0
0.622314 -1.42748 0
-0.399356 -1.38145 0
0.288514 -1.06076 0
0.473319 -1.29013 0
0.400829 -1.16068 0
0.499392 -1.41293 0
0.511468 -1.31757 0
0.569274 -1.33693 0
0.560849 -1.33157 0
-0.0505281 -0.220766 0
-0.620962 -2.60947 0
-0.150246 -2.31323 0
0.0404927 -1.17654 0
-0.00170051 -0.218632 0
-0.473554 -1.94057 0
-0.0896975 -1.56239 0
-0.0112968 -0.257788 0
-0.53772 -2.07061 0
-0.266615 -1.61454 0
-0.0365665 -0.216045 0
-0.442406 -2.52594 0
-0.0286974 -0.487554 0
-0.0457623 -0.263612 0
0.10184 -0.572836 0
0.456859 -1.13212 0
0.373051 -1.45311 0
0.0700798 -0.84668 0
-0.0355056 -0.476422 0
-0.0411778 -0.237842 0
0.0462412 -0.458126 0
0.573739 -1.15666 0
-0.0803028 -0.251216 0
0.243371 -0.694504 0
-0.00357335 -0.560051 0
-0.00933527 -0.239533 0
-0.0525219 -0.206226 0
-0.0593565 -0.591291 0
0.0264568 -0.872466 0
0.301082 -0.721515 0
0.158135 -0.972654 0
-0.0157254 -0.548048 0
0.0605491 -0.89771 0
0.302888 -0.674681 0
0.236856 -0.802936 0
-0.0222539 -0.314306 0
0.0217414 -0.731873 0
-0.0160993 -0.325506 0
0.00737194 -0.69692 0
0.350468 -1.11248 0
0.278048 -1.21862 0
-0.680646 -2.45219 0
0.321907 -1.15566 0
0.392718 -1.22645 0
0.036109 -0.299337 0
-0.0325257 -0.22549 0
-0.341409 -1.94144 0
0.0167538 -0.265752 0
0.0152371 -0.735074 0
0.103213 -0.742557 0
0.474016 -1.43629 0
0.0677284 -0.333521 0
0.057551 -0.466892 0
0.0244709 -0.489819 0
0.451576 -1.47691 0
0.177218 -0.43847 0
0.0800076 -0.539702 0
-0.0221375 -0.434561 0
0.577432 -1.27855 0
0.0817541 -0.311506 0
0.193269 -0.849065 0
-0.00554221 -0.224078 0
0.705787 -1.51599 0
-0.00502166 -0.700032 0
0.562166 -1.34079 0
-0.0854071 -0.245517 0
0.42443 -0.979756 0
0.00836517 -0.259071 0
0.00514043 -0.931711 0
0.484833 -1.42172 0
0.0232693 -0.982193 0
0.323082 -1.34713 0
0.48345 -1.34665 0
0.628402 -1.56412 0
-0.0287905 -0.965915 0
-0.0862057 -1.62595 0
-0.213009 -1.39865 0
-0.118726 -1.00957 0
0.181169 -1.33934 0
0.172555 -1.45161 0
-0.552386 -0.658001 0
-0.66292 -0.734577 0
-1.04699 -0.860699 0
-0.853007 -0.905154 0
-0.178325 -1.18712 0
-0.273722 -1.14461 0
-0.121619 -1.06523 0
-0.402818 -0.746194 0
-0.522249 -0.730407 0
-0.514856 -0.640334 0
-0.48785 -0.714345 0
0.161532 -1.55207 0
0.192992 -1.32294 0
-0.574186 -1.29165 0
-0.504259 -0.785621 0
-0.323328 -0.891531 0
-0.206812 -1.27656 0
-0.0525432 -0.213159 0
-0.107545 -0.965142 0
0.186647 -1.07404 0
0.189433 -1.39984 0
-0.0205498 -1.4463 0
0.0556002 -0.307429 0
-0.0131575 -0.222441 0
0.0775789 -0.499882 0
0.454081 -1.01211 0
0.235583 -1.02723 0
0.257148 -0.422246 0
-0.435197 -0.891321 0
0.444024 -0.971692 0
-0.523731 -0.606082 0
0.372891 -0.565061 0
-0.343191 -0.943319 0
0.417385 -0.573283 0
-0.363405 -0.979055 0
0.353201 -0.591193 0
-0.810613 -1.20403 0
0.288422 -0.739863 0
-0.531746 -1.32181 0
0.191637 -0.891999 0
-0.046176 -1.70928 0
0.147219 -1.67677 0
-0.0350758 -1.5297 0
0.0299309 -0.342219 0
0.268708 -1.52251 0
-0.0118853 -1.65858 0
0.218963 -0.504907 0
0.0803621 -1.37687 0
-0.161937 -1.68659 0
-0.000748023 -1.43933 0
-0.0199461 -0.23228 0
0.0163207 -0.691395 0
-0.103136 -1.48491 0
-0.148421 -1.03101 0
0.0138853 -1.83423 0
-0.709317 -1.3815 0
-0.0507546 -0.227185 0
-0.00259179 -0.691968 0
0.141569 -0.853498 0
-0.251186 -1.0808 0
-0.465667 -1.49965 0
-0.144749 -1.28451 0
-0.142212 -0.93143 0
0.0253607 -0.512094 0
-0.0662467 -1.44383 0
0.118168 -1.33507 0
-0.0422807 -0.198757 0
0.014824 -0.719375 0
-0.0360912 -1.01637 0
-0.0418024 -0.927957 0
-0.148114 -1.24624 0
-0.0631003 -1.35719 0
-0.204387 -0.640569 0
0.0530824 -1.205 0
-0.387914 -1.04302 0
-0.215848 -1.66581 0
-0.152681 -0.46687 0
-0.0109756 -1.05904 0
0.454366 -1.29923 0
0.355226 -1.13125 0
-0.0190769 -0.761272 0
-0.0826878 -0.346021 0
0.0177243 -0.294427 0
0.555633 -1.38406 0
0.425304 -1.27486 0
-0.0826342 -0.752334 0
-0.135363 -0.418634 0
0.0661646 -0.46336 0
0.146209 -0.455821 0
9.76193e-06 -0.719476 0
-0.0580917 -0.225859 0
-0.0488339 -0.933862 0
-0.15595 -0.49561 0
0.0665768 -1.47374 0
0.135272 -0.359622 0
0.347167 -1.42221 0
0.494906 -1.02058 0
-0.00462789 -0.468748 0
-0.20995 -1.42873 0
-0.141005 -1.71375 0
-0.0520408 -1.09909 0
0.0503628 -1.28976 0
0.197014 -0.832656 0
0.0643739 -1.10865 0
-0.30582 -0.615388 0
-0.144591 -0.681457 0
-0.0730525 -0.356488 0
0.267108 -0.726184 0
0.0600857 -1.11889 0
-0.0406397 -0.741221 0
-1.1234 -0.978289 0
0.0603473 -0.395305 0
-0.230314 -0.481837 0
-1.05499 -1.10423 0
-0.0093804 -1.01015 0
-0.0910482 -0.541944 0
-0.0143582 -0.568661 0
-0.0123436 -1.30092 0
-0.108103 -1.55058 0
0.0905923 -1.35162 0
-0.139507 -0.841091 0
-0.345829 -1.55303 0
-0.55662 -1.05606 0
0.238938 -0.61912 0
0.556967 -0.958652 0
0.558692 -1.30406 0
0.236125 -0.982252 0
0.0834626 -1.16116 0
-0.0754975 -0.26128 0
-0.0465777 -0.559332 0
-0.158501 -0.277845 0
-0.26126 -0.588005 0
0.00303004 -0.507077 0
-0.0721335 -1.76125 0
0.278683 -1.48804 0
-0.0123077 -0.819033 0
-0.0707715 -0.271458 0
0.23049 -0.579745 0
0.120042 -0.530485 0
0.362975 -0.977631 0
0.125691 -0.978942 0
-0.366423 -0.487565 0
0.240308 -1.07796 0
0.334082 -0.626804 0
-0.0240829 -0.244801 0
0.0144683 -0.7554 0
0.208394 -0.686796 0
-0.494917 -0.768207 0
0.173102 -1.12934 0
0.414763 -0.656152 0
0.441658 -0.86084 0
-0.0505147 -0.177129 0
-0.0119674 -0.740831 0
0.0556554 -0.756853 0
0.505176 -1.06894 0
-0.207908 -0.628009 0
-0.343979 -0.599567 0
0.502536 -1.2742 0
-0.188592 -0.549263 0
-0.350366 -0.669013 0
0.434222 -1.37466 0
-0.286269 -0.682061 0
-0.450684 -0.710599 0
0.323245 -1.25184 0
0.720772 -0.960708 0
0.638282 -1.40893 0
0.440673 -1.08785 0
0.589227 -0.780323 0
0.0805328 -0.703165 0
-0.253588 -1.05271 0
-0.301058 -1.23427 0
-0.0506914 -1.06729 0
-0.797184 -1.19689 0
0.143145 -0.802466 0
-0.265095 -1.30097 0
-0.0280958 -0.349125 0
0.0441855 -0.795984 0
-0.0182837 -0.925234 0
-0.309388 -1.07952 0
-0.0900361 -0.457075 0
-0.237887 -0.850952 0
0.301487 -1.24762 0
-0.174812 -0.511522 0
-0.357354 -0.716125 0
0.548047 -1.42936 0
-0.140952 -0.477619 0
-0.306968 -0.665443 0
-0.0814974 -0.721413 0
0.330209 -0.873215 0
0.232342 -1.37531 0
0.102453 -0.657722 0
0.119779 -0.7525 0
-0.264392 -0.674697 0
0.165683 -1.06792 0
0.114515 -0.664029 0
-0.225655 -0.890626 0
0.0949855 -0.979647 0
0.0263252 -0.598697 0
0.368886 -1.26735 0
0.0312805 -1.00194 0
0.176164 -1.32937 0
0.039553 -0.763342 0
-0.0710066 -0.422539 0
-0.404875 -0.562674 0
-0.050599 -0.287716 0
-0.2701 -0.454043 0
-0.145983 -0.331659 0
-0.403546 -0.613068 0
-0.495587 -0.686722 0
-0.824004 -0.943704 0
0.0398068 -0.429665 0
0.068788 -0.870306 0
-0.0603834 -0.198424 0
0.00399251 -0.704502 0
0.111581 -0.975214 0
-0.1029 -0.377516 0
-0.0922932 -0.222974 0
-0.234986 -0.373513 0
-0.315434 -0.9332 0
-0.127664 -0.582134 0
0.386261 -0.94094 0
0.256598 -1.26365 0
0.426295 -1.29474 0
0.53519 -1.30589 0
0.578843 -0.960302 0
0.591774 -1.54838 0
0.603133 -0.951076 0
0.239663 -1.32584 0
0.270018 -1.68364 0
0.440145 -0.835276 0
0.607548 -1.55954 0
-0.0510879 -0.938993 0
-0.0228943 -0.618277 0
-0.123887 -0.736775 0
-0.241837 -0.987495 0
0.274991 -1.36366 0
0.261496 -0.653066 0
0.582008 -1.25962 0
0.476024 -1.43558 0
0.537683 -0.746773 0
0.69966 -1.66479 0
0.324801 -1.35298 0
0.390743 -0.827754 0
0.579014 -1.61087 0
0.217425 -1.20652 0
0.20064 -0.709417 0
0.0131591 -0.305609 0
0.182487 -0.726924 0
0.247972 -0.82392 0
0.117037 -0.742116 0
-0.580239 -0.781721 0
-0.539228 -0.790024 0
-0.399504 -0.679806 0
-0.408748 -0.915463 0
0.0279096 -0.703349 0
-0.415008 -0.553297 0
-0.396564 -0.629624 0
-0.0626063 -0.860174 0
-0.021699 -0.941454 0
-0.0533672 -0.891384 0
0.052891 -0.823295 0
-0.00354811 -1.0145 0
0.0111525 -0.428868 0
-0.00537286 -0.723934 0
-0.167421 -0.627895 0
0.28818 -1.9096 0
-0.224955 -0.746185 0
-0.146704 -0.807093 0
-0.419033 -1.04635 0
-0.372055 -0.723103 0
-0.35173 -0.77307 0
-0.391144 -0.953369 0
-0.11576 -1.24629 0
-0.209239 -0.70812 0
-0.0747444 -0.787707 0
0.0635164 -1.00818 0
0.0706461 -0.874628 0
0.0110129 -0.641626 0
-0.0112978 -0.767286 0
0.0677349 -0.953368 0
0.0783457 -0.826905 0
0.00382821 -0.890539 0
0.0871727 -0.91656 0
-0.0275459 -0.408352 0
-0.00109617 -0.379877 0
-0.00129494 -1.13099 0
-0.210858 -1.44006 0
-0.0618405 -0.376475 0
-0.228077 -0.990391 0
-0.145211 -0.486153 0
-0.0960211 -0.516315 0
-0.168372 -1.0665 0
-0.0530087 -0.413206 0
-0.0342562 -0.5263 0
-0.106595 -0.452722 0
0.0130091 -0.779991 0
-0.2295 -0.52398 0
-0.0848943 -0.677827 0
-0.423371 -0.637562 0
-0.262971 -0.984605 0
-0.797563 -1.51889 0
-0.333314 -1.04452 0
-0.842496 -1.21986 0
-0.12366 -0.881224 0
-0.859235 -1.50464 0
-0.0124575 -0.337415 0
-0.0574013 -0.911443 0
-0.944281 -1.26952 0
0.0382825 -0.446816 0
-0.0430216 -0.606059 0
-0.231918 -2.01068 0
-0.364251 -1.2001 0
-0.558028 -1.4948 0
0.0102867 -0.831988 0
-0.025885 -0.434687 0
-0.00498432 -0.645464 0
-0.688683 -1.4726 0
-0.463123 -1.69561 0
0.0250431 -0.789785 0
-0.010869 -0.434788 0
-0.160226 -1.26697 0
0.0282727 -0.350832 0
-0.620759 -1.40332 0
-0.608464 -1.54682 0
-0.0724734 -0.962441 0
0.0575569 -0.971877 0
0.0207483 -1.15817 0
0.0236966 -0.473081 0
-0.0424227 -1.20085 0
0.0114612 -0.938838 0
0.126364 -0.924788 0
0.0405938 -1.15741 0
0.00130731 -0.413023 0
0.00819501 -0.388887 0
-0.14989 -1.15842 0
0.012218 -0.384199 0
-0.165406 -1.64785 0
-0.176084 -0.76678 0
-0.220069 -1.75892 0
-0.398875 -0.815059 0
0.0105598 -0.388342 0
-0.120066 -1.15043 0
-0.905056 -1.28625 0
-0.613504 -1.20311 0
-0.790347 -1.56474 0
-0.583053 -1.14997 0
-0.380468 -0.951166 0
-0.289158 -0.666803 0
0.0156344 -1.19165 0
0.0202034 -0.444255 0
-0.000765604 -0.406742 0
-0.178465 -1.03434 0
-0.662196 -1.17578 0
0.0117101 -0.380363 0
-0.198285 -1.19713 0
-0.237709 -0.926423 0
-0.42666 -0.994658 0
0.165025 -1.82868 0
-0.464899 -0.82386 0
-0.285213 -0.594967 0
-0.144928 -1.89586 0
-0.43641 -0.749669 0
-0.217143 -0.63714 0
0.0166483 -1.10826 0
-0.280264 -0.918483 0
-0.66833 -1.02362 0
-0.524853 -1.37392 0
-0.0180017 -0.782048 0
-0.368161 -1.18723 0
-0.0796552 -1.10915 0
-0.272019 -0.986789 0
-0.181199 -1.10229 0
-0.371586 -0.81044 0
-0.377499 -0.853048 0
-0.636069 -1.05725 0
-0.0196501 -0.528682 0
-0.201268 -1.62394 0
-0.245741 -0.897422 0
0.58857 -2.07767 0
-0.255042 -0.567872 0
-0.188749 -0.591588 0
-0.386521 -0.737587 0
-0.27337 -0.597568 0
-0.00848657 -0.758857 0
-0.426641 -1.21404 0
-0.193588 -0.671141 0
-0.00604087 -2.27888 0
0.00518967 -0.74332 0
0.0255687 -0.407315 0
0.00479989 -0.411883 0
0.389119 -1.77476 0
-0.266462 -0.575126 0
-0.333275 -0.731318 0
-0.476791 -1.52248 0
0.0143683 -0.648301 0
0.0514441 -1.03218 0
-0.23817 -1.59651 0
-0.000544428 -0.685303 0
-0.521976 -1.32096 0
0.0898692 -1.14011 0
-0.262138 -1.20745 0
-0.0723038 -0.840304 0
-0.524761 -1.4127 0
-0.0395731 -1.29678 0
0.0421012 -0.49619 0
-0.232943 -0.943362 0
-0.0459616 -0.532048 0
-0.269237 -0.597365 0
-0.389996 -0.674134 0
-0.0542372 -1.71977 0
-0.223231 -0.655969 0
-0.163075 -1.85865 0
-0.31744 -0.636213 0
-0.0601155 -1.70309 0
-0.0993531 -0.529087 0
-0.074024 -1.78364 0
-0.0670465 -0.630402 0
0.0201818 -0.465095 0
0.0295952 -0.891793 0
0.0023018 -0.89485 0
-0.278348 -0.825897 0
-0.149599 -1.09414 0
-0.268748 -0.821893 0
-0.185411 -0.828759 0
-0.347006 -0.964604 0
-0.284984 -0.854304 0
-0.313334 -0.838119 0
0.020554 -1.14703 0
0.289302 -1.49334 0
-0.266464 -0.876865 0
-0.480507 -0.986115 0
-0.0993064 -1.16271 0
0.132087 -1.19124 0
-0.424396 -0.825737 0
-0.336915 -0.838068 0
-0.466319 -1.03782 0
-0.0983956 -1.61627 0
-0.469876 -0.802913 0
-0.28693 -0.72746 0
-0.534726 -0.908353 0
0.422578 -1.93165 0
0.104821 -1.70666 0
-0.396814 -0.725055 0
-0.274434 -0.789836 0
-0.443346 -0.911785 0
-0.28097 -0.636794 0
-0.412676 -0.606958 0
0.111799 -1.68655 0
-0.291629 -0.574392 0
0.407943 -1.63973 0
-0.300587 -0.627945 0
-0.400379 -0.75022 0
0.394179 -2.07972 0
-0.331384 -0.580787 0
-0.422727 -0.632291 0
0.117259 -1.91645 0
0.0124754 -0.869969 0
0.0551772 -0.83639 0
0.031272 -1.14391 0
0.0488195 -1.10063 0
-0.579399 -1.16112 0
-0.029125 -0.803122 0
-0.495169 -1.04297 0
-0.0995159 -0.936027 0
-0.457776 -0.794976 0
-0.489388 -0.839368 0
-0.0650733 -1.02243 0
-0.336863 -0.902536 0
-0.378957 -1.01917 0
-0.242431 -0.991352 0
-0.232369 -0.899956 0
-0.0211462 -0.606424 0
-0.106358 -1.93545 0
-0.167342 -1.50276 0
-0.275116 -1.1541 0
-0.473371 -1.66864 0
-0.0197172 -0.55879 0
-0.299103 -1.76903 0
-0.38824 -1.28865 0
-0.00685951 -0.595953 0
-0.109785 -1.80685 0
-0.136039 -1.19459 0
-0.0444506 -0.600963 0
-0.0891739 -2.22132 0
-0.183635 -0.893019 0
-0.0694078 -0.879823 0
-0.133188 -0.818196 0
-0.0150499 -0.847092 0
-0.127093 -0.940102 0
-0.0459248 -1.01381 0
-0.260494 -1.31686 0
-0.0376491 -1.22389 0
-0.313724 -0.614202 0
0.0321888 -2.26163 0
-0.473513 -0.663658 0
0.0985536 -2.13938 0
-0.372586 -0.716125 0
-0.46725 -0.761667 0
0.151905 -2.116 0
-0.357273 -0.759255 0
-0.0533027 -1.95057 0
-0.0120006 -0.795935 0
0.0187181 -1.12703 0
0.0265011 -1.13668 0
0.00252102 -0.907468 0
0.121278 -0.933 0
0.0199234 -0.923822 0
-0.0457147 -0.885611 0
0.0339428 -0.948459 0
0.0882871 -0.974092 0
0.394709 -1.24357 0
0.0166641 -1.24225 0
0.0674588 -1.07765 0
-0.0375308 -1.07707 0
-0.139312 -1.23008 0
0.591535 -0.955752 0
0.540525 -0.847132 0
-0.0974324 -1.08004 0
0.530254 -1.02666 0
0.465515 -0.858299 0
0.463652 -1.00275 0
-0.00187179 -0.699024 0
1.05769 -0.817359 0
0.887969 -0.715099 0
0.723998 -0.693022 0
0.878908 -0.85978 0
-0.0331596 -1.03069 0
-0.0235221 -0.983785 0
-0.0122001 -1.06054 0
0.0261908 -1.04623 0
1.00582 -1.37339 0
0.771718 -1.29685 0
-0.1754 -0.490577 0
0.173395 -1.10204 0
-0.426907 -0.554485 0
0.168165 -1.48986 0
0.211943 -1.17253 0
0.231343 -2.29136 0
0.713241 -1.10664 0
-0.154994 -0.583166 0
0.541601 -1.01251 0
-0.369871 -0.582515 0
0.312775 -1.36964 0
0.375815 -0.941651 0
0.929803 -1.36339 0
0.208753 -1.22031 0
0.611354 -1.2463 0
0.54468 -1.06727 0
-0.327846 -0.545791 0
0.126081 -1.21042 0
0.493593 -1.8772 0
0.943618 -1.53354 0
0.634825 -1.20919 0
-0.273989 -0.38937 0
0.0363466 -1.39957 0
0.349743 -1.51356 0
0.808982 -1.35986 0
0.553431 -0.970704 0
0.347317 -0.917958 0
0.622429 -1.14603 0
0.150737 -0.658756 0
-0.144785 -0.62581 0
-0.193889 -2.19191 0
-0.0439433 -0.519228 0
-0.0541273 -0.319294 0
-0.580124 -2.15545 0
-0.0320621 -2.36476 0
-0.120577 -0.497263 0
-0.00523852 -0.359388 0
-0.276909 -1.75362 0
-0.0613653 -1.46924 0
0.0558211 -1.63001 0
-0.125381 -0.37215 0
0.26193 -1.35844 0
-0.0880612 -0.411355 0
0.756075 -1.41036 0
0.90016 -1.31593 0
0.599376 -2.21551 0
0.590197 -0.584108 0
0.392388 -1.3515 0
0.322576 -1.05227 0
0.494937 -0.987627 0
0.580584 -1.19283 0
1.08321 -1.62161 0
0.627034 -2.00318 0
0.0905615 -0.697066 0
0.716058 -0.59767 0
0.160937 -1.43936 0
0.119951 -0.836957 0
0.484817 -0.856864 0
0.649581 -1.48144 0
0.00360438 -0.554691 0
0.306909 -0.505037 0
0.702138 -0.942955 0
0.496088 -1.03926 0
-0.0778651 -0.499876 0
0.311943 -0.598661 0
0.770471 -1.21567 0
-0.202659 -0.433377 0
0.233442 -1.88354 0
-0.0357962 -0.600173 0
0.0919546 -1.46657 0
-0.113334 -2.70616 0
1.1581 -1.07954 0
-0.0822681 -1.44235 0
-0.177738 -0.371251 0
0.0100186 -1.63012 0
0.506777 -1.69114 0
0.153452 -1.11222 0
0.0584784 -0.622059 0
-0.1306 -1.94667 0
-0.164786 -0.332674 0
-0.0124811 -1.30229 0
-0.220869 -0.408461 0
0.0121956 -1.18277 0
0.695094 -2.35708 0
0.19379 -0.867374 0
0.264728 -1.24973 0
0.224219 -1.41387 0
-0.356436 -2.23064 0
-0.0552244 -1.80802 0
-0.109105 -0.340584 0
-0.242296 -0.604801 0
0.480072 -1.21932 0
0.965503 -1.16304 0
-0.0916449 -1.3194 0
-0.0550556 -1.65951 0
-0.197644 -0.378938 0
0.0532195 -2.40122 0
0.377005 -2.29384 0
-0.233606 -0.612445 0
0.309765 -1.00838 0
0.944895 -1.3564 0
0.889621 -1.34817 0
0.140946 -1.67438 0
0.0923788 -0.899918 0
-0.101503 -1.82415 0
-0.333445 -2.41716 0
0.00168785 -0.46205 0
0.588537 -0.990081 0
0.365442 -0.646024 0
0.109811 -2.26778 0
-0.196236 -0.619142 0
0.52586 -0.929862 0
0.960654 -1.1837 0
-0.197354 -0.513856 0
-0.00202606 -1.70914 0
0.0396198 -1.08364 0
0.458428 -0.850369 0
0.843863 -0.799535 0
0.119839 -1.60782 0
-0.0385768 -0.411354 0
-0.244377 -2.08714 0
-0.193739 -0.35124 0
-0.192669 -1.23928 0
-0.0296758 -1.13175 0
-0.260546 -1.68103 0
-0.0778126 -1.62801 0
0.116027 -1.47424 0
-0.272947 -1.56984 0
0.121086 -0.942842 0
-0.537167 -2.43349 0
0.0161259 -2.29116 0
-0.0568928 -0.44133 0
-0.368781 -0.564885 0
0.460454 -1.08298 0
0.831819 -0.994745 0
-0.48469 -0.566445 0
0.387427 -1.22088 0
0.136238 -0.906133 0
-0.389947 -2.69254 0
0.00376521 -0.401089 0
0.3609 -2.07008 0
-0.292366 -0.64967 0
-0.230789 -0.80864 0
-0.0619892 -0.719369 0
-0.227082 -0.701714 0
0.301613 -1.69848 0
1.02488 -1.3355 0