# vtk DataFile Version 2.0
Unstructured Grid by M++
ASCII
DATASET UNSTRUCTURED_GRID
POINTS 81 float
  1.000000   0.625000 0
  0.750000   0.375000 0
  1.000000   0.000000 0
  0.875000   0.875000 0
  0.750000   0.125000 0
  1.000000   1.000000 0
  0.875000   0.250000 0
  0.625000   0.875000 0
  1.000000   0.750000 0
  0.875000   0.000000 0
  1.000000   0.250000 0
  0.625000   0.375000 0
  0.875000   0.500000 0
  0.625000   0.625000 0
  1.000000   0.500000 0
  0.750000   0.500000 0
  0.750000   1.000000 0
  1.000000   0.125000 0
  0.625000   0.250000 0
  0.750000   0.750000 0
  0.625000   0.000000 0
  0.125000   0.375000 0
  0.000000   0.500000 0
  0.125000   0.625000 0
  0.625000   1.000000 0
  1.000000   0.875000 0
  0.875000   0.125000 0
  0.500000   0.250000 0
  0.625000   0.500000 0
  0.250000   0.625000 0
  0.000000   0.625000 0
  0.375000   0.500000 0
  0.375000   0.000000 0
  0.000000   0.125000 0
  0.125000   0.875000 0
  0.875000   1.000000 0
  0.750000   0.250000 0
  0.375000   0.375000 0
  0.250000   0.375000 0
  0.625000   0.750000 0
  0.125000   0.125000 0
  0.500000   0.000000 0
  0.250000   0.875000 0
  0.125000   0.500000 0
  0.500000   0.375000 0
  0.125000   0.000000 0
  0.250000   0.750000 0
  0.250000   0.500000 0
  0.000000   0.875000 0
  0.875000   0.625000 0
  0.500000   0.750000 0
  0.750000   0.625000 0
  0.250000   0.000000 0
  0.375000   0.750000 0
  0.750000   0.875000 0
  0.625000   0.125000 0
  0.250000   0.250000 0
  0.375000   1.000000 0
  0.375000   0.250000 0
  0.000000   0.375000 0
  0.500000   1.000000 0
  0.875000   0.750000 0
  0.750000   0.000000 0
  0.375000   0.125000 0
  0.500000   0.875000 0
  0.000000   0.000000 0
  0.125000   0.750000 0
  0.500000   0.625000 0
  0.125000   0.250000 0
  0.500000   0.125000 0
  0.250000   1.000000 0
  0.250000   0.125000 0
  0.000000   1.000000 0
  0.375000   0.875000 0
  0.000000   0.750000 0
  0.375000   0.625000 0
  0.000000   0.250000 0
  0.125000   1.000000 0
  1.000000   0.375000 0
  0.500000   0.500000 0
  0.875000   0.375000 0
CELLS 64 320
4 56 71 58 63
4 27 58 69 63
4 41 69 32 63
4 76 33 68 40
4 27 44 58 37
4 79 31 44 37
4 56 38 68 21
4 56 58 38 37
4 52 32 71 63
4 47 38 31 37
4 76 68 59 21
4 22 59 43 21
4 65 45 33 40
4 47 43 38 21
4 52 71 45 40
4 56 68 71 40
4 74 30 66 23
4 46 66 29 23
4 22 43 30 23
4 72 48 77 34
4 46 53 42 73
4 50 64 53 73
4 70 42 57 73
4 74 66 48 34
4 46 42 66 34
4 47 29 43 23
4 70 77 42 34
4 60 57 64 73
4 79 67 31 75
4 47 31 29 75
4 50 53 67 75
4 46 29 53 75
4 10 78 6 80
4 36 6 1 80
4 15 1 12 80
4 36 4 6 26
4 14 12 78 80
4 2 17 9 26
4 36 18 4 55
4 15 28 1 11
4 62 4 20 55
4 10 6 17 26
4 27 18 44 11
4 62 9 4 26
4 27 69 18 55
4 36 1 18 11
4 41 20 69 55
4 79 44 28 11
4 16 24 54 7
4 19 54 39 7
4 50 39 64 7
4 8 25 61 3
4 60 64 24 7
4 79 28 67 13
4 19 51 61 49
4 8 61 0 49
4 15 51 28 13
4 19 39 51 13
4 50 67 39 13
4 19 61 54 3
4 14 0 12 49
4 5 35 25 3
4 15 12 51 49
4 16 54 35 3
CELL_TYPES 64
8
8
8
8
8
8
8
8
8
8
8
8
8
8
8
8
8
8
8
8
8
8
8
8
8
8
8
8
8
8
8
8
8
8
8
8
8
8
8
8
8
8
8
8
8
8
8
8
8
8
8
8
8
8
8
8
8
8
8
8
8
8
8
8
CELL_DATA 64
VECTORS vector_value float
0.358504 -1.86366 0
-0.378467 -0.657449 0
-0.129912 -0.495324 0
0.0126611 -0.350751 0
-0.156216 -0.465563 0
-0.0356482 -0.501755 0
0.749129 -3.18733 0
0.112677 -0.684745 0
-0.0680307 -2.56842 0
-0.0452768 -0.344195 0
0.24986 -0.648434 0
0.35943 -1.36599 0
-0.226672 -0.755115 0
0.0234829 -2.65546 0
-0.0607289 -1.74617 0
0.236419 -2.48651 0
-0.00810087 -2.09811 0
-0.127507 -0.383798 0
0.203703 -1.91033 0
-0.315263 -1.19936 0
-0.0849276 -1.96667 0
-0.255389 -0.512878 0
-0.82515 -1.55619 0
-0.190954 -1.88586 0
-0.133655 -0.525459 0
-0.234147 -1.14429 0
-0.591312 -1.06477 0
-0.957905 -0.583982 0
0.112657 -0.371278 0
-0.539022 -1.46391 0
-0.0381332 -0.778971 0
-0.205602 -1.92785 0
0.0611208 -0.940232 0
0.00706793 -0.524132 0
0.0565821 -0.698686 0
-0.257962 -0.253335 0
0.116834 -0.772702 0
-0.00935015 -0.669769 0
-0.178303 -0.787636 0
-0.0631711 -0.411534 0
-0.0525334 -0.749743 0
-0.140784 -0.953354 0
-0.0846105 -1.14473 0
-0.05736 -0.392467 0
-0.198127 -0.647304 0
-0.00821908 -0.404831 0
-0.0837241 -0.622997 0
-0.0263792 -1.24968 0
-0.233619 -1.0391 0
-0.143823 -0.492068 0
-0.330498 -0.633839 0
-0.357944 -1.10222 0
-0.519042 -0.752126 0
0.00203936 -1.24494 0
-0.205499 -1.16921 0
-0.0564345 -0.571928 0
-0.115086 -0.18413 0
-0.276893 -0.505353 0
-0.150135 -0.564782 0
-0.299091 -0.88101 0
0.0401443 -0.518965 0
0.17974 -1.40186 0
-0.00457542 -1.16215 0
0.11728 -0.402606 0
