# vtk DataFile Version 2.0
Unstructured Grid by M++
ASCII
DATASET UNSTRUCTURED_GRID
POINTS 1089 float
  0.718750   0.687500 0
  0.750000   0.687500 0
  0.718750   0.656250 0
  0.750000   0.718750 0
  0.625000   0.562500 0
  0.625000   0.593750 0
  0.656250   0.593750 0
  0.750000   0.750000 0
  0.687500   0.656250 0
  0.687500   0.625000 0
  0.656250   0.625000 0
  0.906250   0.593750 0
  1.000000   0.968750 0
  0.750000   0.968750 0
  0.718750   0.968750 0
  0.718750   1.000000 0
  0.750000   1.000000 0
  0.906250   0.906250 0
  0.843750   0.531250 0
  0.656250   0.937500 0
  0.656250   0.906250 0
  0.562500   0.812500 0
  0.562500   0.843750 0
  0.593750   0.875000 0
  0.593750   0.843750 0
  0.812500   0.718750 0
  0.625000   0.625000 0
  0.968750   0.875000 0
  0.531250   0.875000 0
  0.625000   0.937500 0
  0.562500   0.562500 0
  0.906250   0.812500 0
  0.531250   0.781250 0
  0.562500   0.593750 0
  0.906250   0.843750 0
  0.625000   0.656250 0
  0.968750   0.906250 0
  0.687500   0.968750 0
  0.812500   0.812500 0
  0.687500   1.000000 0
  0.687500   0.687500 0
  0.937500   0.843750 0
  0.593750   0.593750 0
  1.000000   0.625000 0
  0.968750   0.593750 0
  0.906250   0.875000 0
  0.968750   0.625000 0
  0.625000   0.875000 0
  0.875000   0.875000 0
  0.625000   0.906250 0
  0.875000   0.843750 0
  0.531250   0.812500 0
  0.968750   0.562500 0
  0.593750   0.625000 0
  0.937500   0.875000 0
  0.656250   0.687500 0
  1.000000   0.937500 0
  0.875000   0.562500 0
  0.687500   0.937500 0
  0.937500   0.625000 0
  0.812500   0.781250 0
  0.937500   0.562500 0
  0.875000   0.781250 0
  0.531250   0.531250 0
  0.718750   0.937500 0
  0.968750   0.937500 0
  0.906250   0.562500 0
  0.843750   0.781250 0
  0.593750   0.562500 0
  1.000000   0.906250 0
  0.656250   0.656250 0
  0.937500   0.906250 0
  0.875000   0.531250 0
  0.812500   0.750000 0
  0.656250   0.968750 0
  0.937500   0.531250 0
  0.843750   0.812500 0
  0.906250   0.531250 0
  0.843750   0.750000 0
  0.937500   0.593750 0
  0.875000   0.812500 0
  0.531250   0.562500 0
  1.000000   0.593750 0
  0.562500   0.906250 0
  0.562500   0.531250 0
  0.593750   0.906250 0
  0.593750   0.937500 0
  0.562500   0.875000 0
  0.781250   0.750000 0
  0.781250   0.781250 0
  0.593750   0.531250 0
  1.000000   0.687500 0
  0.531250   0.843750 0
  0.718750   0.718750 0
  0.781250   0.718750 0
  0.781250   0.687500 0
  1.000000   0.656250 0
  0.968750   0.656250 0
  0.843750   0.843750 0
  0.781250   1.000000 0
  0.656250   0.312500 0
  0.531250   0.250000 0
  0.875000   0.500000 0
  0.531250   0.218750 0
  0.875000   0.468750 0
  0.531250   0.156250 0
  0.593750   0.812500 0
  0.093750   0.562500 0
  0.656250   0.562500 0
  0.156250   0.312500 0
  0.031250   0.812500 0
  0.125000   1.000000 0
  0.312500   0.250000 0
  0.250000   0.500000 0
  0.375000   0.000000 0
  0.187500   0.750000 0
  0.812500   0.906250 0
  0.312500   0.656250 0
  0.250000   0.906250 0
  0.875000   0.656250 0
  0.375000   0.406250 0
  0.750000   0.843750 0
  0.250000   0.593750 0
  0.187500   0.843750 0
  0.812500   0.593750 0
  0.312500   0.343750 0
  0.625000   0.968750 0
  0.125000   0.718750 0
  0.687500   0.718750 0
  0.187500   0.468750 0
  0.062500   0.968750 0
  0.125000   0.656250 0
  0.187500   0.406250 0
  0.250000   0.156250 0
  0.062500   0.906250 0
  0.468750   0.906250 0
  0.656250   0.156250 0
  0.468750   0.812500 0
  0.593750   0.312500 0
  0.656250   0.062500 0
  0.625000   0.812500 0
  0.125000   0.562500 0
  0.687500   0.562500 0
  0.187500   0.312500 0
  0.062500   0.812500 0
  0.562500   0.937500 0
  0.062500   0.687500 0
  0.625000   0.687500 0
  0.125000   0.437500 0
  0.000000   0.937500 0
  0.062500   0.625000 0
  0.187500   0.125000 0
  0.125000   0.375000 0
  0.000000   0.875000 0
  0.406250   0.875000 0
  0.468750   0.625000 0
  0.593750   0.125000 0
  0.812500   0.937500 0
  0.312500   0.687500 0
  0.250000   0.937500 0
  0.875000   0.687500 0
  0.375000   0.437500 0
  0.750000   0.875000 0
  0.250000   0.625000 0
  0.187500   0.875000 0
  0.812500   0.625000 0
  0.312500   0.375000 0
  0.468750   0.781250 0
  0.593750   0.281250 0
  0.656250   0.031250 0
  0.625000   0.781250 0
  0.125000   0.531250 0
  0.062500   0.781250 0
  0.687500   0.531250 0
  0.187500   0.281250 0
  0.500000   0.812500 0
  0.687500   0.062500 0
  0.625000   0.312500 0
  0.656250   0.812500 0
  0.156250   0.562500 0
  0.718750   0.562500 0
  0.218750   0.312500 0
  0.093750   0.812500 0
  0.437500   0.968750 0
  0.625000   0.218750 0
  0.500000   0.781250 0
  0.687500   0.031250 0
  0.625000   0.281250 0
  0.656250   0.781250 0
  0.156250   0.531250 0
  0.718750   0.531250 0
  0.218750   0.281250 0
  0.093750   0.781250 0
  0.062500   0.562500 0
  0.125000   0.312500 0
  0.187500   0.062500 0
  0.000000   0.812500 0
  0.406250   0.812500 0
  0.968750   0.812500 0
  0.468750   0.562500 0
  0.593750   0.062500 0
  0.218750   0.687500 0
  0.156250   0.937500 0
  0.281250   0.437500 0
  0.062500   0.843750 0
  0.687500   0.593750 0
  0.187500   0.343750 0
  0.625000   0.843750 0
  0.125000   0.593750 0
  0.312500   0.843750 0
  0.437500   0.343750 0
  0.500000   0.093750 0
  0.375000   0.593750 0
  0.312500   0.906250 0
  0.937500   0.656250 0
  0.437500   0.406250 0
  0.875000   0.906250 0
  0.375000   0.656250 0
  0.062500   0.875000 0
  0.187500   0.375000 0
  0.250000   0.125000 0
  0.125000   0.625000 0
  0.093750   0.656250 0
  0.031250   0.906250 0
  0.218750   0.156250 0
  0.156250   0.406250 0
  0.593750   0.968750 0
  0.093750   0.718750 0
  0.031250   0.968750 0
  0.656250   0.718750 0
  0.156250   0.468750 0
  0.437500   0.906250 0
  0.625000   0.156250 0
  0.718750   0.812500 0
  0.218750   0.562500 0
  0.781250   0.562500 0
  0.281250   0.312500 0
  0.156250   0.812500 0
  0.062500   0.656250 0
  0.000000   0.906250 0
  0.187500   0.156250 0
  0.125000   0.406250 0
  0.562500   0.968750 0
  0.062500   0.718750 0
  0.000000   0.968750 0
  0.625000   0.718750 0
  0.125000   0.468750 0
  0.406250   0.968750 0
  0.968750   0.968750 0
  0.468750   0.718750 0
  0.531250   0.468750 0
  0.593750   0.218750 0
  0.406250   0.906250 0
  0.468750   0.656250 0
  0.593750   0.156250 0
  0.687500   0.781250 0
  0.187500   0.531250 0
  0.750000   0.531250 0
  0.250000   0.281250 0
  0.125000   0.781250 0
  0.781250   0.906250 0
  0.281250   0.656250 0
  0.218750   0.906250 0
  0.843750   0.656250 0
  0.343750   0.406250 0
  0.750000   0.906250 0
  0.250000   0.656250 0
  0.187500   0.906250 0
  0.812500   0.656250 0
  0.312500   0.406250 0
  0.875000   0.406250 0
  0.375000   0.156250 0
  0.812500   0.968750 0
  0.312500   0.718750 0
  0.250000   0.968750 0
  0.875000   0.718750 0
  0.375000   0.468750 0
  0.781250   0.937500 0
  0.281250   0.687500 0
  0.218750   0.937500 0
  0.843750   0.687500 0
  0.343750   0.437500 0
  0.718750   0.875000 0
  0.218750   0.625000 0
  0.156250   0.875000 0
  0.781250   0.625000 0
  0.281250   0.375000 0
  0.750000   0.937500 0
  0.250000   0.687500 0
  0.187500   0.937500 0
  0.875000   0.437500 0
  0.375000   0.187500 0
  0.812500   0.687500 0
  0.312500   0.437500 0
  0.687500   0.875000 0
  0.187500   0.625000 0
  0.750000   0.625000 0
  0.250000   0.375000 0
  0.125000   0.875000 0
  0.812500   1.000000 0
  0.312500   0.750000 0
  0.250000   1.000000 0
  0.875000   0.750000 0
  0.375000   0.500000 0
  0.562500   1.000000 0
  0.062500   0.750000 0
  0.000000   1.000000 0
  0.625000   0.750000 0
  0.125000   0.500000 0
  0.406250   1.000000 0
  0.968750   1.000000 0
  0.468750   0.750000 0
  0.656250   0.000000 0
  0.531250   0.500000 0
  0.593750   0.250000 0
  0.406250   0.937500 0
  0.468750   0.687500 0
  0.593750   0.187500 0
  0.687500   0.812500 0
  0.187500   0.562500 0
  0.750000   0.562500 0
  0.250000   0.312500 0
  0.125000   0.812500 0
  0.437500   0.843750 0
  0.625000   0.093750 0
  0.093750   0.593750 0
  0.156250   0.343750 0
  0.218750   0.093750 0
  0.031250   0.843750 0
  0.281250   0.937500 0
  0.843750   0.937500 0
  0.343750   0.687500 0
  0.906250   0.687500 0
  0.406250   0.437500 0
  0.156250   0.968750 0
  0.218750   0.718750 0
  0.281250   0.468750 0
  0.343750   0.218750 0
  0.156250   1.000000 0
  0.406250   0.000000 0
  0.281250   0.500000 0
  0.343750   0.250000 0
  0.218750   0.750000 0
  0.187500   0.968750 0
  0.250000   0.718750 0
  0.375000   0.218750 0
  0.312500   0.468750 0
  0.187500   1.000000 0
  0.312500   0.500000 0
  0.375000   0.250000 0
  0.437500   0.000000 0
  0.250000   0.750000 0
  0.031250   0.781250 0
  0.656250   0.531250 0
  0.156250   0.281250 0
  0.593750   0.781250 0
  0.093750   0.531250 0
  0.000000   0.781250 0
  0.625000   0.531250 0
  0.125000   0.281250 0
  0.562500   0.781250 0
  0.062500   0.531250 0
  0.781250   0.968750 0
  0.281250   0.718750 0
  0.218750   0.968750 0
  0.843750   0.718750 0
  0.343750   0.468750 0
  0.281250   0.968750 0
  0.843750   0.968750 0
  0.343750   0.718750 0
  0.906250   0.718750 0
  0.406250   0.468750 0
  0.281250   1.000000 0
  0.906250   0.750000 0
  0.406250   0.500000 0
  0.843750   1.000000 0
  0.343750   0.750000 0
  0.531250   0.000000 0
  0.718750   0.843750 0
  0.218750   0.593750 0
  0.156250   0.843750 0
  0.781250   0.593750 0
  0.281250   0.343750 0
  0.687500   0.843750 0
  0.187500   0.593750 0
  0.750000   0.593750 0
  0.250000   0.343750 0
  0.125000   0.843750 0
  0.218750   0.875000 0
  0.843750   0.625000 0
  0.343750   0.375000 0
  0.781250   0.875000 0
  0.281250   0.625000 0
  0.156250   0.906250 0
  0.781250   0.656250 0
  0.281250   0.406250 0
  0.718750   0.906250 0
  0.218750   0.656250 0
  0.031250   1.000000 0
  0.656250   0.750000 0
  0.156250   0.500000 0
  0.593750   1.000000 0
  0.093750   0.750000 0
  0.218750   1.000000 0
  0.343750   0.500000 0
  0.468750   0.000000 0
  0.406250   0.250000 0
  0.281250   0.750000 0
  0.593750   0.406250 0
  0.093750   0.156250 0
  0.531250   0.656250 0
  0.031250   0.406250 0
[...]
CELL_DATA 1024
VECTORS vector_value float
0.323919 -1.29525 0
0.0747182 -1.21299 0
-0.00280977 -0.933557 0
0.112276 -0.377402 0
0.152003 -0.376327 0
0.182525 -0.332074 0
-0.50007 -3.57703 0
-0.335248 -1.90511 0
-0.280926 -1.99368 0
-0.224976 -3.81535 0
-0.106246 -3.55619 0
-0.0495494 -0.757519 0
-0.0980194 -1.19567 0
-0.176231 -1.11112 0
-0.249997 -1.28637 0
-0.230455 -1.52383 0
-0.125132 -0.93913 0
-0.0555565 -1.33073 0
-0.375428 -2.11077 0
-0.230763 -1.53153 0
-0.412863 -1.83616 0
-0.0399934 -1.42626 0
-0.630973 -3.37819 0
-0.301356 -2.88776 0
-0.243343 -0.790988 0
-0.0759274 -0.632718 0
-0.180355 -0.748448 0
-0.380733 -0.846388 0
0.101731 -0.300691 0
-0.197325 -2.99575 0
0.0341273 -0.260677 0
0.0922794 -0.248165 0
0.103921 -0.258782 0
0.029567 -0.25882 0
-0.0400404 -0.655684 0
-0.0679851 -0.940207 0
-0.302105 -1.23206 0
-0.084068 -0.967351 0
-0.0215454 -0.70543 0
0.084052 -0.677633 0
-0.957476 -1.45884 0
-0.818374 -1.44519 0
0.242243 -0.280984 0
-0.829093 -1.58827 0
-0.785705 -1.43182 0
0.0374771 -0.614767 0
0.264036 -0.574543 0
-0.924021 -1.36628 0
0.10291 -0.97281 0
0.348253 -0.430608 0
-0.774496 -1.41403 0
-0.0582813 -0.595307 0
0.333649 -0.300708 0
0.137071 -0.518748 0
0.313843 -0.327838 0
0.117598 -0.533751 0
0.304413 -0.408968 0
-0.782047 -1.68056 0
-0.991293 -1.54166 0
0.0244392 -1.5464 0
-0.863207 -2.54983 0
-0.34894 -2.39841 0
-0.00139392 -0.443279 0
0.0252433 -0.445421 0
-0.528374 -3.62915 0
0.582136 -2.00274 0
-0.25935 -1.8567 0
-0.799064 -3.73902 0
-0.850973 -1.55623 0
-0.00795836 -0.57353 0
0.34264 -0.693413 0
0.137735 -0.609137 0
-0.191058 -0.995697 0
0.33772 -0.454604 0
-0.0271821 -0.32046 0
0.0638973 -0.41021 0
-0.298396 -1.79198 0
0.034183 -2.36417 0
0.180369 -0.320117 0
0.19387 -0.285263 0
0.0752451 -2.20875 0
-0.699486 -1.58537 0
0.0491269 -0.802751 0
0.241762 -0.822521 0
0.00752996 -0.434956 0
0.0794098 -0.411875 0
0.426482 -1.42612 0
0.218721 -2.04156 0
-0.634442 -1.47721 0
0.347782 -0.586179 0
0.16305 -0.58492 0
-0.422015 -1.19782 0
0.277055 -0.862909 0
0.140831 -0.347104 0
0.157299 -1.05352 0
0.206957 -1.53063 0
0.201113 -0.252149 0
0.304276 -0.256321 0
0.199156 -1.32537 0
0.293476 -1.86271 0
0.106976 -0.504864 0
-0.405119 -2.14099 0
-0.884782 -2.451 0
0.313137 -0.272742 0
-0.0866498 -0.370732 0
0.0608487 -0.495012 0
-0.397224 -1.75358 0
0.249978 -0.712615 0
0.315004 -0.701324 0
-0.128643 -1.26708 0
0.217603 -0.41416 0
-0.142908 -0.351162 0
-0.214639 -1.8177 0
-0.296082 -0.357163 0
0.0629921 -2.9208 0
0.0971433 -2.48468 0
0.107127 -0.337009 0
0.23688 -0.4205 0
-0.382933 -0.926057 0
-0.0995028 -0.67703 0
0.0875757 -0.669826 0
-0.0739107 -2.13405 0
-0.068632 -1.43257 0
-0.471545 -0.654953 0
-0.0337314 -2.34062 0
-0.940189 -2.55042 0
-0.0993026 -0.426815 0
-0.449964 -0.87676 0
0.236517 -0.291548 0
-0.11711 -0.293102 0
-0.0133652 -0.470839 0
-0.157526 -1.70208 0
-0.477189 -0.939615 0
-0.0860393 -0.905784 0
0.0312779 -0.587122 0
-0.228099 -0.434784 0
-0.236526 -0.347379 0
0.63043 -2.85742 0
0.0456093 -0.365016 0
0.0285383 -0.339537 0
-0.0388242 -2.6893 0
0.0551677 -0.493828 0
0.0220777 -1.57135 0
-0.351788 -1.00018 0
-0.210439 -1.16664 0
0.285946 -0.290165 0
0.746919 -2.30855 0
0.143411 -0.338511 0
-0.030056 -0.595619 0
0.0236941 -0.674926 0
-0.615567 -2.39012 0
-0.853104 -2.22607 0
-0.000570934 -0.507683 0
-0.217572 -0.87756 0
-0.482543 -3.34957 0
-0.120942 -2.2986 0
-0.0804585 -1.58402 0
-0.344628 -0.686637 0
-0.39692 -0.954736 0
-0.280292 -1.08864 0
0.2517 -0.549252 0
0.0978507 -0.566157 0
0.0529475 -0.385544 0
0.00699972 -0.33047 0
-0.18779 -2.37075 0
0.0983494 -0.670544 0
0.0771916 -1.52744 0
-0.790285 -1.25584 0
-0.643656 -1.3339 0
-0.576519 -1.16666 0
0.130277 -0.755447 0
0.0719266 -0.892478 0
0.0282935 -0.746444 0
0.0887447 -0.424864 0
0.00854361 -0.499108 0
0.0310056 -0.495555 0
-0.0197847 -0.554517 0
-0.0438152 -0.675625 0
-0.452305 -1.55249 0
0.206757 -0.31181 0
0.0285371 -0.32652 0
0.0822144 -0.663806 0
-0.243145 -1.61044 0
0.184746 -0.449382 0
0.0317645 -0.4496 0
-0.15631 -1.24613 0
0.241372 -0.427138 0
0.0990896 -0.463648 0
-0.390982 -1.2705 0
0.10161 -0.323748 0
-0.143797 -0.287081 0
0.168968 -2.24712 0
-0.169564 -0.399643 0
-0.914213 -1.62806 0
-0.536839 -1.0827 0
-0.016023 -0.97038 0
-0.176924 -0.354348 0
0.446658 -2.47579 0
-0.199067 -0.464137 0
-0.670721 -1.07724 0
-0.0838406 -2.05769 0
-0.0760531 -0.461853 0
-0.161228 -0.334316 0
0.642436 -2.27344 0
-0.574081 -1.97256 0
-0.188611 -1.71245 0
-0.411903 -0.513355 0
-0.774931 -2.93878 0
-0.31375 -2.28604 0
-0.192275 -1.7425 0
-0.260769 -0.404022 0
-0.782001 -3.39275 0
-0.474666 -2.68295 0
-0.118103 -2.01757 0
-0.192621 -0.339535 0
-0.278604 -1.98609 0
-0.343566 -0.381378 0
-1.02592 -2.65736 0
-0.63558 -2.1782 0
0.26871 -0.268567 0
-0.761841 -2.47306 0
0.117638 -0.500517 0
-0.843981 -2.24433 0
-0.861701 -2.17372 0
0.266285 -0.282117 0
0.328774 -3.27356 0
-0.10862 -3.5636 0
-0.316619 -2.13966 0
0.0495594 -0.329144 0
0.423866 -2.11095 0
-0.737969 -2.30171 0
-0.375801 -3.01479 0
0.0871761 -0.402195 0
0.0435905 -2.14178 0
-0.78227 -2.72272 0
-0.661136 -1.96342 0
0.0960274 -0.480817 0
-0.128647 -3.50415 0
0.0719751 -0.559932 0
-0.618044 -1.92353 0
0.0361468 -0.389951 0
-0.449553 -1.90769 0
0.0523134 -0.378402 0
-0.522066 -2.12044 0
0.0529715 -0.506879 0
-1.01119 -2.3648 0
-0.13746 -2.01578 0
-0.0660488 -0.483958 0
-0.103204 -1.75868 0
-0.222064 -0.581461 0
-0.345947 -0.97869 0
-0.227999 -0.772605 0
0.00094247 -0.296422 0
0.0240401 -0.281126 0
0.0810931 -0.314967 0
0.0156291 -0.374455 0
-0.046455 -1.33893 0
-0.121402 -1.53869 0
-0.233787 -0.737731 0
-0.298757 -1.09917 0
-0.262195 -1.03936 0
-0.212736 -0.866596 0
-0.967062 -1.21096 0
-0.658872 -1.15318 0
-0.953889 -1.00547 0
-0.321316 -0.981247 0
-0.259744 -0.998801 0
-0.23032 -0.719351 0
-0.267104 -0.706675 0
-0.249837 -1.56923 0
-0.464156 -1.84345 0
-0.0779882 -1.14966 0
-0.262264 -1.2309 0
-0.368981 -1.19038 0
-0.253437 -1.46265 0
-0.257914 -0.6742 0
-0.353936 -1.109 0
-0.249549 -1.05517 0
-0.401518 -1.32453 0
-0.449521 -1.61633 0
-0.588714 -1.18516 0
-0.466409 -0.893108 0
0.0670879 -1.03086 0
0.432003 -1.04593 0
-0.0978317 -1.46643 0
-0.372009 -1.0417 0
-0.427991 -0.667452 0
-0.405046 -0.96793 0
-0.206812 -0.891931 0
-0.330409 -1.28639 0
-0.569151 -0.727077 0
-0.190589 -0.976712 0
-0.525495 -0.714437 0
-0.174458 -0.85245 0
-0.276687 -1.02228 0
-0.453061 -1.29883 0
-0.0233573 -1.13713 0
-0.527294 -1.17685 0
0.00463743 -1.47173 0
-0.0780539 -0.805083 0
-0.274492 -1.40465 0
-0.257626 -0.653913 0
-0.242317 -1.28451 0
-0.31091 -1.65974 0
-0.140066 -0.691801 0
-0.0749722 -0.947336 0
-0.00192818 -1.18601 0
-0.100028 -1.13219 0
-0.760214 -1.43906 0
0.0621445 -0.711113 0
0.0980523 -1.19892 0
-0.562266 -1.34041 0
-0.00938044 -0.684373 0
-0.0566855 -1.05666 0
-0.651517 -1.39743 0
0.276941 -1.1946 0
-0.478515 -1.17445 0
-0.632152 -1.20007 0
0.038356 -1.01906 0
-0.769745 -1.2086 0
-0.597611 -1.15018 0
-0.341209 -0.379224 0
0.068223 -1.02656 0
-0.65998 -1.33156 0
-0.709976 -1.32608 0
0.0921003 -0.863878 0
-0.736319 -1.49063 0
-0.535915 -1.14475 0
-0.0127908 -1.03642 0
0.067536 -0.883185 0
-0.481988 -0.585474 0
-0.252252 -1.32948 0
-0.0783754 -1.03601 0
0.113524 -1.16774 0
-0.381098 -0.561421 0
-0.465321 -1.42725 0
-0.0218191 -0.821911 0
-0.0920812 -0.9856 0
0.248962 -1.20694 0
-0.598633 -1.20181 0
-0.487457 -1.18728 0
-0.0677585 -0.821483 0
0.0353581 -0.855937 0
0.16691 -1.3693 0
-0.371151 -1.06167 0
-0.359281 -1.0414 0
-0.576688 -1.46936 0
0.216632 -1.20228 0
-0.750457 -1.42065 0
0.0102477 -1.94305 0
-0.206296 -1.03332 0
-0.539623 -1.7571 0
-0.314946 -0.807741 0
-0.19579 -1.45105 0
-0.115703 -0.840399 0
-0.39526 -0.437163 0
0.0501999 -1.16418 0
0.114782 -1.22685 0
-0.50671 -1.42804 0
-0.0525939 -1.09136 0
0.394659 -0.944998 0
-0.169968 -2.04973 0
-0.0514841 -0.808876 0
-0.115194 -0.739106 0
-0.312385 -1.04026 0
-0.408308 -1.46007 0
-0.110104 -1.79689 0
-0.278315 -0.902392 0
-0.258907 -0.921033 0
-0.110529 -0.518602 0
-0.136205 -0.518404 0
-0.293697 -1.01098 0
0.159795 -1.84792 0
-0.467864 -1.18429 0
-0.478126 -0.474833 0
0.0428279 -0.998502 0
0.0387394 -0.737685 0
-0.428731 -1.57797 0
0.250989 -0.869161 0
0.088677 -1.26171 0
-0.194277 -1.10339 0
-0.00177057 -1.04771 0
0.43627 -0.925267 0
-0.0732818 -1.91155 0
0.117731 -1.65565 0
-0.0554374 -1.18236 0
-0.0489814 -0.977337 0
0.211393 -0.905395 0
-0.0153972 -0.525146 0
0.124933 -0.710667 0
-0.394134 -0.41054 0
0.0101919 -0.728576 0
-0.662246 -1.69426 0
0.190861 -1.07605 0
-0.561663 -1.2181 0
-0.400864 -1.50824 0
-0.188936 -1.19466 0
0.00580193 -1.84352 0
0.185516 -1.34309 0
-0.305669 -0.634594 0
-0.392591 -1.10334 0
-0.439275 -1.39452 0
-0.288872 -1.1956 0
0.164715 -1.13862 0
-0.0625895 -1.37531 0
-0.455156 -0.728455 0
-0.233761 -1.22899 0
-0.378299 -1.06272 0
-0.478249 -1.12673 0
-0.42944 -1.07852 0
0.135838 -1.10262 0
-0.0379424 -1.41288 0
-0.282756 -0.889809 0
-0.0591869 -0.795903 0
-0.0969856 -0.967429 0
-0.168416 -0.814075 0
-0.0537679 -0.919345 0
-0.13733 -0.836859 0
-0.260874 -1.01269 0
-0.0273901 -0.944439 0
-0.293317 -0.714038 0
-0.185241 -1.19116 0
0.442927 -1.0758 0
0.0176564 -0.943692 0
-0.091579 -1.12137 0
0.185957 -1.10377 0
-0.400709 -1.10085 0
-0.345697 -0.980673 0
-0.522217 -0.982957 0
-0.406686 -1.37498 0
-0.0841674 -0.994536 0
-0.378298 -1.43216 0
-0.561778 -1.25236 0
-0.745994 -1.30294 0
0.246282 -1.36102 0
-0.32783 -1.05546 0
-0.448484 -0.984743 0
-0.291215 -0.889756 0
-0.284166 -0.60152 0
-0.0374456 -1.12352 0
-0.122088 -0.705247 0
-0.311671 -0.639247 0
-0.0452872 -0.908017 0
-0.150494 -0.893325 0
-0.201738 -0.60037 0
-0.13644 -0.642954 0
-0.0216391 -0.617761 0
0.146032 -1.43829 0
-0.656979 -1.29257 0
-0.0509126 -0.608807 0
-0.176561 -0.642991 0
0.203522 -1.59768 0
-0.596011 -1.22636 0
-0.249279 -0.86777 0
0.137733 -1.44982 0
-0.715313 -1.28098 0
0.042044 -0.803113 0
-0.181383 -0.774529 0
0.0326723 -1.6309 0
-0.571228 -1.16266 0
-0.11015 -0.444864 0
-0.174134 -0.582896 0
-0.153377 -0.533531 0
-0.0700406 -0.517522 0
-0.097202 -0.459396 0
-0.0579977 -0.651917 0
-0.184007 -0.71084 0
-0.195085 -1.02653 0
-0.417624 -1.22159 0
0.156282 -1.18226 0
-0.185322 -0.958835 0
0.0960485 -1.41279 0
-0.0552787 -1.3021 0
0.0950175 -0.870654 0
-0.141161 -0.597586 0
0.0583001 -0.587726 0
-0.368336 -0.655661 0
-0.296618 -0.679134 0
-0.0317839 -0.749258 0
-0.0478706 -0.734702 0
0.0110894 -0.825989 0
-0.0889092 -0.76056 0
0.190964 -0.958998 0
-0.187453 -1.38522 0
0.481053 -0.994417 0
-0.336448 -1.56484 0
-0.410704 -1.91773 0
0.222721 -0.996298 0
-0.219542 -1.94794 0
-0.660585 -0.633296 0
-0.483002 -0.47115 0
-0.618015 -0.642899 0
-0.698633 -0.749052 0
0.147042 -1.28584 0
-0.418562 -1.27185 0
-0.0617313 -0.914678 0
0.105596 -1.14883 0
-0.070898 -1.16081 0
-0.0778772 -1.43462 0
0.198823 -1.42717 0
-0.0506546 -0.959259 0
0.0881782 -1.46994 0
0.270906 -1.5495 0
-0.258948 -0.92493 0
-0.106084 -1.03221 0
0.229799 -0.974682 0
-0.0892721 -1.4491 0
-0.00376124 -1.24819 0
-0.0516978 -0.930366 0
-0.142379 -0.815481 0
-0.0148291 -0.7846 0
0.0750057 -0.953193 0
-0.125821 -0.304609 0
-0.233213 -0.974831 0
-0.260043 -1.0116 0
-0.0960879 -1.33487 0
-0.0211599 -1.4353 0
-0.21924 -0.882168 0
-0.13014 -0.87989 0
-0.190641 -0.851689 0
-0.237317 -0.547249 0
-0.0292602 -0.640954 0
-0.082142 -0.564894 0
0.0372944 -0.78415 0
-0.0336895 -0.572038 0
0.0217982 -0.723987 0
-0.326453 -1.35934 0
-0.26637 -1.16795 0
-0.257662 -1.05782 0
-0.356516 -1.29444 0
-0.0749259 -0.402975 0
-0.3231 -1.28757 0
-0.247571 -1.37458 0
-0.0253228 -0.406918 0
-0.0825828 -0.398959 0
-0.0709778 -0.292529 0
-0.0218797 -0.271874 0
-0.0913921 -0.78135 0
-0.0179061 -0.767573 0
0.0420635 -0.756831 0
0.0230568 -0.697075 0
-0.138397 -0.468354 0
-0.151034 -0.471641 0
-0.0226734 -1.01579 0
-0.139384 -1.02967 0
-0.149588 -0.43859 0
-0.295272 -1.19059 0
-0.167055 -0.499592 0
-0.203006 -0.544783 0
-0.200912 -1.2075 0
-0.168058 -0.482188 0
-0.10869 -0.44755 0
-0.209907 -0.516576 0
-0.120665 -0.602395 0
-0.174352 -0.53851 0
-0.208812 -0.572065 0
-0.183618 -0.809582 0
-0.149425 -0.371518 0
-0.0405754 -0.399983 0
-0.18233 -0.408893 0
-0.169629 -0.472207 0
-0.200643 -0.342484 0
-0.107815 -0.344165 0
-0.119814 -0.483316 0
-0.154057 -0.422787 0
-0.157011 -0.433867 0
-0.0643557 -0.572149 0
0.217555 -1.41937 0
0.0993687 -0.732495 0
-0.0335906 -0.521505 0
0.0701664 -0.611291 0
-0.0116299 -0.898294 0
-0.12647 -0.488084 0
0.0992126 -0.914533 0
0.0243182 -0.580055 0
0.0757135 -0.68681 0
-0.0206043 -0.939633 0
-0.137262 -0.460081 0
-0.0892422 -1.11608 0
-0.122162 -0.504963 0
-0.0737806 -0.351528 0
-0.00892824 -0.53204 0
-0.0755799 -1.33485 0
0.226399 -1.33214 0
-0.0172567 -0.442787 0
-0.107162 -0.506159 0
-0.0679054 -1.11344 0
0.1252 -1.47388 0
0.171827 -1.34164 0
-0.041832 -0.422732 0
-0.253296 -0.575533 0
-0.163369 -0.51625 0
-0.0965992 -1.08215 0
-0.181508 -0.537087 0
0.0255366 -0.641553 0
0.303208 -1.01595 0
0.00845537 -0.826779 0
0.425245 -1.12266 0
-0.165303 -0.579053 0
-0.142375 -0.683915 0
-0.208642 -0.699037 0
-0.135054 -0.303743 0
-0.105505 -0.391729 0
-0.253428 -1.05577 0
-0.181737 -0.769706 0
-0.200478 -0.497073 0
-0.0501179 -0.454568 0
-0.245344 -0.480373 0
-0.233383 -0.558867 0
-0.175991 -1.18433 0
-0.257253 -1.1061 0
-0.217269 -0.587794 0
-0.123348 -0.895998 0
0.179104 -0.680104 0
-0.179886 -0.689775 0
0.0290917 -0.676821 0
0.00664511 -0.648752 0
-0.0193432 -0.549683 0
0.0222442 -0.747878 0
0.120362 -0.78899 0
-0.225191 -0.649912 0
-0.0301334 -0.520691 0
-0.356562 -1.31184 0
-0.239507 -0.80285 0
-0.0945649 -0.427036 0
-0.00137905 -0.987058 0
-0.262196 -1.06833 0
-0.205653 -0.906103 0
-0.257975 -0.871167 0
-0.125224 -1.06815 0
0.240266 -0.853569 0
0.385659 -0.778375 0
-0.178423 -0.588808 0
0.260662 -0.999485 0
0.0712858 -0.761823 0
-0.28122 -0.996086 0
-0.00615938 -0.625447 0
-0.0963126 -0.521652 0
-0.20338 -0.488274 0
-0.125627 -0.761805 0
-0.236131 -0.675824 0
0.0133029 -0.664751 0
-0.0715392 -0.559537 0
-0.0918119 -1.03951 0
-0.000490812 -0.464883 0
-0.0136199 -0.981277 0
-0.278865 -0.59611 0
-0.193488 -0.504168 0
0.00621025 -0.629044 0
-0.0666117 -0.561911 0
0.00925669 -0.653401 0
0.0150383 -0.591086 0
0.0361674 -0.727531 0
-0.0245185 -0.707133 0
0.0167351 -0.639302 0
0.139224 -0.8785 0
-0.183157 -0.667191 0
-0.0852277 -0.716224 0
-0.0699404 -0.658509 0
0.065272 -0.628968 0
-0.209483 -1.04793 0
-0.0815484 -1.00015 0
-0.0718291 -0.489601 0
-0.34077 -1.19201 0
-0.141131 -0.572738 0
-0.16693 -0.634912 0
-0.149303 -0.793991 0
0.00100325 -0.627249 0
0.116457 -0.924391 0
0.0348971 -0.72861 0
0.307053 -0.91558 0
0.0711173 -0.848118 0
0.39473 -1.09987 0
0.0300759 -0.64789 0
0.21667 -1.13958 0
-0.0780032 -0.480683 0
-0.018711 -0.663159 0
0.0272395 -0.732666 0
-0.354784 -1.24056 0
-0.207367 -0.876798 0
-0.291634 -0.970302 0
-0.230796 -0.831741 0
-0.204793 -0.862008 0
-0.228204 -0.824091 0
-0.19515 -0.841617 0
0.11925 -1.11648 0
0.113173 -0.862559 0
0.055174 -0.770427 0
-0.374631 -1.26963 0
0.00951873 -1.10452 0
0.131416 -1.06895 0
0.382452 -0.844958 0
0.0908929 -0.778017 0
-0.298207 -1.20234 0
0.0223315 -0.859722 0
0.314391 -1.01819 0
0.0562367 -0.654348 0
-0.221845 -0.756918 0
0.0208482 -0.759685 0
0.0906906 -0.849683 0
0.105405 -0.787147 0
0.0227606 -0.657264 0
-0.283225 -0.833046 0
-0.145382 -0.595695 0
-0.0940352 -0.612502 0
-0.00777298 -0.540558 0
-0.119168 -0.536814 0
-0.0122593 -0.541047 0
-0.0726995 -0.543117 0
-0.0628521 -0.593503 0
-0.0124344 -0.574774 0
-0.0774057 -0.575949 0
-0.138005 -0.715429 0
-0.00899309 -0.507783 0
-0.158449 -0.314481 0
-0.0912868 -0.268025 0
-0.066727 -0.259958 0
-0.0908732 -0.291635 0
-0.321536 -1.13821 0
0.0194686 -0.983628 0
-0.358927 -1.37381 0
0.0425673 -0.917069 0
-0.327896 -1.21105 0
-0.397627 -1.40332 0
0.0134749 -0.547452 0
-0.430712 -1.24372 0
-0.343181 -1.02969 0
-0.473965 -1.20804 0
-0.45359 -1.19336 0
0.0061878 -1.63734 0
0.0356226 -0.47283 0
0.0577638 -0.707288 0
0.0467593 -0.614526 0
0.107588 -0.728924 0
0.0996347 -1.56209 0
0.112197 -0.726713 0
0.073765 -0.690256 0
0.0399194 -1.73904 0
0.0596776 -0.592095 0
0.051205 -0.817375 0
-0.0801834 -1.34249 0
0.000499081 -0.449606 0
-0.337062 -1.12566 0
-0.169044 -0.969418 0
-0.280983 -1.32517 0
-0.00172938 -1.35985 0
-0.243107 -0.97329 0
-0.155421 -1.08016 0
-0.131254 -1.04102 0
-0.0443273 -1.02965 0
-0.122066 -0.918711 0
-0.00575071 -0.447227 0
-0.120752 -0.70131 0
-0.0184113 -0.498202 0
-0.0494184 -0.55881 0
-0.0566438 -0.737767 0
-0.0181668 -0.572637 0
0.00974225 -0.722657 0
-0.000384819 -0.630006 0
-0.0206622 -0.227416 0
-0.0158141 -0.266695 0
-0.0460815 -0.286046 0
-0.0489706 -0.220048 0
0.0276543 -1.27724 0
-0.0898209 -1.21574 0
-0.139146 -1.30916 0
0.131175 -1.71574 0
0.0932143 -1.93371 0
0.023093 -0.591779 0
-0.110972 -0.991615 0
-0.225021 -1.22489 0
0.0586883 -1.03582 0
0.0257799 -0.835097 0
-0.231257 -0.521101 0
-0.451245 -0.738335 0
0.233405 -0.933518 0
-0.788605 -0.833358 0
-0.411181 -0.578511 0
-0.598993 -0.808032 0
0.0596199 -0.726675 0
0.226847 -1.00059 0
0.0650165 -1.00757 0
0.137613 -1.2384 0
0.304728 -1.08418 0
0.0547609 -0.720325 0
0.0987066 -0.701378 0
0.153755 -0.860702 0
0.0875594 -0.79547 0
-0.227436 -1.1315 0
-0.703734 -1.45366 0
0.154432 -1.03622 0
0.165967 -1.09932 0
-0.0818477 -0.820171 0
0.0232988 -0.553891 0
0.00375959 -1.42727 0
-0.446749 -0.967894 0
-0.755689 -1.26249 0
0.00518266 -1.20078 0
0.222207 -0.969029 0
-0.131465 -0.896214 0
0.0530935 -0.578369 0
-0.287585 -1.78936 0
-0.446626 -1.76109 0
-0.267898 -1.38807 0
-0.294466 -1.07715 0
-1.03825 -1.15896 0
0.0235295 -1.04154 0
0.120261 -1.03113 0
-0.217277 -0.88958 0
-0.0827645 -0.866093 0
-0.629828 -1.11888 0
0.00948092 -0.937978 0
0.0741028 -0.942241 0
0.0246357 -0.776885 0
-0.590164 -1.57874 0
-0.213288 -1.3269 0
-0.0171483 -1.28927 0
-0.439218 -1.90582 0
-0.238851 -1.62965 0
-0.103546 -1.48746 0
-0.168754 -0.904927 0
0.088281 -0.893706 0
-0.268932 -0.722434 0
-0.175562 -1.20217 0
-0.359124 -0.969928 0
0.11611 -0.86788 0
-0.320749 -0.727525 0
-0.18743 -1.16621 0
-0.198274 -0.782471 0
0.0543067 -1.26981 0
0.174346 -1.20005 0
0.10882 -1.15595 0
0.0848623 -1.14402 0
-0.434212 -1.22606 0
-0.105095 -1.00789 0
0.00351061 -0.696621 0
-0.132501 -1.25224 0
0.0160379 -0.580252 0
-0.0339965 -0.551259 0
-0.994709 -0.887436 0
-0.160512 -0.658073 0
0.0557196 -0.715001 0
-0.00738287 -0.606729 0
0.120453 -1.08597 0
-0.182226 -1.10482 0
0.0183097 -0.525304 0
-0.01403 -0.508661 0
-0.107468 -0.476446 0
0.0761769 -0.624391 0
0.113218 -1.00239 0
-0.3442 -1.03572 0
0.0917405 -0.481467 0
0.0475213 -0.821159 0
0.0316987 -1.08768 0
-0.454937 -1.31381 0
0.0502288 -0.601337 0
-0.0423948 -0.812021 0
0.00952586 -0.61518 0
-0.0711054 -1.3038 0
-0.394118 -1.13193 0
-0.207987 -1.04114 0
-0.127064 -1.20659 0
-0.00277331 -1.51133 0
0.304939 -1.15408 0
0.0618909 -1.3934 0
-0.0206506 -0.670019 0
0.0060314 -0.481963 0
-0.0330305 -0.534311 0
-0.0916695 -0.875345 0
0.0280145 -0.748475 0
-0.00162584 -0.803645 0
0.227602 -1.05831 0
0.133091 -1.12929 0
-0.111026 -0.721416 0
-0.139695 -0.667237 0
0.0854551 -0.436935 0
-0.466802 -1.38074 0
-0.130593 -1.07951 0
-0.0779306 -0.838111 0
-0.0475693 -0.798759 0
-0.12416 -0.912153 0
0.110305 -0.69684 0
-0.305126 -1.49926 0
-0.0385442 -1.50412 0
0.0345176 -1.51258 0
0.182118 -1.09067 0
-0.465432 -1.19895 0
-0.457618 -0.984784 0
0.0314538 -1.45946 0
0.18877 -1.05767 0
-0.331721 -1.39342 0
-0.553814 -1.36458 0
-0.322665 -1.17851 0
0.13045 -1.23524 0
0.0072192 -0.782522 0
-0.0791812 -0.82273 0
-0.325629 -0.457442 0
0.0774488 -0.385707 0
-0.360808 -1.12839 0
-0.580924 -1.06974 0
-0.0973062 -1.47516 0
0.28131 -1.09991 0
-0.43444 -1.13083 0
0.238758 -1.09139 0
-0.299851 -1.35655 0
0.169078 -1.29205 0
-0.058938 -0.413573 0
-0.239189 -1.04839 0
0.0481449 -0.746051 0
-0.354881 -0.466713 0
-0.00773905 -0.74197 0
0.113166 -0.875927 0
-0.0838824 -1.20428 0
0.0992117 -1.15334 0
-0.0824406 -0.711216 0
0.019897 -0.536292 0
0.0286637 -0.467059 0
0.00987269 -0.579824 0
-0.0888247 -1.59475 0
-0.0750785 -0.963162 0
-0.0116552 -0.817576 0
-0.317015 -0.602593 0
-0.143304 -0.762198 0
-0.00564166 -0.428206 0
-0.302431 -1.39286 0
-0.0983976 -0.813135 0
0.0471561 -0.417797 0
0.0629874 -1.91442 0
-0.156958 -1.07538 0
-0.338762 -0.563935 0
-0.338659 -0.854492 0