# vtk DataFile Version 2.0
Unstructured Grid by M++
ASCII
DATASET UNSTRUCTURED_GRID
POINTS 289 float
  0.562500   1.000000 0
  0.562500   0.625000 0
  0.625000   1.000000 0
  0.562500   0.937500 0
  0.562500   0.562500 0
  0.625000   0.937500 0
  0.562500   0.875000 0
  0.625000   0.750000 0
  0.625000   0.625000 0
  0.562500   0.812500 0
  0.562500   0.750000 0
  0.562500   0.687500 0
  0.625000   0.875000 0
  0.625000   0.812500 0
  0.625000   0.687500 0
  0.687500   0.125000 0
  0.875000   0.062500 0
  0.625000   0.125000 0
  0.625000   0.187500 0
  0.625000   0.250000 0
  0.812500   0.187500 0
  1.000000   0.125000 0
  0.687500   0.187500 0
  0.750000   0.125000 0
  0.937500   0.062500 0
  0.937500   0.125000 0
  0.750000   0.187500 0
  0.812500   0.062500 0
  0.812500   0.125000 0
  0.875000   0.687500 0
  0.187500   0.250000 0
  0.437500   0.250000 0
  0.375000   0.187500 0
  0.812500   0.625000 0
  0.125000   0.187500 0
  0.937500   0.750000 0
  0.250000   0.312500 0
  0.500000   0.312500 0
  0.625000   0.062500 0
  0.437500   0.500000 0
  0.375000   0.125000 0
  0.437500   0.187500 0
  0.437500   0.437500 0
  0.437500   0.375000 0
  0.875000   0.875000 0
  0.187500   0.375000 0
  0.687500   0.562500 0
  0.687500   0.625000 0
  0.000000   0.125000 0
  0.937500   0.625000 0
  0.250000   0.125000 0
  0.375000   0.062500 0
  0.375000   0.000000 0
  0.812500   0.500000 0
  0.125000   0.000000 0
  0.937500   0.937500 0
  0.250000   0.437500 0
  0.687500   0.875000 0
  0.687500   0.937500 0
  0.000000   0.437500 0
  0.500000   0.500000 0
  0.500000   0.437500 0
  0.750000   0.937500 0
  0.750000   1.000000 0
  0.062500   0.500000 0
  1.000000   1.000000 0
  0.312500   0.500000 0
  0.875000   0.562500 0
  0.187500   0.062500 0
  0.437500   0.125000 0
  0.437500   0.062500 0
  0.500000   0.375000 0
  0.937500   0.812500 0
  0.937500   0.875000 0
  0.250000   0.375000 0
  0.687500   0.812500 0
  0.000000   0.375000 0
  0.750000   0.562500 0
  0.062500   0.125000 0
  1.000000   0.562500 0
  1.000000   0.625000 0
  0.312500   0.125000 0
  0.562500   0.125000 0
  0.437500   0.000000 0
  0.875000   0.437500 0
  0.875000   0.500000 0
  0.187500   0.000000 0
  0.937500   0.562500 0
  0.937500   0.500000 0
  0.250000   0.062500 0
  0.687500   0.500000 0
  0.000000   0.062500 0
  0.500000   0.062500 0
  1.000000   0.875000 0
  1.000000   0.937500 0
  0.312500   0.437500 0
  0.750000   0.875000 0
  0.062500   0.437500 0
  0.812500   0.937500 0
  0.125000   0.500000 0
  0.375000   0.500000 0
  0.625000   0.562500 0
  0.625000   0.500000 0
  0.437500   0.312500 0
  0.875000   0.812500 0
  0.875000   0.750000 0
  0.187500   0.312500 0
  0.812500   0.687500 0
  0.812500   0.750000 0
  0.125000   0.250000 0
  0.375000   0.250000 0
  1.000000   0.687500 0
  0.312500   0.187500 0
  0.750000   0.687500 0
  0.750000   0.625000 0
  0.062500   0.187500 0
  0.562500   0.250000 0
  0.562500   0.187500 0
  0.375000   1.000000 0
  0.500000   0.562500 0
  0.500000   0.250000 0
  0.750000   0.250000 0
  0.500000   0.125000 0
  0.500000   0.187500 0
  1.000000   0.187500 0
  0.625000   0.375000 0
  0.875000   0.375000 0
  1.000000   0.437500 0
  0.312500   0.000000 0
  0.562500   0.000000 0
  0.812500   0.000000 0
  0.250000   0.687500 0
  0.000000   0.687500 0
  0.500000   1.000000 0
  0.250000   1.000000 0
  0.000000   1.000000 0
  0.437500   0.687500 0
  0.437500   0.625000 0
  0.187500   0.625000 0
  0.687500   0.750000 0
  0.000000   0.312500 0
  0.000000   0.250000 0
  0.375000   0.375000 0
  0.375000   0.312500 0
  0.812500   0.812500 0
  0.125000   0.312500 0
  0.875000   0.625000 0
  0.187500   0.187500 0
  0.187500   0.125000 0
  0.937500   1.000000 0
  0.250000   0.562500 0
  0.250000   0.500000 0
  0.687500   1.000000 0
  0.000000   0.500000 0
  0.687500   0.687500 0
  0.000000   0.187500 0
  0.937500   0.687500 0
  0.250000   0.250000 0
  0.250000   0.187500 0
  0.187500   0.687500 0
  0.000000   0.750000 0
  0.250000   0.750000 0
  0.125000   0.625000 0
  0.750000   0.750000 0
  0.062500   0.250000 0
  0.875000   0.937500 0
  0.187500   0.500000 0
  0.187500   0.437500 0
  0.812500   0.562500 0
  0.125000   0.125000 0
  0.125000   0.062500 0
  0.375000   0.625000 0
  0.375000   0.687500 0
  1.000000   0.750000 0
  0.312500   0.250000 0
  0.312500   0.312500 0
  0.812500   0.312500 0
  0.562500   0.312500 0
  0.375000   0.750000 0
  0.500000   0.625000 0
  0.250000   0.625000 0
  0.312500   0.687500 0
  0.750000   0.812500 0
  0.062500   0.312500 0
  0.062500   0.375000 0
  1.000000   0.812500 0
  0.312500   0.375000 0
  0.562500   0.375000 0
  0.687500   0.437500 0
  0.000000   0.000000 0
  0.500000   0.000000 0
  0.937500   0.437500 0
  0.250000   0.000000 0
  0.375000   0.437500 0
  0.812500   0.875000 0
  0.125000   0.375000 0
  0.125000   0.437500 0
  0.625000   0.437500 0
  1.000000   0.500000 0
  0.312500   0.062500 0
  0.750000   0.500000 0
  0.062500   0.000000 0
  0.062500   0.062500 0
  0.562500   0.062500 0
  0.062500   0.750000 0
  0.312500   0.750000 0
  0.312500   0.625000 0
  0.312500   0.562500 0
  0.062500   0.562500 0
  0.187500   1.000000 0
  0.437500   0.562500 0
  0.875000   1.000000 0
  0.187500   0.562500 0
  0.500000   0.937500 0
  0.250000   0.937500 0
  0.312500   1.000000 0
  0.125000   0.750000 0
  0.125000   0.687500 0
  1.000000   0.000000 0
  0.000000   0.937500 0
  0.000000   0.875000 0
  0.875000   0.125000 0
  0.875000   0.187500 0
  0.062500   0.812500 0
  0.312500   0.812500 0
  0.000000   0.812500 0
  0.000000   0.625000 0
  0.000000   0.562500 0
  0.062500   1.000000 0
  0.062500   0.937500 0
  0.937500   0.187500 0
  0.937500   0.250000 0
  0.062500   0.687500 0
  0.062500   0.625000 0
  0.125000   1.000000 0
  1.000000   0.250000 0
  1.000000   0.312500 0
  0.062500   0.875000 0
  0.125000   0.812500 0
  0.375000   0.812500 0
  0.125000   0.875000 0
  0.375000   0.937500 0
  0.375000   0.875000 0
  0.187500   0.750000 0
  0.187500   0.812500 0
  0.437500   0.812500 0
  0.187500   0.875000 0
  0.437500   0.875000 0
  0.375000   0.562500 0
  0.812500   1.000000 0
  0.125000   0.562500 0
  0.437500   1.000000 0
  0.437500   0.937500 0
  0.187500   0.937500 0
  0.125000   0.937500 0
  0.500000   0.687500 0
  0.500000   0.750000 0
  0.500000   0.812500 0
  0.250000   0.812500 0
  0.250000   0.875000 0
  0.500000   0.875000 0
  0.437500   0.750000 0
  0.312500   0.875000 0
  0.312500   0.937500 0
  0.687500   0.250000 0
  0.687500   0.312500 0
  0.937500   0.312500 0
  0.875000   0.250000 0
  0.625000   0.000000 0
  0.875000   0.000000 0
  0.687500   0.375000 0
  0.937500   0.375000 0
  0.875000   0.312500 0
  0.625000   0.312500 0
  0.687500   0.000000 0
  0.937500   0.000000 0
  0.750000   0.312500 0
  0.750000   0.375000 0
  1.000000   0.375000 0
  0.812500   0.250000 0
  0.562500   0.437500 0
  0.562500   0.500000 0
  0.687500   0.062500 0
  0.750000   0.437500 0
  0.750000   0.000000 0
  0.750000   0.062500 0
  1.000000   0.062500 0
  0.812500   0.375000 0
  0.812500   0.437500 0
CELLS 256 1280
4 169 170 148 68
4 151 166 56 167
4 195 45 196 167
4 54 170 201 202
4 109 34 30 147
4 40 32 81 112
4 192 89 86 68
4 48 91 78 202
4 99 64 196 97
4 71 43 37 103
4 74 186 56 95
4 109 164 34 115
4 50 81 158 112
4 122 69 92 70
4 195 145 45 106
4 110 143 174 175
4 157 30 158 147
4 40 69 32 41
4 50 158 148 147
4 141 155 164 115
4 122 123 69 41
4 142 186 143 175
4 60 39 61 42
4 40 51 69 70
4 120 31 123 41
4 157 174 36 175
4 50 148 89 68
4 48 78 155 115
4 52 83 51 70
4 151 56 66 95
4 71 61 43 42
4 169 148 34 147
4 100 193 39 42
4 40 81 51 199
4 110 174 32 112
4 109 30 145 106
4 100 66 193 95
4 169 34 78 115
4 190 92 83 70
4 50 89 81 199
4 54 86 170 68
4 74 56 45 167
4 142 143 43 103
4 153 59 64 97
4 99 196 166 167
4 169 78 170 202
4 142 193 186 95
4 192 128 89 199
4 74 45 36 106
4 110 31 143 103
4 76 184 59 97
4 142 43 193 42
4 52 51 128 199
4 189 201 91 202
4 120 37 31 103
4 74 36 186 175
4 195 196 184 97
4 141 164 140 183
4 157 158 174 112
4 109 145 164 183
4 195 184 145 183
4 110 32 31 41
4 157 36 30 106
4 76 140 184 183
4 171 172 206 181
4 178 172 261 136
4 256 261 255 136
4 256 257 261 245
4 180 150 206 207
4 60 119 39 210
4 118 215 241 263
4 178 205 172 181
4 216 243 238 244
4 162 217 233 232
4 180 206 131 181
4 179 137 119 210
4 216 204 217 232
4 220 237 219 229
4 216 217 243 159
4 259 258 262 224
4 240 254 237 229
4 153 64 227 208
4 161 205 258 224
4 240 237 238 223
4 226 227 233 208
4 234 228 254 229
4 171 248 137 210
4 160 132 204 232
4 180 131 138 159
4 133 251 213 252
4 171 206 248 207
4 162 138 217 159
4 161 258 243 244
4 220 225 237 223
4 151 150 166 212
4 260 247 257 245
4 259 262 214 263
4 151 66 150 207
4 234 254 209 253
4 162 233 250 208
4 242 241 262 263
4 171 137 172 136
4 161 243 131 159
4 160 204 225 223
4 161 131 205 181
4 179 255 137 136
4 216 238 204 223
4 100 39 248 210
4 260 213 247 252
4 226 233 132 232
4 134 214 215 263
4 180 138 150 212
4 178 261 239 245
4 259 246 258 244
4 178 239 205 224
4 240 238 246 244
4 242 262 239 224
4 99 250 64 208
4 240 246 254 253
4 242 239 247 245
4 135 219 228 229
4 99 166 250 212
4 259 214 246 253
4 118 241 251 252
4 100 248 66 207
4 134 209 214 253
4 162 250 138 212
4 242 247 241 252
4 71 187 61 280
4 102 281 197 280
4 122 92 82 203
4 17 18 82 117
4 122 82 123 117
4 19 264 273 265
4 267 279 222 20
4 125 273 270 265
4 267 272 279 176
4 19 116 18 117
4 21 25 286 24
4 23 28 26 20
4 23 285 28 27
4 218 286 275 24
4 85 53 84 288
4 235 236 231 266
4 221 222 28 20
4 267 222 231 230
4 268 38 129 203
4 125 270 197 188
4 126 287 272 176
4 277 270 276 265
4 267 231 272 266
4 125 197 187 280
4 190 129 92 203
4 277 276 287 176
4 19 18 264 22
4 17 82 38 203
4 102 197 90 188
4 126 84 287 288
4 284 130 285 27
4 121 276 264 265
4 71 37 187 177
4 120 123 116 117
4 198 88 127 191
4 221 16 25 24
4 23 26 15 22
4 121 279 276 176
4 235 231 124 230
4 125 187 273 177
4 278 271 236 266
4 277 287 283 288
4 284 285 274 282
4 278 127 271 191
4 269 275 16 24
4 200 283 53 288
4 23 15 285 282
4 121 26 279 20
4 21 124 25 230
4 19 273 116 177
4 200 90 283 188
4 126 271 84 191
4 269 16 130 27
4 17 38 15 282
4 221 25 222 230
4 121 264 26 22
4 120 116 37 177
4 60 61 281 280
4 277 283 270 188
4 126 272 271 266
4 268 274 38 282
4 85 84 88 191
4 17 15 18 22
4 221 28 16 27
4 93 94 73 55
4 85 88 67 87
4 80 49 79 87
4 44 104 73 72
4 146 33 67 168
4 211 165 149 55
4 8 47 14 154
4 105 104 108 144
4 105 108 29 107
4 7 139 13 75
4 44 165 194 98
4 200 53 77 168
4 8 1 101 4
4 2 5 152 58
4 260 6 213 3
4 105 35 104 72
4 96 57 182 75
4 7 14 139 154
4 146 29 33 107
4 7 13 10 9
4 12 13 57 75
4 85 67 53 168
4 44 73 165 55
4 63 152 62 58
4 8 101 47 46
4 96 182 194 144
4 60 281 119 4
4 12 5 6 3
4 173 185 35 72
4 65 149 94 55
4 146 67 49 87
4 114 113 47 154
4 163 108 182 144
4 12 6 13 9
4 173 35 111 156
4 163 182 139 75
4 260 257 6 9
4 105 29 35 156
4 163 139 113 154
4 256 10 257 9
4 146 49 29 156
4 163 113 108 107
4 80 111 49 156
4 102 101 281 4
4 12 57 5 58
4 44 194 104 144
4 96 194 62 98
4 2 0 5 3
4 93 73 185 72
4 179 119 1 4
4 200 77 90 46
4 114 33 113 107
4 7 10 14 11
4 96 62 57 58
4 133 213 0 3
4 102 90 101 46
4 256 255 10 11
4 63 62 249 98
4 114 47 77 46
4 179 1 255 11
4 211 249 165 98
4 114 77 33 168
4 198 79 88 87
4 8 14 1 11
CELL_TYPES 256
8
8
8
8
8
8
8
8
8
8
8
8
8
8
8
8
8
8
8
8
8
8
8
8
8
8
8
8
8
8
8
8
8
8
8
8
8
8
8
8
8
8
8
8
8
8
8
8
8
8
8
8
8
8
8
8
8
8
8
8
8
8
8
8
8
8
8
8
8
8
8
8
8
8
8
8
8
8
8
8
8
8
8
8
8
8
8
8
8
8
8
8
8
8
8
8
8
8
8
8
8
8
8
8
8
8
8
8
8
8
8
8
8
8
8
8
8
8
8
8
8
8
8
8
8
8
8
8
8
8
8
8
8
8
8
8
8
8
8
8
8
8
8
8
8
8
8
8
8
8
8
8
8
8
8
8
8
8
8
8
8
8
8
8
8
8
8
8
8
8
8
8
8
8
8
8
8
8
8
8
8
8
8
8
8
8
8
8
8
8
8
8
8
8
8
8
8
8
8
8
8
8
8
8
8
8
8
8
8
8
8
8
8
8
8
8
8
8
8
8
8
8
8
8
8
8
8
8
8
8
8
8
8
8
8
8
8
8
8
8
8
8
8
8
8
8
8
8
8
8
8
8
8
8
8
8
CELL_DATA 256
VECTORS vector_value float
0.299566 -1.15987 0
-0.0893295 -1.07371 0
-0.0856737 -0.658265 0
0.038978 -0.412671 0
0.137581 -0.693517 0
-0.857788 -1.44408 0
0.0424024 -1.88621 0
0.0529266 -0.343668 0
0.0678534 -0.451684 0
-0.00363541 -2.65507 0
-0.044326 -1.08846 0
0.210122 -0.781381 0
-0.698412 -1.96799 0
0.024967 -1.32421 0
-0.136614 -0.798802 0
-0.278843 -1.09046 0
-0.0117466 -0.734644 0
-0.602183 -1.40216 0
-0.133069 -1.32143 0
0.143897 -0.995225 0
-0.138853 -1.61649 0
0.00906851 -0.888404 0
0.49554 -2.17454 0
-0.173195 -0.997294 0
-0.466598 -2.24555 0
-0.0448164 -1.17138 0
-0.0691836 -2.03417 0
0.195973 -0.608339 0
-0.00376704 -0.864223 0
0.0189761 -1.18839 0
0.173575 -2.31324 0
0.319061 -0.738757 0
0.459443 -1.82257 0
-0.45827 -1.48726 0
-0.595194 -1.15956 0
-0.0465615 -0.594501 0
0.16577 -1.30833 0
0.492202 -0.882226 0
0.0389608 -1.25278 0
-0.334345 -1.96126 0
0.0330271 -1.36825 0
-0.112029 -0.940745 0
0.0710034 -1.51683 0
0.0574617 -1.178 0
-0.019645 -0.475417 0
0.247842 -0.576394 0
0.110443 -1.24175 0
-0.0600762 -2.58667 0
-0.0386806 -0.817609 0
-0.435169 -1.53447 0
-0.00716087 -1.05846 0
0.2544 -1.52025 0
-0.0944613 -1.12266 0
0.00861122 -0.288627 0
-0.454887 -2.62608 0
-0.00812442 -1.11211 0
-0.00726491 -0.548703 0
0.0365034 -1.15027 0
-0.317113 -1.60819 0
-0.0376848 -0.726698 0
-0.0792326 -0.498138 0
-0.823147 -1.76023 0
0.0160367 -0.728484 0
-0.0338507 -1.1499 0
-0.197724 -1.58839 0
-0.502292 -1.81075 0
-0.799725 -1.88465 0
-0.527407 -1.94323 0
0.015958 -1.38945 0
0.304731 -1.46771 0
0.0994619 -0.842915 0
-0.0559364 -1.14058 0
0.18577 -0.751038 0
0.0655381 -0.860558 0
0.206564 -1.23522 0
-0.00820764 -0.873608 0
0.269145 -1.12712 0
-0.0441799 -1.00721 0
0.335684 -0.833701 0
0.119891 -0.766635 0
-0.0560808 -1.49824 0
-0.12083 -1.14763 0
0.178145 -0.608214 0
0.0438359 -1.32019 0
-0.0766364 -0.879326 0
-0.193356 -1.35233 0
0.0785094 -2.32573 0
0.0657396 -0.870776 0
0.318413 -0.687224 0
0.252565 -1.17797 0
-0.0542314 -2.07101 0
0.23357 -0.829058 0
0.240945 -0.849064 0
-0.00480588 -1.06979 0
-0.0380644 -0.923702 0
-0.222119 -1.35749 0
0.0442907 -0.9864 0
-0.0696058 -1.41048 0
-0.211934 -0.616261 0
-0.134841 -0.810586 0
0.21216 -0.717538 0
-0.690103 -2.50877 0
0.305788 -0.700393 0
0.0570964 -1.02293 0
0.21286 -0.927879 0
-0.326902 -1.0287 0
0.149699 -1.28522 0
0.527956 -2.16828 0
0.00878216 -1.2589 0
0.00556074 -0.787396 0
0.0210262 -1.22785 0
0.145569 -0.726221 0
-0.190596 -1.24281 0
0.0227008 -0.763956 0
0.059223 -1.01196 0
0.060346 -0.865431 0
0.113542 -0.650454 0
-0.0652204 -0.558271 0
-0.105859 -0.568049 0
0.00145244 -1.19931 0
0.0208172 -0.937337 0
0.055126 -0.416065 0
-0.144689 -0.902283 0
0.290109 -0.822074 0
0.203273 -1.60422 0
0.0393505 -0.970615 0
0.0666383 -0.538826 0
0.139743 -0.887618 0
0.166186 -1.87242 0
-0.0178623 -0.950659 0
0.0390188 -1.6214 0
-0.151248 -0.854108 0
-0.0370265 -1.39068 0
0.0497831 -0.68782 0
0.13189 -0.901123 0
0.0782723 -0.667794 0
-0.019884 -0.674899 0
-0.0733115 -0.905162 0
0.148625 -0.623592 0
0.24284 -0.314045 0
0.0512191 -0.166885 0
0.153127 -1.01772 0
0.24516 -0.635359 0
-0.133082 -0.85023 0
0.476773 -0.994824 0
-0.0969619 -0.972681 0
0.0241817 -1.05901 0
0.0804025 -0.638011 0
-0.0294674 -0.614405 0
0.0219396 -0.454903 0
-0.166388 -0.766074 0
0.16141 -1.03224 0
0.0584145 -1.64406 0
-0.00298463 -0.382177 0
-0.00342252 -0.536325 0
-0.0750988 -0.936692 0
0.000222487 -0.590547 0
0.144206 -0.577878 0
0.0134204 -0.132858 0
0.110615 -0.455828 0
-0.0221883 -1.54638 0
-0.117489 -1.27516 0
0.115274 -0.628319 0
0.422367 -1.76471 0
0.0613059 -0.215334 0
0.0770601 -0.461545 0
-0.100123 -0.568171 0
0.0827919 -1.19598 0
-0.0723469 -1.10181 0
0.0594327 -0.483051 0
-0.00522922 -0.0670036 0
0.181516 -0.964068 0
0.175905 -1.62683 0
0.199898 -0.601478 0
-0.00189487 -0.116057 0
0.230803 -0.485238 0
-0.00257985 -0.4192 0
-0.0821124 -0.930575 0
0.0646741 -0.356293 0
0.240647 -0.721629 0
0.0628312 -0.409852 0
-0.0454219 -0.269052 0
0.214381 -1.36217 0
0.110762 -0.377839 0
-0.274926 -1.55069 0
0.0898698 -1.747 0
0.0339035 -0.340833 0
-0.0874126 -0.599698 0
-0.0238571 -0.260558 0
0.294929 -0.817708 0
-0.115616 -0.468168 0
0.230617 -0.617477 0
0.02171 -0.623017 0
0.106427 -0.716078 0
0.000229504 -0.367369 0
0.0983394 -0.914532 0
-0.083303 -0.825652 0
-0.377214 -1.05095 0
-0.0828238 -1.11826 0
-0.0532435 -1.17677 0
-0.273148 -1.0305 0
-0.163956 -0.701075 0
-0.0171513 -1.24943 0
0.102277 -0.50372 0
-0.405991 -1.07833 0
-0.347835 -0.799179 0
-0.344411 -1.40979 0
0.0462216 -0.84806 0
-0.190646 -0.508258 0
-0.0782225 -0.727683 0
-0.363599 -0.94174 0
-0.224604 -1.18995 0
-0.403663 -0.909183 0
0.107753 -0.752998 0
0.00457741 -0.956191 0
-0.268485 -1.01181 0
-0.34456 -1.15873 0
-0.0136232 -0.611882 0
-0.284435 -1.39691 0
-0.680931 -1.34882 0
0.0490414 -0.852267 0
-0.190122 -0.686063 0
-0.014656 -0.728361 0
-0.363221 -0.531901 0
-0.113477 -0.591678 0
-0.392096 -0.984169 0
-0.159054 -0.804859 0
-0.0938637 -0.271357 0
-0.557359 -2.104 0
-0.249702 -0.824061 0
-0.198657 -0.351497 0
-0.385985 -1.65437 0
-0.251005 -0.82051 0
-0.28443 -0.597249 0
-0.078379 -0.473049 0
-0.432595 -1.10239 0
-0.54947 -0.985405 0
0.0541424 -1.27673 0
-0.123293 -0.853689 0
-0.215848 -1.44801 0
0.0514913 -0.697994 0
-0.228849 -0.973672 0
0.0827873 -0.64732 0
-0.471805 -0.609094 0
0.0390104 -1.27341 0
-0.403147 -0.747414 0
0.0788773 -0.873111 0
-0.169262 -0.734457 0
-0.181981 -1.0949 0
-0.170892 -0.976406 0
-0.240949 -0.751182 0
-0.0921093 -0.786626 0
-0.253625 -1.20711 0
-0.173373 -0.501947 0
0.0490535 -0.449757 0
-0.00733149 -1.19351 0
