# vtk DataFile Version 2.0
Unstructured Grid by M++
ASCII
DATASET UNSTRUCTURED_GRID
POINTS 4225 float
  0.921875   0.593750 0
  0.921875   0.609375 0
  0.656250   0.609375 0
  0.671875   0.609375 0
  0.656250   0.546875 0
  0.671875   0.546875 0
  0.656250   0.562500 0
  0.656250   0.578125 0
  0.656250   0.593750 0
  0.671875   0.593750 0
  0.671875   0.562500 0
  0.671875   0.578125 0
  0.671875   0.625000 0
  0.671875   0.640625 0
  0.906250   0.578125 0
  0.890625   0.578125 0
  0.546875   0.515625 0
  1.000000   0.890625 0
  0.515625   0.640625 0
  0.515625   0.625000 0
  1.000000   0.875000 0
  0.515625   0.656250 0
  0.515625   0.687500 0
  0.515625   0.671875 0
  1.000000   0.921875 0
  0.546875   0.531250 0
  0.546875   0.546875 0
  0.546875   0.562500 0
  0.796875   0.531250 0
  0.953125   0.890625 0
  0.953125   0.875000 0
  0.953125   0.843750 0
  0.953125   0.828125 0
  0.953125   0.812500 0
  0.531250   0.562500 0
  0.531250   0.546875 0
  0.515625   0.562500 0
  0.515625   0.546875 0
  1.000000   0.812500 0
  0.781250   0.546875 0
  0.765625   0.546875 0
  0.859375   0.921875 0
  0.921875   0.671875 0
  0.609375   0.906250 0
  0.671875   0.656250 0
  0.609375   0.921875 0
  0.671875   0.671875 0
  0.671875   0.984375 0
  0.671875   1.000000 0
  0.906250   0.984375 0
  0.906250   1.000000 0
  0.921875   0.984375 0
  0.921875   1.000000 0
  0.859375   0.609375 0
  1.000000   0.781250 0
  0.515625   0.531250 0
  0.531250   0.531250 0
  0.531250   0.515625 0
  0.515625   0.515625 0
  1.000000   0.750000 0
  0.765625   0.531250 0
  0.781250   0.531250 0
  0.781250   0.515625 0
  0.765625   0.515625 0
  0.859375   0.875000 0
  0.921875   0.625000 0
  0.859375   0.890625 0
  0.921875   0.640625 0
  0.671875   0.968750 0
  0.671875   0.953125 0
  0.921875   0.968750 0
  0.921875   0.953125 0
  0.859375   0.593750 0
  0.859375   0.578125 0
  0.875000   0.578125 0
  0.828125   0.890625 0
  0.890625   0.640625 0
  0.593750   0.890625 0
  0.656250   0.640625 0
  0.593750   0.875000 0
  0.656250   0.625000 0
  0.578125   0.890625 0
  0.640625   0.640625 0
  0.578125   0.875000 0
  0.640625   0.625000 0
  0.968750   0.890625 0
  0.984375   0.890625 0
  0.968750   0.812500 0
  0.968750   0.828125 0
  0.984375   0.812500 0
  0.984375   0.828125 0
  1.000000   0.828125 0
  0.656250   0.953125 0
  0.640625   0.953125 0
  0.890625   0.968750 0
  0.906250   0.968750 0
  0.906250   0.953125 0
  0.890625   0.953125 0
  0.531250   0.703125 0
  0.531250   0.718750 0
  0.546875   0.718750 0
  0.546875   0.703125 0
  0.593750   0.578125 0
  0.562500   0.578125 0
  0.578125   0.578125 0
  0.843750   0.578125 0
  0.828125   0.578125 0
  0.828125   0.812500 0
  0.890625   0.562500 0
  0.828125   0.796875 0
  0.953125   0.906250 0
  0.953125   0.921875 0
  0.531250   0.859375 0
  0.593750   0.609375 0
  0.531250   0.843750 0
  0.593750   0.593750 0
  0.515625   0.843750 0
  0.578125   0.593750 0
  0.515625   0.859375 0
  0.578125   0.609375 0
  0.937500   0.859375 0
  1.000000   0.609375 0
  0.921875   0.859375 0
  0.984375   0.609375 0
  0.937500   0.796875 0
  0.921875   0.796875 0
  0.984375   0.546875 0
  0.562500   0.812500 0
  0.843750   0.796875 0
  0.843750   0.812500 0
  0.859375   0.796875 0
  0.859375   0.812500 0
  1.000000   0.906250 0
  0.984375   0.906250 0
  0.968750   0.906250 0
  0.968750   0.921875 0
  0.984375   0.921875 0
  0.593750   0.921875 0
  0.656250   0.671875 0
  0.593750   0.906250 0
  0.656250   0.656250 0
  0.578125   0.906250 0
  0.640625   0.656250 0
  0.578125   0.921875 0
  0.640625   0.671875 0
  1.000000   0.843750 0
  0.984375   0.843750 0
  0.968750   0.843750 0
  0.968750   0.859375 0
  0.968750   0.875000 0
  1.000000   0.859375 0
  0.984375   0.859375 0
  0.984375   0.875000 0
  0.656250   1.000000 0
  0.656250   0.984375 0
  0.656250   0.968750 0
  0.640625   0.968750 0
  0.640625   1.000000 0
  0.640625   0.984375 0
  0.843750   0.921875 0
  0.906250   0.671875 0
  0.843750   0.906250 0
  0.906250   0.656250 0
  0.828125   0.906250 0
  0.890625   0.656250 0
  0.828125   0.921875 0
  0.890625   0.671875 0
  0.781250   0.859375 0
  0.843750   0.609375 0
  0.781250   0.843750 0
  0.843750   0.593750 0
  0.765625   0.843750 0
  0.828125   0.593750 0
  0.765625   0.859375 0
  0.828125   0.609375 0
  0.968750   0.609375 0
  0.906250   0.859375 0
  0.953125   0.609375 0
  0.890625   0.859375 0
  0.937500   0.609375 0
  0.875000   0.859375 0
  0.562500   0.593750 0
  0.546875   0.593750 0
  0.531250   0.593750 0
  0.531250   0.609375 0
  0.562500   0.609375 0
  0.546875   0.609375 0
  0.609375   0.625000 0
  0.546875   0.875000 0
  0.609375   0.640625 0
  0.546875   0.890625 0
  0.625000   0.640625 0
  0.562500   0.890625 0
  0.625000   0.625000 0
  0.562500   0.875000 0
  0.921875   0.843750 0
  0.984375   0.593750 0
  0.937500   0.843750 0
  1.000000   0.593750 0
  0.921875   0.812500 0
  0.921875   0.828125 0
  0.984375   0.578125 0
  0.937500   0.828125 0
  1.000000   0.578125 0
  0.937500   0.812500 0
  1.000000   0.562500 0
  0.578125   0.828125 0
  0.921875   0.781250 0
  0.937500   0.781250 0
  1.000000   0.531250 0
  0.921875   0.765625 0
  0.984375   0.515625 0
  0.937500   0.765625 0
  0.625000   0.656250 0
  0.562500   0.906250 0
  0.609375   0.656250 0
  0.546875   0.906250 0
  0.625000   0.671875 0
  0.562500   0.921875 0
  0.609375   0.671875 0
  0.546875   0.921875 0
  0.859375   0.781250 0
  0.859375   0.765625 0
  0.828125   0.671875 0
  0.765625   0.921875 0
  0.828125   0.734375 0
  0.765625   0.984375 0
  0.875000   0.843750 0
  0.937500   0.593750 0
  0.890625   0.843750 0
  0.953125   0.593750 0
  0.906250   0.843750 0
  0.968750   0.593750 0
  0.906250   0.828125 0
  0.968750   0.578125 0
  0.937500   0.578125 0
  0.953125   0.578125 0
  0.906250   0.765625 0
  0.875000   0.765625 0
  0.953125   0.515625 0
  0.531250   0.781250 0
  0.671875   0.890625 0
  0.531250   0.921875 0
  0.953125   0.656250 0
  0.828125   0.781250 0
  0.843750   0.781250 0
  0.703125   0.984375 0
  0.687500   0.984375 0
  0.843750   0.875000 0
  0.906250   0.625000 0
  0.671875   0.781250 0
  0.734375   0.531250 0
  0.906250   0.609375 0
  0.671875   0.765625 0
  0.734375   0.515625 0
  0.906250   0.593750 0
  0.890625   0.593750 0
  0.875000   0.593750 0
  0.828125   0.875000 0
  0.890625   0.625000 0
  0.656250   0.781250 0
  0.718750   0.531250 0
  0.890625   0.609375 0
  0.656250   0.765625 0
  0.718750   0.515625 0
  0.875000   0.609375 0
  0.640625   0.765625 0
  0.703125   0.515625 0
  0.812500   0.921875 0
  0.875000   0.671875 0
  0.812500   0.875000 0
  0.875000   0.625000 0
  0.640625   0.781250 0
  0.703125   0.531250 0
  0.812500   0.515625 0
  0.750000   0.828125 0
  0.812500   0.578125 0
  0.687500   1.000000 0
  0.937500   0.656250 0
  0.875000   0.906250 0
  0.531250   0.656250 0
  0.890625   0.906250 0
  0.906250   0.906250 0
  0.562500   0.656250 0
  0.906250   0.890625 0
  0.562500   0.640625 0
  0.968750   0.625000 0
  0.906250   0.875000 0
  0.562500   0.625000 0
  0.937500   0.640625 0
  0.875000   0.890625 0
  0.890625   0.890625 0
  0.546875   0.640625 0
  0.953125   0.625000 0
  0.890625   0.875000 0
  0.546875   0.625000 0
  0.546875   0.687500 0
  0.890625   0.937500 0
  0.937500   0.625000 0
  0.875000   0.875000 0
  0.531250   0.625000 0
  0.531250   0.640625 0
  0.546875   0.656250 0
  0.937500   0.968750 0
  0.687500   0.968750 0
  0.953125   0.968750 0
  0.703125   0.968750 0
  0.968750   0.968750 0
  0.718750   0.968750 0
  0.718750   0.906250 0
  0.968750   0.953125 0
  0.718750   0.953125 0
  0.968750   0.937500 0
  0.859375   0.906250 0
  0.921875   0.656250 0
  0.718750   0.937500 0
  0.828125   0.531250 0
  0.937500   0.953125 0
  0.687500   0.953125 0
  0.953125   0.953125 0
  0.703125   0.953125 0
  0.703125   0.890625 0
  0.843750   0.515625 0
  0.953125   0.937500 0
  0.953125   1.000000 0
  0.703125   0.937500 0
  0.937500   0.937500 0
  0.687500   0.937500 0
  0.703125   0.906250 0
  0.718750   0.890625 0
  0.687500   0.890625 0
  0.687500   0.765625 0
  0.750000   0.515625 0
  0.687500   0.781250 0
  0.750000   0.531250 0
  0.859375   0.937500 0
  0.921875   0.687500 0
  0.687500   0.796875 0
  0.750000   0.546875 0
  0.578125   0.750000 0
  0.515625   1.000000 0
  0.843750   0.765625 0
  0.578125   0.734375 0
  0.515625   0.984375 0
  0.562500   0.734375 0
  0.828125   0.750000 0
  0.765625   1.000000 0
  0.562500   0.750000 0
  0.562500   0.718750 0
  0.578125   0.515625 0
  0.921875   0.703125 0
  0.921875   0.718750 0
  0.593750   0.515625 0
  0.687500   0.875000 0
  0.750000   0.625000 0
  0.578125   0.531250 0
  0.921875   0.750000 0
  0.703125   0.875000 0
  0.765625   0.625000 0
  0.593750   0.531250 0
  0.875000   0.968750 0
  0.937500   0.718750 0
  0.703125   0.828125 0
  0.765625   0.578125 0
  0.937500   0.734375 0
  0.703125   0.812500 0
  0.765625   0.562500 0
  0.890625   0.687500 0
  0.828125   0.937500 0
  0.656250   0.796875 0
  0.718750   0.546875 0
  0.890625   0.718750 0
  0.828125   0.968750 0
  0.906250   0.796875 0
  0.718750   0.828125 0
  0.781250   0.578125 0
  0.890625   0.703125 0
  0.828125   0.953125 0
  0.656250   0.859375 0
  0.906250   0.781250 0
  0.968750   0.531250 0
  0.546875   0.796875 0
  0.671875   0.796875 0
  0.734375   0.546875 0
  0.843750   0.953125 0
  0.906250   0.703125 0
  0.671875   0.875000 0
  0.718750   0.812500 0
  0.781250   0.562500 0
  0.875000   0.812500 0
  0.531250   0.890625 0
  0.593750   0.640625 0
  0.937500   0.890625 0
  0.875000   0.781250 0
  0.609375   0.703125 0
  0.546875   0.953125 0
  0.890625   0.796875 0
  0.625000   0.718750 0
  0.562500   0.968750 0
  0.906250   0.812500 0
  0.734375   0.859375 0
  0.796875   0.609375 0
  0.718750   0.875000 0
  0.781250   0.625000 0
  0.750000   0.859375 0
  0.812500   0.609375 0
  0.812500   0.546875 0
  0.750000   0.812500 0
  0.734375   0.843750 0
  0.796875   0.593750 0
  0.750000   0.843750 0
  0.812500   0.593750 0
[...]
CELL_DATA 4096
VECTORS vector_value float
0.00292711 -0.96954 0
-0.0456333 -1.00352 0
-0.0200267 -0.63616 0
0.0293546 -0.606604 0
-0.111917 -1.6551 0
-0.0681247 -1.39972 0
-0.0508775 -1.32948 0
-0.112656 -1.65667 0
-0.0326176 -1.52197 0
-0.0517386 -1.42515 0
-0.086964 -1.74432 0
-0.0290976 -1.65524 0
-0.0461345 -0.682179 0
-0.0281069 -0.968828 0
-0.000683512 -0.975833 0
-0.0162133 -0.618474 0
-0.290832 -0.829403 0
-0.376733 -0.911839 0
-0.415569 -1.07155 0
-0.283035 -0.89568 0
-0.390723 -0.752029 0
-0.386515 -0.826682 0
-0.324426 -0.772397 0
-0.320473 -0.7129 0
-0.51459 -1.01315 0
-0.460603 -0.970327 0
-0.46065 -0.882972 0
-0.509207 -1.0243 0
0.0441852 -0.631282 0
0.0317901 -0.612423 0
0.0100814 -0.853794 0
0.0193739 -0.888579 0
-0.532242 -1.15329 0
-0.498234 -1.07255 0
-0.607752 -1.1324 0
-0.623441 -1.24629 0
0.00284874 -0.845832 0
0.025683 -0.585883 0
0.0370026 -0.542897 0
0.0138172 -0.836663 0
0.0427901 -0.289782 0
0.0412183 -0.280549 0
0.0335168 -0.236137 0
0.0398968 -0.234191 0
-0.586733 -1.70753 0
-0.447627 -1.60396 0
-0.276016 -1.46741 0
-0.372914 -1.60666 0
0.0559768 -0.229975 0
0.0786966 -0.231647 0
0.0855524 -0.236739 0
0.0560066 -0.239181 0
-1.15239 -2.01312 0
-0.955321 -2.01419 0
-0.889797 -1.92164 0
-0.864944 -1.57222 0
0.0510362 -0.265661 0
0.0454636 -0.393466 0
0.0405611 -0.38769 0
0.061756 -0.302709 0
-0.371693 -2.1452 0
-0.198208 -2.11579 0
-0.170105 -2.06655 0
-0.3654 -2.08063 0
0.0127488 -0.208762 0
0.0119157 -0.227243 0
0.0314289 -0.247683 0
0.0292001 -0.233231 0
-0.0879492 -1.20867 0
-0.102142 -1.19682 0
-0.133814 -1.22464 0
-0.122164 -1.22523 0
0.352059 -0.264307 0
0.27773 -0.239855 0
0.290863 -0.270808 0
0.319839 -0.26162 0
-0.144174 -1.6439 0
-0.163036 -1.85184 0
-0.335221 -1.88876 0
-0.254115 -1.70101 0
0.0634831 -0.255808 0
0.0560315 -0.279074 0
0.0618995 -0.27661 0
0.0760062 -0.272181 0
0.0432324 -0.29791 0
0.0315062 -0.27686 0
0.0366923 -0.31213 0
0.0472337 -0.286198 0
0.308348 -0.263095 0
0.304097 -0.254116 0
0.363364 -0.269276 0
0.371854 -0.278751 0
0.130214 -1.99985 0
-0.00254795 -1.81341 0
-0.0660794 -1.71212 0
0.00694176 -1.73748 0
0.0298975 -0.307959 0
0.0282694 -0.289364 0
0.0149581 -0.285062 0
0.0143031 -0.311318 0
0.0512788 -0.276762 0
0.0488744 -0.28145 0
0.046517 -0.288184 0
0.0535192 -0.27766 0
0.198339 -0.215825 0
0.238062 -0.215867 0
0.266819 -0.270608 0
0.207394 -0.256703 0
0.0410873 -2.25017 0
0.0106032 -2.08992 0
0.209144 -2.01304 0
0.237048 -2.29744 0
0.0774822 -0.358918 0
0.064778 -0.391038 0
0.0609339 -0.267792 0
0.0720761 -0.301455 0
0.0301453 -0.45932 0
0.0705154 -0.445281 0
0.0414891 -0.367913 0
0.0216142 -0.387588 0
0.224344 -0.249884 0
0.240725 -0.250304 0
0.203556 -0.243943 0
0.201236 -0.23911 0
0.0596267 -1.89856 0
0.0160842 -1.93625 0
0.0172877 -1.65771 0
0.108293 -1.66431 0
0.0309884 -0.228238 0
0.0413553 -0.264662 0
0.0443465 -0.252784 0
0.0367479 -0.224908 0
0.0463207 -0.267035 0
0.0421736 -0.267278 0
0.050934 -0.278386 0
0.0470627 -0.246753 0
-0.165187 -1.39536 0
-0.133875 -1.38859 0
-0.150809 -1.53385 0
-0.197447 -1.55417 0
0.158212 -0.244943 0
0.130893 -0.232737 0
0.108474 -0.160724 0
0.134153 -0.184883 0
-0.0288319 -2.40313 0
0.0591922 -2.42045 0
-0.0712787 -2.38632 0
-0.11336 -2.33946 0
0.083673 -0.143635 0
0.102362 -0.205707 0
0.0844438 -0.18533 0
0.0573563 -0.119996 0
0.203144 -0.213291 0
0.210574 -0.260094 0
0.177151 -0.251679 0
0.176596 -0.212158 0
-0.655457 -1.4568 0
-0.438225 -1.289 0
-0.394615 -1.16902 0
-0.533096 -1.17953 0
0.0978399 -0.288097 0
0.0939124 -0.277451 0
0.0856256 -0.312047 0
0.0702325 -0.33129 0
-0.646151 -1.54192 0
-0.567145 -1.43802 0
-0.755358 -1.74031 0
-0.808099 -1.94147 0
0.0991755 -0.311301 0
0.0978799 -0.271379 0
0.110611 -0.283786 0
0.113438 -0.300469 0
0.136974 -0.341697 0
0.136444 -0.293873 0
0.167364 -0.294179 0
0.163145 -0.343752 0
0.24513 -0.314658 0
0.265496 -0.269899 0
0.336052 -0.256067 0
0.316876 -0.296618 0
-0.377 -1.09902 0
-0.448612 -1.17157 0
-0.515812 -1.31116 0
-0.443901 -1.14087 0
0.0851925 -0.472782 0
0.0940828 -0.489119 0
0.0968017 -0.366759 0
0.109289 -0.376975 0
0.118032 -0.258889 0
0.127189 -0.290156 0
0.141968 -0.337057 0
0.148341 -0.315985 0
0.174754 -0.281905 0
0.202618 -0.280302 0
0.187575 -0.328879 0
0.176951 -0.341075 0
-0.261732 -1.04088 0
-0.346585 -1.13756 0
-0.251392 -0.960405 0
-0.183381 -0.895522 0
0.0721007 -0.373167 0
0.309058 -0.220141 0
0.139738 -0.537367 0
0.0264488 -0.259294 0
0.0489662 -0.479413 0
-0.0594398 -1.31698 0
0.1803 -0.661158 0
0.123262 -0.479162 0
0.240077 -0.740269 0
0.128158 -0.671831 0
0.300789 -0.809881 0
-0.0878627 -2.16802 0
-0.083701 -0.712129 0
-0.173828 -2.31422 0
-0.224103 -0.711021 0
-0.154044 -2.25118 0
0.077246 -1.08566 0
0.00223996 -2.31288 0
0.0346794 -1.02136 0
-0.0398623 -2.74498 0
-0.0507486 -1.22138 0
-0.102841 -2.71276 0
0.0753327 -1.27064 0
0.152097 -0.451497 0
0.124969 -0.681583 0
0.130272 -0.469621 0
0.298049 -0.612945 0
0.324245 -0.601883 0
0.159493 -0.676085 0
0.131932 -0.270867 0
0.333709 -0.941254 0
0.344448 -0.890298 0
0.269968 -1.32832 0
0.00288918 -0.154876 0
0.249862 -1.42382 0
-0.0442642 -0.247094 0
0.274165 -1.36065 0
0.00613728 -0.197049 0
0.292602 -0.914711 0
0.239402 -0.228787 0
0.214687 -0.658793 0
0.308846 -0.242748 0
0.0312868 -0.215434 0
0.393502 -0.275542 0
0.0196319 -0.209073 0
0.405056 -0.275785 0
0.107799 -1.73093 0
-0.761966 -2.00098 0
0.197578 -1.44266 0
-0.606508 -2.04317 0
-0.105683 -1.97609 0
-0.672836 -1.24757 0
-0.852733 -2.1122 0
-0.12517 -1.67335 0
-0.74536 -1.56912 0
-0.0303959 -1.64156 0
-0.882779 -1.77215 0
-0.606303 -2.14704 0
-0.0883319 -1.99722 0
-0.678502 -1.28364 0
0.0186373 -0.193077 0
0.40209 -0.455942 0
0.019456 -0.20701 0
0.404562 -0.351554 0
0.0113542 -0.194423 0
0.395436 -0.348015 0
0.119579 -0.330223 0
0.126144 -0.271683 0
0.112144 -0.262578 0
0.168564 -0.271505 0
0.174435 -0.258432 0
0.00906203 -0.197974 0
0.356981 -0.419919 0
0.375571 -1.66529 0
-0.00860784 -0.18449 0
0.270653 -1.3612 0
0.0229081 -0.120932 0
0.310376 -1.8216 0
0.0127001 -0.156263 0
0.0370153 -1.65411 0
0.278403 -2.6005 0
0.199186 -1.80547 0
0.20231 -2.50781 0
0.278824 -1.38724 0
0.0115122 -0.125258 0
0.188438 -1.58378 0
0.126876 -2.36467 0
0.130285 -1.61937 0
0.145192 -2.45612 0
0.0131093 -0.268771 0
0.0162631 -0.520968 0
-0.0111135 -1.52553 0
0.2683 -0.916887 0
0.161796 -0.191479 0
0.165766 -0.934454 0
0.15047 -0.170827 0
0.239179 -0.994577 0
0.12223 -0.165836 0
0.287122 -1.02917 0
0.0556259 -2.35362 0
0.0324135 -0.0813779 0
0.259673 -1.11278 0
0.0482841 -0.0931629 0
0.226056 -0.870402 0
0.192818 -0.203047 0
0.276503 -1.07955 0
0.0650733 -0.106368 0
0.249088 -2.75816 0
-0.323808 -0.698041 0
0.333751 -1.0777 0
0.0410768 -0.0926755 0
0.336727 -1.49094 0
-0.0270984 -0.203697 0
0.0498952 -0.184657 0
0.302951 -0.405896 0
0.101763 -0.207922 0
0.16528 -0.379081 0
-0.0463665 -1.85089 0
0.104956 -0.822592 0
-0.157284 -1.9275 0
0.0854287 -0.871518 0
-0.10261 -1.80803 0
0.137048 -0.733502 0
-0.062124 -2.03623 0
-0.15029 -0.621348 0
0.44827 -1.97369 0
-0.0612202 -0.321388 0
-0.192876 -2.42911 0
-0.186671 -0.804248 0
0.337054 -2.30279 0
-0.166179 -0.489043 0
0.046777 -0.206207 0
0.309721 -0.332265 0
0.119515 -0.215252 0
0.172431 -0.420385 0
0.0283513 -0.463833 0
0.512044 -2.33518 0
-0.111956 -0.419243 0
0.0699853 -0.427923 0
0.0286445 -0.412576 0
0.0331357 -0.211449 0
0.378012 -0.331635 0
0.291141 -1.87792 0
-0.102597 -0.368797 0
0.0118916 -0.420082 0
0.121373 -0.319707 0
0.182712 -0.354243 0
0.136597 -0.452779 0
0.180102 -0.46832 0
0.22501 -0.534658 0
0.0582308 -0.338896 0
0.16103 -0.342416 0
0.0560173 -0.409345 0
0.117511 -1.15295 0
-0.786468 -2.05543 0
0.106426 -0.883678 0
-0.481534 -1.81413 0
0.128278 -1.15636 0
-0.595145 -2.01932 0
0.0194419 -1.13731 0
-1.08784 -2.20778 0
-0.0880173 -1.19425 0
-0.899871 -2.04604 0
0.106498 -0.885497 0
-0.694729 -1.93227 0
-0.0165772 -0.796602 0
-1.03305 -2.24126 0
-0.0171908 -1.53331 0
0.0171023 -1.47313 0
0.0240358 -1.28634 0
-0.0291247 -1.59787 0
0.331308 -0.234371 0
0.0566322 -0.260977 0
0.369998 -0.236867 0
0.0591251 -0.259458 0
0.369616 -0.271007 0
0.04687 -0.244523 0
0.327093 -0.282992 0
0.0485229 -0.26476 0
0.0798857 -0.253344 0
0.145152 -0.264421 0
0.124264 -0.320062 0
0.0558808 -0.256637 0
0.122061 -0.26506 0
0.376205 -0.245488 0
0.0462172 -0.259799 0
0.399683 -0.262721 0
0.0246616 -0.243968 0
0.157167 -1.48606 0
0.0423338 -2.45447 0
0.0347813 -0.18447 0
0.413414 -0.448598 0
0.0918138 -0.175077 0
0.165317 -0.480523 0
0.217641 -1.77669 0
0.0289997 -2.22708 0
-0.146233 -1.36908 0
-0.145479 -2.80656 0
0.10351 -0.19357 0
0.159766 -0.45372 0
0.220521 -1.77703 0
0.0836751 -2.31311 0
-0.273474 -1.40415 0
-0.18091 -2.51957 0
-0.138048 -1.63385 0
0.107813 -2.60697 0
0.207204 -1.40407 0
0.0106961 -2.47229 0
-0.00468441 -1.42621 0
0.0369771 -2.77852 0
0.388316 -0.268697 0
0.0387366 -0.31127 0
0.363785 -0.248783 0
0.0520552 -0.320814 0
0.360084 -0.271983 0
0.057918 -0.412295 0
0.36705 -0.271421 0
0.0452087 -0.42358 0
0.372613 -0.279909 0
0.091129 -0.447969 0
0.358829 -0.237775 0
0.062293 -0.323803 0
0.355764 -0.256574 0
0.076929 -0.341753 0
0.173147 -0.585543 0
0.28924 -0.220986 0
0.0930226 -2.43811 0
0.0262951 -1.97644 0
0.268467 -1.15974 0
0.186379 -0.258622 0
-0.0323789 -1.38346 0
0.244463 -1.18018 0
0.24464 -0.317397 0
0.0494963 -1.36173 0
-0.04385 -1.33212 0
0.299506 -0.969127 0
0.2856 -0.264689 0
-0.013856 -1.55082 0
0.180027 -2.90334 0
-0.0867855 -2.44956 0
0.0235246 -0.256801 0
0.00556421 -0.523707 0
-0.0878338 -1.54293 0
0.0131358 -1.4917 0
0.0496445 -1.64834 0
-0.0432943 -1.32584 0
0.00704042 -0.261233 0
0.0333113 -0.421496 0
-0.00425568 -1.30411 0
-0.139962 -1.51434 0
-0.00287609 -1.7573 0
-0.150074 -2.62389 0
-0.241354 -2.5508 0
-0.226148 -2.46406 0
-0.454788 -1.20544 0
-0.229581 -2.52893 0
-0.404873 -1.29853 0
-0.254141 -2.49624 0
-0.277309 -1.23194 0
-0.195121 -2.75086 0
-0.302684 -1.03994 0
-0.170973 -2.58879 0
-0.196715 -2.35865 0
0.216313 -0.261531 0
-0.148869 -0.921514 0
-0.233952 -1.58586 0
-0.575576 -1.41722 0
-0.0171832 -1.44746 0
-0.153702 -1.87449 0
-0.510887 -1.13827 0
0.404384 -0.645144 0
0.0395825 -0.194375 0
0.314389 -0.550347 0
0.0143926 -0.200212 0
-0.0613611 -2.44445 0
-0.0488923 -2.46492 0
0.337929 -0.244783 0
0.111151 -0.501746 0
-0.0122907 -1.07579 0
0.0166248 -0.694026 0
0.0835702 -0.560309 0
0.0537186 -0.665923 0
0.0245135 -0.107108 0
0.259948 -1.16669 0
0.250007 -0.604186 0
0.0281322 -0.210172 0
0.0628257 -0.226754 0
-0.0308518 -0.731278 0
-0.0235835 -0.998563 0
0.172018 -0.604644 0
0.0825153 -0.198568 0
0.269298 -0.803724 0
0.271854 -0.224933 0
0.049903 -1.9009 0
-0.129584 -0.879624 0
0.31067 -0.320794 0
0.00194382 -0.190387 0
-0.0206653 -2.2926 0
0.060227 -1.97434 0
-0.1863 -0.932778 0
0.0460974 -1.83992 0
-0.414269 -0.994938 0
-0.106042 -1.07309 0
0.286056 -0.857775 0
0.333944 -0.720795 0
0.0336404 -0.196503 0
0.166734 -0.786716 0
0.0867919 -0.203998 0
0.154697 -2.50028 0
0.175285 -2.09855 0
-0.0817104 -0.74774 0
0.287546 -0.382323 0
0.00335382 -0.201698 0
-0.00262473 -1.52856 0
0.083864 -2.42492 0
-0.374535 -0.823395 0
0.0619 -1.96094 0
-0.305302 -0.968097 0
0.227623 -0.596636 0
0.0663271 -0.184028 0
0.0494051 -0.412948 0
0.35907 -0.43522 0
0.0210473 -0.838031 0
0.238916 -0.37222 0
0.110517 -0.430319 0
0.023708 -0.270184 0
0.280346 -0.806861 0
0.0669668 -0.135895 0
0.255449 -1.07028 0
0.0316843 -0.976986 0
0.167815 -0.68522 0
-0.01189 -1.74338 0
0.279317 -0.282298 0
-0.0133628 -0.713271 0
0.172532 -1.65258 0
0.0903654 -0.895021 0
0.184757 -2.48271 0
-0.233756 -0.640551 0
0.0358005 -0.103811 0
0.249343 -1.14135 0
0.250056 -0.91055 0
0.325394 -0.43046 0
0.0106456 -1.08683 0
0.361429 -2.63557 0
-0.244049 -0.602444 0
0.0712107 -0.114786 0
0.238753 -1.11003 0
0.228947 -0.952749 0
-0.0199058 -1.04271 0
0.0401325 -1.07068 0
0.348106 -0.33159 0
0.177038 -0.517393 0
0.147363 -2.26986 0
-0.159396 -0.77458 0
0.0245727 -0.0985689 0
0.257586 -1.20149 0
0.194249 -0.762336 0
0.0820612 -0.23012 0
0.0719238 -0.324817 0
0.363614 -0.614413 0
0.156395 -0.615732 0
0.126801 -0.341269 0
0.00614403 -0.252333 0
0.32817 -0.677475 0
0.0273534 -0.192357 0
0.0517855 -0.188147 0
0.233501 -1.17188 0
0.201938 -0.690214 0
0.0917627 -0.321343 0
0.156687 -0.34547 0
0.0831572 -0.362802 0
0.0754014 -0.738114 0
0.189267 -0.322783 0
-0.000190987 -0.211494 0
0.315551 -0.57564 0
-0.227551 -2.45008 0
0.424108 -2.51567 0
-0.177794 -0.524327 0
0.100075 -0.751285 0
0.208398 -1.03285 0
0.347244 -0.648554 0
0.0530331 -0.185886 0
0.162658 -0.616616 0
0.0883075 -0.208793 0
0.0127614 -1.56067 0
-0.0167673 -0.831501 0
0.215041 -0.280094 0
-0.00436392 -0.188645 0
-0.210629 -1.62009 0
-0.669663 -1.45886 0
-0.170113 -1.96023 0
-0.603612 -1.22205 0
0.241979 -0.364421 0
-0.00209373 -0.211426 0
0.159471 -0.789258 0
0.0880434 -0.189818 0
0.185303 -0.424954 0
0.353486 -0.798966 0
0.0486142 -0.216531 0
0.0312555 -0.124274 0
0.283073 -1.20802 0
0.253143 -0.508825 0
-0.138171 -2.44865 0
0.26267 -0.287889 0
-0.00410278 -0.185902 0
0.0238659 -0.961293 0
0.187713 -0.269562 0
-0.00242069 -0.19675 0
0.0597833 -1.17532 0
0.113026 -0.291668 0
0.363423 -0.335082 0
0.0462559 -1.13211 0
0.148384 -0.370486 0
0.00884223 -0.250676 0
0.126701 -0.517234 0
0.357613 -0.434081 0
0.10907 -0.14396 0
0.157611 -0.997926 0
0.134095 -0.947737 0
0.156421 -0.28225 0
0.00356941 -0.219953 0
0.0872592 -0.742621 0
0.161472 -0.835551 0
0.146546 -2.50141 0
0.415087 -2.30043 0
-0.0522071 -0.4584 0
0.125396 -1.05688 0
0.116118 -0.252542 0
0.151143 -1.04098 0
0.00269904 -2.86704 0
0.298047 -2.3623 0
-0.136245 -0.609732 0
0.0271809 -0.0960137 0
0.255618 -1.17372 0
0.25651 -0.741209 0
0.17508 -0.965603 0
0.160152 -0.990511 0
0.110376 -0.227535 0
0.122092 -0.413397 0
0.27881 -0.248478 0
0.333925 -2.13655 0
-0.0671097 -0.592686 0
0.0654703 -0.325976 0
0.0689745 -0.294569 0
0.394443 -2.20798 0
-0.107153 -0.466436 0
0.0842274 -0.402171 0
0.101541 -0.368739 0
0.32905 -0.250596 0
0.0524967 -0.341653 0
0.00723322 -1.80213 0
0.354822 -1.02759 0
0.0125428 -1.73907 0
0.308928 -0.993937 0
0.0363618 -1.73552 0
0.187777 -0.898456 0
-0.0381725 -1.84615 0
0.271105 -0.985531 0
-0.179268 -1.87113 0
0.122756 -0.805532 0
0.023766 -0.776755 0
-1.13918 -2.32898 0
-0.134038 -1.95327 0
0.159972 -0.842624 0
-0.0778867 -1.86748 0
0.131882 -0.941334 0
-0.0207092 -0.75382 0
0.152797 -1.10991 0
0.0896186 -0.122205 0
0.202818 -1.07012 0
-0.201411 -1.89534 0
0.0767198 -0.916444 0
-0.0754801 -1.1246 0
-0.0644959 -2.62101 0
0.137283 -1.25737 0
-0.179695 -2.23623 0
0.0758883 -0.990931 0
-0.0248935 -2.20812 0
0.123504 -1.01284 0
0.057484 -2.34255 0
0.124126 -1.16139 0
0.124189 -0.602536 0
0.0509029 -0.11814 0
0.271371 -1.10802 0
0.080445 -2.56096 0
0.185216 -1.22764 0
0.0867057 -0.159035 0
0.261029 -1.08538 0
0.138625 -2.35094 0
0.129926 -1.17534 0
0.144892 -2.17928 0
0.162729 -1.03918 0
0.0133676 -0.562348 0
0.116394 -1.36933 0
0.228355 -0.92478 0
0.0857296 -0.135271 0
0.223307 -1.06948 0
0.068554 -1.96139 0
0.227792 -1.08428 0
0.0663309 -1.47907 0
0.0703738 -0.281539 0
0.160171 -0.976026 0
0.103887 -0.208234 0
0.06455 -1.25917 0
0.0757408 -0.266723 0
0.155733 -1.16669 0
0.0659511 -0.237363 0
0.12761 -1.22564 0
0.0699912 -0.240576 0
0.0529223 -1.37283 0
0.062688 -0.26374 0
-0.0761157 -0.368953 0
0.471941 -2.39279 0
-0.0646771 -1.19056 0
0.206162 -1.30241 0
0.126195 -0.276161 0
-0.0584576 -1.27174 0
0.19042 -1.40368 0
0.179486 -0.345442 0
-0.047377 -1.32627 0
0.170154 -0.648017 0
0.125837 -0.202522 0
0.27304 -1.12017 0
0.0739948 -0.373566 0
0.00569005 -0.272205 0
0.080648 -0.233266 0
0.222335 -1.22784 0
0.134065 -0.466903 0
0.0424829 -0.151226 0
0.278537 -1.19161 0
0.364058 -0.580175 0
0.0228847 -0.194755 0
0.204944 -0.60607 0
0.077331 -0.186143 0
0.0294336 -1.6279 0
0.0959066 -0.296347 0
0.00347802 -1.519 0
0.119102 -1.2481 0
0.0919673 -0.25772 0
-0.0361864 -0.336041 0
0.389708 -2.33578 0
0.0979597 -1.12346 0
0.146236 -0.240033 0
-0.00859934 -0.248066 0
0.368636 -2.03984 0
0.116384 -1.14982 0
0.114007 -0.247802 0
-0.0402098 -0.283321 0
0.46543 -2.00733 0
0.0587724 -1.34647 0
0.100957 -0.236436 0
0.121774 -1.07753 0
0.127134 -0.226158 0
0.127841 -1.64641 0
0.106849 -0.465264 0
0.0408205 -1.74712 0
0.01839 -0.648699 0
0.02935 -1.72425 0
-0.0528731 -0.543236 0
0.109285 -1.52195 0
0.0538212 -0.383889 0
-0.125156 -1.11191 0
-0.782619 -1.95059 0
-0.248579 -1.37962 0
-0.686774 -1.74714 0
-0.18196 -1.2954 0
-0.801965 -1.89009 0
-0.0527665 -0.917349 0
-0.97871 -2.17807 0
0.255932 -0.788065 0
0.0721848 -0.794592 0
-1.03539 -2.18925 0
0.0905924 -1.1585 0
-1.1606 -2.22087 0
0.292175 -0.855001 0
0.11099 -1.17232 0
-0.958439 -2.16715 0
0.086793 -0.809461 0
-0.858851 -2.02833 0
0.0754403 -0.349107 0
0.0563211 -0.438354 0
0.0512696 -0.4336 0
0.0593619 -0.337121 0
-0.727397 -1.64527 0
-0.882559 -1.73714 0
-1.10675 -2.19321 0
-0.899514 -1.91786 0
0.0301742 -0.609575 0
0.0367334 -0.53259 0
0.0900048 -0.461209 0
0.076836 -0.491226 0
0.129877 -1.38462 0
0.196863 -0.415195 0
0.202751 -1.33274 0
0.263375 -0.368969 0
0.120447 -1.29246 0
0.278038 -0.40251 0
0.0953291 -1.52545 0
0.238401 -0.492324 0
-0.223039 -0.561796 0
0.0808831 -2.32051 0
-0.140153 -0.433835 0
0.0748185 -1.83542 0
-0.174829 -0.53201 0
-0.0464538 -1.91269 0
-0.265357 -0.651123 0
-0.095742 -2.25017 0
0.03141 -0.425794 0
0.0177305 -0.279266 0
-5.09994e-05 -0.259315 0
0.000368051 -0.426957 0
0.120208 -0.844274 0
0.182455 -1.32528 0
0.171463 -1.28932 0
0.164626 -0.91924 0
0.160482 -0.368223 0
0.171087 -0.236299 0
0.143471 -0.418373 0
0.179271 -0.238332 0
0.155379 -0.420448 0
0.157587 -0.244364 0
0.145994 -0.362455 0
0.161993 -0.225862 0
0.0198565 -1.03931 0
0.0228204 -1.00685 0
0.0480989 -0.722089 0
0.032849 -0.722289 0
-0.46463 -1.38713 0
-0.662688 -1.90492 0
-0.467087 -1.607 0
-0.306936 -1.33207 0
0.208697 -1.40007 0
0.010899 -0.233376 0
0.158959 -1.44352 0
0.0203495 -0.288776 0
0.0679653 -1.62037 0
-0.0680031 -0.427536 0
0.13857 -1.48788 0
-0.0564268 -0.331216 0
-0.00140035 -0.194797 0
-0.00610345 -0.262849 0
-0.00485247 -0.240223 0
-0.00394698 -0.205483 0
0.0554243 -1.7313 0
0.0379051 -1.27627 0
0.0897401 -1.33942 0
0.110815 -1.61587 0
-0.958219 -1.64005 0
-0.270349 -0.785379 0
-1.01422 -2.13011 0
-0.96797 -2.01005 0
-0.961565 -1.61695 0
-1.24843 -1.58971 0
-1.12064 -1.85481 0
-1.1805 -1.98302 0
-1.21174 -1.5991 0
0.163072 -0.226714 0
0.140959 -0.865023 0
0.144347 -0.215307 0
0.1541 -0.801544 0
0.153134 -0.227384 0
0.166819 -0.635503 0
0.178488 -0.237642 0
0.146188 -0.605466 0
-0.504527 -1.81889 0
0.111868 -1.90923 0
-0.623765 -1.67951 0
0.0219689 -1.97805 0
-0.43503 -1.46382 0
-0.12154 -2.34216 0
-0.313762 -1.61992 0
0.0824816 -2.19368 0
0.288066 -2.3243 0
0.0841975 -2.22887 0
0.118977 -2.21152 0
0.226204 -2.21665 0
0.191939 -2.2228 0
0.212246 -2.26606 0
0.262652 -2.17481 0
0.0662508 -2.19992 0
0.022306 -0.649027 0
0.0596176 -0.539299 0
0.0520334 -0.538366 0
0.0260465 -0.704743 0
0.0480898 -0.624184 0
0.356552 -0.325759 0
0.0274373 -0.904545 0
0.328447 -0.408926 0
0.0485071 -0.858862 0
0.309913 -0.349796 0
0.0662762 -0.63616 0
0.35835 -0.309911 0
0.166214 -0.787046 0
0.0944366 -0.188359 0
0.182884 -0.615841 0
0.104814 -0.220529 0
0.182575 -0.620721 0
0.125942 -0.220821 0
0.180917 -0.830223 0
0.118046 -0.203495 0
-0.0525721 -1.54643 0
0.203621 -0.613625 0
0.027518 -1.5826 0
0.220584 -0.540919 0
0.0284211 -1.25471 0
0.273187 -0.439114 0
-0.0194252 -1.29627 0
0.260948 -0.477063 0
-0.0331751 -0.441294 0
-0.0444186 -0.419586 0
-0.0246218 -0.287677 0
-0.0212617 -0.312145 0
0.0815958 -1.03042 0
0.155476 -0.97462 0
0.158596 -1.2436 0
0.0741564 -1.18369 0
-0.135827 -1.19107 0
-0.172878 -1.20411 0
-0.288923 -1.42478 0
-0.172877 -1.28011 0
0.299065 -0.358416 0
0.0598859 -0.204693 0
0.226363 -0.359364 0
0.0790634 -0.205806 0
0.220727 -0.480245 0
0.0793988 -0.173473 0
0.252606 -0.432406 0
0.0638812 -0.180247 0
0.173537 -0.40683 0
0.12817 -0.22076 0
0.149633 -0.37976 0
0.142882 -0.220248 0
0.17382 -0.44126 0
0.13754 -0.240403 0
0.188059 -0.461476 0
0.118462 -0.219633 0
0.0160405 -0.926594 0
0.0487127 -0.640279 0
0.0649251 -0.706345 0
0.0196054 -0.955998 0
0.004626 -0.20001 0
-0.00566743 -0.207379 0
-0.00314635 -0.243645 0
0.0044002 -0.253439 0
-0.0868136 -1.92271 0