# vtk DataFile Version 2.0
Unstructured Grid by M++
ASCII
DATASET UNSTRUCTURED_GRID
POINTS 1089 float
  0.718750   0.687500 0
  0.750000   0.687500 0
  0.718750   0.656250 0
  0.750000   0.718750 0
  0.625000   0.562500 0
  0.625000   0.593750 0
  0.656250   0.593750 0
  0.750000   0.750000 0
  0.687500   0.656250 0
  0.687500   0.625000 0
  0.656250   0.625000 0
  0.906250   0.593750 0
  1.000000   0.968750 0
  0.750000   0.968750 0
  0.718750   0.968750 0
  0.718750   1.000000 0
  0.750000   1.000000 0
  0.906250   0.906250 0
  0.843750   0.531250 0
  0.656250   0.937500 0
  0.656250   0.906250 0
  0.562500   0.812500 0
  0.562500   0.843750 0
  0.593750   0.875000 0
  0.593750   0.843750 0
  0.812500   0.718750 0
  0.625000   0.625000 0
  0.968750   0.875000 0
  0.531250   0.875000 0
  0.625000   0.937500 0
  0.562500   0.562500 0
  0.906250   0.812500 0
  0.531250   0.781250 0
  0.562500   0.593750 0
  0.906250   0.843750 0
  0.625000   0.656250 0
  0.968750   0.906250 0
  0.687500   0.968750 0
  0.812500   0.812500 0
  0.687500   1.000000 0
  0.687500   0.687500 0
  0.937500   0.843750 0
  0.593750   0.593750 0
  1.000000   0.625000 0
  0.968750   0.593750 0
  0.906250   0.875000 0
  0.968750   0.625000 0
  0.625000   0.875000 0
  0.875000   0.875000 0
  0.625000   0.906250 0
  0.875000   0.843750 0
  0.531250   0.812500 0
  0.968750   0.562500 0
  0.593750   0.625000 0
  0.937500   0.875000 0
  0.656250   0.687500 0
  1.000000   0.937500 0
  0.875000   0.562500 0
  0.687500   0.937500 0
  0.937500   0.625000 0
  0.812500   0.781250 0
  0.937500   0.562500 0
  0.875000   0.781250 0
  0.531250   0.531250 0
  0.718750   0.937500 0
  0.968750   0.937500 0
  0.906250   0.562500 0
  0.843750   0.781250 0
  0.593750   0.562500 0
  1.000000   0.906250 0
  0.656250   0.656250 0
  0.937500   0.906250 0
  0.875000   0.531250 0
  0.812500   0.750000 0
  0.656250   0.968750 0
  0.937500   0.531250 0
  0.843750   0.812500 0
  0.906250   0.531250 0
  0.843750   0.750000 0
  0.937500   0.593750 0
  0.875000   0.812500 0
  0.531250   0.562500 0
  1.000000   0.593750 0
  0.562500   0.906250 0
  0.562500   0.531250 0
  0.593750   0.906250 0
  0.593750   0.937500 0
  0.562500   0.875000 0
  0.781250   0.750000 0
  0.781250   0.781250 0
  0.593750   0.531250 0
  1.000000   0.687500 0
  0.531250   0.843750 0
  0.718750   0.718750 0
  0.781250   0.718750 0
  0.781250   0.687500 0
  1.000000   0.656250 0
  0.968750   0.656250 0
  0.843750   0.843750 0
  0.781250   1.000000 0
  0.656250   0.312500 0
  0.531250   0.250000 0
  0.875000   0.500000 0
  0.531250   0.218750 0
  0.875000   0.468750 0
  0.531250   0.156250 0
  0.593750   0.812500 0
  0.093750   0.562500 0
  0.656250   0.562500 0
  0.156250   0.312500 0
  0.031250   0.812500 0
  0.125000   1.000000 0
  0.312500   0.250000 0
  0.250000   0.500000 0
  0.375000   0.000000 0
  0.187500   0.750000 0
  0.812500   0.906250 0
  0.312500   0.656250 0
  0.250000   0.906250 0
  0.875000   0.656250 0
  0.375000   0.406250 0
  0.750000   0.843750 0
  0.250000   0.593750 0
  0.187500   0.843750 0
  0.812500   0.593750 0
  0.312500   0.343750 0
  0.625000   0.968750 0
  0.125000   0.718750 0
  0.687500   0.718750 0
  0.187500   0.468750 0
  0.062500   0.968750 0
  0.125000   0.656250 0
  0.187500   0.406250 0
  0.250000   0.156250 0
  0.062500   0.906250 0
  0.468750   0.906250 0
  0.656250   0.156250 0
  0.468750   0.812500 0
  0.593750   0.312500 0
  0.656250   0.062500 0
  0.625000   0.812500 0
  0.125000   0.562500 0
  0.687500   0.562500 0
  0.187500   0.312500 0
  0.062500   0.812500 0
  0.562500   0.937500 0
  0.062500   0.687500 0
  0.625000   0.687500 0
  0.125000   0.437500 0
  0.000000   0.937500 0
  0.062500   0.625000 0
  0.187500   0.125000 0
  0.125000   0.375000 0
  0.000000   0.875000 0
  0.406250   0.875000 0
  0.468750   0.625000 0
  0.593750   0.125000 0
  0.812500   0.937500 0
  0.312500   0.687500 0
  0.250000   0.937500 0
  0.875000   0.687500 0
  0.375000   0.437500 0
  0.750000   0.875000 0
  0.250000   0.625000 0
  0.187500   0.875000 0
  0.812500   0.625000 0
  0.312500   0.375000 0
  0.468750   0.781250 0
  0.593750   0.281250 0
  0.656250   0.031250 0
  0.625000   0.781250 0
  0.125000   0.531250 0
  0.062500   0.781250 0
  0.687500   0.531250 0
  0.187500   0.281250 0
  0.500000   0.812500 0
  0.687500   0.062500 0
  0.625000   0.312500 0
  0.656250   0.812500 0
  0.156250   0.562500 0
  0.718750   0.562500 0
  0.218750   0.312500 0
  0.093750   0.812500 0
  0.437500   0.968750 0
  0.625000   0.218750 0
  0.500000   0.781250 0
  0.687500   0.031250 0
  0.625000   0.281250 0
  0.656250   0.781250 0
  0.156250   0.531250 0
  0.718750   0.531250 0
  0.218750   0.281250 0
  0.093750   0.781250 0
  0.062500   0.562500 0
  0.125000   0.312500 0
  0.187500   0.062500 0
  0.000000   0.812500 0
  0.406250   0.812500 0
  0.968750   0.812500 0
  0.468750   0.562500 0
  0.593750   0.062500 0
  0.218750   0.687500 0
  0.156250   0.937500 0
  0.281250   0.437500 0
  0.062500   0.843750 0
  0.687500   0.593750 0
  0.187500   0.343750 0
  0.625000   0.843750 0
  0.125000   0.593750 0
  0.312500   0.843750 0
  0.437500   0.343750 0
  0.500000   0.093750 0
  0.375000   0.593750 0
  0.312500   0.906250 0
  0.937500   0.656250 0
  0.437500   0.406250 0
  0.875000   0.906250 0
  0.375000   0.656250 0
  0.062500   0.875000 0
  0.187500   0.375000 0
  0.250000   0.125000 0
  0.125000   0.625000 0
  0.093750   0.656250 0
  0.031250   0.906250 0
  0.218750   0.156250 0
  0.156250   0.406250 0
  0.593750   0.968750 0
  0.093750   0.718750 0
  0.031250   0.968750 0
  0.656250   0.718750 0
  0.156250   0.468750 0
  0.437500   0.906250 0
  0.625000   0.156250 0
  0.718750   0.812500 0
  0.218750   0.562500 0
  0.781250   0.562500 0
  0.281250   0.312500 0
  0.156250   0.812500 0
  0.062500   0.656250 0
  0.000000   0.906250 0
  0.187500   0.156250 0
  0.125000   0.406250 0
  0.562500   0.968750 0
  0.062500   0.718750 0
  0.000000   0.968750 0
  0.625000   0.718750 0
  0.125000   0.468750 0
  0.406250   0.968750 0
  0.968750   0.968750 0
  0.468750   0.718750 0
  0.531250   0.468750 0
  0.593750   0.218750 0
  0.406250   0.906250 0
  0.468750   0.656250 0
  0.593750   0.156250 0
  0.687500   0.781250 0
  0.187500   0.531250 0
  0.750000   0.531250 0
  0.250000   0.281250 0
  0.125000   0.781250 0
  0.781250   0.906250 0
  0.281250   0.656250 0
  0.218750   0.906250 0
  0.843750   0.656250 0
  0.343750   0.406250 0
  0.750000   0.906250 0
  0.250000   0.656250 0
  0.187500   0.906250 0
  0.812500   0.656250 0
  0.312500   0.406250 0
  0.875000   0.406250 0
  0.375000   0.156250 0
  0.812500   0.968750 0
  0.312500   0.718750 0
  0.250000   0.968750 0
  0.875000   0.718750 0
  0.375000   0.468750 0
  0.781250   0.937500 0
  0.281250   0.687500 0
  0.218750   0.937500 0
  0.843750   0.687500 0
  0.343750   0.437500 0
  0.718750   0.875000 0
  0.218750   0.625000 0
  0.156250   0.875000 0
  0.781250   0.625000 0
  0.281250   0.375000 0
  0.750000   0.937500 0
  0.250000   0.687500 0
  0.187500   0.937500 0
  0.875000   0.437500 0
  0.375000   0.187500 0
  0.812500   0.687500 0
  0.312500   0.437500 0
  0.687500   0.875000 0
  0.187500   0.625000 0
  0.750000   0.625000 0
  0.250000   0.375000 0
  0.125000   0.875000 0
  0.812500   1.000000 0
  0.312500   0.750000 0
  0.250000   1.000000 0
  0.875000   0.750000 0
  0.375000   0.500000 0
  0.562500   1.000000 0
  0.062500   0.750000 0
  0.000000   1.000000 0
  0.625000   0.750000 0
  0.125000   0.500000 0
  0.406250   1.000000 0
  0.968750   1.000000 0
  0.468750   0.750000 0
  0.656250   0.000000 0
  0.531250   0.500000 0
  0.593750   0.250000 0
  0.406250   0.937500 0
  0.468750   0.687500 0
  0.593750   0.187500 0
  0.687500   0.812500 0
  0.187500   0.562500 0
  0.750000   0.562500 0
  0.250000   0.312500 0
  0.125000   0.812500 0
  0.437500   0.843750 0
  0.625000   0.093750 0
  0.093750   0.593750 0
  0.156250   0.343750 0
  0.218750   0.093750 0
  0.031250   0.843750 0
  0.281250   0.937500 0
  0.843750   0.937500 0
  0.343750   0.687500 0
  0.906250   0.687500 0
  0.406250   0.437500 0
  0.156250   0.968750 0
  0.218750   0.718750 0
  0.281250   0.468750 0
  0.343750   0.218750 0
  0.156250   1.000000 0
  0.406250   0.000000 0
  0.281250   0.500000 0
  0.343750   0.250000 0
  0.218750   0.750000 0
  0.187500   0.968750 0
  0.250000   0.718750 0
  0.375000   0.218750 0
  0.312500   0.468750 0
  0.187500   1.000000 0
  0.312500   0.500000 0
  0.375000   0.250000 0
  0.437500   0.000000 0
  0.250000   0.750000 0
  0.031250   0.781250 0
  0.656250   0.531250 0
  0.156250   0.281250 0
  0.593750   0.781250 0
  0.093750   0.531250 0
  0.000000   0.781250 0
  0.625000   0.531250 0
  0.125000   0.281250 0
  0.562500   0.781250 0
  0.062500   0.531250 0
  0.781250   0.968750 0
  0.281250   0.718750 0
  0.218750   0.968750 0
  0.843750   0.718750 0
  0.343750   0.468750 0
  0.281250   0.968750 0
  0.843750   0.968750 0
  0.343750   0.718750 0
  0.906250   0.718750 0
  0.406250   0.468750 0
  0.281250   1.000000 0
  0.906250   0.750000 0
  0.406250   0.500000 0
  0.843750   1.000000 0
  0.343750   0.750000 0
  0.531250   0.000000 0
  0.718750   0.843750 0
  0.218750   0.593750 0
  0.156250   0.843750 0
  0.781250   0.593750 0
  0.281250   0.343750 0
  0.687500   0.843750 0
  0.187500   0.593750 0
  0.750000   0.593750 0
  0.250000   0.343750 0
  0.125000   0.843750 0
  0.218750   0.875000 0
  0.843750   0.625000 0
  0.343750   0.375000 0
  0.781250   0.875000 0
  0.281250   0.625000 0
  0.156250   0.906250 0
  0.781250   0.656250 0
  0.281250   0.406250 0
  0.718750   0.906250 0
  0.218750   0.656250 0
  0.031250   1.000000 0
  0.656250   0.750000 0
  0.156250   0.500000 0
  0.593750   1.000000 0
  0.093750   0.750000 0
  0.218750   1.000000 0
  0.343750   0.500000 0
  0.468750   0.000000 0
  0.406250   0.250000 0
  0.281250   0.750000 0
  0.593750   0.406250 0
  0.093750   0.156250 0
  0.531250   0.656250 0
  0.031250   0.406250 0
[...]
CELL_DATA 1024
SCALARS scalar_value float 1
LOOKUP_TABLE default
6.30281
3.55938
5.3544
10.4701
16.723
22.9168
1.2586
0.704318
0.819773
1.39729
1.28005
0.761269
0.795057
0.69806
0.617459
0.499124
0.7999
0.495608
0.834158
1.18449
0.91987
1.43893
1.30002
1.6813
3.38499
5.038
5.54947
4.38401
11.9264
2.70927
3.7973
6.22489
5.64526
4.44112
0.692182
1.24789
0.629707
1.06462
0.743784
7.15417
1.95434
2.06973
14.6971
2.10022
1.31427
1.05205
15.4423
0.692763
0.819504
22.1991
1.84531
2.51682
20.2159
11.7069
24.3275
8.82859
26.3802
2.90226
2.34049
24.5369
2.26188
2.11454
3.80743
9.2185
1.3429
11.6677
13.7717
1.64778
1.5684
1.00008
9.03572
9.24328
6.25628
28.9089
1.58807
2.7519
0.696414
2.41942
26.6083
7.05689
6.96904
8.44134
20.7054
36.1041
5.28741
19.0341
9.74952
17.3849
6.00684
17.3222
11.9082
5.50694
30.9017
32.7112
8.90026
24.4121
7.20337
25.4749
17.106
32.2383
6.60652
2.02945
2.06615
28.8339
1.46485
2.91743
1.61559
6.46795
7.83954
11.1545
35.3508
0.89824
0.381849
1.26553
1.14821
2.60087
14.976
15.8844
1.41283
4.3868
9.01079
1.18398
0.237739
0.522577
3.17155
5.44905
5.26811
3.4981
41.4025
1.03986
2.29175
0.697682
3.58147
3.71113
7.01231
1.84583
1.7011
2.16812
3.16794
8.75895
1.42578
7.21786
1.43869
0.53062
2.9102
32.7527
4.76043
7.00081
3.79478
7.09224
4.30728
5.32271
6.48228
3.86093
1.38291
1.72714
0.20833
0.454062
1.96118
4.24568
16.455
10.9197
2.32509
4.97647
0.755239
12.4961
0.941982
0.503014
3.00174
2.11431
6.42243
39.7126
9.27338
36.6141
10.0374
15.8774
5.68378
6.68414
9.18764
8.41882
4.39907
6.70613
2.30956
10.7759
5.44427
3.30585
18.2654
7.98697
3.30803
5.22919
1.07543
1.03259
1.58652
2.54295
0.944652
1.29329
1.55538
2.38534
3.10327
2.94814
1.27905
3.15806
1.13317
6.23464
7.86928
0.333304
0.784402
1.97504
1.78777
0.243152
0.702156
2.01997
1.88964
0.571621
1.14664
0.555967
1.08091
2.39893
2.46367
14.1595
2.63042
4.94961
2.67206
4.6621
13.9682
2.16597
2.58562
2.06722
9.25957
3.41871
3.14539
1.99105
6.80345
2.50043
2.41616
3.7713
4.06808
1.83433
6.80408
3.02972
5.13744
1.6106
2.50744
2.61691
4.12371
4.17364
0.466067
1.59918
0.240597
0.806813
0.864618
1.6828
2.86954
3.39962
3.62664
4.50934
1.89546
2.10903
1.74364
1.49112
1.66996
1.72236
0.576702
0.780955
0.609117
3.02658
1.96513
1.61875
1.48276
2.41771
2.14413
3.29269
2.41206
3.57582
3.92086
1.65006
5.21404
8.16985
8.20638
6.77329
1.66108
1.41779
3.67148
4.51073
5.35872
2.4417
0.837765
2.49232
0.94939
3.43603
1.02775
3.60359
1.44344
3.68766
2.14304
2.48886
5.00015
1.69409
5.14809
2.25992
8.03546
2.207
4.493
4.8078
4.41453
3.73857
5.84934
3.35284
1.96566
0.914375
4.95243
0.829518
2.03231
3.81059
2.20286
1.015
1.66834
0.604371
4.60246
0.752479
0.840632
1.81769
3.6485
1.32755
1.79162
0.993818
0.947942
1.00414
2.51379
2.51859
0.943947
2.58988
3.30157
3.01024
1.14233
1.61576
13.3446
9.89657
0.565416
2.21978
1.86295
8.65861
13.179
0.631432
1.96647
2.44236
2.1935
0.802552
1.59377
0.718426
1.41677
7.00493
2.30023
5.61108
3.80885
1.66634
3.30797
3.312
1.27758
3.37277
3.71469
1.17295
0.757304
1.14227
1.92775
2.5556
1.36055
1.84177
1.32259
3.70834
1.75313
1.49881
0.699437
1.69556
1.01857
2.04284
2.28857
1.93871
4.54612
4.66016
4.03112
3.85363
3.35117
6.55227
5.44023
3.37675
3.21414
2.91734
1.87057
2.59464
1.0828
1.95533
2.05493
0.685728
1.8585
2.73031
4.92814
5.85087
3.58684
0.96932
1.94124
2.87871
3.81176
1.79384
3.91948
0.799872
2.20239
3.19959
2.47826
2.44045
1.38674
2.14009
3.57165
0.785769
0.730938
3.39956
1.34282
0.901334
2.52024
1.08125
0.702678
10.439
1.27886
10.3213
11.0414
1.72648
2.67354
2.16485
0.719156
2.1681
2.59136
2.90077
1.17867
3.32443
0.807957
2.27068
1.30013
2.01869
1.60828
2.74436
1.34983
0.916058
4.44448
1.94693
1.30488
3.23056
7.85913
1.62048
3.37691
6.23118
2.00953
1.26942
5.09092
3.39173
0.908731
3.04583
10.1837
5.64374
1.54065
2.50828
2.28871
1.35934
1.64602
1.6196
1.51572
2.05721
2.46035
1.78403
5.60831
1.53013
2.79068
1.85877
2.409
2.44795
1.66146
2.09316
1.25565
2.04698
6.01763
9.29122
9.34728
6.38523
2.67498
10.6407
2.17267
8.01604
5.9252
3.31347
7.70214
0.844332
1.30388
1.35338
0.895156
3.01265
2.91089
10.4154
6.55342
2.1329
8.20181
6.36826
3.33049
9.19148
3.15426
5.08433
4.19098
3.89684
5.27233
2.90668
2.51084
2.38063
2.34748
4.05265
1.42131
1.96822
1.6419
0.770632
0.521737
1.81802
1.05462
0.623174
4.33009
6.66383
4.84629
1.02693
3.31093
5.36228
2.89292
2.31078
2.92537
3.67398
0.553348
1.31391
0.863795
1.51046
1.2941
1.11332
1.48767
0.494617
0.930535
0.860506
0.640613
5.42461
5.49428
0.893849
0.752351
7.21316
0.35273
5.40354
6.73479
0.203762
5.27736
5.10638
5.7588
2.93168
4.54078
3.63718
1.9474
0.843513
0.275179
0.830758
1.19555
1.22281
0.744225
6.29478
1.43088
0.972595
4.49436
3.07448
0.217879
0.574541
0.160563
0.575563
6.27388
5.10628
0.236192
0.147144
0.535075
4.16589
0.5996
5.83103
0.592492
0.185642
0.232163
0.325986
0.464664
7.1122
0.294869
0.282766
0.727025
0.549408
2.54939
5.38491
0.640221
6.44358
0.163092
3.95516
0.240945
2.4885
8.07954
0.876777
1.0406
0.977614
0.550195
2.23436
0.791574
3.47598
0.641583
2.60633
3.19127
0.702895
1.04557
9.91131
0.18891
5.48291
1.01742
0.716072
1.34571
1.32534
0.441806
1.70731
3.16506
0.616928
1.09623
1.74217
0.34949
0.89696
0.767966
0.767876
1.27168
0.168922
3.03119
4.43058
1.06151
4.55381
0.174885
0.480844
2.56514
3.33872
5.00261
2.17433
2.80607
5.30658
0.268582
1.47686
0.481206
0.681091
5.1384
4.70566
1.60547
2.35441
1.27637
0.113457
6.00356
0.917115
0.132184
5.82942
0.749182
1.02743
0.214128
8.34572
0.682363
0.865418
9.63051
0.744468
6.83311
2.02285
2.39678
0.30068
2.16166
0.279692
2.6063
0.212362
3.43572
0.278389
2.94373
3.98793
1.98666
2.07279
4.52594
0.852613
2.16654
1.75904
2.36254
1.93923
2.92206
0.385245
1.18093
3.64304
4.41995
0.274536
0.605488
3.34891
3.31022
4.03778
0.407644
1.7601
2.22659
2.68951
1.90783
0.525201
2.08914
2.32112
2.81545
2.40963
1.61867
3.61054
3.03481
3.46722
1.7185
1.15942
1.86456
1.62224
1.32686
2.45931
0.835386
0.912456
0.509479
0.543959
1.23198
0.868226
1.92525
0.652226
2.12443
1.2217
0.607221
3.95239
2.24853
1.17906
2.41476
1.36583
0.597602
0.337864
0.449583
0.227086
3.59735
0.20416
0.248461
1.27409
0.296058
0.420616
1.46288
0.639642
1.08055
0.450831
0.434377
0.277156
0.569459
0.480301
0.61873
0.4671
1.57418
0.619873
1.70657
1.13341
1.42839
1.1041
0.850169
1.2408
0.477003
1.17848
0.568366
0.46883
0.910169
0.482765
0.394771
0.263846
0.346723
0.445579
2.70032
0.753347
1.09323
0.499871
0.372873
3.62916
7.92071
0.520857
6.91794
2.76661
1.87404
2.10619
1.16585
1.34356
1.26926
1.00343
1.05146
1.25979
0.660351
0.673434
2.10781
3.30922
0.977083
10.3974
1.47429
2.63686
1.24517
1.37874
2.84704
0.998158
9.58087
1.29883
5.25582
1.72709
3.07277
1.44885
1.20362
2.84794
1.28473
8.71197
1.41035
0.960716
1.94549
1.46856
4.46029
1.58213
3.60629
1.71313
0.919482
2.68102
0.942864
0.817261
0.852688
0.401475
7.83143
0.466507
1.34441
0.419696
10.3701
0.371301
1.0417
13.6874
0.738663
14.2751
0.547398
2.72063
1.37996
1.82593
1.46226
2.87518
1.72997
3.66846
1.04026
0.802247
2.37755
0.788972
1.99689
3.52446
1.22638
1.44728
0.490619
0.456307
2.72388
0.92744
0.75638
0.560981
2.31412
0.944391
2.42755
1.50675
0.846147
1.12009
0.618505
3.02616
2.99534
0.929872
14.7075
2.25425
2.0968
0.632679
0.685499
2.43372
2.10509
0.925241
11.1975
2.06019
1.01951
0.404079
1.40451
0.487223
1.19977
4.37484
1.00211
7.18044
3.94949
1.58508
8.72553
0.957034
1.0907
1.33726
1.10646
8.15811
2.63859
4.70266
0.78813
0.664793
0.444507
0.556601
3.41909
1.18752
2.17945
1.41321
1.34123
8.15642
3.64274
0.552126
0.422989
0.832668
2.16708
2.55508
0.606767
3.96982
0.43864
1.25277
1.35279
5.91088
0.699636
0.595188
0.514559
0.677233
1.30226
0.420585
0.600336
6.6843
0.79211
2.8531
3.10186
1.27559
1.76945
0.890076
0.41708
6.35759
1.66269
0.704571
1.86393
2.44717
1.14783
1.36188
0.685171
1.99512
0.482035
1.41876
0.574628
0.702339
2.05378
5.92514
2.74697
0.972355
0.369926
5.85722
1.63923
1.07338
0.454055
0.593556
0.411069
2.01862
0.436906
0.29417
0.35601
0.695013
0.287086
0.415783
0.90379
0.510413
0.622214
0.406343
5.11116
0.789506
1.07351
0.379651
0.353145
1.23859
10.4016
1.11591
0.386505
12.0276
0.980283
1.40898
1.09169
1.43952
0.975494
1.68564
0.731836
1.12345
1.07088
0.550386
1.97081
1.13176
0.959621
0.359949
6.58272
0.658754
0.316024
0.420874
0.220701
0.551801
0.423328
0.236373
1.14971
1.3822
0.456415
0.535187
0.524627
0.463846
0.818889
0.600353
0.631967
0.578449
0.363818
3.06201
0.768946
9.44348
1.64835
1.15337
2.10037
2.69617
1.5643
0.967192
2.39292
1.07191
1.54379
0.662935
2.60908
0.411487
0.771646
4.55059
