# vtk DataFile Version 2.0
Unstructured Grid by M++
ASCII
DATASET UNSTRUCTURED_GRID
POINTS 1089 float
  0.718750   0.687500 0
  0.750000   0.687500 0
  0.718750   0.656250 0
  0.750000   0.718750 0
  0.625000   0.562500 0
  0.625000   0.593750 0
  0.656250   0.593750 0
  0.750000   0.750000 0
  0.687500   0.656250 0
  0.687500   0.625000 0
  0.656250   0.625000 0
  0.906250   0.593750 0
  1.000000   0.968750 0
  0.750000   0.968750 0
  0.718750   0.968750 0
  0.718750   1.000000 0
  0.750000   1.000000 0
  0.906250   0.906250 0
  0.843750   0.531250 0
  0.656250   0.937500 0
  0.656250   0.906250 0
  0.562500   0.812500 0
  0.562500   0.843750 0
  0.593750   0.875000 0
  0.593750   0.843750 0
  0.812500   0.718750 0
  0.625000   0.625000 0
  0.968750   0.875000 0
  0.531250   0.875000 0
  0.625000   0.937500 0
  0.562500   0.562500 0
  0.906250   0.812500 0
  0.531250   0.781250 0
  0.562500   0.593750 0
  0.906250   0.843750 0
  0.625000   0.656250 0
  0.968750   0.906250 0
  0.687500   0.968750 0
  0.812500   0.812500 0
  0.687500   1.000000 0
  0.687500   0.687500 0
  0.937500   0.843750 0
  0.593750   0.593750 0
  1.000000   0.625000 0
  0.968750   0.593750 0
  0.906250   0.875000 0
  0.968750   0.625000 0
  0.625000   0.875000 0
  0.875000   0.875000 0
  0.625000   0.906250 0
  0.875000   0.843750 0
  0.531250   0.812500 0
  0.968750   0.562500 0
  0.593750   0.625000 0
  0.937500   0.875000 0
  0.656250   0.687500 0
  1.000000   0.937500 0
  0.875000   0.562500 0
  0.687500   0.937500 0
  0.937500   0.625000 0
  0.812500   0.781250 0
  0.937500   0.562500 0
  0.875000   0.781250 0
  0.531250   0.531250 0
  0.718750   0.937500 0
  0.968750   0.937500 0
  0.906250   0.562500 0
  0.843750   0.781250 0
  0.593750   0.562500 0
  1.000000   0.906250 0
  0.656250   0.656250 0
  0.937500   0.906250 0
  0.875000   0.531250 0
  0.812500   0.750000 0
  0.656250   0.968750 0
  0.937500   0.531250 0
  0.843750   0.812500 0
  0.906250   0.531250 0
  0.843750   0.750000 0
  0.937500   0.593750 0
  0.875000   0.812500 0
  0.531250   0.562500 0
  1.000000   0.593750 0
  0.562500   0.906250 0
  0.562500   0.531250 0
  0.593750   0.906250 0
  0.593750   0.937500 0
  0.562500   0.875000 0
  0.781250   0.750000 0
  0.781250   0.781250 0
  0.593750   0.531250 0
  1.000000   0.687500 0
  0.531250   0.843750 0
  0.718750   0.718750 0
  0.781250   0.718750 0
  0.781250   0.687500 0
  1.000000   0.656250 0
  0.968750   0.656250 0
  0.843750   0.843750 0
  0.781250   1.000000 0
  0.656250   0.312500 0
  0.531250   0.250000 0
  0.875000   0.500000 0
  0.531250   0.218750 0
  0.875000   0.468750 0
  0.531250   0.156250 0
  0.593750   0.812500 0
  0.093750   0.562500 0
  0.656250   0.562500 0
  0.156250   0.312500 0
  0.031250   0.812500 0
  0.125000   1.000000 0
  0.312500   0.250000 0
  0.250000   0.500000 0
  0.375000   0.000000 0
  0.187500   0.750000 0
  0.812500   0.906250 0
  0.312500   0.656250 0
  0.250000   0.906250 0
  0.875000   0.656250 0
  0.375000   0.406250 0
  0.750000   0.843750 0
  0.250000   0.593750 0
  0.187500   0.843750 0
  0.812500   0.593750 0
  0.312500   0.343750 0
  0.625000   0.968750 0
  0.125000   0.718750 0
  0.687500   0.718750 0
  0.187500   0.468750 0
  0.062500   0.968750 0
  0.125000   0.656250 0
  0.187500   0.406250 0
  0.250000   0.156250 0
  0.062500   0.906250 0
  0.468750   0.906250 0
  0.656250   0.156250 0
  0.468750   0.812500 0
  0.593750   0.312500 0
  0.656250   0.062500 0
  0.625000   0.812500 0
  0.125000   0.562500 0
  0.687500   0.562500 0
  0.187500   0.312500 0
  0.062500   0.812500 0
  0.562500   0.937500 0
  0.062500   0.687500 0
  0.625000   0.687500 0
  0.125000   0.437500 0
  0.000000   0.937500 0
  0.062500   0.625000 0
  0.187500   0.125000 0
  0.125000   0.375000 0
  0.000000   0.875000 0
  0.406250   0.875000 0
  0.468750   0.625000 0
  0.593750   0.125000 0
  0.812500   0.937500 0
  0.312500   0.687500 0
  0.250000   0.937500 0
  0.875000   0.687500 0
  0.375000   0.437500 0
  0.750000   0.875000 0
  0.250000   0.625000 0
  0.187500   0.875000 0
  0.812500   0.625000 0
  0.312500   0.375000 0
  0.468750   0.781250 0
  0.593750   0.281250 0
  0.656250   0.031250 0
  0.625000   0.781250 0
  0.125000   0.531250 0
  0.062500   0.781250 0
  0.687500   0.531250 0
  0.187500   0.281250 0
  0.500000   0.812500 0
  0.687500   0.062500 0
  0.625000   0.312500 0
  0.656250   0.812500 0
  0.156250   0.562500 0
  0.718750   0.562500 0
  0.218750   0.312500 0
  0.093750   0.812500 0
  0.437500   0.968750 0
  0.625000   0.218750 0
  0.500000   0.781250 0
  0.687500   0.031250 0
  0.625000   0.281250 0
  0.656250   0.781250 0
  0.156250   0.531250 0
  0.718750   0.531250 0
  0.218750   0.281250 0
  0.093750   0.781250 0
  0.062500   0.562500 0
  0.125000   0.312500 0
  0.187500   0.062500 0
  0.000000   0.812500 0
  0.406250   0.812500 0
  0.968750   0.812500 0
  0.468750   0.562500 0
  0.593750   0.062500 0
  0.218750   0.687500 0
  0.156250   0.937500 0
  0.281250   0.437500 0
  0.062500   0.843750 0
  0.687500   0.593750 0
  0.187500   0.343750 0
  0.625000   0.843750 0
  0.125000   0.593750 0
  0.312500   0.843750 0
  0.437500   0.343750 0
  0.500000   0.093750 0
  0.375000   0.593750 0
  0.312500   0.906250 0
  0.937500   0.656250 0
  0.437500   0.406250 0
  0.875000   0.906250 0
  0.375000   0.656250 0
  0.062500   0.875000 0
  0.187500   0.375000 0
  0.250000   0.125000 0
  0.125000   0.625000 0
  0.093750   0.656250 0
  0.031250   0.906250 0
  0.218750   0.156250 0
  0.156250   0.406250 0
  0.593750   0.968750 0
  0.093750   0.718750 0
  0.031250   0.968750 0
  0.656250   0.718750 0
  0.156250   0.468750 0
  0.437500   0.906250 0
  0.625000   0.156250 0
  0.718750   0.812500 0
  0.218750   0.562500 0
  0.781250   0.562500 0
  0.281250   0.312500 0
  0.156250   0.812500 0
  0.062500   0.656250 0
  0.000000   0.906250 0
  0.187500   0.156250 0
  0.125000   0.406250 0
  0.562500   0.968750 0
  0.062500   0.718750 0
  0.000000   0.968750 0
  0.625000   0.718750 0
  0.125000   0.468750 0
  0.406250   0.968750 0
  0.968750   0.968750 0
  0.468750   0.718750 0
  0.531250   0.468750 0
  0.593750   0.218750 0
  0.406250   0.906250 0
  0.468750   0.656250 0
  0.593750   0.156250 0
  0.687500   0.781250 0
  0.187500   0.531250 0
  0.750000   0.531250 0
  0.250000   0.281250 0
  0.125000   0.781250 0
  0.781250   0.906250 0
  0.281250   0.656250 0
  0.218750   0.906250 0
  0.843750   0.656250 0
  0.343750   0.406250 0
  0.750000   0.906250 0
  0.250000   0.656250 0
  0.187500   0.906250 0
  0.812500   0.656250 0
  0.312500   0.406250 0
  0.875000   0.406250 0
  0.375000   0.156250 0
  0.812500   0.968750 0
  0.312500   0.718750 0
  0.250000   0.968750 0
  0.875000   0.718750 0
  0.375000   0.468750 0
  0.781250   0.937500 0
  0.281250   0.687500 0
  0.218750   0.937500 0
  0.843750   0.687500 0
  0.343750   0.437500 0
  0.718750   0.875000 0
  0.218750   0.625000 0
  0.156250   0.875000 0
  0.781250   0.625000 0
  0.281250   0.375000 0
  0.750000   0.937500 0
  0.250000   0.687500 0
  0.187500   0.937500 0
  0.875000   0.437500 0
  0.375000   0.187500 0
  0.812500   0.687500 0
  0.312500   0.437500 0
  0.687500   0.875000 0
  0.187500   0.625000 0
  0.750000   0.625000 0
  0.250000   0.375000 0
  0.125000   0.875000 0
  0.812500   1.000000 0
  0.312500   0.750000 0
  0.250000   1.000000 0
  0.875000   0.750000 0
  0.375000   0.500000 0
  0.562500   1.000000 0
  0.062500   0.750000 0
  0.000000   1.000000 0
  0.625000   0.750000 0
  0.125000   0.500000 0
  0.406250   1.000000 0
  0.968750   1.000000 0
  0.468750   0.750000 0
  0.656250   0.000000 0
  0.531250   0.500000 0
  0.593750   0.250000 0
  0.406250   0.937500 0
  0.468750   0.687500 0
  0.593750   0.187500 0
  0.687500   0.812500 0
  0.187500   0.562500 0
  0.750000   0.562500 0
  0.250000   0.312500 0
  0.125000   0.812500 0
  0.437500   0.843750 0
  0.625000   0.093750 0
  0.093750   0.593750 0
  0.156250   0.343750 0
  0.218750   0.093750 0
  0.031250   0.843750 0
  0.281250   0.937500 0
  0.843750   0.937500 0
  0.343750   0.687500 0
  0.906250   0.687500 0
  0.406250   0.437500 0
  0.156250   0.968750 0
  0.218750   0.718750 0
  0.281250   0.468750 0
  0.343750   0.218750 0
  0.156250   1.000000 0
  0.406250   0.000000 0
  0.281250   0.500000 0
  0.343750   0.250000 0
  0.218750   0.750000 0
  0.187500   0.968750 0
  0.250000   0.718750 0
  0.375000   0.218750 0
  0.312500   0.468750 0
  0.187500   1.000000 0
  0.312500   0.500000 0
  0.375000   0.250000 0
  0.437500   0.000000 0
  0.250000   0.750000 0
  0.031250   0.781250 0
  0.656250   0.531250 0
  0.156250   0.281250 0
  0.593750   0.781250 0
  0.093750   0.531250 0
  0.000000   0.781250 0
  0.625000   0.531250 0
  0.125000   0.281250 0
  0.562500   0.781250 0
  0.062500   0.531250 0
  0.781250   0.968750 0
  0.281250   0.718750 0
  0.218750   0.968750 0
  0.843750   0.718750 0
  0.343750   0.468750 0
  0.281250   0.968750 0
  0.843750   0.968750 0
  0.343750   0.718750 0
  0.906250   0.718750 0
  0.406250   0.468750 0
  0.281250   1.000000 0
  0.906250   0.750000 0
  0.406250   0.500000 0
  0.843750   1.000000 0
  0.343750   0.750000 0
  0.531250   0.000000 0
  0.718750   0.843750 0
  0.218750   0.593750 0
  0.156250   0.843750 0
  0.781250   0.593750 0
  0.281250   0.343750 0
  0.687500   0.843750 0
  0.187500   0.593750 0
  0.750000   0.593750 0
  0.250000   0.343750 0
  0.125000   0.843750 0
  0.218750   0.875000 0
  0.843750   0.625000 0
  0.343750   0.375000 0
  0.781250   0.875000 0
  0.281250   0.625000 0
  0.156250   0.906250 0
  0.781250   0.656250 0
  0.281250   0.406250 0
  0.718750   0.906250 0
  0.218750   0.656250 0
  0.031250   1.000000 0
  0.656250   0.750000 0
  0.156250   0.500000 0
  0.593750   1.000000 0
  0.093750   0.750000 0
  0.218750   1.000000 0
  0.343750   0.500000 0
  0.468750   0.000000 0
  0.406250   0.250000 0
  0.281250   0.750000 0
  0.593750   0.406250 0
  0.093750   0.156250 0
  0.531250   0.656250 0
  0.031250   0.406250 0
[...]
CELL_DATA 1024
SCALARS scalar_value float 1
LOOKUP_TABLE default
7.06923
5.1839
2.69476
0.779562
1.30056
0.884658
8.26275
11.8358
19.0111
17.3124
17.848
38.1057
12.6583
23.7199
17.4873
13.4075
20.6722
8.32184
15.3675
6.06416
11.2934
2.98085
5.59295
1.98327
2.21188
1.66931
2.15729
2.54908
0.62909
7.40936
8.96328
13.3716
10.0261
7.83873
20.0782
7.46276
27.1892
16.0745
34.6228
0.988036
2.29418
2.45616
5.84009
1.72598
2.13436
4.02343
2.40731
2.99995
2.61079
2.88008
1.79568
1.88238
3.20769
1.75337
2.02589
1.09726
1.69318
1.09345
1.83024
14.1358
2.61194
5.8879
1.22571
0.875304
6.82932
15.5274
15.5572
2.74915
2.89896
9.06189
3.8192
3.55919
11.4541
10.1584
1.83298
1.1298
7.97835
7.07057
0.996785
10.323
22.8769
10.4193
3.77009
7.87927
0.747624
1.05872
13.7649
21.1358
8.22132
2.96862
4.01948
10.9453
13.2809
1.66998
3.98849
11.2447
9.19394
3.42938
8.44878
10.4255
0.720958
5.87914
1.49153
5.98355
1.99491
0.955005
7.61169
2.35806
4.84318
10.6892
5.20797
2.74342
7.51174
1.80691
16.1532
8.86345
0.684183
9.37361
2.96402
7.24814
3.47291
1.19917
5.12226
2.66382
19.7252
6.62948
1.61827
2.51269
2.88731
2.45932
1.41203
9.58949
2.36241
5.74585
2.64109
2.82674
2.22447
19.1785
1.03697
0.721824
8.14921
10.6147
1.87957
2.97519
3.20851
2.21531
21.0547
9.19867
4.52027
1.88119
11.7725
5.85068
1.33776
2.0008
2.89249
1.33108
4.39682
3.15492
2.32412
7.70493
3.74586
3.81055
1.74412
0.830472
6.14732
11.2999
1.31853
2.43061
2.32312
2.96919
1.72858
5.14705
2.74425
2.50218
1.44944
1.93847
1.63597
2.22093
11.6696
7.41336
5.54476
0.969224
4.96095
5.07993
3.77986
3.93507
3.47811
5.37472
6.32223
7.79276
2.92032
17.1727
2.33505
1.98643
2.66411
3.94436
3.40089
21.9239
1.9295
2.51841
14.4502
1.75725
3.01133
22.4037
16.4072
8.79738
2.11596
1.08416
0.934627
6.3783
3.12344
1.58314
1.08665
12.3178
2.3673
12.7938
1.73651
1.17262
0.865333
6.02459
1.2581
0.870707
4.69956
6.98949
7.98013
18.9494
5.81054
7.04148
0.801292
16.9091
5.72339
5.38511
0.810417
10.32
5.69578
7.39819
0.947115
15.1803
1.02482
5.25847
0.900571
6.62897
1.82294
9.41325
1.13113
4.10148
8.03877
2.18471
6.47006
3.23429
3.13826
2.51548
6.00794
8.24828
9.26094
7.68671
1.95407
1.52159
0.492673
0.449919
0.551473
0.755664
2.70531
2.55016
2.46057
0.662255
0.444669
0.473151
0.530524
1.05163
0.665205
0.888375
0.537578
0.717146
1.06575
0.878091
1.18581
2.28295
2.87536
2.02587
1.34357
1.56921
2.16944
1.96306
4.22415
2.06806
0.592277
3.00128
0.847081
1.53506
0.850551
2.32919
1.8399
2.66268
0.677002
1.73998
1.46756
3.0948
3.70942
6.48066
2.84293
1.16988
7.27947
4.91513
1.79762
4.39756
1.85368
5.7918
1.37584
2.79313
3.07522
1.65067
6.08244
0.899535
2.42656
3.30363
3.30336
2.20352
1.47362
2.33933
2.68886
1.08543
3.99271
1.19388
2.02281
2.37132
1.83117
2.19788
0.925267
2.45933
0.594688
1.17837
1.03863
1.8341
0.552564
1.5198
7.23938
3.47135
2.78269
1.87084
0.990793
5.50762
6.24484
2.36209
1.19631
0.806285
1.54283
2.75222
1.93094
1.5775
1.75028
3.55443
1.48368
5.2096
3.08947
0.605245
1.4123
2.93818
0.830787
5.33776
1.26542
0.859683
2.10167
3.01439
0.556642
1.31518
1.15323
3.49439
0.429727
1.00756
0.395452
0.637237
1.67091
2.65404
0.597438
1.38729
4.14696
0.738343
0.777742
1.87059
1.00862
3.42727
2.12275
6.02497
4.17584
5.64408
1.0887
1.11024
0.506609
0.70411
0.922833
4.62378
0.729299
2.47804
1.17013
1.46912
2.74491
4.94604
3.62513
0.548866
2.0875
1.40817
2.09575
4.8689
5.8701
0.413184
1.98637
2.23278
2.47012
1.44651
2.6493
4.12081
3.1638
3.06535
1.34359
3.81387
1.28798
0.865661
3.02356
1.43034
0.593633
4.35629
2.9892
5.34551
7.05694
3.00292
0.814524
1.89685
2.78104
2.84586
0.531687
1.52597
2.58536
2.24867
3.79841
0.967819
3.00876
0.456869
0.615234
2.53293
0.626589
0.552835
4.0466
0.583625
0.623854
0.622678
2.27141
2.07437
4.38582
1.01067
0.555115
2.2398
4.40315
0.770769
1.60943
3.15708
3.88591
1.01266
1.38477
4.02589
0.521582
0.36072
0.536553
0.372731
0.358312
0.439938
0.452976
0.513304
3.23791
4.17552
1.15443
3.50674
4.67854
1.21896
0.544632
0.69384
1.08759
0.518291
3.09419
2.01276
4.07896
3.82852
3.15951
7.9314
3.1703
4.93581
6.52774
2.53711
6.27754
1.61348
0.898724
0.805734
1.68658
2.4844
3.27053
9.92239
3.49549
2.72558
7.98219
4.00735
2.70828
5.8489
2.90283
3.44637
1.80157
1.85558
4.47815
4.51089
0.778796
0.491379
0.555139
0.761742
2.52915
0.615424
0.484485
1.08523
1.44294
1.73511
2.99559
2.75273
6.90866
1.13528
1.38756
2.21124
1.31313
1.28909
1.11716
0.948071
0.911484
0.865384
0.485045
0.77561
0.84729
5.46861
5.10417
4.78399
5.76885
3.26418
6.61753
14.1825
5.71407
4.15789
6.7268
3.7402
1.51894
3.22592
1.20165
1.76308
2.20192
1.32292
2.68084
4.97472
1.83644
3.9454
1.25988
2.05324
0.587656
0.519543
0.479392
1.61871
0.468104
1.02109
0.532912
6.16579
3.31066
0.752094
22.1064
2.7773
0.817065
0.316926
0.354305
4.09418
2.92991
3.28574
0.286428
0.48149
2.8741
4.0596
1.22576
11.6393
0.405626
0.418518
1.71089
2.57045
4.23671
2.05031
1.29732
2.51041
1.9826
3.05713
3.64976
2.58006
0.733036
12.4212
0.693995
2.96768
0.852338
2.83177
18.4527
2.97927
1.05896
0.592075
0.517424
1.18914
1.01056
1.64033
1.60759
2.89916
3.68735
0.83881
1.29641
11.2236
0.890322
3.57371
0.882213
1.59899
0.856494
0.726994
1.09192
1.10127
1.84243
0.857322
0.899775
0.80647
0.601876
0.864621
0.919029
1.3737
1.12587
0.945881
2.10112
4.26345
0.616879
2.7324
0.729112
0.888627
2.72399
1.37474
1.82364
0.896349
1.32253
2.08318
0.656692
0.939598
0.87646
1.72965
5.36862
4.95736
1.89306
0.918743
0.671306
0.449456
2.29118
5.97285
0.609797
2.88135
1.73343
5.34682
0.63818
2.58186
1.57875
3.13296
1.34638
1.0346
1.54426
1.13798
0.710138
0.984161
1.26228
0.754168
1.49331
0.74815
1.96976
0.654665
2.03279
10.5355
10.1049
19.4329
1.0116
0.918933
1.09393
1.12434
1.33854
1.14797
1.27569
2.32862
2.00239
1.05402
0.902018
1.37446
2.62895
3.42829
1.66723
1.10482
1.25313
1.98487
1.11669
0.833426
2.29689
2.03683
1.30121
1.13513
0.963243
1.22477
0.486735
5.39245
1.06697
2.71796
0.685026
0.504888
2.29679
0.605722
0.416581
3.96366
0.825234
1.91108
1.56091
0.837501
0.907155
0.592448
1.01518
0.47447
0.822211
0.68915
0.501158
0.855295
0.955258
0.988704
0.858619
2.40919
0.793441
0.426042
0.317079
0.44061
2.66846
0.827293
0.251937
2.40794
0.63806
0.323508
1.58878
0.736575
0.890535
2.07948
1.19804
2.34206
1.12725
2.69326
1.04726
1.82569
0.651951
1.20632
0.447735
2.40883
0.501412
0.620363
1.79585
0.743454
1.11333
5.49168
5.29913
2.85556
4.01703
2.93198
2.61401
2.30551
3.08152
2.55364
5.03272
5.72548
4.04967
8.00515
8.38599
1.79561
2.59223
10.5576
1.43281
1.22714
1.3409
30.8387
2.01203
1.32553
1.73284
2.36348
17.2951
19.9968
11.6486
8.66209
2.58101
2.49549
7.33172
1.32053
2.68759
1.69682
1.61633
3.67628
1.73521
6.46386
1.13415
3.11975
1.93686
1.39523
1.33453
1.74866
2.15714
1.56292
5.98449
1.6016
1.88899
2.82578
1.83377
4.87041
1.77867
1.58596
2.07168
2.0076
2.13819
1.50859
2.4598
4.91147
2.34617
8.27073
5.39075
1.68534
3.62608
10.3384
7.34212
1.70518
4.10587
0.899004
9.59027
0.644951
6.49608
2.76786
2.59145
2.76541
2.18114
3.65255
4.82968
1.19645
1.43778
3.60466
3.65359
2.85988
1.15376
6.68758
6.03287
1.34868
4.57791
4.2867
1.54146
1.50481
2.95377
4.67582
2.73601
2.32646
2.09733
1.76477
3.2365
4.2274
2.80053
1.21836
4.13942
11.7682
1.28968
3.16954
5.93009
3.72237
2.50354
5.26527
2.44859
8.71959
1.57131
2.66069
2.85837
1.84606
3.05904
1.83123
2.95655
5.33779
5.5725
2.0497
0.984425
4.3856
2.49784
18.7641
3.37868
2.44385
7.25967
1.63285
2.05329
1.80327
3.52927
3.18022
1.8546
1.42793
2.03244
1.62717
0.907503
3.72191
4.97915
1.9328
1.36651
12.4871
2.66083
5.19454
1.41207
0.811084
1.54875
1.22099
1.4392
10.1716
4.33364
2.08496
2.77239
1.9714
1.89588
2.37943
2.79757
1.13481
1.58379
2.43806
2.07466
1.76912
0.909344
1.44166
1.56114
2.10922
1.46023
3.88225
3.10537
17.1087
30.1094
30.9768
24.3356
3.22391
2.95353
2.87428
2.92731
3.30089
1.9843
2.08968
2.01032
30.4353
27.2254
2.50142
3.71678
29.2455
20.0723
3.87428
4.18405
2.85696
3.4011
2.75383
12.922
7.94991
1.90093
21.2051
11.4116
3.05758
16.9452
15.1378
2.88317
3.24366
2.28709
3.00002
3.64256
2.28226
3.04663
4.17163
2.77767
3.13387
3.49389
3.17952
4.05468
3.86145
2.63452
1.1068
2.39598
1.39877
1.90417
4.15049
1.74238
1.88928
0.963555
1.68709
1.43739
5.05194
15.2349
1.7169
6.41008
2.04986
9.60733
1.37414
11.4272
10.1717
2.44181
4.25405
9.4022
3.87205
7.58697
7.07375
6.05068
3.84089
5.34676
2.15339
2.50144
12.1091
2.05892
16.9291
1.32617
1.88778
1.09164
0.944856
11.3942
3.42384
3.29899
1.72677
0.997438
1.61662
0.927825
1.4829
1.69715
2.73686
