# vtk DataFile Version 2.0
Unstructured Grid by M++
ASCII
DATASET UNSTRUCTURED_GRID
POINTS 1089 float
  0.718750   0.687500 0
  0.750000   0.687500 0
  0.718750   0.656250 0
  0.750000   0.718750 0
  0.625000   0.562500 0
  0.625000   0.593750 0
  0.656250   0.593750 0
  0.750000   0.750000 0
  0.687500   0.656250 0
  0.687500   0.625000 0
  0.656250   0.625000 0
  0.906250   0.593750 0
  1.000000   0.968750 0
  0.750000   0.968750 0
  0.718750   0.968750 0
  0.718750   1.000000 0
  0.750000   1.000000 0
  0.906250   0.906250 0
  0.843750   0.531250 0
  0.656250   0.937500 0
  0.656250   0.906250 0
  0.562500   0.812500 0
  0.562500   0.843750 0
  0.593750   0.875000 0
  0.593750   0.843750 0
  0.812500   0.718750 0
  0.625000   0.625000 0
  0.968750   0.875000 0
  0.531250   0.875000 0
  0.625000   0.937500 0
  0.562500   0.562500 0
  0.906250   0.812500 0
  0.531250   0.781250 0
  0.562500   0.593750 0
  0.906250   0.843750 0
  0.625000   0.656250 0
  0.968750   0.906250 0
  0.687500   0.968750 0
  0.812500   0.812500 0
  0.687500   1.000000 0
  0.687500   0.687500 0
  0.937500   0.843750 0
  0.593750   0.593750 0
  1.000000   0.625000 0
  0.968750   0.593750 0
  0.906250   0.875000 0
  0.968750   0.625000 0
  0.625000   0.875000 0
  0.875000   0.875000 0
  0.625000   0.906250 0
  0.875000   0.843750 0
  0.531250   0.812500 0
  0.968750   0.562500 0
  0.593750   0.625000 0
  0.937500   0.875000 0
  0.656250   0.687500 0
  1.000000   0.937500 0
  0.875000   0.562500 0
  0.687500   0.937500 0
  0.937500   0.625000 0
  0.812500   0.781250 0
  0.937500   0.562500 0
  0.875000   0.781250 0
  0.531250   0.531250 0
  0.718750   0.937500 0
  0.968750   0.937500 0
  0.906250   0.562500 0
  0.843750   0.781250 0
  0.593750   0.562500 0
  1.000000   0.906250 0
  0.656250   0.656250 0
  0.937500   0.906250 0
  0.875000   0.531250 0
  0.812500   0.750000 0
  0.656250   0.968750 0
  0.937500   0.531250 0
  0.843750   0.812500 0
  0.906250   0.531250 0
  0.843750   0.750000 0
  0.937500   0.593750 0
  0.875000   0.812500 0
  0.531250   0.562500 0
  1.000000   0.593750 0
  0.562500   0.906250 0
  0.562500   0.531250 0
  0.593750   0.906250 0
  0.593750   0.937500 0
  0.562500   0.875000 0
  0.781250   0.750000 0
  0.781250   0.781250 0
  0.593750   0.531250 0
  1.000000   0.687500 0
  0.531250   0.843750 0
  0.718750   0.718750 0
  0.781250   0.718750 0
  0.781250   0.687500 0
  1.000000   0.656250 0
  0.968750   0.656250 0
  0.843750   0.843750 0
  0.781250   1.000000 0
  0.656250   0.312500 0
  0.531250   0.250000 0
  0.875000   0.500000 0
  0.531250   0.218750 0
  0.875000   0.468750 0
  0.531250   0.156250 0
  0.593750   0.812500 0
  0.093750   0.562500 0
  0.656250   0.562500 0
  0.156250   0.312500 0
  0.031250   0.812500 0
  0.125000   1.000000 0
  0.312500   0.250000 0
  0.250000   0.500000 0
  0.375000   0.000000 0
  0.187500   0.750000 0
  0.812500   0.906250 0
  0.312500   0.656250 0
  0.250000   0.906250 0
  0.875000   0.656250 0
  0.375000   0.406250 0
  0.750000   0.843750 0
  0.250000   0.593750 0
  0.187500   0.843750 0
  0.812500   0.593750 0
  0.312500   0.343750 0
  0.625000   0.968750 0
  0.125000   0.718750 0
  0.687500   0.718750 0
  0.187500   0.468750 0
  0.062500   0.968750 0
  0.125000   0.656250 0
  0.187500   0.406250 0
  0.250000   0.156250 0
  0.062500   0.906250 0
  0.468750   0.906250 0
  0.656250   0.156250 0
  0.468750   0.812500 0
  0.593750   0.312500 0
  0.656250   0.062500 0
  0.625000   0.812500 0
  0.125000   0.562500 0
  0.687500   0.562500 0
  0.187500   0.312500 0
  0.062500   0.812500 0
  0.562500   0.937500 0
  0.062500   0.687500 0
  0.625000   0.687500 0
  0.125000   0.437500 0
  0.000000   0.937500 0
  0.062500   0.625000 0
  0.187500   0.125000 0
  0.125000   0.375000 0
  0.000000   0.875000 0
  0.406250   0.875000 0
  0.468750   0.625000 0
  0.593750   0.125000 0
  0.812500   0.937500 0
  0.312500   0.687500 0
  0.250000   0.937500 0
  0.875000   0.687500 0
  0.375000   0.437500 0
  0.750000   0.875000 0
  0.250000   0.625000 0
  0.187500   0.875000 0
  0.812500   0.625000 0
  0.312500   0.375000 0
  0.468750   0.781250 0
  0.593750   0.281250 0
  0.656250   0.031250 0
  0.625000   0.781250 0
  0.125000   0.531250 0
  0.062500   0.781250 0
  0.687500   0.531250 0
  0.187500   0.281250 0
  0.500000   0.812500 0
  0.687500   0.062500 0
  0.625000   0.312500 0
  0.656250   0.812500 0
  0.156250   0.562500 0
  0.718750   0.562500 0
  0.218750   0.312500 0
  0.093750   0.812500 0
  0.437500   0.968750 0
  0.625000   0.218750 0
  0.500000   0.781250 0
  0.687500   0.031250 0
  0.625000   0.281250 0
  0.656250   0.781250 0
  0.156250   0.531250 0
  0.718750   0.531250 0
  0.218750   0.281250 0
  0.093750   0.781250 0
  0.062500   0.562500 0
  0.125000   0.312500 0
  0.187500   0.062500 0
  0.000000   0.812500 0
  0.406250   0.812500 0
  0.968750   0.812500 0
  0.468750   0.562500 0
  0.593750   0.062500 0
  0.218750   0.687500 0
  0.156250   0.937500 0
  0.281250   0.437500 0
  0.062500   0.843750 0
  0.687500   0.593750 0
  0.187500   0.343750 0
  0.625000   0.843750 0
  0.125000   0.593750 0
  0.312500   0.843750 0
  0.437500   0.343750 0
  0.500000   0.093750 0
  0.375000   0.593750 0
  0.312500   0.906250 0
  0.937500   0.656250 0
  0.437500   0.406250 0
  0.875000   0.906250 0
  0.375000   0.656250 0
  0.062500   0.875000 0
  0.187500   0.375000 0
  0.250000   0.125000 0
  0.125000   0.625000 0
  0.093750   0.656250 0
  0.031250   0.906250 0
  0.218750   0.156250 0
  0.156250   0.406250 0
  0.593750   0.968750 0
  0.093750   0.718750 0
  0.031250   0.968750 0
  0.656250   0.718750 0
  0.156250   0.468750 0
  0.437500   0.906250 0
  0.625000   0.156250 0
  0.718750   0.812500 0
  0.218750   0.562500 0
  0.781250   0.562500 0
  0.281250   0.312500 0
  0.156250   0.812500 0
  0.062500   0.656250 0
  0.000000   0.906250 0
  0.187500   0.156250 0
  0.125000   0.406250 0
  0.562500   0.968750 0
  0.062500   0.718750 0
  0.000000   0.968750 0
  0.625000   0.718750 0
  0.125000   0.468750 0
  0.406250   0.968750 0
  0.968750   0.968750 0
  0.468750   0.718750 0
  0.531250   0.468750 0
  0.593750   0.218750 0
  0.406250   0.906250 0
  0.468750   0.656250 0
  0.593750   0.156250 0
  0.687500   0.781250 0
  0.187500   0.531250 0
  0.750000   0.531250 0
  0.250000   0.281250 0
  0.125000   0.781250 0
  0.781250   0.906250 0
  0.281250   0.656250 0
  0.218750   0.906250 0
  0.843750   0.656250 0
  0.343750   0.406250 0
  0.750000   0.906250 0
  0.250000   0.656250 0
  0.187500   0.906250 0
  0.812500   0.656250 0
  0.312500   0.406250 0
  0.875000   0.406250 0
  0.375000   0.156250 0
  0.812500   0.968750 0
  0.312500   0.718750 0
  0.250000   0.968750 0
  0.875000   0.718750 0
  0.375000   0.468750 0
  0.781250   0.937500 0
  0.281250   0.687500 0
  0.218750   0.937500 0
  0.843750   0.687500 0
  0.343750   0.437500 0
  0.718750   0.875000 0
  0.218750   0.625000 0
  0.156250   0.875000 0
  0.781250   0.625000 0
  0.281250   0.375000 0
  0.750000   0.937500 0
  0.250000   0.687500 0
  0.187500   0.937500 0
  0.875000   0.437500 0
  0.375000   0.187500 0
  0.812500   0.687500 0
  0.312500   0.437500 0
  0.687500   0.875000 0
  0.187500   0.625000 0
  0.750000   0.625000 0
  0.250000   0.375000 0
  0.125000   0.875000 0
  0.812500   1.000000 0
  0.312500   0.750000 0
  0.250000   1.000000 0
  0.875000   0.750000 0
  0.375000   0.500000 0
  0.562500   1.000000 0
  0.062500   0.750000 0
  0.000000   1.000000 0
  0.625000   0.750000 0
  0.125000   0.500000 0
  0.406250   1.000000 0
  0.968750   1.000000 0
  0.468750   0.750000 0
  0.656250   0.000000 0
  0.531250   0.500000 0
  0.593750   0.250000 0
  0.406250   0.937500 0
  0.468750   0.687500 0
  0.593750   0.187500 0
  0.687500   0.812500 0
  0.187500   0.562500 0
  0.750000   0.562500 0
  0.250000   0.312500 0
  0.125000   0.812500 0
  0.437500   0.843750 0
  0.625000   0.093750 0
  0.093750   0.593750 0
  0.156250   0.343750 0
  0.218750   0.093750 0
  0.031250   0.843750 0
  0.281250   0.937500 0
  0.843750   0.937500 0
  0.343750   0.687500 0
  0.906250   0.687500 0
  0.406250   0.437500 0
  0.156250   0.968750 0
  0.218750   0.718750 0
  0.281250   0.468750 0
  0.343750   0.218750 0
  0.156250   1.000000 0
  0.406250   0.000000 0
  0.281250   0.500000 0
  0.343750   0.250000 0
  0.218750   0.750000 0
  0.187500   0.968750 0
  0.250000   0.718750 0
  0.375000   0.218750 0
  0.312500   0.468750 0
  0.187500   1.000000 0
  0.312500   0.500000 0
  0.375000   0.250000 0
  0.437500   0.000000 0
  0.250000   0.750000 0
  0.031250   0.781250 0
  0.656250   0.531250 0
  0.156250   0.281250 0
  0.593750   0.781250 0
  0.093750   0.531250 0
  0.000000   0.781250 0
  0.625000   0.531250 0
  0.125000   0.281250 0
  0.562500   0.781250 0
  0.062500   0.531250 0
  0.781250   0.968750 0
  0.281250   0.718750 0
  0.218750   0.968750 0
  0.843750   0.718750 0
  0.343750   0.468750 0
  0.281250   0.968750 0
  0.843750   0.968750 0
  0.343750   0.718750 0
  0.906250   0.718750 0
  0.406250   0.468750 0
  0.281250   1.000000 0
  0.906250   0.750000 0
  0.406250   0.500000 0
  0.843750   1.000000 0
  0.343750   0.750000 0
  0.531250   0.000000 0
  0.718750   0.843750 0
  0.218750   0.593750 0
  0.156250   0.843750 0
  0.781250   0.593750 0
  0.281250   0.343750 0
  0.687500   0.843750 0
  0.187500   0.593750 0
  0.750000   0.593750 0
  0.250000   0.343750 0
  0.125000   0.843750 0
  0.218750   0.875000 0
  0.843750   0.625000 0
  0.343750   0.375000 0
  0.781250   0.875000 0
  0.281250   0.625000 0
  0.156250   0.906250 0
  0.781250   0.656250 0
  0.281250   0.406250 0
  0.718750   0.906250 0
  0.218750   0.656250 0
  0.031250   1.000000 0
  0.656250   0.750000 0
  0.156250   0.500000 0
  0.593750   1.000000 0
  0.093750   0.750000 0
  0.218750   1.000000 0
  0.343750   0.500000 0
  0.468750   0.000000 0
  0.406250   0.250000 0
  0.281250   0.750000 0
  0.593750   0.406250 0
  0.093750   0.156250 0
  0.531250   0.656250 0
  0.031250   0.406250 0
[...]
CELL_DATA 1024
SCALARS scalar_value float 1
LOOKUP_TABLE default
0.714344
0.809146
1.14653
3.22965
4.63753
3.12333
3.24255
4.30876
4.70541
2.67299
2.71711
4.73435
4.16793
7.3038
7.50068
6.30575
5.27835
4.96446
6.37106
4.66167
6.29929
3.89346
3.79759
3.43229
3.5
2.6689
2.11636
3.45947
2.24833
10.9624
0.749883
1.26586
1.40166
1.05187
2.9595
3.43149
8.4211
4.97698
3.59284
4.14248
7.6537
12.5391
2.46056
9.18862
9.57734
1.74825
4.74224
4.69883
2.40615
4.16223
14.4115
2.60188
3.04539
5.04822
3.69446
4.14982
5.03456
15.2835
6.21535
1.41947
1.7656
1.16787
2.44498
1.41171
1.77127
0.649485
1.16679
2.41117
8.08731
2.85683
4.11269
3.47309
2.68153
0.863947
1.17722
1.38482
5.58837
9.1242
1.88528
1.51478
0.816855
1.8023
1.24824
1.26948
1.67617
1.21905
0.666934
0.79363
3.74355
5.07705
2.97752
3.0405
1.31153
1.20134
0.873925
1.24537
1.72267
1.57943
1.0153
1.1976
2.70673
4.77235
2.8198
0.988114
0.536762
1.11997
2.744
4.38967
3.83356
1.53282
0.976077
1.38898
6.51441
0.513838
1.7235
8.27266
1.54909
1.2292
3.04325
2.88971
2.98684
3.54734
6.98286
1.71166
0.826363
2.00575
0.592692
2.89986
0.884511
0.468307
0.879144
3.39799
5.03213
3.36279
2.7945
0.305403
0.405383
0.867321
1.92086
1.59053
7.56188
1.77152
3.35922
2.28927
1.27547
1.38539
0.641801
1.55974
2.19706
3.23068
1.32243
3.3451
0.704642
1.75801
3.50209
3.45727
8.29321
1.31705
3.0512
4.34144
3.70508
2.43286
1.92262
1.93953
6.33959
1.50253
3.3088
2.50379
2.17327
6.06949
4.80002
1.19828
1.32411
1.13399
1.31364
0.933419
1.76421
1.51426
1.75297
2.00213
1.53334
2.47813
4.17481
2.24368
1.86794
4.13458
2.76545
2.16044
6.72795
1.70247
0.42041
1.16832
0.481757
4.30539
4.36074
3.22731
0.276013
0.684069
0.372758
5.44917
1.2525
0.605897
0.412762
0.625243
0.952295
5.78634
1.59889
2.7657
4.6216
7.28695
1.11244
2.68683
3.07379
3.35263
0.752185
4.00571
0.999694
3.75118
8.35506
1.9675
6.44219
1.6141
7.33117
2.45392
1.67369
1.28055
8.96121
7.85365
2.1368
0.7521
6.34809
7.07726
2.52749
0.917037
8.97932
3.8885
1.87488
1.46089
1.2124
5.35593
2.10209
5.40524
1.04133
1.78997
0.9019
4.43302
6.55906
1.95092
7.80214
2.00035
2.56725
2.511
1.2182
0.747571
1.20797
1.5484
15.3084
26.6067
1.05497
1.03359
0.724598
0.769829
3.42074
1.97504
1.95107
1.89004
1.4795
1.67295
2.26877
27.8254
14.6316
1.41271
1.663
1.77262
1.27488
1.70868
1.8372
1.83753
1.27321
1.64259
1.52297
1.586
0.959972
1.00252
2.09222
2.21614
2.68601
5.06098
4.56073
3.21051
3.13633
2.10867
2.21068
1.7869
1.05825
3.88379
1.3554
7.72046
1.29157
1.39863
1.14861
1.64053
1.34931
0.951172
1.44875
1.30345
1.07434
0.988583
1.27361
1.4419
0.90381
7.11421
1.47548
1.02846
1.37677
2.14681
5.47649
5.20089
1.01414
5.39544
5.61558
0.734952
1.21361
16.981
1.46177
1.78616
10.0421
10.8937
3.37972
1.06687
2.59957
35.7558
2.43502
0.975219
2.82844
22.6062
1.124
1.52009
4.87072
1.13946
1.32284
1.30358
1.03778
2.63728
1.28312
2.26467
2.19011
2.57603
1.27767
5.6653
0.972419
0.919012
1.58451
1.36317
1.90563
1.97052
1.26911
1.22223
17.6262
1.73626
1.30263
9.02095
2.88309
1.01821
1.51538
4.55997
14.0491
0.705606
0.788271
1.99628
2.38823
0.739343
9.74441
0.753751
1.53447
1.62558
1.299
36.3132
1.25152
1.08378
1.76226
0.687408
0.71641
1.70299
3.08148
1.63042
2.29661
1.11689
2.09874
1.46638
0.703611
1.43798
29.3938
2.12506
1.22841
3.23249
0.925403
2.57214
3.85107
4.1027
12.0779
3.65389
1.38075
2.21621
2.25957
3.33273
15.716
3.20895
4.96201
1.51524
1.44343
1.40946
3.0332
1.56708
4.33041
2.65861
1.57722
3.30857
5.42602
2.66599
2.98982
1.05546
0.694203
1.25354
0.680746
0.543317
3.32404
3.04869
3.3677
4.74261
1.1836
4.37681
3.53334
0.872247
4.54675
3.26972
2.87464
2.06343
2.65411
6.07761
2.40346
2.63039
2.41838
1.6552
2.4387
2.65307
1.32876
10.2751
0.345785
1.71565
2.61334
5.87683
0.553712
2.12388
8.31201
0.630698
1.33593
2.63918
15.5625
0.64873
2.84395
2.01001
2.11911
2.33575
2.50153
1.67443
1.73819
1.18335
0.795796
3.75504
1.93185
1.33707
1.71583
1.38135
2.12579
1.80834
2.39334
2.24182
1.0988
1.83803
1.38728
1.57704
0.546263
0.680839
0.662509
0.694726
0.763946
0.685235
1.05527
1.74491
0.974109
1.71611
2.03015
5.07687
0.307738
0.704974
2.3064
0.372265
0.95866
2.88819
0.556177
1.60236
4.03346
0.492202
1.60283
0.821473
2.68921
1.909
0.751272
1.11227
1.25962
0.983405
0.842837
0.260738
0.2285
1.04682
1.72815
2.58497
2.00393
1.91565
0.263396
0.887647
0.716764
1.27337
0.92512
1.36318
0.242914
0.2845
0.399133
0.359055
1.24884
0.325187
0.551192
1.43928
1.24991
0.971318
1.03607
1.9461
1.63015
1.40771
1.16321
0.343121
0.309649
1.14662
0.417861
0.546838
1.62839
0.635154
0.793424
1.86997
0.434972
0.655684
0.637068
1.08574
0.743711
1.2565
0.36342
1.0899
0.837346
0.591146
0.432883
0.873301
0.822563
0.432655
0.815787
0.596934
0.799155
1.74459
5.18067
0.926943
1.54839
4.27417
0.388147
3.34597
1.08985
3.29506
2.52452
0.322087
0.61761
0.55132
0.855506
1.10442
1.59841
1.35707
2.93509
0.532289
1.45597
1.29003
1.66654
2.26126
0.259233
0.392135
0.759028
0.346631
2.84436
1.83224
2.21489
1.06215
0.684907
0.693975
0.40528
0.99323
0.751712
0.215544
0.870334
0.92118
1.56948
0.417016
0.295358
0.46491
0.308498
0.399883
1.91332
2.90279
0.693645
2.57574
0.827729
0.882631
4.0734
0.568825
1.53441
1.39947
0.378744
0.264704
0.906713
2.20812
0.376545
2.36185
1.85764
1.7155
2.76021
2.02707
0.605508
2.77804
3.96086
1.26778
0.861735
0.657716
0.942307
0.503696
1.25045
3.88951
1.3938
0.315862
5.53056
2.00566
0.35028
0.274713
1.53554
0.928808
0.892595
1.91865
3.43289
1.34077
2.56639
2.53136
0.49229
1.06176
1.61433
2.99099
0.323315
0.699207
0.621077
1.7821
0.671719
0.99529
0.466482
5.73619
0.448814
4.05354
0.478346
4.37889
0.902459
5.31076
0.696257
0.723186
1.12337
0.982784
0.505645
2.78015
0.728862
2.71485
0.727775
1.27207
0.554377
1.67687
1.40115
2.03094
0.464049
1.57467
1.55778
2.12083
2.35258
0.231134
2.00898
1.31478
1.26691
0.371221
0.903256
1.73667
1.49817
1.14204
0.645348
0.911864
0.507771
0.600995
0.739999
0.710902
0.664295
0.609541
1.53284
0.641001
0.436662
1.15988
1.14774
0.970857
1.27923
1.50601
0.249448
2.22104
0.210391
1.77737
0.197198
0.266322
1.30107
0.663772
0.717528
0.988099
0.863605
1.1774
7.40984
3.73389
1.28285
2.58616
2.51353
4.90654
1.23121
1.50872
6.52411
2.00537
0.600239
7.44444
1.81923
1.75282
1.98357
1.20623
2.31492
1.36065
0.377466
1.08455
0.347662
3.77991
0.38871
2.93235
0.701664
0.510079
4.09254
0.462826
5.51411
0.975713
1.81261
1.31279
0.890155
1.30437
1.56943
1.57174
1.26785
1.66318
0.32506
2.21684
2.38757
1.66416
1.51317
1.12769
0.786064
1.69999
0.937524
1.42291
2.07599
1.0379
0.677894
0.500058
0.501939
0.614108
1.48113
1.56858
1.54396
1.18816
4.09131
2.1535
3.94979
1.76722
4.66686
3.14337
1.87194
2.01945
1.82728
2.85792
1.43312
4.38345
2.04944
2.13008
1.60478
1.7271
3.37847
1.53377
4.2598
2.26791
1.25827
4.98715
2.12028
3.58757
4.03746
1.30035
2.41087
2.91285
2.18152
1.85022
2.17712
2.41133
2.73196
1.52214
1.52038
13.0729
2.5893
1.96071
0.774122
8.29595
2.42854
2.08452
2.43446
1.27833
2.1083
3.27022
3.94273
0.884045
0.319106
0.326651
0.441076
1.30073
3.35028
5.19036
0.575155
2.08283
0.37913
0.286387
0.301972
2.49933
4.06673
1.62781
0.498796
4.46461
3.73406
2.05187
0.362534
5.67096
5.21046
5.01312
2.41008
2.35144
2.954
0.959545
9.27847
3.15956
3.04651
0.548867
0.250351
0.527805
15.9286
3.75133
7.00465
4.06127
2.41985
0.922944
0.534957
3.49546
1.99134
20.0188
10.8673
3.09239
4.40484
1.55197
1.18155
10.5732
5.51421
2.86335
2.25746
2.07195
5.03107
1.63577
2.63488
1.93504
1.76837
1.58406
5.32222
2.78873
0.726881
3.28875
0.569762
2.48112
2.98206
1.34901
1.75386
2.40853
3.02687
1.73439
2.0093
0.562378
4.92411
2.05494
3.9292
3.86125
11.7248
3.87447
2.09354
2.36843
3.36104
2.45323
2.12039
10.2423
9.79131
1.82251
4.71047
2.30201
0.813886
4.8332
3.349
2.76108
5.56765
0.947979
1.39612
1.88139
2.46645
1.95249
1.98158
1.24529
7.11372
0.585085
4.34192
0.780478
5.29059
5.6586
0.961619
1.05682
2.76612
22.3459
1.6154
1.86782
2.43683
15.3213
2.25462
2.58297
1.61873
0.86224
1.26062
1.22068
2.90288
1.74567
1.52795
3.0269
1.96745
1.73307
1.05808
2.14972
1.13242
3.44426
1.91742
2.82422
3.03058
2.88504
1.18127
1.93288
2.83032
1.06846
1.94184
1.33962
2.96885
1.64266
2.43933
1.26062
3.64489
2.38721
2.10354
3.85806
1.13586
2.20732
26.5603
1.49122
1.52526
19.3757
1.42012
10.0307
1.34356
9.3624
1.13018
1.44031
1.47375
2.23459
0.898246
1.50545
1.15025
1.06525
1.56341
1.80063
1.63135
1.70632
0.932392
2.24869
26.4923
1.05108
0.786118
0.855922
0.623514
0.898898
3.34317
18.8554
6.16389
3.45406
4.43934
5.4065
3.17772
10.4309
7.58266
3.20843
