# vtk DataFile Version 2.0
Unstructured Grid by M++
ASCII
DATASET UNSTRUCTURED_GRID
POINTS 4225 float
  0.921875   0.593750 0
  0.921875   0.609375 0
  0.656250   0.609375 0
  0.671875   0.609375 0
  0.656250   0.546875 0
  0.671875   0.546875 0
  0.656250   0.562500 0
  0.656250   0.578125 0
  0.656250   0.593750 0
  0.671875   0.593750 0
  0.671875   0.562500 0
  0.671875   0.578125 0
  0.671875   0.625000 0
  0.671875   0.640625 0
  0.906250   0.578125 0
  0.890625   0.578125 0
  0.546875   0.515625 0
  1.000000   0.890625 0
  0.515625   0.640625 0
  0.515625   0.625000 0
  1.000000   0.875000 0
  0.515625   0.656250 0
  0.515625   0.687500 0
  0.515625   0.671875 0
  1.000000   0.921875 0
  0.546875   0.531250 0
  0.546875   0.546875 0
  0.546875   0.562500 0
  0.796875   0.531250 0
  0.953125   0.890625 0
  0.953125   0.875000 0
  0.953125   0.843750 0
  0.953125   0.828125 0
  0.953125   0.812500 0
  0.531250   0.562500 0
  0.531250   0.546875 0
  0.515625   0.562500 0
  0.515625   0.546875 0
  1.000000   0.812500 0
  0.781250   0.546875 0
  0.765625   0.546875 0
  0.859375   0.921875 0
  0.921875   0.671875 0
  0.609375   0.906250 0
  0.671875   0.656250 0
  0.609375   0.921875 0
  0.671875   0.671875 0
  0.671875   0.984375 0
  0.671875   1.000000 0
  0.906250   0.984375 0
  0.906250   1.000000 0
  0.921875   0.984375 0
  0.921875   1.000000 0
  0.859375   0.609375 0
  1.000000   0.781250 0
  0.515625   0.531250 0
  0.531250   0.531250 0
  0.531250   0.515625 0
  0.515625   0.515625 0
  1.000000   0.750000 0
  0.765625   0.531250 0
  0.781250   0.531250 0
  0.781250   0.515625 0
  0.765625   0.515625 0
  0.859375   0.875000 0
  0.921875   0.625000 0
  0.859375   0.890625 0
  0.921875   0.640625 0
  0.671875   0.968750 0
  0.671875   0.953125 0
  0.921875   0.968750 0
  0.921875   0.953125 0
  0.859375   0.593750 0
  0.859375   0.578125 0
  0.875000   0.578125 0
  0.828125   0.890625 0
  0.890625   0.640625 0
  0.593750   0.890625 0
  0.656250   0.640625 0
  0.593750   0.875000 0
  0.656250   0.625000 0
  0.578125   0.890625 0
  0.640625   0.640625 0
  0.578125   0.875000 0
  0.640625   0.625000 0
  0.968750   0.890625 0
  0.984375   0.890625 0
  0.968750   0.812500 0
  0.968750   0.828125 0
  0.984375   0.812500 0
  0.984375   0.828125 0
  1.000000   0.828125 0
  0.656250   0.953125 0
  0.640625   0.953125 0
  0.890625   0.968750 0
  0.906250   0.968750 0
  0.906250   0.953125 0
  0.890625   0.953125 0
  0.531250   0.703125 0
  0.531250   0.718750 0
  0.546875   0.718750 0
  0.546875   0.703125 0
  0.593750   0.578125 0
  0.562500   0.578125 0
  0.578125   0.578125 0
  0.843750   0.578125 0
  0.828125   0.578125 0
  0.828125   0.812500 0
  0.890625   0.562500 0
  0.828125   0.796875 0
  0.953125   0.906250 0
  0.953125   0.921875 0
  0.531250   0.859375 0
  0.593750   0.609375 0
  0.531250   0.843750 0
  0.593750   0.593750 0
  0.515625   0.843750 0
  0.578125   0.593750 0
  0.515625   0.859375 0
  0.578125   0.609375 0
  0.937500   0.859375 0
  1.000000   0.609375 0
  0.921875   0.859375 0
  0.984375   0.609375 0
  0.937500   0.796875 0
  0.921875   0.796875 0
  0.984375   0.546875 0
  0.562500   0.812500 0
  0.843750   0.796875 0
  0.843750   0.812500 0
  0.859375   0.796875 0
  0.859375   0.812500 0
  1.000000   0.906250 0
  0.984375   0.906250 0
  0.968750   0.906250 0
  0.968750   0.921875 0
  0.984375   0.921875 0
  0.593750   0.921875 0
  0.656250   0.671875 0
  0.593750   0.906250 0
  0.656250   0.656250 0
  0.578125   0.906250 0
  0.640625   0.656250 0
  0.578125   0.921875 0
  0.640625   0.671875 0
  1.000000   0.843750 0
  0.984375   0.843750 0
  0.968750   0.843750 0
  0.968750   0.859375 0
  0.968750   0.875000 0
  1.000000   0.859375 0
  0.984375   0.859375 0
  0.984375   0.875000 0
  0.656250   1.000000 0
  0.656250   0.984375 0
  0.656250   0.968750 0
  0.640625   0.968750 0
  0.640625   1.000000 0
  0.640625   0.984375 0
  0.843750   0.921875 0
  0.906250   0.671875 0
  0.843750   0.906250 0
  0.906250   0.656250 0
  0.828125   0.906250 0
  0.890625   0.656250 0
  0.828125   0.921875 0
  0.890625   0.671875 0
  0.781250   0.859375 0
  0.843750   0.609375 0
  0.781250   0.843750 0
  0.843750   0.593750 0
  0.765625   0.843750 0
  0.828125   0.593750 0
  0.765625   0.859375 0
  0.828125   0.609375 0
  0.968750   0.609375 0
  0.906250   0.859375 0
  0.953125   0.609375 0
  0.890625   0.859375 0
  0.937500   0.609375 0
  0.875000   0.859375 0
  0.562500   0.593750 0
  0.546875   0.593750 0
  0.531250   0.593750 0
  0.531250   0.609375 0
  0.562500   0.609375 0
  0.546875   0.609375 0
  0.609375   0.625000 0
  0.546875   0.875000 0
  0.609375   0.640625 0
  0.546875   0.890625 0
  0.625000   0.640625 0
  0.562500   0.890625 0
  0.625000   0.625000 0
  0.562500   0.875000 0
  0.921875   0.843750 0
  0.984375   0.593750 0
  0.937500   0.843750 0
  1.000000   0.593750 0
  0.921875   0.812500 0
  0.921875   0.828125 0
  0.984375   0.578125 0
  0.937500   0.828125 0
  1.000000   0.578125 0
  0.937500   0.812500 0
  1.000000   0.562500 0
  0.578125   0.828125 0
  0.921875   0.781250 0
  0.937500   0.781250 0
  1.000000   0.531250 0
  0.921875   0.765625 0
  0.984375   0.515625 0
  0.937500   0.765625 0
  0.625000   0.656250 0
  0.562500   0.906250 0
  0.609375   0.656250 0
  0.546875   0.906250 0
  0.625000   0.671875 0
  0.562500   0.921875 0
  0.609375   0.671875 0
  0.546875   0.921875 0
  0.859375   0.781250 0
  0.859375   0.765625 0
  0.828125   0.671875 0
  0.765625   0.921875 0
  0.828125   0.734375 0
  0.765625   0.984375 0
  0.875000   0.843750 0
  0.937500   0.593750 0
  0.890625   0.843750 0
  0.953125   0.593750 0
  0.906250   0.843750 0
  0.968750   0.593750 0
  0.906250   0.828125 0
  0.968750   0.578125 0
  0.937500   0.578125 0
  0.953125   0.578125 0
  0.906250   0.765625 0
  0.875000   0.765625 0
  0.953125   0.515625 0
  0.531250   0.781250 0
  0.671875   0.890625 0
  0.531250   0.921875 0
  0.953125   0.656250 0
  0.828125   0.781250 0
  0.843750   0.781250 0
  0.703125   0.984375 0
  0.687500   0.984375 0
  0.843750   0.875000 0
  0.906250   0.625000 0
  0.671875   0.781250 0
  0.734375   0.531250 0
  0.906250   0.609375 0
  0.671875   0.765625 0
  0.734375   0.515625 0
  0.906250   0.593750 0
  0.890625   0.593750 0
  0.875000   0.593750 0
  0.828125   0.875000 0
  0.890625   0.625000 0
  0.656250   0.781250 0
  0.718750   0.531250 0
  0.890625   0.609375 0
  0.656250   0.765625 0
  0.718750   0.515625 0
  0.875000   0.609375 0
  0.640625   0.765625 0
  0.703125   0.515625 0
  0.812500   0.921875 0
  0.875000   0.671875 0
  0.812500   0.875000 0
  0.875000   0.625000 0
  0.640625   0.781250 0
  0.703125   0.531250 0
  0.812500   0.515625 0
  0.750000   0.828125 0
  0.812500   0.578125 0
  0.687500   1.000000 0
  0.937500   0.656250 0
  0.875000   0.906250 0
  0.531250   0.656250 0
  0.890625   0.906250 0
  0.906250   0.906250 0
  0.562500   0.656250 0
  0.906250   0.890625 0
  0.562500   0.640625 0
  0.968750   0.625000 0
  0.906250   0.875000 0
  0.562500   0.625000 0
  0.937500   0.640625 0
  0.875000   0.890625 0
  0.890625   0.890625 0
  0.546875   0.640625 0
  0.953125   0.625000 0
  0.890625   0.875000 0
  0.546875   0.625000 0
  0.546875   0.687500 0
  0.890625   0.937500 0
  0.937500   0.625000 0
  0.875000   0.875000 0
  0.531250   0.625000 0
  0.531250   0.640625 0
  0.546875   0.656250 0
  0.937500   0.968750 0
  0.687500   0.968750 0
  0.953125   0.968750 0
  0.703125   0.968750 0
  0.968750   0.968750 0
  0.718750   0.968750 0
  0.718750   0.906250 0
  0.968750   0.953125 0
  0.718750   0.953125 0
  0.968750   0.937500 0
  0.859375   0.906250 0
  0.921875   0.656250 0
  0.718750   0.937500 0
  0.828125   0.531250 0
  0.937500   0.953125 0
  0.687500   0.953125 0
  0.953125   0.953125 0
  0.703125   0.953125 0
  0.703125   0.890625 0
  0.843750   0.515625 0
  0.953125   0.937500 0
  0.953125   1.000000 0
  0.703125   0.937500 0
  0.937500   0.937500 0
  0.687500   0.937500 0
  0.703125   0.906250 0
  0.718750   0.890625 0
  0.687500   0.890625 0
  0.687500   0.765625 0
  0.750000   0.515625 0
  0.687500   0.781250 0
  0.750000   0.531250 0
  0.859375   0.937500 0
  0.921875   0.687500 0
  0.687500   0.796875 0
  0.750000   0.546875 0
  0.578125   0.750000 0
  0.515625   1.000000 0
  0.843750   0.765625 0
  0.578125   0.734375 0
  0.515625   0.984375 0
  0.562500   0.734375 0
  0.828125   0.750000 0
  0.765625   1.000000 0
  0.562500   0.750000 0
  0.562500   0.718750 0
  0.578125   0.515625 0
  0.921875   0.703125 0
  0.921875   0.718750 0
  0.593750   0.515625 0
  0.687500   0.875000 0
  0.750000   0.625000 0
  0.578125   0.531250 0
  0.921875   0.750000 0
  0.703125   0.875000 0
  0.765625   0.625000 0
  0.593750   0.531250 0
  0.875000   0.968750 0
  0.937500   0.718750 0
  0.703125   0.828125 0
  0.765625   0.578125 0
  0.937500   0.734375 0
  0.703125   0.812500 0
  0.765625   0.562500 0
  0.890625   0.687500 0
  0.828125   0.937500 0
  0.656250   0.796875 0
  0.718750   0.546875 0
  0.890625   0.718750 0
  0.828125   0.968750 0
  0.906250   0.796875 0
  0.718750   0.828125 0
  0.781250   0.578125 0
  0.890625   0.703125 0
  0.828125   0.953125 0
  0.656250   0.859375 0
  0.906250   0.781250 0
  0.968750   0.531250 0
  0.546875   0.796875 0
  0.671875   0.796875 0
  0.734375   0.546875 0
  0.843750   0.953125 0
  0.906250   0.703125 0
  0.671875   0.875000 0
  0.718750   0.812500 0
  0.781250   0.562500 0
  0.875000   0.812500 0
  0.531250   0.890625 0
  0.593750   0.640625 0
  0.937500   0.890625 0
  0.875000   0.781250 0
  0.609375   0.703125 0
  0.546875   0.953125 0
  0.890625   0.796875 0
  0.625000   0.718750 0
  0.562500   0.968750 0
  0.906250   0.812500 0
  0.734375   0.859375 0
  0.796875   0.609375 0
  0.718750   0.875000 0
  0.781250   0.625000 0
  0.750000   0.859375 0
  0.812500   0.609375 0
  0.812500   0.546875 0
  0.750000   0.812500 0
  0.734375   0.843750 0
  0.796875   0.593750 0
  0.750000   0.843750 0
  0.812500   0.593750 0
[...]
CELL_DATA 4096
SCALARS scalar_value float 1
LOOKUP_TABLE default
1.04491
1.23214
1.39614
1.10468
0.851115
0.963056
0.986137
1.06126
0.78403
0.868244
0.743704
0.715561
1.23755
1.11625
0.922544
1.14458
1.8829
2.27599
2.32737
1.97897
2.52882
2.21455
1.94153
2.11846
3.39272
2.71869
3.07032
4.08488
1.18155
1.03966
1.01638
0.961922
2.81254
2.6335
3.41855
3.45377
1.35682
1.16393
1.00115
1.20987
1.45439
1.41029
1.60833
2.03539
5.79237
6.60897
4.78063
4.40206
0.938524
0.941654
1.20254
1.04539
5.56118
5.16821
4.32928
4.47297
1.03811
1.01102
1.09017
0.968717
2.64204
2.20819
2.19261
2.41716
2.38943
1.94513
1.71756
2.01224
3.2784
3.4033
4.22779
4.07107
4.34543
3.99301
4.5044
4.76537
3.32763
2.67209
3.01303
3.84637
1.00701
1.03658
0.971507
0.971935
0.966119
0.953788
1.07631
1.0024
4.64991
4.01574
4.43057
4.64402
2.20847
2.22845
2.67796
2.52297
0.937586
1.02152
0.929822
0.867087
1.11757
1.14468
1.0789
1.00485
3.25695
3.21124
3.48198
3.36616
1.80692
1.92551
1.76556
1.70833
1.27515
1.08916
1.05181
1.14924
1.42238
1.28195
1.1087
1.17895
4.00777
3.56639
3.10396
3.16231
2.48707
2.10875
2.07239
2.20152
1.35959
1.12612
0.958922
1.10604
1.54986
1.16516
1.27633
1.59599
3.84102
3.24988
3.44839
4.186
0.833022
1.02802
0.770625
0.740271
2.22779
2.28311
2.94596
2.76486
0.761517
0.994602
0.941185
0.800034
1.01929
0.965324
0.786613
0.728959
20.0302
16.5908
17.3933
20.9738
1.90812
1.57316
1.84332
2.31583
12.1911
14.3488
17.1551
16.0949
1.37342
1.45565
1.1933
1.22789
1.4301
1.248
1.19481
1.24199
1.60508
1.33823
1.87566
2.0798
9.03785
13.0308
10.3697
7.51774
1.33646
2.09123
1.86211
1.30726
1.43459
1.16263
1.65939
1.99877
1.00849
1.08239
1.23808
1.18872
14.0437
13.4898
9.95488
14.281
2.59982
2.14488
1.52627
1.39462
4.49782
2.61943
3.42878
4.40473
6.3488
4.50235
5.21056
4.28353
1.97428
6.20071
1.78935
1.34314
1.82524
1.52801
2.02653
1.79233
1.72702
1.44108
1.71776
5.28571
5.0145
4.82702
5.89779
5.26562
6.27424
2.06322
4.4806
4.90615
5.35262
0.584355
5.65646
0.742572
5.76581
0.50324
2.95851
1.39803
1.62205
1.97187
1.92869
4.89316
2.04354
5.38139
3.28723
3.46636
4.71693
3.51046
2.81781
4.85034
4.64349
2.55693
7.25507
2.88989
6.22892
2.93546
2.78542
4.63422
2.40616
5.82178
2.34838
5.26834
2.17498
6.08026
3.08098
2.99532
2.49552
4.14324
4.16463
2.4147
5.86679
3.71839
1.07555
3.6338
1.12487
3.33971
1.55772
1.60555
1.97854
1.63588
1.86816
4.11029
0.787895
1.64373
1.4935
1.61391
1.59685
1.00272
4.21769
2.38631
4.19863
0.85054
4.64271
0.650408
4.62088
0.575169
5.65782
3.03764
0.631326
5.40558
0.451396
3.67963
0.980891
5.1311
0.570639
3.61808
3.07229
4.64058
0.722035
4.76907
0.815575
1.84016
4.24958
1.93554
1.76884
1.65994
2.30926
1.45684
2.34529
1.41565
2.71895
5.49034
1.8167
4.25771
1.03487
4.86564
1.85719
5.08015
1.5522
2.10106
3.84482
2.09834
1.5848
2.09042
3.79163
1.59132
1.56754
1.9032
2.07271
4.56261
5.47926
0.999341
2.59034
3.91062
5.19613
3.23067
5.68035
6.35278
0.882435
5.01876
0.943912
5.2143
4.41373
6.84634
3.96244
6.64928
3.8479
3.06946
6.88394
2.78163
9.63997
5.69751
4.99527
3.53326
12.32
2.01101
2.2982
2.31156
2.07635
2.87819
1.28449
3.65094
1.17742
4.32773
1.67127
3.39592
1.5569
1.84571
3.83937
4.54352
1.51401
3.09576
4.34667
1.49624
4.60059
1.50847
1.99071
1.45553
2.0905
5.05496
1.77794
2.37038
2.4534
1.5195
1.70457
1.96716
1.6854
2.05993
2.02063
1.72933
2.07159
1.94093
1.59633
2.08137
2.92674
1.23483
1.7535
1.64079
4.38288
1.37148
4.21966
1.27338
3.50314
1.17497
3.9091
1.08887
3.30533
1.32578
3.64339
1.34583
2.94354
1.35348
2.20615
1.56827
3.45354
3.66633
3.24708
1.18931
2.48968
2.76428
1.88923
3.7464
2.76731
1.9731
2.09829
2.2119
4.61542
5.72399
1.11512
4.68836
2.67043
2.65139
2.69902
2.76228
1.24734
3.80221
2.72351
2.78246
2.92394
3.80119
3.4271
4.05195
2.34285
2.22778
2.09475
1.97788
1.63629
2.0336
1.96849
2.63935
2.83688
4.07305
1.79761
3.12011
9.80756
2.29069
3.29596
6.87241
5.58871
1.84132
6.69161
2.20734
3.02575
2.97175
2.53154
1.15356
5.40177
4.92121
6.29837
7.0721
0.562485
4.59972
7.13976
2.07258
1.45258
5.84994
6.49806
3.15123
1.55358
2.51423
1.42498
2.59289
11.278
5.19489
1.97987
3.47542
2.51456
7.8723
3.68018
5.2133
1.60993
3.5457
6.50126
1.60974
3.78528
1.34643
3.66989
2.29209
7.69678
5.31578
2.35003
2.25542
3.92783
3.89299
2.89959
6.44059
4.54104
1.73123
0.911566
3.87107
7.50503
4.97623
4.36749
1.69145
6.21277
0.384527
4.69939
7.13745
2.35993
1.64356
4.25995
4.77458
2.95287
7.20807
2.82173
3.14667
0.470657
5.4883
4.91356
4.96176
4.9654
4.50572
2.21898
0.458514
4.39435
6.47927
5.46839
7.55277
4.96002
6.68813
2.54343
5.47257
0.791078
3.85896
3.86035
1.50305
0.92972
4.33279
2.19803
2.1729
1.4256
7.01263
1.89472
0.581379
5.42375
3.3708
2.02486
4.88553
1.3045
2.15212
2.83616
1.49193
3.30484
5.22525
3.07762
2.4355
6.54461
5.38238
5.40028
1.59288
2.65073
1.63599
2.91888
2.07703
2.95021
1.27278
2.64277
8.59681
3.19336
5.51758
3.94995
1.90575
2.9906
1.4923
4.489
5.44539
1.30878
0.377588
5.15641
6.00109
2.68492
4.15106
1.70445
2.01568
2.60186
1.21771
2.83219
1.01254
4.19495
7.61966
3.37048
1.62919
2.17177
4.9595
0.58953
4.70904
7.59682
2.2036
1.39144
2.3001
6.29
5.89114
1.78971
3.60044
3.67909
0.903797
4.83057
3.93674
2.35365
4.16741
0.665233
5.18685
6.13398
4.12789
3.7432
1.17986
2.1544
1.4989
1.95632
6.05123
1.19784
1.48527
2.23979
2.56712
1.36104
1.61409
2.11279
1.23995
0.61606
4.61863
0.644621
4.95677
0.842187
3.28888
0.822529
3.66247
1.10609
2.84138
3.8442
8.11253
0.930434
3.06695
1.04035
2.41498
7.22914
6.93705
0.557149
5.52388
1.19571
2.20828
3.71139
1.44048
1.79259
1.25461
1.90355
1.15054
2.04029
1.3086
1.75251
7.54091
0.381234
4.55185
0.884845
3.0477
0.526587
4.88232
1.04856
2.09725
0.864925
2.63237
5.61714
4.52904
6.63635
0.460472
4.44085
0.703435
4.15051
4.005
0.903972
3.12975
1.23628
6.81738
0.90508
6.81912
1.03791
4.941
0.958591
5.22865
0.847503
1.71368
2.87235
3.44579
3.97887
1.20893
2.73993
2.99207
1.94149
3.11662
6.24861
0.76078
4.38612
3.08834
1.54375
0.810259
4.68812
5.28424
0.416862
5.78325
6.34496
2.16272
3.43481
1.76208
2.815
1.03979
2.74006
3.78442
0.90678
2.68215
2.07813
5.14286
2.28818
1.94936
2.67115
2.8287
1.0281
1.41413
3.29837
3.15956
1.55291
4.00134
1.7966
2.7371
1.89624
3.44976
1.86416
3.96828
1.51895
3.98411
1.52263
4.15009
15.4101
3.80699
13.0676
2.79932
11.7374
3.90209
14.567
4.79515
4.47714
7.00775
3.83488
5.91962
5.37368
4.4699
5.16814
5.12162
6.2503
1.03046
1.0645
0.9809
0.932229
19.2109
18.2172
16.3902
16.615
2.01452
2.08529
1.63286
1.5978
2.10213
2.25082
2.1478
2.41382
1.78573
2.41942
1.89926
2.30578
1.39292
7.04641
1.06175
7.08518
1.25586
6.32207
1.48925
6.17008
1.21812
1.4272
1.30083
1.39004
7.31685
6.68841
6.16905
6.87277
3.13996
3.20285
3.91253
3.13772
2.87557
2.76816
2.05728
3.36774
3.5611
2.23873
2.60132
3.48065
12.512
12.9234
12.1299
11.973
6.38376
0.643803
5.46052
0.999301
6.08308
1.10285
6.76054
0.893611
1.15354
1.03442
1.30792
1.38881
3.33428
3.43098
4.41242
3.82247
8.6743
4.5066
11.946
12.7378
8.47713
12.5295
13.2463
14.2186
12.1074
2.53806
5.26287
1.95112
4.24679
2.10176
3.71334
2.80021
4.57279
2.38449
2.81561
2.56482
2.47841
1.91393
2.22994
2.00589
2.36155
2.10494
2.81635
2.11528
3.19129
2.20237
2.20612
2.38336
2.08234
1.80778
1.37184
1.23911
1.57115
1.14242
3.55619
1.11102
3.461
1.42855
2.4753
1.19996
3.10082
2.69326
1.49908
2.36628
1.58506
2.69437
1.6481
3.11135
1.66343
1.39951
2.89119
1.68797
2.36582
1.71165
2.40552
1.25082
2.9609
1.17128
1.3499
1.28146
1.03282
5.9372
6.46762
4.97618
4.29703
6.0155
9.28299
9.0605
5.32571
2.88586
1.81185
2.44935
1.9038
3.08108
1.83796
3.74216
1.85841
1.58111
2.43512
1.58966
2.96385
2.33811
2.15531
1.87519
1.81109
1.09371
1.32723
1.83957
1.47598
1.71645
1.6272
1.51873
1.60772
2.84219
2.9206
3.50517
3.2511
3.30913
3.71481
4.87157
4.87746
3.38741
2.45024
2.69505
2.18134
2.33361
2.22502
2.75862
2.25717
2.27717
7.24895
2.86624
1.90795
2.42351
1.83556
2.59814
2.11182
3.07539
1.29178
1.57371
1.13868
1.03779
1.31715
2.52727
1.29504
2.89517
1.65299
2.49917
1.78437
2.49495
3.87006
3.52254
3.24626
3.35051
2.89233
2.93571
2.7666
2.82073
18.1844
15.2745
16.9539
19.1018
1.30517
2.60599
1.47227
3.17921
1.23291
2.61249
1.20015
2.45064
13.1753
13.7752
15.3266
14.2095
10.0849
12.8345
13.765
12.4072
11.4273
9.74563
13.5231
13.118
10.2895
8.24258
9.98895
11.7429
16.2508
16.0797
13.7819
13.7088
3.07698
3.83136
3.20429
0.814692
0.792659
0.794263
0.781651
0.798067
0.767526
0.893378
0.900448
0.591025
0.681367
0.720434
0.680798
0.787418
0.746606
0.611251
0.724955
5.62745
5.29319
5.42036
5.47339
6.66262
5.9669
5.992
6.05652
0.863293
1.03123
1.11296
0.929071
1.73268
1.77787
1.93803
1.84018
2.24319
2.31212
2.54934
2.61686
5.00467
5.00963
4.57784
4.48813
4.06912
4.83668
4.05259
3.74805
2.34064
2.15773
2.26457
2.26024
4.68515
4.84969
4.66826
4.03706
4.52619
5.08187
4.40142
3.62005
1.82015
2.1764
2.23141
1.9715
2.52537
2.93903
3.3242
3.13158
2.64361
2.31305
3.20356
3.31052
2.28434
2.21515
1.8328
2.01232
4.22139
3.10282
3.22516
4.26844
17.6127
18.5982
19.3529
15.8406
20.9301
19.5164
18.7007
20.2674
18.1089
20.083
21.7121
20.5123
19.6799
16.0449
17.1863
4.20231
3.9947
4.45052
4.73007
1.42575
1.22822
1.57355
1.77268
5.31362
4.66119
4.6405
4.71425
4.56901
4.98795
5.61875
5.05065
2.40756
2.90363
2.41537
2.41597
3.93233
3.98904
3.91256
4.12846
2.2221
2.57143
2.39034
2.20435
1.56325
1.63452
1.85307
1.82243
1.82186
1.59522
1.52223
1.89343
2.30504
2.69379
2.87385
2.74749
1.65167
1.65915
1.81976
1.43771
2.34938
2.90973
2.77358
2.26848
6.34173
9.44177
8.98032
6.3848
0.888212
1.17305
1.19783
1.03124
1.61739
1.61423
1.7752
1.49821
1.05118
1.09149
0.810029
0.924672
5.99842
6.18238
6.72111
6.65294
5.30644
6.88896
6.36005
5.56962
1.7857
1.5566
1.67594
1.69994
5.59888
6.05003
6.99462
5.60146
2.74011
2.71918
2.52165
2.60046
0.56469
0.430762
0.430523
0.506797
0.769787
1.01903
1.01386
0.87603
1.02168
1.00159
0.813568
0.979393
1.89968
2.0293
1.78355
1.64396
1.56398
1.32948
1.22957
1.4804
1.4929
1.7094
1.56967
1.2239
1.169
2.04945
3.22813
12.5224
0.850912
1.85374
3.49424
7.96713
1.67394
3.55007
11.4089
5.69234
3.97199
5.86959
5.88951
4.93511
5.37999
1.45378
11.6161
1.07218
16.603
1.19715
19.2143
5.56283
3.7698
4.85743
3.40585
6.30963
7.08426
6.21297
6.2431
4.5586
5.43274
1.66347
4.27907
3.49113
18.4965
7.10076
3.01085
18.4653
8.1708
2.01662
1.97037
2.30118
4.91395
16.0335
8.13094
18.8372
7.88466
5.18652
13.6737
6.04401
6.60799
4.11926
14.8805
6.63808
6.96383
3.07308
1.35003
2.54225
1.07393
2.60589
1.16565
1.90175
1.77433
2.86876
1.3649
1.76053
0.953478
1.65614
10.1527
3.24577
1.84686
3.62109
2.22236
1.73516
0.775392
3.56033
1.89624
1.95288
0.933019
2.03714
0.628431
2.05353
3.83105
2.21259
3.40244
1.9798
2.90271
2.0508
3.36013
12.5332
2.78781
10.3692
2.74895
6.14915
6.22332
1.94986
8.274
2.91491
4.50708
2.0752
2.65755
3.46214
3.34694
3.05709
3.43258
2.92879
3.81659
3.42031
4.11608
14.7928
1.91228
15.1314
2.51374
15.2872
2.85152
17.1495
2.32625
1.26539
2.27152
9.07948
5.24674
7.87722
6.1413
3.79433
5.11204
4.6662
5.47769
8.49724
6.22672
5.48774
5.24621
2.04608
2.72308
3.15812
2.28901
2.84595
2.27512
2.05413
2.32205
1.88329
2.04716
2.46793
2.77416
1.25212
2.08394
2.58207
6.13393
2.56126
1.72333
1.32363
5.2911
1.95811
2.45734
5.84855
2.15156
6.60813
2.56185
9.24203
4.63269
9.37571
4.42857
12.9586
2.61454
3.008
1.90098
4.17267
1.74245
3.73344
1.87562
2.87804
1.74078
3.12253
1.75519
3.51005
1.65946
4.50896
1.50753
3.63016
1.46942
2.87014
2.60687
2.18306
2.13209
1.80064
1.97624
4.80134
2.00761
2.79695
1.89227
3.9988
1.92756
2.74775
2.01873
6.46546
2.58323
1.69441
5.95904
1.63113
2.84192
1.60387
7.09411
7.8636
9.74418
8.17275
12.3244
5.89974
1.26872
1.98944
3.2504
2.6947
1.89319
2.38218
4.24611
5.73855
2.08906
3.43473
4.82294
2.78308
3.12422
3.19203
3.25004
5.81872
3.95206
3.23018
2.77581
2.41443
2.90336
4.91779
3.20921
2.34076
3.57706
2.23636
2.47161
7.79444
1.29285
2.82306
3.24043
3.18771
2.39344
3.77152
3.76112
6.9525
1.22223
11.7321
9.41442
1.87535
1.04983
8.59684
1.81315
1.59933
12.4451
1.60365
1.98279
6.86325
1.60658
15.7921
1.52287
2.84442
1.95281
1.57646
0.475019
2.10008
2.03128
1.68079
0.511266
2.98274
1.53621
15.5426
5.32374
0.632637
2.00572
15.7662
1.31042
1.60789
12.0729
1.81074
2.53372
4.19807
5.27345
4.17401
2.18454
0.791283
1.79373
12.7323
5.7081
4.02162
1.29871
2.29732
1.58678
2.3503
1.9864
3.03799
1.55494
2.36235
3.84597
12.2725
11.4024
9.43307
1.44926
0.416478
11.2037
1.1664
1.69454
0.455321
1.62737
3.82323
17.3059
9.83099
1.76942
0.465282
19.1519
1.04869
1.65026
0.440789
8.49501
10.4214
6.30142
5.93278
0.761038
2.11798
0.524645
2.08426
1.8286
0.427118
1.1174
2.2781
1.57341
0.421222
2.25211
2.20184
0.749017
1.9573
2.17199
2.55716
9.24744
9.48061
0.61143
1.8483
5.33808
1.23571
1.02704
2.03714
2.9149
2.69554
1.22041
2.28131
1.64532
4.68955
1.45914
2.47804
1.94396
3.18814
1.37784
1.99817
1.20405
4.02195
1.52186
1.3627
1.04
2.09486
1.84425
2.0719
2.49773
17.6394
2.2126
0.942981
1.29294
2.66005
11.0902
1.96628
0.564769
7.41286
7.80194
0.712727
1.97389
1.15017
9.54556
8.40718
4.90329
4.44121
0.94836
1.82213
0.549348
2.10566
2.06088
0.482765
9.8957
1.13626
10.0682
4.65222
15.7259
1.09199
6.79549
9.00809
0.866122
2.10837
4.66717
5.61777
1.68133
5.05845
13.0794
10.1735
8.65567
2.16067
1.37239
2.12435
1.251
1.95482
0.485961
1.99505
12.4998
5.91738
7.11045
0.995703
2.02017
8.95138
9.96488
0.832129
1.75975
1.49654
9.63192
9.09112
14.9257
1.14801
1.21877
9.23849
2.23125
3.01247
3.42744
3.55012
1.20624
6.96736
1.36543
16.5516
1.82902
2.86816
4.62373
0.805444
1.85211
3.8333
4.35961
2.0771
1.80156
4.49414
2.0063
3.36156
2.57986
1.56848
2.65231
7.71608
13.4348
1.59948
2.00194
1.49387
1.52479
6.27265
16.9448
7.17706
9.20071
1.28236
2.30969
0.798068
4.95055
1.28829
7.16042
3.46573
5.65388
0.866893
4.71644
1.38404
5.19563
4.72648
5.33
1.02215
6.82714
1.48729
2.42989
0.988337
6.70514
5.79364
8.55859
5.8007
1.53906
7.22034
1.99956
5.96525
10.7209
2.84611
9.65873
2.06303
1.9179
0.730691
1.93766
0.605444
2.49173
3.31429
1.95091
2.86669
1.95916
2.32204
1.55206
2.27842
2.34043
2.15026
1.87532
2.8891
7.91139
7.34904
2.18486
2.2738
5.36267
2.49227
2.37435
6.34805
3.67202
6.45797
3.684
5.05981
3.43227
4.39239
3.48411
1.49289
2.27575
1.04816
2.012
7.74744
4.45686
5.22511
6.31562
5.68958
6.97876
1.74213
2.49053
7.06412
8.98862
2.98216
1.83356
0.597409
1.3482
3.66083
7.1519
5.89403
5.72342
6.69681
0.748041
4.33028
0.687942
4.24521
0.818836
3.94947
0.881249
3.8212
2.63763
1.67396
2.06072
3.568
6.60479
6.73464
2.55101
6.58466
6.18218
5.7818
6.35803
6.32682
3.13982
0.751701
2.69661
0.724613
3.11388
0.739264
3.82761
0.753982
1.70788
1.91219
1.80643
1.75781
4.39
3.66986
2.53203
3.33407
5.056
5.28647
5.81185
5.33962
0.37873
0.37103
0.396261
0.397407
1.44047
7.76375
1.24086
8.50355
1.18489
11.7313
1.28982
8.92504
1.6475
2.8202
1.90736
3.29664
1.93951
4.34823
1.66458
2.99266
0.507457
0.607462
0.480302
0.415954
4.53116
5.98937
6.055
5.3142
2.80097
7.3957
5.85614
6.29122
4.70434
5.50104
5.02554
6.28182
5.45366
12.8163
5.4183
13.5969
5.3862
12.9414
5.66563
10.9111
5.71037
2.89892
4.56777
2.21878
3.7905
2.04423
3.62784
2.91704
4.35183
3.19888
4.54271
3.78912
2.88003
1.64433
6.03453
1.58558
1.22936
1.14544
1.9842
6.49579
1.63439
6.08436
1.79757
6.34092
1.95765
7.37215
1.75716
7.27554
1.29908
7.41388
1.2868
7.49937
1.67357
6.78518
4.76262
7.31593
6.22349
5.51741
6.50726
1.68354
5.47707
1.46285
3.97185
1.50701
4.09754
1.83654
5.41678
0.762143
3.2194
0.78005
3.76711
0.757264
3.4821
0.682365
2.69133
1.35789
4.33873
1.51246
4.98779
1.34239
3.59497
0.839757
2.53492
0.73978
2.31656
0.736829
2.68358
0.814174
2.585
17.9594
3.40982
17.2368
3.66174
17.2662
4.23758
8.13254
19.3119
3.62986
13.5116
11.3285
10.8706
11.548
1.00485
3.80812
1.08719
3.26091
1.57357
4.02378
1.61347
3.96558
6.21908
7.80832
6.26409
4.59836
1.87109
1.78547
1.69711
1.97381
10.5471
9.6424
13.0236
10.97
1.89369
7.62734
2.04594
12.6181
2.07424
12.0008
2.07245
8.09505
5.70909
5.86047
6.50043
6.19614
6.34931
6.07673
5.99015
6.40177
6.20896
7.03608
6.99786
6.88828
5.28967
5.08169
5.73924
5.88577
4.30761
5.45535
5.94043
4.8413
5.64443
6.38157
5.33333
4.55732
2.30793
2.39401
2.47669
2.1699
2.12973
2.04689
2.41508
2.28546
2.04626
1.8236
1.86077
2.37323
5.49019
3.95513
5.56398
8.41672
1.03576
0.803093
0.547833
0.741289
2.47062
1.37928
2.55237
1.52179
2.08609
1.31433
2.11421
4.86789
1.62447
6.4904
1.44405
5.45934
1.52362
4.04281
1.65509
3.93208
2.969
2.19111
3.00876
11.1955
10.5328
8.27968
8.55266
2.42957
3.04496
2.44954
2.8104
3.16053
2.66147
2.24078
2.51561
2.89464
2.99378
3.20545
4.13897
3.73537
2.93338
4.25359
3.1284
3.59258
4.1413
7.31892
5.23684
5.4795
7.00703
5.98254
5.1172
6.52561
6.594
7.88418
7.43941
7.54064
8.10448
3.54733
4.24595
4.84108
4.75358
4.54784
4.16541
3.39855
3.42308
1.80022
1.58408
2.06626
1.93156
1.33746
1.42622
1.16056
1.27448
1.33561
1.01049
0.943461
1.92797
1.64592
1.54046
1.71234
0.662553
0.397557
0.422921
0.734713
5.66873
5.54237
4.60755
4.73158
0.481682
0.381242
0.694259
0.748758
3.69456
4.26953
3.10546
2.78131
3.0738
3.42683
3.89212
4.18937
0.343968
0.299671
0.421775
0.402036
2.96067
3.40077
3.54075
3.05862
0.310847
0.297157
0.340674
0.304084
4.07319
3.31656
3.17789
4.30656
1.93069
1.92379
2.00976
1.77601
2.24927
2.28839
2.15884
2.25953
5.6897
7.42173
6.06155
5.62464
8.13732
8.50379
8.4503
7.55991
6.8181
7.18411
6.36544
6.02727
8.31814
9.12994
8.55006
8.58638
6.26057
7.16358
6.67517
6.10575
8.79319
10.0671
10.1489
9.25653
1.08351
0.66107
0.576507
0.892074
3.57487
3.14997
3.63269
4.6198
3.17607
3.6451
3.51462
2.98425
2.74367
2.41591
2.13613
2.49413
6.59366
6.57448
5.96515
5.34122
7.49685
4.73181
4.7402
3.28395
3.57528
5.06467
5.61491
6.19527
5.79304
5.87599
4.5887
5.48496
6.82351
5.98365
3.02988
2.4604
3.46847
4.87206
3.18282
3.41239
2.88239
1.6084
1.98549
1.6559
1.29786
4.08068
4.78121
6.72463
5.61444
8.61816
7.42589
7.13071
8.81506
9.17448
7.88339
7.50799
8.22197
8.49749
8.52498
10.5116
10.5341
6.55784
7.03254
6.73006
5.92692
2.73014
2.16757
1.61385
2.15276
2.3133
2.29507
2.05474
2.09712
3.93709
3.16795
3.01343
4.12826
2.15743
2.12097
2.60954
2.83499
3.42118
3.134
4.14031
4.59174
1.40045
1.78155
1.61634
1.51097
2.25748
2.47377
2.88577
2.52871
1.42057
12.4202
7.90603
14.125
1.32249
8.96505
13.79
1.25428
5.46039
4.74756
7.07628
3.46421
3.22175
7.03936
3.61648
5.73635
2.35735
18.5226
10.0066
5.82338
7.23148
4.41807
8.29419
4.60739
8.81794
4.03103
7.96306
3.71352
7.91943
6.10356
9.37599
3.2077
10.2644
3.63018
1.07086
5.77504
7.27128
1.05278
10.7837
15.0225
2.36399
13.5992
14.6602
6.33946
6.28297
4.84984
6.2647
5.37931
7.3136
11.7822
2.59099
6.87248
2.77884
6.58699
2.33901
6.66366
2.23134
8.10064
3.68098
5.31894
2.01278
7.75254
2.19486
7.37938
5.34145
4.86179
3.65585
5.97538
9.08485
4.22988
1.48135
7.86358
7.72328
1.26128
9.49151
8.48801
8.28926
1.28073
8.32811
2.33557
9.80261
2.7264
3.31498
2.21986
12.4071
14.8607
4.41115
2.19283
12.5566
9.90592
7.43932
10.9621
8.485
9.59429
3.64884
11.5951
7.63199
5.71784
7.75526
10.3673
8.34844
3.05602
7.92905
4.06921
6.77014
2.91786
0.686456
9.41515
0.547479
10.8378
11.3967
7.2956
20.3591
9.02049
8.01363
5.10051
10.689
6.67838
13.6904
2.23522
7.8199
21.5536
8.71959
6.27809
17.3511
2.58335
7.08678
9.66258
1.74144
9.35339
1.74751
6.94732
13.4253
8.03891
11.7748
10.124
10.8123
8.73685
0.692012
13.5342
9.48718
2.48302
0.567889
13.0183
5.06143
4.31667
0.570499
15.3434
0.658513
16.0707
7.77837
17.0701
8.52845
13.1185
9.85096
4.76712
8.13029
16.6153
10.7784
4.57364
10.7691
3.05392
7.12165
11.6202
10.0202
3.29157
20.057
8.20598
21.108
7.7962
8.21706
3.91426
7.83989
4.7701
16.4419
15.5406
0.681546
5.8936
8.69872
2.9808
0.576646
7.45742
0.701032
6.06406
6.77796
4.92512
0.801274
4.68657
14.4659
7.80287
7.46542
6.96783
9.02051
0.592531
11.2099
3.28309
6.58823
0.644564
8.19303
4.01111
4.44777
7.76062
7.66781
0.773534
6.48785
3.32859
12.2562
0.687285
11.6653
3.17629
8.16243
7.68333
3.01732
8.91172
3.33127
4.7362
5.62418
2.48113
8.53925
9.10928
4.44232
13.5946
5.83002
14.7125
6.05389
5.7309
11.6283
7.50967
10.5913
3.02095
6.65036
6.90375
2.74687
6.2877
4.5631
7.02727
5.21493
3.66553
8.02495
5.86983
3.78662
5.64598
2.42898
6.21279
8.80568
2.88152
5.6379
4.95108
4.54733
3.27353
5.58223
4.34769
2.52668
3.98981
2.25636
2.64167
2.75075