# vtk DataFile Version 2.0
Unstructured Grid by M++
ASCII
DATASET UNSTRUCTURED_GRID
POINTS 4225 float
  0.921875   0.593750 0
  0.921875   0.609375 0
  0.656250   0.609375 0
  0.671875   0.609375 0
  0.656250   0.546875 0
  0.671875   0.546875 0
  0.656250   0.562500 0
  0.656250   0.578125 0
  0.656250   0.593750 0
  0.671875   0.593750 0
  0.671875   0.562500 0
  0.671875   0.578125 0
  0.671875   0.625000 0
  0.671875   0.640625 0
  0.906250   0.578125 0
  0.890625   0.578125 0
  0.546875   0.515625 0
  1.000000   0.890625 0
  0.515625   0.640625 0
  0.515625   0.625000 0
  1.000000   0.875000 0
  0.515625   0.656250 0
  0.515625   0.687500 0
  0.515625   0.671875 0
  1.000000   0.921875 0
  0.546875   0.531250 0
  0.546875   0.546875 0
  0.546875   0.562500 0
  0.796875   0.531250 0
  0.953125   0.890625 0
  0.953125   0.875000 0
  0.953125   0.843750 0
  0.953125   0.828125 0
  0.953125   0.812500 0
  0.531250   0.562500 0
  0.531250   0.546875 0
  0.515625   0.562500 0
  0.515625   0.546875 0
  1.000000   0.812500 0
  0.781250   0.546875 0
  0.765625   0.546875 0
  0.859375   0.921875 0
  0.921875   0.671875 0
  0.609375   0.906250 0
  0.671875   0.656250 0
  0.609375   0.921875 0
  0.671875   0.671875 0
  0.671875   0.984375 0
  0.671875   1.000000 0
  0.906250   0.984375 0
  0.906250   1.000000 0
  0.921875   0.984375 0
  0.921875   1.000000 0
  0.859375   0.609375 0
  1.000000   0.781250 0
  0.515625   0.531250 0
  0.531250   0.531250 0
  0.531250   0.515625 0
  0.515625   0.515625 0
  1.000000   0.750000 0
  0.765625   0.531250 0
  0.781250   0.531250 0
  0.781250   0.515625 0
  0.765625   0.515625 0
  0.859375   0.875000 0
  0.921875   0.625000 0
  0.859375   0.890625 0
  0.921875   0.640625 0
  0.671875   0.968750 0
  0.671875   0.953125 0
  0.921875   0.968750 0
  0.921875   0.953125 0
  0.859375   0.593750 0
  0.859375   0.578125 0
  0.875000   0.578125 0
  0.828125   0.890625 0
  0.890625   0.640625 0
  0.593750   0.890625 0
  0.656250   0.640625 0
  0.593750   0.875000 0
  0.656250   0.625000 0
  0.578125   0.890625 0
  0.640625   0.640625 0
  0.578125   0.875000 0
  0.640625   0.625000 0
  0.968750   0.890625 0
  0.984375   0.890625 0
  0.968750   0.812500 0
  0.968750   0.828125 0
  0.984375   0.812500 0
  0.984375   0.828125 0
  1.000000   0.828125 0
  0.656250   0.953125 0
  0.640625   0.953125 0
  0.890625   0.968750 0
  0.906250   0.968750 0
  0.906250   0.953125 0
  0.890625   0.953125 0
  0.531250   0.703125 0
  0.531250   0.718750 0
  0.546875   0.718750 0
  0.546875   0.703125 0
  0.593750   0.578125 0
  0.562500   0.578125 0
  0.578125   0.578125 0
  0.843750   0.578125 0
  0.828125   0.578125 0
  0.828125   0.812500 0
  0.890625   0.562500 0
  0.828125   0.796875 0
  0.953125   0.906250 0
  0.953125   0.921875 0
  0.531250   0.859375 0
  0.593750   0.609375 0
  0.531250   0.843750 0
  0.593750   0.593750 0
  0.515625   0.843750 0
  0.578125   0.593750 0
  0.515625   0.859375 0
  0.578125   0.609375 0
  0.937500   0.859375 0
  1.000000   0.609375 0
  0.921875   0.859375 0
  0.984375   0.609375 0
  0.937500   0.796875 0
  0.921875   0.796875 0
  0.984375   0.546875 0
  0.562500   0.812500 0
  0.843750   0.796875 0
  0.843750   0.812500 0
  0.859375   0.796875 0
  0.859375   0.812500 0
  1.000000   0.906250 0
  0.984375   0.906250 0
  0.968750   0.906250 0
  0.968750   0.921875 0
  0.984375   0.921875 0
  0.593750   0.921875 0
  0.656250   0.671875 0
  0.593750   0.906250 0
  0.656250   0.656250 0
  0.578125   0.906250 0
  0.640625   0.656250 0
  0.578125   0.921875 0
  0.640625   0.671875 0
  1.000000   0.843750 0
  0.984375   0.843750 0
  0.968750   0.843750 0
  0.968750   0.859375 0
  0.968750   0.875000 0
  1.000000   0.859375 0
  0.984375   0.859375 0
  0.984375   0.875000 0
  0.656250   1.000000 0
  0.656250   0.984375 0
  0.656250   0.968750 0
  0.640625   0.968750 0
  0.640625   1.000000 0
  0.640625   0.984375 0
  0.843750   0.921875 0
  0.906250   0.671875 0
  0.843750   0.906250 0
  0.906250   0.656250 0
  0.828125   0.906250 0
  0.890625   0.656250 0
  0.828125   0.921875 0
  0.890625   0.671875 0
  0.781250   0.859375 0
  0.843750   0.609375 0
  0.781250   0.843750 0
  0.843750   0.593750 0
  0.765625   0.843750 0
  0.828125   0.593750 0
  0.765625   0.859375 0
  0.828125   0.609375 0
  0.968750   0.609375 0
  0.906250   0.859375 0
  0.953125   0.609375 0
  0.890625   0.859375 0
  0.937500   0.609375 0
  0.875000   0.859375 0
  0.562500   0.593750 0
  0.546875   0.593750 0
  0.531250   0.593750 0
  0.531250   0.609375 0
  0.562500   0.609375 0
  0.546875   0.609375 0
  0.609375   0.625000 0
  0.546875   0.875000 0
  0.609375   0.640625 0
  0.546875   0.890625 0
  0.625000   0.640625 0
  0.562500   0.890625 0
  0.625000   0.625000 0
  0.562500   0.875000 0
  0.921875   0.843750 0
  0.984375   0.593750 0
  0.937500   0.843750 0
  1.000000   0.593750 0
  0.921875   0.812500 0
  0.921875   0.828125 0
  0.984375   0.578125 0
  0.937500   0.828125 0
  1.000000   0.578125 0
  0.937500   0.812500 0
  1.000000   0.562500 0
  0.578125   0.828125 0
  0.921875   0.781250 0
  0.937500   0.781250 0
  1.000000   0.531250 0
  0.921875   0.765625 0
  0.984375   0.515625 0
  0.937500   0.765625 0
  0.625000   0.656250 0
  0.562500   0.906250 0
  0.609375   0.656250 0
  0.546875   0.906250 0
  0.625000   0.671875 0
  0.562500   0.921875 0
  0.609375   0.671875 0
  0.546875   0.921875 0
  0.859375   0.781250 0
  0.859375   0.765625 0
  0.828125   0.671875 0
  0.765625   0.921875 0
  0.828125   0.734375 0
  0.765625   0.984375 0
  0.875000   0.843750 0
  0.937500   0.593750 0
  0.890625   0.843750 0
  0.953125   0.593750 0
  0.906250   0.843750 0
  0.968750   0.593750 0
  0.906250   0.828125 0
  0.968750   0.578125 0
  0.937500   0.578125 0
  0.953125   0.578125 0
  0.906250   0.765625 0
  0.875000   0.765625 0
  0.953125   0.515625 0
  0.531250   0.781250 0
  0.671875   0.890625 0
  0.531250   0.921875 0
  0.953125   0.656250 0
  0.828125   0.781250 0
  0.843750   0.781250 0
  0.703125   0.984375 0
  0.687500   0.984375 0
  0.843750   0.875000 0
  0.906250   0.625000 0
  0.671875   0.781250 0
  0.734375   0.531250 0
  0.906250   0.609375 0
  0.671875   0.765625 0
  0.734375   0.515625 0
  0.906250   0.593750 0
  0.890625   0.593750 0
  0.875000   0.593750 0
  0.828125   0.875000 0
  0.890625   0.625000 0
  0.656250   0.781250 0
  0.718750   0.531250 0
  0.890625   0.609375 0
  0.656250   0.765625 0
  0.718750   0.515625 0
  0.875000   0.609375 0
  0.640625   0.765625 0
  0.703125   0.515625 0
  0.812500   0.921875 0
  0.875000   0.671875 0
  0.812500   0.875000 0
  0.875000   0.625000 0
  0.640625   0.781250 0
  0.703125   0.531250 0
  0.812500   0.515625 0
  0.750000   0.828125 0
  0.812500   0.578125 0
  0.687500   1.000000 0
  0.937500   0.656250 0
  0.875000   0.906250 0
  0.531250   0.656250 0
  0.890625   0.906250 0
  0.906250   0.906250 0
  0.562500   0.656250 0
  0.906250   0.890625 0
  0.562500   0.640625 0
  0.968750   0.625000 0
  0.906250   0.875000 0
  0.562500   0.625000 0
  0.937500   0.640625 0
  0.875000   0.890625 0
  0.890625   0.890625 0
  0.546875   0.640625 0
  0.953125   0.625000 0
  0.890625   0.875000 0
  0.546875   0.625000 0
  0.546875   0.687500 0
  0.890625   0.937500 0
  0.937500   0.625000 0
  0.875000   0.875000 0
  0.531250   0.625000 0
  0.531250   0.640625 0
  0.546875   0.656250 0
  0.937500   0.968750 0
  0.687500   0.968750 0
  0.953125   0.968750 0
  0.703125   0.968750 0
  0.968750   0.968750 0
  0.718750   0.968750 0
  0.718750   0.906250 0
  0.968750   0.953125 0
  0.718750   0.953125 0
  0.968750   0.937500 0
  0.859375   0.906250 0
  0.921875   0.656250 0
  0.718750   0.937500 0
  0.828125   0.531250 0
  0.937500   0.953125 0
  0.687500   0.953125 0
  0.953125   0.953125 0
  0.703125   0.953125 0
  0.703125   0.890625 0
  0.843750   0.515625 0
  0.953125   0.937500 0
  0.953125   1.000000 0
  0.703125   0.937500 0
  0.937500   0.937500 0
  0.687500   0.937500 0
  0.703125   0.906250 0
  0.718750   0.890625 0
  0.687500   0.890625 0
  0.687500   0.765625 0
  0.750000   0.515625 0
  0.687500   0.781250 0
  0.750000   0.531250 0
  0.859375   0.937500 0
  0.921875   0.687500 0
  0.687500   0.796875 0
  0.750000   0.546875 0
  0.578125   0.750000 0
  0.515625   1.000000 0
  0.843750   0.765625 0
  0.578125   0.734375 0
  0.515625   0.984375 0
  0.562500   0.734375 0
  0.828125   0.750000 0
  0.765625   1.000000 0
  0.562500   0.750000 0
  0.562500   0.718750 0
  0.578125   0.515625 0
  0.921875   0.703125 0
  0.921875   0.718750 0
  0.593750   0.515625 0
  0.687500   0.875000 0
  0.750000   0.625000 0
  0.578125   0.531250 0
  0.921875   0.750000 0
  0.703125   0.875000 0
  0.765625   0.625000 0
  0.593750   0.531250 0
  0.875000   0.968750 0
  0.937500   0.718750 0
  0.703125   0.828125 0
  0.765625   0.578125 0
  0.937500   0.734375 0
  0.703125   0.812500 0
  0.765625   0.562500 0
  0.890625   0.687500 0
  0.828125   0.937500 0
  0.656250   0.796875 0
  0.718750   0.546875 0
  0.890625   0.718750 0
  0.828125   0.968750 0
  0.906250   0.796875 0
  0.718750   0.828125 0
  0.781250   0.578125 0
  0.890625   0.703125 0
  0.828125   0.953125 0
  0.656250   0.859375 0
  0.906250   0.781250 0
  0.968750   0.531250 0
  0.546875   0.796875 0
  0.671875   0.796875 0
  0.734375   0.546875 0
  0.843750   0.953125 0
  0.906250   0.703125 0
  0.671875   0.875000 0
  0.718750   0.812500 0
  0.781250   0.562500 0
  0.875000   0.812500 0
  0.531250   0.890625 0
  0.593750   0.640625 0
  0.937500   0.890625 0
  0.875000   0.781250 0
  0.609375   0.703125 0
  0.546875   0.953125 0
  0.890625   0.796875 0
  0.625000   0.718750 0
  0.562500   0.968750 0
  0.906250   0.812500 0
  0.734375   0.859375 0
  0.796875   0.609375 0
  0.718750   0.875000 0
  0.781250   0.625000 0
  0.750000   0.859375 0
  0.812500   0.609375 0
  0.812500   0.546875 0
  0.750000   0.812500 0
  0.734375   0.843750 0
  0.796875   0.593750 0
  0.750000   0.843750 0
  0.812500   0.593750 0
[...]
CELL_DATA 4096
SCALARS scalar_value float 1
LOOKUP_TABLE default
3.47787
3.46692
2.84305
2.93857
4.70638
4.14103
3.66339
4.71794
4.27437
4.11362
4.81947
4.68086
2.94686
3.48949
3.30627
2.87781
5.74334
5.2851
4.86872
4.97663
6.24488
6.05198
6.8635
6.67611
6.18269
6.49253
7.01002
7.19899
2.6458
3.14672
3.51195
2.82308
4.79447
5.38201
5.99147
4.84158
4.00131
3.16665
3.54949
3.86381
2.32949
2.3152
1.89777
1.91597
4.68789
4.32977
5.32541
4.60539
2.49429
2.83763
2.32346
2.12296
3.37868
3.2838
3.27329
3.58551
3.60925
4.45686
4.00148
3.52194
2.34183
2.73122
2.17764
2.18044
1.48209
1.38872
1.55854
1.78758
6.36598
5.91487
6.02602
6.23893
1.23011
1.22552
0.930112
0.887203
3.55065
3.01611
3.116
3.76157
2.24074
2.57496
2.9584
2.72667
2.91288
2.59269
3.37128
3.36659
1.5865
1.43425
1.51293
1.67847
3.28804
2.83359
4.18075
3.91465
3.27464
2.40264
2.16046
2.65355
2.80942
2.499
2.7588
3.20727
1.48546
1.32065
1.54587
1.8042
2.24228
2.54974
2.92276
2.42599
4.49835
4.1482
3.46715
3.90936
4.08715
4.23839
3.85013
3.12048
1.15242
1.27538
1.48522
1.5726
2.24787
2.7483
3.15025
2.55344
1.73814
2.11845
2.17615
1.86223
1.84454
2.00101
2.39463
1.94381
5.53016
5.50202
4.80372
4.6482
2.12919
2.03643
2.44665
2.51715
1.71413
2.25092
1.65756
1.34353
2.71835
2.13658
2.16278
2.77229
3.03043
2.35592
2.22054
2.9172
7.65162
8.17176
9.76354
8.1508
1.29641
1.59662
1.36846
1.06615
8.22421
8.678
7.5081
7.06265
1.61426
1.89051
2.55077
2.25034
2.03623
1.98629
1.92481
1.75431
1.08665
1.37013
1.18688
0.997187
10.102
9.21305
8.84204
8.29437
1.85421
1.86798
1.52474
1.93074
2.27373
2.19234
2.5709
2.833
2.01169
1.77338
1.29368
1.50516
10.0275
9.42534
11.8314
10.8597
1.4266
2.1148
2.82464
1.80285
0.705877
4.64793
1.95469
2.00009
2.13369
2.22554
2.17242
1.46367
5.27963
1.36648
7.12426
3.91703
2.84262
3.09641
3.07042
2.42495
2.90479
3.76494
3.16748
1.82484
2.46339
2.11763
1.81118
1.92653
2.10647
1.3549
2.49102
2.31572
2.35065
7.0536
1.67581
7.56756
2.13459
7.28003
2.36441
3.77019
2.45306
2.63987
2.13895
0.833523
2.52942
0.915633
2.73289
2.75412
2.69091
2.53026
2.48193
4.85283
2.7361
2.62183
4.61983
2.69039
3.76297
2.37363
2.666
4.0854
1.49633
0.49366
1.7309
0.594154
1.93197
0.698954
1.97927
1.97795
2.03304
1.66498
1.38024
1.63817
0.499954
2.88718
6.87526
2.82062
7.17959
2.88022
6.43182
3.30083
5.12064
3.21708
5.37007
2.94872
7.02437
3.33691
6.18053
3.69595
4.40185
1.88917
0.796839
3.58078
2.50842
4.54361
2.73586
3.66642
3.09652
4.32574
3.31505
2.8643
4.85777
2.60466
4.7525
2.19626
3.87801
2.59508
4.08904
1.85127
7.24654
2.78713
4.05569
2.15605
7.06304
1.76397
0.535587
1.98074
1.0978
3.59891
3.52345
4.66128
2.87254
4.83391
3.20585
1.41811
6.82004
2.15248
6.22744
1.20039
5.24771
1.95873
6.99206
1.54142
0.664447
1.74243
1.31749
5.82418
2.04982
6.02582
5.22881
5.18872
1.45989
0.62758
1.96878
6.76578
6.15752
2.01186
1.38225
2.03515
1.99837
1.76578
3.00181
1.68547
3.73875
3.04031
3.2061
3.10418
4.08153
3.077
2.80786
2.41255
3.41999
2.4111
4.43574
3.56664
4.11952
3.01166
4.45897
1.41801
2.20792
1.77352
1.36507
1.0462
2.42589
1.1211
2.26958
0.820834
1.80402
0.840932
1.8433
1.82164
1.71439
1.79437
1.79143
1.83113
1.13918
2.77306
1.19077
3.01053
3.42121
6.20966
1.48491
0.484183
2.00059
1.07074
2.92384
6.98009
2.92287
2.72219
2.12912
1.25217
3.10597
6.10914
2.51301
3.04246
3.11891
3.52784
3.12466
6.65634
2.97512
3.27647
1.56198
3.21551
1.52144
3.38984
1.88714
3.4934
1.90605
3.01635
1.82867
3.15452
1.46698
2.86731
1.43207
3.12702
2.40682
2.49827
1.62173
2.14379
2.65726
5.00233
3.11206
2.85423
4.27884
2.76825
2.59357
2.67081
3.16609
2.62408
1.5986
1.4072
1.93358
0.668744
4.69521
1.91576
2.77235
2.35633
1.74317
0.764798
4.30056
2.348
2.87335
1.10683
1.19086
1.00872
3.66705
1.61135
2.64618
2.18433
2.86029
1.74746
3.92832
1.31745
1.58832
1.4935
4.57977
2.3192
7.21178
2.88399
2.47834
6.86262
0.402713
1.50165
0.472084
1.51134
1.96494
1.49282
2.02264
3.11108
0.881245
0.83344
0.640808
0.537252
6.10229
2.79355
0.483369
1.68516
1.86717
0.6131
0.699071
0.978824
2.09427
2.28473
3.00224
3.23547
10.7482
0.671044
1.85236
1.98894
2.87875
11.2238
3.26952
8.3454
3.36948
2.7753
0.467814
1.48063
1.0622
2.03198
1.73197
2.89534
8.38378
0.602901
1.70635
1.26123
2.57098
7.94819
3.27921
8.93031
0.559706
2.06332
3.27986
2.32359
0.614084
1.33434
0.634694
1.57872
0.518629
4.90746
2.67228
0.914332
3.64962
4.10507
1.48179
0.745037
3.47432
0.642344
2.06565
7.69625
5.82718
2.8071
0.648184
1.55962
0.931237
1.71413
7.10964
3.94882
2.34901
0.637907
0.647269
1.05435
1.60691
0.648307
2.69716
8.50753
6.26535
3.00869
0.748611
2.0668
3.02
2.7098
4.58834
1.06051
1.3075
0.452597
1.46926
6.64491
2.47573
2.81586
1.86674
1.83019
4.45843
5.50311
0.945098
1.27253
2.73839
1.16703
1.84383
6.48287
0.456644
0.798936
0.441563
1.97013
1.31639
1.87307
1.89659
5.1054
1.13972
1.26487
2.46026
6.23176
2.36075
5.13999
0.762265
1.57847
1.41152
2.11215
0.631305
0.483139
1.63512
5.76799
2.61412
0.588073
2.02176
0.855272
1.59158
3.71092
1.48569
1.31501
1.44039
2.83798
1.9606
1.15902
0.755883
1.2972
5.01518
2.01521
3.51582
2.73428
0.784728
1.09571
1.32671
4.20326
0.495024
1.71294
2.40997
5.76853
1.02475
2.60125
0.817771
1.37067
2.35339
7.14771
5.22951
3.72645
0.479158
0.861686
1.08605
2.28168
2.54063
1.79701
2.90175
6.73531
3.97871
2.28778
2.02535
6.10687
4.43002
2.85023
1.52993
3.88877
4.24818
2.80997
4.66408
3.09718
5.12246
3.0029
4.93385
2.63877
5.00165
2.86552
3.05405
3.6593
5.3985
2.67789
5.90216
2.84513
0.596925
0.856416
3.3015
2.51372
5.74508
2.69623
2.63324
4.67361
3.46276
5.26111
2.83423
5.15278
2.83053
5.61546
3.28213
0.588631
4.84777
2.52448
6.11811
3.10107
5.41422
2.7784
5.71627
3.14047
5.24165
2.91069
0.570722
2.84492
0.554107
4.30543
2.55439
5.3161
3.32199
1.2272
2.86727
1.35221
2.5165
1.23957
2.45871
0.91486
2.33234
0.938728
2.50771
1.18272
2.76042
6.52347
2.30467
3.24919
2.6954
5.78959
3.21594
3.15378
5.03391
2.80547
0.489964
5.30589
2.74432
0.852915
1.50277
5.86713
2.72134
0.642388
6.6033
2.36013
0.421838
1.43192
0.800022
2.06975
1.2878
2.9577
1.33332
1.20259
2.73449
6.59444
2.20401
3.82064
1.47384
6.73767
2.71452
1.42821
2.75185
6.87391
2.64494
2.94933
1.59328
3.46509
1.75148
2.70276
5.34567
1.99605
5.68303
1.81912
6.40247
2.35464
5.55538
2.41551
7.00231
2.1937
7.47256
2.35795
6.4655
2.65141
5.93114
0.537989
3.38918
3.37039
2.88
3.27097
0.520574
2.83332
3.69602
3.23604
3.70571
2.36604
2.2583
3.0102
2.83191
7.01938
6.40961
5.28708
4.78612
5.05787
5.20295
4.56649
4.79161
3.10181
4.19766
3.26915
3.7401
3.4034
3.33945
3.19323
3.83492
8.02894
1.74461
8.24571
1.72822
7.61866
1.55352
7.20596
1.49334
3.00764
2.65204
2.86747
2.68758
2.68337
2.56212
3.15164
2.77754
3.84963
1.74007
3.93681
1.53176
3.60099
1.4982
3.29121
1.61385
1.06295
1.44584
1.46043
1.03105
4.48952
4.47268
5.05911
5.22111
2.06023
6.55502
1.91312
6.40939
1.81583
7.10608
1.70843
8.22798
1.55442
1.9159
1.92241
1.60532
6.48503
4.88085
4.60593
5.85799
4.81361
8.31084
6.67674
6.62638
4.67812
3.2389
3.82243
4.30372
3.56547
1.75601
4.3978
2.03067
3.92466
1.72226
3.82722
1.50814
3.85708
2.66195
3.58622
2.86436
2.77647
2.65149
2.99981
2.767
3.37102
2.29337
6.51836
2.23815
6.07222
2.62442
6.54784
2.51762
6.99004
5.59973
4.79785
5.38899
5.06166
3.16478
2.25121
3.81317
2.42942
3.88192
2.70588
3.61793
2.22299
2.17751
2.29084
2.20177
1.97073
3.19635
1.91234
3.07575
2.27324
4.82392
3.12567
4.12967
3.44329
3.96977
2.86904
3.92985
2.86102
2.6376
2.74489
2.65973
2.35572
2.76033
2.92249
3.8394
3.43047
5.77284
5.86305
5.23802
5.1907
0.800008
1.7022
1.00567
1.88664
0.908447
2.04719
0.649751
1.91951
1.68712
1.6845
2.30987
1.54727
2.76552
1.73236
1.95135
1.84975
2.29959
2.39172
1.96517
1.97979
1.92825
1.77374
2.43505
2.44256
2.72681
2.87766
2.7314
2.7343
3.82027
4.71797
3.84418
2.92464
3.88404
2.56916
3.77288
2.00354
2.55161
2.60725
2.8797
2.46724
2.29949
0.869258
4.21486
2.55262
5.24019
2.96351
6.19165
2.2296
5.32858
3.94438
4.68723
4.84971
4.01341
2.86826
2.33293
2.9946
2.45126
3.22834
2.57773
2.92131
2.93099
1.96276
2.15999
2.24521
1.95087
4.70748
6.30004
5.68683
4.05213
7.56621
6.60396
6.3888
6.89939
2.33458
1.98775
2.10286
3.06091
1.87001
2.75541
2.51037
2.18882
4.3242
5.01304
5.80933
4.81345
4.46138
3.83554
5.17001
5.89474
5.02371
5.39977
5.75324
4.78668
4.62297
4.59904
4.46308
4.75537
6.74013
6.63263
6.92207
7.11467
0.983141
1.09991
1.36589
0.912826
1.27775
1.52802
1.0742
1.00652
1.14988
0.92512
0.996557
1.37422
1.24974
1.13198
1.24017
1.45573
1.40062
1.5775
1.53186
1.36124
1.43597
1.09508
0.927903
1.3154
1.43994
1.19669
1.29262
0.513659
0.467071
0.385611
0.517431
0.54627
0.375119
0.355119
0.474806
0.331154
0.41566
0.391944
0.324626
0.905255
0.921566
0.853991
0.979688
0.963098
0.948057
0.873077
0.873788
0.478034
0.455969
0.367388
0.365974
0.865332
1.03757
0.974237
0.905237
0.74953
0.881021
0.68533
0.611296
0.619913
0.494993
0.517054
0.630234
0.733023
0.878849
0.896212
0.814733
0.461023
0.57443
0.590794
0.505412
0.504234
0.519604
0.637609
0.754186
1.00827
1.05176
1.15203
1.10285
9.3496
11.0145
8.3266
7.88657
10.2014
11.2013
8.92236
9.85205
11.6508
13.0106
10.9071
11.3636
12.9529
11.1708
11.2647
0.597153
0.580727
0.664549
0.753772
0.425195
0.487386
0.554103
0.459093
0.453658
0.525999
0.568325
0.511546
0.490513
0.478018
0.426523
0.46858
0.446044
0.51082
0.594284
0.486431
0.538266
0.512317
0.523069
0.546422
0.550833
0.472271
0.498774
0.462467
0.586947
0.621506
0.848747
0.723005
0.356708
0.528558
0.468404
0.327864
0.261175
0.229602
0.202847
0.2386
0.591549
0.608841
0.370213
0.428188
1.3409
1.91942
2.1917
1.52819
6.17816
7.36849
6.31693
5.00527
0.93239
0.978512
1.13794
0.984857
1.09721
0.871433
0.990302
1.10329
0.722224
0.86212
0.895965
0.764406
1.42813
1.7834
1.88845
1.47039
1.64495
1.49391
1.57195
1.85237
0.537984
0.647049
0.86845
0.628965
0.847006
0.966434
0.959257
0.726198
0.319363
0.292601
0.303286
0.339764
1.22779
1.3368
1.29462
1.39619
1.11848
1.41036
1.0332
1.16581
1.21702
1.29378
1.01265
1.00875
1.00773
0.833541
1.00292
1.09736
1.2702
1.49382
1.33538
1.3798
0.578804
0.756084
0.79448
0.59453
0.987008
3.40261
0.221985
0.483099
0.647265
1.03217
2.3356
0.409798
0.992157
1.54382
4.01516
0.395547
0.409295
0.762786
3.35237
0.672042
2.25469
0.434351
8.53784
0.445509
6.72908
0.384906
9.47338
0.442462
2.40277
0.440244
2.23806
0.417538
2.53012
0.61078
0.469016
2.96684
0.748495
0.82779
0.355284
0.337891
8.15503
2.6537
0.3369
7.96605
2.29848
0.533738
0.379851
0.734106
0.367214
4.941
3.69929
9.05909
0.563969
0.332989
3.43493
3.56415
0.819557
0.358329
4.369
4.11536
0.721413
0.253862
4.17711
0.255262
5.18597
0.283678
4.75566
0.751108
1.09775
0.193769
4.68812
0.6475
1.25243
0.717075
2.37299
0.19162
3.69521
0.255648
3.23366
0.496694
1.78811
0.244346
4.19969
0.558676
1.75711
0.352686
1.91329
2.88196
0.277325
2.54063
0.284131
2.75195
0.280136
2.96796
0.26211
4.73816
0.371942
5.05429
0.368862
0.600443
0.970762
2.29336
0.687943
2.31028
0.900541
2.47151
0.479963
2.63024
0.359524
2.83235
0.339583
2.53261
0.288207
2.82704
0.364712
7.15813
0.416521
6.15739
0.317361
5.99754
0.304049
7.031
0.332414
0.472016
1.36978
0.746808
1.15941
1.29514
1.19461
2.47587
0.788579
2.53009
0.871711
0.901154
1.16908
2.79085
1.0384
2.73758
0.279922
3.19906
0.272903
2.6613
0.250005
4.81927
0.241533
5.95592
0.253006
3.10344
0.275938
6.10364
0.212353
0.571971
1.98321
0.313103
0.764923
1.16292
1.66629
0.33798
0.494835
1.91972
0.351053
2.33379
0.34717
0.471417
1.02278
0.424145
0.996293
5.62079
0.300292
2.73701
0.279606
3.95155
0.399019
3.61569
0.296293
5.08992
0.276961
4.55963
0.240691
3.31422
0.431847
4.47945
0.332775
5.39619
0.369171
0.686238
0.897025
0.805091
0.782211
1.02648
0.949284
3.52406
0.313943
2.85225
0.430576
3.84281
0.267447
2.66404
0.35553
0.464303
1.88435
0.439071
4.03815
0.407832
1.95224
0.505199
1.723
1.37377
2.01839
2.22566
3.66048
0.383908
1.36324
0.64553
3.22657
3.69553
3.76677
3.21091
0.579704
0.458016
1.13058
1.90756
2.00368
0.356591
0.435024
0.499799
1.37999
0.483772
2.02885
0.604945
1.1649
0.607125
1.31122
0.459047
2.70457
0.449367
1.75646
0.336953
2.34865
5.86688
0.491232
0.335218
2.56224
1.3897
0.413496
2.30165
0.427368
4.66916
0.445945
2.83199
0.364705
1.40196
0.445382
4.61178
0.285495
0.317187
9.2014
0.554144
0.626998
4.77775
0.304864
10.6282
0.399261
0.310783
2.44929
0.896855
1.2829
0.3494
2.06664
0.862203
1.34294
2.18285
0.508934
9.16565
0.427822
1.68405
0.390334
7.68255
0.598929
0.774467
7.10677
0.644495
1.61365
0.503348
0.483786
1.92781
0.412642
1.71037
0.688329
8.85988
0.466447
1.78156
0.634952
1.54419
0.426098
1.97538
0.434987
1.91737
0.338436
1.85569
0.41209
4.16479
2.01972
0.389653
0.649671
1.47868
5.48116
0.570332
0.590057
1.41683
0.70582
0.33792
6.44515
2.52659
0.651144
1.60045
6.68739
0.389379
0.763928
1.51076
0.348174
2.04421
0.588707
1.17071
1.13203
0.918695
1.9155
0.470159
0.560872
1.72143
0.66345
1.12317
0.540423
1.57171
0.332292
2.31849
0.978853
1.01854
0.842304
1.18502
0.439536
1.21453
1.09175
0.925431
4.996
0.473342
1.00334
1.13973
0.352141
2.41049
0.769309
1.37515
0.391364
3.48207
0.80725
1.50867
0.340925
2.50432
0.937982
1.12129
0.548994
1.97029
2.34657
3.23496
0.813619
1.31441
1.10489
3.24369
2.26853
8.1963
0.418704
2.95384
0.704703
1.41904
0.534609
0.654233
1.36283
0.530886
1.21573
1.12936
0.973987
2.1916
0.492711
1.20721
0.490383
1.51159
0.905545
1.15277
1.5056
0.528068
0.520384
1.66116
5.70768
0.478333
0.469756
0.937477
5.57286
0.551386
0.472745
1.33788
0.838564
1.20441
2.57548
0.942995
0.823855
0.366209
5.33024
3.16091
0.428278
1.65197
0.362516
1.2702
0.784316
0.67667
1.49512
2.72506
5.01545
0.494262
1.32012
0.982317
1.02137
0.435599
1.71823
0.683412
1.24165
0.301953
8.86567
0.401661
6.45645
0.513272
0.42525
9.60289
0.424238
2.70035
1.64663
0.467988
0.342765
7.07649
0.330814
8.90632
0.447574
3.12161
1.28393
1.17139
1.06754
2.1078
0.452668
0.353957
0.792151
1.37777
0.33538
2.10142
0.38235
4.55746
0.212446
8.33945
9.04466
0.483848
0.555746
0.329876
0.389619
0.979087
6.17848
0.459527
1.56506
0.616467
1.24633
0.534182
0.389393
0.552601
1.0963
2.83333
1.32998
0.459198
0.531218
0.377217
1.58816
2.83089
0.894274
0.515809
0.505596
0.570295
1.48998
0.487476
0.585148
1.19883
3.27591
3.95212
0.353857
5.98027
0.299433
0.570485
3.96197
0.344479
6.15727
0.285287
0.795396
1.34181
0.819131
1.35221
1.21728
0.676991
2.49496
0.286653
0.982474
0.616965
1.42902
0.655272
1.85285
0.376703
1.83713
0.680018
2.96987
0.568004
1.90887
0.359632
0.379708
2.48255
0.288198
0.469123
1.09189
0.518129
1.15649
0.512223
1.53493
0.511203
1.34045
0.426974
1.61394
0.482905
1.36622
0.476458
1.02901
0.644955
1.8743
0.479665
1.68317
0.475485
1.34783
0.46351
2.06087
0.304214
2.52467
1.01679
1.04046
2.50969
0.944943
1.31294
1.33016
1.04214
0.634938
0.377823
0.791431
0.335668
0.752903
0.45007
0.63365
0.479319
2.36224
2.16389
2.03653
2.01865
2.09241
0.985409
1.99107
1.85133
0.606049
0.502548
0.524352
0.575499
0.456427
0.897511
0.488595
0.870975
0.432821
0.856836
0.398468
0.893907
1.24492
1.46116
2.18653
1.52874
1.89235
1.91039
2.12826
2.18149
0.419937
0.416962
0.458874
0.465372
1.40532
1.54849
1.34931
1.39783
0.581976
4.36475
0.504754
4.39315
0.597354
4.9017
0.616011
4.24378
0.60366
2.36754
0.549958
2.80062
0.736406
3.73895
0.812955
3.44164
1.657
1.50359
1.26858
1.54186
0.372671
0.40527
0.429707
0.388637
1.463
1.65259
1.11491
1.7028
0.973692
2.16274
1.01523
2.13192
1.1315
0.677753
0.765616
0.598574
0.866828
0.605808
0.98948
0.706691
1.01658
3.055
0.38145
3.44812
0.449997
3.66537
0.36643
3.16967
0.285682
0.753683
0.540143
0.631707
0.785596
2.00631
1.25777
2.20058
1.92799
1.88687
0.325953
3.11252
0.345287
3.06031
0.328366
3.93289
0.294453
3.54161
0.576204
0.749428
0.53697
0.602282
0.515781
0.752254
0.589353
0.934347
1.00496
1.44578
1.41931
1.53768
1.66263
0.739251
5.16046
0.787436
3.6107
1.00808
3.25371
0.873428
4.7798
0.725433
1.10836
0.607416
0.808924
0.716783
0.727442
0.809218
0.943697
1.20337
3.38394
1.11725
3.73541
1.18447
2.5803
1.06815
1.01912
1.00281
0.930047
0.869654
0.534773
0.860619
0.639564
6.89581
0.422178
4.76637
0.394673
5.56336
0.35495
0.406893
7.9156
0.363327
0.534338
0.535671
0.47907
0.556749
3.6872
0.494198
4.14553
0.358385
4.11872
0.333012
3.80137
0.464928
4.44255
3.58076
2.99259
3.22751
0.904428
0.99437
0.697363
0.718765
6.83778
5.91063
6.10832
5.77833
0.439415
7.67269
0.416424
7.82719
0.316919
6.99297
0.320873
6.69232
0.845759
1.22657
1.25699
1.04419
1.49608
1.37186
1.34477
1.22316
1.92092
2.29319
1.83289
1.63152
1.79673
1.6115
1.80061
1.96231
1.30749
1.77895
0.844445
0.814475
5.67502
5.86891
4.42554
3.74709
0.467754
0.424282
0.507644
0.559287
0.599556
0.574441
0.513431
0.554952
1.62708
1.65343
2.49877
2.48159
4.30982
4.02802
4.40375
5.14711
1.08568
1.0726
1.13841
1.17946
2.25604
0.744797
3.26355
0.972401
2.67595
1.36954
1.99146
4.04135
0.619052
4.4373
0.615484
3.77515
0.654795
3.38831
0.535867
3.52264
2.97639
2.99333
3.25694
7.06955
6.74219
5.38487
5.39908
1.40431
2.41154
0.517801
0.422931
0.342005
0.398381
0.342149
0.329567
0.314141
0.353583
0.386218
0.399244
0.346075
0.385301
0.376584
0.376864
0.352301
0.374787
0.98037
0.84115
0.973287
1.2679
0.844618
0.84185
0.898602
0.947536
0.718209
0.766923
0.830993
0.818813
0.775833
0.742969
0.769013
0.797473
0.793025
0.724346
0.738751
0.691506
1.56728
1.60801
1.38858
1.3244
1.7583
1.8426
1.99019
1.82941
1.87683
1.7541
2.11198
1.23895
1.73617
1.56245
1.31315
1.12072
1.22764
1.78195
1.5603
15.8446
15.7688
18.0802
18.1355
0.692459
0.876954
0.76795
0.621473
17.2064
13.8151
12.3175
15.6388
8.23824
7.74689
6.28009
6.47669
0.953804
0.880467
0.663581
0.669168
21.7262
24.7682
20.2044
18.8696
1.86886
1.29229
1.4468
1.88719
22.097
25.5721
21.8563
22.1101
1.19608
1.16661
1.11745
0.962375
1.67137
2.94905
2.8049
1.65237
0.739266
0.753583
0.658643
0.77552
0.512269
0.515555
0.50316
0.40514
0.889825
0.879794
0.889265
1.01463
0.625154
0.547023
0.625323
0.753304
0.516636
0.577269
0.562559
0.451758
0.504244
0.472926
0.452034
0.496607
2.62991
2.74643
2.86923
3.06115
5.26211
4.94913
3.53117
3.69293
3.08658
2.46701
2.97161
3.74753
1.85633
2.40751
2.22366
2.14462
2.04604
1.63864
1.46307
1.73355
1.71689
2.78298
1.89818
2.17158
1.75087
1.49987
1.90727
2.17482
2.35996
1.85764
1.66178
1.86719
1.45385
1.51596
3.67311
4.10608
3.77493
3.19052
2.67361
2.0451
2.36768
2.77418
3.08582
2.77848
3.33076
2.56073
1.98228
2.32517
2.56845
0.476515
0.69941
0.739798
0.522016
0.779397
0.706015
0.53016
0.525617
1.92238
1.26523
1.20225
1.55114
1.07169
1.17486
1.61715
1.57056
4.20379
4.33585
3.73457
3.50682
21.5979
16.241
12.5754
14.8187
18.8518
18.1591
24.4826
21.7514
5.41971
4.76726
4.3111
4.93732
12.917
14.9528
15.3856
12.5743
4.27931
4.61266
5.12895
4.29144
10.5711
15.327
11.4005
8.81039
2.28053
1.9078
3.1728
0.792271
2.0278
3.11298
0.920419
1.95293
0.543165
5.64044
0.507754
9.04317
9.25999
0.412269
7.56104
0.413506
3.13539
1.32057
2.68689
9.05019
3.08276
5.51447
2.05313
7.36132
1.42589
6.37535
1.4335
6.51456
3.46205
6.40572
2.40173
5.41029
2.0895
6.41666
2.00005
1.28374
1.22741
1.82057
1.03357
1.65669
1.92982
1.12157
1.42759
8.06552
0.484323
8.5847
0.490392
10.1389
0.48622
2.32268
3.68487
0.387913
4.87399
0.371002
1.21957
0.491778
1.70195
0.465336
4.39869
0.444943
1.31483
0.447746
1.08898
0.474094
0.55904
6.9017
0.63826
3.75168
5.30528
1.40435
2.83303
4.04792
1.27168
2.56322
4.00095
4.09069
1.16505
2.17606
0.611953
12.5768
0.571603
16.6749
2.58392
1.65612
2.97081
1.77494
2.70994
1.7448
2.18724
4.21198
6.01375
4.54767
6.57238
2.40387
5.64855
2.8469
11.0962
2.53363
1.42265
0.487652
1.76412
7.74542
2.71289
5.73088
0.652789
10.3201
1.83649
1.32509
1.71192
1.46384
1.14769
1.56891
1.05129
0.904077
2.37055
0.632901
0.845688
3.0233
1.42629
1.81195
1.36721
1.25362
0.933857
2.89789
1.09092
2.71588
0.988727
2.42303
1.67014
3.09759
1.51072
4.18751
4.51315
9.75917
5.08292
6.04284
4.4467
6.83213
1.99195
1.17987
0.708282
14.0829
1.93966
1.26198
0.749093
6.71903
2.2075
1.03571
2.30419
1.08575
1.08105
1.59059
1.00073
1.76501
0.905401
3.1245
1.24969
1.41622
0.89282
3.41491
0.87436
3.32353
0.958012
1.85526
0.886111
2.68438
1.16397
1.54384
1.08565
1.71518
0.496342
12.7007
0.602977
12.4819
2.99114
1.85431
2.48608
2.11304
0.559634
13.6397
2.01333
1.97782
2.27045
1.90242
0.479267
8.31001
2.60327
2.33131
1.46856
1.07684
2.07504