# vtk DataFile Version 2.0
Unstructured Grid by M++
ASCII
DATASET UNSTRUCTURED_GRID
POINTS 4225 float
  0.921875   0.593750 0
  0.921875   0.609375 0
  0.656250   0.609375 0
  0.671875   0.609375 0
  0.656250   0.546875 0
  0.671875   0.546875 0
  0.656250   0.562500 0
  0.656250   0.578125 0
  0.656250   0.593750 0
  0.671875   0.593750 0
  0.671875   0.562500 0
  0.671875   0.578125 0
  0.671875   0.625000 0
  0.671875   0.640625 0
  0.906250   0.578125 0
  0.890625   0.578125 0
  0.546875   0.515625 0
  1.000000   0.890625 0
  0.515625   0.640625 0
  0.515625   0.625000 0
  1.000000   0.875000 0
  0.515625   0.656250 0
  0.515625   0.687500 0
  0.515625   0.671875 0
  1.000000   0.921875 0
  0.546875   0.531250 0
  0.546875   0.546875 0
  0.546875   0.562500 0
  0.796875   0.531250 0
  0.953125   0.890625 0
  0.953125   0.875000 0
  0.953125   0.843750 0
  0.953125   0.828125 0
  0.953125   0.812500 0
  0.531250   0.562500 0
  0.531250   0.546875 0
  0.515625   0.562500 0
  0.515625   0.546875 0
  1.000000   0.812500 0
  0.781250   0.546875 0
  0.765625   0.546875 0
  0.859375   0.921875 0
  0.921875   0.671875 0
  0.609375   0.906250 0
  0.671875   0.656250 0
  0.609375   0.921875 0
  0.671875   0.671875 0
  0.671875   0.984375 0
  0.671875   1.000000 0
  0.906250   0.984375 0
  0.906250   1.000000 0
  0.921875   0.984375 0
  0.921875   1.000000 0
  0.859375   0.609375 0
  1.000000   0.781250 0
  0.515625   0.531250 0
  0.531250   0.531250 0
  0.531250   0.515625 0
  0.515625   0.515625 0
  1.000000   0.750000 0
  0.765625   0.531250 0
  0.781250   0.531250 0
  0.781250   0.515625 0
  0.765625   0.515625 0
  0.859375   0.875000 0
  0.921875   0.625000 0
  0.859375   0.890625 0
  0.921875   0.640625 0
  0.671875   0.968750 0
  0.671875   0.953125 0
  0.921875   0.968750 0
  0.921875   0.953125 0
  0.859375   0.593750 0
  0.859375   0.578125 0
  0.875000   0.578125 0
  0.828125   0.890625 0
  0.890625   0.640625 0
  0.593750   0.890625 0
  0.656250   0.640625 0
  0.593750   0.875000 0
  0.656250   0.625000 0
  0.578125   0.890625 0
  0.640625   0.640625 0
  0.578125   0.875000 0
  0.640625   0.625000 0
  0.968750   0.890625 0
  0.984375   0.890625 0
  0.968750   0.812500 0
  0.968750   0.828125 0
  0.984375   0.812500 0
  0.984375   0.828125 0
  1.000000   0.828125 0
  0.656250   0.953125 0
  0.640625   0.953125 0
  0.890625   0.968750 0
  0.906250   0.968750 0
  0.906250   0.953125 0
  0.890625   0.953125 0
  0.531250   0.703125 0
  0.531250   0.718750 0
  0.546875   0.718750 0
  0.546875   0.703125 0
  0.593750   0.578125 0
  0.562500   0.578125 0
  0.578125   0.578125 0
  0.843750   0.578125 0
  0.828125   0.578125 0
  0.828125   0.812500 0
  0.890625   0.562500 0
  0.828125   0.796875 0
  0.953125   0.906250 0
  0.953125   0.921875 0
  0.531250   0.859375 0
  0.593750   0.609375 0
  0.531250   0.843750 0
  0.593750   0.593750 0
  0.515625   0.843750 0
  0.578125   0.593750 0
  0.515625   0.859375 0
  0.578125   0.609375 0
  0.937500   0.859375 0
  1.000000   0.609375 0
  0.921875   0.859375 0
  0.984375   0.609375 0
  0.937500   0.796875 0
  0.921875   0.796875 0
  0.984375   0.546875 0
  0.562500   0.812500 0
  0.843750   0.796875 0
  0.843750   0.812500 0
  0.859375   0.796875 0
  0.859375   0.812500 0
  1.000000   0.906250 0
  0.984375   0.906250 0
  0.968750   0.906250 0
  0.968750   0.921875 0
  0.984375   0.921875 0
  0.593750   0.921875 0
  0.656250   0.671875 0
  0.593750   0.906250 0
  0.656250   0.656250 0
  0.578125   0.906250 0
  0.640625   0.656250 0
  0.578125   0.921875 0
  0.640625   0.671875 0
  1.000000   0.843750 0
  0.984375   0.843750 0
  0.968750   0.843750 0
  0.968750   0.859375 0
  0.968750   0.875000 0
  1.000000   0.859375 0
  0.984375   0.859375 0
  0.984375   0.875000 0
  0.656250   1.000000 0
  0.656250   0.984375 0
  0.656250   0.968750 0
  0.640625   0.968750 0
  0.640625   1.000000 0
  0.640625   0.984375 0
  0.843750   0.921875 0
  0.906250   0.671875 0
  0.843750   0.906250 0
  0.906250   0.656250 0
  0.828125   0.906250 0
  0.890625   0.656250 0
  0.828125   0.921875 0
  0.890625   0.671875 0
  0.781250   0.859375 0
  0.843750   0.609375 0
  0.781250   0.843750 0
  0.843750   0.593750 0
  0.765625   0.843750 0
  0.828125   0.593750 0
  0.765625   0.859375 0
  0.828125   0.609375 0
  0.968750   0.609375 0
  0.906250   0.859375 0
  0.953125   0.609375 0
  0.890625   0.859375 0
  0.937500   0.609375 0
  0.875000   0.859375 0
  0.562500   0.593750 0
  0.546875   0.593750 0
  0.531250   0.593750 0
  0.531250   0.609375 0
  0.562500   0.609375 0
  0.546875   0.609375 0
  0.609375   0.625000 0
  0.546875   0.875000 0
  0.609375   0.640625 0
  0.546875   0.890625 0
  0.625000   0.640625 0
  0.562500   0.890625 0
  0.625000   0.625000 0
  0.562500   0.875000 0
  0.921875   0.843750 0
  0.984375   0.593750 0
  0.937500   0.843750 0
  1.000000   0.593750 0
  0.921875   0.812500 0
  0.921875   0.828125 0
  0.984375   0.578125 0
  0.937500   0.828125 0
  1.000000   0.578125 0
  0.937500   0.812500 0
  1.000000   0.562500 0
  0.578125   0.828125 0
  0.921875   0.781250 0
  0.937500   0.781250 0
  1.000000   0.531250 0
  0.921875   0.765625 0
  0.984375   0.515625 0
  0.937500   0.765625 0
  0.625000   0.656250 0
  0.562500   0.906250 0
  0.609375   0.656250 0
  0.546875   0.906250 0
  0.625000   0.671875 0
  0.562500   0.921875 0
  0.609375   0.671875 0
  0.546875   0.921875 0
  0.859375   0.781250 0
  0.859375   0.765625 0
  0.828125   0.671875 0
  0.765625   0.921875 0
  0.828125   0.734375 0
  0.765625   0.984375 0
  0.875000   0.843750 0
  0.937500   0.593750 0
  0.890625   0.843750 0
  0.953125   0.593750 0
  0.906250   0.843750 0
  0.968750   0.593750 0
  0.906250   0.828125 0
  0.968750   0.578125 0
  0.937500   0.578125 0
  0.953125   0.578125 0
  0.906250   0.765625 0
  0.875000   0.765625 0
  0.953125   0.515625 0
  0.531250   0.781250 0
  0.671875   0.890625 0
  0.531250   0.921875 0
  0.953125   0.656250 0
  0.828125   0.781250 0
  0.843750   0.781250 0
  0.703125   0.984375 0
  0.687500   0.984375 0
  0.843750   0.875000 0
  0.906250   0.625000 0
  0.671875   0.781250 0
  0.734375   0.531250 0
  0.906250   0.609375 0
  0.671875   0.765625 0
  0.734375   0.515625 0
  0.906250   0.593750 0
  0.890625   0.593750 0
  0.875000   0.593750 0
  0.828125   0.875000 0
  0.890625   0.625000 0
  0.656250   0.781250 0
  0.718750   0.531250 0
  0.890625   0.609375 0
  0.656250   0.765625 0
  0.718750   0.515625 0
  0.875000   0.609375 0
  0.640625   0.765625 0
  0.703125   0.515625 0
  0.812500   0.921875 0
  0.875000   0.671875 0
  0.812500   0.875000 0
  0.875000   0.625000 0
  0.640625   0.781250 0
  0.703125   0.531250 0
  0.812500   0.515625 0
  0.750000   0.828125 0
  0.812500   0.578125 0
  0.687500   1.000000 0
  0.937500   0.656250 0
  0.875000   0.906250 0
  0.531250   0.656250 0
  0.890625   0.906250 0
  0.906250   0.906250 0
  0.562500   0.656250 0
  0.906250   0.890625 0
  0.562500   0.640625 0
  0.968750   0.625000 0
  0.906250   0.875000 0
  0.562500   0.625000 0
  0.937500   0.640625 0
  0.875000   0.890625 0
  0.890625   0.890625 0
  0.546875   0.640625 0
  0.953125   0.625000 0
  0.890625   0.875000 0
  0.546875   0.625000 0
  0.546875   0.687500 0
  0.890625   0.937500 0
  0.937500   0.625000 0
  0.875000   0.875000 0
  0.531250   0.625000 0
  0.531250   0.640625 0
  0.546875   0.656250 0
  0.937500   0.968750 0
  0.687500   0.968750 0
  0.953125   0.968750 0
  0.703125   0.968750 0
  0.968750   0.968750 0
  0.718750   0.968750 0
  0.718750   0.906250 0
  0.968750   0.953125 0
  0.718750   0.953125 0
  0.968750   0.937500 0
  0.859375   0.906250 0
  0.921875   0.656250 0
  0.718750   0.937500 0
  0.828125   0.531250 0
  0.937500   0.953125 0
  0.687500   0.953125 0
  0.953125   0.953125 0
  0.703125   0.953125 0
  0.703125   0.890625 0
  0.843750   0.515625 0
  0.953125   0.937500 0
  0.953125   1.000000 0
  0.703125   0.937500 0
  0.937500   0.937500 0
  0.687500   0.937500 0
  0.703125   0.906250 0
  0.718750   0.890625 0
  0.687500   0.890625 0
  0.687500   0.765625 0
  0.750000   0.515625 0
  0.687500   0.781250 0
  0.750000   0.531250 0
  0.859375   0.937500 0
  0.921875   0.687500 0
  0.687500   0.796875 0
  0.750000   0.546875 0
  0.578125   0.750000 0
  0.515625   1.000000 0
  0.843750   0.765625 0
  0.578125   0.734375 0
  0.515625   0.984375 0
  0.562500   0.734375 0
  0.828125   0.750000 0
  0.765625   1.000000 0
  0.562500   0.750000 0
  0.562500   0.718750 0
  0.578125   0.515625 0
  0.921875   0.703125 0
  0.921875   0.718750 0
  0.593750   0.515625 0
  0.687500   0.875000 0
  0.750000   0.625000 0
  0.578125   0.531250 0
  0.921875   0.750000 0
  0.703125   0.875000 0
  0.765625   0.625000 0
  0.593750   0.531250 0
  0.875000   0.968750 0
  0.937500   0.718750 0
  0.703125   0.828125 0
  0.765625   0.578125 0
  0.937500   0.734375 0
  0.703125   0.812500 0
  0.765625   0.562500 0
  0.890625   0.687500 0
  0.828125   0.937500 0
  0.656250   0.796875 0
  0.718750   0.546875 0
  0.890625   0.718750 0
  0.828125   0.968750 0
  0.906250   0.796875 0
  0.718750   0.828125 0
  0.781250   0.578125 0
  0.890625   0.703125 0
  0.828125   0.953125 0
  0.656250   0.859375 0
  0.906250   0.781250 0
  0.968750   0.531250 0
  0.546875   0.796875 0
  0.671875   0.796875 0
  0.734375   0.546875 0
  0.843750   0.953125 0
  0.906250   0.703125 0
  0.671875   0.875000 0
  0.718750   0.812500 0
  0.781250   0.562500 0
  0.875000   0.812500 0
  0.531250   0.890625 0
  0.593750   0.640625 0
  0.937500   0.890625 0
  0.875000   0.781250 0
  0.609375   0.703125 0
  0.546875   0.953125 0
  0.890625   0.796875 0
  0.625000   0.718750 0
  0.562500   0.968750 0
  0.906250   0.812500 0
  0.734375   0.859375 0
  0.796875   0.609375 0
  0.718750   0.875000 0
  0.781250   0.625000 0
  0.750000   0.859375 0
  0.812500   0.609375 0
  0.812500   0.546875 0
  0.750000   0.812500 0
  0.734375   0.843750 0
  0.796875   0.593750 0
  0.750000   0.843750 0
  0.812500   0.593750 0
[...]
CELL_DATA 4096
SCALARS scalar_value float 1
LOOKUP_TABLE default
3.54207
4.18707
4.23723
3.29305
4.30661
4.12263
3.43795
3.57372
8.03387
5.25008
4.74499
6.34888
5.68971
6.05483
8.53935
7.93247
1.21809
1.39205
1.6216
1.31795
1.34466
1.35268
1.10047
1.1479
2.439
1.8764
2.03586
2.92599
2.55464
2.85124
2.08784
2.06602
2.05989
1.80386
2.36225
2.66962
2.36951
3.19807
3.09094
2.7224
5.97996
6.23493
6.8788
7.04166
5.509
5.3773
5.65238
7.0382
6.61535
7.44115
8.19247
6.98483
4.12804
3.97614
4.47574
3.57346
4.70832
3.75116
4.04434
4.42624
11.7042
21.5836
16.7326
10.798
7.70893
7.96217
7.37069
7.26558
5.02784
6.85856
4.70304
3.57945
3.47559
3.30685
3.43722
3.57901
17.8081
20.3613
12.7387
12.25
5.4834
5.94848
5.0896
4.98207
5.24697
5.02149
3.74144
4.44678
4.38932
4.16864
3.83416
4.16078
28.4287
23.9041
20.4197
21.6494
4.01801
4.58635
5.02838
4.63179
5.47921
6.62554
5.97251
4.9705
5.71261
4.59181
5.61129
6.87326
22.5503
26.2315
27.9475
24.741
2.6989
3.21866
4.25368
3.62173
3.63851
2.50118
2.90985
3.91557
3.82567
4.06987
5.24133
4.68304
2.50188
3.03331
2.92605
2.26176
6.80545
5.78344
6.24194
6.57841
6.81291
5.64768
5.89219
6.15139
6.23446
7.95311
12.5885
8.77853
1.36015
1.08915
0.822228
0.920941
2.2437
2.71145
2.44125
2.38609
0.80734
0.910655
0.926045
0.805327
1.13966
1.33493
1.37046
0.991612
8.01736
6.05156
6.12831
8.31472
4.29078
5.5517
4.90189
4.0497
6.05992
6.6649
6.98518
5.41313
5.49356
6.78655
6.60162
4.84181
1.86091
1.39784
1.62987
1.92399
2.25233
1.73572
1.93424
2.3347
4.78072
6.42939
5.32204
4.25846
2.79878
2.68491
3.84193
3.809
1.04372
1.12857
1.63232
1.43372
1.7367
1.62836
2.22497
2.08414
4.80718
5.33979
3.88452
3.92206
3.72097
1.80976
3.33623
7.02787
3.97567
9.86753
3.28811
4.01736
3.19354
3.55838
3.57419
2.70447
0.995421
2.81756
1.0165
3.03152
2.99744
2.93719
2.68159
2.60847
2.6988
2.69242
2.86821
4.1315
3.5414
3.87556
6.27398
5.60128
3.28495
4.63039
6.21063
5.15239
5.24607
0.392251
4.90842
0.451148
4.05886
0.41588
2.34298
1.08875
2.57654
1.66386
5.59488
3.24549
6.01295
3.63267
0.830232
5.58683
0.686746
8.31007
0.986893
3.22462
5.64298
0.673865
3.6947
0.531554
3.91476
7.88821
0.722898
3.15126
8.21126
2.70974
7.06246
2.85689
7.01235
3.12423
4.41116
4.8199
5.05716
6.5893
7.17457
7.71537
2.812
8.42039
0.389935
8.04697
0.308064
11.0297
0.341256
4.79155
2.38864
6.62256
3.05336
6.36953
0.370454
5.77328
3.15042
4.32438
2.35247
6.05113
3.33946
14.2521
2.357
0.877539
2.73414
0.786857
2.6668
0.609406
4.59301
13.2049
0.508983
3.53692
0.510587
2.69405
1.01726
3.37727
0.684186
10.4409
1.37016
3.97858
0.667626
7.52829
0.425792
7.2035
2.57933
5.55839
2.23375
3.3702
2.37252
3.20451
3.22229
3.54913
3.09163
2.85594
0.858335
9.24169
0.542122
2.66711
1.28977
7.06388
0.820255
6.0352
2.75055
5.62603
2.2759
1.93376
12.0419
0.842602
2.03547
2.83143
6.36338
2.25702
5.95931
0.533641
2.38581
4.0503
6.50986
4.39804
4.29335
4.67618
4.72155
5.88134
3.75052
0.40694
4.97725
0.361943
8.12037
0.531986
7.63726
0.427527
3.73861
0.555708
3.80505
0.335939
5.3152
0.423913
4.33286
3.07993
2.91201
3.24456
3.85985
2.41676
4.37633
3.37456
3.95034
2.54194
5.26452
2.69098
5.19845
6.26299
6.19918
4.02257
5.2637
5.36485
4.01635
4.24716
4.00923
4.63684
7.52098
3.77963
7.60432
2.66698
6.28397
2.50101
12.0736
4.53755
2.81655
2.08347
7.38763
2.71718
9.35894
3.91128
3.20105
1.67632
3.74309
1.79924
9.60459
5.29472
3.57772
2.26262
4.51337
3.78697
4.29893
3.25946
3.74352
2.79398
4.17009
3.54624
2.8702
3.00964
3.32357
3.56443
2.53491
3.44081
3.14006
1.34538
4.03756
5.0669
2.40204
0.883517
8.24911
2.61321
1.12825
2.04134
6.17343
2.51789
1.42991
9.95246
7.04348
4.27156
5.53639
3.14654
14.9553
2.30907
8.14356
5.14482
6.86115
3.30253
9.5717
3.51869
5.64078
2.74261
2.2134
2.28666
2.2372
1.97636
2.57348
1.89752
2.31987
2.14024
1.74502
2.16932
1.66064
7.44151
1.48269
2.153
5.27479
13.0447
2.97802
4.41692
3.07922
8.29185
2.88978
7.39663
1.59641
2.34299
2.32925
3.42023
1.66573
2.43283
4.10196
2.62726
0.385186
4.48427
3.49658
7.71053
7.95722
2.23167
1.65439
2.80478
8.06931
2.43739
1.38577
17.864
2.60171
3.13868
7.95664
2.8859
15.6792
2.8459
7.13426
3.12277
1.9995
5.9853
2.88029
7.88029
3.0499
8.9862
6.69919
25.5138
1.86851
3.47751
7.19171
2.60689
9.38645
2.2298
10.863
3.57026
2.11278
7.0295
3.68467
4.3776
2.1492
6.60042
3.64232
7.68113
2.56631
0.421293
2.77223
1.98043
2.39944
3.54633
5.51214
2.39119
0.895272
2.01176
15.5997
1.4589
0.449205
3.81409
2.34229
5.58147
1.78309
9.86097
1.08813
0.558915
2.74594
2.38681
1.50773
1.71145
4.43174
3.76653
19.6608
2.07554
0.318652
6.11766
2.79551
8.45275
4.48356
5.30769
1.63631
3.83048
8.1237
2.94031
7.28989
0.464246
2.73627
4.19708
4.65978
4.44618
2.16776
1.25792
4.22847
9.44019
4.33171
2.68947
13.865
1.11437
2.50783
2.04956
2.73339
7.73689
2.8903
10.1855
1.83308
1.3241
4.04076
8.17552
1.1854
4.44904
1.78842
3.37821
3.94191
8.72211
2.89041
10.7104
4.1509
2.44176
8.01708
0.405025
3.59289
3.33286
1.15855
3.76168
7.47851
1.96205
4.03955
8.21739
3.06877
6.71061
4.03263
2.1265
4.24899
8.72106
1.15932
5.14996
0.632138
3.10602
2.06343
3.90211
9.65432
1.65909
2.60217
7.06839
24.2988
0.911946
2.89835
8.57874
2.48138
4.13983
23.3315
1.54089
0.408423
5.04513
2.58109
2.74226
3.25657
9.50389
3.97587
1.52699
25.1681
1.34471
3.15491
4.23518
23.399
1.00558
2.21694
3.47809
1.87934
2.6478
6.03911
4.87052
6.67912
4.97449
5.48659
5.41671
4.78913
5.66926
3.33275
3.78671
0.34444
3.74849
4.02406
5.22348
4.49448
4.51458
2.16783
2.20356
0.628311
2.82988
3.46106
3.54149
3.24382
2.8187
3.28709
3.46687
3.57098
4.0152
4.0772
3.36345
4.78755
3.18638
0.460269
3.05137
6.20115
6.89472
0.507574
2.63284
4.51
6.388
5.21874
5.26539
2.77549
0.557369
2.51363
0.534047
2.5427
6.60754
5.45058
3.09433
5.67716
3.57014
11.0726
2.50596
5.22831
2.3424
5.79446
2.74851
6.93257
2.96662
6.1084
0.898452
18.7712
3.78949
2.48058
0.810178
4.98085
2.55319
1.03352
3.96
2.72104
0.802308
2.44229
3.48944
6.88723
0.641515
2.66344
3.99782
0.395987
3.18201
2.64935
8.26871
2.38479
6.95944
3.76342
4.85351
1.91622
3.06888
6.97462
0.677503
21.1444
2.49799
5.1265
0.422142
14.9554
2.9853
10.1547
0.528674
11.7318
2.83763
6.00862
3.26292
5.49573
2.53455
0.963026
2.76172
0.910285
2.57219
0.757075
2.64569
0.745862
0.872233
5.00756
1.30912
4.65675
0.75967
4.20865
0.534496
4.33352
2.3583
0.270648
4.28162
0.3846
3.81778
2.53821
0.424846
4.02529
0.325785
4.53973
4.00575
3.21488
3.4277
4.33141
8.91244
8.36391
9.45199
10.7408
1.6044
1.64918
1.73775
1.74466
2.52935
1.29602
2.91006
1.53561
3.16901
2.09272
2.92892
1.66766
0.793765
4.98806
0.558053
3.86892
0.744359
3.42467
0.829251
3.59085
4.00435
5.23157
5.93763
5.21702
0.47051
0.72249
1.03317
0.84539
1.87181
6.03485
2.396
5.42263
3.08248
5.62724
2.21608
6.17614
1.59809
1.74909
2.14556
2.50428
4.48343
4.22108
4.9702
4.08276
3.48072
0.507908
2.89236
0.598715
2.71638
0.607378
3.56506
0.48375
6.9434
6.32414
6.677
6.84409
3.59144
2.88308
2.14401
2.86962
5.52586
2.23722
4.36893
4.31708
5.6128
12.3683
11.2585
9.48725
9.90985
5.2483
2.9355
5.51846
3.66043
5.30253
3.81284
5.33427
3.06166
7.02636
1.48429
5.42828
1.21177
3.89133
1.44588
5.89731
1.77473
21.6015
4.8005
18.4954
3.85925
13.1377
3.9756
14.9024
4.7462
1.85364
1.99882
2.15955
1.96806
2.9309
3.48993
3.35681
3.3812
3.35014
2.60665
2.93947
2.97674
3.68416
9.53087
3.54561
8.79914
3.51066
6.92395
3.42996
7.03805
3.37048
3.3381
3.26234
2.60277
3.15014
2.97922
2.97283
3.70653
7.89179
6.113
6.39255
7.40409
1.67685
1.3869
1.5717
2.19875
3.46705
3.62641
4.47787
4.23657
2.71844
6.18508
2.54312
5.93066
2.25173
5.80981
2.18653
6.07589
2.77756
6.6587
2.59992
6.62264
3.27669
7.09634
3.08863
7.9903
2.21903
2.47343
2.33473
2.01962
6.63809
6.7743
6.55194
6.12693
0.702286
0.78723
0.5564
0.498753
1.14591
1.67251
1.30626
0.92286
2.88269
1.05195
2.46361
1.45888
3.24826
1.47776
4.1033
1.21345
10.5948
1.64534
1.61678
7.53186
2.18698
9.33726
3.30638
13.0371
2.40734
2.81685
2.26416
2.90117
3.46398
2.81084
2.05219
2.69512
2.4399
2.85304
2.12777
2.78388
1.71801
1.36072
2.26749
2.77854
1.76839
4.95691
6.00698
8.08514
7.20209
5.8824
6.05108
7.32252
7.21434
10.2187
3.82488
6.77922
3.37439
7.58823
3.47566
9.56223
3.50586
3.92147
4.24465
3.94067
4.00957
5.67332
6.13954
7.31462
5.78645
4.70466
5.01007
4.10286
4.2079
4.34158
4.52224
4.92777
4.24719
4.97472
4.2826
4.15724
4.70008
3.50073
3.07352
2.66506
7.25701
7.02892
7.46945
8.5982
4.7706
5.79688
6.11792
4.89991
6.93108
5.43583
5.09178
5.84487
7.07347
6.78763
7.41822
7.71997
2.03073
2.44594
2.91964
2.24353
4.01313
4.21629
4.16788
4.15597
4.34124
3.62083
3.46288
4.21785
3.38597
2.33803
2.333
3.38332
0.881522
0.71057
0.560753
0.728338
3.06103
3.89989
3.90053
3.01304
4.8581
3.90068
3.56083
4.12604
1.1727
0.970535
1.04311
1.4941
4.9319
4.51152
4.59687
4.44858
3.40663
3.57288
3.5412
3.2625
0.948124
0.870945
1.14022
1.27857
3.95715
3.88402
4.90045
5.01359
2.31477
2.28491
2.97225
2.56776
0.464084
0.600503
0.697923
0.491019
4.43568
4.23168
3.04987
3.03098
4.44658
5.18598
3.74515
3.47366
7.57311
6.80687
6.54232
6.89264
6.91901
6.9076
7.64716
3.71525
5.23202
5.27915
3.71849
5.20783
4.21322
4.25345
5.81556
2.79517
2.83929
2.26192
2.15442
5.55698
4.62548
5.79885
6.57412
2.89084
3.71263
4.25881
3.67984
1.97675
2.0464
1.86289
2.11548
3.62922
3.45985
2.82063
2.99738
1.97807
1.91246
1.66725
1.83766
1.73249
1.65186
1.81183
1.8119
2.23643
1.76979
1.76181
1.98485
3.54322
3.59767
3.0297
3.2288
1.89625
2.089
2.60794
2.44571
1.42212
1.39456
1.58393
1.28715
3.35958
3.33798
2.5615
2.34542
4.37926
4.31469
4.23924
4.83344
3.56725
2.60219
2.68087
3.82513
4.33674
4.17128
4.45065
4.38765
3.00871
2.4829
2.50338
2.77802
1.77138
1.57418
1.57686
1.69511
2.6729
2.92938
4.01746
3.65617
2.65837
3.05486
2.64746
2.59969
1.04881
1.79961
1.62654
1.02069
5.95794
3.93725
4.06298
5.0115
4.98379
5.33843
6.56701
6.04266
4.07116
4.34171
4.39101
4.27344
2.5375
2.84524
3.58424
3.99096
4.43473
4.84685
4.01476
4.14981
1.76505
2.22092
1.97918
1.6554
5.62515
0.496326
2.64094
28.0336
6.41513
1.77541
8.63954
27.2684
1.81483
10.0616
13.543
0.534358
0.746726
6.83575
1.95854
6.73011
1.33432
1.49343
1.81175
1.59243
1.5592
1.32911
2.37892
5.28282
1.40213
5.13702
1.35952
0.457341
1.97821
7.66516
0.407972
1.50248
6.38083
1.96642
0.62356
0.706824
7.41301
1.49845
0.890039
7.09147
1.47012
0.751002
0.756557
0.640318
0.508407
11.4738
2.52753
7.83514
6.97182
0.567605
13.8786
2.67626
5.84703
0.570798
11.2867
2.58368
5.71442
2.09373
0.411573
2.19607
0.294317
2.07459
0.404873
2.8808
8.91679
2.26908
0.358173
1.53022
7.99036
1.96919
2.28847
2.64468
0.402306
2.33637
0.550458
1.7954
4.92369
2.37515
0.428705
2.04024
4.84909
1.98604
3.1919
0.595178
2.7362
0.586991
2.79084
0.549691
2.84087
0.511175
2.96916
9.84171
1.04226
13.5503
1.02265
20.8543
15.3644
5.69816
22.0826
6.22734
15.0029
3.21059
0.5291
0.990985
3.95808
0.757022
3.61942
0.648895
2.8299
0.862083
3.62882
7.76031
1.81209
9.47476
1.7618
8.70169
1.30131
6.68743
1.27061
7.03084
1.65357
22.6122
4.41848
15.5229
4.47909
4.89676
4.14879
6.39362
4.26366
20.0274
4.18356
8.58037
4.57824
0.513428
3.3827
0.455604
3.42717
0.611848
3.44014
0.278375
2.95313
0.319027
2.50705
0.40016
3.38833
0.287254
2.31207
0.522417
1.3605
0.717559
1.87851
8.90786
1.3496
0.803698
0.519266
1.33788
0.956966
1.2476
0.85496
16.5631
2.93183
18.9939
2.41372
10.3834
1.34132
0.601148
3.46937
0.599371
2.54173
0.490238
3.05715
0.344977
2.57725
0.352689
2.94879
0.737943
3.08497
0.449201
2.66459
0.488837
2.36096
14.519
3.16275
11.3325
3.58832
10.1645
2.6691
0.417155
2.94701
1.00021
4.18126
0.365404
3.15974
0.848266
4.56578
0.371685
1.03221
4.69919
0.547899
2.20261
1.21701
4.32388
1.89341
2.26332
1.93339
1.6289
13.5847
0.469802
7.62125
2.25004
0.340855
0.318301
0.341512
0.393019
16.7826
19.3754
0.909487
1.66526
1.47357
0.593085
0.566835
13.1674
2.86849
6.93497
1.53052
14.0076
3.19061
11.8883
2.90178
4.34127
1.25153
11.5209
2.77149
6.51917
1.18187
1.11217
1.64863
5.1087
1.22343
1.76227
0.544509
1.60429
7.00115
0.682069
1.88449
2.24054
10.6261
1.4361
6.88169
5.50274
1.12669
0.821972
5.61799
2.19894
0.543509
4.81495
1.49602
2.50205
1.11006
3.76777
0.697739
1.92447
5.31729
5.72023
0.889322
1.76819
6.45081
1.74812
1.32149
4.41765
21.1404
7.9905
1.00378
3.49887
1.382
1.81259
2.88477
10.6777
2.53479
16.1475
6.12759
1.66618
1.98061
2.96761
2.0314
3.58048
8.73311
1.64431
8.37372
1.97502
8.31641
1.47634
10.1998
1.88193
7.5322
1.29637
0.663103
14.5469
2.42994
10.7582
1.62519
4.67473
1.59277
1.73249
1.78668
5.31087
1.96865
0.799118
8.97295
1.86392
1.57464
6.03626
2.50287
1.33421
1.4527
5.54073
12.7564
2.63612
13.3293
2.08007
8.12528
1.45123
6.7103
1.22817
1.49128
5.78255
7.41299
1.83568
1.8206
5.09768
5.88606
0.943807
7.12625
2.02165
11.7044
2.91034
13.9415
2.54089
5.45036
1.82615
0.818856
2.00355
7.53526
2.06433
4.79062
0.88896
8.02961
2.09685
2.84526
4.17824
9.85031
2.50746
8.01422
1.60502
8.26063
2.07418
4.02165
2.97056
0.999222
0.844305
6.11369
1.19401
0.83503
0.920257
3.60572
6.87649
1.17356
0.822723
5.11071
1.24843
30.1126
1.17645
7.39738
15.0502
2.67453
7.65091
1.65895
0.88564
13.6049
2.83222
8.58194
2.41482
6.42084
1.17129
8.88947
1.06047
1.29047
7.32567
1.14518
1.63249
21.0571
3.02176
1.68184
1.47914
12.4861
2.30881
7.91769
1.45369
6.64521
4.53128
2.01744
0.504324
11.6655
2.52903
9.73872
1.19285
6.88246
1.1085
7.2609
1.50867
7.02588
1.02082
11.1102
10.195
2.42014
8.6411
1.21938
12.4574
2.50634
7.38889
1.66615
0.729931
6.18349
24.1589
2.37933
1.48036
1.21594
5.35514
0.576182
1.20437
1.86907
11.4724
1.15753
4.63732
1.04308
6.52358
1.35109
0.991553
1.89251
7.0731
1.17007
1.77813
10.1007
0.656665
0.550219
1.71279
0.592953
1.8782
9.81486
0.310532
2.66842
5.33761
6.88548
1.7519
0.580278
1.04016
1.10644
5.5824
9.03425
10.056
2.13003
7.40716
1.26701
3.34429
0.74089
4.09841
14.579
3.68014
4.86948
4.31246
1.02986
2.90445
11.5552
3.77652
5.31853
3.26274
0.622804
5.36396
1.10817
3.41216
0.908455
4.6711
1.88771
0.454853
2.4698
6.77105
1.49693
10.5659
13.2797
0.88132
7.85611
0.985218
1.23087
7.28902
1.54212
7.15729
9.46922
4.54374
0.655728
3.56739
7.95501
3.62278
6.96808
2.93953
0.898126
4.94075
7.2283
3.39836
2.61726
7.60495
0.887017
5.06151
0.536036
0.740569
4.06323
16.1555
1.96533
12.9126
1.65428
11.8001
1.59084
13.1333
1.90856
6.5829
1.25071
7.42479
1.41311
17.9328
2.21114
7.24856
1.77927
8.522
2.05469
6.46127
1.11051
8.87058
1.97158
3.87237
0.666126
6.56006
4.71469
1.8374
4.17273
3.9545
4.21008
4.78767
4.71912
0.66113
6.9956
0.650369
5.64281
0.916269
5.36042
1.00592
1.10479
0.982212
1.11553
1.19118
2.55808
1.27302
7.39072
2.43556
0.24072
0.181548
0.231904
0.294474
0.574181
8.64318
0.637505
6.61747
0.796144
6.32561
0.657236
8.16294
1.07194
1.18282
1.37066
0.93694
2.06113
1.52648
1.37555
1.61987
0.210554
0.24822
0.234634
0.180095
3.77825
2.9414
3.47381
4.33746
1.70246
0.706341
1.83615
0.686436
1.67407
1.1665
1.86357
1.11555
4.51355
1.21089
3.74159
0.917651
2.85101
1.18274
3.86435
1.32902
3.17465
4.31884
3.84089
2.86596
0.502385
0.484286
0.345092
0.330493
2.16819
13.5667
4.16596
12.3467
4.39416
9.37342
4.13403
10.02
3.79615
18.5162
2.50035
24.343
2.77317
28.1137
3.43439
22.4056
3.1047
0.765635
2.57885
0.68728
2.29399
0.516693
2.23562
0.608034
2.48157
13.3276
19.4384
17.6215
12.389
2.73807
1.21014
5.06786
5.07682
2.89235
1.75043
3.68677
2.36986
3.61771
1.7303
3.84449
1.33808
4.58939
2.16026
0.368388
2.29415
0.419796
2.52975
0.753389
2.01102
0.585953
4.71484
2.84567
3.21838
3.9845
3.28555
4.36893
3.77949
4.46241
3.07379
4.70466
2.31665
4.90282
3.44357
4.61737
1.84057
4.74227
1.33851
4.86089
1.09299
4.42718
1.40723
4.03954
2.18205
4.61661
2.79347
4.59932
1.86899
4.91972
1.14191
5.02216
1.31667
5.22612
1.05159
6.2868
0.848927
9.41428
0.595845
11.2305
0.55353
10.0788
0.588461
10.328
8.13736
0.681404
17.5807
16.2213
17.328
20.3323
0.682222
2.39397
0.540448
2.19939
0.500238
2.15502
0.65443
2.13413
2.29857
2.11325
1.65875
1.90471
0.909518
0.670002
0.588864
0.738222
10.5374
8.96944
11.0844
12.9914
3.16247
6.2367
2.66906
6.6325
1.96361
9.21138
2.36631
7.95383
2.32335
1.80056
1.80591
2.26916
4.02466
3.50269
3.05678
3.46529
1.3092
1.35819
1.58331
1.5329
1.83644
1.73315
1.89289
2.13627
2.43824
2.54916
1.35795
1.42097
4.8556
5.65532
4.4173
4.06705
1.97915
1.96933
1.94898
1.92578
1.63941
2.01547
1.95248
1.60625
1.24633
1.00335
1.39753
1.64709
2.18301
1.88321
1.77705
1.99714
7.33923
6.77237
4.73273
6.08973
1.36648
5.41096
1.74641
5.33664
1.58381
5.36622
1.22723
0.794339
2.4962
1.18722
2.34282
1.14971
2.57197
0.794146
2.90566
1.9077
1.85292
1.84415
1.86603
2.36695
2.25363
1.72002
1.66253
1.7445
2.78408
0.402463
0.38448
0.33436
0.399844
0.584901
0.58833
0.386789
0.397679
0.655805
0.442137
0.433863
0.6186
0.245459
0.328134
0.38406
0.331314
8.86263
7.95786
9.36626
9.48883
6.80218
7.63014
8.40549
6.85529
2.05522
2.78768
2.9635
1.85957
5.72428
7.02439
5.18944
4.39708
8.01456
8.30988
7.26072
7.64037
2.74324
3.21311
2.77773
2.47458
3.08578
3.03875
2.84381
3.06627
2.87665
3.13773
3.08327
2.94025
3.14115
2.75116
3.19641
2.05301
1.53318
1.61506
1.94795
0.258451
0.299537
0.261643
0.227627
2.14086
1.55772
2.17198
2.75682
0.256331
0.332801
0.335499
0.280244
0.303608
0.398133
0.50302
0.413396
1.05111
1.30686
1.63052
1.20886
0.197193
0.181918
0.223971
0.228099
1.26904
1.1971
0.942693
1.04367
0.209866
0.18717
0.18284
0.220525
2.39721
1.94976
2.50662
3.52799
0.755419
0.586258
0.760594
1.12657
4.03947
3.90343
3.25155
3.2027
1.78094
1.3371
1.21845
1.88713
4.68815
4.12401
5.24158
6.27076
1.6824
1.52901
1.69031
1.77354
3.06834
3.26021
2.16892
2.40018
1.14201
1.46494
1.24906
1.08819
1.2388
1.05787
0.867231
1.0376
0.259164
0.241456
0.315528
0.363846
1.69569
1.56968
1.87968
2.21491
1.77997
1.87289
1.6325
1.8739
1.09717
1.12439
1.64369
1.70639
1.21757
1.43311
1.54545
1.77246
1.58292
1.26945
1.00572
0.744036
0.875916
1.40886
1.59428
1.43448
1.19552
1.30061
1.75093
2.12187
1.801
1.53672
1.91597
1.90475
1.88883
1.5311
1.76976
1.3824
1.23651
0.479859
0.712974
0.676083
0.490057
1.02255
0.691739
0.590133
0.921408
0.922834
0.859843
1.11998
1.07451
0.408732
0.637866
0.724693
0.490951
0.512356
0.523206
0.453653
0.45899
2.13853
2.52752
2.90375
2.12743
0.2023
0.247594
0.310913
0.240775
0.210301
0.221724
0.179978
0.182218
3.15522
2.27218
2.05156
2.6362
0.321537
0.261998
0.249007
0.312151
3.13869
2.69989
2.8813
3.50238
0.404173
0.310611
0.419834
0.492649
2.14516
0.420716
0.270122
1.1722
2.59808
0.24483
1.23067
2.6988
12.5769
0.300341
10.9125
0.300688
0.504386
3.52914
0.654115
3.56189
0.369847
0.985478
6.81685
0.363851
7.48833
0.491858
8.42152
0.365064
15.876
0.717284
11.6756
0.613103
6.51659
0.40252
10.7719
0.932688
13.6781
1.11355
4.11752
1.91087
1.94856
3.24881
1.60753
0.899049
0.512864
0.67432
0.57181
0.400677
7.27672
0.464117
5.20006
0.364255
7.53038
0.461016
0.786158
2.6085
0.838694
2.46362
2.15221
0.716083
1.6389
0.920191
0.535558
2.96014
1.72136
0.857159
2.15946
0.806662
10.889
0.27726
11.1748
0.309433
0.224504
2.57375
3.65898
0.179224
2.41199
3.33607
0.254179
0.181989
1.78347
3.53861
8.01081
0.267733
7.28925
0.254935
0.789436
1.1535
0.634125
0.535171
0.570462
0.805628
0.813429
5.49957
0.37109
4.30493
0.324332
8.07333
0.803526
5.78326
0.326006
1.29272
8.38994
7.20025
8.40846
0.40871
7.09786
0.626349
10.6776
0.275588
3.5147
1.5314
3.7242
1.29155
1.30456
13.4693
0.930878
7.10059
0.8564
11.3909
5.68626
0.881147
0.78939
0.685103
10.3594
0.84543
4.68159
0.640333
0.922941
0.463698
5.85183
0.652875
1.48518
0.405567
2.12619
0.350649
3.93812
0.304711
4.09474
0.270705
4.27414
0.3085
3.4821
1.05722
6.75482
0.259073
4.06986
1.14786
15.3148
0.33217
4.58726
1.15972
3.73831
1.00005
8.13207
0.703515
7.91898
0.730001
3.06423
0.684221
8.451
0.79561
4.50823
0.963126
2.83333
1.14663
6.3383
0.619466
2.26402
0.9009
0.923235
12.0993
0.931074
12.2929
9.27569
0.267787
11.3475
0.252736
4.50311
4.9064
5.00472
1.61907
8.74366
0.282111
4.46535
1.4909
4.13433
1.52804
10.8405
0.302507
4.01504
1.60236
0.881189
9.51929
1.08509
7.919
1.3638
4.58381
0.478036
3.25804
1.34974
5.13824
0.626289
2.35615
0.393387
5.27504
1.24212
5.24802
0.891772
2.16297
1.2739
4.87239
0.886086
10.3785
0.378542
0.779531
3.14273
7.98699
0.207453
12.0946
0.327446
0.622387
2.36001
0.985617
10.7887
0.987886
14.2072
0.938402
11.5134
1.20073
5.62104
1.02102
6.97035
1.86249
0.681429
1.69575