# vtk DataFile Version 2.0
Unstructured Grid by M++
ASCII
DATASET UNSTRUCTURED_GRID
POINTS 4225 float
  0.921875   0.593750 0
  0.921875   0.609375 0
  0.656250   0.609375 0
  0.671875   0.609375 0
  0.656250   0.546875 0
  0.671875   0.546875 0
  0.656250   0.562500 0
  0.656250   0.578125 0
  0.656250   0.593750 0
  0.671875   0.593750 0
  0.671875   0.562500 0
  0.671875   0.578125 0
  0.671875   0.625000 0
  0.671875   0.640625 0
  0.906250   0.578125 0
  0.890625   0.578125 0
  0.546875   0.515625 0
  1.000000   0.890625 0
  0.515625   0.640625 0
  0.515625   0.625000 0
  1.000000   0.875000 0
  0.515625   0.656250 0
  0.515625   0.687500 0
  0.515625   0.671875 0
  1.000000   0.921875 0
  0.546875   0.531250 0
  0.546875   0.546875 0
  0.546875   0.562500 0
  0.796875   0.531250 0
  0.953125   0.890625 0
  0.953125   0.875000 0
  0.953125   0.843750 0
  0.953125   0.828125 0
  0.953125   0.812500 0
  0.531250   0.562500 0
  0.531250   0.546875 0
  0.515625   0.562500 0
  0.515625   0.546875 0
  1.000000   0.812500 0
  0.781250   0.546875 0
  0.765625   0.546875 0
  0.859375   0.921875 0
  0.921875   0.671875 0
  0.609375   0.906250 0
  0.671875   0.656250 0
  0.609375   0.921875 0
  0.671875   0.671875 0
  0.671875   0.984375 0
  0.671875   1.000000 0
  0.906250   0.984375 0
  0.906250   1.000000 0
  0.921875   0.984375 0
  0.921875   1.000000 0
  0.859375   0.609375 0
  1.000000   0.781250 0
  0.515625   0.531250 0
  0.531250   0.531250 0
  0.531250   0.515625 0
  0.515625   0.515625 0
  1.000000   0.750000 0
  0.765625   0.531250 0
  0.781250   0.531250 0
  0.781250   0.515625 0
  0.765625   0.515625 0
  0.859375   0.875000 0
  0.921875   0.625000 0
  0.859375   0.890625 0
  0.921875   0.640625 0
  0.671875   0.968750 0
  0.671875   0.953125 0
  0.921875   0.968750 0
  0.921875   0.953125 0
  0.859375   0.593750 0
  0.859375   0.578125 0
  0.875000   0.578125 0
  0.828125   0.890625 0
  0.890625   0.640625 0
  0.593750   0.890625 0
  0.656250   0.640625 0
  0.593750   0.875000 0
  0.656250   0.625000 0
  0.578125   0.890625 0
  0.640625   0.640625 0
  0.578125   0.875000 0
  0.640625   0.625000 0
  0.968750   0.890625 0
  0.984375   0.890625 0
  0.968750   0.812500 0
  0.968750   0.828125 0
  0.984375   0.812500 0
  0.984375   0.828125 0
  1.000000   0.828125 0
  0.656250   0.953125 0
  0.640625   0.953125 0
  0.890625   0.968750 0
  0.906250   0.968750 0
  0.906250   0.953125 0
  0.890625   0.953125 0
  0.531250   0.703125 0
  0.531250   0.718750 0
  0.546875   0.718750 0
  0.546875   0.703125 0
  0.593750   0.578125 0
  0.562500   0.578125 0
  0.578125   0.578125 0
  0.843750   0.578125 0
  0.828125   0.578125 0
  0.828125   0.812500 0
  0.890625   0.562500 0
  0.828125   0.796875 0
  0.953125   0.906250 0
  0.953125   0.921875 0
  0.531250   0.859375 0
  0.593750   0.609375 0
  0.531250   0.843750 0
  0.593750   0.593750 0
  0.515625   0.843750 0
  0.578125   0.593750 0
  0.515625   0.859375 0
  0.578125   0.609375 0
  0.937500   0.859375 0
  1.000000   0.609375 0
  0.921875   0.859375 0
  0.984375   0.609375 0
  0.937500   0.796875 0
  0.921875   0.796875 0
  0.984375   0.546875 0
  0.562500   0.812500 0
  0.843750   0.796875 0
  0.843750   0.812500 0
  0.859375   0.796875 0
  0.859375   0.812500 0
  1.000000   0.906250 0
  0.984375   0.906250 0
  0.968750   0.906250 0
  0.968750   0.921875 0
  0.984375   0.921875 0
  0.593750   0.921875 0
  0.656250   0.671875 0
  0.593750   0.906250 0
  0.656250   0.656250 0
  0.578125   0.906250 0
  0.640625   0.656250 0
  0.578125   0.921875 0
  0.640625   0.671875 0
  1.000000   0.843750 0
  0.984375   0.843750 0
  0.968750   0.843750 0
  0.968750   0.859375 0
  0.968750   0.875000 0
  1.000000   0.859375 0
  0.984375   0.859375 0
  0.984375   0.875000 0
  0.656250   1.000000 0
  0.656250   0.984375 0
  0.656250   0.968750 0
  0.640625   0.968750 0
  0.640625   1.000000 0
  0.640625   0.984375 0
  0.843750   0.921875 0
  0.906250   0.671875 0
  0.843750   0.906250 0
  0.906250   0.656250 0
  0.828125   0.906250 0
  0.890625   0.656250 0
  0.828125   0.921875 0
  0.890625   0.671875 0
  0.781250   0.859375 0
  0.843750   0.609375 0
  0.781250   0.843750 0
  0.843750   0.593750 0
  0.765625   0.843750 0
  0.828125   0.593750 0
  0.765625   0.859375 0
  0.828125   0.609375 0
  0.968750   0.609375 0
  0.906250   0.859375 0
  0.953125   0.609375 0
  0.890625   0.859375 0
  0.937500   0.609375 0
  0.875000   0.859375 0
  0.562500   0.593750 0
  0.546875   0.593750 0
  0.531250   0.593750 0
  0.531250   0.609375 0
  0.562500   0.609375 0
  0.546875   0.609375 0
  0.609375   0.625000 0
  0.546875   0.875000 0
  0.609375   0.640625 0
  0.546875   0.890625 0
  0.625000   0.640625 0
  0.562500   0.890625 0
  0.625000   0.625000 0
  0.562500   0.875000 0
  0.921875   0.843750 0
  0.984375   0.593750 0
  0.937500   0.843750 0
  1.000000   0.593750 0
  0.921875   0.812500 0
  0.921875   0.828125 0
  0.984375   0.578125 0
  0.937500   0.828125 0
  1.000000   0.578125 0
  0.937500   0.812500 0
  1.000000   0.562500 0
  0.578125   0.828125 0
  0.921875   0.781250 0
  0.937500   0.781250 0
  1.000000   0.531250 0
  0.921875   0.765625 0
  0.984375   0.515625 0
  0.937500   0.765625 0
  0.625000   0.656250 0
  0.562500   0.906250 0
  0.609375   0.656250 0
  0.546875   0.906250 0
  0.625000   0.671875 0
  0.562500   0.921875 0
  0.609375   0.671875 0
  0.546875   0.921875 0
  0.859375   0.781250 0
  0.859375   0.765625 0
  0.828125   0.671875 0
  0.765625   0.921875 0
  0.828125   0.734375 0
  0.765625   0.984375 0
  0.875000   0.843750 0
  0.937500   0.593750 0
  0.890625   0.843750 0
  0.953125   0.593750 0
  0.906250   0.843750 0
  0.968750   0.593750 0
  0.906250   0.828125 0
  0.968750   0.578125 0
  0.937500   0.578125 0
  0.953125   0.578125 0
  0.906250   0.765625 0
  0.875000   0.765625 0
  0.953125   0.515625 0
  0.531250   0.781250 0
  0.671875   0.890625 0
  0.531250   0.921875 0
  0.953125   0.656250 0
  0.828125   0.781250 0
  0.843750   0.781250 0
  0.703125   0.984375 0
  0.687500   0.984375 0
  0.843750   0.875000 0
  0.906250   0.625000 0
  0.671875   0.781250 0
  0.734375   0.531250 0
  0.906250   0.609375 0
  0.671875   0.765625 0
  0.734375   0.515625 0
  0.906250   0.593750 0
  0.890625   0.593750 0
  0.875000   0.593750 0
  0.828125   0.875000 0
  0.890625   0.625000 0
  0.656250   0.781250 0
  0.718750   0.531250 0
  0.890625   0.609375 0
  0.656250   0.765625 0
  0.718750   0.515625 0
  0.875000   0.609375 0
  0.640625   0.765625 0
  0.703125   0.515625 0
  0.812500   0.921875 0
  0.875000   0.671875 0
  0.812500   0.875000 0
  0.875000   0.625000 0
  0.640625   0.781250 0
  0.703125   0.531250 0
  0.812500   0.515625 0
  0.750000   0.828125 0
  0.812500   0.578125 0
  0.687500   1.000000 0
  0.937500   0.656250 0
  0.875000   0.906250 0
  0.531250   0.656250 0
  0.890625   0.906250 0
  0.906250   0.906250 0
  0.562500   0.656250 0
  0.906250   0.890625 0
  0.562500   0.640625 0
  0.968750   0.625000 0
  0.906250   0.875000 0
  0.562500   0.625000 0
  0.937500   0.640625 0
  0.875000   0.890625 0
  0.890625   0.890625 0
  0.546875   0.640625 0
  0.953125   0.625000 0
  0.890625   0.875000 0
  0.546875   0.625000 0
  0.546875   0.687500 0
  0.890625   0.937500 0
  0.937500   0.625000 0
  0.875000   0.875000 0
  0.531250   0.625000 0
  0.531250   0.640625 0
  0.546875   0.656250 0
  0.937500   0.968750 0
  0.687500   0.968750 0
  0.953125   0.968750 0
  0.703125   0.968750 0
  0.968750   0.968750 0
  0.718750   0.968750 0
  0.718750   0.906250 0
  0.968750   0.953125 0
  0.718750   0.953125 0
  0.968750   0.937500 0
  0.859375   0.906250 0
  0.921875   0.656250 0
  0.718750   0.937500 0
  0.828125   0.531250 0
  0.937500   0.953125 0
  0.687500   0.953125 0
  0.953125   0.953125 0
  0.703125   0.953125 0
  0.703125   0.890625 0
  0.843750   0.515625 0
  0.953125   0.937500 0
  0.953125   1.000000 0
  0.703125   0.937500 0
  0.937500   0.937500 0
  0.687500   0.937500 0
  0.703125   0.906250 0
  0.718750   0.890625 0
  0.687500   0.890625 0
  0.687500   0.765625 0
  0.750000   0.515625 0
  0.687500   0.781250 0
  0.750000   0.531250 0
  0.859375   0.937500 0
  0.921875   0.687500 0
  0.687500   0.796875 0
  0.750000   0.546875 0
  0.578125   0.750000 0
  0.515625   1.000000 0
  0.843750   0.765625 0
  0.578125   0.734375 0
  0.515625   0.984375 0
  0.562500   0.734375 0
  0.828125   0.750000 0
  0.765625   1.000000 0
  0.562500   0.750000 0
  0.562500   0.718750 0
  0.578125   0.515625 0
  0.921875   0.703125 0
  0.921875   0.718750 0
  0.593750   0.515625 0
  0.687500   0.875000 0
  0.750000   0.625000 0
  0.578125   0.531250 0
  0.921875   0.750000 0
  0.703125   0.875000 0
  0.765625   0.625000 0
  0.593750   0.531250 0
  0.875000   0.968750 0
  0.937500   0.718750 0
  0.703125   0.828125 0
  0.765625   0.578125 0
  0.937500   0.734375 0
  0.703125   0.812500 0
  0.765625   0.562500 0
  0.890625   0.687500 0
  0.828125   0.937500 0
  0.656250   0.796875 0
  0.718750   0.546875 0
  0.890625   0.718750 0
  0.828125   0.968750 0
  0.906250   0.796875 0
  0.718750   0.828125 0
  0.781250   0.578125 0
  0.890625   0.703125 0
  0.828125   0.953125 0
  0.656250   0.859375 0
  0.906250   0.781250 0
  0.968750   0.531250 0
  0.546875   0.796875 0
  0.671875   0.796875 0
  0.734375   0.546875 0
  0.843750   0.953125 0
  0.906250   0.703125 0
  0.671875   0.875000 0
  0.718750   0.812500 0
  0.781250   0.562500 0
  0.875000   0.812500 0
  0.531250   0.890625 0
  0.593750   0.640625 0
  0.937500   0.890625 0
  0.875000   0.781250 0
  0.609375   0.703125 0
  0.546875   0.953125 0
  0.890625   0.796875 0
  0.625000   0.718750 0
  0.562500   0.968750 0
  0.906250   0.812500 0
  0.734375   0.859375 0
  0.796875   0.609375 0
  0.718750   0.875000 0
  0.781250   0.625000 0
  0.750000   0.859375 0
  0.812500   0.609375 0
  0.812500   0.546875 0
  0.750000   0.812500 0
  0.734375   0.843750 0
  0.796875   0.593750 0
  0.750000   0.843750 0
  0.812500   0.593750 0
[...]
CELL_DATA 4096
SCALARS scalar_value float 1
LOOKUP_TABLE default
2.81604
2.49919
2.58761
3.45824
2.31768
2.28462
2.75392
2.74688
1.71683
1.81872
1.85971
1.7681
2.25402
1.99783
1.81105
2.51104
11.5737
10.3813
11.1581
11.8315
8.75334
9.90088
11.8447
10.5387
4.93856
7.65245
7.03418
6.12681
7.16495
5.86148
5.26897
6.05667
8.92938
7.78232
5.81139
6.56704
4.20403
4.86963
3.56296
3.23994
5.08957
5.79458
7.29541
5.31632
1.99111
1.77548
1.93001
2.00145
6.11932
8.27838
10.4572
8.06311
4.58866
4.88388
6.5381
5.81685
2.87139
3.04458
3.8343
4.04238
4.44494
5.0094
6.73154
5.68827
6.16594
5.3422
5.70955
6.07359
0.864465
1.24521
1.45666
0.98828
4.05181
6.18931
6.98247
4.39776
2.66499
3.91697
3.34204
2.41256
4.12144
4.32661
3.59221
4.09804
3.7748
3.29196
2.70335
2.94669
5.72102
5.80656
4.06864
4.77546
3.49807
3.61351
2.90198
2.65793
3.03513
3.45573
4.37402
3.98713
2.87677
3.99487
3.98879
2.87251
11.4182
8.0737
7.65833
10.4489
6.09888
5.19989
5.26144
6.10711
2.56348
2.78982
2.64566
2.69205
4.12721
3.88054
3.41747
4.43075
10.5083
8.41857
11.3499
11.8271
5.54302
6.01972
6.2273
6.662
6.76417
5.58564
5.64984
6.75821
4.62591
4.17748
4.42234
5.17922
1.89683
1.74845
2.10776
2.18151
1.80957
1.92812
1.97539
1.80696
4.52193
5.65182
5.02836
4.49455
2.72525
2.29072
2.59448
3.71651
1.7933
1.56946
1.69304
1.85534
3.54833
4.88329
5.33021
4.11771
9.60576
10.2103
9.68015
7.86569
3.2721
4.1739
2.87096
2.32449
10.5614
9.98441
11.0292
12.4471
1.89433
1.9812
1.638
1.64411
1.17874
1.16685
1.2238
1.27943
7.16493
5.0309
4.188
5.89117
8.9008
8.22805
9.75116
10.2813
2.35777
2.43128
1.97468
2.37073
1.49105
1.36438
1.27682
1.46217
6.0648
5.67009
6.97572
7.26797
8.54773
1.57709
15.0688
5.59766
7.17896
1.4677
22.8825
24.03
12.8647
22.8809
13.6476
5.39451
13.2475
5.19854
13.5312
4.76645
18.6015
5.59649
18.8328
4.74738
18.845
4.83281
17.5661
20.3016
20.6495
23.174
11.8244
10.6904
18.497
10.6342
13.8037
13.4448
14.3144
8.79452
12.0799
11.6801
13.6229
8.09042
12.3562
2.94437
13.054
2.13292
7.59117
2.3344
5.88252
3.6662
3.387
6.30122
2.55728
4.96465
1.94633
4.43535
5.84015
1.68342
3.59323
1.79152
4.17979
6.27284
1.97271
5.49624
8.64673
2.79097
7.60118
2.59401
6.40982
3.94873
21.8188
23.192
20.5344
17.9872
13.5922
6.91068
3.81587
12.0599
16.724
13.2369
13.1027
11.1364
16.7537
12.2133
4.29768
12.8215
4.04167
13.2861
11.2132
15.1134
4.92855
15.3173
4.77423
5.65154
6.19443
1.93335
15.1563
3.3071
19.4581
2.25287
16.4641
3.0627
11.2057
4.41267
6.36156
11.2744
5.32067
18.293
2.23039
11.1924
4.00341
6.42459
8.86913
11.3879
4.93076
11.8623
14.2685
9.36552
2.08018
21.6881
1.24447
4.79605
15.7654
3.9984
17.755
3.49925
14.7994
5.89729
14.2875
8.85206
18.2159
4.6002
13.2421
8.35589
13.8231
10.4847
1.53183
24.2787
1.37951
5.35868
8.71014
17.9263
4.49352
4.99969
9.33635
1.94627
9.75086
15.0049
5.79743
23.3197
13.405
24.1405
14.9788
13.4571
5.91105
15.7629
4.06465
2.75333
4.26849
2.11888
2.70216
2.53296
3.81609
1.55994
2.86513
1.28821
2.78841
1.96979
2.94546
1.09497
2.14919
3.17324
2.75939
2.34899
2.70946
1.42056
11.9051
1.41699
10.4623
1.62621
9.20458
1.48327
11.3226
17.7331
20.9658
22.6204
14.3239
22.4388
2.04069
7.59016
2.99525
5.10306
14.4503
4.61227
8.67148
2.37555
22.1511
1.78213
10.058
4.70098
16.6729
4.33706
23.1871
1.75724
10.8077
4.46054
13.9582
3.95288
12.6103
4.25437
12.409
4.3252
14.4589
5.14479
2.78471
5.00563
1.97478
7.6813
2.50843
8.25486
3.44819
5.54609
1.89694
9.81307
1.41481
10.0174
1.44004
11.14
20.3323
1.61442
3.91223
2.93115
10.457
4.925
1.27879
8.3662
4.49459
3.58067
1.32873
9.66804
3.28167
1.79017
5.48901
5.98648
4.32583
6.45219
2.05912
3.44855
1.93824
1.33941
6.53799
7.30637
1.42853
1.1785
1.81016
4.04961
3.75879
4.50212
12.8975
3.7894
13.0428
3.56396
16.526
3.95111
13.684
3.9452
3.22068
10.2837
14.9258
1.37964
3.6249
1.67987
1.89432
4.48641
3.26491
8.02627
4.73885
7.85832
2.56608
3.21592
1.97131
11.3017
5.15734
6.10319
5.76194
5.22891
8.66674
12.6444
4.82179
6.77222
11.3132
5.54577
6.23952
2.07095
21.4935
15.3562
1.8304
2.42637
8.07786
5.09881
4.85285
2.77901
2.7683
8.16285
3.01125
6.59457
18.1274
15.6759
3.51142
8.41666
2.18382
18.3027
4.15115
3.61647
8.89948
5.1148
5.84649
4.1982
4.39824
8.22687
3.26648
8.40056
1.98826
12.2723
4.93378
9.27452
5.8784
11.5489
7.393
6.21645
3.62332
3.9903
14.6431
5.37463
11.9187
4.72575
8.10753
5.87634
3.28908
4.97904
5.87382
9.78109
6.87105
11.9804
2.35172
9.86749
5.45066
7.47026
10.49
3.69346
13.7323
2.86036
5.89293
3.73366
6.95505
5.21037
4.11373
8.45496
9.73279
13.537
2.17608
13.6572
4.89591
12.1626
11.7416
8.96957
5.64954
4.35824
6.84564
5.46327
11.8991
13.5203
19.8846
19.0221
3.07058
13.1661
9.05387
4.92326
10.9107
4.79134
7.44386
12.2195
4.88019
2.18586
2.42964
9.97988
2.08843
21.8268
3.87131
16.2003
10.1286
4.42473
1.54892
3.31406
1.71746
4.27298
6.67516
4.77505
2.18751
18.5008
6.87366
2.61802
9.69056
6.59087
13.9567
5.27021
2.90616
7.00815
4.75193
17.6629
11.8212
4.73309
2.14032
11.2377
6.91793
3.2415
7.81333
5.25544
10.1952
8.95342
2.21683
18.3766
3.90489
10.0761
4.90359
13.1574
4.24798
6.6797
6.83574
14.2085
2.03399
10.6362
2.01028
4.77262
5.21208
10.1029
8.33918
11.5692
3.88044
2.00622
1.91894
13.5488
21.2071
1.36635
4.87938
10.2687
2.71839
14.6157
7.18825
15.0783
3.35889
16.2827
1.2858
2.9324
2.06149
13.8043
2.72614
11.6627
2.9681
13.8813
2.27213
15.6569
2.95885
15.4274
1.35121
2.16727
2.51747
18.5721
2.84037
17.9366
5.61414
2.94062
2.93569
14.0236
3.19454
18.9842
0.759217
4.79828
18.1795
4.16137
20.5088
4.08502
17.9868
5.0312
16.6564
5.50542
5.14509
13.6185
3.66775
13.2029
4.51037
14.2416
4.6448
14.2382
3.44979
14.1816
5.58155
2.82753
3.86348
2.96312
15.8469
3.1581
13.1112
2.52378
10.2691
2.15539
15.7061
2.89825
5.41916
2.40809
5.31313
2.31467
7.32314
2.53874
7.77708
18.0713
9.36688
0.828396
8.54289
7.6575
0.943114
8.04989
6.63336
0.971843
4.44519
5.117
12.1107
7.19067
6.31044
7.14621
9.93056
6.20551
5.61509
13.3153
4.08619
7.88973
1.6394
15.8108
2.48216
11.5742
4.67061
2.14172
10.4987
19.275
7.89395
3.3283
11.999
20.3206
9.17514
2.23567
12.6151
21.5616
9.3815
3.32019
12.3802
3.35101
13.2298
6.87681
9.67697
5.39133
12.2783
7.1014
13.083
7.45352
10.1376
0.856313
2.14126
1.16262
2.72738
1.2154
2.70117
0.910348
2.06913
2.3608
1.50597
2.08985
1.97216
3.23942
2.9213
2.36857
3.5174
1.82716
2.47558
9.21729
8.90925
7.05048
8.41994
2.9844
2.90578
2.64313
2.8159
4.99106
4.97224
4.3966
4.01472
6.9222
7.63626
7.62878
5.21403
6.92603
5.44248
7.05519
8.52474
12.4331
6.91678
12.9998
8.37628
13.1255
6.98141
13.1078
6.59493
3.36689
3.28082
2.74086
2.4356
1.55417
1.93364
1.58413
1.35431
2.28571
13.5858
2.46787
14.0766
1.77624
15.2959
1.97156
16.2019
4.85658
5.28426
5.95117
6.20842
0.715827
1.04842
1.28579
0.856539
10.4037
8.26334
9.18909
8.48642
9.00685
10.9324
11.3175
10.929
4.34531
3.6888
3.13671
3.72409
3.80571
2.71776
2.0507
2.61106
1.2169
9.02265
1.34706
1.38175
1.27863
2.45316
2.48302
2.09563
2.26642
13.5287
3.11083
16.6062
2.91077
16.1328
2.39691
13.6975
2.9543
8.21142
3.58085
8.0343
3.57247
11.484
3.7731
10.5705
3.69736
7.55157
4.62559
8.0009
3.77005
9.02381
4.87956
8.00005
5.66794
3.89713
3.16158
3.06681
3.58011
4.41286
5.1103
3.94706
7.10515
5.50455
5.60221
6.86207
3.93091
2.14794
19.633
1.73564
21.2447
1.99576
17.8407
2.26299
17.1883
3.72306
11.6306
5.07505
9.38786
5.04921
7.27644
3.94132
8.90794
2.75199
2.53475
2.84164
2.968
1.56028
1.32887
1.66693
1.82671
1.0161
0.8646
1.42557
1.55522
1.43021
12.5601
1.34584
16.703
1.53658
16.5227
1.67903
12.1726
1.54873
23.1748
1.8417
19.4965
1.67716
20.6311
1.65166
22.8017
5.78254
7.08335
6.49961
5.36271
4.59434
3.89333
3.39688
3.9088
2.42927
3.02346
2.85245
2.25754
2.91885
2.82047
2.04728
2.22863
7.77228
3.05631
10.275
3.18312
11.022
3.62812
8.75819
3.36149
7.2307
6.66717
3.33697
9.7209
4.33746
10.6804
3.98681
8.57062
3.31373
3.26452
3.49031
3.21149
3.47097
10.9972
2.30768
8.99684
2.93478
7.20207
4.53832
7.78156
4.1052
0.877137
0.875098
1.0329
0.967857
0.912303
0.800869
1.07923
1.1031
2.21764
2.03871
2.33723
2.78761
14.9066
2.48916
13.9784
2.76523
12.3798
2.77233
13.3768
2.35492
1.73634
1.47898
1.56035
1.80896
1.22578
1.53806
1.92462
1.54312
0.907329
1.23885
1.37297
1.19228
1.99912
1.86021
1.4534
1.59868
2.04261
2.07835
1.50107
1.60675
7.87101
6.15837
6.78324
3.41912
2.99428
4.22112
4.81869
1.42734
2.10901
2.57239
2.01186
1.13151
1.47177
0.937595
0.789948
3.40299
2.37848
1.80708
2.76031
0.98732
0.836491
1.08844
1.47739
0.678088
0.645254
0.671568
0.662883
3.59074
3.04399
2.49189
3.03318
1.36713
1.59856
1.31472
1.17639
1.28878
1.27697
0.948622
0.890453
2.73511
2.28525
2.77399
3.16512
1.23031
0.94856
0.980412
1.50077
1.59694
1.50967
1.45215
1.60516
2.38928
2.22522
1.7158
2.06952
0.894468
1.00503
1.14082
1.04313
1.94464
1.6893
1.48664
1.65354
2.45442
3.20882
2.5349
2.18302
1.39833
1.49173
1.04196
1.07252
1.09295
1.39978
1.52031
1.24068
2.96323
3.57428
4.22849
4.06551
5.50011
6.56302
8.19111
7.30507
3.85683
5.04044
4.49685
3.18292
5.53858
5.84462
4.11912
8.84832
7.46109
7.08125
8.45487
1.28864
1.25197
0.952757
1.10353
1.8543
2.12122
1.96992
1.65544
1.74248
1.48898
1.63293
2.21086
1.45263
1.39448
1.59648
1.6906
1.51138
1.52881
1.92377
1.79087
1.09954
1.33206
1.24
1.04878
1.79474
1.58933
1.45308
1.66849
4.44206
4.11089
3.72689
4.22455
4.69155
4.22712
3.93598
3.65764
2.19867
2.7657
2.72599
2.17381
3.20764
3.69439
4.13457
3.25313
1.93355
1.90282
2.21561
2.13291
2.6949
2.85833
3.7932
3.46198
2.16948
1.58917
1.49696
1.72799
1.01644
0.866901
0.897164
0.986478
1.68706
1.83308
2.55087
2.57359
0.664194
0.700809
0.55022
0.598156
0.932252
1.23206
0.994775
0.684645
0.9165
0.911734
1.08857
1.05577
2.96045
3.83783
3.27434
2.36879
0.755775
0.929436
1.2414
0.92511
1.56186
2.18389
1.8068
1.1802
0.67801
0.567987
0.437928
0.580194
1.18091
0.796001
0.954471
1.51814
1.01244
0.786733
0.644154
0.864059
0.566668
0.644143
0.932821
0.718135
1.11093
1.1334
1.16194
1.25685
0.395322
13.1213
1.80314
2.81155
1.00281
3.98961
1.67465
2.34806
2.92857
1.69798
1.78585
0.879327
0.742716
1.24441
2.70097
1.46617
3.1641
1.50579
11.1105
1.39551
11.7048
1.49593
10.1349
1.74133
6.20307
1.5292
6.85217
1.03404
2.92145
1.35865
1.02397
2.77557
1.18224
3.16877
0.775725
0.707275
3.23812
3.8889
0.605067
2.77769
3.05986
2.09092
1.58768
2.36192
0.931701
2.42536
3.18027
4.49168
1.44741
1.20821
2.81418
2.80862
1.23492
1.20118
2.66965
2.96416
1.26043
1.71913
7.99693
2.71761
10.3564
1.86341
8.26108
2.67315
1.83978
2.50201
11.4907
3.58968
2.20595
2.99257
3.47969
2.13578
12.1773
1.50132
10.3768
3.1423
2.95411
1.67344
8.10285
2.29815
2.36795
2.76096
3.28821
10.8869
1.42276
9.11683
1.32459
9.85229
1.18733
10.8979
1.48358
1.5592
0.592044
0.756822
0.655887
2.18559
2.10174
1.63454
2.31815
1.5397
1.90045
1.55095
1.22726
7.59692
1.4119
8.34717
1.32566
9.45611
1.49125
6.9095
1.65137
1.74319
0.701105
1.43812
0.711507
2.00137
0.67841
2.26928
0.602832
0.899886
4.86949
2.42348
1.62022
1.87276
0.891839
1.48223
1.02059
1.52897
0.926805
2.15159
1.16162
1.82082
0.840595
11.3022
1.31141
12.9747
1.82046
11.261
1.24215
16.4596
3.6504
16.8582
4.22103
12.4625
1.76118
14.6754
3.35284
1.73546
3.95679
0.741112
3.53582
2.15609
3.43539
0.792049
1.39
2.33382
0.723374
2.76616
0.634444
2.88912
4.49609
2.42007
3.7738
1.18284
0.697281
11.8857
1.13523
13.747
1.50504
12.5983
1.57644
19.5191
3.95693
16.1208
3.2735
13.0472
1.15137
15.6465
2.4732
18.3912
3.14295
1.64051
3.6638
1.80734
3.0932
2.0854
3.47673
14.0046
2.12719
9.7107
0.773283
15.4234
2.67593
9.09803
0.783331
0.831883
5.66875
0.591449
15.005
1.89214
5.6951
0.531614
2.13671
2.84377
3.054
2.37868
2.39539
0.952206
2.03787
2.66984
13.4458
16.5263
15.8535
12.806
1.61894
1.86804
2.67001
4.32193
4.51336
0.860217
1.02822
1.43159
4.34041
1.8045
6.50492
1.33751
4.05993
1.21846
4.7886
1.72126
6.80084
1.09408
4.84687
0.91839
6.97623
12.1474
1.68811
1.31916
7.21019
4.89666
1.04433
6.96709
1.34696
13.9138
1.95183
3.27186
2.00057
4.42626
0.824675
0.495565
1.39721
1.44696
3.09747
0.804117
2.09682
0.641074
1.58237
9.69768
1.43917
1.13903
7.85087
2.5905
1.04808
0.919177
7.25078
2.3465
0.82093
1.61129
0.923751
4.52426
1.99796
2.5339
1.77892
6.23989
1.12738
1.06565
5.38752
1.01403
5.14396
1.69505
2.03512
5.4699
2.04405
2.51464
0.876377
4.0806
2.20856
5.72028
0.856983
5.5802
0.84027
7.75627
0.880257
5.80845
0.804536
6.45914
0.82305
1.58241
3.53837
2.38524
2.49707
1.50169
10.1202
1.34897
2.44815
2.60201
3.48733
0.67647
2.57752
3.08225
1.89509
2.1267
9.00785
1.48938
2.13591
1.2661
2.41412
3.55185
3.06784
4.64451
0.468351
2.61459
2.72665
1.75022
1.89147
3.76669
0.926377
3.91857
2.20419
4.41157
0.914872
7.68245
1.0776
3.46181
1.52015
3.88803
2.67043
3.59859
0.998054
3.39985
13.5858
2.21315
1.15935
3.59698
1.11591
7.80153
0.977324
3.9344
1.78174
0.905114
1.23266
4.09778
0.94442
7.0712
1.81715
3.95735
2.53545
1.29629
3.69475
4.74735
0.468117
3.53792
2.49006
5.15445
1.46789
2.60127
0.636145
3.83142
0.422822
3.69158
2.78688
2.3496
0.971805
3.19431
4.41063
0.664387
2.62062
2.95172
3.3556
4.11973
2.40553
4.68189
0.413756
3.08835
1.71678
2.10816
1.92489
1.63763
12.5448
1.4658
2.46912
3.58883
10.6932
1.46572
3.55677
4.08233
0.577842
2.93754
1.51364
0.992656
2.98024
0.895806
2.1411
2.95603
1.59213
5.79258
0.822694
3.30494
0.442655
2.15626
0.982887
4.47271
1.89859
2.84549
4.31948
0.470884
3.02294
3.09609
3.99613
0.766972
3.24012
1.00377
2.04319
2.38254
8.77405
1.364
1.15803
2.22437
1.68674
6.30373
4.96664
1.4486
1.21131
1.97339
1.32329
3.73975
0.759693
6.52675
5.14794
0.481072
2.84425
5.51114
1.53062
1.25729
2.90536
4.17994
0.892093
5.70713
1.16751
13.9625
3.07108
1.58272
2.4204
0.708121
2.20943
0.936763
0.869523
0.981166
2.82446
2.75096
4.01785
0.520681
3.79157
4.7767
1.25638
1.84979
2.12183
1.11204
0.713637
4.29609
1.43465
2.16501
1.91598
1.03735
1.06257
3.40035
1.08842
0.471169
4.10139
3.56486
1.04082
0.775557
2.95924
14.0948
2.15968
0.687735
1.3225
2.97436
1.24037
0.616442
0.503456
1.12488
2.86737
0.621379
2.24671
0.642641
1.59162
1.69366
8.27962
0.914651
1.74452
2.08203
1.89092
1.70288
5.65565
0.692222
1.63076
1.35432
3.11624
1.3958
6.02044
0.784038
1.23153
8.19431
0.858951
2.46257
4.28436
2.68638
4.80106
2.24159
5.16298
2.0565
4.86393
0.730069
5.59862
0.753629
4.21433
2.90294
4.54814
1.71526
3.66739
2.51343
4.04979
0.572678
4.58672
1.73856
3.84505
1.14226
9.06787
0.838468
1.38146
2.12706
1.22811
0.912001
0.819286
0.994589
6.36994
1.43134
6.71822
1.49772
6.3926
1.81748
5.15409
1.71541
2.94391
2.84317
3.31292
3.20268
0.593629
0.770863
1.63166
0.791911
0.48164
0.489364
0.707937
0.790945
1.35508
5.06796
1.70135
4.62764
1.90162
5.75385
1.39426
5.80648
2.93437
2.63943
2.75389
2.7038
4.26404
3.97244
4.43619
5.21457
0.382267
0.492368
0.610603
0.483461
4.82393
4.11752
3.00689
3.16887
1.28265
13.7309
1.73652
12.7895
1.32936
11.9793
1.10937
10.662
0.494752
6.00603
0.70258
8.87458
0.791657
6.86632
0.511492
5.28759
3.84817
3.17533
2.74294
3.72064
0.68057
0.879566
0.736253
0.562358
1.32852
1.50609
0.801023
1.86166
0.974694
1.75323
0.840406
1.58079
0.717532
3.2212
1.78426
2.84683
2.32854
2.81595
1.76258
2.96201
1.37334
6.30894
1.69164
5.17702
1.52903
5.77139
1.45603
7.22734
1.56333
1.70177
1.72887
1.60601
1.66395
1.74737
0.594537
1.85349
1.95795
2.12092
1.64382
0.594383
1.92204
0.830509
1.63973
0.661877
1.56612
0.509697
1.90549
0.51898
2.42213
0.773468
2.39747
0.778777
2.14691
0.523577
1.24917
0.764544
0.720955
0.730239
0.759699
1.13197
1.48505
1.39774
1.25858
1.45954
1.60336
1.15583
1.6555
3.6131
1.57881
4.7249
1.6539
5.92288
1.97002
4.33258
1.77856
1.02609
2.78626
1.21706
2.28991
1.18294
2.44773
2.77127
1.82448
3.75501
1.67825
5.44063
2.01046
4.2255
1.80539
3.21253
1.08728
2.72247
1.06541
2.56827
0.887078
1.83293
2.98451
0.777852
3.00311
2.93347
3.03173
2.89813
5.20134
1.21078
6.52332
1.39912
5.75086
1.39708
4.69858
1.28948
3.52811
3.17997
4.31456
4.03448
2.64674
2.75261
2.73536
2.54568
0.597985
0.938924
1.04362
0.633696
1.04989
1.426
0.927548
1.67444
0.906248
1.39358
1.12602
1.30714
1.76652
1.22044
1.53341
2.35518
0.823753
0.768657
0.875611
0.857492
1.78452
2.01299
1.64451
1.20553
0.562425
0.682926
0.608418
0.516718
1.35592
1.00152
0.957102
1.39703
1.23205
0.985867
0.89676
1.26355
0.87742
1.15104
1.50498
1.21402
1.52227
1.42693
1.51804
1.23126
2.07513
2.24678
2.67877
2.35217
4.50057
5.23034
5.93325
5.2761
2.17578
1.89978
2.46506
2.44272
3.37993
0.390956
3.5044
0.433217
2.76882
0.44263
2.84287
13.6244
1.32822
11.695
1.20923
8.90947
1.10228
10.7389
1.09827
3.50555
2.73129
3.08325
3.92621
8.91457
6.92833
8.40548
9.91054
1.51796
1.42659
0.85748
0.811521
0.650945
0.706581
0.890983
0.709299
0.723284
0.780681
0.550257
0.548124
0.578198
0.59363
0.430937
0.548804
0.516184
0.466599
2.31007
2.81179
2.63212
2.40586
2.87231
2.4871
2.34483
2.36391
2.6542
3.07408
2.54918
2.27811
3.88833
3.24376
3.08348
3.88863
2.86931
3.28843
3.74387
3.72629
0.834881
0.988728
1.02016
0.88692
0.910777
0.819184
0.789665
1.03752
1.05494
0.751237
0.760973
1.26831
1.26684
1.34034
1.34145
1.94147
1.66337
1.6459
1.97972
0.225463
0.271171
0.254954
0.253281
1.18996
1.61257
1.79733
1.39267
0.314593
0.280458
0.329335
0.331067
0.276478
0.282557
0.271558
0.287674
1.10368
1.13933
1.0587
0.9504
0.354108
0.366907
0.332899
0.363451
1.67718
1.37291
1.29742
1.4018
0.276307
0.340757
0.292161
0.269014
0.384076
0.311702
0.329961
0.411638
0.154882
0.127387
0.135306
0.167076
3.55961
3.48782
3.74022
4.13832
2.81407
2.69748
2.92023
3.01867
2.93874
3.1414
3.1187
2.76774
2.40933
2.41834
2.64981
2.31517
3.36834
3.2845
3.32167
3.007
2.45656
2.22783
2.04868
2.40848
0.97638
1.01683
1.05101
1.01364
0.236808
0.207017
0.25177
0.261639
2.76591
2.93389
3.17876
3.42028
1.61024
1.5324
1.39379
1.75125
0.32714
0.291447
0.289302
0.376811
2.10983
2.66413
1.47737
1.43878
1.60171
1.59692
0.548621
0.495641
0.397809
0.505338
1.73851
2.09555
1.67918
1.55878
2.19393
2.31743
2.07652
2.14956
2.55296
2.02632
2.06856
1.02327
1.14558
0.888197
0.913786
0.270325
0.30633
0.348701
0.308382
1.75516
1.15943
1.11611
1.98328
1.64632
1.44937
1.85819
1.8984
0.676225
0.954897
1.2016
0.929506
0.769332
0.790114
0.638754
0.612489
1.70245
1.76785
1.27529
1.16033
0.215487
0.198989
0.172961
0.19126
0.19621
0.186602
0.194002
0.200149
3.02568
2.55425
2.77637
3.26203
0.188918
0.17471
0.182291
0.206234
1.40356
2.08662
2.32162
1.61688
0.130348
0.16055
0.145043
0.139706
0.763279
1.00052
1.44563
3.17878
0.767186
0.996867
3.07977
0.700672
2.02689
0.326813
1.73671
0.390437
0.182198
3.77653
0.235387
4.18309
0.161758
0.588356
0.756959
0.267996
0.994094
0.32235
0.859214
0.340293
2.94083
0.276464
2.11149
0.305663
1.04587
0.303906
2.23173
0.347748
2.8765
0.3122
0.483406
2.601
2.30027
0.637863
2.65177
0.500361
0.20701
1.41582
1.16498
0.258566
3.7568
0.252082
3.81173
0.253468
3.60229
1.11496
0.185942
3.15092
0.205761
3.65019
0.302773
1.96879
0.227394
2.94116
0.213942
3.1265
0.251808
3.11475
0.371617
2.32815
1.99046
0.418238
2.07834
0.477413
0.331676
3.27761
0.894873
0.589715
3.17063
0.641452
0.466717
0.616191
3.10947
0.58829
1.5125
0.318637
1.46569
0.326153
0.550945
0.259119
0.290862
1.16189
0.569745
0.251991
0.413361
1.00921
0.279646
0.68765
0.27116
1.49707
0.343537
0.749576
0.248525
2.2504
1.33664
2.50431
1.00448
0.347807
1.14378
0.338119
1.90406
0.298176
0.501133
2.19298
0.531962
2.20642
2.46595
1.60179
1.51645
1.85569
1.62326
2.61352
2.17676
1.25918
0.742873
0.177162
1.79707
1.35201
2.56157
1.11813
0.949144
0.142253
2.50578
1.41469
0.301648
0.292754
0.332365
0.324844
0.517693
0.244545
0.582784
0.266965
0.586814
0.250584
0.645045
2.17598
1.30967
0.310308
0.538768
2.12882
2.04244
0.301494
0.582177
1.57744
0.635955
1.68437
1.84668
1.41857
1.6634
1.91442
2.25072
0.799232
1.59188
1.52619
2.31584
1.08718
2.64948
0.850395
2.07998
1.4343
2.13762
0.707038
1.39942
1.63465
1.49068
1.76603
1.4222
0.395169
1.50205
0.360285
0.598845
0.801044
0.426029
1.39087
1.4887
0.372
0.475327
1.71369
0.417405
1.97395
1.74704
0.477761
0.431142
1.76086
1.76325
1.39297
2.26799
1.38636
1.62822
0.432174
0.572153
0.594321
1.4573
0.44072
0.537141
0.417098
0.208895
3.69908
1.5647
0.503256
0.66676
0.446614
1.6377
0.511156
2.25721
3.18857
0.425741
0.639111
0.658186
1.38388
0.316127
2.07219
0.413708
0.180908
3.99687
1.66192
1.1911
1.44897
1.27237
1.56733
1.2691
1.56392
2.1574
2.06547
1.87597
1.27935