# vtk DataFile Version 2.0
Unstructured Grid by M++
ASCII
DATASET UNSTRUCTURED_GRID
POINTS 1089 float
  0.718750   0.687500 0
  0.750000   0.687500 0
  0.718750   0.656250 0
  0.750000   0.718750 0
  0.625000   0.562500 0
  0.625000   0.593750 0
  0.656250   0.593750 0
  0.750000   0.750000 0
  0.687500   0.656250 0
  0.687500   0.625000 0
  0.656250   0.625000 0
  0.906250   0.593750 0
  1.000000   0.968750 0
  0.750000   0.968750 0
  0.718750   0.968750 0
  0.718750   1.000000 0
  0.750000   1.000000 0
  0.906250   0.906250 0
  0.843750   0.531250 0
  0.656250   0.937500 0
  0.656250   0.906250 0
  0.562500   0.812500 0
  0.562500   0.843750 0
  0.593750   0.875000 0
  0.593750   0.843750 0
  0.812500   0.718750 0
  0.625000   0.625000 0
  0.968750   0.875000 0
  0.531250   0.875000 0
  0.625000   0.937500 0
  0.562500   0.562500 0
  0.906250   0.812500 0
  0.531250   0.781250 0
  0.562500   0.593750 0
  0.906250   0.843750 0
  0.625000   0.656250 0
  0.968750   0.906250 0
  0.687500   0.968750 0
  0.812500   0.812500 0
  0.687500   1.000000 0
  0.687500   0.687500 0
  0.937500   0.843750 0
  0.593750   0.593750 0
  1.000000   0.625000 0
  0.968750   0.593750 0
  0.906250   0.875000 0
  0.968750   0.625000 0
  0.625000   0.875000 0
  0.875000   0.875000 0
  0.625000   0.906250 0
  0.875000   0.843750 0
  0.531250   0.812500 0
  0.968750   0.562500 0
  0.593750   0.625000 0
  0.937500   0.875000 0
  0.656250   0.687500 0
  1.000000   0.937500 0
  0.875000   0.562500 0
  0.687500   0.937500 0
  0.937500   0.625000 0
  0.812500   0.781250 0
  0.937500   0.562500 0
  0.875000   0.781250 0
  0.531250   0.531250 0
  0.718750   0.937500 0
  0.968750   0.937500 0
  0.906250   0.562500 0
  0.843750   0.781250 0
  0.593750   0.562500 0
  1.000000   0.906250 0
  0.656250   0.656250 0
  0.937500   0.906250 0
  0.875000   0.531250 0
  0.812500   0.750000 0
  0.656250   0.968750 0
  0.937500   0.531250 0
  0.843750   0.812500 0
  0.906250   0.531250 0
  0.843750   0.750000 0
  0.937500   0.593750 0
  0.875000   0.812500 0
  0.531250   0.562500 0
  1.000000   0.593750 0
  0.562500   0.906250 0
  0.562500   0.531250 0
  0.593750   0.906250 0
  0.593750   0.937500 0
  0.562500   0.875000 0
  0.781250   0.750000 0
  0.781250   0.781250 0
  0.593750   0.531250 0
  1.000000   0.687500 0
  0.531250   0.843750 0
  0.718750   0.718750 0
  0.781250   0.718750 0
  0.781250   0.687500 0
  1.000000   0.656250 0
  0.968750   0.656250 0
  0.843750   0.843750 0
  0.781250   1.000000 0
  0.656250   0.312500 0
  0.531250   0.250000 0
  0.875000   0.500000 0
  0.531250   0.218750 0
  0.875000   0.468750 0
  0.531250   0.156250 0
  0.593750   0.812500 0
  0.093750   0.562500 0
  0.656250   0.562500 0
  0.156250   0.312500 0
  0.031250   0.812500 0
  0.125000   1.000000 0
  0.312500   0.250000 0
  0.250000   0.500000 0
  0.375000   0.000000 0
  0.187500   0.750000 0
  0.812500   0.906250 0
  0.312500   0.656250 0
  0.250000   0.906250 0
  0.875000   0.656250 0
  0.375000   0.406250 0
  0.750000   0.843750 0
  0.250000   0.593750 0
  0.187500   0.843750 0
  0.812500   0.593750 0
  0.312500   0.343750 0
  0.625000   0.968750 0
  0.125000   0.718750 0
  0.687500   0.718750 0
  0.187500   0.468750 0
  0.062500   0.968750 0
  0.125000   0.656250 0
  0.187500   0.406250 0
  0.250000   0.156250 0
  0.062500   0.906250 0
  0.468750   0.906250 0
  0.656250   0.156250 0
  0.468750   0.812500 0
  0.593750   0.312500 0
  0.656250   0.062500 0
  0.625000   0.812500 0
  0.125000   0.562500 0
  0.687500   0.562500 0
  0.187500   0.312500 0
  0.062500   0.812500 0
  0.562500   0.937500 0
  0.062500   0.687500 0
  0.625000   0.687500 0
  0.125000   0.437500 0
  0.000000   0.937500 0
  0.062500   0.625000 0
  0.187500   0.125000 0
  0.125000   0.375000 0
  0.000000   0.875000 0
  0.406250   0.875000 0
  0.468750   0.625000 0
  0.593750   0.125000 0
  0.812500   0.937500 0
  0.312500   0.687500 0
  0.250000   0.937500 0
  0.875000   0.687500 0
  0.375000   0.437500 0
  0.750000   0.875000 0
  0.250000   0.625000 0
  0.187500   0.875000 0
  0.812500   0.625000 0
  0.312500   0.375000 0
  0.468750   0.781250 0
  0.593750   0.281250 0
  0.656250   0.031250 0
  0.625000   0.781250 0
  0.125000   0.531250 0
  0.062500   0.781250 0
  0.687500   0.531250 0
  0.187500   0.281250 0
  0.500000   0.812500 0
  0.687500   0.062500 0
  0.625000   0.312500 0
  0.656250   0.812500 0
  0.156250   0.562500 0
  0.718750   0.562500 0
  0.218750   0.312500 0
  0.093750   0.812500 0
  0.437500   0.968750 0
  0.625000   0.218750 0
  0.500000   0.781250 0
  0.687500   0.031250 0
  0.625000   0.281250 0
  0.656250   0.781250 0
  0.156250   0.531250 0
  0.718750   0.531250 0
  0.218750   0.281250 0
  0.093750   0.781250 0
  0.062500   0.562500 0
  0.125000   0.312500 0
  0.187500   0.062500 0
  0.000000   0.812500 0
  0.406250   0.812500 0
  0.968750   0.812500 0
  0.468750   0.562500 0
  0.593750   0.062500 0
  0.218750   0.687500 0
  0.156250   0.937500 0
  0.281250   0.437500 0
  0.062500   0.843750 0
  0.687500   0.593750 0
  0.187500   0.343750 0
  0.625000   0.843750 0
  0.125000   0.593750 0
  0.312500   0.843750 0
  0.437500   0.343750 0
  0.500000   0.093750 0
  0.375000   0.593750 0
  0.312500   0.906250 0
  0.937500   0.656250 0
  0.437500   0.406250 0
  0.875000   0.906250 0
  0.375000   0.656250 0
  0.062500   0.875000 0
  0.187500   0.375000 0
  0.250000   0.125000 0
  0.125000   0.625000 0
  0.093750   0.656250 0
  0.031250   0.906250 0
  0.218750   0.156250 0
  0.156250   0.406250 0
  0.593750   0.968750 0
  0.093750   0.718750 0
  0.031250   0.968750 0
  0.656250   0.718750 0
  0.156250   0.468750 0
  0.437500   0.906250 0
  0.625000   0.156250 0
  0.718750   0.812500 0
  0.218750   0.562500 0
  0.781250   0.562500 0
  0.281250   0.312500 0
  0.156250   0.812500 0
  0.062500   0.656250 0
  0.000000   0.906250 0
  0.187500   0.156250 0
  0.125000   0.406250 0
  0.562500   0.968750 0
  0.062500   0.718750 0
  0.000000   0.968750 0
  0.625000   0.718750 0
  0.125000   0.468750 0
  0.406250   0.968750 0
  0.968750   0.968750 0
  0.468750   0.718750 0
  0.531250   0.468750 0
  0.593750   0.218750 0
  0.406250   0.906250 0
  0.468750   0.656250 0
  0.593750   0.156250 0
  0.687500   0.781250 0
  0.187500   0.531250 0
  0.750000   0.531250 0
  0.250000   0.281250 0
  0.125000   0.781250 0
  0.781250   0.906250 0
  0.281250   0.656250 0
  0.218750   0.906250 0
  0.843750   0.656250 0
  0.343750   0.406250 0
  0.750000   0.906250 0
  0.250000   0.656250 0
  0.187500   0.906250 0
  0.812500   0.656250 0
  0.312500   0.406250 0
  0.875000   0.406250 0
  0.375000   0.156250 0
  0.812500   0.968750 0
  0.312500   0.718750 0
  0.250000   0.968750 0
  0.875000   0.718750 0
  0.375000   0.468750 0
  0.781250   0.937500 0
  0.281250   0.687500 0
  0.218750   0.937500 0
  0.843750   0.687500 0
  0.343750   0.437500 0
  0.718750   0.875000 0
  0.218750   0.625000 0
  0.156250   0.875000 0
  0.781250   0.625000 0
  0.281250   0.375000 0
  0.750000   0.937500 0
  0.250000   0.687500 0
  0.187500   0.937500 0
  0.875000   0.437500 0
  0.375000   0.187500 0
  0.812500   0.687500 0
  0.312500   0.437500 0
  0.687500   0.875000 0
  0.187500   0.625000 0
  0.750000   0.625000 0
  0.250000   0.375000 0
  0.125000   0.875000 0
  0.812500   1.000000 0
  0.312500   0.750000 0
  0.250000   1.000000 0
  0.875000   0.750000 0
  0.375000   0.500000 0
  0.562500   1.000000 0
  0.062500   0.750000 0
  0.000000   1.000000 0
  0.625000   0.750000 0
  0.125000   0.500000 0
  0.406250   1.000000 0
  0.968750   1.000000 0
  0.468750   0.750000 0
  0.656250   0.000000 0
  0.531250   0.500000 0
  0.593750   0.250000 0
  0.406250   0.937500 0
  0.468750   0.687500 0
  0.593750   0.187500 0
  0.687500   0.812500 0
  0.187500   0.562500 0
  0.750000   0.562500 0
  0.250000   0.312500 0
  0.125000   0.812500 0
  0.437500   0.843750 0
  0.625000   0.093750 0
  0.093750   0.593750 0
  0.156250   0.343750 0
  0.218750   0.093750 0
  0.031250   0.843750 0
  0.281250   0.937500 0
  0.843750   0.937500 0
  0.343750   0.687500 0
  0.906250   0.687500 0
  0.406250   0.437500 0
  0.156250   0.968750 0
  0.218750   0.718750 0
  0.281250   0.468750 0
  0.343750   0.218750 0
  0.156250   1.000000 0
  0.406250   0.000000 0
  0.281250   0.500000 0
  0.343750   0.250000 0
  0.218750   0.750000 0
  0.187500   0.968750 0
  0.250000   0.718750 0
  0.375000   0.218750 0
  0.312500   0.468750 0
  0.187500   1.000000 0
  0.312500   0.500000 0
  0.375000   0.250000 0
  0.437500   0.000000 0
  0.250000   0.750000 0
  0.031250   0.781250 0
  0.656250   0.531250 0
  0.156250   0.281250 0
  0.593750   0.781250 0
  0.093750   0.531250 0
  0.000000   0.781250 0
  0.625000   0.531250 0
  0.125000   0.281250 0
  0.562500   0.781250 0
  0.062500   0.531250 0
  0.781250   0.968750 0
  0.281250   0.718750 0
  0.218750   0.968750 0
  0.843750   0.718750 0
  0.343750   0.468750 0
  0.281250   0.968750 0
  0.843750   0.968750 0
  0.343750   0.718750 0
  0.906250   0.718750 0
  0.406250   0.468750 0
  0.281250   1.000000 0
  0.906250   0.750000 0
  0.406250   0.500000 0
  0.843750   1.000000 0
  0.343750   0.750000 0
  0.531250   0.000000 0
  0.718750   0.843750 0
  0.218750   0.593750 0
  0.156250   0.843750 0
  0.781250   0.593750 0
  0.281250   0.343750 0
  0.687500   0.843750 0
  0.187500   0.593750 0
  0.750000   0.593750 0
  0.250000   0.343750 0
  0.125000   0.843750 0
  0.218750   0.875000 0
  0.843750   0.625000 0
  0.343750   0.375000 0
  0.781250   0.875000 0
  0.281250   0.625000 0
  0.156250   0.906250 0
  0.781250   0.656250 0
  0.281250   0.406250 0
  0.718750   0.906250 0
  0.218750   0.656250 0
  0.031250   1.000000 0
  0.656250   0.750000 0
  0.156250   0.500000 0
  0.593750   1.000000 0
  0.093750   0.750000 0
  0.218750   1.000000 0
  0.343750   0.500000 0
  0.468750   0.000000 0
  0.406250   0.250000 0
  0.281250   0.750000 0
  0.593750   0.406250 0
  0.093750   0.156250 0
  0.531250   0.656250 0
  0.031250   0.406250 0
[...]
CELL_DATA 1024
SCALARS scalar_value float 1
LOOKUP_TABLE default
0.851158
0.820188
0.550347
5.28168
3.70292
4.15416
2.08384
2.56556
2.32288
1.91219
2.32857
1.54835
2.95937
1.78771
2.55332
2.42979
2.54401
2.17746
1.85175
2.31337
1.69575
3.24672
2.65642
3.2236
2.22786
1.22469
1.20887
2.34237
4.59454
0.584903
0.207817
0.24803
0.267175
0.217258
2.02401
2.72565
1.96732
1.66376
1.31878
3.86317
3.28358
2.62193
1.23074
1.83662
2.2881
8.69533
3.44557
2.00123
9.03083
2.42388
2.0023
2.91937
2.34951
4.17586
3.18991
4.71651
3.66476
2.09067
1.99185
0.916282
1.96045
1.13767
1.54849
1.64719
1.65345
1.14727
0.736121
2.07892
2.67582
5.65745
2.54448
0.890775
0.909336
1.05339
11.3075
6.01029
1.39405
0.776147
4.66603
0.383512
0.936161
0.53757
0.86169
1.1075
1.29812
2.14251
1.31627
0.786869
0.640226
2.58646
0.789336
0.620777
0.826075
3.04412
0.611509
1.42229
0.654389
1.82412
1.0086
0.973224
5.77292
0.86733
2.157
1.42757
11.8317
7.02637
1.17664
3.03453
1.2955
0.89267
1.51222
10.7974
1.66452
10.1002
2.8318
0.607121
3.87956
0.76572
3.74639
0.865304
1.3071
8.18565
2.10352
7.19542
0.97563
0.583375
11.123
2.20978
2.17591
11.8483
11.2165
1.93301
3.12873
0.953952
1.06787
19.405
15.1634
1.829
3.13853
2.77275
0.440719
0.795278
5.84207
3.99458
1.04517
3.46727
1.60631
0.498199
0.874212
1.30945
0.952265
0.456769
8.33304
1.07942
3.04144
5.25153
2.07014
8.3147
3.12884
0.852084
1.28007
0.909361
6.76404
2.33927
0.588409
0.878415
8.90887
3.32015
1.6037
3.62065
4.1431
1.44825
0.444913
1.49944
0.741203
1.09283
0.841785
0.533548
0.705485
0.723957
0.308482
3.64374
0.995869
0.749634
0.578087
0.974126
1.49229
0.610023
0.882435
0.363266
11.4655
2.02561
11.8174
2.48734
2.38797
5.50643
16.6638
1.69805
15.186
4.19868
1.17876
9.2294
13.8047
1.33451
0.720272
2.42786
7.50689
2.82669
6.58896
2.20222
11.0082
2.62635
3.85343
2.85132
10.727
2.70342
9.92846
1.88145
3.9348
1.27106
2.47108
5.40649
0.471657
0.634761
0.90618
1.76399
0.782409
0.542398
4.42722
1.4406
0.501144
0.744441
6.72318
1.35286
0.474956
0.82386
6.4438
1.42381
4.33762
0.655375
4.31102
0.761598
11.6448
0.894056
7.48617
0.366548
1.01694
9.112
1.67393
9.92748
5.7318
3.99739
0.532232
0.288439
0.36232
0.677034
8.53208
7.31904
6.93245
12.367
8.37107
7.53688
5.03371
4.89346
6.02173
13.168
11.9249
7.31908
7.25936
4.84324
5.5859
13.9004
13.3882
18.0583
20.5874
0.669301
26.2135
42.553
26.1955
22.6314
0.693314
0.599559
0.689643
2.35633
3.25992
0.685495
8.61635
3.76002
3.84039
0.714447
8.74949
0.877871
10.1027
1.02114
5.47582
2.91422
9.64352
3.16274
13.9774
5.34483
23.3907
1.14838
5.91415
9.27655
1.40061
3.04236
18.459
7.34653
0.551946
12.1759
15.3258
2.56851
9.60549
10.1619
0.504764
15.2688
3.60006
3.05975
12.8151
3.37562
3.20832
11.1396
11.2868
1.92853
0.680139
15.7923
2.25354
2.33838
3.3565
8.23399
7.00755
4.34827
4.31086
12.0983
5.61553
3.15688
24.3287
29.0429
16.3448
1.13287
0.698591
16.0579
23.6444
13.1737
1.44883
1.33334
0.737985
17.3342
0.777179
11.1914
1.89424
16.8086
1.00792
3.35256
1.87395
8.54343
6.96746
16.4076
2.60312
2.47705
2.17761
7.74105
3.50056
2.51917
1.03983
1.63553
7.78704
2.96238
6.13705
2.29947
4.26528
4.67462
11.2425
1.78102
8.40067
5.03195
13.3343
2.60635
2.60768
12.9804
5.98391
1.17024
2.08312
5.45985
7.74267
1.90278
0.288885
1.31478
0.538009
1.5052
9.21926
12.4778
3.02082
13.58
0.854375
0.857557
0.699544
8.30145
6.99778
5.19414
3.79161
1.41187
0.300891
10.5577
4.63708
6.78941
6.25729
1.49972
3.22127
0.463394
13.7373
3.01914
2.777
2.7611
3.26737
6.82087
2.48304
3.23009
6.90093
2.6572
4.52057
22.6126
5.28377
15.6945
22.2956
4.10611
1.90588
8.4252
4.73112
5.36856
10.9991
3.39746
5.97388
0.688617
16.7389
4.01782
8.34182
1.66453
5.1417
8.53567
2.34502
5.15987
9.75247
1.90087
3.21442
12.178
4.08451
10.9164
3.76297
7.66102
11.596
11.6547
1.64431
18.6761
12.3565
1.71484
13.2202
33.3223
9.2004
3.42709
4.13639
3.08444
1.56225
1.21335
1.50393
1.81814
4.1917
11.0736
0.610074
11.3241
0.3048
5.2454
2.10572
0.566559
0.546536
0.897211
10.1384
2.48351
2.50357
23.3818
10.1982
7.53181
2.71685
10.2725
2.97331
13.1663
7.50564
1.76413
6.46498
6.60654
7.30795
6.89468
5.74158
11.211
3.07856
22.6374
12.1944
4.48304
11.0008
8.22815
2.29233
10.5075
8.61602
1.47489
0.328274
1.38245
4.41528
5.80031
5.3426
4.58289
2.90476
4.15108
1.23161
0.471455
0.393722
0.720597
1.12528
1.12005
1.37656
0.709676
29.7146
3.74393
3.43523
1.33298
2.01471
2.43734
0.491006
0.33631
0.333432
0.315345
1.75286
0.436725
0.638633
1.25697
1.10503
1.81355
2.20137
0.921531
1.15477
1.60083
1.05284
14.5916
24.1443
0.476604
0.433888
9.79426
0.540742
2.86293
4.12143
0.580254
6.94545
5.3882
4.01504
2.31874
2.20068
2.14507
0.470174
1.22588
1.01996
0.666759
0.671173
0.926851
0.938363
12.9592
0.910458
0.668873
5.02186
1.94688
1.97648
1.62602
1.4946
2.19511
9.50594
3.17442
1.54595
1.70969
3.15881
21.7373
0.434832
13.4255
1.12018
1.04437
0.581436
0.681579
2.68206
11.056
0.649646
0.476435
1.04793
3.44258
25.1591
17.2222
0.565019
25.7549
1.23639
0.823638
1.10817
0.989393
14.0242
0.816535
0.704821
0.845385
0.789431
0.594945
0.935549
1.04618
3.41919
18.6739
28.0064
0.393775
0.642163
25.378
0.748835
0.994633
0.931777
1.51911
0.906214
1.1904
1.62233
0.934809
1.19676
3.31484
0.360063
0.641683
0.86099
5.5092
0.419091
0.655177
0.231277
0.645676
2.45841
1.24511
0.652318
1.69575
1.76329
0.654321
2.29113
2.23258
2.41991
0.319657
0.724838
1.61789
1.42188
0.841267
2.27192
4.02427
26.9793
30.7751
1.68032
1.54249
1.22758
1.73289
2.40784
0.887212
1.82386
1.29864
0.658944
0.878393
1.09428
1.09832
0.540028
0.511785
6.46854
0.435173
5.57865
0.402024
0.386147
1.88614
1.11023
1.64701
0.79009
1.64783
0.95066
1.83895
1.23031
5.3087
2.2319
2.36623
0.24568
0.406246
0.188452
0.681221
0.217014
0.321711
0.237716
0.766064
1.30087
2.80991
0.542867
0.775422
0.849622
2.18136
3.26839
0.662312
1.00521
1.22284
1.72627
0.722099
1.75561
1.05286
1.58385
2.0485
0.634233
0.81378
0.778628
4.48166
1.626
2.79411
1.28045
1.17906
2.05613
0.626749
0.70426
4.11227
1.30066
2.19661
2.35528
1.91997
0.472731
6.4163
0.445632
5.25261
0.356164
0.358267
4.0603
0.37403
0.580051
0.483751
0.251896
1.25178
2.09333
4.16563
3.02638
2.62587
2.82005
2.59384
2.20581
1.61121
3.05296
3.11048
1.07344
2.09249
0.273391
0.705375
0.610755
0.437728
0.467706
0.533745
0.460226
0.433507
0.598057
2.60465
0.580179
3.10546
1.07622
0.871404
2.07927
0.77739
2.26143
3.0244
3.09075
2.68676
2.70225
0.835295
0.613704
0.504201
0.54332
0.902128
4.32682
2.42371
2.25603
1.52207
1.93769
0.236581
0.276217
1.42404
0.214503
0.165371
0.238249
2.65516
10.8676
10.2091
6.10486
7.79851
1.77815
1.54367
1.32031
1.26605
1.42527
0.855423
11.8747
1.71423
5.47428
0.33402
1.45902
3.55059
0.924019
9.9238
3.11239
5.46166
0.581561
7.40298
3.99215
2.03242
0.649459
0.470135
8.46801
0.645923
2.72783
0.913414
0.422268
6.99568
0.482593
1.64768
1.91092
5.26477
9.03825
4.6824
11.0908
14.0578
1.73709
9.08637
6.65967
1.0969
2.20847
6.39697
13.861
1.50735
3.08017
1.28418
11.3682
2.21115
11.0395
1.07797
2.81372
2.26874
6.76647
4.16407
3.82802
0.289255
0.28399
1.68889
3.13034
11.4072
11.7413
5.46522
4.04023
0.251817
2.22137
9.38161
13.3239
0.313479
4.44528
12.0517
6.24395
0.467751
4.39549
0.281381
12.2083
3.16412
1.69658
5.79026
0.510647
10.0495
0.886801
3.95189
5.33254
2.87663
0.453531
5.79587
0.32609
13.1217
0.670309
3.42883
2.99026
0.828272
2.40126
0.712008
0.393553
4.90396
5.29966
0.766435
4.69732
0.530552
0.750748
5.73185
2.31642
3.66463
8.68389
1.35492
2.57728
1.93271
2.51985
1.28987
0.621816
1.80025
12.6272
0.320162
15.0675
2.89805
8.63701
2.36742
2.8079
5.66566
1.92852
1.58972
0.247872
13.8605
0.525396
9.14008
1.42678
8.21269
0.39064
0.53218
2.10023
1.5554
1.02857
2.36819
2.05107
1.27587
0.606097
8.62727
4.5765
0.363987
8.62167
4.2778
0.341129
1.35036
1.63405
15.6878
3.78662
3.94193
2.693
2.25357
2.36013
2.91306
0.837494
6.06709
1.34097
7.05851
0.935038
0.519005
11.6631
4.79219
3.2175
0.812819
5.08282
3.43888
3.9499
0.607755
2.94612
6.31754
7.45334
3.10041
1.55275
1.83978
1.65434
1.75715
3.07554
1.79406
1.70167
2.58802
2.60654
2.767
0.461402
4.24219
3.92622
1.65088
1.14912
5.03965
1.13295
9.97445
1.65037
0.592741
3.94785
6.14502
13.7699
10.7586
13.8846
13.7642
0.420578
10.5456
13.4034
0.557087
9.85317
12.7245
1.07971
5.36747
4.84501
1.02597
7.27341
1.67315
4.64225
1.39718
1.6652
3.37731
9.37182
7.01081
2.21711
2.97979
1.75399
3.44151
2.66715
2.59655
2.60561
2.30882
2.00017
4.23855
0.816382
6.71678
7.02295
9.52986
8.79522
6.3275
5.33732
0.489815
0.401941
0.343429
4.24036
0.472039
5.08914
0.651547
0.418743
4.92863
