# vtk DataFile Version 2.0
Unstructured Grid by M++
ASCII
DATASET UNSTRUCTURED_GRID
POINTS 1089 float
  0.718750   0.687500 0
  0.750000   0.687500 0
  0.718750   0.656250 0
  0.750000   0.718750 0
  0.625000   0.562500 0
  0.625000   0.593750 0
  0.656250   0.593750 0
  0.750000   0.750000 0
  0.687500   0.656250 0
  0.687500   0.625000 0
  0.656250   0.625000 0
  0.906250   0.593750 0
  1.000000   0.968750 0
  0.750000   0.968750 0
  0.718750   0.968750 0
  0.718750   1.000000 0
  0.750000   1.000000 0
  0.906250   0.906250 0
  0.843750   0.531250 0
  0.656250   0.937500 0
  0.656250   0.906250 0
  0.562500   0.812500 0
  0.562500   0.843750 0
  0.593750   0.875000 0
  0.593750   0.843750 0
  0.812500   0.718750 0
  0.625000   0.625000 0
  0.968750   0.875000 0
  0.531250   0.875000 0
  0.625000   0.937500 0
  0.562500   0.562500 0
  0.906250   0.812500 0
  0.531250   0.781250 0
  0.562500   0.593750 0
  0.906250   0.843750 0
  0.625000   0.656250 0
  0.968750   0.906250 0
  0.687500   0.968750 0
  0.812500   0.812500 0
  0.687500   1.000000 0
  0.687500   0.687500 0
  0.937500   0.843750 0
  0.593750   0.593750 0
  1.000000   0.625000 0
  0.968750   0.593750 0
  0.906250   0.875000 0
  0.968750   0.625000 0
  0.625000   0.875000 0
  0.875000   0.875000 0
  0.625000   0.906250 0
  0.875000   0.843750 0
  0.531250   0.812500 0
  0.968750   0.562500 0
  0.593750   0.625000 0
  0.937500   0.875000 0
  0.656250   0.687500 0
  1.000000   0.937500 0
  0.875000   0.562500 0
  0.687500   0.937500 0
  0.937500   0.625000 0
  0.812500   0.781250 0
  0.937500   0.562500 0
  0.875000   0.781250 0
  0.531250   0.531250 0
  0.718750   0.937500 0
  0.968750   0.937500 0
  0.906250   0.562500 0
  0.843750   0.781250 0
  0.593750   0.562500 0
  1.000000   0.906250 0
  0.656250   0.656250 0
  0.937500   0.906250 0
  0.875000   0.531250 0
  0.812500   0.750000 0
  0.656250   0.968750 0
  0.937500   0.531250 0
  0.843750   0.812500 0
  0.906250   0.531250 0
  0.843750   0.750000 0
  0.937500   0.593750 0
  0.875000   0.812500 0
  0.531250   0.562500 0
  1.000000   0.593750 0
  0.562500   0.906250 0
  0.562500   0.531250 0
  0.593750   0.906250 0
  0.593750   0.937500 0
  0.562500   0.875000 0
  0.781250   0.750000 0
  0.781250   0.781250 0
  0.593750   0.531250 0
  1.000000   0.687500 0
  0.531250   0.843750 0
  0.718750   0.718750 0
  0.781250   0.718750 0
  0.781250   0.687500 0
  1.000000   0.656250 0
  0.968750   0.656250 0
  0.843750   0.843750 0
  0.781250   1.000000 0
  0.656250   0.312500 0
  0.531250   0.250000 0
  0.875000   0.500000 0
  0.531250   0.218750 0
  0.875000   0.468750 0
  0.531250   0.156250 0
  0.593750   0.812500 0
  0.093750   0.562500 0
  0.656250   0.562500 0
  0.156250   0.312500 0
  0.031250   0.812500 0
  0.125000   1.000000 0
  0.312500   0.250000 0
  0.250000   0.500000 0
  0.375000   0.000000 0
  0.187500   0.750000 0
  0.812500   0.906250 0
  0.312500   0.656250 0
  0.250000   0.906250 0
  0.875000   0.656250 0
  0.375000   0.406250 0
  0.750000   0.843750 0
  0.250000   0.593750 0
  0.187500   0.843750 0
  0.812500   0.593750 0
  0.312500   0.343750 0
  0.625000   0.968750 0
  0.125000   0.718750 0
  0.687500   0.718750 0
  0.187500   0.468750 0
  0.062500   0.968750 0
  0.125000   0.656250 0
  0.187500   0.406250 0
  0.250000   0.156250 0
  0.062500   0.906250 0
  0.468750   0.906250 0
  0.656250   0.156250 0
  0.468750   0.812500 0
  0.593750   0.312500 0
  0.656250   0.062500 0
  0.625000   0.812500 0
  0.125000   0.562500 0
  0.687500   0.562500 0
  0.187500   0.312500 0
  0.062500   0.812500 0
  0.562500   0.937500 0
  0.062500   0.687500 0
  0.625000   0.687500 0
  0.125000   0.437500 0
  0.000000   0.937500 0
  0.062500   0.625000 0
  0.187500   0.125000 0
  0.125000   0.375000 0
  0.000000   0.875000 0
  0.406250   0.875000 0
  0.468750   0.625000 0
  0.593750   0.125000 0
  0.812500   0.937500 0
  0.312500   0.687500 0
  0.250000   0.937500 0
  0.875000   0.687500 0
  0.375000   0.437500 0
  0.750000   0.875000 0
  0.250000   0.625000 0
  0.187500   0.875000 0
  0.812500   0.625000 0
  0.312500   0.375000 0
  0.468750   0.781250 0
  0.593750   0.281250 0
  0.656250   0.031250 0
  0.625000   0.781250 0
  0.125000   0.531250 0
  0.062500   0.781250 0
  0.687500   0.531250 0
  0.187500   0.281250 0
  0.500000   0.812500 0
  0.687500   0.062500 0
  0.625000   0.312500 0
  0.656250   0.812500 0
  0.156250   0.562500 0
  0.718750   0.562500 0
  0.218750   0.312500 0
  0.093750   0.812500 0
  0.437500   0.968750 0
  0.625000   0.218750 0
  0.500000   0.781250 0
  0.687500   0.031250 0
  0.625000   0.281250 0
  0.656250   0.781250 0
  0.156250   0.531250 0
  0.718750   0.531250 0
  0.218750   0.281250 0
  0.093750   0.781250 0
  0.062500   0.562500 0
  0.125000   0.312500 0
  0.187500   0.062500 0
  0.000000   0.812500 0
  0.406250   0.812500 0
  0.968750   0.812500 0
  0.468750   0.562500 0
  0.593750   0.062500 0
  0.218750   0.687500 0
  0.156250   0.937500 0
  0.281250   0.437500 0
  0.062500   0.843750 0
  0.687500   0.593750 0
  0.187500   0.343750 0
  0.625000   0.843750 0
  0.125000   0.593750 0
  0.312500   0.843750 0
  0.437500   0.343750 0
  0.500000   0.093750 0
  0.375000   0.593750 0
  0.312500   0.906250 0
  0.937500   0.656250 0
  0.437500   0.406250 0
  0.875000   0.906250 0
  0.375000   0.656250 0
  0.062500   0.875000 0
  0.187500   0.375000 0
  0.250000   0.125000 0
  0.125000   0.625000 0
  0.093750   0.656250 0
  0.031250   0.906250 0
  0.218750   0.156250 0
  0.156250   0.406250 0
  0.593750   0.968750 0
  0.093750   0.718750 0
  0.031250   0.968750 0
  0.656250   0.718750 0
  0.156250   0.468750 0
  0.437500   0.906250 0
  0.625000   0.156250 0
  0.718750   0.812500 0
  0.218750   0.562500 0
  0.781250   0.562500 0
  0.281250   0.312500 0
  0.156250   0.812500 0
  0.062500   0.656250 0
  0.000000   0.906250 0
  0.187500   0.156250 0
  0.125000   0.406250 0
  0.562500   0.968750 0
  0.062500   0.718750 0
  0.000000   0.968750 0
  0.625000   0.718750 0
  0.125000   0.468750 0
  0.406250   0.968750 0
  0.968750   0.968750 0
  0.468750   0.718750 0
  0.531250   0.468750 0
  0.593750   0.218750 0
  0.406250   0.906250 0
  0.468750   0.656250 0
  0.593750   0.156250 0
  0.687500   0.781250 0
  0.187500   0.531250 0
  0.750000   0.531250 0
  0.250000   0.281250 0
  0.125000   0.781250 0
  0.781250   0.906250 0
  0.281250   0.656250 0
  0.218750   0.906250 0
  0.843750   0.656250 0
  0.343750   0.406250 0
  0.750000   0.906250 0
  0.250000   0.656250 0
  0.187500   0.906250 0
  0.812500   0.656250 0
  0.312500   0.406250 0
  0.875000   0.406250 0
  0.375000   0.156250 0
  0.812500   0.968750 0
  0.312500   0.718750 0
  0.250000   0.968750 0
  0.875000   0.718750 0
  0.375000   0.468750 0
  0.781250   0.937500 0
  0.281250   0.687500 0
  0.218750   0.937500 0
  0.843750   0.687500 0
  0.343750   0.437500 0
  0.718750   0.875000 0
  0.218750   0.625000 0
  0.156250   0.875000 0
  0.781250   0.625000 0
  0.281250   0.375000 0
  0.750000   0.937500 0
  0.250000   0.687500 0
  0.187500   0.937500 0
  0.875000   0.437500 0
  0.375000   0.187500 0
  0.812500   0.687500 0
  0.312500   0.437500 0
  0.687500   0.875000 0
  0.187500   0.625000 0
  0.750000   0.625000 0
  0.250000   0.375000 0
  0.125000   0.875000 0
  0.812500   1.000000 0
  0.312500   0.750000 0
  0.250000   1.000000 0
  0.875000   0.750000 0
  0.375000   0.500000 0
  0.562500   1.000000 0
  0.062500   0.750000 0
  0.000000   1.000000 0
  0.625000   0.750000 0
  0.125000   0.500000 0
  0.406250   1.000000 0
  0.968750   1.000000 0
  0.468750   0.750000 0
  0.656250   0.000000 0
  0.531250   0.500000 0
  0.593750   0.250000 0
  0.406250   0.937500 0
  0.468750   0.687500 0
  0.593750   0.187500 0
  0.687500   0.812500 0
  0.187500   0.562500 0
  0.750000   0.562500 0
  0.250000   0.312500 0
  0.125000   0.812500 0
  0.437500   0.843750 0
  0.625000   0.093750 0
  0.093750   0.593750 0
  0.156250   0.343750 0
  0.218750   0.093750 0
  0.031250   0.843750 0
  0.281250   0.937500 0
  0.843750   0.937500 0
  0.343750   0.687500 0
  0.906250   0.687500 0
  0.406250   0.437500 0
  0.156250   0.968750 0
  0.218750   0.718750 0
  0.281250   0.468750 0
  0.343750   0.218750 0
  0.156250   1.000000 0
  0.406250   0.000000 0
  0.281250   0.500000 0
  0.343750   0.250000 0
  0.218750   0.750000 0
  0.187500   0.968750 0
  0.250000   0.718750 0
  0.375000   0.218750 0
  0.312500   0.468750 0
  0.187500   1.000000 0
  0.312500   0.500000 0
  0.375000   0.250000 0
  0.437500   0.000000 0
  0.250000   0.750000 0
  0.031250   0.781250 0
  0.656250   0.531250 0
  0.156250   0.281250 0
  0.593750   0.781250 0
  0.093750   0.531250 0
  0.000000   0.781250 0
  0.625000   0.531250 0
  0.125000   0.281250 0
  0.562500   0.781250 0
  0.062500   0.531250 0
  0.781250   0.968750 0
  0.281250   0.718750 0
  0.218750   0.968750 0
  0.843750   0.718750 0
  0.343750   0.468750 0
  0.281250   0.968750 0
  0.843750   0.968750 0
  0.343750   0.718750 0
  0.906250   0.718750 0
  0.406250   0.468750 0
  0.281250   1.000000 0
  0.906250   0.750000 0
  0.406250   0.500000 0
  0.843750   1.000000 0
  0.343750   0.750000 0
  0.531250   0.000000 0
  0.718750   0.843750 0
  0.218750   0.593750 0
  0.156250   0.843750 0
  0.781250   0.593750 0
  0.281250   0.343750 0
  0.687500   0.843750 0
  0.187500   0.593750 0
  0.750000   0.593750 0
  0.250000   0.343750 0
  0.125000   0.843750 0
  0.218750   0.875000 0
  0.843750   0.625000 0
  0.343750   0.375000 0
  0.781250   0.875000 0
  0.281250   0.625000 0
  0.156250   0.906250 0
  0.781250   0.656250 0
  0.281250   0.406250 0
  0.718750   0.906250 0
  0.218750   0.656250 0
  0.031250   1.000000 0
  0.656250   0.750000 0
  0.156250   0.500000 0
  0.593750   1.000000 0
  0.093750   0.750000 0
  0.218750   1.000000 0
  0.343750   0.500000 0
  0.468750   0.000000 0
  0.406250   0.250000 0
  0.281250   0.750000 0
  0.593750   0.406250 0
  0.093750   0.156250 0
  0.531250   0.656250 0
  0.031250   0.406250 0
[...]
CELL_DATA 1024
SCALARS scalar_value float 1
LOOKUP_TABLE default
6.24055
8.8449
8.89546
3.10874
3.2928
3.44925
6.09761
8.43542
5.30549
5.97911
8.01895
3.20029
5.95644
4.29867
7.01236
8.63414
4.93849
9.1595
3.90476
3.28778
4.61303
2.38743
5.52487
3.78697
15.5142
11.4659
10.975
12.692
4.62222
1.38048
1.85168
1.57882
2.13258
2.12911
2.12033
2.60776
4.62253
3.34767
2.95816
1.89961
9.36221
3.96198
2.85002
2.96376
2.41631
0.56174
2.61493
4.39764
0.7055
4.14201
1.71783
11.2163
3.04455
2.22881
3.22146
1.92226
2.99371
1.86177
8.07338
7.4684
11.6615
9.92463
7.52634
6.41363
7.05953
9.49328
6.59918
6.42393
4.78116
1.01566
3.05423
4.17753
4.25225
3.43363
2.1129
2.37004
10.2218
1.26775
4.35647
1.83078
12.3846
2.67719
6.73188
5.06045
6.63078
4.44078
7.62662
8.56747
1.43552
3.65835
3.17461
3.03604
5.81976
5.16193
5.80829
7.95936
1.72828
3.13752
7.18982
6.57295
1.85563
1.07469
7.58532
2.44073
0.945116
1.79089
8.88305
2.82553
3.11061
4.85374
3.75251
1.98535
15.9721
0.720438
16.7316
1.64507
5.66838
2.80592
8.2556
3.28182
4.27932
1.16049
14.3442
3.97947
18.2224
2.37879
1.21518
14.224
3.3271
0.994857
0.911879
18.5926
11.8641
2.80666
3.37609
0.932843
0.582045
14.3754
3.7868
6.29518
2.83693
2.736
1.4339
5.07401
12.4079
3.34331
12.3218
2.29907
2.78106
4.40914
9.40465
1.25719
1.01088
11.2523
4.77566
2.07278
19.4233
3.51753
10.353
2.53725
3.79174
2.99558
3.79657
5.48637
5.87612
4.50184
0.827646
5.61527
17.4649
8.2397
2.54548
5.59437
5.19706
4.4869
6.59018
5.50433
6.83613
7.56052
3.38371
2.27793
2.59467
1.66467
1.28327
2.74949
2.86216
1.86112
3.42977
2.32317
1.7457
1.97987
0.8523
32.2395
0.852012
15.5813
5.48837
1.36442
0.71774
22.315
0.963469
16.2193
19.4595
1.06626
0.80258
16.1514
7.66366
15.7038
2.17113
2.96827
1.34759
22.9251
1.83875
3.99637
2.23018
28.3626
1.17835
20.4526
1.10108
3.77073
1.45146
2.32178
1.93088
2.27282
1.44912
3.18181
2.25621
8.90084
0.9667
2.4178
3.74646
6.58424
2.3949
0.840849
2.55775
6.6717
1.41955
4.43303
3.20629
5.79638
1.24306
1.37763
3.53325
4.98501
2.04321
9.32114
1.62659
1.55559
8.3515
4.01389
13.7004
3.4027
6.75539
8.58627
2.63124
2.24969
1.90556
2.38602
0.583884
0.749755
6.3422
6.18123
10.1426
8.90592
3.89679
4.38512
3.54311
2.74948
5.19836
3.79925
2.14535
0.869721
1.16108
6.88826
7.02192
4.93255
5.66335
1.60966
2.17961
0.981295
2.14545
3.23848
1.10606
1.25813
1.85431
2.57146
3.82817
0.744512
2.02594
0.294633
0.889117
1.2409
1.8085
0.589689
3.06044
0.492425
5.56429
0.838323
3.58702
0.313031
5.23768
4.03307
3.3556
0.582089
4.46559
3.45076
0.32688
3.34237
4.23017
5.48823
2.123
0.542295
4.63807
0.534235
4.48181
5.71543
6.70346
0.887028
0.673373
1.06774
4.9934
2.14961
0.676247
0.45176
6.07655
0.798502
2.48236
0.729535
1.18759
0.316334
2.67591
5.04359
1.07461
0.441886
2.22531
4.01364
0.728081
0.288572
0.838991
0.843945
0.753089
4.33875
2.3854
1.24276
0.83661
0.61569
2.97872
3.04043
1.40566
0.784037
3.92854
0.843341
2.74499
2.73528
0.581331
3.75048
0.399357
0.645385
3.07498
6.43925
0.335183
3.96125
1.69659
1.12131
1.57778
2.60812
2.53216
2.3781
0.915179
3.25946
9.45881
0.382128
1.27022
6.97128
0.744369
3.68085
0.810888
3.54628
6.47007
0.630268
1.76048
4.45626
2.81754
2.7943
2.81385
4.63051
5.45613
6.72139
2.00949
1.57332
1.93058
1.97117
0.69224
6.05922
0.899016
0.501253
2.31309
1.9493
4.52226
5.63135
2.62798
0.682461
0.251756
1.12643
4.55409
1.60017
7.02119
1.06339
0.398075
0.47512
0.337566
3.56268
0.960682
4.00515
0.330504
1.90531
1.03718
0.534083
2.25942
1.53363
0.404146
1.83191
1.2612
1.43054
1.91058
1.88555
1.70976
1.96414
3.61141
3.24439
2.52122
2.03496
9.29619
2.2332
1.67309
5.15991
0.737492
3.21127
3.45799
3.40249
2.97577
0.670286
3.03114
1.96729
1.10559
2.22765
3.3345
0.518709
0.326105
0.940003
2.6112
0.37771
1.13359
1.12766
6.37859
1.49485
0.74525
4.02898
0.37467
0.784901
1.02955
2.52585
0.670792
1.61445
0.830918
1.84386
1.21302
1.98141
2.84803
10.1468
5.08891
1.24366
2.93077
1.83036
6.92463
1.65513
1.6049
1.75824
2.90203
4.95702
0.322865
0.55174
0.408054
0.664339
2.32923
2.74036
2.6434
2.57289
3.04427
2.44768
3.69822
2.54124
1.23732
1.44025
2.79113
1.31233
2.85574
1.68834
1.92743
2.06021
3.27284
2.94448
3.20703
4.04335
2.37546
5.05078
2.80058
1.96964
7.04728
3.75171
6.42401
4.94401
3.0534
2.61448
5.24291
1.23614
1.07823
2.96063
3.16685
1.89105
2.29407
2.34688
0.900291
0.749075
0.651624
6.14118
1.14943
1.20952
0.995737
0.962896
0.899738
1.09288
2.26885
1.74941
2.09181
2.95595
2.84835
3.87995
3.65626
1.87134
1.68797
0.876687
1.45676
1.62341
1.69552
2.22399
1.7408
2.30001
4.13339
1.14142
2.44116
4.36041
1.31182
2.06758
2.82626
2.03337
1.65019
2.19343
1.11007
2.70293
2.30703
2.85263
3.32659
3.30519
3.51205
1.74283
3.4865
3.90892
1.60533
8.91725
5.03817
2.0388
1.41452
5.16145
1.07024
7.72798
1.64306
2.56953
2.62158
1.07691
1.67771
1.74826
2.94552
2.01521
5.34916
5.65723
3.01672
1.15065
2.48227
6.35828
7.0185
2.3115
0.705776
1.116
1.85323
1.21513
6.58165
6.45754
5.81266
4.30721
1.88955
2.47547
2.62008
3.01642
3.11381
1.43746
4.02117
1.73267
2.0041
0.520035
1.08307
1.55879
1.56515
1.45496
5.26182
4.97599
3.48793
6.46148
2.95882
1.44083
7.2889
4.51937
1.78321
2.37209
1.48105
2.36454
2.86523
1.94019
1.1079
1.7437
1.35221
5.65465
2.77947
3.23338
3.04024
9.78725
4.66111
3.39016
6.74896
0.954031
2.71255
1.20117
1.63682
6.56284
3.72393
2.65991
14.009
2.07296
0.671686
1.02542
5.46704
0.998373
2.10844
3.51421
6.17298
2.1745
4.89026
8.81428
2.46716
2.05468
4.17768
7.07682
1.43511
2.1815
0.753066
2.89086
0.787646
1.08537
1.08107
7.8501
3.65994
5.48693
5.33992
5.7742
6.79094
6.33999
5.68354
1.57381
1.40672
0.995578
1.46366
1.68846
1.50885
1.39036
1.36918
1.2202
1.23662
5.98502
7.70095
1.42603
1.60527
6.0817
6.17173
3.06414
2.09648
1.46136
6.61888
4.36997
1.8365
2.56332
6.73855
6.35612
3.42574
1.31115
3.0119
1.17626
1.33195
6.36703
0.976558
5.30263
1.12721
1.67755
7.19429
1.35452
1.27054
6.7846
2.86912
3.32586
2.42628
2.18278
1.0033
1.62591
0.973939
1.28748
1.071
1.15202
1.56078
2.14909
3.49453
2.76496
2.31613
5.02527
8.15544
2.0785
1.30917
1.80353
8.71678
3.04506
1.37788
4.59918
4.53603
1.29705
4.25914
10.6595
2.27831
2.27989
3.16471
4.43616
2.51346
2.84852
1.30704
2.41163
1.89915
14.6628
1.8223
11.7394
1.34762
2.72723
9.57644
2.99845
10.8698
3.45307
2.84615
2.93639
3.32146
2.13091
2.87492
4.21396
4.16346
4.02087
9.81263
4.70389
3.63843
2.21358
2.84173
2.93695
3.82165
1.18109
2.54033
2.5635
1.47011
1.03626
1.29453
0.849821
1.38766
1.67964
0.784321
0.726684
0.871022
1.10989
1.14536
0.483664
4.24694
4.36453
0.810882
2.11071
5.69322
14.5422
0.409268
6.42887
6.78297
1.69074
2.67192
2.74221
0.802242
7.83427
1.00113
0.616828
2.38892
3.01551
10.9295
1.23448
0.792976
1.00233
2.11287
10.2146
0.678032
1.95066
3.1611
1.73582
4.50899
8.06465
10.296
3.26999
0.694277
4.94083
13.5564
2.27023
1.14128
6.1453
8.72743
4.6616
3.47193
6.65431
4.62019
0.591438
1.60891
10.4971
1.06866
7.16292
11.3129
1.26845
1.81158
1.51277
8.97871
4.55496
0.578065
8.23785
9.1032
2.68832
2.55057
3.82513
0.453523
2.43065
2.55795
6.22997
1.03783
2.08909
0.538146
2.06359
6.61087
8.76996
10.1425
0.364702
2.55824
1.82555
3.70282
12.5344
8.34563
6.59062
2.21836
0.602208
1.62017
2.12695
3.60643
14.2547
10.055
5.1275
7.90327
3.75479
1.71439
0.588851
2.79934
3.42703
0.448375
2.18124
3.14963
0.707808
11.4591
14.8372
3.93729
3.74633
1.34491
0.3859
8.39548
1.9749
6.63958
8.68739
0.462627
2.54875
0.559584
13.7992
5.59851
6.76165
0.3494
1.11447
6.95632
1.72375
2.99268
0.504028
4.85376
0.59678
6.46487
0.861823
2.01164
2.87769
7.17029
6.34278
6.05097
5.7266
3.32547
6.11718
3.18369
0.545141
1.05274
3.01512
0.636257
0.843077
2.3448
4.12417
10.051
0.403908
15.1328
0.65881
0.611072
0.636128
0.535147
11.6407
2.56848
1.1972
3.02135
2.01859
3.43311
2.26733
0.959791
1.62628
0.664436
3.49816
2.66052
1.03792
0.614887
2.59386
3.46481
3.75118
3.14165
12.8243
1.63867
1.28271
3.87364
0.818486
0.99893
4.6939
0.748351
0.829838
6.02073
3.0703
2.91899
1.74346
2.97277
4.52288
4.97062
4.33877
5.61728
3.58735
4.24236
4.89683
2.44033
2.50404
7.47404
2.16131
6.30211
1.43193
2.29838
7.87078
3.27954
3.40289
0.956896
5.10408
4.13484
2.02671
1.06681
4.85131
2.56616
4.28497
1.59327
3.82506
1.22877
1.75854
2.61358
4.8389
2.91065
2.83684
2.88865
2.39744
5.53519
3.96178
5.14348
4.41913
3.49486
0.710261
3.38205
1.79145
0.417887
0.86877
0.575543
0.505386
0.587737
2.19623
2.02436
1.95309
0.621988
2.79585
0.60924
4.92213
2.28493
0.493692
