# vtk DataFile Version 2.0
Unstructured Grid by M++
ASCII
DATASET UNSTRUCTURED_GRID
POINTS 4225 float
  0.921875   0.593750 0
  0.921875   0.609375 0
  0.656250   0.609375 0
  0.671875   0.609375 0
  0.656250   0.546875 0
  0.671875   0.546875 0
  0.656250   0.562500 0
  0.656250   0.578125 0
  0.656250   0.593750 0
  0.671875   0.593750 0
  0.671875   0.562500 0
  0.671875   0.578125 0
  0.671875   0.625000 0
  0.671875   0.640625 0
  0.906250   0.578125 0
  0.890625   0.578125 0
  0.546875   0.515625 0
  1.000000   0.890625 0
  0.515625   0.640625 0
  0.515625   0.625000 0
  1.000000   0.875000 0
  0.515625   0.656250 0
  0.515625   0.687500 0
  0.515625   0.671875 0
  1.000000   0.921875 0
  0.546875   0.531250 0
  0.546875   0.546875 0
  0.546875   0.562500 0
  0.796875   0.531250 0
  0.953125   0.890625 0
  0.953125   0.875000 0
  0.953125   0.843750 0
  0.953125   0.828125 0
  0.953125   0.812500 0
  0.531250   0.562500 0
  0.531250   0.546875 0
  0.515625   0.562500 0
  0.515625   0.546875 0
  1.000000   0.812500 0
  0.781250   0.546875 0
  0.765625   0.546875 0
  0.859375   0.921875 0
  0.921875   0.671875 0
  0.609375   0.906250 0
  0.671875   0.656250 0
  0.609375   0.921875 0
  0.671875   0.671875 0
  0.671875   0.984375 0
  0.671875   1.000000 0
  0.906250   0.984375 0
  0.906250   1.000000 0
  0.921875   0.984375 0
  0.921875   1.000000 0
  0.859375   0.609375 0
  1.000000   0.781250 0
  0.515625   0.531250 0
  0.531250   0.531250 0
  0.531250   0.515625 0
  0.515625   0.515625 0
  1.000000   0.750000 0
  0.765625   0.531250 0
  0.781250   0.531250 0
  0.781250   0.515625 0
  0.765625   0.515625 0
  0.859375   0.875000 0
  0.921875   0.625000 0
  0.859375   0.890625 0
  0.921875   0.640625 0
  0.671875   0.968750 0
  0.671875   0.953125 0
  0.921875   0.968750 0
  0.921875   0.953125 0
  0.859375   0.593750 0
  0.859375   0.578125 0
  0.875000   0.578125 0
  0.828125   0.890625 0
  0.890625   0.640625 0
  0.593750   0.890625 0
  0.656250   0.640625 0
  0.593750   0.875000 0
  0.656250   0.625000 0
  0.578125   0.890625 0
  0.640625   0.640625 0
  0.578125   0.875000 0
  0.640625   0.625000 0
  0.968750   0.890625 0
  0.984375   0.890625 0
  0.968750   0.812500 0
  0.968750   0.828125 0
  0.984375   0.812500 0
  0.984375   0.828125 0
  1.000000   0.828125 0
  0.656250   0.953125 0
  0.640625   0.953125 0
  0.890625   0.968750 0
  0.906250   0.968750 0
  0.906250   0.953125 0
  0.890625   0.953125 0
  0.531250   0.703125 0
  0.531250   0.718750 0
  0.546875   0.718750 0
  0.546875   0.703125 0
  0.593750   0.578125 0
  0.562500   0.578125 0
  0.578125   0.578125 0
  0.843750   0.578125 0
  0.828125   0.578125 0
  0.828125   0.812500 0
  0.890625   0.562500 0
  0.828125   0.796875 0
  0.953125   0.906250 0
  0.953125   0.921875 0
  0.531250   0.859375 0
  0.593750   0.609375 0
  0.531250   0.843750 0
  0.593750   0.593750 0
  0.515625   0.843750 0
  0.578125   0.593750 0
  0.515625   0.859375 0
  0.578125   0.609375 0
  0.937500   0.859375 0
  1.000000   0.609375 0
  0.921875   0.859375 0
  0.984375   0.609375 0
  0.937500   0.796875 0
  0.921875   0.796875 0
  0.984375   0.546875 0
  0.562500   0.812500 0
  0.843750   0.796875 0
  0.843750   0.812500 0
  0.859375   0.796875 0
  0.859375   0.812500 0
  1.000000   0.906250 0
  0.984375   0.906250 0
  0.968750   0.906250 0
  0.968750   0.921875 0
  0.984375   0.921875 0
  0.593750   0.921875 0
  0.656250   0.671875 0
  0.593750   0.906250 0
  0.656250   0.656250 0
  0.578125   0.906250 0
  0.640625   0.656250 0
  0.578125   0.921875 0
  0.640625   0.671875 0
  1.000000   0.843750 0
  0.984375   0.843750 0
  0.968750   0.843750 0
  0.968750   0.859375 0
  0.968750   0.875000 0
  1.000000   0.859375 0
  0.984375   0.859375 0
  0.984375   0.875000 0
  0.656250   1.000000 0
  0.656250   0.984375 0
  0.656250   0.968750 0
  0.640625   0.968750 0
  0.640625   1.000000 0
  0.640625   0.984375 0
  0.843750   0.921875 0
  0.906250   0.671875 0
  0.843750   0.906250 0
  0.906250   0.656250 0
  0.828125   0.906250 0
  0.890625   0.656250 0
  0.828125   0.921875 0
  0.890625   0.671875 0
  0.781250   0.859375 0
  0.843750   0.609375 0
  0.781250   0.843750 0
  0.843750   0.593750 0
  0.765625   0.843750 0
  0.828125   0.593750 0
  0.765625   0.859375 0
  0.828125   0.609375 0
  0.968750   0.609375 0
  0.906250   0.859375 0
  0.953125   0.609375 0
  0.890625   0.859375 0
  0.937500   0.609375 0
  0.875000   0.859375 0
  0.562500   0.593750 0
  0.546875   0.593750 0
  0.531250   0.593750 0
  0.531250   0.609375 0
  0.562500   0.609375 0
  0.546875   0.609375 0
  0.609375   0.625000 0
  0.546875   0.875000 0
  0.609375   0.640625 0
  0.546875   0.890625 0
  0.625000   0.640625 0
  0.562500   0.890625 0
  0.625000   0.625000 0
  0.562500   0.875000 0
  0.921875   0.843750 0
  0.984375   0.593750 0
  0.937500   0.843750 0
  1.000000   0.593750 0
  0.921875   0.812500 0
  0.921875   0.828125 0
  0.984375   0.578125 0
  0.937500   0.828125 0
  1.000000   0.578125 0
  0.937500   0.812500 0
  1.000000   0.562500 0
  0.578125   0.828125 0
  0.921875   0.781250 0
  0.937500   0.781250 0
  1.000000   0.531250 0
  0.921875   0.765625 0
  0.984375   0.515625 0
  0.937500   0.765625 0
  0.625000   0.656250 0
  0.562500   0.906250 0
  0.609375   0.656250 0
  0.546875   0.906250 0
  0.625000   0.671875 0
  0.562500   0.921875 0
  0.609375   0.671875 0
  0.546875   0.921875 0
  0.859375   0.781250 0
  0.859375   0.765625 0
  0.828125   0.671875 0
  0.765625   0.921875 0
  0.828125   0.734375 0
  0.765625   0.984375 0
  0.875000   0.843750 0
  0.937500   0.593750 0
  0.890625   0.843750 0
  0.953125   0.593750 0
  0.906250   0.843750 0
  0.968750   0.593750 0
  0.906250   0.828125 0
  0.968750   0.578125 0
  0.937500   0.578125 0
  0.953125   0.578125 0
  0.906250   0.765625 0
  0.875000   0.765625 0
  0.953125   0.515625 0
  0.531250   0.781250 0
  0.671875   0.890625 0
  0.531250   0.921875 0
  0.953125   0.656250 0
  0.828125   0.781250 0
  0.843750   0.781250 0
  0.703125   0.984375 0
  0.687500   0.984375 0
  0.843750   0.875000 0
  0.906250   0.625000 0
  0.671875   0.781250 0
  0.734375   0.531250 0
  0.906250   0.609375 0
  0.671875   0.765625 0
  0.734375   0.515625 0
  0.906250   0.593750 0
  0.890625   0.593750 0
  0.875000   0.593750 0
  0.828125   0.875000 0
  0.890625   0.625000 0
  0.656250   0.781250 0
  0.718750   0.531250 0
  0.890625   0.609375 0
  0.656250   0.765625 0
  0.718750   0.515625 0
  0.875000   0.609375 0
  0.640625   0.765625 0
  0.703125   0.515625 0
  0.812500   0.921875 0
  0.875000   0.671875 0
  0.812500   0.875000 0
  0.875000   0.625000 0
  0.640625   0.781250 0
  0.703125   0.531250 0
  0.812500   0.515625 0
  0.750000   0.828125 0
  0.812500   0.578125 0
  0.687500   1.000000 0
  0.937500   0.656250 0
  0.875000   0.906250 0
  0.531250   0.656250 0
  0.890625   0.906250 0
  0.906250   0.906250 0
  0.562500   0.656250 0
  0.906250   0.890625 0
  0.562500   0.640625 0
  0.968750   0.625000 0
  0.906250   0.875000 0
  0.562500   0.625000 0
  0.937500   0.640625 0
  0.875000   0.890625 0
  0.890625   0.890625 0
  0.546875   0.640625 0
  0.953125   0.625000 0
  0.890625   0.875000 0
  0.546875   0.625000 0
  0.546875   0.687500 0
  0.890625   0.937500 0
  0.937500   0.625000 0
  0.875000   0.875000 0
  0.531250   0.625000 0
  0.531250   0.640625 0
  0.546875   0.656250 0
  0.937500   0.968750 0
  0.687500   0.968750 0
  0.953125   0.968750 0
  0.703125   0.968750 0
  0.968750   0.968750 0
  0.718750   0.968750 0
  0.718750   0.906250 0
  0.968750   0.953125 0
  0.718750   0.953125 0
  0.968750   0.937500 0
  0.859375   0.906250 0
  0.921875   0.656250 0
  0.718750   0.937500 0
  0.828125   0.531250 0
  0.937500   0.953125 0
  0.687500   0.953125 0
  0.953125   0.953125 0
  0.703125   0.953125 0
  0.703125   0.890625 0
  0.843750   0.515625 0
  0.953125   0.937500 0
  0.953125   1.000000 0
  0.703125   0.937500 0
  0.937500   0.937500 0
  0.687500   0.937500 0
  0.703125   0.906250 0
  0.718750   0.890625 0
  0.687500   0.890625 0
  0.687500   0.765625 0
  0.750000   0.515625 0
  0.687500   0.781250 0
  0.750000   0.531250 0
  0.859375   0.937500 0
  0.921875   0.687500 0
  0.687500   0.796875 0
  0.750000   0.546875 0
  0.578125   0.750000 0
  0.515625   1.000000 0
  0.843750   0.765625 0
  0.578125   0.734375 0
  0.515625   0.984375 0
  0.562500   0.734375 0
  0.828125   0.750000 0
  0.765625   1.000000 0
  0.562500   0.750000 0
  0.562500   0.718750 0
  0.578125   0.515625 0
  0.921875   0.703125 0
  0.921875   0.718750 0
  0.593750   0.515625 0
  0.687500   0.875000 0
  0.750000   0.625000 0
  0.578125   0.531250 0
  0.921875   0.750000 0
  0.703125   0.875000 0
  0.765625   0.625000 0
  0.593750   0.531250 0
  0.875000   0.968750 0
  0.937500   0.718750 0
  0.703125   0.828125 0
  0.765625   0.578125 0
  0.937500   0.734375 0
  0.703125   0.812500 0
  0.765625   0.562500 0
  0.890625   0.687500 0
  0.828125   0.937500 0
  0.656250   0.796875 0
  0.718750   0.546875 0
  0.890625   0.718750 0
  0.828125   0.968750 0
  0.906250   0.796875 0
  0.718750   0.828125 0
  0.781250   0.578125 0
  0.890625   0.703125 0
  0.828125   0.953125 0
  0.656250   0.859375 0
  0.906250   0.781250 0
  0.968750   0.531250 0
  0.546875   0.796875 0
  0.671875   0.796875 0
  0.734375   0.546875 0
  0.843750   0.953125 0
  0.906250   0.703125 0
  0.671875   0.875000 0
  0.718750   0.812500 0
  0.781250   0.562500 0
  0.875000   0.812500 0
  0.531250   0.890625 0
  0.593750   0.640625 0
  0.937500   0.890625 0
  0.875000   0.781250 0
  0.609375   0.703125 0
  0.546875   0.953125 0
  0.890625   0.796875 0
  0.625000   0.718750 0
  0.562500   0.968750 0
  0.906250   0.812500 0
  0.734375   0.859375 0
  0.796875   0.609375 0
  0.718750   0.875000 0
  0.781250   0.625000 0
  0.750000   0.859375 0
  0.812500   0.609375 0
  0.812500   0.546875 0
  0.750000   0.812500 0
  0.734375   0.843750 0
  0.796875   0.593750 0
  0.750000   0.843750 0
  0.812500   0.593750 0
[...]
CELL_DATA 4096
SCALARS scalar_value float 1
LOOKUP_TABLE default
2.01805
2.025
1.9935
1.93176
2.04417
2.42251
2.48039
2.21912
1.8238
2.03979
1.61001
1.71267
2.17732
2.03376
2.16968
2.16069
0.889096
0.895128
1.0787
1.08583
0.685499
0.68321
0.708096
0.702916
0.791309
0.735245
0.667825
0.702246
1.93134
1.93514
1.84103
1.963
1.11806
0.865997
1.04615
1.11432
1.86162
1.70231
1.75338
1.80027
1.46504
1.36775
1.02446
1.20228
4.1287
4.22548
3.77045
4.0479
1.06953
0.858471
0.68727
0.786442
1.39851
1.55486
1.28546
1.21279
1.80988
1.98608
1.93199
1.82779
2.19173
2.59596
2.25478
1.79663
1.40536
1.7477
2.13615
1.42996
4.75518
5.34687
5.13174
5.54051
0.707416
0.595546
0.518527
0.642941
4.77696
3.87786
3.14715
4.24595
1.53174
1.40486
1.7268
1.72046
1.97528
2.37822
2.14652
1.75815
0.827484
0.783538
0.751817
0.839423
4.34129
4.18825
5.41462
5.08356
3.29036
2.9871
3.9857
4.33041
1.58785
1.32309
1.599
1.74903
0.59726
0.689955
0.768671
0.692197
2.17679
3.11447
3.11812
2.31589
1.93256
1.89254
1.86663
1.91373
3.5673
2.85812
3.11191
3.83934
0.462044
0.542172
0.508575
0.432056
1.48526
1.57013
1.58589
1.62574
0.937119
1.20622
1.1897
0.8608
2.17364
2.16929
1.69062
1.69184
4.63883
5.39875
5.21547
4.91504
3.83275
3.62184
4.13391
3.76691
1.55273
1.47733
1.65111
1.54103
5.01554
4.51749
5.66101
5.74836
2.47892
2.78496
3.7752
3.58143
1.83501
1.47478
1.51262
1.59715
0.440262
0.476662
0.546446
0.46113
1.41708
1.50132
1.67458
1.46496
0.679638
0.566195
0.685896
0.966805
2.27009
2.89527
3.30818
2.19111
1.94996
2.58118
2.12648
1.68655
1.12145
1.21032
1.0414
0.885375
1.03222
0.794756
0.685835
0.995756
5.43887
3.65989
2.78357
3.8694
3.33715
2.91793
2.32197
2.53864
1.28154
1.24261
1.21456
1.16874
0.57369
1.64904
0.886707
2.53592
0.457043
5.25748
0.52409
0.466688
0.401917
0.479581
0.442975
1.357
1.17025
1.47334
0.936327
1.42532
0.750357
1.4481
0.931101
1.54155
0.889759
1.44636
0.738791
0.41159
0.425791
0.408651
0.553097
0.580614
0.361382
0.365784
0.500283
0.439326
0.61436
2.37295
0.913211
1.9173
0.66779
1.95936
0.802316
2.062
1.03202
1.95485
1.0572
0.891785
1.27116
0.829526
1.49872
1.389
2.04115
2.03656
3.19601
0.891265
1.70524
4.01599
1.0487
3.10394
1.30236
1.59864
2.76561
1.02958
0.851115
0.564053
0.877109
0.745268
1.16133
0.682467
0.492434
0.37146
0.403202
0.516426
0.614164
1.08187
0.566861
0.828387
2.52062
0.664379
2.66129
0.836929
2.73499
0.802506
1.29415
0.925934
1.00588
0.630922
2.50389
0.685729
0.992023
0.598963
1.20872
3.67623
0.511616
4.9763
0.57504
2.52001
0.455192
2.85362
0.498858
3.05089
0.334535
2.67291
5.39362
0.347863
5.02598
0.581935
2.24746
0.379635
5.43161
2.09074
0.750842
0.36557
5.73519
0.813141
2.32347
0.614602
0.846175
0.35941
1.93286
1.6452
0.875848
1.69824
0.727368
1.7973
0.742123
1.51228
1.07009
1.09946
2.06825
1.40263
1.07916
1.3713
1.23162
0.747015
1.07081
0.349845
1.99011
1.9551
1.55528
1.53199
2.52177
2.75307
0.725354
0.782376
1.2168
1.92392
2.05745
0.380431
0.544657
0.529274
0.426633
0.529691
1.4913
0.415886
1.93342
2.72009
2.62821
2.92639
3.54305
2.5135
2.721
4.06693
1.72459
5.179
1.47065
2.93685
3.44643
5.11493
2.00936
1.76351
1.61797
1.42027
1.51799
1.74047
0.941938
1.23954
1.03695
1.00791
0.828722
1.31675
0.782531
0.564296
0.386707
0.398895
0.696086
0.34966
1.03804
1.25298
0.90458
1.59032
0.679108
0.920723
0.732931
0.646928
0.332117
1.62775
0.801026
1.12711
0.755606
1.65303
0.336623
1.77869
0.863264
1.01119
0.751215
1.60854
0.679583
1.54915
0.65083
1.04622
0.580068
1.46006
0.901511
1.70935
0.984218
1.42281
1.04626
1.51777
0.904925
1.57712
1.17379
1.54042
1.25088
1.26713
1.69331
1.12356
0.642751
2.20964
2.32844
2.9779
0.905401
2.08935
3.6034
0.989476
1.61603
2.92433
3.87716
1.00632
1.59378
3.61275
2.30656
1.563
2.63905
0.484515
5.6415
2.03919
3.33819
4.13983
3.6589
0.48438
4.34179
4.31678
3.6245
1.72842
1.72634
1.54447
1.01978
1.70427
0.962985
1.63735
1.02989
1.65536
1.10086
1.66663
1.88558
0.721669
1.1477
4.18825
1.14805
4.01124
3.3498
0.870666
0.493511
0.772448
0.436188
1.02536
2.33541
1.96799
1.40127
1.24132
0.689032
0.606974
0.392562
0.455975
2.80179
0.449336
0.359354
1.12884
0.631706
0.471552
0.605651
1.62595
0.365416
0.770407
1.99536
4.1226
1.18953
0.554392
1.38623
2.6877
3.25885
1.01698
3.38025
0.735943
1.09551
0.574174
0.464754
0.848159
1.67535
0.505614
2.41129
3.35376
1.21627
0.529841
1.37606
2.00228
2.96226
0.714847
3.13031
0.823578
0.997145
0.547631
1.70606
0.882407
0.451891
0.602
0.423225
2.80402
0.386973
3.11774
0.395426
0.618776
0.791315
1.54055
0.722704
0.534507
1.75287
0.464962
2.13201
0.857026
3.75576
0.36499
0.755848
0.663837
0.74122
1.89022
0.914982
4.2671
0.375436
0.526344
0.6428
0.792209
0.767123
0.425058
2.81887
0.948226
3.2616
0.523859
1.34187
0.550296
1.85165
0.715252
0.961733
0.388654
3.33905
0.381766
0.870138
2.34788
0.589397
0.739116
0.597086
0.377843
1.91986
1.09847
0.36561
2.21626
0.839887
1.5261
1.79379
1.09354
0.414399
0.660068
0.727851
0.619266
1.63057
0.3535
2.81892
1.24119
0.396703
1.95489
4.3192
0.998627
3.27946
0.827958
0.448005
1.59589
1.51417
0.422186
0.435752
0.594025
0.717558
2.52998
0.441792
0.46696
1.98803
0.439068
1.40259
1.15757
0.356337
2.75291
1.28276
0.812355
0.874542
0.921715
0.415264
2.40344
1.11016
0.828894
3.71815
0.387915
0.51665
0.337203
3.0848
1.02557
0.409844
1.85155
2.13599
1.38467
1.03959
0.687988
0.920793
1.99476
2.25761
1.02312
4.28432
0.384625
0.34914
1.05639
1.24584
0.623787
0.630976
2.37942
2.87057
1.23183
1.65789
0.771061
1.81499
1.33328
2.21504
0.864647
1.9886
2.17868
1.62781
0.366897
1.39055
0.343601
1.43431
0.422737
1.47361
0.441429
1.9602
0.609032
4.78625
2.44906
1.87481
0.507734
1.62415
0.516026
0.463736
0.596585
4.5675
0.355624
1.56435
0.616319
5.6673
1.27964
0.611384
1.29878
0.720077
1.15002
0.57459
1.12506
0.597339
0.414098
3.39439
0.360183
1.05846
0.591778
2.79886
0.540089
0.955299
0.559091
1.12802
0.467093
0.436155
2.21512
0.446815
3.56293
0.385028
1.15433
0.387915
1.09872
1.16015
1.46616
0.548245
0.886128
1.51954
0.695963
1.21891
0.831462
1.07377
0.922546
1.33847
1.63858
1.26541
4.94712
0.88898
1.87149
4.29956
1.23287
1.46131
4.95527
0.392546
2.515
0.599636
0.417041
3.4318
2.14741
0.739212
0.40556
2.42631
0.545187
0.437012
0.803922
1.53519
0.43195
1.19734
1.0043
2.68033
1.04909
0.95242
1.96158
1.50727
2.3484
0.349211
2.36062
0.992238
1.34669
0.679167
2.30263
0.95976
2.26007
0.414102
2.14289
0.384383
1.3968
1.19308
1.45761
1.04095
1.20341
1.18867
1.07169
1.5299
6.47939
1.5431
5.106
1.5108
5.28527
1.46172
5.39596
1.7866
0.898045
3.69104
2.73849
3.33993
1.76335
0.540072
2.58902
2.39875
3.04875
2.91873
1.20975
1.66424
1.76754
1.47403
1.46863
1.37489
1.31527
1.29584
1.94207
2.06349
2.23192
2.19885
1.28017
1.1737
1.26171
1.39693
1.3679
1.05825
1.45245
0.936508
1.00716
1.431
1.42601
1.28934
1.16476
1.38345
0.892614
1.54559
1.59743
1.66248
1.83733
1.93284
2.85516
2.47729
2.40476
2.82043
2.71325
0.643441
2.3317
0.556833
2.00866
0.429101
2.25502
0.493611
0.796361
0.81322
0.739353
0.651275
4.30422
4.28819
4.48579
4.68582
0.719279
2.02812
0.825232
1.8378
0.975656
1.60681
0.917534
1.80386
2.38804
2.55194
2.04791
1.74773
1.7582
2.00459
1.88369
1.58222
2.29648
0.690008
2.02944
2.44847
2.60609
1.06326
1.16519
1.21731
1.23755
0.396942
2.25081
0.356966
1.84405
0.391456
1.85185
0.45563
2.32089
1.17879
1.61667
1.18891
1.57886
0.863727
1.50688
0.888664
1.50566
1.61982
1.36218
1.37295
1.29038
1.06347
0.931129
1.08617
1.13378
1.91238
1.95827
1.80093
1.53135
1.8363
0.987598
2.13658
1.06445
1.92163
1.06763
1.75735
1.07402
1.41241
0.396192
1.55453
0.30563
1.48659
0.331449
1.54459
0.351201
1.9018
0.810192
1.87526
0.800446
1.71753
1.01939
2.0308
0.932577
2.06008
1.98738
2.06842
2.51523
2.53034
2.67816
2.62472
2.03725
5.01351
4.6552
4.24686
4.40893
1.15481
0.638383
1.4886
0.479324
1.47527
0.449797
1.11212
0.558377
1.99713
0.336569
1.90188
0.419062
1.81638
0.372374
1.64737
0.304109
1.32525
1.23474
0.935649
0.976343
1.4276
1.41089
1.67314
1.67249
2.16248
1.71063
2.1221
2.61627
1.72925
1.6517
2.16662
2.1754
1.16927
1.88303
1.06705
1.92098
0.992919
1.60348
1.14226
1.64269
1.41388
0.605391
1.42058
1.05869
1.34965
1.08464
1.14661
1.44727
1.24768
1.70099
1.62385
1.94903
2.12617
1.30504
1.50746
1.69509
1.23828
1.46796
1.2281
1.21322
1.44728
6.66345
5.82502
4.94034
5.33296
4.54834
4.81381
4.59811
4.27448
1.59621
1.54629
1.38198
1.36723
0.446271
1.5405
0.399969
1.68151
0.451963
1.6338
0.516547
1.38945
2.61521
3.22282
2.66742
2.43165
1.87594
1.42027
1.34723
1.67712
3.92472
3.55617
3.00951
3.28545
3.28881
4.11173
4.13925
3.64501
1.69802
1.75862
2.06198
1.61673
0.55407
0.618932
0.682168
2.20471
1.94891
2.58111
3.15043
1.60301
1.76824
1.91692
1.79572
1.26326
1.39636
1.36735
1.25692
1.719
1.50713
1.39575
1.50662
2.02669
2.24496
2.43618
2.06119
2.82634
2.7686
2.56322
2.42245
2.85619
3.02524
3.27149
3.00538
3.04875
3.70479
3.73157
3.28726
6.10765
6.47289
5.65042
5.29502
2.07024
2.1166
1.8829
1.95615
2.45479
2.67243
1.82747
1.98432
7.72931
6.48338
6.53818
7.24432
1.97138
2.30605
2.11574
1.88238
1.70273
2.41495
1.93298
1.48076
5.78571
6.07399
6.45344
6.41787
1.28167
1.74539
1.79483
1.67415
0.746453
0.705505
1.02258
0.980326
5.62461
5.63977
5.41527
6.41894
1.94865
2.22083
2.46215
2.28777
1.25226
1.267
1.26215
1.52476
1.21793
1.3063
1.21557
1.16277
1.34108
1.33734
1.218
1.38773
1.22891
1.19054
1.29023
2.74546
1.93402
1.91178
2.57358
4.13127
4.16214
6.4139
6.22504
1.3946
1.54324
2.20218
1.94365
0.949312
1.30388
1.17268
0.967747
7.9173
6.74788
7.58007
6.74055
1.59677
1.32707
1.08278
1.13548
7.8224
7.33193
7.89488
8.0216
0.780074
0.895149
1.18196
1.13083
0.547803
0.737248
0.643912
0.530156
0.281096
0.297994
0.314087
0.318593
1.05612
0.819727
0.66196
0.858469
7.16061
6.28543
6.77737
8.11705
3.30262
2.47742
3.03261
3.7808
2.04953
1.66337
1.59377
1.85663
1.66086
1.77221
1.28584
1.35328
2.43548
2.0432
2.38548
2.84887
2.41871
2.08851
1.84114
2.1241
1.80753
1.8765
1.56939
1.44305
2.89972
2.33969
1.91171
2.77904
1.87328
1.98972
2.11565
1.68733
4.83226
4.50777
3.91821
4.16119
0.553621
0.534325
0.598256
0.661466
1.28526
1.105
0.89113
1.05515
1.52929
1.31263
1.66274
1.77706
0.996694
0.800181
0.941738
1.10906
1.13079
1.2865
1.43944
1.45023
0.688523
0.706909
0.894101
0.872197
0.929487
6.21023
0.400788
0.73978
0.712617
2.73672
0.507443
0.40644
2.5427
0.348757
0.900396
6.29068
6.33707
3.05688
2.58861
3.73266
3.27571
1.36225
1.43852
1.05842
1.28962
1.20083
1.50277
1.07401
4.77541
0.888477
4.34993
10.1152
3.31782
4.12161
9.37699
3.05116
3.11962
1.40369
7.28766
6.25476
1.02147
5.0841
5.48733
0.899524
4.91063
2.94799
2.45571
6.5119
9.42201
1.07468
3.95174
1.50113
3.80053
12.3843
0.968776
2.86804
3.40568
10.8507
1.09004
2.9024
3.31229
0.484806
5.17892
0.515826
3.71876
0.557989
4.39943
1.05965
0.302049
0.419349
4.13713
0.806979
0.348872
1.2646
4.01233
0.395073
5.16398
0.55718
5.36093
0.705947
0.383293
0.513653
5.07317
0.732898
0.332918
0.538522
0.422479
5.95403
0.575867
6.05427
0.608096
7.12915
0.524013
6.72696
0.443427
0.703177
5.72932
0.927274
4.62574
0.317129
0.357486
0.447882
0.364148
0.509453
0.276092
0.48107
6.21171
4.85285
0.847064
4.96302
0.717365
5.7731
0.773645
5.39518
1.03408
1.13648
3.74541
1.02426
4.26011
0.795894
5.48479
0.966498
4.62201
0.786823
2.90627
0.44753
2.54045
0.56229
2.74654
0.638742
2.15837
0.536928
2.57831
0.616168
2.74801
0.614161
2.46108
7.06112
0.394049
5.24046
0.27433
6.50864
0.354246
3.38844
0.328433
3.15674
0.411226
6.90491
0.292849
3.2398
0.460268
6.15464
4.72832
4.12852
1.10014
0.354997
4.28802
2.4843
4.51663
3.87434
2.28608
4.78047
3.68415
1.21018
2.61618
0.71821
2.56271
0.955222
5.03936
5.20426
0.348204
3.74556
0.407859
4.31906
0.316349
2.66475
0.502247
2.99137
0.384095
4.16084
0.427959
2.16478
0.437099
1.98734
0.617931
0.266726
1.55604
0.292996
1.15415
0.340376
1.23164
3.73153
0.330928
5.19237
0.45066
3.42402
0.312602
6.1495
0.388695
9.6032
6.92714
0.504155
3.03073
0.381299
5.99343
0.536097
2.612
2.73506
3.8629
3.53645
0.897195
9.77017
0.317938
0.800719
4.85717
4.23227
4.20971
5.65704
0.327115
0.5216
7.41184
3.8593
4.18575
4.76632
5.42795
0.369309
2.5699
0.787944
4.09575
0.296765
2.31968
0.305849
2.06521
1.04926
5.26033
0.384111
2.66492
0.680381
4.64482
1.39979
1.10815
0.719297
4.61752
3.96526
3.55701
3.83723
0.682834
1.56311
0.609445
3.63644
3.78048
3.5277
0.771398
1.80886
5.55981
1.82502
1.40909
2.26974
4.64269
1.93644
4.23273
1.50079
1.52552
0.638532
5.76671
2.21206
0.707407
0.645842
6.40881
2.50806
0.920609
5.63308
1.35456
1.36921
0.426603
1.42415
1.65845
1.8296
0.961182
1.32628
2.0315
0.47773
1.83727
0.408429
1.16537
3.8781
0.562893
0.368565
1.66964
1.71207
0.778669
3.79397
0.667639
2.15188
0.695924
3.08412
0.577034
2.59218
0.736884
3.83071
5.26385
0.833512
4.26133
3.70758
1.80391
0.705641
1.70649
0.738339
1.41117
0.647321
0.926325
7.07638
0.78366
4.38063
1.82774
0.822797
1.51192
0.96164
2.25715
0.849855
4.15028
3.6406
1.36453
3.19832
0.850283
3.67464
1.11652
1.64704
1.4633
0.907068
0.680332
2.43965
1.06177
0.700129
0.735468
5.41257
0.537487
1.76937
0.281577
1.5219
2.73119
2.68374
0.671938
2.18035
1.59254
0.859577
0.428258
1.45148
0.682557
5.30591
0.553456
1.9284
3.65956
2.64826
0.41401
1.49731
0.605942
3.76188
0.383968
1.19664
3.1237
4.81402
5.75082
6.39013
0.832511
5.80339
6.30075
6.31076
0.581796
1.14596
3.02788
6.11005
0.715867
7.0594
0.542685
2.78697
1.04311
1.90609
3.17648
0.865008
2.79765
6.36912
2.10855
2.65848
1.37775
3.26774
0.792764
4.88843
1.13074
2.17982
2.02756
0.846786
1.30904
0.85773
0.965385
2.09111
1.38065
0.907696
2.62738
3.73008
0.847657
3.29272
0.591705
2.33995
1.72097
6.58019
0.929009
3.95014
3.91092
4.80334
0.72667
6.05056
0.814035
2.47921
1.02294
5.05587
0.764322
1.95971
4.03706
0.863
4.46165
3.12394
3.28524
0.78356
2.91913
1.80333
1.57136
0.537438
1.70534
0.853435
0.963152
2.07005
3.05852
4.84418
2.68706
0.440831
1.13458
2.8848
1.45116
1.2132
2.16518
5.76469
3.17243
0.901382
4.08954
3.13753
0.608335
2.29427
4.95141
4.15316
2.97151
3.42322
0.541649
3.64479
0.36767
2.29151
1.38041
3.0295
3.69488
1.38752
1.30205
2.40467
0.937185
3.41642
4.01004
0.852444
5.06752
3.53363
10.4333
3.04972
0.462424
3.17399
2.6601
2.98512
9.51909
3.54678
0.455355
3.88793
2.58606
3.75957
7.82298
0.686762
6.56115
3.25485
6.39851
2.52182
4.29945
2.51602
0.401827
1.57879
4.40021
0.869308
0.846757
5.02703
1.5236
4.76603
3.29011
0.966824
3.1335
0.923858
0.259155
1.42796
7.13036
0.531837
0.260633
1.07892
0.27687
0.881288
8.25434
0.56132
0.322344
1.22563
3.73654
4.12573
7.31157
0.697005
11.2145
6.939
0.436611
0.5421
2.34077
0.614
2.8665
0.582026
2.86678
0.491486
2.45735
0.760645
6.01156
0.780991
4.21022
0.881256
2.75392
3.59794
4.0165
2.68814
4.02136
0.762396
6.84794
4.33711
3.65651
0.611806
6.69186
0.717887
1.39095
5.41854
2.76351
2.37578
2.53285
2.86834
3.14771
12.9662
3.60951
12.0807
3.28822
11.4061
3.19505
10.3581
4.02759
6.37738
5.10418
4.17123
3.29459
4.21436
0.424836
3.90297
4.78355
5.40188
7.54725
7.09144
8.64471
3.60474
8.00484
2.60327
9.57468
2.99794
10.3506
3.68782
4.99471
5.49589
8.01692
6.61372
3.71031
4.38074
4.58549
4.15037
4.93845
5.72658
7.21166
5.84782
0.598107
0.622194
0.540049
0.603882
0.509041
2.55831
0.567538
1.96994
0.717055
1.51753
0.609838
1.7334
0.617713
6.46659
0.516629
5.22972
0.616533
5.27835
0.750493
5.85007
0.492435
0.414664
0.456982
0.55939
6.03829
7.04951
7.1681
6.24886
6.02592
0.565739
2.63911
0.551393
2.69769
0.559836
2.82626
0.667864
2.66665
1.38064
2.00867
0.92142
1.94041
0.664877
2.22713
0.89528
2.38748
5.85742
1.05275
6.07998
0.868946
5.51162
0.610608
5.85217
0.729624
0.250998
0.278584
0.269752
0.252172
0.427017
3.90901
0.361018
0.334236
0.335061
6.08607
2.75924
4.28209
3.58075
4.54081
2.39858
5.6866
2.08044
6.17534
4.79272
5.03148
5.83911
4.53265
4.96801
5.87083
4.2556
2.36133
2.36212
2.78237
2.50992
2.50647
2.55648
2.85584
2.33245
3.19063
1.84271
4.18666
1.80719
3.77377
2.81372
7.38836
2.72736
9.06322
2.6704
8.56112
2.65326
7.17804
1.46243
5.15135
1.63413
4.52417
1.24541
6.43407
1.90854
9.27796
2.24828
7.57224
2.39291
8.74194
1.88604
9.003
1.43737
8.22774
1.24418
11.0304
1.04663
8.98744
4.05589
1.19033
7.76983
1.68833
2.14042
1.63212
1.37604
5.57677
0.933918
5.06253
0.721712
5.98793
0.693399
6.19352
0.803257
3.20341
3.65779
4.08301
3.28391
3.96991
4.55874
3.9661
3.38289
1.22872
1.34151
1.14627
1.04335
3.45294
1.76909
3.23859
1.26982
3.83422
1.25899
3.71332
1.57901
1.92645
2.02455
2.19684
2.10221
2.65004
2.8244
2.49154
2.64385
2.85311
3.46729
2.32091
1.85819
1.57162
1.62779
1.83512
1.56517
6.16252
4.59528
6.13596
7.53739
2.33097
1.91217
2.3204
2.59187
11.1223
9.18715
8.30429
9.75984
7.44616
7.61625
7.6235
7.36773
8.46762
7.75826
9.41379
8.16446
4.49304
5.42868
4.1354
3.28315
0.343475
0.392607
0.423924
0.326461
6.9485
0.835095
6.33927
0.900146
7.77143
1.10792
6.46793
3.19356
0.480603
2.72119
0.557294
3.42234
0.598709
4.19388
0.456617
5.82038
7.32268
7.65373
6.50674
2.09317
2.47712
3.16789
2.71724
6.42338
4.61303
5.88835
5.49859
5.33619
4.75831
5.04302
5.41987
5.48506
5.44593
5.96485
6.04534
6.45653
5.80483
4.87142
4.87173
5.5672
5.43567
1.64007
1.61654
1.325
1.2585
5.47538
2.98071
2.79206
4.1277
5.98943
6.88679
6.10755
5.918
3.0232
2.95133
4.44107
4.77425
1.33872
1.68036
1.84121
1.56816
5.13894
3.94515
3.99019
5.10061
3.2087
4.10569
3.63812
1.69217
2.09195
2.01745
1.73975
2.85075
2.57928
1.8889
2.01586
2.02522
1.78312
1.69619
1.93233
9.10316
8.78029
7.81132
7.58462
2.79747
2.14007
2.08929
2.31847
7.24337
7.79495
7.36073
5.96078
4.81538
5.43156
4.9488
4.79349
2.66045
2.46066
2.68659
3.52398
6.97243
7.51008
7.69481
5.92093
1.93443
2.13402
2.27151
2.09458
7.05652
7.43291
6.47889
6.53756
0.850856
1.08661
0.798418
0.62556
1.66892
1.49438
1.2988
1.56165
6.04622
7.51024
7.19949
6.3122
6.16595
6.80899
6.94863
6.88797
6.52078
7.13969
6.3736
5.84077
5.99843
6.43199
5.45578
5.70977
7.24215
6.84986
5.90402
7.16027
6.62533
6.71425
5.57854
5.42922
1.69157
1.93995
1.61015
1.34893
5.6839
5.44939
4.29058
4.64989
0.844872
0.836479
0.784525
0.840191
0.892825
1.08704
0.828407
0.776552
2.99981
2.75992
2.27226
2.20494
0.762496
0.76413
1.34226
1.32235
0.966501
1.17752
2.51138
3.15287
3.09945
2.10688
0.774784
0.763199
0.792701
1.0062
0.746374
0.712512
0.686408
0.697733
0.640621
0.707952
0.649481
0.890493
1.11578
1.38929
1.05149
3.37672
2.9985
3.44277
3.59366
4.6243
3.54645
3.48346
4.94823
3.38428
3.44016
4.49128
3.8634
2.16413
2.97851
2.66188
1.73298
2.79857
2.95855
2.36613
2.31837
0.786643
0.76803
0.958326
1.087
5.42792
3.06956
3.07535
4.67705
3.01374
3.36048
4.94
3.9979
0.841463
0.818405
0.827683
0.826504
1.9554
2.46942
2.46186
1.8851
0.908785
0.893971
0.870792
0.909579
2.08543
2.48549
1.74548
1.4813
2.62259
1.08325
2.31676
3.36154
3.71317
2.33119
2.83512
3.59289
2.87394
3.04508
3.76762
3.60936
1.34921
8.90076
1.39416
9.22516
2.98808
4.77083
3.56614
8.77119
2.59469
8.02371
2.75618
8.35898
1.47752
5.17722
1.70201
5.3627
2.86119
9.45951
1.49748
6.09972
1.21156
5.63125
1.48047
3.06236
2.26127
2.2978
2.63765
4.72142
2.28853
1.95299
1.52229
1.36155
6.62758
1.33815
7.22194
1.78036
6.76606
0.969023
1.11257
7.36868
1.3458
8.65397
1.21157
4.38015
1.14357
5.84036
1.24077
7.93985
1.49079
6.4455
1.4392
5.12244
5.45201
2.87176
3.64065
2.54283
6.05289
3.59657
1.0532
4.20428
4.38232
1.70502
3.54799
3.32889
3.28504
1.95543
3.92128
4.63203
4.96405
5.51654
2.39133
1.58472
5.03828
0.850933
2.2495
1.95365
4.77884
3.81424
8.46445
4.05575
8.81319
1.83427
6.31804
4.53815
9.14123
0.773726
1.98101
6.52194
2.85642
6.75022
2.45076
6.25902
2.96704
4.38582
2.12437
1.58879
2.19311
1.45716
1.95643
1.49619
0.782007
3.19656
0.965331
4.6862
4.46657
1.17331
4.90265
1.90766
1.95979
0.707442
5.57992
1.41925
4.87097
2.08958
4.77854
1.0798
1.35528
3.82069
1.20083
3.56216
4.38836
7.69113
4.74087
5.57355
4.22876
7.04626
2.0377
1.21643
4.79973
5.23922
1.73016
1.23332
2.51579
4.13756
1.45156
0.992748
1.55728
0.967665
2.62175
0.747429
2.68305
0.811973
4.97664
1.93502
2.15336
0.679221
5.45988
1.52785
6.00631
1.84686
3.63046
0.813708
5.26888
2.1507
0.703752
1.87131
0.713994
1.46086
5.57535
3.82662
6.28772
3.49328
4.6115
5.74885
1.31561
1.57648
4.56046
4.52325
1.70751
1.45149
1.88989
1.61765
4.1449
3.05085
1.53222
2.03255
0.603741
2.13462
0.667406
2.02323
1.21631
1.37317
2.73037
4.73174
1.27912
1.2045
3.19933
4.30282