# vtk DataFile Version 2.0
Unstructured Grid by M++
ASCII
DATASET UNSTRUCTURED_GRID
POINTS 1089 float
  0.718750   0.687500 0
  0.750000   0.687500 0
  0.718750   0.656250 0
  0.750000   0.718750 0
  0.625000   0.562500 0
  0.625000   0.593750 0
  0.656250   0.593750 0
  0.750000   0.750000 0
  0.687500   0.656250 0
  0.687500   0.625000 0
  0.656250   0.625000 0
  0.906250   0.593750 0
  1.000000   0.968750 0
  0.750000   0.968750 0
  0.718750   0.968750 0
  0.718750   1.000000 0
  0.750000   1.000000 0
  0.906250   0.906250 0
  0.843750   0.531250 0
  0.656250   0.937500 0
  0.656250   0.906250 0
  0.562500   0.812500 0
  0.562500   0.843750 0
  0.593750   0.875000 0
  0.593750   0.843750 0
  0.812500   0.718750 0
  0.625000   0.625000 0
  0.968750   0.875000 0
  0.531250   0.875000 0
  0.625000   0.937500 0
  0.562500   0.562500 0
  0.906250   0.812500 0
  0.531250   0.781250 0
  0.562500   0.593750 0
  0.906250   0.843750 0
  0.625000   0.656250 0
  0.968750   0.906250 0
  0.687500   0.968750 0
  0.812500   0.812500 0
  0.687500   1.000000 0
  0.687500   0.687500 0
  0.937500   0.843750 0
  0.593750   0.593750 0
  1.000000   0.625000 0
  0.968750   0.593750 0
  0.906250   0.875000 0
  0.968750   0.625000 0
  0.625000   0.875000 0
  0.875000   0.875000 0
  0.625000   0.906250 0
  0.875000   0.843750 0
  0.531250   0.812500 0
  0.968750   0.562500 0
  0.593750   0.625000 0
  0.937500   0.875000 0
  0.656250   0.687500 0
  1.000000   0.937500 0
  0.875000   0.562500 0
  0.687500   0.937500 0
  0.937500   0.625000 0
  0.812500   0.781250 0
  0.937500   0.562500 0
  0.875000   0.781250 0
  0.531250   0.531250 0
  0.718750   0.937500 0
  0.968750   0.937500 0
  0.906250   0.562500 0
  0.843750   0.781250 0
  0.593750   0.562500 0
  1.000000   0.906250 0
  0.656250   0.656250 0
  0.937500   0.906250 0
  0.875000   0.531250 0
  0.812500   0.750000 0
  0.656250   0.968750 0
  0.937500   0.531250 0
  0.843750   0.812500 0
  0.906250   0.531250 0
  0.843750   0.750000 0
  0.937500   0.593750 0
  0.875000   0.812500 0
  0.531250   0.562500 0
  1.000000   0.593750 0
  0.562500   0.906250 0
  0.562500   0.531250 0
  0.593750   0.906250 0
  0.593750   0.937500 0
  0.562500   0.875000 0
  0.781250   0.750000 0
  0.781250   0.781250 0
  0.593750   0.531250 0
  1.000000   0.687500 0
  0.531250   0.843750 0
  0.718750   0.718750 0
  0.781250   0.718750 0
  0.781250   0.687500 0
  1.000000   0.656250 0
  0.968750   0.656250 0
  0.843750   0.843750 0
  0.781250   1.000000 0
  0.656250   0.312500 0
  0.531250   0.250000 0
  0.875000   0.500000 0
  0.531250   0.218750 0
  0.875000   0.468750 0
  0.531250   0.156250 0
  0.593750   0.812500 0
  0.093750   0.562500 0
  0.656250   0.562500 0
  0.156250   0.312500 0
  0.031250   0.812500 0
  0.125000   1.000000 0
  0.312500   0.250000 0
  0.250000   0.500000 0
  0.375000   0.000000 0
  0.187500   0.750000 0
  0.812500   0.906250 0
  0.312500   0.656250 0
  0.250000   0.906250 0
  0.875000   0.656250 0
  0.375000   0.406250 0
  0.750000   0.843750 0
  0.250000   0.593750 0
  0.187500   0.843750 0
  0.812500   0.593750 0
  0.312500   0.343750 0
  0.625000   0.968750 0
  0.125000   0.718750 0
  0.687500   0.718750 0
  0.187500   0.468750 0
  0.062500   0.968750 0
  0.125000   0.656250 0
  0.187500   0.406250 0
  0.250000   0.156250 0
  0.062500   0.906250 0
  0.468750   0.906250 0
  0.656250   0.156250 0
  0.468750   0.812500 0
  0.593750   0.312500 0
  0.656250   0.062500 0
  0.625000   0.812500 0
  0.125000   0.562500 0
  0.687500   0.562500 0
  0.187500   0.312500 0
  0.062500   0.812500 0
  0.562500   0.937500 0
  0.062500   0.687500 0
  0.625000   0.687500 0
  0.125000   0.437500 0
  0.000000   0.937500 0
  0.062500   0.625000 0
  0.187500   0.125000 0
  0.125000   0.375000 0
  0.000000   0.875000 0
  0.406250   0.875000 0
  0.468750   0.625000 0
  0.593750   0.125000 0
  0.812500   0.937500 0
  0.312500   0.687500 0
  0.250000   0.937500 0
  0.875000   0.687500 0
  0.375000   0.437500 0
  0.750000   0.875000 0
  0.250000   0.625000 0
  0.187500   0.875000 0
  0.812500   0.625000 0
  0.312500   0.375000 0
  0.468750   0.781250 0
  0.593750   0.281250 0
  0.656250   0.031250 0
  0.625000   0.781250 0
  0.125000   0.531250 0
  0.062500   0.781250 0
  0.687500   0.531250 0
  0.187500   0.281250 0
  0.500000   0.812500 0
  0.687500   0.062500 0
  0.625000   0.312500 0
  0.656250   0.812500 0
  0.156250   0.562500 0
  0.718750   0.562500 0
  0.218750   0.312500 0
  0.093750   0.812500 0
  0.437500   0.968750 0
  0.625000   0.218750 0
  0.500000   0.781250 0
  0.687500   0.031250 0
  0.625000   0.281250 0
  0.656250   0.781250 0
  0.156250   0.531250 0
  0.718750   0.531250 0
  0.218750   0.281250 0
  0.093750   0.781250 0
  0.062500   0.562500 0
  0.125000   0.312500 0
  0.187500   0.062500 0
  0.000000   0.812500 0
  0.406250   0.812500 0
  0.968750   0.812500 0
  0.468750   0.562500 0
  0.593750   0.062500 0
  0.218750   0.687500 0
  0.156250   0.937500 0
  0.281250   0.437500 0
  0.062500   0.843750 0
  0.687500   0.593750 0
  0.187500   0.343750 0
  0.625000   0.843750 0
  0.125000   0.593750 0
  0.312500   0.843750 0
  0.437500   0.343750 0
  0.500000   0.093750 0
  0.375000   0.593750 0
  0.312500   0.906250 0
  0.937500   0.656250 0
  0.437500   0.406250 0
  0.875000   0.906250 0
  0.375000   0.656250 0
  0.062500   0.875000 0
  0.187500   0.375000 0
  0.250000   0.125000 0
  0.125000   0.625000 0
  0.093750   0.656250 0
  0.031250   0.906250 0
  0.218750   0.156250 0
  0.156250   0.406250 0
  0.593750   0.968750 0
  0.093750   0.718750 0
  0.031250   0.968750 0
  0.656250   0.718750 0
  0.156250   0.468750 0
  0.437500   0.906250 0
  0.625000   0.156250 0
  0.718750   0.812500 0
  0.218750   0.562500 0
  0.781250   0.562500 0
  0.281250   0.312500 0
  0.156250   0.812500 0
  0.062500   0.656250 0
  0.000000   0.906250 0
  0.187500   0.156250 0
  0.125000   0.406250 0
  0.562500   0.968750 0
  0.062500   0.718750 0
  0.000000   0.968750 0
  0.625000   0.718750 0
  0.125000   0.468750 0
  0.406250   0.968750 0
  0.968750   0.968750 0
  0.468750   0.718750 0
  0.531250   0.468750 0
  0.593750   0.218750 0
  0.406250   0.906250 0
  0.468750   0.656250 0
  0.593750   0.156250 0
  0.687500   0.781250 0
  0.187500   0.531250 0
  0.750000   0.531250 0
  0.250000   0.281250 0
  0.125000   0.781250 0
  0.781250   0.906250 0
  0.281250   0.656250 0
  0.218750   0.906250 0
  0.843750   0.656250 0
  0.343750   0.406250 0
  0.750000   0.906250 0
  0.250000   0.656250 0
  0.187500   0.906250 0
  0.812500   0.656250 0
  0.312500   0.406250 0
  0.875000   0.406250 0
  0.375000   0.156250 0
  0.812500   0.968750 0
  0.312500   0.718750 0
  0.250000   0.968750 0
  0.875000   0.718750 0
  0.375000   0.468750 0
  0.781250   0.937500 0
  0.281250   0.687500 0
  0.218750   0.937500 0
  0.843750   0.687500 0
  0.343750   0.437500 0
  0.718750   0.875000 0
  0.218750   0.625000 0
  0.156250   0.875000 0
  0.781250   0.625000 0
  0.281250   0.375000 0
  0.750000   0.937500 0
  0.250000   0.687500 0
  0.187500   0.937500 0
  0.875000   0.437500 0
  0.375000   0.187500 0
  0.812500   0.687500 0
  0.312500   0.437500 0
  0.687500   0.875000 0
  0.187500   0.625000 0
  0.750000   0.625000 0
  0.250000   0.375000 0
  0.125000   0.875000 0
  0.812500   1.000000 0
  0.312500   0.750000 0
  0.250000   1.000000 0
  0.875000   0.750000 0
  0.375000   0.500000 0
  0.562500   1.000000 0
  0.062500   0.750000 0
  0.000000   1.000000 0
  0.625000   0.750000 0
  0.125000   0.500000 0
  0.406250   1.000000 0
  0.968750   1.000000 0
  0.468750   0.750000 0
  0.656250   0.000000 0
  0.531250   0.500000 0
  0.593750   0.250000 0
  0.406250   0.937500 0
  0.468750   0.687500 0
  0.593750   0.187500 0
  0.687500   0.812500 0
  0.187500   0.562500 0
  0.750000   0.562500 0
  0.250000   0.312500 0
  0.125000   0.812500 0
  0.437500   0.843750 0
  0.625000   0.093750 0
  0.093750   0.593750 0
  0.156250   0.343750 0
  0.218750   0.093750 0
  0.031250   0.843750 0
  0.281250   0.937500 0
  0.843750   0.937500 0
  0.343750   0.687500 0
  0.906250   0.687500 0
  0.406250   0.437500 0
  0.156250   0.968750 0
  0.218750   0.718750 0
  0.281250   0.468750 0
  0.343750   0.218750 0
  0.156250   1.000000 0
  0.406250   0.000000 0
  0.281250   0.500000 0
  0.343750   0.250000 0
  0.218750   0.750000 0
  0.187500   0.968750 0
  0.250000   0.718750 0
  0.375000   0.218750 0
  0.312500   0.468750 0
  0.187500   1.000000 0
  0.312500   0.500000 0
  0.375000   0.250000 0
  0.437500   0.000000 0
  0.250000   0.750000 0
  0.031250   0.781250 0
  0.656250   0.531250 0
  0.156250   0.281250 0
  0.593750   0.781250 0
  0.093750   0.531250 0
  0.000000   0.781250 0
  0.625000   0.531250 0
  0.125000   0.281250 0
  0.562500   0.781250 0
  0.062500   0.531250 0
  0.781250   0.968750 0
  0.281250   0.718750 0
  0.218750   0.968750 0
  0.843750   0.718750 0
  0.343750   0.468750 0
  0.281250   0.968750 0
  0.843750   0.968750 0
  0.343750   0.718750 0
  0.906250   0.718750 0
  0.406250   0.468750 0
  0.281250   1.000000 0
  0.906250   0.750000 0
  0.406250   0.500000 0
  0.843750   1.000000 0
  0.343750   0.750000 0
  0.531250   0.000000 0
  0.718750   0.843750 0
  0.218750   0.593750 0
  0.156250   0.843750 0
  0.781250   0.593750 0
  0.281250   0.343750 0
  0.687500   0.843750 0
  0.187500   0.593750 0
  0.750000   0.593750 0
  0.250000   0.343750 0
  0.125000   0.843750 0
  0.218750   0.875000 0
  0.843750   0.625000 0
  0.343750   0.375000 0
  0.781250   0.875000 0
  0.281250   0.625000 0
  0.156250   0.906250 0
  0.781250   0.656250 0
  0.281250   0.406250 0
  0.718750   0.906250 0
  0.218750   0.656250 0
  0.031250   1.000000 0
  0.656250   0.750000 0
  0.156250   0.500000 0
  0.593750   1.000000 0
  0.093750   0.750000 0
  0.218750   1.000000 0
  0.343750   0.500000 0
  0.468750   0.000000 0
  0.406250   0.250000 0
  0.281250   0.750000 0
  0.593750   0.406250 0
  0.093750   0.156250 0
  0.531250   0.656250 0
  0.031250   0.406250 0
[...]
CELL_DATA 1024
SCALARS scalar_value float 1
LOOKUP_TABLE default
3.85267
3.73989
4.27423
1.52186
1.91345
2.24128
0.891247
0.382969
0.488977
0.670164
0.767045
1.34612
0.56917
1.07807
0.431946
0.345586
0.760548
0.497403
0.663184
2.02416
1.14904
2.82593
1.44969
2.73587
11.202
6.73684
7.41996
10.4841
2.30391
0.977843
40.474
39.5298
16.6436
19.3612
4.65365
3.94781
0.598167
2.38631
2.80595
1.23505
9.83723
9.30437
5.36622
7.75057
7.71242
3.6691
1.52405
8.08649
2.76764
2.63885
7.46153
10.7477
3.55409
1.29002
3.12727
1.25032
2.20033
6.87645
7.42395
14.3214
4.22773
2.67522
6.42372
2.72291
1.49812
5.70249
10.5013
2.18398
10.8194
5.50171
0.701069
1.08989
17.0879
10.8786
4.99715
2.63924
0.654183
0.979661
2.74759
23.1604
6.53348
8.81753
4.47426
7.16668
3.39686
2.2818
4.58116
7.7712
7.1585
1.35841
2.19469
10.1488
13.0968
2.61472
4.91337
5.8204
13.2704
5.30726
5.62575
8.50133
1.27783
1.96239
4.48654
7.05451
3.86538
1.71938
1.26782
1.24744
0.759965
14.5201
5.338
6.6225
0.467899
4.7561
0.802769
0.908563
2.61921
18.1752
11.3477
16.902
2.6581
1.77218
0.471792
3.36432
4.05449
6.37976
1.58607
8.30689
5.37792
6.19897
2.12404
1.32384
12.1007
8.223
6.25562
3.17011
3.15663
1.98324
4.66357
2.22377
0.655866
23.4223
2.60451
7.65407
3.84569
4.83858
3.25555
27.7453
18.7402
4.32326
4.95404
4.88465
1.06612
5.75003
2.40271
2.24721
0.258635
6.71411
13.7734
9.33112
1.71649
4.45054
5.5007
2.88188
0.43758
20.1347
2.33897
4.91601
5.00035
10.4611
1.16584
4.71044
4.23425
3.1417
3.71072
2.81148
3.71162
3.73686
11.8303
7.6846
10.9529
1.18741
3.15242
4.89518
8.04673
4.85126
3.59937
5.97112
6.23176
9.70795
6.90997
1.76479
3.11561
6.68478
11.7749
4.36399
4.03037
2.63532
2.40941
8.3333
2.37431
1.79584
4.97386
3.43383
7.7684
0.340468
3.7455
3.10847
2.69156
0.379557
6.80119
2.49585
2.76288
0.828264
7.03961
0.378113
4.04811
4.72206
4.27801
9.07626
4.63973
1.17446
2.85771
2.05927
13.0168
1.76733
1.16267
0.83136
1.71666
3.16994
1.43538
1.5595
1.6355
2.56821
1.51197
1.24864
1.50912
1.50048
0.967765
4.19487
1.68853
0.674083
3.19386
2.72917
1.13316
2.27725
0.281661
8.86566
0.281886
8.95598
11.8461
12.5933
27.7232
34.461
40.4387
36.6644
2.48631
2.55327
4.12329
4.81655
5.19922
3.91559
3.7018
2.38781
2.47655
7.92958
6.36364
6.12866
7.25183
3.15561
4.63419
8.13102
6.47549
6.31643
4.79208
3.95733
4.10741
3.11674
3.0148
3.78338
5.30416
4.3346
1.42445
1.77304
0.361285
7.24848
3.2295
3.73505
1.78508
8.50111
2.66806
5.79927
3.97709
6.46739
5.63236
7.91607
3.55555
3.70635
2.82722
0.543141
3.32396
5.01767
0.835432
1.81387
5.98839
0.467339
4.06824
1.05646
4.51992
2.57878
3.26009
2.41049
0.611123
5.92862
2.32242
0.995617
5.25742
3.27819
6.63515
4.49138
3.66151
1.80611
1.94009
3.39576
3.21025
1.9413
3.82058
2.85911
2.87064
1.40075
2.07578
3.49825
3.30333
1.86875
1.81036
4.03466
1.35376
2.38667
0.859893
3.68911
6.20951
1.34134
1.75548
1.56766
5.19524
11.6476
7.0741
1.26883
3.14596
1.22272
3.81271
2.88306
6.30398
0.612897
3.79696
1.75683
2.50896
1.72026
2.90456
0.317758
2.4029
2.32266
2.59536
3.28874
7.36636
12.8566
1.34036
2.54613
6.32365
5.32686
5.01486
5.34762
0.853548
2.86891
1.73663
1.63073
1.07061
3.34132
2.17357
3.32317
4.02201
1.49048
2.07232
0.53375
0.324397
0.296933
2.18089
1.92087
3.38044
2.57622
2.34506
0.791694
4.86828
1.84364
4.63661
9.23679
1.43465
0.372584
0.514814
1.73052
4.03274
9.01663
1.93187
0.781735
0.330052
2.02139
4.26659
5.77214
4.49446
3.03914
1.31633
0.612411
3.8548
3.15082
1.95173
2.41614
4.05421
3.45878
3.25189
3.89763
2.6739
2.21654
1.70103
1.05375
1.33539
1.33927
11.5505
10.8712
3.35381
8.39575
6.2533
12.6716
4.16613
3.05994
0.808372
16.6579
4.08691
10.1161
11.0439
1.63373
6.5372
5.86783
1.49898
7.46155
7.88162
5.09028
4.58276
1.09131
2.25228
5.07688
6.6769
0.770848
2.34942
5.83736
0.796881
3.00068
2.24911
3.68606
1.44802
2.71684
4.1502
5.45314
3.42181
4.00398
3.67157
3.5968
3.94075
5.32789
2.29311
0.760344
2.43042
0.965933
0.477743
1.97719
2.92262
3.21176
6.08066
11.8057
4.33507
3.10544
2.22147
2.24021
1.9834
1.03014
2.38651
1.62272
1.18156
1.80258
0.937387
2.37226
2.78766
2.43304
2.04008
1.13421
1.40924
0.981245
0.939857
1.0991
0.602733
0.442768
1.54504
0.642382
0.624102
1.43104
1.57753
1.6767
0.303669
0.433443
2.40384
2.80825
2.53962
1.55985
1.89519
3.83765
2.73447
2.08501
2.19545
1.79971
0.973245
1.00443
1.84241
1.23046
1.72483
1.5365
1.73097
1.15608
8.02321
5.40663
5.88145
7.87541
3.35405
2.26061
2.19311
3.50919
3.7266
2.80968
3.72116
0.563116
0.769727
0.49899
0.377194
1.3787
1.06357
1.59616
2.48902
1.9746
1.06582
2.19167
1.80154
1.15686
2.16387
1.03909
2.75226
1.14753
3.08382
2.01937
3.00739
1.87557
2.92109
1.58991
3.06773
1.18117
2.69148
1.14551
2.31784
2.20885
0.56377
1.59405
1.21035
3.30023
4.31602
3.05478
1.7592
1.81324
3.78887
2.55603
2.4444
1.33058
1.22104
0.990794
2.27736
3.46734
1.31281
0.767352
2.91466
1.37057
1.25474
1.05307
0.748506
2.4737
2.38595
1.50215
1.77602
1.23331
1.02545
0.898321
0.982349
0.524959
0.800326
3.3499
3.82741
1.68995
3.2327
6.4685
2.5854
4.11098
3.46289
2.27863
2.18165
1.87722
3.57848
1.15675
1.06648
0.925561
2.95225
1.0157
0.789787
1.71855
0.706501
0.596558
3.28647
4.37772
2.44642
5.0981
3.06485
4.65539
2.78636
1.68295
2.37239
1.03656
1.08029
0.540583
4.25588
1.71817
1.27838
1.76902
1.82519
2.34639
3.74088
3.70884
4.37043
3.21323
2.83024
1.59919
0.435256
3.19047
1.64142
1.38122
1.48168
2.11074
1.40171
2.69344
3.03883
2.35621
1.63857
2.07054
3.13088
3.16179
1.64629
2.08374
2.57988
1.89071
1.36266
1.63411
1.60624
4.3936
3.43255
0.523266
0.902814
0.746701
0.578931
0.736482
0.803815
0.598087
1.13846
0.779268
0.754513
0.67771
6.87796
2.09791
4.05903
2.1323
4.36152
2.97145
4.72898
1.06677
1.25481
1.39618
7.32078
0.96657
1.1446
0.595697
1.1908
10.0028
0.89699
0.487982
1.27385
7.46281
1.66693
1.18268
0.891318
1.72566
5.31086
3.13962
2.63566
1.35221
2.87638
1.49079
2.28727
1.20707
1.11366
3.20608
1.82736
1.22624
1.64729
1.97511
2.56768
2.90863
4.13841
4.49742
4.86752
4.79267
3.87988
3.87287
4.92654
4.67411
3.4673
2.31639
2.6334
2.55557
1.19036
3.12916
4.39873
3.61499
1.81913
2.44957
4.19607
2.64866
2.23295
3.83913
2.29366
0.600518
1.89894
1.44435
1.32802
1.17625
1.26136
1.28305
1.58084
1.24162
1.94577
0.539153
2.11293
0.804981
1.60968
1.05514
0.780885
0.917826
0.581587
3.65138
3.00456
2.62665
2.95287
0.480775
0.550256
1.51794
0.61913
0.660547
2.46704
0.940596
0.811718
0.508761
0.420499
0.828305
0.48752
0.291578
0.399457
0.789555
0.833183
0.495143
1.1327
0.881359
1.03456
1.27334
0.435513
0.421557
0.429905
0.391086
1.57265
0.513421
0.600589
1.19749
1.24339
1.89286
1.30859
3.51901
0.481256
0.779527
1.41769
1.01816
1.0622
2.12624
1.06609
1.82084
1.22613
0.329941
0.830078
0.993816
2.5111
1.69828
0.633448
0.723197
1.65436
1.69997
1.12262
1.87267
1.77031
1.65385
1.76886
0.859689
2.68437
0.583128
0.779347
24.9942
2.5713
0.343358
0.981195
21.2025
1.54778
0.770586
0.406079
1.0729
0.731134
1.1339
1.85783
1.86291
1.15156
1.99933
2.60024
0.429173
1.29383
1.8176
2.71394
1.02237
1.19303
1.32112
1.66547
1.52131
1.53882
0.671493
1.79228
1.76826
1.68291
0.7541
1.36397
1.67717
1.2922
3.26092
1.0343
1.45676
4.956
0.974133
2.59749
0.281141
0.965536
2.99129
1.39864
2.84765
11.7799
0.793357
3.15203
0.446984
1.27313
2.58768
3.63872
5.0142
1.54088
19.5175
5.61687
0.693227
1.34586
0.92279
1.00191
5.36026
1.32621
0.270489
3.85102
2.52681
0.926528
1.0224
1.43567
0.74439
6.26583
0.572302
6.10802
3.47689
1.59221
2.13539
2.23996
2.34941
1.11082
1.41293
0.678759
0.202568
9.60419
0.59177
1.36414
1.2716
5.3444
1.33597
6.86882
0.363385
6.9594
1.76429
1.69397
2.95084
4.62457
1.9736
1.07704
11.5234
9.07118
1.01111
1.42293
1.06968
1.46186
1.66245
2.05104
0.903725
9.63036
1.4414
3.21003
0.177606
0.240767
0.350615
0.199942
3.10227
1.72696
2.08409
2.02707
2.67743
3.72545
3.31469
2.62012
0.523355
0.263514
10.9397
0.979017
0.444395
0.260555
7.37263
1.14304
0.923482
0.642382
2.99436
0.193369
0.282355
6.74135
0.179396
0.201808
10.5015
0.181735
0.154508
5.31881
1.94552
0.758983
1.83535
2.98423
2.81748
4.18289
1.37904
0.77993
3.04091
2.51606
0.564646
2.00567
2.90007
1.33971
2.13678
1.80856
2.48283
2.69899
1.10039
2.05515
4.05028
1.88111
1.91805
10.8898
0.833787
0.72755
21.8964
0.622986
19.6575
0.351457
8.29302
0.204698
0.447245
2.69592
2.01198
0.378274
1.18417
0.357893
0.601283
0.883364
1.12164
0.694994
1.43466
4.09293
0.487643
19.5595
0.732147
1.16932
1.08146
0.92285
1.23253
0.41199
12.2838
3.14651
2.53579
1.37738
4.29932
1.24047
12.4689
4.53049
1.01878
