# vtk DataFile Version 2.0
Unstructured Grid by M++
ASCII
DATASET UNSTRUCTURED_GRID
POINTS 4225 float
  0.921875   0.593750 0
  0.921875   0.609375 0
  0.656250   0.609375 0
  0.671875   0.609375 0
  0.656250   0.546875 0
  0.671875   0.546875 0
  0.656250   0.562500 0
  0.656250   0.578125 0
  0.656250   0.593750 0
  0.671875   0.593750 0
  0.671875   0.562500 0
  0.671875   0.578125 0
  0.671875   0.625000 0
  0.671875   0.640625 0
  0.906250   0.578125 0
  0.890625   0.578125 0
  0.546875   0.515625 0
  1.000000   0.890625 0
  0.515625   0.640625 0
  0.515625   0.625000 0
  1.000000   0.875000 0
  0.515625   0.656250 0
  0.515625   0.687500 0
  0.515625   0.671875 0
  1.000000   0.921875 0
  0.546875   0.531250 0
  0.546875   0.546875 0
  0.546875   0.562500 0
  0.796875   0.531250 0
  0.953125   0.890625 0
  0.953125   0.875000 0
  0.953125   0.843750 0
  0.953125   0.828125 0
  0.953125   0.812500 0
  0.531250   0.562500 0
  0.531250   0.546875 0
  0.515625   0.562500 0
  0.515625   0.546875 0
  1.000000   0.812500 0
  0.781250   0.546875 0
  0.765625   0.546875 0
  0.859375   0.921875 0
  0.921875   0.671875 0
  0.609375   0.906250 0
  0.671875   0.656250 0
  0.609375   0.921875 0
  0.671875   0.671875 0
  0.671875   0.984375 0
  0.671875   1.000000 0
  0.906250   0.984375 0
  0.906250   1.000000 0
  0.921875   0.984375 0
  0.921875   1.000000 0
  0.859375   0.609375 0
  1.000000   0.781250 0
  0.515625   0.531250 0
  0.531250   0.531250 0
  0.531250   0.515625 0
  0.515625   0.515625 0
  1.000000   0.750000 0
  0.765625   0.531250 0
  0.781250   0.531250 0
  0.781250   0.515625 0
  0.765625   0.515625 0
  0.859375   0.875000 0
  0.921875   0.625000 0
  0.859375   0.890625 0
  0.921875   0.640625 0
  0.671875   0.968750 0
  0.671875   0.953125 0
  0.921875   0.968750 0
  0.921875   0.953125 0
  0.859375   0.593750 0
  0.859375   0.578125 0
  0.875000   0.578125 0
  0.828125   0.890625 0
  0.890625   0.640625 0
  0.593750   0.890625 0
  0.656250   0.640625 0
  0.593750   0.875000 0
  0.656250   0.625000 0
  0.578125   0.890625 0
  0.640625   0.640625 0
  0.578125   0.875000 0
  0.640625   0.625000 0
  0.968750   0.890625 0
  0.984375   0.890625 0
  0.968750   0.812500 0
  0.968750   0.828125 0
  0.984375   0.812500 0
  0.984375   0.828125 0
  1.000000   0.828125 0
  0.656250   0.953125 0
  0.640625   0.953125 0
  0.890625   0.968750 0
  0.906250   0.968750 0
  0.906250   0.953125 0
  0.890625   0.953125 0
  0.531250   0.703125 0
  0.531250   0.718750 0
  0.546875   0.718750 0
  0.546875   0.703125 0
  0.593750   0.578125 0
  0.562500   0.578125 0
  0.578125   0.578125 0
  0.843750   0.578125 0
  0.828125   0.578125 0
  0.828125   0.812500 0
  0.890625   0.562500 0
  0.828125   0.796875 0
  0.953125   0.906250 0
  0.953125   0.921875 0
  0.531250   0.859375 0
  0.593750   0.609375 0
  0.531250   0.843750 0
  0.593750   0.593750 0
  0.515625   0.843750 0
  0.578125   0.593750 0
  0.515625   0.859375 0
  0.578125   0.609375 0
  0.937500   0.859375 0
  1.000000   0.609375 0
  0.921875   0.859375 0
  0.984375   0.609375 0
  0.937500   0.796875 0
  0.921875   0.796875 0
  0.984375   0.546875 0
  0.562500   0.812500 0
  0.843750   0.796875 0
  0.843750   0.812500 0
  0.859375   0.796875 0
  0.859375   0.812500 0
  1.000000   0.906250 0
  0.984375   0.906250 0
  0.968750   0.906250 0
  0.968750   0.921875 0
  0.984375   0.921875 0
  0.593750   0.921875 0
  0.656250   0.671875 0
  0.593750   0.906250 0
  0.656250   0.656250 0
  0.578125   0.906250 0
  0.640625   0.656250 0
  0.578125   0.921875 0
  0.640625   0.671875 0
  1.000000   0.843750 0
  0.984375   0.843750 0
  0.968750   0.843750 0
  0.968750   0.859375 0
  0.968750   0.875000 0
  1.000000   0.859375 0
  0.984375   0.859375 0
  0.984375   0.875000 0
  0.656250   1.000000 0
  0.656250   0.984375 0
  0.656250   0.968750 0
  0.640625   0.968750 0
  0.640625   1.000000 0
  0.640625   0.984375 0
  0.843750   0.921875 0
  0.906250   0.671875 0
  0.843750   0.906250 0
  0.906250   0.656250 0
  0.828125   0.906250 0
  0.890625   0.656250 0
  0.828125   0.921875 0
  0.890625   0.671875 0
  0.781250   0.859375 0
  0.843750   0.609375 0
  0.781250   0.843750 0
  0.843750   0.593750 0
  0.765625   0.843750 0
  0.828125   0.593750 0
  0.765625   0.859375 0
  0.828125   0.609375 0
  0.968750   0.609375 0
  0.906250   0.859375 0
  0.953125   0.609375 0
  0.890625   0.859375 0
  0.937500   0.609375 0
  0.875000   0.859375 0
  0.562500   0.593750 0
  0.546875   0.593750 0
  0.531250   0.593750 0
  0.531250   0.609375 0
  0.562500   0.609375 0
  0.546875   0.609375 0
  0.609375   0.625000 0
  0.546875   0.875000 0
  0.609375   0.640625 0
  0.546875   0.890625 0
  0.625000   0.640625 0
  0.562500   0.890625 0
  0.625000   0.625000 0
  0.562500   0.875000 0
  0.921875   0.843750 0
  0.984375   0.593750 0
  0.937500   0.843750 0
  1.000000   0.593750 0
  0.921875   0.812500 0
  0.921875   0.828125 0
  0.984375   0.578125 0
  0.937500   0.828125 0
  1.000000   0.578125 0
  0.937500   0.812500 0
  1.000000   0.562500 0
  0.578125   0.828125 0
  0.921875   0.781250 0
  0.937500   0.781250 0
  1.000000   0.531250 0
  0.921875   0.765625 0
  0.984375   0.515625 0
  0.937500   0.765625 0
  0.625000   0.656250 0
  0.562500   0.906250 0
  0.609375   0.656250 0
  0.546875   0.906250 0
  0.625000   0.671875 0
  0.562500   0.921875 0
  0.609375   0.671875 0
  0.546875   0.921875 0
  0.859375   0.781250 0
  0.859375   0.765625 0
  0.828125   0.671875 0
  0.765625   0.921875 0
  0.828125   0.734375 0
  0.765625   0.984375 0
  0.875000   0.843750 0
  0.937500   0.593750 0
  0.890625   0.843750 0
  0.953125   0.593750 0
  0.906250   0.843750 0
  0.968750   0.593750 0
  0.906250   0.828125 0
  0.968750   0.578125 0
  0.937500   0.578125 0
  0.953125   0.578125 0
  0.906250   0.765625 0
  0.875000   0.765625 0
  0.953125   0.515625 0
  0.531250   0.781250 0
  0.671875   0.890625 0
  0.531250   0.921875 0
  0.953125   0.656250 0
  0.828125   0.781250 0
  0.843750   0.781250 0
  0.703125   0.984375 0
  0.687500   0.984375 0
  0.843750   0.875000 0
  0.906250   0.625000 0
  0.671875   0.781250 0
  0.734375   0.531250 0
  0.906250   0.609375 0
  0.671875   0.765625 0
  0.734375   0.515625 0
  0.906250   0.593750 0
  0.890625   0.593750 0
  0.875000   0.593750 0
  0.828125   0.875000 0
  0.890625   0.625000 0
  0.656250   0.781250 0
  0.718750   0.531250 0
  0.890625   0.609375 0
  0.656250   0.765625 0
  0.718750   0.515625 0
  0.875000   0.609375 0
  0.640625   0.765625 0
  0.703125   0.515625 0
  0.812500   0.921875 0
  0.875000   0.671875 0
  0.812500   0.875000 0
  0.875000   0.625000 0
  0.640625   0.781250 0
  0.703125   0.531250 0
  0.812500   0.515625 0
  0.750000   0.828125 0
  0.812500   0.578125 0
  0.687500   1.000000 0
  0.937500   0.656250 0
  0.875000   0.906250 0
  0.531250   0.656250 0
  0.890625   0.906250 0
  0.906250   0.906250 0
  0.562500   0.656250 0
  0.906250   0.890625 0
  0.562500   0.640625 0
  0.968750   0.625000 0
  0.906250   0.875000 0
  0.562500   0.625000 0
  0.937500   0.640625 0
  0.875000   0.890625 0
  0.890625   0.890625 0
  0.546875   0.640625 0
  0.953125   0.625000 0
  0.890625   0.875000 0
  0.546875   0.625000 0
  0.546875   0.687500 0
  0.890625   0.937500 0
  0.937500   0.625000 0
  0.875000   0.875000 0
  0.531250   0.625000 0
  0.531250   0.640625 0
  0.546875   0.656250 0
  0.937500   0.968750 0
  0.687500   0.968750 0
  0.953125   0.968750 0
  0.703125   0.968750 0
  0.968750   0.968750 0
  0.718750   0.968750 0
  0.718750   0.906250 0
  0.968750   0.953125 0
  0.718750   0.953125 0
  0.968750   0.937500 0
  0.859375   0.906250 0
  0.921875   0.656250 0
  0.718750   0.937500 0
  0.828125   0.531250 0
  0.937500   0.953125 0
  0.687500   0.953125 0
  0.953125   0.953125 0
  0.703125   0.953125 0
  0.703125   0.890625 0
  0.843750   0.515625 0
  0.953125   0.937500 0
  0.953125   1.000000 0
  0.703125   0.937500 0
  0.937500   0.937500 0
  0.687500   0.937500 0
  0.703125   0.906250 0
  0.718750   0.890625 0
  0.687500   0.890625 0
  0.687500   0.765625 0
  0.750000   0.515625 0
  0.687500   0.781250 0
  0.750000   0.531250 0
  0.859375   0.937500 0
  0.921875   0.687500 0
  0.687500   0.796875 0
  0.750000   0.546875 0
  0.578125   0.750000 0
  0.515625   1.000000 0
  0.843750   0.765625 0
  0.578125   0.734375 0
  0.515625   0.984375 0
  0.562500   0.734375 0
  0.828125   0.750000 0
  0.765625   1.000000 0
  0.562500   0.750000 0
  0.562500   0.718750 0
  0.578125   0.515625 0
  0.921875   0.703125 0
  0.921875   0.718750 0
  0.593750   0.515625 0
  0.687500   0.875000 0
  0.750000   0.625000 0
  0.578125   0.531250 0
  0.921875   0.750000 0
  0.703125   0.875000 0
  0.765625   0.625000 0
  0.593750   0.531250 0
  0.875000   0.968750 0
  0.937500   0.718750 0
  0.703125   0.828125 0
  0.765625   0.578125 0
  0.937500   0.734375 0
  0.703125   0.812500 0
  0.765625   0.562500 0
  0.890625   0.687500 0
  0.828125   0.937500 0
  0.656250   0.796875 0
  0.718750   0.546875 0
  0.890625   0.718750 0
  0.828125   0.968750 0
  0.906250   0.796875 0
  0.718750   0.828125 0
  0.781250   0.578125 0
  0.890625   0.703125 0
  0.828125   0.953125 0
  0.656250   0.859375 0
  0.906250   0.781250 0
  0.968750   0.531250 0
  0.546875   0.796875 0
  0.671875   0.796875 0
  0.734375   0.546875 0
  0.843750   0.953125 0
  0.906250   0.703125 0
  0.671875   0.875000 0
  0.718750   0.812500 0
  0.781250   0.562500 0
  0.875000   0.812500 0
  0.531250   0.890625 0
  0.593750   0.640625 0
  0.937500   0.890625 0
  0.875000   0.781250 0
  0.609375   0.703125 0
  0.546875   0.953125 0
  0.890625   0.796875 0
  0.625000   0.718750 0
  0.562500   0.968750 0
  0.906250   0.812500 0
  0.734375   0.859375 0
  0.796875   0.609375 0
  0.718750   0.875000 0
  0.781250   0.625000 0
  0.750000   0.859375 0
  0.812500   0.609375 0
  0.812500   0.546875 0
  0.750000   0.812500 0
  0.734375   0.843750 0
  0.796875   0.593750 0
  0.750000   0.843750 0
  0.812500   0.593750 0
[...]
CELL_DATA 4096
SCALARS scalar_value float 1
LOOKUP_TABLE default
1.84546
1.63108
1.29606
1.64234
3.12559
2.16136
2.37718
3.16278
2.05045
2.15513
2.79051
2.48204
1.15794
1.6211
1.56724
1.34639
1.24521
0.999083
0.995785
1.19478
0.96657
1.05143
1.28258
1.38822
0.594359
0.861914
0.807222
0.647356
5.32187
5.33789
8.00828
6.72917
0.956728
0.972107
0.779422
0.73495
6.26731
4.86723
3.30116
4.3676
1.05378
1.63149
1.79101
1.28796
0.2685
0.193014
0.17163
0.241246
2.18143
2.2555
2.54904
2.3694
0.453241
0.474342
0.706072
0.587291
2.19655
2.01091
2.87573
2.77559
0.653008
0.685185
0.889861
0.826019
1.09321
0.954283
1.00926
1.15385
0.236593
0.195615
0.18094
0.239145
2.82283
2.30569
2.42085
3.08737
0.365416
0.529683
0.48235
0.346212
2.04684
1.73088
1.80476
2.20793
0.78922
0.661094
0.686738
0.973719
2.51168
2.30953
3.26981
3.15959
0.419622
0.510442
0.347187
0.339583
0.56817
0.613998
0.63784
0.593354
1.43175
1.48697
1.02972
1.20132
1.54375
1.65392
1.61735
1.21922
0.93422
0.622844
0.616515
0.949925
1.23001
1.64506
1.55242
1.18094
0.767142
0.863147
0.716128
0.675112
2.19245
2.20951
2.12505
2.13529
4.11098
4.1039
3.85434
4.47807
2.15649
2.27844
2.27753
2.31685
0.857951
0.727953
0.856689
0.980724
0.18563
0.205686
0.259562
0.266437
9.0543
8.67355
10.8232
10.9101
3.8789
4.65366
3.39043
2.97903
8.05873
8.08902
7.25832
6.05706
9.09542
7.84616
8.40557
9.96169
0.774756
1.03174
1.09804
0.918605
2.02143
2.23118
2.2937
2.12013
0.536833
0.711327
0.664692
0.542186
2.36404
2.20962
2.69693
2.95099
6.23248
7.707
8.01457
6.21685
8.25165
7.85181
9.78308
9.07663
0.901127
0.775998
0.581722
0.65906
3.95044
3.29095
2.68378
3.42114
7.58048
7.45651
6.60971
7.04393
7.6504
6.35182
6.22927
5.95069
1.58047
1.22998
1.22463
1.60936
2.36767
9.26533
1.16343
0.918211
1.75983
0.17029
1.3103
1.26233
1.06002
1.33542
1.11477
3.43598
2.34716
3.25839
1.60803
6.22918
2.60111
5.61944
2.67784
6.1078
2.68147
6.61519
2.64482
0.967902
1.39867
1.14455
0.988164
1.26003
1.2277
2.2303
1.39925
1.14883
1.92958
2.9135
2.48961
2.09017
2.43944
2.77025
2.02934
7.10673
1.74973
8.00232
1.58042
4.23902
1.42774
3.55923
3.86908
0.805795
5.77308
0.554646
1.49748
0.558295
0.534296
1.31914
0.419254
1.80683
0.434033
0.779164
1.81799
0.597083
2.12703
3.54189
2.05605
3.90258
1.51974
2.88612
1.04985
0.954161
1.01546
1.03719
0.990351
1.64706
2.6884
1.90559
3.05456
1.7441
4.08024
1.9099
3.1329
2.7237
8.35501
2.62098
8.54147
1.54684
3.68872
2.67223
7.27646
2.72242
7.24202
0.862061
1.62972
0.204933
2.0425
6.93054
1.70044
10.2525
1.65327
7.18361
1.15161
0.771935
7.62597
1.38577
8.85204
1.58965
8.92717
1.23671
8.7307
1.30463
1.31857
1.20986
7.57152
2.08348
2.30578
2.09283
4.25606
0.988788
5.14423
4.44531
2.6386
5.02233
2.70519
4.01582
2.59028
3.34443
1.85797
2.16555
2.20227
2.78559
1.79711
2.14189
1.96043
1.69995
6.12651
1.11863
4.64948
0.936368
1.81193
2.1673
0.890056
0.864573
2.10201
5.82959
2.44594
1.84734
0.918988
1.12671
0.879257
1.28121
0.917835
0.953702
3.03393
0.904015
3.00504
4.36167
0.410455
6.53946
0.310061
5.8542
0.439771
1.68816
0.372231
1.28018
0.404922
4.33743
0.320042
1.34949
0.409369
1.1339
1.50349
1.13008
0.790217
7.94885
1.12883
6.48652
1.16129
5.25209
1.66288
6.09001
1.39692
1.03639
1.03144
1.20274
1.23092
1.0665
4.57516
1.19177
3.61056
1.30146
2.51766
6.84615
2.33995
4.48885
1.57939
3.39882
2.12863
8.56676
2.05641
5.26023
1.66662
2.89457
2.58604
9.19682
1.76051
4.89666
2.3561
6.88198
2.10208
5.70226
2.3194
7.23063
3.67905
1.39697
5.07604
1.14671
4.94194
1.47939
3.48204
1.44077
6.47032
1.30433
7.61246
1.18604
8.15437
1.11262
1.34361
9.6591
1.63455
1.07903
2.93129
5.96489
0.183578
3.13949
5.86996
3.13616
0.218805
2.44034
7.00475
0.299889
1.64735
2.45146
0.788638
1.64439
0.217038
1.74317
0.417536
0.336198
0.991132
1.7578
0.170787
0.496116
0.651328
1.87995
1.99613
2.24774
1.17213
2.59581
1.30245
3.29758
1.65367
3.21762
1.45747
2.33099
1.96917
1.18063
2.07937
0.678769
0.493426
0.237234
0.862925
0.509291
2.78283
2.3986
2.39346
1.56481
1.68403
1.66268
7.98812
1.2272
1.53618
1.81497
1.59643
1.54067
4.94515
1.52412
2.14752
1.50314
2.46139
1.63465
1.27157
2.32591
1.95572
1.69942
8.03954
0.31017
1.76653
2.90694
1.51851
1.4288
0.387808
1.38261
0.851551
0.827561
2.47595
1.72339
1.87531
2.1009
1.48757
2.19536
1.28531
0.413197
2.30584
2.5877
1.37691
1.48184
1.0381
1.04594
0.569217
1.2226
2.72403
2.2222
3.42279
2.39419
1.19347
0.965946
1.59146
1.00945
1.34278
6.42361
1.79987
0.730964
2.92845
3.80629
1.54204
1.59415
5.95146
0.948778
1.00362
1.77505
6.9141
1.46383
1.36669
1.40267
1.89427
1.6434
1.72732
9.29533
1.60176
0.942746
1.44207
0.527842
2.02199
2.11187
0.538049
2.01937
5.22945
1.5778
1.58632
2.46736
2.91506
1.85255
2.76715
2.01291
1.21584
1.95775
1.92522
3.87741
2.18127
2.21801
0.987237
1.02907
0.964131
2.92923
2.31736
1.14605
2.28745
2.5032
1.33904
1.99256
1.34267
0.904235
2.90535
2.43736
1.92485
2.05795
2.21939
2.54344
2.17546
1.11542
0.962234
0.433688
1.16203
0.445334
2.51942
1.05467
1.54913
2.34603
2.0486
2.12244
2.51396
4.38018
1.76475
2.20136
2.08481
2.58789
1.28044
2.52691
2.10644
1.1011
0.89833
3.11886
2.69003
0.513085
1.93087
1.00022
3.03571
1.98248
10.2236
1.56163
0.705043
2.10112
1.22267
2.69316
1.13442
2.35029
0.99738
2.28554
0.781314
2.73062
0.887477
1.88944
0.757673
2.36123
6.82451
1.42369
1.31612
1.07643
1.14294
2.61816
1.18948
8.6481
0.66864
2.39608
0.996627
1.02831
1.06104
2.42589
0.875266
1.09452
9.40501
0.848683
2.71543
1.41494
2.84144
1.53605
3.5344
1.83977
3.05975
1.70955
3.77586
2.2642
1.58913
0.379324
3.68922
1.72129
4.541
2.13596
1.43628
0.652414
10.8405
1.48362
4.66881
2.48853
0.243068
6.20578
2.62388
5.56258
2.73307
5.23771
2.62155
5.84095
2.8319
1.83478
6.79824
1.62506
4.19671
1.85928
5.98587
2.07777
5.18361
2.43918
3.93779
2.34663
1.56725
4.0988
0.912458
9.16096
1.79342
3.27479
1.70825
0.477526
2.74289
1.28802
3.01379
0.518437
2.43711
0.653837
2.27939
0.662387
2.60085
0.470075
2.76136
2.54021
1.49543
0.220455
3.29013
4.71565
0.177763
3.84621
4.42113
0.219895
1.64747
5.88418
2.41754
1.85738
0.996107
4.27345
2.55645
1.64197
3.89379
2.07048
2.54022
1.94388
2.43061
2.0181
0.727157
3.09616
1.91267
0.603445
2.53835
2.46467
1.38596
3.41038
1.92424
2.7848
1.83739
0.963348
2.93864
2.5085
2.02705
2.55893
2.32541
3.03012
2.32822
4.19757
3.38488
3.63767
3.13274
3.44738
2.63668
3.77468
3.41925
0.627232
0.471019
0.677267
0.482869
0.881829
0.410786
0.926645
0.401401
1.97962
2.13918
0.347695
2.20731
0.33231
1.61426
2.94808
0.359328
2.87878
0.304603
3.43993
4.28333
4.17191
3.43998
0.749171
0.633935
0.503523
0.618176
1.03245
0.873733
0.836317
0.947271
3.88367
4.00575
3.16162
4.901
3.21053
3.3063
3.37754
3.04146
1.59242
2.77843
1.71797
2.70937
1.78105
2.97257
1.53334
2.76693
1.32742
1.2991
1.16584
1.19505
8.71758
7.4081
8.72289
8.50511
5.37258
1.09578
4.46015
1.2937
3.50824
1.31919
4.93653
1.10525
2.53645
3.37981
2.98858
2.27269
0.238686
0.252365
0.224118
0.227494
2.76673
2.68266
3.01153
3.00088
2.89573
2.31013
2.74202
1.93668
0.98169
1.10251
1.12565
1.09584
11.6924
10.6371
11.0438
9.73909
0.272273
1.52316
0.241805
0.273729
0.271885
0.492838
0.532168
0.459489
0.397876
1.81547
3.51525
1.90431
2.82919
1.72489
2.74581
1.63056
3.52356
1.11389
6.32867
1.14857
4.64449
1.63835
4.73302
1.69904
7.23757
1.3991
12.9386
1.52756
9.59292
2.37322
10.2739
1.92125
10.6083
1.24817
1.24764
1.55608
1.49816
1.70124
3.06947
1.97548
2.83852
2.30876
3.2473
1.77536
3.92299
1.59696
2.23994
2.05963
2.04492
2.38989
1.7334
2.03587
2.0729
3.28793
2.71842
3.38635
3.14335
2.65539
3.16567
2.51293
2.95728
1.11065
1.04326
1.02967
1.1177
11.109
10.2669
10.7983
11.8513
0.215523
0.222725
0.198348
0.156075
7.34835
1.39645
6.45982
1.20622
4.03406
1.50684
4.2972
1.6525
4.65774
1.13058
4.60866
1.05064
3.25476
1.48231
2.86603
1.42898
5.07375
4.56918
3.89817
4.28726
1.27088
1.1807
1.09374
1.18797
2.24118
3.03882
3.13887
2.31459
7.30358
8.63075
9.2045
7.48888
0.777944
2.66265
1.02105
2.88202
1.26306
3.66739
1.03857
3.63724
1.29751
0.980357
7.44025
2.0134
8.24015
2.25731
9.67634
1.35632
8.41099
3.07425
2.17221
1.94546
2.7492
1.79735
6.65671
1.84918
5.17721
2.47851
3.98871
2.42149
5.76413
0.469864
0.354894
0.328643
0.502567
0.202622
0.222494
0.187218
0.16828
0.459623
0.355454
0.425236
0.522639
2.79988
1.40238
2.12708
2.10499
2.40107
1.7816
2.93221
1.32424
0.368228
0.322406
0.313112
0.368268
0.274118
0.328011
0.38402
0.298988
0.261567
0.281171
0.295345
0.269019
0.323817
0.281911
0.240479
0.268927
0.41628
0.386843
0.30484
0.298561
1.86495
1.81361
2.59262
1.42732
1.66176
1.61616
1.32082
1.9407
1.70258
1.52377
2.09093
1.67238
1.58629
1.65351
1.68795
1.73935
1.69921
2.07141
2.01932
12.3347
12.5363
11.0811
12.8162
5.3842
4.84627
5.40727
5.77583
2.35809
2.80204
3.15693
2.53187
2.45743
3.54064
3.13477
2.29114
3.83472
3.74479
3.68084
3.77946
9.41406
11.1998
8.30965
8.6519
5.13282
4.00215
3.80628
4.30821
3.73083
4.18573
4.31343
3.66924
6.84468
9.08474
5.88652
4.73025
3.16114
4.1558
3.24463
2.81165
3.04961
4.04289
3.74361
3.19639
4.98486
6.19083
6.06394
4.56423
2.21049
3.00425
2.97233
2.44198
3.70653
3.665
3.03461
2.79125
8.49871
7.4304
8.28722
9.04497
3.50695
3.49052
3.89907
4.4442
2.38687
2.38837
2.76838
2.5874
1.39033
1.69755
1.62876
2.83568
2.28676
1.83837
2.23534
2.93518
3.15937
3.66543
3.30315
2.92969
3.06415
3.35542
3.08576
2.38736
2.75453
2.76442
2.46838
1.79154
2.32636
2.37891
1.77129
3.74673
4.46448
4.14029
3.12071
3.05884
2.46126
2.04044
2.58046
3.86607
4.49567
4.28483
3.75271
3.22315
3.19167
5.31087
5.44529
2.61792
2.84303
2.85295
2.53929
1.28414
1.27499
1.36988
1.33382
2.76513
2.7316
2.59933
2.75088
1.04131
1.01986
1.06038
1.03668
2.5622
3.41177
3.76078
2.63212
2.33706
2.30003
2.43484
2.32624
1.55165
1.52638
1.83506
1.74804
2.11891
2.1139
2.46967
2.48397
7.74374
9.59306
7.99459
6.48803
10.2466
9.12119
9.18709
11.0182
1.97382
1.66796
1.68916
2.08239
11.6724
10.4574
11.1894
12.8102
3.46535
3.08585
3.67727
3.79799
2.38836
3.02741
2.35407
1.8854
1.75586
1.79058
1.61443
1.70264
2.41461
2.21064
2.19342
2.65106
1.70556
1.51229
1.4594
1.80234
1.5657
1.82685
1.93401
1.73991
1.04255
1.34689
1.37858
1.21151
1.53581
5.00475
1.08946
2.67094
1.49482
5.72388
4.52966
4.32915
3.64499
5.72222
0.839765
1.50047
1.77949
3.04619
4.95634
2.92805
6.31139
1.62019
2.29576
1.5377
2.44491
1.53273
2.53629
2.34291
11.9924
1.61569
12.1527
1.47421
5.39719
2.64508
1.55708
5.67414
3.14365
4.61894
1.59243
1.3299
2.08962
4.78731
1.26469
2.01059
6.39407
1.10633
1.33065
1.01084
1.45971
0.897646
4.31877
1.10015
1.64246
1.40754
0.569368
4.70689
2.49832
1.32863
0.682552
3.66705
1.96717
1.42297
6.1092
1.76472
4.84546
1.83375
6.50634
4.84177
5.52997
1.46902
4.93181
3.55317
5.70574
3.48521
5.42514
1.29045
5.0994
1.04182
6.34536
3.05426
6.94083
1.20509
5.84803
2.98031
8.07034
2.27463
8.29146
7.241
0.994206
8.33281
1.07276
5.71881
1.13079
4.72374
1.07953
1.10679
2.21997
1.1352
2.75517
5.0899
4.91986
7.38861
4.95018
6.6123
6.24521
7.99573
0.957786
13.0456
1.3912
11.2357
1.10365
10.9905
0.983885
13.0917
1.27654
1.90158
1.93637
1.52208
2.38619
1.48357
2.10088
2.16556
1.49047
1.52071
6.76214
3.71292
9.82655
3.52874
7.65335
7.17123
3.97217
5.78317
5.05569
3.15796
8.83995
5.55596
5.6186
3.56878
1.14499
2.59403
1.23672
2.76408
1.23687
2.6654
1.55434
2.88167
2.12216
3.33355
1.19663
3.87298
2.02096
1.08169
4.42502
1.23407
5.09292
4.30682
4.14497
1.26608
0.970181
4.53291
1.14061
6.25241
1.18868
1.68225
9.83581
2.60996
9.57574
1.27256
2.804
2.36244
1.23096
2.14897
1.21669
2.39125
1.24987
2.64663
2.04429
2.18458
1.76845
2.27129
1.13824
2.24933
1.71611
2.45624
2.23289
3.81917
7.39882
4.9425
6.10549
3.67253
7.03069
2.17958
1.20788
2.14311
1.23903
2.08869
1.27675
2.44701
1.38853
1.66169
2.37187
1.26798
1.88059
1.24896
1.94899
1.25324
9.4408
10.1758
7.67496
7.74009
0.779246
1.34893
6.82734
3.36384
2.39155
2.57227
3.61279
3.66608
3.93708
3.742
1.00022
2.5686
3.35783
1.09553
0.926374
2.56375
9.90104
2.09277
11.7252
3.40798
8.53303
2.26243
8.2353
1.64128
12.9677
1.84406
9.96311
1.23908
7.82784
2.22139
1.44904
1.38593
11.7906
2.14792
1.0907
11.5499
1.57132
2.21831
1.53056
6.34281
1.26717
5.35883
1.19316
1.6065
4.19816
1.3342
2.79302
1.32727
1.1801
1.75987
4.42449
2.19692
1.54812
1.10302
8.22859
3.22502
1.81322
1.17188
5.81426
2.34313
1.80983
1.10802
1.26236
3.86943
4.35104
2.17801
1.66252
3.90438
1.25832
1.50373
3.81811
1.7359
8.30902
2.98418
2.49888
10.6726
2.31503
8.1299
1.29436
3.6479
2.28185
9.32332
1.7482
7.72774
1.28962
8.75031
1.5202
9.46734
1.26218
7.29302
1.90458
0.958813
7.10683
1.48666
2.96485
2.16065
2.90062
1.21268
2.47082
2.27385
3.33594
1.78664
1.686
6.25505
1.99083
2.39139
3.49396
1.32198
2.36705
2.0263
1.03821
8.37175
1.87297
7.82087
1.79406
1.84112
2.46479
1.78129
1.65767
2.47662
1.65555
7.10078
2.18995
2.90461
1.12156
7.43716
1.75079
6.18978
2.92544
8.50909
1.07196
9.55638
1.66805
4.77617
2.28412
1.85416
2.09516
7.21279
1.12915
9.60675
1.94054
8.19667
3.26156
1.71026
2.29465
8.92839
1.42073
10.5104
2.71261
7.75593
2.59129
1.30505
6.86658
6.37341
1.37073
1.9501
0.988251
9.09573
7.50299
2.55114
1.2182
5.29097
1.48837
2.00957
3.81148
1.34551
1.83337
1.43146
9.92966
1.82227
2.59859
6.84818
1.24549
9.85511
2.43277
9.22126
1.56703
1.60213
2.13967
1.39737
1.65678
2.47316
2.15628
1.4518
2.12216
10.4533
2.97858
1.35443
1.42154
8.67668
1.35716
2.65553
6.47807
4.16793
4.43327
1.51668
1.1194
4.90892
1.49948
5.65576
1.08428
2.2509
1.50366
1.77133
2.12317
9.11452
1.17432
1.80131
7.98266
1.53652
1.85713
1.25807
8.46659
1.32099
4.05324
1.26393
1.95414
3.35898
3.35847
1.2453
1.32692
2.44117
1.11093
11.4369
9.33927
2.06891
1.22549
2.14508
1.46484
3.10588
1.14897
10.91
8.06498
1.76805
1.19364
10.5357
2.06945
1.28843
1.17231
3.16101
1.2605
10.5384
1.57618
3.8536
1.59085
1.60306
2.25466
1.51461
1.15592
1.2553
1.20013
3.83955
1.62511
1.89244
7.46512
1.09006
2.88303
1.30747
1.59827
2.55864
3.74109
1.48304
4.43888
1.94455
1.59948
3.15176
4.50204
1.66336
4.06991
1.52738
1.6188
1.24654
2.32936
2.11527
1.79476
4.92203
5.25078
2.07457
1.45904
1.44603
3.87837
2.20318
1.07443
2.29619
1.44768
4.26451
1.3746
1.78102
1.59575
1.81161
6.99691
3.65289
4.38844
1.13844
6.65624
3.86773
8.80914
3.20661
3.21581
1.14919
8.75537
3.09719
4.84608
2.15763
4.19894
1.13596
1.56791
3.19806
1.31019
2.69659
9.44716
2.1721
8.86272
2.08875
9.31534
2.62059
8.39386
1.09522
4.82732
1.04045
4.03265
2.00781
8.72067
2.67292
7.68062
2.36639
7.47021
1.09667
3.07648
2.21829
5.76244
1.14536
6.22404
1.60632
2.03981
1.13658
2.61819
3.06896
4.24771
3.60176
1.18374
1.37806
1.15279
1.06265
1.50102
1.23914
1.62789
1.43739
6.64314
7.09344
6.64614
6.71141
1.99109
2.0819
6.22624
1.92408
1.3534
1.38345
1.77276
1.59127
0.98812
1.36422
0.95106
1.36739
0.952107
1.30424
0.846141
1.27882
1.08869
1.22134
1.03771
0.921368
8.27333
7.30245
7.79973
9.38694
1.49598
2.0529
1.87601
1.32656
2.92091
3.79526
3.6843
2.47867
1.3752
1.87925
1.41487
2.09656
1.33785
2.24194
1.29979
2.26358
1.4593
1.74295
1.36916
2.14522
1.34019
2.03109
1.4054
1.56204
5.91745
5.52308
4.72167
5.24725
2.07786
1.71211
1.95158
2.28263
1.05751
3.87977
6.14678
4.02349
6.15929
3.96754
4.95269
3.95852
5.59466
2.07789
13.1834
2.37308
11.1559
3.05513
11.0643
2.67315
11.6398
11.3849
1.38622
7.99781
1.43742
7.48004
1.27718
9.95439
1.31085
5.96496
5.08178
4.95243
6.18516
9.42134
2.22406
8.85209
8.9441
9.83532
3.37912
1.64221
3.15413
1.86284
3.38888
1.70016
3.93384
1.59413
2.30403
1.76768
1.84668
1.82965
2.42639
2.11529
2.84285
1.90226
7.2442
4.70029
5.27891
4.44814
3.83502
2.11358
1.39695
2.17051
1.34225
1.91254
1.21479
1.7652
1.52695
2.14841
1.08031
1.94367
1.34594
1.80797
1.11959
2.25758
0.966256
1.74069
1.7208
1.71728
1.56508
2.01495
1.21262
2.22946
1.13256
2.23303
1.02285
1.6798
0.936205
1.62459
0.939083
1.1105
1.07416
0.923101
1.08751
1.30455
1.3991
1.77599
1.48025
1.28502
1.53957
1.23784
1.44345
1.92777
6.69746
2.07207
7.17755
1.85733
7.05851
1.5578
6.3825
1.55333
3.37538
4.02957
3.40161
2.86744
1.14781
1.01378
1.13485
1.15338
1.14806
1.45287
1.3433
1.22392
2.4902
1.23988
2.45531
1.53609
2.61993
1.46166
2.89643
1.33897
11.5849
10.8858
9.96957
12.7328
7.20684
8.61293
10.0554
9.14466
5.33345
8.036
8.40417
7.74681
10.1483
11.3633
10.8392
9.5771
1.39297
1.60767
1.64885
1.54912
1.45501
1.40438
1.85208
1.58129
3.3774
3.60906
4.0507
3.16988
2.90412
2.8251
3.98396
3.85764
0.997642
0.886148
0.943405
1.02424
2.38864
1.747
2.25225
2.8166
3.32992
2.70865
3.9495
4.43152
1.55586
1.50256
1.21565
1.54719
0.979783
1.64848
1.40138
2.04531
1.17398
2.42405
1.23732
2.45837
1.26229
2.20753
1.19352
1.44045
1.04257
1.02149
1.17781
3.56427
3.31757
2.90485
2.78387
0.952052
1.22815
2.78843
3.58077
3.0492
1.95265
3.62017
3.28071
3.20905
3.80751
2.35641
2.8809
3.16675
3.13719
1.60405
1.62759
2.64398
2.45288
2.40406
2.41824
1.97427
1.90849
2.38034
2.27747
2.42256
2.37766
1.93835
1.99964
2.04723
1.88575
1.66756
2.03038
2.29325
1.6683
2.13195
1.90928
1.62178
1.55215
1.2872
1.46457
1.02706
0.958436
1.67998
1.63574
2.05289
1.37153
1.59199
1.65343
1.56954
1.2865
1.28209
1.50069
1.45753
0.419457
0.469882
0.447943
0.465881
2.83862
2.04287
1.80541
2.30284
0.652376
0.585195
0.417469
0.534731
1.5685
1.6243
1.38791
1.51145
1.5624
1.01293
0.93512
1.21109
1.09607
0.792415
0.955738
1.32956
1.42871
1.42569
1.62678
1.35987
0.540998
0.645798
0.765465
0.696815
1.60387
1.52123
1.61222
1.89466
0.523977
0.504071
0.520945
0.529204
0.624497
0.673475
0.453747
0.408665
1.88693
2.11491
1.86995
1.692
1.67498
1.43994
1.53709
1.45428
1.74432
2.13563
1.95201
2.05524
1.39073
1.56058
1.79641
1.61037
1.77077
1.91377
1.70369
1.58461
1.33224
1.57341
1.43097
1.2925
1.02477
0.851411
0.969329
1.0866
3.22368
2.27496
2.76519
4.01042
1.7926
2.12499
2.91189
2.114
2.68649
2.48708
2.83407
3.33619
4.84087
3.09032
3.31574
4.37909
1.78145
1.80468
2.34322
2.31431
2.48441
2.50875
9.37016
7.98975
6.97787
6.29436
2.25993
2.11511
1.99645
2.05507
1.6404
1.62087
1.38929
1.46096
3.31586
2.49809
3.08713
1.87167
1.72495
1.1196
1.31609
3.32422
2.83715
4.66941
5.0744
1.25072
1.57164
1.51929
1.22812
1.34198
1.61034
1.46446
1.14757
2.19304
1.81263
1.6114
1.96894
1.84434
1.66424
2.49019
2.633
1.36878
1.72937
1.60812
1.32279
1.25759
1.11446
0.964287
1.11969
1.92412
1.34822
1.53872
1.83836
1.72062
1.4986
1.58926
1.77068
1.40022
1.32477
1.81604
1.78505
1.92675
1.74446
2.09401
2.29621
0.990397
1.18339
1.11771
0.855952
1.03725
2.19284
6.00204
0.987121
1.3363
6.15949
1.20377
1.65158
0.29282
2.13621
0.253266
2.41067
0.912239
0.55607
0.982591
0.741333
1.06008
0.870114
0.258209
1.88413
0.295051
1.28652
0.319764
1.23972
0.480844
0.654631
0.389154
0.674466
0.294474
1.87107
0.363545
0.56217
0.457902
0.48778
1.68988
1.03206
1.31235
2.09165
1.38918
1.10265
0.925793
1.74183
2.11048
1.41135
0.796513
1.17618
0.77829
1.44338
0.603586
1.40093
0.66675
1.31541
0.704708
0.969445
0.26906
1.11834
0.31327
1.03061
0.841966
1.44792
0.328717
1.10877
0.255178
1.14963
0.262318
2.89645
0.356739
3.34967
4.65836
0.577509
1.82188
4.58588
0.723964
1.29985
8.55678
5.30043
1.0771
1.45344
0.270848
2.27118
0.27355
1.77538
0.504563
0.806881
1.44568
1.76129
0.644904
0.76674
1.35176
0.305747
2.3335
0.264667
3.38598
0.314264
0.743603
0.298806
2.33878
1.78097
0.323054
0.369033
0.385224
1.14349
0.301068
1.11064
0.301156
2.16022
2.30433
1.69324
2.13505
2.13199
1.65187
2.36226
2.42346
1.57029
1.06154
0.587592
1.41278
0.956655
1.17228
0.762258
2.20064
2.1772
1.60733
0.876095
0.869833
0.982103
1.87927
1.17046
0.574088
1.52632
0.599208
1.79175
0.317845
4.28861
0.248643
5.28142
0.233656
4.81528
1.62917
2.51921
0.315784
1.79037
2.0242
2.64179
0.320497
1.6857
1.98495
2.93767
1.65676
2.64636
2.15125
1.86913
1.96456
1.44416
1.57717
0.653845
2.01363
1.64359
1.32518
0.829006
1.19451
0.784793
2.04728
1.54177
1.37179
0.63386
1.96287
1.96004
2.4373
1.97932
0.234139
2.16486
0.229955
2.21011
0.354591
0.407658
3.0442
2.06217
0.22761
2.17284
2.67196
2.19193
2.67886
1.59666
0.2561
2.71445
2.94341
1.36279
1.58369
1.67827
1.52651
1.21158
2.97066
2.48386
11.2831
0.275155
2.61624
3.17142
8.76686
0.350888
1.23106
0.565249
2.53373
3.30762
11.3576
0.297373
2.73977
2.25296
1.47277
0.668751
2.79821
12.1112
0.254486
0.255754
1.83088
0.290581
2.62337
0.75928
0.574641
1.71328
2.01416
2.06187
2.31138
1.7376
2.00709
1.02436
1.109
1.22189
1.20317
1.55787
6.5825