# vtk DataFile Version 2.0
Unstructured Grid by M++
ASCII
DATASET UNSTRUCTURED_GRID
POINTS 4225 float
  0.921875   0.593750 0
  0.921875   0.609375 0
  0.656250   0.609375 0
  0.671875   0.609375 0
  0.656250   0.546875 0
  0.671875   0.546875 0
  0.656250   0.562500 0
  0.656250   0.578125 0
  0.656250   0.593750 0
  0.671875   0.593750 0
  0.671875   0.562500 0
  0.671875   0.578125 0
  0.671875   0.625000 0
  0.671875   0.640625 0
  0.906250   0.578125 0
  0.890625   0.578125 0
  0.546875   0.515625 0
  1.000000   0.890625 0
  0.515625   0.640625 0
  0.515625   0.625000 0
  1.000000   0.875000 0
  0.515625   0.656250 0
  0.515625   0.687500 0
  0.515625   0.671875 0
  1.000000   0.921875 0
  0.546875   0.531250 0
  0.546875   0.546875 0
  0.546875   0.562500 0
  0.796875   0.531250 0
  0.953125   0.890625 0
  0.953125   0.875000 0
  0.953125   0.843750 0
  0.953125   0.828125 0
  0.953125   0.812500 0
  0.531250   0.562500 0
  0.531250   0.546875 0
  0.515625   0.562500 0
  0.515625   0.546875 0
  1.000000   0.812500 0
  0.781250   0.546875 0
  0.765625   0.546875 0
  0.859375   0.921875 0
  0.921875   0.671875 0
  0.609375   0.906250 0
  0.671875   0.656250 0
  0.609375   0.921875 0
  0.671875   0.671875 0
  0.671875   0.984375 0
  0.671875   1.000000 0
  0.906250   0.984375 0
  0.906250   1.000000 0
  0.921875   0.984375 0
  0.921875   1.000000 0
  0.859375   0.609375 0
  1.000000   0.781250 0
  0.515625   0.531250 0
  0.531250   0.531250 0
  0.531250   0.515625 0
  0.515625   0.515625 0
  1.000000   0.750000 0
  0.765625   0.531250 0
  0.781250   0.531250 0
  0.781250   0.515625 0
  0.765625   0.515625 0
  0.859375   0.875000 0
  0.921875   0.625000 0
  0.859375   0.890625 0
  0.921875   0.640625 0
  0.671875   0.968750 0
  0.671875   0.953125 0
  0.921875   0.968750 0
  0.921875   0.953125 0
  0.859375   0.593750 0
  0.859375   0.578125 0
  0.875000   0.578125 0
  0.828125   0.890625 0
  0.890625   0.640625 0
  0.593750   0.890625 0
  0.656250   0.640625 0
  0.593750   0.875000 0
  0.656250   0.625000 0
  0.578125   0.890625 0
  0.640625   0.640625 0
  0.578125   0.875000 0
  0.640625   0.625000 0
  0.968750   0.890625 0
  0.984375   0.890625 0
  0.968750   0.812500 0
  0.968750   0.828125 0
  0.984375   0.812500 0
  0.984375   0.828125 0
  1.000000   0.828125 0
  0.656250   0.953125 0
  0.640625   0.953125 0
  0.890625   0.968750 0
  0.906250   0.968750 0
  0.906250   0.953125 0
  0.890625   0.953125 0
  0.531250   0.703125 0
  0.531250   0.718750 0
  0.546875   0.718750 0
  0.546875   0.703125 0
  0.593750   0.578125 0
  0.562500   0.578125 0
  0.578125   0.578125 0
  0.843750   0.578125 0
  0.828125   0.578125 0
  0.828125   0.812500 0
  0.890625   0.562500 0
  0.828125   0.796875 0
  0.953125   0.906250 0
  0.953125   0.921875 0
  0.531250   0.859375 0
  0.593750   0.609375 0
  0.531250   0.843750 0
  0.593750   0.593750 0
  0.515625   0.843750 0
  0.578125   0.593750 0
  0.515625   0.859375 0
  0.578125   0.609375 0
  0.937500   0.859375 0
  1.000000   0.609375 0
  0.921875   0.859375 0
  0.984375   0.609375 0
  0.937500   0.796875 0
  0.921875   0.796875 0
  0.984375   0.546875 0
  0.562500   0.812500 0
  0.843750   0.796875 0
  0.843750   0.812500 0
  0.859375   0.796875 0
  0.859375   0.812500 0
  1.000000   0.906250 0
  0.984375   0.906250 0
  0.968750   0.906250 0
  0.968750   0.921875 0
  0.984375   0.921875 0
  0.593750   0.921875 0
  0.656250   0.671875 0
  0.593750   0.906250 0
  0.656250   0.656250 0
  0.578125   0.906250 0
  0.640625   0.656250 0
  0.578125   0.921875 0
  0.640625   0.671875 0
  1.000000   0.843750 0
  0.984375   0.843750 0
  0.968750   0.843750 0
  0.968750   0.859375 0
  0.968750   0.875000 0
  1.000000   0.859375 0
  0.984375   0.859375 0
  0.984375   0.875000 0
  0.656250   1.000000 0
  0.656250   0.984375 0
  0.656250   0.968750 0
  0.640625   0.968750 0
  0.640625   1.000000 0
  0.640625   0.984375 0
  0.843750   0.921875 0
  0.906250   0.671875 0
  0.843750   0.906250 0
  0.906250   0.656250 0
  0.828125   0.906250 0
  0.890625   0.656250 0
  0.828125   0.921875 0
  0.890625   0.671875 0
  0.781250   0.859375 0
  0.843750   0.609375 0
  0.781250   0.843750 0
  0.843750   0.593750 0
  0.765625   0.843750 0
  0.828125   0.593750 0
  0.765625   0.859375 0
  0.828125   0.609375 0
  0.968750   0.609375 0
  0.906250   0.859375 0
  0.953125   0.609375 0
  0.890625   0.859375 0
  0.937500   0.609375 0
  0.875000   0.859375 0
  0.562500   0.593750 0
  0.546875   0.593750 0
  0.531250   0.593750 0
  0.531250   0.609375 0
  0.562500   0.609375 0
  0.546875   0.609375 0
  0.609375   0.625000 0
  0.546875   0.875000 0
  0.609375   0.640625 0
  0.546875   0.890625 0
  0.625000   0.640625 0
  0.562500   0.890625 0
  0.625000   0.625000 0
  0.562500   0.875000 0
  0.921875   0.843750 0
  0.984375   0.593750 0
  0.937500   0.843750 0
  1.000000   0.593750 0
  0.921875   0.812500 0
  0.921875   0.828125 0
  0.984375   0.578125 0
  0.937500   0.828125 0
  1.000000   0.578125 0
  0.937500   0.812500 0
  1.000000   0.562500 0
  0.578125   0.828125 0
  0.921875   0.781250 0
  0.937500   0.781250 0
  1.000000   0.531250 0
  0.921875   0.765625 0
  0.984375   0.515625 0
  0.937500   0.765625 0
  0.625000   0.656250 0
  0.562500   0.906250 0
  0.609375   0.656250 0
  0.546875   0.906250 0
  0.625000   0.671875 0
  0.562500   0.921875 0
  0.609375   0.671875 0
  0.546875   0.921875 0
  0.859375   0.781250 0
  0.859375   0.765625 0
  0.828125   0.671875 0
  0.765625   0.921875 0
  0.828125   0.734375 0
  0.765625   0.984375 0
  0.875000   0.843750 0
  0.937500   0.593750 0
  0.890625   0.843750 0
  0.953125   0.593750 0
  0.906250   0.843750 0
  0.968750   0.593750 0
  0.906250   0.828125 0
  0.968750   0.578125 0
  0.937500   0.578125 0
  0.953125   0.578125 0
  0.906250   0.765625 0
  0.875000   0.765625 0
  0.953125   0.515625 0
  0.531250   0.781250 0
  0.671875   0.890625 0
  0.531250   0.921875 0
  0.953125   0.656250 0
  0.828125   0.781250 0
  0.843750   0.781250 0
  0.703125   0.984375 0
  0.687500   0.984375 0
  0.843750   0.875000 0
  0.906250   0.625000 0
  0.671875   0.781250 0
  0.734375   0.531250 0
  0.906250   0.609375 0
  0.671875   0.765625 0
  0.734375   0.515625 0
  0.906250   0.593750 0
  0.890625   0.593750 0
  0.875000   0.593750 0
  0.828125   0.875000 0
  0.890625   0.625000 0
  0.656250   0.781250 0
  0.718750   0.531250 0
  0.890625   0.609375 0
  0.656250   0.765625 0
  0.718750   0.515625 0
  0.875000   0.609375 0
  0.640625   0.765625 0
  0.703125   0.515625 0
  0.812500   0.921875 0
  0.875000   0.671875 0
  0.812500   0.875000 0
  0.875000   0.625000 0
  0.640625   0.781250 0
  0.703125   0.531250 0
  0.812500   0.515625 0
  0.750000   0.828125 0
  0.812500   0.578125 0
  0.687500   1.000000 0
  0.937500   0.656250 0
  0.875000   0.906250 0
  0.531250   0.656250 0
  0.890625   0.906250 0
  0.906250   0.906250 0
  0.562500   0.656250 0
  0.906250   0.890625 0
  0.562500   0.640625 0
  0.968750   0.625000 0
  0.906250   0.875000 0
  0.562500   0.625000 0
  0.937500   0.640625 0
  0.875000   0.890625 0
  0.890625   0.890625 0
  0.546875   0.640625 0
  0.953125   0.625000 0
  0.890625   0.875000 0
  0.546875   0.625000 0
  0.546875   0.687500 0
  0.890625   0.937500 0
  0.937500   0.625000 0
  0.875000   0.875000 0
  0.531250   0.625000 0
  0.531250   0.640625 0
  0.546875   0.656250 0
  0.937500   0.968750 0
  0.687500   0.968750 0
  0.953125   0.968750 0
  0.703125   0.968750 0
  0.968750   0.968750 0
  0.718750   0.968750 0
  0.718750   0.906250 0
  0.968750   0.953125 0
  0.718750   0.953125 0
  0.968750   0.937500 0
  0.859375   0.906250 0
  0.921875   0.656250 0
  0.718750   0.937500 0
  0.828125   0.531250 0
  0.937500   0.953125 0
  0.687500   0.953125 0
  0.953125   0.953125 0
  0.703125   0.953125 0
  0.703125   0.890625 0
  0.843750   0.515625 0
  0.953125   0.937500 0
  0.953125   1.000000 0
  0.703125   0.937500 0
  0.937500   0.937500 0
  0.687500   0.937500 0
  0.703125   0.906250 0
  0.718750   0.890625 0
  0.687500   0.890625 0
  0.687500   0.765625 0
  0.750000   0.515625 0
  0.687500   0.781250 0
  0.750000   0.531250 0
  0.859375   0.937500 0
  0.921875   0.687500 0
  0.687500   0.796875 0
  0.750000   0.546875 0
  0.578125   0.750000 0
  0.515625   1.000000 0
  0.843750   0.765625 0
  0.578125   0.734375 0
  0.515625   0.984375 0
  0.562500   0.734375 0
  0.828125   0.750000 0
  0.765625   1.000000 0
  0.562500   0.750000 0
  0.562500   0.718750 0
  0.578125   0.515625 0
  0.921875   0.703125 0
  0.921875   0.718750 0
  0.593750   0.515625 0
  0.687500   0.875000 0
  0.750000   0.625000 0
  0.578125   0.531250 0
  0.921875   0.750000 0
  0.703125   0.875000 0
  0.765625   0.625000 0
  0.593750   0.531250 0
  0.875000   0.968750 0
  0.937500   0.718750 0
  0.703125   0.828125 0
  0.765625   0.578125 0
  0.937500   0.734375 0
  0.703125   0.812500 0
  0.765625   0.562500 0
  0.890625   0.687500 0
  0.828125   0.937500 0
  0.656250   0.796875 0
  0.718750   0.546875 0
  0.890625   0.718750 0
  0.828125   0.968750 0
  0.906250   0.796875 0
  0.718750   0.828125 0
  0.781250   0.578125 0
  0.890625   0.703125 0
  0.828125   0.953125 0
  0.656250   0.859375 0
  0.906250   0.781250 0
  0.968750   0.531250 0
  0.546875   0.796875 0
  0.671875   0.796875 0
  0.734375   0.546875 0
  0.843750   0.953125 0
  0.906250   0.703125 0
  0.671875   0.875000 0
  0.718750   0.812500 0
  0.781250   0.562500 0
  0.875000   0.812500 0
  0.531250   0.890625 0
  0.593750   0.640625 0
  0.937500   0.890625 0
  0.875000   0.781250 0
  0.609375   0.703125 0
  0.546875   0.953125 0
  0.890625   0.796875 0
  0.625000   0.718750 0
  0.562500   0.968750 0
  0.906250   0.812500 0
  0.734375   0.859375 0
  0.796875   0.609375 0
  0.718750   0.875000 0
  0.781250   0.625000 0
  0.750000   0.859375 0
  0.812500   0.609375 0
  0.812500   0.546875 0
  0.750000   0.812500 0
  0.734375   0.843750 0
  0.796875   0.593750 0
  0.750000   0.843750 0
  0.812500   0.593750 0
[...]
CELL_DATA 4096
SCALARS scalar_value float 1
LOOKUP_TABLE default
1.2424
1.45935
2.14568
1.81162
1.36731
1.39689
1.18851
1.37961
2.06607
1.70049
1.85009
1.98839
2.17829
1.66861
2.10762
2.19132
3.25267
2.83181
1.85684
2.60021
4.65026
3.92327
3.78919
4.88581
2.13059
2.9451
3.35154
2.58995
1.04795
1.18188
1.22369
1.01557
1.72718
2.50242
1.83339
1.62343
1.6933
1.79349
2.48971
1.99712
4.88713
4.43128
3.80855
4.82868
1.12921
1.34798
1.60081
1.34087
1.47903
1.08568
0.952151
1.15469
1.04842
0.773831
0.820376
1.07465
4.21268
3.74175
3.24229
3.29423
0.804268
0.766118
0.751473
0.707821
4.5103
4.78072
5.11564
5.06721
2.19633
2.01222
1.90064
1.81768
1.2739
1.19432
1.29074
1.37918
1.2282
0.966839
0.827843
1.16003
3.16695
4.08816
4.24728
3.56146
6.14026
4.71825
4.24551
4.86903
0.84501
0.960304
1.18373
1.02853
1.23813
1.02288
1.33907
1.69071
3.91334
3.58761
2.79391
3.11841
4.51431
5.0345
5.8507
5.25542
1.08896
0.890173
0.81235
0.887449
0.749958
0.800807
1.00066
0.797165
4.67914
4.68987
4.54191
5.44741
3.24568
3.63592
3.99665
3.21901
1.27362
1.11871
1.06248
1.1137
1.15857
1.51532
1.06151
0.931331
2.60655
3.1146
2.02617
1.72767
4.74542
4.73758
5.43708
4.87107
1.86117
1.96844
1.68785
1.52015
2.48245
2.28955
2.84027
2.85596
2.31951
1.92447
1.54188
1.92552
2.39715
2.1559
2.04525
2.63039
4.18533
3.20452
2.87028
3.83806
1.47501
1.7036
1.47764
1.28523
0.766055
0.890278
0.907302
0.763083
1.60953
1.65886
1.61613
1.44738
1.08147
0.983603
1.02068
1.1781
1.30626
1.81554
1.96322
1.40576
2.32867
3.19134
3.45473
2.87458
2.20547
1.71768
1.72151
2.10753
0.974113
0.888098
0.947281
1.04337
1.41734
1.68233
1.25394
1.17982
1.98508
2.44609
1.89188
1.606
1.71446
1.82712
2.57912
2.16308
0.688522
3.95044
0.954757
4.24734
0.609015
2.11433
0.747331
0.734313
0.494373
0.743375
0.461488
1.32664
2.92729
1.39803
3.0264
1.83438
0.817649
1.82396
1.14574
2.60598
1.03309
2.57122
0.836952
0.558284
0.500718
0.633467
0.438008
0.415958
0.443126
0.785098
0.315547
0.372232
0.499447
6.62329
0.778626
5.45708
0.599145
6.55693
0.670566
3.43191
0.85111
3.23662
2.17261
1.94007
2.90071
1.56777
6.8354
0.657913
6.35611
0.686396
4.30553
1.33333
0.746324
5.24108
1.21498
5.3141
1.13499
0.656596
5.02042
1.41116
3.00591
1.68112
2.47514
1.92636
3.49448
1.70442
0.868322
0.89893
1.03557
0.826042
0.792714
3.86395
1.57138
0.666281
7.30115
0.521336
5.68493
0.649808
7.34275
0.71516
5.93578
0.723243
4.7134
0.504849
6.68627
0.678362
3.07974
0.661574
3.61582
2.57953
0.518595
1.87713
0.601632
5.3548
0.599251
4.78864
0.544944
5.81124
0.355966
1.54879
3.86889
0.371883
4.29042
0.634007
5.13592
0.447795
3.26465
1.44112
4.80309
0.407494
2.79549
0.768786
6.38855
1.29634
1.62713
0.901224
1.45662
1.46444
0.96815
1.45112
0.768457
1.37017
0.623778
1.26664
3.64764
0.977954
6.4323
1.63981
2.37056
1.01299
6.16288
1.51744
1.99961
0.902142
1.21491
4.14086
1.24318
6.11294
4.09091
3.29934
1.85642
1.82791
0.953884
5.88726
3.40698
0.781694
0.533863
0.787432
0.543952
0.449195
1.6069
0.598061
2.41515
6.08275
0.965724
6.14293
1.16377
6.71083
0.886203
4.93959
0.956592
4.88496
1.10384
5.09125
1.13854
4.40468
0.963663
0.314158
0.327672
0.343081
0.328633
3.1223
1.46871
2.45704
1.68278
1.98946
1.79067
2.44354
1.69764
1.22757
0.945955
0.84344
1.53233
0.974933
2.09425
2.03855
1.68391
2.68182
0.662337
2.84178
2.01439
1.52614
0.801733
1.29242
0.65726
2.61921
1.03096
3.47149
0.867612
1.20534
0.696049
3.84132
0.919535
5.51899
0.848966
6.00088
0.594648
2.04946
0.809205
3.80575
1.58493
2.30957
2.10261
2.01693
1.82942
1.91021
1.32557
2.17301
2.32831
1.59298
2.80066
1.64404
3.35568
1.27261
0.813814
3.9978
2.10728
1.74663
0.686644
3.523
1.74605
0.712743
2.57295
0.253755
1.6386
0.734636
2.54811
1.60702
1.54101
1.29564
3.88138
0.571504
1.91694
0.277652
1.53868
1.80181
3.2285
0.569172
1.91036
1.94156
1.73178
2.1487
2.62179
1.80512
1.56139
3.31871
1.14504
3.93068
1.19833
3.17411
1.76084
2.44643
3.60719
0.780151
1.74187
2.50891
1.73328
1.68618
2.12414
2.09449
1.24342
2.13132
1.24565
4.05239
3.49826
2.87369
3.22474
1.23132
0.614878
0.561517
0.772438
0.843128
5.92779
0.431292
0.889838
4.82262
1.01813
0.645258
0.690559
1.05279
0.748671
0.725769
3.69433
1.5811
2.94216
1.47784
4.5307
2.56272
1.69803
2.87499
1.49465
2.48214
1.21175
0.395645
0.998561
2.3191
0.762321
0.726923
1.71424
1.47652
3.56954
1.29834
4.35095
0.286678
1.57505
3.27427
1.52468
2.93378
1.09468
0.904549
1.7648
0.515678
0.715964
0.502369
0.766762
5.01449
0.690793
5.48682
0.428518
0.631094
0.92766
1.28008
0.707515
0.61145
6.7001
0.684734
1.64326
5.24316
4.45764
0.388388
0.613949
0.536243
0.596753
1.31376
5.42881
4.64352
0.376947
0.477882
0.682357
0.475257
0.653032
0.903211
1.53851
3.5249
5.03939
0.456891
0.83628
0.79515
2.37979
0.477872
1.31888
0.778251
4.34087
0.917065
3.83151
5.43251
0.552599
0.484168
1.13561
0.679731
4.18636
2.2923
1.00417
4.65873
0.503962
1.43389
1.69701
6.18325
0.750896
0.393585
1.16039
1.35559
1.04963
0.807384
0.232324
1.98736
1.1264
4.52868
3.92108
1.51006
3.12755
1.69545
1.11884
4.85476
0.790246
0.779857
1.02252
0.835291
1.49096
5.94915
0.436432
1.01632
4.31687
1.2125
4.96369
1.46337
0.959716
4.16069
0.359869
1.03315
0.670509
0.402469
0.911298
4.91337
2.25103
0.532714
4.014
0.485654
0.521326
0.805869
4.38014
1.66796
0.731747
1.1399
0.963509
7.28754
0.387449
0.868588
0.431079
1.69951
1.48531
5.22629
4.24228
0.375036
0.766028
0.592484
0.575096
0.88489
0.90253
3.69058
1.09091
5.21073
4.41544
1.42221
1.32988
6.48707
3.83946
1.10829
3.72628
4.08832
1.40499
0.347552
1.26694
0.321354
1.29404
0.303769
1.40901
0.292693
1.3211
0.510066
4.87274
0.91847
1.35019
0.362873
1.45403
0.366113
0.743612
0.402523
3.58465
0.357032
1.4207
0.557922
2.63837
2.43257
0.629777
1.66386
0.59164
1.61135
0.415019
2.31554
0.512832
0.921927
5.1447
0.402211
1.72431
0.46226
5.38286
0.519565
2.14522
0.48821
1.52543
0.359497
0.680168
6.10832
0.614623
5.26028
0.405882
1.47743
0.354267
0.305534
1.24067
0.685737
0.816184
0.336064
2.33352
0.334542
1.91908
0.346191
1.37783
0.319202
1.41879
6.46741
1.04801
2.4945
0.676523
3.6265
2.11518
0.714307
2.59111
2.01344
0.855206
4.69864
0.572688
0.755681
4.02106
4.6838
0.594393
0.936787
5.98021
0.453412
1.29002
3.47327
1.09556
0.787776
0.30016
1.29728
0.278628
0.325868
1.03482
7.16454
0.853629
0.339948
0.880055
7.88884
0.814257
0.443292
0.833924
7.26525
0.85243
0.287064
0.875211
0.401658
0.890423
0.811243
3.16572
1.09411
3.31098
1.06136
4.82466
0.765716
3.8832
2.98905
1.39341
2.5096
1.3905
3.35831
1.20408
3.56502
1.15639
0.761716
5.02413
0.90957
4.88055
0.991202
0.639864
5.53698
1.0062
4.86833
1.05905
1.17817
1.16296
1.36424
1.43854
1.239
1.47197
1.37684
1.1123
5.01945
5.07167
4.23944
4.73139
0.881301
1.93355
0.790347
2.04609
0.9213
1.53376
0.992581
1.3131
4.71365
1.00688
4.82539
0.973198
4.30153
1.11534
3.88837
1.18137
2.53879
2.94929
3.73509
3.28425
8.20696
7.32627
7.30638
7.95412
0.942193
0.859908
0.729249
1.09515
0.745483
1.21783
0.987607
1.03812
0.515365
0.509891
0.680372
0.598469
1.10142
1.20153
1.1858
0.994907
0.640279
6.02316
0.627021
5.13797
0.809441
5.34552
0.788677
5.51392
3.80931
3.75759
4.31661
3.93534
5.04412
4.60625
6.38916
6.5332
1.62377
3.57954
1.69545
1.94182
1.87384
0.960441
0.879085
1.13166
1.05064
1.03963
0.449723
1.11406
0.549541
1.14892
0.674445
1.19928
0.59784
0.707798
8.28178
0.693437
7.94052
0.779635
7.13765
0.746738
7.80365
0.622327
4.97665
0.61892
6.26688
0.656791
5.19577
0.651069
3.48019
4.66431
4.63276
4.33551
4.31838
1.63247
0.871218
1.28345
0.653477
1.27418
1.137
1.63385
1.52531
0.767343
0.836217
0.948172
0.988063
0.77989
1.14802
0.649957
1.03381
1.23993
0.678507
1.1161
0.925365
1.03278
0.99917
1.16166
0.696828
2.74443
3.18894
4.29434
3.48599
5.91074
7.13902
6.32702
4.77733
1.70191
1.38929
1.44301
1.73038
2.32895
1.18356
2.02413
1.00775
1.53409
0.925069
1.52205
1.02864
1.10406
0.982971
0.986298
1.07524
0.801471
1.10715
0.97908
0.911068
0.75796
0.926762
0.812954
0.620009
3.67368
4.80734
3.95643
3.54654
4.65057
5.68472
5.19877
4.67236
7.304
7.97004
8.0764
6.67941
1.38489
4.67124
1.4257
4.47049
0.984913
5.55489
0.907878
6.79794
0.73012
0.665398
7.4212
0.800574
7.13134
0.751066
5.89406
0.691912
6.27994
3.01884
3.41093
3.97988
3.17123
0.995526
2.63248
1.27454
2.23705
1.10496
1.83102
0.905461
2.21376
2.66623
2.54669
1.86492
2.1977
2.75558
2.422
2.267
2.32408
1.54724
1.35518
1.32366
1.3298
0.855934
0.651463
0.917416
0.459684
0.879536
0.374535
0.955761
0.436944
1.00853
1.18306
1.35474
1.12424
1.45488
1.20355
1.34883
1.43228
1.26503
1.72587
1.55413
1.36627
0.930947
0.98226
1.16727
1.06869
1.67307
1.35119
1.78877
1.707
0.676037
0.602817
0.722002
1.9138
1.51015
1.27045
1.42651
1.54214
1.63143
2.14834
2.08216
0.871437
1.18471
1.19935
1.11052
0.911133
1.01172
0.82373
0.725989
0.865042
0.916906
1.18784
1.23771
1.35757
1.57027
2.04031
1.7277
1.83296
1.59943
1.89465
2.2554
3.49119
3.65184
4.57721
4.23026
2.5377
2.4026
3.44117
2.99116
2.35927
2.01832
2.20023
2.37489
2.55661
3.83529
4.09577
3.05777
1.29656
1.75215
1.92951
1.53155
2.05894
1.90172
2.07038
2.3053
5.03512
5.02104
5.24475
5.16195
1.46191
1.71126
1.28902
1.08774
2.11655
2.02404
1.93911
2.13163
4.01274
4.83973
4.30482
4.99248
2.96397
2.14643
2.28264
2.59743
2.19278
2.29123
2.84077
2.59966
1.64648
1.29462
1.55623
2.02534
0.878858
1.20804
1.29192
0.995283
1.13833
1.06984
0.974031
1.6927
1.24783
1.46027
1.99974
6.71719
7.04514
6.18428
6.61874
1.81929
1.36349
1.23063
1.60234
8.07976
7.71261
7.40185
7.79035
6.61935
7.85483
9.21622
7.81332
0.513251
0.676836
0.833134
0.616616
5.71684
6.1067
5.30875
4.8685
1.16429
0.858216
1.13194
1.49226
2.4484
2.4427
2.27757
2.28091
2.89854
2.61894
2.78359
3.29297
2.91546
2.9869
3.28228
3.09666
2.01167
2.24291
2.51796
2.50243
2.95947
3.42228
4.35168
3.61646
3.69346
2.99704
3.13095
3.85057
4.16588
4.85402
3.58868
2.92012
4.40214
4.37565
4.53304
4.84076
4.51086
5.9755
4.95562
3.81054
1.06719
0.851633
0.812979
1.01266
0.602963
0.474036
0.42175
0.523217
4.30099
4.19174
4.83737
4.90947
1.90298
2.03954
1.32771
1.4783
5.13747
5.06186
4.49642
4.5664
2.24242
2.37461
1.6958
1.82228
1.49586
1.38963
1.27489
1.25034
2.99556
2.0318
1.82778
2.33295
4.10029
2.73569
2.46889
4.19837
2.50024
2.35943
3.33478
3.81961
3.76299
3.57458
4.2948
3.84102
1.22574
4.41554
2.87866
7.65005
1.69765
1.61576
3.90236
9.03415
1.86184
3.91435
1.42778
3.33186
4.12966
3.96092
0.821623
6.63354
1.11594
3.9264
4.0084
4.37859
3.36576
4.91304
2.45396
7.71631
3.33781
5.20726
2.86863
4.07737
0.816299
5.05604
4.58311
1.00707
5.82161
1.85477
2.99505
3.17528
0.891465
0.278972
3.46366
1.15978
0.381313
5.4147
4.80179
4.24837
2.93543
1.16525
0.461905
1.16676
2.34624
4.35094
1.10597
0.574168
2.54069
3.76837
1.03608
0.407836
1.65279
4.05155
4.80692
4.0551
4.85706
4.12906
5.04491
2.56505
2.88315
4.17699
4.50439
2.81686
2.55913
1.67261
0.663066
3.7608
5.09267
3.56935
4.29552
2.91725
1.7791
3.96833
4.48888
3.38386
1.70131
3.48629
1.83507
3.61503
3.14027
3.02153
2.83854
2.90542
2.47809
3.58419
2.8365
1.26153
5.23922
1.57948
4.89019
7.57063
5.91402
3.03549
8.14968
3.81913
5.3343
3.30719
4.83298
2.76831
4.67482
3.06133
3.81221
3.2722
4.50612
3.28148
6.14399
1.30402
4.08214
1.29234
4.72626
1.27342
4.39448
1.34522
3.79048
2.41264
1.58286
7.97335
1.85978
5.67526
1.61305
3.65926
5.21869
3.78076
3.9026
6.96488
1.53613
3.14888
3.81274
3.32274
1.89871
3.76417
2.18918
2.99019
1.83351
7.46535
3.66546
7.70634
3.28267
3.62542
2.4494
5.64282
3.71522
4.8509
0.260234
3.34991
2.49289
3.12572
0.274145
4.10628
4.94087
0.256812
3.61823
0.284674
3.28443
6.34523
2.5243
7.65416
2.83991
1.4295
4.98578
3.31464
2.06984
3.40277
2.3058
3.7263
2.19729
8.17021
2.9474
8.05567
3.19255
3.24209
2.23681
6.54324
3.28946
7.98467
2.92148
3.80787
1.91768
3.33809
2.24816
3.50213
2.11962
4.67076
2.40925
3.16297
1.9552
6.30752
2.7428
2.67373
1.83003
4.80973
2.69967
1.71669
3.92605
2.82853
3.1181
1.65392
0.535804
0.808445
0.618839
0.424562
1.30545
3.5237
2.2139
3.25279
5.36019
6.25125
6.19489
4.76919
5.71583
7.85646
4.31033
0.239995
0.232474
3.49175
4.17153
5.12532
3.10171
6.06436
3.21128
4.8517
2.28568
3.70298
2.39969
7.12366
3.57749
4.5017
2.96407
3.25304
2.36129
5.67486
3.08786
4.11666
3.02553
0.298684
5.4042
3.02159
4.13122
5.47751
3.46036
0.736352
2.7437
1.48944
1.86329
1.99346
2.83947
5.04013
2.23858
3.55587
4.55987
2.13299
3.34547
2.97608
4.32267
2.74868
2.20602
1.90999
1.40595
2.12832
1.78761
2.5826
1.23014
2.68932
3.36765
2.11929
6.65483
0.786506
4.09648
2.0003
3.7407
4.04702
2.6222
3.31088
2.17985
5.88398
7.64562
3.05645
3.64742
1.67843
3.63239
2.86893
5.99348
3.22214
3.093
1.85125
2.9891
2.14721
3.3857
2.34012
2.2085
1.84976
4.41269
1.29904
0.88892
4.12855
1.99169
1.47414
2.97905
3.78736
2.24185
1.534
1.78722
3.79029
1.04213
0.51905
2.91812
1.05934
1.97346
4.67891
2.84176
1.14642
3.42336
0.975857
7.42057
2.52682
1.54756
2.97816
1.02467
3.27887
2.90925
1.1694
2.18299
1.59318
2.27784
1.62468
2.50769
2.04531
2.20526
1.79754
3.55673
2.01827
3.87807
1.23542
1.80224
1.75385
7.15082
2.88939
2.8873
2.07838
3.36346
2.97212
3.03779
1.99912
3.26915
2.39092
3.29483
2.03673
3.79227
2.74648
3.28384
2.17487
2.52351
2.47719
2.70654
3.0258
1.23037
4.18679
4.39577
3.81167
3.79458
1.34724
3.62897
2.46563
1.29066
3.36285
9.25532
3.91892
0.972451
6.65919
2.11904
1.57364
2.28286
2.17824
5.423
1.74742
7.95219
2.65195
1.31058
3.47484
0.876842
4.10436
3.59149
0.876193
4.2498
3.72182
6.56889
2.58182
2.8268
4.00613
6.33381
1.68862
1.51817
2.11872
2.99646
5.12859
1.68557
3.18513
1.09567
0.60642
2.43564
1.72243
2.09941
3.06631
1.32954
3.48474
1.02931
3.1736
1.12884
7.51166
2.02154
1.57436
3.04407
4.51735
1.32936
1.59226
1.8532
5.66894
1.69881
8.33315
2.067
4.3201
5.18329
2.40823
5.84905
3.35509
3.44143
5.04866
5.33123
2.4244
5.94426
1.76342
3.47929
3.60706
2.99761
1.28202
3.02339
3.14983
5.35385
6.65812
4.21659
0.302366
4.91048
3.04159
4.66117
5.25993
3.7537
1.76181
1.62341
3.91613
5.19925
5.02852
4.50457
2.75487
0.943615
5.65173
1.12756
1.36157
2.25717
0.996052
4.54043
3.41303
5.32704
2.29936
1.95589
1.4443
4.37071
2.65802
4.59555
2.67128
4.28806
0.925535
4.21451
1.45174
2.84323
1.19165
4.24342
2.83491
0.412417
5.10407
3.23099
1.64855
4.23557
6.56441
1.37205
4.99354
1.80433
3.394
3.33009
1.11823
3.14237
1.26289
3.40082
2.8451
2.21933
1.98456
2.86744
2.79621
2.70825
3.66153
2.12096
1.65588
2.96603
3.81366
0.575673
3.11968
1.90088
1.69638
4.42882
2.254
1.69891
7.06505
3.09334
6.60747
3.07244
5.66439
3.16107
6.37683
3.26168
1.68357
1.73265
1.50721
1.78204
7.01605
2.86057
6.47998
1.05385
6.7228
1.31131
1.56905
2.32124
5.43875
0.831281
2.24651
2.16325
1.60872
4.90445
3.61555
1.22418
1.25511
1.49338
1.82037
1.11445
4.6866
1.27899
4.19822
2.00256
4.22211
1.80074
4.52063
1.30501
1.84934
2.0515
1.57044
3.64939
3.80619
3.24944
3.09057
4.7633
4.84641
4.73839
4.59331
4.24403
1.39033
5.47439
2.35221
4.6858
2.19884
4.23068
1.40528
3.89958
4.2162
4.5035
4.25294
1.88082
1.53411
2.21285
2.55977
6.43576
5.17828
4.69175
6.09857
2.15808
2.10683
2.22064
1.84875
2.67755
3.33204
3.44381
4.67806
3.49588
3.58502
3.52271
3.28335
1.82078
3.34734
2.06446
3.72102
2.28601
3.71852
2.18057
3.8286
2.01684
2.16495
2.23441
2.10937
4.68658
3.99396
4.72927
5.3563
2.5925
4.06893
2.09293
4.36166
2.23338
4.11132
3.17259
3.41363
2.93681
5.93748
1.52992
7.12775
1.65292
8.10606
1.7646
7.35401
1.56048
3.64221
5.28031
3.93941
4.94619
4.28729
4.23171
3.83669
4.59522
4.34299
5.54267
4.59844
3.51201
2.68199
4.04164
2.78006
2.17562
2.29821
1.99544
2.98928
2.43127
2.93527
2.55888
2.53397
2.23524
2.51383
0.792225
4.31657
0.999227
4.19417
1.1844
3.93895
0.988715
4.38837
2.00675
1.01041
1.17302
1.29187
1.08632
4.6387
2.00828
4.36655
2.29666
5.14476
2.66153
5.24518
2.66722
3.1033
2.82708
2.27472
3.55674
2.79911
4.05697
3.6133
3.13112
5.45709
4.68165
5.86852
3.71027
4.35197
4.71532
2.62933
3.65429
3.23887
3.05816
2.51253
4.10493
2.5531
4.2124
1.04873
3.55077
0.977268
3.41298
1.0924
3.47888
3.71878
0.87432
3.20514
4.67475
4.27135
4.96131
5.22595
2.74277
4.7405
3.96259
4.14292
3.95382
4.69096
3.35837
5.11081
0.337688
0.342629
0.250708
0.259268
3.81433
4.73296
5.22211
4.55112
1.56566
1.38298
1.47407
1.72023
4.30236
1.52673
4.31946
1.43039
4.65168
1.25085
4.52114
1.4314
1.15838
0.853998
0.657128
0.961348
1.42205
1.24361
0.998222
1.30271
0.290906
0.35309
0.420887
0.37426
0.65931
0.713102
0.772575
0.685641
2.65877
2.98142
3.72279
3.49631
1.92885
1.63852
2.01284
2.10282
0.39388
0.432051
0.56821
0.486199
0.90171
0.660292
0.811642
1.04124
4.30073
4.42618
4.71473
5.23915
3.9693
4.0602
3.8349
3.57018
3.10561
2.75778
2.67859
2.84479
3.71487
1.56574
4.42321
2.03291
5.12225
1.68625
4.47251
3.32254
2.55015
3.41321
3.09534
3.24318
2.92889
3.70444
2.46131
4.62055
5.46217
4.9722
4.1082
2.27369
2.79691
2.88386
2.84469
2.9341
2.3629
3.46256
4.0788
4.98658
5.09436
3.67232
4.66837
4.87719
4.09938
4.60974
5.28252
5.05093
4.57233
7.60472
6.95864
5.8356
5.26985
0.441904
0.405719
0.376235
0.365054
0.497135
0.466404
0.50193
0.507807
0.448231
0.449795
0.61932
0.636346
0.423547
0.394305
0.450274
0.401694
0.382778
0.372076
0.44357
0.513094
0.974607
1.05364
1.20253
1.0772
1.05396
1.00918
1.34728
1.29172
1.10675
1.16497
1.49883
1.28411
1.20472
1.40992
1.37495
3.04457
3.14246
3.87101
4.22462
6.35992
5.47173
7.05382
6.33232
1.64565
2.33996
2.23455
1.543
8.09559
6.39195
5.44226
6.45665
5.60566
5.08076
5.83376
5.8202
2.37348
2.34336
1.78002
1.77128
11.6536
11.7009
8.97805
9.43558
3.83228
3.30124
2.87448
3.38671
9.49468
10.7786
11.5953
7.48905
3.5291
3.68897
3.21014
3.20898
8.28954
10.1863
7.62025
5.5323
0.375648
0.367901
0.338546
0.35968
0.370146
0.36289
0.305876
0.287244
0.550109
0.4581
0.450389
0.462867
0.634111
0.46306
0.445989
0.633379
0.286998
0.328459
0.344907
0.293885
0.381257
0.435842
0.488004
0.472012
6.65029
5.58544
5.50268
6.444
7.05268
8.37403
8.18828
7.30142
3.39205
3.42249
3.9546
3.65219
6.80753
6.85698
5.79648
5.81285
6.66861
6.69332
4.94919
4.69454
3.33278
2.9316
6.22709
7.00345
6.39383
6.14702
4.8402
5.79103
5.79094
4.88042
5.84404
4.34236
4.19532
4.86487
2.62698
2.21149
2.01422
2.51848
4.73695
5.88774
4.87047
6.17249
6.90839
6.61696
5.59164
8.52127
8.12048
8.16793
8.38173
0.628654
0.872395
0.839468
0.706882
1.27127
1.07601
0.747169
0.996241
1.98382
1.25347
1.51419
2.02027
1.07439
1.19089
1.77844
1.51795
1.92531
2.00396
1.90991
1.78443
29.2341
28.4342
26.9066
27.9166
21.0847
29.4296
35.2897
24.1132
2.92909
2.41646
2.69679
3.37858
15.0304
20.0924
16.3956
12.6365
2.34197
2.39012
3.21672
2.8811
19.9496
21.6976
14.5377
12.4089
1.20614
2.85598
5.95343
2.74799
1.06849
6.34386
3.61065
1.21289
2.32363
6.10557
2.14369
6.57139
9.22851
0.394532
6.5445
0.363749
11.7059
2.07455
1.24756
4.93931
1.40769
3.51174
1.26499
4.54862
1.45167
5.77332
1.66947
6.01369
1.37337
4.26683
1.27779
5.77417
1.12281
5.83997
1.34549
4.08963
4.854
1.48097
4.40358
2.1188
9.49854
1.85993
2.55286
7.65992
0.449345
7.07165
0.388293
10.2268
0.551469
2.53942
3.22299
0.296039
3.99383
0.334698
2.28404
0.715941
2.88302
0.561654
3.51382
0.292111
2.44005
0.403181
1.95609
0.562206
2.02451
5.90492
2.21996
4.80773
5.93329
1.92256
1.60148
5.64704
2.63975
1.19474
7.62057
5.89188
3.76613
1.21417
1.69361
6.19361
1.77309
9.05134
1.54183
5.9058
3.99469
3.16305
2.0131
7.66487
2.89161
1.44627
4.95336
1.41997
5.68727
1.27496
4.53117
1.20825
5.3099
2.82519
1.71992
0.937447
1.3815
4.37421
1.40729
3.27934
2.06466
6.09192
1.43937
4.54703
1.6449
4.15296
4.61371
0.354443
3.51655
0.474805
1.88064
0.737654
0.565874
1.77994
2.16808
8.75056
0.418065
3.20567
0.582644
1.82999
1.95983
12.2206
0.48714
2.07411
4.03641
4.45027
3.86034
5.87773
1.19003
7.22604
0.963507
7.22799
1.06393
7.34465
1.5135
3.67406
1.55443
7.47423
1.74677
3.40841
2.31007
6.50115
1.99066
3.93889
1.64085
3.37174
0.459323
2.79939
0.501212
2.30398
0.688141
1.63322
0.427337
2.69862
0.762382
1.61862
1.04509
1.46067
0.458522
2.31492
0.806992
1.71291
3.0497
0.381601
3.18784
0.387832
2.12732
7.55363
1.80694
8.38965
1.13254
1.24448
2.373
4.6768
1.97794
6.84778
1.95326
4.48305
1.99479
4.48511
1.95272
5.82304
2.41267
5.11762
3.2832
0.441805
2.86426
0.579944
4.60645
2.09514
7.38459
2.82556
5.12033
2.77751
6.51901
3.14735
10.2267
0.458438
5.0672
2.78243
5.50486
3.50774
4.2761
2.26768
2.83048
0.659536
3.1743
5.35679
3.17056
1.73996
9.89791
2.30473
5.11295