# vtk DataFile Version 2.0
Unstructured Grid by M++
ASCII
DATASET UNSTRUCTURED_GRID
POINTS 1089 float
  0.718750   0.687500 0
  0.750000   0.687500 0
  0.718750   0.656250 0
  0.750000   0.718750 0
  0.625000   0.562500 0
  0.625000   0.593750 0
  0.656250   0.593750 0
  0.750000   0.750000 0
  0.687500   0.656250 0
  0.687500   0.625000 0
  0.656250   0.625000 0
  0.906250   0.593750 0
  1.000000   0.968750 0
  0.750000   0.968750 0
  0.718750   0.968750 0
  0.718750   1.000000 0
  0.750000   1.000000 0
  0.906250   0.906250 0
  0.843750   0.531250 0
  0.656250   0.937500 0
  0.656250   0.906250 0
  0.562500   0.812500 0
  0.562500   0.843750 0
  0.593750   0.875000 0
  0.593750   0.843750 0
  0.812500   0.718750 0
  0.625000   0.625000 0
  0.968750   0.875000 0
  0.531250   0.875000 0
  0.625000   0.937500 0
  0.562500   0.562500 0
  0.906250   0.812500 0
  0.531250   0.781250 0
  0.562500   0.593750 0
  0.906250   0.843750 0
  0.625000   0.656250 0
  0.968750   0.906250 0
  0.687500   0.968750 0
  0.812500   0.812500 0
  0.687500   1.000000 0
  0.687500   0.687500 0
  0.937500   0.843750 0
  0.593750   0.593750 0
  1.000000   0.625000 0
  0.968750   0.593750 0
  0.906250   0.875000 0
  0.968750   0.625000 0
  0.625000   0.875000 0
  0.875000   0.875000 0
  0.625000   0.906250 0
  0.875000   0.843750 0
  0.531250   0.812500 0
  0.968750   0.562500 0
  0.593750   0.625000 0
  0.937500   0.875000 0
  0.656250   0.687500 0
  1.000000   0.937500 0
  0.875000   0.562500 0
  0.687500   0.937500 0
  0.937500   0.625000 0
  0.812500   0.781250 0
  0.937500   0.562500 0
  0.875000   0.781250 0
  0.531250   0.531250 0
  0.718750   0.937500 0
  0.968750   0.937500 0
  0.906250   0.562500 0
  0.843750   0.781250 0
  0.593750   0.562500 0
  1.000000   0.906250 0
  0.656250   0.656250 0
  0.937500   0.906250 0
  0.875000   0.531250 0
  0.812500   0.750000 0
  0.656250   0.968750 0
  0.937500   0.531250 0
  0.843750   0.812500 0
  0.906250   0.531250 0
  0.843750   0.750000 0
  0.937500   0.593750 0
  0.875000   0.812500 0
  0.531250   0.562500 0
  1.000000   0.593750 0
  0.562500   0.906250 0
  0.562500   0.531250 0
  0.593750   0.906250 0
  0.593750   0.937500 0
  0.562500   0.875000 0
  0.781250   0.750000 0
  0.781250   0.781250 0
  0.593750   0.531250 0
  1.000000   0.687500 0
  0.531250   0.843750 0
  0.718750   0.718750 0
  0.781250   0.718750 0
  0.781250   0.687500 0
  1.000000   0.656250 0
  0.968750   0.656250 0
  0.843750   0.843750 0
  0.781250   1.000000 0
  0.656250   0.312500 0
  0.531250   0.250000 0
  0.875000   0.500000 0
  0.531250   0.218750 0
  0.875000   0.468750 0
  0.531250   0.156250 0
  0.593750   0.812500 0
  0.093750   0.562500 0
  0.656250   0.562500 0
  0.156250   0.312500 0
  0.031250   0.812500 0
  0.125000   1.000000 0
  0.312500   0.250000 0
  0.250000   0.500000 0
  0.375000   0.000000 0
  0.187500   0.750000 0
  0.812500   0.906250 0
  0.312500   0.656250 0
  0.250000   0.906250 0
  0.875000   0.656250 0
  0.375000   0.406250 0
  0.750000   0.843750 0
  0.250000   0.593750 0
  0.187500   0.843750 0
  0.812500   0.593750 0
  0.312500   0.343750 0
  0.625000   0.968750 0
  0.125000   0.718750 0
  0.687500   0.718750 0
  0.187500   0.468750 0
  0.062500   0.968750 0
  0.125000   0.656250 0
  0.187500   0.406250 0
  0.250000   0.156250 0
  0.062500   0.906250 0
  0.468750   0.906250 0
  0.656250   0.156250 0
  0.468750   0.812500 0
  0.593750   0.312500 0
  0.656250   0.062500 0
  0.625000   0.812500 0
  0.125000   0.562500 0
  0.687500   0.562500 0
  0.187500   0.312500 0
  0.062500   0.812500 0
  0.562500   0.937500 0
  0.062500   0.687500 0
  0.625000   0.687500 0
  0.125000   0.437500 0
  0.000000   0.937500 0
  0.062500   0.625000 0
  0.187500   0.125000 0
  0.125000   0.375000 0
  0.000000   0.875000 0
  0.406250   0.875000 0
  0.468750   0.625000 0
  0.593750   0.125000 0
  0.812500   0.937500 0
  0.312500   0.687500 0
  0.250000   0.937500 0
  0.875000   0.687500 0
  0.375000   0.437500 0
  0.750000   0.875000 0
  0.250000   0.625000 0
  0.187500   0.875000 0
  0.812500   0.625000 0
  0.312500   0.375000 0
  0.468750   0.781250 0
  0.593750   0.281250 0
  0.656250   0.031250 0
  0.625000   0.781250 0
  0.125000   0.531250 0
  0.062500   0.781250 0
  0.687500   0.531250 0
  0.187500   0.281250 0
  0.500000   0.812500 0
  0.687500   0.062500 0
  0.625000   0.312500 0
  0.656250   0.812500 0
  0.156250   0.562500 0
  0.718750   0.562500 0
  0.218750   0.312500 0
  0.093750   0.812500 0
  0.437500   0.968750 0
  0.625000   0.218750 0
  0.500000   0.781250 0
  0.687500   0.031250 0
  0.625000   0.281250 0
  0.656250   0.781250 0
  0.156250   0.531250 0
  0.718750   0.531250 0
  0.218750   0.281250 0
  0.093750   0.781250 0
  0.062500   0.562500 0
  0.125000   0.312500 0
  0.187500   0.062500 0
  0.000000   0.812500 0
  0.406250   0.812500 0
  0.968750   0.812500 0
  0.468750   0.562500 0
  0.593750   0.062500 0
  0.218750   0.687500 0
  0.156250   0.937500 0
  0.281250   0.437500 0
  0.062500   0.843750 0
  0.687500   0.593750 0
  0.187500   0.343750 0
  0.625000   0.843750 0
  0.125000   0.593750 0
  0.312500   0.843750 0
  0.437500   0.343750 0
  0.500000   0.093750 0
  0.375000   0.593750 0
  0.312500   0.906250 0
  0.937500   0.656250 0
  0.437500   0.406250 0
  0.875000   0.906250 0
  0.375000   0.656250 0
  0.062500   0.875000 0
  0.187500   0.375000 0
  0.250000   0.125000 0
  0.125000   0.625000 0
  0.093750   0.656250 0
  0.031250   0.906250 0
  0.218750   0.156250 0
  0.156250   0.406250 0
  0.593750   0.968750 0
  0.093750   0.718750 0
  0.031250   0.968750 0
  0.656250   0.718750 0
  0.156250   0.468750 0
  0.437500   0.906250 0
  0.625000   0.156250 0
  0.718750   0.812500 0
  0.218750   0.562500 0
  0.781250   0.562500 0
  0.281250   0.312500 0
  0.156250   0.812500 0
  0.062500   0.656250 0
  0.000000   0.906250 0
  0.187500   0.156250 0
  0.125000   0.406250 0
  0.562500   0.968750 0
  0.062500   0.718750 0
  0.000000   0.968750 0
  0.625000   0.718750 0
  0.125000   0.468750 0
  0.406250   0.968750 0
  0.968750   0.968750 0
  0.468750   0.718750 0
  0.531250   0.468750 0
  0.593750   0.218750 0
  0.406250   0.906250 0
  0.468750   0.656250 0
  0.593750   0.156250 0
  0.687500   0.781250 0
  0.187500   0.531250 0
  0.750000   0.531250 0
  0.250000   0.281250 0
  0.125000   0.781250 0
  0.781250   0.906250 0
  0.281250   0.656250 0
  0.218750   0.906250 0
  0.843750   0.656250 0
  0.343750   0.406250 0
  0.750000   0.906250 0
  0.250000   0.656250 0
  0.187500   0.906250 0
  0.812500   0.656250 0
  0.312500   0.406250 0
  0.875000   0.406250 0
  0.375000   0.156250 0
  0.812500   0.968750 0
  0.312500   0.718750 0
  0.250000   0.968750 0
  0.875000   0.718750 0
  0.375000   0.468750 0
  0.781250   0.937500 0
  0.281250   0.687500 0
  0.218750   0.937500 0
  0.843750   0.687500 0
  0.343750   0.437500 0
  0.718750   0.875000 0
  0.218750   0.625000 0
  0.156250   0.875000 0
  0.781250   0.625000 0
  0.281250   0.375000 0
  0.750000   0.937500 0
  0.250000   0.687500 0
  0.187500   0.937500 0
  0.875000   0.437500 0
  0.375000   0.187500 0
  0.812500   0.687500 0
  0.312500   0.437500 0
  0.687500   0.875000 0
  0.187500   0.625000 0
  0.750000   0.625000 0
  0.250000   0.375000 0
  0.125000   0.875000 0
  0.812500   1.000000 0
  0.312500   0.750000 0
  0.250000   1.000000 0
  0.875000   0.750000 0
  0.375000   0.500000 0
  0.562500   1.000000 0
  0.062500   0.750000 0
  0.000000   1.000000 0
  0.625000   0.750000 0
  0.125000   0.500000 0
  0.406250   1.000000 0
  0.968750   1.000000 0
  0.468750   0.750000 0
  0.656250   0.000000 0
  0.531250   0.500000 0
  0.593750   0.250000 0
  0.406250   0.937500 0
  0.468750   0.687500 0
  0.593750   0.187500 0
  0.687500   0.812500 0
  0.187500   0.562500 0
  0.750000   0.562500 0
  0.250000   0.312500 0
  0.125000   0.812500 0
  0.437500   0.843750 0
  0.625000   0.093750 0
  0.093750   0.593750 0
  0.156250   0.343750 0
  0.218750   0.093750 0
  0.031250   0.843750 0
  0.281250   0.937500 0
  0.843750   0.937500 0
  0.343750   0.687500 0
  0.906250   0.687500 0
  0.406250   0.437500 0
  0.156250   0.968750 0
  0.218750   0.718750 0
  0.281250   0.468750 0
  0.343750   0.218750 0
  0.156250   1.000000 0
  0.406250   0.000000 0
  0.281250   0.500000 0
  0.343750   0.250000 0
  0.218750   0.750000 0
  0.187500   0.968750 0
  0.250000   0.718750 0
  0.375000   0.218750 0
  0.312500   0.468750 0
  0.187500   1.000000 0
  0.312500   0.500000 0
  0.375000   0.250000 0
  0.437500   0.000000 0
  0.250000   0.750000 0
  0.031250   0.781250 0
  0.656250   0.531250 0
  0.156250   0.281250 0
  0.593750   0.781250 0
  0.093750   0.531250 0
  0.000000   0.781250 0
  0.625000   0.531250 0
  0.125000   0.281250 0
  0.562500   0.781250 0
  0.062500   0.531250 0
  0.781250   0.968750 0
  0.281250   0.718750 0
  0.218750   0.968750 0
  0.843750   0.718750 0
  0.343750   0.468750 0
  0.281250   0.968750 0
  0.843750   0.968750 0
  0.343750   0.718750 0
  0.906250   0.718750 0
  0.406250   0.468750 0
  0.281250   1.000000 0
  0.906250   0.750000 0
  0.406250   0.500000 0
  0.843750   1.000000 0
  0.343750   0.750000 0
  0.531250   0.000000 0
  0.718750   0.843750 0
  0.218750   0.593750 0
  0.156250   0.843750 0
  0.781250   0.593750 0
  0.281250   0.343750 0
  0.687500   0.843750 0
  0.187500   0.593750 0
  0.750000   0.593750 0
  0.250000   0.343750 0
  0.125000   0.843750 0
  0.218750   0.875000 0
  0.843750   0.625000 0
  0.343750   0.375000 0
  0.781250   0.875000 0
  0.281250   0.625000 0
  0.156250   0.906250 0
  0.781250   0.656250 0
  0.281250   0.406250 0
  0.718750   0.906250 0
  0.218750   0.656250 0
  0.031250   1.000000 0
  0.656250   0.750000 0
  0.156250   0.500000 0
  0.593750   1.000000 0
  0.093750   0.750000 0
  0.218750   1.000000 0
  0.343750   0.500000 0
  0.468750   0.000000 0
  0.406250   0.250000 0
  0.281250   0.750000 0
  0.593750   0.406250 0
  0.093750   0.156250 0
  0.531250   0.656250 0
  0.031250   0.406250 0
[...]
CELL_DATA 1024
SCALARS scalar_value float 1
LOOKUP_TABLE default
3.17781
3.74608
4.25281
1.64163
1.99117
2.65336
1.24671
0.88224
1.17647
1.01296
1.46252
1.70513
1.98262
1.96142
1.38358
1.40254
1.75153
1.50057
1.33349
2.8334
2.01989
2.32378
1.89832
4.07684
3.26502
3.218
4.61115
4.97335
2.58631
2.02215
1.6762
1.29709
1.34875
1.38722
1.44763
2.21389
1.50597
2.30579
1.63078
0.984572
12.572
14.7528
1.6583
16.0724
4.00028
0.860368
1.38813
2.76382
1.35133
1.49935
8.66836
2.25118
1.71398
1.38671
1.83251
1.2929
1.76682
11.8076
15.1778
2.82395
4.73307
3.55156
3.33592
3.39941
1.75788
2.78594
2.70818
2.60192
8.4827
1.11212
1.61373
1.09456
1.88425
2.99868
3.20311
3.36606
1.91493
1.94047
2.78304
2.08821
2.54665
1.94595
3.05371
2.5228
4.17504
3.50095
2.69749
2.17277
2.48706
1.48719
0.990929
1.76824
3.37718
2.48741
4.53431
2.53883
2.08416
2.02525
3.39383
2.66529
1.12714
2.7335
6.54936
2.70483
2.35165
2.53822
2.45341
1.12893
1.50074
3.03059
2.75034
3.01358
1.89715
4.3018
1.81944
1.85948
3.40893
2.40738
3.68782
1.92815
0.790892
5.44183
1.62595
3.08014
2.70894
2.2173
0.895835
6.94777
2.11648
2.64935
2.64641
1.86168
7.18116
2.4043
0.497638
1.0729
1.91325
1.8229
3.10771
3.6496
1.87995
2.1195
2.33516
2.13357
5.69499
1.91497
2.28791
2.156
2.22135
0.506365
2.82974
2.92401
0.576884
5.16254
3.0173
4.27675
2.00002
2.4277
3.17978
1.81092
1.40435
0.711119
2.41042
3.95355
1.53244
2.67153
3.41692
2.83927
7.57841
7.08709
1.15092
3.22482
4.75627
2.60736
3.84408
2.9868
4.09427
5.54136
2.8785
1.5693
1.18618
0.680327
3.63023
1.22057
0.817122
3.10785
1.40942
0.851554
2.66204
1.21229
3.28989
2.1042
1.47952
10.6271
3.62405
1.71269
1.32311
2.1495
1.10164
8.9024
2.5344
1.47904
2.06586
2.45015
2.60975
1.49224
3.8147
6.31862
11.4853
1.98987
3.24129
3.81904
8.86132
1.75894
3.16846
1.55505
4.30089
10.5825
13.4996
2.00774
12.4722
0.909522
2.99831
2.94829
2.78162
1.6643
3.0302
1.83402
3.49774
2.27738
1.92188
2.47578
2.26118
2.78583
2.77251
2.54594
2.24516
1.64205
0.53166
2.75182
4.27296
1.84265
3.03746
2.76367
1.07194
2.40568
1.98032
2.29385
2.39126
2.25309
2.17496
2.07556
2.13357
2.0757
1.83779
2.10307
6.884
9.47376
1.89526
3.28861
3.01543
2.41993
1.7392
1.64327
2.47296
4.17517
3.81186
1.72335
1.9455
11.3121
11.1416
6.58213
6.00494
7.99118
10.1098
0.962104
7.00366
4.48158
4.83239
8.64177
2.21214
1.21292
0.339139
0.648944
2.64967
2.27485
1.10671
2.4285
1.14036
2.29656
1.9424
2.02281
1.57147
1.85492
10.3424
1.63178
10.0935
1.93045
8.06182
7.44403
6.52866
1.56254
5.35214
5.07863
2.29556
6.81152
7.65448
7.55071
1.64787
1.22926
6.43371
1.77287
11.2918
11.3241
0.693521
5.08868
1.60025
1.40244
8.42547
1.60567
1.81178
2.32837
10.8644
4.54541
1.12315
1.88064
2.05851
2.28656
16.0437
11.189
1.48427
5.4415
14.3993
10.3244
1.70536
3.22652
1.56759
2.14759
5.3788
1.17819
1.76308
2.21229
1.68697
3.92242
1.31388
1.82698
2.24548
3.396
0.941946
8.67015
1.24268
3.63672
2.25937
3.03422
1.67308
2.36095
10.1952
11.2684
3.62604
4.41406
0.743102
10.5879
1.21025
1.46797
1.93808
1.88771
16.4937
0.99926
4.65141
1.77616
0.973353
6.7632
10.625
0.852035
2.46779
12.6249
15.1426
7.83311
0.760448
8.11922
12.1495
0.362388
0.900982
2.36767
3.20971
4.92614
0.402496
0.687072
0.536124
0.58576
4.25607
14.5382
8.54954
1.82821
1.50546
2.30075
0.242026
2.26977
4.78439
1.26604
2.49721
2.07979
0.351836
3.83593
3.24411
1.17303
4.25322
2.15971
1.77564
0.819446
2.70846
3.36933
2.24374
1.58318
1.13902
2.93796
1.65525
1.04547
3.44997
1.41376
0.873043
2.47737
1.49023
2.18917
1.78777
0.700255
1.57553
0.99297
1.46285
1.11298
6.72029
1.43073
1.70485
0.715626
8.58036
0.978491
1.50466
1.39893
0.817402
3.98582
1.48656
0.779199
2.81652
1.9996
0.849875
1.96352
1.6455
9.41731
0.444146
1.91471
1.78252
7.88842
0.38482
3.79445
10.495
0.719886
1.27112
3.19197
12.1595
0.714408
1.21567
1.07881
1.0245
0.57446
0.730939
0.52875
0.971467
5.11396
0.261197
6.17418
0.44352
2.45745
4.82595
0.510919
0.645094
0.500542
1.10055
1.05717
1.54587
1.75976
1.22619
2.01843
0.660793
2.41107
1.14177
2.91677
3.27148
0.562432
2.89964
3.28783
4.21548
2.63661
2.22588
5.20443
0.392665
1.74554
3.17313
0.394503
1.98931
2.927
0.39825
1.93451
5.92591
0.31519
0.316451
0.573041
2.85704
3.60663
1.67432
1.07249
0.882341
1.1044
4.3708
1.88329
2.10792
2.90353
4.34332
0.966156
1.05239
0.96067
0.452351
0.345845
0.237492
8.0672
0.26336
0.455403
2.60509
2.12605
1.95175
2.35832
2.94352
2.43701
2.47627
6.13697
7.40904
5.31932
4.71246
1.24988
1.50713
2.61075
1.52238
0.195238
0.271912
9.40123
5.07367
0.264619
5.69701
0.178461
0.552406
4.06869
0.188609
0.748535
0.247754
0.996489
0.306631
0.882388
1.60463
2.10352
6.62603
4.24203
2.59447
3.57873
2.29253
0.352089
6.68425
2.53924
2.7052
1.28807
12.6047
3.66329
8.17355
5.72306
0.264641
1.13489
5.44053
11.9968
5.12339
0.279488
5.27311
0.683721
3.41152
11.8882
4.10742
3.3063
6.34997
0.45883
5.09605
4.49277
2.2733
6.83925
0.590281
0.489922
3.89575
0.410446
14.4352
1.30382
17.0263
1.51284
1.54524
7.13489
3.06195
2.11249
4.50213
3.01178
5.71282
0.463568
4.20954
1.0117
0.538445
3.52691
3.29208
0.7964
11.8571
1.29291
4.33042
15.1026
0.89037
0.401103
17.5874
1.01143
0.950877
2.63973
2.32023
2.67534
7.95679
1.63741
3.02268
0.831955
1.18707
9.60007
1.01422
1.60712
2.99703
1.26443
13.4894
6.26446
6.85496
0.219386
0.539304
1.29852
0.81637
0.667241
12.4875
1.64823
12.2439
2.27014
0.76684
0.380951
9.30271
0.243581
0.714267
13.958
0.918442
6.65455
12.5917
0.962947
4.41316
7.69966
13.6901
0.857389
4.03863
6.36376
0.300519
3.02786
0.217519
0.763094
1.47815
17.6103
1.47742
21.9616
1.37633
17.4251
1.41832
11.5486
1.46211
1.24821
1.39367
3.27256
1.3707
0.98491
1.27774
0.991142
1.19921
1.22992
1.5202
7.76109
3.85556
0.689824
2.39832
6.91444
6.754
1.75028
1.08328
2.57017
12.891
1.51487
0.898276
2.59951
5.19831
10.9991
1.16818
0.52315
2.9933
0.494476
0.935737
24.1184
0.294265
15.7288
0.367028
0.886228
12.9848
0.580407
1.23183
16.9602
3.45382
4.39972
4.98867
3.83047
2.34788
1.44501
2.96916
2.03857
1.85691
2.10496
1.95843
2.40006
3.28321
2.92323
2.46604
1.73131
6.57458
2.31972
2.32449
4.78213
1.86342
7.87966
2.79205
3.19226
4.19457
1.59194
2.01697
7.3176
1.96381
1.20713
2.37048
2.05962
1.29781
1.37567
4.80747
8.18818
1.31515
17.6576
1.06101
13.8279
0.50388
1.09388
15.2232
1.09041
19.1977
3.96277
5.14493
6.60528
5.14303
1.51014
1.26418
1.84795
2.26541
1.85635
16.0612
3.75996
3.44641
3.77136
3.63426
5.70345
3.61827
5.58863
2.4092
4.03077
3.17199
5.18153
2.44218
0.990159
0.745303
1.56564
5.76054
6.17348
5.02919
3.64658
3.9447
4.23231
2.87199
9.20013
1.3391
9.84476
3.0781
13.0607
4.84876
3.74571
8.89546
1.19993
6.51872
3.74654
3.45794
4.03752
4.4356
2.91533
2.11897
8.51647
4.80393
3.85001
3.47774
2.50347
10.0517
4.01409
4.17173
3.32255
3.2747
3.49978
4.0724
5.17272
13.2027
6.46613
3.61809
40.8594
14.6444
6.14217
1.75138
25.8489
7.37967
12.3282
5.59231
10.2364
7.30198
4.19804
2.94248
6.2081
0.481242
15.6268
19.0737
1.81079
4.94961
2.63667
11.7797
4.72124
0.571965
31.1276
26.9457
5.70542
2.43792
5.31839
0.793867
5.15769
2.62121
7.70907
0.461621
4.73903
2.19627
16.4824
5.93417
4.95183
18.0869
5.8414
19.3983
6.78823
14.932
13.0879
31.335
16.9143
41.7349
3.73373
17.7542
3.55668
10.6034
9.21323
16.1943
3.24169
4.06144
39.5935
31.7995
4.63209
1.21164
8.40991
4.36912
21.8303
15.5888
6.46549
14.0197
5.18469
2.08171
8.97685
3.86032
4.71118
16.0139
3.004
8.92626
12.4939
1.53324
7.71107
1.0461
9.25583
2.09018
9.15044
6.57022
7.63636
20.6161
4.41228
7.77062
0.784527
6.40185
2.70222
11.3324
4.45145
37.9757
12.8571
9.51321
4.93583
3.76449
6.52112
2.95837
24.1066
21.0383
2.73397
0.981795
7.53622
1.68295
1.30159
10.74
2.26077
21.6368
1.54736
9.42722
7.67893
7.02252
5.86524
7.9332
13.9425
3.08469
0.745713
2.49866
1.37016
3.35762
4.67261
1.41959
4.20587
5.83604
12.4107
2.10462
5.42485
6.53394
22.4771
2.18568
3.20788
3.34591
11.5865
5.41573
5.1901
9.40504
6.69806
7.21422
14.2059
5.72064
8.11505
14.6752
2.09197
6.69692
1.08103
1.54001
2.44544
2.85646
1.95637
9.81719
2.28809
2.44375
6.47818
1.50868
1.63027
4.99917
2.66482
2.93108
1.92516
6.0519
3.08676
2.44185
3.5848
1.73942
3.20258
9.59335
2.21865
4.87826
26.448
3.16752
17.5746
5.25599
7.44258
6.15641
3.60576
2.07771
2.25402
5.50591
2.15461
4.95285
4.7979
5.00921
4.91969
7.69408
2.77283
10.6449
5.02943
40.4586
2.95315
5.22189
3.95281
1.55894
2.33894
4.58024
40.6457
21.7922
9.83626
1.59509
5.72229
2.00254
19.507
19.7816
2.94734
