# vtk DataFile Version 2.0
Unstructured Grid by M++
ASCII
DATASET UNSTRUCTURED_GRID
POINTS 1089 float
  0.718750   0.687500 0
  0.750000   0.687500 0
  0.718750   0.656250 0
  0.750000   0.718750 0
  0.625000   0.562500 0
  0.625000   0.593750 0
  0.656250   0.593750 0
  0.750000   0.750000 0
  0.687500   0.656250 0
  0.687500   0.625000 0
  0.656250   0.625000 0
  0.906250   0.593750 0
  1.000000   0.968750 0
  0.750000   0.968750 0
  0.718750   0.968750 0
  0.718750   1.000000 0
  0.750000   1.000000 0
  0.906250   0.906250 0
  0.843750   0.531250 0
  0.656250   0.937500 0
  0.656250   0.906250 0
  0.562500   0.812500 0
  0.562500   0.843750 0
  0.593750   0.875000 0
  0.593750   0.843750 0
  0.812500   0.718750 0
  0.625000   0.625000 0
  0.968750   0.875000 0
  0.531250   0.875000 0
  0.625000   0.937500 0
  0.562500   0.562500 0
  0.906250   0.812500 0
  0.531250   0.781250 0
  0.562500   0.593750 0
  0.906250   0.843750 0
  0.625000   0.656250 0
  0.968750   0.906250 0
  0.687500   0.968750 0
  0.812500   0.812500 0
  0.687500   1.000000 0
  0.687500   0.687500 0
  0.937500   0.843750 0
  0.593750   0.593750 0
  1.000000   0.625000 0
  0.968750   0.593750 0
  0.906250   0.875000 0
  0.968750   0.625000 0
  0.625000   0.875000 0
  0.875000   0.875000 0
  0.625000   0.906250 0
  0.875000   0.843750 0
  0.531250   0.812500 0
  0.968750   0.562500 0
  0.593750   0.625000 0
  0.937500   0.875000 0
  0.656250   0.687500 0
  1.000000   0.937500 0
  0.875000   0.562500 0
  0.687500   0.937500 0
  0.937500   0.625000 0
  0.812500   0.781250 0
  0.937500   0.562500 0
  0.875000   0.781250 0
  0.531250   0.531250 0
  0.718750   0.937500 0
  0.968750   0.937500 0
  0.906250   0.562500 0
  0.843750   0.781250 0
  0.593750   0.562500 0
  1.000000   0.906250 0
  0.656250   0.656250 0
  0.937500   0.906250 0
  0.875000   0.531250 0
  0.812500   0.750000 0
  0.656250   0.968750 0
  0.937500   0.531250 0
  0.843750   0.812500 0
  0.906250   0.531250 0
  0.843750   0.750000 0
  0.937500   0.593750 0
  0.875000   0.812500 0
  0.531250   0.562500 0
  1.000000   0.593750 0
  0.562500   0.906250 0
  0.562500   0.531250 0
  0.593750   0.906250 0
  0.593750   0.937500 0
  0.562500   0.875000 0
  0.781250   0.750000 0
  0.781250   0.781250 0
  0.593750   0.531250 0
  1.000000   0.687500 0
  0.531250   0.843750 0
  0.718750   0.718750 0
  0.781250   0.718750 0
  0.781250   0.687500 0
  1.000000   0.656250 0
  0.968750   0.656250 0
  0.843750   0.843750 0
  0.781250   1.000000 0
  0.656250   0.312500 0
  0.531250   0.250000 0
  0.875000   0.500000 0
  0.531250   0.218750 0
  0.875000   0.468750 0
  0.531250   0.156250 0
  0.593750   0.812500 0
  0.093750   0.562500 0
  0.656250   0.562500 0
  0.156250   0.312500 0
  0.031250   0.812500 0
  0.125000   1.000000 0
  0.312500   0.250000 0
  0.250000   0.500000 0
  0.375000   0.000000 0
  0.187500   0.750000 0
  0.812500   0.906250 0
  0.312500   0.656250 0
  0.250000   0.906250 0
  0.875000   0.656250 0
  0.375000   0.406250 0
  0.750000   0.843750 0
  0.250000   0.593750 0
  0.187500   0.843750 0
  0.812500   0.593750 0
  0.312500   0.343750 0
  0.625000   0.968750 0
  0.125000   0.718750 0
  0.687500   0.718750 0
  0.187500   0.468750 0
  0.062500   0.968750 0
  0.125000   0.656250 0
  0.187500   0.406250 0
  0.250000   0.156250 0
  0.062500   0.906250 0
  0.468750   0.906250 0
  0.656250   0.156250 0
  0.468750   0.812500 0
  0.593750   0.312500 0
  0.656250   0.062500 0
  0.625000   0.812500 0
  0.125000   0.562500 0
  0.687500   0.562500 0
  0.187500   0.312500 0
  0.062500   0.812500 0
  0.562500   0.937500 0
  0.062500   0.687500 0
  0.625000   0.687500 0
  0.125000   0.437500 0
  0.000000   0.937500 0
  0.062500   0.625000 0
  0.187500   0.125000 0
  0.125000   0.375000 0
  0.000000   0.875000 0
  0.406250   0.875000 0
  0.468750   0.625000 0
  0.593750   0.125000 0
  0.812500   0.937500 0
  0.312500   0.687500 0
  0.250000   0.937500 0
  0.875000   0.687500 0
  0.375000   0.437500 0
  0.750000   0.875000 0
  0.250000   0.625000 0
  0.187500   0.875000 0
  0.812500   0.625000 0
  0.312500   0.375000 0
  0.468750   0.781250 0
  0.593750   0.281250 0
  0.656250   0.031250 0
  0.625000   0.781250 0
  0.125000   0.531250 0
  0.062500   0.781250 0
  0.687500   0.531250 0
  0.187500   0.281250 0
  0.500000   0.812500 0
  0.687500   0.062500 0
  0.625000   0.312500 0
  0.656250   0.812500 0
  0.156250   0.562500 0
  0.718750   0.562500 0
  0.218750   0.312500 0
  0.093750   0.812500 0
  0.437500   0.968750 0
  0.625000   0.218750 0
  0.500000   0.781250 0
  0.687500   0.031250 0
  0.625000   0.281250 0
  0.656250   0.781250 0
  0.156250   0.531250 0
  0.718750   0.531250 0
  0.218750   0.281250 0
  0.093750   0.781250 0
  0.062500   0.562500 0
  0.125000   0.312500 0
  0.187500   0.062500 0
  0.000000   0.812500 0
  0.406250   0.812500 0
  0.968750   0.812500 0
  0.468750   0.562500 0
  0.593750   0.062500 0
  0.218750   0.687500 0
  0.156250   0.937500 0
  0.281250   0.437500 0
  0.062500   0.843750 0
  0.687500   0.593750 0
  0.187500   0.343750 0
  0.625000   0.843750 0
  0.125000   0.593750 0
  0.312500   0.843750 0
  0.437500   0.343750 0
  0.500000   0.093750 0
  0.375000   0.593750 0
  0.312500   0.906250 0
  0.937500   0.656250 0
  0.437500   0.406250 0
  0.875000   0.906250 0
  0.375000   0.656250 0
  0.062500   0.875000 0
  0.187500   0.375000 0
  0.250000   0.125000 0
  0.125000   0.625000 0
  0.093750   0.656250 0
  0.031250   0.906250 0
  0.218750   0.156250 0
  0.156250   0.406250 0
  0.593750   0.968750 0
  0.093750   0.718750 0
  0.031250   0.968750 0
  0.656250   0.718750 0
  0.156250   0.468750 0
  0.437500   0.906250 0
  0.625000   0.156250 0
  0.718750   0.812500 0
  0.218750   0.562500 0
  0.781250   0.562500 0
  0.281250   0.312500 0
  0.156250   0.812500 0
  0.062500   0.656250 0
  0.000000   0.906250 0
  0.187500   0.156250 0
  0.125000   0.406250 0
  0.562500   0.968750 0
  0.062500   0.718750 0
  0.000000   0.968750 0
  0.625000   0.718750 0
  0.125000   0.468750 0
  0.406250   0.968750 0
  0.968750   0.968750 0
  0.468750   0.718750 0
  0.531250   0.468750 0
  0.593750   0.218750 0
  0.406250   0.906250 0
  0.468750   0.656250 0
  0.593750   0.156250 0
  0.687500   0.781250 0
  0.187500   0.531250 0
  0.750000   0.531250 0
  0.250000   0.281250 0
  0.125000   0.781250 0
  0.781250   0.906250 0
  0.281250   0.656250 0
  0.218750   0.906250 0
  0.843750   0.656250 0
  0.343750   0.406250 0
  0.750000   0.906250 0
  0.250000   0.656250 0
  0.187500   0.906250 0
  0.812500   0.656250 0
  0.312500   0.406250 0
  0.875000   0.406250 0
  0.375000   0.156250 0
  0.812500   0.968750 0
  0.312500   0.718750 0
  0.250000   0.968750 0
  0.875000   0.718750 0
  0.375000   0.468750 0
  0.781250   0.937500 0
  0.281250   0.687500 0
  0.218750   0.937500 0
  0.843750   0.687500 0
  0.343750   0.437500 0
  0.718750   0.875000 0
  0.218750   0.625000 0
  0.156250   0.875000 0
  0.781250   0.625000 0
  0.281250   0.375000 0
  0.750000   0.937500 0
  0.250000   0.687500 0
  0.187500   0.937500 0
  0.875000   0.437500 0
  0.375000   0.187500 0
  0.812500   0.687500 0
  0.312500   0.437500 0
  0.687500   0.875000 0
  0.187500   0.625000 0
  0.750000   0.625000 0
  0.250000   0.375000 0
  0.125000   0.875000 0
  0.812500   1.000000 0
  0.312500   0.750000 0
  0.250000   1.000000 0
  0.875000   0.750000 0
  0.375000   0.500000 0
  0.562500   1.000000 0
  0.062500   0.750000 0
  0.000000   1.000000 0
  0.625000   0.750000 0
  0.125000   0.500000 0
  0.406250   1.000000 0
  0.968750   1.000000 0
  0.468750   0.750000 0
  0.656250   0.000000 0
  0.531250   0.500000 0
  0.593750   0.250000 0
  0.406250   0.937500 0
  0.468750   0.687500 0
  0.593750   0.187500 0
  0.687500   0.812500 0
  0.187500   0.562500 0
  0.750000   0.562500 0
  0.250000   0.312500 0
  0.125000   0.812500 0
  0.437500   0.843750 0
  0.625000   0.093750 0
  0.093750   0.593750 0
  0.156250   0.343750 0
  0.218750   0.093750 0
  0.031250   0.843750 0
  0.281250   0.937500 0
  0.843750   0.937500 0
  0.343750   0.687500 0
  0.906250   0.687500 0
  0.406250   0.437500 0
  0.156250   0.968750 0
  0.218750   0.718750 0
  0.281250   0.468750 0
  0.343750   0.218750 0
  0.156250   1.000000 0
  0.406250   0.000000 0
  0.281250   0.500000 0
  0.343750   0.250000 0
  0.218750   0.750000 0
  0.187500   0.968750 0
  0.250000   0.718750 0
  0.375000   0.218750 0
  0.312500   0.468750 0
  0.187500   1.000000 0
  0.312500   0.500000 0
  0.375000   0.250000 0
  0.437500   0.000000 0
  0.250000   0.750000 0
  0.031250   0.781250 0
  0.656250   0.531250 0
  0.156250   0.281250 0
  0.593750   0.781250 0
  0.093750   0.531250 0
  0.000000   0.781250 0
  0.625000   0.531250 0
  0.125000   0.281250 0
  0.562500   0.781250 0
  0.062500   0.531250 0
  0.781250   0.968750 0
  0.281250   0.718750 0
  0.218750   0.968750 0
  0.843750   0.718750 0
  0.343750   0.468750 0
  0.281250   0.968750 0
  0.843750   0.968750 0
  0.343750   0.718750 0
  0.906250   0.718750 0
  0.406250   0.468750 0
  0.281250   1.000000 0
  0.906250   0.750000 0
  0.406250   0.500000 0
  0.843750   1.000000 0
  0.343750   0.750000 0
  0.531250   0.000000 0
  0.718750   0.843750 0
  0.218750   0.593750 0
  0.156250   0.843750 0
  0.781250   0.593750 0
  0.281250   0.343750 0
  0.687500   0.843750 0
  0.187500   0.593750 0
  0.750000   0.593750 0
  0.250000   0.343750 0
  0.125000   0.843750 0
  0.218750   0.875000 0
  0.843750   0.625000 0
  0.343750   0.375000 0
  0.781250   0.875000 0
  0.281250   0.625000 0
  0.156250   0.906250 0
  0.781250   0.656250 0
  0.281250   0.406250 0
  0.718750   0.906250 0
  0.218750   0.656250 0
  0.031250   1.000000 0
  0.656250   0.750000 0
  0.156250   0.500000 0
  0.593750   1.000000 0
  0.093750   0.750000 0
  0.218750   1.000000 0
  0.343750   0.500000 0
  0.468750   0.000000 0
  0.406250   0.250000 0
  0.281250   0.750000 0
  0.593750   0.406250 0
  0.093750   0.156250 0
  0.531250   0.656250 0
  0.031250   0.406250 0
[...]
POINT_DATA 1089
SCALARS scalar_value float 1
LOOKUP_TABLE default
-0.320079
-0.325229
-0.300753
-0.337468
-0.197962
-0.220108
-0.226432
-0.345303
-0.288024
-0.261086
-0.250421
-0.301053
-0.448778
-0.452996
-0.455844
-0.526969
-0.533441
-0.383934
-0.263601
-0.410419
-0.386481
-0.325043
-0.338389
-0.359068
-0.347373
-0.337732
-0.242707
-0.363198
-0.343174
-0.40517
-0.199406
-0.346548
-0.305527
-0.219112
-0.354226
-0.265775
-0.384752
-0.452721
-0.355107
-0.502736
-0.310981
-0.352129
-0.21865
-0.319261
-0.307113
-0.36528
-0.318839
-0.366076
-0.368113
-0.381001
-0.356676
-0.317134
-0.290808
-0.237503
-0.363875
-0.298946
-0.413228
-0.283448
-0.411291
-0.318221
-0.349612
-0.288772
-0.343959
-0.18127
-0.412364
-0.414416
-0.286779
-0.346875
-0.198135
-0.384581
-0.274838
-0.384405
-0.268698
-0.344481
-0.443216
-0.273454
-0.352343
-0.271706
-0.342056
-0.304426
-0.348881
-0.199841
-0.308338
-0.366981
-0.180549
-0.374177
-0.398334
-0.351388
-0.345937
-0.351629
-0.181167
-0.332452
-0.329757
-0.333408
-0.338147
-0.328184
-0.327569
-0.327716
-0.359464
-0.526897
-0.0911173
-0.0794411
-0.249015
-0.0704213
-0.225435
-0.0492235
-0.335721
-0.177694
-0.202524
-0.101682
-0.31748
-0.355503
-0.0742453
-0.158778
0
-0.278261
-0.389767
-0.240985
-0.327723
-0.323027
-0.139669
-0.367885
-0.210849
-0.316611
-0.287684
-0.123553
-0.43473
-0.266215
-0.325895
-0.15156
-0.356578
-0.22663
-0.136823
-0.0235802
-0.340768
-0.349411
-0.0536776
-0.301907
-0.0952166
-0.0205462
-0.345329
-0.182119
-0.211252
-0.102137
-0.31743
-0.39016
-0.243765
-0.28709
-0.14466
-0.352862
-0.199103
-0.0199749
-0.131046
-0.336372
-0.319747
-0.234477
-0.0391617
-0.411723
-0.248103
-0.336158
-0.331881
-0.145846
-0.378977
-0.224865
-0.325181
-0.302745
-0.130787
-0.288363
-0.0881005
-0.00997554
-0.333057
-0.168033
-0.305591
-0.192881
-0.0838243
-0.309458
-0.0230282
-0.0934107
-0.353215
-0.184625
-0.226295
-0.104433
-0.31647
-0.384461
-0.0713817
-0.296749
-0.0117756
-0.0861346
-0.341562
-0.170169
-0.207509
-0.0854178
-0.304741
-0.173916
-0.10331
-0.00988865
-0.317342
-0.291118
-0.345487
-0.20244
-0.0136296
-0.247587
-0.340712
-0.143758
-0.326977
-0.236187
-0.11829
-0.355462
-0.195028
-0.303375
-0.123264
-0.0151268
-0.226653
-0.328531
-0.327145
-0.14324
-0.384459
-0.242096
-0.333596
-0.128737
-0.0169388
-0.210419
-0.222098
-0.343149
-0.0250178
-0.137337
-0.428225
-0.269132
-0.360845
-0.316023
-0.151914
-0.345265
-0.0526779
-0.360373
-0.191538
-0.260428
-0.110842
-0.310174
-0.217929
-0.34443
-0.0265313
-0.138656
-0.420992
-0.269996
-0.362973
-0.305113
-0.151509
-0.376545
-0.447744
-0.267462
-0.155989
-0.072351
-0.339381
-0.246688
-0.0522726
-0.347799
-0.171456
-0.22649
-0.0871614
-0.302569
-0.392274
-0.240062
-0.329253
-0.319837
-0.137995
-0.392815
-0.23762
-0.331588
-0.316534
-0.136952
-0.171473
-0.0258589
-0.449827
-0.256668
-0.346747
-0.336842
-0.15283
-0.413339
-0.248685
-0.336767
-0.329995
-0.143906
-0.378686
-0.219633
-0.328133
-0.296906
-0.130031
-0.41435
-0.248506
-0.338522
-0.199834
-0.0369381
-0.328986
-0.143549
-0.376116
-0.215928
-0.288382
-0.129131
-0.330481
-0.519701
-0.266486
-0.357086
-0.340343
-0.165896
-0.447652
-0.291621
-0.371716
-0.318773
-0.159005
-0.39268
-0.473375
-0.277763
0
-0.166824
-0.0806587
-0.359602
-0.257282
-0.0634807
-0.358235
-0.187319
-0.245911
-0.108107
-0.313908
-0.308409
-0.0285377
-0.190866
-0.118719
-0.0132023
-0.32785
-0.337211
-0.41186
-0.248312
-0.332886
-0.148064
-0.347365
-0.261209
-0.150604
-0.0534424
-0.353158
0
-0.160087
-0.073734
-0.274146
-0.346416
-0.260136
-0.0549328
-0.151035
-0.352362
-0.162213
-0.0724022
0
-0.27131
-0.305671
-0.18429
-0.0827326
-0.323878
-0.165071
-0.305161
-0.182038
-0.0836428
-0.313991
-0.163025
-0.451557
-0.25832
-0.345942
-0.337594
-0.151643
-0.348993
-0.449697
-0.255523
-0.336324
-0.154377
-0.364588
-0.339269
-0.166367
-0.50801
-0.265106
0
-0.368655
-0.206647
-0.319851
-0.279844
-0.122203
-0.366307
-0.203387
-0.266735
-0.120655
-0.322535
-0.322192
-0.307662
-0.131786
-0.375653
-0.23041
-0.335046
-0.312361
-0.136383
-0.392325
-0.23363
-0.369542
-0.327853
-0.160705
-0.456093
-0.290648
-0.353505
-0.16478
0
-0.0732064
-0.268722
-0.121662
-0.0295025
-0.249086
-0.143481
-0.00276462
-0.094774
-0.176689
-0.287787
-0.293012
-0.123734
-0.365232
-0.217245
-0.313093
-0.278068
-0.112661
-0.357155
-0.198996
-0.300408
-0.0513812
-0.243215
-0.0901931
-0.351271
-0.17307
-0.29847
-0.0518942
-0.151001
-0.352152
-0.264342
-0.342071
-0.159166
-0.358848
-0.480324
-0.282941
-0.0340688
-0.143843
-0.345224
-0.246672
-0.336173
-0.155614
-0.448447
-0.256077
-0.353986
-0.142773
-0.243855
-0.330399
-0.336097
-0.156328
-0.448637
-0.258809
-0.360914
-0.285992
-0.150454
-0.332833
-0.150024
-0.344424
-0.415208
-0.250552
-0.0599994
-0.270932
-0.146412
-0.133874
-0.316972
-0.236627
-0.0329229
-0.333063
-0.149558
-0.413261
-0.249334
-0.340047
-0.265965
-0.147
-0.135214
-0.0289095
-0.235931
-0.317204
-0.336142
-0.156638
-0.448189
-0.262336
-0.368202
-0.0721393
-0.245365
-0.333783
-0.0516952
-0.294205
-0.15084
-0.411374
-0.266828
-0.297761
-0.123372
-0.362866
-0.222414
-0.309856
-0.0938052
-0.00264122
-0.180477
-0.283532
-0.311449
-0.133211
-0.373303
-0.233486
-0.319764
-0.111962
-0.00632308
-0.203108
-0.296158
-0.122849
-0.0227014
-0.325721
-0.142015
-0.327284
-0.386444
-0.241227
-0.0133953
-0.123376
-0.306646
-0.22609
-0.0782457
0
-0.06107
-0.0798451
0
-0.0187021
-0.128801
-0.334904
-0.204443
-0.0354769
-0.144375
-0.248022
-0.0651317
0
-0.155287
-0.0730376
-0.338839
-0.165998
-0.371765
-0.494104
-0.265252
0
-0.0768908
0
-0.293332
-0.155347
-0.336133
-0.160481
-0.364497
-0.464847
-0.287104
-0.0347744
-0.144208
-0.348661
-0.24816
-0.255415
-0.0931546
-0.352196
-0.174565
-0.293327
-0.0524182
-0.150541
-0.34922
-0.262364
-0.27068
-0.112269
-0.305535
-0.35908
-0.195066
-0.351345
-0.218914
-0.304855
-0.0153516
-0.111624
-0.0252556
-0.120282
-0.0149775
-0.327639
-0.186091
-0.315705
-0.134528
-0.318039
-0.371556
-0.235
-0.00607626
-0.110137
-0.291956
-0.207529
-0.14669
-0.0432634
-0.140598
-0.0327712
-0.273244
-0.150349
-0.154112
-0.0518917
-0.308572
-0.156788
-0.435821
-0.290827
-0.279121
-0.1503
-0.341499
-0.182647
-0.281899
-0.089052
-0.00862487
-0.341499
-0.182828
-0.278171
-0.00655926
-0.36275
-0.138908
-0.234125
-0.323017
-0.0419585
-0.0231096
-0.115925
-0.345621
-0.204666
-0.29213
-0.00916513
-0.103665
-0.289109
-0.00996289
-0.10791
-0.0109248
-0.171421
-0.476255
-0.285407
-0.398955
0
-0.0790794
-0.166495
-0.366591
-0.0618012
-0.221664
-0.014818
-0.117251
-0.302599
-0.0207228
-0.123705
-0.0161444
-0.182791
-0.258441
-0.140351
-0.361048
-0.21501
-0.185855
-0.0027001
-0.0908396
-0.277566
-0.0971541
-0.0059407
-0.218762
-0.129371
-0.247693
-0.14379
-0.129013
-0.0305087
-0.308179
-0.136555
-0.337789
-0.390547
-0.230747
-0.00662272
-0.107664
-0.289692
-0.210506
-0.127149
-0.0166071
-0.181828
-0.252803
-0.142403
-0.18409
-0.00256977
-0.091621
-0.279916
-0.0979161
-0.00504588
-0.351269
-0.218166
-0.129956
-0.106836
-0.0161239
-0.275517
-0.128746
-0.33239
-0.371531
-0.213139
-0.251115
-0.119192
-0.361839
-0.199186
-0.324836
-0.261605
-0.147173
-0.143124
-0.0388911
-0.143662
-0.0335165
-0.342803
-0.24651
-0.341685
-0.183837
-0.274788
-0.00455825
-0.0901135
-0.276063
-0.00456758
-0.087697
-0.00587435
-0.162369
-0.274756
-0.0902478
-0.342403
-0.18525
-0.27619
-0.00335353
-0.00623314
-0.0938512
-0.162194
-0.114888
-0.0107452
-0.234772
-0.138514
-0.136846
-0.0223209
-0.339323
-0.229163
-0.112043
-0.0111306
-0.170698
-0.235378
-0.136815
-0.0898457
-0.00461819
-0.300417
-0.155764
-0.0219381
-0.130094
-0.236183
-0.317561
-0.0361217
-0.020988
-0.133992
-0.195782
-0.277242
-0.145402
-0.383424
-0.237975
-0.105829
-0.289239
-0.208454
-0.00796649
-0.415654
-0.253091
-0.351484
-0.338778
-0.165597
-0.477572
-0.267268
-0.375581
0
0
-0.100523
-0.00956493
-0.121877
-0.301845
-0.224634
-0.0173584
-0.256992
-0.0778971
0
-0.0456548
-0.148952
-0.063208
-0.338803
-0.166272
-0.47157
-0.271008
-0.382761
-0.080591
0
-0.136151
-0.0313105
-0.295434
-0.345597
-0.115573
-0.200598
-0.0103885
-0.0974537
-0.0179597
-0.351704
-0.235353
-0.378126
-0.0364187
-0.132759
-0.0612602
-0.321114
-0.0348025
-0.0998215
-0.195178
-0.334738
-0.045865
-0.0219183
-0.106919
-0.289933
-0.420751
-0.0657724
-0.165406
0
-0.0741291
0
-0.406945
0
-0.0678346
-0.165554
-0.3914
-0.0474769
-0.15124
-0.0696398
-0.265247
-0.400755
-0.0481237
-0.148299
-0.0679423
-0.372261
-0.0372665
-0.137332
-0.0608755
-0.214085
-0.354624
-0.0540901
-0.0283359
-0.117569
-0.328125
-0.043917
-0.0231327
-0.110676
-0.314024
-0.0315324
-0.0163879
-0.102727
-0.11958
-0.0542963
-0.0667785
-0.0496118
-0.148369
-0.017191
-0.00627824
-0.087105
0
-0.0669586
-0.183368
0
-0.0695833
-0.00869573
-0.00349124
-0.0765239
-0.136296
-0.0604281
-0.0504036
-0.156463
-0.0644961
-0.0563032
-0.232088
-0.0565048
-0.0437006
-0.0281939
-0.180814
-0.0436444
-0.0316936
-0.18722
-0.0655595
-0.0498482
-0.15082
-0.0371103
-0.0978525
-0.071568
-0.220286
0
0
-0.068943
-0.187854
-0.0626131
-0.170736
-0.0635813
-0.0685783
-0.202719
0
0
-0.0692254
-0.00767568
-0.00307431
-0.0768017
-0.00810564
-0.00283966
-0.0765482
-0.0446475
-0.193776
-0.0247591
-0.0129141
-0.0838684
-0.143085
-0.0593647
-0.117033
-0.158432
-0.0494978
-0.0443484
-0.214894
-0.0616641
-0.0354553
-0.130532
-0.046957
-0.105001
-0.0543165
-0.0274989
-0.115646
-0.0173556
-0.00563039
-0.0895508
-0.016288
-0.00579359
-0.0881642
-0.0377976
-0.0148817
-0.133991
-0.0280382
-0.00940892
-0.111498
-0.0268302
-0.00953317
-0.106382
-0.0586065
-0.236981
-0.0559794
-0.0752368
-0.257221
0
-0.0628481
0
-0.0640694
-0.0209788
-0.0887301
-0.0208308
-0.00627669
-0.09018
-0.030306
-0.0119982
-0.118824
-0.0611928
-0.0355156
-0.132025
-0.0373376
-0.0159989
-0.140763
-0.029957
-0.0109338
-0.117337
-0.0370291
-0.0179106
-0.146517
-0.0548632
-0.116126
-0.0292191
-0.0100076
-0.114646
-0.0765672
-0.257581
-0.105599
-0.0466035
-0.0368274
-0.0201646
-0.151997
-0.0196453
-0.00595047
-0.0904932
-0.049402
-0.218898
-0.234594
0
-0.0677023
-0.0450607
-0.108079
-0.0229603
-0.00853183
-0.0863738
-0.0629866
-0.239218
-0.0436751
-0.112396
-0.0198807
-0.00710273
-0.0859361
-0.0886263
-0.0250188
-0.0528669
-0.126887
-0.0311374
-0.0116276
-0.0981072
-0.0965257
-0.0363149
-0.00511852
-0.0814596
-0.012581
-0.0236064
-0.156689
-0.0557729
-0.168282
-0.0393881
-0.014729
-0.127091
-0.00926157
-0.0726155
-0.0378754
-0.191764
-0.0615896
-0.202381
-0.0489222
-0.022377
-0.145369
-0.00920244
-0.0743898
-0.153228
-0.0576742
-0.0154304
-0.120146
-0.0418774
-0.254141
-0.063187
-0.0405123
-0.208901
-0.0500696
-0.00884021
-0.0027594
-0.0757885
0
-0.244171
-0.0656329
-0.135755
-0.0512336
-0.010417
-0.101252
-0.0278673
0
-0.0708136
0
-0.0662058
-0.171328
-0.0344588
-0.185693
-0.0534596
-0.0715849
-0.0871914
-0.0659145
-0.166577
0
0
-0.0721729
-0.045934
-0.0240514
-0.157882
-0.0598862
-0.21606
-0.0551194
-0.220241
-0.0442815
-0.0580325
-0.0717745
-0.0514742
-0.0874568
-0.0105926
-0.00374913
-0.0769375
-0.0335281
-0.0967811
-0.0121781
-0.00409775
-0.0785537
-0.0670279
-0.239275
-0.117902
