# vtk DataFile Version 2.0
Unstructured Grid by M++
ASCII
DATASET UNSTRUCTURED_GRID
POINTS 1089 float
  0.718750   0.687500 0
  0.750000   0.687500 0
  0.718750   0.656250 0
  0.750000   0.718750 0
  0.625000   0.562500 0
  0.625000   0.593750 0
  0.656250   0.593750 0
  0.750000   0.750000 0
  0.687500   0.656250 0
  0.687500   0.625000 0
  0.656250   0.625000 0
  0.906250   0.593750 0
  1.000000   0.968750 0
  0.750000   0.968750 0
  0.718750   0.968750 0
  0.718750   1.000000 0
  0.750000   1.000000 0
  0.906250   0.906250 0
  0.843750   0.531250 0
  0.656250   0.937500 0
  0.656250   0.906250 0
  0.562500   0.812500 0
  0.562500   0.843750 0
  0.593750   0.875000 0
  0.593750   0.843750 0
  0.812500   0.718750 0
  0.625000   0.625000 0
  0.968750   0.875000 0
  0.531250   0.875000 0
  0.625000   0.937500 0
  0.562500   0.562500 0
  0.906250   0.812500 0
  0.531250   0.781250 0
  0.562500   0.593750 0
  0.906250   0.843750 0
  0.625000   0.656250 0
  0.968750   0.906250 0
  0.687500   0.968750 0
  0.812500   0.812500 0
  0.687500   1.000000 0
  0.687500   0.687500 0
  0.937500   0.843750 0
  0.593750   0.593750 0
  1.000000   0.625000 0
  0.968750   0.593750 0
  0.906250   0.875000 0
  0.968750   0.625000 0
  0.625000   0.875000 0
  0.875000   0.875000 0
  0.625000   0.906250 0
  0.875000   0.843750 0
  0.531250   0.812500 0
  0.968750   0.562500 0
  0.593750   0.625000 0
  0.937500   0.875000 0
  0.656250   0.687500 0
  1.000000   0.937500 0
  0.875000   0.562500 0
  0.687500   0.937500 0
  0.937500   0.625000 0
  0.812500   0.781250 0
  0.937500   0.562500 0
  0.875000   0.781250 0
  0.531250   0.531250 0
  0.718750   0.937500 0
  0.968750   0.937500 0
  0.906250   0.562500 0
  0.843750   0.781250 0
  0.593750   0.562500 0
  1.000000   0.906250 0
  0.656250   0.656250 0
  0.937500   0.906250 0
  0.875000   0.531250 0
  0.812500   0.750000 0
  0.656250   0.968750 0
  0.937500   0.531250 0
  0.843750   0.812500 0
  0.906250   0.531250 0
  0.843750   0.750000 0
  0.937500   0.593750 0
  0.875000   0.812500 0
  0.531250   0.562500 0
  1.000000   0.593750 0
  0.562500   0.906250 0
  0.562500   0.531250 0
  0.593750   0.906250 0
  0.593750   0.937500 0
  0.562500   0.875000 0
  0.781250   0.750000 0
  0.781250   0.781250 0
  0.593750   0.531250 0
  1.000000   0.687500 0
  0.531250   0.843750 0
  0.718750   0.718750 0
  0.781250   0.718750 0
  0.781250   0.687500 0
  1.000000   0.656250 0
  0.968750   0.656250 0
  0.843750   0.843750 0
  0.781250   1.000000 0
  0.656250   0.312500 0
  0.531250   0.250000 0
  0.875000   0.500000 0
  0.531250   0.218750 0
  0.875000   0.468750 0
  0.531250   0.156250 0
  0.593750   0.812500 0
  0.093750   0.562500 0
  0.656250   0.562500 0
  0.156250   0.312500 0
  0.031250   0.812500 0
  0.125000   1.000000 0
  0.312500   0.250000 0
  0.250000   0.500000 0
  0.375000   0.000000 0
  0.187500   0.750000 0
  0.812500   0.906250 0
  0.312500   0.656250 0
  0.250000   0.906250 0
  0.875000   0.656250 0
  0.375000   0.406250 0
  0.750000   0.843750 0
  0.250000   0.593750 0
  0.187500   0.843750 0
  0.812500   0.593750 0
  0.312500   0.343750 0
  0.625000   0.968750 0
  0.125000   0.718750 0
  0.687500   0.718750 0
  0.187500   0.468750 0
  0.062500   0.968750 0
  0.125000   0.656250 0
  0.187500   0.406250 0
  0.250000   0.156250 0
  0.062500   0.906250 0
  0.468750   0.906250 0
  0.656250   0.156250 0
  0.468750   0.812500 0
  0.593750   0.312500 0
  0.656250   0.062500 0
  0.625000   0.812500 0
  0.125000   0.562500 0
  0.687500   0.562500 0
  0.187500   0.312500 0
  0.062500   0.812500 0
  0.562500   0.937500 0
  0.062500   0.687500 0
  0.625000   0.687500 0
  0.125000   0.437500 0
  0.000000   0.937500 0
  0.062500   0.625000 0
  0.187500   0.125000 0
  0.125000   0.375000 0
  0.000000   0.875000 0
  0.406250   0.875000 0
  0.468750   0.625000 0
  0.593750   0.125000 0
  0.812500   0.937500 0
  0.312500   0.687500 0
  0.250000   0.937500 0
  0.875000   0.687500 0
  0.375000   0.437500 0
  0.750000   0.875000 0
  0.250000   0.625000 0
  0.187500   0.875000 0
  0.812500   0.625000 0
  0.312500   0.375000 0
  0.468750   0.781250 0
  0.593750   0.281250 0
  0.656250   0.031250 0
  0.625000   0.781250 0
  0.125000   0.531250 0
  0.062500   0.781250 0
  0.687500   0.531250 0
  0.187500   0.281250 0
  0.500000   0.812500 0
  0.687500   0.062500 0
  0.625000   0.312500 0
  0.656250   0.812500 0
  0.156250   0.562500 0
  0.718750   0.562500 0
  0.218750   0.312500 0
  0.093750   0.812500 0
  0.437500   0.968750 0
  0.625000   0.218750 0
  0.500000   0.781250 0
  0.687500   0.031250 0
  0.625000   0.281250 0
  0.656250   0.781250 0
  0.156250   0.531250 0
  0.718750   0.531250 0
  0.218750   0.281250 0
  0.093750   0.781250 0
  0.062500   0.562500 0
  0.125000   0.312500 0
  0.187500   0.062500 0
  0.000000   0.812500 0
  0.406250   0.812500 0
  0.968750   0.812500 0
  0.468750   0.562500 0
  0.593750   0.062500 0
  0.218750   0.687500 0
  0.156250   0.937500 0
  0.281250   0.437500 0
  0.062500   0.843750 0
  0.687500   0.593750 0
  0.187500   0.343750 0
  0.625000   0.843750 0
  0.125000   0.593750 0
  0.312500   0.843750 0
  0.437500   0.343750 0
  0.500000   0.093750 0
  0.375000   0.593750 0
  0.312500   0.906250 0
  0.937500   0.656250 0
  0.437500   0.406250 0
  0.875000   0.906250 0
  0.375000   0.656250 0
  0.062500   0.875000 0
  0.187500   0.375000 0
  0.250000   0.125000 0
  0.125000   0.625000 0
  0.093750   0.656250 0
  0.031250   0.906250 0
  0.218750   0.156250 0
  0.156250   0.406250 0
  0.593750   0.968750 0
  0.093750   0.718750 0
  0.031250   0.968750 0
  0.656250   0.718750 0
  0.156250   0.468750 0
  0.437500   0.906250 0
  0.625000   0.156250 0
  0.718750   0.812500 0
  0.218750   0.562500 0
  0.781250   0.562500 0
  0.281250   0.312500 0
  0.156250   0.812500 0
  0.062500   0.656250 0
  0.000000   0.906250 0
  0.187500   0.156250 0
  0.125000   0.406250 0
  0.562500   0.968750 0
  0.062500   0.718750 0
  0.000000   0.968750 0
  0.625000   0.718750 0
  0.125000   0.468750 0
  0.406250   0.968750 0
  0.968750   0.968750 0
  0.468750   0.718750 0
  0.531250   0.468750 0
  0.593750   0.218750 0
  0.406250   0.906250 0
  0.468750   0.656250 0
  0.593750   0.156250 0
  0.687500   0.781250 0
  0.187500   0.531250 0
  0.750000   0.531250 0
  0.250000   0.281250 0
  0.125000   0.781250 0
  0.781250   0.906250 0
  0.281250   0.656250 0
  0.218750   0.906250 0
  0.843750   0.656250 0
  0.343750   0.406250 0
  0.750000   0.906250 0
  0.250000   0.656250 0
  0.187500   0.906250 0
  0.812500   0.656250 0
  0.312500   0.406250 0
  0.875000   0.406250 0
  0.375000   0.156250 0
  0.812500   0.968750 0
  0.312500   0.718750 0
  0.250000   0.968750 0
  0.875000   0.718750 0
  0.375000   0.468750 0
  0.781250   0.937500 0
  0.281250   0.687500 0
  0.218750   0.937500 0
  0.843750   0.687500 0
  0.343750   0.437500 0
  0.718750   0.875000 0
  0.218750   0.625000 0
  0.156250   0.875000 0
  0.781250   0.625000 0
  0.281250   0.375000 0
  0.750000   0.937500 0
  0.250000   0.687500 0
  0.187500   0.937500 0
  0.875000   0.437500 0
  0.375000   0.187500 0
  0.812500   0.687500 0
  0.312500   0.437500 0
  0.687500   0.875000 0
  0.187500   0.625000 0
  0.750000   0.625000 0
  0.250000   0.375000 0
  0.125000   0.875000 0
  0.812500   1.000000 0
  0.312500   0.750000 0
  0.250000   1.000000 0
  0.875000   0.750000 0
  0.375000   0.500000 0
  0.562500   1.000000 0
  0.062500   0.750000 0
  0.000000   1.000000 0
  0.625000   0.750000 0
  0.125000   0.500000 0
  0.406250   1.000000 0
  0.968750   1.000000 0
  0.468750   0.750000 0
  0.656250   0.000000 0
  0.531250   0.500000 0
  0.593750   0.250000 0
  0.406250   0.937500 0
  0.468750   0.687500 0
  0.593750   0.187500 0
  0.687500   0.812500 0
  0.187500   0.562500 0
  0.750000   0.562500 0
  0.250000   0.312500 0
  0.125000   0.812500 0
  0.437500   0.843750 0
  0.625000   0.093750 0
  0.093750   0.593750 0
  0.156250   0.343750 0
  0.218750   0.093750 0
  0.031250   0.843750 0
  0.281250   0.937500 0
  0.843750   0.937500 0
  0.343750   0.687500 0
  0.906250   0.687500 0
  0.406250   0.437500 0
  0.156250   0.968750 0
  0.218750   0.718750 0
  0.281250   0.468750 0
  0.343750   0.218750 0
  0.156250   1.000000 0
  0.406250   0.000000 0
  0.281250   0.500000 0
  0.343750   0.250000 0
  0.218750   0.750000 0
  0.187500   0.968750 0
  0.250000   0.718750 0
  0.375000   0.218750 0
  0.312500   0.468750 0
  0.187500   1.000000 0
  0.312500   0.500000 0
  0.375000   0.250000 0
  0.437500   0.000000 0
  0.250000   0.750000 0
  0.031250   0.781250 0
  0.656250   0.531250 0
  0.156250   0.281250 0
  0.593750   0.781250 0
  0.093750   0.531250 0
  0.000000   0.781250 0
  0.625000   0.531250 0
  0.125000   0.281250 0
  0.562500   0.781250 0
  0.062500   0.531250 0
  0.781250   0.968750 0
  0.281250   0.718750 0
  0.218750   0.968750 0
  0.843750   0.718750 0
  0.343750   0.468750 0
  0.281250   0.968750 0
  0.843750   0.968750 0
  0.343750   0.718750 0
  0.906250   0.718750 0
  0.406250   0.468750 0
  0.281250   1.000000 0
  0.906250   0.750000 0
  0.406250   0.500000 0
  0.843750   1.000000 0
  0.343750   0.750000 0
  0.531250   0.000000 0
  0.718750   0.843750 0
  0.218750   0.593750 0
  0.156250   0.843750 0
  0.781250   0.593750 0
  0.281250   0.343750 0
  0.687500   0.843750 0
  0.187500   0.593750 0
  0.750000   0.593750 0
  0.250000   0.343750 0
  0.125000   0.843750 0
  0.218750   0.875000 0
  0.843750   0.625000 0
  0.343750   0.375000 0
  0.781250   0.875000 0
  0.281250   0.625000 0
  0.156250   0.906250 0
  0.781250   0.656250 0
  0.281250   0.406250 0
  0.718750   0.906250 0
  0.218750   0.656250 0
  0.031250   1.000000 0
  0.656250   0.750000 0
  0.156250   0.500000 0
  0.593750   1.000000 0
  0.093750   0.750000 0
  0.218750   1.000000 0
  0.343750   0.500000 0
  0.468750   0.000000 0
  0.406250   0.250000 0
  0.281250   0.750000 0
  0.593750   0.406250 0
  0.093750   0.156250 0
  0.531250   0.656250 0
  0.031250   0.406250 0
[...]
POINT_DATA 1089
SCALARS scalar_value float 1
LOOKUP_TABLE default
-0.318216
-0.31655
-0.291602
-0.332397
-0.231761
-0.245895
-0.250968
-0.341947
-0.293466
-0.271877
-0.27073
-0.277444
-0.421355
-0.403276
-0.397842
-0.432597
-0.434533
-0.385059
-0.248505
-0.371903
-0.366687
-0.357908
-0.361278
-0.364144
-0.361885
-0.328393
-0.269705
-0.378758
-0.363547
-0.37036
-0.22821
-0.354182
-0.350687
-0.243476
-0.362357
-0.296153
-0.394351
-0.39141
-0.354532
-0.425028
-0.320396
-0.364145
-0.24368
-0.293531
-0.282067
-0.371561
-0.293689
-0.364213
-0.369421
-0.366646
-0.361206
-0.356641
-0.268894
-0.266669
-0.374783
-0.321858
-0.409609
-0.26321
-0.375082
-0.29406
-0.346702
-0.266971
-0.346783
-0.215464
-0.379945
-0.408749
-0.26538
-0.346702
-0.228921
-0.394996
-0.296187
-0.390919
-0.25102
-0.338184
-0.384041
-0.256073
-0.354084
-0.254165
-0.338025
-0.280752
-0.35386
-0.227608
-0.282128
-0.365986
-0.217069
-0.366414
-0.369076
-0.363933
-0.339465
-0.347899
-0.219494
-0.320623
-0.360656
-0.336356
-0.329606
-0.316321
-0.306897
-0.307874
-0.360328
-0.432842
-0.194935
-0.17971
-0.241114
-0.173637
-0.233667
-0.152668
-0.358673
-0.201322
-0.236408
-0.173256
-0.291428
-0.384642
-0.171598
-0.187349
0
-0.294631
-0.375651
-0.272112
-0.357485
-0.305321
-0.185632
-0.360527
-0.227496
-0.332906
-0.270209
-0.18005
-0.378308
-0.270438
-0.33946
-0.183011
-0.356452
-0.245849
-0.179273
-0.137902
-0.320879
-0.364282
-0.151778
-0.354711
-0.193484
-0.0828167
-0.359136
-0.201666
-0.24354
-0.174678
-0.292382
-0.367692
-0.255358
-0.320421
-0.18156
-0.328706
-0.231251
-0.1206
-0.177542
-0.304873
-0.360646
-0.257814
-0.133779
-0.389836
-0.295022
-0.359992
-0.319293
-0.188044
-0.365109
-0.249407
-0.342426
-0.283466
-0.181228
-0.345741
-0.1891
-0.0465754
-0.355421
-0.193325
-0.283616
-0.232922
-0.171835
-0.355632
-0.0805958
-0.194371
-0.359314
-0.203063
-0.249628
-0.175784
-0.296106
-0.365819
-0.176244
-0.348287
-0.0420993
-0.189813
-0.355411
-0.19281
-0.237929
-0.173205
-0.287086
-0.201379
-0.171981
-0.0648208
-0.291458
-0.351068
-0.356566
-0.223823
-0.0859458
-0.276376
-0.352856
-0.182739
-0.299811
-0.256885
-0.176735
-0.362091
-0.214979
-0.353023
-0.185078
-0.114517
-0.231388
-0.360234
-0.308566
-0.19081
-0.380401
-0.281837
-0.307997
-0.17817
-0.116291
-0.231394
-0.245416
-0.316662
-0.137286
-0.179288
-0.374106
-0.266052
-0.350275
-0.340052
-0.183287
-0.363416
-0.151353
-0.35776
-0.20797
-0.257428
-0.177547
-0.31131
-0.245404
-0.315647
-0.14099
-0.179609
-0.370819
-0.264382
-0.347299
-0.338331
-0.183848
-0.364818
-0.421006
-0.318585
-0.205793
-0.176433
-0.362613
-0.279283
-0.151203
-0.354387
-0.19246
-0.242389
-0.174161
-0.293457
-0.373702
-0.269612
-0.35474
-0.303303
-0.18388
-0.371305
-0.267217
-0.350408
-0.301668
-0.182393
-0.219184
-0.150793
-0.410014
-0.314334
-0.362202
-0.331052
-0.191333
-0.386817
-0.287744
-0.358666
-0.31712
-0.185809
-0.364339
-0.246582
-0.333718
-0.279569
-0.180224
-0.383844
-0.281367
-0.356337
-0.225876
-0.160186
-0.316516
-0.184079
-0.364188
-0.240246
-0.276922
-0.179342
-0.323034
-0.432726
-0.327382
-0.364567
-0.339206
-0.195849
-0.375038
-0.273882
-0.380631
-0.348676
-0.187565
-0.36601
-0.429679
-0.333993
0
-0.20901
-0.183286
-0.363935
-0.299363
-0.165166
-0.358851
-0.205435
-0.254851
-0.176811
-0.302994
-0.358108
-0.112084
-0.214255
-0.175971
-0.0894163
-0.297875
-0.360978
-0.392896
-0.301222
-0.320954
-0.190867
-0.362563
-0.288805
-0.18515
-0.166766
-0.378125
0
-0.189097
-0.171793
-0.302718
-0.362864
-0.297489
-0.166781
-0.18665
-0.369453
-0.191099
-0.171989
0
-0.31312
-0.282736
-0.227432
-0.170104
-0.354309
-0.193519
-0.282777
-0.22277
-0.168839
-0.352641
-0.194006
-0.407728
-0.307093
-0.362338
-0.329264
-0.188785
-0.362535
-0.412037
-0.317301
-0.33173
-0.194307
-0.363896
-0.339922
-0.199095
-0.435167
-0.328567
0
-0.361266
-0.226756
-0.32224
-0.267681
-0.179158
-0.36182
-0.223365
-0.265132
-0.178402
-0.31223
-0.349124
-0.287089
-0.182415
-0.365951
-0.248063
-0.344821
-0.298174
-0.181261
-0.368779
-0.263504
-0.380025
-0.349319
-0.186794
-0.380668
-0.276748
-0.366237
-0.193485
0
-0.172364
-0.322229
-0.203556
-0.152108
-0.282502
-0.179693
-0.0361438
-0.175391
-0.197545
-0.318528
-0.273099
-0.18101
-0.360004
-0.226044
-0.341461
-0.261038
-0.178666
-0.354982
-0.210666
-0.330693
-0.164631
-0.245585
-0.174778
-0.352813
-0.193073
-0.300821
-0.165558
-0.183047
-0.36
-0.276298
-0.345545
-0.18637
-0.381355
-0.405637
-0.288078
-0.155718
-0.180871
-0.342742
-0.264301
-0.331746
-0.197621
-0.414856
-0.31738
-0.362933
-0.194396
-0.281965
-0.361061
-0.331
-0.200908
-0.417774
-0.31698
-0.363445
-0.330453
-0.185312
-0.320649
-0.197405
-0.362554
-0.400577
-0.301453
-0.165131
-0.309712
-0.18235
-0.191397
-0.358403
-0.25498
-0.136112
-0.321016
-0.193938
-0.396625
-0.301985
-0.361819
-0.303276
-0.182696
-0.187839
-0.136605
-0.251933
-0.357502
-0.33058
-0.203464
-0.420095
-0.317373
-0.36397
-0.175671
-0.279754
-0.361924
-0.15134
-0.334588
-0.184577
-0.368551
-0.263802
-0.275184
-0.181978
-0.359917
-0.225878
-0.347703
-0.175717
-0.0337635
-0.199591
-0.327041
-0.289681
-0.183835
-0.366653
-0.246395
-0.35361
-0.179353
-0.0785397
-0.211234
-0.337833
-0.196868
-0.148232
-0.307789
-0.187804
-0.359115
-0.377547
-0.275795
-0.115568
-0.183241
-0.350994
-0.227878
-0.164886
0
-0.161794
-0.164768
0
-0.116441
-0.177824
-0.305507
-0.229709
-0.153476
-0.180997
-0.256124
-0.161917
0
-0.190092
-0.164941
-0.33961
-0.202301
-0.363912
-0.436018
-0.328017
0
-0.183567
0
-0.340851
-0.18977
-0.348261
-0.186232
-0.379157
-0.389822
-0.282169
-0.15395
-0.180655
-0.335864
-0.258728
-0.246999
-0.175225
-0.350371
-0.194914
-0.308403
-0.166299
-0.183777
-0.361578
-0.282534
-0.259116
-0.178161
-0.320799
-0.356164
-0.209928
-0.366062
-0.240566
-0.356543
-0.136111
-0.193797
-0.11368
-0.175197
-0.0961676
-0.297341
-0.214947
-0.292693
-0.185581
-0.355934
-0.367688
-0.248345
-0.0791154
-0.180399
-0.342634
-0.213592
-0.202858
-0.157824
-0.197022
-0.154446
-0.32122
-0.186099
-0.207426
-0.161608
-0.347073
-0.188337
-0.371003
-0.272983
-0.325805
-0.185939
-0.348886
-0.213591
-0.343585
-0.187286
-0.0489376
-0.34837
-0.21204
-0.342039
-0.0463116
-0.380828
-0.176438
-0.259328
-0.361454
-0.133658
-0.146972
-0.199197
-0.355332
-0.2221
-0.269709
-0.107538
-0.187217
-0.349993
-0.0821846
-0.170972
-0.07549
-0.202426
-0.429759
-0.336914
-0.366836
0
-0.183908
-0.21086
-0.36482
-0.164568
-0.238273
-0.136887
-0.190897
-0.355371
-0.11521
-0.174395
-0.108213
-0.216909
-0.292882
-0.179876
-0.365381
-0.244882
-0.203801
-0.0365451
-0.178351
-0.336987
-0.16729
-0.0541866
-0.243371
-0.173531
-0.279921
-0.179522
-0.201959
-0.153345
-0.293974
-0.180289
-0.337413
-0.367121
-0.256501
-0.0789479
-0.182154
-0.345469
-0.216795
-0.173848
-0.122109
-0.218125
-0.286507
-0.179879
-0.201268
-0.0341201
-0.176675
-0.333275
-0.167119
-0.0626101
-0.367233
-0.242382
-0.173369
-0.196154
-0.134261
-0.274573
-0.178661
-0.31393
-0.364238
-0.234832
-0.261524
-0.177538
-0.362012
-0.218834
-0.304274
-0.300791
-0.183022
-0.20467
-0.15782
-0.181556
-0.157929
-0.34876
-0.271278
-0.347496
-0.210141
-0.258438
-0.0586225
-0.182794
-0.340711
-0.0421856
-0.168067
-0.0379038
-0.194868
-0.257607
-0.180497
-0.346953
-0.207142
-0.339286
-0.0389203
-0.0435595
-0.167609
-0.195598
-0.169895
-0.102853
-0.26114
-0.176452
-0.179616
-0.141735
-0.328173
-0.249391
-0.170353
-0.0890326
-0.203813
-0.263059
-0.176719
-0.185114
-0.0621999
-0.344804
-0.189094
-0.148907
-0.194135
-0.256651
-0.359306
-0.135434
-0.13075
-0.177148
-0.232148
-0.316434
-0.18201
-0.366657
-0.25499
-0.184477
-0.348086
-0.219717
-0.0802131
-0.405345
-0.299895
-0.3632
-0.339465
-0.205041
-0.433743
-0.328939
-0.364256
0
0
-0.189925
-0.109162
-0.187967
-0.354341
-0.235382
-0.114689
-0.248131
-0.177428
0
-0.157752
-0.20023
-0.165697
-0.339409
-0.207082
-0.430643
-0.331236
-0.364824
-0.181705
0
-0.199734
-0.154031
-0.352912
-0.35706
-0.169594
-0.225999
-0.109327
-0.192117
-0.0854701
-0.330274
-0.254846
-0.365958
-0.156524
-0.208037
-0.163291
-0.35984
-0.113924
-0.198853
-0.231467
-0.363031
-0.138176
-0.13878
-0.202513
-0.272896
-0.368731
-0.165387
-0.21598
0
-0.182164
0
-0.367433
0
-0.164955
-0.213061
-0.36646
-0.161566
-0.209199
-0.174737
-0.263646
-0.367199
-0.161688
-0.211406
-0.172898
-0.365469
-0.157501
-0.206168
-0.164009
-0.244487
-0.364804
-0.152331
-0.149617
-0.205313
-0.362223
-0.135628
-0.144148
-0.20101
-0.359018
-0.111705
-0.130523
-0.197707
-0.21244
-0.148075
-0.172722
-0.161891
-0.214908
-0.0405859
-0.0566439
-0.195935
0
-0.169504
-0.228938
0
-0.182678
-0.0158467
-0.0278907
-0.190068
-0.217892
-0.161148
-0.162941
-0.222846
-0.172647
-0.166916
-0.234335
-0.155035
-0.106869
-0.150925
-0.220222
-0.106264
-0.150871
-0.221475
-0.17272
-0.162186
-0.218831
-0.114797
-0.200047
-0.171235
-0.234914
0
0
-0.182537
-0.228753
-0.171131
-0.226208
-0.172403
-0.17068
-0.232287
0
0
-0.182628
-0.0128349
-0.0316257
-0.191183
-0.0108761
-0.0353055
-0.191927
-0.152597
-0.222786
-0.077138
-0.0384954
-0.189974
-0.22118
-0.157143
-0.211469
-0.217606
-0.132831
-0.16035
-0.226881
-0.162959
-0.155124
-0.210515
-0.138337
-0.203857
-0.152543
-0.146314
-0.207124
-0.0263163
-0.0707826
-0.198605
-0.0323311
-0.0639247
-0.197057
-0.0787484
-0.13194
-0.211721
-0.0502057
-0.103756
-0.204491
-0.05886
-0.0968545
-0.202674
-0.167444
-0.236259
-0.15274
-0.173435
-0.246587
0
-0.174432
0
-0.179369
-0.0173061
-0.202225
-0.0186487
-0.0758442
-0.20106
-0.0346416
-0.115848
-0.210516
-0.162807
-0.15407
-0.214245
-0.0717431
-0.135776
-0.213417
-0.0367687
-0.113313
-0.209042
-0.0700384
-0.137336
-0.214913
-0.151958
-0.209778
-0.0427533
-0.108717
-0.206951
-0.175246
-0.247911
-0.205452
-0.135661
-0.0703157
-0.137398
-0.216542
-0.0217939
-0.0739385
-0.19992
-0.161548
-0.228275
-0.237083
0
-0.182478
-0.127149
-0.207401
-0.0596634
-0.056619
-0.195705
-0.16849
-0.238836
-0.114924
-0.208677
-0.0489655
-0.0531313
-0.195587
-0.195352
-0.0706189
-0.140327
-0.215085
-0.0811822
-0.0875696
-0.201483
-0.20106
-0.108332
-0.034475
-0.189604
-0.0331174
-0.13725
-0.217566
-0.14731
-0.224996
-0.0910593
-0.125712
-0.210513
-0.00833208
-0.192363
-0.151301
-0.222462
-0.16925
-0.230729
-0.120695
-0.145184
-0.218424
-0.00844034
-0.192912
-0.223476
-0.152004
-0.119321
-0.20957
-0.104092
-0.243846
-0.176379
-0.160175
-0.226167
-0.133295
-0.0094817
-0.0371055
-0.192602
0
-0.239187
-0.181394
-0.217158
-0.130683
-0.0908184
-0.201762
-0.0709642
0
-0.181823
0
-0.167924
-0.224779
-0.15957
-0.225609
-0.141861
-0.193319
-0.203471
-0.166455
-0.220736
0
0
-0.181057
-0.11053
-0.149005
-0.218788
-0.166165
-0.232522
-0.163401
-0.229645
-0.10703
-0.161045
-0.192752
-0.136368
-0.203115
-0.0202179
-0.0264728
-0.189246
-0.0945934
-0.201326
-0.0269053
-0.0296622
-0.189082
-0.170835
-0.239838
-0.211199
