# vtk DataFile Version 2.0
Unstructured Grid by M++
ASCII
DATASET UNSTRUCTURED_GRID
POINTS 1089 float
  0.718750   0.687500 0
  0.750000   0.687500 0
  0.718750   0.656250 0
  0.750000   0.718750 0
  0.625000   0.562500 0
  0.625000   0.593750 0
  0.656250   0.593750 0
  0.750000   0.750000 0
  0.687500   0.656250 0
  0.687500   0.625000 0
  0.656250   0.625000 0
  0.906250   0.593750 0
  1.000000   0.968750 0
  0.750000   0.968750 0
  0.718750   0.968750 0
  0.718750   1.000000 0
  0.750000   1.000000 0
  0.906250   0.906250 0
  0.843750   0.531250 0
  0.656250   0.937500 0
  0.656250   0.906250 0
  0.562500   0.812500 0
  0.562500   0.843750 0
  0.593750   0.875000 0
  0.593750   0.843750 0
  0.812500   0.718750 0
  0.625000   0.625000 0
  0.968750   0.875000 0
  0.531250   0.875000 0
  0.625000   0.937500 0
  0.562500   0.562500 0
  0.906250   0.812500 0
  0.531250   0.781250 0
  0.562500   0.593750 0
  0.906250   0.843750 0
  0.625000   0.656250 0
  0.968750   0.906250 0
  0.687500   0.968750 0
  0.812500   0.812500 0
  0.687500   1.000000 0
  0.687500   0.687500 0
  0.937500   0.843750 0
  0.593750   0.593750 0
  1.000000   0.625000 0
  0.968750   0.593750 0
  0.906250   0.875000 0
  0.968750   0.625000 0
  0.625000   0.875000 0
  0.875000   0.875000 0
  0.625000   0.906250 0
  0.875000   0.843750 0
  0.531250   0.812500 0
  0.968750   0.562500 0
  0.593750   0.625000 0
  0.937500   0.875000 0
  0.656250   0.687500 0
  1.000000   0.937500 0
  0.875000   0.562500 0
  0.687500   0.937500 0
  0.937500   0.625000 0
  0.812500   0.781250 0
  0.937500   0.562500 0
  0.875000   0.781250 0
  0.531250   0.531250 0
  0.718750   0.937500 0
  0.968750   0.937500 0
  0.906250   0.562500 0
  0.843750   0.781250 0
  0.593750   0.562500 0
  1.000000   0.906250 0
  0.656250   0.656250 0
  0.937500   0.906250 0
  0.875000   0.531250 0
  0.812500   0.750000 0
  0.656250   0.968750 0
  0.937500   0.531250 0
  0.843750   0.812500 0
  0.906250   0.531250 0
  0.843750   0.750000 0
  0.937500   0.593750 0
  0.875000   0.812500 0
  0.531250   0.562500 0
  1.000000   0.593750 0
  0.562500   0.906250 0
  0.562500   0.531250 0
  0.593750   0.906250 0
  0.593750   0.937500 0
  0.562500   0.875000 0
  0.781250   0.750000 0
  0.781250   0.781250 0
  0.593750   0.531250 0
  1.000000   0.687500 0
  0.531250   0.843750 0
  0.718750   0.718750 0
  0.781250   0.718750 0
  0.781250   0.687500 0
  1.000000   0.656250 0
  0.968750   0.656250 0
  0.843750   0.843750 0
  0.781250   1.000000 0
  0.656250   0.312500 0
  0.531250   0.250000 0
  0.875000   0.500000 0
  0.531250   0.218750 0
  0.875000   0.468750 0
  0.531250   0.156250 0
  0.593750   0.812500 0
  0.093750   0.562500 0
  0.656250   0.562500 0
  0.156250   0.312500 0
  0.031250   0.812500 0
  0.125000   1.000000 0
  0.312500   0.250000 0
  0.250000   0.500000 0
  0.375000   0.000000 0
  0.187500   0.750000 0
  0.812500   0.906250 0
  0.312500   0.656250 0
  0.250000   0.906250 0
  0.875000   0.656250 0
  0.375000   0.406250 0
  0.750000   0.843750 0
  0.250000   0.593750 0
  0.187500   0.843750 0
  0.812500   0.593750 0
  0.312500   0.343750 0
  0.625000   0.968750 0
  0.125000   0.718750 0
  0.687500   0.718750 0
  0.187500   0.468750 0
  0.062500   0.968750 0
  0.125000   0.656250 0
  0.187500   0.406250 0
  0.250000   0.156250 0
  0.062500   0.906250 0
  0.468750   0.906250 0
  0.656250   0.156250 0
  0.468750   0.812500 0
  0.593750   0.312500 0
  0.656250   0.062500 0
  0.625000   0.812500 0
  0.125000   0.562500 0
  0.687500   0.562500 0
  0.187500   0.312500 0
  0.062500   0.812500 0
  0.562500   0.937500 0
  0.062500   0.687500 0
  0.625000   0.687500 0
  0.125000   0.437500 0
  0.000000   0.937500 0
  0.062500   0.625000 0
  0.187500   0.125000 0
  0.125000   0.375000 0
  0.000000   0.875000 0
  0.406250   0.875000 0
  0.468750   0.625000 0
  0.593750   0.125000 0
  0.812500   0.937500 0
  0.312500   0.687500 0
  0.250000   0.937500 0
  0.875000   0.687500 0
  0.375000   0.437500 0
  0.750000   0.875000 0
  0.250000   0.625000 0
  0.187500   0.875000 0
  0.812500   0.625000 0
  0.312500   0.375000 0
  0.468750   0.781250 0
  0.593750   0.281250 0
  0.656250   0.031250 0
  0.625000   0.781250 0
  0.125000   0.531250 0
  0.062500   0.781250 0
  0.687500   0.531250 0
  0.187500   0.281250 0
  0.500000   0.812500 0
  0.687500   0.062500 0
  0.625000   0.312500 0
  0.656250   0.812500 0
  0.156250   0.562500 0
  0.718750   0.562500 0
  0.218750   0.312500 0
  0.093750   0.812500 0
  0.437500   0.968750 0
  0.625000   0.218750 0
  0.500000   0.781250 0
  0.687500   0.031250 0
  0.625000   0.281250 0
  0.656250   0.781250 0
  0.156250   0.531250 0
  0.718750   0.531250 0
  0.218750   0.281250 0
  0.093750   0.781250 0
  0.062500   0.562500 0
  0.125000   0.312500 0
  0.187500   0.062500 0
  0.000000   0.812500 0
  0.406250   0.812500 0
  0.968750   0.812500 0
  0.468750   0.562500 0
  0.593750   0.062500 0
  0.218750   0.687500 0
  0.156250   0.937500 0
  0.281250   0.437500 0
  0.062500   0.843750 0
  0.687500   0.593750 0
  0.187500   0.343750 0
  0.625000   0.843750 0
  0.125000   0.593750 0
  0.312500   0.843750 0
  0.437500   0.343750 0
  0.500000   0.093750 0
  0.375000   0.593750 0
  0.312500   0.906250 0
  0.937500   0.656250 0
  0.437500   0.406250 0
  0.875000   0.906250 0
  0.375000   0.656250 0
  0.062500   0.875000 0
  0.187500   0.375000 0
  0.250000   0.125000 0
  0.125000   0.625000 0
  0.093750   0.656250 0
  0.031250   0.906250 0
  0.218750   0.156250 0
  0.156250   0.406250 0
  0.593750   0.968750 0
  0.093750   0.718750 0
  0.031250   0.968750 0
  0.656250   0.718750 0
  0.156250   0.468750 0
  0.437500   0.906250 0
  0.625000   0.156250 0
  0.718750   0.812500 0
  0.218750   0.562500 0
  0.781250   0.562500 0
  0.281250   0.312500 0
  0.156250   0.812500 0
  0.062500   0.656250 0
  0.000000   0.906250 0
  0.187500   0.156250 0
  0.125000   0.406250 0
  0.562500   0.968750 0
  0.062500   0.718750 0
  0.000000   0.968750 0
  0.625000   0.718750 0
  0.125000   0.468750 0
  0.406250   0.968750 0
  0.968750   0.968750 0
  0.468750   0.718750 0
  0.531250   0.468750 0
  0.593750   0.218750 0
  0.406250   0.906250 0
  0.468750   0.656250 0
  0.593750   0.156250 0
  0.687500   0.781250 0
  0.187500   0.531250 0
  0.750000   0.531250 0
  0.250000   0.281250 0
  0.125000   0.781250 0
  0.781250   0.906250 0
  0.281250   0.656250 0
  0.218750   0.906250 0
  0.843750   0.656250 0
  0.343750   0.406250 0
  0.750000   0.906250 0
  0.250000   0.656250 0
  0.187500   0.906250 0
  0.812500   0.656250 0
  0.312500   0.406250 0
  0.875000   0.406250 0
  0.375000   0.156250 0
  0.812500   0.968750 0
  0.312500   0.718750 0
  0.250000   0.968750 0
  0.875000   0.718750 0
  0.375000   0.468750 0
  0.781250   0.937500 0
  0.281250   0.687500 0
  0.218750   0.937500 0
  0.843750   0.687500 0
  0.343750   0.437500 0
  0.718750   0.875000 0
  0.218750   0.625000 0
  0.156250   0.875000 0
  0.781250   0.625000 0
  0.281250   0.375000 0
  0.750000   0.937500 0
  0.250000   0.687500 0
  0.187500   0.937500 0
  0.875000   0.437500 0
  0.375000   0.187500 0
  0.812500   0.687500 0
  0.312500   0.437500 0
  0.687500   0.875000 0
  0.187500   0.625000 0
  0.750000   0.625000 0
  0.250000   0.375000 0
  0.125000   0.875000 0
  0.812500   1.000000 0
  0.312500   0.750000 0
  0.250000   1.000000 0
  0.875000   0.750000 0
  0.375000   0.500000 0
  0.562500   1.000000 0
  0.062500   0.750000 0
  0.000000   1.000000 0
  0.625000   0.750000 0
  0.125000   0.500000 0
  0.406250   1.000000 0
  0.968750   1.000000 0
  0.468750   0.750000 0
  0.656250   0.000000 0
  0.531250   0.500000 0
  0.593750   0.250000 0
  0.406250   0.937500 0
  0.468750   0.687500 0
  0.593750   0.187500 0
  0.687500   0.812500 0
  0.187500   0.562500 0
  0.750000   0.562500 0
  0.250000   0.312500 0
  0.125000   0.812500 0
  0.437500   0.843750 0
  0.625000   0.093750 0
  0.093750   0.593750 0
  0.156250   0.343750 0
  0.218750   0.093750 0
  0.031250   0.843750 0
  0.281250   0.937500 0
  0.843750   0.937500 0
  0.343750   0.687500 0
  0.906250   0.687500 0
  0.406250   0.437500 0
  0.156250   0.968750 0
  0.218750   0.718750 0
  0.281250   0.468750 0
  0.343750   0.218750 0
  0.156250   1.000000 0
  0.406250   0.000000 0
  0.281250   0.500000 0
  0.343750   0.250000 0
  0.218750   0.750000 0
  0.187500   0.968750 0
  0.250000   0.718750 0
  0.375000   0.218750 0
  0.312500   0.468750 0
  0.187500   1.000000 0
  0.312500   0.500000 0
  0.375000   0.250000 0
  0.437500   0.000000 0
  0.250000   0.750000 0
  0.031250   0.781250 0
  0.656250   0.531250 0
  0.156250   0.281250 0
  0.593750   0.781250 0
  0.093750   0.531250 0
  0.000000   0.781250 0
  0.625000   0.531250 0
  0.125000   0.281250 0
  0.562500   0.781250 0
  0.062500   0.531250 0
  0.781250   0.968750 0
  0.281250   0.718750 0
  0.218750   0.968750 0
  0.843750   0.718750 0
  0.343750   0.468750 0
  0.281250   0.968750 0
  0.843750   0.968750 0
  0.343750   0.718750 0
  0.906250   0.718750 0
  0.406250   0.468750 0
  0.281250   1.000000 0
  0.906250   0.750000 0
  0.406250   0.500000 0
  0.843750   1.000000 0
  0.343750   0.750000 0
  0.531250   0.000000 0
  0.718750   0.843750 0
  0.218750   0.593750 0
  0.156250   0.843750 0
  0.781250   0.593750 0
  0.281250   0.343750 0
  0.687500   0.843750 0
  0.187500   0.593750 0
  0.750000   0.593750 0
  0.250000   0.343750 0
  0.125000   0.843750 0
  0.218750   0.875000 0
  0.843750   0.625000 0
  0.343750   0.375000 0
  0.781250   0.875000 0
  0.281250   0.625000 0
  0.156250   0.906250 0
  0.781250   0.656250 0
  0.281250   0.406250 0
  0.718750   0.906250 0
  0.218750   0.656250 0
  0.031250   1.000000 0
  0.656250   0.750000 0
  0.156250   0.500000 0
  0.593750   1.000000 0
  0.093750   0.750000 0
  0.218750   1.000000 0
  0.343750   0.500000 0
  0.468750   0.000000 0
  0.406250   0.250000 0
  0.281250   0.750000 0
  0.593750   0.406250 0
  0.093750   0.156250 0
  0.531250   0.656250 0
  0.031250   0.406250 0
[...]
POINT_DATA 1089
SCALARS scalar_value float 1
LOOKUP_TABLE default
-0.211124
-0.211608
-0.206018
-0.217117
-0.184035
-0.189452
-0.192004
-0.222885
-0.20511
-0.199987
-0.196998
-0.1866
-0.316393
-0.325604
-0.324747
-0.337919
-0.340424
-0.30342
-0.179301
-0.315479
-0.296018
-0.235255
-0.250191
-0.270201
-0.250999
-0.219223
-0.194517
-0.301293
-0.269615
-0.31759
-0.177152
-0.274186
-0.218823
-0.183148
-0.285216
-0.200115
-0.306699
-0.326281
-0.243499
-0.33749
-0.210779
-0.292601
-0.186887
-0.190427
-0.184333
-0.294229
-0.190699
-0.27334
-0.287225
-0.295521
-0.274627
-0.232398
-0.177791
-0.192776
-0.299174
-0.209296
-0.311627
-0.182184
-0.313126
-0.191147
-0.234779
-0.178833
-0.248055
-0.167693
-0.310964
-0.311673
-0.180281
-0.240677
-0.180862
-0.306873
-0.202732
-0.305936
-0.176923
-0.226478
-0.329238
-0.174201
-0.251016
-0.175336
-0.230329
-0.185445
-0.261728
-0.173821
-0.183476
-0.292842
-0.170998
-0.294344
-0.320296
-0.269428
-0.224542
-0.23142
-0.175371
-0.210857
-0.249047
-0.216601
-0.217854
-0.212285
-0.198902
-0.197825
-0.263203
-0.344568
-0.122148
-0.100418
-0.17298
-0.0878099
-0.16968
-0.0675961
-0.236429
-0.177764
-0.186873
-0.146982
-0.224553
-0.303513
-0.119762
-0.165526
0
-0.21007
-0.291231
-0.191287
-0.257816
-0.202297
-0.153471
-0.247678
-0.184364
-0.243146
-0.195275
-0.142535
-0.334385
-0.197902
-0.215784
-0.158291
-0.283551
-0.192508
-0.152786
-0.102458
-0.261138
-0.289359
-0.0772378
-0.226519
-0.126131
-0.0373903
-0.236593
-0.177977
-0.189923
-0.145951
-0.224767
-0.322265
-0.193601
-0.206555
-0.155765
-0.272839
-0.18743
-0.0822687
-0.151627
-0.249409
-0.260319
-0.184468
-0.0597333
-0.309478
-0.196593
-0.266333
-0.21016
-0.157474
-0.265958
-0.189228
-0.250375
-0.200294
-0.148794
-0.214947
-0.116477
-0.0204625
-0.226379
-0.169968
-0.212991
-0.184088
-0.142428
-0.228075
-0.0392754
-0.124018
-0.235508
-0.178543
-0.192562
-0.144185
-0.226655
-0.322951
-0.0944853
-0.216236
-0.0218914
-0.115268
-0.226709
-0.170574
-0.185985
-0.139491
-0.212794
-0.177785
-0.147578
-0.0307009
-0.224738
-0.227247
-0.290319
-0.170879
-0.0339891
-0.196985
-0.265904
-0.157322
-0.23771
-0.19491
-0.148908
-0.25103
-0.184272
-0.242819
-0.136896
-0.0468963
-0.178917
-0.262704
-0.197988
-0.152114
-0.298488
-0.189171
-0.25053
-0.150875
-0.0838846
-0.189317
-0.19168
-0.262073
-0.107756
-0.153057
-0.341681
-0.197534
-0.282997
-0.214544
-0.158467
-0.285227
-0.0739841
-0.235282
-0.178443
-0.192707
-0.138027
-0.231434
-0.190746
-0.26215
-0.110917
-0.153489
-0.350516
-0.19735
-0.282512
-0.212585
-0.159285
-0.309395
-0.317026
-0.201399
-0.158732
-0.0915985
-0.278419
-0.190775
-0.0713409
-0.226499
-0.171189
-0.186804
-0.135404
-0.215294
-0.290067
-0.192122
-0.256685
-0.204408
-0.153711
-0.292483
-0.19282
-0.256775
-0.205611
-0.153619
-0.161613
-0.0720134
-0.330392
-0.206299
-0.275368
-0.221687
-0.160834
-0.309609
-0.196627
-0.264646
-0.211106
-0.157648
-0.267647
-0.189793
-0.250898
-0.201702
-0.148992
-0.310487
-0.196805
-0.264218
-0.165686
-0.0800305
-0.212137
-0.157552
-0.271133
-0.19009
-0.202166
-0.149754
-0.251104
-0.35102
-0.215758
-0.285404
-0.235697
-0.163891
-0.382138
-0.203528
-0.291452
-0.217891
-0.163717
-0.317496
-0.322965
-0.206237
0
-0.163245
-0.103833
-0.295305
-0.196522
-0.0817388
-0.235047
-0.178763
-0.19384
-0.141094
-0.229163
-0.243566
-0.0495413
-0.183869
-0.149691
-0.0515451
-0.236694
-0.268652
-0.310909
-0.196252
-0.209501
-0.156964
-0.279016
-0.202758
-0.161543
-0.0991607
-0.302329
0
-0.1657
-0.111279
-0.213086
-0.276384
-0.204707
-0.091881
-0.16156
-0.298128
-0.16545
-0.103941
0
-0.21542
-0.21427
-0.181305
-0.143431
-0.225377
-0.170498
-0.214812
-0.178538
-0.143706
-0.222948
-0.171581
-0.328443
-0.206208
-0.274926
-0.220471
-0.161249
-0.277777
-0.330678
-0.205211
-0.222623
-0.160104
-0.285799
-0.24087
-0.16335
-0.350948
-0.214495
0
-0.247624
-0.184895
-0.242041
-0.197994
-0.143828
-0.248971
-0.184765
-0.198688
-0.146058
-0.24097
-0.249821
-0.198397
-0.14837
-0.26781
-0.188399
-0.257954
-0.206177
-0.153395
-0.295494
-0.193259
-0.2931
-0.219628
-0.162933
-0.367052
-0.202827
-0.28946
-0.164666
0
-0.100107
-0.216165
-0.146952
-0.10255
-0.19401
-0.155239
-0.0226495
-0.121762
-0.170955
-0.224557
-0.192216
-0.141181
-0.24978
-0.183127
-0.243575
-0.185698
-0.132572
-0.238873
-0.177521
-0.235281
-0.123684
-0.185415
-0.131138
-0.227189
-0.170992
-0.220078
-0.118652
-0.159241
-0.282965
-0.198891
-0.221717
-0.164769
-0.303063
-0.340794
-0.206199
-0.109079
-0.155716
-0.270492
-0.195791
-0.225897
-0.159194
-0.327164
-0.202989
-0.282054
-0.150583
-0.189349
-0.267015
-0.231019
-0.15864
-0.321629
-0.201394
-0.289499
-0.207996
-0.161529
-0.210117
-0.15503
-0.278757
-0.312309
-0.19549
-0.0778366
-0.202403
-0.157407
-0.144082
-0.254674
-0.183438
-0.0572403
-0.209108
-0.156042
-0.311775
-0.19563
-0.272709
-0.199922
-0.158525
-0.145143
-0.0565411
-0.183879
-0.252864
-0.233918
-0.158285
-0.318635
-0.200987
-0.299337
-0.0889646
-0.18996
-0.272371
-0.0691043
-0.21047
-0.160279
-0.35367
-0.197532
-0.188494
-0.139776
-0.255212
-0.181751
-0.243823
-0.116732
-0.0217206
-0.170186
-0.22507
-0.195357
-0.147245
-0.272271
-0.187188
-0.249799
-0.130432
-0.0380574
-0.17617
-0.235585
-0.140941
-0.0831755
-0.199593
-0.152982
-0.259783
-0.294173
-0.19008
-0.0481144
-0.138368
-0.243694
-0.180418
-0.130357
0
-0.123481
-0.12904
0
-0.0846937
-0.151267
-0.249853
-0.188406
-0.120975
-0.155291
-0.194292
-0.123085
0
-0.168249
-0.134121
-0.249012
-0.162733
-0.289776
-0.343658
-0.211618
0
-0.106089
0
-0.211578
-0.167579
-0.220749
-0.163427
-0.29811
-0.34979
-0.203282
-0.116005
-0.155242
-0.272017
-0.195013
-0.182194
-0.126595
-0.228964
-0.170873
-0.222646
-0.110825
-0.160717
-0.281288
-0.200892
-0.189365
-0.135094
-0.23352
-0.236568
-0.178129
-0.296324
-0.177248
-0.243069
-0.0634674
-0.134864
-0.0471822
-0.150031
-0.0510789
-0.236688
-0.183236
-0.192533
-0.14608
-0.250893
-0.279673
-0.185113
-0.0358416
-0.127735
-0.234341
-0.174104
-0.153369
-0.114957
-0.148504
-0.101657
-0.202627
-0.16364
-0.159675
-0.125283
-0.215961
-0.164813
-0.385986
-0.204648
-0.205365
-0.162936
-0.279532
-0.166488
-0.214656
-0.116321
-0.020755
-0.277238
-0.166084
-0.216798
-0.0199553
-0.301831
-0.152529
-0.185678
-0.261711
-0.062095
-0.0818715
-0.139359
-0.284974
-0.171217
-0.177176
-0.0405973
-0.125876
-0.228288
-0.0325117
-0.147499
-0.0316694
-0.177807
-0.322449
-0.208495
-0.33426
0
-0.105391
-0.16493
-0.303577
-0.0847302
-0.177038
-0.0645884
-0.135758
-0.241927
-0.0453752
-0.150187
-0.0537206
-0.182566
-0.198479
-0.154087
-0.290913
-0.190035
-0.167637
-0.0185402
-0.11133
-0.223331
-0.138044
-0.0173757
-0.179479
-0.149845
-0.191925
-0.155547
-0.147233
-0.101763
-0.206229
-0.152812
-0.25885
-0.296115
-0.193448
-0.0333643
-0.12534
-0.231979
-0.172795
-0.150178
-0.056774
-0.182276
-0.196685
-0.154701
-0.168853
-0.0198908
-0.113414
-0.224616
-0.136661
-0.0193313
-0.297287
-0.177817
-0.14962
-0.133475
-0.0607507
-0.201827
-0.150357
-0.250775
-0.273882
-0.18992
-0.197588
-0.147874
-0.250404
-0.184508
-0.239565
-0.197469
-0.159216
-0.153505
-0.11509
-0.156632
-0.097507
-0.26808
-0.19652
-0.269637
-0.166115
-0.172664
-0.0177622
-0.112952
-0.219444
-0.0195578
-0.143213
-0.0141657
-0.172377
-0.173231
-0.11116
-0.257206
-0.166726
-0.221344
-0.0188763
-0.0149609
-0.141216
-0.172805
-0.145903
-0.0386837
-0.1874
-0.152451
-0.152666
-0.0940106
-0.259668
-0.193165
-0.146882
-0.0355747
-0.177803
-0.190317
-0.15228
-0.114774
-0.0185595
-0.213897
-0.166249
-0.0837894
-0.142452
-0.183671
-0.25767
-0.0586937
-0.0821119
-0.152034
-0.186542
-0.204373
-0.156528
-0.322944
-0.193274
-0.124948
-0.229676
-0.17206
-0.0320721
-0.311961
-0.196
-0.286941
-0.25671
-0.162345
-0.331993
-0.207694
-0.297813
0
0
-0.127163
-0.0404315
-0.135994
-0.242155
-0.177508
-0.0455039
-0.169721
-0.0991122
0
-0.114923
-0.153962
-0.0791505
-0.260534
-0.162463
-0.325332
-0.205775
-0.30616
-0.101869
0
-0.147299
-0.101566
-0.226656
-0.291496
-0.144889
-0.171808
-0.0399876
-0.127408
-0.035419
-0.272539
-0.193248
-0.319791
-0.120833
-0.156285
-0.0900003
-0.247368
-0.053901
-0.131007
-0.186132
-0.26724
-0.0673884
-0.0826937
-0.137762
-0.205169
-0.37493
-0.138948
-0.172499
0
-0.106294
0
-0.352052
0
-0.137446
-0.168763
-0.336542
-0.129233
-0.16136
-0.0971825
-0.197785
-0.348302
-0.132249
-0.164719
-0.0986491
-0.312931
-0.116608
-0.154452
-0.0883036
-0.189659
-0.290348
-0.0798847
-0.104131
-0.146578
-0.264375
-0.0655307
-0.0819906
-0.138266
-0.244026
-0.0522354
-0.0587433
-0.132308
-0.154272
-0.0826237
-0.100089
-0.132944
-0.168117
-0.0369719
-0.0305233
-0.131392
0
-0.134403
-0.17881
0
-0.114599
-0.0217967
-0.0130819
-0.123134
-0.16424
-0.0952697
-0.128895
-0.171591
-0.106737
-0.087499
-0.169119
-0.129417
-0.0880789
-0.0692926
-0.162462
-0.0872081
-0.067881
-0.162511
-0.102674
-0.13185
-0.169973
-0.0538973
-0.129655
-0.125059
-0.177722
0
0
-0.126295
-0.171155
-0.117204
-0.172088
-0.112164
-0.13012
-0.178605
0
0
-0.120588
-0.0226346
-0.0161707
-0.128624
-0.0223414
-0.0197668
-0.132755
-0.0670982
-0.161929
-0.0397447
-0.0234296
-0.113871
-0.165013
-0.099077
-0.151577
-0.156877
-0.110627
-0.0752482
-0.165667
-0.0911838
-0.124332
-0.159149
-0.0673489
-0.137794
-0.0810836
-0.108534
-0.148571
-0.0393336
-0.040289
-0.139574
-0.0369635
-0.0343171
-0.136259
-0.0717659
-0.0669243
-0.15412
-0.0551303
-0.056358
-0.146418
-0.0540449
-0.0578218
-0.143661
-0.0864594
-0.16828
-0.129827
-0.0982534
-0.170896
0
-0.137574
0
-0.135336
-0.0412812
-0.14529
-0.0415207
-0.0400015
-0.14364
-0.055371
-0.0496929
-0.151424
-0.0930313
-0.124223
-0.161865
-0.0700643
-0.0643846
-0.156238
-0.0555577
-0.0520419
-0.150404
-0.0692426
-0.0622127
-0.157535
-0.0816104
-0.151559
-0.0553639
-0.0544409
-0.148798
-0.0982064
-0.170115
-0.139185
-0.0672722
-0.0693752
-0.0601389
-0.157735
-0.0416846
-0.0416666
-0.141854
-0.0753859
-0.16526
-0.176153
0
-0.130509
-0.0673353
-0.141766
-0.0382179
-0.0318663
-0.122046
-0.0866637
-0.167717
-0.0682971
-0.145714
-0.0372479
-0.0310942
-0.125725
-0.121111
-0.0392745
-0.0844014
-0.156342
-0.0518856
-0.0553521
-0.135408
-0.129287
-0.0533852
-0.0138495
-0.11289
-0.0232897
-0.057706
-0.157179
-0.108883
-0.164997
-0.0714223
-0.0713661
-0.151639
-0.0260281
-0.140436
-0.0675656
-0.162112
-0.122262
-0.170467
-0.0905766
-0.083688
-0.158831
-0.0255166
-0.138224
-0.164909
-0.104209
-0.0781919
-0.149076
-0.0702452
-0.171862
-0.13702
-0.0762257
-0.16573
-0.11134
-0.0235053
-0.0221173
-0.135935
0
-0.174403
-0.133378
-0.157508
-0.0871525
-0.0579556
-0.13998
-0.0517268
0
-0.110568
0
-0.137653
-0.177453
-0.0874694
-0.165378
-0.111951
-0.142342
-0.146211
-0.13914
-0.17527
0
0
-0.107488
-0.0919927
-0.0757101
-0.160229
-0.12585
-0.170183
-0.0762792
-0.164734
-0.0905259
-0.128092
-0.142015
-0.112604
-0.146024
-0.0216107
-0.0131052
-0.117413
-0.0528175
-0.131032
-0.0222474
-0.0138718
-0.114185
-0.0872161
-0.167586
-0.151598
