# vtk DataFile Version 2.0
Unstructured Grid by M++
ASCII
DATASET UNSTRUCTURED_GRID
POINTS 1089 float
  0.718750   0.687500 0
  0.750000   0.687500 0
  0.718750   0.656250 0
  0.750000   0.718750 0
  0.625000   0.562500 0
  0.625000   0.593750 0
  0.656250   0.593750 0
  0.750000   0.750000 0
  0.687500   0.656250 0
  0.687500   0.625000 0
  0.656250   0.625000 0
  0.906250   0.593750 0
  1.000000   0.968750 0
  0.750000   0.968750 0
  0.718750   0.968750 0
  0.718750   1.000000 0
  0.750000   1.000000 0
  0.906250   0.906250 0
  0.843750   0.531250 0
  0.656250   0.937500 0
  0.656250   0.906250 0
  0.562500   0.812500 0
  0.562500   0.843750 0
  0.593750   0.875000 0
  0.593750   0.843750 0
  0.812500   0.718750 0
  0.625000   0.625000 0
  0.968750   0.875000 0
  0.531250   0.875000 0
  0.625000   0.937500 0
  0.562500   0.562500 0
  0.906250   0.812500 0
  0.531250   0.781250 0
  0.562500   0.593750 0
  0.906250   0.843750 0
  0.625000   0.656250 0
  0.968750   0.906250 0
  0.687500   0.968750 0
  0.812500   0.812500 0
  0.687500   1.000000 0
  0.687500   0.687500 0
  0.937500   0.843750 0
  0.593750   0.593750 0
  1.000000   0.625000 0
  0.968750   0.593750 0
  0.906250   0.875000 0
  0.968750   0.625000 0
  0.625000   0.875000 0
  0.875000   0.875000 0
  0.625000   0.906250 0
  0.875000   0.843750 0
  0.531250   0.812500 0
  0.968750   0.562500 0
  0.593750   0.625000 0
  0.937500   0.875000 0
  0.656250   0.687500 0
  1.000000   0.937500 0
  0.875000   0.562500 0
  0.687500   0.937500 0
  0.937500   0.625000 0
  0.812500   0.781250 0
  0.937500   0.562500 0
  0.875000   0.781250 0
  0.531250   0.531250 0
  0.718750   0.937500 0
  0.968750   0.937500 0
  0.906250   0.562500 0
  0.843750   0.781250 0
  0.593750   0.562500 0
  1.000000   0.906250 0
  0.656250   0.656250 0
  0.937500   0.906250 0
  0.875000   0.531250 0
  0.812500   0.750000 0
  0.656250   0.968750 0
  0.937500   0.531250 0
  0.843750   0.812500 0
  0.906250   0.531250 0
  0.843750   0.750000 0
  0.937500   0.593750 0
  0.875000   0.812500 0
  0.531250   0.562500 0
  1.000000   0.593750 0
  0.562500   0.906250 0
  0.562500   0.531250 0
  0.593750   0.906250 0
  0.593750   0.937500 0
  0.562500   0.875000 0
  0.781250   0.750000 0
  0.781250   0.781250 0
  0.593750   0.531250 0
  1.000000   0.687500 0
  0.531250   0.843750 0
  0.718750   0.718750 0
  0.781250   0.718750 0
  0.781250   0.687500 0
  1.000000   0.656250 0
  0.968750   0.656250 0
  0.843750   0.843750 0
  0.781250   1.000000 0
  0.656250   0.312500 0
  0.531250   0.250000 0
  0.875000   0.500000 0
  0.531250   0.218750 0
  0.875000   0.468750 0
  0.531250   0.156250 0
  0.593750   0.812500 0
  0.093750   0.562500 0
  0.656250   0.562500 0
  0.156250   0.312500 0
  0.031250   0.812500 0
  0.125000   1.000000 0
  0.312500   0.250000 0
  0.250000   0.500000 0
  0.375000   0.000000 0
  0.187500   0.750000 0
  0.812500   0.906250 0
  0.312500   0.656250 0
  0.250000   0.906250 0
  0.875000   0.656250 0
  0.375000   0.406250 0
  0.750000   0.843750 0
  0.250000   0.593750 0
  0.187500   0.843750 0
  0.812500   0.593750 0
  0.312500   0.343750 0
  0.625000   0.968750 0
  0.125000   0.718750 0
  0.687500   0.718750 0
  0.187500   0.468750 0
  0.062500   0.968750 0
  0.125000   0.656250 0
  0.187500   0.406250 0
  0.250000   0.156250 0
  0.062500   0.906250 0
  0.468750   0.906250 0
  0.656250   0.156250 0
  0.468750   0.812500 0
  0.593750   0.312500 0
  0.656250   0.062500 0
  0.625000   0.812500 0
  0.125000   0.562500 0
  0.687500   0.562500 0
  0.187500   0.312500 0
  0.062500   0.812500 0
  0.562500   0.937500 0
  0.062500   0.687500 0
  0.625000   0.687500 0
  0.125000   0.437500 0
  0.000000   0.937500 0
  0.062500   0.625000 0
  0.187500   0.125000 0
  0.125000   0.375000 0
  0.000000   0.875000 0
  0.406250   0.875000 0
  0.468750   0.625000 0
  0.593750   0.125000 0
  0.812500   0.937500 0
  0.312500   0.687500 0
  0.250000   0.937500 0
  0.875000   0.687500 0
  0.375000   0.437500 0
  0.750000   0.875000 0
  0.250000   0.625000 0
  0.187500   0.875000 0
  0.812500   0.625000 0
  0.312500   0.375000 0
  0.468750   0.781250 0
  0.593750   0.281250 0
  0.656250   0.031250 0
  0.625000   0.781250 0
  0.125000   0.531250 0
  0.062500   0.781250 0
  0.687500   0.531250 0
  0.187500   0.281250 0
  0.500000   0.812500 0
  0.687500   0.062500 0
  0.625000   0.312500 0
  0.656250   0.812500 0
  0.156250   0.562500 0
  0.718750   0.562500 0
  0.218750   0.312500 0
  0.093750   0.812500 0
  0.437500   0.968750 0
  0.625000   0.218750 0
  0.500000   0.781250 0
  0.687500   0.031250 0
  0.625000   0.281250 0
  0.656250   0.781250 0
  0.156250   0.531250 0
  0.718750   0.531250 0
  0.218750   0.281250 0
  0.093750   0.781250 0
  0.062500   0.562500 0
  0.125000   0.312500 0
  0.187500   0.062500 0
  0.000000   0.812500 0
  0.406250   0.812500 0
  0.968750   0.812500 0
  0.468750   0.562500 0
  0.593750   0.062500 0
  0.218750   0.687500 0
  0.156250   0.937500 0
  0.281250   0.437500 0
  0.062500   0.843750 0
  0.687500   0.593750 0
  0.187500   0.343750 0
  0.625000   0.843750 0
  0.125000   0.593750 0
  0.312500   0.843750 0
  0.437500   0.343750 0
  0.500000   0.093750 0
  0.375000   0.593750 0
  0.312500   0.906250 0
  0.937500   0.656250 0
  0.437500   0.406250 0
  0.875000   0.906250 0
  0.375000   0.656250 0
  0.062500   0.875000 0
  0.187500   0.375000 0
  0.250000   0.125000 0
  0.125000   0.625000 0
  0.093750   0.656250 0
  0.031250   0.906250 0
  0.218750   0.156250 0
  0.156250   0.406250 0
  0.593750   0.968750 0
  0.093750   0.718750 0
  0.031250   0.968750 0
  0.656250   0.718750 0
  0.156250   0.468750 0
  0.437500   0.906250 0
  0.625000   0.156250 0
  0.718750   0.812500 0
  0.218750   0.562500 0
  0.781250   0.562500 0
  0.281250   0.312500 0
  0.156250   0.812500 0
  0.062500   0.656250 0
  0.000000   0.906250 0
  0.187500   0.156250 0
  0.125000   0.406250 0
  0.562500   0.968750 0
  0.062500   0.718750 0
  0.000000   0.968750 0
  0.625000   0.718750 0
  0.125000   0.468750 0
  0.406250   0.968750 0
  0.968750   0.968750 0
  0.468750   0.718750 0
  0.531250   0.468750 0
  0.593750   0.218750 0
  0.406250   0.906250 0
  0.468750   0.656250 0
  0.593750   0.156250 0
  0.687500   0.781250 0
  0.187500   0.531250 0
  0.750000   0.531250 0
  0.250000   0.281250 0
  0.125000   0.781250 0
  0.781250   0.906250 0
  0.281250   0.656250 0
  0.218750   0.906250 0
  0.843750   0.656250 0
  0.343750   0.406250 0
  0.750000   0.906250 0
  0.250000   0.656250 0
  0.187500   0.906250 0
  0.812500   0.656250 0
  0.312500   0.406250 0
  0.875000   0.406250 0
  0.375000   0.156250 0
  0.812500   0.968750 0
  0.312500   0.718750 0
  0.250000   0.968750 0
  0.875000   0.718750 0
  0.375000   0.468750 0
  0.781250   0.937500 0
  0.281250   0.687500 0
  0.218750   0.937500 0
  0.843750   0.687500 0
  0.343750   0.437500 0
  0.718750   0.875000 0
  0.218750   0.625000 0
  0.156250   0.875000 0
  0.781250   0.625000 0
  0.281250   0.375000 0
  0.750000   0.937500 0
  0.250000   0.687500 0
  0.187500   0.937500 0
  0.875000   0.437500 0
  0.375000   0.187500 0
  0.812500   0.687500 0
  0.312500   0.437500 0
  0.687500   0.875000 0
  0.187500   0.625000 0
  0.750000   0.625000 0
  0.250000   0.375000 0
  0.125000   0.875000 0
  0.812500   1.000000 0
  0.312500   0.750000 0
  0.250000   1.000000 0
  0.875000   0.750000 0
  0.375000   0.500000 0
  0.562500   1.000000 0
  0.062500   0.750000 0
  0.000000   1.000000 0
  0.625000   0.750000 0
  0.125000   0.500000 0
  0.406250   1.000000 0
  0.968750   1.000000 0
  0.468750   0.750000 0
  0.656250   0.000000 0
  0.531250   0.500000 0
  0.593750   0.250000 0
  0.406250   0.937500 0
  0.468750   0.687500 0
  0.593750   0.187500 0
  0.687500   0.812500 0
  0.187500   0.562500 0
  0.750000   0.562500 0
  0.250000   0.312500 0
  0.125000   0.812500 0
  0.437500   0.843750 0
  0.625000   0.093750 0
  0.093750   0.593750 0
  0.156250   0.343750 0
  0.218750   0.093750 0
  0.031250   0.843750 0
  0.281250   0.937500 0
  0.843750   0.937500 0
  0.343750   0.687500 0
  0.906250   0.687500 0
  0.406250   0.437500 0
  0.156250   0.968750 0
  0.218750   0.718750 0
  0.281250   0.468750 0
  0.343750   0.218750 0
  0.156250   1.000000 0
  0.406250   0.000000 0
  0.281250   0.500000 0
  0.343750   0.250000 0
  0.218750   0.750000 0
  0.187500   0.968750 0
  0.250000   0.718750 0
  0.375000   0.218750 0
  0.312500   0.468750 0
  0.187500   1.000000 0
  0.312500   0.500000 0
  0.375000   0.250000 0
  0.437500   0.000000 0
  0.250000   0.750000 0
  0.031250   0.781250 0
  0.656250   0.531250 0
  0.156250   0.281250 0
  0.593750   0.781250 0
  0.093750   0.531250 0
  0.000000   0.781250 0
  0.625000   0.531250 0
  0.125000   0.281250 0
  0.562500   0.781250 0
  0.062500   0.531250 0
  0.781250   0.968750 0
  0.281250   0.718750 0
  0.218750   0.968750 0
  0.843750   0.718750 0
  0.343750   0.468750 0
  0.281250   0.968750 0
  0.843750   0.968750 0
  0.343750   0.718750 0
  0.906250   0.718750 0
  0.406250   0.468750 0
  0.281250   1.000000 0
  0.906250   0.750000 0
  0.406250   0.500000 0
  0.843750   1.000000 0
  0.343750   0.750000 0
  0.531250   0.000000 0
  0.718750   0.843750 0
  0.218750   0.593750 0
  0.156250   0.843750 0
  0.781250   0.593750 0
  0.281250   0.343750 0
  0.687500   0.843750 0
  0.187500   0.593750 0
  0.750000   0.593750 0
  0.250000   0.343750 0
  0.125000   0.843750 0
  0.218750   0.875000 0
  0.843750   0.625000 0
  0.343750   0.375000 0
  0.781250   0.875000 0
  0.281250   0.625000 0
  0.156250   0.906250 0
  0.781250   0.656250 0
  0.281250   0.406250 0
  0.718750   0.906250 0
  0.218750   0.656250 0
  0.031250   1.000000 0
  0.656250   0.750000 0
  0.156250   0.500000 0
  0.593750   1.000000 0
  0.093750   0.750000 0
  0.218750   1.000000 0
  0.343750   0.500000 0
  0.468750   0.000000 0
  0.406250   0.250000 0
  0.281250   0.750000 0
  0.593750   0.406250 0
  0.093750   0.156250 0
  0.531250   0.656250 0
  0.031250   0.406250 0
[...]
POINT_DATA 1089
SCALARS scalar_value float 1
LOOKUP_TABLE default
-0.302973
-0.299434
-0.292756
-0.312198
-0.27661
-0.285532
-0.281798
-0.327027
-0.296882
-0.286506
-0.290179
-0.278291
-0.397402
-0.404728
-0.403375
-0.413503
-0.413632
-0.374167
-0.268048
-0.38465
-0.371424
-0.33694
-0.346754
-0.357354
-0.346924
-0.308778
-0.29404
-0.356346
-0.358456
-0.381772
-0.283695
-0.336211
-0.326554
-0.293259
-0.344977
-0.301419
-0.371441
-0.40085
-0.347744
-0.410651
-0.30556
-0.342929
-0.290262
-0.287131
-0.280845
-0.358231
-0.286238
-0.357907
-0.362509
-0.368415
-0.349146
-0.33649
-0.277038
-0.297804
-0.355959
-0.307617
-0.385001
-0.274199
-0.388753
-0.284394
-0.336492
-0.276281
-0.33018
-0.27103
-0.391836
-0.386253
-0.275241
-0.332604
-0.280185
-0.371084
-0.299206
-0.372342
-0.270295
-0.322843
-0.395687
-0.27327
-0.343403
-0.271922
-0.321613
-0.27969
-0.338896
-0.286343
-0.281268
-0.367696
-0.270586
-0.367024
-0.378433
-0.35751
-0.325066
-0.339712
-0.268984
-0.304211
-0.347179
-0.313884
-0.310065
-0.29715
-0.294273
-0.293748
-0.353967
-0.414134
-0.231027
-0.171369
-0.266166
-0.136255
-0.261985
-0.0580498
-0.337689
-0.263131
-0.273508
-0.159972
-0.348218
-0.399622
-0.162887
-0.239311
0
-0.342192
-0.382278
-0.30209
-0.370067
-0.288175
-0.210236
-0.36111
-0.279215
-0.362759
-0.275089
-0.186519
-0.391808
-0.327167
-0.31565
-0.227715
-0.392294
-0.299666
-0.207073
-0.112354
-0.369423
-0.369671
-0.0638462
-0.337753
-0.225419
-0.00590172
-0.338194
-0.261934
-0.270286
-0.162419
-0.348719
-0.376162
-0.311365
-0.308707
-0.220069
-0.377437
-0.285506
-0.0896699
-0.190998
-0.360855
-0.366903
-0.301516
-0.0277847
-0.396514
-0.311325
-0.373346
-0.297387
-0.223304
-0.37047
-0.290375
-0.366897
-0.279685
-0.1955
-0.32615
-0.212748
-0.00213874
-0.331037
-0.250322
-0.340581
-0.263164
-0.153094
-0.336956
-0.0070285
-0.229052
-0.339905
-0.261785
-0.268625
-0.16598
-0.349792
-0.380976
-0.163023
-0.326058
-0.00222142
-0.219987
-0.332874
-0.248593
-0.262204
-0.157649
-0.341198
-0.264385
-0.158428
-0.0407068
-0.348149
-0.34438
-0.334599
-0.286234
-0.00823286
-0.316934
-0.376242
-0.216432
-0.355714
-0.278054
-0.175651
-0.347643
-0.273645
-0.365224
-0.200645
-0.0227689
-0.286722
-0.370883
-0.291877
-0.220243
-0.378689
-0.302692
-0.361619
-0.191363
-0.0943071
-0.285758
-0.298237
-0.367655
-0.110426
-0.207646
-0.388484
-0.325508
-0.391791
-0.316539
-0.229319
-0.370486
-0.0595945
-0.348317
-0.263885
-0.268744
-0.173364
-0.355162
-0.298149
-0.366897
-0.108658
-0.207998
-0.385103
-0.322724
-0.391038
-0.315827
-0.230064
-0.38013
-0.398982
-0.312683
-0.244829
-0.148362
-0.371108
-0.305377
-0.0570633
-0.335433
-0.248639
-0.262527
-0.162157
-0.343917
-0.382391
-0.301732
-0.369862
-0.287072
-0.206675
-0.381295
-0.300831
-0.370114
-0.285976
-0.20562
-0.25163
-0.113741
-0.407473
-0.322639
-0.378488
-0.309751
-0.23786
-0.396169
-0.313082
-0.374116
-0.296266
-0.219662
-0.367714
-0.288296
-0.366349
-0.279545
-0.194819
-0.394444
-0.315289
-0.37503
-0.256727
-0.139967
-0.296133
-0.217483
-0.363061
-0.28694
-0.28034
-0.193451
-0.365073
-0.416526
-0.33544
-0.384903
-0.322029
-0.251772
-0.391311
-0.331779
-0.41375
-0.3229
-0.239159
-0.38513
-0.413329
-0.318086
0
-0.256981
-0.189843
-0.375257
-0.308761
-0.100672
-0.343458
-0.262713
-0.267995
-0.169469
-0.352022
-0.355079
-0.0135826
-0.273956
-0.174713
-0.0658568
-0.355265
-0.373096
-0.396713
-0.310187
-0.29922
-0.227536
-0.385085
-0.332594
-0.229321
-0.155718
-0.395427
0
-0.241884
-0.164594
-0.343693
-0.382439
-0.330464
-0.156142
-0.231583
-0.390449
-0.244796
-0.165843
0
-0.343346
-0.340947
-0.264681
-0.149075
-0.329054
-0.252912
-0.340835
-0.266967
-0.146804
-0.327242
-0.254952
-0.405971
-0.326688
-0.380181
-0.308819
-0.233932
-0.377478
-0.408545
-0.319128
-0.311476
-0.240426
-0.383394
-0.322182
-0.25336
-0.417674
-0.330678
0
-0.358316
-0.27747
-0.361095
-0.274101
-0.184114
-0.353234
-0.275124
-0.273589
-0.181224
-0.35926
-0.367127
-0.280545
-0.196667
-0.371392
-0.291514
-0.370596
-0.286082
-0.205507
-0.379732
-0.300706
-0.411111
-0.324603
-0.238288
-0.394865
-0.333133
-0.387172
-0.248714
0
-0.168295
-0.340047
-0.236493
-0.102896
-0.30495
-0.207889
-0.0111728
-0.172199
-0.254091
-0.35319
-0.276251
-0.188314
-0.361216
-0.280164
-0.364047
-0.272624
-0.180018
-0.350325
-0.267923
-0.359261
-0.143807
-0.26387
-0.166289
-0.338539
-0.250679
-0.348162
-0.149426
-0.226292
-0.390748
-0.329145
-0.327614
-0.237476
-0.402171
-0.404572
-0.338836
-0.134035
-0.21745
-0.379698
-0.315404
-0.312889
-0.241831
-0.408477
-0.316441
-0.37734
-0.225294
-0.303628
-0.371171
-0.313284
-0.24272
-0.406996
-0.314714
-0.378031
-0.313203
-0.23188
-0.303638
-0.233784
-0.373931
-0.394276
-0.309497
-0.0978014
-0.308267
-0.221478
-0.216025
-0.3688
-0.297755
-0.0342057
-0.301652
-0.231121
-0.396613
-0.309478
-0.373373
-0.30815
-0.222121
-0.20972
-0.0398765
-0.295184
-0.368497
-0.313327
-0.243498
-0.403207
-0.313656
-0.379089
-0.138873
-0.304769
-0.371309
-0.0564672
-0.314394
-0.230722
-0.383072
-0.320373
-0.277326
-0.190726
-0.3578
-0.280889
-0.364758
-0.176175
-0.00880011
-0.257328
-0.353643
-0.281625
-0.198766
-0.370304
-0.292171
-0.367444
-0.184236
-0.0183687
-0.270832
-0.360477
-0.227801
-0.0799412
-0.289674
-0.215375
-0.370514
-0.381083
-0.302231
-0.0268049
-0.194554
-0.365126
-0.282968
-0.134764
0
-0.123293
-0.134822
0
-0.0915401
-0.19091
-0.360843
-0.285704
-0.124469
-0.219079
-0.313678
-0.123021
0
-0.245948
-0.134751
-0.322042
-0.254565
-0.382658
-0.41736
-0.325103
0
-0.211151
0
-0.319033
-0.245738
-0.326299
-0.237724
-0.406453
-0.398601
-0.335356
-0.129422
-0.218195
-0.379003
-0.315264
-0.265874
-0.169194
-0.340598
-0.252293
-0.351634
-0.153616
-0.226506
-0.388351
-0.331478
-0.270741
-0.176593
-0.357405
-0.350775
-0.265473
-0.342474
-0.295915
-0.359178
-0.0554905
-0.221905
-0.0148122
-0.17427
-0.0629318
-0.355125
-0.273868
-0.282752
-0.202844
-0.367983
-0.36739
-0.293218
-0.0150923
-0.188351
-0.36074
-0.27372
-0.237916
-0.109978
-0.229295
-0.0980028
-0.312307
-0.234394
-0.245808
-0.124453
-0.321192
-0.24161
-0.388863
-0.33157
-0.312624
-0.233502
-0.328551
-0.271661
-0.327398
-0.205053
-0.00270847
-0.328724
-0.272521
-0.330227
-0.00371966
-0.356993
-0.190033
-0.301826
-0.364675
-0.0273203
-0.0832613
-0.231852
-0.335079
-0.283706
-0.277274
-0.0348756
-0.205281
-0.35165
-0.0103527
-0.158453
-0.0401503
-0.264769
-0.411778
-0.318396
-0.386855
0
-0.201247
-0.256211
-0.375513
-0.109555
-0.292995
-0.0532437
-0.215604
-0.362331
-0.0171741
-0.173451
-0.0637464
-0.273543
-0.303066
-0.208309
-0.368378
-0.298348
-0.265277
-0.0062884
-0.182618
-0.350668
-0.146537
-0.0162265
-0.295581
-0.174708
-0.305413
-0.207306
-0.235265
-0.101215
-0.288506
-0.205583
-0.37075
-0.375647
-0.301471
-0.0130103
-0.192441
-0.359772
-0.277363
-0.174102
-0.0635125
-0.273394
-0.304174
-0.208331
-0.261214
-0.00715376
-0.18034
-0.353357
-0.147152
-0.0164251
-0.34259
-0.296465
-0.174661
-0.227463
-0.0596483
-0.282556
-0.191989
-0.363534
-0.359667
-0.286269
-0.274539
-0.178778
-0.349587
-0.273603
-0.357158
-0.308344
-0.222615
-0.239252
-0.111591
-0.216718
-0.139114
-0.378309
-0.31637
-0.329272
-0.271909
-0.274482
-0.0171977
-0.190905
-0.337312
-0.0047334
-0.14545
-0.0190581
-0.25594
-0.274183
-0.185481
-0.329583
-0.26903
-0.344934
-0.00555753
-0.0169293
-0.145296
-0.256095
-0.159544
-0.0356518
-0.301405
-0.190573
-0.205958
-0.115877
-0.370273
-0.300904
-0.158697
-0.0392442
-0.264729
-0.300022
-0.191348
-0.197674
-0.0168491
-0.319919
-0.244168
-0.0777067
-0.222878
-0.300178
-0.368449
-0.0303625
-0.0885201
-0.19141
-0.285577
-0.308645
-0.220917
-0.375757
-0.310403
-0.198145
-0.356903
-0.281116
-0.0120325
-0.390157
-0.309273
-0.37465
-0.321494
-0.255925
-0.417272
-0.320767
-0.382713
0
0
-0.212521
-0.0338489
-0.207358
-0.364566
-0.289855
-0.0197173
-0.271386
-0.167826
0
-0.109773
-0.236058
-0.0964641
-0.321117
-0.257015
-0.416166
-0.318704
-0.383568
-0.17858
0
-0.232963
-0.0991464
-0.33935
-0.334477
-0.160407
-0.287486
-0.0331462
-0.21943
-0.0065171
-0.377924
-0.309958
-0.375786
-0.118506
-0.240866
-0.143422
-0.348821
-0.0163727
-0.233071
-0.285868
-0.359867
-0.0349645
-0.0873786
-0.235399
-0.332152
-0.387725
-0.136622
-0.256124
0
-0.216563
0
-0.387499
0
-0.13501
-0.256346
-0.381766
-0.126344
-0.246105
-0.177505
-0.31975
-0.382268
-0.128123
-0.246404
-0.189078
-0.375607
-0.114923
-0.240237
-0.12312
-0.298251
-0.368815
-0.0739428
-0.105268
-0.23746
-0.361904
-0.0294377
-0.0855132
-0.233948
-0.351575
-0.0138963
-0.061829
-0.230931
-0.240366
-0.113678
-0.196435
-0.130109
-0.246897
-0.0380628
-0.0443905
-0.2321
0
-0.150541
-0.254751
0
-0.214845
-0.0168615
-0.0197468
-0.224472
-0.243256
-0.159303
-0.137859
-0.247639
-0.195756
-0.154013
-0.263632
-0.184592
-0.13763
-0.101901
-0.254239
-0.136614
-0.0876373
-0.255881
-0.198345
-0.132852
-0.247168
-0.0211409
-0.234412
-0.159679
-0.258092
0
0
-0.209649
-0.251718
-0.1866
-0.249101
-0.190843
-0.154918
-0.255848
0
0
-0.212446
-0.0180649
-0.0187746
-0.22237
-0.0174665
-0.017451
-0.221265
-0.0632041
-0.257547
-0.00962608
-0.003596
-0.224892
-0.24489
-0.161803
-0.244217
-0.2515
-0.163707
-0.12211
-0.2603
-0.150739
-0.120178
-0.24123
-0.0480086
-0.236442
-0.0920627
-0.106937
-0.238345
-0.0434488
-0.0369674
-0.230401
-0.0427985
-0.0411499
-0.231266
-0.103005
-0.0939043
-0.243245
-0.0705532
-0.0637088
-0.238657
-0.0685602
-0.0722899
-0.237419
-0.150324
-0.26545
-0.18596
-0.169547
-0.269817
0
-0.204389
0
-0.205944
-0.0363372
-0.232819
-0.0379887
-0.0231743
-0.231029
-0.0648647
-0.0322131
-0.242021
-0.15467
-0.121862
-0.241939
-0.103474
-0.0818639
-0.245483
-0.0672429
-0.0412152
-0.24068
-0.101084
-0.0665964
-0.248245
-0.103745
-0.239312
-0.070806
-0.0524909
-0.239555
-0.167839
-0.270996
-0.237371
-0.0613112
-0.099823
-0.0553477
-0.249825
-0.0407063
-0.0304292
-0.230294
-0.11033
-0.262288
-0.261066
0
-0.207924
-0.073665
-0.238204
-0.0213593
-0.042129
-0.23249
-0.144144
-0.26702
-0.084161
-0.239089
-0.0302573
-0.0442963
-0.232413
-0.232104
-0.0133897
-0.121962
-0.241794
-0.0525833
-0.0705142
-0.236037
-0.235268
-0.0288033
-0.0197011
-0.227066
-0.0051046
-0.0469839
-0.250853
-0.163803
-0.250063
-0.0993875
-0.0979697
-0.241619
-0.0144555
-0.220861
-0.0724192
-0.257039
-0.186066
-0.254901
-0.131764
-0.118979
-0.245405
-0.0142525
-0.220311
-0.247077
-0.163324
-0.0974825
-0.240128
-0.0932478
-0.267992
-0.205062
-0.133333
-0.258656
-0.164373
-0.0152341
-0.0145967
-0.220473
0
-0.264004
-0.207271
-0.24343
-0.128125
-0.0728046
-0.236468
-0.0623666
0
-0.216399
0
-0.143933
-0.255063
-0.141971
-0.253423
-0.162822
-0.221128
-0.234958
-0.139203
-0.255448
0
0
-0.217377
-0.133637
-0.119393
-0.247984
-0.186879
-0.258929
-0.103234
-0.263227
-0.135341
-0.185366
-0.220845
-0.163758
-0.234462
-0.0137159
-0.0202842
-0.226585
-0.0409539
-0.235748
-0.00778598
-0.019752
-0.227652
-0.138718
-0.267579
-0.243343
