# vtk DataFile Version 2.0
Unstructured Grid by M++
ASCII
DATASET UNSTRUCTURED_GRID
POINTS 4225 float
  0.921875   0.593750 0
  0.921875   0.609375 0
  0.656250   0.609375 0
  0.671875   0.609375 0
  0.656250   0.546875 0
  0.671875   0.546875 0
  0.656250   0.562500 0
  0.656250   0.578125 0
  0.656250   0.593750 0
  0.671875   0.593750 0
  0.671875   0.562500 0
  0.671875   0.578125 0
  0.671875   0.625000 0
  0.671875   0.640625 0
  0.906250   0.578125 0
  0.890625   0.578125 0
  0.546875   0.515625 0
  1.000000   0.890625 0
  0.515625   0.640625 0
  0.515625   0.625000 0
  1.000000   0.875000 0
  0.515625   0.656250 0
  0.515625   0.687500 0
  0.515625   0.671875 0
  1.000000   0.921875 0
  0.546875   0.531250 0
  0.546875   0.546875 0
  0.546875   0.562500 0
  0.796875   0.531250 0
  0.953125   0.890625 0
  0.953125   0.875000 0
  0.953125   0.843750 0
  0.953125   0.828125 0
  0.953125   0.812500 0
  0.531250   0.562500 0
  0.531250   0.546875 0
  0.515625   0.562500 0
  0.515625   0.546875 0
  1.000000   0.812500 0
  0.781250   0.546875 0
  0.765625   0.546875 0
  0.859375   0.921875 0
  0.921875   0.671875 0
  0.609375   0.906250 0
  0.671875   0.656250 0
  0.609375   0.921875 0
  0.671875   0.671875 0
  0.671875   0.984375 0
  0.671875   1.000000 0
  0.906250   0.984375 0
  0.906250   1.000000 0
  0.921875   0.984375 0
  0.921875   1.000000 0
  0.859375   0.609375 0
  1.000000   0.781250 0
  0.515625   0.531250 0
  0.531250   0.531250 0
  0.531250   0.515625 0
  0.515625   0.515625 0
  1.000000   0.750000 0
  0.765625   0.531250 0
  0.781250   0.531250 0
  0.781250   0.515625 0
  0.765625   0.515625 0
  0.859375   0.875000 0
  0.921875   0.625000 0
  0.859375   0.890625 0
  0.921875   0.640625 0
  0.671875   0.968750 0
  0.671875   0.953125 0
  0.921875   0.968750 0
  0.921875   0.953125 0
  0.859375   0.593750 0
  0.859375   0.578125 0
  0.875000   0.578125 0
  0.828125   0.890625 0
  0.890625   0.640625 0
  0.593750   0.890625 0
  0.656250   0.640625 0
  0.593750   0.875000 0
  0.656250   0.625000 0
  0.578125   0.890625 0
  0.640625   0.640625 0
  0.578125   0.875000 0
  0.640625   0.625000 0
  0.968750   0.890625 0
  0.984375   0.890625 0
  0.968750   0.812500 0
  0.968750   0.828125 0
  0.984375   0.812500 0
  0.984375   0.828125 0
  1.000000   0.828125 0
  0.656250   0.953125 0
  0.640625   0.953125 0
  0.890625   0.968750 0
  0.906250   0.968750 0
  0.906250   0.953125 0
  0.890625   0.953125 0
  0.531250   0.703125 0
  0.531250   0.718750 0
  0.546875   0.718750 0
  0.546875   0.703125 0
  0.593750   0.578125 0
  0.562500   0.578125 0
  0.578125   0.578125 0
  0.843750   0.578125 0
  0.828125   0.578125 0
  0.828125   0.812500 0
  0.890625   0.562500 0
  0.828125   0.796875 0
  0.953125   0.906250 0
  0.953125   0.921875 0
  0.531250   0.859375 0
  0.593750   0.609375 0
  0.531250   0.843750 0
  0.593750   0.593750 0
  0.515625   0.843750 0
  0.578125   0.593750 0
  0.515625   0.859375 0
  0.578125   0.609375 0
  0.937500   0.859375 0
  1.000000   0.609375 0
  0.921875   0.859375 0
  0.984375   0.609375 0
  0.937500   0.796875 0
  0.921875   0.796875 0
  0.984375   0.546875 0
  0.562500   0.812500 0
  0.843750   0.796875 0
  0.843750   0.812500 0
  0.859375   0.796875 0
  0.859375   0.812500 0
  1.000000   0.906250 0
  0.984375   0.906250 0
  0.968750   0.906250 0
  0.968750   0.921875 0
  0.984375   0.921875 0
  0.593750   0.921875 0
  0.656250   0.671875 0
  0.593750   0.906250 0
  0.656250   0.656250 0
  0.578125   0.906250 0
  0.640625   0.656250 0
  0.578125   0.921875 0
  0.640625   0.671875 0
  1.000000   0.843750 0
  0.984375   0.843750 0
  0.968750   0.843750 0
  0.968750   0.859375 0
  0.968750   0.875000 0
  1.000000   0.859375 0
  0.984375   0.859375 0
  0.984375   0.875000 0
  0.656250   1.000000 0
  0.656250   0.984375 0
  0.656250   0.968750 0
  0.640625   0.968750 0
  0.640625   1.000000 0
  0.640625   0.984375 0
  0.843750   0.921875 0
  0.906250   0.671875 0
  0.843750   0.906250 0
  0.906250   0.656250 0
  0.828125   0.906250 0
  0.890625   0.656250 0
  0.828125   0.921875 0
  0.890625   0.671875 0
  0.781250   0.859375 0
  0.843750   0.609375 0
  0.781250   0.843750 0
  0.843750   0.593750 0
  0.765625   0.843750 0
  0.828125   0.593750 0
  0.765625   0.859375 0
  0.828125   0.609375 0
  0.968750   0.609375 0
  0.906250   0.859375 0
  0.953125   0.609375 0
  0.890625   0.859375 0
  0.937500   0.609375 0
  0.875000   0.859375 0
  0.562500   0.593750 0
  0.546875   0.593750 0
  0.531250   0.593750 0
  0.531250   0.609375 0
  0.562500   0.609375 0
  0.546875   0.609375 0
  0.609375   0.625000 0
  0.546875   0.875000 0
  0.609375   0.640625 0
  0.546875   0.890625 0
  0.625000   0.640625 0
  0.562500   0.890625 0
  0.625000   0.625000 0
  0.562500   0.875000 0
  0.921875   0.843750 0
  0.984375   0.593750 0
  0.937500   0.843750 0
  1.000000   0.593750 0
  0.921875   0.812500 0
  0.921875   0.828125 0
  0.984375   0.578125 0
  0.937500   0.828125 0
  1.000000   0.578125 0
  0.937500   0.812500 0
  1.000000   0.562500 0
  0.578125   0.828125 0
  0.921875   0.781250 0
  0.937500   0.781250 0
  1.000000   0.531250 0
  0.921875   0.765625 0
  0.984375   0.515625 0
  0.937500   0.765625 0
  0.625000   0.656250 0
  0.562500   0.906250 0
  0.609375   0.656250 0
  0.546875   0.906250 0
  0.625000   0.671875 0
  0.562500   0.921875 0
  0.609375   0.671875 0
  0.546875   0.921875 0
  0.859375   0.781250 0
  0.859375   0.765625 0
  0.828125   0.671875 0
  0.765625   0.921875 0
  0.828125   0.734375 0
  0.765625   0.984375 0
  0.875000   0.843750 0
  0.937500   0.593750 0
  0.890625   0.843750 0
  0.953125   0.593750 0
  0.906250   0.843750 0
  0.968750   0.593750 0
  0.906250   0.828125 0
  0.968750   0.578125 0
  0.937500   0.578125 0
  0.953125   0.578125 0
  0.906250   0.765625 0
  0.875000   0.765625 0
  0.953125   0.515625 0
  0.531250   0.781250 0
  0.671875   0.890625 0
  0.531250   0.921875 0
  0.953125   0.656250 0
  0.828125   0.781250 0
  0.843750   0.781250 0
  0.703125   0.984375 0
  0.687500   0.984375 0
  0.843750   0.875000 0
  0.906250   0.625000 0
  0.671875   0.781250 0
  0.734375   0.531250 0
  0.906250   0.609375 0
  0.671875   0.765625 0
  0.734375   0.515625 0
  0.906250   0.593750 0
  0.890625   0.593750 0
  0.875000   0.593750 0
  0.828125   0.875000 0
  0.890625   0.625000 0
  0.656250   0.781250 0
  0.718750   0.531250 0
  0.890625   0.609375 0
  0.656250   0.765625 0
  0.718750   0.515625 0
  0.875000   0.609375 0
  0.640625   0.765625 0
  0.703125   0.515625 0
  0.812500   0.921875 0
  0.875000   0.671875 0
  0.812500   0.875000 0
  0.875000   0.625000 0
  0.640625   0.781250 0
  0.703125   0.531250 0
  0.812500   0.515625 0
  0.750000   0.828125 0
  0.812500   0.578125 0
  0.687500   1.000000 0
  0.937500   0.656250 0
  0.875000   0.906250 0
  0.531250   0.656250 0
  0.890625   0.906250 0
  0.906250   0.906250 0
  0.562500   0.656250 0
  0.906250   0.890625 0
  0.562500   0.640625 0
  0.968750   0.625000 0
  0.906250   0.875000 0
  0.562500   0.625000 0
  0.937500   0.640625 0
  0.875000   0.890625 0
  0.890625   0.890625 0
  0.546875   0.640625 0
  0.953125   0.625000 0
  0.890625   0.875000 0
  0.546875   0.625000 0
  0.546875   0.687500 0
  0.890625   0.937500 0
  0.937500   0.625000 0
  0.875000   0.875000 0
  0.531250   0.625000 0
  0.531250   0.640625 0
  0.546875   0.656250 0
  0.937500   0.968750 0
  0.687500   0.968750 0
  0.953125   0.968750 0
  0.703125   0.968750 0
  0.968750   0.968750 0
  0.718750   0.968750 0
  0.718750   0.906250 0
  0.968750   0.953125 0
  0.718750   0.953125 0
  0.968750   0.937500 0
  0.859375   0.906250 0
  0.921875   0.656250 0
  0.718750   0.937500 0
  0.828125   0.531250 0
  0.937500   0.953125 0
  0.687500   0.953125 0
  0.953125   0.953125 0
  0.703125   0.953125 0
  0.703125   0.890625 0
  0.843750   0.515625 0
  0.953125   0.937500 0
  0.953125   1.000000 0
  0.703125   0.937500 0
  0.937500   0.937500 0
  0.687500   0.937500 0
  0.703125   0.906250 0
  0.718750   0.890625 0
  0.687500   0.890625 0
  0.687500   0.765625 0
  0.750000   0.515625 0
  0.687500   0.781250 0
  0.750000   0.531250 0
  0.859375   0.937500 0
  0.921875   0.687500 0
  0.687500   0.796875 0
  0.750000   0.546875 0
  0.578125   0.750000 0
  0.515625   1.000000 0
  0.843750   0.765625 0
  0.578125   0.734375 0
  0.515625   0.984375 0
  0.562500   0.734375 0
  0.828125   0.750000 0
  0.765625   1.000000 0
  0.562500   0.750000 0
  0.562500   0.718750 0
  0.578125   0.515625 0
  0.921875   0.703125 0
  0.921875   0.718750 0
  0.593750   0.515625 0
  0.687500   0.875000 0
  0.750000   0.625000 0
  0.578125   0.531250 0
  0.921875   0.750000 0
  0.703125   0.875000 0
  0.765625   0.625000 0
  0.593750   0.531250 0
  0.875000   0.968750 0
  0.937500   0.718750 0
  0.703125   0.828125 0
  0.765625   0.578125 0
  0.937500   0.734375 0
  0.703125   0.812500 0
  0.765625   0.562500 0
  0.890625   0.687500 0
  0.828125   0.937500 0
  0.656250   0.796875 0
  0.718750   0.546875 0
  0.890625   0.718750 0
  0.828125   0.968750 0
  0.906250   0.796875 0
  0.718750   0.828125 0
  0.781250   0.578125 0
  0.890625   0.703125 0
  0.828125   0.953125 0
  0.656250   0.859375 0
  0.906250   0.781250 0
  0.968750   0.531250 0
  0.546875   0.796875 0
  0.671875   0.796875 0
  0.734375   0.546875 0
  0.843750   0.953125 0
  0.906250   0.703125 0
  0.671875   0.875000 0
  0.718750   0.812500 0
  0.781250   0.562500 0
  0.875000   0.812500 0
  0.531250   0.890625 0
  0.593750   0.640625 0
  0.937500   0.890625 0
  0.875000   0.781250 0
  0.609375   0.703125 0
  0.546875   0.953125 0
  0.890625   0.796875 0
  0.625000   0.718750 0
  0.562500   0.968750 0
  0.906250   0.812500 0
  0.734375   0.859375 0
  0.796875   0.609375 0
  0.718750   0.875000 0
  0.781250   0.625000 0
  0.750000   0.859375 0
  0.812500   0.609375 0
  0.812500   0.546875 0
  0.750000   0.812500 0
  0.734375   0.843750 0
  0.796875   0.593750 0
  0.750000   0.843750 0
  0.812500   0.593750 0
[...]
POINT_DATA 4225
SCALARS scalar_value float 1
LOOKUP_TABLE default
-0.292141
-0.296875
-0.278825
-0.283103
-0.22991
-0.235583
-0.242423
-0.254205
-0.267122
-0.272866
-0.247852
-0.260495
-0.291588
-0.298152
-0.287779
-0.288216
-0.190953
-0.378323
-0.264331
-0.25346
-0.370455
-0.275482
-0.298862
-0.287533
-0.394299
-0.197893
-0.205808
-0.214588
-0.267636
-0.375018
-0.367234
-0.355269
-0.350143
-0.346438
-0.213102
-0.204621
-0.212822
-0.204143
-0.346673
-0.275353
-0.270835
-0.376925
-0.314226
-0.380962
-0.303646
-0.385541
-0.308959
-0.392244
-0.396209
-0.419505
-0.43006
-0.425087
-0.437057
-0.300628
-0.338538
-0.196701
-0.197049
-0.189792
-0.189011
-0.330155
-0.257873
-0.263318
-0.245535
-0.240544
-0.363458
-0.301396
-0.367431
-0.305636
-0.388191
-0.3841
-0.414048
-0.40348
-0.294805
-0.289777
-0.288829
-0.367966
-0.308346
-0.378989
-0.296298
-0.374439
-0.289047
-0.381813
-0.294023
-0.376795
-0.285265
-0.376729
-0.377926
-0.346533
-0.35073
-0.346613
-0.351366
-0.351559
-0.386653
-0.389289
-0.403984
-0.408769
-0.399793
-0.395704
-0.312735
-0.320673
-0.322311
-0.315016
-0.233032
-0.226412
-0.229229
-0.290802
-0.291644
-0.351093
-0.283001
-0.347214
-0.382723
-0.390731
-0.378176
-0.257955
-0.371354
-0.245129
-0.372865
-0.23989
-0.380286
-0.252513
-0.359379
-0.293933
-0.358626
-0.29421
-0.34309
-0.343493
-0.27388
-0.356511
-0.346113
-0.350113
-0.345045
-0.349173
-0.386439
-0.385872
-0.384531
-0.392895
-0.39409
-0.388662
-0.308043
-0.383787
-0.302211
-0.386786
-0.300934
-0.391863
-0.307112
-0.357351
-0.357019
-0.356089
-0.362258
-0.368923
-0.363672
-0.363302
-0.370019
-0.400398
-0.39558
-0.391147
-0.394172
-0.404497
-0.399006
-0.37582
-0.315503
-0.371568
-0.311299
-0.371419
-0.312626
-0.37515
-0.316639
-0.363513
-0.30119
-0.360211
-0.295522
-0.360995
-0.296206
-0.364328
-0.301478
-0.294615
-0.358418
-0.295039
-0.358837
-0.295782
-0.359493
-0.236484
-0.234188
-0.232509
-0.243158
-0.24826
-0.24518
-0.275549
-0.381874
-0.286547
-0.387682
-0.290596
-0.384697
-0.280741
-0.379326
-0.354238
-0.289396
-0.354656
-0.289235
-0.346629
-0.349973
-0.284415
-0.349904
-0.284176
-0.346457
-0.279156
-0.362479
-0.340145
-0.339753
-0.267109
-0.336756
-0.258735
-0.336313
-0.299376
-0.390098
-0.296874
-0.393328
-0.306616
-0.395187
-0.305706
-0.398392
-0.341082
-0.337435
-0.319053
-0.374975
-0.331239
-0.385903
-0.355737
-0.291278
-0.354785
-0.290548
-0.354296
-0.289841
-0.350425
-0.284946
-0.286209
-0.2855
-0.337116
-0.3373
-0.259954
-0.343405
-0.371165
-0.401216
-0.307987
-0.342893
-0.341846
-0.387507
-0.389563
-0.364063
-0.302532
-0.348091
-0.246319
-0.297933
-0.342549
-0.230804
-0.293008
-0.293678
-0.294232
-0.364692
-0.303886
-0.348043
-0.240248
-0.298964
-0.342482
-0.225223
-0.299869
-0.342057
-0.219808
-0.374783
-0.317527
-0.365234
-0.305105
-0.347609
-0.234399
-0.255869
-0.358614
-0.292005
-0.392909
-0.30881
-0.372555
-0.277656
-0.373714
-0.375653
-0.284847
-0.36872
-0.272069
-0.298815
-0.363228
-0.260503
-0.304498
-0.367278
-0.367611
-0.268528
-0.299371
-0.362932
-0.257588
-0.305251
-0.387721
-0.300337
-0.36308
-0.255153
-0.265902
-0.280703
-0.417787
-0.385967
-0.420498
-0.384425
-0.42256
-0.383452
-0.372486
-0.411434
-0.3807
-0.401602
-0.371905
-0.310067
-0.377866
-0.27252
-0.406573
-0.382356
-0.409155
-0.381227
-0.370434
-0.262333
-0.399571
-0.443794
-0.378113
-0.397083
-0.378852
-0.372746
-0.37023
-0.370686
-0.342476
-0.23585
-0.347974
-0.252042
-0.382381
-0.318352
-0.352825
-0.265525
-0.333662
-0.437459
-0.337822
-0.329555
-0.426106
-0.328732
-0.334767
-0.388082
-0.332749
-0.323661
-0.194211
-0.322196
-0.325836
-0.195924
-0.368289
-0.301382
-0.201812
-0.333038
-0.368088
-0.30323
-0.204079
-0.399568
-0.325242
-0.360138
-0.287739
-0.328935
-0.356625
-0.280186
-0.320197
-0.379309
-0.352905
-0.253729
-0.326975
-0.389315
-0.34371
-0.359889
-0.290376
-0.323527
-0.383975
-0.366046
-0.34048
-0.26775
-0.349494
-0.352902
-0.25986
-0.385851
-0.322856
-0.368537
-0.35626
-0.283634
-0.348327
-0.390792
-0.282052
-0.373016
-0.340688
-0.31973
-0.408396
-0.34393
-0.324895
-0.411866
-0.346991
-0.365273
-0.30146
-0.367838
-0.304656
-0.364933
-0.301578
-0.280642
-0.355303
-0.362351
-0.296832
-0.361719
-0.296744
-0.35931
-0.291752
-0.355886
-0.373805
-0.329877
-0.397028
-0.280084
-0.360114
-0.36297
-0.287775
-0.380628
-0.319275
-0.333543
-0.397189
-0.284836
-0.363113
-0.375033
-0.330298
-0.39368
-0.3719
-0.356844
-0.266378
-0.330976
-0.387015
-0.333653
-0.338121
-0.393864
-0.376752
-0.317051
-0.324833
-0.380419
-0.324578
-0.418453
-0.327852
-0.383169
-0.328048
-0.382929
-0.371792
-0.314918
-0.363499
-0.313402
-0.400195
-0.324242
-0.382421
-0.340603
-0.256557
-0.273713
-0.283031
-0.353966
-0.302346
-0.0960594
-0.0955547
-0.388589
-0.027862
-0.347187
-0.344742
-0.251784
-0.363924
-0.243376
-0.359434
-0.304878
-0.09651
-0.351029
-0.222824
-0.350355
-0.0931951
-0.314436
-0.0928096
-0.344049
-0.341063
-0.299453
-0.0869971
-0.217397
-0.0939991
-0.0343175
-0.285161
-0.0935889
-0.0928832
-0.294699
-0.09192
-0.436794
-0.0997058
-0.329495
-0.195035
-0.40851
-0.319348
-0.300063
-0.0944211
-0.413501
-0.327273
-0.302609
-0.0950818
-0.336307
-0.0912752
-0.308675
-0.332156
-0.0921182
-0.340068
-0.417518
-0.335596
-0.0530916
-0.28957
-0.0427016
-0.287814
-0.288436
-0.0612458
-0.0937698
-0.304174
-0.286933
-0.0511178
-0.300481
-0.298844
-0.408848
-0.284117
-0.30255
-0.218287
-0.368914
-0.0975315
-0.302522
-0.288409
-0.300861
-0.391847
-0.0348962
-0.262038
-0.396199
-0.0446157
-0.394451
-0.272211
-0.273997
-0.386864
-0.253036
-0.298444
-0.372873
-0.237839
-0.367007
-0.23328
-0.307785
-0.258348
-0.404194
-0.312659
-0.316131
-0.371138
-0.246549
-0.258056
-0.32843
-0.324212
-0.282428
-0.449932
-0.345609
-0.277634
-0.443758
-0.12219
-0.337943
-0.356112
-0.267604
-0.293414
-0.292382
-0.112108
-0.308357
-0.296127
-0.297291
-0.290806
-0.267543
-0.291619
-0.0778895
-0.296203
-0.0958628
-0.0832997
-0.297934
-0.239842
-0.355873
-0.25413
-0.360381
-0.235533
-0.346223
-0.0944771
-0.232653
-0.33701
-0.299388
-0.0869877
-0.251178
-0.34185
-0.348022
-0.338864
-0.20559
-0.356578
-0.281109
-0.282522
-0.283261
-0.274257
-0.289732
-0.0700058
-0.225324
-0.368893
-0.230547
-0.373794
-0.0768726
-0.290943
0
-0.340064
-0.292077
-0.235165
-0.378583
-0.0801711
-0.294033
-0.0128557
-0.241339
-0.0143864
-0.267203
-0.283985
-0.283745
-0.251507
-0.273985
-0.283447
-0.355156
-0.197581
-0.274793
-0.0895966
-0.300935
-0.306966
-0.263431
-0.425467
-0.0914347
-0.430954
-0.416313
-0.0827637
-0.287412
-0.0732424
-0.412401
-0.0765365
-0.406652
-0.0656913
-0.292625
-0.28808
-0.269513
-0.274336
-0.268435
-0.273851
-0.268357
-0.252355
-0.284455
-0.273842
-0.285641
-0.267621
-0.373795
-0.373967
-0.0114405
-0.379078
-0.015796
-0.0743735
-0.292925
0
-0.0119452
-0.276156
-0.256463
-0.299
-0.30815
-0.272899
-0.278812
-0.281081
-0.0896849
-0.300932
-0.29602
-0.318298
-0.267653
-0.0934988
-0.303968
-0.287783
-0.362566
-0.353791
-0.358521
-0.332614
-0.337001
-0.323553
-0.0863415
-0.299003
-0.0831386
-0.29768
-0.389448
-0.382256
-0.0336333
-0.389439
-0.0293847
-0.384392
-0.376986
-0.346763
-0.344036
-0.0826395
-0.297322
-0.384416
-0.0213998
-0.379094
-0.371863
-0.0709598
-0.294448
-0.3644
-0.305385
-0.0952289
-0.368076
-0.305845
-0.095408
-0.380126
-0.383426
-0.0210543
-0.083031
-0.296624
-0.024083
-0.0314046
-0.0924459
-0.307305
-0.0756441
-0.30716
-0.394677
-0.259719
-0.319622
-0.295987
-0.077816
-0.29539
-0.0786126
-0.29167
-0.0668375
-0.409151
-0.0727292
-0.294136
-0.0869271
-0.0891805
-0.419609
-0.425795
-0.0992775
-0.091768
-0.0912074
-0.406607
-0.20631
-0.213359
-0.198017
-0.219541
-0.22869
-0.0892557
-0.300799
-0.0907908
-0.302286
-0.280983
-0.0521169
-0.394814
-0.0398607
-0.398779
-0.0472871
-0.0930273
-0.303822
-0.283259
-0.0596536
-0.403919
-0.0588332
-0.282987
-0.0637877
-0.401419
-0.0544791
-0.0884837
-0.300601
-0.393355
-0.0366331
-0.313104
-0.0522661
-0.410639
-0.413324
-0.0104343
-0.0582444
-0.36541
-0.0104756
-0.267861
-0.162776
-0.0635038
-0.372892
-0.15019
-0.2627
-0.0562983
-0.365501
-0.151886
-0.0537027
-0.36563
-0.0277124
-0.387827
-0.124097
-0.297027
-0.0283883
-0.38911
-0.295797
-0.294811
-0.0211218
-0.384046
-0.119014
-0.35322
0
-0.115644
-0.137561
-0.127559
-0.132308
-0.0183367
-0.273414
-0.317373
-0.102813
-0.428023
-0.108367
-0.16805
-0.168766
-0.17495
-0.10902
-0.175513
-0.182634
-0.18217
-0.14109
-0.0623796
-0.40291
-0.142502
-0.144203
-0.149853
-0.155673
-0.147233
-0.0710365
-0.148483
-0.154581
-0.118791
-0.0302537
-0.0293868
-0.380595
-0.0125141
-0.115614
-0.378894
-0.0141003
-0.0129833
-0.344366
-0.0988595
-0.0186062
-0.259549
-0.00973854
-0.352768
-0.00912536
-0.352195
-0.330188
-0.114659
-0.260768
0
-0.346692
-0.297117
-0.0971175
-0.124936
-0.125864
-0.129415
-0.133962
-0.126991
-0.12806
-0.132208
-0.130919
-0.0443139
-0.395262
-0.153749
-0.0796957
-0.410265
-0.183735
-0.108195
-0.315362
-0.0997863
-0.420775
-0.0998743
-0.417109
-0.108909
-0.321983
-0.10402
-0.420853
-0.421032
-0.103424
-0.424754
-0.325923
-0.109106
-0.279637
-0.431379
-0.025466
-0.277724
-0.115112
0
-0.0344254
-0.281359
-0.109875
-0.241669
0
-0.334932
-0.11589
-0.0321533
-0.281711
-0.385155
-0.0280806
-0.0284622
-0.347643
-0.0451961
-0.351234
-0.389873
-0.0437046
-0.0442613
-0.259696
-0.0202847
-0.0195438
-0.356706
-0.324066
-0.100293
-0.0287973
-0.0302062
-0.360164
-0.0984038
-0.19123
-0.295928
-0.0998413
-0.380739
-0.183319
-0.377828
-0.157367
-0.263684
-0.0682424
-0.160245
-0.065891
-0.170032
-0.259401
-0.409658
-0.335228
-0.114962
-0.0739268
-0.166565
-0.0760852
-0.293563
-0.0114965
-0.290875
-0.0157247
-0.378989
-0.119944
-0.183393
-0.176335
-0.169571
-0.170237
-0.184391
-0.177127
-0.093891
-0.30626
-0.309035
-0.0813706
-0.41409
-0.0747119
-0.410817
-0.136674
-0.0879901
-0.13307
-0.0867141
-0.370537
-0.134897
-0.0874865
-0.219762
-0.152617
-0.106255
-0.154213
-0.106512
-0.413217
-0.0782384
-0.159024
-0.109042
-0.157807
-0.108873
-0.186407
-0.423048
-0.357642
-0.150252
-0.09397
-0.175719
-0.0902942
-0.374983
-0.0275606
-0.117813
-0.117628
-0.117541
-0.116328
-0.0136316
-0.116043
-0.11626
-0.308067
-0.0894044
-0.110388
-0.171204
-0.276808
-0.0913304
-0.395414
-0.180302
-0.0952492
-0.377844
-0.396331
-0.174631
-0.284579
-0.0966691
-0.377818
-0.0925721
-0.374918
-0.328367
-0.104976
-0.094618
-0.343148
-0.116058
-0.121499
-0.0836805
-0.375896
-0.0781928
-0.088106
-0.308707
-0.0866396
-0.392132
-0.333827
-0.110749
-0.110856
-0.426021
-0.0216989
-0.277736
-0.33049
-0.110494
-0.124001
-0.125247
-0.192331
-0.102662
-0.105273
-0.00776884
-0.11729
-0.00775273
-0.36804
-0.00433961
-0.359314
0
-0.351125
-0.285895
-0.00421938
-0.362533
-0.116182
-0.00425393
0
-0.115028
-0.0456519
-0.397448
-0.090385
-0.302399
-0.0635833
-0.405289
-0.0926568
-0.303892
-0.300652
-0.0564735
-0.402749
-0.0806914
-0.135422
-0.0812007
-0.133723
-0.0721882
-0.360267
-0.130572
-0.0726154
-0.19649
-0.378549
-0.0163485
-0.129116
-0.390999
-0.0609009
-0.12511
-0.0602872
-0.356907
-0.182042
-0.37327
-0.0116859
-0.126247
-0.0987098
-0.378463
-0.148254
-0.0937384
-0.39409
-0.038119
-0.143692
-0.383712
-0.179864
-0.280917
-0.0803669
-0.0856702
-0.375278
-0.17557
-0.267318
-0.413415
-0.340147
-0.123866
-0.0825301
-0.284258
-0.08753
-0.374981
-0.180698
-0.273809
-0.418145
-0.347135
-0.135959
-0.0890843
-0.369701
-0.0127723
-0.123972
-0.0602105
-0.127563
-0.0717764
-0.383655
-0.0227561
-0.131956
-0.0809072
-0.209166
-0.130144
-0.0796496
-0.0283225
-0.353976
-0.36904
-0.126926
-0.221581
-0.0449189
-0.356578
-0.380871
-0.318379
-0.104681
-0.0436124
-0.229167
-0.0419364
-0.357823
-0.380418
-0.318577
-0.103486
-0.0397097
-0.142759
-0.0988544
-0.386426
-0.223991
-0.0255721
-0.137717
-0.0934539
-0.378343
-0.227654
-0.376303
-0.314927
-0.101332
-0.0272688
-0.209176
-0.0119789
-0.350959
-0.120704
-0.217803
-0.0119205
-0.351977
-0.370526
-0.312015
-0.097963
-0.0119954
-0.147696
-0.102933
-0.128494
-0.0781723
-0.364061
-0.0159865
-0.0815845
-0.387367
-0.384844
-0.207055
-0.297658
-0.0795543
-0.378519
-0.0121046
-0.111113
-0.210886
-0.276934
-0.439714
-0.0773556
-0.380563
0
-0.113122
-0.401116
-0.176669
-0.296033
-0.101565
-0.381376
-0.170809
-0.112564
-0.38497
-0.32171
-0.107355
-0.0540133
-0.13709
-0.385202
-0.057215
-0.0828583
-0.368675
-0.150202
-0.144879
-0.394568
-0.07563
-0.36583
0
-0.343221
-0.322146
-0.115006
-0.0430376
-0.27817
-0.100654
-0.0219377
-0.271745
-0.114645
-0.0415148
-0.278457
0
-0.343557
-0.15796
-0.105971
-0.391829
-0.108401
-0.162474
-0.114835
-0.19464
-0.155616
-0.102675
-0.102857
-0.384749
-0.152989
-0.150958
-0.410745
-0.102929
-0.106374
-0.40785
-0.0680861
-0.155887
-0.160446
-0.108885
-0.112918
0
-0.231031
-0.110636
-0.218238
-0.287535
-0.0439766
-0.367862
-0.365075
-0.158922
-0.108513
-0.391439
-0.204306
-0.271633
-0.433111
-0.115771
-0.068482
-0.378738
-0.201181
0
-0.345445
-0.114323
-0.0387753
-0.279785
-0.107406
-0.0311114
-0.275975
-0.107812
-0.102776
-0.314559
-0.101469
-0.435263
-0.276415
-0.435285
-0.102124
-0.431976
-0.0200045
-0.272992
-0.0935442
-0.145771
-0.0979846
-0.153111
-0.263064
-0.0929602
-0.392581
-0.0355188
-0.147935
-0.102143
-0.158231
-0.0970336
-0.156313
-0.400462
-0.0840958
-0.368309
-0.147849
-0.262121
-0.0903196
-0.371517
-0.390907
-0.153414
-0.0770108
-0.142571
-0.140117
-0.39581
-0.338151
-0.121032
-0.078474
-0.11943
-0.0306337
-0.25222
-0.0857409
-0.145503
-0.405093
-0.0918989
-0.150453
-0.409466
-0.0956115
-0.159724
-0.1108
-0.412962
-0.41814
-0.0841167
-0.165888
-0.113377
-0.184146
-0.105117
-0.163012
-0.389377
-0.215412
-0.0864657
-0.380337
-0.270215
-0.426325
-0.0734282
-0.193886
-0.380409
-0.197925
-0.296186
-0.0710278
-0.263371
-0.420052
-0.336368
-0.111414
-0.0639439
-0.373014
-0.184058
-0.332848
-0.108039
-0.0580457
-0.167335
-0.0484443
-0.154945
-0.411713
-0.101192
-0.161668
-0.0393231
-0.144409
-0.103337
-0.171395
-0.0460601
-0.156493
-0.279163
-0.0373333
-0.360643
-0.145581
-0.374082
-0.131114
-0.227
-0.0580272
-0.35927
-0.137193
-0.389845
-0.0688319
-0.115909
-0.013655
-0.348241
-0.252862
-0.346861
-0.112656
-0.189677
0
-0.129144
-0.387036
-0.0589429
-0.134547
-0.0698544
-0.361683
-0.260619
-0.112486
0
-0.343949
-0.0133363
-0.349371
-0.116434
-0.115656
-0.376694
-0.310542
-0.0998183
-0.014024
-0.12003
-0.0304467
-0.352231
-0.0295094
-0.120937
-0.0981011
-0.377972
-0.169832
-0.1025
-0.035288
-0.14721
-0.107792
-0.0524274
-0.371155
-0.173143
-0.255638
-0.0916384
-0.204508
-0.0661752
-0.313322
-0.092456
-0.397385
-0.402546
-0.325932
-0.104921
-0.409193
-0.415384
-0.0119973
-0.271277
-0.272259
-0.104702
-0.415192
-0.231352
-0.305022
-0.0802795
-0.390335
-0.336785
-0.110018
-0.411438
-0.229679
-0.0733434
-0.218386
-0.37567
-0.187614
-0.295244
-0.061296
-0.374639
-0.0118353
-0.266131
-0.0926141
-0.426395
-0.144426
-0.098934
-0.374899
-0.0180237
-0.126052
-0.0701797
-0.399702
-0.0494165
-0.146178
-0.0989007
-0.380636
-0.141671
-0.0937684
-0.0575889
-0.121983
-0.0687246
-0.124627
-0.0587659
-0.12293
-0.0131164
-0.115807
-0.377423
0
-0.113777
-0.206283
-0.121666
-0.0692195
-0.0350124
-0.373924
-0.171142
-0.122244
-0.0274803
-0.368674
-0.157141
-0.120294
-0.0318896
-0.376057
-0.174932
-0.122819
-0.410538
-0.00633033
-0.265365
-0.3179
-0.0974539
-0.406623
-0.220629
-0.302516
-0.0716517
-0.266767
-0.0973176
-0.411242
-0.150429
-0.0984724
-0.090071
-0.0899162
-0.416571
-0.175173
-0.109056
-0.407681
-0.071386
-0.168754
-0.107308
-0.391667
-0.167048
-0.100916
-0.0259535
-0.139506
-0.279278
-0.027415
-0.360631
-0.351402
-0.138154
-0.046514
-0.353235
-0.122319
-0.0880914
-0.138565
-0.0461622
-0.352136
-0.121612
-0.143057
-0.0871752
-0.123178
-0.0801077
-0.140627
-0.0878533
-0.298854
-0.279572
-0.071519
-0.173532
-0.0274106
-0.277388
-0.208809
-0.371815
-0.170066
-0.288244
-0.0551479
-0.369894
-0.221682
-0.170861
-0.184404
-0.200445
-0.111046
-0.164472
-0.101081
-0.405249
-0.119804
-0.299453
-0.0439132
-0.393331
-0.368258
-0.212236
0
-0.346936
-0.104675
-0.322927
-0.118034
-0.0710748
-0.294332
-0.019647
-0.128608
-0.340923
-0.164911
-0.119795
-0.014964
-0.365003
-0.150222
-0.0596087
-0.357873
-0.0251885
-0.280288
-0.211663
0
-0.347571
-0.296074
-0.182653
-0.187579
-0.11515
-0.318684
-0.106749
-0.454531
-0.0326304
-0.27505
-0.179139
-0.113857
-0.394687
-0.233019
-0.274969
-0.400581
-0.0818126
-0.369105
-0.153129
-0.101381
-0.246569
-0.119315
-0.0166531
-0.363677
-0.148307
-0.0463444
-0.406354
-0.321055
-0.0998324
-0.107077
-0.125349
-0.129831
-0.118557
-0.0109493
-0.267491
-0.0952758
-0.424723
-0.202972
-0.129536
0
-0.245969
-0.0346824
-0.412054
-0.0116269
-0.268049
-0.13171
-0.122116
0
-0.348987
-0.237889
-0.00443914
-0.356922
-0.115606
-0.0218378
-0.401457
-0.335776
-0.122606
-0.313897
-0.291941
-0.0632274
-0.093535
-0.109681
-0.401687
-0.271128
-0.281374
-0.145513
-0.358512
0
-0.347813
-0.116738
-0.190774
-0.115091
-0.118235
-0.0305621
-0.199826
-0.29752
-0.159071
-0.36785
-0.0115498
-0.352407
-0.00461607
-0.354089
-0.188909
-0.127527
-0.115705
-0.148368
-0.106646
-0.165803
-0.224376
0
-0.0277358
-0.281776
-0.338986
-0.116991
-0.121241
-0.0219209
-0.162821
-0.0355513
-0.133579
-0.269964
-0.104862
-0.0263717
-0.180409
-0.228615
-0.011733
-0.352603
-0.348817
-0.122116
-0.121032
-0.297838
-0.0322067
-0.388935
-0.355245
-0.198768
-0.165704
-0.0999084
-0.378421
-0.245581
-0.0219437
-0.356822
-0.35375
-0.128117
-0.136197
-0.052985
-0.398963
-0.0987883
-0.385956
-0.197838
-0.0228528
-0.27088
-0.314543
-0.0989713
-0.434454
-0.38267
-0.319161
-0.105714
-0.0457567
-0.0714375
-0.293625
-0.0247699
-0.369966
-0.133072
-0.344869
-0.159864
-0.12069
-0.105163
-0.388736
-0.254125
-0.0226691
-0.127609
-0.110316
-0.407071
-0.167918
-0.248371
-0.033793
-0.362263
-0.134128
-0.422944
-0.0905094
-0.175042
-0.27542
-0.111833
-0.414675
-0.167014
-0.10443
-0.136929
-0.0117895
-0.12251
-0.122779
-0.0186999
-0.36318
-0.14605
-0.118978
-0.0320946
-0.360136
-0.134707
-0.123553
-0.0289242
-0.178009
-0.0654292
-0.235969
-0.127035
-0.0373701
-0.384533
-0.193336
-0.234125
-0.0235331
-0.357738
-0.127117
-0.407368
-0.00507812
-0.261351
-0.320295
-0.0993069
-0.0624763
-0.40395
-0.163375
-0.273145
-0.0939354
-0.374775
-0.118742
-0.0209199
-0.362926
-0.144158
-0.339471
-0.122478
-0.348953
-0.1291
-0.024276
-0.0430048
-0.288353
-0.00484958
-0.352002
-0.1092
-0.325256
-0.127223
-0.299216
-0.216252
-0.0534024
-0.400134
-0.041825
-0.215084
-0.120388
-0.0621447
-0.292657
-0.0136436
-0.367161
-0.118722
-0.334264
-0.0930133
-0.150619
-0.118031
-0.00948722
-0.359283
-0.137731
-0.0940479
-0.270991
-0.429946
-0.163621
-0.111062
0
-0.34527
-0.117473
-0.171384
-0.112568
-0.293105
-0.0812494
-0.286535
-0.0243926
-0.361851
-0.345526
-0.140884
-0.100129
-0.0166507
-0.131205
-0.0305889
-0.263749
-0.098387
-0.385486
-0.215223
-0.301619
-0.0752842
-0.382837
-0.311348
-0.11745
-0.0144771
-0.1322
-0.116245
-0.289747
-0.0785731
-0.0158745
-0.356792
-0.131566
-0.42012
-0.0188935
-0.276158
-0.396845
-0.241416
-0.277027
-0.228397
-0.172619
-0.11234
-0.422458
-0.118531
-0.0229526
-0.142389
-0.0460894
-0.35503
-0.192085
-0.318231
-0.107091
-0.0676574
-0.231964
-0.128858
-0.138996
-0.339299
-0.108959
-0.410716
-0.263169
-0.355456
-0.118573
-0.151192
-0.131154
-0.0816739
-0.410846
-0.253065
-0.181029
-0.186018
-0.0704261
-0.223645
-0.135604
-0.0898085
-0.413952
-0.16097
-0.0973095
-0.415761
-0.137166
-0.0967922
-0.419302
-0.161492
-0.0740117
-0.405729
-0.244847
-0.146011
-0.124084
-0.300973
-0.0559022
-0.396383
-0.22425
-0.13573
-0.0998628
-0.311403
-0.0960745
-0.422271
-0.162162
-0.140856
-0.368252
-0.130481
-0.162972
-0.0973567
-0.307781
-0.0888575
-0.416922
-0.262284
-0.417491
0
-0.260713
-0.156663
-0.101734
-0.386168
-0.242429
-0.117327
-0.373055
-0.310876
-0.0989933
-0.0126597
-0.0971834
0
-0.113702
-0.278995
-0.114322
-0.105017
-0.374405
-0.308316
-0.097336
0
-0.24151
-0.112811
-0.2594
-0.0805913
-0.369444
-0.384187
-0.155889
-0.277997
-0.00864765
-0.350498
-0.33184
-0.122158
-0.0797141
-0.19678
-0.0144697
-0.392332
-0.334501
-0.115528
-0.0710266
-0.0792524
-0.369693
-0.159346
-0.00790314
-0.122399
-0.116313
-0.0073779
-0.349574
-0.123032
0
-0.278228
-0.114764
-0.113007
0
-0.345729
-0.270651
-0.122372
-0.405544
-0.0887927
-0.156586
-0.113845
-0.178024
-0.18556
-0.239988