# vtk DataFile Version 2.0
Unstructured Grid by M++
ASCII
DATASET UNSTRUCTURED_GRID
POINTS 4225 float
  0.921875   0.593750 0
  0.921875   0.609375 0
  0.656250   0.609375 0
  0.671875   0.609375 0
  0.656250   0.546875 0
  0.671875   0.546875 0
  0.656250   0.562500 0
  0.656250   0.578125 0
  0.656250   0.593750 0
  0.671875   0.593750 0
  0.671875   0.562500 0
  0.671875   0.578125 0
  0.671875   0.625000 0
  0.671875   0.640625 0
  0.906250   0.578125 0
  0.890625   0.578125 0
  0.546875   0.515625 0
  1.000000   0.890625 0
  0.515625   0.640625 0
  0.515625   0.625000 0
  1.000000   0.875000 0
  0.515625   0.656250 0
  0.515625   0.687500 0
  0.515625   0.671875 0
  1.000000   0.921875 0
  0.546875   0.531250 0
  0.546875   0.546875 0
  0.546875   0.562500 0
  0.796875   0.531250 0
  0.953125   0.890625 0
  0.953125   0.875000 0
  0.953125   0.843750 0
  0.953125   0.828125 0
  0.953125   0.812500 0
  0.531250   0.562500 0
  0.531250   0.546875 0
  0.515625   0.562500 0
  0.515625   0.546875 0
  1.000000   0.812500 0
  0.781250   0.546875 0
  0.765625   0.546875 0
  0.859375   0.921875 0
  0.921875   0.671875 0
  0.609375   0.906250 0
  0.671875   0.656250 0
  0.609375   0.921875 0
  0.671875   0.671875 0
  0.671875   0.984375 0
  0.671875   1.000000 0
  0.906250   0.984375 0
  0.906250   1.000000 0
  0.921875   0.984375 0
  0.921875   1.000000 0
  0.859375   0.609375 0
  1.000000   0.781250 0
  0.515625   0.531250 0
  0.531250   0.531250 0
  0.531250   0.515625 0
  0.515625   0.515625 0
  1.000000   0.750000 0
  0.765625   0.531250 0
  0.781250   0.531250 0
  0.781250   0.515625 0
  0.765625   0.515625 0
  0.859375   0.875000 0
  0.921875   0.625000 0
  0.859375   0.890625 0
  0.921875   0.640625 0
  0.671875   0.968750 0
  0.671875   0.953125 0
  0.921875   0.968750 0
  0.921875   0.953125 0
  0.859375   0.593750 0
  0.859375   0.578125 0
  0.875000   0.578125 0
  0.828125   0.890625 0
  0.890625   0.640625 0
  0.593750   0.890625 0
  0.656250   0.640625 0
  0.593750   0.875000 0
  0.656250   0.625000 0
  0.578125   0.890625 0
  0.640625   0.640625 0
  0.578125   0.875000 0
  0.640625   0.625000 0
  0.968750   0.890625 0
  0.984375   0.890625 0
  0.968750   0.812500 0
  0.968750   0.828125 0
  0.984375   0.812500 0
  0.984375   0.828125 0
  1.000000   0.828125 0
  0.656250   0.953125 0
  0.640625   0.953125 0
  0.890625   0.968750 0
  0.906250   0.968750 0
  0.906250   0.953125 0
  0.890625   0.953125 0
  0.531250   0.703125 0
  0.531250   0.718750 0
  0.546875   0.718750 0
  0.546875   0.703125 0
  0.593750   0.578125 0
  0.562500   0.578125 0
  0.578125   0.578125 0
  0.843750   0.578125 0
  0.828125   0.578125 0
  0.828125   0.812500 0
  0.890625   0.562500 0
  0.828125   0.796875 0
  0.953125   0.906250 0
  0.953125   0.921875 0
  0.531250   0.859375 0
  0.593750   0.609375 0
  0.531250   0.843750 0
  0.593750   0.593750 0
  0.515625   0.843750 0
  0.578125   0.593750 0
  0.515625   0.859375 0
  0.578125   0.609375 0
  0.937500   0.859375 0
  1.000000   0.609375 0
  0.921875   0.859375 0
  0.984375   0.609375 0
  0.937500   0.796875 0
  0.921875   0.796875 0
  0.984375   0.546875 0
  0.562500   0.812500 0
  0.843750   0.796875 0
  0.843750   0.812500 0
  0.859375   0.796875 0
  0.859375   0.812500 0
  1.000000   0.906250 0
  0.984375   0.906250 0
  0.968750   0.906250 0
  0.968750   0.921875 0
  0.984375   0.921875 0
  0.593750   0.921875 0
  0.656250   0.671875 0
  0.593750   0.906250 0
  0.656250   0.656250 0
  0.578125   0.906250 0
  0.640625   0.656250 0
  0.578125   0.921875 0
  0.640625   0.671875 0
  1.000000   0.843750 0
  0.984375   0.843750 0
  0.968750   0.843750 0
  0.968750   0.859375 0
  0.968750   0.875000 0
  1.000000   0.859375 0
  0.984375   0.859375 0
  0.984375   0.875000 0
  0.656250   1.000000 0
  0.656250   0.984375 0
  0.656250   0.968750 0
  0.640625   0.968750 0
  0.640625   1.000000 0
  0.640625   0.984375 0
  0.843750   0.921875 0
  0.906250   0.671875 0
  0.843750   0.906250 0
  0.906250   0.656250 0
  0.828125   0.906250 0
  0.890625   0.656250 0
  0.828125   0.921875 0
  0.890625   0.671875 0
  0.781250   0.859375 0
  0.843750   0.609375 0
  0.781250   0.843750 0
  0.843750   0.593750 0
  0.765625   0.843750 0
  0.828125   0.593750 0
  0.765625   0.859375 0
  0.828125   0.609375 0
  0.968750   0.609375 0
  0.906250   0.859375 0
  0.953125   0.609375 0
  0.890625   0.859375 0
  0.937500   0.609375 0
  0.875000   0.859375 0
  0.562500   0.593750 0
  0.546875   0.593750 0
  0.531250   0.593750 0
  0.531250   0.609375 0
  0.562500   0.609375 0
  0.546875   0.609375 0
  0.609375   0.625000 0
  0.546875   0.875000 0
  0.609375   0.640625 0
  0.546875   0.890625 0
  0.625000   0.640625 0
  0.562500   0.890625 0
  0.625000   0.625000 0
  0.562500   0.875000 0
  0.921875   0.843750 0
  0.984375   0.593750 0
  0.937500   0.843750 0
  1.000000   0.593750 0
  0.921875   0.812500 0
  0.921875   0.828125 0
  0.984375   0.578125 0
  0.937500   0.828125 0
  1.000000   0.578125 0
  0.937500   0.812500 0
  1.000000   0.562500 0
  0.578125   0.828125 0
  0.921875   0.781250 0
  0.937500   0.781250 0
  1.000000   0.531250 0
  0.921875   0.765625 0
  0.984375   0.515625 0
  0.937500   0.765625 0
  0.625000   0.656250 0
  0.562500   0.906250 0
  0.609375   0.656250 0
  0.546875   0.906250 0
  0.625000   0.671875 0
  0.562500   0.921875 0
  0.609375   0.671875 0
  0.546875   0.921875 0
  0.859375   0.781250 0
  0.859375   0.765625 0
  0.828125   0.671875 0
  0.765625   0.921875 0
  0.828125   0.734375 0
  0.765625   0.984375 0
  0.875000   0.843750 0
  0.937500   0.593750 0
  0.890625   0.843750 0
  0.953125   0.593750 0
  0.906250   0.843750 0
  0.968750   0.593750 0
  0.906250   0.828125 0
  0.968750   0.578125 0
  0.937500   0.578125 0
  0.953125   0.578125 0
  0.906250   0.765625 0
  0.875000   0.765625 0
  0.953125   0.515625 0
  0.531250   0.781250 0
  0.671875   0.890625 0
  0.531250   0.921875 0
  0.953125   0.656250 0
  0.828125   0.781250 0
  0.843750   0.781250 0
  0.703125   0.984375 0
  0.687500   0.984375 0
  0.843750   0.875000 0
  0.906250   0.625000 0
  0.671875   0.781250 0
  0.734375   0.531250 0
  0.906250   0.609375 0
  0.671875   0.765625 0
  0.734375   0.515625 0
  0.906250   0.593750 0
  0.890625   0.593750 0
  0.875000   0.593750 0
  0.828125   0.875000 0
  0.890625   0.625000 0
  0.656250   0.781250 0
  0.718750   0.531250 0
  0.890625   0.609375 0
  0.656250   0.765625 0
  0.718750   0.515625 0
  0.875000   0.609375 0
  0.640625   0.765625 0
  0.703125   0.515625 0
  0.812500   0.921875 0
  0.875000   0.671875 0
  0.812500   0.875000 0
  0.875000   0.625000 0
  0.640625   0.781250 0
  0.703125   0.531250 0
  0.812500   0.515625 0
  0.750000   0.828125 0
  0.812500   0.578125 0
  0.687500   1.000000 0
  0.937500   0.656250 0
  0.875000   0.906250 0
  0.531250   0.656250 0
  0.890625   0.906250 0
  0.906250   0.906250 0
  0.562500   0.656250 0
  0.906250   0.890625 0
  0.562500   0.640625 0
  0.968750   0.625000 0
  0.906250   0.875000 0
  0.562500   0.625000 0
  0.937500   0.640625 0
  0.875000   0.890625 0
  0.890625   0.890625 0
  0.546875   0.640625 0
  0.953125   0.625000 0
  0.890625   0.875000 0
  0.546875   0.625000 0
  0.546875   0.687500 0
  0.890625   0.937500 0
  0.937500   0.625000 0
  0.875000   0.875000 0
  0.531250   0.625000 0
  0.531250   0.640625 0
  0.546875   0.656250 0
  0.937500   0.968750 0
  0.687500   0.968750 0
  0.953125   0.968750 0
  0.703125   0.968750 0
  0.968750   0.968750 0
  0.718750   0.968750 0
  0.718750   0.906250 0
  0.968750   0.953125 0
  0.718750   0.953125 0
  0.968750   0.937500 0
  0.859375   0.906250 0
  0.921875   0.656250 0
  0.718750   0.937500 0
  0.828125   0.531250 0
  0.937500   0.953125 0
  0.687500   0.953125 0
  0.953125   0.953125 0
  0.703125   0.953125 0
  0.703125   0.890625 0
  0.843750   0.515625 0
  0.953125   0.937500 0
  0.953125   1.000000 0
  0.703125   0.937500 0
  0.937500   0.937500 0
  0.687500   0.937500 0
  0.703125   0.906250 0
  0.718750   0.890625 0
  0.687500   0.890625 0
  0.687500   0.765625 0
  0.750000   0.515625 0
  0.687500   0.781250 0
  0.750000   0.531250 0
  0.859375   0.937500 0
  0.921875   0.687500 0
  0.687500   0.796875 0
  0.750000   0.546875 0
  0.578125   0.750000 0
  0.515625   1.000000 0
  0.843750   0.765625 0
  0.578125   0.734375 0
  0.515625   0.984375 0
  0.562500   0.734375 0
  0.828125   0.750000 0
  0.765625   1.000000 0
  0.562500   0.750000 0
  0.562500   0.718750 0
  0.578125   0.515625 0
  0.921875   0.703125 0
  0.921875   0.718750 0
  0.593750   0.515625 0
  0.687500   0.875000 0
  0.750000   0.625000 0
  0.578125   0.531250 0
  0.921875   0.750000 0
  0.703125   0.875000 0
  0.765625   0.625000 0
  0.593750   0.531250 0
  0.875000   0.968750 0
  0.937500   0.718750 0
  0.703125   0.828125 0
  0.765625   0.578125 0
  0.937500   0.734375 0
  0.703125   0.812500 0
  0.765625   0.562500 0
  0.890625   0.687500 0
  0.828125   0.937500 0
  0.656250   0.796875 0
  0.718750   0.546875 0
  0.890625   0.718750 0
  0.828125   0.968750 0
  0.906250   0.796875 0
  0.718750   0.828125 0
  0.781250   0.578125 0
  0.890625   0.703125 0
  0.828125   0.953125 0
  0.656250   0.859375 0
  0.906250   0.781250 0
  0.968750   0.531250 0
  0.546875   0.796875 0
  0.671875   0.796875 0
  0.734375   0.546875 0
  0.843750   0.953125 0
  0.906250   0.703125 0
  0.671875   0.875000 0
  0.718750   0.812500 0
  0.781250   0.562500 0
  0.875000   0.812500 0
  0.531250   0.890625 0
  0.593750   0.640625 0
  0.937500   0.890625 0
  0.875000   0.781250 0
  0.609375   0.703125 0
  0.546875   0.953125 0
  0.890625   0.796875 0
  0.625000   0.718750 0
  0.562500   0.968750 0
  0.906250   0.812500 0
  0.734375   0.859375 0
  0.796875   0.609375 0
  0.718750   0.875000 0
  0.781250   0.625000 0
  0.750000   0.859375 0
  0.812500   0.609375 0
  0.812500   0.546875 0
  0.750000   0.812500 0
  0.734375   0.843750 0
  0.796875   0.593750 0
  0.750000   0.843750 0
  0.812500   0.593750 0
[...]
POINT_DATA 4225
SCALARS scalar_value float 1
LOOKUP_TABLE default
-0.21505
-0.221181
-0.233508
-0.232597
-0.211422
-0.211185
-0.218531
-0.224537
-0.229484
-0.228563
-0.217855
-0.223789
-0.236122
-0.239582
-0.210588
-0.212607
-0.196721
-0.347273
-0.245006
-0.241841
-0.342717
-0.247727
-0.252465
-0.250128
-0.355784
-0.20665
-0.215764
-0.223684
-0.201933
-0.348069
-0.343793
-0.334499
-0.328486
-0.322076
-0.224785
-0.217512
-0.225657
-0.219068
-0.321766
-0.209318
-0.210145
-0.356118
-0.244336
-0.306437
-0.243033
-0.312282
-0.246699
-0.380545
-0.389136
-0.376761
-0.391628
-0.376837
-0.392825
-0.224648
-0.307126
-0.211134
-0.209021
-0.199465
-0.202054
-0.285917
-0.203217
-0.202617
-0.195303
-0.195492
-0.343663
-0.227711
-0.347987
-0.234067
-0.371372
-0.36198
-0.367591
-0.362041
-0.221029
-0.216193
-0.214604
-0.346329
-0.233108
-0.297372
-0.24059
-0.292771
-0.236869
-0.294321
-0.241505
-0.290328
-0.23777
-0.347779
-0.347448
-0.32202
-0.328004
-0.32183
-0.327688
-0.327454
-0.358362
-0.351356
-0.368066
-0.367697
-0.362143
-0.362598
-0.254603
-0.257541
-0.256777
-0.25405
-0.227114
-0.228947
-0.2279
-0.217404
-0.218262
-0.310556
-0.206749
-0.299513
-0.352018
-0.355351
-0.28269
-0.236711
-0.280064
-0.232421
-0.2797
-0.233056
-0.282197
-0.237425
-0.339753
-0.217729
-0.340267
-0.217798
-0.314291
-0.313222
-0.186965
-0.275128
-0.301512
-0.312491
-0.30418
-0.314496
-0.351585
-0.351616
-0.351759
-0.355379
-0.355588
-0.306498
-0.247319
-0.301836
-0.243897
-0.297649
-0.244707
-0.301257
-0.247735
-0.332966
-0.333223
-0.333897
-0.338307
-0.343258
-0.337874
-0.337974
-0.342822
-0.393424
-0.381209
-0.369996
-0.366476
-0.398531
-0.381665
-0.356173
-0.24308
-0.35181
-0.238354
-0.351423
-0.237457
-0.356145
-0.24203
-0.329438
-0.224901
-0.3223
-0.221653
-0.319125
-0.222144
-0.326966
-0.22522
-0.218008
-0.340596
-0.218531
-0.340388
-0.219633
-0.339687
-0.233766
-0.234278
-0.234586
-0.238173
-0.23792
-0.238063
-0.239505
-0.28665
-0.243088
-0.289679
-0.242318
-0.291945
-0.238635
-0.288268
-0.335012
-0.209775
-0.334861
-0.209359
-0.321296
-0.328755
-0.201267
-0.328861
-0.200461
-0.321927
-0.192702
-0.279033
-0.302894
-0.304288
-0.180546
-0.291698
-0.175817
-0.293667
-0.245461
-0.294624
-0.246121
-0.292179
-0.248118
-0.297119
-0.248636
-0.294228
-0.293939
-0.284796
-0.239758
-0.353989
-0.264959
-0.377064
-0.333491
-0.213253
-0.334449
-0.211751
-0.334834
-0.210544
-0.32811
-0.202633
-0.206181
-0.204285
-0.289728
-0.286571
-0.179661
-0.268463
-0.320299
-0.291782
-0.24066
-0.289688
-0.291532
-0.379355
-0.379919
-0.342421
-0.22832
-0.274309
-0.203714
-0.222661
-0.269904
-0.194601
-0.216753
-0.218505
-0.220105
-0.341046
-0.22858
-0.273429
-0.203588
-0.223801
-0.269141
-0.193539
-0.224323
-0.268596
-0.192213
-0.356041
-0.24113
-0.339428
-0.228548
-0.272646
-0.203042
-0.193804
-0.306589
-0.218753
-0.386963
-0.240045
-0.352395
-0.247505
-0.352479
-0.352423
-0.247185
-0.348821
-0.244784
-0.22559
-0.345169
-0.241553
-0.234027
-0.348556
-0.348873
-0.244916
-0.226052
-0.345129
-0.241693
-0.25157
-0.358734
-0.226867
-0.344535
-0.241752
-0.244976
-0.247303
-0.367807
-0.372135
-0.368634
-0.372302
-0.369906
-0.372159
-0.340236
-0.363417
-0.364955
-0.358912
-0.352148
-0.239184
-0.357153
-0.199923
-0.362282
-0.363842
-0.362736
-0.36458
-0.328822
-0.191924
-0.358433
-0.395983
-0.356005
-0.358399
-0.353809
-0.337142
-0.332514
-0.324959
-0.270984
-0.195246
-0.275314
-0.203548
-0.360022
-0.250007
-0.280637
-0.210862
-0.262177
-0.302149
-0.282893
-0.258744
-0.298558
-0.258983
-0.273037
-0.382249
-0.262299
-0.256286
-0.192122
-0.256157
-0.263037
-0.189551
-0.317149
-0.231477
-0.203805
-0.280658
-0.321353
-0.230574
-0.202552
-0.368765
-0.2646
-0.29735
-0.219969
-0.272999
-0.289632
-0.215909
-0.247144
-0.361218
-0.277837
-0.21131
-0.259911
-0.371176
-0.311622
-0.300257
-0.219513
-0.253125
-0.366103
-0.301195
-0.300936
-0.183096
-0.271382
-0.279251
-0.211263
-0.365297
-0.254472
-0.312634
-0.29203
-0.214935
-0.316309
-0.28773
-0.243814
-0.348355
-0.296684
-0.253432
-0.300297
-0.309151
-0.256765
-0.314223
-0.319924
-0.321019
-0.226038
-0.325378
-0.229869
-0.324259
-0.225643
-0.207575
-0.296842
-0.312415
-0.22302
-0.315685
-0.222605
-0.303193
-0.219085
-0.294417
-0.328404
-0.269523
-0.376928
-0.221084
-0.290818
-0.297611
-0.224725
-0.360678
-0.248523
-0.277815
-0.3837
-0.22567
-0.294108
-0.323188
-0.268143
-0.376932
-0.315416
-0.282373
-0.217103
-0.265348
-0.376717
-0.276418
-0.266425
-0.382748
-0.317366
-0.253718
-0.250304
-0.365853
-0.256076
-0.295573
-0.257051
-0.371544
-0.256915
-0.371737
-0.349755
-0.235744
-0.290947
-0.250878
-0.301119
-0.252037
-0.366368
-0.29891
-0.244964
-0.223742
-0.184824
-0.273152
-0.262475
-0.0421511
-0.0403192
-0.282005
-0.0249872
-0.271749
-0.27184
-0.242886
-0.275365
-0.234275
-0.274356
-0.264737
-0.0445859
-0.273338
-0.220434
-0.297176
-0.0427977
-0.267353
-0.0406591
-0.295316
-0.272248
-0.250872
-0.0553708
-0.211374
-0.0417913
-0.0114558
-0.206153
-0.0399176
-0.0381562
-0.245813
-0.0364056
-0.296996
-0.0380481
-0.285709
-0.209973
-0.306323
-0.269068
-0.262929
-0.0444023
-0.309359
-0.269945
-0.264639
-0.0484058
-0.290778
-0.036885
-0.266172
-0.271436
-0.0388209
-0.293043
-0.313841
-0.270854
-0.0187733
-0.223942
-0.0143784
-0.215862
-0.203648
-0.022135
-0.0896628
-0.262773
-0.200152
-0.0171745
-0.259122
-0.254911
-0.329409
-0.25422
-0.261127
-0.228073
-0.275299
-0.0408049
-0.260386
-0.203956
-0.257488
-0.28294
-0.0277147
-0.245323
-0.284588
-0.0299571
-0.283778
-0.249458
-0.239264
-0.28115
-0.242803
-0.260422
-0.276127
-0.235284
-0.27515
-0.23156
-0.266353
-0.175266
-0.303795
-0.267969
-0.269679
-0.276082
-0.238106
-0.244756
-0.272279
-0.270674
-0.204304
-0.340658
-0.270745
-0.200439
-0.338356
-0.117125
-0.26964
-0.276465
-0.239027
-0.260793
-0.257868
-0.0828327
-0.266379
-0.252184
-0.256921
-0.249139
-0.224196
-0.253934
-0.0363702
-0.236947
-0.0544348
-0.045129
-0.244177
-0.228582
-0.274614
-0.237767
-0.275781
-0.221387
-0.273694
-0.0515001
-0.212585
-0.272978
-0.2476
-0.0546172
-0.223351
-0.274351
-0.27168
-0.270485
-0.217951
-0.273023
-0.178922
-0.23117
-0.238624
-0.232051
-0.206913
-0.0280526
-0.229818
-0.275177
-0.233144
-0.2764
-0.0336775
-0.21097
0
-0.293848
-0.213645
-0.236316
-0.277824
-0.0388574
-0.221129
-0.00785287
-0.2379
-0.00971484
-0.232227
-0.254351
-0.250505
-0.214278
-0.245531
-0.245352
-0.272535
-0.214662
-0.252173
-0.0660277
-0.256453
-0.262536
-0.247103
-0.292563
-0.036224
-0.292193
-0.290095
-0.034662
-0.202054
-0.0304478
-0.289868
-0.0332622
-0.287747
-0.0323287
-0.2622
-0.26087
-0.253118
-0.255209
-0.251241
-0.253063
-0.248751
-0.231153
-0.257539
-0.249991
-0.259565
-0.244929
-0.276716
-0.276577
-0.0151176
-0.278384
-0.0187003
-0.0320121
-0.216418
0
-0.00574432
-0.25667
-0.241943
-0.263575
-0.264904
-0.254599
-0.255932
-0.257976
-0.0656116
-0.254068
-0.26088
-0.266184
-0.25
-0.0894895
-0.26209
-0.259333
-0.277651
-0.276922
-0.278755
-0.273817
-0.275294
-0.273076
-0.0538439
-0.245124
-0.0446258
-0.24048
-0.283176
-0.281679
-0.0180864
-0.282736
-0.0252089
-0.28092
-0.279131
-0.27576
-0.276301
-0.0441016
-0.236511
-0.280571
-0.0221687
-0.278635
-0.276921
-0.028776
-0.228109
-0.277229
-0.264771
-0.0996502
-0.276438
-0.265673
-0.100928
-0.280102
-0.279846
-0.0218416
-0.0446139
-0.232444
-0.0125199
-0.017778
-0.0518696
-0.25837
-0.0301955
-0.25846
-0.284779
-0.246594
-0.27142
-0.231434
-0.0360384
-0.226209
-0.0368462
-0.213501
-0.0252231
-0.2883
-0.0334811
-0.225606
-0.0409811
-0.0422447
-0.290397
-0.291219
-0.0381184
-0.0462922
-0.0425365
-0.287593
-0.211141
-0.218741
-0.210643
-0.225022
-0.227009
-0.064571
-0.252052
-0.0731002
-0.256386
-0.177138
-0.0207149
-0.284752
-0.0275717
-0.285444
-0.0295346
-0.0855465
-0.260855
-0.186984
-0.0231513
-0.287339
-0.0309393
-0.183987
-0.0260313
-0.286065
-0.0312104
-0.0626638
-0.250333
-0.283785
-0.0276489
-0.270123
-0.024707
-0.305892
-0.30982
-0.0122467
-0.0272995
-0.317366
-0.00313827
-0.147041
-0.081792
-0.0283169
-0.277395
-0.0686778
-0.246915
-0.0273467
-0.31331
-0.0708869
-0.0272886
-0.309373
-0.0250235
-0.281588
-0.0486076
-0.234628
-0.0250696
-0.282376
-0.228792
-0.223739
-0.0219625
-0.280197
-0.0385005
-0.272272
0
-0.0366991
-0.0552507
-0.0443077
-0.0487261
-0.00562489
-0.161274
-0.271715
-0.0363252
-0.334548
-0.0386163
-0.162314
-0.165672
-0.179882
-0.0409676
-0.182298
-0.195428
-0.193706
-0.0815061
-0.0325755
-0.286505
-0.0847414
-0.0883974
-0.105209
-0.126043
-0.0971393
-0.0334592
-0.100764
-0.122109
-0.0383561
-0.0184087
-0.0184383
-0.278593
-0.0105966
-0.0366183
-0.278241
-0.0107758
-0.0106364
-0.306601
-0.0632955
-0.0182038
-0.223973
-0.01149
-0.276654
-0.0103782
-0.275588
-0.274317
-0.0417225
-0.214227
0
-0.271984
-0.262397
-0.0321517
-0.0491362
-0.0498928
-0.0553318
-0.0634934
-0.0530083
-0.0539471
-0.0614915
-0.0598371
-0.0300123
-0.284178
-0.117749
-0.034528
-0.288637
-0.172139
-0.040594
-0.273909
-0.0381497
-0.290688
-0.0381775
-0.290474
-0.0407639
-0.271075
-0.0352681
-0.377866
-0.314219
-0.0358145
-0.353282
-0.272652
-0.0380033
-0.195358
-0.322062
-0.00799479
-0.173827
-0.0411394
0
-0.0107968
-0.183086
-0.0372962
-0.213773
0
-0.273387
-0.0402748
-0.0101491
-0.186206
-0.280408
-0.0178815
-0.0181178
-0.318239
-0.0228498
-0.326973
-0.282151
-0.02271
-0.0227841
-0.232033
-0.0194193
-0.0191149
-0.280609
-0.281224
-0.0758042
-0.0233473
-0.0234796
-0.287549
-0.0323656
-0.139839
-0.259328
-0.0325588
-0.366408
-0.136479
-0.278308
-0.0780815
-0.248997
-0.028341
-0.0804856
-0.0283289
-0.093804
-0.177477
-0.307782
-0.288316
-0.128562
-0.0290386
-0.0911802
-0.0290747
-0.219345
-0.0152503
-0.210406
-0.0185915
-0.27809
-0.0429266
-0.196977
-0.184132
-0.168488
-0.169968
-0.198338
-0.185563
-0.0906579
-0.263545
-0.267201
-0.0346774
-0.289374
-0.0334089
-0.288945
-0.0594457
-0.0304535
-0.0577194
-0.030524
-0.348648
-0.0585113
-0.0304581
-0.0988306
-0.111631
-0.0336614
-0.113368
-0.0335363
-0.291207
-0.0330471
-0.133328
-0.0341923
-0.130624
-0.0343705
-0.12819
-0.315815
-0.291001
-0.148157
-0.0314265
-0.112787
-0.0307136
-0.352525
-0.0178565
-0.038509
-0.0387242
-0.0390119
-0.0377327
-0.0104699
-0.0371504
-0.0374069
-0.266033
-0.0314964
-0.0353913
-0.10858
-0.253979
-0.0309596
-0.284667
-0.124103
-0.031681
-0.360209
-0.284663
-0.120411
-0.255967
-0.0319124
-0.360756
-0.0312148
-0.354925
-0.269741
-0.034011
-0.032153
-0.272005
-0.0373292
-0.0400838
-0.0302533
-0.3432
-0.029693
-0.0316085
-0.266315
-0.0317596
-0.34256
-0.27113
-0.0356108
-0.0359574
-0.317157
-0.00692421
-0.178859
-0.271851
-0.0365546
-0.0413666
-0.0420537
-0.150832
-0.033151
-0.0336805
-0.0115645
-0.0395364
-0.0115675
-0.275314
-0.00665733
-0.273576
0
-0.271884
-0.196524
-0.00671975
-0.273987
-0.0383937
-0.00669116
0
-0.0374472
-0.029742
-0.284959
-0.0710398
-0.255584
-0.0324192
-0.287157
-0.0831321
-0.260199
-0.251172
-0.0310317
-0.286611
-0.0291171
-0.0536229
-0.029196
-0.0524249
-0.027602
-0.33847
-0.0477285
-0.0276347
-0.0801885
-0.278895
-0.0192837
-0.0470183
-0.283166
-0.0257554
-0.0432556
-0.0257377
-0.331903
-0.0725346
-0.276855
-0.0154992
-0.0436534
-0.032125
-0.355903
-0.0842239
-0.0313671
-0.284234
-0.0276129
-0.0709311
-0.2819
-0.107592
-0.258404
-0.0296761
-0.0302836
-0.346543
-0.105352
-0.181212
-0.310006
-0.289456
-0.137903
-0.0297261
-0.259617
-0.0303554
-0.34899
-0.116791
-0.186173
-0.312389
-0.290267
-0.143676
-0.0305054
-0.276941
-0.0158635
-0.0429822
-0.0257191
-0.0466411
-0.0277239
-0.28126
-0.0228457
-0.051833
-0.0292259
-0.088971
-0.0516005
-0.0292576
-0.0170209
-0.302612
-0.27523
-0.0432278
-0.229056
-0.0215873
-0.316115
-0.284041
-0.275391
-0.128074
-0.0217876
-0.230553
-0.0220382
-0.310228
-0.28629
-0.27657
-0.121716
-0.0223126
-0.0794692
-0.0323382
-0.355531
-0.225862
-0.0180547
-0.0671608
-0.0315001
-0.352304
-0.109653
-0.283002
-0.27337
-0.120216
-0.0175295
-0.218335
-0.0106931
-0.29002
-0.0396777
-0.219403
-0.0118965
-0.285914
-0.282008
-0.270736
-0.109064
-0.0113773
-0.0945468
-0.0330243
-0.0513475
-0.0292872
-0.34475
-0.018924
-0.031102
-0.32984
-0.286634
-0.119355
-0.262927
-0.0303459
-0.333258
-0.0156818
-0.0350237
-0.117623
-0.197869
-0.333614
-0.030414
-0.326482
0
-0.0357261
-0.286118
-0.133613
-0.257676
-0.0327322
-0.366398
-0.17081
-0.0358623
-0.287938
-0.277805
-0.12947
-0.0249942
-0.0513657
-0.285605
-0.0250939
-0.0298343
-0.34428
-0.0727666
-0.0626138
-0.2919
-0.0287624
-0.338015
0
-0.268509
-0.277082
-0.0434213
-0.0182347
-0.168389
-0.0377706
-0.00830977
-0.154278
-0.0430633
-0.0157325
-0.170818
0
-0.269521
-0.117895
-0.0333628
-0.36339
-0.0338929
-0.136942
-0.0364137
-0.200309
-0.102705
-0.0327
-0.0327837
-0.359302
-0.100901
-0.0985142
-0.293721
-0.0328743
-0.0334496
-0.288601
-0.0321786
-0.115578
-0.136007
-0.0340331
-0.0356415
0
-0.202443
-0.0349123
-0.189295
-0.250109
-0.0270558
-0.293981
-0.28028
-0.0722105
-0.0343163
-0.382418
-0.174941
-0.194109
-0.331493
-0.107323
-0.0298746
-0.31142
-0.104587
0
-0.271273
-0.0422397
-0.0129625
-0.176891
-0.0397074
-0.0108711
-0.165159
-0.0391455
-0.126587
-0.272193
-0.037287
-0.309206
-0.195346
-0.328563
-0.0368214
-0.319968
-0.00634281
-0.158715
-0.0313186
-0.0727651
-0.0319923
-0.088519
-0.245056
-0.0312431
-0.283369
-0.0276727
-0.0753226
-0.0326053
-0.104395
-0.0318588
-0.0915804
-0.29373
-0.0299918
-0.345372
-0.0694995
-0.246036
-0.0309367
-0.35072
-0.282529
-0.0816092
-0.0288903
-0.0594243
-0.0569813
-0.288997
-0.277568
-0.139604
-0.0290027
-0.038768
-0.0176066
-0.242113
-0.0301413
-0.0666952
-0.29572
-0.0311307
-0.078111
-0.303692
-0.0316576
-0.0956601
-0.034672
-0.376762
-0.29118
-0.0345457
-0.153911
-0.0357045
-0.186507
-0.0331413
-0.123022
-0.288449
-0.131938
-0.0308172
-0.350502
-0.189798
-0.322611
-0.0297897
-0.107988
-0.285131
-0.106694
-0.260812
-0.0298461
-0.185391
-0.320757
-0.29097
-0.105962
-0.029175
-0.310358
-0.094976
-0.2881
-0.105011
-0.0282902
-0.0832644
-0.0271645
-0.0719516
-0.307055
-0.0324887
-0.108021
-0.0257187
-0.0623309
-0.0328843
-0.130371
-0.0271419
-0.072094
-0.24576
-0.0256828
-0.278176
-0.0626008
-0.276491
-0.0463609
-0.23236
-0.0252539
-0.326421
-0.0518906
-0.28733
-0.027409
-0.0371632
-0.0103026
-0.297492
-0.203158
-0.27108
-0.0356551
-0.206226
0
-0.0451872
-0.283921
-0.0254969
-0.0500767
-0.0274822
-0.334999
-0.203568
-0.0357409
0
-0.287826
-0.0102678
-0.295228
-0.037505
-0.0368878
-0.278621
-0.270203
-0.119889
-0.0103251
-0.0391185
-0.0172067
-0.308164
-0.016972
-0.0397267
-0.0321219
-0.361138
-0.117134
-0.0757836
-0.0254874
-0.0625901
-0.0905122
-0.0282413
-0.300139
-0.0826671
-0.14677
-0.032677
-0.102602
-0.0298902
-0.267728
-0.0324836
-0.358398
-0.301933
-0.270274
-0.0343676
-0.402172
-0.310891
-0.00401854
-0.171468
-0.16837
-0.0347424
-0.395802
-0.124805
-0.264569
-0.0312438
-0.321003
-0.269216
-0.0348307
-0.292308
-0.190251
-0.0305886
-0.113508
-0.284009
-0.0937935
-0.257512
-0.029168
-0.30562
-0.00452059
-0.143631
-0.0360493
-0.294837
-0.0811408
-0.0322527
-0.279398
-0.0200691
-0.0466149
-0.0277821
-0.286088
-0.0294586
-0.0824315
-0.0321759
-0.355746
-0.0696839
-0.031383
-0.0257568
-0.0427614
-0.0277851
-0.0466089
-0.0257256
-0.0428126
-0.0106192
-0.0369611
-0.277441
0
-0.0360102
-0.199808
-0.0453393
-0.0306616
-0.0253959
-0.284636
-0.0716939
-0.0456085
-0.0228549
-0.28134
-0.0637918
-0.0429741
-0.0248088
-0.283455
-0.0720056
-0.0459235
-0.308112
-0.00213021
-0.157865
-0.269373
-0.0335562
-0.368118
-0.112007
-0.261857
-0.0306336
-0.155498
-0.0339363
-0.35245
-0.0862384
-0.0320837
-0.0362855
-0.0361821
-0.289868
-0.156547
-0.0341299
-0.28785
-0.0334836
-0.140548
-0.0336337
-0.370711
-0.105073
-0.0631802
-0.0222994
-0.0556658
-0.239344
-0.0229715
-0.283154
-0.277448
-0.0552537
-0.0229101
-0.324245
-0.0407527
-0.0304252
-0.0605802
-0.0228736
-0.325725
-0.0405158
-0.0639555
-0.0302952
-0.0409994
-0.0345925
-0.0619197
-0.0303771
-0.243818
-0.25666
-0.0290638
-0.0955134
-0.00874902
-0.171014
-0.188151
-0.281113
-0.0830488
-0.254345
-0.0282704
-0.303938
-0.201481
-0.155655
-0.108607
-0.142572
-0.0348846
-0.152722
-0.0328389
-0.298223
-0.0392114
-0.249133
-0.0281304
-0.286317
-0.29408
-0.0890348
0
-0.27042
-0.116252
-0.280436
-0.0442068
-0.0295837
-0.233455
-0.0206978
-0.141262
-0.28598
-0.0646871
-0.0402824
-0.0169541
-0.276873
-0.0574201
-0.0256645
-0.329971
-0.00810632
-0.199578
-0.211251
0
-0.277826
-0.234371
-0.0726181
-0.20008
-0.0370785
-0.274846
-0.0404486
-0.345685
-0.0133976
-0.16146
-0.187301
-0.0362913
-0.2937
-0.141901
-0.189331
-0.297875
-0.0296493
-0.342796
-0.0769481
-0.0328906
-0.170267
-0.0404727
-0.0177873
-0.277165
-0.0570228
-0.0284334
-0.302564
-0.268586
-0.0329467
-0.0401871
-0.0429649
-0.0498195
-0.0383363
-0.00354609
-0.144978
-0.0353285
-0.303942
-0.164741
-0.0491559
0
-0.153041
-0.0263003
-0.307757
-0.00366595
-0.178243
-0.0476732
-0.0454663
0
-0.271228
-0.14015
-0.0066646
-0.273177
-0.0366738
-0.0224529
-0.299865
-0.282655
-0.139512
-0.267542
-0.229943
-0.0238078
-0.032307
-0.0342707
-0.376942
-0.15307
-0.196723
-0.146545
-0.282896
0
-0.27645
-0.0376516
-0.200396
-0.036744
-0.0383715
-0.0254414
-0.0806166
-0.238412
-0.149125
-0.283856
-0.0119809
-0.283892
-0.00686529
-0.272673
-0.204397
-0.0479919
-0.0368147
-0.0660554
-0.0405414
-0.0646533
-0.211629
0
-0.00902926
-0.193373
-0.272591
-0.0383154
-0.0429078
-0.0214637
-0.06442
-0.0230403
-0.0500101
-0.174862
-0.0341577
-0.0239133
-0.0724287
-0.220837
-0.0121812
-0.282114
-0.273479
-0.0407145
-0.0402941
-0.242342
-0.0258553
-0.28373
-0.293236
-0.0804394
-0.112701
-0.0323288
-0.361389
-0.229852
-0.0193666
-0.28714
-0.274807
-0.0460071
-0.0546457
-0.0314975
-0.28533
-0.0381578
-0.284681
-0.121445
-0.0101749
-0.152793
-0.27309
-0.0381676
-0.294009
-0.282396
-0.27438
-0.130805
-0.021798
-0.0296363
-0.237546
-0.022155
-0.280576
-0.142885
-0.283197
-0.064004
-0.0430202
-0.0337616
-0.385471
-0.181673
-0.0190617
-0.0448765
-0.0344539
-0.376848
-0.154711
-0.236033
-0.0232391
-0.275543
-0.0513288
-0.291211
-0.0363033
-0.170774
-0.16314
-0.0350719
-0.389528
-0.126807
-0.0330163
-0.0549576
-0.0123821
-0.0416703
-0.0439664
-0.0186958
-0.277583
-0.0566075
-0.0407015
-0.0233579
-0.294176
-0.0527497
-0.0463342
-0.0243412
-0.0722814
-0.0307103
-0.106766
-0.05073
-0.0267064
-0.285348
-0.080083
-0.227754
-0.0189005
-0.274478
-0.0442766
-0.304383
-0.00187062
-0.163061
-0.268809
-0.0330866
-0.0325155
-0.286773
-0.100806
-0.250557
-0.0314481
-0.35563
-0.0408827
-0.0194398
-0.278204
-0.0564558
-0.274795
-0.044731
-0.275356
-0.0484763
-0.0233811
-0.0147104
-0.213738
-0.00726247
-0.272116
-0.127121
-0.28144
-0.0479059
-0.246268
-0.0890404
-0.0314122
-0.285662
-0.0277546
-0.0890786
-0.0401991
-0.0232994
-0.225411
-0.0162367
-0.276847
-0.136309
-0.285377
-0.0487885
-0.057801
-0.0384215
-0.0123337
-0.274525
-0.052407
-0.0356932
-0.191809
-0.327105
-0.150952
-0.035112
0
-0.269548
-0.044203
-0.171488
-0.0356056
-0.218688
-0.0388721
-0.237305
-0.0212772
-0.280121
-0.278704
-0.0561657
-0.0541545
-0.0159687
-0.0509354
-0.0181628
-0.160224
-0.0332866
-0.289453
-0.115497
-0.262804
-0.0304982
-0.318977
-0.270433
-0.0392498
-0.0148637
-0.0512351
-0.0994261
-0.209
-0.0342068
-0.0152993
-0.27596
-0.0511706
-0.314774
-0.00598808
-0.186445
-0.297768
-0.138275
-0.182488
-0.127389
-0.171285
-0.0353367
-0.390954
-0.040991
-0.0201955
-0.0564681
-0.0223306
-0.320233
-0.120963
-0.275943
-0.0405412
-0.0306756
-0.10855
-0.0446178
-0.0743915
-0.2704
-0.0347763
-0.30368
-0.193132
-0.273079
-0.0385812
-0.109256
-0.0566904
-0.0327398
-0.2959
-0.124868
-0.187183
-0.119563
-0.0306445
-0.11059
-0.0694194
-0.0361204
-0.289599
-0.141203
-0.0343766
-0.336425
-0.0720704
-0.0347409
-0.323346
-0.145386
-0.0317004
-0.293623
-0.115687
-0.0919803
-0.0418896
-0.255336
-0.0296693
-0.28988
-0.0981349
-0.0653964
-0.120115
-0.270135
-0.0350597
-0.312612
-0.147966
-0.0769929
-0.275147
-0.0461572
-0.149447
-0.111201
-0.268108
-0.0338789
-0.299198
-0.183689
-0.316794
0
-0.134528
-0.128494
-0.032997
-0.378827
-0.170308
-0.0379581
-0.280239
-0.270324
-0.116887
-0.0103411
-0.0480619
0
-0.0359847
-0.173591
-0.0427456
-0.033896
-0.277123
-0.268254
-0.111411
0
-0.202764
-0.0356116
-0.24648
-0.0294654
-0.340646
-0.280069
-0.0814214
-0.223149
-0.00851256
-0.273908
-0.276467
-0.0462627
-0.0290567