# vtk DataFile Version 2.0
Unstructured Grid by M++
ASCII
DATASET UNSTRUCTURED_GRID
POINTS 4225 float
  0.921875   0.593750 0
  0.921875   0.609375 0
  0.656250   0.609375 0
  0.671875   0.609375 0
  0.656250   0.546875 0
  0.671875   0.546875 0
  0.656250   0.562500 0
  0.656250   0.578125 0
  0.656250   0.593750 0
  0.671875   0.593750 0
  0.671875   0.562500 0
  0.671875   0.578125 0
  0.671875   0.625000 0
  0.671875   0.640625 0
  0.906250   0.578125 0
  0.890625   0.578125 0
  0.546875   0.515625 0
  1.000000   0.890625 0
  0.515625   0.640625 0
  0.515625   0.625000 0
  1.000000   0.875000 0
  0.515625   0.656250 0
  0.515625   0.687500 0
  0.515625   0.671875 0
  1.000000   0.921875 0
  0.546875   0.531250 0
  0.546875   0.546875 0
  0.546875   0.562500 0
  0.796875   0.531250 0
  0.953125   0.890625 0
  0.953125   0.875000 0
  0.953125   0.843750 0
  0.953125   0.828125 0
  0.953125   0.812500 0
  0.531250   0.562500 0
  0.531250   0.546875 0
  0.515625   0.562500 0
  0.515625   0.546875 0
  1.000000   0.812500 0
  0.781250   0.546875 0
  0.765625   0.546875 0
  0.859375   0.921875 0
  0.921875   0.671875 0
  0.609375   0.906250 0
  0.671875   0.656250 0
  0.609375   0.921875 0
  0.671875   0.671875 0
  0.671875   0.984375 0
  0.671875   1.000000 0
  0.906250   0.984375 0
  0.906250   1.000000 0
  0.921875   0.984375 0
  0.921875   1.000000 0
  0.859375   0.609375 0
  1.000000   0.781250 0
  0.515625   0.531250 0
  0.531250   0.531250 0
  0.531250   0.515625 0
  0.515625   0.515625 0
  1.000000   0.750000 0
  0.765625   0.531250 0
  0.781250   0.531250 0
  0.781250   0.515625 0
  0.765625   0.515625 0
  0.859375   0.875000 0
  0.921875   0.625000 0
  0.859375   0.890625 0
  0.921875   0.640625 0
  0.671875   0.968750 0
  0.671875   0.953125 0
  0.921875   0.968750 0
  0.921875   0.953125 0
  0.859375   0.593750 0
  0.859375   0.578125 0
  0.875000   0.578125 0
  0.828125   0.890625 0
  0.890625   0.640625 0
  0.593750   0.890625 0
  0.656250   0.640625 0
  0.593750   0.875000 0
  0.656250   0.625000 0
  0.578125   0.890625 0
  0.640625   0.640625 0
  0.578125   0.875000 0
  0.640625   0.625000 0
  0.968750   0.890625 0
  0.984375   0.890625 0
  0.968750   0.812500 0
  0.968750   0.828125 0
  0.984375   0.812500 0
  0.984375   0.828125 0
  1.000000   0.828125 0
  0.656250   0.953125 0
  0.640625   0.953125 0
  0.890625   0.968750 0
  0.906250   0.968750 0
  0.906250   0.953125 0
  0.890625   0.953125 0
  0.531250   0.703125 0
  0.531250   0.718750 0
  0.546875   0.718750 0
  0.546875   0.703125 0
  0.593750   0.578125 0
  0.562500   0.578125 0
  0.578125   0.578125 0
  0.843750   0.578125 0
  0.828125   0.578125 0
  0.828125   0.812500 0
  0.890625   0.562500 0
  0.828125   0.796875 0
  0.953125   0.906250 0
  0.953125   0.921875 0
  0.531250   0.859375 0
  0.593750   0.609375 0
  0.531250   0.843750 0
  0.593750   0.593750 0
  0.515625   0.843750 0
  0.578125   0.593750 0
  0.515625   0.859375 0
  0.578125   0.609375 0
  0.937500   0.859375 0
  1.000000   0.609375 0
  0.921875   0.859375 0
  0.984375   0.609375 0
  0.937500   0.796875 0
  0.921875   0.796875 0
  0.984375   0.546875 0
  0.562500   0.812500 0
  0.843750   0.796875 0
  0.843750   0.812500 0
  0.859375   0.796875 0
  0.859375   0.812500 0
  1.000000   0.906250 0
  0.984375   0.906250 0
  0.968750   0.906250 0
  0.968750   0.921875 0
  0.984375   0.921875 0
  0.593750   0.921875 0
  0.656250   0.671875 0
  0.593750   0.906250 0
  0.656250   0.656250 0
  0.578125   0.906250 0
  0.640625   0.656250 0
  0.578125   0.921875 0
  0.640625   0.671875 0
  1.000000   0.843750 0
  0.984375   0.843750 0
  0.968750   0.843750 0
  0.968750   0.859375 0
  0.968750   0.875000 0
  1.000000   0.859375 0
  0.984375   0.859375 0
  0.984375   0.875000 0
  0.656250   1.000000 0
  0.656250   0.984375 0
  0.656250   0.968750 0
  0.640625   0.968750 0
  0.640625   1.000000 0
  0.640625   0.984375 0
  0.843750   0.921875 0
  0.906250   0.671875 0
  0.843750   0.906250 0
  0.906250   0.656250 0
  0.828125   0.906250 0
  0.890625   0.656250 0
  0.828125   0.921875 0
  0.890625   0.671875 0
  0.781250   0.859375 0
  0.843750   0.609375 0
  0.781250   0.843750 0
  0.843750   0.593750 0
  0.765625   0.843750 0
  0.828125   0.593750 0
  0.765625   0.859375 0
  0.828125   0.609375 0
  0.968750   0.609375 0
  0.906250   0.859375 0
  0.953125   0.609375 0
  0.890625   0.859375 0
  0.937500   0.609375 0
  0.875000   0.859375 0
  0.562500   0.593750 0
  0.546875   0.593750 0
  0.531250   0.593750 0
  0.531250   0.609375 0
  0.562500   0.609375 0
  0.546875   0.609375 0
  0.609375   0.625000 0
  0.546875   0.875000 0
  0.609375   0.640625 0
  0.546875   0.890625 0
  0.625000   0.640625 0
  0.562500   0.890625 0
  0.625000   0.625000 0
  0.562500   0.875000 0
  0.921875   0.843750 0
  0.984375   0.593750 0
  0.937500   0.843750 0
  1.000000   0.593750 0
  0.921875   0.812500 0
  0.921875   0.828125 0
  0.984375   0.578125 0
  0.937500   0.828125 0
  1.000000   0.578125 0
  0.937500   0.812500 0
  1.000000   0.562500 0
  0.578125   0.828125 0
  0.921875   0.781250 0
  0.937500   0.781250 0
  1.000000   0.531250 0
  0.921875   0.765625 0
  0.984375   0.515625 0
  0.937500   0.765625 0
  0.625000   0.656250 0
  0.562500   0.906250 0
  0.609375   0.656250 0
  0.546875   0.906250 0
  0.625000   0.671875 0
  0.562500   0.921875 0
  0.609375   0.671875 0
  0.546875   0.921875 0
  0.859375   0.781250 0
  0.859375   0.765625 0
  0.828125   0.671875 0
  0.765625   0.921875 0
  0.828125   0.734375 0
  0.765625   0.984375 0
  0.875000   0.843750 0
  0.937500   0.593750 0
  0.890625   0.843750 0
  0.953125   0.593750 0
  0.906250   0.843750 0
  0.968750   0.593750 0
  0.906250   0.828125 0
  0.968750   0.578125 0
  0.937500   0.578125 0
  0.953125   0.578125 0
  0.906250   0.765625 0
  0.875000   0.765625 0
  0.953125   0.515625 0
  0.531250   0.781250 0
  0.671875   0.890625 0
  0.531250   0.921875 0
  0.953125   0.656250 0
  0.828125   0.781250 0
  0.843750   0.781250 0
  0.703125   0.984375 0
  0.687500   0.984375 0
  0.843750   0.875000 0
  0.906250   0.625000 0
  0.671875   0.781250 0
  0.734375   0.531250 0
  0.906250   0.609375 0
  0.671875   0.765625 0
  0.734375   0.515625 0
  0.906250   0.593750 0
  0.890625   0.593750 0
  0.875000   0.593750 0
  0.828125   0.875000 0
  0.890625   0.625000 0
  0.656250   0.781250 0
  0.718750   0.531250 0
  0.890625   0.609375 0
  0.656250   0.765625 0
  0.718750   0.515625 0
  0.875000   0.609375 0
  0.640625   0.765625 0
  0.703125   0.515625 0
  0.812500   0.921875 0
  0.875000   0.671875 0
  0.812500   0.875000 0
  0.875000   0.625000 0
  0.640625   0.781250 0
  0.703125   0.531250 0
  0.812500   0.515625 0
  0.750000   0.828125 0
  0.812500   0.578125 0
  0.687500   1.000000 0
  0.937500   0.656250 0
  0.875000   0.906250 0
  0.531250   0.656250 0
  0.890625   0.906250 0
  0.906250   0.906250 0
  0.562500   0.656250 0
  0.906250   0.890625 0
  0.562500   0.640625 0
  0.968750   0.625000 0
  0.906250   0.875000 0
  0.562500   0.625000 0
  0.937500   0.640625 0
  0.875000   0.890625 0
  0.890625   0.890625 0
  0.546875   0.640625 0
  0.953125   0.625000 0
  0.890625   0.875000 0
  0.546875   0.625000 0
  0.546875   0.687500 0
  0.890625   0.937500 0
  0.937500   0.625000 0
  0.875000   0.875000 0
  0.531250   0.625000 0
  0.531250   0.640625 0
  0.546875   0.656250 0
  0.937500   0.968750 0
  0.687500   0.968750 0
  0.953125   0.968750 0
  0.703125   0.968750 0
  0.968750   0.968750 0
  0.718750   0.968750 0
  0.718750   0.906250 0
  0.968750   0.953125 0
  0.718750   0.953125 0
  0.968750   0.937500 0
  0.859375   0.906250 0
  0.921875   0.656250 0
  0.718750   0.937500 0
  0.828125   0.531250 0
  0.937500   0.953125 0
  0.687500   0.953125 0
  0.953125   0.953125 0
  0.703125   0.953125 0
  0.703125   0.890625 0
  0.843750   0.515625 0
  0.953125   0.937500 0
  0.953125   1.000000 0
  0.703125   0.937500 0
  0.937500   0.937500 0
  0.687500   0.937500 0
  0.703125   0.906250 0
  0.718750   0.890625 0
  0.687500   0.890625 0
  0.687500   0.765625 0
  0.750000   0.515625 0
  0.687500   0.781250 0
  0.750000   0.531250 0
  0.859375   0.937500 0
  0.921875   0.687500 0
  0.687500   0.796875 0
  0.750000   0.546875 0
  0.578125   0.750000 0
  0.515625   1.000000 0
  0.843750   0.765625 0
  0.578125   0.734375 0
  0.515625   0.984375 0
  0.562500   0.734375 0
  0.828125   0.750000 0
  0.765625   1.000000 0
  0.562500   0.750000 0
  0.562500   0.718750 0
  0.578125   0.515625 0
  0.921875   0.703125 0
  0.921875   0.718750 0
  0.593750   0.515625 0
  0.687500   0.875000 0
  0.750000   0.625000 0
  0.578125   0.531250 0
  0.921875   0.750000 0
  0.703125   0.875000 0
  0.765625   0.625000 0
  0.593750   0.531250 0
  0.875000   0.968750 0
  0.937500   0.718750 0
  0.703125   0.828125 0
  0.765625   0.578125 0
  0.937500   0.734375 0
  0.703125   0.812500 0
  0.765625   0.562500 0
  0.890625   0.687500 0
  0.828125   0.937500 0
  0.656250   0.796875 0
  0.718750   0.546875 0
  0.890625   0.718750 0
  0.828125   0.968750 0
  0.906250   0.796875 0
  0.718750   0.828125 0
  0.781250   0.578125 0
  0.890625   0.703125 0
  0.828125   0.953125 0
  0.656250   0.859375 0
  0.906250   0.781250 0
  0.968750   0.531250 0
  0.546875   0.796875 0
  0.671875   0.796875 0
  0.734375   0.546875 0
  0.843750   0.953125 0
  0.906250   0.703125 0
  0.671875   0.875000 0
  0.718750   0.812500 0
  0.781250   0.562500 0
  0.875000   0.812500 0
  0.531250   0.890625 0
  0.593750   0.640625 0
  0.937500   0.890625 0
  0.875000   0.781250 0
  0.609375   0.703125 0
  0.546875   0.953125 0
  0.890625   0.796875 0
  0.625000   0.718750 0
  0.562500   0.968750 0
  0.906250   0.812500 0
  0.734375   0.859375 0
  0.796875   0.609375 0
  0.718750   0.875000 0
  0.781250   0.625000 0
  0.750000   0.859375 0
  0.812500   0.609375 0
  0.812500   0.546875 0
  0.750000   0.812500 0
  0.734375   0.843750 0
  0.796875   0.593750 0
  0.750000   0.843750 0
  0.812500   0.593750 0
[...]
POINT_DATA 4225
SCALARS scalar_value float 1
LOOKUP_TABLE default
-0.2552
-0.257145
-0.225744
-0.229939
-0.204132
-0.209094
-0.209036
-0.214148
-0.219651
-0.224313
-0.213987
-0.218902
-0.236357
-0.242944
-0.253313
-0.253096
-0.169599
-0.311016
-0.231943
-0.22513
-0.307953
-0.238481
-0.251938
-0.245205
-0.317361
-0.176516
-0.185045
-0.194217
-0.240872
-0.312571
-0.309729
-0.303429
-0.30006
-0.296821
-0.192804
-0.183847
-0.191299
-0.182336
-0.295775
-0.242363
-0.239309
-0.323078
-0.266501
-0.377261
-0.250662
-0.388502
-0.260017
-0.459673
-0.487905
-0.327993
-0.329896
-0.32723
-0.329133
-0.256319
-0.289317
-0.174073
-0.175393
-0.168206
-0.167104
-0.283877
-0.234412
-0.238071
-0.233088
-0.228938
-0.313452
-0.259031
-0.316989
-0.261117
-0.435732
-0.41319
-0.325397
-0.323297
-0.254444
-0.25231
-0.252716
-0.319736
-0.260639
-0.370994
-0.238848
-0.361064
-0.232062
-0.374471
-0.236159
-0.364642
-0.229014
-0.311908
-0.311346
-0.296341
-0.299481
-0.295952
-0.299306
-0.299231
-0.415145
-0.415378
-0.32711
-0.326053
-0.324086
-0.325163
-0.258757
-0.268636
-0.270498
-0.260002
-0.203242
-0.202673
-0.202864
-0.251987
-0.251598
-0.297213
-0.251242
-0.291882
-0.315651
-0.318163
-0.36131
-0.216796
-0.353258
-0.210171
-0.353243
-0.209577
-0.361408
-0.216052
-0.307478
-0.25798
-0.308064
-0.257925
-0.293964
-0.294186
-0.249286
-0.332172
-0.29201
-0.296858
-0.292495
-0.296998
-0.31416
-0.314366
-0.314993
-0.317746
-0.317518
-0.391456
-0.256965
-0.381444
-0.246858
-0.384662
-0.244067
-0.393679
-0.253732
-0.30216
-0.30231
-0.302757
-0.305889
-0.309026
-0.30522
-0.305336
-0.308292
-0.479566
-0.455549
-0.435465
-0.432868
-0.468055
-0.450304
-0.32485
-0.266082
-0.32164
-0.263263
-0.323219
-0.263087
-0.326679
-0.265605
-0.314625
-0.256123
-0.309864
-0.25415
-0.31112
-0.253781
-0.315787
-0.255773
-0.257792
-0.308509
-0.257652
-0.308841
-0.257429
-0.309282
-0.209662
-0.210045
-0.209795
-0.217202
-0.216275
-0.216766
-0.224895
-0.369192
-0.232739
-0.378803
-0.234254
-0.377074
-0.226624
-0.367419
-0.304804
-0.255703
-0.304154
-0.255803
-0.297925
-0.301571
-0.253505
-0.300862
-0.253437
-0.297482
-0.251371
-0.339093
-0.290363
-0.29046
-0.246601
-0.286599
-0.243404
-0.287055
-0.242467
-0.386893
-0.240937
-0.387722
-0.25161
-0.394991
-0.249427
-0.395277
-0.287957
-0.283032
-0.264053
-0.33946
-0.27478
-0.383713
-0.305878
-0.25531
-0.305782
-0.255452
-0.305351
-0.255556
-0.301969
-0.253579
-0.253485
-0.253546
-0.285942
-0.283931
-0.244291
-0.311307
-0.345562
-0.394643
-0.264224
-0.287042
-0.287393
-0.454659
-0.460248
-0.314608
-0.258709
-0.307251
-0.225922
-0.256852
-0.302133
-0.219925
-0.255094
-0.254933
-0.254719
-0.315917
-0.2585
-0.309399
-0.220482
-0.256565
-0.303825
-0.214697
-0.256388
-0.305113
-0.209281
-0.328705
-0.265072
-0.317096
-0.258364
-0.311082
-0.214774
-0.23915
-0.308375
-0.250985
-0.48989
-0.263784
-0.318967
-0.237717
-0.317895
-0.317062
-0.237462
-0.314486
-0.230269
-0.259971
-0.311519
-0.222981
-0.261528
-0.31594
-0.315138
-0.230125
-0.259683
-0.312028
-0.223297
-0.251621
-0.322999
-0.259368
-0.312703
-0.224069
-0.230683
-0.237376
-0.32509
-0.433088
-0.325008
-0.42616
-0.325148
-0.413634
-0.343142
-0.322978
-0.388827
-0.320465
-0.320196
-0.263512
-0.37022
-0.244247
-0.322949
-0.408901
-0.322882
-0.400332
-0.337707
-0.242035
-0.320539
-0.329021
-0.378104
-0.320796
-0.385117
-0.347316
-0.334146
-0.34126
-0.299942
-0.224875
-0.304942
-0.23065
-0.325916
-0.269693
-0.309397
-0.235552
-0.29645
-0.413472
-0.282471
-0.286312
-0.410405
-0.28459
-0.278213
-0.402737
-0.295109
-0.273298
-0.173285
-0.272864
-0.276294
-0.17606
-0.333684
-0.252913
-0.17992
-0.282862
-0.330258
-0.254652
-0.182359
-0.32863
-0.277078
-0.315395
-0.24629
-0.280168
-0.311004
-0.243142
-0.268312
-0.330033
-0.313924
-0.226008
-0.274282
-0.336055
-0.294141
-0.312743
-0.248351
-0.271195
-0.333039
-0.334663
-0.289911
-0.246992
-0.322898
-0.311753
-0.231125
-0.330381
-0.271956
-0.33771
-0.30859
-0.245615
-0.297489
-0.379645
-0.231573
-0.313363
-0.288534
-0.269887
-0.407004
-0.293838
-0.281678
-0.413991
-0.297955
-0.319186
-0.254719
-0.327195
-0.256021
-0.317254
-0.255367
-0.245983
-0.303992
-0.314582
-0.252324
-0.312673
-0.25321
-0.310396
-0.249942
-0.306256
-0.35715
-0.278714
-0.33565
-0.239887
-0.32039
-0.325707
-0.243684
-0.32787
-0.268972
-0.281144
-0.344903
-0.240015
-0.328812
-0.362497
-0.277635
-0.339883
-0.350836
-0.318463
-0.23095
-0.275217
-0.367737
-0.27986
-0.298966
-0.354083
-0.367442
-0.262089
-0.268683
-0.365865
-0.276084
-0.406949
-0.271638
-0.368472
-0.271498
-0.382545
-0.326795
-0.262474
-0.332057
-0.261951
-0.402213
-0.270648
-0.336575
-0.289228
-0.22312
-0.112481
-0.103662
-0.303096
-0.202787
-0.099888
-0.0888852
-0.361733
-0.0409601
-0.292334
-0.291354
-0.212181
-0.320123
-0.167218
-0.312691
-0.225413
-0.107174
-0.302055
-0.150604
-0.333499
-0.097854
-0.253152
-0.0888525
-0.325738
-0.292554
-0.1535
-0.106767
-0.136673
-0.0959651
-0.0499693
-0.100983
-0.0848188
-0.0720427
-0.130944
-0.0595727
-0.410491
-0.0726738
-0.294562
-0.157158
-0.388939
-0.263467
-0.21308
-0.103488
-0.394907
-0.273555
-0.230846
-0.109336
-0.30837
-0.0638151
-0.241303
-0.283904
-0.076308
-0.317009
-0.398332
-0.28263
-0.0691781
-0.108792
-0.0596887
-0.104344
-0.105012
-0.0666297
-0.127105
-0.21006
-0.101686
-0.0597951
-0.178394
-0.156924
-0.404379
-0.246984
-0.194887
-0.18688
-0.326574
-0.0930808
-0.192553
-0.11007
-0.171876
-0.36559
-0.0469044
-0.233868
-0.374597
-0.0522959
-0.367894
-0.240802
-0.13332
-0.357081
-0.22555
-0.190546
-0.334589
-0.191068
-0.323898
-0.176388
-0.233821
-0.24324
-0.380561
-0.251073
-0.263446
-0.330979
-0.183388
-0.189136
-0.286584
-0.275169
-0.251534
-0.434622
-0.293542
-0.249155
-0.429471
-0.166371
-0.281568
-0.311376
-0.140509
-0.202035
-0.1799
-0.141591
-0.23708
-0.14613
-0.165968
-0.138478
-0.115572
-0.157345
-0.0917997
-0.126472
-0.114693
-0.0993482
-0.138377
-0.153063
-0.310055
-0.155132
-0.315588
-0.138455
-0.301543
-0.110417
-0.123491
-0.293665
-0.154468
-0.104602
-0.124959
-0.300471
-0.292428
-0.281556
-0.165253
-0.303554
-0.100854
-0.114516
-0.122705
-0.121095
-0.109857
-0.0723605
-0.182644
-0.325469
-0.195474
-0.335805
-0.07712
-0.118084
0
-0.315939
-0.117766
-0.207514
-0.343501
-0.0839385
-0.12995
-0.00530583
-0.204238
-0.00312641
-0.126269
-0.172847
-0.152853
-0.113669
-0.150159
-0.13527
-0.303933
-0.170957
-0.239715
-0.113572
-0.170967
-0.258755
-0.233053
-0.405444
-0.0703229
-0.406158
-0.400091
-0.0676729
-0.110673
-0.0682937
-0.398563
-0.0643672
-0.391807
-0.0606625
-0.239567
-0.228704
-0.212398
-0.207302
-0.194542
-0.187333
-0.174944
-0.140114
-0.193398
-0.168422
-0.21371
-0.157966
-0.335995
-0.336192
-0.0219491
-0.345498
-0.028272
-0.0795879
-0.117555
0
-0.00722022
-0.222623
-0.170831
-0.248797
-0.256961
-0.225473
-0.235976
-0.233742
-0.112926
-0.172354
-0.251537
-0.26464
-0.229797
-0.126237
-0.207702
-0.243391
-0.317052
-0.309597
-0.313026
-0.294755
-0.300051
-0.287796
-0.100527
-0.157176
-0.0963598
-0.139702
-0.368572
-0.360869
-0.00410915
-0.366601
-0.0407594
-0.357945
-0.35059
-0.305009
-0.304377
-0.092596
-0.141753
-0.355823
-0.0348545
-0.347014
-0.338317
-0.0836778
-0.117254
-0.320047
-0.228556
-0.132044
-0.325921
-0.227273
-0.132593
-0.34737
-0.352343
-0.0344896
-0.0898445
-0.144667
-0.0123367
-0.00513884
-0.106275
-0.220791
-0.0190938
-0.220892
-0.3647
-0.205681
-0.276966
-0.127304
-0.0883026
-0.128258
-0.0858983
-0.11035
-0.0744057
-0.393374
-0.0642009
-0.149632
-0.0833149
-0.0875991
-0.401165
-0.404142
-0.0723322
-0.100167
-0.0926294
-0.386871
-0.147162
-0.159313
-0.154155
-0.170941
-0.163187
-0.1099
-0.173679
-0.114756
-0.191905
-0.101376
-0.041829
-0.376829
-0.0468479
-0.380885
-0.0523816
-0.124206
-0.209588
-0.103024
-0.0526502
-0.389347
-0.0565263
-0.10395
-0.0479765
-0.383609
-0.0568703
-0.10511
-0.176686
-0.372011
-0.0471186
-0.245804
-0.0190986
-0.385984
-0.388451
-0.00211554
-0.0172992
-0.321691
-0.0094009
-0.095248
-0.0866308
-0.0224522
-0.334176
-0.0850543
-0.182257
-0.016342
-0.324655
-0.0853962
-0.0159537
-0.327687
-0.0411108
-0.35938
-0.0940641
-0.143422
-0.0408209
-0.364335
-0.127711
-0.129062
-0.0346076
-0.353711
-0.07102
-0.304654
0
-0.0696836
-0.0775268
-0.0738215
-0.0755109
-0.0188405
-0.0961212
-0.277098
-0.0735355
-0.422708
-0.0760343
-0.14278
-0.141415
-0.151264
-0.0741285
-0.149414
-0.157047
-0.158658
-0.112577
-0.0609559
-0.381981
-0.109272
-0.105886
-0.113162
-0.121535
-0.119025
-0.0642169
-0.116198
-0.124314
-0.07043
-0.00532816
-0.00559095
-0.347621
-0.00250855
-0.0690862
-0.345279
-0.00235699
-0.00239999
-0.293185
-0.12162
-0.00505884
-0.119699
-0.00216932
-0.316147
-0.00233719
-0.318307
-0.295076
-0.0781291
-0.110565
0
-0.312725
-0.250253
-0.058284
-0.0909199
-0.0875995
-0.0916733
-0.0957009
-0.0984702
-0.0950449
-0.0992176
-0.102637
-0.0521976
-0.371092
-0.126929
-0.0675027
-0.391648
-0.113251
-0.0742198
-0.272297
-0.0721757
-0.402034
-0.0721355
-0.399811
-0.0741751
-0.276298
-0.0736833
-0.436214
-0.407731
-0.0736924
-0.427744
-0.287459
-0.0762412
-0.251572
-0.426522
-0.0294829
-0.0969359
-0.0784143
0
-0.0407346
-0.0979377
-0.0764611
-0.118115
0
-0.294214
-0.0786046
-0.0411898
-0.0980511
-0.353717
-0.00566438
-0.00573662
-0.297821
-0.00906844
-0.301916
-0.360198
-0.00846904
-0.00886034
-0.132509
-0.0045499
-0.00470416
-0.320963
-0.278323
-0.126552
-0.00793143
-0.00747671
-0.323216
-0.0572916
-0.0932379
-0.252722
-0.0561463
-0.347845
-0.0930555
-0.343583
-0.0860665
-0.200581
-0.0242567
-0.0863906
-0.0232994
-0.0877099
-0.243838
-0.38392
-0.310441
-0.166876
-0.0298611
-0.0874354
-0.0307271
-0.117552
-0.0221111
-0.110039
-0.0280211
-0.344184
-0.084914
-0.154939
-0.147613
-0.13987
-0.137297
-0.152538
-0.145393
-0.126173
-0.2283
-0.244761
-0.0676256
-0.397505
-0.0644737
-0.396201
-0.0804766
-0.0264761
-0.0841962
-0.023093
-0.313949
-0.0817993
-0.0248583
-0.0905906
-0.107047
-0.0433323
-0.104273
-0.0446366
-0.400901
-0.0639622
-0.112297
-0.0495511
-0.114998
-0.0485262
-0.0912782
-0.413609
-0.331576
-0.201186
-0.0527225
-0.0895487
-0.0462734
-0.344284
-0.00540434
-0.0700894
-0.0709163
-0.0722988
-0.0692533
-0.00232729
-0.0678831
-0.0682724
-0.242628
-0.0598768
-0.0751665
-0.0890677
-0.238122
-0.0459208
-0.36594
-0.0909496
-0.0518968
-0.347078
-0.367658
-0.0906091
-0.246216
-0.0511817
-0.341048
-0.0453997
-0.335331
-0.273011
-0.0730321
-0.0659403
-0.291997
-0.0769862
-0.0786985
-0.0448834
-0.365764
-0.0366734
-0.0600327
-0.239566
-0.060609
-0.413982
-0.283076
-0.0757477
-0.0761855
-0.420887
-0.0302129
-0.0971734
-0.285321
-0.0764727
-0.0730015
-0.0739089
-0.0960981
-0.0600974
-0.0630453
-0.0152893
-0.0763196
-0.0152371
-0.326125
-0.00751424
-0.315977
0
-0.305241
-0.101735
-0.00776248
-0.315355
-0.0723069
-0.00771296
0
-0.0682297
-0.0524299
-0.377961
-0.112421
-0.194736
-0.0607099
-0.388739
-0.121937
-0.210776
-0.175149
-0.0566245
-0.386577
-0.0244629
-0.0771223
-0.0232211
-0.0771471
-0.0191633
-0.30989
-0.0750712
-0.018416
-0.0868712
-0.348632
-0.0283334
-0.0749818
-0.360647
-0.0134744
-0.0731256
-0.0137679
-0.306024
-0.0848718
-0.336646
-0.0223062
-0.0733273
-0.0378751
-0.321555
-0.0865271
-0.0330803
-0.374707
-0.0472942
-0.0824804
-0.352077
-0.0890428
-0.218949
-0.037269
-0.0454673
-0.360091
-0.0888047
-0.246741
-0.393976
-0.317643
-0.179118
-0.0379144
-0.231391
-0.0460989
-0.353941
-0.0899718
-0.24929
-0.404647
-0.324579
-0.189881
-0.046421
-0.340155
-0.0207198
-0.0732517
-0.0130419
-0.0753625
-0.0177024
-0.359685
-0.0344946
-0.0776901
-0.0220372
-0.0887386
-0.0788011
-0.0206892
-0.00566796
-0.300005
-0.326192
-0.0751962
-0.185059
-0.00965207
-0.303802
-0.345794
-0.284142
-0.154596
-0.0096845
-0.179804
-0.00940701
-0.306579
-0.341967
-0.28289
-0.149268
-0.00882096
-0.0926481
-0.0319604
-0.318886
-0.167545
-0.00521198
-0.0882013
-0.0274548
-0.316503
-0.0920055
-0.335296
-0.272486
-0.146152
-0.00561141
-0.162402
-0.00247182
-0.297197
-0.0776954
-0.155438
-0.0022413
-0.301574
-0.32605
-0.259653
-0.137907
-0.00240659
-0.0991232
-0.0375946
-0.0806246
-0.0190418
-0.310987
-0.0284711
-0.0538032
-0.399063
-0.353508
-0.0912284
-0.217634
-0.0445983
-0.376757
-0.0218547
-0.0651425
-0.0913611
-0.24947
-0.423993
-0.0449605
-0.380622
0
-0.0670245
-0.375253
-0.0930764
-0.253366
-0.0551103
-0.341494
-0.133774
-0.0583148
-0.352102
-0.292441
-0.158085
-0.0140325
-0.079865
-0.354793
-0.0146094
-0.0339745
-0.322381
-0.0836253
-0.0813364
-0.367529
-0.0279252
-0.318046
0
-0.312673
-0.292554
-0.0763756
-0.0309079
-0.0997874
-0.072851
-0.0174824
-0.0963219
-0.0772166
-0.035132
-0.0990864
0
-0.314287
-0.0997811
-0.0479079
-0.326542
-0.0523796
-0.107534
-0.0654812
-0.138607
-0.0912744
-0.0447249
-0.0429692
-0.324318
-0.0924729
-0.0941397
-0.38967
-0.0410025
-0.0461992
-0.394411
-0.0606572
-0.101868
-0.109887
-0.0510345
-0.0676621
0
-0.112688
-0.0659773
-0.108211
-0.145178
-0.0181522
-0.343756
-0.31898
-0.0855634
-0.0641635
-0.366317
-0.10426
-0.246638
-0.41648
-0.156898
-0.0381437
-0.372575
-0.0901725
0
-0.313922
-0.0778581
-0.0380222
-0.0982745
-0.0754034
-0.0271658
-0.0973464
-0.0757667
-0.151249
-0.276221
-0.0730495
-0.416214
-0.2497
-0.419327
-0.0732612
-0.418977
-0.0185044
-0.0961269
-0.0351909
-0.0821635
-0.0417485
-0.0860511
-0.233068
-0.0368838
-0.36881
-0.0469425
-0.0825679
-0.0464572
-0.0906991
-0.0432507
-0.0865873
-0.372457
-0.0335186
-0.321028
-0.0822502
-0.233827
-0.0389172
-0.324841
-0.362546
-0.0846213
-0.0274815
-0.0798589
-0.0784671
-0.36699
-0.304009
-0.175236
-0.0266658
-0.0717345
-0.00531104
-0.225863
-0.0327527
-0.0809835
-0.377053
-0.0381793
-0.0835058
-0.383419
-0.0441543
-0.0872433
-0.055108
-0.329099
-0.402396
-0.0675963
-0.117887
-0.062716
-0.130031
-0.0510336
-0.0961723
-0.361417
-0.0923619
-0.0525784
-0.391083
-0.24736
-0.406301
-0.0365618
-0.0898891
-0.343358
-0.0900757
-0.196682
-0.0373912
-0.244057
-0.397877
-0.308132
-0.152184
-0.0300045
-0.356707
-0.0885814
-0.301408
-0.147909
-0.0224118
-0.0868595
-0.0165393
-0.0855679
-0.386778
-0.0480036
-0.0903947
-0.0114
-0.0843889
-0.0538591
-0.0936686
-0.0172428
-0.0855274
-0.142035
-0.0120937
-0.314671
-0.0843556
-0.33598
-0.0756193
-0.197226
-0.0145537
-0.307967
-0.0775223
-0.36164
-0.0211208
-0.0713515
-0.00219265
-0.292436
-0.106806
-0.292932
-0.0692024
-0.164049
0
-0.0745648
-0.35681
-0.0143062
-0.0762816
-0.0205668
-0.311693
-0.10523
-0.0700714
0
-0.287483
-0.0022974
-0.293705
-0.0724601
-0.0704487
-0.341481
-0.261995
-0.144916
-0.00215953
-0.0725511
-0.00532192
-0.297866
-0.00550556
-0.0736779
-0.0503989
-0.336527
-0.0903282
-0.128975
-0.0130017
-0.0842905
-0.140331
-0.0243689
-0.352619
-0.0870781
-0.0947341
-0.066409
-0.0902632
-0.039062
-0.252357
-0.0664407
-0.428648
-0.379025
-0.274262
-0.0737886
-0.458178
-0.400452
-0.0202599
-0.0964629
-0.0963093
-0.0737726
-0.447529
-0.0928182
-0.221316
-0.0547227
-0.400317
-0.282016
-0.0669072
-0.392598
-0.105574
-0.0469612
-0.0916521
-0.333677
-0.0887221
-0.172572
-0.0311451
-0.361988
-0.00904754
-0.0953079
-0.0703248
-0.407571
-0.0897502
-0.0336027
-0.352326
-0.0266429
-0.0762708
-0.0165682
-0.383383
-0.0519668
-0.0878423
-0.035695
-0.320317
-0.0835779
-0.0307463
-0.0116368
-0.0750138
-0.0152138
-0.077751
-0.0123654
-0.0738428
-0.00251443
-0.0679695
-0.342885
0
-0.0659265
-0.128169
-0.0897399
-0.0519372
-0.0240077
-0.358485
-0.0852764
-0.0867011
-0.0184688
-0.3499
-0.08373
-0.0820783
-0.0262803
-0.360601
-0.0852741
-0.0833833
-0.391862
-0.00949431
-0.0955156
-0.263598
-0.0705269
-0.435525
-0.0918153
-0.198209
-0.0485703
-0.0954459
-0.0704322
-0.427893
-0.0859275
-0.0398638
-0.0702148
-0.0700753
-0.398801
-0.107118
-0.0586662
-0.390289
-0.0640989
-0.101288
-0.0552924
-0.332853
-0.0885522
-0.123856
-0.00948808
-0.0829678
-0.12744
-0.00859716
-0.329214
-0.308585
-0.0831604
-0.00912508
-0.301904
-0.0718733
-0.0282437
-0.0796958
-0.00922545
-0.301934
-0.0714415
-0.0798755
-0.031696
-0.0723779
-0.0675616
-0.0794434
-0.0301926
-0.159159
-0.20055
-0.0292233
-0.0879152
-0.0288525
-0.0969326
-0.111561
-0.327996
-0.0869627
-0.164709
-0.0231537
-0.347314
-0.116935
-0.110846
-0.089295
-0.0934576
-0.0541773
-0.121232
-0.0686861
-0.378155
-0.0765919
-0.153772
-0.0440093
-0.379664
-0.340937
-0.0885472
0
-0.30634
-0.147903
-0.289973
-0.0761208
-0.085809
-0.117488
-0.0246927
-0.183319
-0.316786
-0.0831586
-0.0722784
-0.0180854
-0.343444
-0.0813839
-0.014092
-0.306527
-0.0397533
-0.0996595
-0.142439
0
-0.299284
-0.127018
-0.0848223
-0.146001
-0.0670078
-0.284523
-0.0748067
-0.440738
-0.0244203
-0.0979227
-0.137767
-0.0627446
-0.368389
-0.0936901
-0.0981831
-0.375036
-0.0340831
-0.324246
-0.0848575
-0.0678014
-0.0967542
-0.073652
-0.0166483
-0.344005
-0.0815967
-0.0418944
-0.382518
-0.263611
-0.0702228
-0.0750732
-0.078019
-0.0818869
-0.0700469
-0.00975503
-0.0952445
-0.0702017
-0.413087
-0.0993499
-0.0820217
0
-0.0948458
-0.0372662
-0.39002
-0.0200527
-0.0969722
-0.0795358
-0.0802778
0
-0.305493
-0.0937648
-0.00743275
-0.316402
-0.0685432
-0.0349974
-0.377103
-0.310277
-0.177347
-0.252988
-0.112611
-0.0779568
-0.0663286
-0.0574695
-0.332591
-0.0965119
-0.0991601
-0.196039
-0.319702
0
-0.302153
-0.0777373
-0.1426
-0.0659436
-0.0698027
-0.0404304
-0.0866524
-0.140249
-0.20555
-0.325938
-0.00210478
-0.304044
-0.00715435
-0.317499
-0.165848
-0.0778052
-0.0681872
-0.0845107
-0.0745822
-0.0829777
-0.129885
0
-0.0404885
-0.0987143
-0.293053
-0.0782754
-0.0769216
-0.0227626
-0.0833888
-0.00762392
-0.0816549
-0.0966877
-0.0735131
-0.030906
-0.0850258
-0.145041
-0.00198359
-0.306809
-0.301828
-0.0795293
-0.0712828
-0.139061
-0.0391895
-0.369885
-0.332514
-0.0867159
-0.0902295
-0.049258
-0.332838
-0.147027
-0.00455158
-0.313427
-0.308885
-0.0814208
-0.0831791
-0.0569333
-0.376751
-0.0724607
-0.355858
-0.0907483
-0.0156584
-0.0966129
-0.273305
-0.0725744
-0.408055
-0.350412
-0.285744
-0.157285
-0.00944191
-0.0860708
-0.119403
-0.0205667
-0.352217
-0.18624
-0.315435
-0.0835846
-0.0792813
-0.0690497
-0.475627
-0.0988812
-0.00456966
-0.0809641
-0.0561759
-0.330596
-0.114265
-0.161524
-0.00739385
-0.317829
-0.0823192
-0.403463
-0.0702779
-0.121069
-0.0976396
-0.0596954
-0.332777
-0.0947816
-0.0524881
-0.0832628
-0.0019703
-0.0800054
-0.0804415
-0.0150581
-0.343221
-0.0819021
-0.0756205
-0.00735283
-0.317915
-0.0827486
-0.0800972
-0.0285417
-0.0852213
-0.0541949
-0.0916915
-0.0838132
-0.0352208
-0.370183
-0.0869694
-0.158183
-0.00456251
-0.311156
-0.080258
-0.385757
-0.00994697
-0.0957392
-0.26349
-0.070622
-0.0609027
-0.385487
-0.0879326
-0.240611
-0.044788
-0.331601
-0.0778933
-0.0136065
-0.341519
-0.0822249
-0.300215
-0.0804666
-0.306061
-0.0819973
-0.0330625
-0.0598068
-0.103434
-0.00656739
-0.319237
-0.158279
-0.298106
-0.0778092
-0.155384
-0.0882705
-0.0569396
-0.38042
-0.0456896
-0.0883702
-0.0715415
-0.0770786
-0.111188
-0.0192676
-0.342093
-0.17307
-0.310488
-0.105445
-0.0812009
-0.0697245
-0.0128293
-0.33062
-0.0795325
-0.0702698
-0.247098
-0.411482
-0.124444
-0.0536223
0
-0.308034
-0.0761633
-0.130212
-0.0586449
-0.1308
-0.0829686
-0.119348
-0.0105732
-0.336104
-0.308096
-0.0827073
-0.119946
-0.00651543
-0.081221
-0.00530929
-0.0955969
-0.0706536
-0.35152
-0.0915082
-0.208153
-0.0457909
-0.38458
-0.259347
-0.0742292
-0.00852164
-0.0805152
-0.153201
-0.118098
-0.0751189
-0.00738164
-0.330521
-0.0808926
-0.405953
-0.0304023
-0.0977925
-0.36994
-0.0938262
-0.0974376
-0.0927482
-0.12613
-0.0591601
-0.331062
-0.0802829
-0.0119734
-0.0824456
-0.00914511
-0.302129
-0.0904662
-0.283882
-0.0743806
-0.0530963
-0.091897
-0.0765791
-0.100351
-0.281999
-0.0708298
-0.386367
-0.100827
-0.3036
-0.0751662
-0.109974
-0.087953
-0.0634924
-0.405401
-0.0936297
-0.134644
-0.0902528
-0.0503015
-0.0919701
-0.107005
-0.070001
-0.396011
-0.135373
-0.0704302
-0.422393
-0.103747
-0.0704113
-0.418668
-0.133474
-0.0592814
-0.400804
-0.0927166
-0.102607
-0.0766087
-0.171431
-0.0485926
-0.387592
-0.0904046
-0.0918084
-0.145026
-0.262873
-0.0702582
-0.415632
-0.131119
-0.0964977
-0.324918
-0.0781329
-0.12799
-0.138869
-0.24619
-0.0670874
-0.409363
-0.244436
-0.393767
0
-0.0944255
-0.118364
-0.0668103
-0.442713
-0.0971683
-0.0737059
-0.33128
-0.259684
-0.142328
-0.00238576
-0.112776
0
-0.0625254
-0.0986383
-0.0775687
-0.0723594
-0.336876
-0.247118
-0.138781
0