# vtk DataFile Version 2.0
Unstructured Grid by M++
ASCII
DATASET UNSTRUCTURED_GRID
POINTS 4225 float
  0.921875   0.593750 0
  0.921875   0.609375 0
  0.656250   0.609375 0
  0.671875   0.609375 0
  0.656250   0.546875 0
  0.671875   0.546875 0
  0.656250   0.562500 0
  0.656250   0.578125 0
  0.656250   0.593750 0
  0.671875   0.593750 0
  0.671875   0.562500 0
  0.671875   0.578125 0
  0.671875   0.625000 0
  0.671875   0.640625 0
  0.906250   0.578125 0
  0.890625   0.578125 0
  0.546875   0.515625 0
  1.000000   0.890625 0
  0.515625   0.640625 0
  0.515625   0.625000 0
  1.000000   0.875000 0
  0.515625   0.656250 0
  0.515625   0.687500 0
  0.515625   0.671875 0
  1.000000   0.921875 0
  0.546875   0.531250 0
  0.546875   0.546875 0
  0.546875   0.562500 0
  0.796875   0.531250 0
  0.953125   0.890625 0
  0.953125   0.875000 0
  0.953125   0.843750 0
  0.953125   0.828125 0
  0.953125   0.812500 0
  0.531250   0.562500 0
  0.531250   0.546875 0
  0.515625   0.562500 0
  0.515625   0.546875 0
  1.000000   0.812500 0
  0.781250   0.546875 0
  0.765625   0.546875 0
  0.859375   0.921875 0
  0.921875   0.671875 0
  0.609375   0.906250 0
  0.671875   0.656250 0
  0.609375   0.921875 0
  0.671875   0.671875 0
  0.671875   0.984375 0
  0.671875   1.000000 0
  0.906250   0.984375 0
  0.906250   1.000000 0
  0.921875   0.984375 0
  0.921875   1.000000 0
  0.859375   0.609375 0
  1.000000   0.781250 0
  0.515625   0.531250 0
  0.531250   0.531250 0
  0.531250   0.515625 0
  0.515625   0.515625 0
  1.000000   0.750000 0
  0.765625   0.531250 0
  0.781250   0.531250 0
  0.781250   0.515625 0
  0.765625   0.515625 0
  0.859375   0.875000 0
  0.921875   0.625000 0
  0.859375   0.890625 0
  0.921875   0.640625 0
  0.671875   0.968750 0
  0.671875   0.953125 0
  0.921875   0.968750 0
  0.921875   0.953125 0
  0.859375   0.593750 0
  0.859375   0.578125 0
  0.875000   0.578125 0
  0.828125   0.890625 0
  0.890625   0.640625 0
  0.593750   0.890625 0
  0.656250   0.640625 0
  0.593750   0.875000 0
  0.656250   0.625000 0
  0.578125   0.890625 0
  0.640625   0.640625 0
  0.578125   0.875000 0
  0.640625   0.625000 0
  0.968750   0.890625 0
  0.984375   0.890625 0
  0.968750   0.812500 0
  0.968750   0.828125 0
  0.984375   0.812500 0
  0.984375   0.828125 0
  1.000000   0.828125 0
  0.656250   0.953125 0
  0.640625   0.953125 0
  0.890625   0.968750 0
  0.906250   0.968750 0
  0.906250   0.953125 0
  0.890625   0.953125 0
  0.531250   0.703125 0
  0.531250   0.718750 0
  0.546875   0.718750 0
  0.546875   0.703125 0
  0.593750   0.578125 0
  0.562500   0.578125 0
  0.578125   0.578125 0
  0.843750   0.578125 0
  0.828125   0.578125 0
  0.828125   0.812500 0
  0.890625   0.562500 0
  0.828125   0.796875 0
  0.953125   0.906250 0
  0.953125   0.921875 0
  0.531250   0.859375 0
  0.593750   0.609375 0
  0.531250   0.843750 0
  0.593750   0.593750 0
  0.515625   0.843750 0
  0.578125   0.593750 0
  0.515625   0.859375 0
  0.578125   0.609375 0
  0.937500   0.859375 0
  1.000000   0.609375 0
  0.921875   0.859375 0
  0.984375   0.609375 0
  0.937500   0.796875 0
  0.921875   0.796875 0
  0.984375   0.546875 0
  0.562500   0.812500 0
  0.843750   0.796875 0
  0.843750   0.812500 0
  0.859375   0.796875 0
  0.859375   0.812500 0
  1.000000   0.906250 0
  0.984375   0.906250 0
  0.968750   0.906250 0
  0.968750   0.921875 0
  0.984375   0.921875 0
  0.593750   0.921875 0
  0.656250   0.671875 0
  0.593750   0.906250 0
  0.656250   0.656250 0
  0.578125   0.906250 0
  0.640625   0.656250 0
  0.578125   0.921875 0
  0.640625   0.671875 0
  1.000000   0.843750 0
  0.984375   0.843750 0
  0.968750   0.843750 0
  0.968750   0.859375 0
  0.968750   0.875000 0
  1.000000   0.859375 0
  0.984375   0.859375 0
  0.984375   0.875000 0
  0.656250   1.000000 0
  0.656250   0.984375 0
  0.656250   0.968750 0
  0.640625   0.968750 0
  0.640625   1.000000 0
  0.640625   0.984375 0
  0.843750   0.921875 0
  0.906250   0.671875 0
  0.843750   0.906250 0
  0.906250   0.656250 0
  0.828125   0.906250 0
  0.890625   0.656250 0
  0.828125   0.921875 0
  0.890625   0.671875 0
  0.781250   0.859375 0
  0.843750   0.609375 0
  0.781250   0.843750 0
  0.843750   0.593750 0
  0.765625   0.843750 0
  0.828125   0.593750 0
  0.765625   0.859375 0
  0.828125   0.609375 0
  0.968750   0.609375 0
  0.906250   0.859375 0
  0.953125   0.609375 0
  0.890625   0.859375 0
  0.937500   0.609375 0
  0.875000   0.859375 0
  0.562500   0.593750 0
  0.546875   0.593750 0
  0.531250   0.593750 0
  0.531250   0.609375 0
  0.562500   0.609375 0
  0.546875   0.609375 0
  0.609375   0.625000 0
  0.546875   0.875000 0
  0.609375   0.640625 0
  0.546875   0.890625 0
  0.625000   0.640625 0
  0.562500   0.890625 0
  0.625000   0.625000 0
  0.562500   0.875000 0
  0.921875   0.843750 0
  0.984375   0.593750 0
  0.937500   0.843750 0
  1.000000   0.593750 0
  0.921875   0.812500 0
  0.921875   0.828125 0
  0.984375   0.578125 0
  0.937500   0.828125 0
  1.000000   0.578125 0
  0.937500   0.812500 0
  1.000000   0.562500 0
  0.578125   0.828125 0
  0.921875   0.781250 0
  0.937500   0.781250 0
  1.000000   0.531250 0
  0.921875   0.765625 0
  0.984375   0.515625 0
  0.937500   0.765625 0
  0.625000   0.656250 0
  0.562500   0.906250 0
  0.609375   0.656250 0
  0.546875   0.906250 0
  0.625000   0.671875 0
  0.562500   0.921875 0
  0.609375   0.671875 0
  0.546875   0.921875 0
  0.859375   0.781250 0
  0.859375   0.765625 0
  0.828125   0.671875 0
  0.765625   0.921875 0
  0.828125   0.734375 0
  0.765625   0.984375 0
  0.875000   0.843750 0
  0.937500   0.593750 0
  0.890625   0.843750 0
  0.953125   0.593750 0
  0.906250   0.843750 0
  0.968750   0.593750 0
  0.906250   0.828125 0
  0.968750   0.578125 0
  0.937500   0.578125 0
  0.953125   0.578125 0
  0.906250   0.765625 0
  0.875000   0.765625 0
  0.953125   0.515625 0
  0.531250   0.781250 0
  0.671875   0.890625 0
  0.531250   0.921875 0
  0.953125   0.656250 0
  0.828125   0.781250 0
  0.843750   0.781250 0
  0.703125   0.984375 0
  0.687500   0.984375 0
  0.843750   0.875000 0
  0.906250   0.625000 0
  0.671875   0.781250 0
  0.734375   0.531250 0
  0.906250   0.609375 0
  0.671875   0.765625 0
  0.734375   0.515625 0
  0.906250   0.593750 0
  0.890625   0.593750 0
  0.875000   0.593750 0
  0.828125   0.875000 0
  0.890625   0.625000 0
  0.656250   0.781250 0
  0.718750   0.531250 0
  0.890625   0.609375 0
  0.656250   0.765625 0
  0.718750   0.515625 0
  0.875000   0.609375 0
  0.640625   0.765625 0
  0.703125   0.515625 0
  0.812500   0.921875 0
  0.875000   0.671875 0
  0.812500   0.875000 0
  0.875000   0.625000 0
  0.640625   0.781250 0
  0.703125   0.531250 0
  0.812500   0.515625 0
  0.750000   0.828125 0
  0.812500   0.578125 0
  0.687500   1.000000 0
  0.937500   0.656250 0
  0.875000   0.906250 0
  0.531250   0.656250 0
  0.890625   0.906250 0
  0.906250   0.906250 0
  0.562500   0.656250 0
  0.906250   0.890625 0
  0.562500   0.640625 0
  0.968750   0.625000 0
  0.906250   0.875000 0
  0.562500   0.625000 0
  0.937500   0.640625 0
  0.875000   0.890625 0
  0.890625   0.890625 0
  0.546875   0.640625 0
  0.953125   0.625000 0
  0.890625   0.875000 0
  0.546875   0.625000 0
  0.546875   0.687500 0
  0.890625   0.937500 0
  0.937500   0.625000 0
  0.875000   0.875000 0
  0.531250   0.625000 0
  0.531250   0.640625 0
  0.546875   0.656250 0
  0.937500   0.968750 0
  0.687500   0.968750 0
  0.953125   0.968750 0
  0.703125   0.968750 0
  0.968750   0.968750 0
  0.718750   0.968750 0
  0.718750   0.906250 0
  0.968750   0.953125 0
  0.718750   0.953125 0
  0.968750   0.937500 0
  0.859375   0.906250 0
  0.921875   0.656250 0
  0.718750   0.937500 0
  0.828125   0.531250 0
  0.937500   0.953125 0
  0.687500   0.953125 0
  0.953125   0.953125 0
  0.703125   0.953125 0
  0.703125   0.890625 0
  0.843750   0.515625 0
  0.953125   0.937500 0
  0.953125   1.000000 0
  0.703125   0.937500 0
  0.937500   0.937500 0
  0.687500   0.937500 0
  0.703125   0.906250 0
  0.718750   0.890625 0
  0.687500   0.890625 0
  0.687500   0.765625 0
  0.750000   0.515625 0
  0.687500   0.781250 0
  0.750000   0.531250 0
  0.859375   0.937500 0
  0.921875   0.687500 0
  0.687500   0.796875 0
  0.750000   0.546875 0
  0.578125   0.750000 0
  0.515625   1.000000 0
  0.843750   0.765625 0
  0.578125   0.734375 0
  0.515625   0.984375 0
  0.562500   0.734375 0
  0.828125   0.750000 0
  0.765625   1.000000 0
  0.562500   0.750000 0
  0.562500   0.718750 0
  0.578125   0.515625 0
  0.921875   0.703125 0
  0.921875   0.718750 0
  0.593750   0.515625 0
  0.687500   0.875000 0
  0.750000   0.625000 0
  0.578125   0.531250 0
  0.921875   0.750000 0
  0.703125   0.875000 0
  0.765625   0.625000 0
  0.593750   0.531250 0
  0.875000   0.968750 0
  0.937500   0.718750 0
  0.703125   0.828125 0
  0.765625   0.578125 0
  0.937500   0.734375 0
  0.703125   0.812500 0
  0.765625   0.562500 0
  0.890625   0.687500 0
  0.828125   0.937500 0
  0.656250   0.796875 0
  0.718750   0.546875 0
  0.890625   0.718750 0
  0.828125   0.968750 0
  0.906250   0.796875 0
  0.718750   0.828125 0
  0.781250   0.578125 0
  0.890625   0.703125 0
  0.828125   0.953125 0
  0.656250   0.859375 0
  0.906250   0.781250 0
  0.968750   0.531250 0
  0.546875   0.796875 0
  0.671875   0.796875 0
  0.734375   0.546875 0
  0.843750   0.953125 0
  0.906250   0.703125 0
  0.671875   0.875000 0
  0.718750   0.812500 0
  0.781250   0.562500 0
  0.875000   0.812500 0
  0.531250   0.890625 0
  0.593750   0.640625 0
  0.937500   0.890625 0
  0.875000   0.781250 0
  0.609375   0.703125 0
  0.546875   0.953125 0
  0.890625   0.796875 0
  0.625000   0.718750 0
  0.562500   0.968750 0
  0.906250   0.812500 0
  0.734375   0.859375 0
  0.796875   0.609375 0
  0.718750   0.875000 0
  0.781250   0.625000 0
  0.750000   0.859375 0
  0.812500   0.609375 0
  0.812500   0.546875 0
  0.750000   0.812500 0
  0.734375   0.843750 0
  0.796875   0.593750 0
  0.750000   0.843750 0
  0.812500   0.593750 0
[...]
POINT_DATA 4225
SCALARS scalar_value float 1
LOOKUP_TABLE default
-0.188209
-0.207151
-0.238618
-0.238854
-0.224151
-0.224506
-0.228077
-0.231612
-0.235101
-0.235736
-0.228529
-0.232302
-0.242116
-0.245661
-0.171632
-0.174617
-0.205139
-0.305599
-0.243955
-0.239847
-0.300662
-0.248359
-0.258392
-0.253394
-0.315125
-0.211879
-0.217528
-0.222866
-0.177142
-0.305535
-0.300143
-0.291272
-0.28792
-0.28511
-0.222354
-0.216701
-0.221881
-0.216005
-0.284997
-0.198405
-0.205364
-0.307868
-0.258247
-0.30011
-0.249646
-0.301655
-0.253462
-0.310274
-0.312935
-0.332746
-0.338108
-0.333081
-0.337869
-0.213561
-0.280299
-0.208795
-0.210365
-0.203264
-0.201202
-0.275898
-0.193256
-0.185334
-0.171063
-0.179222
-0.296106
-0.223928
-0.300069
-0.238776
-0.307698
-0.3053
-0.32821
-0.323427
-0.198767
-0.184904
-0.17913
-0.298113
-0.238124
-0.298574
-0.245253
-0.296855
-0.241894
-0.29854
-0.244996
-0.29698
-0.241624
-0.305679
-0.305603
-0.285067
-0.288095
-0.285022
-0.288142
-0.28818
-0.305181
-0.305107
-0.326462
-0.327572
-0.322541
-0.321145
-0.26168
-0.264959
-0.264158
-0.260776
-0.228591
-0.227616
-0.228091
-0.191962
-0.19905
-0.284331
-0.160935
-0.282344
-0.310356
-0.314903
-0.294501
-0.235972
-0.292568
-0.23225
-0.291893
-0.231937
-0.293938
-0.23548
-0.29496
-0.208556
-0.294322
-0.208573
-0.282982
-0.282924
-0.151154
-0.28704
-0.282501
-0.284353
-0.282684
-0.284445
-0.310104
-0.31026
-0.310452
-0.31499
-0.314994
-0.301601
-0.252975
-0.300111
-0.249098
-0.3
-0.248606
-0.301487
-0.252445
-0.291803
-0.291797
-0.291652
-0.295783
-0.300585
-0.296001
-0.295991
-0.300692
-0.311629
-0.309441
-0.307285
-0.307013
-0.310892
-0.308935
-0.30655
-0.258296
-0.302733
-0.250345
-0.301589
-0.250385
-0.305254
-0.258337
-0.291564
-0.217689
-0.289276
-0.20489
-0.2895
-0.210933
-0.2916
-0.221809
-0.208291
-0.293648
-0.207934
-0.293022
-0.207923
-0.292466
-0.23162
-0.231251
-0.231075
-0.235
-0.235199
-0.234943
-0.24066
-0.296666
-0.244487
-0.298116
-0.244815
-0.29837
-0.241188
-0.296916
-0.290455
-0.191707
-0.290908
-0.191866
-0.284974
-0.287335
-0.1772
-0.287602
-0.17784
-0.285098
-0.164176
-0.290222
-0.281432
-0.281337
-0.139946
-0.2799
-0.129339
-0.279562
-0.248325
-0.29981
-0.248237
-0.299593
-0.252122
-0.301325
-0.252125
-0.30111
-0.281115
-0.279489
-0.258671
-0.30085
-0.27462
-0.322748
-0.289034
-0.188784
-0.289313
-0.190384
-0.289834
-0.191246
-0.287054
-0.175341
-0.171276
-0.172994
-0.280036
-0.279885
-0.127431
-0.278994
-0.297441
-0.300852
-0.250825
-0.280422
-0.280793
-0.313723
-0.311673
-0.295511
-0.223151
-0.277814
-0.20749
-0.206537
-0.274049
-0.195965
-0.188751
-0.190284
-0.193735
-0.2949
-0.223364
-0.277895
-0.213428
-0.207196
-0.273868
-0.203563
-0.209719
-0.273693
-0.208698
-0.303779
-0.258297
-0.294439
-0.22466
-0.278006
-0.217029
-0.153645
-0.2871
-0.206348
-0.314893
-0.250536
-0.304962
-0.247724
-0.306419
-0.307735
-0.247709
-0.302848
-0.243212
-0.225116
-0.298134
-0.239031
-0.239308
-0.300975
-0.301847
-0.243437
-0.225333
-0.297254
-0.239067
-0.257054
-0.316082
-0.22497
-0.296549
-0.239468
-0.243744
-0.24758
-0.328661
-0.308449
-0.329039
-0.309678
-0.329658
-0.311249
-0.297886
-0.324721
-0.306781
-0.319795
-0.303823
-0.250341
-0.302902
-0.15924
-0.323899
-0.305527
-0.324244
-0.306041
-0.296521
-0.139125
-0.319539
-0.338414
-0.302803
-0.319261
-0.302937
-0.298279
-0.296027
-0.297032
-0.274292
-0.187203
-0.277847
-0.200453
-0.312346
-0.264114
-0.281571
-0.21148
-0.269438
-0.309496
-0.279015
-0.266068
-0.307317
-0.266639
-0.276682
-0.329216
-0.270061
-0.263389
-0.208584
-0.269279
-0.273165
-0.210244
-0.295096
-0.241306
-0.214368
-0.278056
-0.294722
-0.240748
-0.215545
-0.324896
-0.272519
-0.28755
-0.223877
-0.275042
-0.284756
-0.215853
-0.264522
-0.309211
-0.28181
-0.221032
-0.273794
-0.320014
-0.282898
-0.287513
-0.219208
-0.269724
-0.314213
-0.293248
-0.28145
-0.137924
-0.283218
-0.281632
-0.217084
-0.315324
-0.269502
-0.295365
-0.284569
-0.210023
-0.28461
-0.297776
-0.24407
-0.304821
-0.28135
-0.258755
-0.304275
-0.282871
-0.262213
-0.306143
-0.284779
-0.292028
-0.23035
-0.294263
-0.239809
-0.291812
-0.226162
-0.182432
-0.284429
-0.289934
-0.221697
-0.289715
-0.216342
-0.287354
-0.21325
-0.284408
-0.299341
-0.276349
-0.328785
-0.229853
-0.288126
-0.290527
-0.234384
-0.310617
-0.264442
-0.278494
-0.335881
-0.235327
-0.290733
-0.299666
-0.276608
-0.327111
-0.297777
-0.285521
-0.226814
-0.275265
-0.32389
-0.27827
-0.275679
-0.333966
-0.29985
-0.260037
-0.267644
-0.308577
-0.262761
-0.305338
-0.27222
-0.316094
-0.27139
-0.314835
-0.299093
-0.250326
-0.291051
-0.255814
-0.302848
-0.269829
-0.31318
-0.281439
-0.242756
-0.212221
-0.201029
-0.274634
-0.235965
-0.0527597
-0.0499428
-0.291029
-0.0364148
-0.272223
-0.269505
-0.237494
-0.278458
-0.219444
-0.276681
-0.241083
-0.0551486
-0.271932
-0.207842
-0.29498
-0.0420135
-0.250498
-0.0388354
-0.287614
-0.266415
-0.226832
-0.0304776
-0.203264
-0.0439692
-0.0139907
-0.20288
-0.0410269
-0.0386593
-0.224292
-0.0358752
-0.309484
-0.0696326
-0.25383
-0.198925
-0.306343
-0.250521
-0.239202
-0.0470833
-0.308145
-0.256215
-0.244015
-0.0500452
-0.269282
-0.0337233
-0.245642
-0.259898
-0.0362471
-0.278534
-0.309792
-0.262954
-0.0202261
-0.213135
-0.0172938
-0.208427
-0.208359
-0.0161304
-0.0372497
-0.234054
-0.20413
-0.014248
-0.231715
-0.228795
-0.329617
-0.25703
-0.233331
-0.21994
-0.282291
-0.060626
-0.232591
-0.211819
-0.230378
-0.291865
-0.0417993
-0.245248
-0.294073
-0.0473447
-0.29267
-0.251517
-0.219913
-0.289718
-0.241694
-0.234235
-0.283135
-0.224859
-0.280079
-0.218893
-0.240796
-0.129803
-0.304591
-0.245873
-0.247917
-0.281881
-0.225333
-0.23049
-0.257042
-0.253601
-0.157685
-0.390249
-0.2754
-0.149144
-0.364238
-0.0932204
-0.272115
-0.275218
-0.220133
-0.237298
-0.232653
-0.0935289
-0.242726
-0.2272
-0.230251
-0.225487
-0.212164
-0.228854
-0.0262685
-0.22128
-0.0528136
-0.0285584
-0.224034
-0.214617
-0.274066
-0.22012
-0.27684
-0.209741
-0.269366
-0.0486134
-0.205145
-0.263645
-0.225579
-0.0303554
-0.211494
-0.266836
-0.273113
-0.268208
-0.206277
-0.276307
-0.195884
-0.21636
-0.21981
-0.216454
-0.212332
-0.0181007
-0.218798
-0.281299
-0.225126
-0.284027
-0.020207
-0.216267
0
-0.278598
-0.21646
-0.23127
-0.286536
-0.0235005
-0.219777
-0.0014663
-0.231312
-0.00156078
-0.216263
-0.230918
-0.226923
-0.206705
-0.223922
-0.22315
-0.277669
-0.206596
-0.252702
-0.0323911
-0.229763
-0.263541
-0.247197
-0.306738
-0.0673391
-0.309316
-0.303652
-0.0643695
-0.211403
-0.0167734
-0.302286
-0.061614
-0.299581
-0.0571469
-0.251397
-0.245846
-0.239943
-0.238381
-0.23421
-0.233259
-0.229141
-0.215685
-0.235625
-0.228411
-0.240403
-0.224418
-0.285668
-0.285126
-0.0178597
-0.287714
-0.0243357
-0.0213869
-0.216668
0
-0.00139657
-0.243917
-0.225185
-0.257156
-0.262041
-0.245261
-0.250878
-0.249227
-0.0323764
-0.228515
-0.259903
-0.266019
-0.247314
-0.037345
-0.232947
-0.25519
-0.278485
-0.274364
-0.277153
-0.260401
-0.263469
-0.252602
-0.0301418
-0.224601
-0.0279801
-0.222864
-0.29378
-0.29302
-0.0042327
-0.292711
-0.0366556
-0.290844
-0.289771
-0.270308
-0.268649
-0.0273299
-0.222307
-0.290056
-0.0301475
-0.288342
-0.286841
-0.0239334
-0.218195
-0.279144
-0.234458
-0.040344
-0.280477
-0.235689
-0.0397486
-0.286771
-0.2887
-0.0304989
-0.026705
-0.222347
-0.00282974
-0.00369411
-0.0436648
-0.230516
-0.014808
-0.230417
-0.292877
-0.236425
-0.250314
-0.220345
-0.0255279
-0.219825
-0.0244574
-0.213421
-0.0195484
-0.300464
-0.0601322
-0.222383
-0.025626
-0.030005
-0.305601
-0.308775
-0.0685537
-0.0399277
-0.0356366
-0.298474
-0.201361
-0.207015
-0.199547
-0.213309
-0.213344
-0.0324895
-0.227184
-0.0352635
-0.228842
-0.196086
-0.00853656
-0.295547
-0.042848
-0.296207
-0.0478562
-0.0378641
-0.231598
-0.20117
-0.0113996
-0.298917
-0.0531656
-0.20105
-0.0105241
-0.29669
-0.0521406
-0.0326623
-0.226403
-0.293324
-0.0423502
-0.233941
-0.00667962
-0.304089
-0.306069
-0.00532617
-0.0267656
-0.292231
-0.00171938
-0.169047
-0.122984
-0.0337372
-0.282896
-0.119823
-0.229827
-0.0265962
-0.292517
-0.115712
-0.0265726
-0.292798
-0.0361996
-0.290374
-0.140219
-0.222272
-0.0367308
-0.291681
-0.21998
-0.219813
-0.0303725
-0.289386
-0.118618
-0.278147
0
-0.113084
-0.13492
-0.127701
-0.131682
-0.00398502
-0.177188
-0.248038
-0.0719731
-0.309567
-0.0741789
-0.179041
-0.178248
-0.184974
-0.0700565
-0.184326
-0.191392
-0.192003
-0.158396
-0.0559984
-0.296293
-0.156723
-0.155242
-0.1605
-0.165693
-0.163355
-0.059599
-0.161971
-0.166948
-0.119177
-0.00519498
-0.00487776
-0.286582
-0.00234789
-0.113663
-0.285912
-0.00272993
-0.00259338
-0.282805
-0.0617807
-0.00969077
-0.2119
-0.00521848
-0.282196
-0.00483957
-0.282511
-0.257954
-0.0763257
-0.207066
0
-0.278103
-0.258887
-0.0695423
-0.139937
-0.139392
-0.142898
-0.146584
-0.144439
-0.143741
-0.147562
-0.148374
-0.047413
-0.293225
-0.168133
-0.0630146
-0.301083
-0.182924
-0.0703398
-0.239866
-0.0682977
-0.307887
-0.0681778
-0.306711
-0.0701235
-0.252122
-0.0745808
-0.309981
-0.322613
-0.073255
-0.309714
-0.255104
-0.0755988
-0.161686
-0.344018
-0.00663279
-0.185297
-0.0779396
0
-0.00913991
-0.191757
-0.0772319
-0.205984
0
-0.262219
-0.0798155
-0.00968172
-0.19336
-0.28868
-0.0044897
-0.00462691
-0.284696
-0.00716765
-0.28672
-0.290738
-0.00701904
-0.00698307
-0.215989
-0.010178
-0.0100524
-0.285865
-0.243077
-0.0642273
-0.0149897
-0.0150419
-0.288405
-0.0696046
-0.16373
-0.260387
-0.0694573
-0.311129
-0.163061
-0.285443
-0.129884
-0.235389
-0.0340653
-0.126613
-0.0339244
-0.134034
-0.128369
-0.312573
-0.267964
-0.0763956
-0.0414983
-0.13639
-0.0413556
-0.216904
-0.0176857
-0.212811
-0.0244508
-0.287068
-0.132071
-0.190942
-0.183874
-0.177246
-0.176419
-0.190787
-0.183566
-0.0419894
-0.232517
-0.234508
-0.0636712
-0.302896
-0.0608804
-0.301445
-0.139744
-0.0228723
-0.14119
-0.0217881
-0.303831
-0.140442
-0.0222535
-0.109577
-0.158353
-0.0558596
-0.157469
-0.0578959
-0.302988
-0.0622019
-0.163172
-0.0689589
-0.163771
-0.0664948
-0.158174
-0.316873
-0.288914
-0.0856572
-0.0622966
-0.151752
-0.0552587
-0.300404
-0.00454441
-0.122591
-0.12297
-0.123265
-0.118178
-0.00218761
-0.117228
-0.117917
-0.247281
-0.0670219
-0.0852972
-0.151694
-0.252151
-0.0545094
-0.293112
-0.15783
-0.0619168
-0.304893
-0.293394
-0.157072
-0.256919
-0.0614635
-0.305595
-0.0528579
-0.301575
-0.257825
-0.0813608
-0.0725201
-0.267999
-0.0899559
-0.095612
-0.0555838
-0.30073
-0.0487451
-0.066751
-0.244272
-0.0662699
-0.305019
-0.261447
-0.0826994
-0.0806165
-0.32353
-0.00751534
-0.188688
-0.258463
-0.0789114
-0.122776
-0.122495
-0.169702
-0.0776094
-0.0852535
-0.0110458
-0.122879
-0.0108533
-0.283234
-0.00438998
-0.281208
0
-0.278685
-0.203107
-0.00520825
-0.280313
-0.117409
-0.00485008
0
-0.110652
-0.0474292
-0.295065
-0.0356298
-0.228458
-0.0564883
-0.298404
-0.0382682
-0.231019
-0.22664
-0.0525067
-0.297849
-0.0195777
-0.135229
-0.0182401
-0.135577
-0.0147931
-0.29213
-0.132149
-0.0139143
-0.0878901
-0.288965
-0.0224146
-0.132666
-0.291267
-0.010365
-0.128954
-0.0109238
-0.288969
-0.0821008
-0.286316
-0.0169838
-0.128267
-0.039114
-0.309331
-0.147192
-0.030756
-0.294464
-0.0427257
-0.142821
-0.288597
-0.142101
-0.242274
-0.0486353
-0.0560491
-0.300313
-0.143712
-0.139271
-0.314232
-0.276561
-0.079127
-0.0485729
-0.24758
-0.0558599
-0.300079
-0.151534
-0.151741
-0.316146
-0.283205
-0.0820037
-0.0555656
-0.287449
-0.0152708
-0.129667
-0.0100904
-0.133317
-0.0133676
-0.291874
-0.0281738
-0.136249
-0.0174668
-0.0970236
-0.137171
-0.0171525
-0.0069789
-0.284335
-0.281781
-0.122116
-0.219444
-0.010314
-0.286685
-0.288938
-0.244549
-0.054938
-0.0112023
-0.218511
-0.0120334
-0.286975
-0.289744
-0.243359
-0.0569998
-0.0127385
-0.148818
-0.0354449
-0.313531
-0.21317
-0.00781341
-0.144777
-0.0276246
-0.308874
-0.126173
-0.286535
-0.240615
-0.0516332
-0.00741824
-0.206623
-0.00359796
-0.281837
-0.0991228
-0.207317
-0.00392407
-0.281453
-0.28358
-0.23693
-0.0486948
-0.00366002
-0.153551
-0.0450329
-0.137929
-0.0170544
-0.298884
-0.0236822
-0.0605553
-0.303278
-0.291281
-0.144344
-0.240648
-0.054534
-0.301373
-0.0160492
-0.101062
-0.1414
-0.14729
-0.364359
-0.0542708
-0.301548
0
-0.107905
-0.295156
-0.162203
-0.260632
-0.0691805
-0.312259
-0.176215
-0.0922241
-0.29178
-0.248038
-0.0602631
-0.0175258
-0.12466
-0.290878
-0.0148624
-0.0351431
-0.296412
-0.138822
-0.134577
-0.295624
-0.0274872
-0.293953
0
-0.278738
-0.248527
-0.0722444
-0.00627667
-0.190104
-0.0699639
-0.00315803
-0.174592
-0.073029
-0.00683995
-0.189909
0
-0.278033
-0.156953
-0.0622216
-0.319437
-0.0743947
-0.16313
-0.111563
-0.194727
-0.151746
-0.0523479
-0.0501054
-0.314359
-0.151765
-0.152126
-0.302713
-0.0482898
-0.059937
-0.300625
-0.0576716
-0.156901
-0.162906
-0.0716702
-0.107666
0
-0.199828
-0.100979
-0.192338
-0.226194
-0.0268444
-0.293791
-0.280309
-0.097789
-0.0936783
-0.332327
-0.184112
-0.138934
-0.347806
-0.088866
-0.0481563
-0.300014
-0.128192
0
-0.278131
-0.0748429
-0.00780592
-0.189788
-0.0720185
-0.00523384
-0.182665
-0.0729404
-0.0485513
-0.244489
-0.0703742
-0.309536
-0.146433
-0.359476
-0.0710094
-0.30958
-0.00365998
-0.175896
-0.032747
-0.142401
-0.0438242
-0.146852
-0.24446
-0.0351938
-0.292475
-0.0420028
-0.142047
-0.0545416
-0.152226
-0.0466575
-0.147283
-0.297531
-0.0329034
-0.29714
-0.138426
-0.246236
-0.0404338
-0.300186
-0.291301
-0.142846
-0.0253697
-0.134464
-0.134618
-0.294752
-0.264043
-0.0659587
-0.0230704
-0.118272
-0.00582728
-0.240857
-0.030135
-0.138215
-0.299483
-0.0378938
-0.142225
-0.302899
-0.0490657
-0.14821
-0.0830415
-0.332164
-0.304317
-0.0649076
-0.170429
-0.103979
-0.187807
-0.0661347
-0.157862
-0.293308
-0.155685
-0.0618198
-0.303001
-0.136296
-0.341933
-0.0483963
-0.134493
-0.289309
-0.131276
-0.235734
-0.0482896
-0.127201
-0.33341
-0.269154
-0.0821204
-0.0416239
-0.298038
-0.120996
-0.261
-0.0753883
-0.0339266
-0.115043
-0.0266133
-0.106896
-0.304625
-0.0566818
-0.152951
-0.0204979
-0.0993136
-0.0685853
-0.160815
-0.0265769
-0.102305
-0.223524
-0.0203746
-0.277879
-0.0947314
-0.284617
-0.126852
-0.22547
-0.0137948
-0.288986
-0.130894
-0.292852
-0.0189757
-0.112608
-0.00322814
-0.282223
-0.200208
-0.274928
-0.10702
-0.198528
0
-0.127269
-0.290638
-0.0127424
-0.131277
-0.0175203
-0.291853
-0.20003
-0.106123
0
-0.280127
-0.00335376
-0.282115
-0.111676
-0.112793
-0.284909
-0.241233
-0.0452805
-0.0030245
-0.117954
-0.00616988
-0.284302
-0.00658748
-0.117358
-0.0605794
-0.306738
-0.155747
-0.0698608
-0.0204095
-0.0905181
-0.0794501
-0.0338355
-0.296222
-0.106747
-0.16581
-0.069927
-0.124918
-0.0481745
-0.247262
-0.0709185
-0.306849
-0.302074
-0.254852
-0.0775442
-0.310491
-0.31151
-0.00526114
-0.184176
-0.182375
-0.0760997
-0.310223
-0.14714
-0.239314
-0.0606265
-0.30317
-0.272537
-0.100918
-0.303283
-0.192339
-0.0544762
-0.136197
-0.286718
-0.117607
-0.231341
-0.0417727
-0.298259
-0.00141922
-0.165443
-0.067735
-0.307068
-0.148158
-0.036354
-0.290808
-0.0208622
-0.1339
-0.0131436
-0.29729
-0.0485016
-0.147743
-0.0375817
-0.310884
-0.143378
-0.0292803
-0.0100886
-0.130886
-0.0132815
-0.134547
-0.00996511
-0.130274
-0.00220217
-0.116315
-0.285455
0
-0.109188
-0.197458
-0.136132
-0.0555301
-0.0252643
-0.2951
-0.0852772
-0.136037
-0.0186763
-0.292984
-0.0810375
-0.131982
-0.0250313
-0.294913
-0.0837716
-0.135736
-0.309692
-0.00252517
-0.174273
-0.249287
-0.0731604
-0.308331
-0.133828
-0.234425
-0.0549202
-0.17313
-0.0718774
-0.308113
-0.146789
-0.0409891
-0.0665745
-0.0661469
-0.304696
-0.17339
-0.0870073
-0.299467
-0.0597282
-0.164837
-0.0770279
-0.321333
-0.151003
-0.0686968
-0.0147454
-0.0830103
-0.219834
-0.0148823
-0.288848
-0.273387
-0.0854903
-0.00766791
-0.286488
-0.123793
-0.0239871
-0.138948
-0.00742209
-0.286558
-0.124611
-0.138177
-0.0276698
-0.123189
-0.0631317
-0.138395
-0.0257024
-0.224474
-0.236899
-0.0414144
-0.131153
-0.00617432
-0.18375
-0.192222
-0.283758
-0.110871
-0.229795
-0.0339443
-0.295865
-0.199206
-0.172043
-0.139913
-0.164494
-0.0810646
-0.16978
-0.0802182
-0.300182
-0.103135
-0.226211
-0.0419374
-0.297196
-0.296022
-0.0962342
0
-0.279402
-0.0635788
-0.247132
-0.0715016
-0.0244097
-0.219241
-0.020027
-0.0771163
-0.273658
-0.0791868
-0.126547
-0.0140407
-0.289261
-0.0770362
-0.011751
-0.288936
-0.0116587
-0.198878
-0.202297
0
-0.278089
-0.220769
-0.0819913
-0.192255
-0.111796
-0.245357
-0.0711415
-0.386727
-0.00470413
-0.182998
-0.184447
-0.103906
-0.296224
-0.16215
-0.19299
-0.298921
-0.0374308
-0.295809
-0.1393
-0.0818737
-0.179147
-0.126959
-0.0137514
-0.289936
-0.0772084
-0.041466
-0.302109
-0.253603
-0.0768999
-0.0714809
-0.110052
-0.0816531
-0.119808
-0.00156532
-0.167269
-0.0684573
-0.307481
-0.176509
-0.0839404
0
-0.169852
-0.03383
-0.305609
-0.00542744
-0.185968
-0.11619
-0.0786462
0
-0.279078
-0.159993
-0.00429916
-0.281792
-0.114471
-0.0294952
-0.300066
-0.265646
-0.0726905
-0.248749
-0.216892
-0.022426
-0.0717471
-0.0866106
-0.330278
-0.174524
-0.197773
-0.0796393
-0.278499
0
-0.277917
-0.0865043
-0.193369
-0.112043
-0.120904
-0.0358605
-0.0876936
-0.22251
-0.0844635
-0.283436
-0.00435041
-0.281287
-0.00432716
-0.282363
-0.199519
-0.0731019
-0.115333
-0.123258
-0.0708397
-0.079076
-0.204303
0
-0.0107427
-0.19633
-0.265011
-0.0838096
-0.131388
-0.0192947
-0.0794984
-0.0135882
-0.10901
-0.185285
-0.0791963
-0.026379
-0.0824473
-0.208681
-0.00477528
-0.281374
-0.270554
-0.091827
-0.125477
-0.223394
-0.0346766
-0.294813
-0.291524
-0.0877076
-0.15411
-0.0590531
-0.308009
-0.215193
-0.00969647
-0.284916
-0.273237
-0.0940295
-0.0924912
-0.0518389
-0.294617
-0.0689346
-0.290622
-0.148814
-0.00288679
-0.174564
-0.241403
-0.0693125
-0.309442
-0.288501
-0.24666
-0.0531898
-0.00946073
-0.0246145
-0.220721
-0.0187884
-0.292923
-0.0760063
-0.27222
-0.0800978
-0.131703
-0.0894924
-0.321839
-0.186085
-0.0091254
-0.0979952
-0.0852834
-0.331353
-0.171131
-0.219769
-0.0141439
-0.277624
-0.104773
-0.306241
-0.0669764
-0.179729
-0.182807
-0.0955453
-0.338162
-0.159026
-0.0674775
-0.0885644
-0.00512564
-0.0881659
-0.0828715
-0.0135984
-0.290323
-0.0775561
-0.127336
-0.0146142
-0.287742
-0.100816
-0.135164
-0.0255876
-0.0829784
-0.0550253
-0.121081
-0.138665
-0.0332944
-0.296168
-0.0885672
-0.213905
-0.00872737
-0.275352
-0.101799
-0.303864
-0.00256107
-0.177456
-0.252005
-0.0754725
-0.0560813
-0.297243
-0.149658
-0.252416
-0.0509902
-0.302468
-0.127703
-0.013225
-0.290445
-0.0782526
-0.265417
-0.0805524
-0.271432
-0.0868977
-0.027112
-0.016785
-0.20755
-0.00433683
-0.282735
-0.067088
-0.253003
-0.0731873
-0.224955
-0.0954499
-0.0519698
-0.295578
-0.0424934
-0.095735
-0.126096
-0.0220261
-0.215528
-0.0145847
-0.288271
-0.0743686
-0.266533
-0.0443761
-0.0769486
-0.12198
-0.00895428
-0.285598
-0.0750932
-0.0681204
-0.137353
-0.346207
-0.169821
-0.0794541
0
-0.279505
-0.0716381
-0.176899
-0.0936729
-0.219778
-0.0231494
-0.2196
-0.0140542
-0.289751
-0.269828
-0.0809833
-0.0677112
-0.00863186
-0.0780175
-0.00551812
-0.17589
-0.0742924
-0.292483
-0.138493
-0.237675
-0.0542206
-0.30164
-0.237669
-0.123254
-0.00836097
-0.0760082
-0.0927908
-0.21602
-0.0196757
-0.00834908
-0.286959
-0.0767696
-0.31294
-0.00830883
-0.191831
-0.298526
-0.158029
-0.190331
-0.1486
-0.178069
-0.0948855
-0.338191
-0.127742
-0.0132241
-0.0793908
-0.00871903
-0.286494
-0.15008
-0.243922
-0.0705839
-0.0554759
-0.123401
-0.121183
-0.15057
-0.269527
-0.0957987
-0.303536
-0.193726
-0.275559
-0.106542
-0.15927
-0.142059
-0.0630854
-0.303939
-0.146781
-0.185822
-0.150996
-0.0552973
-0.130339
-0.153127
-0.0659649
-0.303679
-0.17307
-0.0707001
-0.30794
-0.151735
-0.0696509
-0.307823
-0.172124
-0.0595257
-0.302383
-0.134679
-0.154249
-0.113211
-0.229193
-0.0489022
-0.299293
-0.107386
-0.145648
-0.045107
-0.242563
-0.0689346
-0.307654
-0.171199
-0.14967
-0.28079
-0.119197
-0.170351
-0.0423162
-0.23807
-0.066111
-0.305714
-0.126737
-0.329871
0
-0.157732
-0.164566
-0.0833252
-0.316339
-0.178825
-0.109359
-0.28397
-0.238608
-0.0469847
-0.00349156
-0.0572642
0
-0.104349
-0.189707
-0.0737326
-0.0835137
-0.283545
-0.239208
-0.0421682
0
-0.2003
-0.107471
-0.242763
-0.03902
-0.295497
-0.288257
-0.139737
-0.21196
-0.00405406
-0.282806
-0.258299
-0.0756263
-0.0212262
-0.207506
-0.0028525
-0.292647
-0.260801
-0.0615487
-0.0161145
-0.039968
-0.29547
-0.139543