# vtk DataFile Version 2.0
Unstructured Grid by M++
ASCII
DATASET UNSTRUCTURED_GRID
POINTS 4225 float
  0.921875   0.593750 0
  0.921875   0.609375 0
  0.656250   0.609375 0
  0.671875   0.609375 0
  0.656250   0.546875 0
  0.671875   0.546875 0
  0.656250   0.562500 0
  0.656250   0.578125 0
  0.656250   0.593750 0
  0.671875   0.593750 0
  0.671875   0.562500 0
  0.671875   0.578125 0
  0.671875   0.625000 0
  0.671875   0.640625 0
  0.906250   0.578125 0
  0.890625   0.578125 0
  0.546875   0.515625 0
  1.000000   0.890625 0
  0.515625   0.640625 0
  0.515625   0.625000 0
  1.000000   0.875000 0
  0.515625   0.656250 0
  0.515625   0.687500 0
  0.515625   0.671875 0
  1.000000   0.921875 0
  0.546875   0.531250 0
  0.546875   0.546875 0
  0.546875   0.562500 0
  0.796875   0.531250 0
  0.953125   0.890625 0
  0.953125   0.875000 0
  0.953125   0.843750 0
  0.953125   0.828125 0
  0.953125   0.812500 0
  0.531250   0.562500 0
  0.531250   0.546875 0
  0.515625   0.562500 0
  0.515625   0.546875 0
  1.000000   0.812500 0
  0.781250   0.546875 0
  0.765625   0.546875 0
  0.859375   0.921875 0
  0.921875   0.671875 0
  0.609375   0.906250 0
  0.671875   0.656250 0
  0.609375   0.921875 0
  0.671875   0.671875 0
  0.671875   0.984375 0
  0.671875   1.000000 0
  0.906250   0.984375 0
  0.906250   1.000000 0
  0.921875   0.984375 0
  0.921875   1.000000 0
  0.859375   0.609375 0
  1.000000   0.781250 0
  0.515625   0.531250 0
  0.531250   0.531250 0
  0.531250   0.515625 0
  0.515625   0.515625 0
  1.000000   0.750000 0
  0.765625   0.531250 0
  0.781250   0.531250 0
  0.781250   0.515625 0
  0.765625   0.515625 0
  0.859375   0.875000 0
  0.921875   0.625000 0
  0.859375   0.890625 0
  0.921875   0.640625 0
  0.671875   0.968750 0
  0.671875   0.953125 0
  0.921875   0.968750 0
  0.921875   0.953125 0
  0.859375   0.593750 0
  0.859375   0.578125 0
  0.875000   0.578125 0
  0.828125   0.890625 0
  0.890625   0.640625 0
  0.593750   0.890625 0
  0.656250   0.640625 0
  0.593750   0.875000 0
  0.656250   0.625000 0
  0.578125   0.890625 0
  0.640625   0.640625 0
  0.578125   0.875000 0
  0.640625   0.625000 0
  0.968750   0.890625 0
  0.984375   0.890625 0
  0.968750   0.812500 0
  0.968750   0.828125 0
  0.984375   0.812500 0
  0.984375   0.828125 0
  1.000000   0.828125 0
  0.656250   0.953125 0
  0.640625   0.953125 0
  0.890625   0.968750 0
  0.906250   0.968750 0
  0.906250   0.953125 0
  0.890625   0.953125 0
  0.531250   0.703125 0
  0.531250   0.718750 0
  0.546875   0.718750 0
  0.546875   0.703125 0
  0.593750   0.578125 0
  0.562500   0.578125 0
  0.578125   0.578125 0
  0.843750   0.578125 0
  0.828125   0.578125 0
  0.828125   0.812500 0
  0.890625   0.562500 0
  0.828125   0.796875 0
  0.953125   0.906250 0
  0.953125   0.921875 0
  0.531250   0.859375 0
  0.593750   0.609375 0
  0.531250   0.843750 0
  0.593750   0.593750 0
  0.515625   0.843750 0
  0.578125   0.593750 0
  0.515625   0.859375 0
  0.578125   0.609375 0
  0.937500   0.859375 0
  1.000000   0.609375 0
  0.921875   0.859375 0
  0.984375   0.609375 0
  0.937500   0.796875 0
  0.921875   0.796875 0
  0.984375   0.546875 0
  0.562500   0.812500 0
  0.843750   0.796875 0
  0.843750   0.812500 0
  0.859375   0.796875 0
  0.859375   0.812500 0
  1.000000   0.906250 0
  0.984375   0.906250 0
  0.968750   0.906250 0
  0.968750   0.921875 0
  0.984375   0.921875 0
  0.593750   0.921875 0
  0.656250   0.671875 0
  0.593750   0.906250 0
  0.656250   0.656250 0
  0.578125   0.906250 0
  0.640625   0.656250 0
  0.578125   0.921875 0
  0.640625   0.671875 0
  1.000000   0.843750 0
  0.984375   0.843750 0
  0.968750   0.843750 0
  0.968750   0.859375 0
  0.968750   0.875000 0
  1.000000   0.859375 0
  0.984375   0.859375 0
  0.984375   0.875000 0
  0.656250   1.000000 0
  0.656250   0.984375 0
  0.656250   0.968750 0
  0.640625   0.968750 0
  0.640625   1.000000 0
  0.640625   0.984375 0
  0.843750   0.921875 0
  0.906250   0.671875 0
  0.843750   0.906250 0
  0.906250   0.656250 0
  0.828125   0.906250 0
  0.890625   0.656250 0
  0.828125   0.921875 0
  0.890625   0.671875 0
  0.781250   0.859375 0
  0.843750   0.609375 0
  0.781250   0.843750 0
  0.843750   0.593750 0
  0.765625   0.843750 0
  0.828125   0.593750 0
  0.765625   0.859375 0
  0.828125   0.609375 0
  0.968750   0.609375 0
  0.906250   0.859375 0
  0.953125   0.609375 0
  0.890625   0.859375 0
  0.937500   0.609375 0
  0.875000   0.859375 0
  0.562500   0.593750 0
  0.546875   0.593750 0
  0.531250   0.593750 0
  0.531250   0.609375 0
  0.562500   0.609375 0
  0.546875   0.609375 0
  0.609375   0.625000 0
  0.546875   0.875000 0
  0.609375   0.640625 0
  0.546875   0.890625 0
  0.625000   0.640625 0
  0.562500   0.890625 0
  0.625000   0.625000 0
  0.562500   0.875000 0
  0.921875   0.843750 0
  0.984375   0.593750 0
  0.937500   0.843750 0
  1.000000   0.593750 0
  0.921875   0.812500 0
  0.921875   0.828125 0
  0.984375   0.578125 0
  0.937500   0.828125 0
  1.000000   0.578125 0
  0.937500   0.812500 0
  1.000000   0.562500 0
  0.578125   0.828125 0
  0.921875   0.781250 0
  0.937500   0.781250 0
  1.000000   0.531250 0
  0.921875   0.765625 0
  0.984375   0.515625 0
  0.937500   0.765625 0
  0.625000   0.656250 0
  0.562500   0.906250 0
  0.609375   0.656250 0
  0.546875   0.906250 0
  0.625000   0.671875 0
  0.562500   0.921875 0
  0.609375   0.671875 0
  0.546875   0.921875 0
  0.859375   0.781250 0
  0.859375   0.765625 0
  0.828125   0.671875 0
  0.765625   0.921875 0
  0.828125   0.734375 0
  0.765625   0.984375 0
  0.875000   0.843750 0
  0.937500   0.593750 0
  0.890625   0.843750 0
  0.953125   0.593750 0
  0.906250   0.843750 0
  0.968750   0.593750 0
  0.906250   0.828125 0
  0.968750   0.578125 0
  0.937500   0.578125 0
  0.953125   0.578125 0
  0.906250   0.765625 0
  0.875000   0.765625 0
  0.953125   0.515625 0
  0.531250   0.781250 0
  0.671875   0.890625 0
  0.531250   0.921875 0
  0.953125   0.656250 0
  0.828125   0.781250 0
  0.843750   0.781250 0
  0.703125   0.984375 0
  0.687500   0.984375 0
  0.843750   0.875000 0
  0.906250   0.625000 0
  0.671875   0.781250 0
  0.734375   0.531250 0
  0.906250   0.609375 0
  0.671875   0.765625 0
  0.734375   0.515625 0
  0.906250   0.593750 0
  0.890625   0.593750 0
  0.875000   0.593750 0
  0.828125   0.875000 0
  0.890625   0.625000 0
  0.656250   0.781250 0
  0.718750   0.531250 0
  0.890625   0.609375 0
  0.656250   0.765625 0
  0.718750   0.515625 0
  0.875000   0.609375 0
  0.640625   0.765625 0
  0.703125   0.515625 0
  0.812500   0.921875 0
  0.875000   0.671875 0
  0.812500   0.875000 0
  0.875000   0.625000 0
  0.640625   0.781250 0
  0.703125   0.531250 0
  0.812500   0.515625 0
  0.750000   0.828125 0
  0.812500   0.578125 0
  0.687500   1.000000 0
  0.937500   0.656250 0
  0.875000   0.906250 0
  0.531250   0.656250 0
  0.890625   0.906250 0
  0.906250   0.906250 0
  0.562500   0.656250 0
  0.906250   0.890625 0
  0.562500   0.640625 0
  0.968750   0.625000 0
  0.906250   0.875000 0
  0.562500   0.625000 0
  0.937500   0.640625 0
  0.875000   0.890625 0
  0.890625   0.890625 0
  0.546875   0.640625 0
  0.953125   0.625000 0
  0.890625   0.875000 0
  0.546875   0.625000 0
  0.546875   0.687500 0
  0.890625   0.937500 0
  0.937500   0.625000 0
  0.875000   0.875000 0
  0.531250   0.625000 0
  0.531250   0.640625 0
  0.546875   0.656250 0
  0.937500   0.968750 0
  0.687500   0.968750 0
  0.953125   0.968750 0
  0.703125   0.968750 0
  0.968750   0.968750 0
  0.718750   0.968750 0
  0.718750   0.906250 0
  0.968750   0.953125 0
  0.718750   0.953125 0
  0.968750   0.937500 0
  0.859375   0.906250 0
  0.921875   0.656250 0
  0.718750   0.937500 0
  0.828125   0.531250 0
  0.937500   0.953125 0
  0.687500   0.953125 0
  0.953125   0.953125 0
  0.703125   0.953125 0
  0.703125   0.890625 0
  0.843750   0.515625 0
  0.953125   0.937500 0
  0.953125   1.000000 0
  0.703125   0.937500 0
  0.937500   0.937500 0
  0.687500   0.937500 0
  0.703125   0.906250 0
  0.718750   0.890625 0
  0.687500   0.890625 0
  0.687500   0.765625 0
  0.750000   0.515625 0
  0.687500   0.781250 0
  0.750000   0.531250 0
  0.859375   0.937500 0
  0.921875   0.687500 0
  0.687500   0.796875 0
  0.750000   0.546875 0
  0.578125   0.750000 0
  0.515625   1.000000 0
  0.843750   0.765625 0
  0.578125   0.734375 0
  0.515625   0.984375 0
  0.562500   0.734375 0
  0.828125   0.750000 0
  0.765625   1.000000 0
  0.562500   0.750000 0
  0.562500   0.718750 0
  0.578125   0.515625 0
  0.921875   0.703125 0
  0.921875   0.718750 0
  0.593750   0.515625 0
  0.687500   0.875000 0
  0.750000   0.625000 0
  0.578125   0.531250 0
  0.921875   0.750000 0
  0.703125   0.875000 0
  0.765625   0.625000 0
  0.593750   0.531250 0
  0.875000   0.968750 0
  0.937500   0.718750 0
  0.703125   0.828125 0
  0.765625   0.578125 0
  0.937500   0.734375 0
  0.703125   0.812500 0
  0.765625   0.562500 0
  0.890625   0.687500 0
  0.828125   0.937500 0
  0.656250   0.796875 0
  0.718750   0.546875 0
  0.890625   0.718750 0
  0.828125   0.968750 0
  0.906250   0.796875 0
  0.718750   0.828125 0
  0.781250   0.578125 0
  0.890625   0.703125 0
  0.828125   0.953125 0
  0.656250   0.859375 0
  0.906250   0.781250 0
  0.968750   0.531250 0
  0.546875   0.796875 0
  0.671875   0.796875 0
  0.734375   0.546875 0
  0.843750   0.953125 0
  0.906250   0.703125 0
  0.671875   0.875000 0
  0.718750   0.812500 0
  0.781250   0.562500 0
  0.875000   0.812500 0
  0.531250   0.890625 0
  0.593750   0.640625 0
  0.937500   0.890625 0
  0.875000   0.781250 0
  0.609375   0.703125 0
  0.546875   0.953125 0
  0.890625   0.796875 0
  0.625000   0.718750 0
  0.562500   0.968750 0
  0.906250   0.812500 0
  0.734375   0.859375 0
  0.796875   0.609375 0
  0.718750   0.875000 0
  0.781250   0.625000 0
  0.750000   0.859375 0
  0.812500   0.609375 0
  0.812500   0.546875 0
  0.750000   0.812500 0
  0.734375   0.843750 0
  0.796875   0.593750 0
  0.750000   0.843750 0
  0.812500   0.593750 0
[...]
POINT_DATA 4225
SCALARS scalar_value float 1
LOOKUP_TABLE default
-0.407971
-0.412479
-0.36724
-0.369228
-0.35112
-0.351683
-0.355195
-0.359289
-0.363134
-0.364884
-0.356029
-0.360607
-0.373832
-0.37846
-0.399421
-0.396387
-0.333605
-0.453784
-0.352566
-0.35005
-0.450485
-0.354952
-0.359773
-0.357476
-0.462801
-0.336746
-0.339962
-0.342985
-0.356073
-0.453766
-0.450817
-0.446442
-0.444587
-0.443098
-0.341372
-0.338526
-0.33992
-0.337324
-0.442873
-0.359556
-0.356901
-0.457776
-0.42678
-0.448527
-0.38266
-0.451769
-0.386724
-0.460196
-0.460775
-0.4716
-0.475074
-0.475647
-0.479842
-0.402949
-0.440254
-0.334617
-0.335589
-0.332387
-0.331519
-0.437236
-0.350327
-0.352903
-0.346189
-0.344246
-0.453763
-0.416354
-0.455125
-0.420203
-0.459427
-0.458329
-0.471438
-0.46719
-0.396811
-0.390601
-0.39332
-0.455466
-0.417702
-0.442624
-0.375779
-0.437529
-0.371413
-0.4407
-0.373415
-0.435147
-0.369424
-0.453691
-0.453716
-0.44297
-0.44434
-0.442905
-0.444244
-0.44424
-0.45829
-0.458074
-0.465277
-0.468188
-0.464859
-0.462939
-0.365427
-0.369264
-0.372529
-0.368537
-0.352443
-0.348339
-0.350395
-0.38821
-0.385473
-0.446756
-0.389371
-0.444109
-0.457116
-0.461178
-0.421217
-0.358585
-0.41391
-0.355322
-0.410486
-0.353399
-0.418154
-0.35636
-0.448973
-0.415369
-0.449615
-0.415334
-0.441866
-0.442123
-0.393185
-0.407858
-0.444183
-0.446747
-0.443942
-0.446341
-0.457718
-0.45758
-0.457307
-0.461926
-0.462568
-0.450494
-0.383888
-0.446881
-0.379843
-0.444988
-0.377234
-0.449222
-0.381014
-0.445933
-0.445963
-0.44615
-0.448192
-0.45066
-0.447972
-0.448016
-0.450583
-0.461119
-0.460434
-0.459591
-0.459652
-0.461759
-0.460781
-0.457593
-0.426132
-0.456524
-0.422736
-0.456493
-0.421432
-0.457418
-0.425122
-0.452283
-0.400285
-0.450106
-0.394241
-0.449402
-0.391926
-0.451898
-0.398069
-0.414983
-0.450213
-0.414437
-0.450889
-0.413665
-0.451584
-0.351325
-0.349181
-0.347024
-0.349649
-0.354106
-0.35188
-0.364451
-0.430536
-0.368036
-0.436366
-0.371038
-0.438565
-0.367215
-0.432862
-0.44761
-0.410968
-0.446896
-0.411092
-0.443701
-0.445561
-0.405731
-0.44497
-0.405857
-0.443343
-0.400016
-0.416643
-0.440536
-0.440489
-0.385086
-0.438917
-0.375458
-0.438944
-0.374667
-0.443131
-0.371624
-0.441277
-0.378251
-0.44786
-0.375203
-0.446361
-0.441545
-0.438892
-0.416684
-0.456812
-0.430899
-0.459473
-0.449839
-0.409245
-0.449119
-0.410285
-0.448377
-0.410786
-0.446348
-0.405384
-0.403636
-0.404738
-0.4389
-0.438917
-0.374941
-0.386852
-0.451274
-0.445037
-0.424537
-0.441047
-0.441612
-0.459723
-0.459951
-0.454051
-0.415196
-0.421837
-0.347416
-0.410883
-0.417063
-0.342424
-0.405881
-0.402867
-0.399795
-0.454217
-0.413516
-0.418427
-0.347249
-0.408599
-0.413679
-0.342461
-0.405923
-0.410065
-0.342863
-0.457277
-0.423725
-0.454255
-0.411277
-0.415089
-0.347462
-0.352492
-0.44596
-0.382621
-0.460495
-0.424313
-0.456483
-0.357491
-0.456447
-0.45657
-0.36266
-0.454298
-0.359563
-0.418603
-0.452188
-0.35674
-0.42094
-0.454909
-0.454613
-0.357189
-0.418035
-0.452743
-0.354592
-0.365324
-0.460764
-0.417274
-0.453311
-0.35226
-0.354897
-0.360017
-0.474778
-0.459225
-0.478755
-0.459029
-0.483601
-0.458922
-0.455309
-0.475053
-0.458176
-0.467537
-0.456527
-0.423741
-0.457351
-0.363219
-0.46955
-0.458272
-0.472105
-0.45822
-0.453183
-0.359885
-0.466203
-0.495906
-0.457289
-0.464817
-0.457191
-0.454907
-0.453887
-0.452395
-0.420277
-0.342942
-0.425141
-0.348478
-0.45912
-0.429406
-0.429912
-0.354686
-0.388498
-0.467555
-0.438563
-0.383786
-0.462781
-0.379946
-0.434203
-0.459889
-0.384269
-0.376161
-0.336676
-0.431908
-0.433936
-0.338462
-0.450078
-0.388947
-0.33995
-0.437265
-0.45114
-0.391967
-0.341727
-0.463171
-0.434019
-0.441471
-0.372978
-0.435738
-0.437222
-0.364846
-0.42806
-0.45828
-0.423223
-0.352461
-0.433065
-0.46013
-0.442432
-0.443577
-0.376077
-0.430727
-0.459206
-0.442162
-0.440628
-0.384404
-0.39737
-0.426859
-0.353243
-0.459766
-0.431501
-0.448378
-0.439673
-0.367703
-0.445739
-0.434266
-0.365082
-0.453938
-0.441147
-0.382483
-0.456004
-0.442906
-0.390142
-0.460372
-0.444212
-0.450675
-0.393018
-0.451981
-0.395349
-0.451423
-0.395717
-0.367321
-0.442952
-0.447936
-0.386565
-0.448697
-0.389368
-0.444924
-0.379641
-0.44161
-0.453612
-0.435431
-0.461809
-0.367093
-0.435966
-0.440419
-0.374677
-0.458653
-0.428948
-0.436996
-0.461636
-0.37175
-0.437662
-0.452546
-0.435047
-0.460982
-0.449677
-0.427807
-0.357786
-0.432268
-0.45963
-0.436794
-0.377116
-0.460913
-0.451391
-0.372072
-0.422195
-0.458178
-0.379749
-0.458745
-0.427665
-0.458876
-0.425787
-0.458828
-0.456353
-0.417821
-0.434777
-0.382038
-0.452151
-0.429573
-0.458806
-0.440815
-0.340105
-0.326506
-0.307497
-0.351278
-0.332695
-0.25905
-0.24519
-0.39857
-0.110382
-0.348823
-0.346349
-0.33735
-0.355023
-0.331845
-0.35333
-0.333351
-0.270882
-0.34894
-0.329645
-0.349039
-0.254529
-0.33531
-0.241065
-0.347762
-0.344707
-0.330938
-0.196128
-0.327988
-0.252288
-0.0678266
-0.316186
-0.236944
-0.219699
-0.330036
-0.200183
-0.466171
-0.180847
-0.343035
-0.329014
-0.370982
-0.336525
-0.333065
-0.263445
-0.37577
-0.338369
-0.333824
-0.274032
-0.345283
-0.203535
-0.3342
-0.340919
-0.223113
-0.346484
-0.38012
-0.341941
-0.100114
-0.324507
-0.0822725
-0.320873
-0.317405
-0.112598
-0.250408
-0.333947
-0.314354
-0.0907364
-0.33209
-0.331329
-0.360638
-0.347671
-0.332623
-0.336385
-0.370613
-0.251926
-0.332672
-0.319228
-0.331899
-0.399112
-0.127433
-0.348117
-0.412403
-0.143908
-0.398719
-0.348125
-0.329992
-0.388438
-0.344058
-0.332407
-0.365345
-0.335135
-0.359024
-0.333261
-0.334311
-0.375588
-0.366374
-0.335301
-0.337146
-0.359832
-0.333422
-0.333445
-0.340731
-0.33858
-0.39225
-0.37654
-0.362286
-0.382825
-0.371534
-0.316894
-0.355185
-0.350219
-0.330329
-0.332932
-0.332236
-0.309569
-0.334113
-0.330958
-0.331781
-0.330645
-0.327212
-0.331558
-0.160059
-0.328214
-0.283488
-0.178334
-0.329743
-0.330418
-0.350906
-0.330987
-0.352358
-0.328961
-0.347008
-0.275566
-0.32747
-0.343334
-0.330734
-0.200771
-0.328335
-0.345505
-0.350848
-0.344567
-0.331395
-0.355772
-0.300565
-0.327418
-0.329183
-0.328611
-0.320151
-0.137418
-0.334725
-0.364688
-0.337058
-0.371368
-0.164008
-0.322985
0
-0.346376
-0.323572
-0.34013
-0.378779
-0.183673
-0.326715
-0.00619644
-0.33733
-0.00737627
-0.32909
-0.332116
-0.331363
-0.326414
-0.331061
-0.33036
-0.363752
-0.332847
-0.343118
-0.213067
-0.331852
-0.349107
-0.343723
-0.459398
-0.179029
-0.462002
-0.451359
-0.176694
-0.31881
-0.142186
-0.450555
-0.172911
-0.440681
-0.166243
-0.336905
-0.335041
-0.334736
-0.333933
-0.333396
-0.332834
-0.332324
-0.329755
-0.33284
-0.33197
-0.33378
-0.331387
-0.381889
-0.378054
-0.0508181
-0.387248
-0.0691286
-0.157856
-0.324278
0
-0.0068122
-0.335354
-0.332124
-0.339477
-0.343121
-0.3365
-0.338907
-0.337343
-0.217466
-0.331957
-0.343999
-0.348265
-0.339607
-0.253806
-0.334571
-0.340178
-0.352448
-0.349207
-0.350114
-0.342859
-0.344839
-0.341144
-0.21013
-0.330693
-0.183222
-0.329398
-0.416386
-0.414233
-0.0200558
-0.410356
-0.113651
-0.403541
-0.401554
-0.347172
-0.346625
-0.194228
-0.32924
-0.398207
-0.0923401
-0.391982
-0.389989
-0.141202
-0.326341
-0.353648
-0.336581
-0.271074
-0.356306
-0.335688
-0.265854
-0.365123
-0.388198
-0.0879338
-0.20257
-0.329129
-0.0159994
-0.0191342
-0.26729
-0.335231
-0.0938358
-0.335273
-0.383972
-0.335017
-0.33908
-0.327664
-0.167124
-0.327102
-0.176554
-0.322198
-0.131337
-0.440745
-0.172554
-0.328542
-0.210332
-0.230233
-0.45142
-0.457917
-0.182229
-0.256398
-0.244402
-0.424955
-0.328233
-0.330544
-0.328795
-0.332679
-0.331407
-0.226306
-0.332023
-0.247461
-0.333684
-0.299758
-0.0774202
-0.423627
-0.131803
-0.42598
-0.145579
-0.261077
-0.335181
-0.308112
-0.100514
-0.438303
-0.157872
-0.307388
-0.101173
-0.427286
-0.156604
-0.233564
-0.33224
-0.411712
-0.129435
-0.338003
-0.0501691
-0.379896
-0.385113
-0.0243434
-0.0909423
-0.449759
-0.0083513
-0.264352
-0.216287
-0.110099
-0.358983
-0.210599
-0.332803
-0.0937394
-0.448613
-0.207831
-0.096049
-0.446931
-0.109409
-0.393349
-0.28416
-0.329171
-0.112166
-0.404267
-0.327394
-0.326849
-0.0892944
-0.392968
-0.236841
-0.366637
0
-0.22831
-0.273422
-0.254898
-0.264019
-0.022382
-0.279363
-0.339458
-0.180568
-0.467962
-0.182401
-0.319834
-0.319156
-0.323421
-0.185094
-0.323004
-0.326906
-0.327403
-0.301438
-0.165297
-0.419084
-0.301035
-0.301068
-0.30559
-0.310295
-0.306132
-0.172585
-0.305644
-0.310653
-0.241638
-0.0268654
-0.0273376
-0.373282
-0.0128406
-0.233087
-0.366878
-0.0124635
-0.0127001
-0.44353
-0.295205
-0.038851
-0.327849
-0.0217063
-0.41977
-0.0204353
-0.416241
-0.342859
-0.18422
-0.325526
0
-0.411473
-0.341572
-0.156971
-0.283872
-0.283362
-0.288845
-0.292897
-0.289134
-0.289
-0.293
-0.293341
-0.143388
-0.4051
-0.311093
-0.177298
-0.429897
-0.321338
-0.184548
-0.340842
-0.182631
-0.451738
-0.182769
-0.44151
-0.184983
-0.338827
-0.180418
-0.46504
-0.3718
-0.180575
-0.466559
-0.340886
-0.182331
-0.399291
-0.375695
-0.0381883
-0.292563
-0.184114
0
-0.0559339
-0.300653
-0.182223
-0.327037
0
-0.342969
-0.184123
-0.0541776
-0.304014
-0.380127
-0.0283627
-0.0278823
-0.44501
-0.0446439
-0.447231
-0.388369
-0.0475416
-0.0461135
-0.329452
-0.0454796
-0.0420402
-0.424407
-0.340912
-0.29965
-0.0615488
-0.0638524
-0.432536
-0.159421
-0.299491
-0.3468
-0.163658
-0.458321
-0.302176
-0.364473
-0.222439
-0.334113
-0.104127
-0.219012
-0.106962
-0.230032
-0.375209
-0.363938
-0.345617
-0.311726
-0.119128
-0.233648
-0.115883
-0.324892
-0.0515404
-0.321263
-0.0681243
-0.382949
-0.269718
-0.326507
-0.322851
-0.318878
-0.318959
-0.32628
-0.322793
-0.276097
-0.337048
-0.338447
-0.176897
-0.446284
-0.17276
-0.446406
-0.287188
-0.11552
-0.287861
-0.115397
-0.454099
-0.287629
-0.115692
-0.218542
-0.306469
-0.175148
-0.307245
-0.17608
-0.45308
-0.173098
-0.311587
-0.188925
-0.310867
-0.187623
-0.284079
-0.377677
-0.349249
-0.325339
-0.146113
-0.270568
-0.134365
-0.456692
-0.0296842
-0.248595
-0.249923
-0.251202
-0.242114
-0.0145789
-0.240242
-0.241227
-0.334493
-0.166465
-0.18261
-0.275653
-0.340894
-0.13556
-0.387854
-0.288473
-0.147968
-0.457527
-0.392379
-0.293044
-0.344953
-0.151578
-0.45767
-0.138313
-0.456953
-0.338679
-0.179779
-0.171991
-0.345489
-0.185599
-0.189195
-0.143455
-0.45589
-0.13337
-0.168821
-0.334072
-0.170793
-0.457715
-0.341417
-0.182324
-0.182203
-0.376877
-0.0377263
-0.299529
-0.340699
-0.182166
-0.240037
-0.233035
-0.309834
-0.176399
-0.189317
-0.0336933
-0.252631
-0.0340851
-0.376809
-0.0177515
-0.374583
0
-0.369603
-0.311862
-0.017405
-0.368707
-0.243783
-0.0173905
0
-0.233673
-0.144918
-0.41959
-0.250304
-0.333816
-0.165812
-0.434866
-0.263146
-0.33541
-0.33213
-0.157044
-0.4336
-0.0961369
-0.276697
-0.096694
-0.278927
-0.0781147
-0.452125
-0.267898
-0.078184
-0.205679
-0.396861
-0.074976
-0.270752
-0.380162
-0.0603717
-0.262324
-0.060853
-0.450433
-0.201328
-0.385789
-0.0535475
-0.259107
-0.147656
-0.458081
-0.298476
-0.132004
-0.418019
-0.130976
-0.293059
-0.367977
-0.243791
-0.334466
-0.129336
-0.14045
-0.456239
-0.247429
-0.384975
-0.368149
-0.34703
-0.31527
-0.126164
-0.336055
-0.137388
-0.456454
-0.265633
-0.393222
-0.372823
-0.348218
-0.319585
-0.135217
-0.394253
-0.0571195
-0.26467
-0.0613167
-0.272656
-0.0782188
-0.408852
-0.0966313
-0.280142
-0.0968043
-0.211531
-0.281079
-0.096533
-0.0342591
-0.444672
-0.367479
-0.225247
-0.335495
-0.0465858
-0.448215
-0.360975
-0.34205
-0.300504
-0.0497915
-0.333984
-0.0535613
-0.446792
-0.357611
-0.341958
-0.30016
-0.0577059
-0.297571
-0.147137
-0.459716
-0.332044
-0.0416046
-0.293121
-0.13141
-0.456765
-0.227059
-0.356905
-0.34082
-0.295177
-0.0381786
-0.330968
-0.0196522
-0.440577
-0.191054
-0.330036
-0.0240416
-0.437503
-0.353807
-0.339677
-0.290523
-0.0220779
-0.302067
-0.161686
-0.281914
-0.097354
-0.451675
-0.0721675
-0.165343
-0.455415
-0.363602
-0.243348
-0.333337
-0.151042
-0.454797
-0.0558085
-0.219615
-0.239458
-0.385284
-0.370827
-0.154455
-0.453955
0
-0.227902
-0.402373
-0.304447
-0.349767
-0.169716
-0.458498
-0.319123
-0.210917
-0.361508
-0.343236
-0.304531
-0.0680812
-0.220022
-0.365835
-0.0618992
-0.109019
-0.455404
-0.264742
-0.253783
-0.371004
-0.0935612
-0.454189
0
-0.391109
-0.343308
-0.185485
-0.0520141
-0.290298
-0.180552
-0.0189312
-0.27125
-0.184619
-0.0557152
-0.29181
0
-0.399403
-0.308375
-0.178567
-0.461575
-0.192692
-0.31276
-0.232852
-0.326141
-0.303254
-0.163812
-0.163506
-0.45986
-0.303366
-0.303248
-0.405179
-0.163088
-0.17727
-0.445098
-0.166898
-0.307999
-0.312231
-0.191028
-0.224788
0
-0.32543
-0.2158
-0.323265
-0.331022
-0.101659
-0.436906
-0.351895
-0.20198
-0.205894
-0.460381
-0.320695
-0.376277
-0.366202
-0.313408
-0.146299
-0.450082
-0.227028
0
-0.407636
-0.184302
-0.0586676
-0.294929
-0.182462
-0.0368291
-0.283951
-0.182398
-0.295564
-0.340355
-0.180486
-0.468406
-0.387771
-0.370332
-0.180514
-0.468655
-0.0207123
-0.275849
-0.13135
-0.292134
-0.147126
-0.296714
-0.350406
-0.129982
-0.405177
-0.12805
-0.289857
-0.163888
-0.302556
-0.146115
-0.294134
-0.376662
-0.109391
-0.45547
-0.272524
-0.346005
-0.12612
-0.456437
-0.393469
-0.281972
-0.0931017
-0.262094
-0.268377
-0.376478
-0.345904
-0.312745
-0.0941043
-0.230788
-0.0271775
-0.345985
-0.110986
-0.278506
-0.383146
-0.127733
-0.286569
-0.382715
-0.143623
-0.290675
-0.202934
-0.467833
-0.454969
-0.176501
-0.316233
-0.224046
-0.323609
-0.179169
-0.308106
-0.368402
-0.260833
-0.156222
-0.457028
-0.380877
-0.365977
-0.14072
-0.2321
-0.359059
-0.229049
-0.332641
-0.143856
-0.371688
-0.362005
-0.345285
-0.310778
-0.131973
-0.447984
-0.219912
-0.344225
-0.308354
-0.114898
-0.212424
-0.10069
-0.203836
-0.388509
-0.163126
-0.301189
-0.082363
-0.197161
-0.175324
-0.306277
-0.101393
-0.202721
-0.330746
-0.0822707
-0.351219
-0.19646
-0.374535
-0.242034
-0.338217
-0.0602014
-0.451021
-0.251544
-0.37088
-0.0768718
-0.21561
-0.0145096
-0.443397
-0.323433
-0.359431
-0.213159
-0.33017
0
-0.249007
-0.370697
-0.0600282
-0.258381
-0.0773084
-0.452746
-0.322267
-0.207373
0
-0.43993
-0.0152686
-0.442318
-0.20943
-0.222267
-0.362141
-0.338997
-0.28752
-0.0138462
-0.223745
-0.0283002
-0.446316
-0.0305
-0.216971
-0.15628
-0.457806
-0.296642
-0.302309
-0.0813615
-0.196079
-0.307842
-0.119305
-0.441867
-0.209503
-0.26641
-0.175646
-0.225282
-0.148383
-0.335098
-0.174732
-0.459669
-0.368068
-0.338368
-0.179993
-0.462641
-0.374221
-0.022406
-0.294499
-0.290785
-0.18016
-0.46384
-0.243732
-0.333279
-0.167563
-0.4547
-0.358212
-0.209772
-0.412095
-0.322245
-0.159665
-0.233971
-0.355626
-0.218315
-0.332012
-0.13452
-0.446182
-0.00738319
-0.25904
-0.178791
-0.461417
-0.298098
-0.14751
-0.406433
-0.078609
-0.27411
-0.0787807
-0.431009
-0.146268
-0.298476
-0.147536
-0.458582
-0.293193
-0.132356
-0.0642226
-0.267168
-0.0797421
-0.275205
-0.0633849
-0.266182
-0.0136776
-0.239079
-0.372472
0
-0.231273
-0.326337
-0.277564
-0.162574
-0.0996075
-0.426718
-0.200659
-0.277188
-0.0790651
-0.420007
-0.196247
-0.269654
-0.09903
-0.424096
-0.200878
-0.276568
-0.369405
-0.0100931
-0.28011
-0.33682
-0.178119
-0.461922
-0.231596
-0.332631
-0.161324
-0.274828
-0.178405
-0.462622
-0.298085
-0.147683
-0.17984
-0.180246
-0.444754
-0.31788
-0.205575
-0.433608
-0.172464
-0.313384
-0.19282
-0.460821
-0.281053
-0.297969
-0.0578548
-0.191363
-0.329578
-0.0588813
-0.425958
-0.3483
-0.19158
-0.0425363
-0.448559
-0.250344
-0.115195
-0.286375
-0.0433126
-0.447962
-0.253137
-0.28221
-0.112832
-0.245858
-0.177153
-0.284677
-0.114282
-0.330785
-0.333303
-0.122363
-0.226832
-0.0383859
-0.289372
-0.323965
-0.355039
-0.210666
-0.331843
-0.117513
-0.44418
-0.325922
-0.317406
-0.240107
-0.295776
-0.201285
-0.315608
-0.174859
-0.379904
-0.193999
-0.330804
-0.134474
-0.431674
-0.350397
-0.211502
0
-0.375333
-0.303388
-0.342634
-0.187144
-0.137372
-0.327275
-0.0792274
-0.316428
-0.347199
-0.197184
-0.257901
-0.0565521
-0.403116
-0.19377
-0.0609352
-0.450833
-0.052995
-0.313022
-0.328134
0
-0.430822
-0.327927
-0.201457
-0.325971
-0.233807
-0.341985
-0.182985
-0.377561
-0.0339693
-0.280228
-0.322913
-0.223453
-0.368831
-0.270721
-0.307893
-0.371561
-0.109537
-0.455309
-0.256569
-0.173963
-0.303539
-0.258908
-0.0559568
-0.406875
-0.193538
-0.135296
-0.374631
-0.33653
-0.176489
-0.182687
-0.200803
-0.18835
-0.244609
-0.00771812
-0.261754
-0.178589
-0.463714
-0.315569
-0.188642
0
-0.283127
-0.1166
-0.377555
-0.0233774
-0.301422
-0.207882
-0.185958
0
-0.372394
-0.265463
-0.0178407
-0.377541
-0.235844
-0.0949342
-0.369775
-0.346209
-0.313578
-0.33511
-0.326424
-0.118669
-0.173536
-0.205557
-0.463097
-0.269868
-0.311411
-0.323229
-0.349084
0
-0.427963
-0.184893
-0.326019
-0.233304
-0.246361
-0.114933
-0.206149
-0.329321
-0.32751
-0.351478
-0.0260004
-0.435252
-0.0179467
-0.381184
-0.330776
-0.189163
-0.23771
-0.214092
-0.183362
-0.197273
-0.32778
0
-0.0526776
-0.309228
-0.343944
-0.184453
-0.268035
-0.0790631
-0.196976
-0.0633907
-0.199858
-0.298273
-0.179902
-0.0982648
-0.201273
-0.329309
-0.0271698
-0.432683
-0.347975
-0.188084
-0.254972
-0.329538
-0.115974
-0.421266
-0.349204
-0.206018
-0.299142
-0.160942
-0.457993
-0.330061
-0.0479671
-0.43453
-0.349839
-0.19079
-0.19263
-0.155789
-0.411961
-0.181768
-0.368254
-0.252428
-0.0179307
-0.269364
-0.340804
-0.181291
-0.464502
-0.365531
-0.341837
-0.300995
-0.0436576
-0.135876
-0.328338
-0.0788746
-0.417089
-0.318041
-0.347343
-0.196611
-0.268954
-0.181551
-0.460054
-0.31169
-0.0468588
-0.19219
-0.204362
-0.46493
-0.316853
-0.331366
-0.0640542
-0.353521
-0.197011
-0.456027
-0.179364
-0.320292
-0.281712
-0.21492
-0.466859
-0.30753
-0.178051
-0.192061
-0.0273516
-0.187354
-0.186321
-0.0558979
-0.410462
-0.193251
-0.259928
-0.0642514
-0.438847
-0.19516
-0.275924
-0.0987546
-0.201116
-0.161524
-0.223807
-0.282678
-0.117002
-0.427965
-0.205795
-0.330837
-0.0451413
-0.35202
-0.194114
-0.372697
-0.0101806
-0.28878
-0.336369
-0.177098
-0.16554
-0.427411
-0.286705
-0.345655
-0.140732
-0.457125
-0.260913
-0.0562664
-0.413781
-0.192757
-0.34512
-0.185995
-0.347874
-0.18915
-0.0976303
-0.083555
-0.319937
-0.0173825
-0.384959
-0.306676
-0.343788
-0.188995
-0.330693
-0.211581
-0.156128
-0.419969
-0.13287
-0.211498
-0.256542
-0.120229
-0.325095
-0.0573504
-0.398861
-0.312454
-0.345944
-0.265974
-0.193918
-0.247495
-0.0361852
-0.39159
-0.191348
-0.178621
-0.378541
-0.366041
-0.315
-0.199684
0
-0.378617
-0.186944
-0.319364
-0.212152
-0.326533
-0.186726
-0.328757
-0.0579034
-0.419848
-0.347169
-0.191693
-0.292001
-0.0363986
-0.188849
-0.026754
-0.284374
-0.17768
-0.359833
-0.236417
-0.332849
-0.157133
-0.453003
-0.339669
-0.252114
-0.0341282
-0.189754
-0.313163
-0.322755
-0.165905
-0.0351139
-0.41114
-0.189353
-0.378614
-0.0382417
-0.305288
-0.365088
-0.259028
-0.30226
-0.247133
-0.319776
-0.213769
-0.470633
-0.261461
-0.0573222
-0.192256
-0.0426172
-0.449016
-0.257385
-0.342048
-0.18393
-0.162335
-0.225143
-0.218327
-0.296945
-0.346368
-0.188667
-0.392305
-0.316078
-0.353284
-0.197896
-0.30587
-0.288367
-0.173664
-0.455431
-0.241211
-0.323191
-0.261699
-0.162109
-0.229289
-0.297379
-0.180411
-0.435083
-0.315686
-0.178561
-0.463364
-0.296976
-0.178673
-0.463896
-0.315118
-0.169241
-0.450633
-0.231535
-0.30145
-0.205188
-0.331891
-0.150408
-0.439543
-0.217854
-0.293017
-0.287455
-0.338472
-0.178665
-0.464069
-0.31476
-0.297177
-0.36175
-0.212793
-0.314719
-0.277681
-0.337382
-0.17646
-0.459712
-0.373172
-0.362147
0
-0.251377
-0.310289
-0.173849
-0.459524
-0.306139
-0.203028
-0.356434
-0.339629
-0.289104
-0.0170335
-0.280474
0
-0.224044
-0.293104
-0.184371
-0.179682
-0.361206
-0.336835
-0.277032
0
-0.324554
-0.219362
-0.338471
-0.110729
-0.455107
-0.376664
-0.249569
-0.32568
-0.0180311
-0.40917
-0.344483
-0.186499
-0.0950421
-0.333715
-0.0127546
-0.376416
-0.344628
-0.309038
-0.0777727
-0.111643
-0.454768
-0.243424
-0.0168945
-0.18679
-0.243091
-0.0162766
-0.401455
-0.187171
0
-0.290774
-0.185009
-0.195645
0
-0.438099
-0.31956
-0.21073
-0.377036
-0.124574
-0.275826
-0.222404
-0.322808
-0.326061
-0.223616
-0.24458
-0.333526
-0.382331
-0.0374265
-0.30999
-0.183104
-0.223537
-0.159338
-0.441526
-0.353544
-0.223409
-0.333112
-0.160587
-0.443615
-0.314051
-0.185592
0
-0.250172
-0.176356
-0.240815
-0.173401
-0.454604
-0.0527798
-0.316313
-0.328424
0
-0.435244
-0.188432