# vtk DataFile Version 2.0
Unstructured Grid by M++
ASCII
DATASET UNSTRUCTURED_GRID
POINTS 4072 float
  0.656250   0.890625 0
  0.703125   0.640625 0
  0.640625   0.890625 0
  0.703125   0.625000 0
  0.640625   0.875000 0
  0.703125   0.671875 0
  0.640625   0.921875 0
  0.718750   0.656250 0
  0.656250   0.906250 0
  0.703125   0.656250 0
  0.640625   0.906250 0
  0.546875   0.718750 0
  0.531250   0.734375 0
  0.578125   0.765625 0
  0.562500   0.765625 0
  0.812500   0.796875 0
  0.718750   0.625000 0
  0.656250   0.875000 0
  0.734375   0.609375 0
  0.671875   0.859375 0
  0.718750   0.609375 0
  0.656250   0.859375 0
  0.734375   0.593750 0
  0.671875   0.843750 0
  0.578125   0.984375 0
  0.640625   0.734375 0
  0.515625   0.734375 0
  0.531250   0.718750 0
  1.000000   0.984375 0
  0.515625   0.718750 0
  0.859375   0.921875 0
  0.921875   0.671875 0
  0.843750   0.921875 0
  0.906250   0.671875 0
  0.843750   0.937500 0
  0.906250   0.687500 0
  0.546875   0.656250 0
  0.546875   0.578125 0
  0.671875   0.625000 0
  0.609375   0.875000 0
  0.546875   0.593750 0
  0.593750   0.984375 0
  0.656250   0.734375 0
  0.578125   0.609375 0
  0.515625   0.859375 0
  0.578125   0.593750 0
  0.515625   0.843750 0
  0.937500   0.640625 0
  0.875000   0.890625 0
  0.953125   0.625000 0
  0.890625   0.875000 0
  0.781250   0.578125 0
  0.718750   0.828125 0
  0.734375   0.812500 0
  0.578125   0.578125 0
  0.515625   0.828125 0
  0.562500   0.578125 0
  0.578125   0.562500 0
  0.515625   0.812500 0
  1.000000   1.000000 0
  0.859375   0.734375 0
  0.796875   0.984375 0
  0.984375   0.734375 0
  0.921875   0.984375 0
  0.968750   0.734375 0
  0.906250   0.984375 0
  0.984375   0.718750 0
  0.921875   0.968750 0
  0.859375   0.718750 0
  0.796875   0.968750 0
  0.921875   0.796875 0
  0.984375   0.546875 0
  0.562500   0.812500 0
  0.906250   0.796875 0
  0.921875   0.781250 0
  0.671875   0.687500 0
  0.609375   0.937500 0
  0.671875   0.671875 0
  0.609375   0.921875 0
  0.687500   0.671875 0
  0.625000   0.921875 0
  0.671875   0.734375 0
  0.609375   0.984375 0
  0.687500   0.734375 0
  0.625000   0.984375 0
  0.765625   0.578125 0
  0.703125   0.828125 0
  0.781250   0.562500 0
  0.718750   0.812500 0
  0.750000   0.578125 0
  0.687500   0.828125 0
  0.765625   0.562500 0
  0.703125   0.812500 0
  0.625000   0.968750 0
  0.687500   0.718750 0
  0.625000   0.953125 0
  0.687500   0.703125 0
  0.625000   0.937500 0
  0.687500   0.687500 0
  0.609375   0.968750 0
  0.671875   0.718750 0
  0.609375   0.953125 0
  0.671875   0.703125 0
  0.609375   0.890625 0
  0.671875   0.640625 0
  0.625000   0.890625 0
  0.687500   0.640625 0
  0.609375   0.906250 0
  0.671875   0.656250 0
  0.625000   0.906250 0
  0.687500   0.656250 0
  0.593750   0.765625 0
  0.937500   0.953125 0
  0.546875   0.750000 0
  0.546875   0.734375 0
  0.531250   0.750000 0
  0.937500   0.671875 0
  0.515625   0.937500 0
  0.953125   0.671875 0
  0.890625   0.921875 0
  0.875000   0.921875 0
  0.531250   0.671875 0
  0.515625   0.687500 0
  0.921875   0.703125 0
  0.859375   0.953125 0
  0.828125   0.656250 0
  0.953125   0.656250 0
  0.531250   0.921875 0
  0.890625   0.906250 0
  0.953125   0.640625 0
  0.890625   0.890625 0
  0.937500   0.656250 0
  0.875000   0.906250 0
  0.671875   0.593750 0
  0.609375   0.843750 0
  0.656250   0.593750 0
  0.593750   0.843750 0
  0.671875   0.609375 0
  0.609375   0.859375 0
  0.656250   0.609375 0
  0.593750   0.859375 0
  0.578125   0.750000 0
  0.515625   1.000000 0
  0.921875   0.578125 0
  0.859375   0.828125 0
  0.937500   0.796875 0
  0.953125   0.781250 0
  0.953125   0.734375 0
  0.890625   0.984375 0
  0.937500   0.734375 0
  0.875000   0.984375 0
  0.953125   0.796875 0
  0.968750   0.796875 0
  0.984375   0.796875 0
  1.000000   0.796875 0
  0.562500   0.796875 0
  0.578125   0.781250 0
  0.562500   0.781250 0
  0.578125   0.640625 0
  0.515625   0.890625 0
  0.562500   0.640625 0
  0.578125   0.625000 0
  0.515625   0.875000 0
  0.875000   0.703125 0
  0.812500   0.953125 0
  0.562500   0.609375 0
  0.562500   0.593750 0
  0.546875   0.609375 0
  0.562500   0.562500 0
  0.562500   0.546875 0
  0.546875   0.562500 0
  0.750000   0.609375 0
  0.687500   0.859375 0
  0.765625   0.593750 0
  0.703125   0.843750 0
  0.750000   0.593750 0
  0.687500   0.843750 0
  0.968750   0.656250 0
  0.906250   0.906250 0
  0.984375   0.640625 0
  0.921875   0.890625 0
  0.968750   0.640625 0
  0.906250   0.890625 0
  0.984375   0.625000 0
  0.921875   0.875000 0
  0.968750   0.625000 0
  0.906250   0.875000 0
  0.531250   0.984375 0
  0.796875   0.953125 0
  0.859375   0.703125 0
  0.781250   0.953125 0
  0.843750   0.703125 0
  1.000000   0.531250 0
  0.937500   0.781250 0
  0.953125   0.765625 0
  0.937500   0.765625 0
  0.953125   0.750000 0
  0.937500   0.703125 0
  0.875000   0.953125 0
  0.953125   0.687500 0
  0.890625   0.937500 0
  0.937500   0.687500 0
  0.875000   0.937500 0
  0.828125   0.640625 0
  0.828125   0.625000 0
  0.546875   0.687500 0
  0.546875   0.671875 0
  0.531250   0.687500 0
  0.953125   0.718750 0
  0.890625   0.968750 0
  0.953125   0.703125 0
  0.890625   0.953125 0
  0.984375   1.000000 0
  0.953125   0.515625 0
  0.531250   0.781250 0
  0.890625   0.765625 0
  0.890625   0.796875 0
  0.890625   0.781250 0
  0.562500   0.671875 0
  0.921875   0.656250 0
  0.578125   0.656250 0
  0.515625   0.906250 0
  0.562500   0.656250 0
  0.890625   0.750000 0
  0.828125   1.000000 0
  0.875000   0.734375 0
  0.812500   0.984375 0
  0.953125   1.000000 0
  0.750000   0.984375 0
  0.812500   0.734375 0
  0.984375   0.781250 0
  1.000000   0.781250 0
  1.000000   0.765625 0
  0.937500   0.718750 0
  0.875000   0.968750 0
  0.921875   0.718750 0
  0.859375   0.968750 0
  0.968750   0.531250 0
  0.546875   0.796875 0
  0.906250   0.781250 0
  0.984375   0.515625 0
  0.921875   0.765625 0
  0.906250   0.765625 0
  0.968750   0.781250 0
  0.984375   0.765625 0
  0.968750   0.765625 0
  0.984375   0.750000 0
  0.906250   1.000000 0
  0.968750   0.750000 0
  0.968750   0.718750 0
  0.906250   0.968750 0
  0.984375   0.703125 0
  0.921875   0.953125 0
  0.968750   0.703125 0
  0.906250   0.953125 0
  0.984375   0.687500 0
  0.562500   0.953125 0
  0.921875   0.937500 0
  0.968750   0.687500 0
  0.906250   0.937500 0
  1.000000   0.859375 0
  0.734375   0.531250 0
  0.671875   0.781250 0
  0.734375   0.546875 0
  0.671875   0.796875 0
  0.718750   0.546875 0
  0.656250   0.796875 0
  0.687500   0.921875 0
  0.750000   0.671875 0
  0.828125   0.812500 0
  0.828125   0.796875 0
  0.578125   0.812500 0
  0.578125   0.796875 0
  0.937500   0.859375 0
  0.703125   0.796875 0
  0.765625   0.546875 0
  0.718750   0.781250 0
  0.781250   0.531250 0
  0.687500   0.796875 0
  0.750000   0.546875 0
  0.703125   0.781250 0
  0.765625   0.531250 0
  0.609375   0.765625 0
  0.984375   0.828125 0
  1.000000   0.812500 0
  0.984375   0.812500 0
  1.000000   0.750000 0
  0.937500   1.000000 0
  0.953125   0.984375 0
  0.937500   0.984375 0
  0.609375   0.781250 0
  0.593750   0.781250 0
  0.593750   0.796875 0
  0.531250   0.609375 0
  0.515625   0.609375 0
  0.515625   0.562500 0
  0.875000   0.796875 0
  0.859375   0.812500 0
  0.609375   0.812500 0
  0.609375   0.796875 0
  0.593750   0.812500 0
  0.578125   0.671875 0
  0.515625   0.921875 0
  0.859375   1.000000 0
  0.921875   0.750000 0
  0.875000   1.000000 0
  0.937500   0.750000 0
  0.921875   0.734375 0
  0.859375   0.984375 0
  0.937500   0.921875 0
  0.593750   0.671875 0
  0.625000   0.609375 0
  0.562500   0.859375 0
  0.609375   0.609375 0
  0.546875   0.859375 0
  0.609375   0.671875 0
  0.546875   0.921875 0
  0.640625   0.671875 0
  0.578125   0.921875 0
  0.625000   0.671875 0
  0.562500   0.921875 0
  0.640625   0.625000 0
  0.578125   0.875000 0
  0.500000   0.906250 0
  0.078125   0.125000 0
  0.500000   0.796875 0
  0.078125   0.015625 0
  0.484375   0.843750 0
  0.468750   0.828125 0
  0.750000   0.234375 0
  0.062500   0.828125 0
  0.484375   0.562500 0
  0.296875   0.546875 0
  0.234375   0.796875 0
  0.281250   0.531250 0
  0.218750   0.781250 0
  0.296875   0.562500 0
  0.234375   0.812500 0
  0.281250   0.546875 0
  0.218750   0.796875 0
  0.265625   0.625000 0
  0.953125   0.046875 0
  0.281250   0.640625 0
  0.031250   0.546875 0
  0.500000   0.984375 0
  0.078125   0.203125 0
  0.484375   0.984375 0
  0.062500   0.203125 0
  0.718750   0.125000 0
  0.031250   0.687500 0
  0.703125   0.109375 0
  0.328125   0.625000 0
  0.343750   0.812500 0
  0.406250   0.562500 0
  0.687500   0.031250 0
  0.500000   0.859375 0
  0.468750   0.906250 0
  0.046875   0.125000 0
  0.468750   0.937500 0
  0.046875   0.156250 0
  0.062500   1.000000 0
  0.015625   0.546875 0
  0.812500   0.109375 0
  0.375000   0.812500 0
  0.437500   0.562500 0
  0.359375   0.796875 0
  0.421875   0.546875 0
  0.343750   0.781250 0
  0.406250   0.531250 0
  0.328125   0.687500 0
  0.500000   0.968750 0
  0.078125   0.187500 0
  0.031250   0.609375 0
  0.718750   0.031250 0
  0.031250   0.593750 0
  0.718750   0.015625 0
  0.703125   0.015625 0
  0.031250   0.515625 0
  0.046875   0.531250 0
  0.359375   0.687500 0
  0.375000   0.703125 0
  0.484375   0.750000 0
  0.046875   0.984375 0
  0.328125   0.656250 0
  0.343750   0.593750 0
  0.328125   0.578125 0
  0.265625   0.828125 0
  0.000000   0.515625 0
  0.500000   0.765625 0
  0.015625   0.531250 0
  0.468750   0.984375 0
  0.046875   0.203125 0
  0.375000   0.625000 0
  0.343750   0.703125 0
  0.468750   0.968750 0
  0.046875   0.187500 0
  0.359375   0.625000 0
  0.296875   0.875000 0
  0.734375   0.390625 0
  0.359375   0.718750 0
  0.015625   0.593750 0
  0.812500   0.156250 0
  0.750000   0.406250 0
  0.375000   0.734375 0
  0.453125   0.750000 0
  0.468750   0.875000 0
  0.046875   0.093750 0
  0.296875   0.812500 0
  0.484375   0.968750 0
  0.062500   0.187500 0
  0.296875   0.781250 0
  0.031250   0.968750 0
[...]
POINT_DATA 4072
SCALARS scalar_value float 1
LOOKUP_TABLE default
-4.07529e-08
-9.77532e-05
-1.11547e-07
-0.000152706
-1.65542e-07
-4.04395e-05
-4.64772e-08
-1.82531e-05
-2.19995e-08
-6.28637e-05
-7.33663e-08
5.07437e-05
-8.3117e-05
6.06382e-05
7.9677e-05
-4.74192e-07
-4.48262e-05
-7.48538e-08
8.08778e-05
1.03075e-07
-7.86248e-05
-1.35336e-07
0.000104739
1.47356e-07
5.45714e-09
-1.07481e-06
-0.000107635
-9.77828e-05
0
-0.000142337
-3.87271e-10
2.08722e-09
5.76111e-10
-1.39304e-08
4.86072e-10
-1.00373e-08
-0.000318466
-0.00360918
0.000139022
2.2655e-07
-0.00280968
-2.41803e-08
-1.69987e-05
0.0104963
-2.7777e-06
0.0141546
-3.88868e-06
1.19029e-09
0
-7.7054e-10
4.2695e-10
-4.1206e-05
-1.03041e-07
3.07869e-07
0.0183351
-6.02046e-06
0.00433709
0.0230608
-1.03087e-05
0
-3.63655e-08
0
4.14886e-10
0
1.48023e-10
0
5.8767e-10
0
-3.98017e-08
0
0
1.4428e-08
1.15591e-05
0
1.10388e-10
9.9812e-06
8.32087e-08
2.15935e-05
1.19186e-07
3.87645e-05
2.92019e-08
4.75171e-07
1.20116e-08
1.0886e-05
5.26339e-10
-2.01591e-05
-2.99286e-07
-5.17643e-05
-2.22491e-07
4.35961e-06
4.57306e-07
-2.13037e-05
-5.01132e-07
2.26855e-09
1.58103e-05
6.29774e-09
2.19621e-05
1.43874e-08
2.95083e-05
2.93863e-08
1.11894e-06
5.30131e-08
3.81403e-06
1.96386e-07
7.66774e-05
9.38166e-08
6.74167e-05
1.58451e-07
4.18529e-05
5.43101e-08
5.06682e-05
2.04853e-05
0
1.33474e-05
3.46611e-05
-7.38692e-05
4.9327e-10
-5.66058e-07
-6.37631e-10
0
0
-0.000235264
-0.000231502
1.39502e-09
-1.80357e-10
-4.56587e-07
-7.39447e-10
-4.70095e-08
0
-7.97357e-10
0
8.113e-10
-1.31381e-10
0.000578672
2.45724e-07
0.000240406
-1.80828e-06
0.000263533
2.42807e-07
4.08572e-05
-1.40346e-06
0.000148734
0
-2.9453e-08
-3.94295e-09
0
0
-2.19702e-10
0
0
0
0
0
1.43001e-10
-2.38752e-10
1.86547e-05
2.76745e-05
3.4306e-05
0.00482132
-1.58589e-06
-0.000107772
0.00737444
-2.09272e-06
-6.64535e-10
-2.0583e-10
0.000916609
0.0023576
-0.00201158
0.00665276
0.00910645
-0.00442791
-1.53877e-07
1.43964e-07
-1.74431e-05
-1.84893e-07
2.06777e-06
2.55619e-07
-4.952e-10
0
2.99231e-09
0
-9.48192e-10
0
3.9785e-09
0
-1.60408e-09
1.33204e-10
3.96919e-08
0
-3.89965e-08
-5.09948e-10
3.34572e-07
-1.22277e-08
0
-1.08648e-10
0
-1.54535e-10
1.00806e-10
0
-5.20811e-10
0
2.58571e-10
0
-8.29165e-07
-1.42803e-06
5.6879e-05
-9.90919e-05
-0.000165156
-3.0436e-10
0
-4.06441e-10
0
0
-9.58124e-09
-4.80178e-05
0
9.32576e-10
5.261e-10
0.000481343
2.25747e-09
0.00284603
-1.17478e-06
0.000111129
-9.33872e-10
0
-5.28464e-09
0
0
0
-1.96001e-06
1.74094e-10
-3.06883e-10
-4.0171e-10
0
0
1.04198e-09
-1.11198e-10
-1.76264e-08
-2.38995e-05
-5.8878e-10
2.2184e-08
2.55074e-10
-1.26267e-09
0
2.22102e-10
0
2.98004e-10
0
1.29858e-10
1.41695e-10
0
8.33296e-10
0
0
0
1.17134e-09
2.53192e-07
0
0
0
0
0.000114527
5.36959e-07
0.000134517
4.092e-07
-0.000657786
-1.42749e-06
1.86243e-08
-1.37155e-06
4.02704e-08
6.05694e-08
8.86247e-06
1.50743e-05
0
-8.52992e-07
-2.02562e-05
-7.67058e-07
-8.0405e-05
1.45518e-06
-6.07806e-06
-1.4504e-06
-1.64235e-05
2.46614e-05
1.00456e-10
-1.8875e-10
1.20359e-10
-5.32998e-10
0
0
0
4.07717e-06
2.37256e-06
-1.53756e-06
-0.000952685
-0.000137623
0.00165572
-1.76813e-09
-5.86414e-09
3.91305e-07
1.04036e-06
-2.2959e-06
0.00145717
-8.37182e-07
0
4.64006e-10
0
0
7.28105e-10
0
0
0.0034783
0.000149531
3.5364e-06
0.00115632
-5.25959e-06
0.000398166
-9.12227e-07
-1.68442e-05
1.97834e-07
0.000123337
6.96511e-07
-7.78779e-05
1.14971e-06
3.1821e-06
-0.000267927
3.83929e-05
0.000210444
1.6738e-06
-3.09783e-05
-0.0346051
-5.6148e-10
-0.00540114
0.0030535
-8.05892e-08
0.00998194
1.08236e-07
0.00544701
-4.00266e-08
0.00738227
1.10293e-07
0.000287617
2.34709e-05
0.000105151
3.33364e-09
9.81641e-08
-4.85092e-05
6.52363e-08
-3.74996e-05
1.66903
-1.48904e-08
6.24559
0.000229315
-3.76483e-06
0.0217189
10.5382
1.18088e-05
-2.69929e-06
-6.06607e-06
-8.55498e-07
-1.38455e-05
0
-1.34136e-07
0.0130826
2.7276e-05
0.0201148
-6.54181e-07
0.0445218
-7.93238e-06
0.0558335
-1.23762e-05
2.75426e-07
-6.62759e-05
-4.7877e-08
4.23234
-4.86823e-08
4.70826
7.33938
9.02244e-08
5.82184e-07
-9.68538e-05
5.62831e-06
4.54381e-05
0
4.95307e-06
-0.000274895
0.000747102
-5.0098e-08
1.95683e-07
5.51336e-05
-1.65443e-07
-7.25596e-08
1.54011e-06
-0.000319768
-4.03732e-05
-2.0775e-07
-9.41257e-06
-0.000661582
2.11574e-08
0.00147752
-2.83982e-05
-5.7589e-08
0.0199591
-0.0043004
3.19917e-05
-2.40143e-05
-7.80249e-06
9.42046e-06
5.78862e-07
1.71616e-07
-7.425e-05
1.54792e-06
0
2.26327e-06
7.89911e-07
-0.000973504
7.05901
6.97276
1.01264e-05
-6.82127e-05
9.11037e-07
-8.75955e-05
3.12833e-07
1.36605e-06
-3.34722e-06
-0.00233163
0.0017912
2.21604e-08
1.10976e-06
1.83763e-06
-3.42192e-05
9.78721e-07
-0.00626325
-1.29613e-05
-0.000787964
-1.06813e-07
9.53333e-07
5.74728e-06
-0.00118506
-0.00710774
-1.73165e-07
2.61311e-06
-2.47913e-06
-7.82139e-05
3.35575e-07
-7.86528e-05
1.54428e-06
0.00872532
-0.000987097
3.18209e-07
3.78196e-06
-0.00282153
-9.53263e-08
2.53539e-05
-3.00953e-06
1.13112e-05
6.30402e-05
1.99663e-05
1.08655e-06
-3.36862e-05
2.76669e-08
2.0252e-09
3.19102e-06
-2.78991e-07
5.59783e-06
6.68025e-06
-5.81057e-05
-2.72379e-06
2.34231e-06
6.00474e-06
-3.56199e-06
-0.0148012
7.53361e-06
3.31273e-06
10.7456
3.89708
0.000240806
-5.66048e-05
1.12137e-07
-5.10038e-08
0
8.5006e-08
-0.000241652
0
-1.14752e-07
-0.000960924
8.36318e-08
1.73972
0.0388033
0.372662
2.11073e-06
-8.7077e-06
0
-0.00126444
6.56754e-06
0.0227164
-0.0637015
-0.0920466
3.95045e-07
-1.18366e-06
-2.98935e-07
1.13081e-05
8.04499
0.00949068
9.1787e-08
11.4568
2.28019e-05
0.000184837
-4.92953e-05
3.54804e-05
-3.4184e-10
2.69739e-07
-6.8507e-05
0.0096242
-0.00914285
2.55067e-05
-0.019064
4.6016e-05
2.25636e-07
2.59555
0.51986
0.780016
-0.011321
4.26102e-05
0.0646509
-0.00561397
-1.08103e-10
-7.85064e-05
0.000284692
-0.000279666
-0.000152527
-4.66301e-05
1.35722e-07
0.000336367
-0.00084264
-0.0449652
-0.0204285
9.23759e-06
-2.22921e-07
5.32611e-07
0.0318603
4.23126e-05
-4.4192e-08
-0.000176696
0.000162959
12.3946
3.38327
0.000737608
2.96572e-07
-3.5003e-07
0.994812
-2.18484e-07
5.97018e-07
0.032264
1.62895e-06
-4.06815e-06
-5.38284e-07
6.89556e-06
2.61679e-06
-3.54248e-06
3.13548e-06
-4.22658e-08
2.40273e-06
1.18716e-06
3.76688e-07
3.28973
-0.00586906
-1.63351e-06
4.59233e-07
1.94639
0.00743274
-8.18416e-07
-5.43976e-07
-4.20494e-07
-2.02521e-06
-1.86373e-06
-3.31219e-06
0.000145644
9.74244e-07
-5.19339e-06
-6.33451e-05
-9.77873e-08
-3.83679e-07
1.09085e-06
0.000495715
-1.3571e-07
9.45782e-08
0.0018718
-2.23328e-08
-0.000674709
5.3083e-05
0.000478175
-8.7968e-05
-0.00546501
0
2.11659e-05
2.33377e-10
0
2.47939e-10
0
0
5.11304e-06
-2.10627e-07
7.26102e-10
0.255616
2.88454
2.12936e-10
-2.02472e-10
0.257277
-1.97676e-05
-9.12706e-06
-1.79368e-10
0
2.37763e-08
0.127413
0.367979
-0.000113655
-0.000229671
2.56307e-08
-1.45925e-08
0.572695
0.0101713
0.000361544
8.80145e-07
0.209792
1.51587e-08
-0.0017234
-3.65315e-07
-0.0532184
-0.179902
0
-6.79973e-07
-1.24837e-06
0.000166652
0.000290928
4.02654e-07
1.54981e-10
-0.0429796
9.19658e-05
0
-0.105936
0.000106788
3.68136e-05
9.17935e-05
0.231846
-7.01588e-07
5.30717e-05
-0.00494019
-7.61729e-05
-4.38567e-05
-2.63665e-05
1.46079e-05
-1.75627e-05
5.45298e-08
0.00983938
1.66196e-07
6.47492e-06
2.94634e-06
1.07932e-05
-3.82811e-08
0.00328714
0.000428371
-2.47158e-07
-4.67568e-07
0.000149382
0.00617878
0
9.27352e-06
1.72759e-07
-8.353e-07
-3.45147e-06
0
1.45748e-05
-2.80244e-08
0.000550184
0
5.08257e-07
1.59045e-06
0
5.51279
0.00111076
0.000735181
0.000101956
0.517358
3.30253e-10
-0.00135723
-3.21163e-07
0.000509635
-4.60712e-09
0.0038609
0.00133613
0
-0.000314783
1.57054e-10
0.000564523
6.81734e-05
0.162577
0.164815
-4.08804e-06
0.000407923
-1.18727e-05
0.229295
9.24182
-3.59849e-07
0.271352
7.55991e-09
-3.89312e-08
-1.20738e-05
9.89903
-6.43427e-06
-0.0542355
0.00029309
3.39078e-05
0.324323
0.0348056
10.5448
-7.82382e-07
0.392603
6.45151e-09
11.2121
0.0615908
3.30168
3.54175e-10
0.00847082
2.37693
-5.66723e-07
1.13036e-05
0.255922
0
3.02147
-2.6472e-10
0.15559
0.00110144
4.04134
6.55924e-10
1.64199e-06
-2.08251e-06
-0.0464567
0.000271877
2.89513e-07
1.14876e-05
-1.01808e-06
-1.36474e-06
6.54577e-07
5.66242e-07
9.91543e-08
0.00155477
-1.38625e-05
-2.54835e-09
-4.93946e-06
-2.42565e-06
0.000392274
-1.72283e-05
6.14337e-06
0.517759
-0.00180578
-1.94979e-05
5.14721e-06
-0.00174556
-1.16278e-05
1.30384e-08
-0.000694645
-4.48334e-09
8.38935e-06
-0.0621639
-0.00521853
3.80084e-07
5.41588e-09
11.1665
-1.43088e-10
1.86786
10.4162
3.00445e-05
0.000199166
1.66734
16.1721
5.99535
-0.0445577
8.13124
-5.54544e-10
-6.94037e-08
-0.019225
-0.000158072
10.7216
-1.30875e-10
-0.0191828
11.5928
-0.00335384
13.1963
1.52794e-09
0.0110493
-3.23209e-09
-4.99713e-09
-1.33074e-06
13.7297
1.95189e-09
-2.98867e-08
-0.00143235
-0.000151277
0.886814
4.91412e-08
-0.00350486
2.2876
-7.98576e-08
-0.00312628
-1.15304e-08
-2.05561e-10
6.24969e-10
-0.000268726
1.03136
-5.14094e-09
-1.2235e-05
-5.96059e-05
0.40326
7.11878e-09
9.97202e-05
0.0708057
5.9143e-09
7.3236e-06
-7.94966e-06
7.59448
-1.65084e-09
0.0248375
2.84713
1.04492e-06
-1.65679e-06
5.76796
-1.3841e-05
0.00178153
2.41001e-06
1.49918e-06
-1.38988e-09
-1.70726e-05
-3.87029e-05
0.00284202
2.23068e-07
0
-6.28991e-09
0.000477303
-3.11612e-06
2.67924e-06
-3.85141e-06
-0.000245533
-3.43688e-06
-0.0488092
0
7.76675
-1.09776e-09
-0.0512815
7.36088
-1.39899e-09
-1.7416e-07
-0.0170232
-0.000440496
12.2606
8.02795e-10
-0.0121344
-6.13007e-10
12.7487
1.13103e-09
0.0331009
14.3932
2.35499e-09
0.0645531
-8.15736e-09
-1.0383e-08
-1.55568e-06
15.1903
-0.00765134
1.18101
-8.27754e-08
5.21813e-07
4.43656e-06
-0.0155765
-0.000535497
1.33123
-0.000140253
-1.76366e-09
0
0.116215
1.8877e-08
-0.000690359
-8.63929e-09
0
0.750629
-0.0547299
-0.134586
6.69284
0
0.0895406
0.0087608
-2.09545e-07
-3.1289e-06
1.66876e-05
0.00910851
-3.34568e-07
2.51602e-05
-2.01608e-06
2.51611e-05
-2.08489e-05
5.53553
1.44449e-07
-0.00104239
4.29381
-3.8118e-08
1.4766
-0.0030207
1.61139
8.18008e-07
-2.39454e-05
0.00846388
3.83705e-10
1.7221e-06
0.00800693
-6.29196e-08
0.168835
0.236776
1.93682e-06
0.272637
1.15402e-07
0.328536
2.17348e-06
1.05303
0.474045
1.06666
-8.95517e-08
0
-1.74445e-10
0.000279818
-0.220174
-6.56589e-09
0.000523686
2.57873e-05
-0.203253
-3.6267e-09
2.95236e-09
0.000365358
-2.77133e-06
4.43432e-06
-4.44752e-07
1.29316e-06
3.20438e-06
-0.12636
5.85183
-0.024837
8.69435
-3.9363e-09
7.86951e-05
0.0137778
2.99047e-05
-0.0316096
0.0165922
-9.00364e-09
7.69085e-05
-0.000106722
0.0145612
5.91261e-05
0.00886309
1.94861e-06
0.767089
1.59084
-2.75725e-07
1.87216e-05
-0.00186529
-3.14452e-05
-3.06419e-10
7.21634e-06
1.25817e-05
0.000123056
-3.01152e-05
-1.83878e-08
-9.11621e-06
-0.0005417
-1.84758e-05
1.73211e-06
1.15067
-0.00192289
8.15393e-06
-3.91332e-05
3.37289e-05
3.58323
9.55764
1.73618e-09
3.00315e-06
-6.98112e-05
6.51928
17.4806
1.51115e-09
4.42505
10.0084
2.23277e-09
3.03793e-05
0.000791838
-0.181635
-1.55479e-08
-1.43358e-08
6.2017e-07
4.87409
-0.00375809
3.33971
-0.0160499
2.97867
2.2846e-08
10.1193
-1.00837e-08
1.14402
0.308831
1.11358
0.500738
1.47323e-07
-0.0272168
2.34043e-05
7.46459
0
-2.43608e-06
0.0183662
6.32171e-05
2.49706
0.333919
1.32469
-0.0293244
7.84842
-1.68571e-06
6.22174e-07
-0.000619897
0.00690661
1.53072e-06
-6.44704e-05
3.50481e-07
-2.09541e-06
-3.10226e-07
-0.0131907
0
-0.030134
0.405061
0.601754
0.572187
0.408414
0.803242
0
0.330047
5.80199e-07
0.783422
0.531159
0
7.87049
6.3288
7.16091
5.81722e-07
0.000635244
5.47998
4.47307e-10
-6.6155e-05
0.000164335
3.15152e-07
0.00876694
-0.000219442
-0.0307153
8.14034
0.0514313
2.9373
0
2.23458e-07
-1.13165e-06
0.048086
0.000135195
3.13953
2.11222e-10
-0.0386346
8.31526
-2.40321e-10
1.55755e-06
-2.51957e-06
0.00354784
1.44998e-06
0.000121839
0.0156742
2.89348e-08
2.12502e-05
3.22315
0.078372
0.793742
0.0436128
-0.000181733
0.00502947
0
0.0122869
0.000210623
0.0867657
-9.97582e-05
0
-0.000355595
0.00713034
9.85613e-09
0.0019413
-0.000104483
3.7093
0
0.0133691
1.14438e-05
1.25326
-1.59157e-09
-9.80374e-08
0.0519831
-0.000456303
0.00912157
0.0226738
0.948864
0
-0.0113556
13.0498
0.0138385
1.26466
1.33293e-06
-4.62161e-06
-2.58462e-05
0.0128027
-7.7717e-09
7.65448e-05
2.19785
-2.99747e-09
0.0109668
0.829001
0
0.000971198
-0.000563294
-0.0123383
1.51365e-07
0.000718215
-0.000436864
6.36992
4.96254e-08
0.0058972
0.000325695
-0.00176813
2.85979e-08
0.000195458
-0.0230401
2.28306e-07
6.7518e-08
0.00139257
2.65245
0.00196134
7.86866
0.0115676
-0.00236622
-0.301877
0.000985726
-0.288243
5.02415e-09
0.000910673
0.00193577
-0.00121769
-0.0324421
0.0210712
9.35693
-1.26294e-09
3.73564e-08
-2.86995e-06
1.18673e-06
3.87915e-08
-1.70125e-06
4.20852e-08
4.39343
-0.191371
2.99867e-05
-0.12556
8.01708
6.10155
-4.2834e-07
4.28247e-06
0.137316
-0.00168842
-6.68503e-06
-2.43895e-07
6.08223
0
-0.0322002
10.8215
0.945298
0.252039
9.05317e-07
9.49535
0.810055
1.09114e-06
-3.31122e-05
1.25987e-06
-3.7737e-06
-4.62828e-05
2.33862e-06
-5.7275e-05
0.000164101
1.67773e-05
-1.33752e-06
1.47122
3.10153e-08
9.87697
-1.93474e-06
0
9.29624e-07
0.00175314
7.85041e-07
-9.13561e-05
1.34389e-06
2.06742e-09
3.98739
-6.37835e-08
0.0827784
-0.0669701
0.123094
7.87266e-10
-5.92534e-09
4.56147e-06
13.9065
2.12961e-08
8.52809
-1.85537e-07
0.192935
-1.06384e-08
-0.0703045
-0.0484439
0.169182
14.6804
9.21683e-08
2.09293e-07
0.0356217
-0.00194985
10.7345
0.00301774
4.9604
2.75406
-3.44157e-09
0.0132855
4.89181
-2.0695e-08
-0.00630502
7.31606
0.105913
0.0293998
6.43415
2.4225e-07
-3.10724e-06
0.0862794
0.0789906
5.59005
1.32051e-07
6.61022e-07
3.85348e-07
1.77359e-08
-0.00485762
0.0381523
6.90951
-0.0166593
9.69226e-06
-4.98883e-06
5.4484e-07
-0.00407574
0.0300381
0.0161352
-0.0311779
15.3918
6.63199e-08
-0.0314258
-9.99783e-09
0.000695609
0.293328
8.36982
0.0797049
-0.0149825
1.82973
2.55349e-06
-2.22557e-07
-0.0659036
-1.10127e-07
-0.0274307
-0.000548616
0.303149
1.44983e-08
-0.000634259
1.73034
-1.27296e-06
-0.0236339
0.300769
2.943e-07
1.05168
-2.06945e-10
0.00270631
8.43077
0
0.699698
0.0195074
7.33372
6.54736
0
-0.0156599
-0.0221678
6.79378
0
-0.0795594
5.82475
-0.000916024
-3.74675e-07
0.305809
3.99225e-09
3.04534e-06
2.77454e-05
-5.62632e-05
-6.90194e-07
0.0228787
8.63207e-10
7.72788e-05
-5.87393e-06
-0.0540766
0
0.264217
-0.0177148
3.41815
-0.017654
-0.000765646
-2.78789e-07
0.131072
0
3.21637e-06
3.01637e-05
-0.00178547
-2.22e-07
1.01531e-06
-0.00134248
-1.61748e-10
-3.29217e-06
-1.41772e-07
1.14853e-05
0.392637
2.63321e-05
0.00347405
-0.00912743
-0.000928875
-5.64684e-07
-3.38914e-06
-3.35024e-10
-6.50276e-07
-4.00323e-06
-0.000788805
4.33204e-07
0.000160679
1.38434e-07
1.39401e-07
-0.0156058
0.286379
-0.0169885
3.74712
-6.49121e-09
-0.00149736
2.62579
-1.19248e-07
1.50775e-07
-0.00827331
0.00120218
4.10708
2.04057e-08
-7.8696e-08
-0.0147266
1.8106e-05
2.02933
-0.00173215
-0.000136851
0.66404
-0.0288438
-3.04223e-07
6.63089e-05
5.6861e-05
0.0103305
3.24474e-06
-0.000710181
0.539972
0
0.0311799
-6.82743e-05
1.67613
1.31451e-09
2.08977e-08
-0.00166559
-5.46713e-07
0.013235
0.00851999
3.3921
-3.2459e-09
0.00507777
0
1.62325e-05
1.34782
-0.000431781
0
-0.0103523
-2.91928e-06
-1.41508e-08
0.00479793
-0.307086
-3.65245e-07
-0.0149537
8.59991
0.0047022
4.66881e-10
0.00129291
-0.289875
0.00555721
-0.341397
-1.77347e-06
-0.345997
-3.46166e-06
0.00617437
2.28146
-0.01001
13.5673
19.8121
-2.35925e-08
-1.90601e-10
-6.95497e-10
-5.21295e-05
1.96916
-0.00175553
0
-0.000235998
1.27321e-05
-1.12272e-06
0.00433618
-1.38665e-08
0.000129621
4.70849e-05
0.00021966
2.07218
12.2507
-0.000687637
4.10638
1.18288e-08
0.00774247
2.20569e-06
-0.149159
0.0512276
6.72699
6.39763e-10
7.68797e-06
0.0005513
0.0141424
-2.17685e-06
0.0611763
1.82923
0.0300517
0.242288
0
-0.0594975
0.0021356
-0.384629
-2.78901e-06
1.76923e-07
-0.0018859
0.00518321
-3.54377e-05
-2.25505e-07
3.48578
1.24565e-08
-0.00489544
-0.00013462
0.9386
-8.56696e-09
11.909
-1.49328e-06
-0.000126495
0.48118
1.08275e-06
-0.00059365
-3.32188e-07
0
-3.38121e-06
-0.0691066
0
1.3094e-06
-9.77067e-05
7.48157
0
-0.0115129
0.012899
-0.0417171
1.84194e-06
8.30878e-08
0.00234628
12.2091
-3.80758e-09
-0.00703022
6.39244
0.0324894
7.16489e-07
-0.000143767
1.25967e-06
1.15729e-07
1.18621e-05
-8.09667e-08
0
0
-2.18959e-06
2.91191e-07
-2.41947e-06
0
5.90609
0.820332
6.79734e-05
8.57888e-06
-0.169154
-7.64162e-10
0.176791
-0.000523419
3.24004
6.45345e-09
2.16204e-07
-0.0069669
9.17752e-06
1.65897
3.97414e-09
-0.0011121
-3.40853e-10
11.9493
0.0566348
-0.00263472
-0.0434392
0.00253151
-3.80026e-06
0.000122769
1.69157
-7.70932e-07
-0.0715163
0.0328962
5.77618e-07
3.1143e-05
0.142462
0.0304684
0.0855042
13.0008
0.0025699
-0.0441356
7.06345e-07
1.79797e-05
-6.22542e-05
3.59895e-05
5.36605
10.95
0
-3.07782e-06
8.52156e-07
-0.000113534
7.55453e-08
-0.0560023
-1.30991e-07
0.000963476
0
-6.98292e-09
0
0.607812
-0.0411738
-0.00168153
2.40748e-06
0.0820234
4.77665
1.53382e-08
1.31122e-08
0.0038191
-0.270848
3.29813e-08
0.0329098
6.6536
-1.71786e-07
-5.87099e-06
-0.0168235
-2.75684e-05
-1.34825e-07
-0.00047363
-0.00382554
2.77656
9.23711e-09
1.06119e-06
12.5598
1.22806e-09
-0.000467147
0.00796323
-0.0330746
1.71132e-09
3.6059
0.348139
0.00795541
1.72849
-2.41106e-09
7.01467
18.7275
0.000164026
5.16636e-08
-0.0385725
2.15706e-06
6.82398e-07
-0.000445158
-7.03943e-08
-0.017545
9.70046
0.0749023
4.70319
-0.035775
-7.49843e-08
-2.2111e-05
0
9.39099e-05
0
5.39399e-07
-0.0225779
-2.8439e-05
-1.96435e-07
0.0299427
8.8223e-08
8.23534
4.48596e-07
0.141731
-0.102929
7.61169
-0.0143411
2.67639e-09
9.17961
0.200555
-3.61977e-05
8.60026
-3.72877e-07
0.00236977
3.20411e-06
2.25939e-05
4.451e-06
-0.00185996
-3.21473e-07
1.47437e-10
1.97211e-06
-2.79153e-05
0.21525
1.72248e-09
-1.68123e-09
3.95027e-06
-0.00105564
3.41876e-10
-3.11137e-07
2.92834e-06
-0.00162667
-1.89307e-06
-0.02845
-7.43122e-06
-0.00961091
0
-0.0791616
-4.62292e-07
0
-5.73607e-07
1.15935e-05
-1.77116e-06
1.17805e-05
0.0833522
4.10852
3.70129
5.45746
0.93366
3.8258
2.88157
14.1285
5.45718
-1.38808e-08
5.85226
3.36471
0.0268351
1.44525e-07
4.53109e-05
2.46448
-1.54529e-06
-1.20421e-05
0.573301
-1.87894e-09
3.81792
0.699999
0
-0.0240935
-2.49872e-07
-3.83978e-08
-3.87733e-05
6.76987e-06
4.9168
-0.148509
0.795714
1.15017e-05
-1.5584e-07
0
-0.00181316
2.44674
3.94955e-09
-4.20206e-05
0
-2.75695e-05
0.0326504
0.00483691
-0.0773422
2.28529e-07
6.95001e-07
2.08026e-07
-0.0145329
0.16679
5.22649e-06
-0.155435
0
2.21757
3.46394e-06
-0.148937
-3.08361e-06
-0.00081523
-2.2301e-06
-0.00147803
1.38128
1.32579e-09
4.76939e-08
-0.00237832
8.88053e-05
2.93188
7.27816e-09
-1.14211e-08
-3.15492e-05
-5.56238e-05
0.00510605
1.59284e-08
-0.000717065
-7.10056e-06
1.37343
2.17824e-09
-3.2765e-06
0.00011742
-0.133513
-0.000505414
0.00858575
2.49594
0.0704579
-0.0263696
0.0148853
1.22396e-05
0.026241
2.93938e-09
5.71313
0.000322044
0.116819
0
-4.8914e-09
0.0247058
0.00968485
-5.07962e-07
4.90854e-05
0.0395716
0.0116491
5.35297e-06
7.21471e-05
3.86534
1.88371
0.37456
0.108982
-6.19679e-08
2.62392e-07
2.83189e-06
19.5147
-7.01596e-07
0.3591
-0.000666171
0.0167078
0.430131
0
0.0561411
3.59682
-1.45993e-09
-0.000549562
0.00936622
0
1.81939e-10
0.000676918
-0.21265
0.00150571
0.00606348
10.8719
2.09312e-08
-0.20527
0.126668
9.5014e-10
6.81096
-0.000455143
0.00793279
11.4095
-1.67344e-08
-6.06169e-06
1.7999
0.00252976
7.72329
-3.437e-08
0.158656
0.00856425
-0.000462812
-0.00912357
-2.55752e-06
3.49383e-07
8.85833e-07
2.27366e-06
12.0463
4.97099e-08
0.008962
-0.112814
-0.037872
6.26393e-08
5.10831e-07
-2.67795e-06
14.3899
0.0207023
1.13741
7.41627e-10
-0.00117197
0.360796
5.74324
-8.79863e-08
-0.0134621
3.71221
0
0.307666
0.529886
8.50387
4.72466e-07
5.76219e-07
-8.32772e-05
1.97295
1.64858
-6.38798e-07
6.59605e-05
7.93837e-06
-8.48532e-07
1.106
2.08143e-06
0.0140014
1.37429e-09
-8.37299e-05
-0.231204
0.00206253
0.00112356
0
-0.250348
4.79224
5.63225e-08
-0.0452374
2.58887
1.90294e-06
0.689848
4.0313e-08
0.949034
0.696268
1.88146
-0.000558966
0.00998986
3.59787e-05
-0.196006
-2.79395e-08
0.00109313
1.40431
0.685819
5.79465
0.0984368
1.66062
0.0307579
0.00800949
-0.000470385
1.41348
0.538054
-3.53217e-06
5.80838
0
0.326437