# vtk DataFile Version 2.0
Unstructured Grid by M++
ASCII
DATASET UNSTRUCTURED_GRID
POINTS 4072 float
  0.656250   0.890625 0
  0.703125   0.640625 0
  0.640625   0.890625 0
  0.703125   0.625000 0
  0.640625   0.875000 0
  0.703125   0.671875 0
  0.640625   0.921875 0
  0.718750   0.656250 0
  0.656250   0.906250 0
  0.703125   0.656250 0
  0.640625   0.906250 0
  0.546875   0.718750 0
  0.531250   0.734375 0
  0.578125   0.765625 0
  0.562500   0.765625 0
  0.812500   0.796875 0
  0.718750   0.625000 0
  0.656250   0.875000 0
  0.734375   0.609375 0
  0.671875   0.859375 0
  0.718750   0.609375 0
  0.656250   0.859375 0
  0.734375   0.593750 0
  0.671875   0.843750 0
  0.578125   0.984375 0
  0.640625   0.734375 0
  0.515625   0.734375 0
  0.531250   0.718750 0
  1.000000   0.984375 0
  0.515625   0.718750 0
  0.859375   0.921875 0
  0.921875   0.671875 0
  0.843750   0.921875 0
  0.906250   0.671875 0
  0.843750   0.937500 0
  0.906250   0.687500 0
  0.546875   0.656250 0
  0.546875   0.578125 0
  0.671875   0.625000 0
  0.609375   0.875000 0
  0.546875   0.593750 0
  0.593750   0.984375 0
  0.656250   0.734375 0
  0.578125   0.609375 0
  0.515625   0.859375 0
  0.578125   0.593750 0
  0.515625   0.843750 0
  0.937500   0.640625 0
  0.875000   0.890625 0
  0.953125   0.625000 0
  0.890625   0.875000 0
  0.781250   0.578125 0
  0.718750   0.828125 0
  0.734375   0.812500 0
  0.578125   0.578125 0
  0.515625   0.828125 0
  0.562500   0.578125 0
  0.578125   0.562500 0
  0.515625   0.812500 0
  1.000000   1.000000 0
  0.859375   0.734375 0
  0.796875   0.984375 0
  0.984375   0.734375 0
  0.921875   0.984375 0
  0.968750   0.734375 0
  0.906250   0.984375 0
  0.984375   0.718750 0
  0.921875   0.968750 0
  0.859375   0.718750 0
  0.796875   0.968750 0
  0.921875   0.796875 0
  0.984375   0.546875 0
  0.562500   0.812500 0
  0.906250   0.796875 0
  0.921875   0.781250 0
  0.671875   0.687500 0
  0.609375   0.937500 0
  0.671875   0.671875 0
  0.609375   0.921875 0
  0.687500   0.671875 0
  0.625000   0.921875 0
  0.671875   0.734375 0
  0.609375   0.984375 0
  0.687500   0.734375 0
  0.625000   0.984375 0
  0.765625   0.578125 0
  0.703125   0.828125 0
  0.781250   0.562500 0
  0.718750   0.812500 0
  0.750000   0.578125 0
  0.687500   0.828125 0
  0.765625   0.562500 0
  0.703125   0.812500 0
  0.625000   0.968750 0
  0.687500   0.718750 0
  0.625000   0.953125 0
  0.687500   0.703125 0
  0.625000   0.937500 0
  0.687500   0.687500 0
  0.609375   0.968750 0
  0.671875   0.718750 0
  0.609375   0.953125 0
  0.671875   0.703125 0
  0.609375   0.890625 0
  0.671875   0.640625 0
  0.625000   0.890625 0
  0.687500   0.640625 0
  0.609375   0.906250 0
  0.671875   0.656250 0
  0.625000   0.906250 0
  0.687500   0.656250 0
  0.593750   0.765625 0
  0.937500   0.953125 0
  0.546875   0.750000 0
  0.546875   0.734375 0
  0.531250   0.750000 0
  0.937500   0.671875 0
  0.515625   0.937500 0
  0.953125   0.671875 0
  0.890625   0.921875 0
  0.875000   0.921875 0
  0.531250   0.671875 0
  0.515625   0.687500 0
  0.921875   0.703125 0
  0.859375   0.953125 0
  0.828125   0.656250 0
  0.953125   0.656250 0
  0.531250   0.921875 0
  0.890625   0.906250 0
  0.953125   0.640625 0
  0.890625   0.890625 0
  0.937500   0.656250 0
  0.875000   0.906250 0
  0.671875   0.593750 0
  0.609375   0.843750 0
  0.656250   0.593750 0
  0.593750   0.843750 0
  0.671875   0.609375 0
  0.609375   0.859375 0
  0.656250   0.609375 0
  0.593750   0.859375 0
  0.578125   0.750000 0
  0.515625   1.000000 0
  0.921875   0.578125 0
  0.859375   0.828125 0
  0.937500   0.796875 0
  0.953125   0.781250 0
  0.953125   0.734375 0
  0.890625   0.984375 0
  0.937500   0.734375 0
  0.875000   0.984375 0
  0.953125   0.796875 0
  0.968750   0.796875 0
  0.984375   0.796875 0
  1.000000   0.796875 0
  0.562500   0.796875 0
  0.578125   0.781250 0
  0.562500   0.781250 0
  0.578125   0.640625 0
  0.515625   0.890625 0
  0.562500   0.640625 0
  0.578125   0.625000 0
  0.515625   0.875000 0
  0.875000   0.703125 0
  0.812500   0.953125 0
  0.562500   0.609375 0
  0.562500   0.593750 0
  0.546875   0.609375 0
  0.562500   0.562500 0
  0.562500   0.546875 0
  0.546875   0.562500 0
  0.750000   0.609375 0
  0.687500   0.859375 0
  0.765625   0.593750 0
  0.703125   0.843750 0
  0.750000   0.593750 0
  0.687500   0.843750 0
  0.968750   0.656250 0
  0.906250   0.906250 0
  0.984375   0.640625 0
  0.921875   0.890625 0
  0.968750   0.640625 0
  0.906250   0.890625 0
  0.984375   0.625000 0
  0.921875   0.875000 0
  0.968750   0.625000 0
  0.906250   0.875000 0
  0.531250   0.984375 0
  0.796875   0.953125 0
  0.859375   0.703125 0
  0.781250   0.953125 0
  0.843750   0.703125 0
  1.000000   0.531250 0
  0.937500   0.781250 0
  0.953125   0.765625 0
  0.937500   0.765625 0
  0.953125   0.750000 0
  0.937500   0.703125 0
  0.875000   0.953125 0
  0.953125   0.687500 0
  0.890625   0.937500 0
  0.937500   0.687500 0
  0.875000   0.937500 0
  0.828125   0.640625 0
  0.828125   0.625000 0
  0.546875   0.687500 0
  0.546875   0.671875 0
  0.531250   0.687500 0
  0.953125   0.718750 0
  0.890625   0.968750 0
  0.953125   0.703125 0
  0.890625   0.953125 0
  0.984375   1.000000 0
  0.953125   0.515625 0
  0.531250   0.781250 0
  0.890625   0.765625 0
  0.890625   0.796875 0
  0.890625   0.781250 0
  0.562500   0.671875 0
  0.921875   0.656250 0
  0.578125   0.656250 0
  0.515625   0.906250 0
  0.562500   0.656250 0
  0.890625   0.750000 0
  0.828125   1.000000 0
  0.875000   0.734375 0
  0.812500   0.984375 0
  0.953125   1.000000 0
  0.750000   0.984375 0
  0.812500   0.734375 0
  0.984375   0.781250 0
  1.000000   0.781250 0
  1.000000   0.765625 0
  0.937500   0.718750 0
  0.875000   0.968750 0
  0.921875   0.718750 0
  0.859375   0.968750 0
  0.968750   0.531250 0
  0.546875   0.796875 0
  0.906250   0.781250 0
  0.984375   0.515625 0
  0.921875   0.765625 0
  0.906250   0.765625 0
  0.968750   0.781250 0
  0.984375   0.765625 0
  0.968750   0.765625 0
  0.984375   0.750000 0
  0.906250   1.000000 0
  0.968750   0.750000 0
  0.968750   0.718750 0
  0.906250   0.968750 0
  0.984375   0.703125 0
  0.921875   0.953125 0
  0.968750   0.703125 0
  0.906250   0.953125 0
  0.984375   0.687500 0
  0.562500   0.953125 0
  0.921875   0.937500 0
  0.968750   0.687500 0
  0.906250   0.937500 0
  1.000000   0.859375 0
  0.734375   0.531250 0
  0.671875   0.781250 0
  0.734375   0.546875 0
  0.671875   0.796875 0
  0.718750   0.546875 0
  0.656250   0.796875 0
  0.687500   0.921875 0
  0.750000   0.671875 0
  0.828125   0.812500 0
  0.828125   0.796875 0
  0.578125   0.812500 0
  0.578125   0.796875 0
  0.937500   0.859375 0
  0.703125   0.796875 0
  0.765625   0.546875 0
  0.718750   0.781250 0
  0.781250   0.531250 0
  0.687500   0.796875 0
  0.750000   0.546875 0
  0.703125   0.781250 0
  0.765625   0.531250 0
  0.609375   0.765625 0
  0.984375   0.828125 0
  1.000000   0.812500 0
  0.984375   0.812500 0
  1.000000   0.750000 0
  0.937500   1.000000 0
  0.953125   0.984375 0
  0.937500   0.984375 0
  0.609375   0.781250 0
  0.593750   0.781250 0
  0.593750   0.796875 0
  0.531250   0.609375 0
  0.515625   0.609375 0
  0.515625   0.562500 0
  0.875000   0.796875 0
  0.859375   0.812500 0
  0.609375   0.812500 0
  0.609375   0.796875 0
  0.593750   0.812500 0
  0.578125   0.671875 0
  0.515625   0.921875 0
  0.859375   1.000000 0
  0.921875   0.750000 0
  0.875000   1.000000 0
  0.937500   0.750000 0
  0.921875   0.734375 0
  0.859375   0.984375 0
  0.937500   0.921875 0
  0.593750   0.671875 0
  0.625000   0.609375 0
  0.562500   0.859375 0
  0.609375   0.609375 0
  0.546875   0.859375 0
  0.609375   0.671875 0
  0.546875   0.921875 0
  0.640625   0.671875 0
  0.578125   0.921875 0
  0.625000   0.671875 0
  0.562500   0.921875 0
  0.640625   0.625000 0
  0.578125   0.875000 0
  0.500000   0.906250 0
  0.078125   0.125000 0
  0.500000   0.796875 0
  0.078125   0.015625 0
  0.484375   0.843750 0
  0.468750   0.828125 0
  0.750000   0.234375 0
  0.062500   0.828125 0
  0.484375   0.562500 0
  0.296875   0.546875 0
  0.234375   0.796875 0
  0.281250   0.531250 0
  0.218750   0.781250 0
  0.296875   0.562500 0
  0.234375   0.812500 0
  0.281250   0.546875 0
  0.218750   0.796875 0
  0.265625   0.625000 0
  0.953125   0.046875 0
  0.281250   0.640625 0
  0.031250   0.546875 0
  0.500000   0.984375 0
  0.078125   0.203125 0
  0.484375   0.984375 0
  0.062500   0.203125 0
  0.718750   0.125000 0
  0.031250   0.687500 0
  0.703125   0.109375 0
  0.328125   0.625000 0
  0.343750   0.812500 0
  0.406250   0.562500 0
  0.687500   0.031250 0
  0.500000   0.859375 0
  0.468750   0.906250 0
  0.046875   0.125000 0
  0.468750   0.937500 0
  0.046875   0.156250 0
  0.062500   1.000000 0
  0.015625   0.546875 0
  0.812500   0.109375 0
  0.375000   0.812500 0
  0.437500   0.562500 0
  0.359375   0.796875 0
  0.421875   0.546875 0
  0.343750   0.781250 0
  0.406250   0.531250 0
  0.328125   0.687500 0
  0.500000   0.968750 0
  0.078125   0.187500 0
  0.031250   0.609375 0
  0.718750   0.031250 0
  0.031250   0.593750 0
  0.718750   0.015625 0
  0.703125   0.015625 0
  0.031250   0.515625 0
  0.046875   0.531250 0
  0.359375   0.687500 0
  0.375000   0.703125 0
  0.484375   0.750000 0
  0.046875   0.984375 0
  0.328125   0.656250 0
  0.343750   0.593750 0
  0.328125   0.578125 0
  0.265625   0.828125 0
  0.000000   0.515625 0
  0.500000   0.765625 0
  0.015625   0.531250 0
  0.468750   0.984375 0
  0.046875   0.203125 0
  0.375000   0.625000 0
  0.343750   0.703125 0
  0.468750   0.968750 0
  0.046875   0.187500 0
  0.359375   0.625000 0
  0.296875   0.875000 0
  0.734375   0.390625 0
  0.359375   0.718750 0
  0.015625   0.593750 0
  0.812500   0.156250 0
  0.750000   0.406250 0
  0.375000   0.734375 0
  0.453125   0.750000 0
  0.468750   0.875000 0
  0.046875   0.093750 0
  0.296875   0.812500 0
  0.484375   0.968750 0
  0.062500   0.187500 0
  0.296875   0.781250 0
  0.031250   0.968750 0
[...]
POINT_DATA 4072
SCALARS scalar_value float 1
LOOKUP_TABLE default
0
1.50101e-08
0
1.82654e-08
0
9.32219e-09
0
-1.30784e-08
0
1.21312e-08
0
1.40948e-10
-1.05942e-08
3.98395e-09
5.27843e-09
-2.32944e-09
-4.72209e-08
0
-1.15553e-07
0
-7.67252e-08
0
-1.29768e-07
0
0
-5.17407e-10
-9.54072e-09
-1.37922e-08
0
-1.21089e-08
0
0
0
2.07567e-10
0
1.57059e-10
-6.73572e-08
-8.70854e-07
1.3242e-09
0
-6.12244e-07
0
-7.67433e-10
8.4627e-07
-4.51734e-10
1.18164e-06
-5.64178e-10
0
0
0
0
7.32957e-07
2.352e-10
-2.66438e-09
1.59165e-06
-7.42047e-10
2.40394e-07
2.07371e-06
-1.08169e-09
0
-4.93778e-10
0
0
0
0
0
0
0
-5.9123e-10
0
0
6.75947e-10
7.9173e-10
0
0
-1.2594e-09
0
-1.35829e-09
0
2.81732e-09
0
-4.01356e-10
0
0
0
-1.24453e-06
0
9.31491e-07
6.44073e-10
8.82655e-07
0
-1.59522e-06
0
0
0
0
3.95857e-10
0
1.24298e-09
0
-6.69559e-10
0
-9.82376e-10
0
-3.45148e-10
0
9.32202e-09
0
-1.12193e-09
0
5.38664e-09
8.9626e-10
0
-6.24897e-10
2.05753e-10
-8.51056e-09
0
0
0
0
0
-3.70322e-08
-1.32864e-08
0
0
2.44671e-08
0
0
0
0
0
0
0
1.11277e-08
0
-3.35153e-09
-1.37937e-10
4.66627e-09
0
-3.95212e-09
-1.04814e-10
1.02573e-08
0
-4.93379e-10
0
0
0
0
0
0
0
0
0
0
0
1.22563e-09
1.87051e-09
2.2079e-09
3.70621e-07
-2.8055e-10
-3.22782e-08
5.78755e-07
-3.61347e-10
-3.66025e-10
0
1.37105e-08
1.06081e-07
-4.0702e-07
3.93138e-07
5.30737e-07
-1.19777e-06
5.37879e-07
0
-9.63516e-07
0
6.90504e-07
0
0
0
1.52469e-10
0
0
0
1.9818e-10
0
0
0
0
0
-6.46287e-10
0
1.44836e-09
-1.7803e-09
0
0
0
0
0
0
0
0
0
0
3.1414e-08
4.00224e-08
-4.76912e-09
-2.75258e-08
-2.63584e-08
0
0
0
0
0
0
-4.94749e-09
0
0
0
3.08425e-08
-1.14851e-10
2.14309e-07
-2.08897e-10
-4.6072e-09
0
0
-1.92595e-10
0
0
0
-1.44836e-08
0
0
0
0
0
0
0
3.90376e-10
-2.19235e-09
0
8.7903e-10
0
0
0
0
0
0
0
0
0
0
0
0
0
0
0
0
0
0
0
0
-4.1432e-08
0
-1.29563e-07
0
-3.91708e-07
0
0
1.94406e-07
6.47145e-10
1.12752e-09
6.29959e-10
1.0497e-09
0
0
-2.03131e-06
2.32917e-09
1.47233e-06
0
1.3745e-06
1.38325e-10
-2.57626e-06
1.04661e-09
0
0
0
0
0
0
0
0
0
-1.82542e-10
-1.14928e-07
3.27962e-07
1.60113e-06
0
0
0
0
-1.97564e-10
1.05582e-07
-1.48198e-10
0
0
0
0
0
0
0
2.32556e-07
-1.35728e-08
2.62344e-10
1.1262e-07
-3.81935e-10
2.33474e-08
0
-2.31033e-09
0
5.87769e-09
0
-1.36746e-08
0
5.46363e-10
1.37423e-05
7.5125e-09
-6.05123e-06
2.59059e-10
-4.23716e-09
0.000363515
0
-1.79862e-06
1.95264e-07
0
3.94629e-07
0
1.87151e-07
0
2.8468e-07
0
5.00217e-09
-3.38894e-06
1.36596e-09
0
0
9.0656e-07
0
7.33018e-07
0.000668241
0
0.00116746
5.49601e-08
-4.87234e-10
2.12872e-06
0.0136936
2.03327e-09
-3.81388e-10
7.06635e-08
-1.24582e-10
2.06776e-07
0
5.13988e-10
-0.000162896
2.74661e-09
3.3297e-06
-8.39516e-10
5.74509e-06
-1.13697e-09
7.46179e-06
7.50478e-09
0
1.81348e-06
0
-0.00420948
0
-0.00743988
0.0093755
1.56361e-10
-7.05253e-10
-2.40683e-08
-8.21409e-09
8.18063e-09
0
2.4816e-08
5.14865e-08
2.10019e-07
0
-1.2276e-09
1.27562e-08
6.49172e-10
0
-2.75223e-07
-1.56766e-07
-2.37843e-09
0
3.11735e-08
-1.66591e-07
0
6.74364e-06
-7.75778e-09
2.42131e-10
-0.000225666
1.70727e-05
1.54607e-09
-4.23995e-09
-1.07097e-09
-4.84891e-07
0
0
1.94376e-06
0
0
2.68989e-10
1.21838e-10
-7.50703e-07
0.00662546
0.00762595
1.93018e-09
3.29195e-06
0
2.93562e-06
0
0
3.56041e-07
-7.33072e-07
1.70147e-08
0
1.93412e-10
2.08475e-10
1.41446e-06
0
-2.37845e-06
-1.75973e-09
-3.66249e-07
0
0
-5.03158e-07
-1.17133e-07
-2.06597e-06
0
2.46902e-10
1.35962e-08
-1.28222e-08
0
2.19785e-06
2.86911e-10
-2.14577e-07
-2.66211e-07
0
0
4.20166e-07
0
2.27894e-10
-2.90567e-10
-5.83326e-07
1.1266e-09
2.60417e-10
1.91257e-10
-1.76209e-10
9.15873e-10
0
0
0
2.10263e-10
-8.74844e-07
4.45972e-06
0
0
1.65553e-10
4.86399e-07
-8.68624e-06
-1.22277e-10
5.86322e-10
0.0175488
-0.00157167
1.11576e-08
3.13117e-10
0
0
0
0
-5.99494e-08
0
0
4.76846e-06
0
-0.00544126
0.000170403
-0.00156401
0
0
0
-2.29416e-07
1.14882e-10
-4.74539e-05
0.000400409
0.000641098
0
-2.46535e-08
0
-4.54176e-07
0.0138411
-5.63963e-05
-4.25164e-10
0.0342772
4.11452e-09
-5.95534e-06
-7.40848e-09
-1.36037e-06
0
2.26114e-10
2.61528e-06
-2.44066e-06
3.85848e-05
2.04202e-09
-4.61487e-06
4.26461e-09
-1.43539e-10
-0.0120859
-0.00229316
-0.00415499
-3.37477e-06
4.33302e-09
1.12216e-05
-3.20938e-06
0
7.54414e-09
4.88645e-09
-6.72436e-08
2.00238e-08
-1.77706e-09
0
1.45762e-07
-2.04895e-07
-1.30469e-05
-6.25748e-06
-7.15622e-07
0
-5.15824e-10
-0.000663105
-2.67297e-09
0
4.85464e-08
1.63837e-08
-0.00561532
0.00136615
-1.2634e-08
-1.98402e-10
2.07429e-10
-0.00712629
1.5665e-10
-9.58628e-10
-0.000888207
0
-1.9146e-07
0
-7.21298e-07
1.04852e-10
4.25134e-07
1.02587e-10
0
-2.52638e-07
0
-2.73435e-10
-0.0207028
0.00012745
6.62962e-10
-3.75989e-10
0.000122359
-0.000192728
3.65021e-10
2.74595e-10
0
0
0
-2.83425e-10
-2.47962e-06
0
-1.92776e-10
5.46591e-06
0
0
-4.27879e-07
4.41556e-07
0
0
6.94571e-07
0
1.61864e-05
3.88512e-09
7.13986e-09
9.61285e-10
-1.05006e-06
0
-4.63295e-07
0
0
0
0
0
0
-1.04166e-10
0
4.95078e-05
-8.71194e-05
0
0
-0.000916511
-2.22735e-09
2.34365e-09
0
0
0
-0.000467104
-0.00149217
-2.08764e-08
-3.97897e-08
0
0
-0.00224137
0.000167968
-1.09763e-05
-2.26399e-10
-0.000699583
0
3.69079e-05
-1.67528e-10
0.00144065
0.0021404
0
0
0
-3.73139e-06
-7.30312e-06
0
0
3.02711e-05
1.0159e-07
0
0.000438007
1.10897e-08
9.60149e-09
8.99934e-09
4.89873e-05
-2.26204e-09
5.36421e-09
-1.11403e-05
8.28019e-06
-2.84359e-09
-1.32159e-09
-2.11228e-06
-9.49467e-10
-2.46761e-10
-3.39008e-05
-1.10874e-06
9.41097e-10
-1.05988e-06
1.6013e-10
0
2.58382e-07
2.16567e-07
0
0
-3.31311e-06
4.83224e-07
0
-2.72438e-07
0
0
-2.41865e-07
0
1.97734e-09
0
1.3519e-07
0
4.76285e-08
0
0
-0.00126121
9.51035e-08
6.67043e-08
1.01802e-08
0.00113316
0
3.0791e-05
-4.24358e-10
4.4642e-08
0
-6.33895e-06
-6.49583e-09
0
3.45938e-06
0
6.67294e-06
-1.62087e-05
2.89258e-05
2.68499e-05
2.89764e-08
-0.000141192
-9.7098e-10
6.85202e-05
0.1631
1.82361e-09
0.000131068
0
0
4.96715e-07
0.200139
4.52366e-08
0.000444635
-0.000215618
3.44016e-09
0.000262089
5.79887e-06
0.245047
5.37155e-09
0.0005046
0
0.301075
-0.000344874
0.00166204
0
-4.01268e-05
-0.00303065
0
-4.82131e-07
8.24879e-05
0
-0.00467041
0
-1.86184e-05
3.26342e-07
-0.00741951
0
1.56775e-10
-7.14576e-09
-0.000207181
-6.97062e-06
0
-5.14407e-07
0
-2.71881e-08
0
7.75448e-08
0
2.8999e-06
1.06028e-07
0
3.554e-08
-1.31848e-09
-0.000177277
-1.48977e-09
-7.5824e-08
0.000364143
-7.2442e-05
-2.08617e-09
-5.26669e-08
-5.55845e-05
-1.30342e-09
-9.68302e-09
6.38968e-05
0
-2.35919e-07
-2.57399e-05
-2.15471e-06
6.0861e-08
0
-0.00715946
0
0.000691445
-0.0100345
5.61312e-09
-5.97363e-06
0.000527704
-0.0699504
0.00755967
-3.21738e-05
0.0201118
0
0
-1.89746e-06
-3.62895e-08
0.0402654
0
1.08496e-06
0.0477429
3.96325e-05
0.0709365
-1.31553e-10
7.36849e-05
0
0
6.64384e-08
0.0818196
-1.68569e-10
0
-1.43504e-07
3.4808e-08
0.001592
0
1.14572e-06
0.0134241
0
-2.81148e-07
0
0
0
1.73959e-06
0.00258309
0
-5.39783e-08
-1.5676e-09
-0.000274175
0
-3.39971e-08
-0.00116636
0
-6.27728e-07
-8.30862e-10
-0.0280528
0
-0.000401347
0.00510397
1.00011e-10
-2.24774e-08
-0.00638737
-3.11255e-08
-6.85212e-05
1.79013e-10
-6.89195e-08
0
-3.75253e-08
0
-7.74643e-05
-3.74132e-08
0
0
-2.47033e-05
1.66904e-08
-3.02875e-07
-2.50773e-10
-5.10137e-05
-2.34659e-10
-3.54167e-05
0
0.0199252
0
-3.9009e-05
0.0183141
0
0
7.41231e-06
-1.09974e-07
0.0553181
0
1.90966e-05
0
0.0628301
-1.00626e-10
0.000125365
0.0974781
-2.09942e-10
0.000194188
0
0
7.42921e-08
0.120214
-4.34561e-07
0.00386183
0
0
-3.72425e-07
-2.6838e-06
1.87942e-08
0.00547112
-1.31051e-07
-2.04718e-09
0
-0.00180631
0
-7.9053e-08
0
0
0.000849042
-4.52676e-05
-0.000116591
-0.0087919
0
-1.14564e-05
3.99432e-05
0
5.72078e-09
3.10333e-10
7.11638e-05
0
3.03961e-08
-1.577e-10
-9.91677e-07
-2.81841e-09
-0.0445179
-1.0548e-09
-5.36756e-07
0.0136555
0
0.0074591
-6.53949e-07
0.00987858
0
-7.71044e-09
2.57688e-05
0
0
2.12027e-05
0
1.28355e-05
0.000121053
1.25171e-07
4.27138e-05
-5.35904e-10
0.000143205
1.39462e-07
8.92431e-05
0.000114878
0.000112212
-1.73963e-09
0
0
-3.19965e-06
-0.000793296
0
3.84791e-08
3.22321e-09
-0.000592371
0
0
1.49834e-08
3.58984e-08
4.12284e-10
-2.1291e-10
9.18924e-08
2.9565e-10
-0.000988124
-0.0156945
-0.000278559
0.0237317
0
3.1668e-07
0.000568604
-3.22637e-07
0.0002687
0.001641
0
4.13182e-07
1.61185e-08
0.000737207
1.14978e-07
8.45378e-05
1.39742e-10
-0.0018571
-0.00156943
1.59033e-09
-5.15908e-10
-9.14729e-05
-3.2643e-09
0
-1.10896e-07
-4.76052e-09
-0.000253953
-2.98948e-09
0
6.28586e-08
7.09725e-05
-1.74094e-09
-4.57945e-08
0.0003243
-0.000112502
-1.63226e-07
-5.60557e-09
-1.28228e-06
0.00708544
-0.0446125
0
7.20099e-10
2.96973e-06
0.00896885
-0.0836423
0
0.00961226
-0.0569212
0
-1.16242e-06
1.46638e-07
-0.000427906
0
0
1.00594e-06
0.0151295
-1.28169e-06
0.0249983
1.69023e-06
0.0205575
0
-0.0273397
0
0.00372389
-0.00112272
-0.000848177
-0.00143919
3.04583e-10
-1.07835e-05
4.22269e-09
0.0122438
0
5.39595e-08
-7.35219e-06
1.65544e-08
0.00133387
0.000108299
-0.00115941
-1.4218e-05
0.0140649
3.09227e-08
-2.22867e-08
6.84434e-05
1.97759e-06
-1.63273e-08
2.31043e-06
1.58017e-10
4.075e-08
0
-1.89673e-05
0
-2.78793e-05
7.42321e-05
0.000162612
0.000100756
9.41679e-05
0.000150021
0
-0.000471859
-1.29148e-09
0.000111865
-0.000574758
0
-0.00660296
-0.0548812
-0.0666488
-5.22354e-09
-9.01588e-07
0.0167548
0
1.19417e-05
2.38645e-08
-1.30128e-10
-7.7792e-06
-1.05988e-05
-1.77248e-05
0.0159332
-3.90769e-06
0.00182336
0
0
-1.56346e-08
-1.01321e-05
4.7263e-08
0.00192892
0
-2.76876e-05
0.0192313
0
-1.27662e-08
5.20141e-08
9.34157e-07
-4.54757e-09
6.18448e-10
0.00137203
0
-2.26876e-07
-0.00738025
-7.12123e-06
-0.0139924
1.29442e-06
-1.30106e-07
0.000221622
0
1.10571e-06
2.12887e-08
-0.00272909
-1.31323e-07
0
2.24509e-06
-0.000230535
0
3.50981e-06
-1.65771e-08
0.0172899
0
0.000659196
-3.92863e-08
-0.0141949
0
0
1.05383e-06
-4.37901e-07
0.000352937
2.05613e-06
0.00218466
0
-3.52609e-06
0.105151
-0.00178646
0.00158921
-2.03115e-07
-6.43257e-10
4.12901e-09
0.000414726
0
2.48994e-07
-0.0326711
0
-5.4366e-06
-0.00999456
0
-4.21879e-07
-3.5293e-06
-0.000709586
0
2.15715e-07
-7.94815e-08
0.036196
0
6.5124e-06
2.89127e-09
-0.000421514
0
-3.56896e-08
-0.00111926
0
0
6.41635e-07
0.0111464
2.76847e-06
0.0494183
9.62589e-06
-2.02226e-07
-0.00345874
-1.36298e-08
-0.00281113
0
8.50964e-07
1.08254e-06
-1.5012e-05
-0.00167547
1.49037e-05
0.0651597
0
0
6.5974e-08
9.50943e-09
0
2.50145e-08
0
0.0421396
-6.28688e-05
2.39466e-09
1.48526e-05
-0.0795462
0.018473
1.33274e-09
-3.72855e-08
0.000235649
-4.04968e-05
-7.93726e-10
0
-0.0031045
0
-0.000296265
-0.0112047
-0.00060669
7.187e-05
0
-0.00882099
-0.000419198
-1.37638e-08
1.25543e-06
-1.56934e-08
-1.30362e-10
1.65937e-06
2.99752e-10
2.01811e-06
-5.49542e-06
2.94299e-09
2.31052e-08
0.000387822
0
-0.0117656
0
0
-1.16232e-08
5.05678e-07
-9.57589e-09
3.40007e-06
1.47129e-10
0
-0.00342223
0
-1.86052e-05
-3.0025e-05
0.000120462
0
0
-2.39427e-07
0.156772
-2.40592e-10
0.131605
5.20716e-10
4.0222e-05
0
-3.41422e-05
-1.72846e-05
0.000206509
0.192314
-2.67405e-10
0
2.40823e-05
-3.51828e-07
0.0832624
4.65299e-06
0.0255389
-0.0402291
-1.32528e-10
-1.12947e-05
-0.0705099
8.5873e-10
-7.32207e-05
0.0137507
-0.000180298
3.40182e-06
0.00889414
-4.89436e-09
-8.65471e-10
-0.000133823
-8.42732e-05
0.00481069
-2.28706e-09
-7.76444e-09
6.9017e-08
0
-1.71273e-06
-4.41204e-06
-0.023276
-0.00047238
-5.99857e-07
-5.02994e-10
0
-1.81876e-06
-0.00441941
6.17973e-07
-9.82271e-06
0.210974
1.77531e-09
-2.20338e-05
0
-2.89572e-05
-0.00276369
-0.00407041
-0.000681177
-5.17839e-06
0.0162043
0
0
-6.55308e-05
0
-1.67803e-05
5.23439e-07
-0.0032301
0
3.05117e-06
0.0127814
6.15987e-10
-1.21629e-05
-0.00343311
0
-0.0145148
0
-7.18626e-07
-0.006927
0
-0.000275384
-0.000524193
-0.00321596
-0.00295299
0
-0.000397656
-0.00029813
-0.0037034
0
-0.000255499
-0.00216783
4.33361e-05
1.47544e-09
-0.000402977
0
-5.06997e-07
-4.51635e-08
3.42933e-06
9.48682e-09
-0.000649919
0
4.47619e-09
8.21604e-10
-0.000233874
0
-0.0033244
-5.99618e-06
0.000510314
-7.12915e-05
5.79535e-05
-3.14562e-09
-0.000461808
0
-5.01979e-07
-1.9359e-08
3.20927e-05
1.89976e-09
0
1.61404e-05
0
8.41857e-09
0
-4.27084e-07
0.000137834
1.80034e-08
-3.47902e-05
-4.96308e-06
1.53313e-05
0
6.35649e-09
0
-6.55895e-09
0
-1.72486e-05
0
-4.38392e-06
0
-7.24682e-10
0.000123956
8.63379e-05
1.11751e-05
0.0123398
0
-4.35974e-07
0.0167214
0
0
2.86606e-06
3.60697e-07
-0.027732
0
0
-1.65875e-05
-4.60408e-07
-0.00635901
-1.63338e-06
-2.70256e-07
-0.00637257
0.000564569
2.00254e-09
1.52967e-07
3.0234e-09
0.000171611
2.33645e-10
-1.83424e-07
-0.00366339
0
-2.86482e-05
3.25609e-08
-0.00319603
0
0
-8.31881e-07
0
-2.31402e-05
6.91049e-07
-0.0488207
-1.81826e-10
-1.3364e-06
0
-4.3372e-07
-0.0198516
-3.46541e-06
0
0.00025504
2.1488e-09
0
3.48323e-06
-0.00348094
0
-2.33624e-06
0.0268769
2.84161e-06
0
2.59387e-05
-0.00263751
6.32795e-06
-0.00745385
-1.03901e-10
-0.00935454
-2.17874e-10
7.87282e-06
0.00109368
-1.3283e-05
-0.00681446
-0.104452
6.5597e-10
0
0
2.68714e-06
0.0105993
6.93227e-07
0
-1.76362e-05
4.45237e-09
0
1.35917e-06
0
-4.11068e-06
9.8642e-09
-6.82164e-06
0.000879534
-0.00597473
-2.61826e-05
-0.0587858
0
-4.43756e-05
4.11164e-10
4.06654e-06
8.25598e-06
0.020189
0
-9.44505e-08
8.26587e-09
0.000870259
-1.72323e-10
2.03595e-07
-0.0130974
1.12744e-06
-0.0107479
0
6.6439e-05
1.33623e-06
-0.0069449
-1.14242e-10
0
1.78207e-06
-7.10089e-05
-9.26749e-09
9.98551e-10
-0.0210123
0
-1.29476e-05
6.41502e-08
0.00303854
0
0.37186
1.1307e-08
3.14969e-08
0.000902494
0
1.32736e-05
0
0
4.7874e-09
-4.00339e-05
0
-6.33635e-09
-1.66958e-08
0.0213495
0
-1.42184e-06
5.05921e-07
-0.00583182
0
0
1.47621e-06
-0.0897825
0
-9.00894e-08
0.0166631
-0.00131125
-2.79837e-09
2.17803e-06
-1.25879e-07
0
1.79809e-06
0
0
0
2.14501e-07
0
-3.47281e-07
0
-0.00785973
9.62894e-05
5.78494e-07
1.26725e-09
-0.000309962
0
-0.000399974
-2.42871e-07
0.011149
0
0
3.97323e-07
2.5058e-07
0.00664987
0
4.6967e-07
0
0.103849
4.03967e-05
-3.11785e-05
-0.00332666
1.75856e-06
7.88357e-08
1.22095e-08
0.00243204
0
-3.79935e-05
-0.00111428
-1.6673e-09
-4.29871e-07
2.57437e-05
2.40675e-05
6.94944e-05
0.127875
1.84555e-06
-0.00446597
0
-7.63634e-07
-9.78693e-09
-1.43023e-06
0.0127755
-0.0721765
0
3.12952e-07
0
5.55707e-06
0
-2.14593e-05
0
-2.66342e-06
0
1.35121e-10
0
-0.00016727
7.81058e-05
2.79529e-06
-1.47369e-08
-4.25404e-05
0.00073379
-4.56417e-10
0
1.95389e-06
-0.00197673
1.0116e-09
3.67148e-06
-0.100318
6.08396e-09
-8.18107e-10
-0.000149109
1.26605e-06
0
-2.68587e-05
3.33867e-07
0.0100293
0
-4.80001e-09
-0.0645803
0
-2.53362e-06
7.66331e-06
-0.000118048
0
-0.00244936
7.60758e-05
-2.64862e-06
-0.025912
0
0.0105346
-0.0955616
-6.75466e-06
0
-2.15977e-05
-2.1638e-07
0
-3.38617e-06
0
-2.64064e-06
0.033224
7.2415e-06
0.0421016
-1.45284e-05
0
2.45333e-07
0
3.13083e-08
0
0
1.59765e-05
2.47928e-06
0
-0.000751656
7.4763e-10
0.0210431
-1.34279e-08
-0.000201194
4.93572e-05
-0.118129
-0.000225426
0
0.0334017
-0.000150456
-5.04305e-09
-0.136558
1.76099e-08
-0.000318666
-4.73169e-07
-6.31268e-09
1.35414e-10
1.68447e-05
0
0
-1.10879e-08
-2.46065e-09
-0.000459998
0
0
1.5362e-10
3.56064e-05
0
1.92985e-09
-1.97724e-08
-1.22274e-05
-2.59716e-10
-0.000153264
1.35766e-09
-0.000436512
0
6.59807e-05
0
0
7.12044e-09
-3.89937e-07
-1.62612e-10
-5.55347e-07
-0.000149536
-0.00840569
0.0300907
-0.0134219
0.000991756
-0.00466588
0.00215946
-0.035339
0.00630983
0
-0.0101249
0.00275708
-0.000600496
4.02189e-10
9.58048e-07
-0.00466912
-2.21677e-10
2.03437e-07
0.000360437
0
-0.00761786
0.000593161
0
0.000314468
1.26258e-09
0
6.74719e-08
-3.10728e-07
0.00521541
-9.94151e-05
-0.000732491
-7.67449e-07
0
0
-3.29855e-06
-0.0103726
0
2.88636e-07
0
-4.53658e-08
-0.000193897
-8.62317e-05
0.000862794
-1.5985e-09
7.98286e-08
0
-0.000104679
9.65974e-05
8.48182e-10
-0.000202231
0
0.00357985
0
-0.000111069
1.36755e-08
-2.26767e-05
-1.43802e-10
-4.39048e-07
-0.000864768
0
0
-6.70743e-06
1.33548e-07
-0.0152475
0
0
-3.68298e-08
0
-8.15869e-05
0
3.61824e-07
-1.7517e-08
0.0054765
0
2.00581e-08
-7.85857e-05
-0.000178749
-1.05409e-06
0.000371701
-0.010736
-1.98794e-06
0.000179015
0.00110991
-1.54645e-07
-0.000291256
0
-0.0168234
3.07357e-08
-0.00850506
0
0
9.53744e-07
0.000126484
0
5.55784e-08
-7.57452e-05
0.00028177
3.84582e-10
1.96488e-07
0.00345352
-0.000164396
8.4814e-05
7.2633e-06
0
0
-2.41593e-07
0.444268
-4.01577e-09
-0.00064034
-7.98547e-08
1.53106e-06
-0.00109458
0
5.0993e-06
0.0274471
0
-9.21944e-07
0.000416977
0
0
9.26566e-06
-0.000794724
4.7565e-07
1.7369e-06
0.03037
0
-0.00311984
1.62782e-05
0
0.0805066
-1.45827e-06
0.000140141
-0.0307162
-1.72607e-10
-1.61056e-09
0.00674522
2.20889e-06
0.104311
-1.617e-10
2.53104e-05
-6.85391e-05
-1.86404e-06
0.00021818
1.22634e-09
0
0
-2.31649e-07
0.0501359
0
7.32037e-07
-0.00325799
-1.29277e-05
0
0
2.64728e-07
0.155118
-0.00290234
0.000686642
0
-2.38339e-07
3.08054e-05
-0.0843208
2.8876e-09
-9.8531e-05
-0.0020291
0
5.20063e-05
-8.80505e-05
-0.00921216
-4.98176e-09
0
2.5317e-06
0.00119846
-0.00143451
0
-1.25686e-06
1.35514e-09
1.27335e-08
0.000184522
-1.4902e-10
-1.69655e-05
0
-2.71594e-08
-0.00108199
7.81005e-07
2.38637e-07
0
-0.00137426
-0.0355174
-2.00244e-10
5.9544e-05
-0.000895563
3.30275e-10
0.000134353
-1.87006e-10
0.000125013
0.000183479
-0.000254191
-6.27874e-07
0.000400768
5.69789e-10
-0.000583152
0
2.77092e-07
-4.11786e-06
0.000191537
0.0598153
1.06791e-05
0.00770144
2.74753e-06
0.000282289
-1.21712e-06
2.85384e-05
0.000135693
-1.08294e-08
-0.0054767
0
4.46071e-05
4.22861e-08
-0.00215306
0
0
-2.31798e-07
0.452305
-4.92837e-10
0.00118076
8.7944e-09
-0.00105049
0
0
1.05218e-07
0
-0.000656279
6.07429e-05
5.10183e-05
0
-0.000412469
-1.08921e-08
0.0177265
0
-2.19474e-05
-3.17961e-05
7.54243e-08
0.000650365
-0.000988335
-0.000876542
-0.00243059
0
1.54021e-07
0.000740882
6.50155e-08
4.27372e-09
0.000211419
0
2.03692e-07
-6.23524e-09
0.00426758
0.00164135
0
-0.00232471
-4.76607e-05
-8.73296e-08
1.06193e-08
0.00047854
0
-0.00297207
9.99244e-05
0
0
-6.62109e-07
0.363821
0.000832973
3.70513e-06
0.0160026
-7.88352e-07
0.000424579
0
0
2.5158e-08
0.201927
0.000309616
0
-3.75871e-05
-4.57554e-06
0.035834
-0.0032707
0.000274266
2.08392e-05
8.1104e-08
1.2657e-06
-0.0127142
0
4.86373e-08
5.58749e-05
0.000328942
0
7.41684e-08
-1.23992e-07
-1.54055e-05
-1.02734e-05
0.348112
-0.00214127
0.00017452
1.57505e-09
0.000290013
-2.61053e-07
5.92969e-05
-1.32032e-08
5.22192e-08
-1.87834e-05
0
0
0
2.74873e-06
-2.39768e-08
-1.76218e-10
-5.54015e-05
1.19772e-10
0.000102155
0
-2.29428e-08
0.000272811
1.21397e-06
0
4.03134e-10
-0.000357835
0
1.83989e-07
-2.63039e-09
0.00323724
0
0
-1.57619e-08
-4.33697e-09
0.000433947
0
-2.71609e-06
0.292941
-6.49722e-10
1.68184e-09
0.000549987
-6.70407e-05
0.00154293
0.560722
0
-7.32365e-09
0.00034423
0
0
-4.37531e-07
0.236743
2.32113e-07
0
0
-3.4756e-06
-2.69122e-08
5.5986e-07
1.90679e-10
-1.82382e-09
-7.77485e-05
-2.63919e-05
-4.66175e-10
-1.18825e-08
4.01493e-05
0.266923
-1.24317e-09
0.000251683
0
-4.58648e-08
3.44031e-10
-8.64127e-05
5.43468e-10
-1.29289e-07
0.00155553
0
0.00159
0
-2.00969e-09
-0.000215991
-4.26724e-08
-8.33116e-05
3.78696e-10
0
6.77172e-08
6.40908e-09
0.00148893
-2.95103e-08
0.00182171
-1.39142e-05
-1.71763e-05
0
-5.42585e-05
-2.87284e-05
-9.19671e-05
-7.13768e-05
-4.13944e-05
6.48105e-06
0
0.000157012
-5.41739e-08
1.04999e-10
-0.000113042
-1.3232e-07
8.15448e-08
0
1.45535e-05
-3.5325e-05
0
3.07476e-08
-0.000215631
-0.00121904
0
0.00227654
0
1.18022e-07
-0.000108301
-6.14968e-10
2.40282e-08
1.46831e-05
1.09026e-08
1.04106e-08
0.00187994
0
0
-6.66061e-08
-4.40279e-05
-3.90395e-05
0
-1.68669e-08
-0.000413629
-0.0195185
0
-7.16402e-08
-0.00147354
0
0
-6.01694e-08
7.29536e-09
0.00031581
-5.67852e-08
-4.60569e-05
0
0
4.68523e-07
-1.06336e-07
0.00818925
0
2.89966e-07
2.17601e-10
0
0
1.54344e-06
0.00614816
0
1.55094e-07
0.00444069
0
0
1.64886e-09
-8.37757e-09
1.32548e-09
5.39986e-09
-0.00632222
7.78477e-07
4.83162e-08
-0.00179834
0
-1.25232e-07
8.36971e-08
-4.95814e-05
-1.03138e-09
6.54303e-06
0
-1.23794e-05
3.64768e-09
0
8.41223e-06
-7.19451e-06
0
5.7292e-09
0
-1.08147e-05
0
0
-9.11797e-05
-2.57594e-09
0
-1.65425e-05
0
0
8.32587e-09
1.1215e-05
0
-1.23511e-05
-3.97981e-09
5.51467e-06
-2.64632e-05
1.18143e-08
4.14521e-09
-0.00419663
0
-6.46152e-07