# vtk DataFile Version 2.0
Unstructured Grid by M++
ASCII
DATASET UNSTRUCTURED_GRID
POINTS 1072 float
  0.718750   0.687500 0
  0.906250   0.906250 0
  0.562500   0.843750 0
  0.562500   0.812500 0
  0.812500   0.781250 0
  0.750000   1.000000 0
  0.750000   0.968750 0
  0.718750   0.656250 0
  0.687500   0.656250 0
  0.843750   0.781250 0
  0.968750   0.906250 0
  0.625000   0.656250 0
  0.937500   0.843750 0
  0.593750   0.593750 0
  0.531250   0.875000 0
  0.718750   0.968750 0
  0.718750   0.937500 0
  0.968750   0.875000 0
  0.625000   0.625000 0
  0.812500   0.718750 0
  0.562500   0.906250 0
  0.781250   1.000000 0
  0.968750   0.593750 0
  0.968750   0.562500 0
  0.937500   0.593750 0
  0.531250   0.843750 0
  0.531250   0.812500 0
  0.656250   0.625000 0
  0.656250   0.656250 0
  1.000000   0.906250 0
  0.843750   0.750000 0
  0.937500   0.906250 0
  0.812500   0.750000 0
  0.593750   0.875000 0
  0.593750   0.843750 0
  0.875000   0.781250 0
  0.531250   0.531250 0
  0.843750   0.812500 0
  0.812500   0.812500 0
  0.875000   0.843750 0
  0.843750   0.843750 0
  0.562500   0.875000 0
  0.562500   0.531250 0
  0.906250   0.718750 0
  0.625000   0.906250 0
  0.531250   0.562500 0
  0.875000   0.812500 0
  1.000000   0.625000 0
  0.593750   0.906250 0
  0.625000   0.593750 0
  0.656250   0.968750 0
  0.562500   0.562500 0
  0.906250   0.812500 0
  0.656250   0.718750 0
  1.000000   0.968750 0
  0.593750   0.937500 0
  0.687500   0.687500 0
  0.906250   0.875000 0
  0.593750   0.531250 0
  0.625000   0.937500 0
  0.937500   0.562500 0
  1.000000   0.937500 0
  0.656250   0.687500 0
  0.937500   0.531250 0
  0.968750   0.937500 0
  0.562500   0.593750 0
  0.687500   0.968750 0
  0.875000   0.875000 0
  0.625000   0.875000 0
  0.937500   0.875000 0
  0.593750   0.625000 0
  0.718750   0.531250 0
  1.000000   0.687500 0
  0.968750   0.625000 0
  0.656250   0.593750 0
  0.687500   1.000000 0
  0.687500   0.937500 0
  0.687500   0.625000 0
  0.937500   0.625000 0
  0.593750   0.562500 0
  0.968750   0.656250 0
  0.750000   0.687500 0
  0.656250   0.906250 0
  0.656250   0.937500 0
  0.625000   0.562500 0
  0.781250   0.687500 0
  0.750000   0.718750 0
  0.781250   0.718750 0
  0.750000   0.750000 0
  0.531250   0.781250 0
  0.781250   0.750000 0
  1.000000   0.656250 0
  0.906250   0.500000 0
  0.906250   0.593750 0
  0.718750   1.000000 0
  0.843750   0.531250 0
  0.875000   0.531250 0
  0.875000   0.562500 0
  0.781250   0.781250 0
  0.718750   0.718750 0
  0.906250   0.562500 0
  0.781250   0.843750 0
  1.000000   0.593750 0
  0.125000   0.875000 0
  0.750000   0.625000 0
  0.250000   0.375000 0
  0.687500   0.875000 0
  0.187500   0.625000 0
  0.312500   0.781250 0
  0.500000   0.031250 0
  0.375000   0.531250 0
  0.437500   0.281250 0
  0.062500   0.781250 0
  0.687500   0.531250 0
  0.187500   0.281250 0
  0.625000   0.781250 0
  0.125000   0.531250 0
  0.718750   0.906250 0
  0.218750   0.656250 0
  0.156250   0.906250 0
  0.781250   0.656250 0
  0.281250   0.406250 0
  0.156250   0.875000 0
  0.718750   0.875000 0
  0.218750   0.625000 0
  0.781250   0.625000 0
  0.281250   0.375000 0
  0.406250   0.875000 0
  0.468750   0.625000 0
  0.593750   0.125000 0
  0.562500   0.937500 0
  0.062500   0.687500 0
  0.625000   0.687500 0
  0.125000   0.437500 0
  0.000000   0.937500 0
  0.062500   0.625000 0
  0.125000   0.375000 0
  0.187500   0.125000 0
  0.000000   0.875000 0
  0.093750   0.781250 0
  0.656250   0.781250 0
  0.156250   0.531250 0
  0.437500   0.968750 0
  0.625000   0.218750 0
  0.187500   0.843750 0
  0.437500   0.843750 0
  0.625000   0.093750 0
  0.093750   0.593750 0
  0.218750   0.093750 0
  0.156250   0.343750 0
  0.031250   0.843750 0
  0.812500   0.937500 0
  0.312500   0.687500 0
  0.875000   0.687500 0
  0.375000   0.437500 0
  0.250000   0.937500 0
  0.281250   0.531250 0
  0.406250   0.031250 0
  0.343750   0.281250 0
  0.218750   0.781250 0
  0.031250   0.531250 0
  0.093750   0.281250 0
  0.156250   0.031250 0
  0.375000   0.781250 0
  0.937500   0.781250 0
  0.437500   0.531250 0
  0.562500   0.031250 0
  0.187500   0.875000 0
  0.750000   0.875000 0
  0.250000   0.625000 0
  0.812500   0.625000 0
  0.312500   0.375000 0
  0.437500   0.875000 0
  0.625000   0.125000 0
  0.093750   0.625000 0
  0.218750   0.125000 0
  0.156250   0.375000 0
  0.031250   0.875000 0
  0.000000   0.906250 0
  0.125000   0.406250 0
  0.187500   0.156250 0
  0.062500   0.656250 0
  0.000000   0.968750 0
  0.625000   0.718750 0
  0.125000   0.468750 0
  0.562500   0.968750 0
  0.062500   0.718750 0
  0.687500   0.812500 0
  0.187500   0.562500 0
  0.125000   0.812500 0
  0.750000   0.562500 0
  0.250000   0.312500 0
  0.406250   1.000000 0
  0.968750   1.000000 0
  0.468750   0.750000 0
  0.656250   0.000000 0
  0.593750   0.250000 0
  0.531250   0.500000 0
  0.562500   1.000000 0
  0.062500   0.750000 0
  0.000000   1.000000 0
  0.625000   0.750000 0
  0.125000   0.500000 0
  0.406250   0.937500 0
  0.468750   0.687500 0
  0.593750   0.187500 0
  0.187500   0.906250 0
  0.750000   0.906250 0
  0.250000   0.656250 0
  0.812500   0.656250 0
  0.312500   0.406250 0
  0.750000   0.937500 0
  0.250000   0.687500 0
  0.812500   0.687500 0
  0.312500   0.437500 0
  0.187500   0.937500 0
  0.468750   1.000000 0
  0.718750   0.000000 0
  0.812500   1.000000 0
  0.312500   0.750000 0
  0.250000   1.000000 0
  0.875000   0.750000 0
  0.375000   0.500000 0
  0.093750   0.812500 0
  0.718750   0.562500 0
  0.218750   0.312500 0
  0.656250   0.812500 0
  0.156250   0.562500 0
  0.687500   0.125000 0
  0.656250   0.875000 0
  0.156250   0.625000 0
  0.093750   0.875000 0
  0.718750   0.625000 0
  0.218750   0.375000 0
  0.125000   1.000000 0
  0.250000   0.500000 0
  0.312500   0.250000 0
  0.375000   0.000000 0
  0.187500   0.750000 0
  0.250000   0.906250 0
  0.156250   0.968750 0
  0.218750   0.718750 0
  0.343750   0.218750 0
  0.281250   0.468750 0
  0.625000   0.843750 0
  0.125000   0.593750 0
  0.062500   0.843750 0
  0.687500   0.593750 0
  0.187500   0.343750 0
  0.468750   0.843750 0
  0.312500   0.812500 0
  0.437500   0.312500 0
  0.500000   0.062500 0
  0.375000   0.562500 0
  0.062500   0.812500 0
  0.687500   0.562500 0
  0.187500   0.312500 0
  0.625000   0.812500 0
  0.125000   0.562500 0
  0.125000   0.625000 0
  0.250000   0.125000 0
  0.187500   0.375000 0
  0.062500   0.875000 0
  0.468750   0.875000 0
  0.656250   0.125000 0
  0.062500   0.937500 0
  0.250000   0.187500 0
  0.187500   0.437500 0
  0.125000   0.687500 0
  0.062500   1.000000 0
  0.687500   0.750000 0
  0.187500   0.500000 0
  0.625000   1.000000 0
  0.125000   0.750000 0
  0.218750   0.875000 0
  0.781250   0.875000 0
  0.281250   0.625000 0
  0.843750   0.625000 0
  0.343750   0.375000 0
  0.281250   0.656250 0
  0.843750   0.656250 0
  0.343750   0.406250 0
  0.718750   0.843750 0
  0.218750   0.593750 0
  0.781250   0.593750 0
  0.281250   0.343750 0
  0.156250   0.843750 0
  0.093750   0.968750 0
  0.218750   0.468750 0
  0.281250   0.218750 0
  0.156250   0.718750 0
  0.031250   0.906250 0
  0.156250   0.406250 0
  0.218750   0.156250 0
  0.093750   0.656250 0
  0.031250   0.968750 0
  0.593750   0.968750 0
  0.093750   0.718750 0
  0.718750   0.812500 0
  0.218750   0.562500 0
  0.781250   0.562500 0
  0.281250   0.312500 0
  0.156250   0.812500 0
  0.125000   0.968750 0
  0.250000   0.468750 0
  0.312500   0.218750 0
  0.187500   0.718750 0
  0.062500   0.906250 0
  0.250000   0.156250 0
  0.187500   0.406250 0
  0.125000   0.656250 0
  0.062500   0.968750 0
  0.687500   0.718750 0
  0.187500   0.468750 0
  0.625000   0.968750 0
  0.125000   0.718750 0
  0.500000   0.781250 0
  0.625000   0.281250 0
  0.687500   0.031250 0
  0.156250   0.937500 0
  0.281250   0.437500 0
  0.218750   0.687500 0
  0.187500   0.968750 0
  0.250000   0.718750 0
  0.375000   0.218750 0
  0.312500   0.468750 0
  0.312500   0.531250 0
  0.375000   0.281250 0
  0.437500   0.031250 0
  0.250000   0.781250 0
  0.812500   0.843750 0
  0.312500   0.593750 0
  0.875000   0.593750 0
  0.375000   0.343750 0
  0.250000   0.843750 0
  0.656250   0.843750 0
  0.156250   0.593750 0
  0.718750   0.593750 0
  0.218750   0.343750 0
  0.500000   0.843750 0
  0.687500   0.093750 0
  0.625000   0.343750 0
  0.218750   0.968750 0
  0.781250   0.968750 0
  0.281250   0.718750 0
  0.843750   0.718750 0
  0.343750   0.468750 0
  0.218750   1.000000 0
  0.281250   0.750000 0
  0.468750   0.000000 0
  0.343750   0.500000 0
  0.406250   0.250000 0
  0.125000   0.906250 0
  0.750000   0.656250 0
  0.250000   0.406250 0
  0.687500   0.906250 0
  0.187500   0.656250 0
  0.250000   0.750000 0
  0.312500   0.500000 0
  0.437500   0.000000 0
  0.375000   0.250000 0
  0.187500   1.000000 0
  0.156250   0.656250 0
  0.281250   0.156250 0
  0.218750   0.406250 0
  0.093750   0.906250 0
  0.687500   0.156250 0
  0.812500   0.968750 0
  0.312500   0.718750 0
  0.250000   0.968750 0
  0.875000   0.718750 0
  0.375000   0.468750 0
  0.781250   0.937500 0
  0.281250   0.687500 0
  0.218750   0.937500 0
  0.843750   0.687500 0
  0.343750   0.437500 0
  0.687500   0.843750 0
  0.187500   0.593750 0
  0.750000   0.593750 0
  0.250000   0.343750 0
  0.125000   0.843750 0
  0.562500   0.750000 0
  0.062500   0.500000 0
  0.343750   1.000000 0
  0.968750   0.750000 0
  0.468750   0.500000 0
  0.906250   1.000000 0
  0.406250   0.750000 0
  0.593750   0.000000 0
  0.531250   0.250000 0
  0.031250   0.781250 0
  0.156250   0.281250 0
  0.593750   0.781250 0
  0.093750   0.531250 0
  0.031250   0.812500 0
  0.656250   0.562500 0
  0.156250   0.312500 0
  0.593750   0.812500 0
  0.093750   0.562500 0
  0.312500   0.968750 0
  0.937500   0.718750 0
  0.437500   0.468750 0
  0.875000   0.968750 0
  0.375000   0.718750 0
  0.312500   1.000000 0
  0.875000   1.000000 0
  0.375000   0.750000 0
  0.937500   0.750000 0
  0.437500   0.500000 0
  0.562500   0.000000 0
  0.281250   0.968750 0
[...]
CELL_DATA 1912
VECTORS vector_value float
0.0598706 -1.00819 0
-0.563295 -0.930615 0
0.173412 -0.894652 0
-0.172939 -0.540259 0
0.173412 -0.951412 0
-0.172939 -0.949293 0
-0.0711736 -0.894652 0
0.517223 -0.540259 0
-0.0187126 -1.17947 0
0.0596273 -1.12189 0
-0.0187126 -1.12516 0
0.0596273 -1.02099 0
-0.0684084 -1.12516 0
0 -1.02099 0
-0.0825436 -1.18899 0
0 -1.08062 0
0.0374699 -0.963484 0
-0.0522668 -0.963484 0
-0.0748303 -0.986047 0
-0.0522668 -1.01597 0
4.27889e-05 -1.12111 0
-0.062009 -1.04 0
0.0543652 -1.06679 0
-0.0287044 -1.0067 0
0.0543652 -1.11336 0
-0.0287044 -1.0341 0
0.0118973 -1.06679 0
-0.0753543 -1.0067 0
-0.191617 -0.930615 0
-0.191617 -1.02933 0
-0.0976979 -1.02933 0
-0.111585 -0.949293 0
0.418734 -1.29761 0
-0.351125 -1.11471 0
0.0539389 -1.29761 0
-0.129207 -1.11471 0
0.211485 -1.14007 0
-0.143017 -1.12852 0
0.0539389 -1.15108 0
-0.129207 -1.09935 0
0.0143452 -1.13523 0
0.143964 -0.925008 0
0.0143452 -1.0922 0
0.143964 -0.815333 0
-0.0458119 -1.0922 0
-0.0933904 -0.815333 0
-0.0509054 -1.15745 0
0.0150525 -0.944245 0
-0.112025 -1.09633 0
0.0597161 -0.988908 0
-0.0992105 -1.08351 0
0.00799349 -1.04063 0
-0.0992105 -1.05725 0
0.00799349 -1.04698 0
-0.334548 -1.08351 0
0.0526175 -1.04063 0
-0.0601296 -1.09633 0
-0.0500797 -0.988908 0
-0.0601296 -1.07261 0
-0.0500797 -1.02298 0
-0.0341336 -1.07261 0
-0.308422 -1.02298 0
-0.0447669 -1.05725 0
-0.0740849 -1.04698 0
-0.0419525 -1.11269 0
-0.0419525 -1.16556 0
-0.325784 -1.16556 0
0 -1.08851 0
0.00696149 -1.07504 0
-0.0467167 -0.837839 0
-0.0750957 -1.05396 0
-0.0763193 -1.01597 0
0.0057654 -1.07504 0
0.1565 -0.837839 0
0.0018951 -1.07891 0
0.0460817 -0.948257 0
-0.053429 -1.01714 0
0.0057654 -1.09044 0
0.1565 -0.949218 0
0.116449 -1.0324 0
-0.0382718 -1.14863 0
0.116449 -1.10072 0
-0.0382718 -1.1987 0
0.0724559 -1.05981 0
-0.10844 -1.13853 0
0.0802339 -1.0324 0
-0.0718413 -1.14863 0
0.351598 -1.31537 0
-0.0126503 -1.11828 0
-0.325784 -1.74986 0
0.351557 -0.949218 0
0.0057174 -1.41836 0
0.0057174 -1.7613 0
-0.121243 -0.961023 0
-0.0729846 -1.41836 0
0.0813348 -1.14524 0
0.00138555 -1.01714 0
0.155538 -0.948257 0
-0.127191 -1.10907 0
-0.0684084 -1.08906 0
-0.0600665 -1.14956 0
0 -1.0746 0
-0.0903704 -1.08892 0
0.00494101 -1.17142 0
-0.102813 -1.10052 0
0.0538366 -1.10168 0
-0.0951906 -1.20555 0
0.0900494 -1.0588 0
-0.098024 -1.10615 0
0.0143652 -1.08306 0
0.0100977 -1.34609 0
-0.115409 -1.07954 0
0.155538 -1.14524 0
0.00138555 -0.999568 0
-0.147822 -0.928255 0
-0.0648079 -1.09053 0
0.0316619 -1.10735 0
0.010261 -1.11096 0
-0.0825436 -1.11102 0
0.0984391 -1.08455 0
0.232105 -1.08869 0
-0.12013 -1.34293 0
0.433532 -1.31549 0
0.124271 -1.11413 0
0.0138776 -1.10735 0
-0.0341336 -1.0784 0
-0.308422 -1.60183 0
-0.341029 -1.6866 0
0.42676 -0.954364 0
-0.0177098 -1.06198 0
0.0360916 -1.25731 0
-0.0456355 -1.0871 0
-0.14928 -0.923776 0
0.00264018 -1.69188 0
0.292439 -1.02316 0
-0.0447669 -1.06198 0
-0.0740849 -1.25731 0
0.139571 -1.21662 0
-0.0509054 -1.0871 0
0.0150525 -0.923776 0
-0.0458119 -1.08728 0
-0.0933904 -0.867886 0
-0.0456355 -1.08411 0
-0.14928 -0.863834 0
-0.0616441 -1.09053 0
0.0247528 -0.928255 0
-0.099939 -1.07008 0
-0.0709127 -1.27594 0
0.323307 -0.895227 0
0.00930632 -1.07243 0
0.0246416 -1.00485 0
0.00911107 -1.02038 0
0.00911107 -0.993047 0
0.128587 -1.08995 0
-0.0310693 -1.1128 0
-0.115409 -0.881854 0
0.0915653 -1.08995 0
0.0479553 -1.1128 0
0.0138776 -1.13872 0
-0.0155347 -1.08627 0
0.355539 -1.34609 0
-0.0886038 -1.01872 0
-0.0358207 -0.90426 0
-0.0167783 -1.33634 0
0.0426391 -1.04227 0
0.052303 -1.17427 0
0.0360916 -1.67401 0
-0.0177098 -1.0746 0
0 -0.972133 0
-0.0155347 -1.08162 0
-0.118193 -1.06472 0
0.343106 -1.31194 0
-0.0729846 -1.1966 0
0.104748 -1.02316 0
-0.00950969 -1.09802 0
-0.307636 -0.887313 0
0.0209138 -0.972133 0
-0.022835 -1.06675 0
-0.0850645 -1.12898 0
0.223646 -0.954364 0
0.0127501 -0.963969 0
-0.00325141 -1.07512 0
-0.0864532 -1.06849 0
-0.0149614 -1.3139 0
-0.0638894 -1.05554 0
-0.0310693 -1.08782 0
0.128587 -0.892401 0
-0.00950969 -1.09291 0
0.104748 -1.04483 0
0.546515 -0.522457 0
0.0209138 -1.00485 0
0.131414 -0.895227 0
-0.0464624 -1.07243 0
-0.0324699 -1.06934 0
0 -0.959383 0
-0.0711736 -1.03298 0
-0.062009 -1.02005 0
4.27889e-05 -1.05493 0
0 -1.00539 0
0.137009 -1.03071 0
0.323307 -1.32169 0
0.00930632 -1.07415 0
0.0246416 -1.06966 0
-0.148912 -0.522457 0
-0.0330238 -1.04483 0
-0.022835 -1.1084 0
-0.0974413 -1.06916 0
0.21682 -1.13523 0
0.352327 -0.925008 0
-0.0139104 -1.0784 0
-0.0231775 -1.10658 0
0.0617939 -0.963969 0
0.163201 -0.944245 0
0.0365624 -1.15745 0
-0.0974413 -1.03726 0
-0.0886038 -1.01544 0
-0.0536828 -1.07941 0
-0.090422 -0.870855 0
-0.0284221 -1.08411 0
-0.491001 -0.863834 0
-0.0314236 -1.32169 0
0.0745255 -1.07415 0
-0.146448 -1.12277 0
0.114322 -1.03655 0
-0.162678 -1.02005 0
0.0222948 -1.05493 0
-0.0750957 -1.06675 0
-0.0576272 -1.07954 0
-0.0222999 -1.04082 0
0.0617939 -1.042 0
0.0127501 -0.959383 0
-0.00325141 -1.06934 0
0.223646 -0.90426 0
-0.0648079 -1.04762 0
-0.147822 -0.871944 0
-0.0424671 -1.08728 0
-0.145228 -0.867886 0
-0.162209 -1.33634 0
0.0910589 -1.04227 0
-0.11442 -1.06849 0
0.123584 -1.09241 0
-0.0628301 -1.04827 0
-0.120868 -0.508705 0
0.163201 -1.11413 0
0.0365624 -1.31549 0
0.0100977 -1.19935 0
0.292439 -1.08869 0
0.00264018 -1.34293 0
-0.121243 -1.08627 0
-0.015995 -0.930638 0
-0.00261738 -1.06997 0
-0.0324699 -0.9975 0
-0.0167783 -1.66178 0
0.0426391 -1.04082 0
0.052303 -1.042 0
0.00281352 -1.41546 0
0.085339 -0.999568 0
-0.375775 -1.69533 0
0.343106 -0.919496 0
-0.118193 -0.985961 0
-0.10844 -1.10615 0
0.0724559 -1.08306 0
-0.0903704 -1.11102 0
0.00494101 -1.08455 0
-0.0779216 -1.05678 0
-0.0330238 -1.07941 0
-0.148912 -0.870855 0
0.0183566 -1.08062 0
-0.00919292 -1.18899 0
-0.015995 -0.975378 0
-0.00261738 -1.03949 0
-0.0763193 -1.03726 0
-0.0358207 -1.04762 0
-0.498399 -0.871944 0
0.0460817 -0.930638 0
0.0018951 -1.06997 0
0.0183566 -1.11828 0
-0.00919292 -1.31537 0
0.0147499 -1.12189 0
0.126702 -1.17947 0
-0.0467167 -0.961359 0
0.00696149 -1.06039 0
-0.0284221 -1.09291 0
-0.362415 -1.6997 0
-0.0936006 -0.989845 0
-0.311363 -1.61956 0
-0.0139104 -1.08851 0
-0.0850645 -1.05678 0
-0.0917327 -1.02185 0
-0.127191 -1.33664 0
0.00064429 -1.33664 0
0.00064429 -1.70098 0
-0.173835 -0.937416 0
0.0322619 -1.68409 0
0.0915653 -1.1987 0
0.0479553 -1.10072 0
-0.0753543 -0.932722 0
0.0118973 -1.06533 0
0 -0.975378 0
0.00951577 -1.03949 0
0.0322619 -1.27594 0
-0.173835 -1.07008 0
-0.11953 -1.05116 0
-0.11953 -1.10141 0
-0.362415 -1.10141 0
-0.0314236 -1.20555 0
0.0745255 -1.0588 0
-0.162678 -0.911643 0
0.0222948 -1.07095 0
-0.0424671 -1.09816 0
-0.145228 -0.518061 0
0.545121 -0.518061 0
-0.0231775 -1.09816 0
0.618802 -0.559208 0
-0.121406 -0.989845 0
-0.121406 -0.559208 0
-0.499614 -0.937416 0
-0.0917327 -1.03155 0
-0.0976979 -1.02453 0
-0.111585 -1.01544 0
-0.162209 -1.13853 0
0.0910589 -1.05981 0
-0.375775 -1.12277 0
0.085339 -1.03655 0
0.0813348 -1.33694 0
-0.146448 -1.10052 0
0.114322 -1.10168 0
0.653422 -0.566404 0
0.0460572 -1.17459 0
0.00020844 -1.16319 0
-0.084766 -0.9975 0
-0.0300134 -0.961359 0
0.0182902 -1.06039 0
0.0120286 -1.16277 0
-0.479386 -0.961023 0
0.00020844 -1.17459 0
-0.084766 -0.566404 0
-0.0300134 -1.00539 0
0.0182902 -1.03071 0
0 -0.892401 0
-0.0696504 -1.08782 0
0 -0.993047 0
-0.11442 -1.08892 0
0.123584 -1.17142 0
-0.0902234 -1.06472 0
-0.0169271 -1.31194 0
-0.0735074 -1.06463 0
0 -0.760987 0
-0.0902234 -1.08906 0
-0.0169271 -1.14956 0
0.0598706 -1.0257 0
-0.0638894 -1.0257 0
0.137985 -0.851184 0
-0.162483 -0.558757 0
-0.0464624 -1.06463 0
0.131414 -0.760987 0
0.137985 -0.919496 0
-0.162483 -0.985961 0
-0.551445 -0.947719 0
0.0374699 -0.951699 0
0.351557 -1.41546 0
0.566068 -0.558757 0
-0.0748303 -0.851184 0
-0.0821937 -1.02185 0
-0.0779216 -1.03886 0
-0.0821937 -0.986047 0
0.565978 -0.53974 0
0.010261 -1.08594 0
0.0120286 -1.14057 0
-0.141599 -0.932722 0
0.0166709 -1.06533 0
-0.141599 -0.53974 0
0.0166709 -1.08594 0
-0.513502 -0.911643 0
0.0316619 -1.07095 0
0 -1.09802 0
-0.351125 -1.6722 0
0 -1.09897 0
-0.143017 -1.32282 0
-0.000950853 -1.09897 0
-0.00174413 -1.32282 0
-0.000950853 -1.10658 0
-0.00174413 -1.66871 0
0 -1.00216 0
-0.334548 -1.66769 0
0.0526175 -1.09191 0
-0.112025 -1.30604 0
0.0597161 -1.04773 0
0.0271093 -1.30604 0
0.096797 -1.04773 0
0.0271093 -1.72191 0
0.096797 -1.14161 0
-0.200725 -0.947719 0
0.170188 -0.951699 0
-0.0864532 -1.03298 0
-0.0149614 -1.67 0
-0.200725 -1.06849 0
0.170188 -1.09241 0
0.00281352 -1.34257 0
0.351598 -0.913391 0
-0.0126503 -1.11711 0
0.0147499 -1.14568 0
0.126702 -1.09047 0
-0.0412228 -1.14568 0
0.174518 -1.09047 0
-0.0893075 -1.12528 0
0.0316159 -1.04222 0
-0.0412228 -1.11801 0
0.174518 -0.938118 0
-0.0718413 -1.10781 0
0.0802339 -0.993599 0
-0.098024 -1.09935 0
0.0143652 -1.15108 0
-0.0951906 -1.12528 0
0.0900494 -1.04222 0
-0.0893075 -1.09743 0
0.0316159 -1.06581 0
-0.100036 -1.12852 0
0.042921 -1.14007 0
-0.0628301 -1.05396 0
-0.120868 -0.881854 0
-0.053429 -1.03886 0
-0.499475 -0.887313 0
-0.0222999 -1.04827 0
0.517936 -0.508705 0
0.433532 -0.967777 0
0.124271 -1.21982 0
0.21682 -1.09878 0
0.352327 -1.34219 0
0.302531 -1.09878 0
0.00190305 -1.34219 0
0.302531 -1.01826 0
0.00190305 -1.22089 0
0.0470984 -1.09191 0
0.232105 -1.11336 0
0 -1.0341 0
0.0470984 -1.14057 0
0.0460572 -1.14161 0
0.137009 -1.01826 0
-0.0448463 -1.22089 0
-0.400986 -1.69993 0
-0.0735074 -1.05554 0
-0.0696504 -1.06849 0
-0.181272 -1.3139 0
0 -1.05689 0
0.42676 -1.28334 0
-0.0227953 -1.04 0
0.0621192 -1.12111 0
0.0621192 -1.28334 0
-0.0227953 -1.05689 0
-0.0421279 -1.11711 0
0.149791 -0.913391 0
-0.0616441 -1.11801 0
0.0247528 -0.938118 0
-0.0421279 -1.0985 0
0.149791 -0.81308 0
-0.0789246 -1.07642 0
-0.0405916 -1.03549 0
-0.0536828 -1.0985 0
-0.090422 -0.81308 0
-0.311363 -1.03549 0
-0.0936006 -1.07642 0
-0.0789246 -1.10781 0
-0.0405916 -0.993599 0
-0.099939 -1.09743 0
-0.0709127 -1.06581 0
-0.102813 -1.10136 0
0.0538366 -1.12253 0
0.042921 -1.12253 0
-0.100036 -1.10136 0
0.00083059 -1.21982 0
0.252049 -0.967777 0
0.252049 -0.903219 0
0.00083059 -1.17522 0
0.00951577 -0.903219 0
-0.011817 -1.17522 0
-0.0141148 -1.12249 0
-0.174761 -1.14175 0
-0.0141148 -1.28092 0
-0.174761 -1.1006 0
-0.186508 -1.10853 0
-0.137018 -1.13834 0
-0.385462 -1.28092 0
-0.133964 -1.1006 0
-0.259331 -1.00914 0
-0.0567501 -1.18392 0
-0.259331 -1.09419 0
-0.0567501 -1.08493 0
-0.400986 -0.952533 0
0.0194876 -1.16117 0
-0.181272 -1.09419 0
-0.0343548 -1.08493 0
0.0822587 -0.836221 0
-0.132699 -0.836221 0
-0.132699 -0.89616 0
-0.0397843 -0.929135 0
0.0407407 -1.02141 0
0.0407407 -1.0157 0
0.0583264 -1.03329 0
0.0756736 -1.0157 0
-0.0514649 -1.20971 0
-0.0514649 -1.38326 0
-0.176279 -1.25845 0
-0.377284 -1.38326 0
-0.16566 -1.08826 0
0.280315 -1.08488 0
0.00134316 -1.74584 0
0.204546 -0.902506 0
0.0675955 -1.43496 0
0.0311523 -1.27754 0
-0.00906719 -1.06563 0
0.0268888 -1.00855 0
0.400642 -1.10557 0
0.140102 -1.00086 0
0.168516 -1.02705 0
0.201223 -0.921262 0
-0.00647362 -1.06823 0
0.040886 -0.893546 0
-0.388025 -1.33253 0
-0.0485569 -1.00596 0
-0.0422516 -0.981959 0
0.0322734 -1.00317 0
-0.182875 -0.93655 0
0.168516 -1.10557 0
0.201223 -1.00086 0
-0.0144473 -1.13956 0
-0.0485569 -1.0425 0
-0.0422516 -1.00418 0
0.0445408 -0.984569 0
0.0322734 -1.00625 0
-0.00906719 -1.08636 0
0.156983 -1.09403 0
0.146009 -0.945644 0
-0.011817 -1.14219 0
0.0895802 -1.35075 0
-0.0774969 -1.01357 0
-0.0393327 -1.0071 0
0.0345747 -1.00855 0
0.0731964 -1.07215 0
-0.0130691 -1.03411 0
0.171443 -1.07215 0
-0.0969042 -1.06205 0
0.27483 -0.951607 0
-0.00851771 -1.35909 0
0.143672 -1.05582 0
-0.0969042 -1.01951 0
0.27483 -1.09036 0
-0.00941852 -1.00502 0
0.0154209 -1.08162 0
0.113469 -1.13012 0
-0.0843117 -1.0321 0
0.211485 -1.02702 0
-0.171415 -1.14509 0
0.13854 -1.27515 0
0.139571 -1.15622 0
0.00799724 -1.04768 0
-0.182875 -0.978937 0
-0.026712 -1.05833 0
0.171952 -0.605655 0
-0.0728226 -1.05022 0
-0.0510611 -0.998239 0
-0.0744282 -1.01623 0
-0.026712 -1.08328 0
-0.0482692 -1.14219 0
-0.0372371 -1.07275 0
-0.0546997 -1.06163 0
-0.0121503 -1.08328 0
0.0312281 -1.0119 0
0.0583264 -1.03305 0
-0.0432867 -1.04365 0
-0.0860715 -1.03093 0
-0.0606462 -1.00479 0
-0.15294 -1.07824 0
-0.0754744 -1.10366 0
-0.24711 -1.08197 0
0.357864 -1.64136 0
-0.385408 -0.978937 0
0.418734 -1.09036 0
-0.0946274 -1.01951 0
8.93745e-05 -1.03977 0
0.0268888 -1.00439 0
-0.0372371 -1.10837 0
-0.501881 -0.526977 0
-0.104112 -1.01788 0
-0.541735 -0.564253 0
-0.0144473 -1.10837 0
-0.0253055 -1.02434 0
0.0831966 -1.10636 0
-0.0121503 -1.11066 0
-0.0728982 -1.03085 0
-0.00158312 -0.92833 0
8.93745e-05 -1.0475 0
-0.104112 -1.01531 0
-0.0534569 -1.04005 0
-0.150723 -0.998509 0
0.0855936 -1.05069 0
-0.0209819 -1.19619 0
0.199416 -0.564253 0
-0.0669496 -1.01788 0
-0.0582705 -1.02604 0
-0.0714923 -1.00756 0
-0.0227782 -0.93655 0
-0.00389068 -1.04352 0
0.00799724 -1.04747 0
-0.00389068 -1.05528 0
-0.00365969 -1.04352 0
-0.0418261 -1.02437 0
0.0236542 -1.03809 0
0.00152744 -1.82764 0
-0.0446188 -1.04365 0
0.15651 -1.03305 0
-0.0189557 -1.35075 0
0.072231 -1.43013 0
-0.165674 -1.0622 0
-0.20272 -0.893546 0
-0.0339951 -1.33253 0
0.15651 -0.928901 0
-0.0557309 -1.10186 0
0.0834972 -1.4687 0
-0.061817 -1.05207 0
0.0731964 -1.0831 0
0.513817 -0.928901 0
0.501077 -1.86845 0
-0.116375 -1.13002 0
-0.0448463 -1.14561 0
0.0672923 -1.05979 0
0.0990403 -0.867843 0
-0.521591 -0.55535 0
0.103595 -0.892044 0
-0.025728 -1.1002 0
0.0329243 -1.03184 0
-0.0768287 -1.04517 0
-0.162374 -0.943614 0
-0.20272 -0.952533 0
-0.0339951 -1.16117 0
-0.0189557 -1.74159 0
0.0312281 -1.01289 0
-0.0714923 -0.998239 0
-0.0582705 -1.01623 0
-0.388025 -0.950172 0
0.040886 -1.02854 0
0.0241948 -1.08289 0
-0.12013 -1.12203 0
-0.324046 -0.929878 0
0.205791 -1.01035 0
0.0316314 -1.03011 0
-0.0122834 -0.994832 0
-0.0194102 -1.06563 0
0.0519105 -1.02854 0
-0.180854 -0.950172 0
-0.0130691 -1.0527 0
0.0154209 -1.04188 0
-0.00941852 -1.02178 0
-0.211095 -0.980412 0
0.0339034 -1.04654 0
-0.211095 -1.1271 0
0.0339034 -1.02155 0
-0.0135149 -1.31205 0
0.132404 -0.558421 0
-0.025728 -1.03809 0
0.0329243 -1.02437 0
-0.16566 -0.948475 0
0.280315 -0.951946 0
0.0445408 -1.0119 0
-0.0482692 -1.09733 0
0.0136856 -1.02264 0
-0.0301639 -1.11407 0
-0.017361 -1.03411 0
0.363522 -1.8307 0
-0.0723515 -1.02434 0
0.33397 -1.10636 0
0.496241 -1.43496 0
-0.331717 -1.27754 0
-0.027002 -0.978988 0
0.589109 -0.984315 0
0.0345747 -1.00194 0
0.0756736 -0.952213 0
-0.0774969 -1.08984 0
-0.0393327 -1.02615 0
-0.116375 -1.0622 0
0.501077 -1.43013 0
0.140102 -0.930507 0
0.400642 -1.74852 0
0.205791 -1.28719 0
-0.324046 -1.34161 0
0.0382998 -1.06476 0
-0.0627744 -0.968425 0
-0.0194102 -1.04636 0
0.0302565 -1.00502 0
-0.00587579 -1.08162 0
0.0433177 -0.862333 0
0.0429016 -1.06015 0
0.150644 -1.10997 0
-0.0998809 -1.25865 0
0.035623 -1.0029 0
-0.0189237 -1.01287 0
-0.00113573 -0.963067 0
0.0322854 -1.06476 0
0.0271741 -0.968425 0
-0.054399 -1.22287 0
-0.025316 -1.04636 0
0.0510799 -1.06099 0
0.133198 -0.548281 0
0.0433177 -0.984569 0
0.0429016 -1.07537 0
0.647282 -1.09967 0
0.150644 -0.603031 0
-0.00647362 -1.0527 0
0.0429663 -1.04188 0
-0.104143 -1.02178 0
0.0256663 -1.00317 0
-0.55878 -0.603031 0
0.176545 -0.526977 0
0.0136856 -1.13002 0
-0.0301639 -1.0425 0
-0.017361 -1.00418 0
0.586771 -0.951607 0
-0.0227782 -1.06205 0
-0.00587579 -1.21158 0
0.0302565 -1.00625 0
-0.165674 -0.929135 0
0.072231 -1.70968 0
0.0215074 -1.63077 0
0.160946 -1.09967 0
0.0322854 -1.11978 0
0.0271741 -1.00194 0
0.199416 -1.02702 0
-0.0669496 -1.0321 0
-0.182599 -1.1271 0
-0.0871228 -1.02155 0
-0.113946 -0.936966 0
0.160144 -0.983332 0
0.143672 -0.992613 0
-0.00851771 -1.18372 0
0.171443 -0.946026 0
0.552073 -0.902506 0
-0.0706955 -1.10997 0
0.408101 -1.67378 0
0.496241 -1.85414 0
-0.331717 -0.89616 0
0.156983 -1.34922 0
0.146009 -0.99495 0
0.0843589 -0.985064 0
-0.0627744 -0.980412 0
0.0382998 -1.04654 0
0.176545 -0.930507 0
0.233979 -0.975759 0
0.0521721 -1.06377 0
0.0533705 -1.11206 0
-0.096546 -1.14561 0
0.000593579 -1.3858 0
-0.0411335 -1.07275 0
0.204546 -0.99495 0
0.00134316 -1.34922 0
-0.155968 -1.12203 0
0.159161 -1.08289 0
0.127595 -1.07449 0
0.252407 -1.02168 0
-0.025316 -1.02615 0
-0.054399 -1.08984 0
0.408101 -1.08488 0
-0.0706955 -1.08826 0
-0.0418261 -1.11757 0
0.0236542 -1.01162 0
-0.00365969 -1.02041 0
-0.341029 -0.936966 0
0.0596063 -0.983332 0
-0.582745 -0.548281 0
0.0843589 -1.06099 0
0.133198 -0.952213 0
0.0510799 -1.06833 0
-0.164566 -1.18226 0
0.0421474 -1.0051 0
0.015702 -1.00357 0
-0.155968 -0.978988 0
0.159161 -0.984315 0
0.0215074 -1.28719 0
0.160946 -1.34161 0
-0.0731083 -1.01725 0
-0.0862547 -1.01155 0
-0.0731083 -1.01776 0
-0.0862547 -1.04772 0
-0.0411335 -1.04858 0
0.000593579 -1.46963 0
-0.110236 -1.06834 0
0.172382 -1.10143 0
0.015702 -1.03977 0
-0.0607792 -1.01725 0
-0.108396 -1.01155 0
-0.0880439 -1.00676 0
-0.307468 -1.32998 0
-0.0396848 -1.04005 0
-0.356478 -0.998509 0
-0.0158977 -1.0159 0
0.0393677 -1.00357 0
-0.0712872 -1.01908 0
-0.0852865 -1.01252 0
-0.0313861 -1.04029 0
-0.0820567 -1.19521 0
-0.377284 -0.969538 0
0.0480055 -1.01095 0
0.0596063 -1.04747 0
0.357864 -1.05582 0
-0.385408 -1.35909 0
0.113469 -1.11242 0
0.101537 -1.09403 0
0.176842 -0.945644 0
0.33397 -1.70368 0
0.363522 -1.18868 0
-0.0723515 -1.0626 0
-0.356478 -1.46963 0
-0.0396848 -1.04858 0
0.355539 -1.13012 0
0.116883 -1.31205 0
-0.596832 -0.558421 0
0.354446 -1.68001 0
0.520009 -0.946026 0
-0.0135149 -1.70704 0
0.132404 -0.985064 0
0.0393677 -0.862556 0
-0.494721 -0.556191 0
-0.027002 -1.02264 0
-0.0611435 -0.948475 0
0.617661 -0.951946 0
0.103595 -1.11255 0
-0.147063 -0.862556 0
0.221906 -0.556191 0
-0.0209819 -1.09545 0
0.0855936 -0.979166 0
-0.0998809 -1.11757 0
0.035623 -1.01162 0
-0.0189237 -1.05375 0
-0.00113573 -1.02041 0
-0.0860715 -1.00479 0
-0.0557309 -1.07824 0
0.116883 -1.06377 0
0.20649 -0.975759 0
-0.0880439 -0.977395 0
-0.307468 -0.923712 0
0.354446 -1.07449 0
0.163138 -1.02168 0
-0.0606462 -1.01739 0
-0.15294 -0.967011 0
-0.0712872 -1.02776 0
0.0984391 -0.926043 0
-0.116974 -1.14175 0
0.0667377 -1.12249 0
-0.0607792 -1.04381 0
-0.0600665 -1.02835 0
-0.104143 -1.08736 0
0.0429663 -1.05561 0
-0.0768287 -1.02776 0
-0.162374 -0.926043 0
0.0667377 -1.03184 0
-0.116974 -1.1002 0
0.0320069 -1.0029 0
-0.0416412 -1.01287 0
-0.0611435 -0.963067 0
-0.171357 -1.13834 0
-0.000149136 -1.10853 0
-0.171357 -1.08736 0
-0.000149136 -1.05561 0
-0.0253055 -1.06163 0
0.0831966 -1.05792 0
-0.0206533 -1.03109 0
-0.109642 -0.899787 0
-0.110236 -1.00676 0
0.172382 -1.32998 0
0.127595 -0.98835 0
0.252407 -0.957331 0
0.0421474 -1.03011 0
-0.164566 -0.994832 0
-0.219252 -1.14509 0
-0.00834247 -1.27515 0
0.0378146 -1.0051 0
-0.176279 -1.18226 0
-0.171415 -1.19619 0
0.13854 -1.05069 0
-0.150723 -0.92833 0
-0.0534569 -1.03085 0
-0.109642 -0.923712 0
-0.0206533 -0.977395 0
0.0672923 -1.18372 0
0.0990403 -0.992613 0
0.0316314 -1.09545 0
-0.0122834 -0.979166 0
0.233979 -0.556166 0
0.0521721 -0.958264 0
0.171952 -1.10186 0
-0.0728226 -1.03093 0
-0.042418 -0.967011 0
-0.0343548 -1.01739 0
-0.543578 -0.605655 0
-0.0432867 -1.05022 0
0.0895802 -1.11275 0
0.158008 -0.899787 0
0.0194876 -1.03109 0
-0.00158312 -1.04772 0
-0.0728982 -1.01776 0
0.0241948 -1.06367 0
0.0822587 -0.98835 0
0.635144 -0.957331 0
-0.557082 -0.551729 0
0.0699127 -1.01956 0
-0.0397843 -0.958264 0
-0.477188 -0.556166 0
0.546375 -0.921262 0
0.109031 -1.02705 0
0.0834972 -1.2188 0
-0.061817 -1.09733 0
-0.0820567 -1.38698 0
-0.0313861 -1.05833 0
0.0533705 -1.18868 0
-0.096546 -1.0626 0
0.0613071 -1.01095 0
-0.139272 -0.969538 0
0.0675955 -1.73325 0
0.0311523 -1.11255 0
-0.133964 -1.04517 0
-0.385462 -0.943614 0
-0.0754744 -1.04381 0
-0.24711 -1.02835 0
-0.137018 -1.10366 0
-0.186508 -1.08197 0
0.667731 -1.10143 0
-0.0546997 -1.06834 0
-0.219252 -1.01531 0
-0.00834247 -1.65804 0
-0.0446188 -1.05207 0
0.00152744 -1.4687 0
-0.0394476 -1.04029 0
-0.159774 -1.19521 0
0.0613071 -1.05979 0
-0.139272 -0.867843 0
-0.0510611 -1.01252 0
-0.0744282 -1.01908 0
-0.0394476 -1.02604 0
-0.159774 -1.00756 0
-0.0673944 -1.0071 0
-0.0561659 -1.01357 0
-0.0843117 -1.00919 0
-0.0602405 -1.00334 0