# vtk DataFile Version 2.0
Unstructured Grid by M++
ASCII
DATASET UNSTRUCTURED_GRID
POINTS 1072 float
  0.718750   0.687500 0
  0.906250   0.906250 0
  0.562500   0.843750 0
  0.562500   0.812500 0
  0.812500   0.781250 0
  0.750000   1.000000 0
  0.750000   0.968750 0
  0.718750   0.656250 0
  0.687500   0.656250 0
  0.843750   0.781250 0
  0.968750   0.906250 0
  0.625000   0.656250 0
  0.937500   0.843750 0
  0.593750   0.593750 0
  0.531250   0.875000 0
  0.718750   0.968750 0
  0.718750   0.937500 0
  0.968750   0.875000 0
  0.625000   0.625000 0
  0.812500   0.718750 0
  0.562500   0.906250 0
  0.781250   1.000000 0
  0.968750   0.593750 0
  0.968750   0.562500 0
  0.937500   0.593750 0
  0.531250   0.843750 0
  0.531250   0.812500 0
  0.656250   0.625000 0
  0.656250   0.656250 0
  1.000000   0.906250 0
  0.843750   0.750000 0
  0.937500   0.906250 0
  0.812500   0.750000 0
  0.593750   0.875000 0
  0.593750   0.843750 0
  0.875000   0.781250 0
  0.531250   0.531250 0
  0.843750   0.812500 0
  0.812500   0.812500 0
  0.875000   0.843750 0
  0.843750   0.843750 0
  0.562500   0.875000 0
  0.562500   0.531250 0
  0.906250   0.718750 0
  0.625000   0.906250 0
  0.531250   0.562500 0
  0.875000   0.812500 0
  1.000000   0.625000 0
  0.593750   0.906250 0
  0.625000   0.593750 0
  0.656250   0.968750 0
  0.562500   0.562500 0
  0.906250   0.812500 0
  0.656250   0.718750 0
  1.000000   0.968750 0
  0.593750   0.937500 0
  0.687500   0.687500 0
  0.906250   0.875000 0
  0.593750   0.531250 0
  0.625000   0.937500 0
  0.937500   0.562500 0
  1.000000   0.937500 0
  0.656250   0.687500 0
  0.937500   0.531250 0
  0.968750   0.937500 0
  0.562500   0.593750 0
  0.687500   0.968750 0
  0.875000   0.875000 0
  0.625000   0.875000 0
  0.937500   0.875000 0
  0.593750   0.625000 0
  0.718750   0.531250 0
  1.000000   0.687500 0
  0.968750   0.625000 0
  0.656250   0.593750 0
  0.687500   1.000000 0
  0.687500   0.937500 0
  0.687500   0.625000 0
  0.937500   0.625000 0
  0.593750   0.562500 0
  0.968750   0.656250 0
  0.750000   0.687500 0
  0.656250   0.906250 0
  0.656250   0.937500 0
  0.625000   0.562500 0
  0.781250   0.687500 0
  0.750000   0.718750 0
  0.781250   0.718750 0
  0.750000   0.750000 0
  0.531250   0.781250 0
  0.781250   0.750000 0
  1.000000   0.656250 0
  0.906250   0.500000 0
  0.906250   0.593750 0
  0.718750   1.000000 0
  0.843750   0.531250 0
  0.875000   0.531250 0
  0.875000   0.562500 0
  0.781250   0.781250 0
  0.718750   0.718750 0
  0.906250   0.562500 0
  0.781250   0.843750 0
  1.000000   0.593750 0
  0.125000   0.875000 0
  0.750000   0.625000 0
  0.250000   0.375000 0
  0.687500   0.875000 0
  0.187500   0.625000 0
  0.312500   0.781250 0
  0.500000   0.031250 0
  0.375000   0.531250 0
  0.437500   0.281250 0
  0.062500   0.781250 0
  0.687500   0.531250 0
  0.187500   0.281250 0
  0.625000   0.781250 0
  0.125000   0.531250 0
  0.718750   0.906250 0
  0.218750   0.656250 0
  0.156250   0.906250 0
  0.781250   0.656250 0
  0.281250   0.406250 0
  0.156250   0.875000 0
  0.718750   0.875000 0
  0.218750   0.625000 0
  0.781250   0.625000 0
  0.281250   0.375000 0
  0.406250   0.875000 0
  0.468750   0.625000 0
  0.593750   0.125000 0
  0.562500   0.937500 0
  0.062500   0.687500 0
  0.625000   0.687500 0
  0.125000   0.437500 0
  0.000000   0.937500 0
  0.062500   0.625000 0
  0.125000   0.375000 0
  0.187500   0.125000 0
  0.000000   0.875000 0
  0.093750   0.781250 0
  0.656250   0.781250 0
  0.156250   0.531250 0
  0.437500   0.968750 0
  0.625000   0.218750 0
  0.187500   0.843750 0
  0.437500   0.843750 0
  0.625000   0.093750 0
  0.093750   0.593750 0
  0.218750   0.093750 0
  0.156250   0.343750 0
  0.031250   0.843750 0
  0.812500   0.937500 0
  0.312500   0.687500 0
  0.875000   0.687500 0
  0.375000   0.437500 0
  0.250000   0.937500 0
  0.281250   0.531250 0
  0.406250   0.031250 0
  0.343750   0.281250 0
  0.218750   0.781250 0
  0.031250   0.531250 0
  0.093750   0.281250 0
  0.156250   0.031250 0
  0.375000   0.781250 0
  0.937500   0.781250 0
  0.437500   0.531250 0
  0.562500   0.031250 0
  0.187500   0.875000 0
  0.750000   0.875000 0
  0.250000   0.625000 0
  0.812500   0.625000 0
  0.312500   0.375000 0
  0.437500   0.875000 0
  0.625000   0.125000 0
  0.093750   0.625000 0
  0.218750   0.125000 0
  0.156250   0.375000 0
  0.031250   0.875000 0
  0.000000   0.906250 0
  0.125000   0.406250 0
  0.187500   0.156250 0
  0.062500   0.656250 0
  0.000000   0.968750 0
  0.625000   0.718750 0
  0.125000   0.468750 0
  0.562500   0.968750 0
  0.062500   0.718750 0
  0.687500   0.812500 0
  0.187500   0.562500 0
  0.125000   0.812500 0
  0.750000   0.562500 0
  0.250000   0.312500 0
  0.406250   1.000000 0
  0.968750   1.000000 0
  0.468750   0.750000 0
  0.656250   0.000000 0
  0.593750   0.250000 0
  0.531250   0.500000 0
  0.562500   1.000000 0
  0.062500   0.750000 0
  0.000000   1.000000 0
  0.625000   0.750000 0
  0.125000   0.500000 0
  0.406250   0.937500 0
  0.468750   0.687500 0
  0.593750   0.187500 0
  0.187500   0.906250 0
  0.750000   0.906250 0
  0.250000   0.656250 0
  0.812500   0.656250 0
  0.312500   0.406250 0
  0.750000   0.937500 0
  0.250000   0.687500 0
  0.812500   0.687500 0
  0.312500   0.437500 0
  0.187500   0.937500 0
  0.468750   1.000000 0
  0.718750   0.000000 0
  0.812500   1.000000 0
  0.312500   0.750000 0
  0.250000   1.000000 0
  0.875000   0.750000 0
  0.375000   0.500000 0
  0.093750   0.812500 0
  0.718750   0.562500 0
  0.218750   0.312500 0
  0.656250   0.812500 0
  0.156250   0.562500 0
  0.687500   0.125000 0
  0.656250   0.875000 0
  0.156250   0.625000 0
  0.093750   0.875000 0
  0.718750   0.625000 0
  0.218750   0.375000 0
  0.125000   1.000000 0
  0.250000   0.500000 0
  0.312500   0.250000 0
  0.375000   0.000000 0
  0.187500   0.750000 0
  0.250000   0.906250 0
  0.156250   0.968750 0
  0.218750   0.718750 0
  0.343750   0.218750 0
  0.281250   0.468750 0
  0.625000   0.843750 0
  0.125000   0.593750 0
  0.062500   0.843750 0
  0.687500   0.593750 0
  0.187500   0.343750 0
  0.468750   0.843750 0
  0.312500   0.812500 0
  0.437500   0.312500 0
  0.500000   0.062500 0
  0.375000   0.562500 0
  0.062500   0.812500 0
  0.687500   0.562500 0
  0.187500   0.312500 0
  0.625000   0.812500 0
  0.125000   0.562500 0
  0.125000   0.625000 0
  0.250000   0.125000 0
  0.187500   0.375000 0
  0.062500   0.875000 0
  0.468750   0.875000 0
  0.656250   0.125000 0
  0.062500   0.937500 0
  0.250000   0.187500 0
  0.187500   0.437500 0
  0.125000   0.687500 0
  0.062500   1.000000 0
  0.687500   0.750000 0
  0.187500   0.500000 0
  0.625000   1.000000 0
  0.125000   0.750000 0
  0.218750   0.875000 0
  0.781250   0.875000 0
  0.281250   0.625000 0
  0.843750   0.625000 0
  0.343750   0.375000 0
  0.281250   0.656250 0
  0.843750   0.656250 0
  0.343750   0.406250 0
  0.718750   0.843750 0
  0.218750   0.593750 0
  0.781250   0.593750 0
  0.281250   0.343750 0
  0.156250   0.843750 0
  0.093750   0.968750 0
  0.218750   0.468750 0
  0.281250   0.218750 0
  0.156250   0.718750 0
  0.031250   0.906250 0
  0.156250   0.406250 0
  0.218750   0.156250 0
  0.093750   0.656250 0
  0.031250   0.968750 0
  0.593750   0.968750 0
  0.093750   0.718750 0
  0.718750   0.812500 0
  0.218750   0.562500 0
  0.781250   0.562500 0
  0.281250   0.312500 0
  0.156250   0.812500 0
  0.125000   0.968750 0
  0.250000   0.468750 0
  0.312500   0.218750 0
  0.187500   0.718750 0
  0.062500   0.906250 0
  0.250000   0.156250 0
  0.187500   0.406250 0
  0.125000   0.656250 0
  0.062500   0.968750 0
  0.687500   0.718750 0
  0.187500   0.468750 0
  0.625000   0.968750 0
  0.125000   0.718750 0
  0.500000   0.781250 0
  0.625000   0.281250 0
  0.687500   0.031250 0
  0.156250   0.937500 0
  0.281250   0.437500 0
  0.218750   0.687500 0
  0.187500   0.968750 0
  0.250000   0.718750 0
  0.375000   0.218750 0
  0.312500   0.468750 0
  0.312500   0.531250 0
  0.375000   0.281250 0
  0.437500   0.031250 0
  0.250000   0.781250 0
  0.812500   0.843750 0
  0.312500   0.593750 0
  0.875000   0.593750 0
  0.375000   0.343750 0
  0.250000   0.843750 0
  0.656250   0.843750 0
  0.156250   0.593750 0
  0.718750   0.593750 0
  0.218750   0.343750 0
  0.500000   0.843750 0
  0.687500   0.093750 0
  0.625000   0.343750 0
  0.218750   0.968750 0
  0.781250   0.968750 0
  0.281250   0.718750 0
  0.843750   0.718750 0
  0.343750   0.468750 0
  0.218750   1.000000 0
  0.281250   0.750000 0
  0.468750   0.000000 0
  0.343750   0.500000 0
  0.406250   0.250000 0
  0.125000   0.906250 0
  0.750000   0.656250 0
  0.250000   0.406250 0
  0.687500   0.906250 0
  0.187500   0.656250 0
  0.250000   0.750000 0
  0.312500   0.500000 0
  0.437500   0.000000 0
  0.375000   0.250000 0
  0.187500   1.000000 0
  0.156250   0.656250 0
  0.281250   0.156250 0
  0.218750   0.406250 0
  0.093750   0.906250 0
  0.687500   0.156250 0
  0.812500   0.968750 0
  0.312500   0.718750 0
  0.250000   0.968750 0
  0.875000   0.718750 0
  0.375000   0.468750 0
  0.781250   0.937500 0
  0.281250   0.687500 0
  0.218750   0.937500 0
  0.843750   0.687500 0
  0.343750   0.437500 0
  0.687500   0.843750 0
  0.187500   0.593750 0
  0.750000   0.593750 0
  0.250000   0.343750 0
  0.125000   0.843750 0
  0.562500   0.750000 0
  0.062500   0.500000 0
  0.343750   1.000000 0
  0.968750   0.750000 0
  0.468750   0.500000 0
  0.906250   1.000000 0
  0.406250   0.750000 0
  0.593750   0.000000 0
  0.531250   0.250000 0
  0.031250   0.781250 0
  0.156250   0.281250 0
  0.593750   0.781250 0
  0.093750   0.531250 0
  0.031250   0.812500 0
  0.656250   0.562500 0
  0.156250   0.312500 0
  0.593750   0.812500 0
  0.093750   0.562500 0
  0.312500   0.968750 0
  0.937500   0.718750 0
  0.437500   0.468750 0
  0.875000   0.968750 0
  0.375000   0.718750 0
  0.312500   1.000000 0
  0.875000   1.000000 0
  0.375000   0.750000 0
  0.937500   0.750000 0
  0.437500   0.500000 0
  0.562500   0.000000 0
  0.281250   0.968750 0
[...]
CELL_DATA 1912
SCALARS scalar_value float 1
LOOKUP_TABLE default
1.00997
1.08782
0.911303
0.567263
0.967087
0.964917
0.897478
0.74793
1.17962
1.12347
1.12532
1.02273
1.12724
1.02099
1.19185
1.08062
0.964212
0.9649
0.988882
1.01732
1.12111
1.04185
1.06817
1.00711
1.11468
1.03449
1.06685
1.00952
0.950137
1.04701
1.03395
0.955828
1.3635
1.1687
1.29873
1.12217
1.15952
1.13754
1.15235
1.10691
1.13532
0.936143
1.09229
0.827945
1.09316
0.820664
1.15857
0.944364
1.10204
0.990709
1.08805
1.04066
1.06189
1.04701
1.13399
1.04196
1.09798
0.990175
1.07429
1.0242
1.07315
1.06846
1.05819
1.0496
1.11348
1.16632
1.21024
1.08851
1.07506
0.83914
1.05663
1.01884
1.07505
0.85233
1.07891
0.949376
1.01854
1.09046
0.962033
1.03895
1.14927
1.10687
1.19931
1.06228
1.14368
1.03551
1.15087
1.36155
1.11835
1.77993
1.01223
1.41838
1.76131
0.968641
1.42024
1.14812
1.01714
0.960928
1.11634
1.09121
1.15112
1.0746
1.09266
1.17143
1.10531
1.10299
1.2093
1.06262
1.11048
1.08315
1.34613
1.08569
1.15575
0.999569
0.939951
1.09246
1.1078
1.11101
1.11409
1.08901
1.11315
1.34829
1.38508
1.12104
1.10743
1.07894
1.63125
1.72073
1.04544
1.06212
1.25783
1.08806
0.93576
1.69188
1.06413
1.06292
1.25949
1.2246
1.08829
0.923899
1.08824
0.872897
1.08507
0.876638
1.09228
0.928585
1.07474
1.27791
0.951819
1.07247
1.00515
1.02042
0.993088
1.09751
1.11324
0.889374
1.09379
1.11384
1.1388
1.08638
1.39225
1.02257
0.904969
1.33644
1.04314
1.17543
1.6744
1.07475
0.972133
1.08173
1.07126
1.35606
1.19882
1.02851
1.09806
0.939129
0.972358
1.06699
1.13218
0.980219
0.964053
1.07512
1.07198
1.31399
1.05748
1.08826
0.901617
1.09295
1.05007
0.756068
1.00507
0.904821
1.07343
1.06983
0.959383
1.03543
1.02193
1.05493
1.00539
1.03978
1.36066
1.07419
1.06995
0.543264
1.04535
1.10864
1.07359
1.15575
0.989835
1.07849
1.10682
0.965948
0.958244
1.15803
1.04183
1.0193
1.08074
0.875536
1.08448
0.993626
1.32206
1.07674
1.13228
1.04283
1.03294
1.05517
1.06939
1.08108
1.04106
1.04383
0.959467
1.06934
0.931506
1.04963
0.884386
1.08811
0.879953
1.34614
1.04624
1.0746
1.09938
1.05015
0.522867
1.12602
1.316
1.19939
1.12728
1.34293
1.09302
0.930775
1.06998
0.998029
1.66186
1.04169
1.04331
1.41546
1.0032
1.73648
0.981425
0.99302
1.11145
1.08548
1.11469
1.08456
1.05965
1.07991
0.883495
1.08077
1.18903
0.975509
1.03949
1.04007
1.04824
1.00434
0.931778
1.06997
1.11843
1.3154
1.12198
1.18626
0.962494
1.06042
1.09328
1.7379
0.994261
1.64922
1.0886
1.0602
1.02596
1.34267
1.33664
1.70098
0.953398
1.68439
1.20219
1.10177
0.935761
1.0654
0.975378
1.03953
1.27634
1.08411
1.05793
1.10788
1.15951
1.20596
1.06142
0.926044
1.07119
1.09898
0.538032
0.752027
1.0984
0.834044
0.997263
0.572235
1.06224
1.03562
1.02918
1.02155
1.15003
1.06372
1.18398
1.04005
1.33941
1.11022
1.10759
0.864739
1.1755
1.16319
1.0011
0.961828
1.06055
1.16284
1.07395
1.17459
0.572711
1.00584
1.03087
0.892401
1.09005
0.993047
1.09491
1.17793
1.06854
1.31204
1.06717
0.760987
1.09279
1.14968
1.02744
1.02768
0.862295
0.581902
1.06565
0.77225
0.929792
0.99926
1.09648
0.952436
1.45846
0.795388
0.854466
1.02515
1.04178
0.989467
0.782081
1.08599
1.14063
0.943409
1.06546
0.558005
1.08607
1.04632
1.07142
1.09802
1.70866
1.09897
1.33052
1.09897
1.32282
1.10658
1.66871
1.00216
1.70092
1.09318
1.31083
1.04943
1.30632
1.05219
1.72212
1.1457
0.968742
0.966796
1.03659
1.67007
1.08718
1.10559
1.34257
0.978726
1.11718
1.14577
1.09781
1.14642
1.10435
1.12882
1.0427
1.11877
0.954213
1.11014
0.996833
1.10371
1.15117
1.1293
1.0461
1.10106
1.06628
1.13294
1.14087
1.05583
0.890099
1.04024
1.01823
1.0485
0.725974
1.06044
1.22614
1.11997
1.38766
1.13966
1.34219
1.06225
1.2209
1.09292
1.13729
1.0341
1.14154
1.14254
1.02743
1.22172
1.74658
1.0581
1.07076
1.32635
1.05689
1.35244
1.04025
1.12283
1.28484
1.05714
1.1179
0.925592
1.11971
0.938445
1.0993
0.826763
1.07931
1.03628
1.09981
0.818093
1.08129
1.08048
1.11062
0.994428
1.10197
1.06816
1.10615
1.12382
1.12335
1.10589
1.21982
1.00006
0.937727
1.17522
0.903269
1.17528
1.12258
1.15504
1.281
1.11439
1.12411
1.14656
1.33766
1.10872
1.04193
1.18528
1.1245
1.08641
1.03349
1.16133
1.1091
1.08548
0.840257
0.846684
0.905931
0.929986
1.02223
1.01652
1.03493
1.01852
1.2108
1.38422
1.27073
1.43379
1.1008
1.12051
1.74584
0.925395
1.43656
1.27792
1.06567
1.00891
1.17592
1.01062
1.04079
0.942982
1.06825
0.894481
1.38787
1.00713
0.982868
1.00369
0.954238
1.11834
1.02089
1.13965
1.04364
1.00507
0.985576
1.00677
1.0864
1.10524
0.95685
1.14225
1.35372
1.01652
1.00787
1.00915
1.07464
1.03419
1.08577
1.06647
0.990499
1.35911
1.06555
1.0241
1.12447
1.00506
1.08173
1.1358
1.03554
1.04857
1.15785
1.28265
1.16462
1.04771
0.995872
1.05867
0.629591
1.05274
0.999544
1.01895
1.08361
1.14321
1.0734
1.06304
1.08335
1.01238
1.03469
1.04455
1.03452
1.00662
1.08903
1.10623
1.10983
1.67991
1.05207
1.168
1.02389
1.03977
1.00475
1.10899
0.727729
1.02319
0.782214
1.10846
1.02465
1.10949
1.11073
1.03343
0.928331
1.0475
1.02064
1.04142
1.00982
1.05417
1.19637
0.598455
1.02008
1.02769
1.01009
0.936827
1.04353
1.04751
1.05529
1.04353
1.02523
1.03836
1.82764
1.0446
1.04484
1.35088
1.43195
1.07505
0.916253
1.33296
0.941994
1.10327
1.47107
1.05388
1.08557
1.06154
1.93447
1.13599
1.14649
1.06192
0.873476
0.761886
0.898039
1.1005
1.03236
1.04799
0.957483
0.973866
1.16167
1.74169
1.01338
1.0008
1.01789
1.02635
1.02935
1.08316
1.12844
0.984722
1.0311
1.0306
0.994907
1.06581
1.02985
0.96723
1.05278
1.04199
1.02182
1.00288
1.04709
1.1467
1.02212
1.31212
0.573903
1.03841
1.0249
0.962833
0.99236
1.01288
1.09839
1.02273
1.11448
1.03426
1.86644
1.02689
1.15567
1.51835
1.31991
0.97936
1.14714
1.00253
0.955215
1.09259
1.02691
1.06856
1.51537
0.940995
1.79384
1.30354
1.38019
1.06545
0.970457
1.04654
1.00547
1.08164
0.86342
1.06102
1.12015
1.26261
1.00354
1.01305
0.963068
1.06525
0.968806
1.22408
1.04666
1.06221
0.564228
0.985521
1.07623
1.27603
0.621563
1.05272
1.04276
1.02707
1.0035
0.822121
0.555763
1.1301
1.04294
1.00433
1.11797
1.0623
1.21159
1.00671
0.94379
1.7112
1.63091
1.11139
1.12025
1.0023
1.0462
1.03427
1.1418
1.02526
0.943869
0.996287
1.00296
1.18375
0.961435
1.05797
1.11222
1.72282
1.9194
0.955583
1.35833
1.00561
0.98867
0.98242
1.04724
0.947107
1.00342
1.06505
1.11334
1.14967
1.3858
1.07354
1.01576
1.34923
1.13282
1.09452
1.08203
1.05239
1.02647
1.09119
1.1591
1.09056
1.11835
1.0119
1.02041
0.997099
0.985137
0.800127
1.06433
0.961484
1.06955
1.19365
1.00598
1.00369
0.991334
0.9971
1.28737
1.35123
1.01988
1.01523
1.02038
1.05126
1.04939
1.46963
1.07401
1.11484
1.03989
1.01907
1.01735
1.01061
1.36506
1.04081
1.06023
1.01602
1.00434
1.02157
1.01611
1.04076
1.19803
1.04036
1.01209
1.04917
1.11482
1.41268
1.11819
1.09873
0.962037
1.7361
1.24302
1.06507
1.51225
1.04934
1.18473
1.31724
0.817339
1.71699
1.07953
1.70709
0.993923
0.863454
0.744377
1.023
0.950444
1.13477
1.11736
0.875003
0.598825
1.09565
0.9829
1.12203
1.01225
1.05392
1.02041
1.00847
1.07968
1.07018
0.997368
0.981352
0.973541
1.13144
1.03462
1.01919
0.979031
1.03023
0.931261
1.14772
1.12448
1.04558
1.0301
1.09234
1.05648
1.03063
0.940171
1.03399
1.1064
1.00341
1.01373
0.965006
1.15117
1.10853
1.10078
1.05561
1.06193
1.06119
1.0313
0.906443
1.01278
1.3411
0.996553
0.990047
1.03098
1.00835
1.16589
1.27518
1.00581
1.19533
1.20841
1.05979
0.940486
1.03224
0.930197
0.977613
1.18564
0.997542
1.09591
0.979243
0.60338
0.959683
1.1152
1.0335
0.967941
1.01797
0.813815
1.05111
1.11635
0.913555
1.03127
1.04772
1.02036
1.06395
0.991768
1.14887
0.784056
1.02195
0.959089
0.732823
1.0711
1.03282
1.22166
1.09907
1.38941
1.0588
1.18987
1.06698
1.01281
0.97949
1.73457
1.11299
1.05372
1.01931
1.04654
1.05762
1.11213
1.09792
1.28803
1.06974
1.03872
1.65806
1.05302
1.4687
1.04103
1.20585
1.06156
0.878947
1.01381
1.02179
1.0268
1.02015
1.00935
1.01512
1.01271
1.00515
1.01144
1.00491
0.986508
1.00738
0.579377
1.0246
0.881094
1.06142
1.03444
0.941435
0.577979
0.899292
1.19792
1.0129
1.14323
1.1365
1.09182
1.13566
0.967385
1.02404
0.895161
1.0238
0.983306
1.01617
0.885608
1.02369
0.951791
1.12327
1.05867
1.16925
0.996569
1.06063
0.995957
1.05943
0.989607
1.02813
1.00674
1.01589
0.961094
1.15079
0.868145
1.15637
0.863716
1.15681
0.948032
1.08527
1.27161
1.1084
1.05481
1.1254
1.28078
1.03059
1.36467
1.06217
1.0261
1.34055
0.964184
1.40638
1.01283
1.02353
1.03667
0.978864
0.919252
0.941987
1.0261
1.04083
1.13734
1.04889
1.01298
1.16448
1.01254
1.16865
0.923076
1.0153
1.25356
1.16352
1.02082
1.1516
0.960517
0.937675
1.05305
0.988155
1.08869
1.03977
1.27997
0.9943
1.09303
0.946044
1.13929
1.04614
1.01224
0.972271
1.03456
1.11278
1.16025
1.09971
1.06049
1.24079
1.07964
1.33467
0.978206
1.6274
0.881894
0.936639
1.0134
1.16539
1.05179
1.05296
1.23958
1.02208
1.03115
0.96843
1.19682
1.03069
0.990348
1.63301
1.05647
0.997003
1.1972
0.87247
1.15363
1.11017
0.760545
0.944176
1.01931
1.15385
0.938039
1.03908
1.0755
1.03571
1.73758
1.11032
0.561961
1.14238
1.07196
0.934257
1.04412
1.04568
0.967844
1.03147
1.05184
0.912094
0.853897
1.13775
1.05416
1.06902
0.955734
1.27288
1.01619
0.979094
0.973147
1.03208
1.74411
0.964379
1.30132
1.00241
1.00619
1.25236
0.99225
1.24407
1.32082
1.03841
1.37432
0.977032
1.16116
0.937628
1.01103
1.08001
1.02353
1.37638
1.06228
1.07816
1.03797
1.13824
1.82314
1.03116
1.08591
1.0304
0.814982
0.723291
1.05867
1.20012
0.966318
1.11395
1.00496
1.21074
0.997814
1.32994
0.907334
0.946374
0.970614
1.16719
1.06918
0.989898
0.921826
1.00928
1.18424
1.02115
1.01369
1.32495
1.08446
0.82464
1.18668
1.01259
1.172
1.00017
1.09174
1.02257
1.42133
0.966025
1.03321
1.04385
1.15481
0.865291
1.08684
0.989943
1.66243
1.11123
1.15633
1.01745
1.0092
0.966514
1.15068
1.01784
1.74476
1.03034
1.05737
0.997264
1.09251
1.12732
1.05595
1.73048
1.04894
1.10453
1.14153
1.07871
1.07135
1.05586
0.992348
1.18054
0.924125
1.01854
1.59178
1.09698
0.55133
1.08613
1.05999
0.987444
1.28669
0.947811
1.14986
1.07863
0.972712
1.24209
1.09904
0.583035
0.996009
1.26351
1.16756
1.27074
0.592511
1.02772
0.832254
0.517744
1.05963
0.987495
1.27626
1.01068
1.07805
1.37741
1.01943
1.05567
1.13099
1.00626
1.24637
1.01327
1.11739
1.02445
0.983667
1.21919
1.01648
0.996515
0.993636
1.24157
0.974863
0.838117
0.992383
1.15042
0.968594
1.10573
1.02592
1.02053
1.02443
1.0539
1.07006
0.955772
1.41833
1.01278
0.893264
0.888037
1.1026
1.01337
1.11789
1.19966
1.15358
0.971043
1.07765
1.03119
1.03162
1.04474
1.13317
1.16619
0.973389
0.968701
1.24454
0.980236
1.37039
1.38495
0.976506
1.64647
0.961332
0.872553
0.964043
1.16513
0.997537
1.198
0.942009
1.66939
0.972115
1.10525
1.01014
1.06751
0.996526
1.02699
1.22558
1.03684
1.10677
1.02473
1.00646
1.07269
1.14483
1.0213
1.11999
1.05674
1.7913
1.02655
1.00652
1.03532
1.38454
1.22566
0.992899
0.554793
1.05315
1.22432
1.04163
1.09768
1.0221
1.13133
1.06777
1.10294
1.03261
1.1343
1.0376
1.09769
1.04635
1.11348
1.02145
1.1619
1.00804
1.09188
0.994574
1.08186
1.02929
1.10846
1.02802
1.10839
0.990655
1.02774
1.00841
1.09462
1.15509
1.02466
1.05586
1.07711
0.7774
1.02787
1.00952
1.04959
1.19383
0.961472
1.1063
1.02981
1.0387
1.1597
0.985839
1.04059
1.09834
0.750088
1.04523
1.00696
1.11088
1.02154
1.13093
1.00651
1.01326
1.00652
1.20697
0.755352
0.753707
0.995444
1.27561
1.08274
0.998753
0.88465
1.01333
1.25841
0.531748
0.764997
1.03191
1.37738
0.913112
0.901398
0.959656
1.05618
0.995916
1.08175
0.960683
1.05649
1.00829
1.09168
1.0469
0.966794
1.13873
1.04609
1.06515
1.07681
0.996829
1.09719
0.978021
1.01362
1.1997
1.19506
1.0634
0.843467
1.13794
0.942164
1.09278
1.65897
0.972866
1.07975
1.02011
1.41523
1.0264
1.01899
1.29901
0.999187
0.981987
1.04187
0.941028
1.14131
1.0349
1.05472
0.880609
0.911852
1.13583
1.02064
1.00153
0.919147
1.10969
1.04186
1.19391
0.96095
1.34848
1.01387
1.03156
1.24749
1.11216
1.61281
1.1506
1.03652
1.0248
1.05731
1.03047
1.02453
0.984491
1.24528
0.993235
1.13446
1.03128
1.01396
1.02362
1.02395
0.993655
0.985013
1.34815
1.10412
0.984604
1.14063
0.95047
1.19221
0.934174
1.16944
1.01005
1.12241
1.05142
1.04954
1.07653
0.993829
1.70496
0.949593
1.43065
0.950213
1.51528
0.986098
1.92039
1.06937
1.36046
1.06914
1.35027
1.05058
1.79782
1.06659
1.73465
1.0878
1.08655
1.10967
1.21678
1.11271
1.14047
1.11306
1.15011
1.10029
1.03827
1.16366
1.02663
1.50093
1.45912
1.37943
1.02337
1.15893
1.04488
1.01729
1.01315
1.0079
0.973038
1.1146
1.09679
1.16782
0.953589
1.09127
1.16849
1.02252
1.73548
0.970163
1.05773
0.989108
1.02985
0.581651
1.13899
1.01219
1.20444
1.05119
1.01873
1.04033
1.08269
1.40358
1.45747
1.02437
1.16503
1.2415
1.12279
1.85619
1.01686
1.00456
1.0826
1.35295
1.19826
1.04093
1.08185
1.20598
1.05277
1.03829
0.842276
1.03604
1.15822
1.04253
0.999953
1.69416
1.07349
1.13202
1.12381
1.35871
1.15569
0.914334
1.03916
0.91854
1.02576
1.1163
1.07803
1.04707
0.96822
1.03133
1.30391
1.03921
0.9034
1.1908
1.03363
0.918334
1.03363
1.05957
1.03753
0.903799
1.02774
0.564825
1.01576
1.15877
1.02782
0.729945
0.980318
0.974237
1.13905
1.05588
0.900056
1.00628
1.45991
0.96183
1.24367
1.09217
1.8139
0.881275
1.08841
1.08002
1.1893
1.07161
1.35462
1.06895
0.998807
1.01136
1.06693
0.853428
1.42277
1.01403
0.945606
1.09653
1.03951
1.00653
1.01665
1.02182
0.929867
0.931755
1.766
1.1315
1.35386
0.861463
1.42062
1.01513
1.01587
0.946255
0.997624
1.01166
0.979271
1.06783
1.04617
0.989521
0.971597
1.01699
0.724285
1.00592
0.805373
1.0197
1.13681
1.10441
1.18401
1.01214
0.978827
1.03384
0.953937
1.00813
0.942746
1.79714
1.20858
1.23191
1.01299
0.98274
0.990084
1.01757
0.607262
1.37379
0.777895
1.01738
1.00604
1.03366
0.841437
0.629398
1.01959
1.16263
1.05061
1.04922
0.989673
1.11388
1.11423
0.9891
1.77858
1.0141
0.797701
1.01602
1.07183
1.17083
1.0469
1.09642
1.15985
1.01665
1.19437
1.06878
1.08627
1.01503
0.983944
1.42016
0.576418
0.925908
0.990018
1.17777
1.0041
1.02558
0.966799
0.974803
1.11277
1.09135
1.08328
1.16408
1.29097
0.981493
1.07737
1.06344
1.03852
0.839044
1.06826
1.13543
1.0583
1.01398
1.32233
1.01145
1.0547
1.0476
0.950004
1.08666
0.963864
0.976875
1.33877
1.25976
1.11352
1.37627
1.01112
1.09669
1.06557
1.06844
1.11573
0.57595
1.11918
1.38249
0.770729
1.06874
1.08153
1.07312
1.01362
1.11756
1.06046
1.12045
1.06097
1.21462
0.981547
1.38901
1.35133
1.05859
1.02595
0.73562
0.993971
1.39356
1.69684
1.00272
1.03467
1.0127
1.02083
1.00594
1.01865
1.08126
0.93722
1.00963
0.926019
1.0096
1.05528
1.11192
1.08412
1.02508
1.12306
1.19648
1.08186
1.11138
1.08412
1.19172
1.0801
1.72376
0.966726
1.11483
0.979848
1.93316
0.962245
1.43477
0.868421
1.01414
0.915183
1.51792
0.858064
1.03226
0.844524
1.04514
1.11402
1.02277
0.936542
1.05447
0.960154
1.01279
1.04318
0.994717
1.11081
1.10109
1.04049
0.999739
1.11206
0.975381
1.05854
1.05536
1.06001
1.03656
1.0793
1.02743
1.38126
1.74351
1.04488
0.965235
1.12022
1.37604
1.0238
1.77479
1.06536
0.96523
1.28049
1.31135
1.11691
0.949656
1.05313
1.67498
0.984991
1.30747
1.12908
1.69773
0.999786
1.00645
1.04209
1.00426
1.02777
1.10408
1.0859
1.25134
1.07177
1.02841
1.11891
1.03493
1.08486
1.25284
1.05118
0.575047
0.990121
0.566129
1.37441
1.03747
0.914531
1.08512
1.11157
1.06373
1.18093
1.06449
1.12177
1.08256
1.04377
1.25798
1.06816
1.42555
1.04878
1.37686
1.05078
1.25247
1.04502
1.21205
1.27076
0.975349
1.07731
1.37093
1.24072
1.32347
1.1864
1.18422
1.21385
1.01779
1.18277
1.04711
1.17048
1.07158
1.11515
1.21701
1.10157
1.0727
1.11445
1.36071
0.976838
1.10111
0.988945
1.0452
1.06148
1.05934
0.810502
1.07202
0.620731
0.967672
1.0526
1.21921
1.07903
1.21945
1.08269
1.03338
1.08399
1.09067
1.08504
1.16386
1.70027
1.02249
1.69139
1.00792
1.21756
1.09688
1.03138
1.30781
0.968474
0.989577
1.08591
0.975421
0.977098
0.972394
0.984394
1.342
1.14492
1.34344
0.744771
1.46188
1.06731
1.39581
1.1297
1.24127
1.09316
1.24842
1.18307
1.05492
1.09181
1.0635
1.09339
1.16207
1.12903
1.10476
1.01275
0.905252
