# vtk DataFile Version 2.0
Unstructured Grid by M++
ASCII
DATASET UNSTRUCTURED_GRID
POINTS 1072 float
  0.843750   0.812500 0
  0.843750   0.781250 0
  0.843750   0.750000 0
  0.812500   0.781250 0
  0.812500   0.750000 0
  0.812500   0.718750 0
  0.781250   0.750000 0
  0.781250   0.718750 0
  0.781250   0.687500 0
  0.750000   0.968750 0
  0.750000   0.718750 0
  0.750000   0.687500 0
  0.718750   1.000000 0
  0.718750   0.968750 0
  0.718750   0.937500 0
  0.718750   0.718750 0
  0.718750   0.687500 0
  0.718750   0.656250 0
  0.718750   0.531250 0
  0.687500   1.000000 0
  0.687500   0.968750 0
  0.687500   0.937500 0
  0.687500   0.687500 0
  0.687500   0.656250 0
  0.687500   0.625000 0
  0.656250   0.968750 0
  0.562500   0.875000 0
  0.625000   0.656250 0
  0.968750   0.906250 0
  0.562500   0.843750 0
  0.625000   0.625000 0
  0.968750   0.875000 0
  0.562500   0.812500 0
  0.625000   0.593750 0
  0.812500   0.812500 0
  0.750000   1.000000 0
  0.781250   1.000000 0
  0.625000   0.562500 0
  0.906250   0.906250 0
  0.906250   0.875000 0
  0.562500   0.593750 0
  0.562500   0.562500 0
  0.906250   0.812500 0
  0.625000   0.937500 0
  0.562500   0.531250 0
  0.906250   0.718750 0
  0.750000   0.750000 0
  0.625000   0.906250 0
  0.625000   0.875000 0
  0.531250   0.875000 0
  0.937500   0.906250 0
  0.875000   0.875000 0
  0.531250   0.562500 0
  0.875000   0.812500 0
  0.593750   0.937500 0
  0.656250   0.718750 0
  1.000000   0.968750 0
  0.875000   0.843750 0
  0.843750   0.843750 0
  0.531250   0.531250 0
  0.875000   0.781250 0
  0.593750   0.906250 0
  0.656250   0.687500 0
  1.000000   0.937500 0
  0.593750   0.875000 0
  0.656250   0.656250 0
  1.000000   0.906250 0
  0.593750   0.843750 0
  0.656250   0.625000 0
  0.562500   0.906250 0
  0.968750   0.937500 0
  0.531250   0.812500 0
  0.593750   0.593750 0
  0.937500   0.843750 0
  0.531250   0.781250 0
  0.593750   0.562500 0
  0.781250   0.843750 0
  0.531250   0.843750 0
  0.593750   0.625000 0
  0.937500   0.875000 0
  0.656250   0.906250 0
  0.781250   0.781250 0
  0.656250   0.937500 0
  0.843750   0.531250 0
  0.593750   0.531250 0
  0.656250   0.593750 0
  0.875000   0.531250 0
  0.875000   0.562500 0
  0.906250   0.562500 0
  0.906250   0.593750 0
  0.937500   0.562500 0
  0.937500   0.593750 0
  0.937500   0.625000 0
  0.937500   0.531250 0
  0.968750   0.562500 0
  0.968750   0.593750 0
  0.968750   0.625000 0
  0.968750   0.656250 0
  1.000000   0.593750 0
  1.000000   0.625000 0
  1.000000   0.656250 0
  1.000000   0.687500 0
  0.437500   0.937500 0
  0.625000   0.187500 0
  0.437500   1.000000 0
  1.000000   1.000000 0
  0.500000   0.750000 0
  0.562500   0.500000 0
  0.687500   0.000000 0
  0.625000   0.250000 0
  0.281250   0.968750 0
  0.843750   0.968750 0
  0.343750   0.718750 0
  0.656250   0.781250 0
  0.156250   0.531250 0
  0.093750   0.781250 0
  0.437500   0.968750 0
  0.625000   0.218750 0
  0.500000   0.781250 0
  0.625000   0.281250 0
  0.687500   0.031250 0
  0.031250   0.875000 0
  0.093750   0.625000 0
  0.156250   0.375000 0
  0.218750   0.125000 0
  0.031250   0.937500 0
  0.093750   0.656250 0
  0.156250   0.406250 0
  0.218750   0.156250 0
  0.031250   0.906250 0
  0.593750   0.968750 0
  0.093750   0.718750 0
  0.031250   0.968750 0
  0.437500   0.906250 0
  0.625000   0.156250 0
  0.250000   0.718750 0
  0.375000   0.218750 0
  0.312500   0.468750 0
  0.187500   0.968750 0
  0.125000   0.875000 0
  0.750000   0.625000 0
  0.250000   0.375000 0
  0.687500   0.875000 0
  0.187500   0.625000 0
  0.281250   0.531250 0
  0.406250   0.031250 0
  0.343750   0.281250 0
  0.218750   0.781250 0
  0.093750   0.906250 0
  0.218750   0.406250 0
  0.281250   0.156250 0
  0.156250   0.656250 0
  0.156250   0.687500 0
  0.093750   0.937500 0
  0.218750   0.437500 0
  0.281250   0.187500 0
  0.656250   1.000000 0
  0.156250   0.750000 0
  0.093750   1.000000 0
  0.718750   0.750000 0
  0.218750   0.500000 0
  0.687500   0.187500 0
  0.281250   0.656250 0
  0.843750   0.656250 0
  0.343750   0.406250 0
  0.531250   0.906250 0
  0.031250   0.656250 0
  0.593750   0.656250 0
  0.093750   0.406250 0
  0.031250   0.593750 0
  0.093750   0.343750 0
  0.156250   0.093750 0
  0.375000   0.843750 0
  0.437500   0.593750 0
  0.562500   0.093750 0
  0.156250   0.812500 0
  0.781250   0.562500 0
  0.281250   0.312500 0
  0.718750   0.812500 0
  0.218750   0.562500 0
  0.750000   0.000000 0
  0.031250   0.562500 0
  0.093750   0.312500 0
  0.156250   0.062500 0
  0.375000   0.812500 0
  0.937500   0.812500 0
  0.437500   0.562500 0
  0.562500   0.062500 0
  0.156250   0.718750 0
  0.093750   0.968750 0
  0.218750   0.468750 0
  0.281250   0.218750 0
  0.156250   0.781250 0
  0.718750   0.781250 0
  0.218750   0.531250 0
  0.781250   0.531250 0
  0.281250   0.281250 0
  0.687500   0.218750 0
  0.031250   0.812500 0
  0.593750   0.812500 0
  0.093750   0.562500 0
  0.656250   0.562500 0
  0.156250   0.312500 0
  0.093750   0.593750 0
  0.031250   0.843750 0
  0.156250   0.343750 0
  0.218750   0.093750 0
  0.437500   0.843750 0
  0.625000   0.093750 0
  0.750000   0.875000 0
  0.250000   0.625000 0
  0.812500   0.625000 0
  0.312500   0.375000 0
  0.187500   0.875000 0
  0.562500   0.625000 0
  0.062500   0.375000 0
  0.000000   0.562500 0
  0.062500   0.312500 0
  0.125000   0.062500 0
  0.343750   0.812500 0
  0.531250   0.062500 0
  0.406250   0.562500 0
  0.468750   0.312500 0
  0.312500   1.000000 0
  0.937500   0.750000 0
  0.437500   0.500000 0
  0.875000   1.000000 0
  0.375000   0.750000 0
  0.562500   0.000000 0
  0.062500   1.000000 0
  0.687500   0.750000 0
  0.187500   0.500000 0
  0.625000   1.000000 0
  0.125000   0.750000 0
  0.062500   0.937500 0
  0.187500   0.437500 0
  0.250000   0.187500 0
  0.125000   0.687500 0
  0.125000   0.781250 0
  0.750000   0.531250 0
  0.250000   0.281250 0
  0.687500   0.781250 0
  0.187500   0.531250 0
  0.468750   0.968750 0
  0.656250   0.218750 0
  0.281250   0.937500 0
  0.906250   0.687500 0
  0.406250   0.437500 0
  0.843750   0.937500 0
  0.343750   0.687500 0
  0.437500   0.875000 0
  0.625000   0.125000 0
  0.750000   0.906250 0
  0.250000   0.656250 0
  0.812500   0.656250 0
  0.312500   0.406250 0
  0.187500   0.906250 0
  0.125000   0.812500 0
  0.750000   0.562500 0
  0.250000   0.312500 0
  0.687500   0.812500 0
  0.187500   0.562500 0
  0.468750   1.000000 0
  0.718750   0.000000 0
  0.750000   0.843750 0
  0.250000   0.593750 0
  0.812500   0.593750 0
  0.312500   0.343750 0
  0.187500   0.843750 0
  0.781250   0.875000 0
  0.281250   0.625000 0
  0.843750   0.625000 0
  0.343750   0.375000 0
  0.218750   0.875000 0
  0.781250   0.937500 0
  0.281250   0.687500 0
  0.843750   0.687500 0
  0.343750   0.437500 0
  0.218750   0.937500 0
  0.531250   0.937500 0
  0.031250   0.687500 0
  0.593750   0.687500 0
  0.093750   0.437500 0
  0.031250   0.625000 0
  0.156250   0.125000 0
  0.093750   0.375000 0
  0.375000   0.875000 0
  0.437500   0.625000 0
  0.562500   0.125000 0
  0.375000   0.937500 0
  0.937500   0.937500 0
  0.437500   0.687500 0
  0.156250   0.843750 0
  0.781250   0.593750 0
  0.281250   0.343750 0
  0.718750   0.843750 0
  0.218750   0.593750 0
  0.750000   0.937500 0
  0.250000   0.687500 0
  0.812500   0.687500 0
  0.312500   0.437500 0
  0.187500   0.937500 0
  0.125000   0.843750 0
  0.750000   0.593750 0
  0.250000   0.343750 0
  0.687500   0.843750 0
  0.187500   0.593750 0
  0.781250   0.968750 0
  0.281250   0.718750 0
  0.843750   0.718750 0
  0.343750   0.468750 0
  0.218750   0.968750 0
  0.531250   0.968750 0
  0.031250   0.718750 0
  0.093750   0.468750 0
  0.375000   0.906250 0
  0.437500   0.656250 0
  0.562500   0.156250 0
  0.375000   0.968750 0
  0.937500   0.968750 0
  0.437500   0.718750 0
  0.562500   0.218750 0
  0.156250   0.875000 0
  0.781250   0.625000 0
  0.281250   0.375000 0
  0.718750   0.875000 0
  0.218750   0.625000 0
  0.281250   0.750000 0
  0.468750   0.000000 0
  0.406250   0.250000 0
  0.343750   0.500000 0
  0.218750   1.000000 0
  0.531250   1.000000 0
  0.031250   0.750000 0
  0.593750   0.750000 0
  0.093750   0.500000 0
  0.375000   1.000000 0
  0.937500   1.000000 0
  0.437500   0.750000 0
  0.625000   0.000000 0
  0.562500   0.250000 0
  0.593750   0.781250 0
  0.093750   0.531250 0
  0.031250   0.781250 0
  0.156250   0.281250 0
  0.437500   0.781250 0
  1.000000   0.781250 0
  0.500000   0.531250 0
  0.625000   0.031250 0
  0.562500   0.281250 0
  0.156250   0.906250 0
  0.781250   0.656250 0
  0.281250   0.406250 0
  0.718750   0.906250 0
  0.218750   0.656250 0
  0.281250   0.781250 0
  0.468750   0.031250 0
  0.406250   0.281250 0
  0.343750   0.531250 0
  0.437500   0.812500 0
  0.625000   0.062500 0
  0.312500   0.968750 0
  0.875000   0.968750 0
  0.375000   0.718750 0
  0.937500   0.718750 0
  0.437500   0.468750 0
  0.093750   0.812500 0
  0.718750   0.562500 0
  0.218750   0.312500 0
  0.656250   0.812500 0
  0.156250   0.562500 0
  0.656250   0.843750 0
  0.156250   0.593750 0
  0.718750   0.593750 0
  0.218750   0.343750 0
  0.500000   0.843750 0
  0.687500   0.093750 0
  0.625000   0.343750 0
  0.656250   0.875000 0
  0.156250   0.625000 0
  0.718750   0.625000 0
  0.218750   0.375000 0
  0.093750   0.875000 0
  0.000000   0.625000 0
  0.500000   0.875000 0
  0.125000   0.125000 0
  0.625000   0.375000 0
  0.687500   0.125000 0
  0.562500   0.781250 0
  0.062500   0.531250 0
  0.625000   0.531250 0
  0.125000   0.281250 0
  0.000000   0.781250 0
  0.531250   0.718750 0
  0.031250   0.468750 0
  0.593750   0.468750 0
  0.093750   0.218750 0
  0.375000   0.625000 0
  0.500000   0.125000 0
  0.437500   0.375000 0
  0.312500   0.875000 0
  0.875000   0.937500 0
  0.375000   0.687500 0
  0.937500   0.687500 0
  0.437500   0.437500 0
  0.312500   0.937500 0
  0.531250   0.687500 0
  0.031250   0.437500 0
  0.531250   0.750000 0
  0.031250   0.500000 0
  0.593750   0.500000 0
  0.093750   0.250000 0
[...]
CELL_DATA 1912
SCALARS scalar_value float 1
LOOKUP_TABLE default
0.897478
0.911303
1.00997
0.967087
1.08782
0.567263
0.964917
0.74793
1.17962
1.12532
1.12724
1.19185
1.12347
1.02273
1.02099
1.08062
0.964212
0.9649
0.988882
1.01732
1.06817
1.11468
1.00711
0.950137
1.04701
1.03395
0.955828
1.3635
1.29873
1.15952
1.15235
1.1687
1.12217
1.13754
1.10691
1.0193
1.04007
1.03562
1.07359
1.12728
1.22172
1.11997
1.21982
1.06225
1.17528
1.316
1.31083
1.72212
1.14063
1.08074
0.875536
1.04066
1.07315
1.06846
1.09798
0.990175
1.14087
1.13294
1.06224
0.572235
1.12198
1.08811
0.879953
0.752027
0.993626
1.0886
1.08851
1.6744
1.0746
1.28484
1.05965
1.00216
1.7379
1.20219
1.10177
1.09898
0.951819
1.06816
0.876638
1.10197
1.11718
1.03449
1.08824
1.07474
1.27791
0.944364
1.15857
1.04943
1.02257
1.09318
1.07506
0.83914
1.07891
0.949376
1.2246
1.09302
1.10615
1.06262
1.2093
0.938445
0.558005
1.08826
0.760987
0.989467
1.01854
1.64922
0.994261
1.05015
0.997263
1.02918
1.1457
1.41838
1.76131
1.14154
1.03628
0.994428
1.0242
1.12335
1.15117
0.999569
1.01714
1.05493
1.0032
1.06055
1.74658
1.67007
1.34293
1.72073
1.33941
1.07142
1.11409
1.08901
1.09279
1.09121
1.09266
1.17143
1.10531
1.10299
1.14368
1.06228
1.18398
1.11048
1.08315
0.538032
1.04106
0.953398
1.08448
1.10204
1.63125
1.09806
1.09328
1.66186
1.15575
1.07198
1.08129
0.990709
1.0654
0.966796
1.04624
0.884386
1.04963
0.939951
1.25949
1.09246
0.928585
0.883495
1.12111
1.09046
0.962033
1.1078
1.11101
0.93576
1.06212
1.25783
1.06292
0.872897
1.08507
0.968641
0.959383
1.06983
1.06939
0.998029
0.964053
1.08173
0.972133
1.03551
1.20596
1.15087
1.04314
1.12602
0.936143
1.04383
1.04196
1.13399
1.11022
0.904969
1.03949
1.00539
1.03978
1.09781
1.09292
1.08077
1.18903
0.959467
1.06934
0.975378
1.07475
1.70866
1.34267
0.826763
1.07894
1.1388
1.08411
1.08829
0.923899
0.930775
1.68439
0.926044
1.06546
1.11145
1.33052
1.45846
1.07247
1.00515
1.3154
0.889374
1.11843
1.18626
0.943409
1.1293
1.12104
1.07505
1.38508
0.85233
1.09938
1.07931
1.07419
1.10788
1.00507
1.08607
1.14927
1.03895
1.10864
1.36066
1.05748
1.08718
1.10589
0.980219
1.34829
1.04025
1.12283
1.06142
1.33664
1.09491
1.17793
0.795388
1.06995
0.958244
1.06042
1.15803
1.02851
0.981425
1.08805
1.13218
1.07343
1.08806
1.10743
0.962494
1.07126
1.10682
1.17543
1.36155
0.931506
1.11835
0.862295
1.05517
1.08638
1.03294
1.11315
1.07512
1.10687
1.14225
1.19931
1.11469
1.08456
1.04701
1.04824
1.15951
1.07674
1.14649
1.32206
1.07119
1.39225
1.04169
1.11634
1.73648
1.33644
1.34614
1.11014
0.935761
0.975509
1.06998
1.07991
1.04185
0.543264
1.04535
1.04178
1.19939
1.03953
0.989835
1.05793
1.42024
1.03087
1.0341
1.13729
1.02193
1.11384
1.09379
0.901617
1.11324
1.09751
1.02596
1.08548
1.12382
1.06628
1.10106
1.04024
1.01823
1.08048
1.0461
1.35244
1.05689
1.77993
1.01884
1.02515
1.0496
0.820664
1.06685
0.827945
1.02155
1.15003
1.0427
1.13228
1.04283
1.09648
0.968742
1.74476
1.16284
1.1755
1.06044
1.16319
1.0011
1.07395
0.572711
0.864739
0.99926
1.02744
1.09897
1.32635
0.939129
1.27634
1.06717
1.14254
0.960928
1.00584
0.961828
1.06854
1.31204
1.03543
1.14968
1.02768
1.06413
1.14812
1.10658
1.10371
1.66871
1.09981
1.11877
0.818093
1.14577
0.925592
0.954213
0.854466
1.06699
1.0602
0.77225
0.725974
0.892401
0.904821
1.09005
1.06565
0.581902
0.952436
0.929792
1.04183
1.65897
1.04544
1.04632
0.972358
1.09802
1.09897
1.32282
1.05007
1.09295
1.15112
1.01223
1.19882
1.05663
1.15575
0.756068
0.993047
0.993088
1.02042
1.13532
1.09316
0.965948
0.931778
1.30632
1.06997
1.05219
1.70092
1.09228
1.0746
0.99302
1.14642
0.978726
1.10435
0.834044
1.12882
0.996833
1.70098
0.890099
1.34613
1.0993
1.0984
1.05819
0.522867
1.0485
1.05583
1.04331
1.41546
1.34257
0.782081
1.13966
1.08599
1.34219
1.22614
1.38766
1.2209
1.03659
1.0581
1.07076
1.31399
1.05714
1.04005
1.1179
1.11971
1.11062
1.17459
1.06372
1.69188
0.903269
1.00006
0.937727
1.02743
1.17522
1.21024
1.16632
1.11348
1.00952
1.09229
1.07429
1.00434
1.10759
1.10559
1.35606
1.06189
1.07849
1.00475
1.01338
1.02223
1.03493
1.06119
1.11635
1.2108
1.27073
1.11819
1.16462
1.0035
1.00891
1.01238
1.01652
1.03469
1.10949
1.35372
1.38422
1.07464
1.1358
1.00369
1.00915
1.01288
1.01852
1.04484
1.15567
1.35088
1.43379
1.08577
1.18473
1.00341
1.00677
1.00253
0.985576
0.955215
0.941994
1.7361
1.74169
0.98867
0.961435
1.26261
1.00354
1.21159
1.00671
1.12025
1.0023
1.07623
0.985521
1.06955
0.961484
1.03452
1.1301
0.555763
1.11736
1.05867
1.06142
0.881094
1.06304
1.0734
1.06433
0.800127
1.06856
1.51537
1.30354
1.38019
0.940995
1.79384
1.27792
1.43656
1.12051
1.1008
0.925395
1.74584
0.813815
1.05111
0.929986
0.967941
1.01797
1.06193
0.905931
1.023
1.02157
1.01611
1.04076
1.19803
1.02038
1.05126
1.07401
1.11484
1.04939
1.46963
1.10327
0.840257
1.03977
1.04751
1.04353
1.05272
1.06567
1.04455
1.08335
1.02465
1.10846
1.0335
1.1152
0.959683
0.60338
1.06974
1.28803
1.82764
1.0446
1.43195
1.07505
1.08903
1.00662
1.01895
0.999544
1.05274
0.629591
1.03343
0.928331
1.24302
1.06507
1.51225
1.04934
1.03989
1.00835
1.03098
1.04353
1.02523
1.03836
1.168
1.02389
1.67991
1.05207
1.05278
1.02985
0.96723
1.04199
1.02182
1.08361
1.14321
0.940486
1.03224
0.930197
0.977613
1.10899
0.727729
1.06581
1.04724
0.98242
1.03419
1.08173
1.00506
1.04771
0.995872
1.02041
1.11835
1.0119
1.02647
1.09119
1.06395
0.947107
1.07354
1.3858
1.14967
1.11334
1.06505
1.00342
1.00515
1.01271
1.04654
1.06545
0.970457
1.03444
0.941435
1.0475
1.02064
1.12203
1.01225
0.744377
0.863454
1.27603
1.13282
1.09452
1.01576
1.34923
1.08203
1.05239
1.18987
1.06698
1.73457
1.11299
1.01281
0.97949
1.11448
1.03426
1.06102
0.86342
1.08164
1.00547
1.02041
1.05392
0.985137
0.997099
1.09056
1.1591
1.19533
1.00581
0.943869
0.996287
1.00296
1.18375
0.942982
1.04079
1.13477
0.950444
0.822121
1.05529
1.28737
1.35123
0.991334
0.9971
1.00369
1.19365
1.00598
1.00433
1.04294
1.01305
0.963068
1.12015
0.899292
0.577979
1.04917
1.04036
1.01209
1.08316
1.12844
0.984722
1.0311
1.0306
0.994907
1.02179
1.01381
1.0588
1.38941
1.09907
1.22166
1.22408
1.04666
1.06221
0.564228
1.06525
0.968806
1.04103
1.20585
1.05302
1.4687
1.00434
1.01602
1.02691
1.09259
1.01789
1.0008
1.00507
1.04364
1.06023
1.04081
1.36506
1.01061
1.01735
1.01907
1.13965
1.11139
1.63091
1.7112
0.94379
1.11834
1.02089
1.04142
1.00982
1.01144
1.00491
0.965006
1.01373
1.11073
0.973541
0.981352
1.03462
1.13144
1.02769
1.01009
0.875003
0.598825
1.09565
0.9829
1.0864
0.979031
1.01919
1.00935
1.01512
0.761886
0.898039
1.06192
0.873476
1.47107
1.05388
1.93447
1.13599
1.08557
1.06154
0.954238
1.06825
0.986508
1.00738
1.02273
1.09839
0.962833
0.99236
1.03841
1.0249
1.0268
1.02015
1.00787
1.01652
0.982868
1.00713
1.04772
1.02036
0.913555
1.03127
1.86644
1.02689
1.51835
1.31991
0.97936
1.14714
0.95685
1.10524
1.3411
1.01278
0.990047
0.996553
1.07968
1.00847
0.997368
1.07018
1.01523
1.01988
0.936827
0.621563
0.959089
0.732823
1.0711
1.03282
1.0313
0.906443
1.0241
1.12447
1.03554
1.04857
1.15785
1.28265
1.06647
0.990499
1.35911
1.06555
1.11222
1.72282
1.9194
0.955583
1.35833
1.00561
1.03427
1.0462
1.0623
1.11797
1.03023
0.931261
1.14772
1.12448
1.02008
0.598455
1.19637
1.05417
0.846684
1.09873
0.962037
1.03063
0.940171
1.02319
0.782214
1.04558
1.0301
1.38787
0.894481
1.09234
1.05648
1.04799
0.957483
1.1005
1.03236
1.05797
1.14887
0.991768
1.02195
0.784056
1.04654
1.05762
1.05372
1.01931
1.03872
1.65806
1.08548
1.1091
1.10623
1.10983
1.10872
1.33766
1.16589
1.27518
1.41268
1.11482
1.17592
1.01062
0.579377
1.0246
1.08641
1.1245
1.11213
1.09792
1.11439
1.281
1.16133
1.03349
1.18528
1.04193
1.14656
1.12411
1.15504
1.12258
1.20841
1.05979
1.16167
0.973866
1.15117
1.10853
1.19792
1.0129
1.18564
0.997542
1.31724
0.817339
1.33296
0.916253
1.1418
1.02526
1.10078
1.05561
1.1064
1.03399
1.31212
0.573903
1.1467
1.02212
1.09591
0.979243
1.06156
0.878947
1.71699
1.07953
1.70709
0.993923
1.02635
1.02935
1.00288
1.04709
1.02707
1.04276
1.18668
1.08869
1.04614
1.03321
1.03456
1.04385
1.05963
1.08274
1.06217
1.03162
1.0261
1.03059
1.04059
1.05595
1.07863
1.11123
1.16503
1.06228
1.03147
1.0261
1.03069
1.04083
1.05647
1.07964
0.978827
0.993636
1.0092
1.02115
1.03208
1.04523
1.06515
1.09971
1.11395
0.966318
1.15042
0.968594
1.18054
0.992348
1.18424
1.00928
1.1619
1.02145
1.1343
1.03261
1.11348
1.04635
0.966514
1.13734
1.06049
1.05867
1.198
0.997537
1.22566
1.16539
1.0134
1.11032
0.561961
1.13794
0.843467
0.961094
1.15079
1.16116
0.937628
1.37432
0.977032
0.948032
1.08527
1.24454
0.968701
1.37039
0.980236
1.04889
0.832254
0.517744
0.987495
1.27626
1.14238
1.07196
1.04568
0.967844
0.934257
1.04412
0.955734
1.27161
1.28078
1.1026
1.16925
1.34055
1.36467
0.997264
1.13929
0.946044
1.05481
1.1254
1.0469
0.966794
1.13873
1.04609
1.07975
0.972866
0.941987
1.41523
1.02011
0.964184
0.901398
0.913112
1.40638
1.01283
1.25356
1.16352
0.923076
1.0153
1.22432
1.05315
0.554793
0.992899
1.01224
0.972271
0.960517
1.1516
0.992383
0.838117
0.974863
1.24157
0.966025
1.08108
1.34848
1.09188
1.00804
1.27074
1.16025
0.981547
1.09174
1.00017
1.03115
1.13446
1.16865
1.01254
1.24528
0.993235
1.03977
1.27997
0.9943
1.09303
1.32994
0.997814
1.08186
0.994574
1.00841
1.09462
1.15509
1.02466
1.12327
1.11739
1.01327
1.24637
1.00626
1.19966
1.02082
0.951791
1.19383
0.961472
1.1084
1.38495
0.976506
1.64647
0.961332
0.872553
0.964043
1.16513
0.753707
0.755352
1.27561
0.995444
0.921826
1.24079
1.09768
1.04163
1.13133
1.0221
1.13093
1.02154
1.05179
1.05296
1.23958
1.02208
1.0387
1.16448
1.01298
1.19391
0.96095
1.66243
1.15481
0.865291
0.55133
1.08613
1.0304
1.13824
1.08591
1.09769
1.0376
1.04186
1.10969
1.6274
1.11278
0.581651
1.13566
1.10453
1.10846
1.02929
1.03119
1.07765
1.73048
1.04894
0.971043
1.15358
1.03684
1.10677
1.02699
1.22558
0.996526
1.10839
1.02802
1.32082
1.03841
1.06918
0.989898
0.907334
0.946374
0.970614
1.16719
1.21919
0.936639
0.881894
0.978206
1.33467
0.880609
0.911852
1.05472
1.01014
1.06751
0.942009
1.66939
0.972115
1.10525
0.996829
1.07681
1.05999
0.868145
1.15637
1.00241
1.30132
0.964379
1.74411
1.10294
1.06777
1.11088
1.00696
0.750088
1.09834
0.999187
1.29901
1.04187
0.981987
1.08569
0.82464
1.08446
1.32495
1.01369
1.1365
1.24749
1.11216
1.16756
0.531748
0.764997
1.03191
1.37738
1.01619
1.27288
0.973147
0.979094
0.88465
0.998753
1.25841
1.01333
0.978864
0.888037
0.893264
0.99225
1.24407
1.09182
1.14323
0.941028
1.14131
1.00153
0.919147
1.12732
1.09251
0.990348
1.63301
0.96843
1.19682
0.955772
0.985839
1.1597
1.01931
0.944176
0.938039
1.15385
0.760545
1.11017
0.988155
0.937675
1.05305
1.05184
0.912094
0.853897
1.13775
0.924125
1.01854
1.59178
1.09698
1.61281
1.1506
0.723291
0.814982
1.20012
1.05867
0.919252
1.07871
1.14153
1.37741
1.01943
1.05567
1.13099
1.04959
1.00952
0.989943
1.08684
1.07711
1.05586
1.02787
0.7774
1.02981
1.1063
1.00652
1.20697
0.996009
1.26351
0.972712
1.24209
1.09904
0.583035
0.987444
1.28669
0.947811
1.14986
1.15681
0.863716
0.942164
1.09278
1.07135
1.05586
1.02592
1.10573
1.00496
1.21074
1.07006
1.0539
1.00674
1.01589
1.02443
1.02053
1.03908
1.0755
1.03571
1.73758
1.0213
1.11999
1.05674
1.7913
1.01362
1.1997
1.09719
0.978021
1.01278
1.41833
1.04474
1.13317
0.973389
1.06902
1.05416
1.03797
1.07816
1.02064
1.13583
1.05737
1.03034
0.996569
1.06063
1.01784
1.15068
1.03667
1.02353
1.01103
1.08001
1.02353
1.37638
1.02655
1.00652
1.03532
1.38454
1.02473
1.00646
1.07269
1.14483
1.03116
1.82314
1.0634
1.1972
0.997003
1.15363
0.87247
1.03491
1.05731
1.03047
1.03652
1.0248
1.0264
1.01899
1.03156
1.01387
1.02445
0.983667
1.02369
0.885608
1.02772
0.592511
1.03128
1.01396
1.0238
0.895161
1.02453
0.984491
0.990655
1.02774
1.00651
1.01326
1.01617
0.983306
1.02404
0.967385
0.989607
1.02813
1.01648
0.996515
0.959656
1.05618
0.995957
1.05943
1.01068
1.07805
1.01745
1.15633
1.02257
1.42133
0.960683
1.05649
0.995916
1.08175
1.00829
1.09168
1.01337
1.11789
1.01259
1.172
1.00619
1.25236
1.01513
1.05119
1.10967
1.21678
1.37943
1.37441
1.20858
1.09653
1.08126
1.18307
1.01219
1.04033
1.08655
1.1908
1.45912
1.45991
1.17777
1.06693
1.05492
1.15569
1.15877
1.01279
1.04093
1.0878
1.19826
1.50093
1.45747
1.23191
1.0793
1.05528
1.16263
1.00628
1.0141
1.01576
1.05277
1.8139
1.85619
0.990084
0.971597
0.973038
1.01686
1.01665
1.04209
1.00645
1.02083
1.0127
1.01865
1.00594
1.73548
1.02252
1.06783
1.06046
1.11756
1.0635
1.09181
1.06826
1.13543
1.18277
1.01779
1.06731
1.39581
1.17048
1.04711
1.1315
1.35386
1.08153
1.06874
1.01873
1.08627
1.06878
1.19437
1.01665
1.09217
1.24367
1.13681
1.10441
1.01602
1.07183
1.17083
1.0469
1.12279
1.2415
1.09642
1.15985
0.960154
1.05447
0.980318
0.96183
1.05061
1.02277
0.936542
1.32233
1.01145
1.30781
1.03138
1.06148
1.0452
0.900056
0.797701
0.564825
1.02774
1.03829
0.842276
1.0526
0.967672
0.98274
1.01299
1.07803
1.1163
0.989521
1.04617
1.12306
1.02508
1.08412
1.11192
1.12908
1.30747
1.11918
1.38249
0.9891
1.11423
0.770729
1.24072
1.37093
1.04954
1.38901
0.981493
1.29097
0.903799
1.03753
0.999953
1.69416
1.05957
1.03363
1.0547
1.09067
1.00604
1.03366
0.841437
0.57595
1.01738
0.993971
0.73562
1.12241
1.06895
1.02782
0.729945
1.07312
1.01362
1.07737
1.06344
1.03852
0.839044
0.989108
1.02985
1.39356
1.11388
0.918334
1.03363
1.1864
1.32347
1.342
0.984394
1.00456
1.01729
0.9034
1.03921
1.09127
1.16782
0.953589
1.16849
1.79714
0.942746
1.30391
1.03133
0.96822
1.04707
1.12381
1.35871
1.07349
1.13202
1.08399
1.70027
1.02249
1.05773
0.970163
1.0079
1.11691
1.31135
1.05313
0.949656
1.34344
1.14492
1.01315
1.42016
0.576418
1.21462
1.07653
1.69139
1.00792
1.18422
1.21385
1.11277
1.09135
1.25976
1.11352
1.27076
1.21205
1.07731
0.975349
1.42277
0.853428
1.01398
1.0583
1.0197
0.805373
1.35133
0.953937
1.03384
1.02182
0.929867
1.00963
0.93722
1.13905
1.05588
0.974237
1.11573
1.01136
0.998807
1.13899
1.766
0.931755
1.37627
1.01112
1.05142
1.00592
1.20444
1.42062
0.861463
1.18401
1.01214
1.46188
0.744771
1.0476
0.950004
1.08666
0.963864
1.01959
0.629398
0.979271
1.0096
0.926019
1.69684
1.01166
0.997624
1.77858
1.02777
1.00426
1.67498
0.984991
1.06557
1.09669
1.69773
0.999786
0.91854
1.02576
0.914334
1.03916
1.15893
1.02337
1.1146
1.09679
1.00813
1.02558
1.0041
1.05859
1.02595
0.914531
1.03747
1.11515
1.07158
0.881275
0.566129
0.990121
0.844524
1.03226
1.11402
1.04514
1.07161
1.35462
1.02395
1.12045
1.06097
1.11138
1.08412
1.0727
1.11445
1.02841
1.11891
1.21756
1.09688
1.21921
1.07903
1.11306
1.15011
1.16408
1.08328
1.08269
1.40358
1.1297
1.24127
1.09316
1.24842
1.09339
1.16207
1.12903
1.10476
1.19648
1.08186
1.19172
1.0801
1.10408
1.0859
1.03493
1.08486
1.20598
1.08185
1.1893
1.08002
1.11157
1.08512
1.04377
1.08256
1.25798
1.06816
1.25247
1.04502
1.16944
1.01005
1.10412
0.984604
1.10157
1.21701
1.08269
1.21945
1.08504
1.16386
1.14047
1.11271
1.35295
1.0826
1.36046
1.06937
1.12177
1.06449
1.03656
1.06001
1.37379
0.777895
1.43477
0.868421
1.35027
1.06914
1.18093
1.06373
1.05536
1.05854
1.42555
1.04878
1.37604
1.0238
1.19221
0.934174
1.07202
0.620731
1.16619
1.07177
1.25134
1.05118
1.25284
1.02663
1.16366
1.03827
1.10029
1.73465
1.06659
1.79782
1.05058
0.994717
1.04318
0.999739
1.04049
1.15822
1.04253
1.00653
1.03951
1.04488
1.06844
1.10109
1.11081
0.975381
1.11206
1.19506
1.05078
1.37686
0.95047
1.14063
1.02743
1.38126
0.810502
1.05934
1.03338
1.02362
0.607262
1.01757
0.915183
1.01414
1.02437
1.34815
1.08841
1.03604
0.724285
1.01699
0.905252
1.01275
1.04488
1.74351
1.12022
0.965235
1.06536
1.77479
1.28049
0.96523
0.985013
0.993655
0.925908
0.990018
0.966799
0.974803
1.92039
0.986098
0.968474
0.989577
1.70496
0.993829
0.977098
0.972394
0.575047
1.43065
0.949593
1.51792
0.858064
1.36071
0.976838
1.08591
0.975421
1.01587
0.946255
1.51528
0.950213
1.33877
0.976875
1.01403
0.945606
1.72376
0.966726
1.11483
0.979848
1.93316
0.962245
1.10111
0.988945
1.04922
0.989673
1.01503
0.983944
1.03467
1.00272
