# vtk DataFile Version 2.0
Unstructured Grid by M++
ASCII
DATASET UNSTRUCTURED_GRID
POINTS 4072 float
  0.812500   0.625000 0
  0.953125   0.609375 0
  0.968750   0.609375 0
  0.875000   0.687500 0
  0.812500   0.937500 0
  0.859375   0.687500 0
  0.796875   0.937500 0
  0.968750   1.000000 0
  0.984375   0.984375 0
  0.968750   0.984375 0
  0.843750   0.656250 0
  0.875000   0.656250 0
  0.812500   0.906250 0
  0.859375   0.640625 0
  0.781250   0.984375 0
  0.843750   0.734375 0
  0.781250   0.968750 0
  0.843750   0.718750 0
  0.765625   0.968750 0
  0.828125   0.718750 0
  0.921875   0.593750 0
  0.859375   0.843750 0
  0.765625   1.000000 0
  0.828125   0.750000 0
  0.875000   0.796875 0
  0.890625   0.781250 0
  0.875000   0.781250 0
  0.921875   0.609375 0
  0.859375   0.859375 0
  0.984375   0.968750 0
  1.000000   0.968750 0
  1.000000   0.953125 0
  0.859375   0.734375 0
  0.796875   0.984375 0
  0.875000   0.734375 0
  0.812500   0.984375 0
  0.906250   0.953125 0
  0.968750   0.703125 0
  0.796875   0.750000 0
  0.812500   0.812500 0
  0.828125   0.796875 0
  0.781250   0.843750 0
  0.843750   0.593750 0
  0.953125   0.937500 0
  0.890625   0.625000 0
  0.828125   0.875000 0
  0.906250   0.625000 0
  0.843750   0.875000 0
  0.890625   0.609375 0
  0.828125   0.859375 0
  0.906250   0.609375 0
  0.843750   0.859375 0
  0.906250   0.593750 0
  0.843750   0.843750 0
  0.843750   0.765625 0
  0.859375   0.750000 0
  0.796875   1.000000 0
  0.937500   0.609375 0
  0.875000   0.859375 0
  0.765625   0.515625 0
  0.843750   0.640625 0
  0.843750   0.578125 0
  0.781250   0.828125 0
  0.843750   0.515625 0
  0.781250   0.765625 0
  1.000000   0.687500 0
  0.937500   0.937500 0
  0.828125   0.593750 0
  0.765625   0.843750 0
  0.828125   0.531250 0
  0.765625   0.781250 0
  0.765625   0.984375 0
  0.828125   0.734375 0
  0.812500   0.734375 0
  0.765625   0.765625 0
  0.781250   0.750000 0
  1.000000   0.656250 0
  0.937500   0.906250 0
  0.765625   0.750000 0
  0.968750   0.578125 0
  0.953125   0.593750 0
  0.953125   0.578125 0
  0.937500   0.593750 0
  0.875000   0.843750 0
  0.812500   0.796875 0
  0.875000   0.546875 0
  0.984375   0.953125 0
  0.984375   0.937500 0
  0.765625   0.562500 0
  0.937500   0.656250 0
  0.875000   0.906250 0
  0.765625   0.531250 0
  0.937500   0.625000 0
  0.875000   0.875000 0
  0.937500   0.859375 0
  1.000000   0.609375 0
  0.828125   0.687500 0
  0.765625   0.937500 0
  1.000000   0.781250 0
  0.812500   0.671875 0
  0.984375   0.765625 0
  0.828125   0.656250 0
  1.000000   0.750000 0
  0.937500   1.000000 0
  0.781250   0.515625 0
  0.953125   0.671875 0
  0.890625   0.921875 0
  0.781250   0.578125 0
  0.953125   0.984375 0
  0.984375   0.640625 0
  0.921875   0.890625 0
  0.968750   0.625000 0
  0.906250   0.875000 0
  0.812500   0.765625 0
  0.984375   0.859375 0
  1.000000   0.843750 0
  0.968750   0.859375 0
  0.843750   0.703125 0
  0.781250   0.953125 0
  0.843750   0.750000 0
  0.781250   1.000000 0
  0.843750   0.687500 0
  0.781250   0.937500 0
  0.828125   0.765625 0
  1.000000   0.859375 0
  0.828125   0.703125 0
  0.765625   0.953125 0
  0.968750   0.968750 0
  0.968750   0.953125 0
  0.796875   0.781250 0
  0.859375   0.531250 0
  0.968750   0.937500 0
  0.953125   0.968750 0
  0.781250   0.796875 0
  0.843750   0.546875 0
  0.953125   0.953125 0
  0.781250   0.812500 0
  0.953125   0.906250 0
  0.859375   0.781250 0
  0.859375   0.703125 0
  0.796875   0.953125 0
  0.859375   0.765625 0
  1.000000   0.734375 0
  0.937500   0.984375 0
  0.828125   0.578125 0
  0.765625   0.828125 0
  1.000000   0.796875 0
  0.828125   0.640625 0
  0.984375   0.734375 0
  0.921875   0.984375 0
  0.812500   0.640625 0
  0.890625   0.953125 0
  0.953125   0.703125 0
  0.796875   0.687500 0
  0.968750   0.781250 0
  0.968750   0.750000 0
  0.906250   1.000000 0
  0.953125   0.765625 0
  0.812500   0.718750 0
  0.843750   0.984375 0
  0.906250   0.734375 0
  0.921875   0.625000 0
  0.859375   0.875000 0
  0.921875   0.687500 0
  0.859375   0.937500 0
  0.968750   0.796875 0
  0.796875   0.703125 0
  0.937500   0.671875 0
  0.984375   0.796875 0
  0.812500   0.703125 0
  0.765625   0.687500 0
  0.937500   0.843750 0
  1.000000   0.593750 0
  0.937500   0.781250 0
  1.000000   0.531250 0
  0.812500   0.781250 0
  0.984375   0.875000 0
  0.843750   1.000000 0
  0.906250   0.750000 0
  0.968750   0.500000 0
  0.968750   0.718750 0
  0.906250   0.968750 0
  0.796875   0.625000 0
  0.859375   1.000000 0
  0.921875   0.750000 0
  0.968750   0.765625 0
  0.796875   0.609375 0
  0.859375   0.984375 0
  0.921875   0.734375 0
  1.000000   0.625000 0
  0.937500   0.875000 0
  1.000000   0.562500 0
  0.937500   0.812500 0
  0.875000   0.984375 0
  0.937500   0.734375 0
  0.906250   0.703125 0
  0.843750   0.953125 0
  0.906250   0.687500 0
  0.843750   0.937500 0
  0.937500   0.765625 0
  0.890625   0.718750 0
  0.828125   0.968750 0
  0.890625   0.703125 0
  0.828125   0.953125 0
  0.921875   0.781250 0
  0.906250   0.796875 0
  0.921875   0.718750 0
  0.859375   0.968750 0
  0.921875   0.703125 0
  0.859375   0.953125 0
  0.765625   0.546875 0
  0.937500   0.640625 0
  0.875000   0.890625 0
  0.937500   0.703125 0
  0.875000   0.953125 0
  0.765625   0.593750 0
  0.937500   0.687500 0
  0.875000   0.937500 0
  0.890625   0.937500 0
  0.953125   0.687500 0
  0.906250   0.718750 0
  0.843750   0.968750 0
  0.937500   0.796875 0
  0.828125   0.921875 0
  0.890625   0.671875 0
  0.984375   0.750000 0
  0.921875   1.000000 0
  0.812500   0.593750 0
  0.875000   0.968750 0
  0.937500   0.718750 0
  0.890625   1.000000 0
  0.953125   0.750000 0
  0.968750   0.671875 0
  0.906250   0.921875 0
  0.968750   0.734375 0
  0.906250   0.984375 0
  0.796875   0.578125 0
  0.984375   0.671875 0
  0.921875   0.921875 0
  0.812500   0.515625 0
  0.812500   0.578125 0
  0.765625   0.578125 0
  0.843750   0.906250 0
  0.906250   0.656250 0
  0.890625   0.750000 0
  0.828125   1.000000 0
  0.781250   0.593750 0
  0.984375   0.546875 0
  0.921875   0.796875 0
  0.921875   0.812500 0
  0.859375   0.656250 0
  0.859375   0.593750 0
  0.796875   0.843750 0
  0.859375   0.578125 0
  0.796875   0.828125 0
  0.921875   0.953125 0
  0.984375   0.703125 0
  0.984375   0.625000 0
  0.921875   0.875000 0
  0.875000   0.640625 0
  0.812500   0.890625 0
  0.875000   0.578125 0
  0.812500   0.828125 0
  0.765625   0.859375 0
  0.828125   0.609375 0
  0.937500   0.953125 0
  1.000000   0.703125 0
  0.921875   0.906250 0
  0.984375   0.656250 0
  0.921875   0.968750 0
  0.984375   0.718750 0
  1.000000   0.765625 0
  0.890625   0.984375 0
  0.953125   0.734375 0
  0.953125   0.656250 0
  0.890625   0.906250 0
  0.953125   0.718750 0
  0.890625   0.968750 0
  0.781250   0.562500 0
  0.796875   0.796875 0
  0.968750   0.640625 0
  0.906250   0.890625 0
  0.953125   0.796875 0
  0.953125   0.859375 0
  0.781250   0.703125 0
  0.984375   0.781250 0
  0.875000   1.000000 0
  0.937500   0.750000 0
  0.906250   0.937500 0
  0.968750   0.687500 0
  0.843750   0.625000 0
  0.781250   0.875000 0
  0.765625   0.796875 0
  0.937500   0.890625 0
  1.000000   0.640625 0
  0.781250   0.781250 0
  0.906250   0.906250 0
  0.968750   0.656250 0
  0.796875   0.765625 0
  1.000000   0.718750 0
  0.937500   0.968750 0
  0.828125   0.562500 0
  0.765625   0.812500 0
  0.828125   0.625000 0
  0.484375   0.750000 0
  0.421875   1.000000 0
  0.000000   0.218750 0
  0.453125   0.640625 0
  0.281250   0.546875 0
  0.312500   0.640625 0
  0.406250   0.984375 0
  0.468750   0.734375 0
  0.328125   0.656250 0
  0.390625   0.828125 0
  0.453125   0.578125 0
  0.437500   0.875000 0
  0.015625   0.093750 0
  0.312500   0.531250 0
  0.406250   0.937500 0
  0.343750   0.562500 0
  0.281250   0.812500 0
  0.453125   0.984375 0
  0.359375   0.625000 0
  0.296875   0.875000 0
  0.468750   0.796875 0
  0.046875   0.015625 0
  0.437500   0.656250 0
  0.312500   0.578125 0
  0.421875   0.921875 0
  0.000000   0.140625 0
  0.484375   0.671875 0
  0.265625   0.734375 0
  0.468750   0.984375 0
  0.046875   0.203125 0
  0.406250   0.625000 0
  0.390625   0.609375 0
  0.375000   0.625000 0
  0.265625   0.562500 0
  0.484375   0.812500 0
  0.062500   0.031250 0
  0.484375   0.984375 0
  0.062500   0.203125 0
  0.312500   0.890625 0
  0.375000   0.640625 0
  0.375000   0.671875 0
  0.390625   0.687500 0
  0.484375   0.843750 0
  0.390625   0.500000 0
  0.328125   0.687500 0
  0.328125   0.765625 0
  0.390625   0.515625 0
  0.437500   0.796875 0
  0.484375   0.531250 0
  0.468750   0.968750 0
  0.046875   0.187500 0
  0.453125   0.843750 0
  0.453125   0.812500 0
  0.281250   0.718750 0
  0.468750   0.859375 0
  0.265625   0.984375 0
  0.375000   0.765625 0
  0.296875   0.562500 0
  0.484375   0.781250 0
  0.062500   0.000000 0
  0.453125   1.000000 0
  0.031250   0.218750 0
  0.453125   0.546875 0
  0.312500   0.703125 0
  0.328125   0.718750 0
  0.296875   0.656250 0
  0.281250   0.640625 0
  0.265625   0.656250 0
  0.281250   0.671875 0
  0.484375   0.890625 0
  0.062500   0.109375 0
  0.296875   0.687500 0
  0.296875   0.625000 0
  0.265625   0.703125 0
  0.265625   0.687500 0
  0.265625   0.625000 0
  0.953125   0.046875 0
  0.484375   0.875000 0
  0.484375   0.921875 0
  0.062500   0.140625 0
  0.453125   0.921875 0
  0.031250   0.140625 0
  0.968750   0.234375 0
  0.171875   0.671875 0
  0.500000   0.796875 0
  0.078125   0.015625 0
  0.218750   0.718750 0
  0.062500   0.828125 0
  0.734375   0.250000 0
  0.906250   0.140625 0
  0.109375   0.578125 0
  0.781250   0.015625 0
  0.718750   0.187500 0
  0.031250   0.828125 0
  0.718750   0.234375 0
  0.890625   0.125000 0
  0.093750   0.562500 0
  0.734375   0.359375 0
  0.859375   0.546875 0
  0.062500   0.984375 0
  0.750000   0.406250 0
  0.718750   0.343750 0
  0.250000   0.750000 0
  0.234375   0.734375 0
  0.046875   0.578125 0
  0.734375   0.000000 0
  0.828125   0.125000 0
  0.031250   0.562500 0
[...]
POINT_DATA 4072
SCALARS scalar_value float 1
LOOKUP_TABLE default
3.68236e-05
1.38088e-08
-4.96992e-09
1.02812e-05
0.000433818
-6.82904e-06
0.00297378
0
-6.74875e-06
0.000156728
3.56573e-05
1.50378e-05
0.00099891
2.02646e-05
-0.00155915
1.31095e-05
-0.0023468
6.71632e-06
0.00210465
-3.47617e-05
1.50097e-07
0.000172674
0
-0.000138598
-7.01308e-05
-4.46695e-05
4.74412e-05
3.19922e-07
-0.000446454
6.12841e-05
-0.000126019
0.000158648
1.0816e-05
0.000846455
-1.29365e-05
0.000208235
8.01387e-05
-4.96674e-06
-7.64546e-05
-0.000600606
-9.83414e-05
-0.000884731
-4.65357e-07
0.000159271
2.17905e-06
0.000284711
-1.70952e-06
-0.000524655
-9.31704e-08
-0.000761175
-3.35211e-07
0.000720192
-5.83702e-07
-0.000412711
-3.74046e-05
-1.3314e-05
0
-1.11115e-07
0.000795761
-4.16303e-05
-2.44976e-05
3.57217e-06
0.00182836
6.8633e-07
-0.000640319
1.61428e-06
-0.000233812
-7.83948e-07
-0.000373022
-2.1347e-06
0.00145737
0.00231526
-1.74398e-05
-4.95894e-05
0.001221
-9.68864e-05
-5.67635e-08
-7.21287e-05
0.000546569
1.10793e-08
5.24812e-08
-5.37297e-08
-7.61194e-08
-0.000314779
0.000111889
-6.76287e-08
-5.66438e-05
4.85008e-05
-4.06723e-05
1.21105e-06
-0.000326618
-3.25182e-05
-3.05117e-07
-0.000726554
-8.1021e-06
-8.42312e-09
-1.09862e-05
0.000347302
5.02521e-06
1.25835e-06
-6.46881e-07
-3.84688e-05
1.07649e-05
0
1.35853e-05
2.04112e-06
-0.000502977
-2.63124e-06
6.90857e-07
-4.28413e-09
-1.81473e-05
-5.31354e-08
0.000421616
-0.000170524
5.64872e-06
8.93756e-06
-5.99526e-06
2.01827e-05
-0.00208515
8.29162e-05
0
1.17741e-05
-0.00846676
5.49872e-05
-1.21237e-05
-3.99531e-05
0.00172161
-0.00012582
0.000147876
0.000107486
-1.44579e-06
-8.7857e-05
0.000153247
0.000439728
5.73063e-07
-0.000155214
-0.0018882
4.93594e-05
-0.00011643
7.27965e-06
0.000127719
6.37398e-05
-1.00126e-05
-5.56913e-05
-4.30114e-06
-0.00250336
-1.89294e-06
3.19679e-05
3.81409e-06
0.000112048
-4.42363e-05
5.84965e-05
7.50494e-06
6.19298e-05
4.56615e-06
8.23378e-06
0
-2.24261e-06
2.27565e-05
0.000150405
6.35476e-07
8.01222e-07
0.000124007
-1.19935e-05
-0.000132365
-3.09837e-06
5.86909e-05
-4.21977e-06
-2.98943e-06
1.42742e-05
0.000209493
-3.54922e-06
-7.76432e-08
3.78579e-06
-8.16601e-09
7.68647e-05
1.18726e-06
0
-2.38463e-06
-8.28581e-09
8.00724e-06
0.000149211
-3.64535e-05
0
1.19377e-06
-4.27792e-06
5.09315e-05
-0.000404314
4.0387e-06
-9.15816e-08
-1.25764e-05
-2.21911e-08
1.28013e-05
0.000446359
-6.39319e-06
-1.50799e-05
0.000168492
1.58558e-05
1.16519e-05
2.20099e-06
1.41515e-08
0.000245219
1.487e-05
-0.000140285
-7.51524e-06
-3.72811e-05
-1.04406e-05
0.000169062
1.37694e-05
-0.000175977
-5.82778e-05
-6.2144e-08
0.000661112
-1.07367e-05
-4.69028e-05
-0.000116474
8.18032e-06
0.000266037
2.53951e-05
-5.24674e-06
7.54818e-06
-0.000189726
-3.07641e-06
0.000297318
2.09175e-05
-2.45817e-06
0
4.94752e-06
0.000109066
1.10354e-05
0
-5.31279e-06
-9.03985e-07
0.000484868
-7.54947e-06
-5.77782e-05
3.68765e-07
4.73801e-07
-0.000283561
4.18051e-07
2.8829e-06
-6.95269e-06
-0.000391351
5.63211e-06
3.33464e-06
0
5.00632e-05
2.0648e-08
1.84322e-05
-2.94511e-05
-2.37394e-05
1.33634e-06
0.00120653
-2.07611e-06
-0.00130721
-0.000180376
2.81028e-06
4.08363e-08
-8.72911e-05
-1.40663e-05
0.000479079
6.08487e-07
0.000834784
0.000792356
1.08972e-05
0.00018027
-4.05279e-06
0.000154495
-5.65809e-08
3.56454e-05
-4.22089e-06
-9.34024e-06
-0.000194436
6.91947e-06
-5.58332e-07
0.000576549
-9.94132e-06
-0.00025809
3.80974e-06
-0.000249968
9.84523e-08
0.000124772
-3.51819e-06
2.1657e-06
-0.00020557
3.07263e-06
0
2.74859e-06
-0.000290557
3.08105e-06
1.88505e-05
0.000643288
-0.000729352
1.61592e-05
9.34943e-09
-0.000553879
-0.00034555
2.12645e-07
0.00033116
7.1411e-06
-0.000128242
2.00083e-06
0.00265753
-3.11049e-05
0.248997
0
-2.87906e-09
0.0182384
0.000304536
-0.00580455
-0.0242392
0.172509
0.0352119
0.427176
0.00368391
0.497412
6.55206e-10
0.00218368
-0.0114641
-0.00106453
0.0492369
-0.0064169
0.00607276
0.0897173
0.482376
0
0.0321618
-0.00697685
0.0509274
-1.02456e-09
0.0503947
-0.00717702
-0.0499924
1.4595e-09
-0.00173308
0.00546457
0.0136757
9.90444e-06
0.585067
0
-0.015288
-2.95922e-09
0.19038
0.0204838
0.0456557
0.0267705
0.698013
0.000162279
0.0568663
0.284673
0.000417804
0.10566
0.000853472
-0.0154918
1.59669e-09
0.633849
0.592793
0.00686142
0.697492
-0.00334014
0.0400885
-0.00222635
0.399895
0
0
-3.01398e-09
0.00176913
0.0825081
0.107667
0.00322367
0.00473589
0.00298634
-0.000485047
0.400772
2.89017e-10
0.0219072
0.0165139
-0.00331494
-0.000160607
0.00725739
0
0.477938
0.099126
-1.07087e-09
0.072108
-1.15983e-09
-3.1269e-10
-0.000145076
0.452575
0
-0.000806609
1.03777e-05
-6.28096e-07
1.23654e-10
2.78554e-06
5.57338e-09
1.32503e-07
8.74165e-05
2.78744e-07
-4.53227e-10
2.67194e-06
-4.3443e-06
-4.04004e-07
1.11511e-05
1.69973e-05
-1.9886e-08
7.87187e-05
0.00115187
1.68955e-06
-1.30298e-08
9.58607e-09
-9.80975e-08
9.7757e-06
6.28602e-05
2.35759e-08
-3.93802e-05
0
1.08651e-06
-4.86003e-08
2.12814e-06
-0.000266344
-1.24678e-05
0
5.07871e-08
4.5598e-06
0.00221296
2.02369e-07
5.00477e-08
-3.02646e-07
3.32797e-05
-1.55156e-06
4.04375e-08
-1.03808e-09
-2.06144e-06
9.29833e-09
5.36638e-05
0.000744068
-4.23117e-07
0
-2.6224e-08
-3.43796e-05
2.9877e-08
4.245e-05
-0.00019851
-1.31671e-05
2.40141e-10
-6.23638e-08
0
-2.33207e-05
7.09874e-08
-3.56381e-07
-6.57235e-09
-0.00017968
-1.07237e-08
5.30027e-07
7.20113e-05
0.148841
-3.09132e-10
-1.96257e-06
5.31869e-07
5.74057e-09
1.68368e-06
3.66433e-08
1.91332e-06
0
2.21247e-05
-0.000146527
-7.61138e-08
4.72923e-05
-4.44898e-05
-6.39932e-07
1.83404e-07
1.72703e-06
0.000156397
-8.0847e-06
1.73863e-08
-4.52103e-05
4.1941e-05
1.53805e-05
5.96738e-09
-0.000310501
0
5.5998e-07
-2.92564e-09
2.16062e-05
-8.33725e-07
-1.5738e-07
0
-1.18501e-05
-0.000541942
4.40761e-05
0.00145481
0.0567104
-8.58718e-05
0
9.4374e-07
1.08615e-06
4.75095e-08
0.00170469
-4.2557e-05
0
0
-4.49062e-06
1.20875e-07
0.00412536
-1.2614e-05
0
6.98726e-08
3.3423e-08
0
-6.05229e-06
3.28172e-07
0
5.1502e-06
0
-1.42294e-05
-3.19429e-06
-2.23478e-07
1.10454e-07
-8.93472e-06
0.000189263
2.93938e-05
0
-6.47161e-06
-3.02066e-07
-0.00104285
4.31857e-05
-1.51765e-06
8.94885e-07
-1.0146e-10
0
-9.90239e-06
4.7186e-05
5.86621e-07
7.9437e-08
-2.62829e-07
-3.15664e-05
6.1878e-08
2.19501e-05
2.89258e-10
6.97924e-07
-1.42801e-07
-0.000134539
4.93924e-05
2.98751e-07
-9.18157e-10
9.02629e-07
-1.25912e-08
-0.000529825
-0.000360278
0.0015997
0.000102986
1.3562e-10
2.06753e-06
-3.46132e-07
0.00155779
1.02426e-08
-0.000155092
-3.16236e-06
0
1.29029e-05
8.49912e-08
6.94577e-05
-0.0134275
-9.53685e-05
-2.42004e-07
-6.48142e-05
-0.000500478
5.03763e-06
0
-1.81643e-06
-4.60114e-06
4.02102e-05
4.08108e-10
2.04739e-06
-9.17336e-09
-1.08883e-07
9.48386e-08
-7.72557e-05
-9.31905e-08
-4.79035e-06
0
-1.84221e-06
0.000135688
1.76426e-07
0
-0.000121443
0
1.00339e-07
1.87111e-07
-0.00171037
-4.06172e-08
-9.33606e-06
-0.00151726
1.26313e-08
0.00277925
-3.64696e-05
-1.06913e-10
9.83239e-07
-1.09791e-07
1.61337e-06
1.72622e-08
6.882e-05
-7.4991e-07
-1.18214e-08
-0.000455297
-0.000153004
6.17543e-09
-0.000788853
-7.8728e-07
0.000129236
-8.73101e-08
0.0113331
3.00389e-06
-5.43541e-10
8.09296e-10
8.11389e-07
-1.5882e-08
0.000252048
-3.22751e-09
2.9413e-07
-2.77895e-07
8.64777e-10
-2.59881e-07
3.87373e-07
-5.35391e-07
4.05322e-05
0
2.42355e-07
-2.80704e-07
1.01157e-07
-2.87068e-08
2.63186e-05
-8.28888e-08
2.57349e-07
7.04499e-06
-3.97281e-08
0
4.18101e-09
1.17621e-07
-3.68429e-05
-3.1737e-07
-6.09865e-07
3.14534e-08
4.2361e-07
-9.16761e-06
2.29802e-07
1.09923e-08
6.68415e-06
-3.44159e-08
2.19643e-05
2.52627e-07
3.54608e-06
-3.34012e-08
-9.89165e-06
2.61909e-08
-2.78894e-07
-2.58822e-06
3.68741e-08
1.318e-07
5.35244e-06
-4.74419e-08
0.00131698
4.35364e-08
1.12556e-06
0
-1.76822e-05
2.55699e-08
-0.00122687
-4.05057e-08
-1.28763e-07
0
-8.94443e-06
1.29394e-07
0
-8.47989e-06
-0.00258177
0.000125169
-3.37779e-07
3.36385e-07
-3.27799e-08
0.00369123
-4.59013e-05
-0.0149482
0
3.25718e-06
0
-9.7273e-06
5.06958e-05
-6.73089e-07
0.000156501
8.93029e-06
0.00976475
0
0
0.00241461
-1.33137e-09
2.37298e-06
-2.44e-08
-5.39943e-09
5.40569e-07
-3.25703e-08
-0.000738426
7.85852e-06
-2.60952e-06
1.70714e-08
0.621039
0
-3.59522e-08
-1.42577e-06
-1.57164e-09
3.3643e-08
3.56091e-07
-9.09921e-10
-3.66697e-09
-3.03981e-09
0.616789
-5.52819e-08
-2.75198e-06
-6.18052e-09
7.06493e-07
1.908e-07
-0.000344304
1.98688e-05
0.00096663
-9.86316e-08
-0.00103853
0.61661
-2.53402e-06
-4.153e-07
-5.37339e-05
0.0209913
-4.03416e-07
0.329309
-4.63608e-05
-5.12357e-06
-1.9448e-06
-7.93663e-08
-1.80915e-06
-1.30441e-05
5.63785e-07
-1.13057e-05
8.0097e-07
2.57106e-05
7.17648e-07
2.68948e-05
2.22394e-05
5.2562e-07
0.000229687
1.94564e-05
-0.00371057
-0.000385152
-2.07491e-08
4.37577e-07
-6.80352e-05
-1.78551e-05
-7.30072e-07
0.000141928
-0.000327764
-2.62577e-06
-1.49081e-05
-5.79416e-07
-0.0020241
6.3038e-07
0.00170066
6.21629e-07
2.72719e-05
8.43891e-07
1.42419e-05
-1.56786e-06
-0.00129427
-1.32067e-05
-2.85201e-07
-1.035e-05
-1.95087e-05
3.59498e-07
1.54738e-05
-1.51053e-06
0.177724
-5.9866e-08
-1.47469e-06
-8.6612e-08
7.0764e-06
-1.4504e-08
0.544279
0
-1.1654e-06
0.3656
1.27764e-08
4.83628e-06
-8.27976e-08
7.04134e-05
-8.17953e-09
1.1185e-05
-7.93089e-09
-7.56438e-05
0.503583
-4.69816e-10
7.27829e-06
6.92752e-09
-9.81227e-07
2.21135e-09
0.000294655
0.580772
0
-5.98875e-07
-2.91886e-10
5.96492e-07
-1.7382e-06
-0.00295515
-1.13721e-05
-2.24806e-05
2.65651e-06
7.50982e-09
5.17354e-08
0.000120722
0.0724696
1.11431e-08
0.00599884
-1.15072e-09
5.77151e-05
2.09596e-09
-0.000853299
-0.000186106
5.51497e-08
-0.000308415
-5.27214e-06
4.17387e-07
2.36216e-08
1.13566e-09
5.94683e-05
0.490967
0
3.21882e-07
-6.13511e-09
4.564e-06
-8.67727e-07
1.7573e-08
3.43348e-06
-2.77478e-09
0.367605
0
-5.32715e-07
1.13264e-08
2.36289e-06
5.9531e-09
1.59464e-06
-0.00015232
2.16693e-06
1.66559e-07
-0.0149644
-0.0102229
-1.3504e-06
0.000498946
-0.0055267
-1.53325e-05
-2.0768e-05
-1.82283e-06
0
-1.0236e-05
5.74736e-09
-6.55078e-06
7.73293e-07
-9.67613e-09
-0.000282877
-1.39545e-06
0.00152956
-3.99343e-06
-2.62991e-08
-1.76043e-06
3.71788e-06
1.43505e-07
1.28072e-05
4.62807e-05
2.19743e-07
-3.26796e-08
7.94061e-05
-0.000482567
-4.41197e-06
-1.14646e-07
-1.62968e-05
-0.000574719
0.000576508
0.000447547
-5.6823e-06
2.91343e-05
-0.00908634
-0.000402527
-1.34613e-09
2.0949e-07
0.00068779
6.12627e-05
3.2813e-06
-1.81152e-08
4.63242e-06
0.0104343
-0.000158295
-2.23794e-09
-2.11175e-08
-3.52063e-06
5.8595e-08
-3.51289e-05
-0.0112396
-0.00025324
1.71504e-08
-3.71671e-07
-4.99446e-05
-6.13326e-06
-1.5769e-07
-6.25171e-05
-4.87451e-05
0.00034234
5.96273e-06
2.34166e-07
-3.57664e-06
5.95009e-05
0.000295212
-3.44282e-06
-2.85074e-07
0.00277998
-0.000382061
-3.24062e-06
0.000460881
-1.06048e-07
0.00452584
-1.16906e-07
0.000161543
0.630663
-8.00057e-06
0
1.60659e-08
-1.12323e-06
-1.59371e-05
-4.58607e-07
0.00174047
-1.60587e-05
-1.46278e-05
-9.12433e-07
0.000648393
-1.74863e-05
-3.61948e-07
-0.00218845
-1.16678e-05
-1.52614e-06
1.61968e-05
-7.06602e-06
-3.90762e-08
-5.0525e-07
6.09874e-05
7.4099e-06
2.91351e-07
-1.11903e-05
-2.39213e-07
-8.12867e-06
8.11106e-06
1.3712e-07
9.74557e-05
0.00782304
-1.72579e-08
0.69409
5.0221e-10
7.59201e-06
0.0149176
5.33663e-10
3.90973e-06
-2.57725e-05
-3.30171e-07
-2.92369e-06
0.000146854
0.000451846
0.000191882
0.000205741
2.19233e-05
1.38738e-08
-1.98637e-07
4.84865e-06
0.0203142
1.10918e-06
0.000760511
1.89025e-05
4.02592e-09
-0.000454196
-4.49849e-08
-8.42589e-05
0.000917799
-1.84532e-09
-5.7033e-08
-0.000308805
-1.54909e-07
-3.76433e-10
0.00642854
-1.89123e-09
-8.79009e-05
0.00319965
1.30977e-08
0.195138
0
-0.000325021
0.235991
-1.07996e-07
-1.24476e-06
-5.48443e-07
-6.56588e-06
5.88372e-08
0.0701346
-0.0020483
-2.14587e-09
0.000236771
0.190133
1.36894e-07
-7.43282e-08
0.000953139
-4.9234e-05
1.91809e-07
0.000101643
-9.91956e-08
-2.87561e-05
-5.20208e-06
4.15742e-08
-0.000508825
-0.000595996
-0.00039388
-1.25772e-08
2.15538e-07
-2.08139e-07
-0.00675858
1.04e-10
1.45226e-08
0.00846201
9.55885e-07
-5.4671e-09
-1.78892e-05
-3.9356e-10
0.635342
0.0123039
-4.19356e-08
-7.97719e-10
0.14601
-3.63296e-09
0.126239
3.80294e-08
0.00405747
1.654e-05
-3.5442e-06
-3.26099e-08
1.44719e-05
8.58909e-10
0.151692
-1.15844e-09
-0.0147999
-9.45319e-10
-9.80007e-08
-4.47008e-09
-7.98367e-08
1.27303e-10
0.000126976
-1.25884e-09
-0.00411803
0
-9.5952e-08
4.98721e-10
0.338795
-0.00112399
-9.33568e-09
1.51281e-09
-0.0366902
-0.0171542
-2.88407e-08
0.000623953
-8.87835e-10
0.408986
-1.94776e-07
-0.000107519
-3.54317e-07
-1.03044e-08
0.00015975
-7.69032e-06
1.39997e-06
8.1633e-09
0.16226
-5.81665e-07
-7.91313e-09
6.10695e-09
0.298848
-0.0137321
2.42104e-07
-1.33261e-05
-1.087e-08
1.99682e-07
0
0.646592
-1.91367e-05
0.000387767
-8.798e-09
-9.9934e-06
0
0.540893
6.57425e-09
-6.73462e-07
-1.55665e-08
0.449993
-1.21852e-09
8.86718e-06
9.78579e-10
0.188361
1.86609e-09
-4.4313e-08
2.25113e-05
-1.96846e-07
-2.20217e-09
0.518492
-3.86992e-05
8.4896e-05
-1.67809e-09
-0.0162301
-1.66162e-08
-1.2171e-07
-0.000787577
-4.46118e-05
9.60575e-07
4.45581e-09
-0.00336048
-2.60645e-08
1.00854e-09
0.548229
1.65476e-09
0.61211
-4.29286e-08
0.000666077
2.41811e-09
-0.0169313
8.44441e-10
0.319561
-1.77036e-08
-2.09643e-05
-0.000137534
-2.4643e-06
-2.11973e-09
0.312441
0
0.489596
-0.00805989
3.22404e-09
0.568942
-0.00955951
-6.96815e-08
0
9.16629e-08
4.41733e-10
-0.0139251
0.000256319
-1.03125e-09
-0.00210114
0
-9.00662e-08
-6.82713e-09
0.0144778
2.99639e-06
0
0.668703
1.44594e-08
1.14453e-05
0
2.88022e-08
0
0.644907
1.20599e-08
0
-4.04897e-08
0
-4.91238e-06
0
0.671457
-1.62742e-08
2.72297e-09
-5.11586e-10
0.524826
5.76433e-09
5.51511e-08
0.000140923
2.11912e-06
4.68787e-10
0.000440558
3.34633e-09
3.60445e-10
0.623612
-6.73257e-09
0.635119
-8.86717e-08
-9.94093e-05
-5.19992e-07
-2.28408e-08
5.10241e-07
-4.23042e-09
0.615821
-5.84631e-08
-3.1235e-05
6.37202e-07
2.3895e-09
-6.19011e-08
3.33652e-07
-0.000574174
3.63497e-06
6.9496e-10
0.473088
4.70694e-09
0.000171519
5.45125e-09
7.75947e-05
0
0.369738
5.94765e-08
6.07745e-10
0.0028813
-3.70234e-05
7.37794e-08
2.81112e-08
7.69375e-05
1.85446e-10
0.331071
-0.000753092
0
9.96242e-08
0.000856442
1.6744e-09
-0.0235511
4.86426e-08
5.55005e-10
0.177833
1.44078e-07
1.22783e-09
3.20236e-08
7.26086e-05
4.73563e-10
0.330335
-6.62956e-08
-1.11879e-09
0.00443915
-0.000117941
-5.56288e-09
-4.33093e-08
-9.56695e-06
-4.37887e-10
0.181197
-3.23276e-08
-3.69575e-10
0.342999
-7.56296e-08
1.62243e-07
0
-1.73024e-05
-7.41274e-10
-2.37276e-08
-4.26969e-05
-2.69391e-10
0.494861
-0.00164083
-2.44504e-07
-1.44994e-09
-0.0210255
-0.00676441
7.30364e-07
-0.00124933
1.37241e-09
-0.00344626
1.83009e-05
7.07511e-07
6.38141e-05
2.22559e-10
7.7998e-08
-3.96743e-07
0.00930341
-4.26775e-09
0.000354267
-0.00839613
1.16889e-08
-1.60287e-09
0.464139
-1.41951e-07
1.33437e-09
0.00219361
7.12889e-08
-0.0049357
1.2217e-09
0.0553447
-6.63429e-08
-9.11733e-10
0.0554254
-1.11998e-10
-0.00053177
6.14438e-06
1.04225e-09
0.174102
2.03326e-08
0.000327451
9.87935e-09
-7.12311e-05
1.66483e-10
0.621939
-2.32631e-08
8.40124e-07
-0.000138591
-7.55962e-06
-5.76522e-10
0.330682
2.79654e-10
0.000756111
-1.37047e-08
-9.61823e-05
-1.21542e-10
0.685187
3.4481e-07
0.0014069
-3.43232e-09
0.0553006
-9.48308e-08
-2.01599e-09
-3.31825e-08
-0.00260069
-7.09179e-10
0.174057
0.00149013
-9.43752e-09
-3.10264e-10
0.670185
-1.37899e-06
2.07435e-10
0.16305
0.000173767
1.71884e-08
5.85688e-05
2.97403e-10
0.617035
2.95049e-10
0.174515
3.60497e-08
-1.55381e-10
-3.24257e-09
-1.06945e-08
-1.91323e-06
0
0.625251
7.70874e-06
0
0.632225
0.000285792
1.05091e-08
-0.00244133
-1.49315e-08
-4.9043e-10
0.482872
5.42528e-05
3.83108e-06
7.064e-08
2.91054e-07
0
0.677942
1.32959e-08
-1.08449e-05
-2.16404e-10
-2.30665e-06
-2.44162e-10
-7.19443e-09
2.46117e-05
2.83344e-06
0
-0.000190202
-1.98116e-08
7.19416e-08
-0.00123845
3.55773e-06
0
7.4725e-10
0.0554104
0
-1.30523e-07
-4.5209e-09
0
-1.75434e-05
0
0.531807
0.000555842
-8.10033e-09
1.91268e-06
1.25391e-10
7.18986e-09
-0.000220616
-1.9353e-10
0.523206
0.000965014
-4.9467e-09
1.28192e-08
3.52252e-06
2.23277e-10
0.670874
0
-1.27325e-09
1.76668e-07
-0.000318678
4.92634e-09
1.48342e-10
2.7617e-07
0.000895851
-7.47584e-08
2.35374e-08
6.516e-06
3.8931e-10
0.487601
-1.01666e-10
-3.5423e-05
0
0.677208
-1.42976e-08
0.000165291
-1.32746e-08
2.81256e-06
-8.15651e-06
7.20094e-06
-1.36668e-10
-3.3659e-08
0
0
0.618421
-3.64702e-09
0.000670709
-8.56344e-07
3.05485e-07
1.8552e-08
-3.42591e-09
0.375648
-3.1974e-08
1.15127e-10
0.0607352
0.169964
-7.90994e-09
1.03958e-06
0
-7.7212e-07
1.5429e-07
4.10151e-09
0.149284
-2.68324e-07
0
8.82027e-05
7.35345e-08
-6.41372e-10
0.620939
-1.28998e-07
-0.00327901
-1.09625e-09
0.000474409
-5.3477e-08
-7.27634e-09
0
-0.000569867
3.44406e-09
0
-0.00665494
0
-7.37934e-08
0.180944
6.78027e-08
0
1.42876e-05
-0.000213908
-4.37137e-08
0.0527189
0.324914
5.33286e-07
0
0.399098
-3.76059e-07
0
-0.000123424
1.60462e-07
6.6063e-05
2.68388e-08
-5.54437e-08
0.0552929
4.78362e-09
6.11319e-08
-0.000245452
-9.82038e-05
-1.55508e-06
-1.26132e-09
0.00167568
3.67851e-09
-4.06278e-10
0.416735
-1.12144e-06
0
-6.7109e-09
-0.000421323
0
7.8346e-08
3.45537e-10
-0.0424926
0.000129363
-5.05918e-09
-4.88535e-05
0
0.243979
1.73854e-10
-1.93424e-07
-4.18449e-06
-3.98683e-10
0.61446
-1.29944e-08
3.50883e-05
3.30205e-06
-6.76073e-07
0.000181323
-5.23813e-06
4.23058e-10
0.000173675
-2.78893e-10
0.0430931
0.000752017
-4.13246e-08
-1.58064e-05
0.000149217
-3.50321e-08
-1.48714e-07
-0.00933449
1.49554e-09
-2.99033e-06
-3.05269e-10
0.712524
-5.93384e-06
-1.22175e-10
8.43659e-09
4.47891e-07
0
0.526191
-2.3896e-05
-1.9104e-06
-0.000704679
2.06193e-05
2.34861e-06
0.00339869
3.57778e-07
1.31648e-08
1.00135e-05
6.74752e-07
1.06586e-06
0
0.629075
-1.70897e-08
-5.39977e-05
-3.74731e-06
-9.90547e-08
2.32522e-10
-3.86955e-06
-1.46084e-10
0.718887
-0.000295038
-5.82058e-09
1.90536e-06
0
0.372183
-2.72025e-06
4.09988e-05
3.28066e-07
2.5708e-08
0.00450935
-1.45404e-07
-0.0013199
-2.72612e-09
0.163548
-1.1698e-09
-0.0157041
-6.44295e-08
0
-0.0174075
-2.5049e-06
1.58497e-09
1.25537e-06
2.91024e-10
0.000286485
-4.05293e-09
0.204214
-1.99235e-07
0
0
1.79009e-05
0.000118003
-7.25243e-09
6.14492e-06
-3.27735e-08
-3.85928e-06
2.36134e-08
0.0278071
2.83328e-10
2.40321e-10
0.396992
3.88243e-07
0
5.25533e-09
2.19e-07
1.46617e-09
-0.0378652
8.39674e-10
-0.00010743
0
4.6293e-08
0
4.37926e-07
0
0.417025
-2.04504e-10
7.14409e-10
6.10076e-07
-7.93638e-10
0.353289
7.18554e-09
-0.000309274
0
-7.05843e-08
-2.2894e-10
-0.020621
2.08251e-05
9.91287e-07
0.000159848
-0.000103636
2.3579e-09
-0.017908
-2.6773e-08
2.74132e-10
9.89195e-10
0.000349663
2.69231e-09
0
-0.00156972
-0.000341655
4.32103e-08
9.92009e-06
2.27075e-06
2.14531e-07
-0.00911179
2.00882e-05
0
0.414422
0.000116211
7.00616e-09
-0.00217158
1.79125e-05
0.033809
1.87614e-06
-0.00116219
1.42487e-05
3.96827e-07
8.54853e-05
1.10496e-05
2.54905e-07
-0.000635511
-1.70306e-06
-2.97167e-10
0.639405
1.68603e-05
0
0.33986
-0.000276677
-3.21787e-08
3.26552e-06
-4.33621e-05
3.0956e-08
8.02658e-08
-1.16737e-05
-2.65302e-07
-0.0032563
4.60579e-06
-7.18963e-10
0.386813
8.0061e-08
-1.03109e-05
-1.97003e-07
-0.00561748
-1.56007e-05
2.94452e-08
0
-1.50935e-07
-7.09282e-07
0.000999849
-1.35967e-09
0.0140239
1.10257e-09
0.0397306
1.59603e-05
6.27278e-07
-0.00122577
3.85907e-05
-1.86521e-07
-2.79737e-07
0.0123725
0.000156355
2.9281e-10
1.1353e-07
2.67976e-06
2.30584e-08
0
0.494505
0.0720377
1.5614e-05
-1.9947e-06
0.000125842
1.08684e-08
3.60606e-08
0.218814
4.19137e-09
-3.1118e-10
3.06573e-05
1.32045e-09
-0.0185284
-4.2946e-07
-8.70137e-06
-1.55786e-10
1.56278e-05
-3.67879e-08
0.0118387
2.06351e-09
8.37187e-07
8.53533e-06
2.77793e-07
0.00141258
-3.87943e-05
-3.13416e-06
-1.80667e-09
0
2.26053e-09
0
1.27849e-07
0.00348554
-1.70563e-05
0.0664437
-9.98244e-07
-0.00124921
7.63968e-06
-1.14552e-07
0.00512373
-2.23755e-05
1.77361e-08
-0.000253387
0.000180373
-8.92137e-07
-7.2877e-06
1.83383e-08
-0.00165149
1.65183e-05
1.45598e-06
0.00105485
1.25153e-05
4.76478e-07
0.000406941
1.53377e-05
3.62718e-07
-0.000562283
6.64038e-09
-0.0328657
0.000264964