# vtk DataFile Version 2.0
Unstructured Grid by M++
ASCII
DATASET UNSTRUCTURED_GRID
POINTS 4072 float
  0.812500   0.625000 0
  0.953125   0.609375 0
  0.968750   0.609375 0
  0.875000   0.687500 0
  0.812500   0.937500 0
  0.859375   0.687500 0
  0.796875   0.937500 0
  0.968750   1.000000 0
  0.984375   0.984375 0
  0.968750   0.984375 0
  0.843750   0.656250 0
  0.875000   0.656250 0
  0.812500   0.906250 0
  0.859375   0.640625 0
  0.781250   0.984375 0
  0.843750   0.734375 0
  0.781250   0.968750 0
  0.843750   0.718750 0
  0.765625   0.968750 0
  0.828125   0.718750 0
  0.921875   0.593750 0
  0.859375   0.843750 0
  0.765625   1.000000 0
  0.828125   0.750000 0
  0.875000   0.796875 0
  0.890625   0.781250 0
  0.875000   0.781250 0
  0.921875   0.609375 0
  0.859375   0.859375 0
  0.984375   0.968750 0
  1.000000   0.968750 0
  1.000000   0.953125 0
  0.859375   0.734375 0
  0.796875   0.984375 0
  0.875000   0.734375 0
  0.812500   0.984375 0
  0.906250   0.953125 0
  0.968750   0.703125 0
  0.796875   0.750000 0
  0.812500   0.812500 0
  0.828125   0.796875 0
  0.781250   0.843750 0
  0.843750   0.593750 0
  0.953125   0.937500 0
  0.890625   0.625000 0
  0.828125   0.875000 0
  0.906250   0.625000 0
  0.843750   0.875000 0
  0.890625   0.609375 0
  0.828125   0.859375 0
  0.906250   0.609375 0
  0.843750   0.859375 0
  0.906250   0.593750 0
  0.843750   0.843750 0
  0.843750   0.765625 0
  0.859375   0.750000 0
  0.796875   1.000000 0
  0.937500   0.609375 0
  0.875000   0.859375 0
  0.765625   0.515625 0
  0.843750   0.640625 0
  0.843750   0.578125 0
  0.781250   0.828125 0
  0.843750   0.515625 0
  0.781250   0.765625 0
  1.000000   0.687500 0
  0.937500   0.937500 0
  0.828125   0.593750 0
  0.765625   0.843750 0
  0.828125   0.531250 0
  0.765625   0.781250 0
  0.765625   0.984375 0
  0.828125   0.734375 0
  0.812500   0.734375 0
  0.765625   0.765625 0
  0.781250   0.750000 0
  1.000000   0.656250 0
  0.937500   0.906250 0
  0.765625   0.750000 0
  0.968750   0.578125 0
  0.953125   0.593750 0
  0.953125   0.578125 0
  0.937500   0.593750 0
  0.875000   0.843750 0
  0.812500   0.796875 0
  0.875000   0.546875 0
  0.984375   0.953125 0
  0.984375   0.937500 0
  0.765625   0.562500 0
  0.937500   0.656250 0
  0.875000   0.906250 0
  0.765625   0.531250 0
  0.937500   0.625000 0
  0.875000   0.875000 0
  0.937500   0.859375 0
  1.000000   0.609375 0
  0.828125   0.687500 0
  0.765625   0.937500 0
  1.000000   0.781250 0
  0.812500   0.671875 0
  0.984375   0.765625 0
  0.828125   0.656250 0
  1.000000   0.750000 0
  0.937500   1.000000 0
  0.781250   0.515625 0
  0.953125   0.671875 0
  0.890625   0.921875 0
  0.781250   0.578125 0
  0.953125   0.984375 0
  0.984375   0.640625 0
  0.921875   0.890625 0
  0.968750   0.625000 0
  0.906250   0.875000 0
  0.812500   0.765625 0
  0.984375   0.859375 0
  1.000000   0.843750 0
  0.968750   0.859375 0
  0.843750   0.703125 0
  0.781250   0.953125 0
  0.843750   0.750000 0
  0.781250   1.000000 0
  0.843750   0.687500 0
  0.781250   0.937500 0
  0.828125   0.765625 0
  1.000000   0.859375 0
  0.828125   0.703125 0
  0.765625   0.953125 0
  0.968750   0.968750 0
  0.968750   0.953125 0
  0.796875   0.781250 0
  0.859375   0.531250 0
  0.968750   0.937500 0
  0.953125   0.968750 0
  0.781250   0.796875 0
  0.843750   0.546875 0
  0.953125   0.953125 0
  0.781250   0.812500 0
  0.953125   0.906250 0
  0.859375   0.781250 0
  0.859375   0.703125 0
  0.796875   0.953125 0
  0.859375   0.765625 0
  1.000000   0.734375 0
  0.937500   0.984375 0
  0.828125   0.578125 0
  0.765625   0.828125 0
  1.000000   0.796875 0
  0.828125   0.640625 0
  0.984375   0.734375 0
  0.921875   0.984375 0
  0.812500   0.640625 0
  0.890625   0.953125 0
  0.953125   0.703125 0
  0.796875   0.687500 0
  0.968750   0.781250 0
  0.968750   0.750000 0
  0.906250   1.000000 0
  0.953125   0.765625 0
  0.812500   0.718750 0
  0.843750   0.984375 0
  0.906250   0.734375 0
  0.921875   0.625000 0
  0.859375   0.875000 0
  0.921875   0.687500 0
  0.859375   0.937500 0
  0.968750   0.796875 0
  0.796875   0.703125 0
  0.937500   0.671875 0
  0.984375   0.796875 0
  0.812500   0.703125 0
  0.765625   0.687500 0
  0.937500   0.843750 0
  1.000000   0.593750 0
  0.937500   0.781250 0
  1.000000   0.531250 0
  0.812500   0.781250 0
  0.984375   0.875000 0
  0.843750   1.000000 0
  0.906250   0.750000 0
  0.968750   0.500000 0
  0.968750   0.718750 0
  0.906250   0.968750 0
  0.796875   0.625000 0
  0.859375   1.000000 0
  0.921875   0.750000 0
  0.968750   0.765625 0
  0.796875   0.609375 0
  0.859375   0.984375 0
  0.921875   0.734375 0
  1.000000   0.625000 0
  0.937500   0.875000 0
  1.000000   0.562500 0
  0.937500   0.812500 0
  0.875000   0.984375 0
  0.937500   0.734375 0
  0.906250   0.703125 0
  0.843750   0.953125 0
  0.906250   0.687500 0
  0.843750   0.937500 0
  0.937500   0.765625 0
  0.890625   0.718750 0
  0.828125   0.968750 0
  0.890625   0.703125 0
  0.828125   0.953125 0
  0.921875   0.781250 0
  0.906250   0.796875 0
  0.921875   0.718750 0
  0.859375   0.968750 0
  0.921875   0.703125 0
  0.859375   0.953125 0
  0.765625   0.546875 0
  0.937500   0.640625 0
  0.875000   0.890625 0
  0.937500   0.703125 0
  0.875000   0.953125 0
  0.765625   0.593750 0
  0.937500   0.687500 0
  0.875000   0.937500 0
  0.890625   0.937500 0
  0.953125   0.687500 0
  0.906250   0.718750 0
  0.843750   0.968750 0
  0.937500   0.796875 0
  0.828125   0.921875 0
  0.890625   0.671875 0
  0.984375   0.750000 0
  0.921875   1.000000 0
  0.812500   0.593750 0
  0.875000   0.968750 0
  0.937500   0.718750 0
  0.890625   1.000000 0
  0.953125   0.750000 0
  0.968750   0.671875 0
  0.906250   0.921875 0
  0.968750   0.734375 0
  0.906250   0.984375 0
  0.796875   0.578125 0
  0.984375   0.671875 0
  0.921875   0.921875 0
  0.812500   0.515625 0
  0.812500   0.578125 0
  0.765625   0.578125 0
  0.843750   0.906250 0
  0.906250   0.656250 0
  0.890625   0.750000 0
  0.828125   1.000000 0
  0.781250   0.593750 0
  0.984375   0.546875 0
  0.921875   0.796875 0
  0.921875   0.812500 0
  0.859375   0.656250 0
  0.859375   0.593750 0
  0.796875   0.843750 0
  0.859375   0.578125 0
  0.796875   0.828125 0
  0.921875   0.953125 0
  0.984375   0.703125 0
  0.984375   0.625000 0
  0.921875   0.875000 0
  0.875000   0.640625 0
  0.812500   0.890625 0
  0.875000   0.578125 0
  0.812500   0.828125 0
  0.765625   0.859375 0
  0.828125   0.609375 0
  0.937500   0.953125 0
  1.000000   0.703125 0
  0.921875   0.906250 0
  0.984375   0.656250 0
  0.921875   0.968750 0
  0.984375   0.718750 0
  1.000000   0.765625 0
  0.890625   0.984375 0
  0.953125   0.734375 0
  0.953125   0.656250 0
  0.890625   0.906250 0
  0.953125   0.718750 0
  0.890625   0.968750 0
  0.781250   0.562500 0
  0.796875   0.796875 0
  0.968750   0.640625 0
  0.906250   0.890625 0
  0.953125   0.796875 0
  0.953125   0.859375 0
  0.781250   0.703125 0
  0.984375   0.781250 0
  0.875000   1.000000 0
  0.937500   0.750000 0
  0.906250   0.937500 0
  0.968750   0.687500 0
  0.843750   0.625000 0
  0.781250   0.875000 0
  0.765625   0.796875 0
  0.937500   0.890625 0
  1.000000   0.640625 0
  0.781250   0.781250 0
  0.906250   0.906250 0
  0.968750   0.656250 0
  0.796875   0.765625 0
  1.000000   0.718750 0
  0.937500   0.968750 0
  0.828125   0.562500 0
  0.765625   0.812500 0
  0.828125   0.625000 0
  0.484375   0.750000 0
  0.421875   1.000000 0
  0.000000   0.218750 0
  0.453125   0.640625 0
  0.281250   0.546875 0
  0.312500   0.640625 0
  0.406250   0.984375 0
  0.468750   0.734375 0
  0.328125   0.656250 0
  0.390625   0.828125 0
  0.453125   0.578125 0
  0.437500   0.875000 0
  0.015625   0.093750 0
  0.312500   0.531250 0
  0.406250   0.937500 0
  0.343750   0.562500 0
  0.281250   0.812500 0
  0.453125   0.984375 0
  0.359375   0.625000 0
  0.296875   0.875000 0
  0.468750   0.796875 0
  0.046875   0.015625 0
  0.437500   0.656250 0
  0.312500   0.578125 0
  0.421875   0.921875 0
  0.000000   0.140625 0
  0.484375   0.671875 0
  0.265625   0.734375 0
  0.468750   0.984375 0
  0.046875   0.203125 0
  0.406250   0.625000 0
  0.390625   0.609375 0
  0.375000   0.625000 0
  0.265625   0.562500 0
  0.484375   0.812500 0
  0.062500   0.031250 0
  0.484375   0.984375 0
  0.062500   0.203125 0
  0.312500   0.890625 0
  0.375000   0.640625 0
  0.375000   0.671875 0
  0.390625   0.687500 0
  0.484375   0.843750 0
  0.390625   0.500000 0
  0.328125   0.687500 0
  0.328125   0.765625 0
  0.390625   0.515625 0
  0.437500   0.796875 0
  0.484375   0.531250 0
  0.468750   0.968750 0
  0.046875   0.187500 0
  0.453125   0.843750 0
  0.453125   0.812500 0
  0.281250   0.718750 0
  0.468750   0.859375 0
  0.265625   0.984375 0
  0.375000   0.765625 0
  0.296875   0.562500 0
  0.484375   0.781250 0
  0.062500   0.000000 0
  0.453125   1.000000 0
  0.031250   0.218750 0
  0.453125   0.546875 0
  0.312500   0.703125 0
  0.328125   0.718750 0
  0.296875   0.656250 0
  0.281250   0.640625 0
  0.265625   0.656250 0
  0.281250   0.671875 0
  0.484375   0.890625 0
  0.062500   0.109375 0
  0.296875   0.687500 0
  0.296875   0.625000 0
  0.265625   0.703125 0
  0.265625   0.687500 0
  0.265625   0.625000 0
  0.953125   0.046875 0
  0.484375   0.875000 0
  0.484375   0.921875 0
  0.062500   0.140625 0
  0.453125   0.921875 0
  0.031250   0.140625 0
  0.968750   0.234375 0
  0.171875   0.671875 0
  0.500000   0.796875 0
  0.078125   0.015625 0
  0.218750   0.718750 0
  0.062500   0.828125 0
  0.734375   0.250000 0
  0.906250   0.140625 0
  0.109375   0.578125 0
  0.781250   0.015625 0
  0.718750   0.187500 0
  0.031250   0.828125 0
  0.718750   0.234375 0
  0.890625   0.125000 0
  0.093750   0.562500 0
  0.734375   0.359375 0
  0.859375   0.546875 0
  0.062500   0.984375 0
  0.750000   0.406250 0
  0.718750   0.343750 0
  0.250000   0.750000 0
  0.234375   0.734375 0
  0.046875   0.578125 0
  0.734375   0.000000 0
  0.828125   0.125000 0
  0.031250   0.562500 0
[...]
POINT_DATA 4072
SCALARS scalar_value float 1
LOOKUP_TABLE default
1.09967e-05
-2.32671e-10
0
-3.78252e-08
-1.21502e-06
1.50464e-07
-2.6254e-06
0
0
0
-7.18681e-07
-8.58489e-08
-9.49961e-07
-4.62782e-08
-1.43558e-07
-6.76383e-08
9.5956e-08
-1.322e-07
-4.85252e-08
-1.53141e-06
2.11166e-10
-5.38654e-08
0
-1.38789e-06
2.14315e-08
1.84204e-09
1.30954e-08
-2.61455e-09
-4.97988e-08
0
0
0
5.50211e-08
-3.16391e-08
-2.07343e-08
-2.25476e-09
1.30844e-09
3.72807e-10
8.97805e-06
-1.09442e-06
-1.71632e-07
1.75885e-05
-4.36529e-07
2.61433e-10
4.47804e-08
1.3591e-08
-1.40582e-08
-6.00519e-08
-2.63266e-08
-4.87127e-07
8.36238e-09
1.63455e-07
-4.41234e-10
1.61903e-07
1.23691e-07
-1.94477e-08
0
6.90795e-10
3.63061e-08
0.000492785
-1.65165e-07
1.47407e-07
9.96786e-06
-3.98706e-08
-0.000162333
-1.81759e-10
-5.52046e-10
6.78983e-08
-2.10629e-05
-8.02691e-07
-0.000164473
-1.31206e-07
-1.43138e-06
1.11714e-05
-0.000102332
-0.000241882
-1.4829e-10
-3.70467e-10
7.2433e-05
0
0
0
-2.19366e-10
2.08942e-08
-4.44529e-07
-6.87891e-08
0
0
0.000833647
-2.61203e-09
-2.7077e-08
0.000583327
-1.4861e-09
-3.32672e-08
0
0
-7.47164e-07
-1.90268e-06
0
1.73264e-05
0
-3.42134e-09
0
0
-3.87706e-05
-1.13994e-09
-1.00004e-08
-0.000118133
0
-1.11504e-10
-1.38725e-09
-2.05943e-10
1.54018e-08
3.67767e-06
0
0
0
-3.86864e-07
-3.68229e-07
1.08968e-07
0
-4.80144e-07
-2.18462e-06
-9.81172e-07
0
-1.00303e-06
-1.1895e-08
0
1.34249e-10
1.56051e-05
-2.35131e-08
-1.16493e-10
1.28199e-10
-3.9402e-05
-3.86518e-08
-1.74935e-10
-8.34738e-06
1.82334e-10
-8.96533e-09
1.26368e-07
-6.70136e-07
-3.0948e-08
0
1.70575e-10
-1.43e-06
-5.67152e-05
0
-7.59982e-07
0
-2.32054e-10
1.50288e-05
-1.35888e-09
-6.4972e-10
-4.22959e-05
0
0
0
1.24967e-10
1.50475e-05
3.34256e-09
-4.70056e-09
4.23261e-09
2.48746e-08
3.03412e-09
-1.53434e-09
0
-3.04098e-05
2.72969e-09
0
1.67964e-05
0.00113978
-1.83089e-10
0
-3.77573e-10
0
5.81372e-07
0
0
-2.31209e-09
0
-2.25918e-10
-5.40828e-10
-3.85051e-05
0
-3.3872e-10
0
-3.78614e-05
-3.37865e-09
3.25663e-10
0
2.92228e-10
0
-3.18302e-10
1.24045e-09
0
8.94146e-10
2.08612e-08
-7.30049e-09
-2.09954e-08
-4.78647e-10
6.45377e-09
7.49739e-09
4.70184e-09
-2.34667e-08
2.94477e-10
-2.81162e-09
1.56394e-10
4.24807e-09
-2.38292e-09
-5.2305e-09
0.000712117
2.48036e-09
5.6815e-08
1.25729e-09
6.30855e-10
0.0010305
-1.75131e-09
-8.59153e-10
3.87797e-09
8.7264e-10
-2.52176e-09
-9.08468e-09
-3.41726e-10
4.59067e-10
-1.95128e-08
0
0
6.69951e-06
-1.37776e-09
-4.35508e-10
0
0
4.99955e-10
5.19948e-09
1.28619e-10
2.9684e-10
-2.60444e-05
-1.62786e-10
-2.0091e-09
2.30277e-06
8.64555e-06
0.00089439
5.91375e-08
-1.55244e-08
4.33681e-09
0
-0.000167917
0
0
-4.20243e-10
2.55823e-07
2.19925e-07
-6.2624e-07
1.02448e-08
2.84844e-06
-8.55503e-10
-1.12653e-10
0
6.18445e-09
7.70118e-08
-1.38005e-06
-5.47699e-08
-2.71264e-07
-2.21899e-06
-1.6881e-06
4.16339e-10
1.51439e-10
2.02978e-09
1.45071e-10
3.86058e-10
0
0
-5.11988e-10
0
1.06733e-09
1.88962e-08
2.85981e-10
7.57044e-10
-0.000105937
1.14721e-05
3.3228e-10
4.44991e-09
0
-1.15415e-10
-0.000387472
0
0
0
-2.7977e-09
-4.44137e-10
-8.37958e-07
1.55535e-05
-0.000157478
0
0
-9.40448e-05
-6.7564e-09
-4.42145e-10
1.43706e-05
-1.26817e-10
-2.10779e-10
-9.15367e-07
-0.00010536
4.41783e-07
0.232607
0
0
0.188413
0.001556
0.0672373
-6.89793e-06
0.25653
0.162135
0.165765
0.0789302
0.00966059
0
0.0241175
-0.000234695
0.059527
0.0173504
0.000154854
0.142876
0.000776179
0.142651
0
0.194658
0.0186309
0.00031908
0
0.246617
0.0358684
0.000275015
0
0.0713143
0.0864728
0.13799
0.00370292
0.104463
0
0.000384671
0
0.000663685
0.163204
0.216157
0.194982
0.0449005
0.00073215
0.220237
0.181528
0.00660835
0.237107
0.0434354
-0.000335561
0
0.0485825
0.133268
0.0908637
0.0239864
-4.22096e-09
0.24653
0.0102846
0.173382
0
0
0
0.0428077
0.20127
0.240101
0.0810178
0.0330941
0.0316452
0.0685226
0.00315298
0
0.133532
0.00491745
0.0395512
0.0381634
0.00719955
0
0.0091687
0.000490402
0
0.000488635
0
0
-7.45007e-06
0.140133
0
-0.000362439
5.77243e-10
1.47127e-05
0
-2.43052e-08
5.20689e-09
4.5267e-06
3.41568e-10
1.53629e-05
0
-1.26129e-08
0.000244634
4.88779e-08
1.3208e-10
0.000311664
0.000279486
0.00668548
0.000316594
-1.05996e-09
2.84534e-08
-3.11245e-10
-5.19616e-10
-0.000186914
0.00295421
4.82703e-08
0.000575145
0
-7.01226e-08
1.09999e-07
0.00053764
0.00292182
-4.56458e-06
0
2.3066e-07
0.000317032
-8.84415e-05
1.30112e-06
4.5831e-07
-2.3067e-08
1.209e-10
0.000633622
1.70147e-08
0
-1.79143e-07
1.14031e-08
-1.02378e-10
0.00327001
2.73181e-08
0
5.03622e-08
0
7.2949e-08
0
-0.000101793
-7.48968e-07
0
5.63969e-07
0
4.39502e-05
1.4406e-08
-1.03528e-10
3.21937e-09
0
1.09785e-07
-4.75966e-09
0.00099242
1.64558e-05
0
-3.80473e-09
0.000227364
0
4.74039e-08
1.12165e-07
0.000124448
0
-1.7067e-05
0
1.45335e-07
0
-3.27581e-08
4.5137e-10
6.75951e-06
1.67368e-07
0
0.0005334
2.02045e-08
0
0.00713965
1.33762e-07
0
-1.45199e-10
0
-1.67463e-10
-7.97724e-10
-0.000147699
1.39778e-08
-1.96747e-09
0
-9.45738e-05
0.00904048
0
0.0128647
0.264953
-1.20927e-10
0
-2.50413e-05
1.41851e-09
8.77507e-10
0.000633623
-3.20887e-06
0
0
1.05332e-06
2.65083e-08
-0.0001457
-1.9279e-06
0
4.07492e-07
2.17347e-08
0
1.10396e-06
1.17277e-07
0
4.1787e-06
0
4.21056e-06
2.39015e-09
-3.94204e-09
6.8536e-07
-1.50523e-05
0
0.00186811
0
2.82919e-07
4.99329e-07
-0.000337406
0.000565894
5.47068e-10
-1.07927e-08
0
0
-1.17831e-06
2.05546e-10
4.35346e-06
2.0673e-06
4.37072e-06
-1.84125e-10
9.64642e-07
0.000423012
0
-1.00935e-09
2.07921e-06
0.0515962
-5.03933e-10
1.19966e-05
0
-2.40671e-09
0
7.27756e-08
-0.000207984
0.0305
9.95873e-10
0
-1.90234e-08
6.52038e-06
4.61718e-08
0
-0.000251732
-1.94181e-07
0
2.99257e-08
4.56992e-10
0.000480776
1.11552e-07
0.0179858
-7.74686e-09
-5.13076e-09
0.0010642
-4.9199e-08
0
1.10125e-08
-4.17016e-06
0
0
-4.61321e-09
9.26128e-09
2.57416e-05
8.25682e-09
-1.82496e-09
4.61254e-06
0.011313
0
2.16363e-09
1.36459e-10
-3.29534e-09
0
0.00801481
0
-1.77277e-09
5.0381e-06
-4.61278e-05
1.82052e-07
-2.46932e-08
0.0121207
0
-1.23045e-06
0
0
-4.73621e-09
1.09409e-05
-3.94722e-09
2.89928e-08
1.84444e-09
1.68152e-09
0
-1.40128e-08
-1.65149e-09
1.25555e-09
0.00219921
2.14177e-09
6.05292e-10
1.08003e-06
-2.38477e-07
-2.07929e-08
0
0
-2.84744e-08
2.2763e-08
3.04279e-05
1.46658e-10
0
1.50132e-10
-2.49305e-10
-3.13263e-10
2.86857e-06
1.29115e-06
2.49732e-05
0
-5.13316e-10
1.09527e-09
1.11872e-06
1.08489e-06
-1.19063e-10
2.92997e-06
-1.4962e-08
4.82199e-09
4.23419e-07
0
0
1.98804e-06
0.00553771
2.90034e-10
5.04767e-09
3.76356e-08
-6.91816e-08
-1.90746e-09
-7.83602e-10
5.11485e-08
7.08399e-08
2.09508e-10
0.00294312
-3.6286e-09
3.92765e-09
1.94466e-07
-1.46111e-08
1.37466e-07
-5.83437e-10
7.63328e-09
2.1127e-07
0
2.68396e-08
2.7247e-07
-0.00010149
1.63616e-07
3.74723e-08
0
0.000104895
7.49672e-09
0.000177583
9.09358e-08
2.28022e-07
0
-2.52278e-07
7.90152e-10
0
-5.7343e-07
8.41248e-06
0.0100898
0
1.20283e-10
0
-6.677e-07
-1.95032e-10
-8.30203e-08
0
-3.09036e-07
0
-1.41172e-06
9.06259e-10
1.27193e-08
3.28046e-10
0.000149936
-2.12586e-07
0
0
-4.48728e-08
2.64883e-08
-4.31947e-09
7.39023e-08
0
1.0431e-08
1.16514e-07
2.41859e-10
5.35844e-06
1.78159e-09
8.66222e-08
0.0734333
0
-2.13183e-09
2.35123e-10
1.6402e-08
2.00087e-10
2.51635e-10
4.26155e-08
2.74591e-08
7.21629e-08
0.0229691
-2.75939e-09
5.67732e-10
4.77776e-08
4.82773e-05
1.55512e-07
-3.29e-06
0.000218479
0.0888445
1.30777e-07
3.60033e-07
0.15203
0.000251189
1.93722e-06
0.000578233
0.162742
1.19955e-06
0.00247877
0.000359581
0.00306424
0.000170024
8.38096e-08
3.80841e-05
0.000349671
2.75362e-05
0.000724908
4.70732e-06
0.000213975
2.99776e-06
0.000140865
5.13272e-05
1.22301e-06
0.0045367
2.81714e-05
-1.59207e-06
1.22697e-08
0
7.84853e-07
1.27812e-05
2.64865e-05
2.1676e-06
-7.94419e-07
0.00172307
1.92142e-05
1.60762e-05
1.41045e-06
5.1467e-07
1.83762e-06
-5.18608e-07
1.91247e-06
8.77022e-05
1.15318e-05
0.000426816
1.16593e-05
-1.12246e-08
0.000122554
3.09896e-07
2.04427e-05
7.7915e-05
5.04124e-07
1.46725e-05
0.000195932
0.000276485
1.13629e-07
0.0001186
2.45114e-07
0.00024197
9.28028e-08
0.103603
0
8.35771e-05
0.00319178
2.44462e-07
0.000164848
4.62356e-06
0.00395817
1.08918e-06
0.000963425
4.18198e-07
-5.58331e-08
0.00802934
0
0.000695869
6.86272e-08
8.17367e-05
8.16284e-08
3.30884e-08
0.107512
0
5.21052e-05
6.01984e-09
2.70237e-05
1.74774e-05
-8.76941e-08
0.000172196
0.00138772
0.000302874
2.44824e-07
3.27342e-06
0.00667201
0.261575
2.43847e-06
-0.000489902
0
0.00487458
1.93501e-06
7.09508e-09
0.00619286
8.49577e-07
-1.82546e-07
0.00104388
0.0023287
1.49595e-06
5.58112e-09
-1.86225e-08
0.14031
0
2.004e-05
6.17962e-08
-1.37941e-09
5.88849e-05
1.56978e-07
0.000112072
3.50984e-08
0.175744
0
4.1412e-05
8.88453e-08
7.59473e-05
4.99967e-08
5.12375e-05
0.00298052
1.26533e-07
2.17359e-07
0.0017761
0.136326
7.7129e-06
-1.92482e-09
-4.24091e-05
8.71424e-05
0.000595869
2.59397e-05
0
0.000243943
2.77852e-07
0
0.000128247
2.04405e-07
-3.83018e-08
4.96409e-06
-2.79649e-07
0.000174796
2.22661e-07
-2.04699e-10
3.32849e-06
8.23802e-08
0.00111466
0.000535772
3.4251e-07
6.75166e-06
0.00482531
0.00196841
4.48281e-05
3.73066e-07
0.000863262
0.00161364
0.0130976
0.00945816
0.0158047
0.000340729
3.4898e-07
1.16624e-08
0
2.29573e-07
-3.18304e-06
0.00831774
0.000288643
3.54991e-07
0.000432794
7.95594e-06
1.42058e-05
0
4.99516e-07
0.000465046
4.08792e-07
0.00021845
4.49595e-07
2.92604e-08
0
7.52601e-07
0.00926863
2.31771e-05
8.48578e-08
0.00198526
0.00729285
0.00710543
5.21916e-06
2.07059e-07
-1.1372e-08
0.00232104
0.00565282
2.35147e-06
3.81058e-07
7.15578e-06
0.00199238
2.94876e-05
0.0085948
1.21604e-05
0.139318
2.7641e-07
-8.61661e-07
0.0361849
0.00056779
0
0
5.07252e-06
6.08991e-05
9.15255e-07
-1.65447e-06
9.15776e-06
0.000248946
3.32101e-06
-8.26491e-07
4.11355e-05
5.91424e-07
-8.02978e-06
4.91049e-06
7.61941e-06
0.00244238
0.000264776
3.55951e-07
1.70712e-06
-2.71652e-07
7.96671e-06
3.24018e-07
4.81143e-05
2.0192e-07
0.0121118
9.66363e-05
7.18086e-08
0.0111078
0.142005
7.50558e-07
0.0308249
0
0.000646932
-1.52301e-05
3.26957e-07
0.000460526
0.000130467
4.80441e-07
0.020972
0.00778618
0.0275156
0.019146
0.0156981
0.000410621
4.5415e-07
1.09993e-09
7.50232e-05
0.171551
4.10931e-06
-9.17537e-08
0.00341636
1.83174e-06
8.96514e-08
8.66092e-07
0.00297199
0.0151923
4.06823e-08
3.26072e-05
0.020143
1.28073e-05
1.70742e-08
-0.000306037
0
0.0023201
0.128911
1.27244e-07
0.000597134
0
0.0152975
0.235313
7.9098e-06
6.76997e-05
1.1604e-05
0.00090966
2.57173e-07
0.000706241
-1.15116e-05
0
0.0118074
0.252974
5.94992e-06
6.37844e-07
-1.17314e-06
0.00198786
8.59529e-07
0.00130897
4.99217e-07
0.00131341
0.001564
1.16774e-06
-2.84162e-07
-5.80959e-08
1.03575e-07
0
5.33588e-07
1.86365e-07
-6.08157e-07
0
1.26664e-08
-4.34426e-05
3.89207e-07
0
0.000385819
0
0.069544
0.169169
0
0
-0.00130483
0
0.207695
3.43437e-08
-1.06826e-06
3.06586e-06
8.00588e-09
0
1.87431e-06
0
-0.00109652
0
-0.000410251
8.46603e-10
0
0
0
0
2.02209e-06
0
0.000366306
0
6.32033e-09
5.33538e-10
0.174462
0.00471751
4.74886e-09
0
0.000155403
0.0166023
-1.85589e-08
0.032139
3.84233e-09
0.120595
-6.62848e-08
-1.76642e-09
-1.55789e-09
1.62877e-08
-1.30308e-09
0
-4.90521e-07
7.14836e-09
0.000323854
2.28564e-07
0
5.12105e-09
0.00175391
-3.87503e-07
1.6101e-07
8.12604e-06
0
0.000147009
0
0.0706
1.12851e-05
4.66743e-09
0
-5.10985e-06
0
0.110626
0
-1.39266e-08
2.31468e-08
0.00442921
0
2.98612e-07
0
-0.00112597
0
-2.90426e-08
7.78488e-09
-8.4173e-09
5.70308e-09
0.0816322
-9.73683e-08
0.00863775
0
-3.43328e-05
1.10634e-07
3.18064e-10
1.0558e-09
0
-2.94518e-07
4.19193e-09
0.0015336
7.39377e-09
1.14812e-09
0.0920405
1.6236e-09
0.0570443
1.032e-08
1.59599e-05
-8.24638e-09
0.00912907
0
0.00183953
2.30814e-08
-6.4854e-10
-3.32171e-10
-1.14593e-06
2.96798e-10
0.00182992
0
0.168977
0.0208555
2.93068e-09
0.0147717
1.71321e-05
4.47013e-08
0
0
0
7.89286e-05
5.53177e-10
0
-0.000208087
0
0
0
0.000145931
0.000199334
0
0.0416999
0
0.000782289
0
0
0
0.0704559
0
0
0
0
4.38424e-07
0
0.0413164
0
1.28412e-08
1.41491e-10
0.0996702
2.25489e-09
1.70267e-09
-6.5431e-09
2.22162e-06
0
-1.16451e-05
1.88275e-09
0
0.0668536
1.1982e-08
0.0259783
-6.93073e-08
-5.47697e-10
3.03028e-08
3.09587e-08
8.79918e-08
8.13295e-09
0.0491955
-4.56259e-08
-3.67084e-10
-1.51612e-07
2.31409e-09
1.98901e-08
-4.57173e-09
-2.13328e-09
3.61236e-06
0
0.00679825
-3.72619e-09
1.3715e-06
0
0.00174126
0
0.164366
-1.20215e-10
0
-8.43625e-05
-1.03887e-08
3.09333e-09
0
-3.25916e-06
0
0.00200113
1.15844e-08
0
2.22047e-09
0.0112163
8.58226e-10
-2.82313e-05
0
1.58484e-10
3.61743e-05
1.77212e-10
4.6923e-10
3.14458e-10
0.0144079
1.11023e-10
0.00198386
1.91155e-10
1.20334e-10
-2.05496e-05
-9.04847e-09
1.14418e-09
0
0.00411513
0
3.40165e-05
-1.8578e-10
0
0.00202498
1.84726e-10
1.88968e-07
0
0.00115482
0
0
0.00694305
0
0.0079444
-2.54135e-06
-1.93963e-09
6.58774e-10
-8.35746e-05
-2.00306e-06
4.05929e-09
0.0810751
0
-6.36092e-05
-3.48491e-05
1.02196e-07
1.81076e-07
0
5.799e-08
-2.22769e-08
0.110824
3.99896e-10
-9.30105e-05
-3.32897e-06
3.80485e-08
4.19356e-10
0.00637652
-2.33732e-09
1.75307e-10
-0.000149623
-7.56907e-09
0.0546131
0
-0.000202505
7.94287e-10
2.8311e-10
-0.000274083
0
-3.6985e-10
5.0179e-06
0
0.000127374
-4.17608e-09
-1.11819e-06
0
0.00532012
0
0.072786
8.19294e-10
-2.83883e-08
-6.10068e-10
4.05668e-05
1.19664e-10
0.00190511
0
-2.07947e-07
0
0.00399823
0
0.0421642
2.52171e-09
-4.51369e-10
2.53507e-10
-0.000104975
-7.14755e-09
1.07256e-09
2.7177e-09
0.0231155
2.20797e-10
6.78132e-05
3.40375e-06
-6.11687e-10
0
0.0393807
9.3174e-09
0
0.228942
2.01777e-07
2.31781e-10
0.00891904
0
0.0196578
0
5.85248e-05
0
0
-1.19503e-10
0
7.44495e-05
0
0.0730641
9.70266e-05
0
0.0721034
-3.72346e-08
0
-3.0518e-06
-3.37239e-10
0
0.00725475
0.000687161
3.49022e-05
2.04688e-08
0.000184917
0
0.0425254
0
0.000160748
0
1.01505e-05
0
-4.46562e-10
0.000267707
1.81792e-05
0
-2.21637e-09
-5.76181e-10
-4.42804e-10
0.0143297
-8.34536e-08
0
2.0878e-10
-0.000312963
0
0
0
0
0.00148241
0
0.117387
-1.75288e-07
0
2.24362e-05
0
0
0.00232146
0
0.113028
1.19286e-05
-2.39337e-10
1.44011e-10
4.87244e-05
0
0.0410906
0
2.81062e-10
0
8.8723e-08
0
0
-2.58567e-09
2.47244e-09
0
5.33157e-10
0.000103524
0
0.00762384
0
-0.000158569
0
0.0424235
0
-2.77505e-08
0
4.39791e-06
0
0.00124479
0
0
0
0
0.019782
0
2.75387e-08
-4.1611e-09
-2.73304e-08
0
8.52069e-09
0.136804
-1.83447e-09
0
0.248699
0.136771
-2.81711e-09
1.00366e-05
0
4.93203e-05
1.83761e-10
0
0.230788
2.28119e-07
0
5.04913e-09
5.81311e-09
2.9237e-08
0.0358152
2.65463e-09
0.0355386
5.18972e-10
-0.000189596
-1.50942e-08
1.48132e-09
0
0.00855131
2.64679e-09
0
2.2626e-09
0
0
0.201672
4.63345e-08
0
-1.07775e-05
0.0126624
4.03341e-08
0.0502028
0.158592
4.27949e-08
0
0.175695
7.74339e-07
0
-2.87858e-08
5.41145e-08
5.68842e-08
0
6.10963e-08
0.0316231
3.32391e-08
-9.12789e-10
-8.02568e-09
-1.13406e-09
-3.86934e-07
2.79975e-10
-0.000151205
8.14001e-09
1.15237e-10
0.143518
3.32396e-05
0
0
0
0
0
0
-9.53135e-05
-9.47552e-07
0
0.000189076
0
0.217491
0
0
2.0687e-05
0
0.0188027
-1.05693e-09
0.000423574
2.53451e-05
-4.60701e-07
0
0.00142146
0
-7.28187e-05
0
-0.0004455
-1.4308e-08
0
2.86133e-08
1.93626e-10
-6.82881e-10
3.49105e-07
0.000584357
-1.66167e-09
4.41458e-08
0
0.0290991
6.82184e-05
0
0
8.05893e-05
0
0.115107
8.89704e-06
6.79649e-06
8.16708e-08
0.000172369
1.28116e-05
-7.54781e-08
1.82103e-10
-7.27896e-10
-2.98025e-07
7.33456e-08
0.000350429
0
0.0198493
0
5.68903e-05
1.41268e-05
3.55386e-08
0
2.94096e-08
0
0.0807695
8.2708e-09
0
3.03815e-06
0
0.179136
-1.39441e-07
-1.78845e-10
4.47187e-08
3.32072e-07
-3.30237e-06
1.93689e-08
0.048099
5.1402e-10
0.000240814
0
-0.00114559
0
0
0.000101441
-4.90978e-07
1.54573e-09
1.20678e-06
0
0.0208214
0
0.210331
2.29801e-07
0
0
-2.05241e-05
0.0117039
0
1.52819e-07
6.93166e-08
-7.15234e-07
2.44351e-07
4.63738e-06
8.86358e-10
0
0.154178
3.51288e-05
0
0
0
0
0.00030337
0
1.70747e-05
0
-1.58778e-10
0
-1.73484e-08
0
0.199816
0
0
6.9144e-08
0
0.00514862
0
4.21251e-09
0
0
0
-4.66441e-05
-2.44754e-05
2.51828e-06
1.42495e-07
-1.00129e-07
0
4.64155e-06
0
0
0
1.26995e-05
0
0
1.27949e-09
4.93286e-09
0
1.01449e-05
-2.60054e-08
3.39338e-07
0.000438038
-0.000209355
0
0.158064
9.83622e-08
0
-7.19599e-06
0.000112377
0.216916
8.88077e-06
-1.14251e-07
-1.10342e-05
1.47369e-06
-4.39226e-07
-6.41688e-06
1.07231e-06
-7.4667e-07
5.35579e-09
0
0.143755
2.72739e-05
0
0.00185126
-2.01115e-08
0
-7.71875e-07
-6.14058e-10
-1.65267e-10
3.73886e-07
2.6589e-06
7.87387e-07
9.54894e-06
4.61209e-07
0
0.00405791
0
1.07686e-06
5.27466e-07
8.92806e-05
1.11003e-05
0
0
-3.81692e-09
2.47355e-06
-4.34456e-07
0
-0.000997326
0
0.000618234
-1.62621e-05
1.96959e-06
-2.57162e-07
-0.000100042
0
1.40966e-05
-2.22415e-05
5.47028e-07
0
5.48664e-08
3.14347e-06
0
0
0.00882864
1.1288e-05
4.67614e-05
-1.24175e-08
3.23377e-09
9.15399e-10
1.17358e-07
0.00823511
0
0
1.62273e-06
0
-0.000866187
4.36958e-09
0.000104276
0
2.90837e-05
0
-5.26926e-08
2.83143e-10
2.75758e-06
1.31097e-06
5.21997e-07
5.14314e-05
1.3392e-05
1.14403e-05
9.70692e-10
0
0
0
0
-4.01194e-06
1.26362e-05
0.239243
3.53571e-06
3.39609e-08
-2.35186e-08
2.30391e-07
0.00251016
3.56751e-05
4.36841e-06
3.11419e-09
0.0088177
7.07114e-07
1.91876e-06
4.42728e-07
-1.98575e-06
7.30591e-05
6.07248e-06
1.55025e-07
9.59676e-06
1.21624e-06
-2.05999e-07
4.64481e-06
7.99946e-07
2.1913e-06
0
-0.000342599
8.994e-10
0
0.00418764
0.154166
-8.81065e-10
-2.51462e-06
0.0872801
-2.15314e-10
0
0
-0.00087104
0
0
-5.7444e-05
3.23072e-06
1.74349e-08
0
-2.85176e-09
-9.3473e-08
2.08972e-10
1.75498e-08
-3.62595e-05
3.0019e-06
0
0
-7.59274e-09
0
0
-1.59582e-06
0
0.102813
0
0
-1.75077e-07
-1.8497e-08
0
0.148101
1.33013e-05
0
-1.72505e-10
-1.20533e-05
1.49858e-05
0
0
0
5.52615e-05
5.11472e-07
6.43509e-08
0.00293992
5.30754e-07
0
0.00747215
7.59971e-10
4.53677e-09
0
-1.36023e-07
1.73643e-07
0.00274182
-3.35546e-06
0
2.52433e-09
-5.03099e-10
-5.65823e-09
7.65386e-07
-7.42772e-07
-3.98512e-09
0
-1.60302e-06
5.387e-07
1.67619e-05
9.57767e-09
0
0.0554236
8.95477e-09
0
0.0330123
4.11245e-09
0
3.14507e-09
6.74344e-05
2.31596e-09
0
1.54687e-10
0
0.187838
0
-1.77274e-09
4.79693e-09
7.69089e-09
0
-7.80354e-10
0.000643668
3.12549e-10
-1.32301e-05
-1.62439e-07
6.27786e-08
0.00705821
0
5.51398e-07
1.67753e-10
7.71834e-10
0
0.000378787
0
-3.01546e-07
0
-1.9174e-08
1.34527e-10
1.85579e-08
9.07725e-08
-3.24514e-07
0
3.53027e-07
2.32827e-08
0
-0.000834292
0
0
0
8.42945e-07
0
4.25297e-08
0.000254362
2.60588e-07
0
-5.60366e-05
2.56511e-08
2.58972e-10
0.0343319
1.70934e-05
0
0
0.017613
8.69168e-08
0
0.0482142
-1.69887e-09
-6.48735e-07
0
-9.03365e-09
0
3.43373e-08
1.77862e-07
-5.24894e-08
4.39671e-08
0.017361
-4.75274e-08
6.72748e-06
8.99583e-06
0
0
5.83146e-06
5.73044e-07
-5.67113e-07
0
0
0
7.22553e-06
-7.64935e-08
0
-4.19404e-05
0
-7.80843e-08
0
-1.21295e-06
3.50053e-07
1.7273e-08
-2.06564e-05
0
7.56716e-08
0
0.020215
9.90446e-07
7.75674e-08
-1.41207e-05
0
0
0.0424835
5.45546e-08
0
5.68045e-05
0
0.000229756
0
-5.48547e-08
-1.07056e-08
-6.08135e-09
0
0
0
0
0.00851653
0
5.5608e-06
0
0.00281561
0
-0.000185386
0
0
0.00192998
0
-2.81954e-06
0
2.97574e-05
0
0.181678
3.04534e-09
-4.25441e-08
8.20777e-10
0.133131
4.18394e-09
1.33189e-08
-5.09572e-09
2.50907e-09
0.161206
0
-3.76003e-08
-9.3362e-09
0
0.00438105
0.0589609
0
0
0.0713243
-4.68369e-07
3.07513e-07
9.10193e-09
-1.72881e-05
0
0
-2.49131e-08
0.0306596
-2.37893e-10
0
-3.53537e-07
-1.33696e-09
6.89744e-10
8.10786e-07
0
2.44982e-08
-6.40833e-06
3.36488e-10
-0.000219564
7.82915e-10
0.00152706
0
-0.000107826
8.58047e-08
-3.29744e-10
0
0
0.00824806
0
0
0
0
0.202646
-0.000173617
3.62165e-10
0
0
0.217418
0
0
-0.000381066
0
-4.45219e-05
2.05285e-08
0
1.32418e-10
5.1221e-06
0
7.5748e-09
-2.53813e-09
1.16539e-06
1.73241e-05
0
-1.69526e-09
2.1217e-07
0
0
2.41132e-07
0
0
0
1.66065e-07
0
0.000567232
0
0.0200526
0
0.000165009
0
0.0200328
0
0
0
0
-0.000321952
0
0
0
4.84365e-10
0
1.64205e-06
0
7.01723e-07
1.46735e-07
1.41747e-07
-2.13325e-06
0
2.96988e-06
0
0.0103032
-1.71629e-08
0
0
7.73271e-05
0
0.105029
0
2.82229e-09
0
3.44224e-09
0
5.29375e-05
0
0.189571
1.09879e-08
0
0
-1.45865e-06
0
1.04986e-07
-7.94205e-06
1.40267e-06
0
0.144113
0
2.6404e-10
-1.9001e-05
-3.0633e-07
0
2.50459e-08
0
0
0.0715411
0