# vtk DataFile Version 2.0
Unstructured Grid by M++
ASCII
DATASET UNSTRUCTURED_GRID
POINTS 81 float
  1.000000   0.000000 0
  0.750000   0.375000 0
  0.875000   0.500000 0
  0.750000   0.500000 0
  1.000000   0.625000 0
  1.000000   0.375000 0
  0.625000   0.875000 0
  1.000000   0.750000 0
  0.875000   0.000000 0
  1.000000   0.250000 0
  0.625000   0.375000 0
  1.000000   1.000000 0
  0.875000   0.250000 0
  1.000000   0.500000 0
  0.625000   0.625000 0
  0.875000   0.875000 0
  0.750000   0.125000 0
  0.750000   0.750000 0
  0.625000   0.000000 0
  0.625000   1.000000 0
  1.000000   0.875000 0
  0.875000   0.125000 0
  0.500000   0.250000 0
  0.625000   0.500000 0
  0.250000   0.625000 0
  0.875000   0.375000 0
  0.500000   0.500000 0
  0.875000   1.000000 0
  0.750000   0.250000 0
  0.375000   0.375000 0
  0.000000   0.500000 0
  0.000000   1.000000 0
  0.250000   0.125000 0
  0.375000   0.875000 0
  0.125000   0.750000 0
  0.000000   0.000000 0
  0.500000   0.625000 0
  0.125000   0.375000 0
  0.125000   0.000000 0
  0.250000   0.750000 0
  0.000000   0.250000 0
  0.125000   1.000000 0
  0.875000   0.625000 0
  0.500000   0.750000 0
  0.125000   0.625000 0
  0.000000   0.375000 0
  0.500000   1.000000 0
  0.375000   0.250000 0
  0.000000   0.125000 0
  0.375000   0.000000 0
  0.125000   0.875000 0
  0.000000   0.625000 0
  0.375000   0.500000 0
  0.750000   0.875000 0
  0.250000   0.250000 0
  0.375000   1.000000 0
  0.625000   0.125000 0
  0.500000   0.375000 0
  0.125000   0.500000 0
  0.875000   0.750000 0
  0.750000   0.000000 0
  0.500000   0.875000 0
  0.375000   0.125000 0
  0.750000   0.625000 0
  0.250000   0.000000 0
  0.375000   0.750000 0
  0.375000   0.625000 0
  0.000000   0.750000 0
  0.250000   0.375000 0
  0.625000   0.750000 0
  0.250000   0.875000 0
  0.125000   0.125000 0
  0.500000   0.000000 0
  0.000000   0.875000 0
  0.250000   0.500000 0
  0.125000   0.250000 0
  0.250000   1.000000 0
  0.500000   0.125000 0
  1.000000   0.125000 0
  0.750000   1.000000 0
  0.625000   0.250000 0
CELLS 64 320
4 40 48 75 71
4 54 75 32 71
4 64 32 38 71
4 35 38 48 71
4 31 73 41 50
4 74 52 24 66
4 43 65 36 66
4 76 41 70 50
4 26 36 52 66
4 46 55 61 33
4 39 24 65 66
4 67 51 34 44
4 54 47 68 29
4 40 75 45 37
4 54 68 75 37
4 72 77 49 62
4 74 58 68 37
4 76 70 55 33
4 30 45 58 37
4 64 49 32 62
4 39 65 70 33
4 67 34 73 50
4 74 68 52 29
4 43 61 65 33
4 39 70 34 50
4 26 52 57 29
4 39 34 24 44
4 22 57 47 29
4 54 32 47 62
4 30 58 51 44
4 22 47 77 62
4 74 24 58 44
4 17 69 63 14
4 9 5 12 25
4 43 36 69 14
4 28 12 1 25
4 11 27 20 15
4 17 63 59 42
4 13 4 2 42
4 79 19 53 6
4 72 18 77 56
4 60 8 16 21
4 26 57 23 10
4 7 59 4 42
4 3 1 2 25
4 43 69 61 6
4 79 53 27 15
4 26 23 36 14
4 28 16 12 21
4 17 59 53 15
4 13 2 5 25
4 17 53 69 6
4 60 16 18 56
4 3 2 63 42
4 46 61 19 6
4 7 20 59 15
4 3 23 1 10
4 0 78 8 21
4 3 63 23 14
4 9 12 78 21
4 28 80 16 56
4 22 77 80 56
4 28 1 80 10
4 22 80 57 10
CELL_TYPES 64
8
8
8
8
8
8
8
8
8
8
8
8
8
8
8
8
8
8
8
8
8
8
8
8
8
8
8
8
8
8
8
8
8
8
8
8
8
8
8
8
8
8
8
8
8
8
8
8
8
8
8
8
8
8
8
8
8
8
8
8
8
8
8
8
CELL_DATA 64
SCALARS scalar_value float 1
LOOKUP_TABLE default
0
0
0
0
0
0
0
0
0
0
0
0
0
0
0
0
0
0
0
0
0
0
0
0
0
0
0
0
0
0
0
0
1
1
1
1
1
1
1
1
1
1
1
1
1
1
1
1
1
1
1
1
1
1
1
1
1
1
1
1
1
1
1
1
