# vtk DataFile Version 2.0
Unstructured Grid by M++
ASCII
DATASET UNSTRUCTURED_GRID
POINTS 4072 float
  0.562500   0.968750 0
  0.906250   0.500000 0
  0.750000   0.781250 0
  0.953125   0.531250 0
  0.984375   0.875000 0
  0.828125   0.828125 0
  0.828125   0.859375 0
  0.562500   0.765625 0
  0.937500   0.687500 0
  0.968750   0.578125 0
  0.968750   0.781250 0
  0.734375   0.843750 0
  0.968750   0.718750 0
  0.734375   0.796875 0
  0.984375   0.718750 0
  0.984375   0.703125 0
  1.000000   0.750000 0
  0.984375   0.734375 0
  1.000000   0.718750 0
  0.953125   0.859375 0
  0.953125   0.843750 0
  0.937500   0.843750 0
  0.921875   0.640625 0
  0.937500   0.625000 0
  0.671875   0.906250 0
  0.687500   0.890625 0
  1.000000   0.687500 0
  0.828125   0.796875 0
  0.828125   0.750000 0
  0.515625   0.750000 0
  0.828125   0.937500 0
  0.968750   0.625000 0
  0.984375   0.593750 0
  0.984375   0.796875 0
  0.750000   0.859375 0
  0.859375   0.937500 0
  0.828125   0.953125 0
  0.859375   0.781250 0
  0.593750   0.515625 0
  0.984375   0.750000 0
  0.734375   0.828125 0
  1.000000   0.734375 0
  0.750000   0.812500 0
  0.953125   0.562500 0
  0.968750   0.750000 0
  0.734375   0.812500 0
  0.968750   0.546875 0
  0.843750   0.906250 0
  0.875000   0.875000 0
  0.578125   0.640625 0
  0.750000   0.968750 0
  0.984375   0.906250 0
  0.625000   0.515625 0
  0.937500   0.593750 0
  0.781250   0.578125 0
  0.640625   0.968750 0
  0.937500   0.531250 0
  0.937500   0.515625 0
  0.953125   0.500000 0
  0.703125   0.796875 0
  0.859375   0.718750 0
  0.703125   0.765625 0
  0.921875   0.703125 0
  0.687500   0.765625 0
  0.921875   0.500000 0
  0.718750   0.781250 0
  0.734375   0.765625 0
  0.968750   0.687500 0
  0.968750   0.890625 0
  0.734375   0.953125 0
  0.859375   0.828125 0
  0.890625   0.484375 0
  0.843750   0.843750 0
  0.828125   0.765625 0
  0.968750   0.906250 0
  0.796875   0.578125 0
  0.765625   0.828125 0
  0.609375   0.968750 0
  0.734375   0.656250 0
  0.671875   0.875000 0
  0.531250   0.906250 0
  0.546875   0.921875 0
  0.765625   0.656250 0
  0.531250   0.937500 0
  0.531250   0.734375 0
  0.765625   0.671875 0
  0.843750   0.734375 0
  0.843750   0.937500 0
  0.609375   1.000000 0
  0.593750   0.796875 0
  0.828125   0.734375 0
  0.578125   0.812500 0
  0.671875   0.562500 0
  0.781250   0.562500 0
  0.656250   1.000000 0
  0.765625   0.796875 0
  0.656250   0.593750 0
  0.796875   0.562500 0
  0.625000   0.828125 0
  0.625000   0.625000 0
  0.859375   0.562500 0
  0.796875   1.000000 0
  0.890625   0.781250 0
  0.875000   0.781250 0
  0.625000   0.859375 0
  0.843750   0.781250 0
  0.859375   0.765625 0
  0.843750   0.765625 0
  0.859375   0.750000 0
  0.843750   0.750000 0
  0.765625   1.000000 0
  0.781250   0.984375 0
  0.875000   0.625000 0
  0.875000   0.812500 0
  0.640625   0.875000 0
  0.562500   0.906250 0
  0.796875   0.843750 0
  0.796875   0.828125 0
  0.656250   0.906250 0
  0.890625   0.640625 0
  0.875000   0.843750 0
  0.859375   0.843750 0
  0.625000   0.906250 0
  0.812500   0.875000 0
  0.859375   0.515625 0
  0.812500   0.843750 0
  0.796875   0.875000 0
  0.796875   0.859375 0
  0.593750   0.968750 0
  0.859375   0.875000 0
  0.625000   0.937500 0
  0.843750   0.875000 0
  0.593750   0.953125 0
  0.859375   0.859375 0
  0.828125   0.671875 0
  0.890625   0.765625 0
  0.656250   0.828125 0
  0.656250   0.625000 0
  0.890625   0.562500 0
  0.640625   0.843750 0
  0.640625   0.640625 0
  0.875000   0.578125 0
  0.890625   0.750000 0
  0.875000   0.765625 0
  0.562500   0.625000 0
  0.968750   0.500000 0
  0.734375   0.562500 0
  0.937500   0.578125 0
  0.703125   0.640625 0
  0.656250   0.984375 0
  0.640625   1.000000 0
  0.953125   0.578125 0
  0.671875   0.984375 0
  0.906250   0.921875 0
  0.921875   0.687500 0
  0.671875   0.765625 0
  0.687500   0.750000 0
  0.906250   0.484375 0
  0.984375   0.921875 0
  0.734375   1.000000 0
  1.000000   0.906250 0
  0.750000   0.984375 0
  0.828125   0.843750 0
  0.593750   0.906250 0
  0.828125   0.640625 0
  0.843750   0.828125 0
  0.609375   0.890625 0
  0.609375   0.687500 0
  0.843750   0.625000 0
  0.734375   0.875000 0
  0.968750   0.812500 0
  0.859375   0.812500 0
  0.625000   0.875000 0
  0.859375   0.609375 0
  0.843750   0.812500 0
  0.859375   0.796875 0
  0.828125   0.812500 0
  0.593750   0.875000 0
  0.828125   0.609375 0
  0.781250   0.843750 0
  0.515625   0.921875 0
  1.000000   0.781250 0
  0.765625   0.843750 0
  1.000000   0.578125 0
  0.765625   0.968750 0
  0.890625   0.703125 0
  0.656250   0.765625 0
  0.890625   0.500000 0
  0.875000   0.703125 0
  0.937500   0.937500 0
  0.984375   0.578125 0
  0.578125   0.531250 0
  0.875000   0.609375 0
  0.640625   0.671875 0
  0.796875   0.625000 0
  0.859375   0.593750 0
  0.625000   0.656250 0
  0.609375   0.671875 0
  0.593750   0.687500 0
  1.000000   0.562500 0
  0.765625   0.625000 0
  0.656250   0.578125 0
  0.625000   0.546875 0
  0.671875   0.812500 0
  0.906250   0.750000 0
  0.796875   0.546875 0
  0.828125   0.718750 0
  0.578125   0.781250 0
  0.875000   0.656250 0
  0.640625   0.718750 0
  0.734375   0.984375 0
  0.968750   0.921875 0
  0.609375   0.531250 0
  0.953125   0.921875 0
  0.968750   0.937500 0
  0.593750   0.546875 0
  0.765625   0.609375 0
  0.531250   0.671875 0
  0.781250   0.593750 0
  0.546875   0.656250 0
  0.656250   0.656250 0
  0.890625   0.593750 0
  0.656250   0.859375 0
  0.921875   0.671875 0
  0.968750   0.734375 0
  0.718750   0.812500 0
  0.812500   0.984375 0
  0.562500   0.796875 0
  0.750000   0.640625 0
  0.765625   0.687500 0
  0.531250   0.953125 0
  0.687500   0.656250 0
  0.921875   0.593750 0
  1.000000   0.593750 0
  0.750000   0.671875 0
  0.671875   0.750000 0
  0.906250   0.687500 0
  1.000000   0.656250 0
  0.812500   0.562500 0
  0.687500   0.796875 0
  0.921875   0.734375 0
  0.828125   0.546875 0
  1.000000   0.625000 0
  0.953125   0.968750 0
  0.750000   0.906250 0
  0.515625   0.968750 0
  0.812500   0.531250 0
  1.000000   0.796875 0
  0.515625   0.937500 0
  0.750000   0.875000 0
  0.812500   0.703125 0
  0.796875   0.703125 0
  0.812500   0.593750 0
  0.937500   0.562500 0
  0.656250   0.968750 0
  0.890625   0.906250 0
  0.703125   0.625000 0
  0.953125   0.546875 0
  0.671875   0.953125 0
  0.906250   0.890625 0
  0.984375   0.781250 0
  0.796875   0.687500 0
  0.562500   0.953125 0
  0.968750   0.875000 0
  0.718750   0.953125 0
  0.562500   0.937500 0
  0.781250   0.781250 0
  0.953125   0.875000 0
  0.718750   0.937500 0
  0.953125   0.671875 0
  0.796875   0.656250 0
  0.828125   1.000000 0
  0.953125   0.890625 0
  0.703125   0.968750 0
  0.828125   0.625000 0
  0.781250   0.968750 0
  0.781250   0.671875 0
  0.781250   0.875000 0
  0.546875   0.937500 0
  0.906250   0.640625 0
  0.671875   0.703125 0
  0.640625   0.609375 0
  0.875000   0.546875 0
  0.906250   0.625000 0
  0.656250   0.703125 0
  0.656250   0.718750 0
  0.968750   0.531250 0
  0.734375   0.593750 0
  0.984375   0.531250 0
  0.781250   0.546875 0
  0.718750   0.609375 0
  0.906250   0.703125 0
  0.968750   0.593750 0
  0.687500   1.000000 0
  0.921875   0.937500 0
  0.906250   0.765625 0
  0.906250   0.562500 0
  0.718750   0.750000 0
  0.718750   0.546875 0
  0.953125   0.484375 0
  0.796875   0.593750 0
  0.515625   1.000000 0
  0.750000   0.937500 0
  0.906250   0.593750 0
  0.546875   1.000000 0
  0.781250   0.937500 0
  0.828125   0.593750 0
  0.984375   0.609375 0
  0.937500   0.953125 0
  0.796875   0.515625 0
  0.968750   0.609375 0
  0.734375   0.671875 0
  0.906250   0.781250 0
  0.671875   0.843750 0
  0.515625   0.890625 0
  0.687500   0.625000 0
  0.921875   0.562500 0
  0.843750   0.531250 0
  1.000000   0.765625 0
  0.750000   0.843750 0
  0.812500   0.671875 0
  0.687500   0.921875 0
  0.765625   0.515625 0
  0.953125   0.609375 0
  0.921875   0.625000 0
  0.687500   0.687500 0
  0.812500   0.656250 0
  0.812500   0.859375 0
  0.578125   0.921875 0
  0.796875   0.765625 0
  0.890625   0.687500 0
  0.578125   0.750000 0
  0.812500   0.687500 0
  0.578125   0.953125 0
  0.796875   0.796875 0
  0.984375   0.890625 0
  0.734375   0.968750 0
  0.718750   0.640625 0
  0.968750   0.562500 0
  0.687500   0.968750 0
  0.921875   0.906250 0
  0.765625   0.953125 0
  0.812500   0.609375 0
  0.812500   0.734375 0
  0.875000   0.562500 0
  0.968750   0.656250 0
  0.796875   0.734375 0
  0.812500   0.828125 0
  0.578125   0.890625 0
  0.781250   0.687500 0
  0.984375   0.671875 0
  0.578125   0.828125 0
  0.812500   0.765625 0
  0.875000   0.593750 0
  1.000000   0.875000 0
  0.765625   0.937500 0
  0.843750   0.656250 0
  0.843750   0.859375 0
  0.609375   0.921875 0
  0.828125   0.687500 0
  0.937500   0.656250 0
  0.937500   0.859375 0
  0.703125   0.921875 0
  0.984375   0.640625 0
  0.890625   0.468750 0
  0.656250   0.734375 0
  0.890625   0.671875 0
  0.890625   0.875000 0
  0.656250   0.937500 0
  0.578125   0.859375 0
  0.812500   0.796875 0
  0.843750   0.890625 0
  0.609375   0.953125 0
  0.937500   0.875000 0
  0.687500   0.953125 0
  0.843750   0.953125 0
  0.828125   0.703125 0
  0.593750   0.765625 0
  0.937500   0.546875 0
  0.781250   0.531250 0
  0.781250   0.734375 0
  0.546875   0.796875 0
  0.796875   0.718750 0
  0.562500   0.984375 0
  0.984375   0.812500 0
  0.562500   0.812500 0
  0.796875   0.750000 0
  0.562500   0.875000 0
  0.796875   0.812500 0
  0.640625   0.750000 0
  0.875000   0.687500 0
  0.703125   0.671875 0
  0.937500   0.609375 0
  0.562500   0.843750 0
  0.796875   0.781250 0
  0.781250   0.750000 0
  0.781250   0.609375 0
  0.812500   0.953125 0
  0.812500   0.718750 0
  0.953125   0.593750 0
  0.718750   0.656250 0
  0.671875   1.000000 0
  0.796875   0.953125 0
  0.843750   0.609375 0
  0.812500   0.812500 0
  0.812500   0.781250 0
  0.750000   0.953125 0
  0.750000   0.750000 0
  0.984375   0.687500 0
  0.781250   1.000000 0
  0.765625   0.546875 0
  0.765625   0.750000 0
[...]
POINT_DATA 4072
SCALARS scalar_value float 1
LOOKUP_TABLE default
-7.87335e-08
-1.22027e-07
0.00141131
1.66956e-10
0
9.87516e-09
-2.38063e-09
0.242236
0
-1.15088e-10
0
2.37173e-05
0
0.00190762
0
0
0
0
0
0
0
0
-1.38005e-10
6.54424e-10
2.82053e-06
6.98775e-06
0
-1.34262e-07
1.74236e-06
0.13637
0
0
0
0
-1.29418e-07
0
0
1.72809e-08
1.1206
0
0.0001497
0
0.000153017
0
0
0.000613632
0
0
0
1.2443
0
0
1.11317
6.51844e-10
0.00720655
5.40493e-10
3.03519e-10
-8.66509e-10
5.12151e-09
0.00973943
-2.27759e-07
0.0425154
7.1763e-10
0.0617996
9.61232e-08
0.0116663
0.0106818
0
0
0
0
-1.06786e-06
-1.559e-09
4.8979e-07
0
-0.000535665
8.79363e-07
-1.4902e-08
0.199113
8.96167e-05
-1.48944e-05
-3.15146e-06
0.0218846
-4.88108e-06
0.20863
0.0163969
-2.14908e-07
0
0
0.0563595
3.7426e-06
0.0178888
1.11073
0.00811667
0
5.64073e-05
1.31915
-0.000515554
0.00706403
1.18723
-9.75832e-07
0
-1.16086e-09
-2.62089e-09
0.000782674
-4.84751e-08
2.09589e-08
-1.66776e-07
-1.22651e-08
-2.63882e-07
0
0
-4.8222e-08
6.74124e-10
0.000176042
2.24705e-06
8.73604e-07
1.83426e-06
4.86558e-06
4.98685e-08
-1.46916e-10
3.06366e-10
5.12424e-06
1.17203e-08
-9.62971e-07
-8.33416e-08
-1.36062e-07
2.17963e-07
-3.54836e-08
0
-1.03511e-07
3.02798e-10
-1.58048e-07
0
1.30512e-05
-3.29357e-09
0.00502306
1.06863
-2.11169e-07
0.00218186
0.971088
1.91973e-07
-5.00805e-09
3.54328e-09
1.18885
-1.51731e-09
0.477556
-6.52478e-10
0.628128
0
0
3.83408e-10
0
0
8.74508e-10
0.0791144
0.104
-1.02422e-07
0
0
0
0
1.00002e-08
3.71291e-06
1.53115e-05
-9.21107e-10
4.25387e-05
0.95107
5.67856e-06
5.87381e-08
0
-1.93979e-09
0.00020065
-1.281e-06
1.01049e-08
2.37215e-09
-4.75224e-08
0.000243179
1.92589e-05
3.57155e-06
-2.85568e-05
0
-5.0315e-07
0
0
5.02819e-09
0.0970256
-9.05846e-07
4.24893e-08
0
0
1.17421
1.51596e-08
0.693422
-0.000490565
-1.28355e-06
0.925406
1.03941
1.27772
0
0.0340909
1.30784
1.18706
0.00969879
0
-0.000463364
6.27689e-06
0.0898517
-3.01622e-08
0.418686
0
0
1.22712
0
0
1.24609
0.0404844
0.611213
0.00627988
0.819319
0.763401
3.0708e-08
0.000542859
7.99252e-10
0
0.00171789
0
0.0481464
0.10136
0.0115853
1.50203e-06
0.649754
-2.58903e-09
0
0.063189
0.128184
-5.25207e-09
0
-0.000220502
0.0158326
1.33761e-10
2.78811e-05
0
0
1.81321e-09
2.42714e-06
-0.000257009
0
1.3299e-05
-1.1869e-07
-3.04348e-05
-0.000205481
-0.000211606
-2.89135e-10
2.97884e-10
0
0.73302
1.46414e-10
9.25209e-10
0
0
-0.000278889
-6.31456e-08
0
0
-9.99814e-07
-1.78064e-05
0
0
0
-0.000408548
0
0
0
1.68394e-05
0
0.00169885
2.8882e-06
2.97898e-07
-7.092e-09
0.361288
1.24119
5.01398e-07
-6.58826e-09
0.395033
0.298896
0
0.386518
0
0.00904734
0.592047
-3.62016e-09
0
0
0
2.48529e-10
1.94681e-08
0.0445901
0.865665
5.56666e-09
-0.000531578
0
8.55807e-10
-5.35858e-09
0
1.35176e-09
2.24051e-05
0
0
-0.000148624
0
0.157486
2.79135e-10
0.00126736
3.04992e-05
0.901271
2.64457e-09
2.11059e-06
0
3.84498e-06
-8.94373e-05
8.75514e-08
0.0666873
0
-8.98901e-10
0.41823
-0.000124622
-1.52445e-10
-1.63605e-06
-1.39916e-05
1.51256e-08
0.684802
-5.6869e-05
-2.36256e-07
2.38396e-06
0
0
0.435699
0
0
0
1.72367e-10
-0.000202919
-1.3594e-06
5.1828e-07
0
-7.96834e-05
-1.16428e-07
4.67839e-05
0.00103856
0
0.00961519
3.43194e-06
1.50125e-07
0
1.17326e-09
4.24046e-06
5.22951e-10
-4.09567e-07
1.12966e-05
2.41581e-10
0
1.00778e-08
0
-9.72972e-07
0.216251
2.7276e-08
0
3.78874e-08
0.00104405
9.17225e-07
0
-8.69633e-08
0
1.79287e-10
0
8.94409e-06
0.296163
0
0.00992112
6.19258e-05
0.0435707
-0.000136638
1.51293e-08
0
0.0172124
-3.88271e-05
0.000243388
2.7375e-06
0.19923
2.89855e-08
0.426101
7.3891e-10
0.00279531
-1.82343e-06
-9.64641e-06
0.00533475
0
-1.19556e-05
0
0.361266
0
2.40993e-10
5.28436e-06
1.32107e-07
2.23416e-06
1.67969e-10
0.00679727
0
0
0.0628979
0.0012416
0.0152512
-7.15075e-09
3.20491e-07
0.00970482
2.98487e-06
2.75251e-06
5.88748e-05
0
0.0468825
-3.56677e-07
5.2359e-06
0
0
-1.56744e-10
0.224209
9.82147e-10
0
4.68982e-10
0
0.143517
2.1804e-10
0.0832835
0.0331632
0
0.186564
0.222297
0.0125233
0.0320159
0
0.0538235
0.0323833
0.0934273
-2.01818e-09
0.0441228
-3.2954e-09
-5.66954e-07
6.99045e-09
0
-8.71049e-07
0.519967
0.648803
3.95337e-09
0
0
0.00488687
0
0
-5.38363e-08
0.493685
-4.892e-09
0.0276669
0
-1.13803e-06
0.770977
0
0
0
5.53843e-08
0
0
3.95742e-08
0
0
0
0
0
0
0
-0.000157939
0
0
1.46892
0
0
0
1.43315
0
0
0
0
1.42537e-05
-7.7257e-10
0.289249
3.10085e-08
-1.7508e-09
0.31321
-6.52412e-09
0.153796
-1.00084e-06
0.71142
-7.29431e-07
0.592806
0.0209825
0
0
0
-0.000233817
1.33714
0
1.33911
0
5.14166e-07
1.33148
0
-1.24511e-06
1.36087
0
1.3448
0
0
1.13052
0
0
0
1.25307
0
0
0.192618
0
2.50326e-05
1.32858
0
5.31633e-06
1.37532
1.32968
0
7.65781e-07
0.21374
-3.9256e-07
0
-3.48111e-09
0.0845827
1.03423e-07
-1.79671e-09
0.0405027
-9.57575e-08
0
0
0.00253663
0.0680433
4.18788e-08
1.18972e-10
0.00023443
0.0389027
0.0150862
1.61744e-08
1.35406e-05
-0.000353275
1.34741
-0.000294956
1.30652
-0.000515671
0.782648
-0.000214821
0.910214
1.35101
1.06441
-6.27409e-08
0
0
1.78365e-10
1.35166e-09
3.54897e-10
1.34346e-10
0
0
3.32811e-05
0
0
0
0
0
-2.12263e-08
5.38924e-10
1.25211e-10
4.95413e-10
-1.7e-09
0
0
0
9.32104e-10
0
0
0
0
0
0
0
0
0
0
0
0
0
-6.08549e-07
-1.80136e-09
5.45899e-07
1.24454e-09
0
0
0
0
-1.64973e-09
0.000318838
0
0.000482744
0
0
0
3.67886e-09
0
0
0
1.04778e-07
0
0
0
1.7549e-10
0.0361422
0
0
0
0
2.97796e-05
0.501145
5.61892e-08
0
0
0
0
3.46875e-06
1.47595e-05
0
0
1.10333e-05
0
0
0.00121427
-7.32555e-06
0
0.00376025
0
0.0624088
2.99197e-06
0
0
0
0.0216959
-1.24246e-10
0
0
0
7.41328e-06
-1.48965e-07
0.000187641
0
0
0
0
0
8.51886e-07
1.31776
9.18808e-07
0.0191518
-9.98227e-07
0
0.000530863
0.00275797
0.00019261
0.00923489
-2.49355e-05
0.000212142
1.17801e-05
0.00238664
-1.5261e-10
-1.33065e-10
0
-8.0643e-10
0
4.50757e-10
0.232436
1.47231
0
0.000650197
0.2735
0.00607809
0.000106254
4.86784e-06
0
0.000626014
0
0.00125609
0.0219559
0.00564184
0
0.000205984
-1.01944e-06
1.23508e-10
0.00219827
-0.00023574
0
0.498565
2.60615e-08
1.83383e-07
0
0.435175
0.903853
0
0.000550817
0.00162422
0.00108031
9.08649e-09
0
1.42315
0.269472
0.249271
-1.72516e-08
0.000900463
0.0747416
0.00730718
4.45378e-05
0
0.00029808
0.0214955
1.15718
0.240828
9.16167e-07
-1.02228e-06
-3.76406e-06
-1.15589e-07
0
-3.15338e-07
0.00194988
1.68583e-05
0.00422624
0
-5.3755e-06
6.79528e-09
2.56469e-05
0.00268547
1.52512e-09
0.137434
0.00360349
0.00257409
-7.27789e-06
-0.000571595
0.00058667
0
-2.92514e-06
-0.000209359
0
0.00198618
0.000109685
0.00358566
2.65065e-10
3.02341e-06
5.6261e-10
3.57533e-05
1.05166
0.00031732
0
0.000385474
1.27294e-08
0.61728
1.1633
7.45332e-07
0
0.000504204
0.489228
0
1.8822e-10
0.0272852
0.0198816
0.0333564
0.00701181
0.00049693
1.33094
0.228508
0
0.468127
0.303421
0.199902
0.00177462
-0.00012008
0.00036662
6.16701e-05
0.0548639
0.000696553
0.0188841
0.000252715
0
-2.4594e-05
1.08766
1.43285
0
2.05163e-05
1.34974
4.49988e-06
0.240195
-1.5594e-06
-2.35734e-07
0
0.827251
1.06236
2.61389e-09
9.75812e-05
0.0610552
0
3.1816e-05
0.179596
0.0892179
0.160499
2.99754e-10
-4.59945e-09
0
-0.000242114
1.09256e-08
0
0.867103
1.31942
0.337128
0.608224
0.153377
0.245911
0.00253285
7.89514e-06
1.25802
1.30364
0.512639
0.47123
0.243204
0.364918
0.838908
0.623968
-1.9043e-09
1.16972
1.38707
0.000140635
-3.49317e-06
-6.91806e-08
1.15592
1.23431
1.13537e-08
4.48742e-05
-1.48404e-09
0.000676558
1.79074e-06
1.26955
1.13156
3.65859e-05
0
5.38173e-10
-2.33911e-10
0.00181831
0
0.00159638
7.08815e-06
3.30448e-07
1.44576
0
0.00487071
0.00354426
5.33695e-10
0.194895
0.00451653
-2.33564e-07
0.0241807
0.00918964
9.43824e-10
1.05977
0.78836
0.0175987
6.32386e-05
0.00609734
0.000317218
9.67096e-09
0.109611
0.0666156
0.219711
-2.31024e-07
0.000375252
5.37526e-10
0.00158709
3.81564e-05
9.30571e-07
0.0124937
-0.00143979
0.00376064
0.000854687
0.697257
0.127816
0.752243
0.147312
0
-2.17721e-09
0.916274
0.819533
-0.000121356
1.40731
1.22465
0
0
6.45592e-07
3.26408e-06
-0.00022338
1.05735
0.316737
8.11316e-06
3.65734e-05
0
0.140287
0.000137932
-1.71424e-07
0.00245997
0.0978705
2.35762e-09
0.00110658
0.147717
2.17122e-07
-2.66478e-08
0.0156469
1.66022e-06
7.19951e-09
0.0100086
1.70622e-09
1.66007e-05
1.27118e-05
0.00886969
1.70203e-06
1.36246
0.40346
-3.22623e-09
4.51551e-06
0
0.0248521
1.43884
-7.01539e-09
0.0026324
0
1.13618
-7.38187e-10
0.00344147
1.33466e-09
0
0.000378599
1.32966
0.00967961
0.00110224
0.189412
1.0103e-10
0.326961
0.272552
1.20083
3.81693e-08
1.28752
0.00413205
0.738445
0.00131959
0
2.31035e-06
0
0.11553
1.46872
0.194053
0.421257
0.00495874
0
-0.000365582
0.0495991
-6.31921e-05
0
1.26682e-06
0.0860163
1.32559e-06
0.0165951
1.25881
1.19977
0
0
-1.75674e-05
1.02357
0.0302618
9.59083e-09
-2.08171e-08
0.0585899
0
0.206828
0
1.23252
0.0283886
-3.11954e-07
0.0150936
0.000418374
0.29317
0.0570982
1.30276
0.0706895
9.14584e-06
0.000161716
0
1.29593
1.64488e-09
0.0239133
0
0
0.00128029
0.494799
-8.93809e-07
3.42345e-07
0.00330541
0
0.000155006
1.38705
1.07704
-2.40667e-05
4.64717e-08
0.00335308
-4.61996e-07
0.00367895
0
0
4.81749e-09
-1.7876e-05
0
0.195339
0.0451325
-4.42529e-09
0.00251803
0
1.05732
0
0
1.14378e-10
0.0536481
0.0866915
2.32178e-10
0
0
3.16859e-05
0.317703
7.89798e-06
0.481468
-6.7931e-08
2.93899e-05
0.264302
2.29648e-06
9.33538e-08
-1.29641e-05
0.383187
0.473212
-0.000675046
0
-3.31728e-10
0.0048518
0.779828
0
0.00516101
0.545534
1.09034
-2.76734e-09
0.179552
7.19104e-07
1.8425e-07
-1.14774e-05
3.18393e-06
0.805957
0.311226
-1.0066e-07
0.0510039
0
0.234946
0
0
0.11463
0.0618511
0.598629
0
0
0
0.0432859
2.56081e-05
1.10139e-06
0.0479058
-1.43857e-06
-1.20495e-07
4.22221e-07
1.45004
0
0.000319955
-4.51251e-07
0.0137044
0.333147
1.45603
0.000631006
-3.14477e-07
0
0.214836
-1.0485e-08
0
0.012699
0.467704
0
0
-0.000603406
0
0
6.54933e-06
0.115425
9.19002e-08
-2.83884e-05
1.37297
1.01295
1.20142
0.00791175
-7.35361e-07
0.308598
0.0437262
-1.47855e-07
1.74385e-08
0
0
0.000667447
-1.71316e-10
0.000926801
1.00931
0
0.00186262
0
-0.00026225
1.25846
0
0.000458701
0
0.0549178
0.285601
0
0.111005
5.87952e-09
0.00195349
0
5.49028e-08
-1.11554e-06
0.0019102
0
-1.25853e-07
2.70836e-08
0.386472
0.154957
3.03746e-08
0.374439
0.0875977
2.61707e-08
0
0.0126213
1.2999
4.18891e-08
0
0.158995
0.00016651
0.00739173
0
0.0837719
0.884751
6.05898e-10
0
0.00511063
0
0.005635
0
0.210283
1.77642e-06
0.000116696
0
0.00214719
0
0.208923
-1.25116e-06
0.000229194
0
0.403807
0.0129696
2.87172e-07
-1.89026e-07
0.0267893
1.51672e-06
5.83582e-06
0
0.000551489
8.22234e-08
0.377627
0.19908
6.74954e-07
2.1037e-05
0
0.000973126
-1.05653e-07
2.57304e-05
0.0996505
-0.000256053
0.056438
0
-0.000518407
0.118911
0.423923
0.00017216
0.0414779
0
0.0014824
0.0148655
0.147047
1.46017
0.0596463
-6.58876e-09
7.1381e-09
0.0215853
3.59438e-05
0.00332593
-3.31304e-07
0.070627
7.41114e-05
-2.19387e-06
-2.32669e-06
0.00460174
-2.61677e-06
0.243335
0.0986541
-1.13946e-09
0.136791
1.47216e-06
5.74387e-10
0.00447372
-3.42068e-07
0.175085
-4.48553e-07
0.0076502
0.143416
1.38096
0.0123947
4.16336e-08
-2.08211e-09
0.0135591
8.67434e-08
1.46376
0.0106582
-3.18756e-06
-3.54269e-06
6.14309e-07
-2.09427e-07
0
0.169829
1.29957
0.000472273
-2.81164e-07
-8.28565e-08
0.333232
1.00992
3.99966e-09
0.175451
0
0.0962414
0.0473616
1.09517
0.0145891
0.93288
0.00411118
0
0
8.75141e-10
0
0.00157511
0.230144
1.75222e-08
0.102105
1.09008
5.36161e-10
1.74951e-10
-1.06494e-07
0.910139
0.0315724
1.07604
0.0112057
-1.17105e-10
1.34442e-08
0
1.04222e-08
4.25415e-05
7.32665e-09
0.0157143
6.56642e-10
0.0269925
0.000769659
0.676181
0.426584
0.0137655
0
0.817178
5.01587e-07
0
0
0.962332
-1.34259e-10
0.0299802
-7.93601e-08
4.6961e-07
0.371088
1.10512
7.32696e-09
-1.36488e-10
0.00153002
0
0.0517545
6.1528e-07
0.00156104
0.977701
0.317537
0
0.00109512
3.9263e-09
0.311983
0.0711905
0
0.843435
0.0168706
1.73449e-05
0.047966
-7.57016e-07
-0.000193575
0.921989
1.30157e-05
-4.66361e-07
-0.000122091
0.0185858
-1.06819e-05
-1.1761e-06
2.23529e-07
0.0144834
8.07946e-06
0.0153868
-5.38234e-06
0.324871
0.00038782
0
0.143081
0.0872086
0
0
0.00118147
0.49788
-3.20324e-09
0.617624
-8.75079e-08
0.34149
-0.000315686
0.000802106
0
3.78705e-05
1.52305e-10
0.0319417
-6.99877e-06
-3.06689e-06
0.00220849
0.378014
-4.18809e-05
-2.95994e-05
0.039863
0.957328
-0.000122917
-6.12983e-07
-0.000220352
1.10504e-05
0.0346993
-6.82978e-06
0.458294
-6.44792e-06
1.60415e-08
-1.14777e-08
4.21079e-05
-1.01662e-07
2.68233e-05
0.361343
5.94505e-05
0
-4.35933e-05
0.0463656
1.09575
4.23596e-06
6.85514e-05
-3.77705e-06
-1.69691e-07
0
0
0.0136066
0
0
4.28588e-10
0
1.1665
0.298952
0
0
1.18308
0.250558
4.57525e-10
0.67632
0.767773
0.0358193
0.0430073
0.00479714
3.90008e-09
0.539055
2.67311e-09
0.00113504
-3.12913e-07
1.27938
0.842809
2.94488e-09
0.981283
-0.000156041
0.428412
0.872553
1.98637e-06
0.00162593
0
1.4682
0.351589
0.0346
0.572497
1.10859e-10
0.50175
-3.31948e-06
-3.54519e-05
-0.000113719
4.17801e-06
0.756889
0.000155583
0.131628
0.0217657
0
-4.20995e-06
-9.32099e-06
0.697124
0.000205194
0
0.162456
-7.9521e-07
0
0.29494
1.36623
2.79541e-05
0.0143419
0.647407
0
0.00487466
-6.70016e-07
0
8.99852e-10
0.532974
2.24909e-08
1.03005
8.64597e-05
0
0.685433
1.14203
0.745828
0.0029617
0
-0.0001514
0.41335
3.57624e-05
-1.67614e-05
-2.23758e-09
0.0220664
7.37743e-08
0.0065749
0.858622
5.16743e-05
0
0.108781
0
4.04782e-05
0.00296506
-6.1412e-09
2.3632e-08
0.2616
0.0654861
0.606189
0.0115236
0.0134768
-3.13842e-10
4.59307e-06
0.352102
0.00261359
0.00602632
0
-3.04657e-10
-0.00199413
0.0110197
1.6008e-05
1.17172e-05
0.161672
0.0264667
-1.86944e-05
-6.448e-07
0.00141675
-3.68584e-05
0.000555312
0.617119
0.290971
0
-1.3865e-07
0.00145497
-2.35095e-05
0.0760821
-7.16839e-08
0.0827301
0
-1.94644e-05
1.92402e-08
0.0276669
-2.10956e-07
0.116751
9.51973e-07
0
0.000254573
-2.55829e-10
0.0870999
0.138359
0.000919091
0
0.576411
0.150551
4.06217e-08
0.00657081
6.65182e-10
0
0.00252967
2.63503e-06
-5.93496e-08
0.109068
0.00305828
0
0.000263523
0
0
0.215073
-1.20009e-09
0.150992
0.228259
3.71795e-05
0
0.000106675
0
0.216379
1.26735
0
-8.07518e-06
-7.80195e-08
0.00855411
-1.55866e-08
0
0
0.00817471
0
0.877802
3.86887e-05
0.364265
2.26918e-10
0
1.0835e-05
0.00227675
0
-6.06083e-09
0
0.0168647
-1.60054e-06
0.612746
0.223534
0
0
0
0.989998
1.91424e-10
0.752229
-1.05774e-05
-4.3509e-08
0.0195632
1.19507e-06
0.0969066
0.777541
-3.45874e-09
0.49561
-2.54152e-06
5.00913e-07
0.0200745
0.0326953
0
0.120066
0
0.0277325
2.71099e-05
0.311225
-2.20776e-05
1.42137e-07
-4.91222e-07
0
-1.48682e-07
0.00109757
0
0
2.97337e-09
1.43085e-10
0.000347086
3.745e-05
0.00264492
0
0.701988
-2.91599e-06
1.06512e-05
0.00454862
0
0.0183497
-1.60746e-05
0.729133
0.588653
1.32131
-6.28227e-05
1.05415
0.667976
2.13331e-06
0.00168735
0
-4.23389e-09
-7.62643e-10
0
0.0137516
0.000366723
-4.58553e-06
0.00495209
0.370703
-1.82403e-05
-1.27731e-06
1.77598e-07
0.0100635
-2.38056e-06
0.278843
7.27042e-09
0.255978
-2.38963e-09
0
0
0.0562169
0.001378
0.221845
0.0348887
0.260752
1.39838
-2.67307e-10
0
1.38587
0.344192
0.0679461
0.672219
0
0.404416
1.3296
0.000193624
0.000694957
0
-2.65879e-08
0.294527
0.758712
0.00531957
1.18322e-07
0.237538
1.19146e-06
0
0.0708494
0.340895
-0.000299943
-1.41023e-05
0.0176929
0
3.98416e-10
0
0.00107436
1.0488e-10
0
0.163559
0.00013169
0.0548324
0.0131193
-4.38575e-10
0.466753
0.659618
5.80465e-06
8.2978e-07
0.0817751
4.81105e-06
0.162566
0.000396069
0.00572394
0.107805
0.441445
-7.07344e-06
0.397775
3.74147e-08
1.11403e-06
-5.07548e-10
0.204439
0.761388
-2.88469e-07
0.0155137
8.9506e-06
0
1.18941
-5.74407e-05
0.000508897
0
-1.31951e-05
0.270476
0.261172
0.430927
0
-0.00106992
0
0.0601148
1.1712e-08
0
2.95062e-09
1.97515e-10
0
0.0572022
0.00871175
0.0101972
0.0807626
0
0.000516155
0.001564
0
0.0728058
2.52543e-09
0.0923387
0.00122945
0.916544
0
0
0.000155864
0.889302
0.898782
-5.70964e-05
0.00198899
0
0.507583
-8.10155e-10
0.178438
2.00801e-09
0.00267187
-8.35447e-07
0.312372
0.0733033
1.55785e-09
0
0.00517485
1.00227e-10
0.0291895
0.848402
1.14404
0
0.682889
0
0.104956
1.11836
-0.000393717
0.0925105
0
0.177242
0
0.00438495
-9.28219e-05
0.00485711
0.402701
0.0239738
1.24529
0.00446572
6.44895e-09
0.217586
1.86413e-10
0.19311
1.19492e-09
0.250609
0.340955
0.919214
1.26064e-05
0.00643903
-5.53303e-06
0
0
0.00922162
5.56912e-09
0.101543
0.020145
0
0.0151896
0.1015
2.69968e-10
-2.86204e-07
6.13368e-09
0.221793
-8.59983e-09
0
0.00057872
0.731725
0.598175
-5.16841e-06
9.86068e-07
0.00043061
0.00226914
0
-1.41606e-08
1.83974e-06
0.520089
-0.00048637
0.000133747
0.000383722
0
0.0433294
5.76995e-08
0.94852
1.68118e-06
4.77926e-06
-3.7799e-05
0.0653357
-1.14559e-05
-1.70859e-06
0.00231177
0.0507197
6.80313e-05
0.000906858
-1.12821e-08
1.08701
0.0383415
0
-4.7778e-10
0.253925
0
1.95067e-10
0
0.422017
0.0260074
0.177458
0
0.0632575
0
0.000333422
0.000381277
0.612028
0.189713
3.38483e-05
0.475906
0.183071
0.00084616
0.266868
0.0504881
0
-4.50542e-07
0.0061836
0.118204
0
0.00350873
0
0
-0.00168439
0.153456
0
0
0.000187363
0.237873
0.429729
0.627079
0.0509282
4.94974e-09
1.26241
0.114837
-1.23529e-10
0.0163281
3.70013e-07
0.448173
0
0.167234
1.22588
-0.000414337
3.30765e-05
0.00138585
0
6.12612e-09
0.141341
0.0743323
0.000295667
-8.51449e-06
0.0234027
0.263597
-0.000320706
-1.937e-09
0.046987
-1.36582e-08
0.00949046
0.994284
0.0465928
0
0.77318
0.0478079
0.00087325
0.0561948
0
-1.39164e-07
6.72138e-07
0.000960513
0.414731
0.195171
1.21479
2.24669e-06
-9.81302e-08
0
0.00295882
0.532181
0
5.72065e-05
0.0511386
0.0077704
0.00552365
0
-2.28502e-09
0
0
0
0
2.13623e-06
0
0
0
0.105778
0.342822
0.640119
0.262346
0.465584
0
0.00212028
1.03471
0.602597
0.0405642
0
0.540309
0
0.084167
-9.69239e-07
0.672439
0.00528071
1.16892
0.463771
0
0.00254243
1.1842
-1.64257e-08
0.555998
0.266659
-2.78551e-09
0.000451688
0.00321946
5.79495e-05
-1.00467e-07
0.654446
-9.51455e-10
2.40368e-06
0.055666
0.021338
-5.97562e-07
0.0828498
0.018159
0.652343
-2.40685e-05
0.165256
0.353348
2.55037e-05
-7.56e-05
-0.000129634
0.0666126
0.00209195
0.0225465
0.318437
-1.53926e-07
1.30399
3.86765e-07
0.0140178
-6.3596e-06
0.415788
-4.69431e-07
0.00780678
1.80355e-07
0.359234
0.000662627
0
0.218173
-1.44587e-07
-2.25973e-07
0.00407957
6.83179e-08
0.218618
-1.97443e-08
0.939436
1.09363
0.00156554
-9.69342e-07
0.451567
0.136361
-1.02356e-07
0.00149441
0.0931726
0.419458
1.49445e-06
-0.000266523
2.46561e-08
0.00196091
0.000554222
4.70815e-09
0.115159
0.00166333
0.03157
0.17725
-1.69598e-07
0.244926
0.288183
1.48786e-10
1.85349e-06
-1.72822e-06
0.104303
0
0.00365001
0.482843
0.082826
0.0173779
7.21606e-10
1.4917
1.42164
0.157885
6.11276e-10
8.05204e-09
6.39319e-08
0.532523
0.168595
6.50138e-07
0.626344
-0.000104992
0.129874
0
0.00815695
0.572336
0.0668123
1.44383
-0.000117034
0.0941636
-4.57546e-09
2.90472e-08
1.80791e-06
0.660303
-0.000956358
9.24947e-07
-0.000125351
-1.7331e-10
0.160211
7.47595e-06
4.32182e-06
0.207874
0.00203698
0.553633
0.124009
1.48419
-1.61353e-10
0.000458668
0.129506
0.0166524
0.0748565
8.9947e-06
-8.51798e-05
0.00222867
0.979767
0.069847
0.0032257
0.0120306
4.74506e-10
0.0344852
0
0.0023231
0.480558
0.0518937
0.946129
0.0210785
0.0697724
1.10648e-08
0.235965
1.39964
1.38943e-10
0.00422936
0.00027053
0.000974206
0.00164614
-6.75609e-09
0.144484
0.220182
3.65669e-07
1.139
0.884995
0.00134398
0.391123
0.0796861
8.05151e-06
9.168e-06
0.133198
0.0103738
-2.9178e-08
0.0354879
0.199088
0.000274521
0.817211
-0.00209418
2.49217e-06
0.00273298
0.00350373
-1.30654e-09
0.0623891
-4.61248e-05
-1.30729e-08
0.0340361
0.0793931
1.28221
2.08394e-05
0.172043
0.217026
3.98615e-06
-0.000190359
0.130313
0.0310164
0.0710227
0.00384741
0.710452
0.00207477
0
5.85425e-06
-0.00012613
0.120543
0.366441
-1.08483e-06
-4.3518e-08
0.0754562
1.25325
0.096209
1.30324e-09
0.0149329
0.175778
-1.39503e-08
1.38447
-0.000327995
0.186134
0
2.95057e-05
0
0.2549
1.36227
-0.000230218
0.000108416
-1.60445e-06
-4.07527e-07
0.0122031
0.257734
0.0110736
0.0113824
-1.7664e-06
0.9399
0.510832
0.0404845
0.000783069
0.50804
4.41654e-07
-5.02982e-09
-2.56728e-09
4.56928e-08
0
1.24847
-3.43938e-07
0.229504
0.212785
2.08958e-05
0.108674
0.0264711
-2.59359e-07
3.48705e-08
-1.46493e-05
0
0.130339
1.29101
1.97789e-05