# vtk DataFile Version 2.0
Unstructured Grid by M++
ASCII
DATASET UNSTRUCTURED_GRID
POINTS 289 float
  0.562500   1.000000 0
  0.562500   0.937500 0
  0.625000   0.625000 0
  0.562500   0.875000 0
  0.625000   1.000000 0
  0.562500   0.625000 0
  0.625000   0.937500 0
  0.562500   0.562500 0
  0.562500   0.812500 0
  0.562500   0.750000 0
  0.562500   0.687500 0
  0.625000   0.687500 0
  0.625000   0.750000 0
  0.625000   0.875000 0
  0.625000   0.812500 0
  0.687500   0.125000 0
  0.875000   0.062500 0
  0.750000   0.437500 0
  0.687500   0.062500 0
  0.875000   0.000000 0
  0.937500   0.375000 0
  0.687500   0.000000 0
  0.937500   0.312500 0
  0.625000   0.125000 0
  0.625000   0.062500 0
  0.812500   0.000000 0
  0.875000   0.375000 0
  0.687500   0.375000 0
  0.625000   0.000000 0
  0.875000   0.312500 0
  0.937500   0.000000 0
  1.000000   0.187500 0
  0.750000   0.187500 0
  1.000000   0.687500 0
  0.312500   0.187500 0
  0.750000   0.687500 0
  0.750000   0.625000 0
  0.062500   0.187500 0
  0.812500   0.687500 0
  0.812500   0.750000 0
  0.125000   0.250000 0
  0.375000   0.250000 0
  0.500000   0.187500 0
  0.500000   0.125000 0
  0.687500   0.625000 0
  0.687500   0.562500 0
  0.000000   0.125000 0
  0.937500   0.625000 0
  0.250000   0.125000 0
  0.375000   0.437500 0
  0.812500   0.875000 0
  0.125000   0.375000 0
  0.125000   0.437500 0
  0.625000   0.437500 0
  0.750000   0.500000 0
  0.062500   0.000000 0
  0.062500   0.062500 0
  0.562500   0.062500 0
  0.437500   0.500000 0
  0.375000   0.125000 0
  0.875000   0.187500 0
  0.875000   0.125000 0
  0.500000   0.000000 0
  0.687500   0.437500 0
  0.000000   0.000000 0
  0.937500   0.437500 0
  0.250000   0.000000 0
  0.750000   0.062500 0
  0.750000   0.000000 0
  0.750000   0.750000 0
  0.062500   0.250000 0
  0.687500   0.687500 0
  0.000000   0.187500 0
  0.875000   0.875000 0
  0.187500   0.375000 0
  0.937500   0.937500 0
  0.250000   0.437500 0
  0.687500   0.937500 0
  0.687500   0.875000 0
  0.000000   0.437500 0
  0.875000   0.562500 0
  0.187500   0.062500 0
  0.750000   1.000000 0
  0.750000   0.937500 0
  0.062500   0.500000 0
  1.000000   1.000000 0
  0.312500   0.500000 0
  0.500000   0.812500 0
  0.437500   0.375000 0
  0.437500   0.437500 0
  0.375000   0.000000 0
  0.375000   0.062500 0
  0.437500   0.750000 0
  0.625000   0.375000 0
  0.562500   0.000000 0
  0.875000   0.937500 0
  0.187500   0.500000 0
  0.187500   0.437500 0
  0.812500   0.562500 0
  0.125000   0.125000 0
  0.125000   0.062500 0
  0.687500   1.000000 0
  0.000000   0.500000 0
  0.375000   0.375000 0
  0.375000   0.312500 0
  0.812500   0.812500 0
  0.125000   0.312500 0
  0.937500   0.750000 0
  0.250000   0.312500 0
  0.500000   0.312500 0
  0.687500   0.750000 0
  0.000000   0.250000 0
  0.000000   0.312500 0
  0.750000   0.375000 0
  0.750000   0.312500 0
  1.000000   0.812500 0
  0.312500   0.375000 0
  0.812500   0.437500 0
  0.812500   0.375000 0
  0.562500   0.375000 0
  0.437500   0.250000 0
  0.875000   0.687500 0
  0.187500   0.250000 0
  0.375000   1.000000 0
  0.500000   0.562500 0
  0.937500   1.000000 0
  0.250000   0.500000 0
  0.250000   0.562500 0
  0.937500   0.687500 0
  0.250000   0.187500 0
  0.250000   0.250000 0
  0.500000   0.250000 0
  0.750000   0.250000 0
  0.437500   0.187500 0
  0.687500   0.187500 0
  1.000000   0.000000 0
  0.750000   0.812500 0
  0.062500   0.375000 0
  0.062500   0.312500 0
  0.875000   0.625000 0
  0.187500   0.187500 0
  0.187500   0.125000 0
  0.437500   0.062500 0
  0.437500   0.125000 0
  0.937500   0.125000 0
  0.500000   0.437500 0
  0.500000   0.500000 0
  0.312500   0.062500 0
  1.000000   0.500000 0
  1.000000   0.750000 0
  0.312500   0.250000 0
  0.312500   0.312500 0
  0.812500   0.312500 0
  0.562500   0.312500 0
  0.375000   0.187500 0
  0.812500   0.625000 0
  0.125000   0.187500 0
  0.500000   0.062500 0
  0.937500   0.562500 0
  0.937500   0.500000 0
  0.250000   0.062500 0
  0.687500   0.500000 0
  0.000000   0.062500 0
  0.375000   0.500000 0
  0.812500   0.937500 0
  0.125000   0.500000 0
  0.625000   0.562500 0
  0.625000   0.500000 0
  1.000000   0.562500 0
  1.000000   0.625000 0
  0.312500   0.125000 0
  0.750000   0.562500 0
  0.062500   0.125000 0
  0.562500   0.125000 0
  0.687500   0.812500 0
  0.000000   0.375000 0
  0.500000   0.375000 0
  0.937500   0.812500 0
  0.937500   0.875000 0
  0.250000   0.375000 0
  0.875000   0.750000 0
  0.875000   0.812500 0
  0.187500   0.312500 0
  0.437500   0.312500 0
  1.000000   0.875000 0
  1.000000   0.937500 0
  0.312500   0.437500 0
  0.750000   0.875000 0
  0.062500   0.437500 0
  0.562500   0.500000 0
  0.562500   0.437500 0
  0.437500   0.000000 0
  0.500000   0.875000 0
  0.375000   0.687500 0
  0.375000   0.625000 0
  0.125000   0.625000 0
  0.000000   0.750000 0
  0.250000   0.750000 0
  0.187500   0.687500 0
  0.500000   0.750000 0
  0.500000   0.687500 0
  0.250000   0.687500 0
  0.000000   0.687500 0
  0.312500   0.750000 0
  0.062500   0.750000 0
  0.125000   0.812500 0
  0.375000   0.812500 0
  0.375000   0.750000 0
  0.125000   0.687500 0
  0.125000   0.750000 0
  0.437500   0.812500 0
  0.000000   0.812500 0
  0.250000   0.875000 0
  0.250000   0.812500 0
  0.187500   0.812500 0
  0.187500   0.750000 0
  0.937500   0.187500 0
  0.937500   0.250000 0
  0.500000   0.937500 0
  0.000000   0.875000 0
  0.000000   0.937500 0
  0.250000   0.937500 0
  0.437500   0.562500 0
  0.875000   1.000000 0
  0.187500   0.562500 0
  0.312500   1.000000 0
  0.062500   0.937500 0
  0.062500   1.000000 0
  0.250000   0.625000 0
  0.500000   0.625000 0
  0.000000   0.562500 0
  0.000000   0.625000 0
  0.312500   0.687500 0
  0.312500   0.937500 0
  0.312500   0.875000 0
  0.062500   0.875000 0
  0.062500   0.562500 0
  0.312500   0.625000 0
  0.312500   0.562500 0
  0.125000   0.937500 0
  0.062500   0.812500 0
  0.312500   0.812500 0
  0.062500   0.687500 0
  0.062500   0.625000 0
  0.125000   1.000000 0
  1.000000   0.250000 0
  1.000000   0.312500 0
  0.125000   0.875000 0
  0.375000   0.937500 0
  0.375000   0.875000 0
  0.500000   1.000000 0
  0.000000   1.000000 0
  0.250000   1.000000 0
  0.437500   0.687500 0
  0.437500   0.625000 0
  0.187500   0.625000 0
  0.187500   0.875000 0
  0.437500   0.875000 0
  0.812500   1.000000 0
  0.125000   0.562500 0
  0.375000   0.562500 0
  0.187500   0.937500 0
  0.437500   1.000000 0
  0.437500   0.937500 0
  0.187500   1.000000 0
  0.812500   0.250000 0
  0.562500   0.187500 0
  0.562500   0.250000 0
  0.625000   0.312500 0
  0.312500   0.000000 0
  1.000000   0.437500 0
  0.937500   0.062500 0
  0.125000   0.000000 0
  0.812500   0.500000 0
  0.750000   0.125000 0
  1.000000   0.125000 0
  0.875000   0.250000 0
  0.625000   0.187500 0
  0.625000   0.250000 0
  0.687500   0.250000 0
  0.687500   0.312500 0
  1.000000   0.062500 0
  0.875000   0.437500 0
  0.187500   0.000000 0
  0.875000   0.500000 0
  0.812500   0.062500 0
  0.812500   0.125000 0
  0.812500   0.187500 0
  1.000000   0.375000 0
CELLS 478 1912
3 162 55 56
3 42 131 120
3 51 52 188
3 140 156 141
3 122 140 129
3 108 150 151
3 147 90 91
3 89 145 58
3 116 151 104
3 91 142 59
3 111 70 112
3 55 272 56
3 111 37 70
3 145 146 58
3 116 104 103
3 142 143 59
3 112 70 138
3 56 272 100
3 97 76 96
3 129 34 130
3 52 74 97
3 140 48 129
3 176 145 89
3 137 138 106
3 100 81 99
3 151 41 104
3 91 191 142
3 182 74 51
3 141 160 48
3 106 122 182
3 81 66 160
3 175 137 79
3 48 170 129
3 74 179 97
3 46 56 172
3 160 269 147
3 62 57 157
3 76 116 186
3 59 154 34
3 186 86 126
3 154 41 150
3 52 165 84
3 40 140 122
3 104 183 103
3 72 172 37
3 170 91 59
3 179 151 116
3 172 56 100
3 112 138 175
3 66 269 160
3 182 108 74
3 160 147 48
3 122 129 130
3 131 109 183
3 109 176 88
3 59 143 154
3 116 103 186
3 79 188 102
3 70 37 156
3 70 40 138
3 272 283 100
3 154 133 41
3 186 49 86
3 133 42 120
3 191 62 142
3 41 120 104
3 143 43 133
3 103 88 49
3 172 100 99
3 175 138 137
3 269 90 147
3 130 150 108
3 64 55 162
3 156 99 141
3 137 51 188
3 154 143 133
3 103 49 186
3 170 147 91
3 108 151 179
3 170 59 34
3 179 116 76
3 120 131 183
3 62 157 142
3 104 120 183
3 162 56 46
3 46 172 72
3 40 156 140
3 188 52 84
3 79 137 188
3 133 120 41
3 49 163 86
3 40 122 106
3 283 66 81
3 48 147 170
3 108 179 74
3 129 170 34
3 179 76 97
3 183 109 88
3 76 186 126
3 34 154 150
3 70 156 40
3 188 84 102
3 72 37 111
3 106 182 51
3 141 81 160
3 137 106 51
3 99 81 141
3 51 74 52
3 140 141 48
3 34 150 130
3 76 126 96
3 88 176 89
3 100 283 81
3 138 40 106
3 183 88 103
3 90 191 91
3 150 41 151
3 49 88 89
3 43 42 133
3 263 218 250
3 254 229 200
3 263 257 218
3 257 210 192
3 249 257 263
3 194 254 253
3 254 260 222
3 84 165 259
3 241 249 234
3 102 84 236
3 236 259 195
3 205 209 214
3 256 214 212
3 241 203 206
3 240 204 205
3 232 228 237
3 231 243 242
3 222 124 229
3 224 127 228
3 239 264 244
3 248 262 123
3 210 92 87
3 214 215 213
3 208 215 209
3 207 193 92
3 231 242 202
3 233 234 248
3 226 235 239
3 127 126 238
3 102 236 230
3 211 235 219
3 213 234 212
3 247 205 256
3 249 206 257
3 253 254 200
3 247 256 261
3 198 255 201
3 230 236 243
3 233 248 123
3 226 239 244
3 58 146 124
3 96 126 127
3 222 58 124
3 209 215 214
3 242 208 209
3 207 232 193
3 230 243 231
3 224 96 127
3 219 226 220
3 212 233 221
3 163 58 222
3 165 96 224
3 248 263 262
3 239 261 264
3 126 86 238
3 234 249 248
3 194 260 254
3 195 259 255
3 263 250 262
3 261 252 264
3 247 261 239
3 249 263 248
3 92 253 199
3 198 197 215
3 235 247 239
3 195 198 208
3 193 194 253
3 203 201 232
3 202 242 204
3 255 228 201
3 255 259 224
3 197 201 203
3 202 204 196
3 261 221 252
3 236 84 259
3 238 86 260
3 196 204 240
3 195 255 198
3 236 195 243
3 237 238 194
3 211 240 235
3 92 193 253
3 208 198 215
3 243 195 208
3 193 237 194
3 212 234 233
3 219 235 226
3 210 87 192
3 214 213 212
3 193 232 237
3 242 243 208
3 226 244 227
3 233 123 225
3 242 209 204
3 254 222 229
3 257 206 210
3 256 205 214
3 255 224 228
3 221 225 252
3 204 209 205
3 203 207 206
3 259 165 224
3 260 163 222
3 253 200 199
3 198 201 197
3 92 199 87
3 215 197 213
3 257 192 218
3 201 228 232
3 196 240 211
3 197 241 213
3 197 203 241
3 213 241 234
3 221 233 225
3 220 226 227
3 203 232 207
3 220 227 251
3 86 163 260
3 238 260 194
3 241 206 249
3 65 270 148
3 216 31 245
3 65 20 270
3 20 22 288
3 282 65 159
3 61 144 216
3 144 16 271
3 18 21 67
3 57 24 23
3 53 161 167
3 67 68 285
3 93 268 27
3 62 94 57
3 173 23 277
3 268 278 280
3 145 189 146
3 24 28 18
3 63 27 17
3 152 26 118
3 153 93 119
3 20 288 270
3 27 113 17
3 265 32 287
3 42 266 267
3 144 275 31
3 15 274 32
3 113 117 17
3 176 190 145
3 27 280 113
3 144 271 275
3 20 29 22
3 27 268 280
3 15 18 274
3 217 216 245
3 53 63 161
3 134 132 279
3 132 152 114
3 131 153 109
3 117 118 282
3 190 119 53
3 216 144 31
3 26 20 65
3 134 15 32
3 93 27 63
3 153 268 93
3 61 16 144
3 152 29 26
3 42 267 131
3 117 282 284
3 190 53 167
3 286 67 285
3 157 57 173
3 30 135 281
3 21 68 67
3 271 30 281
3 276 217 22
3 278 279 280
3 276 287 60
3 271 281 275
3 18 67 274
3 28 21 18
3 19 30 271
3 119 93 53
3 60 61 216
3 23 134 277
3 114 118 113
3 109 119 176
3 22 217 246
3 280 279 114
3 277 279 278
3 276 60 217
3 134 32 132
3 23 15 134
3 57 23 173
3 286 285 61
3 109 153 119
3 217 60 216
3 277 134 279
3 113 118 117
3 176 119 190
3 22 246 288
3 280 114 113
3 153 267 268
3 266 173 277
3 157 173 43
3 274 67 286
3 190 167 189
3 117 284 273
3 63 54 161
3 57 94 24
3 132 265 152
3 131 267 153
3 285 25 16
3 93 63 53
3 26 65 282
3 217 245 246
3 279 132 114
3 94 28 24
3 25 19 16
3 43 266 42
3 32 274 287
3 63 17 54
3 132 32 265
3 17 273 54
3 267 278 268
3 265 276 29
3 16 19 271
3 68 25 285
3 118 26 282
3 43 173 266
3 287 274 286
3 114 152 118
3 145 190 189
3 17 117 273
3 265 287 276
3 152 265 29
3 285 16 61
3 29 276 22
3 26 29 20
3 149 115 177
3 75 185 125
3 128 33 107
3 47 169 128
3 65 148 159
3 128 107 180
3 159 148 158
3 161 54 45
3 75 125 223
3 77 101 4
3 95 178 75
3 6 78 77
3 174 78 13
3 181 107 177
3 14 110 174
3 121 180 39
3 6 77 4
3 5 7 166
3 6 4 0
3 229 7 5
3 73 95 164
3 13 6 1
3 171 273 98
3 124 189 7
3 50 181 73
3 3 14 13
3 105 180 181
3 8 12 14
3 10 2 11
3 11 2 44
3 87 8 192
3 12 71 110
3 218 3 1
3 38 121 39
3 178 184 75
3 78 187 77
3 192 3 218
3 177 115 178
3 174 136 78
3 12 110 14
3 180 107 181
3 14 174 13
3 146 189 124
3 3 13 1
3 1 0 250
3 158 168 47
3 44 45 171
3 218 1 250
3 83 164 82
3 39 180 105
3 9 12 8
3 13 78 6
3 200 5 10
3 71 44 36
3 35 38 69
3 200 10 199
3 3 8 14
3 38 39 69
3 199 10 9
3 169 33 128
3 71 36 35
3 282 159 284
3 158 47 139
3 2 45 44
3 185 85 125
3 83 82 101
3 7 167 166
3 98 284 80
3 136 39 105
3 87 9 8
3 33 149 107
3 110 35 69
3 80 158 139
3 166 45 2
3 77 83 101
3 189 167 7
3 273 284 98
3 69 39 136
3 199 9 87
3 110 71 35
3 121 47 128
3 71 11 44
3 5 166 2
3 155 80 139
3 187 105 50
3 192 8 3
3 69 136 174
3 155 139 38
3 5 2 10
3 124 7 229
3 171 98 36
3 1 6 0
3 164 95 258
3 107 149 177
3 110 69 174
3 12 11 71
3 121 128 180
3 148 168 158
3 45 54 171
3 168 169 47
3 44 171 36
3 164 258 82
3 115 184 178
3 136 187 78
3 184 185 75
3 187 83 77
3 54 273 171
3 50 73 164
3 229 5 200
3 36 155 35
3 136 105 187
3 36 98 155
3 95 223 258
3 35 155 38
3 155 98 80
3 95 75 223
3 50 105 181
3 139 121 38
3 139 47 121
3 73 178 95
CELL_TYPES 478
5
5
5
5
5
5
5
5
5
5
5
5
5
5
5
5
5
5
5
5
5
5
5
5
5
5
5
5
5
5
5
5
5
5
5
5
5
5
5
5
5
5
5
5
5
5
5
5
5
5
5
5
5
5
5
5
5
5
5
5
5
5
5
5
5
5
5
5
5
5
5
5
5
5
5
5
5
5
5
5
5
5
5
5
5
5
5
5
5
5
5
5
5
5
5
5
5
5
5
5
5
5
5
5
5
5
5
5
5
5
5
5
5
5
5
5
5
5
5
5
5
5
5
5
5
5
5
5
5
5
5
5
5
5
5
5
5
5
5
5
5
5
5
5
5
5
5
5
5
5
5
5
5
5
5
5
5
5
5
5
5
5
5
5
5
5
5
5
5
5
5
5
5
5
5
5
5
5
5
5
5
5
5
5
5
5
5
5
5
5
5
5
5
5
5
5
5
5
5
5
5
5
5
5
5
5
5
5
5
5
5
5
5
5
5
5
5
5
5
5
5
5
5
5
5
5
5
5
5
5
5
5
5
5
5
5
5
5
5
5
5
5
5
5
5
5
5
5
5
5
5
5
5
5
5
5
5
5
5
5
5
5
5
5
5
5
5
5
5
5
5
5
5
5
5
5
5
5
5
5
5
5
5
5
5
5
5
5
5
5
5
5
5
5
5
5
5
5
5
5
5
5
5
5
5
5
5
5
5
5
5
5
5
5
5
5
5
5
5
5
5
5
5
5
5
5
5
5
5
5
5
5
5
5
5
5
5
5
5
5
5
5
5
5
5
5
5
5
5
5
5
5
5
5
5
5
5
5
5
5
5
5
5
5
5
5
5
5
5
5
5
5
5
5
5
5
5
5
5
5
5
5
5
5
5
5
5
5
5
5
5
5
5
5
5
5
5
5
5
5
5
5
5
5
5
5
5
5
5
5
5
5
5
5
5
5
5
5
5
5
5
5
5
5
5
5
5
5
5
5
5
5
5
5
5
5
5
5
5
5
5
5
5
5
5
5
5
5
5
5
5
5
5
5
5
5
5
5
5
5
5
5
5
5
5
5
5
5
5
5
5
5
5
5
5
5
5
5
POINT_DATA 289
SCALARS scalar_value float 1
LOOKUP_TABLE default
0
0.0634624
-0.127132
0.0567056
0
-0.298801
0.0841154
-0.362076
0.00839244
-0.0101081
-0.154072
0.0625627
0.0128213
0.0468089
0.123547
-0.127589
-0.124831
0.114678
-0.101
-0.127567
-0.05889
0.0231561
-0.0346229
-0.0396404
-0.0709767
-0.251861
-0.00821769
0.0482166
0.159173
0.0321923
-0.00274838
0.00565635
0.0767583
-0.0113805
0.0522185
0.0147913
-0.00201225
0.0893445
0.00356415
-0.0358147
0.0285967
0.156146
0.0829339
0.168987
0.0581737
0.0346488
0.0297801
-0.0572558
-0.0478833
-0.0463284
-0.0143954
-0.000100153
0.0129658
-0.0985813
0.0667652
0.0540024
0.0816774
0.279115
-0.0978713
0.191469
-0.0202505
-0.0833933
0.287465
0.0872672
0.08587
-0.0505173
-0.0626342
-0.0275022
-0.0599316
-0.123116
0.0139415
0.0496664
-0.00961282
0.0270964
-0.00166442
0.0216291
0.0117246
0.0451074
-0.0052377
-0.0229621
0.0111577
0.027881
0
-0.0200637
0.00740125
0
-0.0482616
-0.00849631
0.0137166
-0.029175
0.0474112
0.143257
-0.00568272
-0.00399324
0.215077
0.0340789
0.012202
0.0168987
0.0218418
0.167558
0.152789
0
-0.0252236
0.0171363
0.0971394
-0.0253296
0.014613
0.0292762
0.0128958
-0.152748
0.0812159
-0.0155866
-0.0141072
0.0912872
0.0910899
0.0285916
-0.0570268
0.0827183
0.0202994
-0.304494
0.188131
0.000254272
-0.086961
0
-0.205454
0
0.00660109
0.0201702
-0.0172556
-0.0400109
-0.0244103
-0.0852354
-0.00450624
0.269691
0.0316391
0.0499303
-0.00858921
0.00863657
0.00481213
-0.0797539
-0.0284569
0.011612
0.153632
0.26059
-0.0336011
-0.21619
-0.232581
0.0514908
-0.039863
0.0130992
0.00229681
-0.0172796
0.0708266
-0.0814225
0.196824
-0.0270489
0.109963
0.241934
-0.0309357
-0.0913535
-0.0459749
0.0051253
0.0766273
-0.13198
-0.0223914
-0.0026911
-0.0584238
-0.155113
-0.0218556
0.0230256
0.0610163
0.0888109
0.121729
0.268755
0.0354933
-0.0440578
-0.222154
0.0067917
0.0351595
0.0223086
-0.0098986
0.0380571
-0.0572806
0.14479
-0.00813718
0.033547
-0.0531323
-0.106288
0.000873982
-0.389425
-0.401248
-0.0119111
0.0220754
-0.0469208
-0.0711775
0.0183275
-0.0200677
0.0524122
0.0506902
-0.0569174
-0.0427017
0.0646896
-0.0170139
0.0216417
-0.00426445
-0.00847309
-0.0159619
-0.0294481
0.0166984
5.64393e-05
-0.019887
-0.0109909
0.0244943
0.0479447
0.0221249
0.0458483
-0.0329065
-0.0373765
-0.00217382
-0.00729062
-0.0146076
-0.000527702
-0.094613
0
0.0246552
0
0.00160887
0
0.0392708
-0.168493
-0.0252013
-0.0285678
0.0147325
0.0115041
0.00761639
-0.00715525
0.00368734
0.0544323
0.0112111
-0.00959675
-0.000634402
0.0159794
-0.0030309
0.0060056
0
0.00643812
0.0201034
-0.0117486
-0.00317575
0.00447809
0
0
0
-0.0613122
-0.0974288
0.0407818
0.0131888
0.00014468
0
0.0198088
-0.0559742
0.0160562
0
0.0180321
0
-0.0345409
0.246585
0.226877
0.22246
0.0242419
0.0218149
-0.0212647
0.0892161
0.0674094
0.00528315
0.0169693
-0.00362239
0.364326
0.314272
0.0614742
0.0566821
0.0345803
0.0667435
0.046109
-0.10073
-0.168241
-0.0630959
-0.0724542
0.00232612
