# vtk DataFile Version 2.0
Unstructured Grid by M++
ASCII
DATASET UNSTRUCTURED_GRID
POINTS 1072 float
  0.718750   0.687500 0
  0.906250   0.906250 0
  0.562500   0.843750 0
  0.562500   0.812500 0
  0.812500   0.781250 0
  0.750000   1.000000 0
  0.750000   0.968750 0
  0.718750   0.656250 0
  0.687500   0.656250 0
  0.843750   0.781250 0
  0.968750   0.906250 0
  0.625000   0.656250 0
  0.937500   0.843750 0
  0.593750   0.593750 0
  0.531250   0.875000 0
  0.718750   0.968750 0
  0.718750   0.937500 0
  0.968750   0.875000 0
  0.625000   0.625000 0
  0.812500   0.718750 0
  0.562500   0.906250 0
  0.781250   1.000000 0
  0.968750   0.593750 0
  0.968750   0.562500 0
  0.937500   0.593750 0
  0.531250   0.843750 0
  0.531250   0.812500 0
  0.656250   0.625000 0
  0.656250   0.656250 0
  1.000000   0.906250 0
  0.843750   0.750000 0
  0.937500   0.906250 0
  0.812500   0.750000 0
  0.593750   0.875000 0
  0.593750   0.843750 0
  0.875000   0.781250 0
  0.531250   0.531250 0
  0.843750   0.812500 0
  0.812500   0.812500 0
  0.875000   0.843750 0
  0.843750   0.843750 0
  0.562500   0.875000 0
  0.562500   0.531250 0
  0.906250   0.718750 0
  0.625000   0.906250 0
  0.531250   0.562500 0
  0.875000   0.812500 0
  1.000000   0.625000 0
  0.593750   0.906250 0
  0.625000   0.593750 0
  0.656250   0.968750 0
  0.562500   0.562500 0
  0.906250   0.812500 0
  0.656250   0.718750 0
  1.000000   0.968750 0
  0.593750   0.937500 0
  0.687500   0.687500 0
  0.906250   0.875000 0
  0.593750   0.531250 0
  0.625000   0.937500 0
  0.937500   0.562500 0
  1.000000   0.937500 0
  0.656250   0.687500 0
  0.937500   0.531250 0
  0.968750   0.937500 0
  0.562500   0.593750 0
  0.687500   0.968750 0
  0.875000   0.875000 0
  0.625000   0.875000 0
  0.937500   0.875000 0
  0.593750   0.625000 0
  0.718750   0.531250 0
  1.000000   0.687500 0
  0.968750   0.625000 0
  0.656250   0.593750 0
  0.687500   1.000000 0
  0.687500   0.937500 0
  0.687500   0.625000 0
  0.937500   0.625000 0
  0.593750   0.562500 0
  0.968750   0.656250 0
  0.750000   0.687500 0
  0.656250   0.906250 0
  0.656250   0.937500 0
  0.625000   0.562500 0
  0.781250   0.687500 0
  0.750000   0.718750 0
  0.781250   0.718750 0
  0.750000   0.750000 0
  0.531250   0.781250 0
  0.781250   0.750000 0
  1.000000   0.656250 0
  0.906250   0.500000 0
  0.906250   0.593750 0
  0.718750   1.000000 0
  0.843750   0.531250 0
  0.875000   0.531250 0
  0.875000   0.562500 0
  0.781250   0.781250 0
  0.718750   0.718750 0
  0.906250   0.562500 0
  0.781250   0.843750 0
  1.000000   0.593750 0
  0.125000   0.875000 0
  0.750000   0.625000 0
  0.250000   0.375000 0
  0.687500   0.875000 0
  0.187500   0.625000 0
  0.312500   0.781250 0
  0.500000   0.031250 0
  0.375000   0.531250 0
  0.437500   0.281250 0
  0.062500   0.781250 0
  0.687500   0.531250 0
  0.187500   0.281250 0
  0.625000   0.781250 0
  0.125000   0.531250 0
  0.718750   0.906250 0
  0.218750   0.656250 0
  0.156250   0.906250 0
  0.781250   0.656250 0
  0.281250   0.406250 0
  0.156250   0.875000 0
  0.718750   0.875000 0
  0.218750   0.625000 0
  0.781250   0.625000 0
  0.281250   0.375000 0
  0.406250   0.875000 0
  0.468750   0.625000 0
  0.593750   0.125000 0
  0.562500   0.937500 0
  0.062500   0.687500 0
  0.625000   0.687500 0
  0.125000   0.437500 0
  0.000000   0.937500 0
  0.062500   0.625000 0
  0.125000   0.375000 0
  0.187500   0.125000 0
  0.000000   0.875000 0
  0.093750   0.781250 0
  0.656250   0.781250 0
  0.156250   0.531250 0
  0.437500   0.968750 0
  0.625000   0.218750 0
  0.187500   0.843750 0
  0.437500   0.843750 0
  0.625000   0.093750 0
  0.093750   0.593750 0
  0.218750   0.093750 0
  0.156250   0.343750 0
  0.031250   0.843750 0
  0.812500   0.937500 0
  0.312500   0.687500 0
  0.875000   0.687500 0
  0.375000   0.437500 0
  0.250000   0.937500 0
  0.281250   0.531250 0
  0.406250   0.031250 0
  0.343750   0.281250 0
  0.218750   0.781250 0
  0.031250   0.531250 0
  0.093750   0.281250 0
  0.156250   0.031250 0
  0.375000   0.781250 0
  0.937500   0.781250 0
  0.437500   0.531250 0
  0.562500   0.031250 0
  0.187500   0.875000 0
  0.750000   0.875000 0
  0.250000   0.625000 0
  0.812500   0.625000 0
  0.312500   0.375000 0
  0.437500   0.875000 0
  0.625000   0.125000 0
  0.093750   0.625000 0
  0.218750   0.125000 0
  0.156250   0.375000 0
  0.031250   0.875000 0
  0.000000   0.906250 0
  0.125000   0.406250 0
  0.187500   0.156250 0
  0.062500   0.656250 0
  0.000000   0.968750 0
  0.625000   0.718750 0
  0.125000   0.468750 0
  0.562500   0.968750 0
  0.062500   0.718750 0
  0.687500   0.812500 0
  0.187500   0.562500 0
  0.125000   0.812500 0
  0.750000   0.562500 0
  0.250000   0.312500 0
  0.406250   1.000000 0
  0.968750   1.000000 0
  0.468750   0.750000 0
  0.656250   0.000000 0
  0.593750   0.250000 0
  0.531250   0.500000 0
  0.562500   1.000000 0
  0.062500   0.750000 0
  0.000000   1.000000 0
  0.625000   0.750000 0
  0.125000   0.500000 0
  0.406250   0.937500 0
  0.468750   0.687500 0
  0.593750   0.187500 0
  0.187500   0.906250 0
  0.750000   0.906250 0
  0.250000   0.656250 0
  0.812500   0.656250 0
  0.312500   0.406250 0
  0.750000   0.937500 0
  0.250000   0.687500 0
  0.812500   0.687500 0
  0.312500   0.437500 0
  0.187500   0.937500 0
  0.468750   1.000000 0
  0.718750   0.000000 0
  0.812500   1.000000 0
  0.312500   0.750000 0
  0.250000   1.000000 0
  0.875000   0.750000 0
  0.375000   0.500000 0
  0.093750   0.812500 0
  0.718750   0.562500 0
  0.218750   0.312500 0
  0.656250   0.812500 0
  0.156250   0.562500 0
  0.687500   0.125000 0
  0.656250   0.875000 0
  0.156250   0.625000 0
  0.093750   0.875000 0
  0.718750   0.625000 0
  0.218750   0.375000 0
  0.125000   1.000000 0
  0.250000   0.500000 0
  0.312500   0.250000 0
  0.375000   0.000000 0
  0.187500   0.750000 0
  0.250000   0.906250 0
  0.156250   0.968750 0
  0.218750   0.718750 0
  0.343750   0.218750 0
  0.281250   0.468750 0
  0.625000   0.843750 0
  0.125000   0.593750 0
  0.062500   0.843750 0
  0.687500   0.593750 0
  0.187500   0.343750 0
  0.468750   0.843750 0
  0.312500   0.812500 0
  0.437500   0.312500 0
  0.500000   0.062500 0
  0.375000   0.562500 0
  0.062500   0.812500 0
  0.687500   0.562500 0
  0.187500   0.312500 0
  0.625000   0.812500 0
  0.125000   0.562500 0
  0.125000   0.625000 0
  0.250000   0.125000 0
  0.187500   0.375000 0
  0.062500   0.875000 0
  0.468750   0.875000 0
  0.656250   0.125000 0
  0.062500   0.937500 0
  0.250000   0.187500 0
  0.187500   0.437500 0
  0.125000   0.687500 0
  0.062500   1.000000 0
  0.687500   0.750000 0
  0.187500   0.500000 0
  0.625000   1.000000 0
  0.125000   0.750000 0
  0.218750   0.875000 0
  0.781250   0.875000 0
  0.281250   0.625000 0
  0.843750   0.625000 0
  0.343750   0.375000 0
  0.281250   0.656250 0
  0.843750   0.656250 0
  0.343750   0.406250 0
  0.718750   0.843750 0
  0.218750   0.593750 0
  0.781250   0.593750 0
  0.281250   0.343750 0
  0.156250   0.843750 0
  0.093750   0.968750 0
  0.218750   0.468750 0
  0.281250   0.218750 0
  0.156250   0.718750 0
  0.031250   0.906250 0
  0.156250   0.406250 0
  0.218750   0.156250 0
  0.093750   0.656250 0
  0.031250   0.968750 0
  0.593750   0.968750 0
  0.093750   0.718750 0
  0.718750   0.812500 0
  0.218750   0.562500 0
  0.781250   0.562500 0
  0.281250   0.312500 0
  0.156250   0.812500 0
  0.125000   0.968750 0
  0.250000   0.468750 0
  0.312500   0.218750 0
  0.187500   0.718750 0
  0.062500   0.906250 0
  0.250000   0.156250 0
  0.187500   0.406250 0
  0.125000   0.656250 0
  0.062500   0.968750 0
  0.687500   0.718750 0
  0.187500   0.468750 0
  0.625000   0.968750 0
  0.125000   0.718750 0
  0.500000   0.781250 0
  0.625000   0.281250 0
  0.687500   0.031250 0
  0.156250   0.937500 0
  0.281250   0.437500 0
  0.218750   0.687500 0
  0.187500   0.968750 0
  0.250000   0.718750 0
  0.375000   0.218750 0
  0.312500   0.468750 0
  0.312500   0.531250 0
  0.375000   0.281250 0
  0.437500   0.031250 0
  0.250000   0.781250 0
  0.812500   0.843750 0
  0.312500   0.593750 0
  0.875000   0.593750 0
  0.375000   0.343750 0
  0.250000   0.843750 0
  0.656250   0.843750 0
  0.156250   0.593750 0
  0.718750   0.593750 0
  0.218750   0.343750 0
  0.500000   0.843750 0
  0.687500   0.093750 0
  0.625000   0.343750 0
  0.218750   0.968750 0
  0.781250   0.968750 0
  0.281250   0.718750 0
  0.843750   0.718750 0
  0.343750   0.468750 0
  0.218750   1.000000 0
  0.281250   0.750000 0
  0.468750   0.000000 0
  0.343750   0.500000 0
  0.406250   0.250000 0
  0.125000   0.906250 0
  0.750000   0.656250 0
  0.250000   0.406250 0
  0.687500   0.906250 0
  0.187500   0.656250 0
  0.250000   0.750000 0
  0.312500   0.500000 0
  0.437500   0.000000 0
  0.375000   0.250000 0
  0.187500   1.000000 0
  0.156250   0.656250 0
  0.281250   0.156250 0
  0.218750   0.406250 0
  0.093750   0.906250 0
  0.687500   0.156250 0
  0.812500   0.968750 0
  0.312500   0.718750 0
  0.250000   0.968750 0
  0.875000   0.718750 0
  0.375000   0.468750 0
  0.781250   0.937500 0
  0.281250   0.687500 0
  0.218750   0.937500 0
  0.843750   0.687500 0
  0.343750   0.437500 0
  0.687500   0.843750 0
  0.187500   0.593750 0
  0.750000   0.593750 0
  0.250000   0.343750 0
  0.125000   0.843750 0
  0.562500   0.750000 0
  0.062500   0.500000 0
  0.343750   1.000000 0
  0.968750   0.750000 0
  0.468750   0.500000 0
  0.906250   1.000000 0
  0.406250   0.750000 0
  0.593750   0.000000 0
  0.531250   0.250000 0
  0.031250   0.781250 0
  0.156250   0.281250 0
  0.593750   0.781250 0
  0.093750   0.531250 0
  0.031250   0.812500 0
  0.656250   0.562500 0
  0.156250   0.312500 0
  0.593750   0.812500 0
  0.093750   0.562500 0
  0.312500   0.968750 0
  0.937500   0.718750 0
  0.437500   0.468750 0
  0.875000   0.968750 0
  0.375000   0.718750 0
  0.312500   1.000000 0
  0.875000   1.000000 0
  0.375000   0.750000 0
  0.937500   0.750000 0
  0.437500   0.500000 0
  0.562500   0.000000 0
  0.281250   0.968750 0
[...]
CELL_DATA 1912
SCALARS scalar_value float 1
LOOKUP_TABLE default
-0.214112
-0.458464
-0.205464
-0.448068
-0.185267
-0.434637
-0.215641
-0.45586
-0.329001
-0.0451792
-0.305086
-0.0219966
-0.294274
-0.0105637
-0.292438
-0.011301
-0.404725
-0.394936
-0.405737
-0.374877
-0.346998
-0.0534356
-0.335907
-0.0422482
-0.312612
-0.0212857
-0.347751
-0.0515671
-0.458114
-0.439974
-0.432458
-0.427914
-0.560515
-0.259348
-0.542565
-0.252399
-0.553791
-0.2658
-0.516404
-0.230519
-0.180626
-0.459109
-0.157247
-0.440161
-0.14621
-0.431446
-0.145314
-0.431919
-0.120088
-0.412769
-0.107385
-0.402564
-0.0859971
-0.380664
-0.114498
-0.41416
-0.110333
-0.402363
-0.0882704
-0.381894
-0.0780801
-0.374647
-0.0765391
-0.370288
-0.268872
-0.245286
-0.236519
-0.0114111
-0.370597
-0.0680529
-0.300525
-0.365716
-0.382005
-0.0776819
-0.370774
-0.0695408
-0.363703
-0.404748
-0.0972557
-0.401664
-0.118312
-0.377948
-0.0941422
-0.44457
-0.167784
-0.414765
-0.129123
-0.346852
-0.0579292
-0.208918
-0.113832
-0.191215
-0.158359
-0.250955
-0.205291
-0.120506
-0.373706
-0.0816414
-0.47891
-0.27185
-0.549627
-0.0112576
-0.237399
-0.514125
-0.202908
-0.478605
-0.131359
-0.411463
-0.199484
-0.480172
-0.543838
-0.0412119
-0.105432
-0.394707
-0.445664
-0.159649
-0.438587
-0.439218
-0.269236
-0.550077
-0.27237
-0.561924
-0.201727
-0.48239
-0.450729
-0.0559482
-0.350121
-0.566394
-0.261604
-0.0444611
-0.33433
-0.112036
-0.404463
-0.517965
-0.229043
-0.0548783
-0.347027
-0.556406
-0.122394
-0.412492
-0.123914
-0.415087
-0.0898084
-0.387711
-0.149642
-0.437471
-0.217902
-0.503715
-0.0500359
-0.340603
-0.0522472
-0.0418645
-0.0207793
-0.0419483
-0.329061
-0.0194019
-0.0561117
-0.340824
-0.474465
-0.280716
-0.561156
-0.380153
-0.211021
-0.122423
-0.396135
-0.10885
-0.303907
-0.0223083
-0.0100933
-0.303275
-0.231868
-0.496371
-0.232051
-0.21394
-0.0229255
-0.049204
-0.0204285
-0.26918
-0.281203
-0.243339
-0.0401548
-0.337042
-0.264916
-0.540883
-0.267384
-0.306391
-0.019711
-0.0457773
-0.191345
-0.462215
-0.0412259
-0.0347675
-0.329835
-0.303881
-0.00998009
-0.234953
-0.0742704
-0.369717
-0.0104943
-0.302488
-0.0776493
-0.363145
-0.0742249
-0.454014
-0.179797
-0.246776
-0.315231
-0.194822
-0.47523
-0.0451931
-0.0574875
-0.0510021
-0.443709
-0.157235
-0.3362
-0.400389
-0.147657
-0.435021
-0.0792769
-0.386744
-0.0940342
-0.375304
-0.17235
-0.441409
-0.0824061
-0.38105
-0.279196
-0.0547108
-0.362848
-0.0725737
-0.0200593
-0.314646
-0.222213
-0.181273
-0.462556
-0.113501
-0.408757
-0.134443
-0.408554
-0.206925
-0.475495
-0.331298
-0.0298617
-0.467182
-0.183452
-0.517026
-0.254674
-0.549202
-0.270876
-0.0397478
-0.337089
-0.282692
-0.0917404
-0.373919
-0.0848821
-0.161525
-0.406073
-0.139763
-0.468355
-0.21183
-0.190159
-0.467836
-0.259449
-0.537751
-0.312387
-0.157969
-0.441374
-0.0228785
-0.303871
-0.0201086
-0.315085
-0.345125
-0.191043
-0.463531
-0.0496783
-0.348271
-0.0461633
-0.329971
-0.0577773
-0.342352
-0.0498704
-0.348189
-0.0567976
-0.498542
-0.213733
-0.500524
-0.0226602
-0.303096
-0.368494
-0.503177
-0.515737
-0.546872
-0.244923
-0.547059
-0.0811981
-0.364555
-0.0708636
-0.370166
-0.0101602
-0.304212
-0.516536
-0.226039
-0.444523
-0.465828
-0.472613
-0.120138
-0.398478
-0.10056
-0.40354
-0.0910915
-0.396156
-0.387974
-0.0803268
-0.245974
-0.221656
-0.236315
-0.246248
-0.34807
-0.412081
-0.408737
-0.158646
-0.431581
-0.165781
-0.428235
-0.14762
-0.194139
-0.465151
-0.247916
-0.510037
-0.547329
-0.273609
-0.0407492
-0.336837
-0.510613
-0.248621
-0.522798
-0.258389
-0.020627
-0.314804
-0.00904884
-0.296132
-0.0103219
-0.228257
-0.500659
-0.240661
-0.513013
-0.298218
-0.00787823
-0.262192
-0.538523
-0.235852
-0.246367
-0.433283
-0.190592
-0.308017
-0.0168224
-0.45249
-0.20468
-0.180127
-0.424897
-0.143472
-0.182186
-0.424031
-0.377223
-0.333433
-0.397236
-0.100388
-0.416065
-0.486296
-0.0781603
-0.381655
-0.091746
-0.404366
-0.101599
-0.415391
-0.011516
-0.285261
-0.0115232
-0.289958
-0.0230542
-0.302214
-0.0461736
-0.332965
-0.0104331
-0.140148
-0.437087
-0.144022
-0.434655
-0.156741
-0.447471
-0.188111
-0.471591
-0.18062
-0.437081
-0.243938
-0.510382
-0.199272
-0.460456
-0.190508
-0.374953
-0.0812207
-0.0817355
-0.367636
-0.0933741
-0.382739
-0.164575
-0.446771
-0.116633
-0.406002
-0.151977
-0.436766
-0.221514
-0.503685
-0.154761
-0.434472
-0.186888
-0.469165
-0.256463
-0.539273
-0.310027
-0.0169222
-0.34283
-0.0394895
-0.34129
-0.0379131
-0.231475
-0.508357
-0.220686
-0.503786
-0.238442
-0.521066
-0.264242
-0.547928
-0.449697
-0.298043
-0.0108113
-0.473676
-0.485186
-0.279756
-0.560242
-0.558388
-0.276879
-0.274355
-0.552382
-0.0110626
-0.290749
-0.0435104
-0.334632
-0.308891
-0.0218588
-0.0922895
-0.390985
-0.1272
-0.417956
-0.115026
-0.409841
-0.183919
-0.468308
-0.125465
-0.418626
-0.475746
-0.193239
-0.161926
-0.447549
-0.196295
-0.480022
-0.224845
-0.502506
-0.515215
-0.234159
-0.522326
-0.250301
-0.27185
-0.547457
-0.283832
-0.559651
-0.689624
-0.970939
-0.664411
-0.945334
-0.653086
-0.935271
-0.647255
-0.930292
-0.619516
-0.899331
-0.59439
-0.874973
-0.587005
-0.863476
-0.577597
-0.862642
-0.779951
-0.771002
-0.752274
-0.779205
-1.04379
-1.02299
-1.01175
-1.01372
-0.906071
-0.878275
-0.865658
-0.859729
-0.884736
-0.619718
-1.01665
-0.746303
-0.968142
-0.693671
-0.688021
-1.0864
-1.09249
-0.794139
-1.11892
-0.818367
-0.699094
-0.636332
-0.920174
-1.12315
-0.819258
-1.10802
-0.933746
-1.09837
-0.800743
-0.595799
-1.10127
-0.798156
-1.0248
-1.08744
-0.665403
-1.0849
-0.788611
-0.583969
-0.919625
-1.09125
-0.788119
-1.07658
-0.629743
-0.754487
-0.621304
-0.888559
-0.608721
-1.02021
-0.73824
-0.865668
-0.590465
-1.04683
-0.753225
-0.594915
-0.855967
-0.576488
-0.98123
-0.702744
-0.581386
-0.797924
-0.954952
-0.688639
-1.04697
-0.73749
-1.10515
-0.802002
-0.665944
-0.59661
-0.655018
-0.704203
-0.65416
-1.05479
-0.990797
-0.702942
-0.772625
-0.806956
-1.11011
-0.896369
-0.611462
-0.707346
-0.972509
-0.586274
-0.852815
-0.786966
-1.10708
-0.631754
-0.748959
-0.903016
-0.605184
-0.619546
-0.670353
-0.957254
-0.631036
-0.770025
-1.0741
-0.765165
-0.925183
-0.735659
-1.04214
-0.734219
-1.02233
-0.597149
-0.890619
-0.767989
-1.07195
-0.922115
-0.754261
-0.819737
-0.732293
-0.765242
-0.764066
-1.05756
-0.978556
-0.691127
-0.982412
-0.906229
-1.02743
-0.744587
-0.625543
-0.902242
-0.96384
-1.07273
-0.930017
-0.656604
-0.651502
-0.962589
-0.988022
-0.705744
-0.585083
-1.08145
-0.784023
-0.880374
-0.639216
-1.02413
-0.732196
-0.89324
-0.601809
-0.604722
-0.875776
-0.874156
-1.07554
-1.09347
-0.789926
-0.949335
-0.65592
-0.853227
-0.587838
-0.892812
-0.633595
-1.07972
-0.78435
-0.699484
-0.665551
-0.966555
-0.732551
-0.731202
-1.02566
-0.981682
-0.688163
-0.957124
-0.666965
-0.875057
-0.611236
-1.04672
-0.753258
-0.861517
-0.601676
-1.04509
-0.620658
-0.670701
-1.06654
-0.765609
-0.925841
-0.658622
-0.949681
-0.977646
-0.709681
-0.638993
-0.883127
-1.05602
-0.994112
-1.06844
-0.766497
-0.730042
-1.01807
-0.77562
-1.06629
-0.655312
-0.921103
-0.719898
-1.01569
-0.721767
-1.05704
-0.764541
-0.996825
-0.696784
-0.933359
-0.82642
-1.10913
-1.12195
-0.818198
-0.730287
-1.02606
-1.03036
-0.733184
-0.663424
-0.972551
-1.01556
-0.718651
-0.961208
-0.949391
-0.721335
-0.720952
-1.0138
-1.11783
-0.958433
-0.756417
-0.693014
-1.08948
-0.787064
-0.608096
-0.90097
-0.788673
-1.07766
-0.767307
-1.05927
-0.696018
-0.959831
-0.752847
-1.04628
-0.582853
-0.868448
-0.940579
-0.655881
-0.610408
-0.858215
-0.758117
-1.04696
-0.602355
-0.746244
-0.922874
-0.649081
-1.00764
-0.7369
-1.06097
-0.770058
-0.63354
-0.99489
-0.698266
-0.769454
-1.13327
-0.82942
-0.865174
-0.598699
-0.945395
-0.66713
-0.763618
-1.04856
-0.602972
-0.862519
-0.826189
-1.12546
-0.755095
-1.05542
-0.62399
-0.899056
-0.786892
-1.07865
-0.786826
-0.594624
-0.850415
-0.963578
-0.65389
-0.986531
-0.685117
-0.821423
-1.11041
-0.818791
-0.626789
-0.882221
-0.666244
-0.93626
-0.826509
-1.12925
-0.804478
-1.1067
-0.689745
-0.97544
-0.740098
-1.03597
-0.797647
-0.83861
-1.14208
-0.775876
-1.07405
-0.723802
-1.02499
-1.13234
-0.828609
-0.836318
-1.13885
-0.722603
-1.01818
-0.829925
-1.12141
-0.82992
-0.732189
-1.00227
-0.617276
-1.09368
-0.794866
-0.923314
-0.897423
-0.636081
-0.994114
-0.701577
-0.587768
-0.862465
-0.601877
-0.858193
-0.601162
-0.90625
-0.625708
-0.847611
-0.606609
-0.659979
-0.849189
-0.602725
-0.658999
-0.857445
-0.613844
-1.04655
-0.754491
-0.800274
-1.08853
-1.10017
-0.797509
-0.794828
-1.0962
-0.838851
-1.13851
-0.797473
-1.10194
-0.832667
-1.13144
-0.828678
-1.13329
-0.858471
-0.571108
-0.986241
-0.700735
-0.860762
-0.572214
-0.990636
-0.699534
-0.87081
-0.581217
-0.722498
-1.01109
-1.11883
-1.13318
-0.82882
-0.950709
-0.666501
-0.976096
-0.689033
-0.692339
-0.979096
-0.829956
-1.13655
-0.763077
-1.05931
-0.805969
-1.10779
-1.08966
-0.796658
-0.9645
-0.690855
-1.11999
-0.8379
-1.00784
-0.72555
-1.06312
-0.757865
-1.11712
-0.808839
-1.0587
-0.765745
-1.05788
-0.763825
-1.12003
-0.808864
-1.06271
-0.760058
-1.14549
-0.840339
-1.0383
-0.725266
-0.944532
-1.14509
-0.840763
-1.09478
-0.792216
-0.830978
-0.798022
-1.10868
-0.816549
-1.12341
-0.799089
-1.11323
-0.818675
-1.12653
-0.902543
-0.633424
-0.989935
-0.700345
-0.888912
-0.622992
-1.11208
-0.813095
-0.935961
-0.669078
-0.906413
-0.618777
-0.873135
-0.586391
-0.910207
-0.628056
-1.03492
-0.727086
-0.939285
-0.660657
-0.66879
-0.944462
-0.734229
-1.03388
-1.09115
-0.79319
-1.12673
-0.824048
-0.75622
-1.05891
-0.799777
-1.10327
-0.833729
-1.13661
-0.821507
-1.12488
-0.830964
-1.13475
-0.808326
-1.11467
-0.986658
-0.686766
-0.627609
-0.876946
-0.872313
-0.630047
-0.914194
-0.633888
-0.539452
-0.516179
-0.504119
-0.504551
-0.102007
-0.403394
-0.0820369
-0.382266
-0.0733704
-0.371447
-0.0722166
-0.371955
-0.189473
-0.17041
-0.156921
-0.164641
-0.349176
-0.0558564
-0.339369
-0.043802
-0.318874
-0.0217221
-0.349986
-0.054026
-0.288772
-0.549597
-0.280087
-0.537683
-0.289137
-0.549673
-0.260793
-0.513929
-0.271788
-0.246934
-0.286413
-0.547254
-0.233743
-0.40941
-0.0764669
-0.507359
-0.441643
-0.121319
-0.407625
-0.169314
-0.447223
-0.0432246
-0.340165
-0.179761
-0.388192
-0.378322
-0.430922
-0.366444
-0.249997
-0.480051
-0.410187
-0.129594
-0.411128
-0.128509
-0.215431
-0.479211
-0.287435
-0.543077
-0.211749
-0.250188
-0.508654
-0.207236
-0.480906
-0.41748
-0.496462
-0.502173
-0.233817
-0.540381
-0.284805
-0.498613
-0.23781
-0.463337
-0.469743
-0.201559
-0.398602
-0.265686
-0.2425
-0.277885
-0.479689
-0.0796748
-0.300156
-0.0934193
-0.385708
-0.274991
-0.0373154
-0.346049
-0.400208
-0.116722
-0.16557
-0.446549
-0.092878
-0.382086
-0.447229
-0.446901
-0.175587
-0.398828
-0.406331
-0.12199
-0.333627
-0.441635
-0.16683
-0.501123
-0.241047
-0.284532
-0.527497
-0.162475
-0.437801
-0.213313
-0.47678
-0.341239
-0.0444144
-0.445614
-0.162377
-0.273266
-0.519282
-0.285418
-0.529396
-0.15481
-0.436336
-0.215271
-0.477292
-0.46288
-0.470314
-0.189859
-0.504878
-0.249511
-0.0217982
-0.3184
-0.505769
-0.1189
-0.40419
-0.182155
-0.447433
-0.377475
-0.140212
-0.417233
-0.079215
-0.372621
-0.432967
-0.152285
-0.46441
-0.192768
-0.288365
-0.436316
-0.122695
-0.406828
-0.20282
-0.466993
-0.380635
-0.0899074
-0.444064
-0.165372
-0.495026
-0.0547531
-0.35125
-0.283466
-0.151013
-0.43659
-0.50184
-0.0107683
-0.360489
-0.0375073
-0.499537
-0.239002
-0.520838
-0.264647
-0.38437
-0.0920641
-0.0212128
-0.0928527
-0.358012
-0.0496246
-0.495476
-0.232367
-0.308046
-0.0103825
-0.378096
-0.431057
-0.154392
-0.409643
-0.416153
-0.135308
-0.481478
-0.191405
-0.53159
-0.401337
-0.114627
-0.346862
-0.0415223
-0.434422
-0.147788
-0.417794
-0.430928
-0.366043
-0.229696
-0.491776
-0.0553292
-0.354739
-0.228817
-0.276506
-0.110149
-0.402473
-0.441499
-0.407564
-0.125721
-0.412322
-0.138687
-0.010771
-0.307103
-0.010327
-0.501865
-0.253862
-0.344196
-0.201446
-0.468869
-0.043637
-0.534077
-0.272716
-0.319762
-0.0221101
-0.462252
-0.191775
-0.180035
-0.448723
-0.246653
-0.514191
-0.181281
-0.469596
-0.469016
-0.436663
-0.161059
-0.496624
-0.237474
-0.310789
-0.467085
-0.200243
-0.513768
-0.2647
-0.405869
-0.120002
-0.552311
-0.245248
-0.0974468
-0.40406
-0.350824
-0.0294741
-0.333027
-0.44696
-0.172143
-0.370745
-0.0766199
-0.199414
-0.468043
-0.274065
-0.532153
-0.442531
-0.166463
-0.379465
-0.0922213
-0.33978
-0.0421485
-0.554278
-0.381586
-0.0859068
-0.473076
-0.212957
-0.477945
-0.178546
-0.438224
-0.228766
-0.4925
-0.0560804
-0.35254
-0.118485
-0.413464
-0.0110327
-0.307977
-0.387261
-0.1568
-0.436605
-0.0194843
-0.329364
-0.198501
-0.369701
-0.0792924
-0.516729
-0.53628
-0.277053
-0.317798
-0.0211528
-0.47404
-0.49963
-0.238854
-0.547575
-0.285061
-0.437077
-0.167362
-0.376731
-0.0772661
-0.135062
-0.416407
-0.0756817
-0.37577
-0.00904815
-0.315811
-0.54123
-0.431701
-0.153867
-0.387289
-0.091528
-0.526361
-0.268246
-0.341004
-0.0427338
-0.24505
-0.413968
-0.131769
-0.35029
-0.0548901
-0.404577
-0.107945
-0.50768
-0.246011
-0.373437
-0.0790793
-0.47822
-0.212231
-0.372534
-0.0755709
-0.475794
-0.207251
-0.11919
-0.448289
-0.189177
-0.510422
-0.249775
-0.304719
-0.0114889
-0.368443
-0.0808652
-0.301993
-0.0115555
-0.367277
-0.0815086
-0.313735
-0.0230614
-0.334872
-0.0462972
-0.399344
-0.117507
-0.347766
-0.0571877
-0.316227
-0.0228138
-0.336581
-0.0459349
-0.346191
-0.0578625
-0.308199
-0.0107016
-0.0104265
-0.315969
-0.108447
-0.414931
-0.0110336
-0.310343
-0.105573
-0.414343
-0.0215888
-0.32274
-0.19202
-0.462552
-0.0443091
-0.343374
-0.446716
-0.537063
-0.278264
-0.376998
-0.502602
-0.257115
-0.344926
-0.354246
-0.0505449
-0.378331
-0.0932697
-0.339698
-0.0425094
-0.374849
-0.0801759
-0.329141
-0.00779009
-0.415772
-0.130741
-0.29932
-0.328261
-0.00895824
-0.415342
-0.123499
-0.337599
-0.0166415
-0.466656
-0.194427
-0.350811
-0.0344538
-0.308766
-0.0110077
-0.307516
-0.0113004
-0.318336
-0.0223353
-0.338287
-0.0450817
-0.205197
-0.468285
-0.253519
-0.512283
-0.311837
-0.323182
-0.0194146
-0.511765
-0.254028
-0.405124
-0.116051
-0.541225
-0.280659
-0.495456
-0.237864
-0.524226
-0.272976
-0.0906114
-0.437801
-0.17964
-0.479367
-0.216229
-0.382814
-0.0832051
-0.0919149
-0.384939
-0.168368
-0.448225
-0.528711
-0.274275
-0.435602
-0.468281
-0.0167341
-0.331913
-0.0882215
-0.383444
-0.038735
-0.358449
-0.480584
-0.19079
-0.204315
-0.472306
-0.133468
-0.010582
-0.307295
-0.275738
-0.536146
-0.291623
-0.549436
-0.350613
-0.0529637
-0.318063
-0.021325
-0.350322
-0.0525997
-0.205117
-0.473279
-0.203825
-0.318422
-0.0212672
-0.766828
-0.756367
-0.767017
-0.735758
-0.933666
-0.689248
-0.951743
-0.66672
-0.930737
-0.659226
-0.919242
-0.653322
-0.922219
-0.751676
-0.728021
-0.715605
-0.717591
-0.756871
-1.05647
-0.736849
-1.02474
-0.726825
-1.01547
-0.726439
-1.00493
-0.767346
-1.05674
-0.755918
-1.0445
-0.766917
-1.06232
-0.733596
-1.01277
-1.06631
-1.05338
-1.06446
-1.02847
-0.699152
-0.977265
-0.68765
-0.96101
-0.699545
-0.968975
-0.664051
-0.936167
-0.992424
-0.973918
-0.988314
-0.850658
-0.579188
-0.853111
-1.07435
-1.07494
-1.11652
-0.694583
-0.615259
-0.882511
-0.590579
-0.859568
-0.661113
-0.576782
-1.08487
-0.568712
-0.692203
-0.973725
-0.660323
-0.94095
-0.516251
-0.613538
-1.11971
-0.588528
-1.09798
-0.877173
-1.08731
-0.722224
-0.998399
-0.943154
-0.863092
-0.528403
-0.574728
-0.863768
-0.924637
-0.662077
-1.10657
-0.733517
-1.01598
-1.03191
-1.09903
-0.722308
-1.00346
-1.02305
-1.00982
-0.714342
-0.724668
-1.10501
-0.788484
-0.909198
-0.617422
-0.936874
-0.653774
-0.868529
-0.573266
-0.655548
-0.724953
-1.02046
-0.669593
-0.95539
-0.655642
-0.944159
-1.01988
-0.730651
-1.08485
-0.80354
-1.00918
-0.719298
-1.01635
-1.04175
-0.747643
-1.05281
-0.747736
-0.987932
-0.697933
-1.04223
-0.737448
-1.05678
-0.543368
-1.05341
-0.744727
-0.922726
-0.890698
-0.626418
-0.694739
-0.914585
-1.12085
-0.928857
-0.894305
-0.613547
-0.898372
-0.976969
-0.925253
-0.896523
-0.75629
-1.04256
-0.90326
-0.614582
-0.684115
-1.09109
-0.788224
-0.85297
-0.846775
-0.570538
-1.12646
-0.817907
-0.864759
-0.820811
-1.12963
-0.537121
-1.04301
-0.741125
-0.875247
-0.617334
-0.884823
-0.58609
-0.856126
-0.584476
-1.1301
-1.13914
-0.827881
-1.10264
-0.798483
-0.756506
-0.723018
-1.09223
-0.787902
-0.849971
-0.78798
-1.10994
-1.1061
-1.03612
-0.72454
-0.966947
-0.687683
-0.625469
-0.693649
-0.504446
-1.01073
-0.71366
-0.914717
-0.847747
-0.566459
-0.901661
-0.896487
-1.12414
-0.818977
-0.881355
-0.798985
-1.11649
-0.918732
-0.675149
-1.0853
-1.11685
-0.975723
-0.694761
-1.04459
-0.73567
-0.670624
-0.755949
-1.10401
-0.797961
-0.762669
-1.06023
-0.756782
-0.848695
-1.089
-0.891258
-0.733854
-1.01924
-0.804126
-1.08537
-0.932393
-0.651602
-1.11744
-0.842496
-1.05251
-0.767002
-1.13613
-0.828292
-0.614347
-0.871149
-1.11394
-0.798251
-0.888155
-1.12245
-0.820143
-1.14227
-0.829171
-0.943776
-0.650259
-0.927395
-0.651451
-1.03249
-0.725679
-0.955184
-0.662598
-1.0212
-0.722411
-0.950591
-0.66869
-0.977857
-0.683461
-0.83054
-1.10653
-0.683106
-1.00843
-0.72311
-0.660693
-0.72495
-0.757023
-1.05665
-0.828197
-0.526841
-0.848275
-1.11666
-0.970857
-0.689188
-0.885889
-0.889744
-0.900165
-0.748194
-0.830851
-0.524383
-1.04141
-0.75674
-1.00736
-0.723754
-1.01846
-0.734436
-1.00585
-0.723021
-0.788111
-0.502513
-0.784813
-0.801351
-0.669453
-0.944913
-0.672332
-0.944017
-0.843255
-0.799287
-1.04
-0.735101
-1.10092
-0.798898
-1.06968
-0.767067
-0.702285
-1.06083
-0.756521
-1.07166
-0.767112
-0.703848
-1.05294
-0.768219
-1.11916
-0.839137
-1.0175
-0.733966
-1.04169
-0.756795
-1.05411
-0.767949
-0.933587
-0.678541
-1.0334
-0.736603
-0.985495
-0.706684
-0.9656
-0.698263
-0.830972
-1.14156
-0.974994
-0.707873
-0.987324
-0.702872
-1.05251
-0.761592
-0.953701
-0.675926
-0.986102
-0.703558
-1.13089
-0.799893
-1.10391
-0.92022
-0.673094
-0.83268
-1.13468
-0.957131
-0.697363
-0.822258
-1.12153
-0.83447
-1.12736
-0.861987
-0.900087
-0.62796
-0.582891
-0.865386
-0.673907
-0.930534
-0.614895
-0.887673
-0.632473
-0.898133
-0.704766
-0.958349
-0.626292
-0.920437
-0.69416
-0.988557
-0.583143
-0.890931
-0.613719
-0.910751
-0.630436
-0.923047
-1.13236
-0.83117
-1.13407
-0.829965
-1.08932
-0.802243
-0.587344
-0.870501
-1.11037
-0.8258
-1.12229
-0.836586
-0.6264
-0.903734
-0.683517
-0.9554
-0.67972
-0.944121
-0.976736
-0.692255
-0.790126
-1.08063
-0.789198
-1.08849
-0.80099
-1.09423
-0.8239
-1.11475
-0.572962
-0.857411
-0.568278
-0.855118
-0.585981
-0.867617
-0.61361
-0.890355
-0.574093
-0.869108
-0.787627
-1.09347
-0.569176
-0.875837
-0.586392
-0.883557
-0.612894
-0.907662
-1.10784
-0.827942
-1.07512
-0.791679
-1.08669
-0.803437
-0.587728
-0.874076
-1.07694
-0.791105
-1.07125
-0.767228
-1.07011
-0.767225
-1.04147
-0.75468
-0.701341
-0.955269
-0.692782
-0.946464
-0.686591
-0.977143
-0.613298
-0.894091
-0.626315
-0.908159
-0.734387
-0.65018
-0.649258
-0.942061
-0.663606
-0.786856
-1.07411
-0.834476
-1.10603
-0.574629
-0.860263
-1.07431
-0.790877
-1.09899
-0.787667
-1.10721
-0.797833
-1.13027
-0.818185
-0.857392
-0.585365
-0.882012
-0.628326
-0.878819
-0.632361
-0.917768
-0.631778
-0.878532
-0.587417
-0.912799
-0.627589
-0.667313
-0.691479
-0.984149
-0.701689
-0.946724
-0.66494
-0.981419
-0.699942
-0.819403
-1.13323
