# vtk DataFile Version 2.0
Unstructured Grid by M++
ASCII
DATASET UNSTRUCTURED_GRID
POINTS 1089 float
  0.625000   0.593750 0
  0.656250   0.593750 0
  0.593750   0.875000 0
  0.593750   0.843750 0
  0.718750   0.656250 0
  0.718750   0.687500 0
  0.625000   0.562500 0
  0.781250   1.000000 0
  0.562500   0.906250 0
  0.562500   0.875000 0
  0.531250   0.875000 0
  0.937500   0.843750 0
  0.593750   0.593750 0
  0.875000   0.781250 0
  0.531250   0.531250 0
  0.906250   0.843750 0
  0.562500   0.593750 0
  0.906250   0.812500 0
  0.562500   0.562500 0
  1.000000   0.968750 0
  0.687500   0.656250 0
  0.687500   0.625000 0
  0.656250   0.625000 0
  0.906250   0.593750 0
  0.687500   0.968750 0
  0.687500   1.000000 0
  0.750000   0.968750 0
  0.718750   0.968750 0
  0.718750   1.000000 0
  0.750000   1.000000 0
  0.906250   0.906250 0
  0.968750   0.656250 0
  0.906250   0.875000 0
  0.781250   0.718750 0
  0.843750   0.531250 0
  0.656250   0.937500 0
  0.531250   0.781250 0
  1.000000   0.625000 0
  0.968750   0.593750 0
  0.968750   0.625000 0
  0.781250   0.687500 0
  0.937500   0.906250 0
  0.812500   0.750000 0
  0.750000   0.718750 0
  0.937500   0.875000 0
  0.593750   0.625000 0
  1.000000   0.656250 0
  0.812500   0.718750 0
  0.718750   0.937500 0
  0.968750   0.937500 0
  0.906250   0.562500 0
  0.875000   0.875000 0
  0.625000   0.875000 0
  0.875000   0.843750 0
  0.937500   0.625000 0
  1.000000   0.687500 0
  0.750000   0.687500 0
  0.968750   0.562500 0
  0.968750   0.906250 0
  0.625000   0.656250 0
  0.906250   0.531250 0
  0.875000   0.812500 0
  0.531250   0.562500 0
  0.937500   0.593750 0
  0.937500   0.562500 0
  1.000000   0.937500 0
  0.656250   0.687500 0
  0.968750   0.875000 0
  0.625000   0.625000 0
  1.000000   0.593750 0
  1.000000   0.906250 0
  0.656250   0.656250 0
  0.687500   0.937500 0
  0.875000   0.562500 0
  0.625000   0.906250 0
  0.875000   0.531250 0
  0.937500   0.531250 0
  0.656250   0.906250 0
  0.781250   0.750000 0
  0.562500   0.812500 0
  0.750000   0.750000 0
  0.687500   0.687500 0
  0.531250   0.812500 0
  0.843750   0.750000 0
  0.718750   0.718750 0
  0.593750   0.562500 0
  0.562500   0.843750 0
  0.843750   0.781250 0
  0.562500   0.531250 0
  0.593750   0.531250 0
  0.531250   0.843750 0
  0.781250   0.781250 0
  0.812500   0.781250 0
  0.812500   0.812500 0
  0.843750   0.812500 0
  0.625000   0.937500 0
  0.843750   0.843750 0
  0.593750   0.906250 0
  0.593750   0.937500 0
  0.656250   0.968750 0
  0.781250   0.125000 0
  0.781250   0.062500 0
  0.781250   0.093750 0
  0.781250   0.031250 0
  0.843750   0.500000 0
  0.843750   0.468750 0
  0.718750   0.343750 0
  0.812500   0.500000 0
  0.125000   0.781250 0
  0.687500   0.781250 0
  0.187500   0.531250 0
  0.750000   0.531250 0
  0.250000   0.281250 0
  0.218750   0.968750 0
  0.781250   0.968750 0
  0.281250   0.718750 0
  0.843750   0.718750 0
  0.343750   0.468750 0
  0.250000   0.968750 0
  0.812500   0.968750 0
  0.312500   0.718750 0
  0.875000   0.718750 0
  0.375000   0.468750 0
  0.187500   0.968750 0
  0.312500   0.468750 0
  0.375000   0.218750 0
  0.250000   0.718750 0
  0.437500   0.968750 0
  0.625000   0.218750 0
  0.093750   0.781250 0
  0.718750   0.531250 0
  0.218750   0.281250 0
  0.656250   0.781250 0
  0.156250   0.531250 0
  0.062500   0.812500 0
  0.687500   0.562500 0
  0.187500   0.312500 0
  0.625000   0.812500 0
  0.125000   0.562500 0
  0.312500   0.812500 0
  0.500000   0.062500 0
  0.437500   0.312500 0
  0.375000   0.562500 0
  0.062500   0.906250 0
  0.187500   0.406250 0
  0.250000   0.156250 0
  0.125000   0.656250 0
  0.062500   0.968750 0
  0.687500   0.718750 0
  0.187500   0.468750 0
  0.625000   0.968750 0
  0.125000   0.718750 0
  0.187500   1.000000 0
  0.312500   0.500000 0
  0.375000   0.250000 0
  0.437500   0.000000 0
  0.250000   0.750000 0
  0.812500   0.906250 0
  0.312500   0.656250 0
  0.250000   0.906250 0
  0.875000   0.656250 0
  0.375000   0.406250 0
  0.062500   0.937500 0
  0.250000   0.187500 0
  0.187500   0.437500 0
  0.125000   0.687500 0
  0.062500   1.000000 0
  0.687500   0.750000 0
  0.187500   0.500000 0
  0.625000   1.000000 0
  0.125000   0.750000 0
  0.750000   0.843750 0
  0.250000   0.593750 0
  0.812500   0.593750 0
  0.312500   0.343750 0
  0.187500   0.843750 0
  0.718750   0.875000 0
  0.218750   0.625000 0
  0.781250   0.625000 0
  0.281250   0.375000 0
  0.156250   0.875000 0
  0.781250   0.937500 0
  0.281250   0.687500 0
  0.843750   0.687500 0
  0.343750   0.437500 0
  0.218750   0.937500 0
  0.718750   0.843750 0
  0.218750   0.593750 0
  0.781250   0.593750 0
  0.281250   0.343750 0
  0.156250   0.843750 0
  0.531250   0.906250 0
  0.031250   0.656250 0
  0.593750   0.656250 0
  0.093750   0.406250 0
  0.375000   0.843750 0
  0.437500   0.593750 0
  0.562500   0.093750 0
  0.031250   0.593750 0
  0.093750   0.343750 0
  0.156250   0.093750 0
  0.781250   0.906250 0
  0.281250   0.656250 0
  0.218750   0.906250 0
  0.843750   0.656250 0
  0.343750   0.406250 0
  0.687500   0.875000 0
  0.187500   0.625000 0
  0.750000   0.625000 0
  0.250000   0.375000 0
  0.125000   0.875000 0
  0.812500   1.000000 0
  0.312500   0.750000 0
  0.875000   0.750000 0
  0.375000   0.500000 0
  0.250000   1.000000 0
  0.562500   0.687500 0
  0.062500   0.437500 0
  0.343750   0.937500 0
  0.968750   0.687500 0
  0.468750   0.437500 0
  0.906250   0.937500 0
  0.406250   0.687500 0
  0.531250   0.187500 0
  0.343750   0.875000 0
  0.468750   0.375000 0
  0.406250   0.625000 0
  0.531250   0.125000 0
  0.750000   0.937500 0
  0.250000   0.687500 0
  0.812500   0.687500 0
  0.312500   0.437500 0
  0.187500   0.937500 0
  0.687500   0.843750 0
  0.187500   0.593750 0
  0.750000   0.593750 0
  0.250000   0.343750 0
  0.125000   0.843750 0
  0.562500   0.656250 0
  0.062500   0.406250 0
  0.343750   0.843750 0
  0.468750   0.343750 0
  0.406250   0.593750 0
  0.531250   0.093750 0
  0.000000   0.593750 0
  0.062500   0.343750 0
  0.125000   0.093750 0
  0.750000   0.906250 0
  0.250000   0.656250 0
  0.187500   0.906250 0
  0.812500   0.656250 0
  0.312500   0.406250 0
  0.375000   0.812500 0
  0.937500   0.812500 0
  0.437500   0.562500 0
  0.562500   0.062500 0
  0.031250   0.562500 0
  0.156250   0.062500 0
  0.093750   0.312500 0
  0.000000   0.906250 0
  0.187500   0.156250 0
  0.125000   0.406250 0
  0.062500   0.656250 0
  0.000000   0.968750 0
  0.625000   0.718750 0
  0.125000   0.468750 0
  0.562500   0.968750 0
  0.062500   0.718750 0
  0.687500   0.812500 0
  0.187500   0.562500 0
  0.750000   0.562500 0
  0.250000   0.312500 0
  0.125000   0.812500 0
  0.812500   0.937500 0
  0.312500   0.687500 0
  0.875000   0.687500 0
  0.375000   0.437500 0
  0.250000   0.937500 0
  0.562500   0.625000 0
  0.062500   0.375000 0
  0.343750   0.812500 0
  0.468750   0.312500 0
  0.406250   0.562500 0
  0.531250   0.062500 0
  0.000000   0.562500 0
  0.062500   0.312500 0
  0.125000   0.062500 0
  0.750000   0.875000 0
  0.250000   0.625000 0
  0.812500   0.625000 0
  0.312500   0.375000 0
  0.187500   0.875000 0
  0.375000   0.781250 0
  0.937500   0.781250 0
  0.437500   0.531250 0
  0.562500   0.031250 0
  0.031250   0.531250 0
  0.156250   0.031250 0
  0.093750   0.281250 0
  0.031250   0.906250 0
  0.218750   0.156250 0
  0.156250   0.406250 0
  0.093750   0.656250 0
  0.031250   0.968750 0
  0.656250   0.718750 0
  0.156250   0.468750 0
  0.593750   0.968750 0
  0.093750   0.718750 0
  0.718750   0.812500 0
  0.218750   0.562500 0
  0.781250   0.562500 0
  0.281250   0.312500 0
  0.156250   0.812500 0
  0.781250   0.875000 0
  0.281250   0.625000 0
  0.843750   0.625000 0
  0.343750   0.375000 0
  0.218750   0.875000 0
  0.343750   0.781250 0
  0.968750   0.531250 0
  0.468750   0.281250 0
  0.906250   0.781250 0
  0.406250   0.531250 0
  0.531250   0.031250 0
  0.000000   0.531250 0
  0.125000   0.031250 0
  0.062500   0.281250 0
  0.093750   0.812500 0
  0.718750   0.562500 0
  0.218750   0.312500 0
  0.656250   0.812500 0
  0.156250   0.562500 0
  0.781250   0.843750 0
  0.281250   0.593750 0
  0.843750   0.593750 0
  0.343750   0.343750 0
  0.218750   0.843750 0
  0.281250   0.531250 0
  0.406250   0.031250 0
  0.343750   0.281250 0
  0.218750   0.781250 0
  0.468750   0.781250 0
  0.656250   0.031250 0
  0.593750   0.281250 0
  0.625000   0.781250 0
  0.125000   0.531250 0
  0.687500   0.531250 0
  0.187500   0.281250 0
  0.062500   0.781250 0
  0.281250   0.906250 0
  0.843750   0.906250 0
  0.343750   0.656250 0
  0.906250   0.656250 0
  0.406250   0.406250 0
  0.281250   0.843750 0
  0.343750   0.593750 0
  0.468750   0.093750 0
  0.406250   0.343750 0
  0.312500   0.906250 0
  0.937500   0.656250 0
  0.437500   0.406250 0
  0.875000   0.906250 0
  0.375000   0.656250 0
  0.312500   0.843750 0
  0.500000   0.093750 0
  0.437500   0.343750 0
  0.375000   0.593750 0
  0.437500   0.843750 0
  0.625000   0.093750 0
  0.093750   0.593750 0
  0.031250   0.843750 0
  0.156250   0.343750 0
  0.218750   0.093750 0
  0.125000   0.906250 0
  0.750000   0.656250 0
  0.250000   0.406250 0
  0.687500   0.906250 0
  0.187500   0.656250 0
  0.093750   0.906250 0
  0.218750   0.406250 0
  0.281250   0.156250 0
  0.156250   0.656250 0
  0.125000   0.937500 0
  0.250000   0.437500 0
  0.312500   0.187500 0
  0.187500   0.687500 0
  0.093750   0.937500 0
  0.281250   0.187500 0
  0.218750   0.437500 0
  0.156250   0.687500 0
  0.093750   1.000000 0
  0.718750   0.750000 0
  0.218750   0.500000 0
  0.656250   1.000000 0
  0.156250   0.750000 0
  0.156250   0.906250 0
  0.843750   0.406250 0
  0.343750   0.156250 0
  0.781250   0.656250 0
  0.281250   0.406250 0
  0.718750   0.906250 0
  0.218750   0.656250 0
  0.156250   0.937500 0
  0.843750   0.437500 0
  0.343750   0.187500 0
  0.281250   0.437500 0
  0.218750   0.687500 0
  0.125000   1.000000 0
  0.375000   0.000000 0
  0.250000   0.500000 0
  0.312500   0.250000 0
  0.187500   0.750000 0
[...]
CELL_DATA 1024
VECTORS vector_value float
-0.583754 -1.25778 0
-0.0133955 -0.0216609 0
-0.386466 -0.339871 0
-0.363775 -1.17233 0
-0.193405 -0.825055 0
-0.06953 -0.387613 0
0.0301698 -0.831476 0
-0.114768 -0.213539 0
0.761213 -0.827331 0
-0.0533296 -1.11398 0
0.207946 -1.05365 0
0.0416413 -1.25482 0
0.225716 -0.282097 0
0.047517 -0.0987957 0
0.00808154 -1.41758 0
0.00175263 -1.56743 0
0.0570499 -0.108492 0
-0.000857283 -0.0312247 0
-0.217535 -1.71131 0
-0.171946 -0.212616 0
-0.161523 -0.234015 0
-0.0637497 -1.75254 0
-0.715646 -2.45687 0
-0.016762 -0.0406001 0
0.0157147 -0.0877819 0
-1.15879 -1.34951 0
-0.640192 -1.2343 0
-0.398955 -0.257743 0
-1.25492 -1.66044 0
0.00352401 -0.0319251 0
-0.74279 -0.93645 0
-0.0559446 -1.14072 0
-0.182447 -1.67152 0
-0.11728 -1.42957 0
0.00942319 -1.56361 0
0.668465 -0.443088 0
0.471256 -0.902623 0
-0.308774 -2.46349 0
-0.132876 -1.61886 0
0.0684186 -1.02624 0
-0.629278 -1.4059 0
-0.398375 -1.51079 0
-0.362081 -2.64028 0
0.0142366 -1.50173 0
-0.147989 -1.59292 0
-0.0820775 -1.81849 0
-0.267829 -1.54185 0
-0.307254 -1.93941 0
-0.447624 -1.33672 0
0.002684 -0.0539261 0
0.860802 -0.925547 0
-0.145619 -1.01074 0
-0.172679 -1.44568 0
-0.0146975 -0.0208651 0
-1.05435 -2.94649 0
-0.965383 -1.18702 0
-0.0272693 -0.0435713 0
-0.124964 -1.67017 0
0.162312 -1.84457 0
-0.110478 -1.63804 0
-0.736237 -1.67252 0
-0.387422 -2.02969 0
-0.796595 -0.964228 0
0.114986 -0.113563 0
0.111348 -0.29152 0
-0.251519 -1.49318 0
-0.599397 -1.14329 0
0.146787 -1.48246 0
0.00824316 -0.8617 0
-0.247357 -1.20705 0
-0.613227 -1.88144 0
-0.0349683 -1.59757 0
0.448285 -0.837495 0
-0.00183849 -0.0489642 0
0.0092374 -0.980102 0
-0.00339165 -0.0283732 0
-0.212762 -1.73161 0
-0.292356 -1.91534 0
-0.234855 -1.47158 0
0.0241752 -0.0957224 0
-0.127915 -1.4761 0
-0.306533 -1.84338 0
-0.272051 -1.36159 0
-0.0335895 -1.88139 0
0.0641447 -1.12962 0
-0.359374 -1.7073 0
1.07643 -0.428614 0
-0.263518 -1.45396 0
-0.611758 -2.55606 0
0.00122839 -0.404404 0
-0.0115447 -0.81053 0
0.15038 -1.32529 0
0.210815 -0.824243 0
0.269696 -1.06361 0
0.24907 -1.06925 0
-0.128835 -1.12256 0
0.0165862 -0.0937354 0
1.15488 -0.465039 0
-0.433331 -1.33799 0
-0.593204 -1.13315 0
-0.209232 -1.2906 0
0.192634 -1.33334 0
-0.927668 -1.17063 0
-0.0708027 -1.32008 0
-0.144848 -0.933456 0
-0.00541936 -0.0150999 0
0.077636 -1.77402 0
-0.291956 -1.3323 0
-0.000951616 -0.0944953 0
1.03808 -0.430492 0
0.0967527 -0.108252 0
0.0864156 -0.277632 0
-0.173302 -1.01323 0
0.407957 -1.43904 0
0.0369027 -0.0720676 0
0.267871 -0.228208 0
0.1248 -1.754 0
0.151017 -1.36466 0
-0.135756 -0.249441 0
-0.272396 -1.75007 0
0.0582718 -1.0831 0
0.0743418 -1.7051 0
-0.231173 -1.45253 0
-0.141854 -1.28634 0
-0.0831567 -0.191686 0
0.0908153 -0.107306 0
-0.439913 -1.16018 0
-0.179797 -1.60549 0
-0.446759 -1.47394 0
-0.381828 -1.97537 0
-0.0945177 -0.404541 0
-0.227121 -1.67834 0
0.110316 -0.102149 0
0.0324954 -0.0886201 0
0.23718 -1.17901 0
-0.245805 -1.64385 0
0.0594943 -1.01541 0
-0.459962 -0.911269 0
-0.129985 -1.48468 0
-0.0371796 -0.0456148 0
-0.114218 -1.37904 0
0.0872633 -1.13285 0
-0.520744 -2.41028 0
-0.262415 -1.69677 0
-0.0756972 -0.25235 0
0.0279829 -0.0631987 0
-0.20082 -1.63621 0
0.0382332 -0.209429 0
-0.32382 -0.901799 0
0.0398491 -0.924386 0
0.0468961 -1.41458 0
0.101737 -0.126908 0
9.10589e-05 -1.31268 0
0.0724477 -2.00217 0
0.140466 -1.34257 0
-0.379201 -1.95928 0
-0.110616 -1.41999 0
0.505224 -0.350699 0
-1.12001 -3.3352 0
0.00252853 -0.0331403 0
-0.155984 -1.47674 0
-0.0258143 -0.0182833 0
0.283868 -1.15616 0
-0.108165 -1.18596 0
-0.0593786 -1.39447 0
-0.138402 -0.25594 0
-0.144922 -0.245439 0
-0.364083 -1.19611 0
0.333527 -1.28711 0
0.145842 -1.24266 0
-0.266098 -1.21098 0
0.423339 -0.269264 0
0.0515755 -0.0923545 0
-0.0115158 -0.0612035 0
0.122004 -0.14308 0
-0.0066974 -0.0225353 0
-0.201135 -2.12915 0
-0.0101861 -0.314744 0
-0.31677 -1.59466 0
-0.140929 -1.12173 0
-0.109511 -0.812077 0
-0.0116809 -0.044578 0
-0.247044 -1.96473 0
-0.00281543 -0.0420938 0
0.0209419 -0.0834205 0
-0.325776 -1.30316 0
0.0726058 -1.16919 0
0.424084 -1.40444 0
-0.153615 -0.932925 0
0.0542182 -0.929676 0
-0.039658 -0.520228 0
-0.292395 -1.52183 0
0.00351833 -0.892289 0
0.0330322 -0.208879 0
-0.270254 -1.60822 0
0.0427916 -1.46145 0
-0.026675 -0.187295 0
-0.289523 -1.24484 0
-0.114194 -0.235892 0
-0.0295907 -1.24867 0
-0.356476 -1.68257 0
-0.048399 -1.22194 0
0.339361 -0.245884 0
-0.0694379 -0.23182 0
-0.259257 -0.260499 0
-0.677558 -2.19395 0
-0.327766 -1.73239 0
-0.0511026 -0.273617 0
0.45817 -1.54187 0
-0.171972 -1.04469 0
-0.0317249 -1.21133 0
0.052612 -1.61134 0
0.174453 -1.48667 0
-0.424569 -1.62343 0
0.0489985 -1.86976 0
-0.233775 -1.11229 0
-0.194352 -1.86023 0
-0.0057065 -0.0231586 0
0.594443 -0.325523 0
0.100025 -1.23734 0
0.986257 -0.416811 0
-0.108978 -1.88739 0
-0.155086 -0.241663 0
0.517405 -1.00506 0
0.120788 -1.16048 0
-0.152315 -1.07064 0
-0.0694112 -1.87191 0
0.025112 -0.606281 0
-0.285434 -1.15433 0
0.394804 -1.88113 0
-0.389677 -0.918811 0
-0.00570675 -0.0477578 0
0.258036 -0.315374 0
0.118109 -1.41089 0
-0.082071 -1.45814 0
-0.0136296 -1.67552 0
-0.00723606 -1.34448 0
0.176955 -1.54622 0
0.00689202 -1.192 0
-0.0452195 -1.63511 0
-0.0543013 -2.64277 0
-0.147482 -2.48392 0
-0.434336 -2.13025 0
0.100681 -2.24224 0
0.0526139 -1.01617 0
-0.00342365 -1.73573 0
0.261552 -0.432951 0
-0.161178 -0.942341 0
0.363424 -1.36628 0
0.0739093 -0.156383 0
-0.0791417 -1.43472 0
0.00551957 -0.0883472 0
0.605106 -0.439537 0
0.0952261 -0.101965 0
0.0558029 -0.27805 0
0.102325 -1.49522 0
0.518514 -0.377546 0
-0.886391 -1.07911 0
0.0225346 -0.0561621 0
0.0627331 -0.134988 0
0.159592 -0.249302 0
-0.104238 -1.58059 0
-0.206801 -0.274401 0
-0.00726996 -0.0220838 0
0.0254931 -1.48864 0
-0.184495 -1.58384 0
-0.0132395 -0.040673 0
-0.320071 -2.08311 0
0.155069 -1.1293 0
-0.294574 -1.42415 0
0.0165791 -1.3409 0
-0.0040795 -0.0426232 0
0.0172953 -0.0852866 0
-0.195316 -1.92018 0
-0.231454 -2.0882 0
-0.129776 -0.974781 0
-0.00056415 -0.0441136 0
0.130348 -1.34874 0
0.0440245 -0.0887534 0
0.615259 -0.758372 0
0.0385079 -1.04666 0
-0.131804 -0.850643 0
0.693557 -1.46585 0
-0.0890215 -1.09574 0
0.0133591 -0.0479104 0
-0.12814 -0.202819 0
-0.29296 -2.28654 0
0.754976 -1.48544 0
-0.0575716 -1.6127 0
-0.00765865 -0.044634 0
-0.0105536 -0.0218415 0
-0.399241 -2.13824 0
-0.576045 -2.27979 0
0.599999 -0.404078 0
0.256034 -0.588527 0
-0.0803246 -0.345567 0
-0.217579 -1.74134 0
-0.0638259 -1.32907 0
0.00484019 -0.780226 0
-7.32451e-05 -0.0323657 0
0.0623776 -0.982576 0
-0.164366 -1.39881 0
0.0251648 -0.768189 0
0.106498 -0.0968223 0
-0.138391 -0.908002 0
-0.292409 -1.73368 0
0.266169 -1.03324 0
0.0222126 -0.0785317 0
0.252474 -1.03074 0
-0.0049266 -0.0338498 0
1.05137 -0.417543 0
0.141433 -1.16546 0
-0.14791 -0.877316 0
-0.023875 -1.15901 0
0.0984611 -1.57371 0
0.415987 -1.35222 0
-0.0378117 -1.704 0
-0.0997332 -1.10784 0
-0.389889 -1.46881 0
-0.197406 -1.32462 0
0.0386586 -0.085419 0
-0.0116853 -0.0388767 0
-0.121811 -1.24862 0
-0.255193 -1.80592 0
0.146958 -1.24575 0
-0.14218 -1.02442 0
-0.328201 -1.82474 0
-0.139445 -0.903123 0
-0.252205 -1.43348 0
0.0643683 -0.971511 0
-0.228786 -1.36676 0
-0.376017 -1.26852 0
-0.243896 -1.41093 0
-0.0506615 -0.236208 0
-0.0892165 -1.44092 0
-0.0121904 -0.18733 0
-0.227166 -1.29134 0
-0.0617006 -1.46665 0
-0.225731 -1.76085 0
-0.0465114 -1.53355 0
0.175131 -1.03555 0
-0.342087 -1.69276 0
-0.0107282 -1.26145 0
0.769982 -0.628914 0
-0.168158 -0.938482 0
0.136469 -1.17944 0
-0.00114969 -0.040167 0
0.360098 -0.249349 0
0.831249 -1.66053 0
-0.433764 -1.88083 0
0.531289 -1.36249 0
0.18615 -0.270592 0
-0.00449187 -1.2628 0
0.0319258 -1.27059 0
-0.118314 -0.237277 0
-0.249211 -1.41852 0
-0.27004 -1.0121 0
-0.26028 -1.2001 0
8.96015e-05 -1.19657 0
-0.837331 -1.04713 0
-0.142891 -1.33386 0
0.126282 -1.42737 0
0.1039 -0.101181 0
0.105067 -0.104261 0
-0.319766 -1.49287 0
-0.232628 -0.842976 0
0.1079 -0.129442 0
0.155906 -1.37726 0
-0.200967 -1.5162 0
-0.355458 -0.911525 0
0.0423908 -1.14457 0
0.104617 -0.122847 0
0.686899 -0.759234 0
0.0430997 -1.16152 0
-0.144098 -0.217449 0
-0.0182782 -1.07094 0
0.0528815 -0.571759 0
-0.133128 -1.58731 0
-0.0338817 -1.49999 0
0.0735598 -0.109447 0
-0.495953 -1.33424 0
0.000294925 -1.11527 0
0.0381254 -0.0897415 0
-0.446553 -1.28886 0
-0.030336 -0.19145 0
-0.264636 -1.3228 0
-0.410589 -1.52937 0
-0.00156631 -0.0237413 0
-0.201607 -1.6727 0
0.0985285 -1.6947 0
-0.602221 -2.42605 0
-0.236901 -1.43226 0
0.574206 -0.383568 0
0.353816 -0.227375 0
0.17876 -0.985367 0
-0.0832095 -1.07987 0
-0.542463 -2.39502 0
0.00576055 -0.79182 0
0.00995192 -0.16687 0
-0.0538789 -1.28997 0
0.107907 -0.0987599 0
0.0210302 -0.0851921 0
0.391693 -0.841338 0
-0.126627 -0.812261 0
0.0118437 -1.02527 0
-0.0830908 -1.66444 0
-0.108858 -1.51381 0
0.0140896 -0.0865897 0
0.0315495 -1.02951 0
-0.359122 -1.80618 0
0.176454 -1.30021 0
-0.0484205 -1.39539 0
0.425136 -0.841464 0
-0.266869 -1.55492 0
-0.314275 -1.77386 0
-0.113777 -1.58267 0
0.143466 -1.3122 0
-0.08312 -1.19296 0
0.0387954 -1.47013 0
-0.158743 -1.59094 0
-0.127515 -1.34735 0
-0.0433114 -1.49937 0
-0.00831807 -0.0475119 0
0.0743233 -1.29364 0
-0.122678 -0.827429 0
-0.0247373 -1.47993 0
0.0944807 -0.254662 0
-0.313018 -2.2855 0
-0.26225 -2.12142 0
0.119546 -1.61822 0
-0.106026 -1.68844 0
0.412032 -1.32301 0
-0.0064315 -0.0251252 0
0.251971 -0.280355 0
-0.0131413 -1.5534 0
1.02316 -0.410841 0
-0.12454 -1.67654 0
-0.172281 -1.30266 0
0.390641 -1.34247 0
-0.143887 -0.227588 0
1.02787 -0.412678 0
-0.137753 -0.246119 0
0.0937022 -0.263211 0
-0.00815284 -0.332409 0
0.221909 -0.369411 0
-0.871549 -1.0901 0
-0.0169187 -1.65904 0
0.100775 -1.56775 0
0.0770834 -1.2838 0
-0.0599073 -1.73 0
-0.123801 -0.217666 0
-0.273304 -1.11435 0
-0.116564 -1.08025 0
1.02801 -0.42296 0
-0.139284 -0.232237 0
-0.342229 -0.884394 0
0.0706043 -0.273641 0
-0.26321 -1.15083 0
0.0353163 -0.60983 0
0.0989065 -1.65688 0
0.0150164 -1.37859 0
0.0528039 -0.963032 0
-0.458224 -1.21161 0
0.0145706 -0.793598 0
-0.124359 -1.27748 0
0.171892 -1.28936 0
0.417218 -0.840194 0
0.0623811 -1.00352 0
0.0507206 -1.69979 0
0.675201 -0.781415 0
0.396463 -1.36167 0
-0.322582 -1.89118 0
-0.175218 -1.37276 0
0.109361 -0.267671 0
-0.140655 -1.40029 0
0.146271 -1.69878 0
-0.257453 -1.09804 0
-0.531904 -1.9765 0
0.34006 -0.943076 0
-0.181053 -1.71393 0
-0.396773 -1.33865 0
-0.0879132 -0.210725 0
-0.00740628 -1.38053 0
-0.125632 -1.64063 0
-0.0844998 -0.233064 0
-0.0742113 -1.66383 0
-0.267017 -1.66982 0
-0.322942 -1.22049 0
-0.149077 -1.36266 0
-0.218788 -1.60011 0
-0.0045036 -0.0424038 0
-0.242568 -1.72697 0
-0.00286665 -0.0232654 0
0.0141117 -1.2817 0
-0.000908122 -0.0300943 0
0.166976 -1.83041 0
0.111756 -0.264159 0
-0.0962747 -0.21652 0
-0.317914 -1.55531 0
-0.108349 -0.216634 0
-0.121244 -1.16784 0
-0.0743163 -1.0681 0
0.0384722 -0.0943927 0
-0.0136971 -1.13824 0
0.0193847 -0.0846537 0
-0.0432443 -1.02195 0
-0.102369 -1.54507 0
0.0997285 -1.15048 0
0.167203 -1.33776 0
0.0326492 -1.50707 0
0.104935 -0.0980293 0
-0.754648 -0.873383 0
-0.110549 -1.42021 0
-0.638075 -1.42122 0
-0.915593 -2.51674 0
-0.00821579 -0.0503021 0
-0.310767 -1.89079 0
-0.0809203 -0.953599 0
-0.0203231 -0.105632 0
-0.402345 -1.21492 0
-0.231751 -1.4615 0
-0.033495 -0.0387529 0
-0.0227965 -0.0147166 0
0.0580394 -0.97912 0
0.425574 -0.302914 0
0.0763114 -0.0914422 0
0.21652 -0.194837 0
-0.00247589 -0.778381 0
0.175529 -0.266492 0
-0.153192 -0.217009 0
-0.0961629 -1.06202 0
0.0203855 -0.0807603 0
0.980485 -0.397268 0
0.0993098 -0.0946622 0
-0.0936065 -0.689887 0
-0.450627 -2.02343 0
-0.13623 -0.869851 0
-0.112873 -1.23371 0
-0.0162341 -0.76979 0
-0.0114337 -0.156948 0
0.0167847 -0.0771808 0
-0.00309117 -0.0798809 0
-0.355257 -1.78745 0
-0.27516 -2.04635 0
0.105006 -0.996621 0
-0.140058 -0.806575 0
0.000591478 -0.757083 0
0.240743 -0.987563 0
-0.145866 -0.860926 0
-0.152447 -0.855029 0
-0.00685447 -0.0246852 0
0.847547 -0.359108 0
0.202001 -0.911342 0
-0.33983 -1.80804 0
0.0647763 -0.941581 0
-0.475761 -1.8517 0
-0.374596 -0.818256 0
0.00765119 -1.11615 0
0.0925838 -0.110253 0
0.336194 -1.27662 0
0.0277939 -1.11032 0
-0.161198 -1.62599 0
-0.216386 -1.32313 0
0.0337876 -0.0761082 0
0.00481321 -0.0756328 0
-0.503585 -1.22313 0
0.000234178 -0.0418645 0
-0.121691 -0.868158 0
0.0818199 -0.087552 0
-0.287972 -1.3325 0
0.0412821 -0.0842201 0
0.105591 -1.21452 0
-0.342457 -0.215784 0
-0.00670557 -1.09542 0
0.0055712 -0.0270319 0
-0.30938 -0.988591 0
0.206939 -1.46691 0
-0.328676 -0.284896 0
-0.19378 -1.25297 0
-0.13824 -0.205512 0
-0.359533 -0.89859 0
0.92434 -0.384938 0
-0.166857 -0.224952 0
-0.0127197 -0.0175616 0
0.577679 -0.392145 0
0.0472589 -0.970253 0
-0.0589519 -0.32386 0
-0.273727 -1.2994 0
-0.104291 -1.19365 0
0.368962 -1.30706 0
-0.405062 -0.769886 0
-0.520831 -0.965089 0
-0.87559 -1.08664 0
-0.0216268 -0.738771 0
-0.129389 -1.205 0
-0.215617 -1.60094 0
-0.00504985 -0.0378221 0
-0.087811 -1.38659 0
0.215031 -0.967053 0
-0.332619 -1.72081 0
-0.239128 -1.23196 0
-0.436191 -1.34712 0
-0.135069 -1.03318 0
-0.290884 -1.16678 0
-0.134283 -1.07942 0
0.105443 -1.21767 0
-0.142005 -0.95808 0
-0.139749 -1.03857 0
-0.289859 -2.24057 0
0.384903 -0.399066 0
-0.00892667 -0.0456202 0
0.0488692 -0.240929 0
-0.022206 -0.699644 0
-0.175952 -1.42821 0
-0.393586 -1.10554 0
-0.0873976 -0.164857 0
-0.518859 -0.959399 0
-0.0357174 -0.4423 0
-0.447415 -1.27363 0
-0.232493 -1.38803 0
0.0476645 -0.943669 0
0.00650688 -0.995742 0
0.065682 -0.251941 0
-0.166357 -0.236143 0
-0.0235029 -0.0372569 0
-0.130791 -0.952209 0
-0.538564 -1.59528 0
0.0795195 -0.0918198 0
-0.248824 -1.37081 0
-0.194672 -1.52398 0
-0.00317948 -1.01268 0
0.0225752 -0.521507 0
0.0425884 -0.873606 0
-0.272548 -1.37164 0
-0.258869 -1.59342 0
-0.143909 -1.18345 0
-0.116185 -1.04905 0
-0.318223 -1.28477 0
-0.0402958 -0.189358 0
0.059723 -0.993699 0
-0.126839 -1.67411 0
0.306249 -1.17883 0
0.865039 -0.365746 0
0.156881 -0.261247 0
-0.150582 -0.239317 0
-0.0412083 -1.24168 0
-0.147454 -1.42405 0
0.0448511 -0.786765 0
0.132617 -1.25656 0
0.642216 -0.715322 0
-0.169811 -0.220473 0
-0.00870807 -1.07346 0
-0.319386 -1.37342 0
0.119928 -1.11903 0
-0.260996 -1.37282 0
-0.305493 -1.00342 0
-0.277463 -1.10602 0
-0.111346 -1.18615 0
-0.18861 -1.40904 0
-0.00867789 -0.25852 0
-0.974797 -2.79571 0
-0.251847 -1.48984 0
0.157727 -0.946399 0
0.306446 -0.2126 0
-0.00421608 -0.0381623 0
-0.173722 -1.39225 0
0.0726687 -0.137697 0
-0.140146 -1.24984 0
-0.0550821 -0.353024 0
-0.158518 -1.3621 0
0.164102 -0.532081 0
0.0422429 -0.92109 0
0.00291712 -0.0272199 0
-0.0304507 -0.147146 0
-0.209963 -1.03132 0
0.0740801 -1.8572 0
-0.0305403 -0.986755 0
-0.0475059 -2.19835 0
-0.657518 -0.829073 0
-0.132731 -2.06884 0
0.0308896 -0.0613129 0
-0.014373 -0.202993 0
-0.00839041 -1.24753 0
-0.382713 -1.76839 0
0.0107135 -0.0768384 0
-0.00982296 -0.966657 0
0.0907246 -0.0933881 0
0.302399 -0.737832 0
-0.110846 -1.31789 0
0.0435463 -1.5928 0
0.041612 -0.932232 0
-0.0685203 -1.25365 0
-0.173694 -1.54393 0
-0.146757 -0.852174 0
0.12388 -1.0667 0
-0.293559 -1.79983 0
-1.01572 -1.14331 0
-0.149309 -1.55319 0
-1.08624 -1.38611 0
0.0162291 -0.0818085 0
-0.0589585 -1.47602 0
-0.20641 -1.32568 0
-0.0145535 -0.0377006 0
0.133113 -1.22007 0
-0.013193 -1.43013 0
-0.340355 -1.73825 0
-0.013063 -1.46196 0
-0.108278 -1.50396 0
0.402724 -0.816795 0
-0.114637 -1.65513 0
0.06107 -0.241711 0
-0.168694 -0.191065 0
-0.00607172 -0.0387201 0
-0.225228 -1.96769 0
0.0181704 -1.54789 0
-0.71749 -2.23941 0
-0.330249 -1.36186 0
0.512772 -0.344491 0
0.322675 -1.22656 0
-0.0940061 -1.55695 0
-0.216643 -1.35511 0
-0.753345 -0.942988 0
-0.597079 -1.28921 0
-0.158122 -0.209248 0
-0.230621 -0.996721 0
-0.169796 -1.74134 0
-0.00363581 -0.019142 0
-0.446752 -1.86449 0
-0.198838 -1.00033 0
-0.0023884 -0.02185 0
-0.303571 -0.818193 0
0.105958 -1.5253 0
-0.12975 -0.212897 0
-0.323339 -1.48464 0
0.372188 -0.76832 0
-0.160244 -1.65546 0
-0.105602 -0.930821 0
-0.109307 -0.979995 0
0.0817481 -1.04437 0
-0.588045 -1.8688 0
0.0077618 -0.826769 0
-0.285386 -1.46761 0
0.654477 -0.747572 0
-0.694171 -0.819341 0
-0.0460146 -0.232485 0
0.500808 -0.275298 0
-0.224238 -0.221752 0
-0.559978 -1.03754 0
-0.164655 -0.695504 0
-0.129386 -0.97876 0
-0.531791 -1.11394 0
-0.0175129 -1.51494 0
-0.516967 -2.29406 0
-0.20918 -1.1257 0
-0.0120013 -0.0197551 0
-0.414487 -0.959807 0
-0.146336 -1.46345 0
0.00578796 -1.13829 0
0.166691 -0.961749 0
0.0360297 -0.0909589 0
-0.118264 -1.3566 0
0.00998426 -1.18848 0
0.0356733 -1.34858 0
-0.0101918 -1.14309 0
-0.18442 -1.4662 0
-0.00128981 -0.0246355 0
0.122457 -1.15202 0
0.0524039 -1.56822 0
-0.0456158 -1.07576 0
-0.0627098 -1.0924 0
0.969584 -0.398797 0
0.130485 -1.10972 0
0.150623 -1.29486 0
0.0986198 -0.0946788 0
0.820239 -1.65342 0
0.0986169 -0.102339 0
0.719557 -0.627022 0
-0.209131 -0.860695 0
-0.108974 -0.221611 0
-0.230012 -1.80778 0
0.0261677 -1.03137 0
-0.187404 -0.842279 0
0.662175 -1.47593 0
0.553514 -0.738602 0
0.00219454 -0.745744 0
-0.100498 -1.04057 0
0.368361 -1.28206 0
0.0565436 -0.93967 0
0.0907194 -0.267801 0
1.06481 -0.427364 0
0.421205 -1.35928 0
0.101798 -1.68081 0
-0.030111 -1.13486 0
0.139517 -0.994265 0
-0.17034 -0.914978 0
-0.00231174 -0.0399553 0
-0.427529 -2.66658 0
0.207396 -1.36218 0
-0.00376042 -0.0460188 0
-0.130037 -1.02646 0
0.156228 -1.1848 0
0.0503488 -0.605083 0
0.0424235 -0.0924863 0
0.138227 -1.42992 0
-0.209934 -1.67344 0
0.105747 -0.235255 0
0.0171493 -1.24894 0
0.698802 -0.773689 0
-0.417547 -1.37531 0
0.0446484 -0.0899904 0
-0.14515 -1.4412 0
0.0331997 -0.0881856 0
-0.0838419 -1.09477 0
0.416028 -1.35643 0
-0.00876141 -1.05586 0
0.000511572 -0.0254514 0
-0.120584 -0.220842 0
-0.100456 -1.10922 0
-0.385418 -1.81558 0
-0.00163347 -1.25696 0
-0.0276544 -1.3846 0
0.0627452 -0.983834 0
-0.423893 -1.23851 0
-0.135404 -1.49725 0
-0.0183989 -0.221981 0
-0.138111 -0.908363 0
-0.129776 -0.237525 0
-0.0116225 -1.50783 0
0.0100844 -0.173861 0
-0.12893 -0.964004 0
0.15585 -1.19131 0
-0.129604 -1.24681 0
0.0438992 -0.0843595 0
-0.222967 -1.48445 0
-0.259721 -2.10805 0
0.0045962 -1.06986 0
0.00413184 -0.781018 0
-0.493166 -0.964904 0
0.0535435 -0.969586 0
-0.0838621 -1.57491 0
-0.0278386 -1.38197 0
0.195135 -0.271609 0
0.376161 -0.768279 0
-0.0778795 -1.25274 0
-0.355593 -2.23838 0
0.320747 -0.962083 0
-0.798793 -1.01246 0
0.10583 -0.0974648 0
0.232294 -0.732054 0
-0.11379 -0.219054 0
0.108493 -1.79639 0
-0.0395171 -0.191217 0
0.0114173 -0.796594 0
-0.583434 -1.95733 0
0.171404 -0.917289 0
-0.275455 -0.289077 0
-0.0527388 -1.71525 0
-0.000667139 -0.0412936 0
-0.216437 -1.90921 0
-0.665588 -2.46285 0
0.252471 -1.03118 0
0.118376 -0.1476 0
-0.148256 -0.885784 0
0.125578 -1.35791 0
-0.0138604 -0.748468 0
-0.193849 -1.08038 0
-0.00875347 -0.0407432 0
0.605671 -0.721168 0
-0.0341311 -1.30803 0
-0.0098028 -1.24902 0
0.0916044 -1.70337 0
0.0741683 -1.69598 0
0.00827092 -0.0484208 0
-0.22044 -1.2098 0
-0.224228 -1.37871 0
0.00236127 -0.0246241 0
0.0539688 -0.0900657 0
-0.213482 -1.36018 0
-0.0640768 -1.45014 0
-0.914709 -1.16679 0
0.319213 -2.09662 0
0.0207531 -0.0792683 0
-0.10838 -1.33153 0
-0.295442 -1.73424 0
0.114767 -1.1327 0
0.00677453 -0.0436134 0
-0.273477 -1.43697 0
-0.0182766 -1.37035 0
0.643103 -0.441086 0
-0.209958 -1.09817 0
-0.00518674 -0.0223771 0
-0.201544 -1.63473 0
0.0133999 -0.0835982 0
-0.41424 -0.907982 0
0.587896 -0.392019 0
-0.392487 -1.55745 0
-0.399426 -2.12523 0
1.02792 -0.413033 0
-0.473799 -1.47793 0
0.184163 -0.995621 0
0.373994 -0.255157 0
-0.420008 -1.47186 0
-0.00569078 -0.0412695 0
-0.356463 -1.51154 0
-0.185704 -1.59815 0
0.1751 -0.245089 0
0.0321751 -1.17209 0
0.120978 -0.13366 0
-0.294952 -0.857178 0
0.0681257 -1.50994 0
0.67087 -0.744979 0
-3.75449e-05 -1.21741 0
0.178419 -1.30945 0
0.0592186 -0.888745 0
0.111616 -0.0998761 0
-0.07039 -1.47907 0
-0.26575 -1.55428 0
-0.160861 -0.755585 0
0.0935551 -0.263011 0
-0.111596 -0.794264 0
0.412168 -0.804231 0
-0.139182 -0.198218 0
-0.0530705 -1.39195 0
0.0220847 -0.0852061 0
-0.103694 -0.196158 0
-0.0208904 -1.41779 0
0.0088817 -0.0392132 0
-0.0282903 -0.147291 0
-0.161229 -1.59279 0
-0.138682 -0.914535 0
0.109045 -0.098916 0