# vtk DataFile Version 2.0
Unstructured Grid by M++
ASCII
DATASET UNSTRUCTURED_GRID
POINTS 1089 float
  0.625000   0.593750 0
  0.656250   0.593750 0
  0.593750   0.875000 0
  0.593750   0.843750 0
  0.718750   0.656250 0
  0.718750   0.687500 0
  0.625000   0.562500 0
  0.781250   1.000000 0
  0.562500   0.906250 0
  0.562500   0.875000 0
  0.531250   0.875000 0
  0.937500   0.843750 0
  0.593750   0.593750 0
  0.875000   0.781250 0
  0.531250   0.531250 0
  0.906250   0.843750 0
  0.562500   0.593750 0
  0.906250   0.812500 0
  0.562500   0.562500 0
  1.000000   0.968750 0
  0.687500   0.656250 0
  0.687500   0.625000 0
  0.656250   0.625000 0
  0.906250   0.593750 0
  0.687500   0.968750 0
  0.687500   1.000000 0
  0.750000   0.968750 0
  0.718750   0.968750 0
  0.718750   1.000000 0
  0.750000   1.000000 0
  0.906250   0.906250 0
  0.968750   0.656250 0
  0.906250   0.875000 0
  0.781250   0.718750 0
  0.843750   0.531250 0
  0.656250   0.937500 0
  0.531250   0.781250 0
  1.000000   0.625000 0
  0.968750   0.593750 0
  0.968750   0.625000 0
  0.781250   0.687500 0
  0.937500   0.906250 0
  0.812500   0.750000 0
  0.750000   0.718750 0
  0.937500   0.875000 0
  0.593750   0.625000 0
  1.000000   0.656250 0
  0.812500   0.718750 0
  0.718750   0.937500 0
  0.968750   0.937500 0
  0.906250   0.562500 0
  0.875000   0.875000 0
  0.625000   0.875000 0
  0.875000   0.843750 0
  0.937500   0.625000 0
  1.000000   0.687500 0
  0.750000   0.687500 0
  0.968750   0.562500 0
  0.968750   0.906250 0
  0.625000   0.656250 0
  0.906250   0.531250 0
  0.875000   0.812500 0
  0.531250   0.562500 0
  0.937500   0.593750 0
  0.937500   0.562500 0
  1.000000   0.937500 0
  0.656250   0.687500 0
  0.968750   0.875000 0
  0.625000   0.625000 0
  1.000000   0.593750 0
  1.000000   0.906250 0
  0.656250   0.656250 0
  0.687500   0.937500 0
  0.875000   0.562500 0
  0.625000   0.906250 0
  0.875000   0.531250 0
  0.937500   0.531250 0
  0.656250   0.906250 0
  0.781250   0.750000 0
  0.562500   0.812500 0
  0.750000   0.750000 0
  0.687500   0.687500 0
  0.531250   0.812500 0
  0.843750   0.750000 0
  0.718750   0.718750 0
  0.593750   0.562500 0
  0.562500   0.843750 0
  0.843750   0.781250 0
  0.562500   0.531250 0
  0.593750   0.531250 0
  0.531250   0.843750 0
  0.781250   0.781250 0
  0.812500   0.781250 0
  0.812500   0.812500 0
  0.843750   0.812500 0
  0.625000   0.937500 0
  0.843750   0.843750 0
  0.593750   0.906250 0
  0.593750   0.937500 0
  0.656250   0.968750 0
  0.781250   0.125000 0
  0.781250   0.062500 0
  0.781250   0.093750 0
  0.781250   0.031250 0
  0.843750   0.500000 0
  0.843750   0.468750 0
  0.718750   0.343750 0
  0.812500   0.500000 0
  0.125000   0.781250 0
  0.687500   0.781250 0
  0.187500   0.531250 0
  0.750000   0.531250 0
  0.250000   0.281250 0
  0.218750   0.968750 0
  0.781250   0.968750 0
  0.281250   0.718750 0
  0.843750   0.718750 0
  0.343750   0.468750 0
  0.250000   0.968750 0
  0.812500   0.968750 0
  0.312500   0.718750 0
  0.875000   0.718750 0
  0.375000   0.468750 0
  0.187500   0.968750 0
  0.312500   0.468750 0
  0.375000   0.218750 0
  0.250000   0.718750 0
  0.437500   0.968750 0
  0.625000   0.218750 0
  0.093750   0.781250 0
  0.718750   0.531250 0
  0.218750   0.281250 0
  0.656250   0.781250 0
  0.156250   0.531250 0
  0.062500   0.812500 0
  0.687500   0.562500 0
  0.187500   0.312500 0
  0.625000   0.812500 0
  0.125000   0.562500 0
  0.312500   0.812500 0
  0.500000   0.062500 0
  0.437500   0.312500 0
  0.375000   0.562500 0
  0.062500   0.906250 0
  0.187500   0.406250 0
  0.250000   0.156250 0
  0.125000   0.656250 0
  0.062500   0.968750 0
  0.687500   0.718750 0
  0.187500   0.468750 0
  0.625000   0.968750 0
  0.125000   0.718750 0
  0.187500   1.000000 0
  0.312500   0.500000 0
  0.375000   0.250000 0
  0.437500   0.000000 0
  0.250000   0.750000 0
  0.812500   0.906250 0
  0.312500   0.656250 0
  0.250000   0.906250 0
  0.875000   0.656250 0
  0.375000   0.406250 0
  0.062500   0.937500 0
  0.250000   0.187500 0
  0.187500   0.437500 0
  0.125000   0.687500 0
  0.062500   1.000000 0
  0.687500   0.750000 0
  0.187500   0.500000 0
  0.625000   1.000000 0
  0.125000   0.750000 0
  0.750000   0.843750 0
  0.250000   0.593750 0
  0.812500   0.593750 0
  0.312500   0.343750 0
  0.187500   0.843750 0
  0.718750   0.875000 0
  0.218750   0.625000 0
  0.781250   0.625000 0
  0.281250   0.375000 0
  0.156250   0.875000 0
  0.781250   0.937500 0
  0.281250   0.687500 0
  0.843750   0.687500 0
  0.343750   0.437500 0
  0.218750   0.937500 0
  0.718750   0.843750 0
  0.218750   0.593750 0
  0.781250   0.593750 0
  0.281250   0.343750 0
  0.156250   0.843750 0
  0.531250   0.906250 0
  0.031250   0.656250 0
  0.593750   0.656250 0
  0.093750   0.406250 0
  0.375000   0.843750 0
  0.437500   0.593750 0
  0.562500   0.093750 0
  0.031250   0.593750 0
  0.093750   0.343750 0
  0.156250   0.093750 0
  0.781250   0.906250 0
  0.281250   0.656250 0
  0.218750   0.906250 0
  0.843750   0.656250 0
  0.343750   0.406250 0
  0.687500   0.875000 0
  0.187500   0.625000 0
  0.750000   0.625000 0
  0.250000   0.375000 0
  0.125000   0.875000 0
  0.812500   1.000000 0
  0.312500   0.750000 0
  0.875000   0.750000 0
  0.375000   0.500000 0
  0.250000   1.000000 0
  0.562500   0.687500 0
  0.062500   0.437500 0
  0.343750   0.937500 0
  0.968750   0.687500 0
  0.468750   0.437500 0
  0.906250   0.937500 0
  0.406250   0.687500 0
  0.531250   0.187500 0
  0.343750   0.875000 0
  0.468750   0.375000 0
  0.406250   0.625000 0
  0.531250   0.125000 0
  0.750000   0.937500 0
  0.250000   0.687500 0
  0.812500   0.687500 0
  0.312500   0.437500 0
  0.187500   0.937500 0
  0.687500   0.843750 0
  0.187500   0.593750 0
  0.750000   0.593750 0
  0.250000   0.343750 0
  0.125000   0.843750 0
  0.562500   0.656250 0
  0.062500   0.406250 0
  0.343750   0.843750 0
  0.468750   0.343750 0
  0.406250   0.593750 0
  0.531250   0.093750 0
  0.000000   0.593750 0
  0.062500   0.343750 0
  0.125000   0.093750 0
  0.750000   0.906250 0
  0.250000   0.656250 0
  0.187500   0.906250 0
  0.812500   0.656250 0
  0.312500   0.406250 0
  0.375000   0.812500 0
  0.937500   0.812500 0
  0.437500   0.562500 0
  0.562500   0.062500 0
  0.031250   0.562500 0
  0.156250   0.062500 0
  0.093750   0.312500 0
  0.000000   0.906250 0
  0.187500   0.156250 0
  0.125000   0.406250 0
  0.062500   0.656250 0
  0.000000   0.968750 0
  0.625000   0.718750 0
  0.125000   0.468750 0
  0.562500   0.968750 0
  0.062500   0.718750 0
  0.687500   0.812500 0
  0.187500   0.562500 0
  0.750000   0.562500 0
  0.250000   0.312500 0
  0.125000   0.812500 0
  0.812500   0.937500 0
  0.312500   0.687500 0
  0.875000   0.687500 0
  0.375000   0.437500 0
  0.250000   0.937500 0
  0.562500   0.625000 0
  0.062500   0.375000 0
  0.343750   0.812500 0
  0.468750   0.312500 0
  0.406250   0.562500 0
  0.531250   0.062500 0
  0.000000   0.562500 0
  0.062500   0.312500 0
  0.125000   0.062500 0
  0.750000   0.875000 0
  0.250000   0.625000 0
  0.812500   0.625000 0
  0.312500   0.375000 0
  0.187500   0.875000 0
  0.375000   0.781250 0
  0.937500   0.781250 0
  0.437500   0.531250 0
  0.562500   0.031250 0
  0.031250   0.531250 0
  0.156250   0.031250 0
  0.093750   0.281250 0
  0.031250   0.906250 0
  0.218750   0.156250 0
  0.156250   0.406250 0
  0.093750   0.656250 0
  0.031250   0.968750 0
  0.656250   0.718750 0
  0.156250   0.468750 0
  0.593750   0.968750 0
  0.093750   0.718750 0
  0.718750   0.812500 0
  0.218750   0.562500 0
  0.781250   0.562500 0
  0.281250   0.312500 0
  0.156250   0.812500 0
  0.781250   0.875000 0
  0.281250   0.625000 0
  0.843750   0.625000 0
  0.343750   0.375000 0
  0.218750   0.875000 0
  0.343750   0.781250 0
  0.968750   0.531250 0
  0.468750   0.281250 0
  0.906250   0.781250 0
  0.406250   0.531250 0
  0.531250   0.031250 0
  0.000000   0.531250 0
  0.125000   0.031250 0
  0.062500   0.281250 0
  0.093750   0.812500 0
  0.718750   0.562500 0
  0.218750   0.312500 0
  0.656250   0.812500 0
  0.156250   0.562500 0
  0.781250   0.843750 0
  0.281250   0.593750 0
  0.843750   0.593750 0
  0.343750   0.343750 0
  0.218750   0.843750 0
  0.281250   0.531250 0
  0.406250   0.031250 0
  0.343750   0.281250 0
  0.218750   0.781250 0
  0.468750   0.781250 0
  0.656250   0.031250 0
  0.593750   0.281250 0
  0.625000   0.781250 0
  0.125000   0.531250 0
  0.687500   0.531250 0
  0.187500   0.281250 0
  0.062500   0.781250 0
  0.281250   0.906250 0
  0.843750   0.906250 0
  0.343750   0.656250 0
  0.906250   0.656250 0
  0.406250   0.406250 0
  0.281250   0.843750 0
  0.343750   0.593750 0
  0.468750   0.093750 0
  0.406250   0.343750 0
  0.312500   0.906250 0
  0.937500   0.656250 0
  0.437500   0.406250 0
  0.875000   0.906250 0
  0.375000   0.656250 0
  0.312500   0.843750 0
  0.500000   0.093750 0
  0.437500   0.343750 0
  0.375000   0.593750 0
  0.437500   0.843750 0
  0.625000   0.093750 0
  0.093750   0.593750 0
  0.031250   0.843750 0
  0.156250   0.343750 0
  0.218750   0.093750 0
  0.125000   0.906250 0
  0.750000   0.656250 0
  0.250000   0.406250 0
  0.687500   0.906250 0
  0.187500   0.656250 0
  0.093750   0.906250 0
  0.218750   0.406250 0
  0.281250   0.156250 0
  0.156250   0.656250 0
  0.125000   0.937500 0
  0.250000   0.437500 0
  0.312500   0.187500 0
  0.187500   0.687500 0
  0.093750   0.937500 0
  0.281250   0.187500 0
  0.218750   0.437500 0
  0.156250   0.687500 0
  0.093750   1.000000 0
  0.718750   0.750000 0
  0.218750   0.500000 0
  0.656250   1.000000 0
  0.156250   0.750000 0
  0.156250   0.906250 0
  0.843750   0.406250 0
  0.343750   0.156250 0
  0.781250   0.656250 0
  0.281250   0.406250 0
  0.718750   0.906250 0
  0.218750   0.656250 0
  0.156250   0.937500 0
  0.843750   0.437500 0
  0.343750   0.187500 0
  0.281250   0.437500 0
  0.218750   0.687500 0
  0.125000   1.000000 0
  0.375000   0.000000 0
  0.250000   0.500000 0
  0.312500   0.250000 0
  0.187500   0.750000 0
[...]
CELL_DATA 1024
SCALARS scalar_value float 1
LOOKUP_TABLE default
1.38664
0.0254682
0.514653
1.22747
0.84742
0.3938
0.832023
0.242427
1.12424
1.11526
1.07397
1.25551
0.361284
0.109629
1.4176
1.56743
0.122578
0.0312364
1.72508
0.273443
0.284346
1.7537
2.55897
0.0439242
0.0891774
1.77875
1.39044
0.47497
2.08132
0.032119
1.19527
1.1421
1.68145
1.43438
1.56364
0.80198
1.01824
2.48277
1.6243
1.02852
1.5403
1.56243
2.66499
1.50179
1.59978
1.82034
1.56494
1.9636
1.40968
0.0539929
1.26397
1.02117
1.45596
0.0255219
3.12945
1.53002
0.0514011
1.67483
1.8517
1.64176
1.82739
2.06633
1.25072
0.161612
0.312062
1.51421
1.29088
1.48971
0.86174
1.23214
1.97886
1.59795
0.949924
0.0489987
0.980146
0.0285752
1.74463
1.93753
1.4902
0.098728
1.48163
1.86869
1.3885
1.88169
1.13144
1.74471
1.15863
1.47765
2.62824
0.404406
0.810612
1.33379
0.850776
1.09727
1.09788
1.12993
0.0951916
1.245
1.40641
1.27903
1.30745
1.34719
1.49364
1.32198
0.944628
0.016043
1.77572
1.36391
0.0945001
1.1238
0.145188
0.29077
1.02794
1.49575
0.0809664
0.3519
1.75844
1.37299
0.28399
1.77114
1.08467
1.70672
1.47081
1.29414
0.208946
0.140577
1.24079
1.61553
1.54016
2.01194
0.415436
1.69364
0.150347
0.09439
1.20263
1.66212
1.01715
1.02077
1.49036
0.0588475
1.38377
1.13621
2.46589
1.71694
0.263459
0.0691167
1.64849
0.21289
0.958176
0.925245
1.41536
0.162653
1.31268
2.00348
1.3499
1.99564
1.42429
0.615013
3.51824
0.0332367
1.48496
0.0316331
1.1905
1.19089
1.39574
0.290965
0.285031
1.25029
1.32962
1.25119
1.23987
0.501716
0.10578
0.0622774
0.188035
0.0235094
2.13863
0.314909
1.62582
1.13054
0.819428
0.0460829
1.9802
0.0421879
0.086009
1.34326
1.17144
1.46707
0.945488
0.931256
0.521738
1.54966
0.892296
0.211475
1.63076
1.46208
0.189185
1.27806
0.262079
1.24902
1.71992
1.2229
0.419076
0.241996
0.367524
2.29619
1.76312
0.278348
1.6085
1.05875
1.21174
1.6122
1.49687
1.67803
1.87041
1.13659
1.87036
0.0238513
0.677738
1.24137
1.07072
1.89053
0.287146
1.13042
1.16675
1.08142
1.8732
0.606801
1.1891
1.92212
0.998029
0.0480976
0.407485
1.41583
1.46045
1.67557
1.3445
1.55631
1.19202
1.63574
2.64333
2.4883
2.17408
2.2445
1.01753
1.73574
0.505822
0.956026
1.41379
0.172969
1.4369
0.0885195
0.747894
0.139517
0.283594
1.49872
0.641403
1.39648
0.0605144
0.148853
0.296008
1.58402
0.343603
0.0232496
1.48886
1.59455
0.0427736
2.10755
1.13989
1.4543
1.341
0.042818
0.0870226
1.93009
2.10099
0.983382
0.0441172
1.35502
0.0990724
0.976562
1.04737
0.860794
1.62165
1.09935
0.049738
0.239907
2.30524
1.66629
1.61372
0.0452863
0.0242576
2.17519
2.35144
0.723379
0.641808
0.354779
1.75488
1.3306
0.780241
0.0323658
0.984554
1.40843
0.768602
0.143932
0.918488
1.75817
1.06697
0.0816127
1.06121
0.0342065
1.13125
1.17401
0.889697
1.15926
1.57678
1.41476
1.70442
1.11233
1.51968
1.33925
0.0937597
0.0405949
1.25455
1.82386
1.25439
1.03424
1.85402
0.913825
1.45549
0.973641
1.38577
1.32307
1.43186
0.24158
1.44368
0.187726
1.31117
1.46794
1.77526
1.53425
1.05025
1.72698
1.2615
0.994186
0.953428
1.18731
0.0401835
0.438002
1.85697
1.9302
1.46241
0.328438
1.26281
1.27099
0.265139
1.44025
1.04751
1.22801
1.19657
1.34075
1.34149
1.43295
0.145027
0.148018
1.52673
0.874485
0.168516
1.38606
1.52946
0.978381
1.14536
0.161357
1.02385
1.16232
0.26086
1.0711
0.574199
1.59289
1.50037
0.13187
1.42344
1.11527
0.0975043
1.36403
0.193839
1.34902
1.58352
0.0237929
1.68481
1.69756
2.49968
1.45172
0.690534
0.420577
1.00145
1.08308
2.45569
0.791841
0.167167
1.29109
0.146279
0.0877494
0.928048
0.822072
1.02534
1.66652
1.51771
0.0877285
1.02999
1.84154
1.31213
1.39623
0.942763
1.57766
1.80149
1.58676
1.32002
1.19585
1.47064
1.59884
1.35337
1.5
0.0482346
1.29577
0.836474
1.48014
0.271624
2.30683
2.13757
1.62263
1.69177
1.38569
0.0259353
0.376946
1.55345
1.10257
1.68116
1.314
1.39816
0.269257
1.10762
0.282047
0.279392
0.332509
0.430938
1.39568
1.65912
1.57099
1.28611
1.73104
0.25041
1.14738
1.08652
1.11162
0.270803
0.948301
0.282603
1.18055
0.610852
1.65983
1.37868
0.964478
1.29536
0.793732
1.28352
1.30076
0.938081
1.00546
1.70055
1.03272
1.41821
1.91849
1.3839
0.28915
1.40734
1.70507
1.12782
2.04682
1.00251
1.72347
1.39622
0.228329
1.38055
1.64543
0.24791
1.66549
1.69103
1.26249
1.37079
1.615
0.0426423
1.74393
0.0234414
1.28178
0.030108
1.83801
0.286827
0.236959
1.58747
0.242219
1.17412
1.07068
0.101932
1.13832
0.0868448
1.02286
1.54846
1.1548
1.34817
1.50743
0.143601
1.15425
1.42451
1.55789
2.67811
0.0509686
1.91616
0.957026
0.10757
1.27981
1.47976
0.051222
0.0271341
0.980838
0.52237
0.119101
0.291277
0.778385
0.319106
0.265633
1.06637
0.0832935
1.05791
0.137198
0.696209
2.073
0.880454
1.23886
0.769962
0.157364
0.0789848
0.0799407
1.82241
2.06477
1.00214
0.818645
0.757083
1.01648
0.873196
0.868513
0.0256192
0.920486
0.93346
1.8397
0.943806
1.91184
0.899926
1.11618
0.14397
1.32014
1.11067
1.63396
1.34071
0.083271
0.0757858
1.32274
0.0418652
0.876645
0.119833
1.36326
0.0937936
1.2191
0.404771
1.09544
0.0276
1.03587
1.48144
0.434964
1.26786
0.24768
0.967847
1.00129
0.28008
0.0216841
0.698206
0.971403
0.329182
1.32792
1.1982
1.35814
0.869943
1.09666
1.39551
0.739087
1.21193
1.6154
0.0381578
1.38937
0.990672
1.75266
1.25495
1.41597
1.04198
1.20249
1.08774
1.22222
0.968546
1.04793
2.25924
0.55444
0.0464854
0.245835
0.699996
1.43901
1.17352
0.186591
1.09072
0.44374
1.34993
1.40736
0.944872
0.995763
0.260362
0.288857
0.0440507
0.961149
1.68374
0.121467
1.39321
1.53636
1.01268
0.521996
0.874643
1.39846
1.61431
1.19216
1.05546
1.32359
0.193598
0.995492
1.6789
1.21796
0.939182
0.304732
0.28275
1.24236
1.43167
0.788042
1.26354
0.961315
0.278288
1.0735
1.41006
1.12543
1.39741
1.04889
1.14029
1.19136
1.42161
0.258665
2.96078
1.51097
0.959452
0.372972
0.0383945
1.40304
0.155696
1.25767
0.357295
1.37129
0.556813
0.922058
0.0273758
0.150263
1.05248
1.85868
0.987227
2.19887
1.05816
2.07309
0.0686545
0.203501
1.24755
1.80933
0.0775817
0.966707
0.130201
0.797396
1.32255
1.59339
0.93316
1.25552
1.55367
0.864718
1.07387
1.82361
1.52933
1.56035
1.76103
0.0834027
1.4772
1.34166
0.0404121
1.22731
1.43019
1.77126
1.46202
1.50785
0.910681
1.65909
0.249307
0.25488
0.0391932
1.98054
1.548
2.35154
1.40133
0.617745
1.2683
1.55979
1.37232
1.20696
1.42076
0.262274
1.02305
1.7496
0.0194842
1.91727
1.0199
0.0219802
0.872694
1.52898
0.249319
1.51944
0.853721
1.6632
0.936793
0.986072
1.04756
1.95913
0.826806
1.4951
0.993582
1.07387
0.236995
0.571487
0.315367
1.17901
0.714729
0.987275
1.23437
1.51504
2.35159
1.14497
0.0231148
1.04548
1.47074
1.1383
0.976088
0.0978348
1.36174
1.18852
1.34906
1.14314
1.47776
0.0246692
1.15851
1.5691
1.07672
1.0942
1.04839
1.11736
1.30359
0.136711
1.8457
0.142122
0.954421
0.885738
0.246955
1.82235
1.03171
0.862876
1.61766
0.92299
0.745748
1.04541
1.33393
0.94137
0.28275
1.14737
1.42305
1.68389
1.13526
1.00401
0.930698
0.0400221
2.70064
1.37787
0.0461721
1.03466
1.19505
0.607174
0.101752
1.43659
1.68656
0.257929
1.24906
1.04255
1.4373
0.100458
1.44849
0.094228
1.09797
1.4188
1.0559
0.0254565
0.251619
1.11376
1.85604
1.25696
1.38487
0.985833
1.30905
1.50336
0.222742
0.918802
0.270666
1.50787
0.174153
0.972587
1.20146
1.25353
0.0950982
1.5011
2.12399
1.06987
0.781029
1.08363
0.971063
1.57714
1.38225
0.334439
0.855424
1.25515
2.26645
1.01414
1.28963
0.143873
0.768026
0.246846
1.79967
0.195257
0.796676
2.04243
0.933165
0.399301
1.71606
0.041299
1.92144
2.55121
1.06164
0.189205
0.898106
1.3637
0.748596
1.09764
0.0416729
0.941765
1.30848
1.24906
1.70583
1.6976
0.0491221
1.22972
1.39682
0.0247371
0.104997
1.37683
1.45156
1.48259
2.12078
0.0819399
1.33593
1.75923
1.1385
0.0441364
1.46276
1.37047
0.779833
1.11807
0.0229703
1.64711
0.0846653
0.998011
0.706612
1.60614
2.16244
1.1078
1.55202
1.01251
0.452743
1.53061
0.04166
1.553
1.6089
0.301212
1.17253
0.180279
0.906504
1.51148
1.00253
1.21741
1.32155
0.890715
0.149778
1.48075
1.57684
0.772519
0.279155
0.802065
0.903698
0.242203
1.39296
0.0880217
0.221879
1.41794
0.0402065
0.149983
1.60093
0.924991
0.147225
1.43599
0.206162
0.990726
1.40535
0.0710315
0.503329
1.32035
1.48271
1.83923
0.0403224
1.25299
0.0239114
1.2229
1.61773
0.269297
2.2128
0.128703
0.0292631
1.51626
2.38665
0.820978
2.34777
1.62073
0.269423
1.42408
0.250938
0.868997
1.83608
1.60918
1.65003
0.811571
1.64531
1.65923
0.0455902
1.19687
0.257729
1.34813
1.34545
0.0865835
0.857252
0.25452
1.29848
1.63858
0.256763
0.267825
0.575825
1.03397
1.58955
1.52011
1.32946
1.20791
1.28929
1.12026
1.08205
0.231436
1.40329
1.32849
1.65688
1.50331
0.433476
1.19407
1.35253
0.164627
2.18285
1.63501
1.33624
0.0253224
0.0450859
1.07775
0.781815
0.287934
1.13778
0.28171
1.4047
1.91539
1.41369
1.67101
1.82447
1.4685
1.34948
0.0893942
1.19758
1.25473
1.6812
0.0262228
1.44415
1.7617
1.40578
1.6678
1.58246
0.887763
1.10489
1.26993
