# vtk DataFile Version 2.0
Unstructured Grid by M++
ASCII
DATASET UNSTRUCTURED_GRID
POINTS 4072 float
  0.812500   0.625000 0
  0.953125   0.609375 0
  0.968750   0.609375 0
  0.875000   0.687500 0
  0.812500   0.937500 0
  0.859375   0.687500 0
  0.796875   0.937500 0
  0.968750   1.000000 0
  0.984375   0.984375 0
  0.968750   0.984375 0
  0.843750   0.656250 0
  0.875000   0.656250 0
  0.812500   0.906250 0
  0.859375   0.640625 0
  0.781250   0.984375 0
  0.843750   0.734375 0
  0.781250   0.968750 0
  0.843750   0.718750 0
  0.765625   0.968750 0
  0.828125   0.718750 0
  0.921875   0.593750 0
  0.859375   0.843750 0
  0.765625   1.000000 0
  0.828125   0.750000 0
  0.875000   0.796875 0
  0.890625   0.781250 0
  0.875000   0.781250 0
  0.921875   0.609375 0
  0.859375   0.859375 0
  0.984375   0.968750 0
  1.000000   0.968750 0
  1.000000   0.953125 0
  0.859375   0.734375 0
  0.796875   0.984375 0
  0.875000   0.734375 0
  0.812500   0.984375 0
  0.906250   0.953125 0
  0.968750   0.703125 0
  0.796875   0.750000 0
  0.812500   0.812500 0
  0.828125   0.796875 0
  0.781250   0.843750 0
  0.843750   0.593750 0
  0.953125   0.937500 0
  0.890625   0.625000 0
  0.828125   0.875000 0
  0.906250   0.625000 0
  0.843750   0.875000 0
  0.890625   0.609375 0
  0.828125   0.859375 0
  0.906250   0.609375 0
  0.843750   0.859375 0
  0.906250   0.593750 0
  0.843750   0.843750 0
  0.843750   0.765625 0
  0.859375   0.750000 0
  0.796875   1.000000 0
  0.937500   0.609375 0
  0.875000   0.859375 0
  0.765625   0.515625 0
  0.843750   0.640625 0
  0.843750   0.578125 0
  0.781250   0.828125 0
  0.843750   0.515625 0
  0.781250   0.765625 0
  1.000000   0.687500 0
  0.937500   0.937500 0
  0.828125   0.593750 0
  0.765625   0.843750 0
  0.828125   0.531250 0
  0.765625   0.781250 0
  0.765625   0.984375 0
  0.828125   0.734375 0
  0.812500   0.734375 0
  0.765625   0.765625 0
  0.781250   0.750000 0
  1.000000   0.656250 0
  0.937500   0.906250 0
  0.765625   0.750000 0
  0.968750   0.578125 0
  0.953125   0.593750 0
  0.953125   0.578125 0
  0.937500   0.593750 0
  0.875000   0.843750 0
  0.812500   0.796875 0
  0.875000   0.546875 0
  0.984375   0.953125 0
  0.984375   0.937500 0
  0.765625   0.562500 0
  0.937500   0.656250 0
  0.875000   0.906250 0
  0.765625   0.531250 0
  0.937500   0.625000 0
  0.875000   0.875000 0
  0.937500   0.859375 0
  1.000000   0.609375 0
  0.828125   0.687500 0
  0.765625   0.937500 0
  1.000000   0.781250 0
  0.812500   0.671875 0
  0.984375   0.765625 0
  0.828125   0.656250 0
  1.000000   0.750000 0
  0.937500   1.000000 0
  0.781250   0.515625 0
  0.953125   0.671875 0
  0.890625   0.921875 0
  0.781250   0.578125 0
  0.953125   0.984375 0
  0.984375   0.640625 0
  0.921875   0.890625 0
  0.968750   0.625000 0
  0.906250   0.875000 0
  0.812500   0.765625 0
  0.984375   0.859375 0
  1.000000   0.843750 0
  0.968750   0.859375 0
  0.843750   0.703125 0
  0.781250   0.953125 0
  0.843750   0.750000 0
  0.781250   1.000000 0
  0.843750   0.687500 0
  0.781250   0.937500 0
  0.828125   0.765625 0
  1.000000   0.859375 0
  0.828125   0.703125 0
  0.765625   0.953125 0
  0.968750   0.968750 0
  0.968750   0.953125 0
  0.796875   0.781250 0
  0.859375   0.531250 0
  0.968750   0.937500 0
  0.953125   0.968750 0
  0.781250   0.796875 0
  0.843750   0.546875 0
  0.953125   0.953125 0
  0.781250   0.812500 0
  0.953125   0.906250 0
  0.859375   0.781250 0
  0.859375   0.703125 0
  0.796875   0.953125 0
  0.859375   0.765625 0
  1.000000   0.734375 0
  0.937500   0.984375 0
  0.828125   0.578125 0
  0.765625   0.828125 0
  1.000000   0.796875 0
  0.828125   0.640625 0
  0.984375   0.734375 0
  0.921875   0.984375 0
  0.812500   0.640625 0
  0.890625   0.953125 0
  0.953125   0.703125 0
  0.796875   0.687500 0
  0.968750   0.781250 0
  0.968750   0.750000 0
  0.906250   1.000000 0
  0.953125   0.765625 0
  0.812500   0.718750 0
  0.843750   0.984375 0
  0.906250   0.734375 0
  0.921875   0.625000 0
  0.859375   0.875000 0
  0.921875   0.687500 0
  0.859375   0.937500 0
  0.968750   0.796875 0
  0.796875   0.703125 0
  0.937500   0.671875 0
  0.984375   0.796875 0
  0.812500   0.703125 0
  0.765625   0.687500 0
  0.937500   0.843750 0
  1.000000   0.593750 0
  0.937500   0.781250 0
  1.000000   0.531250 0
  0.812500   0.781250 0
  0.984375   0.875000 0
  0.843750   1.000000 0
  0.906250   0.750000 0
  0.968750   0.500000 0
  0.968750   0.718750 0
  0.906250   0.968750 0
  0.796875   0.625000 0
  0.859375   1.000000 0
  0.921875   0.750000 0
  0.968750   0.765625 0
  0.796875   0.609375 0
  0.859375   0.984375 0
  0.921875   0.734375 0
  1.000000   0.625000 0
  0.937500   0.875000 0
  1.000000   0.562500 0
  0.937500   0.812500 0
  0.875000   0.984375 0
  0.937500   0.734375 0
  0.906250   0.703125 0
  0.843750   0.953125 0
  0.906250   0.687500 0
  0.843750   0.937500 0
  0.937500   0.765625 0
  0.890625   0.718750 0
  0.828125   0.968750 0
  0.890625   0.703125 0
  0.828125   0.953125 0
  0.921875   0.781250 0
  0.906250   0.796875 0
  0.921875   0.718750 0
  0.859375   0.968750 0
  0.921875   0.703125 0
  0.859375   0.953125 0
  0.765625   0.546875 0
  0.937500   0.640625 0
  0.875000   0.890625 0
  0.937500   0.703125 0
  0.875000   0.953125 0
  0.765625   0.593750 0
  0.937500   0.687500 0
  0.875000   0.937500 0
  0.890625   0.937500 0
  0.953125   0.687500 0
  0.906250   0.718750 0
  0.843750   0.968750 0
  0.937500   0.796875 0
  0.828125   0.921875 0
  0.890625   0.671875 0
  0.984375   0.750000 0
  0.921875   1.000000 0
  0.812500   0.593750 0
  0.875000   0.968750 0
  0.937500   0.718750 0
  0.890625   1.000000 0
  0.953125   0.750000 0
  0.968750   0.671875 0
  0.906250   0.921875 0
  0.968750   0.734375 0
  0.906250   0.984375 0
  0.796875   0.578125 0
  0.984375   0.671875 0
  0.921875   0.921875 0
  0.812500   0.515625 0
  0.812500   0.578125 0
  0.765625   0.578125 0
  0.843750   0.906250 0
  0.906250   0.656250 0
  0.890625   0.750000 0
  0.828125   1.000000 0
  0.781250   0.593750 0
  0.984375   0.546875 0
  0.921875   0.796875 0
  0.921875   0.812500 0
  0.859375   0.656250 0
  0.859375   0.593750 0
  0.796875   0.843750 0
  0.859375   0.578125 0
  0.796875   0.828125 0
  0.921875   0.953125 0
  0.984375   0.703125 0
  0.984375   0.625000 0
  0.921875   0.875000 0
  0.875000   0.640625 0
  0.812500   0.890625 0
  0.875000   0.578125 0
  0.812500   0.828125 0
  0.765625   0.859375 0
  0.828125   0.609375 0
  0.937500   0.953125 0
  1.000000   0.703125 0
  0.921875   0.906250 0
  0.984375   0.656250 0
  0.921875   0.968750 0
  0.984375   0.718750 0
  1.000000   0.765625 0
  0.890625   0.984375 0
  0.953125   0.734375 0
  0.953125   0.656250 0
  0.890625   0.906250 0
  0.953125   0.718750 0
  0.890625   0.968750 0
  0.781250   0.562500 0
  0.796875   0.796875 0
  0.968750   0.640625 0
  0.906250   0.890625 0
  0.953125   0.796875 0
  0.953125   0.859375 0
  0.781250   0.703125 0
  0.984375   0.781250 0
  0.875000   1.000000 0
  0.937500   0.750000 0
  0.906250   0.937500 0
  0.968750   0.687500 0
  0.843750   0.625000 0
  0.781250   0.875000 0
  0.765625   0.796875 0
  0.937500   0.890625 0
  1.000000   0.640625 0
  0.781250   0.781250 0
  0.906250   0.906250 0
  0.968750   0.656250 0
  0.796875   0.765625 0
  1.000000   0.718750 0
  0.937500   0.968750 0
  0.828125   0.562500 0
  0.765625   0.812500 0
  0.828125   0.625000 0
  0.484375   0.750000 0
  0.421875   1.000000 0
  0.000000   0.218750 0
  0.453125   0.640625 0
  0.281250   0.546875 0
  0.312500   0.640625 0
  0.406250   0.984375 0
  0.468750   0.734375 0
  0.328125   0.656250 0
  0.390625   0.828125 0
  0.453125   0.578125 0
  0.437500   0.875000 0
  0.015625   0.093750 0
  0.312500   0.531250 0
  0.406250   0.937500 0
  0.343750   0.562500 0
  0.281250   0.812500 0
  0.453125   0.984375 0
  0.359375   0.625000 0
  0.296875   0.875000 0
  0.468750   0.796875 0
  0.046875   0.015625 0
  0.437500   0.656250 0
  0.312500   0.578125 0
  0.421875   0.921875 0
  0.000000   0.140625 0
  0.484375   0.671875 0
  0.265625   0.734375 0
  0.468750   0.984375 0
  0.046875   0.203125 0
  0.406250   0.625000 0
  0.390625   0.609375 0
  0.375000   0.625000 0
  0.265625   0.562500 0
  0.484375   0.812500 0
  0.062500   0.031250 0
  0.484375   0.984375 0
  0.062500   0.203125 0
  0.312500   0.890625 0
  0.375000   0.640625 0
  0.375000   0.671875 0
  0.390625   0.687500 0
  0.484375   0.843750 0
  0.390625   0.500000 0
  0.328125   0.687500 0
  0.328125   0.765625 0
  0.390625   0.515625 0
  0.437500   0.796875 0
  0.484375   0.531250 0
  0.468750   0.968750 0
  0.046875   0.187500 0
  0.453125   0.843750 0
  0.453125   0.812500 0
  0.281250   0.718750 0
  0.468750   0.859375 0
  0.265625   0.984375 0
  0.375000   0.765625 0
  0.296875   0.562500 0
  0.484375   0.781250 0
  0.062500   0.000000 0
  0.453125   1.000000 0
  0.031250   0.218750 0
  0.453125   0.546875 0
  0.312500   0.703125 0
  0.328125   0.718750 0
  0.296875   0.656250 0
  0.281250   0.640625 0
  0.265625   0.656250 0
  0.281250   0.671875 0
  0.484375   0.890625 0
  0.062500   0.109375 0
  0.296875   0.687500 0
  0.296875   0.625000 0
  0.265625   0.703125 0
  0.265625   0.687500 0
  0.265625   0.625000 0
  0.953125   0.046875 0
  0.484375   0.875000 0
  0.484375   0.921875 0
  0.062500   0.140625 0
  0.453125   0.921875 0
  0.031250   0.140625 0
  0.968750   0.234375 0
  0.171875   0.671875 0
  0.500000   0.796875 0
  0.078125   0.015625 0
  0.218750   0.718750 0
  0.062500   0.828125 0
  0.734375   0.250000 0
  0.906250   0.140625 0
  0.109375   0.578125 0
  0.781250   0.015625 0
  0.718750   0.187500 0
  0.031250   0.828125 0
  0.718750   0.234375 0
  0.890625   0.125000 0
  0.093750   0.562500 0
  0.734375   0.359375 0
  0.859375   0.546875 0
  0.062500   0.984375 0
  0.750000   0.406250 0
  0.718750   0.343750 0
  0.250000   0.750000 0
  0.234375   0.734375 0
  0.046875   0.578125 0
  0.734375   0.000000 0
  0.828125   0.125000 0
  0.031250   0.562500 0
[...]
POINT_DATA 4072
SCALARS scalar_value float 1
LOOKUP_TABLE default
0.00349487
0.000186359
-4.84568e-05
0.00430134
-0.000300791
0.00446618
2.57648e-05
0
4.58969e-06
5.51081e-05
0.00498127
-0.00108153
0.000103459
-0.00185347
0.000300577
6.05904e-05
0.000445701
-0.00064819
0.000469924
0.000241397
5.01313e-05
-0.000132723
0
-0.000504505
-3.589e-06
-0.000180576
-0.000383973
6.48141e-05
-0.000263847
-2.59374e-06
-3.48659e-05
-2.8945e-05
-0.000153039
3.07802e-05
-0.000491475
-6.21366e-05
0.000217758
-0.000266666
0.00119269
-0.000234009
-0.00045376
0.000843569
0.000189001
-1.61439e-05
-6.14825e-05
0.000247087
0.000205923
7.90804e-05
0.00020157
0.000129869
0.000171003
3.18583e-05
5.70468e-06
-5.47802e-05
-0.000189159
-0.000108465
0
6.06705e-06
-0.000221158
-0.00237551
-0.000178294
0.000997703
0.000938976
0.00319625
-0.000512503
6.52322e-05
-4.58494e-05
0.000144031
0.000268337
0.00268533
-0.000610157
0.000120745
-0.000502105
-0.00126352
-0.000325568
0.000325481
1.20725e-05
0.000204935
-0.000295187
0.000356844
4.87362e-05
4.50826e-05
8.1637e-05
-0.000403076
-0.000445884
0.00121403
2.92454e-05
6.02448e-05
-0.0108532
9.1696e-05
0.000157835
0.00159248
0.000147594
-0.000152079
0.000100881
8.81778e-05
-0.00120181
0.000311061
0.000861363
-0.000563825
0.000344909
0.00857682
-0.000104927
0
0.00568911
-2.67391e-06
0.000127308
-0.00762239
2.65034e-05
3.24793e-05
0.000121658
-0.000101481
7.62223e-05
0.000460112
-6.19637e-05
-4.98221e-06
1.9041e-05
-0.00154055
0.000491329
-0.000620365
0
0.00187532
0.00108714
0.000500286
2.82222e-05
-0.00128682
0.000522378
6.71667e-05
7.29311e-06
-0.00047233
0.0037206
-3.91844e-05
1.10845e-05
-0.000393411
0.00352604
-1.99428e-05
8.08379e-05
-1.92484e-05
-0.000106222
0.000486085
-5.16368e-05
-0.000612216
-0.000417854
-4.37799e-07
0.00264304
0.00113958
0.00052641
0.00470944
-0.000194949
-1.98132e-05
0.00991984
-5.47431e-05
-0.000451975
-0.000132394
4.81303e-05
0.00069769
0
0.000414441
-0.000722844
-4.48028e-06
0.000461018
0.000122801
-0.000170981
-0.00062793
1.64547e-06
-0.00019064
0.000158548
-0.000333903
0.000378353
-0.000318171
-0.00122036
-0.00010502
0.000194403
-0.000187266
0.000532109
-0.000427646
-7.73219e-06
0
-0.000410248
0.000529939
-0.000252934
6.72434e-05
0.0129948
0
5.1476e-05
0.000586042
0.00261951
-3.80083e-05
0.00130248
-3.11762e-05
0.000382342
-0.000358068
4.66926e-05
-7.08171e-05
0.00127509
0.00217017
-9.20057e-05
0.000336497
-2.97663e-05
-0.000121844
0.00132597
-2.9057e-05
0.00317092
-0.00016092
1.46791e-05
-6.70645e-05
0.00171361
-5.27721e-05
0.000525819
1.39048e-06
-0.00175523
0.00028849
-4.4544e-05
-0.000182719
-4.43867e-05
0.00157681
-0.00058799
-2.30666e-05
3.51477e-05
-0.000271176
0.00216056
-7.16381e-05
8.10632e-05
-0.000170018
-0.000456672
6.70255e-05
0
-0.00106768
-6.14236e-05
0.000794446
0
0.000886711
5.88911e-05
3.31645e-05
0.000206337
-1.05222e-05
-0.00121926
4.84527e-05
0.000170576
-0.00504927
0.000284022
-0.0133015
-0.000120034
-0.000746164
-0.000409572
0
-0.00123559
-2.85105e-05
5.12497e-05
1.10414e-05
0.000929249
0.000297899
0.000771412
0.000901465
0.000221255
7.4967e-05
-0.000105686
9.76604e-05
0.000189108
-0.00145397
4.94003e-05
0.000416686
-0.000181325
-0.000266805
-0.00235064
7.68473e-05
-8.39081e-06
7.37828e-05
-1.13398e-05
-2.91393e-05
-0.000232449
0.000540909
8.04042e-05
0.000713048
2.51725e-06
-4.19503e-06
-2.36363e-05
4.34707e-05
-0.00918116
-0.000271188
1.22041e-05
-2.42706e-06
-9.48864e-05
0.000231999
-0.00170356
0.000433848
0
0.000657209
0.000231715
-7.98676e-05
-0.00239041
-0.000661275
-0.000425279
0.000366957
2.31544e-05
-0.000340576
-8.31799e-05
0.000105592
-4.79243e-05
-0.000265334
8.44946e-05
0.00273268
0.000573885
-0.00106889
-0.00273848
0
7.54965e-06
-0.0217848
0.0142145
0.00858572
-0.000668043
0.0171255
0.00726969
-0.0103659
-0.0333965
-0.0081129
1.88491e-06
0.070143
0.000231883
0.0354921
-0.00160761
-0.00191602
0.0245447
0.00057087
-0.00231046
1.98684e-07
-0.0172025
0.0051506
-0.000394642
4.21878e-06
-0.0311366
-0.000351215
0.00213873
1.02513e-06
0.392058
0.0430785
0.0261673
-0.0096035
-0.0224097
3.7509e-07
-0.00204183
5.46187e-06
-0.000770427
0.0225638
0.0271253
0.0306131
-0.0068073
2.9475
0.00118998
-0.00552168
0.696865
-0.0184624
0.0694048
-0.00114399
2.20637e-06
-0.0167905
0.002021
0.000238576
-0.00372369
-0.000730276
0.0673713
0.048811
-5.77841e-05
2.34676e-07
0
1.96288e-06
0.0643428
-0.00413196
-0.00207051
0.00186076
0.00416176
-0.000399356
1.58683e-05
-0.0069396
2.39311e-06
-0.000489255
0.00874193
-0.000203902
-0.000339874
-0.0059276
5.36028e-07
-0.0120094
-0.0082984
2.37142e-06
-0.00308247
9.07958e-07
3.26863e-06
8.647e-05
-0.0139887
6.37675e-07
-0.00024978
0.000159958
0.0976774
1.82501e-05
6.5473e-05
-0.000325124
1.68834
4.42395e-05
1.39067
-7.72663e-06
6.10536e-05
-0.0244769
0.00160884
8.51225e-06
-0.0176522
0.3856
-0.000515197
0.0010464
5.38938e-07
0.484302
-0.000262479
-1.40908e-05
0.004478
-0.00419666
1.23155
0.000297236
8.88511e-08
0.000490453
-0.00125476
1.12616
-0.000192617
0.000644202
5.05601e-06
0.00285866
1.9671
0.00092428
-0.00504442
2.96146
0.00262434
9.18047e-06
0.261333
0.000361632
-1.32706e-05
0.000439305
-0.000224601
2.47655e-05
-0.000116831
0.000170258
6.29567e-07
-0.00334684
6.92888e-06
0.0239777
1.14017e-05
3.58031e-05
0.000549413
4.71699e-05
0.67017
1.51964e-07
0.00239842
0.00174211
1.23034e-06
0.00078684
9.35093e-06
3.05038
0.000107271
0.0119291
-0.00352392
1.70247e-06
5.94519e-05
1.62083
-2.24704e-05
0.000202688
0.0204467
2.67087
0
0.00144908
3.98887e-07
-0.000213593
-3.63122e-06
0.000113205
-2.78007e-05
1.5674
0.00299364
1.07453e-05
-0.00952469
-0.00105081
-2.83693e-06
-0.0056014
0.000294158
-1.63263e-05
-1.72039e-06
0
-1.3524e-05
-7.04842e-05
-0.000307818
0.000156088
0.000155971
2.02482e-06
0.00298453
0.849755
5.23829e-05
0.000954286
-0.0252729
5.35927e-06
5.71196e-07
0.00177012
2.13025e-05
0.000375747
-0.000799746
0.000339586
-3.57886e-06
8.92663e-07
0.000941568
3.23329e-06
0.00101095
0.000480285
-1.58364e-06
-0.005738
-0.000852313
1.50449e-06
0.000350344
-0.00945755
7.34952e-07
0.00246401
2.1966e-07
0.00147381
3.45805e-05
0.00116091
-0.01612
-0.00278138
-5.52588e-06
0.868764
1.85503e-06
-7.99336e-05
-0.0113091
0.000606308
0.00218112
2.01805e-06
0.000108591
-1.07884e-06
-4.5333e-06
0.000719898
5.01939e-05
0.005935
2.14924
0.132187
2.89461e-05
2.80186
0.00171692
-0.000136058
4.74527e-05
0.180134
-0.0159275
8.1788e-05
3.9835
-1.46378e-05
6.69871e-05
0.00105326
1.86712e-06
0.00157164
0.0263431
7.69235e-05
1.31797e-05
-2.81603e-05
0.105526
0.000337331
0.000554748
-0.000269863
0.0004468
2.48287e-05
0.000208916
0.000195914
0.00260745
0.000502651
-0.000883919
-0.00594323
0.000108331
0.000841613
1.38541e-05
3.24269e-07
3.86841e-05
0.00825311
3.37182e-05
-2.03333e-05
7.52155e-05
-0.00161725
3.07168
-0.00687459
8.2633e-05
3.62161
-0.00547157
7.86362e-07
3.82418e-05
1.55687e-05
2.15072e-05
-1.43319e-06
0.000199799
2.27251e-06
7.08006e-05
4.09485
0.000450573
0.817542
0.00018334
0.000477345
0.00018971
0.000153517
3.3679e-05
2.27153e-06
7.51711e-06
3.43309
2.63107e-05
0.0258841
5.94382e-05
2.09943e-05
0.000856523
-1.77675e-05
0.000121011
-0.00479786
0.000441239
9.12544e-05
-1.15715e-05
0.325338
-0.000506659
0.000142638
-7.41391e-06
-2.47729e-05
0.000132887
-0.00225882
0.000188033
0.000183655
-4.3129e-05
1.99584e-05
0.000109278
-1.24257e-05
0.0183748
0.0170143
0.00031963
-2.28848e-05
3.82545e-05
1.79235e-05
3.74499
3.89512
2.20077e-05
3.69205
-0.00332735
0.000143697
3.55888
0
7.52705e-06
3.98038
0.000728667
-0.00673525
0.000104259
1.39908
0.000121838
0.00015571
7.97486e-06
1.72988
0.000241893
-6.03911e-06
0.00055748
-9.92632e-05
6.35326e-05
3.21528
0.000165045
2.32835
-0.000974695
6.94855e-05
2.66824
-0.000197909
0.00020852
0.847858
0.000490736
0.012599
0.000575247
0
-0.0168193
1.43138
-0.000789901
-0.00221343
-0.00644521
1.14961e-06
0.000542034
5.51098e-05
2.90155e-06
0.00138195
0.000664312
-9.02084e-05
-3.39725e-05
-3.96342e-05
0.000247943
1.53681e-05
7.76194e-05
0.000481889
3.98921e-06
0.00048467
5.69911e-06
0.00101993
0.000124882
0.00459607
-1.81158e-05
-0.0135462
0.000529317
0
0
-0.000661964
2.26819
5.18119e-05
0.61478
4.43828e-05
8.13599e-05
0.720025
-3.91369e-06
0.0072929
1.8926e-05
1.99324
0.00378698
9.96162e-07
-0.000731969
2.40903e-05
2.03506
-0.00126611
9.42698e-06
2.53008
2.27896
2.80836
-0.0141001
0.0001154
1.67248e-05
2.40932
3.81062
2.03169
0.000632896
1.34907
0.0160334
2.1248
6.25827e-05
-0.0331845
2.20254
4.43721
0.446387
-0.0210566
4.30641
-0.00367695
0.439928
0.858554
2.45662
1.83531
3.4706
0.0166824
3.90139
0.0225203
4.36812
-0.0127968
4.36754
-0.0301669
-0.0295294
4.22617
0.766289
-0.0236163
-0.000490492
-6.05587e-05
-9.63931e-05
4.09749
0.000622055
-0.00152516
4.17722
-0.000125528
3.71285
4.30848
-0.00422308
4.10644
0.000537065
3.69548
-0.000135147
4.31845
-0.0357234
4.22072
0.00934254
4.03227
0.000219261
-0.00220432
3.67488
-0.000177689
0.266334
3.93969
-0.0185923
3.46853
-0.00266759
2.75462
3.82902
2.96625
2.90848
2.77113
-0.0202583
7.96212e-07
3.98719
-0.00531384
3.58549
3.22729
4.721
0.657736
4.45734
1.55602
3.2677
6.18242e-05
0.00213855
8.46025e-07
1.94363
2.14651
3.98103
2.85962
-0.000365516
-0.0173139
2.42929e-07
4.13983
1.2494
3.69489
3.8808
0.000136448
0.00558302
1.37647
2.61581
3.01936
3.87828
0.435502
-0.0195776
3.97581
0.00216662
4.76889e-06
0.561662
2.63399
-0.000140361
0.436791
4.24267
6.51907e-05
1.45444
0.935708
4.32271
1.05654
0.000124866
-0.00834292
2.93927e-07
3.65322
2.72955
2.20386e-05
4.15237
3.48415
3.52208
2.52721
0.0138998
5.07035e-07
4.30917
3.21473
3.79786
2.89058
4.06858
2.97282
0.00428983
3.17383
0.00192833
0.322685
4.13869
0.000467955
-0.000590664
-0.0127814
2.03905
3.69019
0
0.0105537
3.48485
1.13173e-05
3.30135
3.52963
-0.000154448
1.26034
-0.000283304
3.12946
3.55606
-7.21252e-05
-0.00335648
3.10433
1.56069
1.17514
2.49017
4.69584
0.602128
3.52532
3.95816
2.55194
1.43718
3.47988
0.280573
0.456171
0.192973
1.27288
0.000237634
1.74799e-05
-8.17329e-06
2.22049
-0.000292847
0.392315
2.48875
4.02021
2.18729
-0.000139558
-2.83436e-05
1.87504e-06
4.16969
2.01576
3.92488
0.400105
0.000253144
1.54935e-07
-0.000179989
4.12198
0.392725
0.160375
2.99688
1.14145
0.464435
0.641224
-0.00471396
3.55654
0.000115046
0.998478
0.780736
-8.62851e-05
3.69814
0.000531773
3.57082
4.14232
0.259815
4.46927
-0.0386228
2.50932
0.000357284
0.00173878
1.69893
0
-0.00271299
4.19733
-0.0151217
4.00153
0.000298076
-0.00620286
2.7472
4.20913
-0.000356332
-0.00694809
3.86465
-0.00041828
-0.00363492
4.47456
2.01948
2.79543
3.78488
1.87456
0.000335978
-0.0099626
3.7586
0.194694
3.4461
0.301715
1.51962
1.79093
0.305256
-0.0182405
4.32026
-0.0107992
1.68104e-06
1.86913
-0.00249401
3.15436
2.27463
0.340363
3.90453
0.126192
0.430832
0.0934355
0.165
0.21341
2.34673
3.8709
3.64254e-05
3.65903
0.0242381
3.58903
0.000154492
0.72909
4.18259
-0.000205156
2.32164
0.751024
0.124985
2.82904
4.1498
0.126474
3.96569
2.20907
-0.00486012
1.44238e-06
3.06393
0.0163494
-0.00782871
0.000496858
0
0.175845
0.00150352
3.70339
3.83375
4.62309
3.62213
0.433047
-0.00071113
-0.00209262
6.7126e-06
0.257625
0.00654432
3.69867
2.35378
-3.9076e-05
0.962617
3.32295
0.89329
2.48196
1.19286
1.18189
4.33211
-0.000181283
-0.00055917
1.43496e-05
-7.55732e-05
2.86208
-0.00185512
-0.0004211
6.62512e-07
-0.000680846
-0.000478927
0.000828059
9.58701e-06
2.39976
1.9477e-06
-0.00534968
0.0169472
1.90129e-05
2.33783e-06
-0.00126511
2.03167e-05
-0.0043945
-0.000396404
-0.000288411
0.000839047
3.88075e-05
1.82347e-05
0.000576091
1.47255e-06
0.00211327
2.63461e-06
-0.0083519
0.000169082
4.07327e-05
4.88029e-06
3.06398e-05
-2.97857e-06
0.000119534
2.5808e-06
-0.0134001
4.85359e-06
6.20767e-05
-0.000536778
0.00478872
-0.00038068
0.000354198
2.91272e-06
-0.00215347
0.000807685
0.00246568
0.077043
-0.00144462
0.000530993
0.000277335
7.23952e-05
0.0129308
-0.0026325
-1.02755e-05
2.2587e-05
0.0106147
-0.000885177
0.000146733
0.000271283
1.06128e-05
-0.0013631
0.000452606
0.00128835
4.79307e-05
-0.000477008
6.83092e-06
1.89942
2.95208e-07
-0.00606231
0.00506101
-5.34411e-05
5.70514e-06
0.00296789
6.74049e-08
0.00533161
6.21555e-06
0.000332093
-0.00214376
-8.8516e-05
-2.96009e-05
0.00047564
2.18908e-06
-0.00365862
3.36873e-06
0.00264507
0.000139845
-0.00779684
-0.00173329
-0.0037843
0.0002381
0.372497
5.99583e-06
-0.00149469
0.000286976
0.00928307
7.09957e-06
3.35485e-05
0.00190551
-0.00156363
-0.000389156
0.000257058
-0.000645507
0.000278006
-0.000650365
0.00265048
0.00017578
0.000103673
1.70209e-05
-0.00210008
0.000272732
0.000334402
5.93537e-05
2.29168e-05
1.36193e-06
0.0122572
-7.54477e-05
0.000441403
4.23768e-07
-0.00372037
0.00963091
-0.00129182
-0.000480778
-0.000327083
0.000490536
9.63819e-06
1.54451e-05
-3.46184e-06
0.00139397
4.01564e-06
1.11639e-05
-0.00032406
8.1162e-06
-6.30995e-05
3.36331e-06
0.00337396
2.34122
2.79752e-06
-0.00132867
2.96399e-06
1.37808
4.77482e-06
1.73865e-05
2.32841e-06
0.00775558
2.69401e-06
3.55458e-06
1.12514e-05
3.49565e-07
0.00172333
8.13962e-07
-0.00370276
3.77407e-06
0.000153818
2.77292e-05
0.00209661
0.000149731
0.0083168
7.15491e-06
0.0125571
0.000213953
0.000675112
8.98213e-05
0.00019441
-0.00458864
-0.00263926
0.00118287
0.0030878
6.438e-05
0.0045668
-0.00182546
0.000254133
-0.00220499
0.0016593
0.00287469
8.37781e-05
0.0155835
-0.00087914
0.000210336
0.0100321
1.70665e-06
0.00972974
0.000327131
0.000672816
4.03228e-05
-7.74749e-05
2.41402e-05
0.00466235
-1.65339e-05
0.00241168
3.81127e-05
-4.58065e-06
-0.0021756
0.000114542
-0.000709926
-0.000116912
0.00184451
-1.03699e-06
-0.00294024
-4.20676e-05
1.7299e-06
1.764e-05
2.77551e-05
-0.000237611
-0.000446635
7.34552e-05
7.9504e-06
-0.00177098
-8.09543e-05
-6.9605e-05
8.84766e-05
-0.00446938
-1.71978e-05
-0.00178944
-2.88452e-05
6.88009e-06
-0.00154097
3.14894e-05
0.000703666
4.79272e-05
-0.000304261
-7.49578e-06
-0.00410423
-4.36411e-05
1.40396e-06
-0.00282799
3.84358e-05
0.00263078
0
-0.0173988
1.04855e-05
-0.000119097
0.000239334
6.2781e-06
-0.000811223
0.000187769
6.13422e-07
-0.000292362
-5.71415e-05
0.000163869
-0.000175316
0.000367062
0.000140399
-0.000631432
0.00263328
0.00251414
0.000191772
0.000121714
2.56969
-0.000328869
0.000655722
0.000803346
-0.00070385
-0.000586798
-3.39543e-06
0.000151587
0.000605322
-0.000109855
-0.000165382
-0.00071267
0.000107338
0.00157347
-0.000206295
-0.000543712
2.95956e-05
1.66859e-05
-0.0010405
5.12943e-07
5.82622e-06
0.00872113
2.9749e-05
-0.000402255
0.000150146
-8.37906e-05
-0.000123265
-0.00646856
-1.93654e-05
0.00119448
5.38405e-05
0.00331707
-5.00425e-06
0.00593283
9.32461e-05
-0.000640694
1.23559e-06
3.88205e-05
-2.62341e-05
0.000323257
5.95003e-06
0.00571414
-0.000448493
-8.92203e-07
0.000330292
-0.000440865
7.67846e-05
-0.000137217
-1.12831e-05
-0.00183543
0.000118154
-0.000640465
8.73401e-05
-3.02551e-05
5.66081e-05
-0.00172723
6.53261e-05
1.0295e-06
-0.0102036
-5.62829e-05
-0.000110857
-0.00591329
-2.0369e-05
-0.000404652
2.22141e-06
-0.00308012
-0.000108477
5.27104e-05
-0.000119135
3.37491e-05
0.0287754
4.30125e-06
0.00711783
0.00381949
-1.7535e-06
-0.0133052
2.38536e-05
2.01184e-05
0.000154844
0.000107649
5.36511e-05
-0.000196712
0.016209
2.05376
1.42462
0.504234
-2.54098e-06
-0.00249936
2.76037e-05
3.07602
1.3291e-06
0.0146108
5.78696e-05
-0.000165481
0.00505892
2.68459
0
0.000109287
0.000784965
-9.98629e-07
0.000675933
-0.00012421
1.4479e-06
5.25153e-05
-0.00198959
5.00626e-06
-1.8019e-05
1.96814e-05
0
0.00221006
2.81772e-06
-0.00991109
2.92907e-05
4.20944e-05
0.00897418
-1.79195e-05
-2.84855e-05
0.0067023
5.6222e-05
-0.00216262
-2.48002e-05
-0.000198052
-0.000173796
0.0018276
-2.02918e-05
0.00160971
0
0.00028844
-5.45965e-05
-1.77333e-05
8.41895e-06
8.45664e-07
0.0117482
6.36357e-06
-3.14451e-05
1.40319e-05
-0.00106947
-2.01467e-05
-0.00230973
2.36016e-06
0.00213262
7.54059e-07
-0.0131768
-0.000247957
-1.6086e-05
1.15086e-05
-0.000208922
2.86143e-06
0.706673
6.36893e-06
-5.77983e-05
2.93821e-07
3.37737e-06
-0.0115459
0.000583107
-1.39623e-05
0.000161463
-0.0081719
4.34881e-06
0.0181364
0.0058003
0.00225181
6.87601e-07
-0.00244056
-0.000204817
0.00182349
-3.44786e-05
-1.5084e-05
3.96655
-1.78451e-06
2.77536e-05
-0.00343043
-0.00133744
0
7.969e-05
-0.00447841
0.00965692
-0.00150028
0.00011012
-9.15914e-05
-0.000188482
-0.00112715
0.00024697
0.00038452
0
-0.000303609
-0.000127859
0
-4.55884e-05
2.73654e-06
-3.14162e-05
-0.00422996
0.000354597
0
-0.0020218
0.301684
1.59053
0.00109333
-0.00473863
0.00293869
1.61967e-07
-0.00149389
-0.00418678
0
8.20364e-05
0.0011137
0.00014371
-0.000214059
1.72564
0.00270192
-5.747e-05
0.0118116
-3.15994e-05
7.00912e-06
0.00564733
0.000281354
0.00106674
4.62988e-05
-1.33395e-06
-0.00595259
0.0585034
1.73724e-06
2.724e-05
-1.30723e-05
8.97582e-06
-4.30952e-05
-7.94144e-06
0.00336574
5.97641e-05
1.87038e-05
0.00459102
9.49002e-07
-0.0113443
1.60574e-05
2.22237e-05
0.0045056
5.10572e-05
-0.000500595
8.75428e-05
0.0106599
2.35941
0.0021251
-1.42987e-06
0.134791
5.9007e-07
0.000358814
7.05467e-06
-0.0003722
-4.68772e-05
-8.57452e-05
0.00745288
8.67946e-05
0.000114145
2.08596
0.00025654
0.00132602
0.000192536
7.88632e-07
-0.000737037
3.71442
8.77673e-07
1.08307e-05
0.804239
-1.20193e-06
-0.012315
-0.000256523
0.997182
-2.22199e-06
-0.00356813
2.98995
6.3331e-05
5.25641e-06
-0.00031065
0.00398335
0.000283589
1.38105
1.53593e-06
-0.0119691
2.16459e-05
0.0114878
0.311939
2.52542
0.000539995
4.92669e-05
6.08605e-07
-0.0156149
2.12922e-05
2.86145e-06
0.00227062
4.58663e-07
-0.0328901
0.00168312
5.48974e-05
0.00335447
-0.0136178
0.000200855
-0.000272018
0.00568099
-6.36715e-05
0.0002543
2.4483e-06
-0.0145045
2.2447e-05
1.53206e-06
0.00217724
0.000518053
-5.41063e-05
0.00538552
0.000171094
0.160884
8.50217e-06
-0.00368075
0.000166985
0
4.26304e-07
9.34336e-05
0.27426
2.46536e-06
0.000375619
-0.00304818
0.00218392
-0.0133706
0.000147621
-0.000171877
0.00014756
0.00208121
1.11025
-6.32357e-07
8.30655e-06
-3.15545e-05
2.41278e-06
-0.0108353
1.15972e-05
-0.000349876
-1.96004e-06
-1.19984e-05
6.81453e-06
7.51315e-05
3.45691e-07
-0.0186388
7.0413e-07
-2.77002e-05
0.000242371
3.20966e-06
0.00510808
-0.000603097
9.54017e-06
1.24724e-06
8.19957e-05
-1.08707e-06
0.00165504
0.00602455
0.0183551
-0.00035932
8.8438e-05
4.00867e-06
-0.00346277
1.70774e-05
1.49697e-06
4.38071e-06
3.11449e-05
2.63314e-05
0
7.45633e-06
3.924e-05
1.16135e-05
0.000733091
0.00574712
3.34434
-0.00056593
0.00384588
-8.57847e-07
-0.00648531
-3.38762e-05
8.60869e-06
-0.000973101
-0.00806134
0.0387522
3.24913
7.74296e-05
0.000876808
0.140795
-8.04716e-05
0.000442437
0.210124
-0.000318832
2.96549e-05
1.61461e-06
0.00616153
0.000853584
1.40987e-06
-0.0101637
1.77088e-05
5.61558e-06
0.00434717
0.000128231
4.3464e-05
0.390325
0.00144847
2.07031
-0.000591897
0.000601739
8.64875e-07
-0.00617505
2.26482e-05
0.00415326
2.09906
0.000272037
0.00206586
-1.03647e-05
0
0.00926378
1.70774
0.000269766
1.00143e-06
4.94001e-05
2.3597e-06
0.00366242
0.00391639
0.074092
-4.26342e-05
-0.000744321
-6.09098e-05
4.67255
-0.000770664
1.94618e-05
1.8222e-05
2.86786
-0.0112481
9.86211e-06
4.06196e-06
-0.0150964
-0.00293496
0.00305548
0.00352646
7.23909e-05
-0.00144835
0.479131
-0.000524663
1.35981e-06
8.80284e-06
0.000366448
2.30185e-06
-0.0138548
2.0738e-05
3.40449
1.08577e-06
0.0017322
0.000176802
-0.000103004
-0.00370904
3.66934
0.00215653
3.48873
-0.000621844
0.00364471
0.491857
-0.000177562
0
2.53219e-05
1.88472e-06
3.98719e-05
-0.00159977
0.00583536
0.0263312
1.50076
-0.000164085
0.00362103
2.03583
-0.0015708
0.00241347
3.79464
-8.62651e-06
0.342297
-0.00333167
0.000306632
-0.0122353
6.83398e-05
-0.00300045
3.4498
-8.92567e-05
-0.00291546
3.67126
6.81111e-05
-0.00118391
3.60024
0.000401694
3.9532e-06
0.00449219
1.59591e-05
7.6178e-07
-0.00207766
-0.00112034
0.00106072
5.75035e-05
0.000335046
0.000682027
0
8.62047e-07
-0.00874843
1.45781e-05
-2.2276e-05
-0.000558723
-0.02331
-3.21855e-05
1.51747e-05
0.000109289
0.0130534
7.60308e-05
0.000157006
0.00362242
-0.016421
0
0.000188715
9.42013e-05
3.43437e-06
2.59153e-07
0.00138572
6.30266e-07
0.00381846
3.79285e-06
1.06088e-06
-0.000958229
4.18185e-05
-3.52406e-06
-0.00140584
0.00283667
8.19974e-07
0.00104462
-0.000451671