# vtk DataFile Version 2.0
Unstructured Grid by M++
ASCII
DATASET UNSTRUCTURED_GRID
POINTS 4072 float
  0.562500   0.968750 0
  0.906250   0.500000 0
  0.750000   0.781250 0
  0.953125   0.531250 0
  0.984375   0.875000 0
  0.828125   0.828125 0
  0.828125   0.859375 0
  0.562500   0.765625 0
  0.937500   0.687500 0
  0.968750   0.578125 0
  0.968750   0.781250 0
  0.734375   0.843750 0
  0.968750   0.718750 0
  0.734375   0.796875 0
  0.984375   0.718750 0
  0.984375   0.703125 0
  1.000000   0.750000 0
  0.984375   0.734375 0
  1.000000   0.718750 0
  0.953125   0.859375 0
  0.953125   0.843750 0
  0.937500   0.843750 0
  0.921875   0.640625 0
  0.937500   0.625000 0
  0.671875   0.906250 0
  0.687500   0.890625 0
  1.000000   0.687500 0
  0.828125   0.796875 0
  0.828125   0.750000 0
  0.515625   0.750000 0
  0.828125   0.937500 0
  0.968750   0.625000 0
  0.984375   0.593750 0
  0.984375   0.796875 0
  0.750000   0.859375 0
  0.859375   0.937500 0
  0.828125   0.953125 0
  0.859375   0.781250 0
  0.593750   0.515625 0
  0.984375   0.750000 0
  0.734375   0.828125 0
  1.000000   0.734375 0
  0.750000   0.812500 0
  0.953125   0.562500 0
  0.968750   0.750000 0
  0.734375   0.812500 0
  0.968750   0.546875 0
  0.843750   0.906250 0
  0.875000   0.875000 0
  0.578125   0.640625 0
  0.750000   0.968750 0
  0.984375   0.906250 0
  0.625000   0.515625 0
  0.937500   0.593750 0
  0.781250   0.578125 0
  0.640625   0.968750 0
  0.937500   0.531250 0
  0.937500   0.515625 0
  0.953125   0.500000 0
  0.703125   0.796875 0
  0.859375   0.718750 0
  0.703125   0.765625 0
  0.921875   0.703125 0
  0.687500   0.765625 0
  0.921875   0.500000 0
  0.718750   0.781250 0
  0.734375   0.765625 0
  0.968750   0.687500 0
  0.968750   0.890625 0
  0.734375   0.953125 0
  0.859375   0.828125 0
  0.890625   0.484375 0
  0.843750   0.843750 0
  0.828125   0.765625 0
  0.968750   0.906250 0
  0.796875   0.578125 0
  0.765625   0.828125 0
  0.609375   0.968750 0
  0.734375   0.656250 0
  0.671875   0.875000 0
  0.531250   0.906250 0
  0.546875   0.921875 0
  0.765625   0.656250 0
  0.531250   0.937500 0
  0.531250   0.734375 0
  0.765625   0.671875 0
  0.843750   0.734375 0
  0.843750   0.937500 0
  0.609375   1.000000 0
  0.593750   0.796875 0
  0.828125   0.734375 0
  0.578125   0.812500 0
  0.671875   0.562500 0
  0.781250   0.562500 0
  0.656250   1.000000 0
  0.765625   0.796875 0
  0.656250   0.593750 0
  0.796875   0.562500 0
  0.625000   0.828125 0
  0.625000   0.625000 0
  0.859375   0.562500 0
  0.796875   1.000000 0
  0.890625   0.781250 0
  0.875000   0.781250 0
  0.625000   0.859375 0
  0.843750   0.781250 0
  0.859375   0.765625 0
  0.843750   0.765625 0
  0.859375   0.750000 0
  0.843750   0.750000 0
  0.765625   1.000000 0
  0.781250   0.984375 0
  0.875000   0.625000 0
  0.875000   0.812500 0
  0.640625   0.875000 0
  0.562500   0.906250 0
  0.796875   0.843750 0
  0.796875   0.828125 0
  0.656250   0.906250 0
  0.890625   0.640625 0
  0.875000   0.843750 0
  0.859375   0.843750 0
  0.625000   0.906250 0
  0.812500   0.875000 0
  0.859375   0.515625 0
  0.812500   0.843750 0
  0.796875   0.875000 0
  0.796875   0.859375 0
  0.593750   0.968750 0
  0.859375   0.875000 0
  0.625000   0.937500 0
  0.843750   0.875000 0
  0.593750   0.953125 0
  0.859375   0.859375 0
  0.828125   0.671875 0
  0.890625   0.765625 0
  0.656250   0.828125 0
  0.656250   0.625000 0
  0.890625   0.562500 0
  0.640625   0.843750 0
  0.640625   0.640625 0
  0.875000   0.578125 0
  0.890625   0.750000 0
  0.875000   0.765625 0
  0.562500   0.625000 0
  0.968750   0.500000 0
  0.734375   0.562500 0
  0.937500   0.578125 0
  0.703125   0.640625 0
  0.656250   0.984375 0
  0.640625   1.000000 0
  0.953125   0.578125 0
  0.671875   0.984375 0
  0.906250   0.921875 0
  0.921875   0.687500 0
  0.671875   0.765625 0
  0.687500   0.750000 0
  0.906250   0.484375 0
  0.984375   0.921875 0
  0.734375   1.000000 0
  1.000000   0.906250 0
  0.750000   0.984375 0
  0.828125   0.843750 0
  0.593750   0.906250 0
  0.828125   0.640625 0
  0.843750   0.828125 0
  0.609375   0.890625 0
  0.609375   0.687500 0
  0.843750   0.625000 0
  0.734375   0.875000 0
  0.968750   0.812500 0
  0.859375   0.812500 0
  0.625000   0.875000 0
  0.859375   0.609375 0
  0.843750   0.812500 0
  0.859375   0.796875 0
  0.828125   0.812500 0
  0.593750   0.875000 0
  0.828125   0.609375 0
  0.781250   0.843750 0
  0.515625   0.921875 0
  1.000000   0.781250 0
  0.765625   0.843750 0
  1.000000   0.578125 0
  0.765625   0.968750 0
  0.890625   0.703125 0
  0.656250   0.765625 0
  0.890625   0.500000 0
  0.875000   0.703125 0
  0.937500   0.937500 0
  0.984375   0.578125 0
  0.578125   0.531250 0
  0.875000   0.609375 0
  0.640625   0.671875 0
  0.796875   0.625000 0
  0.859375   0.593750 0
  0.625000   0.656250 0
  0.609375   0.671875 0
  0.593750   0.687500 0
  1.000000   0.562500 0
  0.765625   0.625000 0
  0.656250   0.578125 0
  0.625000   0.546875 0
  0.671875   0.812500 0
  0.906250   0.750000 0
  0.796875   0.546875 0
  0.828125   0.718750 0
  0.578125   0.781250 0
  0.875000   0.656250 0
  0.640625   0.718750 0
  0.734375   0.984375 0
  0.968750   0.921875 0
  0.609375   0.531250 0
  0.953125   0.921875 0
  0.968750   0.937500 0
  0.593750   0.546875 0
  0.765625   0.609375 0
  0.531250   0.671875 0
  0.781250   0.593750 0
  0.546875   0.656250 0
  0.656250   0.656250 0
  0.890625   0.593750 0
  0.656250   0.859375 0
  0.921875   0.671875 0
  0.968750   0.734375 0
  0.718750   0.812500 0
  0.812500   0.984375 0
  0.562500   0.796875 0
  0.750000   0.640625 0
  0.765625   0.687500 0
  0.531250   0.953125 0
  0.687500   0.656250 0
  0.921875   0.593750 0
  1.000000   0.593750 0
  0.750000   0.671875 0
  0.671875   0.750000 0
  0.906250   0.687500 0
  1.000000   0.656250 0
  0.812500   0.562500 0
  0.687500   0.796875 0
  0.921875   0.734375 0
  0.828125   0.546875 0
  1.000000   0.625000 0
  0.953125   0.968750 0
  0.750000   0.906250 0
  0.515625   0.968750 0
  0.812500   0.531250 0
  1.000000   0.796875 0
  0.515625   0.937500 0
  0.750000   0.875000 0
  0.812500   0.703125 0
  0.796875   0.703125 0
  0.812500   0.593750 0
  0.937500   0.562500 0
  0.656250   0.968750 0
  0.890625   0.906250 0
  0.703125   0.625000 0
  0.953125   0.546875 0
  0.671875   0.953125 0
  0.906250   0.890625 0
  0.984375   0.781250 0
  0.796875   0.687500 0
  0.562500   0.953125 0
  0.968750   0.875000 0
  0.718750   0.953125 0
  0.562500   0.937500 0
  0.781250   0.781250 0
  0.953125   0.875000 0
  0.718750   0.937500 0
  0.953125   0.671875 0
  0.796875   0.656250 0
  0.828125   1.000000 0
  0.953125   0.890625 0
  0.703125   0.968750 0
  0.828125   0.625000 0
  0.781250   0.968750 0
  0.781250   0.671875 0
  0.781250   0.875000 0
  0.546875   0.937500 0
  0.906250   0.640625 0
  0.671875   0.703125 0
  0.640625   0.609375 0
  0.875000   0.546875 0
  0.906250   0.625000 0
  0.656250   0.703125 0
  0.656250   0.718750 0
  0.968750   0.531250 0
  0.734375   0.593750 0
  0.984375   0.531250 0
  0.781250   0.546875 0
  0.718750   0.609375 0
  0.906250   0.703125 0
  0.968750   0.593750 0
  0.687500   1.000000 0
  0.921875   0.937500 0
  0.906250   0.765625 0
  0.906250   0.562500 0
  0.718750   0.750000 0
  0.718750   0.546875 0
  0.953125   0.484375 0
  0.796875   0.593750 0
  0.515625   1.000000 0
  0.750000   0.937500 0
  0.906250   0.593750 0
  0.546875   1.000000 0
  0.781250   0.937500 0
  0.828125   0.593750 0
  0.984375   0.609375 0
  0.937500   0.953125 0
  0.796875   0.515625 0
  0.968750   0.609375 0
  0.734375   0.671875 0
  0.906250   0.781250 0
  0.671875   0.843750 0
  0.515625   0.890625 0
  0.687500   0.625000 0
  0.921875   0.562500 0
  0.843750   0.531250 0
  1.000000   0.765625 0
  0.750000   0.843750 0
  0.812500   0.671875 0
  0.687500   0.921875 0
  0.765625   0.515625 0
  0.953125   0.609375 0
  0.921875   0.625000 0
  0.687500   0.687500 0
  0.812500   0.656250 0
  0.812500   0.859375 0
  0.578125   0.921875 0
  0.796875   0.765625 0
  0.890625   0.687500 0
  0.578125   0.750000 0
  0.812500   0.687500 0
  0.578125   0.953125 0
  0.796875   0.796875 0
  0.984375   0.890625 0
  0.734375   0.968750 0
  0.718750   0.640625 0
  0.968750   0.562500 0
  0.687500   0.968750 0
  0.921875   0.906250 0
  0.765625   0.953125 0
  0.812500   0.609375 0
  0.812500   0.734375 0
  0.875000   0.562500 0
  0.968750   0.656250 0
  0.796875   0.734375 0
  0.812500   0.828125 0
  0.578125   0.890625 0
  0.781250   0.687500 0
  0.984375   0.671875 0
  0.578125   0.828125 0
  0.812500   0.765625 0
  0.875000   0.593750 0
  1.000000   0.875000 0
  0.765625   0.937500 0
  0.843750   0.656250 0
  0.843750   0.859375 0
  0.609375   0.921875 0
  0.828125   0.687500 0
  0.937500   0.656250 0
  0.937500   0.859375 0
  0.703125   0.921875 0
  0.984375   0.640625 0
  0.890625   0.468750 0
  0.656250   0.734375 0
  0.890625   0.671875 0
  0.890625   0.875000 0
  0.656250   0.937500 0
  0.578125   0.859375 0
  0.812500   0.796875 0
  0.843750   0.890625 0
  0.609375   0.953125 0
  0.937500   0.875000 0
  0.687500   0.953125 0
  0.843750   0.953125 0
  0.828125   0.703125 0
  0.593750   0.765625 0
  0.937500   0.546875 0
  0.781250   0.531250 0
  0.781250   0.734375 0
  0.546875   0.796875 0
  0.796875   0.718750 0
  0.562500   0.984375 0
  0.984375   0.812500 0
  0.562500   0.812500 0
  0.796875   0.750000 0
  0.562500   0.875000 0
  0.796875   0.812500 0
  0.640625   0.750000 0
  0.875000   0.687500 0
  0.703125   0.671875 0
  0.937500   0.609375 0
  0.562500   0.843750 0
  0.796875   0.781250 0
  0.781250   0.750000 0
  0.781250   0.609375 0
  0.812500   0.953125 0
  0.812500   0.718750 0
  0.953125   0.593750 0
  0.718750   0.656250 0
  0.671875   1.000000 0
  0.796875   0.953125 0
  0.843750   0.609375 0
  0.812500   0.812500 0
  0.812500   0.781250 0
  0.750000   0.953125 0
  0.750000   0.750000 0
  0.984375   0.687500 0
  0.781250   1.000000 0
  0.765625   0.546875 0
  0.765625   0.750000 0
[...]
POINT_DATA 4072
SCALARS scalar_value float 1
LOOKUP_TABLE default
0.0224127
1.41104e-07
3.21948
-1.50676e-07
0
0.0499917
0.00543832
13.7524
-2.24706e-05
-2.35203e-08
-1.97255e-07
1.18597
-1.16171e-06
3.67058
-4.43687e-08
6.00165e-08
7.5324e-09
-8.95349e-08
6.2804e-08
-9.26451e-10
1.56174e-09
1.17484e-08
-2.83157e-05
1.10254e-06
0.288935
0.412518
1.40564e-07
0.139561
0.222191
15.0002
4.16806e-05
6.97081e-07
-5.45177e-08
-3.44137e-09
0.574531
4.76072e-06
2.66263e-05
0.0287355
0.00600308
-7.80939e-08
1.94328
2.60455e-08
2.12236
3.07843e-08
-7.94192e-07
2.80634
-1.26467e-07
1.65879e-05
6.37061e-07
1.80065
0.000254672
0
0.00636412
2.99126e-06
0.0161061
0.0138825
-1.47092e-07
-8.32197e-08
-2.03575e-08
5.99335
0.0284219
8.01887
-2.23002e-05
9.56745
-3.16242e-08
5.75823
4.91394
-3.56948e-07
-1.83963e-10
0.00125283
0.00243493
7.93833e-07
0.00386915
0.213082
0
0.00616632
1.17057
0.0189183
1.53579
1.12527
0.835094
0.400325
0.682243
0.181476
14.1948
1.00569
0.089904
1.54554e-05
0
12.2472
0.210477
10.4871
0.0538966
0.00628778
0
1.89277
0.314722
0.00194663
7.17637
1.1478
-8.87929e-05
0
0.00363491
0.0106416
3.30083
0.0751543
0.035165
0.0904806
0.0368943
0.0953507
0
2.28331e-05
-0.000266896
0.00383657
1.73895
0.792654
0.309805
0.417726
0.392819
-0.000192607
0.000173577
0.00059306
0.586921
0.0177675
1.48884e-06
0.097622
0.179047
0.228736
0.020533
9.00103e-06
0.124668
0.000121896
0.0613542
8.21971e-05
0.0692259
0.0039229
5.74656
1.37925
1.638e-05
4.53397
2.38817
-3.56705e-05
0.00375286
0.0125343
1.60326
-1.90248e-09
0.0429322
1.78015e-06
1.68623
0.00263772
0
4.68397e-07
0.00184631
8.08419e-08
-5.12827e-05
10.9477
9.87455
7.81442e-08
0
0
0
6.85684e-05
0.0211294
0.720337
0.0218828
0.0123259
1.25808
4.15578
0.0023363
0.238221
-3.15555e-09
0.00865242
2.0006
-0.000308383
0.0291875
0.018832
0.0914168
2.36726
0.00372166
0.616485
0.419762
9.16214e-10
0.863767
-5.66762e-08
0.000148098
0.00145783
12.0405
1.58367e-06
0.00632274
1.1483e-09
-7.79053e-08
0.0170148
-0.000230679
5.92369
0.0699156
-0.000296639
3.32689
3.28353
2.899
-3.32539e-08
0.253952
0.114675
0.0319259
6.73286
0.00086618
0.000352031
0.182231
13.4416
0.000560235
11.1668
0.000136993
0
0.0145864
0
0
0.0313442
0.139176
7.89752
0.0365004
5.25698
3.88974
-2.84177e-05
2.46919
-5.77368e-05
-1.0936e-06
3.6243
6.21309e-06
12.4709
0.682559
1.38224
0.070756
3.12705
4.77326e-06
-7.14808e-08
1.55088
11.2038
1.26707e-05
9.56377e-08
0.000139751
7.27945
8.20561e-05
-0.000254189
-2.92521e-08
0
0.0228732
0.0231128
-0.000217434
2.86248e-10
0.184857
0.290257
0.313074
0.610984
0.00516561
4.65147e-07
0.0106793
3.42852e-07
1.01037
-1.8232e-07
0.0219544
1.60424e-08
-1.54725e-08
0.463932
0.0676349
-2.24592e-10
0.00329451
0.172191
1.39745
-1.23635e-09
0.00877207
-2.82452e-06
0.21223
0
-7.97165e-10
0.00251622
0.0100267
8.98666e-05
0.600175
0.434839
0.177394
-9.59317e-05
8.4941
0.685631
6.52451e-07
-5.62568e-05
9.27251
10.6877
-7.81337e-08
0.179868
-1.68619e-08
0.00203958
0.455659
0.000193015
1.67341e-07
0
9.78309e-09
0.000961783
6.75155e-06
6.68154
0.0275447
3.96117e-10
0.0157318
0
0.00139719
8.1448e-07
0
0.000277626
0.000890752
1.02974e-08
5.16491e-10
-0.000155442
4.34793e-07
2.22004
0.000946554
3.25546
1.58308
1.18447
2.05553e-06
-6.44817e-05
2.09781e-09
1.00017
0.159734
0.0853606
0.000415277
1.63855e-06
-1.07931e-05
6.00714
0.100283
0.0463387
0.372649
0.874993
0.000699228
13.1944
0.233127
0.0650343
0.68045
0
0.000507135
1.33726
-1.17199e-07
0.00463632
1.12547e-08
0.000338865
0.0134009
0.443507
-4.15212e-06
6.74397e-07
0.847047
0.165354
1.4301
0.836797
2.72844e-07
8.16892
0.454803
-0.000124419
0
0.000496666
0.0142426
0.00074937
0.321253
0.104813
-1.07882e-05
-2.56899e-09
0.0487344
2.17159e-07
2.80761e-07
11.6973
0.00017125
-5.34843e-08
0.0797914
3.96641
0.331095
3.81985e-06
0.0562148
-4.40062e-09
0.0136401
9.05902e-06
0.144502
13.2487
-9.71621e-08
0.000445803
1.47708
12.4506
0.746543
0.00531516
0
10.5253
0.89291
2.54482
0.546083
12.7529
0.00378768
3.7536
3.12985e-06
5.9855
0.79824
1.55143
0.075089
6.55399e-05
0.38781
1.07816e-06
2.06513
0
0.000126156
0.000378826
0.246091
0.405761
0.00061139
3.66944
1.85039e-07
0
0.0055141
2.47651
10.4089
-0.000116578
0.131985
8.22988
0.468004
0.785574
1.51627
4.74113e-09
0.0708692
0.991274
0.00660824
1.28495e-05
-2.76652e-08
1.78444e-06
3.99452
0.000168908
0
8.63791e-05
-4.52163e-08
0.228737
0.000205431
14.541
8.66077
1.73311e-09
0.0587424
0.0042031
3.53528
12.3232
5.26976e-05
13.7439
2.68059
14.7622
0.000429593
10.027
3.94062e-06
0.0139611
4.20523e-06
0
0.00378484
9.77813
11.3081
2.27929e-09
0
0
4.77089
-4.99197e-06
2.48136e-06
-7.27804e-05
0.0027846
0.00317413
9.6981
2.61137e-05
6.91088e-05
7.28162
-2.21164e-10
0.00118152
-6.40597e-06
-8.96925e-05
3.51179e-06
0
-0.000109011
1.01965e-06
2.57579e-07
2.40391e-07
5.9563e-08
0
0
6.84964e-07
0.057303
8.34686e-07
1.04373e-05
0.04805
1.26027e-06
2.66309e-06
0
0.0175033
0.00745821
3.20506e-06
0
0
0.0412753
0.000673587
0.598935
0.0113907
0.00234214
12.191
-8.86319e-05
12.1842
0.00126775
9.97702
0.00800417
12.3258
3.18381
2.83267e-07
0
0
-0.000217306
0.618274
0
0.124492
0
8.86091e-06
0.117974
0
-1.08017e-05
0.29235
0
0.310994
0
0
0.0537748
0
0.00732815
-2.07041e-09
0.00972079
9.2196e-10
0.00115059
10.8098
0
-0.000152057
0.25311
0
-2.34642e-05
0.127533
0.0650615
0
0.0592534
13.103
0.0211412
5.78861e-06
0.0166967
13.0532
0.0766461
0.00458533
11.4172
0.0342275
0
1.37666e-07
2.37135
12.1035
0.00904831
0.00341424
1.31168
12.3956
8.68492
0.0127199
-7.28965e-05
-0.000107299
0.482504
-0.000134736
0.168902
0.034995
6.39538
0.00149839
4.28586
1.91731
3.8603
0.00540341
0
0
0.00298382
0.00220584
0.000841994
0.000707899
-7.03249e-08
-4.30229e-08
1.52984
1.54213e-07
5.6298e-08
5.89896e-08
2.97903e-08
1.03853e-08
0.0216511
4.41751e-05
3.31483e-05
6.28594e-05
0.00493567
4.20996e-05
0
0
0.00693669
0
1.50929e-10
0
2.20577e-09
1.25899e-08
0
0
-4.50298e-07
0
3.88579e-05
0
0
0
0.155456
0.00135577
7.32277e-06
-0.000470081
-4.45227e-05
0
0
0
5.37274e-07
1.99752
6.60153e-06
2.49028
-1.73971e-06
-9.83384e-07
-3.40389e-08
0.0353548
-1.48208e-08
-2.13964e-09
6.93309e-08
0.145498
-1.67659e-08
-3.77e-10
4.67139e-09
0.0031854
4.93317
2.41517e-07
1.50753e-06
1.37927e-07
-5.07404e-06
0.779555
7.56856
-0.000160907
-5.88426e-08
-1.38172e-10
1.52209e-09
2.98505e-10
0.497644
0.796784
-5.17793e-07
3.66457e-08
0.559691
3.50275e-06
1.3907e-08
4.099
1.20757
-3.18545e-06
4.58321
3.75026e-06
13.8613
0.0259122
0.000303763
1.61895e-09
0.000629894
7.20296
-1.52092e-05
0
1.6437e-06
3.88877e-07
0.410294
0.637127
1.52764
0.000127765
0.000119288
1.2704e-06
2.92565e-07
0
-0.000240158
0.496154
-0.000136944
9.97043
-3.84786e-05
1.08511e-07
2.41769
6.03129
2.2088
8.22156
1.52177
2.63417
1.52785
4.00872
0.000152418
0.0001487
8.23394e-06
0.0409
7.96807e-07
-4.6918e-05
8.71936
0.0326119
0
0
13.4413
6.39778
1.30151
0.815419
0.00522493
0
0
0
8.54412
5.03789
0.000703356
0
0.350909
0.00394093
0
-6.22832e-05
0
9.95491
-2.04549e-05
0.00603086
-4.3912e-09
0.0902864
3.93599
-2.25393e-07
1.08561
0.00167205
0
0
-3.01779e-08
0.17838
9.86099
13.8602
0.02255
0
8.31953
10.5517
0.855327
0.00132273
0
9.82603
2.76573
10.539
0
-0.000213234
0
0
-2.81423e-08
0
0
0
0
0
-9.35638e-05
1.98127e-10
1.22567
6.06394
0.0697768
14.6233
4.65274
0
0
-0.000245402
1.66829
-2.31815e-05
5.70714e-06
0.878698
0
0
0
0
0
1.95873e-06
0
1.57076
2.51498
1.62711
0.00140794
0
-1.5266e-07
0.000628391
6.98945
0.230402
0
2.75076
0.461597
-2.69678e-05
0.000689187
8.57236
8.58414
10.6696
5.15345
2.55741
2.54146
12.3958
-6.39707e-08
6.87068
14.7288
11.4961
3.92022
0.957445
1.99282
0.467899
12.415
2.91619
10.315
2.15796
1.21023e-05
0.917843
0.00629905
0.36198
7.16899e-06
0.460907
0.704791
0
0.00319429
0
0.0260117
2.54258e-10
0.0595678
2.39823
0.00609995
0
0.000677381
0
0
0.00338159
12.4642
9.56604
-1.26479e-07
8.85569e-08
6.03333e-05
0.965616
2.51477e-06
1.94144e-09
0.0118067
0.795328
0.338544
7.92248
12.8724
12.4467
5.05459
0.842839
0.735954
1.15773
0.807461
10.0892
0.992155
12.2119
0.561731
7.38562
4.14067e-06
0.0164215
0.594875
1.43963
0.201209
0.0780499
0.0337065
1.28372
0.123726
1.35851
0.0482963
2.91592
0.43939
0.118187
2.5782
0.962945
0.000865813
-3.66173e-08
0.00476471
0
0
0
0.607001
0.349092
0.239467
-2.02329e-06
4.41213
6.1377
-2.42396e-05
14.6075
4.78941
0.174709
6.42968
8.32476
0.0241032
2.01998
7.19803
9.42692
2.91558
6.52665
1.76206
0
12.0524
10.8983
11.4942
0.0743271
0
0.0161912
0
0
0
7.7704
3.19858
4.88523
1.81942
7.5426
9.34887
5.6833
6.95499
2.09247e-10
0.0304272
2.42681
8.15681
0.251305
1.86655
3.24879
4.34219e-09
-4.5545e-08
0.218462
0.337419
0.630059
2.69667
7.94352
0.46982
0.934963
0
0.0102863
0
-3.53331e-05
4.20255
14.168
0.0365369
0
10.7317
0
0.594251
10.3465
0.384056
0.0756577
8.21908
-8.80927e-06
0.844168
0.616228
8.19258
0.291981
1.30222
8.85609
0.0197252
0.662448
0
0
0.108115
-4.46763e-05
0
0
0.00129889
-6.16605e-05
0
0.000562432
0
0
0.00524737
0
0
2.39466e-10
1.50045e-09
-4.50067e-10
0
0.034451
-1.14957e-08
1.10101
0.578955
2.81447e-06
0
0
1.22994e-09
-1.05718e-10
0
0.106206
6.04305e-05
0.000236368
0
2.88499e-06
7.04882e-08
0
8.0499e-08
0
0
0
0.4974
0
0.314024
0.705897
-5.44627e-08
0.00014404
0.912936
0.640044
0
-7.96709e-08
-6.68281e-08
0.01437
8.51389e-09
-1.16414e-10
1.36341e-05
1.18579
0
-1.85316e-09
0
0
-2.22323e-10
0
0.0082304
0
2.16544e-07
0
0
0.0153877
0.00251201
0
0
0
-3.44901e-08
-7.80012e-09
0
0.0023995
0
0
0
0.0857242
0.00206924
0
0.00042992
0
0.00117206
0
0
0
0
0
0
14.8815
0
-0.000121863
0
0
0.00261538
0
0
0
0
0
0
0
0
0
2.3499e-07
-0.000133591
1.1413e-06
0
0
1.14926e-07
0.241405
0
0
8.53162e-07
-2.92953e-08
-2.55499e-08
-1.40836e-08
1.75785e-09
2.08244
5.25198
0
0
1.04022e-07
0.00049047
-7.68733e-08
-4.82732e-07
0
0
0
3.07459e-06
5.38155e-05
-1.06257e-09
-7.36727e-09
0
0
-3.25343e-07
0
0
0
6.26813
7.97696
0
0
0
0
7.75386e-09
0
0
-1.338e-09
0
0
0.298889
0
0
4.12339e-06
7.28461
13.7375
0.0592808
0
-4.68642e-05
0
-5.81502e-09
0
0
3.84646e-09
0
0
0
1.39164e-07
0
-5.66091e-08
0.0791115
-8.76553e-10
0
0
0.0429491
0.000913299
1.42481
0
0
-1.01601e-09
0
0
0
-8.93989e-07
0
0
7.90311e-10
1.07952
3.08049
0
0
0
0.47672
1.58081
0
0
1.80057e-05
0
-1.65985e-09
1.50257e-06
-2.34798e-10
-0.000175446
0
0
0
-0.000191548
0
0
0
0
-5.57779e-09
0
0
-2.71322e-09
0
0
-6.31932e-06
0
0.855562
0.251113
0
1.74939
0
0
0
-1.37225e-05
3.96622e-06
0
0
0
0
0
0
0.000325431
0.605895
0.429615
0
0
0
0
0
0
0
-1.86868e-08
0
2.04309e-10
0.0997752
0
0
0.469658
6.86101e-08
0
0
-1.1325e-08
-3.41152e-09
-1.29943e-08
0.688392
3.70222e-08
0
0
-6.51405e-07
0
-6.81156e-06
0
0
-1.41677e-06
0
6.78257e-08
-3.04499e-06
0
0
0
0
0
0.0417127
-2.18288e-05
0
0
0
0
0
0
0
2.6889e-08
0
0
0
0
-1.52257e-08
0
-6.55427e-05
0
0
0
0
0
0
0
0
0
0.0135857
-8.58409e-06
0
0
0
0
0.0936523
0
0
0
0
0
-7.95564e-10
0
0.0239659
-1.60103e-05
0
0
-2.54212e-08
7.91932e-05
0
-3.69413e-07
0
0
0
2.19007
1.29168
2.19231e-05
0
0
0
0
0
0
-3.98342e-10
0
-5.89413e-05
9.34854e-05
0
0
0
3.78825
2.5017
0.000102065
0
0
0
0
0
1.36959e-07
0.0144158
0
0.000991011
0
0
0.000306181
-2.12631e-07
-1.51153e-07
4.06579e-09
5.69613
0.23594
1.74923e-05
2.682e-06
3.40527
0.00018668
0
-5.47088e-08
-3.98219e-08
5.20695
2.06906
0
-2.16705e-05
0
0
0
0
6.85628e-09
0.000119691
13.4248
0
0
0
-3.76352e-08
0
0
5.04383e-06
-1.23622e-05
0
0
0
4.1241e-08
0.000277037
0
0
4.96275e-08
0
0
0
0
0
-5.57647e-06
0
0
5.49148e-08
0
0
0
-1.30176e-05
-6.97124e-08
0
0
-7.71543e-10
6.52901e-07
0.000272527
1.50838e-06
-1.39891e-08
0.111244
0
0
0
0.000940886
0
0
0.0802507
0
5.46608e-06
9.6475e-06
0
0
0.000803909
1.32667e-07
4.57999e-09
0.334976
-0.000323198
0
0
2.91463e-06
0
0.19774
-1.07269e-10
-9.52056e-06
0
0
6.87807e-07
-1.49864e-05
1.95978e-05
0
0
0.0025515
3.11564e-07
0
0
0
0
0
0
-3.07145e-09
0
0
0
0.000338317
-1.16232e-07
0
6.14712e-08
0.000342418
6.28202
-3.72512e-06
5.61938e-07
7.28904e-05
0.0146715
0
0
0
-4.55237e-08
0
0
0
0.00958507
7.3405e-05
-1.12429e-08
3.94936
0.772889
-8.85943e-08
0.000154266
0
0
6.01989e-09
0.206264
0.265083
-2.87635e-07
6.34238e-09
0
8.09025e-07
1.08976e-07
0
2.48653e-07
0
8.8501e-06
0
0
0
0
0
0
0.000385641
0
0
0
6.73366e-08
0
-5.25661e-08
0.810816
-0.000310435
-9.95001e-07
1.45296e-07
0
0
0.40167
9.79273e-07
0
6.76102
0.014886
0.0012735
0
0
1.35928e-05
0.00321704
9.6089e-07
0
0
0.00156908
1.58425e-06
0
0
0.00822823
0
0
0
0.000167605
0
0
0
0
0
0
0
0
-1.24373e-09
0
7.7741
3.46893
0
0
0.230099
-1.14131e-09
1.56681e-08
0
1.09667e-10
0
7.47355
1.02937e-08
-4.5386e-05
2.37543e-09
-5.38045e-10
0
0
0
0
0
0
3.17103e-05
4.53364e-09
0
0
0
0
0
0
-2.55506e-08
0
0
0.0320107
0
0
0
0.326151
0
0
0
-1.03152e-09
0
0
0
3.07134e-08
-8.4098e-09
-8.42896e-09
6.12925e-10
5.14261e-05
0
3.61317e-09
8.40535e-07
0
0
0
0
0
0
0
-3.26313e-10
0
-1.20266e-08
0
0
-7.45069e-08
0
1.83993e-07
-4.23782e-07
0.00111938
1.02001e-05
0.0225729
0
6.711e-10
0
0
-3.79218e-08
0
0
6.05647e-06
1.75406e-08
1.09808e-06
0
0
0.00395889
0
1.9774e-09
0
-7.53781e-07
0
0
1.66202e-06
-8.53737e-10
0
1.82711e-05
-7.15396e-08
2.17566e-05
0
0.00216008
0
0.0420499
0
0
0
4.30528e-07
-1.30257e-07
2.47668e-05
-7.78467e-09
0
0
0
0
8.07731
-1.80248e-05
0
0
2.96523e-07
0
0.117322
0
0
-0.000153074
0
0
0
0
0
0
0
0
0
2.3735e-06
0
0.0187377
0
0
0
0
0.000986507
4.05674e-06
2.12312
0.335374
8.40413e-05
0.000774812
-0.00014478
0
7.15669e-10
0
0
-7.34632e-06
0
0
0
0
-2.92069e-09
2.27039e-08
0
0
0
0
-2.73829e-10
0
-9.91072e-10
0
0
7.51152e-08
10.11
0
0
0
0.010915
0.0072793
0
0
0.457818
0.524582
-1.67601e-06
-3.90482e-08
0
-4.68767e-07
0.00281698
0
0
1.54385e-08
0
-1.11191e-08
1.3887e-05
0
0
-2.98006e-09
1.71041e-06
0
0
-6.33836e-09
7.38904e-08
0
0
8.66717e-09
0
0
0
0
1.42549e-07
0.0565802
0
0
0
0
2.13483e-06
0.000137327
5.51947e-06
0
0
0.0494958
0
0
0
0
-1.18854e-09
0
2.62935e-07
0.101081
0
0
2.11159e-07
1.17151e-06
0
0
0
1.79649e-07
0.0141589
-1.54899e-06
0
0
0
5.21278e-07
5.92662e-08
0.300799
-8.05275e-07
2.91397
-1.06865e-09
-4.95754e-07
0
0
0
0
-1.9027e-08
-1.21644e-05
0
0
0
0
0
0
3.08437e-07
0
0
0
0
0.000149883
0
-2.21681e-10
1.99118
1.36226e-05
0.00075891
0.0274819
0
2.77931e-09
0.00773107
2.23277e-09
0
6.5845e-10
0
0
-4.09851e-09
0
0.000316016
4.36596e-09
4.76052
2.10906e-09
-4.55858e-08
4.68019
0.313709
0
1.94436e-05
-3.69984e-08
0
0.00696078
-1.72862e-06
-3.16321e-05
-1.11374e-07
15.1505
0
0
0.879909
0
-1.45195e-09
-4.18402e-09
0.13802
0
0
0.0112439
4.14652e-09
0
-1.13761e-08
-1.12572e-10
-1.32152e-08
4.90064e-05
6.97663e-07
0
0
0
-1.36088e-06
0
0
0
0
1.01096e-08
-4.04488e-06
0
0
0
0
-4.24798e-09
0
0
0
0.00133234
-1.9347e-06
0
1.3047e-08
0.133111
0
7.16745e-08
0
-4.11239e-08
5.56617e-08
0.0163652
0
0
1.87198e-07
0
0
0.000125884
-7.73234e-08
-3.38086e-05
0
0
0
0
0
0
0
0
0.0495538
0.00025072
5.25573e-05
0
1.49718e-09
0
0
0
-8.06159e-06
0.641765
0
0
0
-2.88596e-05
0
0
0
1.26023e-06
1.6074e-09
0
1.00939e-06
1.09151e-08
0
0
0
0
0.0108449
0
0
4.10602e-06
0
0
0
-1.17475e-05
0
0
0
4.57217e-09
-3.62e-10
5.9948e-06
1.76543e-07
0
0
0.00112667
5.89366
-5.14434e-07
10.4808
-1.28784e-08
3.6938e-10
8.8813e-08
0
0.0386862
-2.42181e-05
0
0
1.2972e-08
0
-3.29134e-10
0
0
0
0
-1.42185e-08
1.73307e-07
3.10666e-06
0
0
-1.26316e-09
5.47661e-05
2.10947
1.10888e-07
1.10239e-06
-4.48311e-06
0
0
0
-1.74281e-10
0.285941
3.82408
-1.42331e-07
-9.71223e-08
1.48169
-0.000335519
0.175494
0
5.9041
1.96702e-07
0
0
0
0.381215
0
0
0
0
4.49372e-06
0
0
0.00553038
-5.61527e-07
0
0
0
1.5821e-08
3.47045e-05
9.83813e-09
7.56896e-07
0
0
0.0012145
-4.43248e-07
-1.29293e-06
6.42901e-09
8.97274
0
0
0
9.11926e-06
0
0.00072888
-2.67051e-07
0
0
0.000642508
0
2.98495e-07
-6.09176e-10
-5.54359e-05
0
0
0
-6.29094e-08
1.84621e-06
0
0
0
0
0
0
0
7.39964e-06
-2.25736e-05
0
-1.32214e-07
-0.000105171
-0.000225109
0
0
0.0382561
0
-3.68059e-09
-1.0432e-09
0.765785
-8.88054e-06
0
0
1.3587e-07
5.35132e-06
0
0
-3.0995e-08
0
0
0
1.66511e-08
5.236e-08
0
0
-7.18809e-10
0
0.00625512
0.00019716
4.49514e-09
0
-4.55309e-09
0
0
-2.06103e-08
0
-4.16886e-09
0
4.14114e-08
2.79267e-07
0
0
3.56813e-10
-3.75937e-09
0
0
0
-7.14569e-09
-4.90782e-08
-1.38063e-10
-7.64118e-09
1.06602e-08
0
0
1.11258e-07
0
-3.56995e-09
0
0
0
0.0960581
0.0128902
0.0254012
7.25199e-05
0
0
6.04737e-08
-1.12796e-10
-6.59855e-08
4.89167e-07
3.14357e-08
-1.7363e-09
-1.09758e-07
0
-3.70067e-08
0
0.231973
1.8793e-09
0
0
0
0
4.25811e-07
-3.299e-06
0
1.74901e-08
0
-2.90154e-08
-0.000251674
2.08536e-10
-1.66816e-10
0
1.45977e-08
0
0.173661
-4.78617e-06
4.36652
-1.79363e-07
0
0
1.98024e-07
0
3.4536e-08
2.70316e-05
-2.35953e-05
0
0
7.9773e-10
-1.06983e-08
0
0
-1.20706e-08
-1.37598e-07
0.290928
0
0
0
0.00499555
0.00847391
0
0
0
0
0
0
0
-4.33295e-09
0
0.00335362
3.03754e-05
0
-4.47277e-10
0
-4.70797e-05
0
0
-2.22297e-08
0
0
0
4.45385e-10
4.96371e-05
-7.98351e-05
0
0
0
5.74471e-10
-7.97943e-09
0.929922
0
0
0
0.0317565
1.22711e-07
2.42074e-09
-2.3041e-07
-0.000268675
5.18166e-10
0
0.0736039
0
0
3.47236e-05
0
3.13703e-06
1.50201e-06
1.95418e-10
4.68861e-10
-6.09782e-08
-0.000175633
0
0
0.00197806
0.00317919
-0.000495716
0
-1.28848e-09
2.54358e-10
0.443132
2.02713e-08
-1.07819e-09
0
0
1.82093e-08
-2.36709e-10
0.119274
-0.000101347
0
2.24425e-10
0
0
-2.79623e-10
-9.47329e-05
0
0
0.000473721
2.30872e-07
0
0
-8.29249e-07
0
0.00453024
0
1.73309e-10
1.66767e-09
0.00371838
-6.65887e-06
14.115
0
0
0
0
0
0.0136348
0
4.73757e-07
0
0.0652137
-2.8296e-05
7.93643e-10
0
0
0
0
0.000403442
1.18461e-06
4.24908e-10
0
0
0
3.97994e-06
0.00219965
1.25577e-10
0.358102
0.222745
0
0
0
-6.12874e-08
0.235651
0
0
0.000727891
0
0
2.85196e-07
0
0
0
0.000289462
3.78329
8.18283e-07
0
-2.42019e-10
0.0634063
4.24805e-06
9.08513e-09
0
0
0
2.55438e-06
4.21274e-09
0.00426581
0.00629669
-3.92837e-09
0
0
0
0
0
0
0
0
0.00738789
-6.85599e-09
0
-9.51796e-07
2.51476e-08
-2.54581e-08
2.36423
6.1201e-07
0.66093
12.2885
0
0
1.09099e-10
-8.05963e-10
8.41166e-08
-3.21875e-08
0.00336174
0.00118504
0
0.0150784
0
0
0
0
-1.12367e-10
0
-3.1801e-08
0
0
0
0
3.08872e-07
0
0
1.6373e-05
2.71842e-05
-6.17982e-05
-1.34798e-09
1.36971e-05
0
0
0
-1.97428e-10
0
0
0
0
0
4.23424
5.77445
0
0
-3.36002e-05
5.61088e-08
0.590246
0
0
0
0
0
-1.43506e-10
0.00163032
0
0
-1.21015e-08
-2.87001e-05
0
-2.57963e-10
1.70362
-3.17258e-10
0.590248
0.0794753
0
-4.06715e-05
2.79895e-10
0
0
0
2.80239e-07
0.139154
0
0
0
4.86576e-06
0
0.0687384
0.0423114
0
0
0
0
0.520234
0
4.13108e-06
-1.40726e-07
14.0297
0
0.0176996
2.20458e-05
-1.13964e-08
0
-3.02188e-09
2.25853e-10
0
0
0.00948667
-1.4879e-06
0
-4.71856e-05
-9.8565e-08
4.45831e-06
0
-3.39243e-08
7.72672e-08
0
0
-2.24601e-09
0
0
0.00461178
8.79454e-10
0
0
3.30193e-10
-1.56914e-10
-2.8673e-09
3.87888e-10
0
0.00508999
4.57679e-06
-7.09294e-06
0.00156723
2.81735
0
0.11581
0.0777725
0
0
0.000118897
0
0
0
0
0
5.10781e-07
3.57107e-05
0
0
0
-2.9364e-10
0.000245212
1.12342e-06
1.06477
13.5998
0
0.0205948
-6.57366e-06
-6.33459e-08
0
0
-2.50413e-09
0
0
0
0
1.49252e-07
0
-2.73303e-09
0
0
0.161096
0
3.905e-10
0
0
0
4.93558e-07
-6.34648e-10
6.76659e-08
2.92769e-06
0
-5.20275e-07
-1.13101e-08
-2.42031e-09
1.48827
0
0
2.76264e-06
-3.55699e-09
0.00112047
0
4.57241e-07
1.26802e-05
0
0
0.413889
-1.16048e-10
3.35082e-09
-5.81889e-10
0
0.417487
0
1.45397e-07
0
0
0.191384
0
0
0
0
0
0
0
0.138874
0.00231331
0
0
0.00261163
0
0
2.83409e-06
0.00139088
0
0.111523
0
0
0
0
-2.5002e-09
-3.1146e-08
4.22966e-06
-1.82177e-05
0
0
0
-8.18776e-10
-7.26676e-08
-8.3942e-08
4.52596
0
0
0
-2.21612e-09
0
0
2.63216e-10
0.000889953
0
0
0
1.91147e-10
0.841166
0.400855
0
0
1.74463e-07
0
-3.51258e-10
0
0
3.33501e-07
6.89506
0
0
0
0
0
0.0221738
0
0
0
0
0
0
0
0
0.000104915
0
0
-4.02587e-07
0
8.70991e-05
5.10964e-06
8.08732e-07
0
0
-1.41438e-09
2.19773e-05
0
0
-3.7879e-08
-1.61224e-06
0.0748882
0
1.54812
0.00825018
0
1.59728e-09
1.68714
0.00639523
13.6584
6.96509
0.0170364
0.00300797
0
0.0629172
0.0241302
0
0.00848017
0
0.022748
0
0
3.87118e-05
0.00310841
0.00513402
0.122998
0.261399
0.0774634
0
0.0154689
0
2.27165
-5.38385e-06
0.643445
2.214
0.00082836
0
0.165178
0
0
2.84873
0
0.0980539
5.6847
11.1783
6.05952e-06
7.9926
0.359821
0
0
0.189181
0.00101643
0.000841409
0.762463
0.0122879
0
1.47983
0.025174
0
0.0231373
0.0350482
0.000416627
0.0233266
13.8409
2.12142
-8.60636e-06
-0.000202676
0.123598
5.45749
0.816039
1.77019e-08
0.000339158
0
0
0.245559