# vtk DataFile Version 2.0
Unstructured Grid by M++
ASCII
DATASET UNSTRUCTURED_GRID
POINTS 4072 float
  0.562500   0.968750 0
  0.906250   0.500000 0
  0.750000   0.781250 0
  0.953125   0.531250 0
  0.984375   0.875000 0
  0.828125   0.828125 0
  0.828125   0.859375 0
  0.562500   0.765625 0
  0.937500   0.687500 0
  0.968750   0.578125 0
  0.968750   0.781250 0
  0.734375   0.843750 0
  0.968750   0.718750 0
  0.734375   0.796875 0
  0.984375   0.718750 0
  0.984375   0.703125 0
  1.000000   0.750000 0
  0.984375   0.734375 0
  1.000000   0.718750 0
  0.953125   0.859375 0
  0.953125   0.843750 0
  0.937500   0.843750 0
  0.921875   0.640625 0
  0.937500   0.625000 0
  0.671875   0.906250 0
  0.687500   0.890625 0
  1.000000   0.687500 0
  0.828125   0.796875 0
  0.828125   0.750000 0
  0.515625   0.750000 0
  0.828125   0.937500 0
  0.968750   0.625000 0
  0.984375   0.593750 0
  0.984375   0.796875 0
  0.750000   0.859375 0
  0.859375   0.937500 0
  0.828125   0.953125 0
  0.859375   0.781250 0
  0.593750   0.515625 0
  0.984375   0.750000 0
  0.734375   0.828125 0
  1.000000   0.734375 0
  0.750000   0.812500 0
  0.953125   0.562500 0
  0.968750   0.750000 0
  0.734375   0.812500 0
  0.968750   0.546875 0
  0.843750   0.906250 0
  0.875000   0.875000 0
  0.578125   0.640625 0
  0.750000   0.968750 0
  0.984375   0.906250 0
  0.625000   0.515625 0
  0.937500   0.593750 0
  0.781250   0.578125 0
  0.640625   0.968750 0
  0.937500   0.531250 0
  0.937500   0.515625 0
  0.953125   0.500000 0
  0.703125   0.796875 0
  0.859375   0.718750 0
  0.703125   0.765625 0
  0.921875   0.703125 0
  0.687500   0.765625 0
  0.921875   0.500000 0
  0.718750   0.781250 0
  0.734375   0.765625 0
  0.968750   0.687500 0
  0.968750   0.890625 0
  0.734375   0.953125 0
  0.859375   0.828125 0
  0.890625   0.484375 0
  0.843750   0.843750 0
  0.828125   0.765625 0
  0.968750   0.906250 0
  0.796875   0.578125 0
  0.765625   0.828125 0
  0.609375   0.968750 0
  0.734375   0.656250 0
  0.671875   0.875000 0
  0.531250   0.906250 0
  0.546875   0.921875 0
  0.765625   0.656250 0
  0.531250   0.937500 0
  0.531250   0.734375 0
  0.765625   0.671875 0
  0.843750   0.734375 0
  0.843750   0.937500 0
  0.609375   1.000000 0
  0.593750   0.796875 0
  0.828125   0.734375 0
  0.578125   0.812500 0
  0.671875   0.562500 0
  0.781250   0.562500 0
  0.656250   1.000000 0
  0.765625   0.796875 0
  0.656250   0.593750 0
  0.796875   0.562500 0
  0.625000   0.828125 0
  0.625000   0.625000 0
  0.859375   0.562500 0
  0.796875   1.000000 0
  0.890625   0.781250 0
  0.875000   0.781250 0
  0.625000   0.859375 0
  0.843750   0.781250 0
  0.859375   0.765625 0
  0.843750   0.765625 0
  0.859375   0.750000 0
  0.843750   0.750000 0
  0.765625   1.000000 0
  0.781250   0.984375 0
  0.875000   0.625000 0
  0.875000   0.812500 0
  0.640625   0.875000 0
  0.562500   0.906250 0
  0.796875   0.843750 0
  0.796875   0.828125 0
  0.656250   0.906250 0
  0.890625   0.640625 0
  0.875000   0.843750 0
  0.859375   0.843750 0
  0.625000   0.906250 0
  0.812500   0.875000 0
  0.859375   0.515625 0
  0.812500   0.843750 0
  0.796875   0.875000 0
  0.796875   0.859375 0
  0.593750   0.968750 0
  0.859375   0.875000 0
  0.625000   0.937500 0
  0.843750   0.875000 0
  0.593750   0.953125 0
  0.859375   0.859375 0
  0.828125   0.671875 0
  0.890625   0.765625 0
  0.656250   0.828125 0
  0.656250   0.625000 0
  0.890625   0.562500 0
  0.640625   0.843750 0
  0.640625   0.640625 0
  0.875000   0.578125 0
  0.890625   0.750000 0
  0.875000   0.765625 0
  0.562500   0.625000 0
  0.968750   0.500000 0
  0.734375   0.562500 0
  0.937500   0.578125 0
  0.703125   0.640625 0
  0.656250   0.984375 0
  0.640625   1.000000 0
  0.953125   0.578125 0
  0.671875   0.984375 0
  0.906250   0.921875 0
  0.921875   0.687500 0
  0.671875   0.765625 0
  0.687500   0.750000 0
  0.906250   0.484375 0
  0.984375   0.921875 0
  0.734375   1.000000 0
  1.000000   0.906250 0
  0.750000   0.984375 0
  0.828125   0.843750 0
  0.593750   0.906250 0
  0.828125   0.640625 0
  0.843750   0.828125 0
  0.609375   0.890625 0
  0.609375   0.687500 0
  0.843750   0.625000 0
  0.734375   0.875000 0
  0.968750   0.812500 0
  0.859375   0.812500 0
  0.625000   0.875000 0
  0.859375   0.609375 0
  0.843750   0.812500 0
  0.859375   0.796875 0
  0.828125   0.812500 0
  0.593750   0.875000 0
  0.828125   0.609375 0
  0.781250   0.843750 0
  0.515625   0.921875 0
  1.000000   0.781250 0
  0.765625   0.843750 0
  1.000000   0.578125 0
  0.765625   0.968750 0
  0.890625   0.703125 0
  0.656250   0.765625 0
  0.890625   0.500000 0
  0.875000   0.703125 0
  0.937500   0.937500 0
  0.984375   0.578125 0
  0.578125   0.531250 0
  0.875000   0.609375 0
  0.640625   0.671875 0
  0.796875   0.625000 0
  0.859375   0.593750 0
  0.625000   0.656250 0
  0.609375   0.671875 0
  0.593750   0.687500 0
  1.000000   0.562500 0
  0.765625   0.625000 0
  0.656250   0.578125 0
  0.625000   0.546875 0
  0.671875   0.812500 0
  0.906250   0.750000 0
  0.796875   0.546875 0
  0.828125   0.718750 0
  0.578125   0.781250 0
  0.875000   0.656250 0
  0.640625   0.718750 0
  0.734375   0.984375 0
  0.968750   0.921875 0
  0.609375   0.531250 0
  0.953125   0.921875 0
  0.968750   0.937500 0
  0.593750   0.546875 0
  0.765625   0.609375 0
  0.531250   0.671875 0
  0.781250   0.593750 0
  0.546875   0.656250 0
  0.656250   0.656250 0
  0.890625   0.593750 0
  0.656250   0.859375 0
  0.921875   0.671875 0
  0.968750   0.734375 0
  0.718750   0.812500 0
  0.812500   0.984375 0
  0.562500   0.796875 0
  0.750000   0.640625 0
  0.765625   0.687500 0
  0.531250   0.953125 0
  0.687500   0.656250 0
  0.921875   0.593750 0
  1.000000   0.593750 0
  0.750000   0.671875 0
  0.671875   0.750000 0
  0.906250   0.687500 0
  1.000000   0.656250 0
  0.812500   0.562500 0
  0.687500   0.796875 0
  0.921875   0.734375 0
  0.828125   0.546875 0
  1.000000   0.625000 0
  0.953125   0.968750 0
  0.750000   0.906250 0
  0.515625   0.968750 0
  0.812500   0.531250 0
  1.000000   0.796875 0
  0.515625   0.937500 0
  0.750000   0.875000 0
  0.812500   0.703125 0
  0.796875   0.703125 0
  0.812500   0.593750 0
  0.937500   0.562500 0
  0.656250   0.968750 0
  0.890625   0.906250 0
  0.703125   0.625000 0
  0.953125   0.546875 0
  0.671875   0.953125 0
  0.906250   0.890625 0
  0.984375   0.781250 0
  0.796875   0.687500 0
  0.562500   0.953125 0
  0.968750   0.875000 0
  0.718750   0.953125 0
  0.562500   0.937500 0
  0.781250   0.781250 0
  0.953125   0.875000 0
  0.718750   0.937500 0
  0.953125   0.671875 0
  0.796875   0.656250 0
  0.828125   1.000000 0
  0.953125   0.890625 0
  0.703125   0.968750 0
  0.828125   0.625000 0
  0.781250   0.968750 0
  0.781250   0.671875 0
  0.781250   0.875000 0
  0.546875   0.937500 0
  0.906250   0.640625 0
  0.671875   0.703125 0
  0.640625   0.609375 0
  0.875000   0.546875 0
  0.906250   0.625000 0
  0.656250   0.703125 0
  0.656250   0.718750 0
  0.968750   0.531250 0
  0.734375   0.593750 0
  0.984375   0.531250 0
  0.781250   0.546875 0
  0.718750   0.609375 0
  0.906250   0.703125 0
  0.968750   0.593750 0
  0.687500   1.000000 0
  0.921875   0.937500 0
  0.906250   0.765625 0
  0.906250   0.562500 0
  0.718750   0.750000 0
  0.718750   0.546875 0
  0.953125   0.484375 0
  0.796875   0.593750 0
  0.515625   1.000000 0
  0.750000   0.937500 0
  0.906250   0.593750 0
  0.546875   1.000000 0
  0.781250   0.937500 0
  0.828125   0.593750 0
  0.984375   0.609375 0
  0.937500   0.953125 0
  0.796875   0.515625 0
  0.968750   0.609375 0
  0.734375   0.671875 0
  0.906250   0.781250 0
  0.671875   0.843750 0
  0.515625   0.890625 0
  0.687500   0.625000 0
  0.921875   0.562500 0
  0.843750   0.531250 0
  1.000000   0.765625 0
  0.750000   0.843750 0
  0.812500   0.671875 0
  0.687500   0.921875 0
  0.765625   0.515625 0
  0.953125   0.609375 0
  0.921875   0.625000 0
  0.687500   0.687500 0
  0.812500   0.656250 0
  0.812500   0.859375 0
  0.578125   0.921875 0
  0.796875   0.765625 0
  0.890625   0.687500 0
  0.578125   0.750000 0
  0.812500   0.687500 0
  0.578125   0.953125 0
  0.796875   0.796875 0
  0.984375   0.890625 0
  0.734375   0.968750 0
  0.718750   0.640625 0
  0.968750   0.562500 0
  0.687500   0.968750 0
  0.921875   0.906250 0
  0.765625   0.953125 0
  0.812500   0.609375 0
  0.812500   0.734375 0
  0.875000   0.562500 0
  0.968750   0.656250 0
  0.796875   0.734375 0
  0.812500   0.828125 0
  0.578125   0.890625 0
  0.781250   0.687500 0
  0.984375   0.671875 0
  0.578125   0.828125 0
  0.812500   0.765625 0
  0.875000   0.593750 0
  1.000000   0.875000 0
  0.765625   0.937500 0
  0.843750   0.656250 0
  0.843750   0.859375 0
  0.609375   0.921875 0
  0.828125   0.687500 0
  0.937500   0.656250 0
  0.937500   0.859375 0
  0.703125   0.921875 0
  0.984375   0.640625 0
  0.890625   0.468750 0
  0.656250   0.734375 0
  0.890625   0.671875 0
  0.890625   0.875000 0
  0.656250   0.937500 0
  0.578125   0.859375 0
  0.812500   0.796875 0
  0.843750   0.890625 0
  0.609375   0.953125 0
  0.937500   0.875000 0
  0.687500   0.953125 0
  0.843750   0.953125 0
  0.828125   0.703125 0
  0.593750   0.765625 0
  0.937500   0.546875 0
  0.781250   0.531250 0
  0.781250   0.734375 0
  0.546875   0.796875 0
  0.796875   0.718750 0
  0.562500   0.984375 0
  0.984375   0.812500 0
  0.562500   0.812500 0
  0.796875   0.750000 0
  0.562500   0.875000 0
  0.796875   0.812500 0
  0.640625   0.750000 0
  0.875000   0.687500 0
  0.703125   0.671875 0
  0.937500   0.609375 0
  0.562500   0.843750 0
  0.796875   0.781250 0
  0.781250   0.750000 0
  0.781250   0.609375 0
  0.812500   0.953125 0
  0.812500   0.718750 0
  0.953125   0.593750 0
  0.718750   0.656250 0
  0.671875   1.000000 0
  0.796875   0.953125 0
  0.843750   0.609375 0
  0.812500   0.812500 0
  0.812500   0.781250 0
  0.750000   0.953125 0
  0.750000   0.750000 0
  0.984375   0.687500 0
  0.781250   1.000000 0
  0.765625   0.546875 0
  0.765625   0.750000 0
[...]
POINT_DATA 4072
SCALARS scalar_value float 1
LOOKUP_TABLE default
-1.81319e-07
8.14164e-07
2.13332e-07
-1.14692e-08
0
3.18669e-10
0
-0.00037591
5.32384e-08
-6.89509e-09
8.97632e-10
-3.18831e-08
8.08998e-09
9.16742e-07
-2.05006e-09
3.13284e-09
1.86611e-09
1.04906e-09
3.94319e-09
0
0
4.86083e-10
6.39488e-08
-3.84965e-09
5.09154e-08
4.39799e-08
5.01915e-09
-1.31601e-08
1.30553e-07
9.71531e-05
5.2288e-10
1.69425e-09
3.41148e-09
-1.7241e-10
-6.58955e-10
2.05355e-10
-5.27311e-10
1.40577e-08
0.490406
-3.59197e-10
1.45133e-07
-2.87646e-09
2.23016e-07
0
3.27103e-09
-4.81844e-07
-3.46051e-08
5.40888e-10
9.2022e-10
0.0716359
-1.5762e-09
0
0.431379
-9.85386e-09
3.96812e-05
1.52299e-08
9.37263e-08
-1.82774e-07
1.57082e-08
2.7986e-06
2.72118e-08
7.68691e-06
6.68742e-08
-1.88657e-05
-2.5166e-07
2.70217e-06
2.25838e-07
1.2058e-08
0
2.81538e-10
0
2.89521e-07
1.4076e-09
-8.40239e-08
0
8.3674e-05
9.24345e-09
4.03083e-08
4.89436e-05
6.29958e-08
-3.02132e-05
7.90951e-06
9.3766e-06
-7.45789e-06
0.00111421
-8.6566e-06
1.33802e-07
-3.04575e-10
0
0.000317467
-2.93579e-07
-0.000167898
0.467712
0.000309159
0
7.17759e-08
-0.0168929
0.000175651
-6.43654e-08
0.00299043
5.0579e-06
0
3.99797e-09
-7.78812e-09
7.55399e-07
-2.20876e-08
-2.79022e-08
4.4511e-08
5.02934e-08
-9.52699e-08
0
-6.1287e-10
1.62719e-06
-1.38054e-09
2.75611e-07
-8.3723e-06
-2.33564e-08
-1.50838e-08
-1.02787e-07
8.16838e-07
0
-6.26032e-10
-3.02279e-07
-9.18295e-09
-4.03424e-06
-3.46898e-09
-8.83736e-09
-7.39313e-09
-7.18984e-08
-6.12735e-10
-8.64882e-08
1.52612e-09
9.22583e-08
8.67453e-10
2.74859e-06
-7.84723e-09
1.42933e-06
-0.00668557
3.76872e-07
2.00675e-07
0.00903325
7.43765e-06
9.80936e-09
1.5755e-08
0.0176074
1.06407e-07
0.00235351
-1.20293e-08
4.74843e-05
1.04562e-08
0
-1.10412e-08
-4.48173e-09
0
-1.09699e-07
3.83678e-05
1.67282e-05
-4.61559e-07
0
0
0
8.31209e-10
-3.95339e-09
-5.27532e-07
1.51348e-05
-1.30016e-10
-7.63906e-07
0.000489228
9.43075e-06
1.90631e-09
2.33376e-10
1.48377e-09
-7.44716e-07
2.21737e-06
-1.22801e-09
-4.81188e-09
-2.54105e-09
-2.03767e-06
2.24896e-05
-7.5985e-08
5.34854e-05
5.4209e-10
-5.07217e-08
-6.01737e-09
0
1.57462e-07
-6.08676e-05
1.85161e-06
-1.86746e-07
0
-1.82882e-09
0.456417
5.20056e-07
0.00256398
-5.54193e-05
1.98394e-06
0.00350499
0.0146761
0.0864729
1.20267e-08
-7.23566e-05
0.0861464
0.319203
8.47891e-07
-9.30255e-10
4.37404e-05
3.40602e-07
-0.000108698
1.82473e-06
0.00155026
-3.12132e-09
0
0.277942
0
0
0.3287
0.000339239
-0.00325318
0.000283236
0.0134198
-0.000470269
2.42599e-06
1.53115e-07
1.39001e-07
-5.44953e-09
6.49494e-07
-1.80669e-10
0.000190829
3.03788e-05
5.88047e-06
4.37799e-06
6.59863e-06
1.16801e-07
1.75986e-09
1.63236e-05
-5.65635e-05
2.1181e-07
3.12101e-09
-3.21702e-05
-3.35052e-06
1.13927e-08
-3.7984e-05
0
0
-2.37575e-08
1.36687e-06
-1.09012e-05
-2.34725e-10
-1.11077e-05
-1.49791e-08
7.80803e-07
-1.68181e-06
3.80494e-05
2.87007e-08
-1.07051e-08
-3.14404e-10
0.000557691
5.05637e-09
-1.44331e-08
0
1.58716e-10
1.33048e-06
-2.83633e-07
0
8.86084e-09
-1.15937e-07
-1.88784e-07
0
-7.20601e-09
2.53409e-08
-9.23633e-06
0
0
4.22316e-09
-2.16092e-05
2.48779e-10
4.35884e-06
-6.19759e-08
-3.41873e-06
-2.4703e-07
-0.000183946
0.0201501
1.13224e-05
-6.30892e-08
0.000184952
-0.000264622
5.49665e-08
-0.000216026
-6.20606e-09
0.00107816
0.000619073
-1.12837e-07
2.00628e-09
0
0
4.07539e-09
6.0862e-07
-2.71444e-06
0.0151274
-2.11241e-07
-6.27641e-05
0
-1.56875e-08
-6.48629e-07
0
-1.65365e-08
-8.30426e-06
-2.19507e-09
0
0.000641282
-1.91573e-10
-1.32075e-05
0
4.45894e-07
7.54678e-05
3.16816e-05
1.49833e-07
-1.3447e-05
-1.08762e-09
1.34885e-08
-1.9032e-06
2.75461e-08
0.00653983
-9.82376e-09
3.5606e-08
-0.000100143
8.43097e-06
-1.0505e-08
-9.94306e-07
-3.03046e-07
-3.66767e-07
0.00569515
-6.03689e-07
-5.05729e-08
-6.59968e-08
0
-5.38629e-10
0.000188659
1.89564e-08
-4.46134e-09
0
-3.30467e-09
-4.06409e-05
3.28889e-07
-8.67565e-06
8.63523e-09
-8.30779e-07
-1.3394e-08
4.67121e-07
-4.58114e-06
4.00234e-09
0.000115371
6.87409e-08
-4.11696e-06
0
-1.58061e-08
5.10601e-06
-7.19713e-10
-2.29385e-07
-5.04259e-07
5.13271e-08
-3.44182e-10
-9.16825e-09
1.65574e-09
1.78873e-06
-0.00011476
6.43186e-07
0
-4.35975e-08
2.84453e-05
-6.35308e-09
-6.18003e-10
-6.55547e-08
1.21889e-10
1.69199e-08
1.45822e-10
-3.64473e-07
0.000215233
-7.26512e-08
0.000912011
1.00541e-06
-0.000212077
8.67164e-07
5.00742e-07
1.1043e-10
-0.000181637
2.47887e-07
-4.21935e-05
-6.38265e-08
-0.000313755
5.4128e-07
2.16461e-06
1.6244e-08
-0.000107155
-2.69795e-08
-8.61833e-07
-0.000125869
-8.42217e-10
-7.73995e-07
1.24785e-08
-2.80189e-05
0
-4.88637e-09
-5.54079e-06
-4.74867e-09
-6.95985e-08
1.12842e-09
-2.1571e-06
-3.89991e-09
0
0.0016913
9.37423e-07
0.000314945
3.55094e-07
-3.26655e-08
0.000147169
-2.87852e-07
-1.23534e-07
2.70081e-05
1.96841e-08
-0.000203976
-5.19043e-08
-8.28476e-06
-7.78752e-10
-7.80087e-08
3.19275e-09
-1.42571e-05
-1.86071e-08
0
-8.31841e-09
6.68449e-09
-0.000136729
-2.54991e-09
0.00110902
1.03458e-05
-2.95331e-09
0.000157961
0.00659916
4.03198e-06
0.000479982
4.0456e-10
0.000655908
5.96098e-06
0.00134042
4.34724e-08
-1.44804e-05
-6.91159e-08
-6.96968e-07
-2.82849e-06
0
-3.19534e-06
0.00212974
0.00537781
4.3562e-08
0
0
-1.61712e-06
5.86035e-09
0
-2.23546e-06
0.0261162
-1.72324e-10
1.9976e-06
0
-4.65319e-06
0.00628764
0
-6.92527e-09
1.88759e-08
-1.03323e-06
0
0
-8.79042e-07
0
0
0
0
0
0
0
-1.98066e-05
0
0
0.0555958
0
-1.20502e-10
0
0.107629
1.14078e-08
3.37255e-10
0
0
-7.72808e-06
-9.90369e-09
0.000108543
2.26973e-08
-4.61197e-08
0.000707183
-3.21541e-07
0.000136884
4.50869e-06
0.00637546
1.69424e-06
0.00478399
-5.60091e-06
-3.13203e-09
0
0
0.000120362
0.142643
0
0.0677183
0
3.0521e-06
0.0660768
0
5.03813e-06
0.0132314
0
0.0121859
0
0
0.443531
0
-5.32605e-09
0
0.351207
0
9.67189e-09
1.34037e-05
0
3.84466e-05
0.250853
0
3.9473e-06
0.0569975
0.126807
0
-6.72852e-08
3.33854e-05
1.60807e-07
-1.53693e-10
-2.7504e-08
-0.000350758
-1.62534e-07
-4.37529e-08
2.72022e-05
-6.61356e-08
0
-4.40126e-09
-2.02816e-06
3.91517e-06
2.77053e-08
-1.45644e-08
-2.13366e-06
-0.000229231
4.57424e-06
-2.40672e-08
-3.58684e-06
0.000518299
0.0638713
0.000174442
0.277861
9.91745e-05
-0.0111976
1.68653e-05
-0.00572952
0.118993
0.0418953
-1.47378e-06
0
0
1.5991e-10
2.66588e-10
9.99036e-10
1.46706e-09
-2.28278e-09
0
-1.20365e-07
0
0
0
0
0
1.04508e-07
-1.009e-08
-1.74936e-09
-8.55018e-09
8.71362e-08
-1.62714e-09
0
0
-7.32128e-10
0
0
0
0
0
0
0
-1.83019e-09
0
-2.35934e-09
0
0
0
-2.22554e-07
-4.62213e-09
-4.46965e-06
-8.876e-09
-2.26314e-09
0
0
0
-1.21325e-07
1.27244e-07
2.85987e-10
-1.18119e-07
1.00779e-10
6.99775e-10
0
-1.2987e-08
-1.10233e-10
0
1.22728e-10
1.90317e-08
0
-1.77669e-10
0
-3.99894e-09
-7.32566e-06
-1.13854e-08
4.53101e-10
3.40332e-10
-2.43932e-08
1.30252e-07
-0.000386767
-2.11065e-07
-4.42852e-10
-1.30916e-10
0
0
-7.90674e-08
5.81199e-08
-4.99907e-10
3.33478e-10
4.97651e-08
3.52017e-10
0
7.18922e-05
-1.62292e-07
-1.90475e-09
-7.84559e-07
3.45768e-09
-0.000545235
-2.4349e-06
5.81517e-09
0
3.30468e-10
-5.84984e-06
2.12412e-08
0
-1.22899e-10
1.67778e-10
1.96028e-05
-3.78791e-08
1.77408e-07
-9.79289e-10
6.61254e-10
-5.29552e-10
0
0
-1.94815e-05
0.0789952
1.92723e-05
-4.06307e-05
-8.81646e-06
-4.75976e-09
-4.81014e-07
-3.75296e-05
-1.165e-07
0.000112749
1.3197e-07
-8.02798e-05
-1.7666e-07
3.99947e-07
-1.14031e-09
1.12087e-09
-1.02689e-09
-2.91804e-08
-7.01407e-10
-1.3279e-07
-7.97556e-05
0.126865
0
1.50913e-05
-0.000131702
2.43742e-05
2.49773e-07
-1.50965e-05
-7.36152e-09
-7.5805e-06
0
7.0583e-05
2.56188e-06
6.7899e-05
-2.56881e-10
1.2526e-06
4.14743e-07
-2.86484e-08
0.000197251
0.00015609
-2.73092e-09
-0.00108097
-1.70126e-06
8.78814e-06
-4.2556e-10
0.00467366
0.00283866
-6.17714e-10
2.79897e-06
0.000699966
1.37648e-06
1.35428e-07
3.02354e-08
0.239326
0.00011636
0.000696716
1.43609e-07
3.42943e-05
-1.54746e-06
-0.000447056
-2.03682e-05
-8.34139e-09
2.91727e-06
0.000130772
0.0501328
-0.000482996
-1.1575e-06
-9.47974e-06
1.22933e-06
-9.43036e-07
-1.06265e-07
-4.37025e-07
-5.50222e-05
-0.000235615
0.0005579
6.81521e-09
0.000124102
1.66175e-07
5.81563e-07
0.000304565
-1.38558e-09
-0.00188259
7.88009e-06
7.66339e-05
-0.000133733
0.000270755
3.8064e-05
-1.01409e-07
-8.6455e-05
3.84307e-05
0
1.804e-05
-0.000365922
0.000281613
-8.86641e-09
-6.18152e-06
-5.41475e-08
6.37887e-07
-0.00293269
8.42548e-05
-2.5203e-09
4.70923e-06
-2.20422e-07
1.25208
0.0416947
-8.55145e-08
0
6.25594e-05
0.0447566
1.35536e-07
1.80209e-09
-5.03927e-05
5.15584e-06
-1.00745e-05
0.000124088
2.25956e-06
0.115873
0.00069638
2.67807e-08
0.0001475
-0.000596511
0.000917656
-4.22166e-07
-3.6711e-05
-1.22926e-07
3.49698e-05
0.000187508
1.56687e-06
-0.000163183
-4.33095e-06
-1.12468e-10
-2.49244e-05
0.130088
0.0238338
8.41795e-10
2.41903e-05
0.00291418
9.03393e-07
0.0349486
3.5917e-07
-5.35058e-06
2.18805e-09
0.0159764
-0.00192951
5.76323e-06
-5.10393e-06
0.00877699
0
-1.47114e-06
0.0320897
0.000630794
1.67916e-05
-2.33261e-07
1.42141e-07
0
-3.31919e-05
-4.49073e-07
6.49547e-09
0.0204801
-0.00212392
0.000735036
0.00228958
0.000848942
0.00103644
-2.54071e-07
-1.05959e-05
0.0214861
0.057805
1.93863e-05
-0.000349127
-1.26577e-05
0.000689656
0.000695924
0.00210683
-8.577e-07
0.268329
0.0265899
-1.00946e-07
-1.14728e-05
5.98708e-06
0.0566172
0.0060216
1.49756e-07
7.18487e-07
-3.99562e-08
-1.77456e-07
1.21387e-05
0.132906
0.024619
-2.51202e-07
6.75872e-10
-2.07988e-07
8.70243e-08
0.000170326
0
0.000180252
3.71752e-07
5.71956e-07
0.145108
-2.47407e-08
-1.14356e-06
5.65338e-05
-1.36029e-07
-0.000749973
5.84861e-06
-1.21306e-06
-2.08993e-06
0.000348881
7.54819e-09
0.0154764
0.0127189
-4.45696e-06
-4.61252e-05
-1.12163e-06
4.61486e-05
-4.08393e-07
0.000220851
0.00018797
0.00174281
2.10782e-06
3.782e-07
1.78097e-08
8.20507e-05
-7.86826e-06
2.21845e-06
-2.9237e-06
-6.15195e-05
-8.67411e-07
5.29488e-05
0.00800474
0.000335109
0.000275448
-0.000381029
1.54767e-10
1.13108e-09
0.00400733
0.0169493
4.00207e-06
0.0920348
0.052031
-1.57223e-08
-1.37553e-08
4.15645e-08
6.37727e-08
-4.2644e-06
-0.00769903
0.000834218
3.29255e-08
-1.28694e-07
-3.62414e-08
0.0149162
-1.7985e-05
-3.65067e-06
2.64417e-06
-0.00077589
3.43231e-08
1.68971e-05
0.000428164
-2.75284e-06
9.39015e-08
0.000317366
-2.74695e-08
-8.65975e-09
0.000409998
5.51705e-08
2.30265e-07
-4.56818e-08
1.69705e-05
9.34313e-09
0.1466
0.000169105
8.74509e-09
3.92887e-07
1.89302e-10
0.121198
0.195685
-1.64263e-08
6.90125e-05
0
0.505739
-2.44347e-07
0.000199225
-8.44654e-09
0
-0.000340194
0.244036
0.00487608
-1.43121e-05
0.78943
-6.37275e-09
1.35605
1.19398
0.238995
-5.02942e-07
0.0199384
1.06073e-06
1.14203
8.07826e-05
1.87214e-09
7.08827e-05
0
0.511873
0.0315236
0.0369236
0.0668689
0.000661673
1.29368e-10
0.00108931
0.140491
-0.000599694
0
1.39306e-05
0.327822
-2.23953e-07
0.0119592
-0.0104845
0.0208844
4.06634e-08
2.2657e-09
-9.05636e-08
0.00317344
0.0426868
-7.11344e-08
4.73762e-07
0.000916387
4.09134e-08
0.906207
-4.73898e-09
0.0085515
0.049754
-3.03041e-05
-0.015636
-1.36131e-05
1.19054
0.202475
0.404864
0.27485
-0.000190876
-1.58976e-05
2.94013e-09
0.418589
-3.04016e-09
0.0355334
-8.33753e-10
1.45038e-09
0.011445
1.38205
3.92007e-06
8.57912e-06
0.000396502
0
-0.000232288
0.209973
0.479191
-0.000335821
1.55107e-06
0.000205732
4.02072e-06
0.000558306
0
3.78334e-09
4.18235e-09
1.5425e-05
0
-0.000175991
0.20222
6.71411e-07
-7.03347e-05
0
0.611775
0
1.78507e-09
8.5878e-10
0.24733
0.317387
4.48041e-10
-3.26235e-10
-2.71648e-10
-9.89659e-06
1.12727
1.32105e-05
1.25429
-3.21361e-06
-3.10918e-05
1.03356
1.86899e-07
8.13907e-06
-0.000133007
1.19415
1.30199
0.000667832
2.91652e-07
2.35797e-07
7.54531e-07
-0.000784167
-8.01619e-09
0.00825606
1.27809
0.473796
1.12589e-07
0.383079
2.79209e-05
3.99687e-06
-0.000120113
-3.73621e-05
0.932526
1.13791
-2.3676e-06
0.237117
0
0.970249
0
0
0.458434
2.02697e-05
-0.00107176
0
0
-2.00295e-08
0.109391
-0.000183626
2.22068e-06
0.135039
3.52639e-05
8.10071e-09
1.102e-05
0.0603498
-9.65103e-10
-9.55795e-05
-1.75315e-07
2.39429e-05
0.00297146
0.172238
-3.18257e-05
-6.45052e-06
-6.77444e-09
0.649879
-2.61224e-07
8.93013e-10
0.0415933
1.4606
9.46577e-10
5.27094e-10
0.00219344
-6.84904e-10
0
2.1724e-05
0.434696
-1.52971e-06
-0.000725681
0.179209
0.615834
0.0047929
0.00130775
1.34679e-06
1.15818
0.113907
9.42175e-08
-1.51499e-07
-1.06426e-08
1.20777e-09
-0.00012167
-7.03837e-09
7.44652e-06
0.00506966
1.59896e-09
0.000771933
-9.17657e-09
1.56775e-06
0.0372293
3.16186e-10
-0.00015551
-8.13164e-10
0.184964
1.11565
-1.5646e-10
0.494364
8.6155e-07
2.6574e-05
0
-3.33561e-07
-4.92899e-07
0.000107267
0
5.18019e-07
-1.49821e-07
1.06928
0.681103
-2.17555e-07
1.19834
0.339743
-1.3061e-07
-1.17773e-08
0.0163611
-0.00224166
3.52008e-08
0
0.000762714
-2.91398e-06
0.0022023
5.56302e-09
0.144104
1.01967
-2.84033e-08
0
0.00115978
0
0.00113829
0
0.0235003
-3.64666e-08
5.72836e-05
3.8394e-09
0.00157116
6.72625e-10
0.899971
-4.81889e-08
-4.41621e-05
-7.7531e-10
1.28127
0.00940087
8.13141e-06
5.47529e-08
0.0383245
3.49409e-05
-1.97785e-08
0
-7.36701e-06
-2.06618e-06
1.21983
0.814998
-4.38101e-05
-2.08309e-07
0
-2.64326e-06
-3.83344e-07
0.00707057
0.445063
0.00047052
0.160949
0
0.000525771
0.526008
1.22637
-5.33731e-05
0.103605
0
-3.48312e-05
0.0123466
0.653033
0.0654601
0.0264458
-8.67778e-07
-2.16172e-09
0.0266863
-6.66859e-07
0.000288796
4.20074e-06
0.233764
-0.000337596
3.83205e-06
7.26429e-06
0.000878113
6.22906e-06
0.934314
0.383978
3.29898e-07
0.592753
1.46443e-05
-1.87252e-08
0.000485465
-7.42702e-06
0.773664
-4.42223e-06
0.00263759
0.632613
0.176825
0.0154076
1.35272e-06
-1.01559e-08
0.00998658
1.5924e-06
0.0368783
0.00642859
1.12637e-05
1.17637e-05
7.51906e-06
-5.85106e-09
-2.37092e-10
0.745938
0.288056
0.00301076
1.65705e-06
-2.36312e-08
0.834679
0.788567
3.19512e-09
0.0553804
2.70088e-08
0.42999
0.128203
-0.00173071
2.71118e-05
0.915079
0.00378873
-4.13005e-09
2.59153e-09
-2.70572e-08
3.59817e-09
0.000309019
0.832268
-4.67193e-08
0.1037
0.646945
9.62098e-09
-6.5948e-08
-2.05891e-08
0.00245043
-2.91216e-06
0.690454
0.0221482
-1.0793e-08
-2.15433e-08
-9.34516e-09
-8.74912e-09
-0.000325884
1.95444e-08
0.016066
-8.36386e-10
0.047683
-9.10529e-06
1.17212
1.00019
0.0347547
-2.69293e-08
0.00549115
-1.07437e-07
-7.35245e-10
-2.20827e-09
0.00419154
1.44928e-10
0.0564358
-1.13133e-06
8.5345e-06
-0.00113845
0.00610881
3.52057e-09
-3.71302e-08
1.34716e-06
0
0.15012
2.59692e-06
0.013243
0.733723
0.00238725
-7.24251e-09
0.00252689
2.43319e-07
1.08629
0.219969
0
1.06637
0.0165809
-5.92958e-09
0.137702
3.98949e-05
0.0022749
0.798323
2.8166e-08
4.00494e-05
-1.84518e-05
0.0192417
-4.7509e-05
8.31428e-06
3.1841e-05
0.0100535
6.94904e-06
0.0133279
-1.32383e-05
1.15885
1.81693e-06
0
0.615146
0.030603
1.07485e-08
-3.02514e-09
0.00367908
1.33089
-7.49818e-08
0.303455
2.37486e-06
1.24627
6.28415e-05
-2.50156e-05
0
5.70092e-07
7.63828e-09
0.0666275
1.47746e-05
1.70061e-05
5.43307e-05
1.10026
-0.000107833
-0.000308593
0.102408
0.731888
4.6307e-05
4.48895e-06
2.07417e-05
5.01986e-05
0.0658093
-0.000247108
1.21307
-0.000178912
2.71204e-08
1.09666e-05
2.00755e-05
-1.93961e-06
-0.000128677
1.13342
-4.27264e-06
8.29163e-09
-0.000679906
0.133143
0.475433
-7.40438e-05
-8.36847e-07
1.93025e-05
3.24717e-05
-2.14743e-09
2.60398e-10
0.0429736
1.28218e-09
0
2.61594e-08
5.58559e-10
0.542311
0.553424
-7.78756e-09
-3.00367e-08
0.491382
-5.36045e-05
-2.59054e-08
1.24771
0.428549
0.000550325
0.0853657
0.0113177
1.18037e-07
0.54982
-1.03286e-07
-2.30999e-05
4.01793e-05
0.152705
0.912136
1.74771e-06
0.0116523
2.11505e-06
0.946718
0.942957
9.7432e-07
4.17157e-05
-1.4767e-10
0.0131003
0.0257807
0.080807
1.46956
-1.40698e-08
0.761732
-0.000129943
-0.000353226
7.14402e-05
5.8603e-05
0.72427
-1.33126e-06
0.552545
0.0349135
0
6.29489e-06
1.64635e-05
1.12389
-2.20213e-06
0
0.71055
1.82913e-06
0
1.03685
0.169045
3.6075e-05
0.0272039
1.35648
0
0.000509518
3.95436e-06
0
-5.51823e-08
0.00183384
-1.84977e-08
0.676292
-2.15386e-06
-1.62674e-10
1.12285
0.522643
1.22327
0.00142152
-1.00329e-10
9.56764e-05
1.1404
2.10617e-06
-0.000134893
7.72648e-09
0.0322762
-1.2412e-06
0.000813937
0.899556
-3.25626e-07
0
0.436377
0
-0.000682334
8.4791e-05
2.47727e-07
-8.51603e-08
0.975166
0.216209
0.00147519
1.11394e-06
0.0375618
2.11669e-08
-4.4968e-07
1.30468
0.0194372
-0.00335672
-1.02183e-10
1.86811e-08
-4.4051e-05
0.0450916
-4.30904e-05
-0.000267328
0.686905
0.0460271
-0.000573404
6.60063e-07
5.11963e-05
-0.000735252
-0.000162805
1.20539
0.979578
6.17458e-10
2.63541e-07
7.57014e-06
-0.00023064
0.296693
7.77474e-07
0.342955
-1.23596e-09
-0.00039481
1.67298e-08
0.0478713
-8.19416e-06
0.498208
2.81918e-08
-5.42052e-09
-0.00186657
3.67189e-09
0.388039
0.59493
-4.16297e-05
2.09316e-09
1.33689
0.687631
5.13188e-08
0.0361261
-3.40744e-09
2.12215e-09
0.0206159
-3.77187e-05
-1.90262e-08
0.451034
-0.00128913
-2.83453e-10
-4.74516e-06
0
-1.0663e-10
0.878578
1.29392e-08
0.552554
1.0084
1.17576e-06
-3.6218e-08
-0.000562109
2.09851e-08
0.307832
0.358625
1.97798e-09
-4.18824e-06
2.28467e-10
0.0484348
2.3416e-07
-3.68784e-10
-1.87514e-08
0.0102444
-1.28943e-08
1.03618
-0.000356929
0.579852
-2.30756e-08
8.27405e-10
1.21009e-05
0.000108888
0
2.41313e-07
-3.04992e-08
0.0169165
1.17621e-05
1.21398
0.96882
-3.61334e-09
0
-2.1426e-08
0.82589
-9.97355e-09
1.08543
-3.26612e-05
5.92501e-08
0.0217577
-8.58806e-06
0.413001
1.21071
-8.6336e-08
0.45095
0.00018534
1.80586e-05
0.0253164
0.120668
-9.13421e-09
-1.81659e-05
-6.05323e-08
0.0373759
-6.91347e-05
1.09961
-0.000693503
1.69635e-08
2.75263e-07
-5.57735e-10
-3.03001e-06
1.72002e-06
0
-1.65511e-08
2.01983e-09
-1.78646e-08
-0.000408288
-6.50229e-07
8.60992e-05
-2.698e-09
0.610854
8.93779e-06
1.87533e-05
0.000610008
0
0.0223928
-0.000161676
1.09184
1.22461
0.0730995
9.64536e-07
0.674253
0.234402
-1.00605e-05
7.23498e-05
0
-1.96374e-08
4.74203e-08
-3.98408e-08
0.011502
0.00217836
1.12505e-05
0.000473958
1.23432
0.00604819
1.03681e-06
-2.94081e-06
0.00589674
1.59384e-05
1.12282
4.05828e-09
1.01576
6.07958e-08
1.1892e-09
2.45964e-08
-1.2906e-05
0.000100876
1.0066
0.11216
0.0339851
0.206208
5.54543e-08
0
0.00991061
0.012683
0.179412
1.37383
-5.48411e-09
0.376039
0.301071
-2.67282e-05
-1.66685e-05
0
-1.62991e-07
1.18025
0.969378
0.000808833
2.19665e-06
1.03616
-2.73361e-06
0
0.233932
1.21675
0.00471233
-5.2432e-05
0.0164034
1.56826e-07
6.82903e-08
1.58203e-09
6.73702e-05
-1.22048e-08
-9.96492e-09
0.00787774
-4.64254e-05
0.143801
0.0457257
1.08423e-07
0.286394
1.14783
-2.54609e-05
4.50017e-05
0.310875
4.5341e-06
0.702906
0.0048556
0.000396291
0.45402
1.25999
-6.60376e-05
1.23591
1.55675e-07
3.6971e-05
4.23628e-08
0.361497
1.21854
2.99181e-08
0.0128779
8.19482e-05
-1.59728e-09
0.390419
3.8163e-05
5.99496e-06
0
-8.06759e-06
1.03672
1.02283
0.0536975
2.51445e-08
0.000115029
-2.90689e-07
0.190574
-2.38487e-07
-4.88353e-10
3.72336e-07
-2.18382e-08
5.23422e-08
0.0464061
0.00266931
0.0101
0.372481
-1.26427e-08
-2.28793e-05
9.29912e-06
0
0.288683
1.03048e-07
0.333559
0.00323998
0.35305
0
-1.72442e-10
-1.29045e-06
0.919811
0.22607
5.39782e-05
3.76402e-05
0
0.0209541
8.56348e-08
0.795796
-1.15223e-08
0.000253631
2.41946e-06
1.13513
0.256941
-5.24039e-09
-1.10041e-07
-1.63135e-05
2.2891e-08
0.088266
0.000213188
0.000114556
-1.5773e-10
0.546764
0
0.431304
0.526201
0.000947932
0.123994
-4.73452e-08
-0.000442962
4.40332e-09
0.016331
-7.7584e-07
-0.00156033
1.46172
0.0891998
0.0225225
0.000636949
1.61531e-08
0.00569691
-3.11593e-08
0.854158
-6.7361e-07
1.06905
0.858553
0.718344
-4.1287e-05
0.00214561
-0.000402242
-9.07263e-09
-2.66881e-08
0.00563742
2.56445e-10
0.435662
0.0274802
-2.07356e-08
0.0210694
0.467105
1.15006e-10
1.56572e-08
-3.9659e-07
0.883082
-1.17037e-06
3.89725e-09
-0.000160585
1.13947
0.854995
1.11833e-05
-1.60222e-05
0.000233572
2.58895e-05
0
1.86707e-07
-4.58816e-05
1.23152
-5.56685e-06
-8.56223e-06
-2.83207e-06
-1.64545e-10
0.122781
-1.51071e-06
0.460313
-1.60333e-05
-9.75503e-06
-0.000347018
0.23349
1.08655e-05
2.13875e-06
0.000161237
0.146419
-0.00070858
0.0050889
3.16607e-09
0.679752
0.00808682
0
-1.64516e-08
1.11277
-2.56973e-10
0
6.01686e-08
0.0051239
0.04227
0.767684
-3.53081e-08
0.0171842
0
-8.31914e-06
-0.000127044
1.22193
0.794868