# vtk DataFile Version 2.0
Unstructured Grid by M++
ASCII
DATASET UNSTRUCTURED_GRID
POINTS 4072 float
  0.562500   0.968750 0
  0.906250   0.500000 0
  0.750000   0.781250 0
  0.953125   0.531250 0
  0.984375   0.875000 0
  0.828125   0.828125 0
  0.828125   0.859375 0
  0.562500   0.765625 0
  0.937500   0.687500 0
  0.968750   0.578125 0
  0.968750   0.781250 0
  0.734375   0.843750 0
  0.968750   0.718750 0
  0.734375   0.796875 0
  0.984375   0.718750 0
  0.984375   0.703125 0
  1.000000   0.750000 0
  0.984375   0.734375 0
  1.000000   0.718750 0
  0.953125   0.859375 0
  0.953125   0.843750 0
  0.937500   0.843750 0
  0.921875   0.640625 0
  0.937500   0.625000 0
  0.671875   0.906250 0
  0.687500   0.890625 0
  1.000000   0.687500 0
  0.828125   0.796875 0
  0.828125   0.750000 0
  0.515625   0.750000 0
  0.828125   0.937500 0
  0.968750   0.625000 0
  0.984375   0.593750 0
  0.984375   0.796875 0
  0.750000   0.859375 0
  0.859375   0.937500 0
  0.828125   0.953125 0
  0.859375   0.781250 0
  0.593750   0.515625 0
  0.984375   0.750000 0
  0.734375   0.828125 0
  1.000000   0.734375 0
  0.750000   0.812500 0
  0.953125   0.562500 0
  0.968750   0.750000 0
  0.734375   0.812500 0
  0.968750   0.546875 0
  0.843750   0.906250 0
  0.875000   0.875000 0
  0.578125   0.640625 0
  0.750000   0.968750 0
  0.984375   0.906250 0
  0.625000   0.515625 0
  0.937500   0.593750 0
  0.781250   0.578125 0
  0.640625   0.968750 0
  0.937500   0.531250 0
  0.937500   0.515625 0
  0.953125   0.500000 0
  0.703125   0.796875 0
  0.859375   0.718750 0
  0.703125   0.765625 0
  0.921875   0.703125 0
  0.687500   0.765625 0
  0.921875   0.500000 0
  0.718750   0.781250 0
  0.734375   0.765625 0
  0.968750   0.687500 0
  0.968750   0.890625 0
  0.734375   0.953125 0
  0.859375   0.828125 0
  0.890625   0.484375 0
  0.843750   0.843750 0
  0.828125   0.765625 0
  0.968750   0.906250 0
  0.796875   0.578125 0
  0.765625   0.828125 0
  0.609375   0.968750 0
  0.734375   0.656250 0
  0.671875   0.875000 0
  0.531250   0.906250 0
  0.546875   0.921875 0
  0.765625   0.656250 0
  0.531250   0.937500 0
  0.531250   0.734375 0
  0.765625   0.671875 0
  0.843750   0.734375 0
  0.843750   0.937500 0
  0.609375   1.000000 0
  0.593750   0.796875 0
  0.828125   0.734375 0
  0.578125   0.812500 0
  0.671875   0.562500 0
  0.781250   0.562500 0
  0.656250   1.000000 0
  0.765625   0.796875 0
  0.656250   0.593750 0
  0.796875   0.562500 0
  0.625000   0.828125 0
  0.625000   0.625000 0
  0.859375   0.562500 0
  0.796875   1.000000 0
  0.890625   0.781250 0
  0.875000   0.781250 0
  0.625000   0.859375 0
  0.843750   0.781250 0
  0.859375   0.765625 0
  0.843750   0.765625 0
  0.859375   0.750000 0
  0.843750   0.750000 0
  0.765625   1.000000 0
  0.781250   0.984375 0
  0.875000   0.625000 0
  0.875000   0.812500 0
  0.640625   0.875000 0
  0.562500   0.906250 0
  0.796875   0.843750 0
  0.796875   0.828125 0
  0.656250   0.906250 0
  0.890625   0.640625 0
  0.875000   0.843750 0
  0.859375   0.843750 0
  0.625000   0.906250 0
  0.812500   0.875000 0
  0.859375   0.515625 0
  0.812500   0.843750 0
  0.796875   0.875000 0
  0.796875   0.859375 0
  0.593750   0.968750 0
  0.859375   0.875000 0
  0.625000   0.937500 0
  0.843750   0.875000 0
  0.593750   0.953125 0
  0.859375   0.859375 0
  0.828125   0.671875 0
  0.890625   0.765625 0
  0.656250   0.828125 0
  0.656250   0.625000 0
  0.890625   0.562500 0
  0.640625   0.843750 0
  0.640625   0.640625 0
  0.875000   0.578125 0
  0.890625   0.750000 0
  0.875000   0.765625 0
  0.562500   0.625000 0
  0.968750   0.500000 0
  0.734375   0.562500 0
  0.937500   0.578125 0
  0.703125   0.640625 0
  0.656250   0.984375 0
  0.640625   1.000000 0
  0.953125   0.578125 0
  0.671875   0.984375 0
  0.906250   0.921875 0
  0.921875   0.687500 0
  0.671875   0.765625 0
  0.687500   0.750000 0
  0.906250   0.484375 0
  0.984375   0.921875 0
  0.734375   1.000000 0
  1.000000   0.906250 0
  0.750000   0.984375 0
  0.828125   0.843750 0
  0.593750   0.906250 0
  0.828125   0.640625 0
  0.843750   0.828125 0
  0.609375   0.890625 0
  0.609375   0.687500 0
  0.843750   0.625000 0
  0.734375   0.875000 0
  0.968750   0.812500 0
  0.859375   0.812500 0
  0.625000   0.875000 0
  0.859375   0.609375 0
  0.843750   0.812500 0
  0.859375   0.796875 0
  0.828125   0.812500 0
  0.593750   0.875000 0
  0.828125   0.609375 0
  0.781250   0.843750 0
  0.515625   0.921875 0
  1.000000   0.781250 0
  0.765625   0.843750 0
  1.000000   0.578125 0
  0.765625   0.968750 0
  0.890625   0.703125 0
  0.656250   0.765625 0
  0.890625   0.500000 0
  0.875000   0.703125 0
  0.937500   0.937500 0
  0.984375   0.578125 0
  0.578125   0.531250 0
  0.875000   0.609375 0
  0.640625   0.671875 0
  0.796875   0.625000 0
  0.859375   0.593750 0
  0.625000   0.656250 0
  0.609375   0.671875 0
  0.593750   0.687500 0
  1.000000   0.562500 0
  0.765625   0.625000 0
  0.656250   0.578125 0
  0.625000   0.546875 0
  0.671875   0.812500 0
  0.906250   0.750000 0
  0.796875   0.546875 0
  0.828125   0.718750 0
  0.578125   0.781250 0
  0.875000   0.656250 0
  0.640625   0.718750 0
  0.734375   0.984375 0
  0.968750   0.921875 0
  0.609375   0.531250 0
  0.953125   0.921875 0
  0.968750   0.937500 0
  0.593750   0.546875 0
  0.765625   0.609375 0
  0.531250   0.671875 0
  0.781250   0.593750 0
  0.546875   0.656250 0
  0.656250   0.656250 0
  0.890625   0.593750 0
  0.656250   0.859375 0
  0.921875   0.671875 0
  0.968750   0.734375 0
  0.718750   0.812500 0
  0.812500   0.984375 0
  0.562500   0.796875 0
  0.750000   0.640625 0
  0.765625   0.687500 0
  0.531250   0.953125 0
  0.687500   0.656250 0
  0.921875   0.593750 0
  1.000000   0.593750 0
  0.750000   0.671875 0
  0.671875   0.750000 0
  0.906250   0.687500 0
  1.000000   0.656250 0
  0.812500   0.562500 0
  0.687500   0.796875 0
  0.921875   0.734375 0
  0.828125   0.546875 0
  1.000000   0.625000 0
  0.953125   0.968750 0
  0.750000   0.906250 0
  0.515625   0.968750 0
  0.812500   0.531250 0
  1.000000   0.796875 0
  0.515625   0.937500 0
  0.750000   0.875000 0
  0.812500   0.703125 0
  0.796875   0.703125 0
  0.812500   0.593750 0
  0.937500   0.562500 0
  0.656250   0.968750 0
  0.890625   0.906250 0
  0.703125   0.625000 0
  0.953125   0.546875 0
  0.671875   0.953125 0
  0.906250   0.890625 0
  0.984375   0.781250 0
  0.796875   0.687500 0
  0.562500   0.953125 0
  0.968750   0.875000 0
  0.718750   0.953125 0
  0.562500   0.937500 0
  0.781250   0.781250 0
  0.953125   0.875000 0
  0.718750   0.937500 0
  0.953125   0.671875 0
  0.796875   0.656250 0
  0.828125   1.000000 0
  0.953125   0.890625 0
  0.703125   0.968750 0
  0.828125   0.625000 0
  0.781250   0.968750 0
  0.781250   0.671875 0
  0.781250   0.875000 0
  0.546875   0.937500 0
  0.906250   0.640625 0
  0.671875   0.703125 0
  0.640625   0.609375 0
  0.875000   0.546875 0
  0.906250   0.625000 0
  0.656250   0.703125 0
  0.656250   0.718750 0
  0.968750   0.531250 0
  0.734375   0.593750 0
  0.984375   0.531250 0
  0.781250   0.546875 0
  0.718750   0.609375 0
  0.906250   0.703125 0
  0.968750   0.593750 0
  0.687500   1.000000 0
  0.921875   0.937500 0
  0.906250   0.765625 0
  0.906250   0.562500 0
  0.718750   0.750000 0
  0.718750   0.546875 0
  0.953125   0.484375 0
  0.796875   0.593750 0
  0.515625   1.000000 0
  0.750000   0.937500 0
  0.906250   0.593750 0
  0.546875   1.000000 0
  0.781250   0.937500 0
  0.828125   0.593750 0
  0.984375   0.609375 0
  0.937500   0.953125 0
  0.796875   0.515625 0
  0.968750   0.609375 0
  0.734375   0.671875 0
  0.906250   0.781250 0
  0.671875   0.843750 0
  0.515625   0.890625 0
  0.687500   0.625000 0
  0.921875   0.562500 0
  0.843750   0.531250 0
  1.000000   0.765625 0
  0.750000   0.843750 0
  0.812500   0.671875 0
  0.687500   0.921875 0
  0.765625   0.515625 0
  0.953125   0.609375 0
  0.921875   0.625000 0
  0.687500   0.687500 0
  0.812500   0.656250 0
  0.812500   0.859375 0
  0.578125   0.921875 0
  0.796875   0.765625 0
  0.890625   0.687500 0
  0.578125   0.750000 0
  0.812500   0.687500 0
  0.578125   0.953125 0
  0.796875   0.796875 0
  0.984375   0.890625 0
  0.734375   0.968750 0
  0.718750   0.640625 0
  0.968750   0.562500 0
  0.687500   0.968750 0
  0.921875   0.906250 0
  0.765625   0.953125 0
  0.812500   0.609375 0
  0.812500   0.734375 0
  0.875000   0.562500 0
  0.968750   0.656250 0
  0.796875   0.734375 0
  0.812500   0.828125 0
  0.578125   0.890625 0
  0.781250   0.687500 0
  0.984375   0.671875 0
  0.578125   0.828125 0
  0.812500   0.765625 0
  0.875000   0.593750 0
  1.000000   0.875000 0
  0.765625   0.937500 0
  0.843750   0.656250 0
  0.843750   0.859375 0
  0.609375   0.921875 0
  0.828125   0.687500 0
  0.937500   0.656250 0
  0.937500   0.859375 0
  0.703125   0.921875 0
  0.984375   0.640625 0
  0.890625   0.468750 0
  0.656250   0.734375 0
  0.890625   0.671875 0
  0.890625   0.875000 0
  0.656250   0.937500 0
  0.578125   0.859375 0
  0.812500   0.796875 0
  0.843750   0.890625 0
  0.609375   0.953125 0
  0.937500   0.875000 0
  0.687500   0.953125 0
  0.843750   0.953125 0
  0.828125   0.703125 0
  0.593750   0.765625 0
  0.937500   0.546875 0
  0.781250   0.531250 0
  0.781250   0.734375 0
  0.546875   0.796875 0
  0.796875   0.718750 0
  0.562500   0.984375 0
  0.984375   0.812500 0
  0.562500   0.812500 0
  0.796875   0.750000 0
  0.562500   0.875000 0
  0.796875   0.812500 0
  0.640625   0.750000 0
  0.875000   0.687500 0
  0.703125   0.671875 0
  0.937500   0.609375 0
  0.562500   0.843750 0
  0.796875   0.781250 0
  0.781250   0.750000 0
  0.781250   0.609375 0
  0.812500   0.953125 0
  0.812500   0.718750 0
  0.953125   0.593750 0
  0.718750   0.656250 0
  0.671875   1.000000 0
  0.796875   0.953125 0
  0.843750   0.609375 0
  0.812500   0.812500 0
  0.812500   0.781250 0
  0.750000   0.953125 0
  0.750000   0.750000 0
  0.984375   0.687500 0
  0.781250   1.000000 0
  0.765625   0.546875 0
  0.765625   0.750000 0
[...]
POINT_DATA 4072
SCALARS scalar_value float 1
LOOKUP_TABLE default
-2.34659e-05
-3.63339e-06
0.000207605
3.15874e-08
0
1.53231e-07
-7.098e-08
0.106199
-2.27275e-08
-1.974e-09
-4.58687e-10
-6.5895e-07
-2.96921e-09
0.000140388
6.94281e-10
-1.25712e-09
-5.86774e-10
-5.63727e-10
-1.23154e-09
0
4.91646e-10
1.86147e-09
-7.82046e-08
-1.22969e-08
-9.74785e-07
1.47391e-07
-1.43457e-09
7.44863e-08
-3.00971e-07
0.0432455
4.95436e-08
-2.10782e-09
-3.33874e-09
1.17324e-10
-9.41435e-07
3.41758e-09
-2.02987e-08
-2.30842e-08
0.0792309
0
7.05807e-06
8.35399e-10
1.54698e-05
1.71898e-08
-1.17315e-09
-7.2335e-06
-2.98514e-09
5.32025e-08
5.50112e-08
0.878723
4.01683e-08
0
0.0820964
1.2729e-08
-0.00320562
-7.61612e-07
8.48703e-08
4.99069e-08
8.26598e-08
0.00063293
-3.39795e-08
0.00801493
-2.69604e-08
0.011439
1.05519e-06
0.00127067
0.00193736
-4.55265e-09
0
1.72832e-07
7.55989e-08
-2.29311e-06
1.82837e-07
-5.37212e-07
0
-0.0018377
3.06949e-06
-8.71578e-08
0.208059
-7.89845e-07
-0.00165497
0.000831206
0.025222
-0.000628667
0.0958786
0.0191348
-2.20248e-07
-7.38633e-09
0
0.0301918
-5.01676e-07
-0.0126466
0.00066398
-0.00436278
0
2.24313e-05
0.879522
-0.00138128
-0.000102987
1.02263
4.30477e-06
0
-1.03407e-08
2.9649e-08
-7.8407e-05
1.57367e-08
5.80779e-09
-2.05752e-07
1.82263e-08
-3.65624e-07
0
-8.23726e-08
-2.09781e-06
2.78692e-08
-1.72411e-05
-0.000394314
-1.00994e-06
8.88099e-07
1.0328e-06
-2.94809e-07
9.39864e-08
-6.73369e-08
2.2234e-06
-4.28684e-07
7.67603e-06
3.13858e-08
-1.06319e-06
-9.19834e-07
-2.29943e-06
-3.29264e-09
4.98786e-06
8.72665e-08
-6.00654e-06
2.69148e-08
-1.83694e-06
2.58909e-09
5.83955e-05
1.04943
-3.71468e-06
-8.43096e-05
0.948106
4.4387e-06
1.17197e-08
2.63627e-08
1.03509
-5.34115e-08
0.252452
6.30333e-08
0.658033
-1.2227e-07
0
1.99854e-08
3.34378e-07
-3.18256e-09
4.41302e-08
0.0198888
0.0323898
-1.373e-06
0
0
0
-1.079e-07
-3.63752e-07
3.4044e-05
3.61494e-05
-1.31713e-07
-5.7724e-06
0.889969
1.17279e-05
4.35711e-07
0
-5.78674e-08
-2.6991e-05
-1.30354e-05
1.70232e-07
9.39065e-08
-5.42755e-07
-0.00014363
0.000113062
3.21827e-06
0.0027166
-1.32938e-10
-8.26853e-07
1.60357e-09
-4.36526e-08
-2.92801e-08
0.0224521
-2.64471e-06
6.11292e-08
2.63487e-10
5.98526e-09
0.116106
1.83544e-06
0.637542
-0.00151853
-7.56414e-06
0.874534
0.928215
0.832003
-8.04029e-09
0.0311395
0.489483
0.153917
0.000277301
-9.40625e-09
-0.000934605
-8.60283e-07
0.0237658
-1.49944e-06
0.30891
2.42808e-08
0
0.230096
1.06464e-10
0
0.182722
0.0291338
0.550641
-0.00193224
0.754111
0.765511
4.33183e-07
-1.45589e-05
-6.62485e-08
1.40804e-09
6.31419e-05
-8.60685e-09
0.0166457
0.10892
0.0128019
0.000369314
0.656967
-9.11133e-08
8.49357e-10
0.0650959
0.040596
-8.7332e-08
-9.26615e-10
0.000326688
0.000775108
-5.42123e-09
4.92048e-05
1.24531e-10
0
-1.18606e-06
0.000147436
0.000434087
1.71618e-10
-0.00106779
-1.38208e-06
-4.17437e-05
7.99736e-06
-2.11229e-05
1.72067e-07
5.92637e-07
-1.21336e-08
0.74611
4.86058e-08
6.27414e-07
-3.38915e-09
0
-8.06586e-05
-1.99292e-05
1.30403e-10
-2.11305e-08
3.78802e-05
2.26655e-05
-1.78418e-10
-3.43522e-08
-1.16543e-08
-0.000622572
0
1.5515e-10
-2.00942e-07
9.66e-05
4.47514e-08
0.00280354
1.28624e-06
-0.000324217
2.37084e-07
0.254946
0.990803
7.53916e-07
-1.45368e-07
0.290746
0.180855
-4.41037e-08
0.310695
1.68884e-08
-0.00456639
0.556845
3.37114e-08
-3.44071e-09
0
-7.74e-10
-1.11535e-08
1.35233e-06
0.0119977
0.371293
7.21627e-08
-0.00190686
0
-5.5362e-07
-2.47153e-07
0
-9.36205e-07
0.000155331
1.06066e-09
-1.78846e-10
-8.67382e-05
2.10523e-09
0.152502
-1.44649e-08
1.09803e-05
0.00485651
0.908734
2.92277e-07
-4.22136e-05
3.36887e-10
-4.54617e-07
-0.000173455
-4.37843e-07
-0.00253421
3.44736e-09
2.65942e-09
0.341431
-0.000258716
-2.5322e-07
3.18747e-05
1.15433e-05
1.52353e-07
0.679847
-9.46894e-05
8.93656e-06
5.24302e-06
0
-1.27594e-07
0.45947
-7.88343e-09
1.97271e-07
-1.11342e-09
-2.37819e-08
-0.000143529
2.08467e-07
8.77333e-07
-3.39306e-09
2.36125e-05
-9.52907e-07
0.000314463
0.0020813
-1.3625e-09
0.00908262
9.33281e-07
2.88812e-06
0
-8.17728e-07
1.16473e-05
-5.88013e-08
1.29749e-05
-4.13919e-06
-2.87045e-08
2.14097e-09
3.23919e-07
-8.25839e-10
-1.57521e-06
0.107076
-2.44115e-07
-1.70395e-08
1.13108e-06
0.00254829
-1.46847e-06
-3.42719e-08
4.60579e-06
1.97835e-09
-1.7669e-07
8.18984e-09
-2.16539e-06
0.161932
8.05368e-08
-0.00420454
0.000312662
0.00899418
3.00949e-05
5.37775e-05
0
-0.00952939
1.7351e-05
-0.0028046
-4.08021e-07
0.0806342
-2.81826e-07
0.396601
1.44285e-08
-0.0073681
3.94388e-06
0.000121117
0.000122894
-1.04128e-08
-1.21779e-05
5.96863e-10
0.370111
0
-2.41619e-07
1.31406e-05
1.52134e-07
8.64267e-07
-1.50654e-07
0.00220147
1.47024e-09
0
0.00533176
0.000623622
0.000973991
-1.77229e-07
8.45314e-07
0.00811549
1.74065e-06
2.24899e-06
0.00267226
-2.20991e-08
0.02494
8.62272e-06
2.2749e-05
-1.78638e-08
4.0438e-08
2.10419e-09
0.183315
-1.02477e-06
0
-4.14816e-07
-2.94745e-09
0.126502
-1.31169e-07
0.011445
0.00439721
-2.20143e-08
0.108176
0.0443982
0.00578099
-0.0123968
3.31022e-08
0.0233672
0.0251667
0.0271816
-1.78279e-08
0.00527758
-4.16002e-08
3.10136e-07
-1.12632e-06
0
4.98119e-07
0.41588
0.540664
4.87209e-08
0
0
0.000159387
-2.3137e-09
8.60409e-10
2.56627e-07
0.0972533
1.57462e-08
0.00224476
1.23689e-08
-3.69315e-06
0.670275
0
-4.8549e-08
-7.99871e-09
4.44288e-07
-2.85637e-09
0
5.22582e-07
1.72118e-09
-1.53012e-09
-5.59241e-10
7.90874e-10
0
0
2.44097e-09
-0.00029437
1.03015e-09
5.28077e-09
0.518144
-8.89191e-10
-4.04146e-09
0
0.355519
-2.45896e-07
-6.8501e-09
0
0
1.60899e-05
-4.4856e-09
0.296014
4.79723e-08
2.64596e-08
0.195151
1.50432e-07
0.0657061
-5.48895e-06
0.624137
-7.36692e-07
0.490178
0.0129126
1.39165e-09
0
0
0.00041283
0.66633
0
0.543303
0
7.29634e-07
0.503834
0
1.09321e-05
0.832521
0
0.827597
0
0
0.000525773
0
3.42937e-07
-1.8569e-10
0.196114
1.87271e-10
8.55009e-09
0.0884274
0
8.46952e-06
0.356054
0
-4.14917e-05
0.604184
0.449137
0
1.15157e-06
0.0925592
4.04786e-08
-7.04248e-09
8.17486e-07
0.00120342
1.77544e-07
-3.30815e-06
0.00769297
-1.94537e-08
0
1.31011e-09
0.00167253
0.0122124
5.49879e-08
-8.90911e-08
0.000681803
-0.0111544
0.000676008
2.98301e-08
-1.08439e-05
-0.000472701
0.863995
0.000398116
0.357139
-0.00193705
0.744444
0.000211476
0.888992
0.744503
0.866376
-0.000137576
0
0
-8.31765e-09
-1.39494e-08
-1.86041e-08
-1.13994e-08
-4.12579e-09
0
-5.54716e-06
-3.74808e-10
7.33514e-10
1.54092e-09
-3.16645e-10
-1.64821e-10
8.26877e-06
-4.4176e-07
-7.56364e-08
-4.70857e-07
8.66588e-06
-4.32508e-08
1.03077e-10
0
-4.0168e-07
0
0
0
3.07881e-10
-6.04913e-10
0
0
3.16459e-10
0
-1.18917e-08
0
0
0
1.39812e-05
-1.59265e-07
4.49958e-07
-5.32045e-07
-1.05796e-07
0
1.08831e-10
0
-6.53809e-08
5.92213e-06
1.16975e-10
-4.59172e-06
2.62541e-10
7.2882e-10
3.45766e-09
4.60784e-07
3.64857e-09
1.35824e-09
4.10267e-09
6.49595e-07
6.78696e-10
0
3.21438e-10
-3.02658e-07
0.0144801
4.34499e-09
1.44101e-08
1.61639e-08
9.34746e-09
-3.39799e-06
0.415261
1.06465e-06
0
0
0
0
2.08255e-06
2.4152e-06
9.50786e-10
4.42908e-10
2.41443e-06
2.1152e-09
1.099e-09
0.00497863
3.85382e-06
8.13313e-10
4.04705e-05
-8.086e-10
0.0136858
8.92099e-06
-5.13957e-08
-2.8841e-10
2.55723e-07
0.00198212
-7.91483e-09
0
-5.29833e-09
6.52768e-09
0.000866012
-3.29076e-07
6.45127e-06
5.30808e-09
3.73607e-09
5.08395e-10
-1.77309e-09
0
-4.19152e-05
0.756925
-4.74428e-05
-0.00370807
8.06067e-06
1.42915e-09
0.000206746
-0.00715832
3.91199e-05
0.00747315
4.05501e-05
-0.00431977
-3.77339e-06
2.33895e-05
4.74328e-10
2.92494e-09
8.30972e-10
1.88554e-06
-2.62495e-08
7.17041e-08
0.127329
0.436871
0
0
0.119575
-0.00199226
1.33048e-05
-0.00165789
5.8927e-07
0
0
0
0.00166814
0.004662
-7.82461e-07
0
-2.49536e-05
-3.07248e-06
0
-0.000151329
0
0.388519
2.66633e-07
0.000191236
1.74315e-09
0.286494
0.906687
2.47635e-09
0.00129726
-0.00375304
0
0
1.94049e-09
0.417092
0.158919
0.154098
4.62379e-06
0
0.0203976
-0.0145224
-0.00377179
3.7256e-07
0
-0.00166158
0.907127
0.12858
0
-7.66433e-06
0
0
-3.38577e-08
0
0
9.58507e-10
0
0
1.0703e-05
-1.92108e-08
-4.88733e-05
-0.000335419
1.12991e-06
0.0377096
-0.00023718
0
1.25464e-09
0.000596287
-0.0036665
6.76916e-07
1.22896e-05
0.000755113
0
0
0
0
0
-1.3182e-05
3.99307e-09
-2.69336e-05
1.0375
-0.000612071
-1.2045e-06
0
2.55943e-07
-0.00432546
0.931185
-2.52544e-07
0
0.000539034
0.151183
-9.15826e-07
9.09822e-07
0.00209717
0.00208311
0.00245848
0.00963964
-0.000135907
0.78
0.123991
3.65851e-09
0.38833
0.185304
0.130514
-8.07603e-05
-0.00209585
-1.63778e-05
0.00199726
0.0180853
-1.20586e-05
-0.0122785
0.000133655
1.06327e-08
-0.000678745
0.234246
0.975276
1.60485e-09
0.000883502
1.09253
0
0.0321639
0
-0.000192892
-1.44515e-08
0.44805
1.05545
8.70856e-05
0
0.00101465
0
0
0.0279016
0.0459313
0.0675002
2.13363e-08
9.11183e-08
5.88608e-08
-0.00297767
-4.89039e-07
-3.92571e-08
0.286251
1.10166
0.313483
0.550343
0.0779259
0.164789
-0.000162987
2.15125e-05
1.01409
0.924503
0.525948
0.373725
0.259057
0.25269
0.781559
0.55736
-2.77552e-07
0.185127
1.02976
-3.5908e-06
-0.000271718
5.15033e-06
0.442053
1.12829
1.66728e-07
-4.29423e-05
-3.26003e-06
-3.59891e-05
0.000141104
0.440016
0.995119
-1.91483e-06
-8.38735e-08
9.68434e-09
4.19971e-06
0
0
0
-2.23692e-06
2.7466e-06
0.701047
4.10761e-07
0.000424818
-0.000346433
1.04321e-06
0.0894228
0.00016753
2.42546e-05
0.00391549
0.00960352
-1.43934e-08
0.977697
0.657703
-0.000558235
-0.00127998
-0.000238449
0.00199969
0
0.052397
0.0242034
0.146591
-3.48469e-06
0
2.03749e-06
0
0
0
0.00012463
-0.00579975
-5.78046e-05
0.00395096
0.600416
0.0464706
0.728306
0.0761208
0
-2.42174e-07
0.930756
0.657605
-0.000209856
0.897975
0.935117
-1.94876e-09
-6.33611e-10
4.46576e-07
1.44491e-05
7.63804e-05
1.00666
0.209022
8.58346e-06
4.2592e-05
-1.42911e-08
0.0350731
0
1.97192e-06
-0.000593043
-0.0101584
-1.40317e-07
0
0.0545209
1.45762e-10
-1.5159e-05
0.00994714
1.97128e-05
5.01139e-06
-0.00700173
7.22948e-07
-5.25505e-05
-2.5301e-05
0.0041575
3.68793e-06
0.660828
0.288253
-4.38131e-06
-1.60735e-05
0
3.1174e-06
0.514836
-1.81732e-06
0
0
0.0845451
2.28529e-06
0
-1.23453e-06
0
-3.90806e-09
0.205464
1.13756e-10
0
2.09705e-06
-5.60955e-09
6.15438e-06
5.66212e-06
0.232217
3.04968e-07
1.10086
0.00580604
0.00435892
0
0
-3.8161e-07
-2.70235e-10
6.01111e-07
0.683617
0.00479907
0.0318993
0
-4.38124e-09
-2.10428e-06
1.51322e-07
-2.54422e-05
0
-1.56991e-09
-1.31623e-08
4.67806e-06
-8.05949e-10
0.884058
0.998408
4.95503e-09
-5.14207e-09
9.87332e-06
0.92453
-7.73106e-10
2.34058e-07
-1.31129e-07
0.011786
-6.76752e-09
3.75347e-06
4.54023e-08
1.0773
-6.97896e-10
-4.53991e-07
-1.5356e-07
0
1.0769e-05
-3.55827e-08
0.156333
-2.5204e-07
-9.85042e-05
0
2.6178e-10
0.167139
-2.85343e-08
-2.02593e-09
0
0
5.22853e-05
0.000283342
0
-5.81834e-05
0
0
-3.33494e-08
0.410483
0.0747587
1.38692e-07
-1.01909e-05
0
-2.75799e-05
0
0
0
0
0
0
0.0901549
4.49123e-08
-5.23287e-06
0
0
0.0492273
0
0
0
-6.65255e-08
-4.41854e-08
0
0
0
0
0.000221828
-2.7783e-05
0.00127489
1.4082e-09
0
-0.000107823
-1.71425e-06
3.40982e-08
5.06301e-10
0.000513899
0.00019609
0.000153019
-2.29511e-08
-2.96868e-09
0.004098
0.755649
0
-8.87217e-10
0.000506041
0.0697898
-1.3334e-08
-0.00076917
2.25349e-09
0
0
9.58552e-06
0.0152481
2.61821e-05
-1.62246e-07
-2.96886e-06
0
-0.000173272
0
0
-2.29581e-07
0.0231695
0.538098
0
0
6.4978e-10
-7.15781e-08
1.37896e-06
0
1.53503e-07
-1.03866e-06
0
-9.83964e-09
0.886152
0
0
3.78544e-06
0.000372997
0.215668
0.493714
0
-6.56704e-06
0
1.73647e-05
0
0
1.29038e-05
0.000100372
0
0
0.000105002
0
-3.25488e-09
0.000941997
-1.56079e-05
0
-6.57338e-08
0.412587
0.0590942
1.12174
1.69558e-10
0
2.31681e-05
-1.44191e-07
0
0
3.47355e-09
0
2.87076e-10
4.38348e-09
0.00171757
0.982183
0
2.71157e-10
-3.46748e-09
0.000123224
1.02537
0
1.01067e-10
-8.30698e-09
-6.96564e-08
7.38775e-06
0
3.94657e-09
-1.09055e-05
0
0
0
-2.2067e-05
0
-1.2772e-10
0
0
0.000160502
1.17188e-06
0
8.61037e-05
5.22555e-07
0
3.76715e-09
7.61963e-10
1.0791
-1.09115e-05
0
0.164061
0
0
0
-8.23797e-05
0.00759818
0
-4.14498e-10
0
0
0
0
0.0132742
-1.23598e-06
0.00184319
0
0
0
1.46305e-06
4.459e-08
0
0
6.83093e-05
1.34822e-10
3.68729e-08
-5.47418e-07
3.67221e-09
-1.42814e-07
-1.31989e-05
8.19374e-10
0
0
0.000122933
-1.05204e-05
-9.01433e-07
-2.68295e-05
-5.30929e-10
0
0
8.93818e-05
2.272e-07
0.000469596
2.85184e-08
0
0.000285091
-1.59194e-07
-0.000212525
-0.000292434
-1.90173e-08
0
0
2.02836e-10
4.30467e-07
0.502589
-0.00242327
-5.91836e-09
0
-4.46237e-09
0
0
0
-1.61074e-07
-3.77883e-06
0
0
0
0
-1.20478e-05
9.55473e-07
-2.27805e-06
-1.00551e-08
3.52203e-09
0
0
-4.0977e-10
3.65726e-07
7.12314e-09
0
-5.52907e-09
0.30228
-0.000276078
-4.58334e-10
0
-1.10303e-09
8.11057e-09
0.662732
-1.44159e-10
0
0
1.8783e-08
0
2.87535e-09
2.37043e-07
0.287986
0.000307865
2.37067e-08
0
0.000202941
0.0238726
0
0.000658059
7.73729e-10
4.2181e-07
1.01418e-08
1.07366
0.0160756
0.0130436
-2.44315e-10
0
0
0
0
1.90667e-10
1.99465e-05
0
0.000680532
0.032943
0
0
0
0.917178
0.025846
0.0308601
5.9662e-10
0
0
0
0
-6.73579e-05
-2.37039e-08
-1.60987e-09
-1.05545e-08
3.22297e-09
1.76346e-10
-0.00864942
0.000135617
-1.58419e-05
-4.67427e-09
0.738323
2.06094e-06
-9.15388e-08
1.28082e-08
0.924579
4.28384e-09
2.52393e-09
-8.17063e-07
-4.41956e-07
0.313347
1.04142
0
1.35643e-08
0
0
2.8653e-09
0
2.15005e-05
0.0265009
0.202052
0
-1.01229e-08
-2.11826e-09
-4.02055e-05
-5.34541e-08
0
0.00624773
-0.0007376
0
1.18252e-08
-3.20707e-09
-7.92117e-06
0.0174154
0
-4.27769e-09
-1.43196e-05
-2.08294e-09
2.96743e-09
0
-1.13341e-09
-1.58495e-09
-2.15649e-05
3.58039e-10
1.65548e-10
0.000210851
0
0
-4.42285e-07
-4.69071e-05
2.47696e-09
-4.12456e-10
1.34385e-08
0.000314394
9.2283e-08
0.0245576
-2.41761e-07
2.0477e-05
-0.000955433
0
0
0
-2.45499e-08
-9.77658e-09
0
-0.000165107
0
0.000327274
-9.55367e-05
1.1796e-08
-3.38734e-09
0.0162152
-2.53729e-05
-1.27942e-06
-0.000311342
8.10653e-05
7.58895e-09
5.41872e-10
0.00114401
1.63524e-10
-4.12915e-07
4.33656e-10
-0.000431925
2.29545e-08
1.31465e-10
-0.000580654
-0.000169609
-7.92435e-08
-1.45075e-07
2.18117e-08
0.0994731
-9.55881e-06
0
0
-2.65638e-08
-1.45299e-10
-1.22192e-09
1.07531e-08
-7.7469e-09
0
0
-3.93208e-09
0.0549631
0.0002829
0
-5.40197e-09
0.0603223
0.168492
2.29538e-08
0.00152056
0.0230846
0.00725188
1.9039e-08
-9.84539e-09
4.75597e-10
0.00458356
0
0
-2.07556e-09
0.280358
0.00886342
1.54781e-07
0.89319
3.99593e-05
0.00051426
0.0173963
0
0
9.87695e-10
0.850397
0.187886
-9.76496e-05
0.000484661
0
0.00175725
-2.0307e-06
1.80436e-08
-3.7468e-05
2.87593e-09
0.00928021
0
1.5466e-07
-1.50986e-09
0
0
0
0.00156517
0
0
4.2498e-07
-1.38006e-06
0
8.41946e-06
0.575349
9.18153e-05
-0.000108147
0.000992014
0
0
-4.81056e-05
2.05979e-09
0
0.447226
-4.10078e-08
0.0598019
0
0
-0.00195832
0.100993
0.00263454
-1.03329e-10
0
0.000139847
-0.00111732
0
5.73404e-09
3.25144e-09
-5.5195e-09
0
-1.27535e-10
0.0220591
0
0
1.75312e-07
0
-6.36421e-10
0
0
0
1.3966e-05
7.2116e-08
0.544633
0.00545877
5.60712e-09
0
1.45382e-06
3.27539e-05
1.01698e-05
-1.16275e-09
9.94575e-10
0
-0.00567318
1.44396e-05
9.17581e-05
9.85607e-07
-5.86437e-06
-8.42707e-09
-8.46984e-09
0
0
7.10134e-08
1.94441e-10
-0.00250124
-4.57429e-05
0
0
0
8.51562e-09
7.41814e-07
0
-1.19899e-05
0
-1.70742e-09
-3.06421e-08
-2.58709e-09
-1.87683e-09
-6.44072e-08
-1.93557e-06
7.25617e-10
-1.3032e-08
0
-2.1533e-06
-3.36085e-07
0
0
0.000773426
-1.06988e-05
2.19667e-07
4.05429e-06
-4.71074e-07
0
2.11196e-06
7.9459e-06
0
-2.91374e-08
0
0
0
0
5.83147e-10
4.07628e-06
0
-1.67742e-05
-1.55307e-06
0
-3.24973e-09
-1.35989e-08
1.82922e-08
-8.623e-05
0.103677
-1.73316e-08
-0.000793526
0
1.12062e-05
0
0
-3.15374e-09
0
0
0.00769078
1.38348e-06
0.000602812
0
-1.44685e-10
-5.34211e-05
0
-2.95067e-10
0
2.31607e-07
1.40093e-10
0
0.00262389
1.13153e-05
0
-1.17826e-08
-2.35453e-09
0.0165896
0
-0.0020549
5.43158e-10
-1.68557e-07
4.56262e-10
-7.19407e-08
-6.33352e-06
0.00313601
1.33259e-07
0.00534701
6.30026e-08
-4.58051e-10
1.16098e-09
3.46528e-08
1.9622e-10
0.0476355
2.85117e-08
-5.65293e-10
0
-0.000267895
-2.62014e-08
-1.91964e-08
0
0
-2.14397e-06
0
0
0
0
0
3.58618e-08
0
0
0
0.0104572
0
-9.58772e-05
0
0
-3.09964e-09
8.57601e-10
0.00141568
0.00208818
0.933296
-4.40118e-05
0.02714
0.045701
-2.04559e-05
0
-1.41485e-10
0
0
2.33359e-07
-3.24017e-10
-5.13533e-09
0
0
7.77256e-05
1.82689e-05
0
1.99667e-10
-1.04761e-10
0
3.68042e-05
0
8.93342e-06
0
0
3.24779e-08
0.0050686
0
2.01398e-06
1.89146e-09
0.0620674
0.23003
0
0
0.980039
0.260364
7.53937e-06
0.0011601
0
0.00273547
0.14856
0
0
-7.37051e-10
-1.06642e-09
-0.00013194
0.00929965
0
0
-5.71427e-05
5.4744e-06
0
5.34665e-08
2.24598e-05
5.12143e-05
2.80765e-10
1.40531e-09
-2.98187e-09
0
0
0
-3.52791e-10
-5.62094e-08
0.0804488
0
2.04646e-09
1.66712e-08
7.12875e-10
0.00730387
0.000665265
-3.20025e-06
-3.82131e-09
1.01029e-08
-3.21436e-05
5.64246e-07
-2.97217e-07
0
-2.97596e-06
0.000242085
4.19187e-10
0.000531008
-4.68827e-07
-9.89742e-09
0
-0.00146393
0.00342919
0
1.75193e-08
4.60932e-08
2.20411e-08
0.128646
-4.83101e-05
0
0
1.1819e-10
-0.000414541
9.10685e-05
0.116823
-2.18339e-07
0.00294067
-1.42468e-08
3.60474e-05
-1.50816e-09
0
1.38922e-09
0
2.59298e-09
-0.000727944
0
3.60185e-10
-2.43891e-06
5.10476e-10
0
0
-2.58766e-09
-7.13294e-08
0
9.37587e-08
-6.31056e-09
0.0511339
0
8.33065e-10
6.38482e-05
0.00962389
0.0781436
-0.000377277
0
6.52198e-10
0.148431
-1.57528e-08
-8.49367e-07
-3.29002e-08
0
0
3.54829e-05
-1.24619e-07
-5.42061e-07
9.59515e-09
-0.00019481
7.57529e-09
-3.5588e-05
0.817634
0.866682
0
0.010964
-2.81778e-10
-1.14482e-08
0.0766785
8.84196e-05
5.92883e-05
-4.14619e-09
0.0667493
-6.0275e-10
-7.92915e-08
4.3482e-05
0
5.43684e-05
-1.17359e-05
0.641603
0
0
0.0662357
1.44e-08
6.20433e-07
9.50117e-08
2.07433e-06
0.000171466
0.0234186
-2.06954e-05
0
5.72183e-10
0
1.92857e-07
0
0
4.92882e-08
-2.13586e-09
3.2198e-09
-0.000314344
-3.81931e-08
0
0
0
-9.10948e-06
-1.33988e-08
0
-2.42872e-09
-0.0208724
0.00276783
9.29177e-10
2.04031e-06
-0.00204796
0
1.67155e-09
0
-5.77299e-07
0.000701859
-0.000908246
0
0
1.86346e-10
-1.61036e-08
0
0.0381975
1.7953e-06
-7.31225e-05
4.34901e-08
-9.58584e-08
0
0
0
-4.18247e-08
-4.35335e-09
-1.65487e-08
-2.70037e-07
0.0398685
-0.00218846
0
5.91997e-09
5.47052e-06
0
0
-3.48359e-07
0.359672
-4.89961e-09
1.26398e-06
-1.09905e-09
-0.00325849
0
0
0
0.00107802
-1.42247e-05
0
-0.000624753
-8.48701e-06
0
-6.66498e-07
1.24257e-08
0
-3.8634e-05
0
-2.32611e-06
-4.30325e-09
0
0
0
-2.71802e-05
1.9544e-06
0
0
4.18384e-06
2.6503e-06
0.00202455
0.000792167
4.99873e-08
0
0.103829
0.0602754
9.08511e-09
-0.00917435
-5.37239e-07
0.000267481
6.48222e-09
2.15488e-07
0.173283
0.000263305
0
0
-2.94079e-10
0
9.47771e-07
5.89842e-08
2.56282e-07
8.16027e-10
-3.65506e-10
-1.91145e-05
-1.19116e-05
-3.56815e-08
-6.91121e-09
0
2.32179e-05
0.0209011
0.0429373
5.47414e-10
0.00333252
-0.000454543
-1.03348e-08
1.69821e-08
0
7.99511e-08
3.4268e-06
0.000492111
0.000349256
-7.00714e-05
0.919156
-2.99538e-05
-9.19903e-07
0
-0.00596431
0.00107011
0
2.23074e-10
2.77715e-09
0.00726022
0
0
0
0
-5.20399e-09
0
0
0.00115791
5.13953e-09
0
0
5.79019e-08
0.000108707
0.0025895
7.92934e-05
0.000694565
0
-5.72838e-09
0.0492048
0.004154
-0.000228939
9.37392e-09
0.441465
0
2.20706e-08
-5.57145e-09
0.00500721
-3.06552e-09
0.0669734
0.00172856
-8.11933e-10
0
0.0760492
0
0.00146154
1.1376e-05
4.88364e-06
0
0
3.78253e-09
-9.12353e-07
0.00387789
4.22204e-10
0
8.86676e-08
-1.0104e-08
0
-3.43898e-07
3.16664e-08
0.00137131
0.000775644
9.36911e-06
0.000101727
0.000118712
0.00015859
-4.33766e-07
2.21431e-07
-0.00280038
-1.39919e-09
4.81879e-05
2.56468e-08
1.08286
-1.56788e-06
-6.37489e-10
1.57619e-10
0.000301966
4.93609e-06
-2.99847e-10
0
-0.000285133
0
0
-1.12641e-06
-5.24569e-07
-6.86046e-07
0
0
6.06753e-06
-2.19699e-10
0.189177
0.041533
6.88211e-06
0
0.0003823
5.31561e-07
-1.30627e-09
5.21086e-05
-1.28301e-07
9.81018e-05
-1.40856e-09
3.22757e-06
-5.13828e-07
0
-4.69615e-10
-2.58612e-08
-6.7466e-06
-4.27005e-07
1.9507e-09
-7.80193e-07
-1.03154e-07
-2.22489e-05
-7.22476e-07
-4.81969e-08
7.43715e-07
2.91828e-07
-1.02925e-06
8.64801e-08
0
0.000166395
-4.48546e-09
2.08732e-07
2.76947e-09
0.662325
0.273375
0.0548563
-4.3748e-07
0
0
0.000782402
3.18148e-06
5.26246e-07
0.00213287
-1.00483e-05
-2.6309e-06
4.22719e-08