# vtk DataFile Version 2.0
Unstructured Grid by M++
ASCII
DATASET UNSTRUCTURED_GRID
POINTS 4072 float
  0.609375   0.843750 0
  0.562500   0.843750 0
  0.531250   0.843750 0
  0.875000   0.828125 0
  0.984375   0.828125 0
  0.953125   0.828125 0
  0.937500   0.828125 0
  0.843750   0.828125 0
  0.812500   0.828125 0
  0.781250   0.828125 0
  0.765625   0.828125 0
  0.734375   0.828125 0
  0.703125   0.828125 0
  0.671875   0.828125 0
  0.640625   0.828125 0
  0.609375   0.828125 0
  0.593750   0.828125 0
  0.562500   0.828125 0
  0.546875   0.828125 0
  0.531250   0.828125 0
  0.515625   0.828125 0
  0.968750   0.812500 0
  0.937500   0.812500 0
  0.921875   0.812500 0
  0.890625   0.812500 0
  0.859375   0.812500 0
  0.828125   0.812500 0
  0.796875   0.812500 0
  0.765625   0.812500 0
  0.750000   0.812500 0
  0.718750   0.812500 0
  0.687500   0.812500 0
  0.656250   0.812500 0
  0.625000   0.812500 0
  0.593750   0.812500 0
  0.578125   0.812500 0
  0.546875   0.812500 0
  0.531250   0.812500 0
  0.515625   0.812500 0
  0.984375   0.796875 0
  0.562500   0.015625 0
  0.953125   0.796875 0
  0.921875   0.796875 0
  0.906250   0.796875 0
  0.875000   0.796875 0
  0.843750   0.796875 0
  0.812500   0.796875 0
  0.781250   0.796875 0
  0.750000   0.796875 0
  0.734375   0.796875 0
  0.703125   0.796875 0
  0.671875   0.796875 0
  0.640625   0.796875 0
  0.609375   0.796875 0
  0.578125   0.796875 0
  0.562500   0.796875 0
  0.531250   0.796875 0
  0.515625   0.796875 0
  0.968750   0.781250 0
  0.546875   0.000000 0
  0.937500   0.781250 0
  0.906250   0.781250 0
  0.890625   0.781250 0
  0.859375   0.781250 0
  0.828125   0.781250 0
  0.796875   0.781250 0
  0.765625   0.781250 0
  0.734375   0.781250 0
  0.718750   0.781250 0
  0.687500   0.781250 0
  0.656250   0.781250 0
  0.625000   0.781250 0
  0.593750   0.781250 0
  0.562500   0.781250 0
  0.546875   0.781250 0
  0.515625   0.781250 0
  0.984375   0.765625 0
  0.953125   0.765625 0
  0.921875   0.765625 0
  0.890625   0.765625 0
  0.875000   0.765625 0
  0.843750   0.765625 0
  0.812500   0.765625 0
  0.781250   0.765625 0
  0.750000   0.765625 0
  0.718750   0.765625 0
  0.703125   0.765625 0
  0.671875   0.765625 0
  0.640625   0.765625 0
  0.609375   0.765625 0
  0.578125   0.765625 0
  0.593750   0.750000 0
  0.562500   0.765625 0
  0.546875   0.765625 0
  0.531250   0.765625 0
  0.562500   0.750000 0
  0.968750   0.750000 0
  0.937500   0.750000 0
  0.906250   0.750000 0
  0.875000   0.750000 0
  0.859375   0.750000 0
  0.828125   0.750000 0
  0.796875   0.750000 0
  0.765625   0.750000 0
  0.734375   0.750000 0
  0.703125   0.750000 0
  0.687500   0.750000 0
  0.671875   0.750000 0
  0.656250   0.750000 0
  0.625000   0.750000 0
  0.546875   0.750000 0
  0.531250   0.750000 0
  0.515625   0.750000 0
  0.562500   0.734375 0
  0.984375   0.734375 0
  0.953125   0.734375 0
  0.921875   0.734375 0
  0.890625   0.734375 0
  0.859375   0.734375 0
  0.843750   0.734375 0
  0.812500   0.734375 0
  0.781250   0.734375 0
  0.750000   0.734375 0
  0.718750   0.734375 0
  0.687500   0.734375 0
  0.671875   0.734375 0
  0.656250   0.734375 0
  0.640625   0.734375 0
  0.546875   0.734375 0
  0.531250   0.734375 0
  0.515625   0.734375 0
  0.562500   0.718750 0
  0.968750   0.718750 0
  0.937500   0.718750 0
  0.906250   0.718750 0
  0.875000   0.718750 0
  0.843750   0.718750 0
  0.796875   0.718750 0
  0.765625   0.718750 0
  0.734375   0.718750 0
  0.703125   0.718750 0
  0.687500   0.718750 0
  0.671875   0.718750 0
  0.656250   0.718750 0
  0.625000   0.718750 0
  0.546875   0.718750 0
  0.531250   0.718750 0
  0.515625   0.718750 0
  0.562500   0.703125 0
  0.953125   0.703125 0
  0.921875   0.703125 0
  0.890625   0.703125 0
  0.859375   0.703125 0
  0.828125   0.703125 0
  0.781250   0.703125 0
  0.750000   0.703125 0
  0.718750   0.703125 0
  0.687500   0.703125 0
  0.656250   0.703125 0
  0.546875   0.703125 0
  0.531250   0.703125 0
  0.515625   0.703125 0
  0.984375   0.687500 0
  0.937500   0.687500 0
  0.921875   0.687500 0
  0.906250   0.687500 0
  0.875000   0.687500 0
  0.843750   0.687500 0
  0.812500   0.687500 0
  0.765625   0.687500 0
  0.734375   0.687500 0
  0.703125   0.687500 0
  0.671875   0.687500 0
  0.640625   0.687500 0
  0.593750   0.687500 0
  0.562500   0.687500 0
  0.546875   0.687500 0
  0.531250   0.687500 0
  0.515625   0.687500 0
  0.968750   0.671875 0
  0.937500   0.671875 0
  0.921875   0.671875 0
  0.906250   0.671875 0
  0.890625   0.671875 0
  0.859375   0.671875 0
  0.828125   0.671875 0
  0.796875   0.671875 0
  0.765625   0.671875 0
  0.750000   0.671875 0
  0.718750   0.671875 0
  0.687500   0.671875 0
  0.656250   0.671875 0
  0.625000   0.671875 0
  0.593750   0.671875 0
  0.578125   0.671875 0
  0.546875   0.671875 0
  0.531250   0.671875 0
  0.515625   0.671875 0
  0.984375   0.656250 0
  0.953125   0.656250 0
  0.937500   0.656250 0
  0.921875   0.656250 0
  0.906250   0.656250 0
  0.875000   0.656250 0
  0.843750   0.656250 0
  0.812500   0.656250 0
  0.781250   0.656250 0
  0.750000   0.656250 0
  0.734375   0.656250 0
  0.703125   0.656250 0
  0.671875   0.656250 0
  0.640625   0.656250 0
  0.609375   0.656250 0
  0.578125   0.656250 0
  0.562500   0.656250 0
  0.531250   0.656250 0
  0.515625   0.656250 0
  0.968750   0.640625 0
  0.937500   0.640625 0
  0.906250   0.640625 0
  0.890625   0.640625 0
  0.859375   0.640625 0
  0.828125   0.640625 0
  0.796875   0.640625 0
  0.765625   0.640625 0
  0.734375   0.640625 0
  0.718750   0.640625 0
  0.687500   0.640625 0
  0.656250   0.640625 0
  0.625000   0.640625 0
  0.593750   0.640625 0
  0.562500   0.640625 0
  0.546875   0.640625 0
  0.515625   0.640625 0
  0.984375   0.625000 0
  0.953125   0.625000 0
  0.921875   0.625000 0
  0.890625   0.625000 0
  0.875000   0.625000 0
  0.843750   0.625000 0
  0.812500   0.625000 0
  0.781250   0.625000 0
  0.750000   0.625000 0
  0.734375   0.625000 0
  0.718750   0.625000 0
  0.703125   0.625000 0
  0.671875   0.625000 0
  0.640625   0.625000 0
  0.609375   0.625000 0
  0.578125   0.625000 0
  0.562500   0.625000 0
  0.546875   0.625000 0
  0.531250   0.625000 0
  0.968750   0.609375 0
  0.937500   0.609375 0
  0.906250   0.609375 0
  0.875000   0.609375 0
  0.859375   0.609375 0
  0.828125   0.609375 0
  0.796875   0.609375 0
  0.765625   0.609375 0
  0.750000   0.609375 0
  0.734375   0.609375 0
  0.718750   0.609375 0
  0.703125   0.609375 0
  0.687500   0.609375 0
  0.656250   0.609375 0
  0.625000   0.609375 0
  0.593750   0.609375 0
  0.562500   0.609375 0
  0.546875   0.609375 0
  0.531250   0.609375 0
  0.515625   0.609375 0
  0.984375   0.593750 0
  0.953125   0.593750 0
  0.921875   0.593750 0
  0.890625   0.593750 0
  0.859375   0.593750 0
  0.843750   0.593750 0
  0.812500   0.593750 0
  0.781250   0.593750 0
  0.750000   0.593750 0
  0.734375   0.593750 0
  0.718750   0.593750 0
  0.687500   0.593750 0
  0.671875   0.593750 0
  0.640625   0.593750 0
  0.609375   0.593750 0
  0.578125   0.593750 0
  0.562500   0.593750 0
  0.546875   0.593750 0
  0.531250   0.593750 0
  0.515625   0.593750 0
  0.968750   0.578125 0
  0.937500   0.578125 0
  0.906250   0.578125 0
  0.875000   0.578125 0
  0.890625   0.562500 0
  0.843750   0.578125 0
  0.828125   0.578125 0
  0.796875   0.578125 0
  0.765625   0.578125 0
  0.734375   0.578125 0
  0.703125   0.578125 0
  0.671875   0.578125 0
  0.656250   0.578125 0
  0.656250   0.562500 0
  0.625000   0.578125 0
  0.640625   0.562500 0
  0.593750   0.578125 0
  0.562500   0.578125 0
  0.546875   0.578125 0
  0.531250   0.578125 0
  0.515625   0.578125 0
  0.859375   0.562500 0
  0.828125   0.562500 0
  0.781250   0.562500 0
  0.750000   0.562500 0
  0.718750   0.562500 0
  0.687500   0.562500 0
  0.609375   0.562500 0
  0.578125   0.562500 0
  0.562500   0.562500 0
  0.546875   0.562500 0
  0.531250   0.562500 0
  0.515625   0.562500 0
  1.000000   0.812500 0
  0.578125   0.031250 0
  0.875000   0.546875 0
  0.625000   0.546875 0
  0.218750   0.000000 0
  0.640625   0.781250 0
  0.828125   0.093750 0
  0.031250   0.531250 0
  0.296875   0.328125 0
  0.296875   0.312500 0
  0.281250   0.312500 0
  0.765625   0.312500 0
  0.031250   0.859375 0
  0.093750   0.265625 0
  0.109375   0.250000 0
  0.187500   0.671875 0
  0.421875   0.640625 0
  0.031250   0.062500 0
  0.140625   0.125000 0
  0.562500   0.906250 0
  0.125000   0.437500 0
  0.203125   0.937500 0
  0.125000   0.421875 0
  0.140625   0.406250 0
  0.093750   0.437500 0
  0.109375   0.421875 0
  0.093750   0.421875 0
  0.109375   0.406250 0
  0.328125   0.125000 0
  0.750000   0.906250 0
  0.328125   0.109375 0
  0.750000   0.890625 0
  0.312500   0.125000 0
  0.734375   0.906250 0
  0.281250   0.343750 0
  0.265625   0.359375 0
  0.500000   0.796875 0
  0.078125   0.015625 0
  0.062500   0.015625 0
  0.484375   0.796875 0
  0.484375   0.781250 0
  0.062500   0.000000 0
  0.015625   0.250000 0
  0.062500   0.046875 0
  0.484375   0.828125 0
  0.484375   0.812500 0
  0.062500   0.031250 0
  0.281250   0.671875 0
  0.062500   0.234375 0
  0.328125   0.765625 0
  0.312500   0.750000 0
  0.015625   0.671875 0
  0.781250   0.187500 0
  0.015625   0.265625 0
  0.453125   0.250000 0
  0.453125   0.234375 0
  0.031250   0.265625 0
  0.046875   0.250000 0
  0.093750   0.015625 0
  0.265625   0.656250 0
  0.734375   0.281250 0
  0.156250   0.015625 0
  0.062500   0.265625 0
  0.046875   0.281250 0
  0.031250   0.281250 0
  0.343750   0.781250 0
  0.328125   0.781250 0
  0.265625   0.687500 0
  0.265625   0.703125 0
  0.156250   0.109375 0
  0.578125   0.890625 0
  0.484375   0.984375 0
  0.062500   0.203125 0
  0.328125   0.718750 0
  0.343750   0.734375 0
  0.343750   0.750000 0
  0.453125   0.500000 0
  0.437500   0.500000 0
  0.234375   0.093750 0
  0.171875   0.375000 0
  0.437500   0.531250 0
  0.468750   0.546875 0
  0.453125   0.546875 0
  0.187500   0.015625 0
  0.187500   0.000000 0
  0.609375   0.781250 0
[...]
CELL_DATA 7648
SCALARS scalar_value float 1
LOOKUP_TABLE default
0.211697
0.205464
0.200286
0.205867
3.07006e-06
2.17741e-06
2.27749e-06
1.60712e-06
0.199935
0.195582
0.195914
3.15458e-06
1.72349e-06
2.61161e-06
0.20154
0.194581
0.195879
0.183847
0.00911847
0.00874005
0.00994338
0.00770789
0.000110577
0.00108014
0.00115281
0.00160684
0.000926498
0.0915659
0.0835483
1.50018e-05
1.73126e-05
2.41826e-05
1.12848e-05
3.78934e-05
4.28802e-05
5.79302e-05
2.90102e-05
8.93184e-06
1.06746e-05
1.46019e-05
6.94126e-05
0.000145147
0.0246028
0.0202909
0.0169783
0.00551111
0.00461914
0.00458153
0.000285273
0.00800213
0.000487103
0.00106801
0.000532498
0.000540499
0.000481596
0.00144313
0.000351493
0.000344756
0.000402573
0.000569277
0.00080389
0.00323801
0.000402567
0.00012569
0.000149263
2.14864e-08
2.51837e-08
0.000506783
0.0147796
7.68149e-07
0.0814021
0
0.0318697
0.035957
0.000485303
1.55422e-08
0.138851
2.74553e-08
0.000250369
0.0404818
0.0403054
4.64117e-10
7.45678e-07
1.74079e-08
0.00129742
3.28517e-05
0.0633473
0.059425
2.75135e-05
0
2.05804e-05
7.64362e-09
0.0108023
0.0129141
5.4769e-09
0.000620417
0.00328953
0.00112371
0.00454503
0.0035733
0.0365169
0.000515202
0.0352992
0.0381454
0.00119457
0.0077071
0.126082
0.00132941
0.000766439
2.84046e-05
0.000575868
0.000655278
0.000520983
1.20982e-08
0.0156162
1.06039e-08
0.0180561
0.0130726
0.000276588
2.13041e-06
1.51407e-06
1.01045e-10
4.73727e-09
0.00353175
2.3634e-09
4.90455e-09
2.63029e-09
0.0621231
0.0493132
0.0658861
2.02366e-08
0.0110965
5.73153e-09
1.80672e-05
0.120022
8.84324e-06
0.175005
0.000694444
6.0415e-05
0.00404432
0.000345896
0.00346316
0.00347909
2.62636e-05
0.0030406
0.00641079
7.88493e-07
0.000837625
0.000284979
6.32587e-05
4.91478e-05
0.00184788
0.0023177
0.0028934
9.59556e-09
1.55247e-08
2.64482e-05
3.95091e-05
0.00867909
0.000688103
0
0.0102629
0.0116318
0.0362801
0.0101216
0.007275
2.29599e-05
0.00883796
0.00240172
2.87969e-06
7.16444e-09
0.0266344
0.00209481
4.6017e-08
0.000561851
0.000531179
1.10197e-05
0.0157041
0.0295135
0.016234
0.0120367
0.0292943
0.00100303
0.111232
2.33008e-09
0.00323536
0.000764013
1.05747e-09
2.04896e-09
0.0591726
1.78499e-09
0.0400803
0.000247721
3.34503e-07
0.000111021
0.00020166
0.00022353
0.000160353
2.41985e-08
3.23307e-08
3.0048e-08
0.000297561
0.00662673
0.000483111
0.000497894
0.0027804
0.00117665
6.67677e-06
3.87146e-06
5.47482e-06
0.000227801
0.000341906
0.000487088
0.00031135
0.0409383
0.0179471
0
2.39255e-06
4.1087e-10
0.00613111
0.0069596
0.0347726
0.0270604
4.83523e-05
0.0359429
8.55406e-06
0.00452189
0.00445795
0.0400133
0.0436594
7.53432e-05
0.000114519
0.0431225
0.033142
0.000120981
8.86743e-05
7.5426e-05
7.40062e-05
0.0262398
2.06423e-09
0.0249675
7.95387e-09
0.0744446
4.07905e-05
3.26525e-05
0.0473624
0.107027
0.0536405
0.0437103
7.55567e-06
0.0560379
0.000252719
0.00102584
0.00123783
0.00105609
0.146948
0.0293172
4.95341e-05
3.07759e-05
0.00713986
0.00826063
0.00781565
0.00512078
0.000257744
6.12822e-05
0.05556
3.48466e-05
0.0164618
1.98483e-05
0.0805481
0.00478861
0.00368722
1.02132e-10
2.01021e-06
4.90039e-08
3.35229e-05
7.60345e-06
0.000180615
0.0560541
0.065604
5.75904e-05
0.216067
0.000240423
1.89684e-08
0.0872257
0.000285126
1.38944e-08
3.76605e-05
9.08648e-07
0.00498082
1.82764e-06
2.95841e-06
0.000915132
1.78285e-07
0.0417707
0.0406342
1.95735e-07
0.0461025
2.76055e-09
0.000292003
0.00141297
0.114078
9.32519e-08
8.53596e-05
0.00529371
0.00440819
0.00392508
0.0124516
0.000367136
0.0353327
0.031189
0.00619422
4.68263e-06
3.35167e-07
1.17852e-05
0.0331268
0.0175764
1.52973e-05
0.0152148
0.0329173
0.0127821
0.00377741
0.217611
0.0206522
0.0134077
0.00789687
0.00222795
0.0175673
0.0156286
0.00438052
0.00660218
0.00176835
0.0074007
0.222958
2.3985e-07
0.228357
1.78293e-07
2.28699e-05
2.02793e-05
0.000787573
0.0232931
2.7175e-05
1.91497e-05
5.10091e-10
1.47559e-06
0.226961
0.235152
4.06363e-08
6.01672e-07
2.01252e-08
3.33152e-08
2.83273e-08
0.0100199
0.00134404
8.62452e-06
0.00249818
2.89582e-05
1.11834e-06
1.06556e-06
7.92449e-07
0.0139178
0.0136675
0.0167827
0.149369
0.0130667
3.17911e-05
0.00502512
1.55123e-07
2.59693e-06
2.21574e-06
0.0184575
0.138033
1.58132e-05
0.090826
8.72401e-06
0.0596729
9.71984e-08
2.07234e-06
0.00041231
0.00448425
0.0352354
0.00175922
0.00310549
0.000744621
0.0334247
0.0546583
0.0304489
0.110158
9.69354e-05
7.04215e-05
3.68842e-05
0.16933
0.00011209
5.16157e-05
0.00033996
3.94029e-05
0.000274091
1.72215e-05
3.3514e-06
0.18935
1.04356e-05
0.000806597
0.00933421
0.000490841
0.00685768
0.165575
4.30429e-05
0.136887
0.000292134
2.51663e-05
7.2314e-08
0.000390082
0.000404162
4.24769e-07
0.0975332
0.000286204
2.41468e-08
0.00022923
1.53446e-05
0.10978
0.155554
0.138927
1.03741e-06
0.00225185
0.00832703
0.00743533
5.82626e-07
0.00759576
0.000631281
0.000550871
0.0141794
0.00135332
0.000428607
5.85146e-06
0.000463855
0.000288755
0.000115053
9.71073e-10
0.000145478
0.0348377
0.00650524
0.0416025
0.00384122
0.00614956
0.00160195
0.00812689
0.00134592
0.00115573
0.024889
0.01993
0.000103834
0.00140773
0.000430956
0.00173757
0.0224531
0.000613377
0.000775878
0.000650287
0.00102004
2.30999e-05
0.000226081
0.00256754
0.0403771
0.0279524
1.04613e-10
0.000333804
0.000270551
3.1907e-06
5.00083e-10
1.21398e-05
0.0414222
1.13388e-06
0.0640076
1.16445e-08
1.38095e-06
0.0604279
0.000420197
0.0313691
4.95449e-10
0.0415323
3.5208e-09
0.0443898
1.29875e-08
5.69544e-09
0.0889096
0.0825957
0.0707803
0.0104767
0.00172212
0.00215421
3.96072e-07
0.0230148
5.51405e-07
0.0544082
0.000558627
1.13349e-07
0.000595888
1.5062e-06
0.0326485
0.00023543
0.000177261
0.000607614
0.0539878
1.8435e-05
1.3177e-05
0.00284854
0.000559084
0.000442224
0.00038254
0.000357036
7.27751e-06
0.00255713
0.00071825
4.39969e-06
0.00199084
0.000121559
0.0686717
0.000485556
0.00010553
0.0584541
0.000391705
0.00400294
6.7339e-05
0.000111419
5.6591e-05
0.0234145
8.88698e-06
0.00622427
0.021113
0.016236
0.00671179
0.000113376
2.69827e-07
0.000156867
0.00186128
0.00049993
0.00159925
0.000771209
0.00122084
0.00201228
0.00162499
0.00114203
5.11971e-05
4.45523e-05
0.000111023
0.0973315
2.35031e-07
0.0229611
4.21138e-05
0.0198543
0.0186871
1.66843e-05
0.0463296
0.0421527
0.0827907
0.0673426
0.0885198
0.0119867
0.000217264
8.44517e-05
0.0121734
0.000115644
4.07865e-05
0.000181778
0.0301122
0.0111429
0.000990364
0.0312543
0.0329522
0.0294569
0.00277085
3.66971e-05
0.0200561
0.00817898
0.000168117
0.101299
0.00268486
8.92064e-05
4.68927e-07
0.0092835
0.070413
0.0728075
4.94262e-05
7.54441e-05
2.95942e-05
3.23882e-05
0.230862
0.0175174
3.37048e-05
0.00812572
0.00573064
2.65302e-08
3.15272e-05
0.000308432
5.23534e-05
0.000752838
0.151797
0.101618
0.000189617
0.0667683
0.000254347
0.000171575
1.27764e-05
0.000119137
0.097714
2.40993e-08
0.000140562
7.22364e-08
0.131104
2.80691e-06
2.12912e-06
1.53367e-06
0.00206153
0.0021931
0.00243478
0.00788609
6.12053e-05
0.00666521
0.000241672
3.58947e-06
0.00282818
6.35464e-06
6.29925e-06
0.000182589
1.05992e-08
0.000230523
0.000143571
4.37946e-06
6.57248e-06
0.000143704
0.000214872
5.31493e-05
2.8013e-06
2.66514e-06
3.19772e-05
0.0481229
1.95656e-05
0.0483701
0.163885
0.155992
5.61297e-06
8.09846e-06
0.117699
0.000355256
0.00116988
0.0384776
6.47112e-06
8.68139e-06
1.35053e-05
1.95946e-08
0.00186837
0.0285461
0.031564
1.3751e-05
5.2476e-08
0.087488
1.48639e-05
0.0735083
0.14279
0.0500623
0.0259426
0.177073
0.044045
0.000143784
0.000178744
0.000604153
0.000177079
0.000255269
1.04088e-09
1.98806e-09
1.19511e-09
0.00143581
8.15773e-06
0.000473537
5.75963e-06
0.000217287
0.214691
0.210063
0.209053
0.00166145
0.00169939
0.00131921
0.161861
1.85853e-09
0.134224
0.0284072
0.00831021
0.0295012
1.50017e-05
2.95977e-09
0.0243263
0.0211939
5.7811e-05
0.0784994
0.0222274
0.0158077
0.109749
0.00525549
0.000187942
0.00500102
0.00612666
2.56534e-06
0.093625
0.0303426
0.0991189
0.0170113
0.0583414
0.0551164
0.000804657
0.000731614
0.000287007
0.000207953
0.000169941
0.0532546
0.0555458
0.000361073
0.00031276
0.00229622
0.0119741
0.000369035
0.000229835
0.0931005
0.0851805
0.0779349
0.000906853
0.000789384
0.0640693
0.000586725
0.0989324
0.110525
0.106408
0.00214022
0.00188196
0.0014267
0.00269216
0.00172406
0.194141
0.00418865
0.004777
0.00325068
1.48143e-05
0.00415532
0.00274573
0.00281386
0.000946238
0.0913265
0.0593592
0.0860169
0.216617
0.000678147
0.00414643
0.00388552
0.00305936
8.60674e-05
0.000190192
0.000112862
0.000129218
0.000714012
0.000592386
3.82777e-07
2.24104e-05
0.00159733
8.39483e-06
1.6477e-05
0.000816152
2.293e-05
2.22881e-08
0.00270057
0.00947232
0.0442663
0.0400508
0.0384607
0.108572
0.101175
0.0944036
0.00743137
8.2629e-06
0.00882041
0.00692168
0.159694
0.154791
0.0335507
0.0489678
3.87912e-08
8.42193e-07
1.36052e-07
0.177137
0.17658
3.55249e-05
0.00789416
0.00623456
6.53199e-05
0.0177396
0.00394618
2.69855e-06
0.0283997
0.00293971
0.000285505
8.06519e-06
0.000269596
1.77797e-06
3.18351e-05
0.000196534
0.00791443
0.173066
1.66933e-05
0.0832007
0.153529
0.0163066
0.0087414
0.15387
2.32357e-07
0.0411183
0.0011981
0.0353779
0.0358347
0.0522918
0.0750018
0.0299771
0.0209684
9.16637e-06
5.19321e-05
1.86162e-06
5.71443e-05
2.96925e-05
2.16827e-06
0.00063968
0.0881776
5.30676e-08
0.0131017
1.01076e-07
0.00324557
0.0559889
0.0517505
0.0562994
0.0710884
0.0668607
7.99533e-07
0.00087019
0.000999535
0.001239
0.168037
0.154887
1.07051e-09
0.00182927
0.000186101
0.000549586
0.000649836
0.00297397
0.0136374
1.01591e-08
0.133658
0.0425721
0.0373544
0.162723
0.0369922
4.96092e-05
0.0793144
0.101431
0.103286
0.0278737
0.000757111
0.0231078
1.17889e-08
0.000203332
1.26964e-07
1.12417e-05
0.00235422
0.0413901
0.000581748
0.00175399
0.0272566
0.00132656
1.09533e-09
2.04463e-09
9.43808e-10
0.00861569
0.000789317
7.90003e-09
0.0549678
6.23616e-10
0.0602862
0.000858191
0.00072261
2.30404e-10
0.00278884
0.0258506
0.0239927
0.005405
5.17002e-10
2.36158e-10
0.231776
0.222336
0.229412
0.000246843
0.058298
2.62886e-08
8.91118e-09
0.0795999
0.0721549
0.0605558
0.0634125
0.000142104
1.05853e-05
1.2373e-08
0.0030131
6.2297e-05
0.00318704
0.00205835
0.128004
0.00918022
0.00470844
0.121387
0.00109117
0.000831248
6.73495e-09
0.00162689
0.00581621
0.00201163
0.00209429
0.00417294
4.34824e-06
0.000392888
0.00261018
0.00122435
0.00114341
0.00277367
0.00371719
0.00213375
0.00202609
3.39857e-05
5.09875e-07
0.0283761
0.0297254
0.0268304
0.0474986
0.022597
0.0498126
0.0136666
0.00759271
0.0499474
0.0214132
0.000328526
0.0331857
0.00215283
0.0307732
0.000133369
6.8763e-09
0.00107196
5.52367e-06
0.00107356
0.00160931
0.00293563
0.00340754
0.0178055
0.0639238
0.108437
6.72278e-07
3.24373e-07
0.000511328
0.000102133
8.44801e-05
0
1.14726e-06
2.69603e-06
2.88752e-09
3.66981e-08
0.148394
0.00451467
1.20174e-08
2.61817e-10
0.000842048
0.000353291
0
0.0638883
0.000847297
1.74743e-05
1.31054e-07
2.23079e-05
1.11774e-05
0.0138834
2.09444e-05
3.15152e-08
0.00758513
0.0020659
0.000510327
0.00384479
0.00285477
0.00289644
0.000688073
0.000210672
0.0165547
5.57159e-09
0.164669
0.0108568
0.0188955
0.0129463
0.0117137
4.03837e-05
0.0411981
3.21518e-09
0.0163777
0.00722504
0.00369702
4.44062e-05
0.0214289
2.74731e-05
0.0154356
0.0422923
0.00014562
2.59723e-05
1.23737e-07
0.000458088
0.0251555
0.0358378
0.111714
1.9385e-07
0.00841348
0.168701
0.0799121
0.13956
0.00650215
0.000785274
0.00586387
0.0252236
0.0145012
0.172324
9.93156e-05
9.43456e-07
4.25648e-07
2.44815e-06
3.21608e-07
1.70368e-06
0.000214816
6.62077e-07
0.21225
0.0558347
0.0478256
1.18568e-06
0.00265686
0.00522725
0.0982734
0.00909958
7.83904e-06
8.83784e-07
5.27714e-05
0.065717
0
7.44475e-09
5.57043e-09
0.00441269
3.06737e-06
0.0553834
2.41878e-06
0.000480385
0.000186303
0.00455579
0.00488022
0.0101717
2.63619e-08
0.00844306
6.78947e-07
2.53118e-05
0.000933487
0.00252789
1.76678e-05
0.00355387
0.0213314
0.192317
0.0192326
8.35927e-07
0.0103438
0.00246798
0.000519948
0.000470809
0.00278606
0.000677684
6.1045e-07
8.83837e-06
0
0.00125059
1.17638e-06
0
0.0506225
0.00120203
0.000802971
1.62546e-06
1.5824e-08
6.84412e-07
0
0.00108449
0.115722
0.000830434
4.70168e-09
0.00434812
3.55599e-06
5.43129e-07
0.0774892
0.00416518
0.00392415
0
6.87774e-05
0.000448246
0.160563
0.00620881
0.0108906
7.92758e-06
0.00375086
0.0236865
0.000131433
0.0034646
0.00920322
0.00737717
0.00642873
1.52137e-05
0.187555
0.00380835
1.43054e-09
0.040593
5.2278e-08
0.00172085
0.000411416
1.90639e-09
0.00540501
1.45124e-09
0.219445
0.0692349
0.00747199
2.86674e-06
0.184294
2.11766e-05
0.179035
0.000974291
0.000249601
0.00146765
0.000136162
0.00990797
4.85009e-06
0.172662
1.63068e-05
4.43311e-06
0.140658
0.158329
0.0239269
0.00333774
0.00429312
0.00396015
0.000172281
0.0572789
2.29198e-05
5.1841e-06
2.46213e-06
9.55134e-06
0.000206813
1.34201e-06
3.69783e-06
1.67007e-06
0.00146718
0.00137624
0.0481629
0.0539395
0.00293471
8.79992e-05
7.20704e-05
0.00133746
3.43447e-05
0.00426813
0.00140495
0.00172914
0.0444054
0.0513095
0.00331757
0.100291
0.210967
0.00373067
0.0555358
0.130241
0.00327074
2.96935e-05
0.214368
0.0430971
0.00229152
0.0442605
3.12997e-09
0.19386
0.00220007
6.19328e-08
0.0507286
4.53266e-05
3.00976e-05
5.26718e-06
1.73301e-08
0.0046638
0.00195898
0.00154111
0.000457905
0.00951783
0.0315156
0.0426072
1.37802e-10
0.00289949
0.0376496
0.0846754
0.00157053
0.0150114
2.12184e-08
0.0265106
4.06822e-06
4.33168e-09
0.0454038
0
5.93427e-05
0.111428
0.000105761
0.0704379
1.44459e-10
0.113175
1.50767e-06
3.01264e-08
0.138588
3.76502e-07
1.77913e-09
0.00363408
0.00754193
0.0941873
5.7709e-06
2.33443e-07
7.42992e-05
0.000500617
0.00182694
0.00689498
7.90584e-08
7.41193e-05
0.0164651
0.0227989
3.06503e-05
0.00602376
0.136342
0.0113007
0.00977823
0.000342075
0.000173463
0.0229974
1.51271e-06
0.129405
0.0206285
0.000188935
5.14619e-06
0.025407
0.000229047
0.0576465
0.0485423
0.0652284
0.000567789
0.00215984
0.000693207
0.0380768
0.0536497
1.75863e-05
0.000694177
0.0296085
5.08982e-06
0.000738964
0.00426047
9.71916e-08
0.0351932
1.38995e-10
3.97926e-06
0.0371698
0
0.00147678
8.71898e-07
0.0378085
0.187031
1.123e-05
0.00155584
0.000293034
0.0384861
3.47673e-05
1.3377e-05
0.00780699
0.000124679
1.78409e-07
2.43477e-06
0.00497308
0.0338023
0.174836
2.05296e-09
1.15206e-07
0.146469
4.09321e-08
2.63222e-10
0.0279432
6.81244e-07
0.000161461
3.07844e-06
5.37538e-06
0.148787
0.167118
3.71687e-08
3.41614e-09
0.167081
2.29877e-10
4.03237e-10
2.63575e-07
1.70277e-09
0.000305853
3.21556e-08
3.58446e-10
0.00150846
0.0628938
0.0734928
0.00319975
7.56057e-08
1.48471e-09
0.125533
0.123163
0.0405616
0.0481201
0.0395231
0.0459382
2.3382e-07
2.44215e-05
0.00157498
0.000261323
1.2906e-06
7.55478e-07
6.26247e-06
0.00203026
0.0412673
0.0149559
0.0234702
4.48976e-07
0.000103979
8.05024e-07
1.43944e-05
1.46028e-07
0.0322817
0.00051632
2.65139e-08
0.00513428
0.00444327
0.00928148
0.0270984
9.02774e-06
0.0028378
0.00638225
0
0.00545318
1.91299e-07
0.00243326
1.09523e-09
0.00196222
0.00329034
0.00396314
6.89831e-05
0.00251512
0.00096156
0
0.101962
0.0512758
1.11692e-06
0.231968
1.25731e-07
0.000544944
0.0340416
0.00651882
0.0143042
0.00113485
0.000953102
0.052405
0.000665198
0.0480811
0.00393386
0
0
0.000476053
0.104892
0.0715221
0.0647786
0.135161
0.00408034
0.00588208
4.4514e-09
8.6226e-05
0.000265686
0.0326193
0
0.00321318
0.016444
8.59957e-06
0.000426268
0.0801794
0.00134937
0.000658734
7.37547e-06
4.95716e-10
0.028162
0.0110974
0.00078696
0.126142
1.35795e-07
7.74411e-05
0.00010165
0.000201558
8.18132e-09
0.00280156
0.0164409
0.00061646
0.0257909
1.04543e-05
1.14062e-07
1.75379e-07
0.00199068
4.16472e-06
0.00378406
0.0049746
0.00510784
0.00113137
0.0335875
9.94061e-09
1.4734e-05
0.0014002
0
0.000238049
0.00224384
0.00236634
0.000523951
2.22285e-06
0.0008418
0.113756
0.0918233
0.000363169
1.81804e-07
8.47351e-05
3.89339e-05
0.0142865
0.000579996
1.46586e-06
0.00111409
0.113556
0.0786142
1.23412e-06
0.114283
0.10053
6.6592e-10
0.000191125
0.0110993
0.0137402
9.12098e-09
0.00342516
0.0793471
0.0012911
0.000964634
1.1433e-06
2.8803e-05
1.56855e-05
0.000351521
0.0407045
0.000906092
0.000727189
0.00928507
0.000562567
7.49453e-06
0.0643843
0.0741957
0.074089
0.0806502
0.000513922
3.74929e-05
0.173854
0.223733
0.00594317
3.09145e-06
4.55667e-08
0.00357497
5.5491e-05
0.0229673
5.04639e-05
5.12915e-06
0.00801857
3.0088e-06
0.000612355
0.0453982
6.74061e-09
0.0231435
0.0126383
0.167608
0.150083
0.0158975
0.206681
1.81672e-08
0.000316731
1.42452e-06
0.000647773
0.0907536
2.00431e-07
0.0911766
0.00884032
0.00592757
8.33187e-07
1.71441e-05
0.00787186
0.00101745
0.113857
2.82803e-07
7.93508e-09
3.2684e-06
0.00690025
3.77802e-09
1.16842e-05
0.0344019
0.00223475
0.0127865
0.015021
0.00160284
0.00104034
1.82294e-06
0.000282095
0.0472334
0.000117248
0.00514627
2.61605e-06
0.0984779
0.000165412
0.0188406
0.00857736
0.0972685
0.0529381
0.00131289
0.000378931
0.000875629
4.36251e-05
0.132908
0.000533456
0.0480559
2.98265e-08
1.87122e-05
0.165591
4.22488e-07
1.06544e-06
7.71744e-08
0.00117314
0.0219046
0.0436071
0.00010076
0.0280829
0.0420807
0.000244573
0.0360007
0.0420552
0.000601658
4.66154e-06
0.00118675
0.0455895
0.0525167
9.68413e-05
5.66579e-09
4.05724e-06
0.000117648
5.32669e-05
0.0279689
1.29156e-05
5.70994e-05
2.62911e-05
0.001644
0.00230819
0.000236518
3.67433e-07
0.0469994
0.000446321
9.36546e-10
0
0.00432495
0.0585042
0.000421916
2.35159e-08
0.000526222
0.000501146
0.000418132
2.20982e-05
0.000449978
0.0340869
0.0111318
0.00017362
0.00449254
4.38447e-06
0.000443174
0.00143703
0
0.000953418
0
3.53428e-09
0.118546
0.00723976
0.00950887
7.092e-10
4.67002e-05
0.00269576
0.00572674
0.00832248
2.80129e-06
0.000294971
0.00045562
0.042447
0.0819443
9.35275e-07
0.015272
0.0181817
6.94605e-06
0.00522854
7.31262e-05
3.11709e-05
0.00553635
9.2864e-06
0.0250506
5.60732e-05
0.000198085
0.00130676
0.000102067
0.000119107
3.54712e-06
0.00133549
8.10264e-06
0.000138402
0.0512807
0.0452786
3.21683e-06
0.0005491
0.0769376
0.228155
0.000140281
0.00177392
0.0100035
0.000644244
0.16829
0.0534632
0.000245431
0.181242
0.062469
0.201217
0.033317
0.000115711
1.44185e-05
0.00364859
0.0167937
0.0621703
0.0483591
0.0223869
0.000281505
2.61331e-06
0.00608281
0.105719
0.103761
7.12624e-05
0.000247923
0.000733685
1.96017e-07
4.89162e-05
0.0417182
0.0370592
7.08839e-10
0.0766853
0.00130866
0.000303403
0.00547937
0.00173324
0.000302601
2.13303e-06
1.74549e-05
0.00412995
0.0160993
0.000346584
0.00309632
0.0106895
0.00655621
0.00650342
0.0068009
7.43441e-05
0.000163601
3.84873e-09
0.00825337
0.00657612
1.46971e-05
3.04411e-06
0.00754167
0.00118699
9.73038e-06
2.76326e-06
0.00595252
0.0111984
2.96945e-05
0.137665
0.0912107
6.56706e-08
0.229895
0.0116112
0.00828406
1.02206e-05
3.2813e-07
8.46782e-05
0.0188024
0.0359115
0.0290281
0.0217038
8.14773e-05
0.00591445
0.228936
5.53493e-06
4.61588e-06
0.00915867
0.00849299
8.12451e-05
4.70811e-06
0.0147391
0.00562551
6.93757e-05
2.74139e-06
8.95504e-06
1.4136e-08
5.00544e-06
1.59706e-06
1.7742e-05
0.00762773
0.00851963
0.0710384
0.187954
0.0814398
0.0383735
3.55485e-06
7.75073e-06
0.06999
1.23741e-06
1.36669e-06
4.7792e-07
0.0372029
5.74377e-07
0.0127641
0.000342302
0
0
0.0829264
8.3762e-05
0
0.00227075
0.00222423
0.000118011
0.0663028
0.00439027
0
0.0453391
0.00864719
0.0123148
2.68877e-05
0.0027143
0.00646704
0.000766128
1.3037e-10
1.12573e-10
0.0658113
0.00509486
0.00125006
0.000343089
0.0185104
3.17591e-10
3.90162e-07
1.37818e-09
0.0483823
2.74836e-07
0.00102019
0.0560904
0.217458
1.74066e-09
4.63623e-10
0.00175467
3.21185e-06
0.000431481
0.000970772
0.00109479
3.76244e-06
0.223864
0.00448868
0.220223
0.00470809
0.22075
2.08992e-05
0.000736211
0.00679834
0.229338
7.99816e-05
0.000781074
0.00360049
0.00115778
0.00161421
0.00381605
0.00178134
0.000716408
2.80156e-06
0.0301323
0.000216563
0.000639908
4.36383e-06
1.89749e-06
0.00292032
5.0666e-07
3.81702e-08
0.0615755
0.0650934
0.000487385
1.63608e-06
0.00283723
0.0124136
0.109128
0.0598784
0.175523
3.7877e-09
7.50096e-09
5.34328e-06
2.42485e-08
0.00260349
6.69767e-07
0.00182387
4.35919e-05
0.000131484
0.000476614
0.00253586
6.47956e-05
9.54743e-05
8.64314e-05
0.000124438
0.0754343
4.42775e-05
0.0613161