# vtk DataFile Version 2.0
Unstructured Grid by M++
ASCII
DATASET UNSTRUCTURED_GRID
POINTS 4072 float
  0.609375   0.843750 0
  0.562500   0.843750 0
  0.531250   0.843750 0
  0.875000   0.828125 0
  0.984375   0.828125 0
  0.953125   0.828125 0
  0.937500   0.828125 0
  0.843750   0.828125 0
  0.812500   0.828125 0
  0.781250   0.828125 0
  0.765625   0.828125 0
  0.734375   0.828125 0
  0.703125   0.828125 0
  0.671875   0.828125 0
  0.640625   0.828125 0
  0.609375   0.828125 0
  0.593750   0.828125 0
  0.562500   0.828125 0
  0.546875   0.828125 0
  0.531250   0.828125 0
  0.515625   0.828125 0
  0.968750   0.812500 0
  0.937500   0.812500 0
  0.921875   0.812500 0
  0.890625   0.812500 0
  0.859375   0.812500 0
  0.828125   0.812500 0
  0.796875   0.812500 0
  0.765625   0.812500 0
  0.750000   0.812500 0
  0.718750   0.812500 0
  0.687500   0.812500 0
  0.656250   0.812500 0
  0.625000   0.812500 0
  0.593750   0.812500 0
  0.578125   0.812500 0
  0.546875   0.812500 0
  0.531250   0.812500 0
  0.515625   0.812500 0
  0.984375   0.796875 0
  0.562500   0.015625 0
  0.953125   0.796875 0
  0.921875   0.796875 0
  0.906250   0.796875 0
  0.875000   0.796875 0
  0.843750   0.796875 0
  0.812500   0.796875 0
  0.781250   0.796875 0
  0.750000   0.796875 0
  0.734375   0.796875 0
  0.703125   0.796875 0
  0.671875   0.796875 0
  0.640625   0.796875 0
  0.609375   0.796875 0
  0.578125   0.796875 0
  0.562500   0.796875 0
  0.531250   0.796875 0
  0.515625   0.796875 0
  0.968750   0.781250 0
  0.546875   0.000000 0
  0.937500   0.781250 0
  0.906250   0.781250 0
  0.890625   0.781250 0
  0.859375   0.781250 0
  0.828125   0.781250 0
  0.796875   0.781250 0
  0.765625   0.781250 0
  0.734375   0.781250 0
  0.718750   0.781250 0
  0.687500   0.781250 0
  0.656250   0.781250 0
  0.625000   0.781250 0
  0.593750   0.781250 0
  0.562500   0.781250 0
  0.546875   0.781250 0
  0.515625   0.781250 0
  0.984375   0.765625 0
  0.953125   0.765625 0
  0.921875   0.765625 0
  0.890625   0.765625 0
  0.875000   0.765625 0
  0.843750   0.765625 0
  0.812500   0.765625 0
  0.781250   0.765625 0
  0.750000   0.765625 0
  0.718750   0.765625 0
  0.703125   0.765625 0
  0.671875   0.765625 0
  0.640625   0.765625 0
  0.609375   0.765625 0
  0.578125   0.765625 0
  0.593750   0.750000 0
  0.562500   0.765625 0
  0.546875   0.765625 0
  0.531250   0.765625 0
  0.562500   0.750000 0
  0.968750   0.750000 0
  0.937500   0.750000 0
  0.906250   0.750000 0
  0.875000   0.750000 0
  0.859375   0.750000 0
  0.828125   0.750000 0
  0.796875   0.750000 0
  0.765625   0.750000 0
  0.734375   0.750000 0
  0.703125   0.750000 0
  0.687500   0.750000 0
  0.671875   0.750000 0
  0.656250   0.750000 0
  0.625000   0.750000 0
  0.546875   0.750000 0
  0.531250   0.750000 0
  0.515625   0.750000 0
  0.562500   0.734375 0
  0.984375   0.734375 0
  0.953125   0.734375 0
  0.921875   0.734375 0
  0.890625   0.734375 0
  0.859375   0.734375 0
  0.843750   0.734375 0
  0.812500   0.734375 0
  0.781250   0.734375 0
  0.750000   0.734375 0
  0.718750   0.734375 0
  0.687500   0.734375 0
  0.671875   0.734375 0
  0.656250   0.734375 0
  0.640625   0.734375 0
  0.546875   0.734375 0
  0.531250   0.734375 0
  0.515625   0.734375 0
  0.562500   0.718750 0
  0.968750   0.718750 0
  0.937500   0.718750 0
  0.906250   0.718750 0
  0.875000   0.718750 0
  0.843750   0.718750 0
  0.796875   0.718750 0
  0.765625   0.718750 0
  0.734375   0.718750 0
  0.703125   0.718750 0
  0.687500   0.718750 0
  0.671875   0.718750 0
  0.656250   0.718750 0
  0.625000   0.718750 0
  0.546875   0.718750 0
  0.531250   0.718750 0
  0.515625   0.718750 0
  0.562500   0.703125 0
  0.953125   0.703125 0
  0.921875   0.703125 0
  0.890625   0.703125 0
  0.859375   0.703125 0
  0.828125   0.703125 0
  0.781250   0.703125 0
  0.750000   0.703125 0
  0.718750   0.703125 0
  0.687500   0.703125 0
  0.656250   0.703125 0
  0.546875   0.703125 0
  0.531250   0.703125 0
  0.515625   0.703125 0
  0.984375   0.687500 0
  0.937500   0.687500 0
  0.921875   0.687500 0
  0.906250   0.687500 0
  0.875000   0.687500 0
  0.843750   0.687500 0
  0.812500   0.687500 0
  0.765625   0.687500 0
  0.734375   0.687500 0
  0.703125   0.687500 0
  0.671875   0.687500 0
  0.640625   0.687500 0
  0.593750   0.687500 0
  0.562500   0.687500 0
  0.546875   0.687500 0
  0.531250   0.687500 0
  0.515625   0.687500 0
  0.968750   0.671875 0
  0.937500   0.671875 0
  0.921875   0.671875 0
  0.906250   0.671875 0
  0.890625   0.671875 0
  0.859375   0.671875 0
  0.828125   0.671875 0
  0.796875   0.671875 0
  0.765625   0.671875 0
  0.750000   0.671875 0
  0.718750   0.671875 0
  0.687500   0.671875 0
  0.656250   0.671875 0
  0.625000   0.671875 0
  0.593750   0.671875 0
  0.578125   0.671875 0
  0.546875   0.671875 0
  0.531250   0.671875 0
  0.515625   0.671875 0
  0.984375   0.656250 0
  0.953125   0.656250 0
  0.937500   0.656250 0
  0.921875   0.656250 0
  0.906250   0.656250 0
  0.875000   0.656250 0
  0.843750   0.656250 0
  0.812500   0.656250 0
  0.781250   0.656250 0
  0.750000   0.656250 0
  0.734375   0.656250 0
  0.703125   0.656250 0
  0.671875   0.656250 0
  0.640625   0.656250 0
  0.609375   0.656250 0
  0.578125   0.656250 0
  0.562500   0.656250 0
  0.531250   0.656250 0
  0.515625   0.656250 0
  0.968750   0.640625 0
  0.937500   0.640625 0
  0.906250   0.640625 0
  0.890625   0.640625 0
  0.859375   0.640625 0
  0.828125   0.640625 0
  0.796875   0.640625 0
  0.765625   0.640625 0
  0.734375   0.640625 0
  0.718750   0.640625 0
  0.687500   0.640625 0
  0.656250   0.640625 0
  0.625000   0.640625 0
  0.593750   0.640625 0
  0.562500   0.640625 0
  0.546875   0.640625 0
  0.515625   0.640625 0
  0.984375   0.625000 0
  0.953125   0.625000 0
  0.921875   0.625000 0
  0.890625   0.625000 0
  0.875000   0.625000 0
  0.843750   0.625000 0
  0.812500   0.625000 0
  0.781250   0.625000 0
  0.750000   0.625000 0
  0.734375   0.625000 0
  0.718750   0.625000 0
  0.703125   0.625000 0
  0.671875   0.625000 0
  0.640625   0.625000 0
  0.609375   0.625000 0
  0.578125   0.625000 0
  0.562500   0.625000 0
  0.546875   0.625000 0
  0.531250   0.625000 0
  0.968750   0.609375 0
  0.937500   0.609375 0
  0.906250   0.609375 0
  0.875000   0.609375 0
  0.859375   0.609375 0
  0.828125   0.609375 0
  0.796875   0.609375 0
  0.765625   0.609375 0
  0.750000   0.609375 0
  0.734375   0.609375 0
  0.718750   0.609375 0
  0.703125   0.609375 0
  0.687500   0.609375 0
  0.656250   0.609375 0
  0.625000   0.609375 0
  0.593750   0.609375 0
  0.562500   0.609375 0
  0.546875   0.609375 0
  0.531250   0.609375 0
  0.515625   0.609375 0
  0.984375   0.593750 0
  0.953125   0.593750 0
  0.921875   0.593750 0
  0.890625   0.593750 0
  0.859375   0.593750 0
  0.843750   0.593750 0
  0.812500   0.593750 0
  0.781250   0.593750 0
  0.750000   0.593750 0
  0.734375   0.593750 0
  0.718750   0.593750 0
  0.687500   0.593750 0
  0.671875   0.593750 0
  0.640625   0.593750 0
  0.609375   0.593750 0
  0.578125   0.593750 0
  0.562500   0.593750 0
  0.546875   0.593750 0
  0.531250   0.593750 0
  0.515625   0.593750 0
  0.968750   0.578125 0
  0.937500   0.578125 0
  0.906250   0.578125 0
  0.875000   0.578125 0
  0.890625   0.562500 0
  0.843750   0.578125 0
  0.828125   0.578125 0
  0.796875   0.578125 0
  0.765625   0.578125 0
  0.734375   0.578125 0
  0.703125   0.578125 0
  0.671875   0.578125 0
  0.656250   0.578125 0
  0.656250   0.562500 0
  0.625000   0.578125 0
  0.640625   0.562500 0
  0.593750   0.578125 0
  0.562500   0.578125 0
  0.546875   0.578125 0
  0.531250   0.578125 0
  0.515625   0.578125 0
  0.859375   0.562500 0
  0.828125   0.562500 0
  0.781250   0.562500 0
  0.750000   0.562500 0
  0.718750   0.562500 0
  0.687500   0.562500 0
  0.609375   0.562500 0
  0.578125   0.562500 0
  0.562500   0.562500 0
  0.546875   0.562500 0
  0.531250   0.562500 0
  0.515625   0.562500 0
  1.000000   0.812500 0
  0.578125   0.031250 0
  0.875000   0.546875 0
  0.625000   0.546875 0
  0.218750   0.000000 0
  0.640625   0.781250 0
  0.828125   0.093750 0
  0.031250   0.531250 0
  0.296875   0.328125 0
  0.296875   0.312500 0
  0.281250   0.312500 0
  0.765625   0.312500 0
  0.031250   0.859375 0
  0.093750   0.265625 0
  0.109375   0.250000 0
  0.187500   0.671875 0
  0.421875   0.640625 0
  0.031250   0.062500 0
  0.140625   0.125000 0
  0.562500   0.906250 0
  0.125000   0.437500 0
  0.203125   0.937500 0
  0.125000   0.421875 0
  0.140625   0.406250 0
  0.093750   0.437500 0
  0.109375   0.421875 0
  0.093750   0.421875 0
  0.109375   0.406250 0
  0.328125   0.125000 0
  0.750000   0.906250 0
  0.328125   0.109375 0
  0.750000   0.890625 0
  0.312500   0.125000 0
  0.734375   0.906250 0
  0.281250   0.343750 0
  0.265625   0.359375 0
  0.500000   0.796875 0
  0.078125   0.015625 0
  0.062500   0.015625 0
  0.484375   0.796875 0
  0.484375   0.781250 0
  0.062500   0.000000 0
  0.015625   0.250000 0
  0.062500   0.046875 0
  0.484375   0.828125 0
  0.484375   0.812500 0
  0.062500   0.031250 0
  0.281250   0.671875 0
  0.062500   0.234375 0
  0.328125   0.765625 0
  0.312500   0.750000 0
  0.015625   0.671875 0
  0.781250   0.187500 0
  0.015625   0.265625 0
  0.453125   0.250000 0
  0.453125   0.234375 0
  0.031250   0.265625 0
  0.046875   0.250000 0
  0.093750   0.015625 0
  0.265625   0.656250 0
  0.734375   0.281250 0
  0.156250   0.015625 0
  0.062500   0.265625 0
  0.046875   0.281250 0
  0.031250   0.281250 0
  0.343750   0.781250 0
  0.328125   0.781250 0
  0.265625   0.687500 0
  0.265625   0.703125 0
  0.156250   0.109375 0
  0.578125   0.890625 0
  0.484375   0.984375 0
  0.062500   0.203125 0
  0.328125   0.718750 0
  0.343750   0.734375 0
  0.343750   0.750000 0
  0.453125   0.500000 0
  0.437500   0.500000 0
  0.234375   0.093750 0
  0.171875   0.375000 0
  0.437500   0.531250 0
  0.468750   0.546875 0
  0.453125   0.546875 0
  0.187500   0.015625 0
  0.187500   0.000000 0
  0.609375   0.781250 0
[...]
CELL_DATA 7648
SCALARS scalar_value float 1
LOOKUP_TABLE default
4.83577e-06
2.95958e-06
1.22209e-06
4.63459e-06
0
0
0
0
2.76159e-06
1.14804e-06
7.73819e-07
0
0
0
0.000570735
0.000828474
0.000646494
0.0014455
0.364711
0.345948
0.307729
0.35981
3.72049e-09
0.176553
0.184647
0.231223
0.157841
2.22595e-09
1.26968e-09
1.3119e-07
9.97784e-08
1.66531e-07
3.07075e-08
1.93463e-07
1.36253e-07
2.07679e-07
4.27588e-08
6.82846e-09
4.93421e-09
8.15065e-09
0.0169625
0.0343849
9.93339e-10
2.69068e-10
1.68721e-10
0
0
0
0.00016647
0
0
4.20114e-06
0.00105758
0.000379305
0
0.219012
0
0
0.166716
0.198846
0.235764
0.120495
9.07394e-06
0
0
3.12909e-07
2.758e-07
0.0026446
8.57039e-08
0.000790702
0.0275892
0
2.36047e-07
9.62418e-08
0
1.95539e-08
2.14211e-08
5.14446e-08
0
3.11271e-08
1.51312e-08
0
0.000712483
4.20816e-08
0
2.9302e-08
0.0782682
0.0773565
0
0
0.000194209
1.6596e-06
0.19451
0.153773
1.95803e-08
0.0710412
0
0.208181
0
0
4.90373e-08
1.16321e-05
3.10859e-08
9.90847e-09
2.80948e-05
3.00559e-07
9.73822e-05
0
0
0.0241966
0.137662
0
0
1.60714e-08
0.238326
6.87081e-09
0.174624
0.243748
0.000464664
0
0
0
4.06051e-08
4.82142e-06
0
0
0
1.09618e-10
0
1.29519e-10
0
0
3.57302e-08
0
0.0160881
0
1.74788e-08
0.000486025
3.26087e-06
0
0
0
0
2.0218e-06
0
0
0
9.35161e-07
0
0
0
0.252671
0.245244
0.259626
0
0
0
2.66812e-06
0
0.00135919
0
0.461322
0.457174
8.41191e-07
0
0
4.13396e-07
0
0.0543817
0
7.03965e-08
0
0
0
0
2.8686e-09
0
0
4.91989e-06
0
0
1.79301e-06
0
5.82987e-09
0
0.000121364
0
0
0
2.34688e-10
0
0
0
0.000350403
0.0606126
0
0
0
1.32085e-06
1.9111e-06
1.26784e-06
0
0.00265117
0
0
3.21487e-05
0.00637849
0
0
0
0.109606
0.143915
0.174264
0.141661
0
0.104238
0
0
0
1.44534e-10
0
0
0
0.000364117
0
4.00916e-05
0
0
0
0
0
0
0
0.000103388
0
0
0
0
0
0
0
0
0.0637214
0
0
0
0.00040439
0
0
8.415e-05
0
0
0.00335925
0.00257268
0.00127557
2.48927e-08
0.00764226
0
0
0.327082
0.28935
0.248141
0
0.0511343
0.00182577
0
5.69586e-06
0
1.15791e-06
0
0
0.00938776
0
0
0
0.00104605
0
0
0.147636
0.10826
0.0458034
2.50841e-07
0
0
0.0104549
0
0
0.000780228
2.98971e-10
0
1.76966e-09
0
0
7.36175e-10
0.00532904
0.0035584
3.15214e-10
0.00199566
3.51222e-09
0
2.83217e-06
0.0221197
0
0
0.360542
0.357078
0.3161
0.0524439
0
0.262042
0.284737
0
0
4.10585e-06
0
4.08752e-08
0.151139
0
0.169407
1.27647e-07
0.213749
0.368674
1.47445e-06
0
0
2.871e-06
1.8967e-06
0
0
2.63163e-06
0
0.246877
0
1.01736e-05
0
1.35127e-05
0
0
0
1.57731e-06
5.01567e-10
0
0
0
0
0.000116899
4.03232e-05
0
2.83386e-10
1.07698e-05
1.80714e-05
1.05984e-05
0.464935
0
0.0043113
0
0.0112057
0
0
0
1.27244e-05
2.379e-05
4.99415e-05
0.0031912
0
0
0
7.27245e-07
1.43338e-05
2.62163e-05
0
0.00791442
0.000475463
1.82802e-10
0.00018053
0
0
4.07503e-05
0
0.384768
0.00937518
0
6.91671e-09
0
0
5.44204e-06
0
0.0150732
0.0498887
0
0
0.000531403
0
0
0
5.92037e-09
5.238e-05
0
0
0.000664851
1.27809e-09
0
0
0
0
0.00144865
0.0112493
1.11723e-09
0
1.47264e-09
0
0
0
0
0.00174186
0
1.67795e-05
0
0.0121472
0.00430784
3.45677e-09
0.00254466
0
0.0255806
0.446517
0.44229
0
0.441571
0
0.109635
0
6.84254e-07
0.0913653
0.00361053
0.104409
0.0640805
0.0322072
2.29689e-09
0
1.89494e-10
4.5282e-05
6.47814e-10
0.0701421
0.426438
0
0.445654
0
0
3.41095e-10
0
0
3.85017e-07
0.0829889
3.11446e-06
1.88645e-10
0.112583
0.137143
0.119263
0
0
0
5.29609e-05
2.64878e-09
2.19208e-09
0
0.0657566
0.0565472
0.00166299
0
0.00486389
0
1.4971e-05
0.0445511
3.34282e-06
9.66125e-06
0.0352062
2.79151e-06
7.67638e-09
0
1.65706e-10
0
0.210415
0
0
8.25542e-10
5.04569e-10
2.13961e-10
0
4.11279e-07
2.33829e-07
0.000403588
0.358221
0.000589686
0.0623944
0
0.000112979
2.51534e-08
0
2.45685e-08
0.00546276
0.00392259
0
3.54477e-06
3.78544e-08
2.27338e-08
0
0.0154897
0.0122165
0.00675981
0.0132315
0
0
0.189285
0.00473545
0
0.00573478
0
0.0275761
0.0027996
0
0.0219319
0
3.57352e-05
4.45003e-05
0
4.78273e-07
0
0
2.3932e-07
3.62444e-07
0
0.0383669
0
0.0527503
0
0
0
0
0
0
0
0
2.23885e-05
9.34664e-06
0
0.000985118
0
1.41987e-06
0
2.72897e-07
8.24675e-07
0
9.35281e-06
7.40716e-06
1.11136e-06
3.24597e-07
5.55981e-07
0
0.000119228
2.93717e-05
0
0.023366
0.00867385
0.0382775
3.91527e-09
5.78388e-08
6.90685e-06
2.95694e-09
4.73228e-09
1.3405e-09
0.0278965
0
6.48375e-07
0
0.0939737
0.023632
0
0.0190477
0
0.207377
1.49205e-06
2.07479e-06
0.0401634
0.0542882
0
0.0284841
5.90185e-05
0
0.000345612
0
0
0
6.9e-07
0.0328858
0
0.160646
0.00523638
3.59324e-10
0.0239418
0
0.0174855
0.0133111
3.73473e-07
0.016197
0
0
0.0129429
0
0.00998502
0
0
0
0
0
0
0.454384
0
0.429238
0.00259464
7.88349e-10
0
3.93276e-09
1.05425e-09
0.00780222
0
0.0105418
0.00407448
1.20146e-08
2.25022e-08
0.0859531
0.113489
0
3.50714e-09
8.85029e-10
0
0.061343
0
0
0.00346135
0.00477745
0
0
2.34656e-05
0
0
0
0
0.00925696
0.0136944
5.61272e-06
2.70147e-09
0
0
0.000171023
3.40797e-05
0.0189148
7.92409e-05
0.0195124
0.00780925
0.0191198
9.81763e-10
3.71503e-08
0.0298704
0.000888195
1.63132e-07
0
0.00182354
4.8238e-07
1.05657e-10
2.21202e-10
0
0.235141
0
0.145005
0
2.91274e-10
4.88066e-05
3.2531e-05
1.57508e-05
0
0
0
6.88405e-08
6.37371e-10
5.95508e-05
0
0
0
2.31231e-05
0
0
0
0.00017102
1.68121e-06
0
0
3.16456e-06
0.430926
0
0
0
0
1.60886e-09
0.00128898
4.73486e-09
0.00166498
1.83642e-09
8.70951e-10
0
0
0
0
0
1.07294e-10
2.96158e-10
0
0
7.84817e-06
2.69476e-05
0
0
5.93636e-09
3.36541e-09
3.85887e-09
0
0
0
0
4.81635e-08
4.38437e-08
2.14439e-08
0
0
0
0.364884
0.32065
0.000248588
0
0
0
0
0
0
0
0.24003
2.96003e-07
0.100273
9.01777e-08
9.65707e-07
2.98545e-05
0
0
0
0.061776
0.106533
0.0732943
0.0823141
0
0
1.40219e-10
0
4.82321e-08
0.00226013
0.00528956
0
0.000436007
0
0
1.18834e-08
0.000173033
7.18011e-05
0.000171183
0.00957235
0.0110469
0.0168609
1.13417e-08
1.58661e-09
7.13739e-09
3.73097e-09
9.53472e-08
3.85881e-08
0.0269279
0.0148759
9.50413e-06
0
8.71913e-05
6.94193e-07
2.68966e-07
0
1.52245e-07
7.03388e-08
0.0143388
0.080754
0.124438
0
0.054555
0.372702
0
0.00783196
0
0.00190956
0.0245948
0
0.0265562
4.95888e-07
0.00355859
1.16555e-10
6.37347e-08
0.010755
0.0116246
1.91628e-07
1.15287e-10
0.00097071
0
0.000644721
0.000385784
3.07417e-09
0.0301357
0
0
4.06915e-07
0
0
0.00256437
0.00103588
0
0
8.31683e-10
0
0
1.09088e-10
6.54574e-08
0
0
0
0.06341
0.102616
0
0
0
0.25819
1.91911e-08
6.58843e-09
4.14202e-09
1.78841e-06
0
0
0.21223
0.0442811
0
0
0.000120541
0
0
3.29613e-05
0
0.000812346
1.59444e-09
0.0340336
8.79286e-06
0
0.00646169
0
0
0.0173394
9.81237e-05
0
0.353705
0
2.17166e-06
1.21613e-05
7.87943e-10
4.79537e-06
0
0
0
0.0764057
5.82476e-06
2.11857e-07
0
0
6.33248e-10
3.67058e-05
9.28623e-06
0
8.28378e-06
2.25856e-10
0
1.12735e-05
0
0
2.33929e-06
1.13668e-06
3.46641e-06
0
9.22679e-09
1.35908e-07
3.41507e-08
2.84585e-08
9.0476e-09
0.0565531
2.6213e-08
0
0.0109199
5.41155e-06
0.352839
0
0.306103
0.294322
5.7548e-08
0.00464858
0.00386343
1.5262e-07
0
0
1.34084e-09
0.0848613
0
0.0936541
0.129536
0.381722
0
5.12729e-10
0.314142
0.229577
9.4793e-09
0
0.362029
0
0
0
1.59804e-06
3.77229e-10
2.19181e-10
0
0
0.000150835
1.75809e-10
0.000176248
0.000167306
5.61588e-10
4.65572e-10
6.22847e-07
1.37556e-09
1.33238e-05
8.60132e-10
0
3.37263e-09
0
0.00607341
0
0.239474
0.324647
0
0.0328072
2.686e-06
3.07595e-09
3.79697e-06
2.01764e-06
0.0986868
0
0
0
0
0.00294253
7.18397e-09
0
5.94589e-07
0.00984596
0
0
0
3.81717e-07
0
2.84162e-09
0
0
0
0
0
0
0
0
0.00476313
0
0
0.00368162
0
0
0.205069
0
0.417935
6.16289e-09
1.81533e-07
0
1.83378e-06
2.52515e-06
0
0
1.22883e-06
0
0
0.0119186
0
0
0
0
0
2.45097e-06
0
0
0
0
0
1.77921e-05
0.000771967
0
0.453912
1.20101e-08
0.00993496
1.88309e-07
0.00702439
0
0
0.0185712
0.0247667
1.83296e-07
0
0.00082813
0
2.95149e-08
3.805e-10
7.8506e-09
0
3.19828e-09
1.89184e-07
0.0472728
1.23123e-08
0
1.26427e-07
0
1.23052e-08
0.00169643
1.7491e-08
1.01793e-08
7.49923e-06
1.3526e-07
0
1.05187e-08
7.14172e-10
0.383006
0
0.00880998
0
0
0
1.15293e-05
0.102383
0
0
0.450366
0
0
9.00242e-09
0.0806915
0.0157712
0.239309
0.150509
8.2826e-07
0
0
0
0.297033
0.000121423
3.48552e-05
0.317211
0
0
0
0
0
0
0
9.80266e-06
0
0.147806
0
0
0
0
0.265364
0.00604178
0
6.95142e-09
0
2.81894e-09
0
0.0757181
0
0
0
0.0290554
0.000498856
0.000260817
0
5.57661e-07
2.3262e-07
0
0
0.000102237
5.8711e-07
0
0
6.53736e-07
0.00300978
0.000342191
0
1.28368e-09
3.70671e-06
4.66047e-05
0.182989
5.02331e-05
1.64155e-09
0.0367583
0
8.93618e-05
0
0
0.00171017
3.54023e-08
2.68914e-08
0.00160347
0
3.01712e-10
0.282524
0
2.1049e-08
1.25099e-09
1.01288e-08
0.00859677
0
0.00831714
1.46723e-05
0
0.190958
0
0.369269
0
1.22797e-06
8.95845e-09
5.191e-09
0
0.00777409
0.000328684
5.471e-10
0
0.00134013
0
0.000105041
2.56233e-08
6.46644e-09
0.000193314
1.26624e-09
0.0416741
0.188617
0
7.76207e-05
0
0
0.0779876
3.63513e-08
0.00192813
9.57766e-08
1.11082e-06
0
2.62745e-07
5.22049e-07
0.00522482
0
3.61613e-07
2.77616e-07
0
1.39197e-07
1.51795e-10
4.03262e-08
0
3.32599e-07
7.43443e-08
2.05855e-06
0
0
0
0.0717304
0
0
1.75573e-06
0.275244
3.78013e-07
4.68029e-08
0
0
4.43092e-07
1.70604e-07
0.00109807
0.221267
0
0.00375181
0
2.18178e-09
3.98672e-07
0
0
3.32771e-10
0.00782679
1.77391e-07
0
5.2118e-10
0
0
3.44144e-09
0
9.53182e-09
0.046692
6.40046e-09
0.0419558
0.00499245
0.000237939
0.0380644
0.179879
0.000769426
0
5.52371e-07
7.7401e-05
0
0
1.49853e-05
0
1.76574e-06
0
0
0
0
0
0
1.63281e-05
0
0.000804876
0
0.332286
0.0460047
0
0.16932
0.0938769
0
0.198905
0
0.222129
0.127749
0.00660698
0.0137069
0
0
2.82197e-08
0
0
1.55064e-08
0
0
1.49485e-07
0
0
0
0
6.35691e-08
0
0
0.00505879
0
9.13138e-09
1.83804e-09
2.33063e-09
0
0.00016166
0
1.60576e-08
9.75283e-09
0.0022004
0
0
3.31051e-08
1.26167e-07
0
6.33627e-06
0.000712248
0.0707873
2.76409e-08
0
0.0047698
1.03959e-07
1.64004e-07
3.65874e-09
7.93605e-07
0
0
0
0
0
2.36981e-07
0
0.000357395
5.21905e-08
1.79705e-08
0.000641921
0
2.21399e-10
1.55331e-09
1.60566e-09
0.000126817
0
0
4.79793e-05
2.10238e-06
9.21746e-05
0
0
0.00126534
1.19084e-05
0.00209432
0
0.00153875
0.139678
0.00243613
0.000437734
0.042914
0.000710905
0.00860368
1.32479e-06
1.27402e-08
0
7.60403e-08
1.47848e-07
0
1.32413e-07
1.61482e-05
0
0
3.68934e-08
0
3.55904e-10
0.000150839
0
0
2.61487e-08
0
3.27237e-08
1.1765e-05
0
0.00792966
0
1.94836e-09
0.00167643
0
6.46701e-05
0
0
2.34598e-05
0.439147
0.443504
0
0
2.04263e-07
0.00015527
2.10077e-09
0.000127682
0
0
0.00598236
0.000698245
0
0
0.000224868
0
0.101881
1.10643e-07
0
0
0
0
0
1.55072e-07
0
0.124093
1.22044e-10
0
0
0
0
0
0.464679
0
1.18349e-09
0
0
0.000121238
0.0391339
0
1.08619e-06
0
0
0.00151601
7.43492e-08
7.5621e-07
0
0.330678
0
0
0
0
0
0.0362553
0
0
0
0
2.39504e-09
0
0
5.31382e-09
7.11428e-09
0
0.000257548
1.29908e-10
0.0559332
0
0.0253374
0.00016742
0.000101696
0
0.00100615
0
8.15806e-10
0.00329759
0
1.68876e-08
1.84212e-09
0
0
0
0
0
0
2.94409e-10
0
0
0
0.00631852
0
0.0705648
2.87982e-05
0
0
0.472754
0
0
0.00294433
1.17047e-10
0
0.00182172
0
0
0.000107074
2.88346e-06
0
0
2.92113e-07
0
5.95563e-07
0.00604382
0.0129387
0
2.43305e-05
0
0.00765873
0
0
0
0
1.55996e-06
5.77302e-06
0
4.7762e-05
0
0
0.00158195
0
2.21296e-10
0
0.00155457
0
0
9.30738e-10
0
0
1.42485e-07
0.00139618
0
1.41106e-07
0
0.0549697
0
0
9.0425e-06
0
0.454418
0.067139
0
0
0
0.0100893
0
0
0
0
4.85873e-06
0
0.404725
0.448428
2.2118e-09
0.0710082
0
9.55112e-10
0
0.0322983
0.00662035
0
0
5.38508e-06
0
1.35439e-08
0
0
3.3064e-07
0
0.000913766
0
0.000582846
0
2.08245e-05
1.46591e-05
2.87717e-07
9.45559e-08
4.45822e-05
0
0.0328054
2.79388e-05
0
0.00128954
0
0
0
8.41846e-05
2.31813e-06
0
5.42949e-09
0
0.141671
0.291005
0
0
1.79952e-05
0
5.52566e-10
0
2.02076e-05
2.04829e-06
0
1.98659e-06
0
0
1.08296e-10
0.015365
4.74101e-07
0.121192
0.231316
0
0.405508
0
0.000167783
0.229188
0
2.37588e-05
0
3.96647e-10
7.5216e-08
0
0.0186989
0
0
6.71241e-08
0.0557973
1.34423e-05
0.00297227
0
0
0.000687014
4.87973e-10
0
0.0904634
0.0470919
0.00707579
0
7.6125e-09
1.95628e-09
1.80531e-10
0
0.334698
0
4.68694e-10
0
0
0
0.0039583
0
0
0
0
0.000118279
0
0
4.08211e-10
2.17073e-06
0
2.26188e-07
5.34119e-05
0
0.00290434
0
0.121075
7.73241e-05
0
3.0505e-05
0
0.000256771
3.01e-07
0
0
7.8604e-07
5.62264e-06
0
0
0
0
0.00124896
2.99738e-10
0
0
0
0.000200219
0
5.23573e-05
0
0
4.22758e-10
1.7602e-05
0
4.63499e-05
0
1.55207e-09
0.00136374
0
0.166432
0
0
0.0856993
3.39676e-08
0.0271463
0
3.15145e-06
0.00130108
8.71518e-07
0
0
0
0
0
0.0017348
0
0
0
0
0
1.60665e-06
0.000450618
0
0
2.62626e-05
0
0
0
2.6394e-09
0.00027916
0
6.70706e-06
1.27734e-05
0
0
0.41776
8.75264e-06
0
0
0
0
9.08916e-06
0
0.434658
0
2.43177e-06
0
9.33158e-08
0
5.81416e-08
0
0
3.31674e-08
0.00056083
2.24832e-09
2.81674e-08
0.0154585
1.21005e-09
1.45237e-08
0
0.0414729
0.00123745
2.03178e-09
0
4.68889e-09
9.46823e-10
0
0.000125761
0
0
0
0.00403781
0
0
0
9.63085e-10
5.81501e-09
0.000439422
0
0.0861748
0.462607
0.46476
0
0.182723
0
0.000108042
0
0
4.1735e-10
5.34197e-09
0.000931306
0.000371758
0
0
0
0
0
0
0.0814327
0
3.28698e-05
0
0
0
0
0.00131785
0
9.6519e-10
0.00280569
7.48371e-07
0
7.0537e-07
0
4.49055e-07
0
0
0
1.40999e-06
0.0130511
0.0848709
0.000417878
0
2.5791e-08
0.00130428
0
0.200748
0
0
0
0
0.00472136
5.23377e-10
0
0
3.06441e-06
0.00916206
0.00408246
0
0
0
0
7.73332e-10
0.00700159
0.000297162
9.37239e-09
4.82139e-08
0
7.67072e-07
0
0
0.281942
0.0353343
0
0
0
1.41149e-07
1.35603e-07
2.06581e-07
6.22824e-07
9.69055e-07
4.47522e-08
4.48818e-07
1.07534e-05
0
4.61657e-05
0
2.96087e-08
5.71337e-07
4.34181e-08
4.90269e-05
8.64213e-09
0
0
2.77822e-08
0.000132693
0.00652958
0.000366431
0
6.00699e-09
0.00479723
7.88699e-09
7.49248e-08
0.0275555
3.961e-09
0.0257196
0
0
0
1.30942e-08
4.82694e-09
0
0
0.00694713
0
0
1.97704e-08
5.92457e-07
3.37782e-07
0
0
0
0.0173172
0
0
0
0
5.87885e-10
2.6316e-07
2.8988e-08
0
0
7.5338e-06
0
0.166337
0.0662142
0
0
7.02863e-08
0
0
2.74773e-08
0.00137032
0.420684
0
0
1.03883e-07
0.00321833
0.366887
0
0
0
0
0
0.00190633
0.00712759
0.00768748
0.00293429
0.0034014
0.00316852
0
0
0
0
0
0
1.84726e-10
0.00114828
0.000193251
0.00088682
0.430263
0.392222
0
0.0225397
6.06186e-06
2.03897e-06
0
0.00645474
5.1524e-06
0
4.92662e-06
3.49265e-06
5.66206e-09
0
0
1.20979e-07
5.31476e-07
0
0.0269933
0
0
0
0
0.000593653
0.0415078
0
0
0.0083307
0
4.46042e-08
4.20972e-07
0
0.0375671
0.0186271
0.029704
0
0.00490143
0
0
0.370723
9.56153e-10
4.21185e-09
0.00151074
0.0011495
0.00227124
0
0
2.17406e-10
1.16908e-08
0.0148233
2.57172e-08
0
0
6.83031e-08
0
6.58328e-09
0.00313866
0.00438178
1.97892e-08
0
0
0.40809
0.469331
0.0871984
0
0.000427979
0
1.56459e-09
0
0
0.450543
0.398769
0
0.0173326
1.4885e-08
0
0
0.000598264
0.00274042
0
0
0
0
0
0.0991628
0
0
0
0
0.111747
0
0.00304223
1.08353e-08
7.33879e-09
0
3.88975e-08
0
5.72638e-10
0
5.68386e-07
5.02363e-10
0.0157899
0
8.73791e-10
0.389063
0
1.58266e-09
0
0
0
0
1.5403e-10
0.00303257
0
0
2.26122e-09
0
0
0.0134593
0
1.03664e-10
0
0.159111
0
1.91909e-10
1.55883e-10
0
0.0422341
0
0.00713353
0
0.000388622
0.0432205
0
0.0265491
0
0.0366167
0
0
0
0
1.01388e-07
0
7.60156e-05
0
0
1.11914e-06
0
0
0
0
0
1.51029e-05
0.0310648
0.000132664
0
0.0211006
0
1.41654e-09
0
0
0
0.016091
1.81067e-09
0.00957382
1.00525e-07
1.47376e-10
2.86191e-05
0
0
0.000451381
0
0
0
8.72313e-07
0
3.88319e-06
0
0
0
0
8.56624e-09
0
1.98485e-09
0
0.000588264
0
0.13117
0.00327877
0.000597469
1.90423e-07
0.201312
0
0
0
0
0
3.18918e-06
0
0.0326399
0.0739398
0
0
0
0.00193265
0.000174858
5.0417e-07
0
1.37871e-07
0.000464216
5.25785e-08
0.0226378
0
9.77363e-09
1.35019e-06
5.88049e-06
0
2.82419e-07
1.3251e-06
6.27394e-10
0
0.0176239
0.219146
3.13523e-09
0
1.3125e-06
6.55217e-07
1.95954e-07
0
1.07301e-07
0.112577
0
1.19544e-07
0
3.10107e-05
3.40476e-10
0.00101139
0
0.00286994
4.42826e-08
0
0
0
0.0278788
0
0
0
0.00367271
0
0.00270452
0.000323629
0
0
4.41162e-05
8.47136e-10
0.00375905
0
0
0
0.222985
0.00322432
0
0.459289
2.69518e-09
0
1.72665e-05
0
0
0.00130064
0.000386451
0
4.28311e-05
4.85637e-05
0
0
0
1.30305e-07
0
2.49764e-06
1.21621e-07
0
0.031573
0
1.89888e-08
0.0580364
0.358975
7.63675e-07
2.56298e-06
0.250465
0.21641
0.177068
0
0.00312795
0.00186992
1.60716e-08
0.000825279
0.00214986
0.000353413
0
0
0
0
0
4.0222e-06
0
0
0.000976034
0
0.0023163
2.87596e-06
0
0.102116
1.13339e-09
1.95167e-08
4.61384e-07
0
0.00261878
0
0
0
0
0
0
0.000193695
0
8.54286e-05
0
3.29406e-06
0
3.00059e-05
0
0.00284579
7.77009e-08
3.7216e-06
0.00797278
1.3551e-05
6.96294e-05
0
0
0
0.0496616
0
3.48711e-10
0
0.0109193
0
0.0352745
0
0.000276669
0.12685
0
5.52399e-05
0
0
0.157571
0
1.96779e-09
0
5.27079e-05
0.0215559
0
2.67936e-06
0
0.0361969
0
0
3.84578e-06
0.0934535
0.287535
0.0415553
5.4123e-06
0
1.81676e-06
0
1.47072e-05
3.77555e-05
5.03887e-05
1.05623e-05
0
1.01605e-05
5.17532e-07
0
0
3.7726e-05
0.131178
0
0
0.363759
2.00295e-05
3.02168e-09
7.86612e-10
3.38519e-05
0
0.139004
9.32616e-05
0.0303707
9.23309e-07
6.90756e-10
0
0.129884
2.67121e-06
0.310479
0
1.53813e-05
0
0.0054123
0
0.171933
0.261861
0
0
0.0080025
0.00398781
0.00103784
0
0
0.142288
0.212812
0.16528
3.17988e-05
0
0
0
0.0567151
0.0795835
0
4.25458e-07
0
0
0
0
0
0
0
0.343597
4.7377e-06
0
5.75864e-06
0.25688
0.179883
0
0
2.97226e-10
0
1.6659e-09
8.9496e-05
0.000177225
0.000303978
0
0
0.00816938
0.00379515
0
6.8845e-07
3.17675e-07
2.46638e-06
0.00119871
0.000455337
0.000691678
0
0
0
0
0.000303028
0.000433976
0
6.52923e-06
0
0
6.67156e-08
1.55798e-08
0.0113257
0.0115315
0.00719972
0
0
0
0
0
0
0.0841558
0.127419
0.099898
0.0808842
0.093751
0.0404187
0.063575
0.0555347
0
0
0
0
0
0
0.157819
0
0.000541413
0.000621926
0.00102462
4.94498e-09
0.00413658
2.73799e-09
1.24973e-07
9.63712e-09
8.12291e-09
0.0897038
0.00115066
0
0
0
0
0
0
0.0567252
1.81339e-09
0
3.89189e-09
0
0
0
0
0
0
0
0.000177003
1.88959e-08
0.000272655
0
0
2.14769e-07
2.5246e-07
0
0
0
0
0
0
0
0
0
3.9301e-06
0
0
0.0412476
0
0.0069228
0
0
7.79439e-06
0
6.33047e-07
9.05674e-07
0.0237452
0.253647
0
0
0.000171092
0
4.10316e-05
1.44703e-05
4.41542e-05
0
0
0
0
0
0.04638
0
0.310397
0
3.02894e-09
9.2356e-09
4.0113e-09
0.373091
0.263056
0
0
0
0.0685282
4.84395e-05
1.203e-06
3.45862e-06
1.83559e-06
1.04949e-06
0
0
0
0
0.000894666
2.9483e-07
1.19561e-09
0
1.27841e-09
0
6.15502e-08
0.00442338
2.08282e-08
0
1.73362e-09
0.0633995
0.000324838
1.3313e-09
0
4.38168e-10
7.89111e-08
0
1.27938e-07
0
0
0
6.80521e-05
0
0.000343734
0
0
0.000279383
0
8.41479e-10
4.25485e-10
0
0.00234287
5.65015e-10
0
0
0.000419006
0
0
0.0489922
0.0871425
0.0518071
0
0
0.0768251
0.0877328
0
3.49976e-09
0.0487158
0
0
0
0
0
0
0.000149436
0.288801
0.348495
0.320525
0.301059
0.0328716
0.0173446
0.0216898
0.0165506
0
0
0
0
0
1.08078e-07
0
0
1.79317e-10
0.00609178
3.23699e-09
5.18623e-06
1.23532e-08
7.3431e-09
6.30749e-08
1.90172e-09
0
1.07103e-08
8.50176e-08
0
1.19065e-10
0.0166512
0.014159
0.0167498
0.00239425
0.0272131
0
0
0
3.91061e-08
3.2803e-08
1.20986e-06
0
0
1.8524e-07
3.01162e-07
0
0.2922
0
0
0.136139
1.62437e-10
0
0
0
0
0
0
3.83208e-05
0
7.05643e-05
0.000130436
0.0200394
0.0128387
0.0133999
9.08447e-06
0
5.95019e-06
0
0
0
0.00523452
0.000220739
0.000119064
0
0
0
0
0
0.00103323
0
0
0.00190808
0.000729589
0
0.000555212
2.70365e-07
0.0722554
0.0517379
1.00068e-07
0.0389528
0
0
0
0
0.0120724
1.36156e-08
0
0
0.138706
0
0
7.28536e-07
0.146531
0.134514
0
0
0
0
0.150488
0.154156
0.190501
1.83973e-10
0
0
5.1866e-07
0
0
0
0
0
0
0.00156615
0.00103301
5.91292e-10
2.11046e-10
0
2.2919e-10
0.295435
0.201028
0
0.287997
0.295318
0.252124
0
0
0.167583
0.21066
0.213857
0.244042
8.89849e-05
0.00160845
0.000619124
0.000914198
0
0
0
0
4.77706e-06
0
1.04985e-06
1.70364e-06
1.1511e-05
0
0
0
0
0
0
0
0
0
0
0
0
3.18584e-10
0.0188469
0
0
0
0
4.70706e-09
0.000627301
0.00101722
0
0
0
0.45396
0
1.69509e-07
3.53151e-10
0
3.05799e-10
0.0168956
5.57252e-07
4.20464e-05
2.92941e-05
1.58954e-05
0.430165
0.0279094
0
0
0
0.301571
0.360572
0.350018
0.376363
4.6455e-09
0
1.50949e-08
0
0
0
3.36305e-06
1.49002e-06
7.53646e-06
0.00603426
4.25357e-09
1.17967e-09
0.00224532
1.1078e-10
0
8.24215e-07
0
0
0
1.54227e-08
0
0
4.61899e-08
0
0
0.4473
0.430891
0.423482
0
0
6.02341e-07
0.000906875
0
0
0.000573632
8.9771e-10
0.000228389
5.20849e-09
0
0
0
0
0
0
0
0
0
0
0
0
0.0172504
0
1.4222e-06
0
0
1.23366e-06
0
8.43708e-10
0
0
0
0.167129
0
9.64531e-06
2.86146e-05
0
1.49135e-05
9.83978e-06
0
0
0
0
0.0326971
0
0.0629847
0
0.00786319
0.00482143