# vtk DataFile Version 2.0
Unstructured Grid by M++
ASCII
DATASET UNSTRUCTURED_GRID
POINTS 4072 float
  0.609375   0.843750 0
  0.562500   0.843750 0
  0.531250   0.843750 0
  0.875000   0.828125 0
  0.984375   0.828125 0
  0.953125   0.828125 0
  0.937500   0.828125 0
  0.843750   0.828125 0
  0.812500   0.828125 0
  0.781250   0.828125 0
  0.765625   0.828125 0
  0.734375   0.828125 0
  0.703125   0.828125 0
  0.671875   0.828125 0
  0.640625   0.828125 0
  0.609375   0.828125 0
  0.593750   0.828125 0
  0.562500   0.828125 0
  0.546875   0.828125 0
  0.531250   0.828125 0
  0.515625   0.828125 0
  0.968750   0.812500 0
  0.937500   0.812500 0
  0.921875   0.812500 0
  0.890625   0.812500 0
  0.859375   0.812500 0
  0.828125   0.812500 0
  0.796875   0.812500 0
  0.765625   0.812500 0
  0.750000   0.812500 0
  0.718750   0.812500 0
  0.687500   0.812500 0
  0.656250   0.812500 0
  0.625000   0.812500 0
  0.593750   0.812500 0
  0.578125   0.812500 0
  0.546875   0.812500 0
  0.531250   0.812500 0
  0.515625   0.812500 0
  0.984375   0.796875 0
  0.562500   0.015625 0
  0.953125   0.796875 0
  0.921875   0.796875 0
  0.906250   0.796875 0
  0.875000   0.796875 0
  0.843750   0.796875 0
  0.812500   0.796875 0
  0.781250   0.796875 0
  0.750000   0.796875 0
  0.734375   0.796875 0
  0.703125   0.796875 0
  0.671875   0.796875 0
  0.640625   0.796875 0
  0.609375   0.796875 0
  0.578125   0.796875 0
  0.562500   0.796875 0
  0.531250   0.796875 0
  0.515625   0.796875 0
  0.968750   0.781250 0
  0.546875   0.000000 0
  0.937500   0.781250 0
  0.906250   0.781250 0
  0.890625   0.781250 0
  0.859375   0.781250 0
  0.828125   0.781250 0
  0.796875   0.781250 0
  0.765625   0.781250 0
  0.734375   0.781250 0
  0.718750   0.781250 0
  0.687500   0.781250 0
  0.656250   0.781250 0
  0.625000   0.781250 0
  0.593750   0.781250 0
  0.562500   0.781250 0
  0.546875   0.781250 0
  0.515625   0.781250 0
  0.984375   0.765625 0
  0.953125   0.765625 0
  0.921875   0.765625 0
  0.890625   0.765625 0
  0.875000   0.765625 0
  0.843750   0.765625 0
  0.812500   0.765625 0
  0.781250   0.765625 0
  0.750000   0.765625 0
  0.718750   0.765625 0
  0.703125   0.765625 0
  0.671875   0.765625 0
  0.640625   0.765625 0
  0.609375   0.765625 0
  0.578125   0.765625 0
  0.593750   0.750000 0
  0.562500   0.765625 0
  0.546875   0.765625 0
  0.531250   0.765625 0
  0.562500   0.750000 0
  0.968750   0.750000 0
  0.937500   0.750000 0
  0.906250   0.750000 0
  0.875000   0.750000 0
  0.859375   0.750000 0
  0.828125   0.750000 0
  0.796875   0.750000 0
  0.765625   0.750000 0
  0.734375   0.750000 0
  0.703125   0.750000 0
  0.687500   0.750000 0
  0.671875   0.750000 0
  0.656250   0.750000 0
  0.625000   0.750000 0
  0.546875   0.750000 0
  0.531250   0.750000 0
  0.515625   0.750000 0
  0.562500   0.734375 0
  0.984375   0.734375 0
  0.953125   0.734375 0
  0.921875   0.734375 0
  0.890625   0.734375 0
  0.859375   0.734375 0
  0.843750   0.734375 0
  0.812500   0.734375 0
  0.781250   0.734375 0
  0.750000   0.734375 0
  0.718750   0.734375 0
  0.687500   0.734375 0
  0.671875   0.734375 0
  0.656250   0.734375 0
  0.640625   0.734375 0
  0.546875   0.734375 0
  0.531250   0.734375 0
  0.515625   0.734375 0
  0.562500   0.718750 0
  0.968750   0.718750 0
  0.937500   0.718750 0
  0.906250   0.718750 0
  0.875000   0.718750 0
  0.843750   0.718750 0
  0.796875   0.718750 0
  0.765625   0.718750 0
  0.734375   0.718750 0
  0.703125   0.718750 0
  0.687500   0.718750 0
  0.671875   0.718750 0
  0.656250   0.718750 0
  0.625000   0.718750 0
  0.546875   0.718750 0
  0.531250   0.718750 0
  0.515625   0.718750 0
  0.562500   0.703125 0
  0.953125   0.703125 0
  0.921875   0.703125 0
  0.890625   0.703125 0
  0.859375   0.703125 0
  0.828125   0.703125 0
  0.781250   0.703125 0
  0.750000   0.703125 0
  0.718750   0.703125 0
  0.687500   0.703125 0
  0.656250   0.703125 0
  0.546875   0.703125 0
  0.531250   0.703125 0
  0.515625   0.703125 0
  0.984375   0.687500 0
  0.937500   0.687500 0
  0.921875   0.687500 0
  0.906250   0.687500 0
  0.875000   0.687500 0
  0.843750   0.687500 0
  0.812500   0.687500 0
  0.765625   0.687500 0
  0.734375   0.687500 0
  0.703125   0.687500 0
  0.671875   0.687500 0
  0.640625   0.687500 0
  0.593750   0.687500 0
  0.562500   0.687500 0
  0.546875   0.687500 0
  0.531250   0.687500 0
  0.515625   0.687500 0
  0.968750   0.671875 0
  0.937500   0.671875 0
  0.921875   0.671875 0
  0.906250   0.671875 0
  0.890625   0.671875 0
  0.859375   0.671875 0
  0.828125   0.671875 0
  0.796875   0.671875 0
  0.765625   0.671875 0
  0.750000   0.671875 0
  0.718750   0.671875 0
  0.687500   0.671875 0
  0.656250   0.671875 0
  0.625000   0.671875 0
  0.593750   0.671875 0
  0.578125   0.671875 0
  0.546875   0.671875 0
  0.531250   0.671875 0
  0.515625   0.671875 0
  0.984375   0.656250 0
  0.953125   0.656250 0
  0.937500   0.656250 0
  0.921875   0.656250 0
  0.906250   0.656250 0
  0.875000   0.656250 0
  0.843750   0.656250 0
  0.812500   0.656250 0
  0.781250   0.656250 0
  0.750000   0.656250 0
  0.734375   0.656250 0
  0.703125   0.656250 0
  0.671875   0.656250 0
  0.640625   0.656250 0
  0.609375   0.656250 0
  0.578125   0.656250 0
  0.562500   0.656250 0
  0.531250   0.656250 0
  0.515625   0.656250 0
  0.968750   0.640625 0
  0.937500   0.640625 0
  0.906250   0.640625 0
  0.890625   0.640625 0
  0.859375   0.640625 0
  0.828125   0.640625 0
  0.796875   0.640625 0
  0.765625   0.640625 0
  0.734375   0.640625 0
  0.718750   0.640625 0
  0.687500   0.640625 0
  0.656250   0.640625 0
  0.625000   0.640625 0
  0.593750   0.640625 0
  0.562500   0.640625 0
  0.546875   0.640625 0
  0.515625   0.640625 0
  0.984375   0.625000 0
  0.953125   0.625000 0
  0.921875   0.625000 0
  0.890625   0.625000 0
  0.875000   0.625000 0
  0.843750   0.625000 0
  0.812500   0.625000 0
  0.781250   0.625000 0
  0.750000   0.625000 0
  0.734375   0.625000 0
  0.718750   0.625000 0
  0.703125   0.625000 0
  0.671875   0.625000 0
  0.640625   0.625000 0
  0.609375   0.625000 0
  0.578125   0.625000 0
  0.562500   0.625000 0
  0.546875   0.625000 0
  0.531250   0.625000 0
  0.968750   0.609375 0
  0.937500   0.609375 0
  0.906250   0.609375 0
  0.875000   0.609375 0
  0.859375   0.609375 0
  0.828125   0.609375 0
  0.796875   0.609375 0
  0.765625   0.609375 0
  0.750000   0.609375 0
  0.734375   0.609375 0
  0.718750   0.609375 0
  0.703125   0.609375 0
  0.687500   0.609375 0
  0.656250   0.609375 0
  0.625000   0.609375 0
  0.593750   0.609375 0
  0.562500   0.609375 0
  0.546875   0.609375 0
  0.531250   0.609375 0
  0.515625   0.609375 0
  0.984375   0.593750 0
  0.953125   0.593750 0
  0.921875   0.593750 0
  0.890625   0.593750 0
  0.859375   0.593750 0
  0.843750   0.593750 0
  0.812500   0.593750 0
  0.781250   0.593750 0
  0.750000   0.593750 0
  0.734375   0.593750 0
  0.718750   0.593750 0
  0.687500   0.593750 0
  0.671875   0.593750 0
  0.640625   0.593750 0
  0.609375   0.593750 0
  0.578125   0.593750 0
  0.562500   0.593750 0
  0.546875   0.593750 0
  0.531250   0.593750 0
  0.515625   0.593750 0
  0.968750   0.578125 0
  0.937500   0.578125 0
  0.906250   0.578125 0
  0.875000   0.578125 0
  0.890625   0.562500 0
  0.843750   0.578125 0
  0.828125   0.578125 0
  0.796875   0.578125 0
  0.765625   0.578125 0
  0.734375   0.578125 0
  0.703125   0.578125 0
  0.671875   0.578125 0
  0.656250   0.578125 0
  0.656250   0.562500 0
  0.625000   0.578125 0
  0.640625   0.562500 0
  0.593750   0.578125 0
  0.562500   0.578125 0
  0.546875   0.578125 0
  0.531250   0.578125 0
  0.515625   0.578125 0
  0.859375   0.562500 0
  0.828125   0.562500 0
  0.781250   0.562500 0
  0.750000   0.562500 0
  0.718750   0.562500 0
  0.687500   0.562500 0
  0.609375   0.562500 0
  0.578125   0.562500 0
  0.562500   0.562500 0
  0.546875   0.562500 0
  0.531250   0.562500 0
  0.515625   0.562500 0
  1.000000   0.812500 0
  0.578125   0.031250 0
  0.875000   0.546875 0
  0.625000   0.546875 0
  0.218750   0.000000 0
  0.640625   0.781250 0
  0.828125   0.093750 0
  0.031250   0.531250 0
  0.296875   0.328125 0
  0.296875   0.312500 0
  0.281250   0.312500 0
  0.765625   0.312500 0
  0.031250   0.859375 0
  0.093750   0.265625 0
  0.109375   0.250000 0
  0.187500   0.671875 0
  0.421875   0.640625 0
  0.031250   0.062500 0
  0.140625   0.125000 0
  0.562500   0.906250 0
  0.125000   0.437500 0
  0.203125   0.937500 0
  0.125000   0.421875 0
  0.140625   0.406250 0
  0.093750   0.437500 0
  0.109375   0.421875 0
  0.093750   0.421875 0
  0.109375   0.406250 0
  0.328125   0.125000 0
  0.750000   0.906250 0
  0.328125   0.109375 0
  0.750000   0.890625 0
  0.312500   0.125000 0
  0.734375   0.906250 0
  0.281250   0.343750 0
  0.265625   0.359375 0
  0.500000   0.796875 0
  0.078125   0.015625 0
  0.062500   0.015625 0
  0.484375   0.796875 0
  0.484375   0.781250 0
  0.062500   0.000000 0
  0.015625   0.250000 0
  0.062500   0.046875 0
  0.484375   0.828125 0
  0.484375   0.812500 0
  0.062500   0.031250 0
  0.281250   0.671875 0
  0.062500   0.234375 0
  0.328125   0.765625 0
  0.312500   0.750000 0
  0.015625   0.671875 0
  0.781250   0.187500 0
  0.015625   0.265625 0
  0.453125   0.250000 0
  0.453125   0.234375 0
  0.031250   0.265625 0
  0.046875   0.250000 0
  0.093750   0.015625 0
  0.265625   0.656250 0
  0.734375   0.281250 0
  0.156250   0.015625 0
  0.062500   0.265625 0
  0.046875   0.281250 0
  0.031250   0.281250 0
  0.343750   0.781250 0
  0.328125   0.781250 0
  0.265625   0.687500 0
  0.265625   0.703125 0
  0.156250   0.109375 0
  0.578125   0.890625 0
  0.484375   0.984375 0
  0.062500   0.203125 0
  0.328125   0.718750 0
  0.343750   0.734375 0
  0.343750   0.750000 0
  0.453125   0.500000 0
  0.437500   0.500000 0
  0.234375   0.093750 0
  0.171875   0.375000 0
  0.437500   0.531250 0
  0.468750   0.546875 0
  0.453125   0.546875 0
  0.187500   0.015625 0
  0.187500   0.000000 0
  0.609375   0.781250 0
[...]
CELL_DATA 7648
SCALARS scalar_value float 1
LOOKUP_TABLE default
0.199624
0.198423
0.20135
0.194384
3.45767e-05
2.60019e-05
2.74141e-05
2.00565e-05
0.192562
0.196101
0.199345
2.92301e-05
1.76894e-05
2.41319e-05
0.145999
0.138634
0.141487
0.127118
0.00415374
0.0039772
0.00455515
0.00349278
9.51007e-05
0.000471101
0.000504711
0.000709346
0.000403828
0.120093
0.112687
9.86722e-06
1.15787e-05
1.60535e-05
7.83812e-06
2.54446e-05
2.9375e-05
3.94443e-05
2.07099e-05
6.61204e-06
8.08194e-06
1.09776e-05
2.87786e-05
6.08978e-05
0.0321874
0.0286913
0.0246102
0.0153188
0.0135165
0.0137414
0.000153276
0.0218728
0.00245204
0.000712974
0.000270518
0.000287279
0.00110968
0.000636261
0.000890265
0.000828246
0.00016917
0.000241297
0.000344112
0.00146756
0.000249039
0.000401659
0.000451955
9.227e-09
1.09522e-08
0.000247054
0.0137442
2.88419e-07
0.0469988
0
0.0294497
0.0356339
0.00119327
7.64109e-09
0.16034
1.33228e-08
0.000697924
0.043946
0.0460437
2.76517e-10
2.77127e-07
8.15928e-09
0.00507951
2.40011e-05
0.0351973
0.0327669
0.000123397
0
9.69346e-06
2.99657e-09
0.00503775
0.00613309
2.46865e-09
0.000269914
0.00635552
0.000491975
0.00891017
0.00756525
0.03801
0.000318512
0.0375403
0.0444089
0.000735083
0.0065299
0.0923323
0.00509314
0.00313055
1.11558e-05
0.000247819
0.0011165
0.000932167
5.86792e-09
0.00743903
5.38512e-09
0.00872723
0.00610978
0.000141693
2.4816e-05
1.8711e-05
0
2.04005e-09
0.0024742
1.53129e-09
3.37473e-09
1.82684e-09
0.100464
0.0859694
0.103034
1.38845e-08
0.0213645
2.50698e-09
0.00011632
0.0739753
6.3642e-05
0.211035
0.000369113
3.65495e-05
0.011576
0.000936254
0.0103817
0.0105848
1.58189e-05
0.00942369
0.0177118
1.07959e-05
0.000593875
0.00157817
0.000233178
0.000189763
0.000804258
0.00101589
0.00127595
1.85437e-07
2.67079e-07
0.0001949
2.38043e-05
0.0238269
0.000349791
0
0.00473542
0.00539413
0.0313544
0.0256198
0.0199837
1.46122e-05
0.0225247
0.00110942
3.60229e-05
3.07965e-09
0.0628682
0.00708038
6.68876e-07
0.000969021
0.000500281
0.000104421
0.0334832
0.0228696
0.0353183
0.0283326
0.0239948
0.00416178
0.13815
1.33627e-09
0.00194771
0.00361819
6.9418e-10
1.28957e-09
0.0871436
1.22247e-09
0.0644468
0.000818734
1.22653e-07
4.53153e-05
0.000707102
0.000802321
0.000583121
9.90057e-09
1.3194e-08
1.23719e-08
0.00146073
0.00361886
0.00249626
0.00253045
0.0017638
0.00057415
5.0904e-05
3.25764e-05
4.2588e-05
9.46459e-05
0.000143635
0.000206815
0.000130209
0.0857107
0.00882458
0
3.03265e-05
2.78903e-10
0.00857371
0.0113998
0.0714993
0.0595504
2.307e-05
0.0707176
4.18693e-06
0.00578744
0.00633417
0.0732692
0.0770912
0.000533659
0.000744838
0.0731384
0.0222044
0.000802602
0.000623225
0.000551004
0.000537088
0.0458904
1.51986e-09
0.0425558
1.52943e-07
0.0422833
0.000164551
0.000138995
0.0917706
0.0711143
0.097443
0.0842777
3.51994e-06
0.0963577
0.000666755
0.00051081
0.000628264
0.000548285
0.168126
0.0168115
0.000204971
0.000141021
0.00322987
0.00376364
0.0035682
0.0120261
0.0001101
2.75821e-05
0.104057
2.02941e-05
0.0380797
1.20892e-05
0.133851
0.0170093
0.00186215
0
2.30228e-05
7.01186e-07
1.50248e-05
7.96984e-05
0.000604708
0.0307535
0.0364388
2.30118e-05
0.225001
0.000716961
3.39187e-07
0.0516381
0.00107209
2.63215e-07
1.7148e-05
6.87588e-07
0.0108793
1.32947e-06
2.55396e-05
0.00166759
1.20644e-07
0.0248053
0.0243789
1.38768e-07
0.02824
1.30381e-09
0.000770227
0.000973051
0.0693127
1.47244e-06
0.000300768
0.00237295
0.00196619
0.00174399
0.006216
0.00110473
0.0182848
0.0157591
0.0134403
3.907e-05
1.53001e-07
6.62857e-05
0.0342899
0.00849762
8.0875e-05
0.007258
0.0317401
0.0059867
0.00167999
0.213624
0.0329983
0.0256216
0.0059207
0.0015974
0.0282549
0.027329
0.00319587
0.0126136
0.000783205
0.0198431
0.200048
3.37097e-06
0.200811
2.60832e-06
0.00017977
0.000158131
0.000543213
0.0319858
0.000217264
0.000159336
2.74819e-10
1.702e-05
0.17657
0.192794
6.87886e-07
4.49895e-07
7.54284e-09
1.25217e-08
1.0871e-08
0.00462573
0.0038637
3.38851e-06
0.00622768
1.16732e-05
1.44134e-05
1.34806e-05
1.04223e-05
0.00995065
0.00944929
0.0113147
0.0983974
0.023095
0.000147726
0.0104019
7.36261e-08
1.25084e-06
1.02534e-06
0.0322662
0.0880389
7.08141e-06
0.144285
3.95397e-06
0.107821
1.24137e-06
9.38769e-07
0.000837171
0.00202873
0.0202878
0.00489361
0.0030634
0.00136624
0.0646807
0.0445543
0.0603668
0.0670197
3.97748e-05
0.000379076
0.000214898
0.119694
0.000634008
0.000316075
0.00158394
3.15022e-05
0.000154785
0.000143078
2.39446e-05
0.136311
8.33082e-06
0.00333941
0.0170219
0.000917238
0.0136707
0.113415
1.8276e-05
0.188267
0.00147952
2.08474e-05
1.05683e-06
0.00107631
0.00103238
4.26468e-06
0.0614423
0.000686892
8.9087e-09
0.000576772
6.10237e-06
0.0680931
0.201146
0.0905896
1.03453e-05
0.00106894
0.00380354
0.00338549
8.32413e-06
0.00346258
0.00167633
0.000237464
0.0234689
0.000996016
0.000183715
2.26697e-06
0.000198991
0.000122757
4.78908e-05
4.34813e-10
0.000860692
0.0522019
0.00421821
0.0579243
0.00179105
0.00279301
0.0042579
0.0037163
0.00368284
0.00309992
0.0353798
0.0309871
0.000693543
0.00106832
0.000184136
0.00120235
0.0329444
0.00026422
0.000335563
0.000281076
0.00211253
0.000114939
0.00120944
0.00158679
0.0516002
0.0348961
0
0.00014207
0.000114913
1.24225e-06
3.22168e-10
4.83603e-06
0.0731745
5.21144e-07
0.035751
4.50994e-09
6.55282e-07
0.0337272
0.000274767
0.0359041
3.43456e-10
0.0623563
2.58756e-09
0.0237847
9.47826e-09
4.3364e-09
0.12394
0.119365
0.108277
0.0190362
0.00131519
0.00171272
1.4577e-07
0.0113281
2.03013e-07
0.0298303
0.00129683
4.13343e-08
0.000499542
1.79208e-05
0.0347513
0.000107802
8.1141e-05
0.00176883
0.0447808
1.29697e-05
9.34122e-06
0.0093377
0.000255547
0.000201928
0.000177426
0.000161246
6.94946e-05
0.00476939
0.000309648
1.66431e-06
0.00407503
5.41433e-05
0.116903
0.000216445
4.78356e-05
0.10007
0.000174598
0.0120719
3.68556e-05
6.13807e-05
0.000220079
0.0204506
9.28717e-05
0.0161178
0.018919
0.0142985
0.0163539
4.74598e-05
3.57139e-06
6.56429e-05
0.00255305
0.00252019
0.00236933
0.00354632
0.00175655
0.00296717
0.00230899
0.00190802
2.8372e-05
2.56088e-05
0.000656614
0.062387
2.62607e-06
0.0190427
0.000171198
0.0177692
0.0158728
0.000159045
0.0356926
0.0323953
0.076034
0.0644847
0.0850408
0.0308372
0.000117165
4.69368e-05
0.0307686
4.83508e-05
1.68611e-05
7.66534e-05
0.0361819
0.0104525
0.000644104
0.0385165
0.0396691
0.0384174
0.00132209
0.000157619
0.017258
0.0195735
6.90461e-05
0.0605143
0.010109
3.72138e-05
4.68895e-06
0.00429309
0.0619288
0.0632775
1.97153e-05
3.04162e-05
0.000132685
1.28116e-05
0.186483
0.0394127
1.58344e-05
0.0240394
0.0183426
1.9359e-08
1.98982e-05
0.000134647
0.000419552
0.000326347
0.0969987
0.155242
8.23723e-05
0.116896
0.000112516
7.555e-05
8.00213e-06
5.16684e-05
0.154304
3.85587e-07
6.15964e-05
1.182e-06
0.0826331
3.37694e-05
2.67542e-05
2.04518e-05
0.00555548
0.00569174
0.00631613
0.00361359
0.000323387
0.00303748
0.00011405
2.77926e-06
0.00712293
4.73985e-06
4.94857e-06
8.1768e-05
2.08202e-07
0.000103179
6.50694e-05
3.03207e-06
4.51372e-06
5.88208e-05
8.89021e-05
0.000222452
2.01966e-06
2.03346e-06
0.000269342
0.0261162
0.000180597
0.0796155
0.108442
0.10179
4.69997e-05
6.1132e-05
0.0947416
0.00211149
0.00334746
0.0723621
5.06359e-05
3.33435e-06
5.24196e-06
7.60403e-09
0.00189661
0.0550738
0.0604107
6.38509e-06
1.95739e-08
0.0512281
7.23296e-06
0.0422263
0.0906444
0.0281641
0.0342196
0.208873
0.024136
6.93981e-05
0.000129054
0.00282028
8.35659e-05
0.000177348
5.6265e-10
1.08123e-09
6.86147e-10
0.000632637
7.99137e-05
0.000201901
5.86011e-05
0.000219255
0.177542
0.176616
0.183552
0.00593938
0.00614411
0.0049307
0.175952
9.45113e-10
0.100757
0.0635166
0.0238172
0.0599083
7.88456e-06
6.58522e-08
0.052301
0.0482035
2.89617e-05
0.0697178
0.048791
0.0387683
0.098141
0.00238501
0.000890102
0.0115769
0.0130475
1.91689e-05
0.124834
0.0184644
0.12454
0.00993637
0.0759901
0.0750677
0.00360477
0.00337182
0.0016581
0.00127934
0.00110297
0.0821606
0.0805605
0.00192679
0.00172523
0.00154101
0.00818771
0.00197302
0.0013443
0.115522
0.108582
0.0981464
0.0040399
0.00363861
0.110388
0.00286842
0.109408
0.123401
0.123543
0.00798562
0.00726868
0.00584174
0.0011962
0.000755029
0.145623
0.013609
0.0150928
0.0111854
7.76171e-05
0.013685
0.0100572
0.0100873
0.00040544
0.0908803
0.0327283
0.0907015
0.216135
0.000406449
0.013059
0.0125732
0.0104637
3.47284e-05
7.83409e-05
4.58966e-05
5.26907e-05
0.00142307
0.0011864
2.87683e-07
0.000114351
0.00135832
3.40194e-06
6.65011e-06
0.00110754
1.04538e-05
3.57706e-07
0.0104265
0.00945913
0.029384
0.0274446
0.0254165
0.0662354
0.060934
0.0559457
0.00738833
6.48917e-06
0.00899213
0.00723352
0.171378
0.172966
0.0182941
0.0278701
1.52056e-08
7.60275e-06
5.19131e-08
0.173826
0.181524
0.000193249
0.00695987
0.00563249
2.71297e-05
0.00882711
0.00179981
2.00675e-05
0.0147829
0.00130436
0.000803159
3.08509e-06
0.000819019
6.63372e-07
1.25569e-05
0.000609449
0.0039732
0.17191
6.85452e-06
0.135349
0.167803
0.00886354
0.00456367
0.159434
1.73038e-07
0.0256273
0.00239688
0.0221847
0.0229094
0.0664391
0.0428212
0.0589412
0.0448133
5.64211e-06
0.000199999
1.46258e-05
2.53823e-05
1.32593e-05
2.68147e-05
0.00213739
0.12469
3.80333e-08
0.0243479
7.28274e-08
0.00282709
0.0926133
0.0875632
0.0918198
0.0401177
0.0374718
8.68773e-06
0.00210688
0.00227263
0.00053409
0.205001
0.198759
4.71009e-10
0.00130341
0.0011252
0.00137792
0.000277428
0.00139751
0.0382203
1.84832e-07
0.0954518
0.0864272
0.0795589
0.126482
0.0769451
2.28239e-05
0.105517
0.0601603
0.0872394
0.0589034
0.00036226
0.0516734
2.1124e-07
8.93539e-05
4.74362e-08
7.58893e-05
0.00104009
0.076466
0.000390127
0.00113957
0.0365669
0.000888636
6.71938e-10
1.24214e-09
6.04125e-10
0.00414842
0.000512264
3.2948e-09
0.0862075
4.05426e-10
0.0835773
0.000514781
0.000457561
1.44373e-10
0.00188293
0.0379092
0.0385626
0.00370922
3.20855e-10
1.54157e-10
0.21868
0.218735
0.213938
0.00132176
0.0693675
1.18417e-08
4.03712e-09
0.0891078
0.0859695
0.0335534
0.0708878
0.000454917
4.07065e-06
4.68706e-09
0.00133188
0.000243124
0.00140769
0.000898657
0.141187
0.00498365
0.00249204
0.127232
0.00434187
0.00357334
3.59903e-09
0.000727858
0.0190738
0.000903721
0.000931276
0.00188279
4.71942e-05
0.000403675
0.00116661
0.000536657
0.00104578
0.00635082
0.0016742
0.0052715
0.00462926
0.000255948
2.48959e-07
0.0405633
0.04409
0.0420223
0.0754753
0.0146795
0.0742814
0.00862644
0.00467774
0.0697419
0.0293299
0.00022805
0.0438552
0.00140529
0.0415937
0.000788107
3.51261e-09
0.00166621
2.10577e-06
0.00160248
0.000711439
0.00131555
0.00447419
0.00927954
0.0545569
0.14005
3.20492e-07
1.53188e-07
0.000219974
0.000630828
0.000552373
0
9.88916e-06
1.02358e-06
1.30841e-09
2.54402e-08
0.14494
0.00229615
2.14449e-07
1.9007e-10
0.00355182
0.000251733
0
0.0812572
0.00226329
0.000165348
2.10837e-06
0.000203047
0.000112421
0.0324104
0.000192731
4.84994e-07
0.00407536
0.00876236
0.00180421
0.00202082
0.0111535
0.0115533
0.000292326
0.000579777
0.0078515
2.69704e-09
0.171318
0.0240509
0.0152932
0.0100646
0.0242323
0.000338395
0.0352439
2.46177e-09
0.0311318
0.0037324
0.0139917
0.000353006
0.0447895
0.000239592
0.0357826
0.0347026
0.000422278
0.000226541
1.52854e-06
0.00100381
0.0500257
0.0260627
0.0729959
2.2181e-06
0.00385651
0.207623
0.0470525
0.144819
0.00341145
0.0036536
0.00891974
0.0138048
0.00755802
0.179678
0.000449028
3.62522e-07
6.44864e-06
1.58157e-06
2.30928e-07
1.14936e-06
0.000564912
4.44876e-07
0.224348
0.0308067
0.0559987
1.5855e-05
0.00220686
0.011549
0.11708
0.00513801
5.48779e-06
5.70836e-07
3.07061e-05
0.066438
0
3.57035e-09
3.02742e-09
0.00199485
3.53148e-05
0.0324239
3.12329e-05
0.00214975
0.00105666
0.00309991
0.00226315
0.0304031
4.13187e-07
0.00386452
9.98666e-06
0.000201624
0.000847164
0.00115237
6.96172e-06
0.00158027
0.010513
0.193491
0.0494451
1.15796e-05
0.0305041
0.00110184
0.000289972
0.000276186
0.00124749
0.00216009
8.96024e-06
5.03792e-05
0
0.00373711
1.61334e-05
0
0.0395228
0.00505342
0.000349156
2.10187e-05
2.70176e-07
6.48447e-06
0
0.000467469
0.0718769
0.00256229
2.23043e-09
0.0101963
2.61695e-06
6.44789e-06
0.0441095
0.00565461
0.00939903
0
2.85079e-05
0.000233657
0.114531
0.0143077
0.00913812
4.96108e-06
0.00889936
0.0491402
7.00092e-05
0.00269473
0.0179596
0.0157834
0.00515625
6.25788e-06
0.138048
0.00855355
6.77872e-10
0.0324156
1.90712e-08
0.00075168
0.000236387
9.1226e-10
0.00262703
9.53978e-10
0.175337
0.123339
0.0149466
1.15235e-06
0.214711
1.52261e-05
0.123626
0.00245391
0.00025461
0.000644061
0.000872711
0.00965689
3.75129e-06
0.210968
6.6745e-06
3.84136e-05
0.0895813
0.128478
0.0570295
0.00148993
0.00968921
0.00178695
0.000746699
0.0503357
1.75257e-05
3.78438e-06
2.36263e-05
3.78146e-06
0.000106242
1.01215e-06
3.19991e-05
6.52223e-07
0.00570117
0.000803904
0.053727
0.0654707
0.00172369
7.85751e-05
2.91133e-05
0.000578953
0.000145879
0.00265247
0.00572526
0.00650587
0.0238822
0.0562896
0.00177829
0.106787
0.211041
0.0118036
0.0538684
0.128167
0.00168202
0.000173662
0.222144
0.0408126
0.00793872
0.0441231
1.7713e-09
0.220373
0.00782359
2.84833e-08
0.0530424
2.76653e-05
0.000226955
3.45542e-05
1.22272e-08
0.00219004
0.00700501
0.00583449
0.000306856
0.00436395
0.0283651
0.045434
0
0.00928512
0.0341318
0.0860499
0.000834483
0.00710818
1.59859e-08
0.0154783
2.78264e-05
2.19641e-09
0.0423495
0
0.000404684
0.166601
4.65182e-05
0.0701727
0
0.167255
1.23712e-05
5.32097e-07
0.186048
3.85507e-06
7.75288e-10
0.00171822
0.00770505
0.0548334
2.20287e-06
8.55999e-08
3.01349e-05
0.000211113
0.000991748
0.020025
3.60164e-08
3.91362e-05
0.0391052
0.0489715
1.70555e-05
0.018248
0.125685
0.0309547
0.0261338
0.0011217
0.000904083
0.042294
2.17909e-05
0.105962
0.0487223
9.27398e-05
5.82283e-05
0.0125185
9.67541e-05
0.103396
0.0256895
0.0354294
0.00189318
0.000948572
0.00207334
0.0193775
0.0281357
7.0533e-06
0.000321488
0.0640653
4.97748e-05
0.000621953
0.00911231
1.29259e-06
0.0393462
1.00956e-10
4.1947e-05
0.0360869
0
0.00427176
7.90431e-06
0.0765338
0.213915
6.07229e-05
0.00311972
0.000135804
0.0747572
2.70877e-05
1.06832e-05
0.0083719
0.000377141
6.59814e-08
3.32111e-05
0.0047947
0.03863
0.117117
1.20877e-09
1.44052e-06
0.16548
1.93866e-08
1.50701e-10
0.0213748
2.51506e-07
6.67914e-05
2.01315e-06
4.25057e-05
0.0971797
0.178528
1.70405e-08
1.63829e-09
0.161323
1.24101e-10
2.27492e-10
2.85974e-06
9.65861e-10
0.000976503
1.42844e-08
1.90345e-10
0.000839086
0.0673746
0.0840843
0.00179253
5.64385e-08
7.92395e-10
0.176301
0.173176
0.0271417
0.0808257
0.0717106
0.0321434
1.07884e-07
1.2113e-05
0.00286432
0.000631314
4.81141e-07
3.43434e-07
2.50663e-06
0.00369729
0.0253441
0.00718229
0.0137845
1.66102e-07
4.27142e-05
3.01134e-07
5.64707e-06
6.66723e-08
0.0359196
0.000613087
1.24066e-08
0.00440103
0.0105482
0.00831801
0.0196876
8.02056e-05
0.00973771
0.00597652
0
0.0064258
7.20794e-08
0.00861442
8.2847e-10
0.00174608
0.00800069
0.00363234
3.97207e-05
0.00830667
0.000461115
0
0.136128
0.0316005
1.33461e-05
0.186067
1.96506e-06
0.00230536
0.0244326
0.00297421
0.00671497
0.00467045
0.00405562
0.0514561
0.000370832
0.0624043
0.00238227
0
0
0.000223904
0.0683525
0.12346
0.116639
0.0940276
0.00725185
0.00274911
1.86095e-09
0.000604569
0.00117416
0.0588062
0
0.0104815
0.0150324
9.04873e-05
0.000179627
0.130158
0.00254086
0.00351261
4.41568e-05
3.65508e-10
0.0455542
0.0051453
0.00401692
0.177966
1.80491e-06
0.000289798
5.32058e-05
8.62328e-05
5.7868e-09
0.00208824
0.026169
0.000984015
0.0154846
6.92906e-06
5.28301e-08
2.06e-06
0.000878463
3.38098e-05
0.0141738
0.0173321
0.0179196
0.00545559
0.0180262
6.88887e-09
0.000141287
0.00648817
0
0.00021765
0.00483261
0.00556884
0.000475689
1.52463e-06
0.00430481
0.0774603
0.146945
0.000156468
2.57396e-06
3.50285e-05
1.91586e-05
0.00926112
0.00286513
5.79215e-07
0.00540162
0.165759
0.0479418
1.70549e-05
0.134293
0.133286
4.0071e-10
0.0011755
0.0326747
0.0384171
1.68336e-07
0.0131254
0.12534
0.00226618
0.00475386
1.31069e-05
1.18603e-05
0.000146843
0.000150022
0.0290683
0.00455294
0.00327932
0.00428595
0.0030556
7.97401e-05
0.0391681
0.12238
0.124896
0.0501147
0.00286089
0.00021128
0.130468
0.211916
0.0172067
3.8401e-05
2.04991e-08
0.0116104
3.59123e-05
0.0130563
2.0805e-05
3.34608e-05
0.00540335
2.63356e-05
0.000288425
0.083362
4.99063e-09
0.0359356
0.0354058
0.155443
0.128951
0.0412532
0.169792
3.16534e-07
0.00111934
5.30319e-07
0.00347729
0.142714
2.28136e-06
0.0573592
0.0170125
0.0135206
6.00744e-07
0.000159249
0.0149139
0.000799089
0.0731416
3.15957e-06
3.34477e-09
2.32906e-05
0.00333554
8.0486e-08
8.99985e-05
0.025927
0.00349017
0.00596453
0.00748253
0.0044636
0.00323199
2.59827e-05
0.000127376
0.0897847
0.000496929
0.0153594
3.35214e-05
0.0852381
0.00111693
0.00901563
0.00392373
0.134982
0.0289232
0.00334082
0.000374032
0.00432436
1.75018e-05
0.0844923
0.00296743
0.0874082
1.1807e-08
9.5161e-05
0.204604
4.72374e-06
1.13625e-05
3.63931e-08
0.00217351
0.0132568
0.0780018
4.87341e-05
0.0553593
0.0305406
0.000145416
0.0332912
0.0426225
0.000352736
5.32569e-05
0.000543579
0.032852
0.0901195
4.50806e-05
1.13521e-07
4.77623e-05
0.000398625
2.76504e-05
0.0226403
0.000125617
4.66687e-05
0.000171851
0.000722446
0.0010291
0.000945236
4.66254e-06
0.0349657
0.00129928
4.5038e-10
0
0.00285745
0.0502231
0.0013393
9.51734e-09
0.00144268
0.00150423
0.000474071
8.68224e-06
0.000320786
0.0178522
0.00516564
0.000971231
0.00203023
5.12336e-05
0.000242241
0.000621466
0
0.000585433
0
1.9299e-09
0.129115
0.0231963
0.00489436
5.25218e-10
0.000346811
0.00232098
0.00274345
0.00578682
1.05197e-06
0.00115489
0.00225494
0.0267784
0.117284
1.33059e-05
0.00750226
0.00932384
2.68594e-06
0.00793563
5.95294e-05
2.58716e-05
0.0070707
7.37987e-05
0.0122599
0.000249716
0.000194398
0.00300984
0.000488815
0.000811546
1.33959e-06
0.00276102
8.56317e-05
0.000608741
0.085907
0.0304926
3.9785e-05
0.00268174
0.115472
0.217006
0.000854605
0.00139922
0.00656965
0.00135239
0.111594
0.0872324
0.000101694
0.139282
0.115052
0.167407
0.0637249
5.86359e-05
9.13478e-06
0.00512294
0.0391151
0.0562077
0.0386235
0.0477273
0.000975929
3.33251e-05
0.0181568
0.0676921
0.158377
0.000516931
0.00152327
0.00183252
7.16458e-08
0.000260145
0.0289723
0.0674139
4.42014e-10
0.110194
0.000825457
0.00171086
0.00352413
0.00406209
0.000286791
8.18918e-07
8.56333e-05
0.00186684
0.0247326
0.00207868
0.00141927
0.0102372
0.00325841
0.0217184
0.00503742
3.41857e-05
0.000108625
8.19553e-08
0.0259592
0.0219037
0.000115187
2.1833e-05
0.0042177
0.00551825
7.37011e-05
3.51594e-05
0.0176733
0.0281783
1.80766e-05
0.0937241
0.14714
9.98931e-07
0.194689
0.0285139
0.0250921
0.00010403
2.15163e-07
4.21531e-05
0.0405076
0.0274757
0.021354
0.0436397
0.000394268
0.0026906
0.205119
6.22055e-05
5.36737e-05
0.0242914
0.0231821
4.74684e-05
5.45708e-05
0.00692716
0.0167201
4.26181e-05
3.49581e-05
5.84589e-06
2.4316e-07
3.24761e-06
2.04133e-05
8.77727e-05
0.00723034
0.00501425
0.0918198
0.217945
0.047467
0.051611
2.41732e-06
6.07265e-05
0.039504
4.70375e-07
9.75223e-07
7.27545e-06
0.0456346
4.07123e-07
0.0311673
0.000187461
0
0
0.137383
3.72026e-05
0
0.00387027
0.00425576
0.000108459
0.080814
0.00253356
0
0.0244303
0.00397417
0.00574879
0.00011961
0.0012045
0.018648
0.000436236
0
0
0.0941624
0.00518837
0.000662349
0.000179075
0.0416172
2.08401e-10
4.07593e-06
8.50679e-10
0.0962035
3.03086e-06
0.000449421
0.105926
0.183624
1.32122e-09
2.35575e-10
0.00329512
3.96474e-05
0.000215196
0.00286446
0.00115084
1.43773e-06
0.222854
0.0140875
0.220942
0.0147759
0.224351
0.000123685
0.00115952
0.0196009
0.221284
3.45213e-05
0.000340353
0.00206497
0.00515838
0.0014224
0.00209225
0.00747888
0.000308293
3.02e-05
0.0627201
0.00142976
0.00122229
1.66737e-06
1.45069e-06
0.00707723
5.05711e-06
1.5456e-08
0.0359771
0.0392584
0.00223301
1.75439e-05
0.00493192
0.0207597
0.160392
0.0353683
0.127513
1.72696e-09
3.29198e-09
4.68757e-05
1.0073e-08
0.00547218
6.35474e-06
0.000807284
1.72934e-05
0.000449948
0.00270336
0.00823838
4.50889e-05
6.76695e-05
5.98394e-05
8.29196e-05
0.0685509
3.21375e-05
0.0571909
0.0306185
0.000687098
1.21214e-05
0.00397719
3.67749e-05
0.0763733
4.85842e-05
1.95666e-05
4.06828e-05
6.50399e-05
0.0206085
5.49121e-05
0.154267
0.00111377
0.145991
0.00297767
2.06839e-05
0.00135554
0.0985922