# vtk DataFile Version 2.0
Unstructured Grid by M++
ASCII
DATASET UNSTRUCTURED_GRID
POINTS 4072 float
  0.609375   0.843750 0
  0.562500   0.843750 0
  0.531250   0.843750 0
  0.875000   0.828125 0
  0.984375   0.828125 0
  0.953125   0.828125 0
  0.937500   0.828125 0
  0.843750   0.828125 0
  0.812500   0.828125 0
  0.781250   0.828125 0
  0.765625   0.828125 0
  0.734375   0.828125 0
  0.703125   0.828125 0
  0.671875   0.828125 0
  0.640625   0.828125 0
  0.609375   0.828125 0
  0.593750   0.828125 0
  0.562500   0.828125 0
  0.546875   0.828125 0
  0.531250   0.828125 0
  0.515625   0.828125 0
  0.968750   0.812500 0
  0.937500   0.812500 0
  0.921875   0.812500 0
  0.890625   0.812500 0
  0.859375   0.812500 0
  0.828125   0.812500 0
  0.796875   0.812500 0
  0.765625   0.812500 0
  0.750000   0.812500 0
  0.718750   0.812500 0
  0.687500   0.812500 0
  0.656250   0.812500 0
  0.625000   0.812500 0
  0.593750   0.812500 0
  0.578125   0.812500 0
  0.546875   0.812500 0
  0.531250   0.812500 0
  0.515625   0.812500 0
  0.984375   0.796875 0
  0.562500   0.015625 0
  0.953125   0.796875 0
  0.921875   0.796875 0
  0.906250   0.796875 0
  0.875000   0.796875 0
  0.843750   0.796875 0
  0.812500   0.796875 0
  0.781250   0.796875 0
  0.750000   0.796875 0
  0.734375   0.796875 0
  0.703125   0.796875 0
  0.671875   0.796875 0
  0.640625   0.796875 0
  0.609375   0.796875 0
  0.578125   0.796875 0
  0.562500   0.796875 0
  0.531250   0.796875 0
  0.515625   0.796875 0
  0.968750   0.781250 0
  0.546875   0.000000 0
  0.937500   0.781250 0
  0.906250   0.781250 0
  0.890625   0.781250 0
  0.859375   0.781250 0
  0.828125   0.781250 0
  0.796875   0.781250 0
  0.765625   0.781250 0
  0.734375   0.781250 0
  0.718750   0.781250 0
  0.687500   0.781250 0
  0.656250   0.781250 0
  0.625000   0.781250 0
  0.593750   0.781250 0
  0.562500   0.781250 0
  0.546875   0.781250 0
  0.515625   0.781250 0
  0.984375   0.765625 0
  0.953125   0.765625 0
  0.921875   0.765625 0
  0.890625   0.765625 0
  0.875000   0.765625 0
  0.843750   0.765625 0
  0.812500   0.765625 0
  0.781250   0.765625 0
  0.750000   0.765625 0
  0.718750   0.765625 0
  0.703125   0.765625 0
  0.671875   0.765625 0
  0.640625   0.765625 0
  0.609375   0.765625 0
  0.578125   0.765625 0
  0.593750   0.750000 0
  0.562500   0.765625 0
  0.546875   0.765625 0
  0.531250   0.765625 0
  0.562500   0.750000 0
  0.968750   0.750000 0
  0.937500   0.750000 0
  0.906250   0.750000 0
  0.875000   0.750000 0
  0.859375   0.750000 0
  0.828125   0.750000 0
  0.796875   0.750000 0
  0.765625   0.750000 0
  0.734375   0.750000 0
  0.703125   0.750000 0
  0.687500   0.750000 0
  0.671875   0.750000 0
  0.656250   0.750000 0
  0.625000   0.750000 0
  0.546875   0.750000 0
  0.531250   0.750000 0
  0.515625   0.750000 0
  0.562500   0.734375 0
  0.984375   0.734375 0
  0.953125   0.734375 0
  0.921875   0.734375 0
  0.890625   0.734375 0
  0.859375   0.734375 0
  0.843750   0.734375 0
  0.812500   0.734375 0
  0.781250   0.734375 0
  0.750000   0.734375 0
  0.718750   0.734375 0
  0.687500   0.734375 0
  0.671875   0.734375 0
  0.656250   0.734375 0
  0.640625   0.734375 0
  0.546875   0.734375 0
  0.531250   0.734375 0
  0.515625   0.734375 0
  0.562500   0.718750 0
  0.968750   0.718750 0
  0.937500   0.718750 0
  0.906250   0.718750 0
  0.875000   0.718750 0
  0.843750   0.718750 0
  0.796875   0.718750 0
  0.765625   0.718750 0
  0.734375   0.718750 0
  0.703125   0.718750 0
  0.687500   0.718750 0
  0.671875   0.718750 0
  0.656250   0.718750 0
  0.625000   0.718750 0
  0.546875   0.718750 0
  0.531250   0.718750 0
  0.515625   0.718750 0
  0.562500   0.703125 0
  0.953125   0.703125 0
  0.921875   0.703125 0
  0.890625   0.703125 0
  0.859375   0.703125 0
  0.828125   0.703125 0
  0.781250   0.703125 0
  0.750000   0.703125 0
  0.718750   0.703125 0
  0.687500   0.703125 0
  0.656250   0.703125 0
  0.546875   0.703125 0
  0.531250   0.703125 0
  0.515625   0.703125 0
  0.984375   0.687500 0
  0.937500   0.687500 0
  0.921875   0.687500 0
  0.906250   0.687500 0
  0.875000   0.687500 0
  0.843750   0.687500 0
  0.812500   0.687500 0
  0.765625   0.687500 0
  0.734375   0.687500 0
  0.703125   0.687500 0
  0.671875   0.687500 0
  0.640625   0.687500 0
  0.593750   0.687500 0
  0.562500   0.687500 0
  0.546875   0.687500 0
  0.531250   0.687500 0
  0.515625   0.687500 0
  0.968750   0.671875 0
  0.937500   0.671875 0
  0.921875   0.671875 0
  0.906250   0.671875 0
  0.890625   0.671875 0
  0.859375   0.671875 0
  0.828125   0.671875 0
  0.796875   0.671875 0
  0.765625   0.671875 0
  0.750000   0.671875 0
  0.718750   0.671875 0
  0.687500   0.671875 0
  0.656250   0.671875 0
  0.625000   0.671875 0
  0.593750   0.671875 0
  0.578125   0.671875 0
  0.546875   0.671875 0
  0.531250   0.671875 0
  0.515625   0.671875 0
  0.984375   0.656250 0
  0.953125   0.656250 0
  0.937500   0.656250 0
  0.921875   0.656250 0
  0.906250   0.656250 0
  0.875000   0.656250 0
  0.843750   0.656250 0
  0.812500   0.656250 0
  0.781250   0.656250 0
  0.750000   0.656250 0
  0.734375   0.656250 0
  0.703125   0.656250 0
  0.671875   0.656250 0
  0.640625   0.656250 0
  0.609375   0.656250 0
  0.578125   0.656250 0
  0.562500   0.656250 0
  0.531250   0.656250 0
  0.515625   0.656250 0
  0.968750   0.640625 0
  0.937500   0.640625 0
  0.906250   0.640625 0
  0.890625   0.640625 0
  0.859375   0.640625 0
  0.828125   0.640625 0
  0.796875   0.640625 0
  0.765625   0.640625 0
  0.734375   0.640625 0
  0.718750   0.640625 0
  0.687500   0.640625 0
  0.656250   0.640625 0
  0.625000   0.640625 0
  0.593750   0.640625 0
  0.562500   0.640625 0
  0.546875   0.640625 0
  0.515625   0.640625 0
  0.984375   0.625000 0
  0.953125   0.625000 0
  0.921875   0.625000 0
  0.890625   0.625000 0
  0.875000   0.625000 0
  0.843750   0.625000 0
  0.812500   0.625000 0
  0.781250   0.625000 0
  0.750000   0.625000 0
  0.734375   0.625000 0
  0.718750   0.625000 0
  0.703125   0.625000 0
  0.671875   0.625000 0
  0.640625   0.625000 0
  0.609375   0.625000 0
  0.578125   0.625000 0
  0.562500   0.625000 0
  0.546875   0.625000 0
  0.531250   0.625000 0
  0.968750   0.609375 0
  0.937500   0.609375 0
  0.906250   0.609375 0
  0.875000   0.609375 0
  0.859375   0.609375 0
  0.828125   0.609375 0
  0.796875   0.609375 0
  0.765625   0.609375 0
  0.750000   0.609375 0
  0.734375   0.609375 0
  0.718750   0.609375 0
  0.703125   0.609375 0
  0.687500   0.609375 0
  0.656250   0.609375 0
  0.625000   0.609375 0
  0.593750   0.609375 0
  0.562500   0.609375 0
  0.546875   0.609375 0
  0.531250   0.609375 0
  0.515625   0.609375 0
  0.984375   0.593750 0
  0.953125   0.593750 0
  0.921875   0.593750 0
  0.890625   0.593750 0
  0.859375   0.593750 0
  0.843750   0.593750 0
  0.812500   0.593750 0
  0.781250   0.593750 0
  0.750000   0.593750 0
  0.734375   0.593750 0
  0.718750   0.593750 0
  0.687500   0.593750 0
  0.671875   0.593750 0
  0.640625   0.593750 0
  0.609375   0.593750 0
  0.578125   0.593750 0
  0.562500   0.593750 0
  0.546875   0.593750 0
  0.531250   0.593750 0
  0.515625   0.593750 0
  0.968750   0.578125 0
  0.937500   0.578125 0
  0.906250   0.578125 0
  0.875000   0.578125 0
  0.890625   0.562500 0
  0.843750   0.578125 0
  0.828125   0.578125 0
  0.796875   0.578125 0
  0.765625   0.578125 0
  0.734375   0.578125 0
  0.703125   0.578125 0
  0.671875   0.578125 0
  0.656250   0.578125 0
  0.656250   0.562500 0
  0.625000   0.578125 0
  0.640625   0.562500 0
  0.593750   0.578125 0
  0.562500   0.578125 0
  0.546875   0.578125 0
  0.531250   0.578125 0
  0.515625   0.578125 0
  0.859375   0.562500 0
  0.828125   0.562500 0
  0.781250   0.562500 0
  0.750000   0.562500 0
  0.718750   0.562500 0
  0.687500   0.562500 0
  0.609375   0.562500 0
  0.578125   0.562500 0
  0.562500   0.562500 0
  0.546875   0.562500 0
  0.531250   0.562500 0
  0.515625   0.562500 0
  1.000000   0.812500 0
  0.578125   0.031250 0
  0.875000   0.546875 0
  0.625000   0.546875 0
  0.218750   0.000000 0
  0.640625   0.781250 0
  0.828125   0.093750 0
  0.031250   0.531250 0
  0.296875   0.328125 0
  0.296875   0.312500 0
  0.281250   0.312500 0
  0.765625   0.312500 0
  0.031250   0.859375 0
  0.093750   0.265625 0
  0.109375   0.250000 0
  0.187500   0.671875 0
  0.421875   0.640625 0
  0.031250   0.062500 0
  0.140625   0.125000 0
  0.562500   0.906250 0
  0.125000   0.437500 0
  0.203125   0.937500 0
  0.125000   0.421875 0
  0.140625   0.406250 0
  0.093750   0.437500 0
  0.109375   0.421875 0
  0.093750   0.421875 0
  0.109375   0.406250 0
  0.328125   0.125000 0
  0.750000   0.906250 0
  0.328125   0.109375 0
  0.750000   0.890625 0
  0.312500   0.125000 0
  0.734375   0.906250 0
  0.281250   0.343750 0
  0.265625   0.359375 0
  0.500000   0.796875 0
  0.078125   0.015625 0
  0.062500   0.015625 0
  0.484375   0.796875 0
  0.484375   0.781250 0
  0.062500   0.000000 0
  0.015625   0.250000 0
  0.062500   0.046875 0
  0.484375   0.828125 0
  0.484375   0.812500 0
  0.062500   0.031250 0
  0.281250   0.671875 0
  0.062500   0.234375 0
  0.328125   0.765625 0
  0.312500   0.750000 0
  0.015625   0.671875 0
  0.781250   0.187500 0
  0.015625   0.265625 0
  0.453125   0.250000 0
  0.453125   0.234375 0
  0.031250   0.265625 0
  0.046875   0.250000 0
  0.093750   0.015625 0
  0.265625   0.656250 0
  0.734375   0.281250 0
  0.156250   0.015625 0
  0.062500   0.265625 0
  0.046875   0.281250 0
  0.031250   0.281250 0
  0.343750   0.781250 0
  0.328125   0.781250 0
  0.265625   0.687500 0
  0.265625   0.703125 0
  0.156250   0.109375 0
  0.578125   0.890625 0
  0.484375   0.984375 0
  0.062500   0.203125 0
  0.328125   0.718750 0
  0.343750   0.734375 0
  0.343750   0.750000 0
  0.453125   0.500000 0
  0.437500   0.500000 0
  0.234375   0.093750 0
  0.171875   0.375000 0
  0.437500   0.531250 0
  0.468750   0.546875 0
  0.453125   0.546875 0
  0.187500   0.015625 0
  0.187500   0.000000 0
  0.609375   0.781250 0
[...]
CELL_DATA 7648
SCALARS scalar_value float 1
LOOKUP_TABLE default
0.0881582
0.0768654
0.0626861
0.0842472
1.35381e-10
0
0
0
0.0743603
0.0609439
0.0572855
2.81171e-10
1.08931e-10
2.28558e-10
0.238942
0.246535
0.232743
0.26319
0.0665211
0.0640631
0.0708464
0.0576024
5.83088e-05
0.00921506
0.00975101
0.0132023
0.00797838
0.00920756
0.00751178
2.42579e-05
2.60752e-05
3.75613e-05
1.4577e-05
5.59397e-05
5.81577e-05
8.03763e-05
3.34025e-05
8.86672e-06
9.6182e-06
1.36057e-05
0.000711967
0.00143384
0.00278148
0.00171688
0.00131221
3.25553e-05
2.25024e-05
1.99163e-05
0.00103534
4.84727e-05
3.23587e-07
0.00155532
0.00241283
0.00203721
5.38358e-06
0.0120082
2.78049e-06
3.22231e-06
0.00425202
0.00580638
0.00787431
0.0241547
0.000811207
4.14412e-07
5.94879e-07
1.64826e-07
1.84692e-07
0.00271531
0.00557281
1.16512e-05
0.234073
0
0.0128892
0.0113665
4.45512e-06
7.37949e-08
0.0226671
1.39317e-07
1.39658e-06
0.00920893
0.00758154
9.50465e-10
1.15073e-05
9.7108e-08
2.19527e-06
3.43535e-05
0.216801
0.209981
2.62968e-08
0
0.000125831
9.02474e-08
0.0717001
0.0799457
3.37476e-08
0.00548495
8.9478e-05
0.00978225
0.000111136
6.52004e-05
0.00966864
0.00103862
0.00856401
0.00665924
0.00244082
0.00433886
0.133585
2.48355e-06
1.17537e-06
0.000376735
0.00536603
2.21683e-05
1.4612e-05
5.94397e-08
0.0973092
4.39958e-08
0.10568
0.086314
0.00121551
0
0
0
3.47139e-08
0.00421101
3.60936e-09
6.07666e-09
3.09681e-09
0.00310014
0.00184206
0.00352231
2.6476e-08
0.000299636
3.95094e-08
5.35098e-09
0.269322
1.75249e-09
0.0248955
0.00261451
0.000138087
2.24267e-05
2.23607e-06
1.60927e-05
1.50613e-05
6.21617e-05
1.24367e-05
3.77205e-05
0
0.000952094
1.34956e-07
1.21866e-07
7.90554e-08
0.016599
0.02012
0.0244503
0
0
5.03838e-09
9.27059e-05
5.43793e-05
0.00311021
0
0.0702032
0.0779472
0.0190424
8.14387e-05
4.31518e-05
4.26189e-05
7.01641e-05
0.0164508
0
5.32202e-08
0.000271161
6.27453e-06
0
1.81985e-05
0.000192975
8.6156e-10
0.000248572
0.0236113
0.000233237
0.000128619
0.0188453
1.37923e-06
0.0137712
5.64543e-09
0.00723793
6.89545e-07
1.49557e-09
3.46788e-09
0.00377545
2.20096e-09
0.00184168
8.23528e-07
5.38066e-06
0.00128649
5.4166e-07
5.51587e-07
3.73317e-07
2.28609e-07
3.09405e-07
2.74951e-07
2.34802e-07
0.0225929
3.18417e-07
3.35307e-07
0.00499616
0.00631853
1.09187e-09
4.53385e-10
8.25137e-10
0.00249691
0.00360193
0.00491938
0.00334586
0.000655344
0.0976345
0
0
4.9721e-10
0.000571339
0.000344466
0.000703555
0.000424538
0.000281732
0.000880244
4.57446e-05
0.000478295
0.00035544
0.00117156
0.00143041
1.52245e-08
3.14046e-08
0.00159056
0.0474268
3.14484e-08
1.89565e-08
1.43304e-08
1.39967e-08
0.000906507
1.90947e-09
0.000983747
0
0.232672
5.59106e-08
3.70461e-08
0.00111559
0.161067
0.00172058
0.00112456
4.79896e-05
0.00232485
1.67458e-06
0.00505647
0.00564113
0.00437928
0.0247963
0.0866786
6.64813e-08
2.88077e-08
0.0537674
0.0602561
0.056554
6.40197e-05
0.00246899
0.000447594
0.00145714
9.51238e-05
0.000190577
4.4782e-05
0.00336865
1.10945e-05
0.0173631
1.11177e-10
0
0
0.000248308
4.41239e-10
5.53491e-07
0.206112
0.229574
0.00072843
0.0562185
1.09139e-06
0
0.223073
5.68012e-07
0
0.000261719
7.97738e-07
8.14438e-05
1.93365e-06
3.15892e-10
2.41204e-05
2.5416e-07
0.10637
0.0980386
2.30092e-07
0.100166
1.41482e-08
1.9756e-06
0.00180722
0.27503
0
1.97781e-07
0.0416849
0.0355661
0.0321527
0.0636277
1.7359e-06
0.163387
0.155474
0.000107784
5.77534e-10
2.23808e-06
5.35714e-09
0.00879017
0.102129
8.60186e-09
0.0927665
0.0113994
0.0835025
0.0309766
0.0759867
0.00110685
0.000363165
0.00721301
0.00241234
0.000925277
0.000600182
0.00443264
0.000174314
0.0144242
4.86116e-05
0.113186
0
0.125229
0
3.42856e-09
3.1691e-09
0.00100361
0.00221167
3.82553e-09
2.35774e-09
1.56085e-09
0
0.20203
0.168741
0
5.58312e-07
2.90807e-07
4.77578e-07
3.70875e-07
0.0684212
7.26919e-06
0.000109858
2.3797e-05
0.00033637
0
0
0
0.0154174
0.017296
0.0235462
0.247879
0.000485068
2.90053e-08
9.82012e-05
8.88188e-07
1.45967e-05
1.43492e-05
0.000693248
0.26822
0.000117211
0.00455666
6.14371e-05
0.00183127
0
1.45524e-05
7.10426e-06
0.0335735
0.10331
1.07706e-05
0.000929476
1.89612e-05
0.000803295
0.0370535
0.000657712
0.254959
0.00110983
4.16926e-08
1.58843e-08
0.205296
5.38505e-08
1.95498e-08
3.2341e-07
2.82809e-05
0.000812026
2.13509e-09
6.27517e-10
0.223902
7.37149e-06
1.16885e-06
0.000300374
1.16345e-05
0.000157969
0.233753
0.000422163
0.0111317
2.05604e-07
1.52364e-05
0
2.43614e-06
3.19118e-06
0
0.187077
2.63626e-06
3.71823e-07
1.75678e-06
0.000196785
0.228342
0.0162424
0.235597
0
0.0137035
0.0597921
0.0543336
0
0.0551409
4.83821e-06
0.00497209
0.000668216
0.00131628
0.00395728
7.86048e-05
0.00431117
0.00273283
0.00118433
5.93456e-09
5.83349e-08
0.00223122
0.0106898
0.00351082
0.0254237
0.0455059
1.20461e-05
0.057917
9.06374e-06
8.68465e-06
0.00207716
0.00119387
2.56275e-08
0.00120763
0.0039304
0.00217765
0.00166256
0.00545708
0.00680326
0.00575369
1.82162e-05
1.6799e-08
1.30811e-07
0.00514369
0.00488351
0.00375212
1.37572e-10
0.00308654
0.00254283
4.18228e-05
7.39535e-10
0.000146305
0.00132382
7.50185e-06
0.212987
1.45644e-07
8.15122e-06
0.20133
0.000671784
0.00570412
5.55264e-10
0.00254029
3.33672e-09
0.180202
1.31453e-08
4.66727e-09
0.00715958
0.00594932
0.00417892
0.000347611
0.00143936
0.00152977
6.29604e-06
0.126625
8.78454e-06
0.197021
6.25134e-06
1.84452e-06
0.000343162
0
0.00776918
0.00162218
0.00121869
3.35648e-06
0.0339155
2.25807e-05
1.56372e-05
9.15095e-06
0.00393117
0.0031118
0.00251198
0.00262891
5.61377e-10
7.80085e-05
0.00675961
6.53274e-05
4.27973e-05
0.000936064
0.00271126
0.00381586
0.000751689
0.00247873
0.00306833
1.74772e-05
0.000233671
0.000371887
9.20164e-08
0.0115981
4.94085e-10
4.95643e-05
0.00932718
0.0079085
6.95831e-05
0.00118957
0
0.00165059
0.000143971
3.3624e-07
9.1959e-05
7.07391e-07
7.8974e-05
0.000118789
0.000109642
4.16157e-05
0.000170159
0.000127913
4.50021e-08
0.171741
0
0.0142715
5.71251e-08
0.00889445
0.0106073
1.25167e-09
0.0382002
0.0345784
0.0350973
0.023873
0.0315317
0.000100358
0.000779603
0.00027366
0.000104227
0.00112679
0.000415764
0.00174279
0.00462263
0.00406638
0.00160825
0.00438523
0.00506305
0.00337333
0.0165414
4.18722e-08
0.0107328
8.78782e-05
0.0019334
0.25466
5.73108e-06
0.000884171
0
0.0637353
0.0348517
0.0379871
0.000629455
0.000926931
2.87983e-08
0.000423866
0.176523
0.000222182
0.000208015
4.2206e-05
2.22321e-05
2.7172e-08
6.05724e-05
0.00266211
7.33997e-09
0.00680479
0.298712
0.00591374
0.00166811
0.00230044
0.00205023
0.00140513
2.54967e-05
0.00105265
0.00460484
0
0.00117642
0
0.266626
0
0
0
1.43475e-05
1.77743e-05
1.97512e-05
0.0556034
3.70413e-08
0.0483115
0.00147135
2.87374e-06
2.5915e-05
6.08469e-06
4.75404e-06
0.00138057
0
0.00175457
0.00102688
5.71363e-06
8.88507e-06
0.00166913
0.00240448
7.01342e-08
3.09074e-06
2.28165e-06
3.61344e-09
0.181858
1.63297e-09
0.00200924
0.280433
0.282351
7.04786e-10
1.40257e-09
0.0886789
1.33331e-07
6.57826e-06
0.00107248
9.82128e-10
0.000124062
0.000187342
2.43195e-07
0.000502005
0.00064422
0.000742036
8.85176e-05
7.79353e-07
0.23601
8.10961e-05
0.215189
0.289163
0.161087
0.00285554
0.0285971
0.158061
0.000800251
0.000192046
5.35894e-07
0.00107621
0.000319258
3.19724e-09
6.03574e-09
2.8771e-09
0.0121491
5.74157e-10
0.00464744
3.57325e-10
5.80974e-05
0.147557
0.133554
0.112813
4.06125e-06
3.90931e-06
2.75837e-06
0.0333748
7.26832e-09
0.127804
0.000393462
4.81066e-05
0.000611493
6.2478e-05
0
0.000411042
0.000296264
0.000281356
0.0377585
0.000341495
0.000165485
0.0536626
0.0386188
1.80576e-07
6.72342e-05
0.00011344
4.06263e-10
0.00879154
0.0672669
0.0118041
0.0445303
0.00614278
0.00486739
8.12614e-07
6.62121e-07
1.31641e-07
7.72803e-08
5.26593e-08
0.00283937
0.00378676
1.96243e-07
1.52557e-07
0.00326602
0.0158564
2.0305e-07
9.1844e-08
0.0117252
0.00961532
0.00926118
9.3854e-07
7.32252e-07
0.00248925
4.44772e-07
0.0199482
0.0214163
0.0175629
4.2088e-06
3.31817e-06
2.05451e-06
0.0223008
0.0152875
0.190409
1.39726e-05
1.78923e-05
8.86723e-06
8.39179e-09
1.37108e-05
6.3484e-06
6.77359e-06
0.00919194
0.0282109
0.210546
0.0209219
0.0702474
0.0015518
1.48864e-05
1.26001e-05
8.14094e-06
0.00105339
0.00216629
0.00134579
0.00152624
1.3505e-05
1.08656e-05
3.45028e-07
1.52045e-08
0.000864012
9.31989e-05
0.000187839
6.82674e-05
0.000158247
0
5.17332e-06
0.00261052
0.0657415
0.0518441
0.0583962
0.245279
0.241149
0.242078
0.00210409
6.28863e-06
0.00222083
0.00157609
0.0350913
0.0284913
0.123671
0.150488
4.59968e-07
0
1.90102e-06
0.0573832
0.0466522
1.88159e-08
0.00378365
0.00268495
0.000658453
0.0922944
0.0286882
4.36885e-10
0.125024
0.024489
1.58563e-06
0.000115505
1.18113e-06
2.73498e-05
0.000414407
7.65489e-07
0.0389488
0.0530937
0.000174023
0.0038279
0.0312861
0.0590138
0.0365204
0.0397528
2.18726e-07
0.0819195
2.46526e-05
0.0682365
0.0632277
0.006212
0.226257
0.000644641
0.000321427
1.97249e-05
8.50801e-08
2.42142e-10
0.000441855
0.000223387
0
1.93405e-06
0.00700546
5.92082e-08
0.00040267
1.10401e-07
0.00160476
0.00245442
0.00204951
0.00249839
0.22762
0.224039
0
9.44485e-06
1.35019e-05
0.0116988
0.0235745
0.0174184
7.06101e-09
0.00203221
6.47833e-08
4.88164e-06
0.00643842
0.0189759
7.31462e-05
0
0.150615
0.000816127
0.000582402
0.130959
0.000668926
0.000331344
0.00755818
0.270706
0.0635056
0.000517376
0.00439518
0.000347877
0
0.00168743
1.90508e-06
2.7675e-09
0.0200377
0.00125704
0.000834868
0.00285446
0.00280587
0.00190278
1.98426e-09
3.91494e-09
1.4574e-09
0.0504786
0.00129472
6.76098e-08
0.00274342
8.95663e-10
0.00490223
0.00195414
0.00131441
3.80542e-10
0.00386869
0.00190422
0.00122977
0.00702567
8.88845e-10
3.28941e-10
0.0931402
0.0758263
0.0980035
1.40608e-07
0.0089102
1.69797e-07
5.47077e-08
0.0151965
0.0107423
0.209067
0.0123356
4.75656e-07
0.000150302
1.7077e-07
0.0254456
1.02184e-07
0.0268359
0.0183255
0.0258765
0.032429
0.018231
0.0305745
1.78193e-06
1.00838e-06
2.24011e-08
0.0127715
2.0016e-05
0.0155336
0.0169358
0.0318607
2.16655e-10
0.000101252
0.0207528
0.0106669
0.000464109
3.74903e-05
0.0285517
2.14227e-05
2.86762e-05
5.90458e-09
2.67967e-06
0.00229981
0.00205428
0.00150832
0.00225681
0.0370311
0.00305375
0.0252633
0.0154764
0.00402474
0.00204866
0.000411185
0.00360444
0.00343446
0.00306916
5.42343e-08
2.7452e-08
5.1323e-05
8.06406e-05
6.02781e-05
0.0133282
0.0228194
0.000316423
0.0774849
0.0359243
0.0116355
3.87154e-06
1.91642e-06
0.00460789
3.55148e-08
2.38725e-08
0
1.08146e-10
3.98425e-05
1.71378e-08
4.67001e-08
0.0495207
0.0207054
0
2.35701e-10
1.11629e-06
0.000396608
0
0.00735751
6.53851e-06
1.36177e-09
0
2.0026e-09
7.14795e-10
0.000151402
1.78824e-09
0
0.027856
2.55349e-06
1.27012e-06
0.015287
4.97344e-06
4.29326e-06
0.00692181
1.1896e-06
0.102423
2.68337e-08
0.0413724
0.000156142
0.0129793
0.0103547
0.000227843
4.81674e-09
0.0226275
2.5249e-09
0.000434576
0.0313851
6.62621e-06
6.0973e-09
0.000356255
2.77857e-09
0.000173752
0.0271091
6.61877e-07
2.58184e-09
0
6.01357e-06
0.000504102
0.0364077
0.181949
0
0.0592422
0.0221139
0.20915
0.0363093
0.0263301
7.27445e-07
0.000404813
0.0910723
0.0624934
0.0426687
1.01633e-07
1.33899e-05
0
4.24706e-06
3.57655e-07
2.46769e-06
1.40981e-06
9.73422e-07
0.0518926
0.196133
0.00804557
0
0.00158431
8.33729e-05
0.0145843
0.0270642
9.78891e-06
1.53145e-06
0.00014302
0.0189281
0
3.7386e-08
1.71719e-08
0.0332687
1.25722e-10
0.150223
0
5.29491e-07
8.66489e-08
0.00613075
0.033132
4.41543e-05
0
0.0598678
0
3.62659e-09
0.000390876
0.0183496
0.000233989
0.0288873
0.116685
0.0581435
0.000142226
0
4.87535e-05
0.0195155
0.00160883
0.00118224
0.0218534
2.51325e-06
0
3.5649e-09
0
5.75726e-06
0
0
0.0403739
1.52146e-06
0.00704315
0
0
0
0
0.0103007
0.241071
3.47699e-06
2.41572e-08
5.46903e-05
3.59325e-06
0
0.2452
0.000365504
4.46065e-05
0
0.000752779
0.0018311
0.183589
8.25894e-05
0.00644609
1.58568e-05
4.41175e-05
0.000409143
0.000499777
0.00270002
0.000237454
0.000135146
0.00447944
0.000156229
0.197154
5.47025e-05
7.10329e-09
0.0287757
8.44196e-07
0.0150989
0.00112833
9.22162e-09
0.0301835
2.07345e-09
0.174761
0.00204734
0.000173369
3.51737e-05
0.0304244
2.36932e-05
0.255248
9.36923e-06
6.44088e-05
0.0128536
3.88455e-08
0.00304113
3.92917e-06
0.0227834
0.000187579
4.9027e-10
0.279439
0.108704
0.00024922
0.0266252
6.13972e-05
0.0299148
2.08924e-07
0.0284468
1.98982e-05
5.44448e-06
1.93058e-10
0.000124272
0.000901005
1.2036e-06
3.99356e-10
2.26004e-05
2.49575e-06
0.0034931
0.00977836
0.00767672
0.00727851
3.90878e-05
0.000861757
0.0122335
3.96391e-08
0.00836375
2.0053e-06
3.30139e-06
0.175087
0.0110718
0.0121113
0.0236157
0.0682263
1.33296e-05
0.0190995
0.0426308
0.0142309
1.2269e-08
0.058102
0.0163654
6.0158e-06
0.013935
8.05308e-09
0.0345727
5.14594e-06
3.84374e-07
0.0131832
0.000100159
5.21027e-09
1.3438e-09
2.02845e-08
0.030028
4.58894e-06
2.93875e-06
0.000660373
0.0675812
0.014118
0.0104064
1.46492e-10
1.0366e-05
0.0166807
0.0238935
0.0059199
0.0947553
1.86696e-08
0.071387
8.83272e-10
1.75595e-08
0.0183059
0
1.45709e-08
0.00666081
0.000863058
0.0214076
2.22192e-10
0.00727367
1.69895e-10
0
0.013393
0
1.22743e-08
0.0226494
0.00189213
0.271241
8.24467e-05
3.74756e-06
0.000869848
0.00520046
0.00629939
3.53911e-05
5.10838e-07
0.000294972
0.000187006
0.00036251
0.000101639
2.71806e-05
0.0583216
7.81706e-05
6.86409e-05
1.18974e-06
1.11359e-07
0.000654671
0
0.0901081
0.000248292
0.000984111
2.11737e-10
0.137666
0.00216409
0.00189283
0.203085
0.242609
1.76371e-06
0.0185158
3.40085e-06
0.180982
0.22385
0.000206805
0.00462402
0.000489982
3.69183e-10
0.000417802
7.34844e-05
0
0.00712421
1.22947e-10
2.20037e-10
0.0127737
0
7.73857e-06
0
0.000800063
0.034022
5.43973e-09
3.40031e-05
0.00192436
0.000997986
2.78937e-05
9.49822e-06
0.00158761
4.84204e-07
2.78347e-06
0
0.00162717
0.00626262
0.285458
4.42765e-09
0
0.0260506
2.27897e-07
6.30551e-10
0.0236107
1.07563e-05
0.00177147
5.07244e-06
7.70742e-10
0.260664
0.0371421
2.28992e-07
1.67179e-08
0.0578554
6.8611e-10
1.03131e-09
0
4.33134e-09
1.16804e-06
2.19854e-07
1.14812e-09
0.0046956
0.0144915
0.0128662
0.00968927
7.00711e-08
4.83204e-09
0.0101365
0.010045
0.0581585
0.00185531
0.00115566
0.0542958
1.49208e-06
0.000124288
4.57562e-05
2.33588e-06
1.97809e-05
5.18509e-06
7.34356e-05
6.30297e-05
0.0882918
0.0888042
0.0609131
7.02125e-06
0.00115417
1.21554e-05
0.000186414
9.54877e-07
0.00653765
7.5231e-05
1.50935e-07
0.00272896
5.31233e-05
0.00416132
0.0279805
9.06061e-10
7.45358e-06
0.00236412
0
0.00077138
2.81693e-06
5.69633e-06
8.75034e-10
0.000887433
3.48265e-05
0.00160202
0.00019423
8.02609e-06
0.00554367
2.63667e-10
0.00987315
0.107925
0
0.182291
0
7.43988e-07
0.0365865
0.0468518
0.091517
1.5729e-06
1.17317e-06
0.0172723
0.00205797
0.00529549
0.00858792
1.70426e-10
0
0.00295513
0.172111
0.00258491
0.00193723
0.168765
0.000153624
0.0387186
3.76264e-08
1.81756e-08
3.3012e-07
0.000955414
2.26343e-10
1.02755e-05
0.00673122
4.54446e-10
0.00438351
0.00376466
3.40284e-05
3.54574e-07
2.53774e-09
4.2837e-10
0.00135639
0.0744693
5.14578e-07
0.0097636
0
1.48878e-07
0.000416088
0.00191388
9.27372e-09
0.00258981
0.00090056
2.71069e-05
0.0606021
1.63514e-05
7.05969e-07
0
0.0170351
5.44516e-10
7.20705e-06
1.28725e-05
1.21797e-05
8.59607e-07
0.131576
1.22648e-08
1.05731e-09
1.213e-06
0
9.74231e-05
3.99721e-05
2.88815e-05
0.000219843
3.00698e-06
5.16582e-07
0.155453
0.00432696
0.00334695
0
0.000895179
0.000203139
0.0236052
4.38112e-07
1.90505e-05
8.21929e-07
0.00794021
0.174695
0
0.0178238
0.0097081
1.30559e-09
6.7491e-08
4.97679e-05
7.47468e-05
0
5.92269e-06
0.00437631
4.00922e-05
7.05321e-07
0
0.000298368
1.21824e-09
0.0032443
0.0443631
5.99258e-07
7.28746e-07
0.0635566
2.96562e-07
3.76888e-10
0.144595
0.00334833
0.0029745
0.16358
2.40449e-07
1.77636e-08
0.16235
0.090445
2.90788e-05
0
3.01303e-07
1.14485e-05
9.50996e-05
0.0694573
0.000528948
1.31605e-09
0.0112507
3.06873e-10
0.00378929
0.00145543
6.31327e-09
0.00137979
7.24429e-05
0.0681706
0.0837572
0.000127748
0.142638
0
8.16605e-07
2.21012e-05
3.36118e-07
0.00479896
0
0.175292
0.0002383
8.41382e-05
9.1259e-07
1.36777e-09
0.000218135
0.000759409
0.201103
0
6.44056e-08
6.1133e-10
0.0396259
0
1.9972e-09
0.0304746
0.00011063
0.0837748
0.0777063
9.8128e-06
4.11595e-06
0
0.0020705
0.00125808
1.54135e-07
2.24615e-05
0
0.05432
4.25993e-08
0.111965
0.0610511
0.00902465
0.194917
1.21645e-05
0.000114242
6.71606e-07
0.000544066
0.256175
2.46519e-07
0.00160897
3.35911e-07
1.21845e-08
0.0218071
0
0
4.44692e-07
3.02078e-05
0.0492282
0.00141694
0.000556682
0.000586019
0.0429676
0.000585881
0.0147247
0.0123979
0.0015113
1.86408e-10
0.00835942
0.0481944
0.00212411
0.000619495
0
1.45759e-10
3.23408e-07
0.000227739
0.0189584
9.48232e-10
3.73333e-05
7.8729e-09
0.0140029
0.018473
3.74203e-07
0
0.0444277
2.41609e-06
4.36432e-09
0
0.0065674
0.0320075
1.66769e-06
2.35491e-07
3.53141e-06
2.44762e-06
7.30374e-05
0.000288214
0.000502875
0.151067
0.075332
8.5737e-08
0.0335634
1.6163e-10
0.00149214
0.0132676
0
0.0019676
0
1.06302e-08
0.0254704
2.52828e-05
0.0423851
6.12854e-10
8.38774e-09
0.00139391
0.0340267
0.0102845
4.23341e-05
5.11893e-07
3.29029e-07
0.0798016
0.00592209
0
0.0833088
0.0844242
9.74845e-05
0.000357672
4.87135e-05
1.88353e-05
0.000633056
1.41351e-09
0.137706
6.23865e-08
5.95259e-05
1.77103e-05
8.7137e-08
3.00514e-08
5.30674e-05
2.56137e-05
4.18179e-10
1.55747e-07
0.00203451
0.0629655
0
4.06075e-07
0.00511163
0.0893823
4.99801e-08
0.00130035
0.0156297
1.01341e-05
0.285899
0.00231779
0.00273239
0.154805
0.00162714
0.130058
0.000804018
0.000535017
2.73355e-05
0.000279414
0.000196116
0.0275527
0.0349551
0.000353488
7.941e-07
0
2.78361e-05
0.188613
0.00590808
1.32516e-08
9.21336e-08
6.98402e-06
3.17467e-06
2.81662e-08
0.0508987
0.00105203
1.19532e-09
0.0053917
0.00241078
1.46231e-07
0.00931248
2.22023e-05
0.00010701
2.94491e-05
1.1924e-08
0.0312062
0.000995032
1.24009e-07
0.0219901
0.00354944
0.0334858
1.8273e-05
0.00651023
0.000498539
0.000248389
0
2.95728e-05
1.87233e-05
2.33949e-09
5.51391e-10
0.0232792
1.12825e-06
1.71906e-09
0
2.69494e-05
9.25012e-05
6.68368e-05
0.18932
0.0040529
0
0.145977
0.000104908
3.79799e-05
6.02175e-10
5.3308e-07
0.000420415
0.00027784
0.0298947
0.0284341
0.000419912
6.53984e-08
0.0431754
0.116108
2.33689e-10
1.74159e-10
6.24478e-05
5.26527e-05
0.00021402
1.81561e-10
0.0940289
2.49567e-05
0.000147963
0
1.49398e-05
0
8.55144e-06
0
1.19821e-08
0.00267176
0.0211382
0.00760847
0.0308937
0.223516
0.00381339
4.99482e-06
1.20646e-09
0.222472
1.8175e-05
1.57028e-06
0
0.00534547
6.77233e-07
0.000118766
0.00114644
0
0
0.00343107
0.000650232
0
8.76544e-05
6.06198e-05
4.64491e-05
0.00904158
0.0117524
1.75391e-10
0.177886
0.0601898
0.0805608
2.59975e-08
0.0222089
3.22786e-05
0.00216846
2.45198e-10
2.62681e-10
0.00470666
0.00131249
0.00476453
0.00139638
0.000241032
4.33748e-10
0
2.4522e-09
0.000956069
0
0.00855059
0.00138803
0.138479
1.39578e-09
1.74829e-09
4.77722e-05
1.00375e-10
0.00210724
4.86064e-06
0.000258593
5.31052e-05
0.0715131
1.63747e-05
0.0687022
1.74982e-05
0.0641144
8.24317e-09
3.38945e-05
3.46481e-05
0.0835815
0.000723316
0.00686845
0.00988212
1.34022e-06
0.000758503
0.0126792
2.53118e-06
0.00682297
1.46558e-10
0.000597892
5.50207e-08
1.39804e-05
6.33762e-05
1.59887e-06
3.11483e-05
0
3.80584e-07
0.167488
0.1527
4.91032e-07
0
0.000110179
0.000555054
0.00754953
0.155387
0.18976
2.21444e-08
5.13858e-08
5.79742e-10
2.12731e-07
5.10402e-05
0
0.0152499
0.000561675
3.58103e-07
2.05256e-07
8.72331e-06
8.20375e-05
0.000111568
0.000111412
0.000186725
0.032909
4.7486e-05
0.0240796
0.0363563
1.97004e-08
0.000103385
1.86654e-06
4.78626e-05
0.0299698
6.49436e-05
0.000152657
3.75688e-05
2.51302e-10
1.97588e-05
6.418e-05
0.171254
0.0107462
0.205404
7.80936e-07
2.06033e-05
0.0117796
0.0114232
0.0406441
0.212524
0.0056497
0.00459216
0.000817749
1.85236e-05
8.68019e-05
0.000182027
7.35998e-05
0.00012415
2.72156e-05
0.0223509
0
2.48889e-10
0.000103453
0.00233912
0.000595212
0.000720831
7.45917e-07
8.35912e-07
0.000258916
5.30347e-10
7.02709e-05
0.00019099
5.77698e-07
5.90595e-09
0.0455228
5.9847e-08
1.87572e-08
6.73018e-06
0.00104223
0
0.00972147
0.00118135
1.60613e-07
2.20529e-07
0.0165169
0
1.60611e-10
0.0166364
0.0151078
0.102354
1.30785e-06
2.8764e-10
0.0448301
4.7722e-05
0.0268547
0.000158115