# vtk DataFile Version 2.0
Unstructured Grid by M++
ASCII
DATASET UNSTRUCTURED_GRID
POINTS 4072 float
  0.609375   0.843750 0
  0.562500   0.843750 0
  0.531250   0.843750 0
  0.875000   0.828125 0
  0.984375   0.828125 0
  0.953125   0.828125 0
  0.937500   0.828125 0
  0.843750   0.828125 0
  0.812500   0.828125 0
  0.781250   0.828125 0
  0.765625   0.828125 0
  0.734375   0.828125 0
  0.703125   0.828125 0
  0.671875   0.828125 0
  0.640625   0.828125 0
  0.609375   0.828125 0
  0.593750   0.828125 0
  0.562500   0.828125 0
  0.546875   0.828125 0
  0.531250   0.828125 0
  0.515625   0.828125 0
  0.968750   0.812500 0
  0.937500   0.812500 0
  0.921875   0.812500 0
  0.890625   0.812500 0
  0.859375   0.812500 0
  0.828125   0.812500 0
  0.796875   0.812500 0
  0.765625   0.812500 0
  0.750000   0.812500 0
  0.718750   0.812500 0
  0.687500   0.812500 0
  0.656250   0.812500 0
  0.625000   0.812500 0
  0.593750   0.812500 0
  0.578125   0.812500 0
  0.546875   0.812500 0
  0.531250   0.812500 0
  0.515625   0.812500 0
  0.984375   0.796875 0
  0.562500   0.015625 0
  0.953125   0.796875 0
  0.921875   0.796875 0
  0.906250   0.796875 0
  0.875000   0.796875 0
  0.843750   0.796875 0
  0.812500   0.796875 0
  0.781250   0.796875 0
  0.750000   0.796875 0
  0.734375   0.796875 0
  0.703125   0.796875 0
  0.671875   0.796875 0
  0.640625   0.796875 0
  0.609375   0.796875 0
  0.578125   0.796875 0
  0.562500   0.796875 0
  0.531250   0.796875 0
  0.515625   0.796875 0
  0.968750   0.781250 0
  0.546875   0.000000 0
  0.937500   0.781250 0
  0.906250   0.781250 0
  0.890625   0.781250 0
  0.859375   0.781250 0
  0.828125   0.781250 0
  0.796875   0.781250 0
  0.765625   0.781250 0
  0.734375   0.781250 0
  0.718750   0.781250 0
  0.687500   0.781250 0
  0.656250   0.781250 0
  0.625000   0.781250 0
  0.593750   0.781250 0
  0.562500   0.781250 0
  0.546875   0.781250 0
  0.515625   0.781250 0
  0.984375   0.765625 0
  0.953125   0.765625 0
  0.921875   0.765625 0
  0.890625   0.765625 0
  0.875000   0.765625 0
  0.843750   0.765625 0
  0.812500   0.765625 0
  0.781250   0.765625 0
  0.750000   0.765625 0
  0.718750   0.765625 0
  0.703125   0.765625 0
  0.671875   0.765625 0
  0.640625   0.765625 0
  0.609375   0.765625 0
  0.578125   0.765625 0
  0.593750   0.750000 0
  0.562500   0.765625 0
  0.546875   0.765625 0
  0.531250   0.765625 0
  0.562500   0.750000 0
  0.968750   0.750000 0
  0.937500   0.750000 0
  0.906250   0.750000 0
  0.875000   0.750000 0
  0.859375   0.750000 0
  0.828125   0.750000 0
  0.796875   0.750000 0
  0.765625   0.750000 0
  0.734375   0.750000 0
  0.703125   0.750000 0
  0.687500   0.750000 0
  0.671875   0.750000 0
  0.656250   0.750000 0
  0.625000   0.750000 0
  0.546875   0.750000 0
  0.531250   0.750000 0
  0.515625   0.750000 0
  0.562500   0.734375 0
  0.984375   0.734375 0
  0.953125   0.734375 0
  0.921875   0.734375 0
  0.890625   0.734375 0
  0.859375   0.734375 0
  0.843750   0.734375 0
  0.812500   0.734375 0
  0.781250   0.734375 0
  0.750000   0.734375 0
  0.718750   0.734375 0
  0.687500   0.734375 0
  0.671875   0.734375 0
  0.656250   0.734375 0
  0.640625   0.734375 0
  0.546875   0.734375 0
  0.531250   0.734375 0
  0.515625   0.734375 0
  0.562500   0.718750 0
  0.968750   0.718750 0
  0.937500   0.718750 0
  0.906250   0.718750 0
  0.875000   0.718750 0
  0.843750   0.718750 0
  0.796875   0.718750 0
  0.765625   0.718750 0
  0.734375   0.718750 0
  0.703125   0.718750 0
  0.687500   0.718750 0
  0.671875   0.718750 0
  0.656250   0.718750 0
  0.625000   0.718750 0
  0.546875   0.718750 0
  0.531250   0.718750 0
  0.515625   0.718750 0
  0.562500   0.703125 0
  0.953125   0.703125 0
  0.921875   0.703125 0
  0.890625   0.703125 0
  0.859375   0.703125 0
  0.828125   0.703125 0
  0.781250   0.703125 0
  0.750000   0.703125 0
  0.718750   0.703125 0
  0.687500   0.703125 0
  0.656250   0.703125 0
  0.546875   0.703125 0
  0.531250   0.703125 0
  0.515625   0.703125 0
  0.984375   0.687500 0
  0.937500   0.687500 0
  0.921875   0.687500 0
  0.906250   0.687500 0
  0.875000   0.687500 0
  0.843750   0.687500 0
  0.812500   0.687500 0
  0.765625   0.687500 0
  0.734375   0.687500 0
  0.703125   0.687500 0
  0.671875   0.687500 0
  0.640625   0.687500 0
  0.593750   0.687500 0
  0.562500   0.687500 0
  0.546875   0.687500 0
  0.531250   0.687500 0
  0.515625   0.687500 0
  0.968750   0.671875 0
  0.937500   0.671875 0
  0.921875   0.671875 0
  0.906250   0.671875 0
  0.890625   0.671875 0
  0.859375   0.671875 0
  0.828125   0.671875 0
  0.796875   0.671875 0
  0.765625   0.671875 0
  0.750000   0.671875 0
  0.718750   0.671875 0
  0.687500   0.671875 0
  0.656250   0.671875 0
  0.625000   0.671875 0
  0.593750   0.671875 0
  0.578125   0.671875 0
  0.546875   0.671875 0
  0.531250   0.671875 0
  0.515625   0.671875 0
  0.984375   0.656250 0
  0.953125   0.656250 0
  0.937500   0.656250 0
  0.921875   0.656250 0
  0.906250   0.656250 0
  0.875000   0.656250 0
  0.843750   0.656250 0
  0.812500   0.656250 0
  0.781250   0.656250 0
  0.750000   0.656250 0
  0.734375   0.656250 0
  0.703125   0.656250 0
  0.671875   0.656250 0
  0.640625   0.656250 0
  0.609375   0.656250 0
  0.578125   0.656250 0
  0.562500   0.656250 0
  0.531250   0.656250 0
  0.515625   0.656250 0
  0.968750   0.640625 0
  0.937500   0.640625 0
  0.906250   0.640625 0
  0.890625   0.640625 0
  0.859375   0.640625 0
  0.828125   0.640625 0
  0.796875   0.640625 0
  0.765625   0.640625 0
  0.734375   0.640625 0
  0.718750   0.640625 0
  0.687500   0.640625 0
  0.656250   0.640625 0
  0.625000   0.640625 0
  0.593750   0.640625 0
  0.562500   0.640625 0
  0.546875   0.640625 0
  0.515625   0.640625 0
  0.984375   0.625000 0
  0.953125   0.625000 0
  0.921875   0.625000 0
  0.890625   0.625000 0
  0.875000   0.625000 0
  0.843750   0.625000 0
  0.812500   0.625000 0
  0.781250   0.625000 0
  0.750000   0.625000 0
  0.734375   0.625000 0
  0.718750   0.625000 0
  0.703125   0.625000 0
  0.671875   0.625000 0
  0.640625   0.625000 0
  0.609375   0.625000 0
  0.578125   0.625000 0
  0.562500   0.625000 0
  0.546875   0.625000 0
  0.531250   0.625000 0
  0.968750   0.609375 0
  0.937500   0.609375 0
  0.906250   0.609375 0
  0.875000   0.609375 0
  0.859375   0.609375 0
  0.828125   0.609375 0
  0.796875   0.609375 0
  0.765625   0.609375 0
  0.750000   0.609375 0
  0.734375   0.609375 0
  0.718750   0.609375 0
  0.703125   0.609375 0
  0.687500   0.609375 0
  0.656250   0.609375 0
  0.625000   0.609375 0
  0.593750   0.609375 0
  0.562500   0.609375 0
  0.546875   0.609375 0
  0.531250   0.609375 0
  0.515625   0.609375 0
  0.984375   0.593750 0
  0.953125   0.593750 0
  0.921875   0.593750 0
  0.890625   0.593750 0
  0.859375   0.593750 0
  0.843750   0.593750 0
  0.812500   0.593750 0
  0.781250   0.593750 0
  0.750000   0.593750 0
  0.734375   0.593750 0
  0.718750   0.593750 0
  0.687500   0.593750 0
  0.671875   0.593750 0
  0.640625   0.593750 0
  0.609375   0.593750 0
  0.578125   0.593750 0
  0.562500   0.593750 0
  0.546875   0.593750 0
  0.531250   0.593750 0
  0.515625   0.593750 0
  0.968750   0.578125 0
  0.937500   0.578125 0
  0.906250   0.578125 0
  0.875000   0.578125 0
  0.890625   0.562500 0
  0.843750   0.578125 0
  0.828125   0.578125 0
  0.796875   0.578125 0
  0.765625   0.578125 0
  0.734375   0.578125 0
  0.703125   0.578125 0
  0.671875   0.578125 0
  0.656250   0.578125 0
  0.656250   0.562500 0
  0.625000   0.578125 0
  0.640625   0.562500 0
  0.593750   0.578125 0
  0.562500   0.578125 0
  0.546875   0.578125 0
  0.531250   0.578125 0
  0.515625   0.578125 0
  0.859375   0.562500 0
  0.828125   0.562500 0
  0.781250   0.562500 0
  0.750000   0.562500 0
  0.718750   0.562500 0
  0.687500   0.562500 0
  0.609375   0.562500 0
  0.578125   0.562500 0
  0.562500   0.562500 0
  0.546875   0.562500 0
  0.531250   0.562500 0
  0.515625   0.562500 0
  1.000000   0.812500 0
  0.578125   0.031250 0
  0.875000   0.546875 0
  0.625000   0.546875 0
  0.218750   0.000000 0
  0.640625   0.781250 0
  0.828125   0.093750 0
  0.031250   0.531250 0
  0.296875   0.328125 0
  0.296875   0.312500 0
  0.281250   0.312500 0
  0.765625   0.312500 0
  0.031250   0.859375 0
  0.093750   0.265625 0
  0.109375   0.250000 0
  0.187500   0.671875 0
  0.421875   0.640625 0
  0.031250   0.062500 0
  0.140625   0.125000 0
  0.562500   0.906250 0
  0.125000   0.437500 0
  0.203125   0.937500 0
  0.125000   0.421875 0
  0.140625   0.406250 0
  0.093750   0.437500 0
  0.109375   0.421875 0
  0.093750   0.421875 0
  0.109375   0.406250 0
  0.328125   0.125000 0
  0.750000   0.906250 0
  0.328125   0.109375 0
  0.750000   0.890625 0
  0.312500   0.125000 0
  0.734375   0.906250 0
  0.281250   0.343750 0
  0.265625   0.359375 0
  0.500000   0.796875 0
  0.078125   0.015625 0
  0.062500   0.015625 0
  0.484375   0.796875 0
  0.484375   0.781250 0
  0.062500   0.000000 0
  0.015625   0.250000 0
  0.062500   0.046875 0
  0.484375   0.828125 0
  0.484375   0.812500 0
  0.062500   0.031250 0
  0.281250   0.671875 0
  0.062500   0.234375 0
  0.328125   0.765625 0
  0.312500   0.750000 0
  0.015625   0.671875 0
  0.781250   0.187500 0
  0.015625   0.265625 0
  0.453125   0.250000 0
  0.453125   0.234375 0
  0.031250   0.265625 0
  0.046875   0.250000 0
  0.093750   0.015625 0
  0.265625   0.656250 0
  0.734375   0.281250 0
  0.156250   0.015625 0
  0.062500   0.265625 0
  0.046875   0.281250 0
  0.031250   0.281250 0
  0.343750   0.781250 0
  0.328125   0.781250 0
  0.265625   0.687500 0
  0.265625   0.703125 0
  0.156250   0.109375 0
  0.578125   0.890625 0
  0.484375   0.984375 0
  0.062500   0.203125 0
  0.328125   0.718750 0
  0.343750   0.734375 0
  0.343750   0.750000 0
  0.453125   0.500000 0
  0.437500   0.500000 0
  0.234375   0.093750 0
  0.171875   0.375000 0
  0.437500   0.531250 0
  0.468750   0.546875 0
  0.453125   0.546875 0
  0.187500   0.015625 0
  0.187500   0.000000 0
  0.609375   0.781250 0
[...]
CELL_DATA 7648
SCALARS scalar_value float 1
LOOKUP_TABLE default
0.0717062
0.0615808
0.0489499
0.0683146
0
0
0
0
0.0594278
0.047488
0.0442284
0
0
0
0.223605
0.232916
0.217956
0.252848
0.079497
0.0765968
0.084329
0.069085
4.83326e-05
0.0112589
0.0119059
0.0160646
0.00976353
0.0061159
0.00491527
2.34984e-05
2.50026e-05
3.61716e-05
1.36875e-05
5.34671e-05
5.49201e-05
7.6127e-05
3.08579e-05
8.03086e-06
8.59272e-06
1.22157e-05
0.000888394
0.00178246
0.00188535
0.00112146
0.000847728
1.51146e-05
1.02014e-05
8.88132e-06
0.00111971
2.24549e-05
1.14858e-07
0.00147906
0.00268993
0.0022138
2.68423e-06
0.0146425
1.32856e-06
1.57044e-06
0.00536518
0.00729313
0.00983884
0.0289203
0.000807752
1.77811e-07
2.6111e-07
1.95094e-07
2.17286e-07
0.00309856
0.00440231
1.52705e-05
0.246702
0
0.0102937
0.00880079
2.17217e-06
8.21603e-08
0.01602
1.56655e-07
6.39407e-07
0.00684603
0.00550286
9.3853e-10
1.50855e-05
1.10203e-07
8.75709e-07
3.13132e-05
0.23466
0.228226
9.72455e-09
0
0.000146084
1.13979e-07
0.0844378
0.0932432
3.86707e-08
0.00673027
5.08296e-05
0.0120138
6.20099e-05
3.50457e-05
0.0073215
0.00103411
0.00640632
0.00478344
0.00243368
0.00362592
0.121913
1.00442e-06
4.65132e-07
0.000487396
0.00664714
1.27234e-05
8.19138e-06
6.63684e-08
0.113867
4.80977e-08
0.122485
0.10164
0.00134963
0
0
0
4.07115e-08
0.00389384
3.43402e-09
5.62999e-09
2.84719e-09
0.00188963
0.00108152
0.00215684
2.48164e-08
0.000169753
4.5951e-08
1.73494e-09
0.27542
5.42326e-10
0.0173272
0.00284057
0.000140357
1.03707e-05
1.04445e-06
7.27919e-06
6.7445e-06
6.36101e-05
5.53508e-06
1.74556e-05
0
0.0008748
4.6091e-08
4.89819e-08
3.1082e-08
0.0204448
0.0246489
0.0298378
0
0
1.55878e-09
9.46693e-05
2.53523e-05
0.00346636
0
0.0832505
0.0921712
0.0157455
3.91013e-05
1.99508e-05
4.20914e-05
3.36914e-05
0.0194562
0
6.25696e-08
0.000133817
2.68945e-06
0
1.03946e-05
0.000151848
2.4067e-10
0.000130401
0.0206601
0.000120594
6.40833e-05
0.0160163
5.36835e-07
0.00939318
5.71309e-09
0.00730759
2.5508e-07
1.40582e-09
3.34338e-09
0.00236203
2.0356e-09
0.00110545
3.56642e-07
7.08369e-06
0.00163892
2.28743e-07
2.3075e-07
1.54797e-07
2.78927e-07
3.78236e-07
3.33758e-07
8.58e-08
0.0242204
1.13445e-07
1.19442e-07
0.0048916
0.00721592
3.3066e-10
1.32205e-10
2.47447e-10
0.00316337
0.00454258
0.0061714
0.0042308
0.000342289
0.111918
0
0
4.5695e-10
0.000379252
0.000210859
0.000384305
0.000224525
0.000325038
0.000492045
5.22096e-05
0.000317772
0.000229279
0.000664
0.000821499
4.71561e-09
1.00896e-08
0.000926387
0.0449448
1.0017e-08
5.90626e-09
4.40882e-09
4.29687e-09
0.000526476
1.69858e-09
0.000582776
0
0.248812
2.15622e-08
1.39726e-08
0.000617336
0.153752
0.000996201
0.00063328
5.59778e-05
0.00139247
7.82253e-07
0.0057049
0.00629511
0.00482248
0.0175889
0.0915695
2.56526e-08
1.06545e-08
0.0645348
0.0719559
0.067438
3.28609e-05
0.00306568
0.000532702
0.000816056
9.93103e-05
9.57992e-05
4.55148e-05
0.0020047
4.58309e-06
0.0194768
1.00514e-10
0
0
0.000296019
1.19084e-10
2.36623e-07
0.226111
0.250111
0.000938576
0.0424301
4.8832e-07
0
0.230743
2.30769e-07
0
0.000309196
7.08096e-07
4.31411e-05
1.76537e-06
0
1.33832e-05
2.41747e-07
0.110078
0.100581
2.1314e-07
0.101075
1.58069e-08
9.25708e-07
0.00168767
0.284401
0
8.13342e-08
0.0504022
0.0431661
0.039085
0.0723158
7.84974e-07
0.184796
0.17729
5.77812e-05
1.69586e-10
2.6217e-06
1.82158e-09
0.00664465
0.118157
2.99661e-09
0.108001
0.0089236
0.0981417
0.037708
0.06012
0.000683525
0.000205716
0.00643244
0.00220109
0.000569774
0.000355345
0.00400726
9.78824e-05
0.0175411
2.28001e-05
0.0944179
0
0.105446
0
1.0312e-09
9.58404e-10
0.00093695
0.00146718
1.14307e-09
6.93696e-10
1.62616e-09
0
0.181341
0.146972
0
4.99775e-07
3.77274e-07
6.19156e-07
4.75235e-07
0.0811357
3.33515e-06
0.000140875
1.17418e-05
0.000426736
0
0
0
0.014115
0.0161237
0.0222668
0.242298
0.000285776
1.07103e-08
5.30857e-05
1.01817e-06
1.67508e-05
1.67719e-05
0.000409174
0.268767
0.000139707
0.00277785
7.26759e-05
0.00104772
0
1.72001e-05
3.74069e-06
0.0403502
0.10911
5.01622e-06
0.00071227
1.04782e-05
0.000444377
0.0318144
0.000358537
0.261021
0.00141273
1.47127e-08
5.38512e-09
0.191521
1.85508e-08
6.56406e-09
1.20765e-07
2.4476e-05
0.00085384
6.28477e-10
1.91975e-10
0.209341
6.35245e-06
4.59351e-07
0.000173301
6.38175e-06
8.73538e-05
0.223406
0.000526252
0.00716466
7.41412e-08
1.28517e-05
0
1.13565e-06
1.52638e-06
0
0.185238
1.28242e-06
4.86134e-07
8.35228e-07
0.000253905
0.229266
0.0108091
0.230275
0
0.015936
0.0713856
0.0650497
0
0.0659488
2.32505e-06
0.00612165
0.000405399
0.00118339
0.00488598
0.00010146
0.00533175
0.00338225
0.00148103
6.77019e-09
1.96729e-08
0.00140596
0.0103348
0.00229139
0.0299263
0.0545954
5.78023e-06
0.0690715
4.28987e-06
4.18124e-06
0.00135667
0.000747696
8.12008e-09
0.00106705
0.00483635
0.00202773
0.00106891
0.00669837
0.00833696
0.00706161
9.66212e-06
6.04777e-09
4.60923e-08
0.00511332
0.00334631
0.00259956
1.2763e-10
0.00380366
0.00314168
5.37888e-05
6.97649e-10
0.000186293
0.000757223
8.79069e-06
0.229213
1.85426e-07
9.40956e-06
0.2165
0.000647584
0.00410276
5.05305e-10
0.00158568
2.98189e-09
0.200451
1.1897e-08
4.08826e-09
0.00461647
0.00378537
0.00259483
0.000201664
0.00126719
0.001317
8.2786e-06
0.146263
1.15575e-05
0.214706
3.1209e-06
2.42975e-06
0.000287229
0
0.00578692
0.00191696
0.00143921
1.55363e-06
0.0287995
2.1045e-05
1.45101e-05
3.94295e-06
0.00466352
0.00369104
0.00294947
0.00313849
1.56552e-10
4.47783e-05
0.00839709
8.5462e-05
2.3512e-05
0.00112361
0.00160522
0.0046012
0.000891781
0.0014913
0.00369748
7.81805e-06
0.000251791
0.00039814
3.62726e-08
0.00951889
1.32216e-10
2.39487e-05
0.00752986
0.00649067
3.48368e-05
0.00149649
0
0.00207716
9.17654e-05
1.19566e-07
5.63802e-05
2.60809e-07
4.92404e-05
7.30547e-05
6.86539e-05
2.40606e-05
0.000182397
0.000134428
1.51941e-08
0.167856
0
0.0120976
2.20193e-08
0.00720327
0.00888994
3.46177e-10
0.0335779
0.030329
0.028312
0.0187629
0.0248605
4.86671e-05
0.00084201
0.000291943
5.05298e-05
0.00139529
0.000517591
0.00215687
0.00325645
0.00319936
0.0015529
0.00305653
0.00357302
0.00229322
0.0191855
1.5827e-08
0.00891818
4.40893e-05
0.0024643
0.263973
2.36176e-06
0.00109775
0
0.075419
0.0286437
0.0314633
0.000811742
0.00119064
1.06788e-08
0.00054821
0.155267
0.00011295
0.000241819
1.94176e-05
9.86303e-06
2.46596e-08
6.01102e-05
0.00325496
2.18525e-09
0.008396
0.299282
0.00367457
0.00204541
0.00133523
0.00248053
0.00170366
2.54574e-05
0.00129158
0.00275952
0
0.0014311
0
0.268782
0
0
0
6.7945e-06
8.58772e-06
9.54128e-06
0.066236
1.30629e-08
0.057773
0.00170854
2.51933e-06
1.27224e-05
5.48137e-06
4.13431e-06
0.00165339
0
0.00210405
0.0012194
5.37075e-06
8.39511e-06
0.00212979
0.00305529
2.70434e-08
2.83957e-06
2.02046e-06
1.04616e-09
0.199228
4.57071e-10
0.00118869
0.276203
0.280363
2.07786e-10
4.27966e-10
0.0775943
4.44319e-08
3.04129e-06
0.000606335
2.95023e-10
0.000161831
0.000243718
3.09329e-07
0.000379374
0.000352358
0.000408041
0.000103457
1.01513e-06
0.246347
9.27983e-05
0.227039
0.291578
0.172142
0.00193022
0.0203359
0.171462
0.000917675
0.00017533
1.97648e-07
0.00124912
0.000297509
3.33964e-09
6.30466e-09
2.90833e-09
0.0148621
1.58557e-10
0.00580271
0
4.37761e-05
0.128183
0.114669
0.0948092
1.69879e-06
1.62069e-06
1.13258e-06
0.0243315
7.84253e-09
0.114881
0.000203903
2.23605e-05
0.000332796
6.91397e-05
0
0.00021824
0.000154031
0.000317055
0.0309538
0.000178867
8.2912e-05
0.0442778
0.046304
6.77453e-08
3.48787e-05
6.12159e-05
1.21846e-10
0.00578181
0.068014
0.00801829
0.0460551
0.0041116
0.00318362
3.03695e-07
2.43883e-07
4.50847e-08
2.58543e-08
1.72809e-08
0.00173554
0.0023913
6.80644e-08
5.22382e-08
0.0030951
0.0148768
7.05597e-08
3.07415e-08
0.00803016
0.0064878
0.00629293
3.51169e-07
2.70493e-07
0.00147561
1.60517e-07
0.0145619
0.0155483
0.0124767
1.70053e-06
1.32382e-06
8.00521e-07
0.0272249
0.0188451
0.173138
6.02501e-06
7.83281e-06
3.73356e-06
2.92199e-09
5.91945e-06
2.63265e-06
2.81322e-06
0.0114639
0.0218139
0.229188
0.0156522
0.0549603
0.00157243
6.47307e-06
5.40579e-06
3.41094e-06
0.0013524
0.00275862
0.0017228
0.00195177
7.18676e-06
5.76031e-06
3.0732e-07
5.43801e-09
0.000716648
0.000117309
0.000237438
4.41635e-05
0.000186726
0
2.10668e-06
0.00197194
0.0626234
0.0484155
0.0558169
0.249699
0.24726
0.250959
0.00159685
5.48004e-06
0.00165608
0.00115958
0.0258342
0.0204434
0.134731
0.159851
5.81398e-07
0
2.46345e-06
0.0446366
0.0352601
6.52906e-09
0.00309444
0.00216254
0.000819138
0.10517
0.0342218
1.31391e-10
0.139392
0.0299089
7.26547e-07
0.000150517
5.27315e-07
3.58795e-05
0.000534767
3.35978e-07
0.044003
0.0409694
0.000217149
0.00230756
0.0227925
0.0639802
0.040324
0.0299589
1.96142e-07
0.0815522
1.33215e-05
0.0675746
0.0617911
0.00423449
0.240025
0.000350559
0.000167301
1.99093e-05
3.35328e-08
0
0.000530336
0.000266921
0
8.24656e-07
0.00451931
5.44246e-08
0.000231963
1.01181e-07
0.00131561
0.00146672
0.0012075
0.00149191
0.244076
0.242469
0
4.7389e-06
6.95054e-06
0.0145279
0.0164422
0.011773
8.14584e-09
0.00186093
2.13289e-08
2.37596e-06
0.00805876
0.0222191
3.33449e-05
0
0.138201
0.000438954
0.000304516
0.114877
0.00035822
0.000389341
0.00498667
0.283955
0.0540599
0.000278996
0.00507371
0.000182865
0
0.0020505
2.48768e-06
8.78305e-10
0.0245559
0.000719757
0.000792563
0.00275652
0.00188068
0.00180553
1.9256e-09
3.83331e-09
1.38506e-09
0.0584327
0.00125203
8.12229e-08
0.00166173
8.4208e-10
0.00316773
0.00197855
0.0012897
3.64433e-10
0.00365326
0.00122442
0.000755004
0.00657461
8.56072e-10
3.07616e-10
0.0748427
0.0596511
0.0795657
4.94068e-08
0.0062748
1.96416e-07
6.27369e-08
0.0110017
0.0075232
0.226291
0.00896349
2.04613e-07
0.000195873
2.20255e-07
0.0311112
4.03578e-08
0.0327554
0.0225606
0.0188808
0.0349625
0.019894
0.0230089
7.09118e-07
3.86672e-07
2.37399e-08
0.0154026
8.75058e-06
0.0186895
0.0205144
0.0384125
0
7.61439e-05
0.0251674
0.0131077
0.000370381
1.93964e-05
0.0344513
1.0669e-05
1.49783e-05
1.8074e-09
3.04189e-06
0.00149782
0.00131012
0.000937155
0.00135877
0.03579
0.00190213
0.0248351
0.0154223
0.00260242
0.00135986
0.000383148
0.0024371
0.00330718
0.00205125
1.83327e-08
2.98164e-08
3.07611e-05
0.000105398
3.6903e-05
0.0162489
0.0275712
0.000206406
0.0862316
0.0300638
0.00778574
4.45093e-06
2.20891e-06
0.0056679
1.17849e-08
7.72954e-09
0
0
5.21331e-05
1.95072e-08
4.36718e-08
0.03868
0.0231426
0
2.07572e-10
4.33398e-07
0.000363988
0
0.00498138
3.15692e-06
3.78571e-10
0
5.66138e-10
1.94468e-10
7.55077e-05
5.02225e-10
0
0.0301891
9.7956e-07
5.28922e-07
0.0167422
1.99647e-06
1.67586e-06
0.00867222
5.44813e-07
0.119897
2.98174e-08
0.0310384
8.12643e-05
0.0111524
0.0090758
0.000123565
1.40693e-09
0.0188333
2.19442e-09
0.000245027
0.0348339
2.64607e-06
1.80415e-09
0.000187417
7.94607e-10
8.69728e-05
0.0230195
2.95066e-07
7.36332e-10
0
3.05716e-06
0.000271509
0.0328693
0.175894
0
0.0705396
0.0152257
0.21696
0.0274197
0.0289269
2.69159e-07
0.0002594
0.0989184
0.0694113
0.0319396
3.81218e-08
1.74406e-05
0
4.15294e-06
3.28669e-07
2.35288e-06
6.57574e-07
9.29901e-07
0.0388351
0.212629
0.0057539
0
0.00133195
4.41142e-05
0.0102105
0.0284666
9.14742e-06
1.49691e-06
0.00014899
0.0144804
0
4.17948e-08
1.79982e-08
0.0400286
0
0.156771
0
2.01387e-07
2.97361e-08
0.00576514
0.0391419
1.96749e-05
0
0.0713436
0
1.08601e-09
0.00031327
0.021883
0.000302999
0.0350401
0.134107
0.0450234
6.74566e-05
0
2.20196e-05
0.0236364
0.00170089
0.00121397
0.0264436
1.10268e-06
0
1.19066e-09
0
2.58486e-06
0
0
0.0353964
5.82804e-07
0.00864465
0
0
0
0
0.0128145
0.242457
1.54839e-06
2.70464e-08
2.80714e-05
3.26055e-06
0
0.26346
0.000237514
2.25545e-05
0
0.000952524
0.00201238
0.169323
4.27242e-05
0.00542882
1.58358e-05
2.23955e-05
0.000216306
0.00054446
0.00235484
0.000133668
7.29735e-05
0.00385062
0.000194462
0.18086
2.8449e-05
7.88753e-09
0.0247576
1.11039e-06
0.0185143
0.0011732
1.0215e-08
0.0346945
1.95429e-09
0.154897
0.00115558
9.61431e-05
4.51279e-05
0.0216233
2.18044e-05
0.245167
4.64573e-06
4.83371e-05
0.0158186
1.25025e-08
0.00233306
3.45341e-06
0.0156507
0.000238907
1.42359e-10
0.281181
0.093378
0.000124115
0.0321954
3.19509e-05
0.035999
7.99185e-08
0.0233871
1.76895e-05
4.96915e-06
0
0.000160588
0.000999352
1.07252e-06
1.15445e-10
2.93065e-05
9.94057e-07
0.00359037
0.00716514
0.00535869
0.00745588
3.15991e-05
0.00110114
0.0150951
1.49855e-08
0.0082884
7.79614e-07
1.33317e-06
0.193091
0.00817757
0.0131032
0.0176061
0.0534675
5.80374e-06
0.014979
0.0332523
0.0157836
4.13388e-09
0.0442191
0.0129983
2.52963e-06
0.0108118
8.22241e-09
0.0247451
2.12907e-06
4.4379e-07
0.00997396
0.000101356
1.59352e-09
4.26301e-10
1.87341e-08
0.0352099
1.90322e-06
1.18923e-06
0.000627413
0.08038
0.0114324
0.00781333
1.32005e-10
4.53416e-06
0.0135029
0.0182366
0.00643252
0.110942
1.65589e-08
0.0743159
2.748e-10
1.90864e-08
0.0146606
0
4.64255e-09
0.00412927
0.00104528
0.0164881
2.10618e-10
0.00456572
0
0
0.0088926
0
1.42575e-08
0.0264339
0.0014112
0.287365
0.000107296
4.93175e-06
0.00110799
0.0065449
0.00675966
1.61098e-05
5.93263e-07
0.000323634
9.42538e-05
0.000190049
0.00010908
1.21988e-05
0.0471679
3.7278e-05
3.24893e-05
5.19324e-07
3.96955e-08
0.000370915
0
0.0779057
0.000126974
0.00111837
0
0.158539
0.00267212
0.00109669
0.226286
0.265502
7.56485e-07
0.0226293
1.55032e-06
0.204663
0.248309
0.000262575
0.00544352
0.000260857
1.02354e-10
0.000348748
3.91041e-05
0
0.0052098
1.0788e-10
0
0.0100061
0
3.53278e-06
0
0.000439234
0.0245664
1.85574e-09
1.86061e-05
0.00225889
0.000562892
2.45239e-05
8.19786e-06
0.00114884
2.11709e-07
3.6515e-06
0
0.00126169
0.00452344
0.278757
4.40505e-09
0
0.0186244
2.59417e-07
6.35389e-10
0.020822
1.41381e-05
0.00224103
4.92386e-06
2.29829e-10
0.257312
0.0273708
2.6365e-07
1.85832e-08
0.0453884
7.10971e-10
1.0494e-09
0
4.41461e-09
5.15018e-07
2.56374e-07
1.20197e-09
0.00496671
0.0107689
0.00920691
0.0102091
6.26732e-08
5.0911e-09
0.00657274
0.0065279
0.0551153
0.00108675
0.000653657
0.0500317
1.7362e-06
0.000140959
2.5805e-05
1.1322e-06
2.59218e-05
6.10358e-06
9.3113e-05
3.60202e-05
0.0888601
0.102992
0.0630094
9.21632e-06
0.00146
1.58959e-05
0.000239791
1.11305e-06
0.00477048
5.24788e-05
1.7194e-07
0.00226078
2.70882e-05
0.00337292
0.02535
2.60569e-10
3.12084e-06
0.00186519
0
0.000531787
3.67407e-06
2.35212e-06
7.60372e-10
0.000718561
1.74258e-05
0.00127857
0.000203312
3.46152e-06
0.00639431
2.71109e-10
0.00652529
0.108331
0
0.160841
0
2.90523e-07
0.0333016
0.0559729
0.107581
6.11461e-07
4.49701e-07
0.0134739
0.00217546
0.00357621
0.00864043
1.6691e-10
0
0.0034427
0.166451
0.00150951
0.00110144
0.157115
9.10063e-05
0.0455441
4.51167e-08
5.64884e-09
1.27819e-07
0.000540581
2.37804e-10
4.4145e-06
0.00538463
1.20742e-10
0.00550036
0.00227648
1.88372e-05
1.2303e-07
8.32561e-10
3.75717e-10
0.000824394
0.088102
1.83437e-07
0.00628125
0
5.99503e-08
0.000458029
0.00237355
8.50798e-09
0.00231204
0.000557172
1.61161e-05
0.0617851
1.57633e-05
8.16777e-07
0
0.0208974
1.60711e-10
2.90697e-06
5.41144e-06
5.03884e-06
3.10284e-07
0.144474
1.13838e-08
2.90647e-10
4.44157e-07
0
7.79652e-05
2.14905e-05
1.47559e-05
0.000176341
2.84e-06
1.81709e-07
0.146432
0.00260861
0.00413217
0
0.00112289
0.000231063
0.0228413
1.58356e-07
2.45924e-05
2.95316e-07
0.00505526
0.176757
0
0.0125548
0.00640547
1.28116e-09
2.23336e-08
2.22009e-05
3.41605e-05
0
2.35721e-06
0.00271531
2.27242e-05
2.54501e-07
0
0.000372182
3.38309e-10
0.00399981
0.040432
2.12956e-07
2.72668e-07
0.0754334
1.03112e-07
0
0.146554
0.0020191
0.00176173
0.163183
8.21575e-08
6.08388e-09
0.145681
0.0729868
1.31313e-05
0
3.5017e-07
4.90921e-06
9.27725e-05
0.0735032
0.000661741
4.17441e-10
0.0106402
0
0.00441352
0.000842675
5.64339e-09
0.000864181
3.35283e-05
0.0546312
0.0700828
6.19326e-05
0.123736
0
3.43329e-07
2.90246e-05
1.15958e-07
0.00294749
0
0.173539
0.000134753
4.39759e-05
8.36994e-07
3.80669e-10
0.000123418
0.000658309
0.196895
0
7.67283e-08
1.86895e-10
0.0457362
0
6.11273e-10
0.0270155
6.66204e-05
0.0987835
0.0884775
4.5731e-06
1.81265e-06
0
0.00246997
0.000710647
5.96805e-08
1.00012e-05
0
0.0455236
1.36796e-08
0.13038
0.0727901
0.00598032
0.212996
6.01475e-06
8.77144e-05
2.44853e-07
0.000699902
0.255727
8.40026e-08
0.000938362
4.21325e-07
4.32063e-09
0.0150612
0
0
5.09366e-07
1.6733e-05
0.0498221
0.000814754
0.000637704
0.000317238
0.0388041
0.000598069
0.011789
0.00953142
0.00155173
0
0.00992418
0.0437552
0.00126225
0.000723871
0
0
1.35923e-07
0.000252404
0.0162372
2.62434e-10
3.18906e-05
2.5671e-09
0.0170912
0.0224184
1.47607e-07
0
0.0397764
1.11216e-06
4.80132e-09
0
0.00627991
0.0266746
7.40161e-07
2.90031e-07
1.66734e-06
1.11464e-06
5.21658e-05
0.00037153
0.000461154
0.16945
0.0889712
2.96478e-08
0.0403309
0
0.00159646
0.016404
0
0.00196475
0
1.10987e-08
0.0187573
1.1015e-05
0.047243
5.38344e-10
2.57567e-09
0.00114956
0.0394566
0.00955818
5.54506e-05
2.04258e-07
1.18473e-07
0.0787444
0.00376359
0
0.0955278
0.0947796
0.000126969
0.000228264
4.17226e-05
1.5895e-05
0.000426635
4.26523e-10
0.158747
2.3675e-08
4.55963e-05
9.16831e-06
3.19879e-08
9.58544e-09
6.94957e-05
1.37692e-05
1.10798e-10
5.90089e-08
0.00119675
0.0593927
0
1.46098e-07
0.00323319
0.0716522
1.66071e-08
0.00112439
0.0150055
5.27144e-06
0.28098
0.00137892
0.00346925
0.137342
0.00090373
0.111603
0.000444015
0.000598467
2.70858e-05
0.000178297
9.88707e-05
0.0223044
0.0302155
0.000184813
3.37929e-07
0
1.24804e-05
0.184806
0.00365173
4.05801e-09
3.09201e-08
3.44301e-06
4.18103e-06
9.8638e-09
0.0471191
0.000592409
1.14802e-09
0.00341418
0.00236899
5.01995e-08
0.00904627
1.14436e-05
8.39397e-05
3.81152e-05
4.23506e-09
0.0374358
0.000624288
4.10258e-08
0.0261432
0.00275424
0.0380196
7.6975e-06
0.00584278
0.000586272
0.000237933
0
1.28677e-05
7.90418e-06
7.10602e-10
1.67878e-10
0.0246099
4.21809e-07
5.26781e-10
0
1.20483e-05
4.45379e-05
6.78676e-05
0.178878
0.00241746
0
0.125325
5.11106e-05
1.71939e-05
1.61978e-10
5.16308e-07
0.000474881
0.00014397
0.0262693
0.0255662
0.000225402
2.38114e-08
0.0516905
0.0966662
0
0
2.93683e-05
2.44744e-05
0.00022182
0
0.110481
1.11252e-05
0.000148858
0
1.45363e-05
0
8.34671e-06
0
4.25354e-09
0.00209078
0.021662
0.00509814
0.0218717
0.23366
0.00254814
4.7437e-06
3.64094e-10
0.237907
2.37587e-05
1.45042e-06
0
0.0037469
6.27672e-07
5.80663e-05
0.00122588
0
0
0.00203457
0.000781163
0
5.13783e-05
3.42442e-05
3.6925e-05
0.00625988
0.0121697
1.76433e-10
0.196186
0.0715733
0.0950183
9.61942e-09
0.026954
1.46047e-05
0.00226366
2.38929e-10
2.63308e-10
0.00298962
0.000983809
0.00518506
0.00153396
0.000123057
4.04564e-10
0
2.37501e-09
0.000513769
0
0.0104104
0.000769914
0.119093
1.21523e-09
1.86923e-09
2.68178e-05
0
0.00237382
2.21516e-06
0.000192268
6.89518e-05
0.0556331
7.12913e-06
0.0533363
7.63979e-06
0.0491763
2.76558e-09
2.02533e-05
1.57283e-05
0.0662231
0.000890739
0.00842126
0.0102691
5.12639e-07
0.000617321
0.0135371
9.94318e-07
0.00849226
0
0.000325699
1.74935e-08
7.57771e-06
8.28037e-05
1.41142e-06
1.55946e-05
0
4.68283e-07
0.174716
0.155832
1.84782e-07
0
6.5042e-05
0.000334037
0.00480503
0.161038
0.174174
2.51748e-08
5.975e-08
1.68345e-10
2.56589e-07
2.77987e-05
0
0.0186353
0.000724733
1.50541e-07
6.9328e-08
3.80122e-06
7.67009e-05
0.000103114
0.0001044
0.00017861
0.0266045
4.34256e-05
0.019181
0.0322479
6.1501e-09
0.000115171
7.53868e-07
4.31523e-05
0.0237406
5.87063e-05
0.000168373
3.26229e-05
0
8.51442e-06
5.71538e-05
0.152932
0.0120953
0.188737
2.98139e-07
1.80427e-05
0.0131028
0.00793348
0.0296107
0.22635
0.0039077
0.00550083
0.000442343
1.00491e-05
4.79164e-05
0.000152051
6.10855e-05
7.27174e-05
1.22082e-05
0.0246634
0
2.27159e-10
8.95032e-05
0.00205051
0.000536422
0.000443024
2.8614e-07
3.24431e-07
0.000335949
1.61197e-10
4.15081e-05
0.000119801
2.04609e-07
6.41106e-09
0.0344745
6.81393e-08
6.80203e-09
2.82246e-06
0.00102344
0
0.0120309
0.00151371
5.80118e-08
8.11945e-08
0.0123663
0
1.65402e-10
0.0119714
0.0160722
0.119803
5.00591e-07
0
0.0329855
6.20747e-05
0.0323921
9.67376e-05
5.70126e-05
2.62264e-10
0
1.46227e-10
7.21759e-05
0.000331127
0.000411607
0.000136518
0.00399799
0.000171234
2.84712e-06
4.38007e-06
2.62677e-09
0
9.30497e-05
2.30721e-06
4.99972e-05
2.24957e-05
0.0223499
0.161075
0.117558
0.040745
0
0.00306277
0.0780427
0.0592267
0
0.211821