# vtk DataFile Version 2.0
Unstructured Grid by M++
ASCII
DATASET UNSTRUCTURED_GRID
POINTS 4072 float
  0.609375   0.843750 0
  0.562500   0.843750 0
  0.531250   0.843750 0
  0.875000   0.828125 0
  0.984375   0.828125 0
  0.953125   0.828125 0
  0.937500   0.828125 0
  0.843750   0.828125 0
  0.812500   0.828125 0
  0.781250   0.828125 0
  0.765625   0.828125 0
  0.734375   0.828125 0
  0.703125   0.828125 0
  0.671875   0.828125 0
  0.640625   0.828125 0
  0.609375   0.828125 0
  0.593750   0.828125 0
  0.562500   0.828125 0
  0.546875   0.828125 0
  0.531250   0.828125 0
  0.515625   0.828125 0
  0.968750   0.812500 0
  0.937500   0.812500 0
  0.921875   0.812500 0
  0.890625   0.812500 0
  0.859375   0.812500 0
  0.828125   0.812500 0
  0.796875   0.812500 0
  0.765625   0.812500 0
  0.750000   0.812500 0
  0.718750   0.812500 0
  0.687500   0.812500 0
  0.656250   0.812500 0
  0.625000   0.812500 0
  0.593750   0.812500 0
  0.578125   0.812500 0
  0.546875   0.812500 0
  0.531250   0.812500 0
  0.515625   0.812500 0
  0.984375   0.796875 0
  0.562500   0.015625 0
  0.953125   0.796875 0
  0.921875   0.796875 0
  0.906250   0.796875 0
  0.875000   0.796875 0
  0.843750   0.796875 0
  0.812500   0.796875 0
  0.781250   0.796875 0
  0.750000   0.796875 0
  0.734375   0.796875 0
  0.703125   0.796875 0
  0.671875   0.796875 0
  0.640625   0.796875 0
  0.609375   0.796875 0
  0.578125   0.796875 0
  0.562500   0.796875 0
  0.531250   0.796875 0
  0.515625   0.796875 0
  0.968750   0.781250 0
  0.546875   0.000000 0
  0.937500   0.781250 0
  0.906250   0.781250 0
  0.890625   0.781250 0
  0.859375   0.781250 0
  0.828125   0.781250 0
  0.796875   0.781250 0
  0.765625   0.781250 0
  0.734375   0.781250 0
  0.718750   0.781250 0
  0.687500   0.781250 0
  0.656250   0.781250 0
  0.625000   0.781250 0
  0.593750   0.781250 0
  0.562500   0.781250 0
  0.546875   0.781250 0
  0.515625   0.781250 0
  0.984375   0.765625 0
  0.953125   0.765625 0
  0.921875   0.765625 0
  0.890625   0.765625 0
  0.875000   0.765625 0
  0.843750   0.765625 0
  0.812500   0.765625 0
  0.781250   0.765625 0
  0.750000   0.765625 0
  0.718750   0.765625 0
  0.703125   0.765625 0
  0.671875   0.765625 0
  0.640625   0.765625 0
  0.609375   0.765625 0
  0.578125   0.765625 0
  0.593750   0.750000 0
  0.562500   0.765625 0
  0.546875   0.765625 0
  0.531250   0.765625 0
  0.562500   0.750000 0
  0.968750   0.750000 0
  0.937500   0.750000 0
  0.906250   0.750000 0
  0.875000   0.750000 0
  0.859375   0.750000 0
  0.828125   0.750000 0
  0.796875   0.750000 0
  0.765625   0.750000 0
  0.734375   0.750000 0
  0.703125   0.750000 0
  0.687500   0.750000 0
  0.671875   0.750000 0
  0.656250   0.750000 0
  0.625000   0.750000 0
  0.546875   0.750000 0
  0.531250   0.750000 0
  0.515625   0.750000 0
  0.562500   0.734375 0
  0.984375   0.734375 0
  0.953125   0.734375 0
  0.921875   0.734375 0
  0.890625   0.734375 0
  0.859375   0.734375 0
  0.843750   0.734375 0
  0.812500   0.734375 0
  0.781250   0.734375 0
  0.750000   0.734375 0
  0.718750   0.734375 0
  0.687500   0.734375 0
  0.671875   0.734375 0
  0.656250   0.734375 0
  0.640625   0.734375 0
  0.546875   0.734375 0
  0.531250   0.734375 0
  0.515625   0.734375 0
  0.562500   0.718750 0
  0.968750   0.718750 0
  0.937500   0.718750 0
  0.906250   0.718750 0
  0.875000   0.718750 0
  0.843750   0.718750 0
  0.796875   0.718750 0
  0.765625   0.718750 0
  0.734375   0.718750 0
  0.703125   0.718750 0
  0.687500   0.718750 0
  0.671875   0.718750 0
  0.656250   0.718750 0
  0.625000   0.718750 0
  0.546875   0.718750 0
  0.531250   0.718750 0
  0.515625   0.718750 0
  0.562500   0.703125 0
  0.953125   0.703125 0
  0.921875   0.703125 0
  0.890625   0.703125 0
  0.859375   0.703125 0
  0.828125   0.703125 0
  0.781250   0.703125 0
  0.750000   0.703125 0
  0.718750   0.703125 0
  0.687500   0.703125 0
  0.656250   0.703125 0
  0.546875   0.703125 0
  0.531250   0.703125 0
  0.515625   0.703125 0
  0.984375   0.687500 0
  0.937500   0.687500 0
  0.921875   0.687500 0
  0.906250   0.687500 0
  0.875000   0.687500 0
  0.843750   0.687500 0
  0.812500   0.687500 0
  0.765625   0.687500 0
  0.734375   0.687500 0
  0.703125   0.687500 0
  0.671875   0.687500 0
  0.640625   0.687500 0
  0.593750   0.687500 0
  0.562500   0.687500 0
  0.546875   0.687500 0
  0.531250   0.687500 0
  0.515625   0.687500 0
  0.968750   0.671875 0
  0.937500   0.671875 0
  0.921875   0.671875 0
  0.906250   0.671875 0
  0.890625   0.671875 0
  0.859375   0.671875 0
  0.828125   0.671875 0
  0.796875   0.671875 0
  0.765625   0.671875 0
  0.750000   0.671875 0
  0.718750   0.671875 0
  0.687500   0.671875 0
  0.656250   0.671875 0
  0.625000   0.671875 0
  0.593750   0.671875 0
  0.578125   0.671875 0
  0.546875   0.671875 0
  0.531250   0.671875 0
  0.515625   0.671875 0
  0.984375   0.656250 0
  0.953125   0.656250 0
  0.937500   0.656250 0
  0.921875   0.656250 0
  0.906250   0.656250 0
  0.875000   0.656250 0
  0.843750   0.656250 0
  0.812500   0.656250 0
  0.781250   0.656250 0
  0.750000   0.656250 0
  0.734375   0.656250 0
  0.703125   0.656250 0
  0.671875   0.656250 0
  0.640625   0.656250 0
  0.609375   0.656250 0
  0.578125   0.656250 0
  0.562500   0.656250 0
  0.531250   0.656250 0
  0.515625   0.656250 0
  0.968750   0.640625 0
  0.937500   0.640625 0
  0.906250   0.640625 0
  0.890625   0.640625 0
  0.859375   0.640625 0
  0.828125   0.640625 0
  0.796875   0.640625 0
  0.765625   0.640625 0
  0.734375   0.640625 0
  0.718750   0.640625 0
  0.687500   0.640625 0
  0.656250   0.640625 0
  0.625000   0.640625 0
  0.593750   0.640625 0
  0.562500   0.640625 0
  0.546875   0.640625 0
  0.515625   0.640625 0
  0.984375   0.625000 0
  0.953125   0.625000 0
  0.921875   0.625000 0
  0.890625   0.625000 0
  0.875000   0.625000 0
  0.843750   0.625000 0
  0.812500   0.625000 0
  0.781250   0.625000 0
  0.750000   0.625000 0
  0.734375   0.625000 0
  0.718750   0.625000 0
  0.703125   0.625000 0
  0.671875   0.625000 0
  0.640625   0.625000 0
  0.609375   0.625000 0
  0.578125   0.625000 0
  0.562500   0.625000 0
  0.546875   0.625000 0
  0.531250   0.625000 0
  0.968750   0.609375 0
  0.937500   0.609375 0
  0.906250   0.609375 0
  0.875000   0.609375 0
  0.859375   0.609375 0
  0.828125   0.609375 0
  0.796875   0.609375 0
  0.765625   0.609375 0
  0.750000   0.609375 0
  0.734375   0.609375 0
  0.718750   0.609375 0
  0.703125   0.609375 0
  0.687500   0.609375 0
  0.656250   0.609375 0
  0.625000   0.609375 0
  0.593750   0.609375 0
  0.562500   0.609375 0
  0.546875   0.609375 0
  0.531250   0.609375 0
  0.515625   0.609375 0
  0.984375   0.593750 0
  0.953125   0.593750 0
  0.921875   0.593750 0
  0.890625   0.593750 0
  0.859375   0.593750 0
  0.843750   0.593750 0
  0.812500   0.593750 0
  0.781250   0.593750 0
  0.750000   0.593750 0
  0.734375   0.593750 0
  0.718750   0.593750 0
  0.687500   0.593750 0
  0.671875   0.593750 0
  0.640625   0.593750 0
  0.609375   0.593750 0
  0.578125   0.593750 0
  0.562500   0.593750 0
  0.546875   0.593750 0
  0.531250   0.593750 0
  0.515625   0.593750 0
  0.968750   0.578125 0
  0.937500   0.578125 0
  0.906250   0.578125 0
  0.875000   0.578125 0
  0.890625   0.562500 0
  0.843750   0.578125 0
  0.828125   0.578125 0
  0.796875   0.578125 0
  0.765625   0.578125 0
  0.734375   0.578125 0
  0.703125   0.578125 0
  0.671875   0.578125 0
  0.656250   0.578125 0
  0.656250   0.562500 0
  0.625000   0.578125 0
  0.640625   0.562500 0
  0.593750   0.578125 0
  0.562500   0.578125 0
  0.546875   0.578125 0
  0.531250   0.578125 0
  0.515625   0.578125 0
  0.859375   0.562500 0
  0.828125   0.562500 0
  0.781250   0.562500 0
  0.750000   0.562500 0
  0.718750   0.562500 0
  0.687500   0.562500 0
  0.609375   0.562500 0
  0.578125   0.562500 0
  0.562500   0.562500 0
  0.546875   0.562500 0
  0.531250   0.562500 0
  0.515625   0.562500 0
  1.000000   0.812500 0
  0.578125   0.031250 0
  0.875000   0.546875 0
  0.625000   0.546875 0
  0.218750   0.000000 0
  0.640625   0.781250 0
  0.828125   0.093750 0
  0.031250   0.531250 0
  0.296875   0.328125 0
  0.296875   0.312500 0
  0.281250   0.312500 0
  0.765625   0.312500 0
  0.031250   0.859375 0
  0.093750   0.265625 0
  0.109375   0.250000 0
  0.187500   0.671875 0
  0.421875   0.640625 0
  0.031250   0.062500 0
  0.140625   0.125000 0
  0.562500   0.906250 0
  0.125000   0.437500 0
  0.203125   0.937500 0
  0.125000   0.421875 0
  0.140625   0.406250 0
  0.093750   0.437500 0
  0.109375   0.421875 0
  0.093750   0.421875 0
  0.109375   0.406250 0
  0.328125   0.125000 0
  0.750000   0.906250 0
  0.328125   0.109375 0
  0.750000   0.890625 0
  0.312500   0.125000 0
  0.734375   0.906250 0
  0.281250   0.343750 0
  0.265625   0.359375 0
  0.500000   0.796875 0
  0.078125   0.015625 0
  0.062500   0.015625 0
  0.484375   0.796875 0
  0.484375   0.781250 0
  0.062500   0.000000 0
  0.015625   0.250000 0
  0.062500   0.046875 0
  0.484375   0.828125 0
  0.484375   0.812500 0
  0.062500   0.031250 0
  0.281250   0.671875 0
  0.062500   0.234375 0
  0.328125   0.765625 0
  0.312500   0.750000 0
  0.015625   0.671875 0
  0.781250   0.187500 0
  0.015625   0.265625 0
  0.453125   0.250000 0
  0.453125   0.234375 0
  0.031250   0.265625 0
  0.046875   0.250000 0
  0.093750   0.015625 0
  0.265625   0.656250 0
  0.734375   0.281250 0
  0.156250   0.015625 0
  0.062500   0.265625 0
  0.046875   0.281250 0
  0.031250   0.281250 0
  0.343750   0.781250 0
  0.328125   0.781250 0
  0.265625   0.687500 0
  0.265625   0.703125 0
  0.156250   0.109375 0
  0.578125   0.890625 0
  0.484375   0.984375 0
  0.062500   0.203125 0
  0.328125   0.718750 0
  0.343750   0.734375 0
  0.343750   0.750000 0
  0.453125   0.500000 0
  0.437500   0.500000 0
  0.234375   0.093750 0
  0.171875   0.375000 0
  0.437500   0.531250 0
  0.468750   0.546875 0
  0.453125   0.546875 0
  0.187500   0.015625 0
  0.187500   0.000000 0
  0.609375   0.781250 0
[...]
CELL_DATA 7648
SCALARS scalar_value float 1
LOOKUP_TABLE default
0.114012
0.101495
0.0857069
0.10941
8.68737e-10
5.23842e-10
5.34446e-10
3.41655e-10
0.0984722
0.0835317
0.079497
1.6068e-09
6.5831e-10
1.31305e-09
0.254643
0.259393
0.24791
0.270633
0.0506535
0.0487447
0.0542222
0.043652
7.31534e-05
0.00681335
0.00721711
0.00981955
0.00588628
0.0156851
0.0130643
2.45938e-05
2.68033e-05
3.83846e-05
1.54214e-05
5.77456e-05
6.10257e-05
8.39953e-05
3.61272e-05
9.85656e-06
1.08936e-05
1.53068e-05
0.000510496
0.00103395
0.00460983
0.0029965
0.00232645
9.17634e-05
6.56068e-05
5.93892e-05
0.000902521
0.000136783
1.33511e-06
0.00161514
0.00201772
0.00176409
1.36804e-05
0.00890604
7.50475e-06
8.45687e-06
0.00300892
0.00413505
0.00564907
0.0183349
0.000791318
1.30328e-06
1.8112e-06
1.26514e-07
1.42938e-07
0.00219966
0.00746293
7.79408e-06
0.21184
0
0.0170035
0.0156574
1.16893e-05
6.16656e-08
0.0354021
1.14871e-07
4.00506e-06
0.0134334
0.0114376
9.3495e-10
7.69047e-06
7.8974e-08
7.67963e-06
3.78427e-05
0.189398
0.182366
1.02282e-07
0
9.95263e-05
6.34964e-08
0.0556571
0.0628773
2.70572e-08
0.00402814
0.000190299
0.00718557
0.000242069
0.000149652
0.0137403
0.00101323
0.0123748
0.0101893
0.00237624
0.00538033
0.146813
8.5242e-06
4.1631e-06
0.000257033
0.00389405
4.62507e-05
3.15155e-05
4.94464e-08
0.0762569
3.77013e-08
0.0838737
0.0670255
0.00102214
5.51172e-10
3.32439e-10
1.04342e-10
2.69583e-08
0.00454317
3.73882e-09
6.53089e-09
3.36317e-09
0.00595828
0.00373043
0.00671869
2.80447e-08
0.000639124
3.10346e-08
2.51781e-08
0.254465
8.82091e-09
0.0397512
0.0022646
0.000131097
6.36423e-05
6.23527e-06
4.71171e-05
4.47132e-05
5.85145e-05
3.72521e-05
0.000106714
1.30479e-10
0.00103628
5.88895e-07
4.20695e-07
2.81635e-07
0.0121331
0.0148115
0.0180942
0
0
2.54011e-08
8.74862e-05
0.000152123
0.00260202
0
0.0540748
0.0602732
0.0239439
0.000218522
0.000122148
4.20845e-05
0.000188371
0.0126971
5.81578e-10
4.11988e-08
0.000699491
1.98285e-05
0
3.82383e-05
0.000259907
5.03643e-09
0.000589464
0.0274648
0.000564044
0.000327737
0.0228201
4.99789e-06
0.0226026
5.3724e-09
0.00692678
2.68424e-06
1.57446e-09
3.52703e-09
0.00698923
2.3709e-09
0.00361369
2.5612e-06
3.57331e-06
0.0008975
1.7466e-06
1.8034e-06
1.23512e-06
1.68444e-07
2.27381e-07
2.03956e-07
9.31964e-07
0.0199297
1.30801e-06
1.37676e-06
0.00498583
0.00511388
5.67092e-09
2.4875e-09
4.34654e-09
0.00175653
0.00255066
0.00350974
0.0023606
0.0015605
0.0786343
0
4.95142e-10
5.39727e-10
0.000976102
0.000659565
0.00158084
0.000998099
0.000224779
0.00191282
3.70475e-05
0.00081258
0.000630344
0.00249007
0.00298397
7.65129e-08
1.49788e-07
0.00325315
0.0494625
1.51659e-07
9.4392e-08
7.26853e-08
7.11884e-08
0.00186506
2.16994e-09
0.00197043
0
0.20671
2.04743e-07
1.40064e-07
0.00245653
0.166295
0.00356279
0.00242118
3.77071e-05
0.00458903
4.66691e-06
0.00416049
0.00471136
0.00372417
0.0385204
0.0781311
2.43382e-07
1.1208e-07
0.0406966
0.0459125
0.0431692
0.000156836
0.00178464
0.000342311
0.00315355
8.71291e-05
0.000479221
4.25459e-05
0.00669817
3.68938e-05
0.0144007
1.23355e-10
5.527e-10
0
0.000189449
2.70889e-09
1.75167e-06
0.177047
0.199047
0.000500171
0.0802308
3.23525e-06
0
0.206897
1.93442e-06
0
0.000202139
9.10649e-07
0.000190678
2.12558e-06
1.75967e-09
5.27162e-05
2.64119e-07
0.0986378
0.0919578
2.47952e-07
0.0960371
1.17423e-08
5.48172e-06
0.0019238
0.256018
0
6.60844e-07
0.0312508
0.0265305
0.0239263
0.0518514
5.07694e-06
0.134545
0.12651
0.000248477
3.13737e-09
1.74699e-06
2.35259e-08
0.0125139
0.081231
3.64726e-08
0.0731483
0.015462
0.0649997
0.02302
0.101897
0.00209162
0.000774891
0.00817823
0.00265059
0.0017548
0.00120322
0.00493236
0.000375719
0.010738
0.000134925
0.141256
0
0.154207
0
1.80029e-08
1.65118e-08
0.00106885
0.0037785
2.02869e-08
1.27842e-08
1.42568e-09
4.06329e-10
0.227677
0.198123
0
6.30209e-07
1.97075e-07
3.23999e-07
2.55785e-07
0.0527099
2.08169e-05
7.57883e-05
6.15267e-05
0.000235666
2.18624e-10
2.22352e-10
1.48735e-10
0.0168606
0.0184514
0.024633
0.248816
0.00097884
1.13147e-07
0.000223286
7.13887e-07
1.17283e-05
1.12411e-05
0.0013962
0.260526
8.94413e-05
0.00876158
4.73584e-05
0.00384749
0
1.12289e-05
1.67281e-05
0.0253992
0.0931845
3.01884e-05
0.00129834
4.16875e-05
0.00176687
0.0442908
0.00147631
0.240238
0.000775313
1.73815e-07
7.00985e-08
0.219382
2.32542e-07
8.76378e-08
1.24412e-06
3.34502e-05
0.000735562
1.15669e-08
3.20706e-09
0.239006
8.76429e-06
4.18153e-06
0.000623635
2.58692e-05
0.000348099
0.241956
0.000303629
0.0197826
8.31897e-07
1.8654e-05
0
6.81602e-06
8.60219e-06
1.62366e-10
0.18393
6.93857e-06
2.49208e-07
4.77653e-06
0.000134842
0.220512
0.0275589
0.236217
4.12389e-10
0.0108217
0.0456259
0.0413071
0
0.0419788
1.29859e-05
0.003637
0.00129368
0.00147586
0.00288308
5.37267e-05
0.00313439
0.00198379
0.000847094
4.78164e-09
2.59803e-07
0.00409841
0.010852
0.00613925
0.0197487
0.0345024
3.24247e-05
0.0442631
2.48757e-05
2.3294e-05
0.00362814
0.00221172
1.24625e-07
0.00138654
0.0028757
0.00232724
0.002968
0.00400758
0.00500825
0.00422681
4.24458e-05
6.79899e-08
5.4714e-07
0.00502763
0.00798295
0.00603118
1.47316e-10
0.00225328
0.00184985
2.87262e-05
7.74137e-10
0.000101937
0.00277703
5.85602e-06
0.18736
1.01342e-07
6.49534e-06
0.177207
0.00068492
0.00869848
6.11062e-10
0.00472275
3.76934e-09
0.151892
1.46122e-08
5.41922e-09
0.0127044
0.0107564
0.00782005
0.000716516
0.00166081
0.00182007
4.1889e-06
0.101216
5.84034e-06
0.170416
1.5859e-05
1.22355e-06
0.000424437
3.72954e-10
0.0112866
0.00125307
0.000942114
9.51205e-06
0.0411505
2.41326e-05
1.68122e-05
2.86777e-05
0.00302162
0.0023921
0.00195757
0.00200332
3.28871e-09
0.000163202
0.00488847
4.38308e-05
9.52481e-05
0.000707904
0.00543299
0.00286925
0.000577426
0.00486597
0.0023091
5.19307e-05
0.000204869
0.000328832
3.26625e-07
0.0147403
3.06784e-09
0.000132147
0.0121223
0.0100599
0.000176569
0.000844706
0
0.00117147
0.000259222
1.38361e-06
0.000174763
2.76369e-06
0.000146702
0.000224724
0.000202362
8.58503e-05
0.000150291
0.000116095
2.00047e-07
0.17179
0
0.017357
2.09368e-07
0.0115157
0.0131089
7.40673e-09
0.0441646
0.0400757
0.0457355
0.0322187
0.0424133
0.00026577
0.000680868
0.000243191
0.000275909
0.000816468
0.00029893
0.00126444
0.00725867
0.00547677
0.00163573
0.00699121
0.0079359
0.00557093
0.0131097
1.5785e-07
0.0134193
0.000222189
0.0013485
0.236006
1.91535e-05
0.000638351
1.69983e-10
0.0491549
0.0442234
0.0477019
0.000431687
0.00063938
1.11578e-07
0.00028945
0.204592
0.000549951
0.000164238
0.000120706
6.69314e-05
3.01019e-08
5.9423e-05
0.00196471
3.90641e-08
0.00496569
0.289755
0.0110719
0.0012265
0.00473604
0.00153461
0.00104872
2.48129e-05
0.00077335
0.00903992
0
0.000874172
0
0.256841
6.53289e-10
4.38623e-10
2.66767e-10
3.92849e-05
4.73272e-05
5.2594e-05
0.042572
1.54433e-07
0.0367907
0.00116385
3.33718e-06
6.74719e-05
6.81332e-06
5.58216e-06
0.00104738
0
0.00132892
0.00078791
6.03509e-06
9.3198e-06
0.00116237
0.00168467
2.57084e-07
3.36898e-06
2.6142e-06
2.0008e-08
0.156117
9.497e-09
0.00402106
0.27876
0.277626
3.80827e-09
7.20661e-09
0.103414
6.03315e-07
1.86574e-05
0.00228974
5.16108e-09
8.36336e-05
0.000126819
1.69451e-07
0.00071496
0.00143894
0.00164491
6.93679e-05
5.25283e-07
0.216366
6.54438e-05
0.194326
0.278388
0.142904
0.00475199
0.0443938
0.137364
0.000643873
0.000210944
2.09634e-06
0.000851766
0.000340926
2.91225e-09
5.50094e-09
2.74192e-09
0.00897256
3.41294e-09
0.00333667
2.1688e-09
8.30266e-05
0.174223
0.160194
0.139394
1.32896e-05
1.29501e-05
9.26889e-06
0.0499363
6.33108e-09
0.143388
0.000950747
0.000135414
0.00137703
5.28413e-05
0
0.000958726
0.000712448
0.000231897
0.0481051
0.000811478
0.000419151
0.0678542
0.029318
6.9053e-07
0.000162347
0.000258983
2.13644e-09
0.0151787
0.0642977
0.0194926
0.0412616
0.0103582
0.00847543
3.11681e-06
2.5914e-06
5.72882e-07
3.47979e-07
2.4398e-07
0.0054299
0.00692129
8.37179e-07
6.62785e-07
0.00340753
0.0167691
8.63802e-07
4.12369e-07
0.0191493
0.0160288
0.0152895
3.59053e-06
2.85297e-06
0.00498565
1.79208e-06
0.0298351
0.0322719
0.0272708
1.4426e-05
1.15805e-05
7.41803e-06
0.0165191
0.0111745
0.211011
4.36588e-05
5.47323e-05
2.86674e-05
3.55964e-08
4.27925e-05
2.10009e-05
2.23372e-05
0.00660919
0.0389732
0.18257
0.0302405
0.0956204
0.001478
4.59769e-05
3.96479e-05
2.64978e-05
0.000727123
0.00151308
0.000932865
0.00105957
3.13013e-05
2.53237e-05
3.91975e-07
6.21477e-08
0.00108186
6.59756e-05
0.000132219
0.000120604
0.000122413
0
1.76006e-05
0.00371545
0.0680841
0.0551506
0.0602018
0.232673
0.226489
0.224043
0.00297654
7.36596e-06
0.00321678
0.00232586
0.0518221
0.0435647
0.106869
0.134623
3.23289e-07
4.11188e-10
1.29179e-06
0.0786171
0.0664792
8.03103e-08
0.0048339
0.0035023
0.000474018
0.0749434
0.0218847
2.2884e-09
0.104627
0.0181259
4.54305e-06
7.79409e-05
3.51414e-06
1.82674e-05
0.000283732
2.33178e-06
0.0319963
0.0735305
0.000124684
0.00747562
0.0468696
0.0513055
0.0309539
0.0568649
2.46276e-07
0.0799669
5.59698e-05
0.0670716
0.0632646
0.0102213
0.202925
0.00145138
0.000769549
1.8916e-05
3.02035e-07
1.31748e-09
0.000334123
0.000169914
4.70835e-10
6.14247e-06
0.0124285
6.44737e-08
0.00083918
1.20704e-07
0.00204216
0.0048457
0.004126
0.00493514
0.201406
0.195994
2.5166e-10
2.38481e-05
3.28616e-05
0.00846004
0.0375855
0.0289878
5.60433e-09
0.00222199
2.97892e-07
1.28471e-05
0.00460835
0.0148464
0.000211123
0
0.164166
0.0018691
0.00138701
0.151898
0.00154293
0.000257811
0.0129979
0.247134
0.0769329
0.00118216
0.00350541
0.000824245
0
0.00125573
1.28001e-06
1.3434e-08
0.0147647
0.00263793
0.000869102
0.00290263
0.0047251
0.00198183
1.99845e-09
3.89651e-09
1.5109e-09
0.040114
0.00131419
5.08526e-08
0.00531227
9.42099e-10
0.00867743
0.00186316
0.00130803
3.90212e-10
0.00405577
0.00340051
0.00234373
0.00745679
9.04431e-10
3.48422e-10
0.122088
0.102381
0.126751
5.90303e-07
0.0140096
1.34486e-07
4.38316e-08
0.0229808
0.0170084
0.182522
0.0185669
1.49051e-06
0.000101454
1.16687e-07
0.0187984
3.61764e-07
0.0198603
0.013408
0.0387145
0.0283913
0.0156982
0.0438513
6.25842e-06
3.73279e-06
2.00285e-08
0.00960003
6.15623e-05
0.0117135
0.0126549
0.0240011
1.3626e-09
0.00014522
0.0155104
0.00783034
0.000612859
9.07909e-05
0.0214849
5.47315e-05
6.86055e-05
3.02365e-08
2.18393e-06
0.00403537
0.00371214
0.00282748
0.0044075
0.0376074
0.00568942
0.0250702
0.0150763
0.00712221
0.00349661
0.000439116
0.00600219
0.00350592
0.00519254
2.40779e-07
2.37265e-08
0.000100721
5.41978e-05
0.000114868
0.00988878
0.0171406
0.000551361
0.0650064
0.0444806
0.0196071
3.10157e-06
1.52948e-06
0.00337433
1.61909e-07
1.1274e-07
0
6.20603e-10
2.67308e-05
1.38594e-08
4.96493e-08
0.0674483
0.0172571
0
2.71085e-10
4.06184e-06
0.000432425
0
0.0122094
1.74586e-05
7.99985e-09
0
1.14843e-08
4.33388e-09
0.00038503
1.03511e-08
0
0.0242142
9.44306e-06
4.17104e-06
0.0130983
1.72612e-05
1.54621e-05
0.00494526
3.40967e-06
0.0803204
2.24574e-08
0.0595428
0.000374907
0.0154932
0.0120245
0.000516688
2.63486e-08
0.0281999
2.9613e-09
0.000933043
0.0264128
2.31004e-05
3.27083e-08
0.000840429
1.56622e-08
0.000439496
0.0328592
1.97143e-06
1.46094e-08
0
1.48686e-05
0.00115045
0.0405555
0.184766
0
0.0453788
0.0358439
0.193191
0.0518101
0.0224666
2.82868e-06
0.000727505
0.0790273
0.0525628
0.0615965
3.87957e-07
9.0425e-06
0
4.2504e-06
3.8961e-07
2.55604e-06
3.938e-06
1.00559e-06
0.0749274
0.170783
0.0123927
2.07667e-10
0.00194745
0.000195636
0.0231045
0.0245014
1.04238e-05
1.53334e-06
0.000131336
0.0265228
0
3.10337e-08
1.55844e-08
0.0251301
8.15969e-10
0.137673
4.43369e-10
1.98474e-06
3.76362e-07
0.00646405
0.0256088
0.000131796
0
0.0458012
0
1.91712e-08
0.000513151
0.0140037
0.000159497
0.0215496
0.0937033
0.0803152
0.000388086
1.33061e-10
0.000142937
0.0146105
0.00144632
0.00110591
0.0163816
7.67509e-06
0
1.60497e-08
0
1.69898e-05
1.90574e-10
0
0.0468744
5.6273e-06
0.00517549
3.11357e-10
0
2.82287e-10
0
0.0074338
0.232424
1.03961e-05
2.00024e-08
0.000133942
3.9835e-06
1.35304e-10
0.216671
0.000640739
0.00011149
0
0.000530291
0.00156146
0.199003
0.000200142
0.00791086
1.54265e-05
0.000109642
0.000958444
0.000431444
0.0031559
0.000510881
0.000308517
0.0053419
0.000112308
0.215816
0.00013135
5.94145e-09
0.0342511
5.61048e-07
0.011099
0.0010377
7.74178e-09
0.024217
2.17565e-09
0.200674
0.00437091
0.000380741
2.42932e-05
0.047207
2.57621e-05
0.262654
2.40836e-05
9.2582e-05
0.00941791
1.84585e-07
0.00423824
4.54853e-06
0.0369998
0.000130945
2.70757e-09
0.269927
0.129776
0.000636112
0.0199429
0.000147341
0.0225935
7.74959e-07
0.0360783
2.269e-05
5.98892e-06
1.12767e-09
8.49627e-05
0.000758787
1.36716e-06
2.21886e-09
1.53671e-05
8.74368e-06
0.00326274
0.014559
0.012221
0.00682949
5.07307e-05
0.000598443
0.00891762
1.49369e-07
0.00820968
7.2621e-06
1.13409e-05
0.148989
0.016305
0.0105505
0.0343099
0.0927437
4.11227e-05
0.0258693
0.0582013
0.0119854
5.46141e-08
0.0820585
0.0217732
1.95202e-05
0.0191598
7.57251e-09
0.0530527
1.70743e-05
3.05564e-07
0.0187736
9.56736e-05
2.67074e-08
6.51803e-09
2.19306e-08
0.0234474
1.5185e-05
1.00725e-05
0.000686718
0.0517704
0.0182737
0.0149768
1.63272e-10
3.18186e-05
0.0216071
0.0335957
0.00512669
0.0741666
2.13291e-08
0.0656164
4.40558e-09
1.51545e-08
0.0240814
0
7.04262e-08
0.0124859
0.000645005
0.0297143
2.31012e-10
0.0134146
9.4611e-10
0
0.022861
1.33566e-10
9.65353e-09
0.0177991
0.00274073
0.24419
5.57163e-05
2.49005e-06
0.000606644
0.00369271
0.00554907
0.000102439
4.02912e-07
0.000252243
0.000469048
0.000859539
8.96717e-05
8.02977e-05
0.0757442
0.000212535
0.000188008
3.66225e-06
4.57866e-07
0.00139455
2.15052e-10
0.106776
0.000611915
0.00080165
1.3822e-09
0.110462
0.00157505
0.00391274
0.170606
0.208731
5.5606e-06
0.0136719
9.84887e-06
0.148862
0.188934
0.000144686
0.00359128
0.00114147
2.18186e-09
0.000518662
0.000170836
0
0.010627
1.4206e-10
1.36103e-09
0.0173188
0
2.23082e-05
4.08584e-10
0.00178493
0.0516991
2.37538e-08
7.5951e-05
0.00150007
0.00214306
3.22917e-05
1.12726e-05
0.00239586
1.48248e-06
1.85787e-06
3.9027e-10
0.00223615
0.00950059
0.286771
4.31132e-09
0
0.0400461
1.84758e-07
6.02916e-10
0.0271749
7.16134e-06
0.00124806
5.12707e-06
4.09309e-09
0.25837
0.0547683
1.82633e-07
1.3977e-08
0.0783159
6.30879e-10
9.73324e-10
0
4.08249e-09
3.54219e-06
1.72246e-07
1.04122e-09
0.00421809
0.0211438
0.0197716
0.0087497
7.91679e-08
4.35064e-09
0.0178824
0.0176696
0.0606497
0.00376424
0.00246239
0.0588061
1.17514e-06
0.000101551
9.78028e-05
6.18034e-06
1.32292e-05
4.02194e-06
5.14572e-05
0.000132411
0.084941
0.0703853
0.0564545
4.68327e-06
0.00081278
8.15251e-06
0.000128088
7.49868e-07
0.00977386
0.000119769
1.22149e-07
0.00342383
0.000131308
0.00538273
0.0310323
5.0776e-09
2.42948e-05
0.00317274
0
0.00124467
1.89658e-06
1.89392e-05
1.02576e-09
0.00114866
8.8297e-05
0.00211576
0.000177166
2.51316e-05
0.00442645
2.44891e-10
0.0169284
0.10419
2.78586e-10
0.210315
0
2.6863e-06
0.0403082
0.0357337
0.0713527
5.70572e-06
4.3422e-06
0.0235689
0.00185037
0.00882848
0.00825757
1.69379e-10
0
0.0023276
0.174633
0.00527711
0.0041026
0.180383
0.000308098
0.0301033
2.83728e-08
9.08235e-08
1.20706e-06
0.00203545
2.04007e-10
3.23106e-05
0.00886431
2.85042e-09
0.00312354
0.00732063
7.46479e-05
1.51301e-06
1.17247e-08
4.95647e-10
0.00262081
0.0575541
2.11534e-06
0.0174011
0
5.12719e-07
0.000354152
0.00138574
1.01104e-08
0.00293176
0.00169654
5.38626e-05
0.0572784
1.6686e-05
5.60096e-07
0
0.0125366
2.93547e-09
2.47947e-05
4.1813e-05
4.03853e-05
3.46452e-06
0.112462
1.31595e-08
6.31146e-09
4.78729e-06
0
0.000128248
9.17995e-05
7.12003e-05
0.000288344
3.15527e-06
2.16008e-06
0.163437
0.00844243
0.00243787
0
0.00063745
0.000165292
0.0239343
1.76213e-06
1.30385e-05
3.3332e-06
0.0143713
0.166821
1.93168e-10
0.0279939
0.0166806
1.29522e-09
3.08242e-07
0.000148153
0.000215046
0
2.07541e-05
0.00822301
8.50342e-05
2.84855e-06
3.23367e-10
0.000213915
7.17014e-09
0.00236747
0.0487798
2.47062e-06
2.79261e-06
0.0489161
1.26378e-06
2.38281e-09
0.137771
0.00654218
0.00595382
0.159176
1.04933e-06
7.72423e-08
0.182749
0.118021
8.51127e-05
6.37739e-10
2.37226e-07
3.60679e-05
9.54583e-05
0.0624301
0.000377853
6.38346e-09
0.0117695
1.7229e-09
0.00298572
0.00301152
7.13399e-09
0.00255714
0.000205172
0.0895931
0.103729
0.000339291
0.168652
0
2.6512e-06
1.47396e-05
1.44534e-06
0.00913252
0
0.172349
0.000509291
0.000201096
9.96833e-07
8.02127e-09
0.000465399
0.000895047
0.200812
0
4.89817e-08
3.12702e-09
0.0316153
0
1.02298e-08
0.0348111
0.000215577
0.0650378
0.063167
2.7487e-05
1.24808e-05
2.5857e-10
0.00157927
0.00269612
5.62596e-07
6.70711e-05
4.89936e-10
0.0672165
2.03792e-07
0.0884565
0.0466723
0.0154526
0.167999
3.14236e-05
0.000159208
2.67629e-06
0.000374444
0.249883
1.07958e-06
0.003298
2.38573e-07
5.03697e-08
0.0352263
1.21384e-10
3.56873e-10
3.57628e-07
6.61805e-05
0.0469786
0.00295224
0.00044852
0.00132775
0.0478354
0.000552587
0.0193628
0.0172603
0.00141386
1.22122e-09
0.00641913
0.0532762
0.00423218
0.000485763
0
9.72725e-10
1.04772e-06
0.000192092
0.0227201
5.6103e-09
4.49526e-05
3.67845e-08
0.0103569
0.0137929
1.32819e-06
0
0.0500812
6.8928e-06
3.69636e-09
0
0.00676791
0.0398501
5.01546e-06
1.7138e-07
9.71459e-06
7.09547e-06
0.000112512
0.000197531
0.000548855
0.125637
0.0582529
3.68391e-07
0.0254031
1.07475e-09
0.00131985
0.00964743
0
0.00191173
0
9.6972e-09
0.0376372
7.80355e-05
0.0354692
7.07973e-10
4.27531e-08
0.00175938
0.0269765
0.0110188
2.83443e-05
1.78711e-06
1.33238e-06
0.078825
0.0107217
1.35924e-10
0.0670666
0.0699803
6.58742e-05
0.000645684
5.8442e-05
2.30517e-05
0.00105541
7.38798e-09
0.110311
2.34282e-07
8.31827e-05
4.28373e-05
3.42907e-07
1.4482e-07
3.55538e-05
5.86346e-05
2.63377e-09
5.85697e-07
0.00410358
0.0660738
6.75656e-10
1.64398e-06
0.0093297
0.117594
2.27339e-07
0.0015379
0.0160185
2.42557e-05
0.28485
0.00460209
0.00191634
0.17705
0.00355339
0.155978
0.00177188
0.000445406
2.68758e-05
0.000502327
0.00049131
0.035695
0.0413683
0.000841063
2.53472e-06
5.09316e-10
8.22959e-05
0.188096
0.011134
6.76426e-08
4.13658e-07
1.80717e-05
2.10684e-06
1.18599e-07
0.0547844
0.00225548
1.22085e-09
0.00981212
0.00239399
6.33551e-07
0.00939274
5.41027e-05
0.000144792
2.00466e-05
4.91384e-08
0.0236256
0.00183728
5.66674e-07
0.0168524
0.0048708
0.0273218
5.90088e-05
0.00731736
0.000387513
0.000255501
0
9.12976e-05
6.02923e-05
1.21203e-08
2.83708e-09
0.0209294
4.33626e-06
8.78259e-09
5.3445e-10
7.99743e-05
0.000247155
6.35652e-05
0.19842
0.00801753
0
0.174995
0.000275763
0.000111165
3.71037e-09
5.40418e-07
0.00034536
0.000669489
0.0345586
0.0318601
0.000963277
2.60391e-07
0.0328311
0.145171
1.51969e-09
1.15364e-09
0.000172518
0.000147865
0.000197832
1.19775e-09
0.0733529
7.43673e-05
0.000142424
5.22642e-10
1.50561e-05
0
8.58054e-06
3.17636e-10
4.94212e-08
0.00362548
0.0198239
0.0128056
0.0481306
0.204394
0.00645723
5.20215e-06
6.30002e-09
0.19742
1.2209e-05
1.69898e-06
0
0.00846534
7.29288e-07
0.000310586
0.00101489
0
0
0.0068514
0.000491141
0
0.000177593
0.000129631
6.16864e-05
0.0145458
0.0108663
1.67924e-10
0.151413
0.0461956
0.0625345
1.0102e-07
0.0165528
9.41886e-05
0.00198328
2.4545e-10
2.52817e-10
0.00853203
0.00188899
0.0041175
0.00119148
0.000593112
4.61092e-10
1.22055e-10
2.47671e-09
0.00218883
0
0.00634568
0.00304279
0.165776
1.63256e-09
1.53982e-09
0.00010287
6.84908e-10
0.00173735
1.40693e-05
0.000376787
3.59939e-05
0.0979724
5.04646e-05
0.0944298
5.37116e-05
0.0895268
3.69438e-08
6.68546e-05
0.00010064
0.11167
0.000528839
0.00504935
0.00909348
4.97981e-06
0.000974871
0.0112461
9.06424e-06
0.00492154
9.13474e-10
0.00134774
2.66266e-07
3.15854e-05
4.26197e-05
1.83911e-06
7.8901e-05
1.8055e-10
2.77292e-07
0.153532
0.144179
1.86907e-06
5.55649e-10
0.00022142
0.00108633
0.0136738
0.143722
0.207303
1.79432e-08
4.03843e-08
3.20369e-09
1.59155e-07
0.000115149
2.77562e-10
0.0112811
0.000384782
1.16002e-06
9.10099e-07
2.69261e-05
8.72529e-05
0.00012053
0.000118124
0.000192454
0.0427274
5.20714e-05
0.0318972
0.0414908
9.7986e-08
8.66171e-05
6.42064e-06
5.35136e-05
0.0400345
7.23443e-05
0.000129651
4.42341e-05
1.62757e-09
6.1963e-05
7.29733e-05
0.194533
0.00887138
0.224523
2.91067e-06
2.39807e-05
0.00988195
0.0182961
0.0608815
0.18952
0.00911707
0.00348381
0.00185888
4.17858e-05
0.00019198